CNT in water
33632
    1C        C    1   1.945   3.692   2.867  0.1141  0.0786  0.1788
    1C        C    2   1.903   3.696   2.731  0.1775  0.0321  0.1671
    1C        C    3   1.781   3.632   2.701 -0.0979  0.2561  0.8183
    1C        C    4   2.222   3.864   3.235 -0.1134  0.2177  0.1016
    1C        C    5   2.197   3.849   3.097  0.5571 -0.5849  0.0593
    1C        C    6   2.084   3.779   3.051 -0.2124  0.6216  0.0901
    1C        C    7   2.155   3.804   2.825 -0.1293  0.1937  0.2854
    1C        C    8   2.050   3.774   2.914 -0.4066  0.7633  0.1397
    1C        C    9   2.128   3.784   2.687  0.2040  0.5403  0.1830
    1C        C   10   2.005   3.733   2.639  0.0337  0.8359  0.3375
    1C        C   11   2.105   3.708   2.418  0.0471 -0.1099 -0.2299
    1C        C   12   1.990   3.714   2.499  0.5119 -0.3928  0.4523
    1C        C   13   2.481   4.046   3.601 -0.0871 -0.0395  0.1702
    1C        C   14   2.457   4.037   3.462  0.4320 -0.7221  0.1193
    1C        C   15   2.357   3.948   3.417 -0.0111 -0.1851  0.0269
    1C        C   16   2.428   3.984   3.185 -0.2472  0.5483  0.0192
    1C        C   17   2.342   3.925   3.279 -0.0384  0.1694 -0.0306
    1C        C   18   2.407   3.960   3.048  0.1859 -0.1897  0.0820
    1C        C   19   2.285   3.906   3.002  0.1013  0.0666  0.0359
    1C        C   20   2.386   3.865   2.784 -0.0795 -0.7513  0.2728
    1C        C   21   2.272   3.870   2.866 -0.2682  0.6428 -0.0729
    1C        C   22   2.372   3.816   2.652 -0.0756  0.4948 -0.1944
    1C        C   23   2.243   3.784   2.604  0.1113 -0.6390  0.0621
    1C        C   24   2.348   3.692   2.402  0.0578 -0.0179  0.0465
    1C        C   25   2.232   3.736   2.472 -0.0249  0.1476 -0.2082
    1C        C   26   2.351   3.644   2.269 -0.0027 -0.7374  0.3035
    1C        C   27   2.754   4.224   3.967  0.4531  0.1211  0.1168
    1C        C   28   2.728   4.205   3.829 -0.0861 -0.1250  0.2539
    1C        C   29   2.614   4.134   3.788  0.1059 -0.0924 -0.3277
    1C        C   30   2.700   4.128   3.557  0.3324  0.3614 -0.1078
    1C        C   31   2.595   4.113   3.649  0.2326 -0.2299 -0.3192
    1C        C   32   2.687   4.107   3.418 -0.1794 -0.1807  0.0275
    1C        C   33   2.560   4.069   3.371 -0.2884  0.5622 -0.2607
    1C        C   34   2.662   4.031   3.150  0.0489 -0.1726 -0.1793
    1C        C   35   2.548   4.040   3.233  0.0905 -0.0316 -0.1602
    1C        C   36   2.650   3.977   3.020  0.1231  0.1379 -0.2969
    1C        C   37   2.522   3.953   2.967  0.0965 -0.2415 -0.0196
    1C        C   38   2.625   3.840   2.772  0.0947  0.7857 -0.5132
    1C        C   39   2.511   3.879   2.847  0.0662  0.1089 -0.2178
    1C        C   40   2.607   3.761   2.657 -0.6764 -0.8393  0.6898
    1C        C   41   2.482   3.752   2.592 -0.1653  0.6825 -0.5345
    1C        C   42   2.590   3.627   2.411  0.1846 -0.1502 -0.0338
    1C        C   43   2.475   3.690   2.466  0.1622 -0.0822 -0.1763
    1C        C   44   2.582   3.566   2.284  0.4982  0.4081 -0.3214
    1C        C   45   2.460   3.578   2.214  0.0281 -0.6739  0.2945
    1C        C   46   3.029   4.391   4.330  0.0780 -0.3639  0.2427
    1C        C   47   3.013   4.362   4.193  0.6920 -0.9294  0.2762
    1C        C   48   2.898   4.293   4.148 -0.0706  0.1956  0.4552
    1C        C   49   2.977   4.308   3.917 -0.2271 -0.0006 -0.2777
    1C        C   50   2.872   4.289   4.009  0.3119  0.1979  0.3827
    1C        C   51   2.961   4.266   3.784 -0.0252 -0.9582 -0.0002
    1C        C   52   2.839   4.208   3.742 -0.4400  0.0378 -0.1853
    1C        C   53   2.942   4.161   3.529  0.5163 -0.2521 -0.2100
    1C        C   54   2.825   4.172   3.607  0.4879  0.1345 -0.3097
    1C        C   55   2.928   4.109   3.399 -0.0207 -0.3018 -0.1309
    1C        C   56   2.802   4.088   3.338 -0.1765  0.8619 -0.2078
    1C        C   57   2.906   4.003   3.134 -0.2266 -0.8005  0.3185
    1C        C   58   2.790   4.036   3.208 -0.1072  0.0322  0.1192
    1C        C   59   2.890   3.928   3.016  0.0440 -0.5552  0.1361
    1C        C   60   2.765   3.932   2.951  0.2751  0.4829 -0.2470
    1C        C   61   2.857   3.778   2.782 -0.2491 -0.1573  0.2543
    1C        C   62   2.751   3.857   2.833 -0.0568  0.3050 -0.0812
    1C        C   63   2.847   3.699   2.665 -0.4951 -0.0356  0.1984
    1C        C   64   2.721   3.696   2.603 -0.4341  0.0893  0.0782
    1C        C   65   2.809   3.525   2.451  0.2425  0.0489  0.1261
    1C        C   66   2.708   3.617   2.487 -0.2592 -0.6793  0.5852
    1C        C   67   2.785   3.436   2.344 -0.0154  0.0071  0.2274
    1C        C   68   2.674   3.459   2.258  0.2360  0.1208 -0.0546
    1C        C   69   2.773   3.288   2.113  0.3067  0.0364 -0.2815
    1C        C   70   2.697   3.404   2.129 -0.0636 -0.2555  0.0589
    1C        C   71   3.308   4.564   4.693  0.2240 -0.1673  0.3655
    1C        C   72   3.293   4.527   4.557 -0.1330 -0.4251  0.4732
    1C        C   73   3.166   4.485   4.512  0.0575 -0.1816 -0.3076
    1C        C   74   3.256   4.467   4.286  0.1761  0.6813 -0.2162
    1C        C   75   3.149   4.449   4.376  0.1366  0.0374 -0.3833
    1C        C   76   3.239   4.438   4.149  0.3117  0.2738 -0.1453
    1C        C   77   3.115   4.391   4.100  0.0680  0.6976  0.0644
    1C        C   78   3.219   4.311   3.899 -0.6112  0.5007 -0.1196
    1C        C   79   3.102   4.354   3.965 -0.5068  0.2014  0.2557
    1C        C   80   3.209   4.261   3.768  0.2504  0.6985 -0.2678
    1C        C   81   3.080   4.237   3.714  0.2403 -0.2629  0.1695
    1C        C   82   3.185   4.132   3.519  0.3794  0.1239 -0.0818
    1C        C   83   3.070   4.177   3.587  0.3119 -0.7233  0.3790
    1C        C   84   3.171   4.090   3.386  0.1745  0.0294 -0.0304
    1C        C   85   3.044   4.076   3.325  0.2260  1.1506 -0.4081
    1C        C   86   3.143   3.950   3.144 -0.1622  0.4174 -0.0160
    1C        C   87   3.031   4.014   3.200 -0.1592  0.3998 -0.0002
    1C        C   88   3.124   3.861   3.036  0.5914  0.5268 -0.2406
    1C        C   89   3.001   3.856   2.968  0.3309 -0.2055  0.2865
    1C        C   90   3.079   3.680   2.826 -0.3305 -0.0185  0.3367
    1C        C   91   2.978   3.775   2.854 -0.0554  0.3896 -0.0580
    1C        C   92   3.057   3.590   2.720 -0.3072 -0.1627  0.4579
    1C        C   93   2.948   3.606   2.633 -0.1183  0.3309  0.3102
    1C        C   94   3.011   3.409   2.506 -0.0893  0.0285 -0.1683
    1C        C   95   2.933   3.526   2.517  0.0413  0.0486  0.4910
    1C        C   96   2.974   3.308   2.415  0.2933 -0.3189  0.0724
    1C        C   97   2.855   3.313   2.339  0.4359  0.2815 -0.0937
    1C        C   98   2.912   3.109   2.223 -0.2968  0.0216 -0.0471
    1C        C   99   2.843   3.234   2.223  0.5384  0.4779 -0.2245
    1C        C  100   2.879   3.000   2.140  0.2167  0.0538 -0.2878
    1C        C  101   3.400   4.708   4.863  0.4711 -0.1446  0.0225
    1C        C  102   3.526   4.662   4.647  0.1776  0.2020 -0.1406
    1C        C  103   3.415   4.646   4.736  0.3109 -0.0745 -0.0269
    1C        C  104   3.515   4.609   4.515 -0.1530 -0.5947  0.2035
    1C        C  105   3.394   4.558   4.465 -0.4315 -0.0134  0.2812
    1C        C  106   3.490   4.498   4.253  0.0603  0.4611 -0.5746
    1C        C  107   3.375   4.529   4.328  0.4121 -0.0245  0.1661
    1C        C  108   3.484   4.431   4.128  0.2895 -0.7419  0.0542
    1C        C  109   3.355   4.413   4.073  0.2659 -0.1293 -0.0843
    1C        C  110   3.461   4.311   3.879 -0.1188  0.6617 -0.3777
    1C        C  111   3.344   4.356   3.945 -0.3112 -0.6226  0.1820
    1C        C  112   3.451   4.246   3.754  0.1215 -0.1564  0.0212
    1C        C  113   3.325   4.234   3.692  0.1696 -0.2661 -0.0654
    1C        C  114   3.426   4.109   3.507  0.2190 -0.7004 -0.1409
    1C        C  115   3.312   4.162   3.571  0.4870  0.1506 -0.3525
    1C        C  116   3.410   4.027   3.393  0.4173  0.1359 -0.7789
    1C        C  117   3.283   4.025   3.330  0.1144  0.0482 -0.1671
    1C        C  118   3.364   3.850   3.179  0.0599  0.3102 -0.2782
    1C        C  119   3.264   3.942   3.217 -0.2568 -0.1889  0.0760
    1C        C  120   3.341   3.757   3.075  0.0802 -0.0863  0.0850
    1C        C  121   3.222   3.767   3.000  0.0407 -0.1936  0.1421
    1C        C  122   3.279   3.554   2.891 -0.1146  0.0184 -0.2935
    1C        C  123   3.195   3.666   2.905  0.1482  0.2165 -0.3203
    1C        C  124   3.259   3.468   2.781  0.3439  0.1986 -0.5145
    1C        C  125   3.147   3.483   2.697 -0.0181  0.1864 -0.0329
    1C        C  126   3.191   3.269   2.596 -0.3488  0.1365  0.1407
    1C        C  127   3.115   3.387   2.599 -0.1034  0.2932 -0.1031
    1C        C  128   3.151   3.167   2.508  0.2117  0.1277 -0.0950
    1C        C  129   3.043   3.185   2.419  0.2690 -0.3306 -0.2448
    1C        C  130   3.061   2.955   2.344  0.3211  0.0696 -0.1962
    1C        C  131   3.008   3.086   2.325  0.0108 -0.0956 -0.3802
    1C        C  132   3.015   2.845   2.266  0.1366  0.3013 -0.3928
    1C        C  133   2.913   2.869   2.172 -0.0813 -0.0044 -0.2252
    1C        C  134   3.766   4.656   4.628 -0.0497 -0.9376 -0.1757
    1C        C  135   3.653   4.691   4.701  0.2275  0.3933 -0.3671
    1C        C  136   3.757   4.604   4.498 -0.1573  0.1849 -0.6200
    1C        C  137   3.630   4.571   4.441 -0.2535 -0.8625  0.2002
    1C        C  138   3.734   4.470   4.250  0.0685  0.8153 -0.4926
    1C        C  139   3.617   4.518   4.311 -0.0607  0.1449 -0.2267
    1C        C  140   3.726   4.390   4.134  0.0682  0.1038  0.0030
    1C        C  141   3.603   4.389   4.065  0.1711 -0.7335 -0.1611
    1C        C  142   3.697   4.253   3.888  0.4153 -0.0118  0.1157
    1C        C  143   3.586   4.319   3.944 -0.1790 -0.8613 -0.0370
    1C        C  144   3.685   4.177   3.770  0.1879  0.3761 -0.1111
    1C        C  145   3.559   4.169   3.707 -0.0549 -0.6943  0.4793
    1C        C  146   3.643   4.009   3.547  0.1458  0.2384 -0.2852
    1C        C  147   3.545   4.105   3.582  0.1469  0.1229  0.0327
    1C        C  148   3.623   3.919   3.441 -0.0885  0.3380 -0.3200
    1C        C  149   3.501   3.922   3.371 -0.3419 -0.7135  0.0701
    1C        C  150   3.565   3.728   3.243  0.3243 -0.1772  0.2267
    1C        C  151   3.479   3.839   3.259 -0.1589 -0.5196 -0.0983
    1C        C  152   3.538   3.632   3.143 -0.0020  0.5320 -0.3613
    1C        C  153   3.414   3.636   3.075  0.3116  0.0553 -0.9524
    1C        C  154   3.470   3.424   2.966  0.6663  0.2377 -0.0003
    1C        C  155   3.384   3.534   2.983 -0.1931 -0.3867 -0.2973
    1C        C  156   3.444   3.328   2.865  0.0290 -0.0536  0.4484
    1C        C  157   3.340   3.353   2.773 -0.5122 -0.5238  0.9377
    1C        C  158   3.347   3.119   2.707  0.5446  0.5188  0.2994
    1C        C  159   3.299   3.250   2.685 -0.1670  0.2046 -0.0742
    1C        C  160   3.294   3.013   2.631  0.7064  0.8085 -0.2226
    1C        C  161   3.205   3.037   2.524  0.3805  0.2055 -0.0900
    1C        C  162   3.183   2.798   2.486 -0.0269  0.2895  0.0225
    1C        C  163   3.147   2.930   2.453 -0.3043  0.2888  0.3429
    1C        C  164   3.138   2.692   2.406 -0.8794  0.4824  0.2524
    1C        C  165   3.063   2.712   2.287 -0.6260  0.0976  0.0389
    1C        C  166   3.063   2.472   2.247 -0.5229  0.3343  0.6359
    1C        C  167   3.057   2.602   2.197 -0.4272  0.1028  0.0363
    1C        C  168   4.002   4.589   4.469  0.0513 -0.3593  0.0645
    1C        C  169   3.872   4.549   4.432 -0.0098  0.3105 -0.4505
    1C        C  170   3.973   4.401   4.266  0.0612 -0.1174  0.2453
    1C        C  171   3.860   4.472   4.314 -0.0815 -0.0830 -0.1752
    1C        C  172   3.962   4.338   4.141 -0.0887  0.1661  0.1317
    1C        C  173   3.836   4.323   4.078  0.0170  0.0676 -0.0253
    1C        C  174   3.926   4.169   3.912  0.5301  0.5665 -0.9230
    1C        C  175   3.818   4.246   3.961  0.5611  0.1003 -0.1253
    1C        C  176   3.906   4.080   3.804 -0.0376 -0.4675  0.0205
    1C        C  177   3.782   4.081   3.736 -0.0290  0.1063  0.0136
    1C        C  178   3.848   3.890   3.606  0.2375  0.1651  0.0953
    1C        C  179   3.750   3.987   3.636  0.4142  0.5341 -0.5385
    1C        C  180   3.817   3.791   3.511 -0.1753  0.2344  0.1597
    1C        C  181   3.709   3.808   3.422  0.2975  0.6473 -0.3401
    1C        C  182   3.756   3.593   3.319  0.9828  0.5271 -0.8353
    1C        C  183   3.678   3.710   3.325  0.2736  0.0046  0.3154
    1C        C  184   3.720   3.491   3.228 -0.2479  0.2700 -0.0650
    1C        C  185   3.614   3.514   3.137 -0.3851  0.2720  0.1120
    1C        C  186   3.654   3.287   3.044  0.7900  0.0878 -0.2091
    1C        C  187   3.587   3.412   3.043  0.3987 -0.1260  0.3308
    1C        C  188   3.607   3.175   2.972 -0.4099 -0.0482  0.7684
    1C        C  189   3.503   3.200   2.881  0.5883  0.1130 -0.3280
    1C        C  190   3.479   2.963   2.838 -0.1505 -0.4993 -0.3860
    1C        C  191   3.442   3.096   2.808  0.1836 -0.2043  0.4733
    1C        C  192   3.420   2.856   2.769 -0.2830 -0.4463 -0.3559
    1C        C  193   3.331   2.881   2.662 -0.5537  0.5088  0.0778
    1C        C  194   3.299   2.640   2.630  0.1913  0.0363 -0.7094
    1C        C  195   3.268   2.773   2.596  0.4589  0.1813 -0.3812
    1C        C  196   3.236   2.532   2.565  0.2916 -0.3761 -0.1257
    1C        C  197   3.159   2.558   2.449  0.8908  0.5636 -0.3090
    1C        C  198   3.096   2.323   2.448  0.3496  0.0214 -0.3296
    1C        C  199   3.104   2.449   2.380  0.6808  0.3160  0.2644
    1C        C  200   2.995   2.233   2.409  0.3336 -0.1265  0.0671
    1C        C  201   4.113   4.539   4.400  0.2201  0.0392  0.0562
    1C        C  202   4.194   4.315   4.295 -0.4841 -0.6258  0.9184
    1C        C  203   4.102   4.422   4.321  0.0992  0.0785  0.0413
    1C        C  204   4.176   4.235   4.179 -0.0155  0.5774  0.0212
    1C        C  205   4.062   4.249   4.097 -0.5623 -0.5836  0.5934
    1C        C  206   4.118   4.039   3.981  0.8210  0.5245 -0.3025
    1C        C  207   4.042   4.158   3.991 -0.4178 -0.3185  0.3537
    1C        C  208   4.091   3.945   3.880 -0.0338  0.3365  0.0999
    1C        C  209   3.987   3.966   3.788 -0.1614 -0.5537  0.0351
    1C        C  210   4.038   3.752   3.685 -0.3375 -0.8446  0.1843
    1C        C  211   3.953   3.864   3.697 -0.3869 -0.9203  0.5296
    1C        C  212   4.004   3.654   3.589 -0.3750 -0.5887 -0.0636
    1C        C  213   3.901   3.678   3.496 -0.3469  0.1211  0.0854
    1C        C  214   3.925   3.447   3.416  0.0217 -0.1851 -0.1785
    1C        C  215   3.863   3.573   3.409 -0.4585 -0.3696  0.7225
    1C        C  216   3.883   3.343   3.330 -0.6211 -0.3910  0.3822
    1C        C  217   3.785   3.366   3.231  0.1551  0.4851 -0.1867
    1C        C  218   3.761   3.127   3.193  0.2017  0.0572 -0.1688
    1C        C  219   3.745   3.260   3.148  0.4669  0.1660  0.0847
    1C        C  220   3.713   3.017   3.119 -0.5462  0.0867  0.2878
    1C        C  221   3.647   3.042   2.997  0.1089 -0.0437 -0.0866
    1C        C  222   3.599   2.803   2.976 -0.0397  0.2970  0.0437
    1C        C  223   3.582   2.936   2.932 -0.1052  0.1883 -0.2328
    1C        C  224   3.529   2.696   2.916 -0.0363  0.0808  0.4340
    1C        C  225   3.436   2.723   2.814 -0.1072 -0.1673  0.4334
    1C        C  226   3.377   2.490   2.806  0.2204  0.3481 -0.0502
    1C        C  227   3.383   2.614   2.741 -0.5300  0.3738 -0.0767
    1C        C  228   3.305   2.384   2.746  0.2875  0.1231  0.2666
    1C        C  229   3.225   2.409   2.632  0.4263 -0.2625  0.0899
    1C        C  230   3.132   2.189   2.648  0.1102  0.2296  0.0699
    1C        C  231   3.173   2.297   2.564  0.0845  0.0528 -0.1588
    1C        C  232   3.042   2.090   2.600 -0.4399  0.5848  0.3898
    1C        C  233   2.967   2.121   2.485 -0.4649  0.2395  0.3211
    1C        C  234   4.395   4.188   4.355 -0.3231 -0.5021  0.2595
    1C        C  235   4.311   4.298   4.371  0.1008 -0.1647  0.1191
    1C        C  236   4.379   4.109   4.239 -0.0288 -0.0297 -0.0958
    1C        C  237   4.258   4.120   4.164 -0.3270  0.3176  0.4592
    1C        C  238   4.311   3.910   4.058  0.0271  0.1116 -0.1466
    1C        C  239   4.234   4.028   4.060  0.3822  0.3239  0.3027
    1C        C  240   4.276   3.809   3.967 -0.2527  0.1080 -0.0205
    1C        C  241   4.169   3.827   3.877  0.2243  0.5253 -0.5060
    1C        C  242   4.214   3.609   3.776  0.2801  0.2590 -0.2691
    1C        C  243   4.138   3.728   3.781 -0.1718 -0.0537  0.2127
    1C        C  244   4.168   3.506   3.691  0.0522  0.1895 -0.0545
    1C        C  245   4.058   3.524   3.605  0.1461 -0.4031 -0.3004
    1C        C  246   4.063   3.292   3.544  0.2020 -0.1795  0.0361
    1C        C  247   4.026   3.424   3.511  0.2628 -0.2870 -0.4609
    1C        C  248   3.993   3.188   3.479 -0.6554  0.2364  0.2837
    1C        C  249   3.912   3.209   3.365  0.4932 -0.4382 -0.6731
    1C        C  250   3.879   2.970   3.341  0.0051 -0.4057  0.3014
    1C        C  251   3.849   3.101   3.300  0.7956 -0.5453 -0.7886
    1C        C  252   3.817   2.861   3.276 -0.0650 -0.2325  0.0895
    1C        C  253   3.741   2.885   3.159  0.3753  0.1685 -0.1049
    1C        C  254   3.689   2.651   3.145  0.3112 -0.1350 -0.6972
    1C        C  255   3.684   2.779   3.085 -0.3629  0.3000  0.2879
    1C        C  256   3.594   2.554   3.106 -0.3569 -0.0082  0.6056
    1C        C  257   3.533   2.570   2.980  0.1154  0.0695  0.3923
    1C        C  258   3.432   2.351   2.998 -0.4135  0.3984  0.1174
    1C        C  259   3.451   2.470   2.925 -0.1773  0.4128  0.2088
    1C        C  260   3.335   2.259   2.953  0.5242 -0.4635 -0.1665
    1C        C  261   3.287   2.266   2.820  0.1620 -0.0334 -0.0172
    1C        C  262   3.148   2.068   2.856 -0.2809  0.4426  0.1266
    1C        C  263   3.198   2.169   2.771  0.5287 -0.2573 -0.2389
    1C        C  264   3.057   1.969   2.811  0.3564 -0.0313 -0.1288
    1C        C  265   3.012   1.973   2.677  0.3444  0.0550 -0.1159
    1C        C  266   2.882   1.772   2.736  0.1510  0.0580  0.0655
    1C        C  267   2.943   1.854   2.639  0.0737  0.1499  0.1007
    1C        C  268   4.603   3.998   4.263 -0.0062 -0.2409 -0.2459
    1C        C  269   4.468   3.999   4.220 -0.0155  0.0083 -0.1919
    1C        C  270   4.509   3.779   4.126 -0.2165 -0.2078  0.1699
    1C        C  271   4.433   3.898   4.128 -0.1226 -0.1588  0.0453
    1C        C  272   4.463   3.672   4.046 -0.3457 -0.0378  0.0379
    1C        C  273   4.353   3.691   3.959 -0.0501  0.2674 -0.2567
    1C        C  274   4.361   3.458   3.894 -0.1409  0.1640 -0.1366
    1C        C  275   4.321   3.590   3.866  0.3543  0.2530 -0.3704
    1C        C  276   4.295   3.350   3.831 -0.6964  0.0061  0.7191
    1C        C  277   4.212   3.375   3.720  0.1532  0.2750  0.1453
    1C        C  278   4.177   3.136   3.693 -0.2416  0.2953  0.1953
    1C        C  279   4.154   3.268   3.649  0.9043  0.2787 -0.4674
    1C        C  280   4.115   3.029   3.625 -0.0817 -0.0725  0.6398
    1C        C  281   4.022   3.057   3.522  0.2049  0.5074  0.5375
    1C        C  282   3.958   2.822   3.515  0.8081  0.1770 -0.8225
    1C        C  283   3.957   2.950   3.457  1.0028  0.4638 -0.2075
    1C        C  284   3.884   2.716   3.458 -0.6962  0.4400  0.5605
    1C        C  285   3.825   2.731   3.331  0.7215 -0.3056 -0.2028
    1C        C  286   3.703   2.527   3.360  0.0598  0.6169 -0.1905
    1C        C  287   3.742   2.632   3.274 -0.2800  0.6029 -0.3489
    1C        C  288   3.614   2.430   3.309  0.2985  0.0203  0.5323
    1C        C  289   3.578   2.430   3.173 -0.1744  0.0070  0.6608
    1C        C  290   3.416   2.253   3.220 -0.1540 -0.0989 -0.2616
    1C        C  291   3.484   2.335   3.128 -0.3393  0.4455  0.0901
    1C        C  292   3.315   2.165   3.175 -0.5991  0.2247  0.0999
    1C        C  293   3.270   2.170   3.041 -0.0883  0.0584 -0.0827
    1C        C  294   3.116   1.989   3.085 -0.5972  0.2624 -0.0124
    1C        C  295   3.184   2.071   2.992 -0.0734 -0.0434  0.0852
    1C        C  296   3.007   1.909   3.045 -0.0543 -0.4118 -0.1730
    1C        C  297   2.978   1.901   2.907  0.1724  0.0256 -0.2461
    1C        C  298   2.793   1.750   2.963  0.0236  0.0828  0.3207
    1C        C  299   2.899   1.787   2.875 -0.2157  0.2045  0.0919
    1C        C  300   2.673   1.684   2.928  0.3049 -0.0621 -0.3625
    1C        C  301   4.674   3.878   4.266  0.1672 -0.1198  0.4196
    1C        C  302   4.649   3.625   4.250 -0.7409 -0.0025  0.2248
    1C        C  303   4.624   3.759   4.207 -0.3008  0.1161  0.3520
    1C        C  304   4.585   3.518   4.182 -0.5388  0.0488 -0.0332
    1C        C  305   4.505   3.539   4.068 -0.5757 -0.1092 -0.0257
    1C        C  306   4.470   3.296   4.044  0.1443  0.1510  0.6118
    1C        C  307   4.447   3.429   4.002  0.2696 -0.2118 -0.5803
    1C        C  308   4.408   3.188   3.978 -0.4149  0.3846  0.7719
    1C        C  309   4.329   3.217   3.865 -0.2023  0.1082  0.5693
    1C        C  310   4.253   2.987   3.865 -0.9674  0.3131  0.3497
    1C        C  311   4.267   3.110   3.797 -0.6688  0.3916  0.5764
    1C        C  312   4.163   2.891   3.816  0.1044 -0.2840 -0.4597
    1C        C  313   4.087   2.912   3.699 -0.2078 -0.6573 -0.3238
    1C        C  314   3.981   2.695   3.727 -0.6704  0.1130  0.3268
    1C        C  315   4.007   2.808   3.647 -0.3634 -0.4833 -0.4353
    1C        C  316   3.904   2.593   3.667 -0.0064 -0.1417 -0.1100
    1C        C  317   3.851   2.604   3.537 -0.7990  0.2446  0.2384
    1C        C  318   3.698   2.417   3.575 -0.0339 -0.0212 -0.2046
    1C        C  319   3.760   2.508   3.487  0.2373 -0.4124 -0.4156
    1C        C  320   3.589   2.337   3.535 -0.3567  0.3353 -0.0334
    1C        C  321   3.569   2.328   3.396 -0.1302 -0.2642 -0.0263
    1C        C  322   3.394   2.162   3.440 -0.2049  1.1212  0.6784
    1C        C  323   3.467   2.242   3.350  0.2117 -0.4533 -0.4334
    1C        C  324   3.274   2.096   3.407  0.4563  0.0881  0.2641
    1C        C  325   3.242   2.090   3.270 -0.3976  0.4409  0.4351
    1C        C  326   3.056   1.945   3.319  0.0591  0.0763 -0.2699
    1C        C  327   3.143   2.001   3.223  0.2614 -0.0069 -0.1439
    1C        C  328   2.940   1.877   3.279  0.5782 -1.1473  0.2353
    1C        C  329   2.912   1.868   3.141  0.0813  0.2187  0.2333
    1C        C  330   2.689   1.783   3.185 -0.2006  0.4315 -0.0805
    1C        C  331   2.799   1.797   3.097  0.1942 -0.0217  0.3430
    1C        C  332   2.562   1.741   3.137 -0.0259  0.6657 -0.7255
    1C        C  333   2.574   1.657   3.023  0.5003 -0.0186 -0.1570
    1C        C  334   4.762   3.471   4.401  0.0399  0.2272  0.6268
    1C        C  335   4.751   3.597   4.343 -0.5772 -0.1033  0.0103
    1C        C  336   4.684   3.366   4.348  0.3556  0.3645 -0.1225
    1C        C  337   4.609   3.386   4.229  0.4339  0.1697 -0.1971
    1C        C  338   4.526   3.158   4.234 -0.6794 -0.0119  0.5460
    1C        C  339   4.535   3.283   4.168 -0.3515  0.1166  0.8560
    1C        C  340   4.445   3.055   4.181  1.1088 -0.8753 -0.5849
    1C        C  341   4.388   3.070   4.053  0.7779 -0.5792 -0.3895
    1C        C  342   4.267   2.862   4.075 -0.2839  0.1430  0.1200
    1C        C  343   4.308   2.970   3.994 -0.2084 -0.0068 -0.0251
    1C        C  344   4.172   2.767   4.032  0.7675 -0.6952 -0.3729
    1C        C  345   4.124   2.786   3.901  0.2211 -0.0099 -0.0738
    1C        C  346   3.989   2.578   3.933  0.0445  0.0475  0.0019
    1C        C  347   4.025   2.694   3.861  0.0432  0.1073  0.0998
    1C        C  348   3.884   2.495   3.887  0.0247  0.0143  0.1162
    1C        C  349   3.852   2.491   3.750  0.7375 -0.4674 -0.0407
    1C        C  350   3.668   2.338   3.803  0.8797  0.2594  0.0360
    1C        C  351   3.737   2.420   3.711  0.3361  0.3223 -0.3194
    1C        C  352   3.553   2.268   3.763  0.7209  0.4411  0.1686
    1C        C  353   3.515   2.260   3.627  0.1675  0.2653  0.3309
    1C        C  354   3.331   2.115   3.676 -0.2574  0.0494  0.3941
    1C        C  355   3.418   2.169   3.579 -0.0972  0.3486  0.7049
    1C        C  356   3.214   2.046   3.636  0.2784 -0.6219 -0.0248
    1C        C  357   3.194   2.023   3.498 -0.4134  0.5298 -0.1252
    1C        C  358   2.974   1.938   3.550  0.4236 -0.7732  0.1995
    1C        C  359   3.080   1.951   3.458 -0.0348 -0.0114 -0.2456
    1C        C  360   2.845   1.902   3.503  0.2890 -0.2187  0.1234
    1C        C  361   2.830   1.868   3.367  0.1359  0.6718 -0.0876
    1C        C  362   2.590   1.848   3.398  0.4184  0.6719 -0.2051
    1C        C  363   2.705   1.825   3.319  0.4232 -0.4016  0.1066
    1C        C  364   2.463   1.840   3.339  0.3797 -0.6456  0.0306
    1C        C  365   2.447   1.768   3.218  0.1846 -0.4406 -0.0584
    1C        C  366   2.212   1.811   3.235 -0.2049  0.4879 -0.5819
    1C        C  367   2.318   1.759   3.162  0.0385 -0.2111  0.2552
    1C        C  368   4.720   3.217   4.543 -0.2624  0.0889 -0.4268
    1C        C  369   4.656   3.246   4.421 -0.3201  0.4016 -0.3190
    1C        C  370   4.560   3.022   4.435 -0.0482  0.0337  0.2513
    1C        C  371   4.586   3.140   4.360  0.5349 -0.3076 -0.0698
    1C        C  372   4.467   2.929   4.386  0.0108  0.0761  0.0886
    1C        C  373   4.415   2.939   4.255  0.1956 -0.2689 -0.0021
    1C        C  374   4.262   2.760   4.296 -0.1775  0.1065  0.0976
    1C        C  375   4.306   2.862   4.210  0.0549 -0.0688  0.0138
    1C        C  376   4.170   2.663   4.252  0.0512 -0.0051 -0.1250
    1C        C  377   4.124   2.665   4.118 -0.1620  0.0119 -0.0489
    1C        C  378   3.951   2.501   4.161 -0.4002  0.1460 -0.0560
    1C        C  379   4.024   2.579   4.069  0.2439 -0.4521 -0.0472
    1C        C  380   3.829   2.445   4.118 -0.3697 -0.0953  0.1786
    1C        C  381   3.813   2.417   3.981 -0.2595  0.2506  0.0969
    1C        C  382   3.606   2.298   4.033 -0.3135 -0.0695  0.0723
    1C        C  383   3.703   2.340   3.939 -0.0846 -0.1049  0.2911
    1C        C  384   3.492   2.226   3.994  0.1447 -0.7686  0.0093
    1C        C  385   3.470   2.203   3.856  0.5236  0.1449 -0.2075
    1C        C  386   3.248   2.125   3.907  0.1793 -0.2541  0.3841
    1C        C  387   3.352   2.138   3.813 -0.1131  0.9883  0.2208
    1C        C  388   3.128   2.063   3.865  0.3333 -0.5032  0.3247
    1C        C  389   3.116   2.017   3.733 -0.1396  0.6489 -0.0469
    1C        C  390   2.875   2.003   3.762 -0.2121  0.3745 -0.4485
    1C        C  391   2.990   1.976   3.685  0.0286  0.0344  0.0324
    1C        C  392   2.745   1.977   3.713 -0.3097 -0.1362  0.0722
    1C        C  393   2.731   1.928   3.581  0.2270  0.1107 -0.0791
    1C        C  394   2.491   1.955   3.596  0.1365 -0.2347  0.3744
    1C        C  395   2.603   1.903   3.527  0.1670  0.4347 -0.0840
    1C        C  396   2.361   1.926   3.548  0.1358  0.8781 -0.3037
    1C        C  397   2.349   1.863   3.423  0.4547  0.6375 -0.2092
    1C        C  398   2.105   1.890   3.444  0.2700 -0.3187 -0.3787
    1C        C  399   2.221   1.870   3.362  0.3821 -0.4481 -0.1831
    1C        C  400   1.974   1.856   3.404 -0.1260  0.3522  0.3218
    1C        C  401   4.714   3.093   4.606  0.0877  0.0930 -0.3883
    1C        C  402   4.579   2.888   4.641  0.2301 -0.0523  0.1348
    1C        C  403   4.629   2.990   4.555  0.2997 -0.2481 -0.0352
    1C        C  404   4.460   2.819   4.605 -0.1232  0.4946  0.2899
    1C        C  405   4.411   2.833   4.474 -0.2383  0.4687  0.3429
    1C        C  406   4.232   2.676   4.526  0.5014 -0.1787 -0.1094
    1C        C  407   4.304   2.752   4.431  0.6548 -0.4283 -0.1896
    1C        C  408   4.127   2.594   4.479 -0.2015  0.8339 -0.3379
    1C        C  409   4.098   2.581   4.342  0.4736 -0.6429 -0.3633
    1C        C  410   3.897   2.457   4.395  0.3193 -0.3592 -0.0846
    1C        C  411   3.984   2.512   4.298  0.1775 -0.2813 -0.1602
    1C        C  412   3.778   2.395   4.350  0.0011  0.0335  0.2273
    1C        C  413   3.753   2.373   4.213 -0.3865  0.0806  0.2954
    1C        C  414   3.535   2.283   4.267  0.0003 -0.5619 -0.1396
    1C        C  415   3.635   2.309   4.171  0.2585 -0.9413  0.0259
    1C        C  416   3.411   2.233   4.223 -0.0964 -0.4439  0.0052
    1C        C  417   3.387   2.206   4.086  0.1095 -0.6053  0.0029
    1C        C  418   3.153   2.155   4.133 -0.6435 -0.4197 -0.0011
    1C        C  419   3.263   2.154   4.045 -0.3655  0.2433  0.3383
    1C        C  420   3.025   2.127   4.080 -0.7502 -1.1388  0.6602
    1C        C  421   3.015   2.078   3.948  0.2868 -0.0429  0.1684
    1C        C  422   2.775   2.099   3.964  0.2242 -1.0613  0.0577
    1C        C  423   2.888   2.050   3.894  0.4933  0.3896 -0.5253
    1C        C  424   2.646   2.087   3.911  0.0133  0.1093  0.3009
    1C        C  425   2.633   2.023   3.785 -0.0528  0.0487  0.3443
    1C        C  426   2.399   2.077   3.784 -0.1693  0.3569 -0.3702
    1C        C  427   2.507   2.007   3.725 -0.0148  0.0550  0.2721
    1C        C  428   2.270   2.066   3.727 -0.0407 -0.0507 -0.5831
    1C        C  429   2.250   1.985   3.613 -0.5521 -0.6745 -0.0501
    1C        C  430   2.015   2.052   3.609  0.2218  0.5020  0.0114
    1C        C  431   2.124   1.982   3.551 -0.4319 -0.2492 -0.3155
    1C        C  432   1.890   2.046   3.542  0.2159 -0.0090  0.0806
    1C        C  433   1.877   1.947   3.442 -0.4588  0.0990  0.0691
    1C        C  434   4.553   2.791   4.865 -0.1534 -0.4836 -0.5732
    1C        C  435   4.616   2.878   4.777 -0.1316  0.3491  0.2572
    1C        C  436   4.425   2.738   4.838 -0.5818  0.4385 -0.3293
    1C        C  437   4.385   2.747   4.702 -0.4128 -0.1159 -0.4038
    1C        C  438   4.187   2.618   4.755 -0.4940 -0.3227  0.2250
    1C        C  439   4.278   2.665   4.659 -0.4977 -0.3280  0.2293
    1C        C  440   4.070   2.552   4.711 -0.0459 -0.9165 -0.0759
    1C        C  441   4.039   2.538   4.574  0.1139  0.4609 -0.2638
    1C        C  442   3.826   2.441   4.628 -0.0305  0.2319 -0.2143
    1C        C  443   3.927   2.463   4.533  0.0550  0.4445 -0.0660
    1C        C  444   3.698   2.406   4.581 -0.1127  0.1914  0.0597
    1C        C  445   3.680   2.365   4.447 -0.0752 -0.0118  0.1262
    1C        C  446   3.445   2.325   4.489  0.0060  0.2343 -0.4621
    1C        C  447   3.556   2.314   4.402  0.1255 -0.1564 -0.2565
    1C        C  448   3.316   2.299   4.438  0.1021  0.3102 -0.7367
    1C        C  449   3.299   2.251   4.307 -0.4088 -0.3419 -0.4310
    1C        C  450   3.057   2.266   4.323  0.0925  0.9550  0.0644
    1C        C  451   3.171   2.210   4.261 -0.5595 -0.2274 -0.1038
    1C        C  452   2.929   2.244   4.269  0.4853 -0.0875 -0.4625
    1C        C  453   2.911   2.177   4.146 -0.8037  0.2701 -0.4729
    1C        C  454   2.677   2.241   4.145 -0.5299 -0.5202  0.6166
    1C        C  455   2.784   2.170   4.086 -0.7009  0.3033 -0.6677
    1C        C  456   2.552   2.234   4.081 -0.5224 -1.1911  0.6826
    1C        C  457   2.537   2.163   3.960 -0.3408 -0.2955  0.1316
    1C        C  458   2.302   2.229   3.952 -0.0229  0.2500 -0.2591
    1C        C  459   2.409   2.151   3.903 -0.3091 -0.3561  0.0869
    1C        C  460   2.173   2.219   3.895 -0.1446  0.0470  0.0567
    1C        C  461   2.161   2.136   3.782  0.4358  0.5383 -0.3746
    1C        C  462   1.945   2.248   3.734 -0.0295  0.1011  0.2180
    1C        C  463   2.038   2.144   3.714 -0.1750 -0.1013  0.6295
    1C        C  464   1.824   2.249   3.662  0.2689  0.0494 -0.2686
    1C        C  465   1.793   2.146   3.571  0.2032  0.0596 -0.2412
    1C        C  466   1.578   2.260   3.538 -0.1640 -0.2209 -0.4054
    1C        C  467   1.662   2.149   3.517  0.0540 -0.1493  0.1258
    1C        C  468   4.365   2.673   5.075  0.0262  0.0149 -0.0992
    1C        C  469   4.338   2.683   4.937 -0.1682  0.3495 -0.0299
    1C        C  470   4.119   2.593   4.987  0.0895 -0.5455  0.0970
    1C        C  471   4.222   2.615   4.892 -0.0366  0.0454  0.1101
    1C        C  472   3.989   2.560   4.942  0.0317 -0.1905  0.0219
    1C        C  473   3.966   2.536   4.805 -0.0229 -0.2926  0.0550
    1C        C  474   3.728   2.507   4.840 -0.1288 -0.4094 -0.2453
    1C        C  475   3.843   2.483   4.762  0.0133 -0.2549 -0.0744
    1C        C  476   3.600   2.472   4.794 -0.2649  0.1100 -0.2423
    1C        C  477   3.584   2.425   4.662 -0.2549 -0.8763  0.1088
    1C        C  478   3.341   2.417   4.690  0.1749 -0.5332  0.6685
    1C        C  479   3.457   2.387   4.615 -0.2893 -0.5497 -0.0483
    1C        C  480   3.213   2.407   4.631  0.4446  0.2974 -0.0765
    1C        C  481   3.201   2.348   4.504  0.3286 -0.5658  0.3295
    1C        C  482   2.964   2.401   4.502 -0.1191  0.4033 -0.3338
    1C        C  483   3.074   2.335   4.444  0.1202 -0.0970  0.6718
    1C        C  484   2.840   2.399   4.436 -0.2239 -0.5588 -0.1181
    1C        C  485   2.819   2.309   4.330  0.3368 -0.6286 -0.1608
    1C        C  486   2.589   2.391   4.314 -0.2357  0.0044  0.2910
    1C        C  487   2.691   2.303   4.271  0.2345  0.7306 -0.0817
    1C        C  488   2.467   2.395   4.244 -0.0601 -0.3311 -0.0275
    1C        C  489   2.449   2.319   4.126  0.0741  0.0980 -0.3199
    1C        C  490   2.231   2.416   4.089 -0.2025  0.0619  0.2470
    1C        C  491   2.323   2.313   4.064  0.1698  0.5863 -0.5517
    1C        C  492   2.118   2.429   4.005 -0.1803 -0.3462  0.1500
    1C        C  493   2.094   2.336   3.902 -0.0938  0.1004 -0.2782
    1C        C  494   1.899   2.463   3.835  0.1038  0.2107  0.0983
    1C        C  495   1.968   2.340   3.840 -0.4861 -0.1054  0.4904
    1C        C  496   1.788   2.477   3.749  0.0615 -0.0552  0.1173
    1C        C  497   1.746   2.368   3.670 -0.2667 -0.3759  0.7450
    1C        C  498   1.591   2.514   3.554  0.4808 -0.6823 -0.8694
    1C        C  499   1.631   2.381   3.588  0.5300 -0.5364 -0.3910
    1C        C  500   1.490   2.540   3.458 -0.3680  0.2243  0.2509
    1C        C  501   4.268   2.626   5.163  0.1725 -0.1026 -0.0041
    1C        C  502   4.021   2.662   5.207 -0.2120  0.0354 -0.4913
    1C        C  503   4.131   2.621   5.126  0.1827  0.2963 -0.0839
    1C        C  504   3.892   2.639   5.152 -0.3462 -0.4939  0.0484
    1C        C  505   3.876   2.589   5.021 -0.0621  0.2729 -0.2826
    1C        C  506   3.634   2.606   5.039  0.1329  0.6178 -0.7395
    1C        C  507   3.748   2.563   4.968  0.0703 -0.0356 -0.4450
    1C        C  508   3.505   2.588   4.983 -0.2395  0.6349  0.0981
    1C        C  509   3.485   2.512   4.866  0.1220 -0.0217  0.4543
    1C        C  510   3.251   2.570   4.859  0.4431  1.1116 -0.5071
    1C        C  511   3.359   2.500   4.802  0.0071 -0.6906  0.8098
    1C        C  512   3.124   2.566   4.797  0.0029  0.0804  0.4345
    1C        C  513   3.107   2.483   4.685  0.3778 -0.3063  0.6586
    1C        C  514   2.879   2.565   4.660  0.0973 -0.3732 -0.5080
    1C        C  515   2.980   2.475   4.622  0.9076  0.5378 -0.5515
    1C        C  516   2.756   2.570   4.592 -0.2079  0.2087  0.0812
    1C        C  517   2.733   2.475   4.490  0.3360  0.0848  0.0793
    1C        C  518   2.524   2.590   4.436  0.4573  0.0788 -0.6346
    1C        C  519   2.609   2.478   4.423  0.1007 -0.3399  0.4979
    1C        C  520   2.408   2.602   4.356  0.1991 -0.0138 -0.2779
    1C        C  521   2.378   2.503   4.261  0.2743 -0.0128 -0.3082
    1C        C  522   2.192   2.640   4.180 -0.0387  0.1653  0.3598
    1C        C  523   2.272   2.525   4.170 -0.1728  0.0750  0.2204
    1C        C  524   2.088   2.659   4.088  0.1520 -0.2221  0.0471
    1C        C  525   2.044   2.549   4.011 -0.0350 -0.2545  0.1889
    1C        C  526   1.875   2.693   3.908 -0.3331  0.0172 -0.3095
    1C        C  527   1.933   2.566   3.925  0.2481  0.3125 -0.0755
    1C        C  528   1.794   2.714   3.795 -0.6847 -0.3395 -0.1225
    1C        C  529   1.760   2.609   3.708  0.4208 -0.2315 -0.6940
    1C        C  530   1.625   2.757   3.569  0.1735 -0.5358  0.0684
    1C        C  531   1.658   2.625   3.612 -0.2289 -0.6782 -0.0800
    1C        C  532   1.530   2.780   3.466  0.3696  0.3318  0.0845
    1C        C  533   1.451   2.669   3.427  0.4216  0.3735 -0.1250
    1C        C  534   3.918   2.757   5.403  0.0117 -0.3554 -0.1510
    1C        C  535   4.033   2.722   5.334 -0.0855  0.0026 -0.4909
    1C        C  536   3.789   2.749   5.348 -0.0710  0.0472 -0.0081
    1C        C  537   3.777   2.687   5.221 -0.1427  0.0083  0.0253
    1C        C  538   3.538   2.738   5.218  0.0958 -0.6552  0.5542
    1C        C  539   3.650   2.674   5.161  0.1135  0.3585 -0.5976
    1C        C  540   3.411   2.731   5.156  0.2340  0.5202  0.1130
    1C        C  541   3.397   2.662   5.034 -0.2805  0.5330  0.1630
    1C        C  542   3.168   2.739   5.014 -0.3998  0.1720 -0.1641
    1C        C  543   3.270   2.650   4.974 -0.4043 -0.1679  0.5489
    1C        C  544   3.048   2.746   4.941 -0.1569  0.2659 -0.5667
    1C        C  545   3.021   2.653   4.838 -0.6432 -0.6295  0.3432
    1C        C  546   2.823   2.777   4.769  0.1869 -0.1952 -0.6238
    1C        C  547   2.906   2.663   4.758 -0.1837 -0.4987 -0.3087
    1C        C  548   2.697   2.777   4.706  0.0500  0.2248 -0.3496
    1C        C  549   2.672   2.683   4.603 -0.1452  0.2955 -0.3575
    1C        C  550   2.490   2.815   4.521 -0.0728 -0.0025 -0.0657
    1C        C  551   2.549   2.688   4.534 -0.1728 -0.0720 -0.3269
    1C        C  552   2.401   2.840   4.415  0.6707 -0.2283 -0.7617
    1C        C  553   2.357   2.732   4.336  0.2498 -0.0606 -0.7711
    1C        C  554   2.186   2.876   4.233 -0.8207  0.2818 -0.1580
    1C        C  555   2.242   2.749   4.255 -0.1122  0.5753 -0.1575
    1C        C  556   2.084   2.898   4.139  0.0760  0.0216 -1.2215
    1C        C  557   2.034   2.788   4.066 -0.1070 -0.4057 -0.4634
    1C        C  558   1.897   2.939   3.937  0.0863  0.0530 -0.2844
    1C        C  559   1.935   2.806   3.968 -0.4821 -0.0502 -0.0308
    1C        C  560   1.828   2.956   3.815 -0.0533 -0.1101 -0.2234
    1C        C  561   1.761   2.846   3.758  0.1730 -0.1841 -0.3317
    1C        C  562   1.653   2.994   3.600  0.2311 -0.2867 -0.4140
    1C        C  563   1.680   2.863   3.644  0.1624 -0.2627 -0.3256
    1C        C  564   1.588   3.015   3.477 -0.1865  0.6052 -0.0478
    1C        C  565   1.513   2.912   3.415  0.4936  0.2220 -0.2358
    1C        C  566   1.437   3.065   3.240 -0.2666 -0.0976  0.4100
    1C        C  567   1.433   2.940   3.302 -0.3865 -0.1538  0.2908
    1C        C  568   3.672   2.865   5.532  0.3618 -0.3600  0.2276
    1C        C  569   3.672   2.812   5.401 -0.4338 -1.0375  0.4984
    1C        C  570   3.448   2.912   5.366 -0.4952 -0.3260  0.6542
    1C        C  571   3.547   2.816   5.335 -0.0797  0.3509 -0.0964
    1C        C  572   3.334   2.927   5.285  0.0426  0.2648  0.0084
    1C        C  573   3.310   2.823   5.192 -0.0505  0.2219  0.0847
    1C        C  574   3.110   2.948   5.127 -0.1857  0.0331 -0.3131
    1C        C  575   3.194   2.835   5.114  0.6401  0.6910 -0.9008
    1C        C  576   2.999   2.963   5.041 -0.3083  0.1155 -0.1461
    1C        C  577   2.967   2.861   4.949 -0.3159  0.1351 -0.1711
    1C        C  578   2.787   3.000   4.857  0.0128 -0.1557 -0.1919
    1C        C  579   2.861   2.880   4.858  0.4622  0.1121 -1.1025
    1C        C  580   2.673   3.012   4.774 -0.6510  0.0436  0.7463
    1C        C  581   2.637   2.904   4.691  0.3653  0.3852 -0.1522
    1C        C  582   2.485   3.056   4.576 -0.2479 -0.2551  0.0732
    1C        C  583   2.535   2.925   4.597  0.4076 -0.0522 -0.2845
    1C        C  584   2.392   3.074   4.472 -0.1902 -0.2441  0.0313
    1C        C  585   2.335   2.965   4.405  0.3700 -0.3410 -0.2985
    1C        C  586   2.194   3.116   4.277 -0.0974 -0.0874  0.0796
    1C        C  587   2.229   2.984   4.313  0.4182 -0.0679 -0.3085
    1C        C  588   2.101   3.138   4.172 -0.3683  0.0076  0.3293
    1C        C  589   2.036   3.028   4.113 -0.0196  0.1674 -0.3695
    1C        C  590   1.934   3.181   3.948 -0.4948  0.1385 -0.2114
    1C        C  591   1.953   3.051   4.001 -0.1188  0.1601 -0.2986
    1C        C  592   1.865   3.198   3.827 -0.0894 -0.5720 -0.5437
    1C        C  593   1.801   3.087   3.769 -0.3576 -0.3414 -0.6797
    1C        C  594   1.748   3.223   3.578 -0.5293  0.6892  0.3706
    1C        C  595   1.726   3.104   3.651 -0.7681  0.3242 -0.3109
    1C        C  596   1.694   3.232   3.449  0.8170  0.0387 -0.2536
    1C        C  597   1.606   3.133   3.400  0.4035  0.3976 -0.2310
    1C        C  598   1.599   3.249   3.184 -0.4448  0.2990  0.3222
    1C        C  599   1.543   3.154   3.275 -0.7942  0.5561  0.3838
    1C        C  600   1.582   3.238   3.044  0.1196 -0.2886  0.2940
    1C        C  601   3.575   2.959   5.569  0.6093  0.0334 -0.1454
    1C        C  602   3.402   3.122   5.474  0.0819 -0.2047 -0.9192
    1C        C  603   3.472   2.997   5.478  0.0478 -0.1797  0.4149
    1C        C  604   3.283   3.139   5.400 -0.7987 -0.0396  0.5164
    1C        C  605   3.253   3.042   5.302 -0.2738 -0.0129  0.3390
    1C        C  606   3.073   3.172   5.212  0.0727 -0.0957 -0.1772
    1C        C  607   3.135   3.046   5.225  0.1236 -0.0817 -0.2739
    1C        C  608   2.982   3.197   5.106  0.3788  0.1913 -0.3760
    1C        C  609   2.949   3.092   5.018 -0.5296  0.0763  0.0886
    1C        C  610   2.787   3.238   4.911 -0.3085  0.0038  0.3188
    1C        C  611   2.843   3.109   4.926  0.3400  0.1323 -0.9154
    1C        C  612   2.687   3.256   4.812  0.1035 -0.0735 -0.1070
    1C        C  613   2.633   3.144   4.747 -0.0323  0.0401 -0.1669
    1C        C  614   2.494   3.297   4.614 -0.1861 -0.1323  0.2878
    1C        C  615   2.535   3.167   4.648 -0.1596 -0.2078 -0.0806
    1C        C  616   2.396   3.318   4.514  0.5222 -0.2108 -0.4155
    1C        C  617   2.345   3.205   4.446 -0.5955 -0.2917  0.5416
    1C        C  618   2.227   3.356   4.295 -0.4230 -0.0576  0.6216
    1C        C  619   2.257   3.226   4.338  0.5094 -0.1841 -0.3545
    1C        C  620   2.143   3.378   4.183 -0.2116 -0.2364  0.4259
    1C        C  621   2.075   3.268   4.126 -0.1437 -0.0590 -0.0038
    1C        C  622   2.028   3.406   3.930  0.5599 -0.2147 -0.0352
    1C        C  623   2.008   3.288   4.003  0.3938 -0.3881 -0.3581
    1C        C  624   1.959   3.422   3.808 -0.2878  0.4340  0.5091
    1C        C  625   1.890   3.314   3.750 -0.3423  0.3450  0.7405
    1C        C  626   1.847   3.450   3.553 -0.4018  0.1619  0.2569
    1C        C  627   1.826   3.331   3.625  0.4860  0.0086  0.2670
    1C        C  628   1.811   3.445   3.417  0.1171 -0.3238  0.1343
    1C        C  629   1.728   3.342   3.367 -0.8382  0.6013 -0.2145
    1C        C  630   1.729   3.457   3.149 -0.2397  0.4125 -0.4132
    1C        C  631   1.691   3.346   3.231 -0.1688  0.3944 -0.4061
    1C        C  632   1.698   3.449   3.010 -0.3122 -0.0284 -0.3694
    1C        C  633   1.610   3.349   2.965 -0.2429 -0.3155  0.1285
    1C        C  634   3.403   3.366   5.502 -0.1817 -0.2912  0.0792
    1C        C  635   3.449   3.239   5.536 -0.4345 -0.4308 -0.1065
    1C        C  636   3.273   3.379   5.449 -0.2010 -0.1209  0.1788
    1C        C  637   3.222   3.266   5.379  0.1955  0.2500 -0.7138
    1C        C  638   3.060   3.411   5.279  0.0153  0.0583  0.0838
    1C        C  639   3.109   3.279   5.295 -0.4193 -0.1063  0.0528
    1C        C  640   2.969   3.434   5.174  0.1952  0.2850 -0.0156
    1C        C  641   2.936   3.329   5.086  0.0031  0.1540  0.2179
    1C        C  642   2.790   3.475   4.960  0.3177  0.2077  0.2029
    1C        C  643   2.835   3.345   4.988  0.8429  0.1984 -0.6471
    1C        C  644   2.687   3.494   4.865  0.6769 -0.0091 -0.2296
    1C        C  645   2.641   3.387   4.785 -0.2607 -0.0970  0.4202
    1C        C  646   2.503   3.539   4.653  0.2748 -0.0871 -0.0463
    1C        C  647   2.544   3.408   4.685  0.3699 -0.0838 -0.1890
    1C        C  648   2.411   3.556   4.547  0.7994 -0.5835 -0.5753
    1C        C  649   2.350   3.447   4.482 -0.3889 -0.3826  0.1899
    1C        C  650   2.294   3.591   4.293  0.1939  0.0802 -0.3551
    1C        C  651   2.279   3.469   4.362  0.6428  0.0356 -0.3450
    1C        C  652   2.234   3.604   4.166 -0.3777  0.0611 -0.0841
    1C        C  653   2.154   3.500   4.114 -0.6718 -0.0762  0.6293
    1C        C  654   2.122   3.630   3.911  0.0900 -0.2610 -0.1778
    1C        C  655   2.087   3.519   3.991  0.2922 -0.1368  0.0869
    1C        C  656   2.075   3.639   3.778  0.2562  0.0431 -0.2212
    1C        C  657   1.996   3.533   3.729 -0.1046  0.1293  0.1559
    1C        C  658   2.003   3.632   3.509  0.3318 -0.1630 -0.1134
    1C        C  659   1.938   3.547   3.600  0.6148 -0.5317 -0.2473
    1C        C  660   1.972   3.621   3.371 -0.5527 -0.1594  0.0709
    1C        C  661   1.873   3.532   3.325 -0.1268 -0.5022 -0.2047
    1C        C  662   1.898   3.630   3.103  0.7234 -0.2579 -0.1243
    1C        C  663   1.824   3.551   3.194  0.4189 -0.2672 -0.3789
    1C        C  664   1.866   3.626   2.966  0.3562 -0.5133 -0.0292
    1C        C  665   1.754   3.549   2.925 -0.1425  0.1965  0.0089
    1C        C  666   1.703   3.564   2.794 -0.3110 -0.6769 -0.0277
    1C        C  667   3.217   3.602   5.551  0.2058  0.1420  0.6076
    1C        C  668   3.200   3.502   5.453  0.4839  0.2712  0.4340
    1C        C  669   3.034   3.649   5.345  0.3508 -0.3124  0.3844
    1C        C  670   3.095   3.521   5.360  0.7317 -0.1616  0.0729
    1C        C  671   2.956   3.674   5.231 -0.5130  0.2503  1.0987
    1C        C  672   2.920   3.564   5.149 -0.3925  0.2624  1.0417
    1C        C  673   2.792   3.714   5.010 -0.6154 -0.4079 -0.0611
    1C        C  674   2.840   3.584   5.035  0.1311 -0.0070  0.6328
    1C        C  675   2.708   3.733   4.899  0.1009 -0.0616 -0.5468
    1C        C  676   2.642   3.625   4.837 -0.1921 -0.2382  0.0772
    1C        C  677   2.566   3.767   4.660  0.0476  0.2037  0.1186
    1C        C  678   2.552   3.646   4.731  0.1484  0.0404 -0.1520
    1C        C  679   2.493   3.789   4.541  0.7763 -0.2722 -0.4252
    1C        C  680   2.420   3.682   4.485 -0.0239 -0.1025  0.2815
    1C        C  681   2.385   3.812   4.278  0.5102 -0.5098 -0.1122
    1C        C  682   2.365   3.696   4.356  0.0617 -0.1930  0.2440
    1C        C  683   2.348   3.817   4.142 -0.0428 -0.3911  0.0454
    1C        C  684   2.273   3.712   4.085 -0.0782 -0.1904 -0.2712
    1C        C  685   2.246   3.837   3.877  0.4900  0.2407  0.3324
    1C        C  686   2.209   3.729   3.961  0.1204 -0.1865 -0.3721
    1C        C  687   2.210   3.846   3.741  1.0743 -0.5055  0.1194
    1C        C  688   2.127   3.741   3.696  0.2333  0.2099 -0.0397
    1C        C  689   2.159   3.807   3.465 -0.0829 -0.1904 -0.1921
    1C        C  690   2.088   3.732   3.561 -0.1114  0.1391  0.0564
    1C        C  691   2.136   3.799   3.326 -0.5843  0.4572 -0.1601
    1C        C  692   2.041   3.705   3.281 -0.2222 -0.1528  0.3174
    1C        C  693   2.002   3.714   3.146  0.2883  0.1291  0.1842
    1C        C  694   3.166   3.729   5.527  0.1543 -0.0032 -0.0538
    1C        C  695   3.047   3.894   5.381 -0.3932 -0.1973 -0.0693
    1C        C  696   3.086   3.761   5.415  0.6716  0.0263 -0.4075
    1C        C  697   2.974   3.916   5.262  0.5029  0.0620 -0.5724
    1C        C  698   2.919   3.805   5.195  0.0687  0.0666 -0.1988
    1C        C  699   2.811   3.958   5.040  0.6677 -0.4499 -0.2274
    1C        C  700   2.834   3.826   5.084 -0.2559 -0.5518 -0.0621
    1C        C  701   2.754   3.973   4.911 -0.5149  0.1437  0.3628
    1C        C  702   2.694   3.864   4.847 -0.2136  0.1538  0.0834
    1C        C  703   2.646   3.996   4.649 -0.2021  0.5211  0.2321
    1C        C  704   2.630   3.876   4.721  0.3617  0.1906 -0.1979
    1C        C  705   2.594   4.008   4.518 -0.4862  0.4213  0.3431
    1C        C  706   2.513   3.906   4.465  0.7573 -0.2205 -0.3370
    1C        C  707   2.515   4.014   4.246 -0.2828  0.2541  0.0544
    1C        C  708   2.478   3.906   4.328 -0.0259  0.0284 -0.1308
    1C        C  709   2.481   4.015   4.109  0.9804 -0.4159 -0.2821
    1C        C  710   2.381   3.928   4.061  0.0422  0.0836  0.7235
    1C        C  711   2.415   4.006   3.833  0.1442  0.2211  0.5215
    1C        C  712   2.344   3.926   3.925  0.1158  0.4558  0.7018
    1C        C  713   2.398   3.982   3.695 -0.5153  0.9544  0.4707
    1C        C  714   2.290   3.908   3.643  1.1591 -1.1022 -0.1951
    1C        C  715   2.260   3.896   3.506  0.0547 -0.4093 -0.0279
    1C        C  716   3.048   4.135   5.411  0.5484  0.6932 -0.0723
    1C        C  717   3.068   4.007   5.463 -0.0637  0.2901 -0.8193
    1C        C  718   3.008   4.163   5.277 -0.1046  0.3196  0.0523
    1C        C  719   2.968   4.046   5.206  0.2565  0.2672 -0.0413
    1C        C  720   2.942   4.163   5.002 -0.2304 -0.3479  0.1746
    1C        C  721   2.894   4.062   5.087 -0.8618  0.3777  0.6734
    1C        C  722   2.885   4.177   4.874  0.5008 -0.1946 -0.1212
    1C        C  723   2.788   4.084   4.831  0.4447 -0.2694  0.2061
    1C        C  724   2.798   4.174   4.608 -0.3611  0.3525  0.2624
    1C        C  725   2.730   4.095   4.703  0.0789  0.1717  0.4195
    1C        C  726   2.757   4.183   4.473 -0.0715 -0.0029  0.1504
    1C        C  727   2.656   4.097   4.427  0.1167 -0.2130  0.1355
    1C        C  728   2.698   4.168   4.198  0.0161 -0.2217  0.2062
    1C        C  729   2.617   4.101   4.292 -0.1491  0.0058  0.2217
    1C        C  730   2.680   4.148   4.060  0.5032  0.0584  0.1014
    1C        C  731   2.555   4.094   4.020  0.1843  0.7875  0.0989
    1C        C  732   2.524   4.081   3.883  0.5802 -0.1312  0.0951
    1C        C  733   3.116   4.387   5.242 -0.2243  0.5319 -0.1271
    1C        C  734   3.044   4.275   5.196  0.1070  0.2489  0.0695
    1C        C  735   3.056   4.375   4.969  0.1424 -0.0063  0.7428
    1C        C  736   3.010   4.274   5.058 -0.0160 -0.4706  0.1164
    1C        C  737   3.018   4.381   4.834 -0.3854  0.4974  0.9166
    1C        C  738   2.924   4.284   4.790  1.1312 -0.5071 -0.2164
    1C        C  739   2.978   4.331   4.561  0.1075  0.4776  0.2563
    1C        C  740   2.895   4.266   4.654  0.0610  0.0717 -0.0699
    1C        C  741   2.946   4.327   4.424 -0.5997  0.7354  0.4070
    1C        C  742   2.834   4.254   4.379 -0.0232 -0.0201  0.1741
    1C        C  743   2.801   4.254   4.242 -0.2508  0.0854  0.2270
    1C        C  744   3.153   4.490   5.157  0.1975  0.2343 -0.2943
    1C        C  745   3.233   4.536   4.925  0.1929  0.4402 -0.0874
    1C        C  746   3.140   4.478   5.017 -0.2131  0.7708 -0.2953
    1C        C  747   3.216   4.511   4.787  0.0631 -0.4033  0.0780
    1C        C  748   3.113   4.427   4.740 -0.6828  0.2716  0.5038
    1C        C  749   3.082   4.417   4.603  0.4389  0.0901  0.2566
    1C        C  750   3.325   4.638   4.958  0.1831  0.3614  0.1702
    1C        O  751   4.297   2.567   5.287 -0.1091 -0.6663 -0.2066
    1C        H  752   4.395   2.572   5.310 -0.3680 -1.6738  1.2067
    1C        O  753   3.593   3.000   5.701  0.0324 -0.2199  0.0103
    1C        H  754   3.672   2.958   5.749  0.1562 -0.5472 -0.4737
    1C        O  755   4.845   3.053   4.634  0.1912  0.6135 -0.1304
    1C        H  756   4.905   3.123   4.674  0.8342  1.8152 -3.0063
    1C        O  757   3.022   4.227   5.514 -1.0743  0.2627 -0.0715
    1C        H  758   3.060   4.209   5.605  3.7825  1.4173 -1.5930
    1C        O  759   3.415   4.846   4.880  0.2655 -0.1098 -0.0838
    1C        H  760   3.404   4.877   4.975 -0.4950  3.4862 -1.2172
    1C        O  761   4.812   3.904   4.257  0.1293  0.0590  0.3826
    1C        H  762   4.838   3.998   4.283 -1.8456  0.6077  0.5850
    1C        O  763   4.207   4.638   4.371  0.4402 -0.0406  0.5024
    1C        H  764   4.205   4.722   4.427 -1.9309 -0.5866  1.3317
    1C        O  765   2.479   1.556   3.001  0.1219  0.3804 -0.3348
    1C        H  766   2.507   1.506   2.918 -0.3538  2.9999 -2.1987
    1C        O  767   2.991   1.785   2.527  0.2996 -0.1112  0.3594
    1C        H  768   2.924   1.717   2.496 -0.5068  1.4575 -1.4919
    1C        O  769   1.442   2.227   3.546 -0.1846 -0.0985 -0.3380
    1C        H  770   1.407   2.139   3.511  0.6504 -0.4679 -0.2841
    1C        O  771   3.057   2.621   2.058 -0.8557  0.2437  0.0590
    1C        H  772   3.046   2.541   1.997  1.6457  0.4890 -0.8602
    1C        O  773   2.672   3.484   2.016  0.1345 -0.0326  0.1767
    1C        H  774   2.688   3.434   1.930  1.5796  0.3510  0.1998
    1C        O  775   1.897   3.804   2.446  0.7744 -0.7117 -0.5649
    1C        H  776   1.886   3.811   2.346  1.3351 -1.5343 -0.6968
    1C        O  777   1.316   3.127   3.206 -0.2471 -0.3202 -0.0734
    1C        H  778   1.250   3.051   3.207 -1.6499  0.7607 -2.0582
    1C        H  779   4.118   2.779   5.371 -0.8071  1.4511 -0.9925
    1C        H  780   3.937   2.744   5.509  1.1201 -0.0680 -0.3063
    1C        H  781   3.738   2.834   5.612  0.2130  1.7161  1.2305
    1C        H  782   3.521   3.240   5.617  0.5621 -1.7794 -0.9358
    1C        H  783   3.467   3.450   5.526 -1.1135  0.4894 -0.0910
    1C        H  784   4.424   2.752   5.119  1.0082 -0.3730 -0.6750
    1C        H  785   4.627   2.724   4.906  2.9690  3.5080  0.9760
    1C        H  786   4.701   2.930   4.817 -0.0278 -0.7168  1.4561
    1C        H  787   4.762   3.296   4.604 -0.6710 -0.3366  0.4200
    1C        H  788   4.863   3.444   4.430  0.3468  1.7241  1.0007
    1C        H  789   4.843   3.652   4.358 -0.5771  0.3318 -1.4658
    1C        H  790   4.640   4.080   4.323 -2.8894 -0.0414  1.4550
    1C        H  791   4.497   4.200   4.388 -0.1513  1.7276 -0.8639
    1C        H  792   4.306   4.342   4.470 -0.3660  0.5626 -0.2351
    1C        H  793   4.007   4.695   4.492 -0.6815 -0.3848  0.3536
    1C        H  794   3.860   4.700   4.658  0.3920 -1.0046 -1.3748
    1C        H  795   3.675   4.769   4.772 -2.4652 -0.2252  1.2753
    1C        H  796   3.375   4.629   5.053  0.3644 -2.7382 -0.0939
    1C        H  797   3.205   4.575   5.199 -0.2105  1.8681 -2.9202
    1C        H  798   3.128   4.410   5.347 -1.0882  1.0905 -0.1531
    1C        H  799   3.144   4.005   5.540 -1.1843 -0.4009  0.3166
    1C        H  800   3.172   3.789   5.617 -1.5709 -1.9606  1.4594
    1C        H  801   3.254   3.579   5.650 -2.0982 -2.0644  1.0379
    1C        H  802   1.635   2.103   3.423 -0.7448  0.6830 -0.0682
    1C        H  803   1.827   1.972   3.349  3.0098  0.6044 -1.8156
    1C        H  804   1.950   1.751   3.410  1.6110 -0.0853  0.0576
    1C        H  805   2.122   1.757   3.207  0.8657 -1.0341 -1.2320
    1C        H  806   2.303   1.748   3.055 -0.2566 -2.1622  0.4690
    1C        H  807   2.673   1.633   2.833  2.7075 -0.9173  0.0252
    1C        H  808   2.854   1.675   2.699  0.7247  0.6479 -2.0088
    1C        H  809   2.877   2.063   2.467  0.1348 -0.2053 -1.4507
    1C        H  810   2.933   2.247   2.321 -0.8602 -1.1106  0.7383
    1C        H  811   3.110   2.412   2.170 -0.4558  2.9735 -1.5246
    1C        H  812   2.853   2.789   2.132  0.5649 -0.4360 -0.3498
    1C        H  813   2.871   3.015   2.034 -0.6863 -0.0061 -0.2382
    1C        H  814   2.732   3.224   2.036 -0.5975  0.9729 -0.5942
    1C        H  815   2.460   3.578   2.106 -1.0067 -0.2420  0.2870
    1C        H  816   2.101   3.656   2.324  1.0902  0.3102 -0.5201
    1C        H  817   2.274   3.656   2.194  2.7801  0.8649 -2.5364
    1C        H  818   1.760   3.611   2.597 -0.4821 -1.9242  1.2958
    1C        H  819   1.598   3.590   2.786  0.0658  1.6493  1.4754
    1C        H  820   1.562   3.346   2.870  0.4006  4.2817 -0.5568
    1C        H  821   1.568   3.148   2.987  2.5920 -0.0823 -0.7470
    1C        H  822   1.369   2.866   3.257 -2.4008  1.1511  0.9078
    1C        H  823   1.348   2.677   3.396  0.8398  0.3419 -1.5794
    1C        H  824   1.430   2.462   3.414 -2.3660  1.2826  0.9662
    2SOL     OW  825   1.221   6.861   1.489  0.3424  0.1571  0.3069
    2SOL    HW1  826   1.125   6.844   1.509  0.0142  0.8995 -0.5762
    2SOL    HW2  827   1.263   6.779   1.451 -0.9647  0.8934 -3.0241
    3SOL     OW  828   4.713   1.932   4.497  0.0529 -0.1139  0.2803
    3SOL    HW1  829   4.652   1.862   4.534  0.3304  0.2740  1.5304
    3SOL    HW2  830   4.805   1.920   4.534  0.3340  0.3236 -0.2561
    4SOL     OW  831   5.665   5.912   1.562 -0.4534  0.1173  0.2764
    4SOL    HW1  832   5.696   5.817   1.564  2.0218  0.8612  0.3928
    4SOL    HW2  833   5.662   5.948   1.655 -0.8768  0.3062  0.1929
    5SOL     OW  834   5.659   1.647   5.829  0.1026 -0.0561  0.4381
    5SOL    HW1  835   5.741   1.692   5.864 -1.2734  1.9263  1.3176
    5SOL    HW2  836   5.617   1.705   5.759 -1.7974  0.1877  1.6952
    6SOL     OW  837   0.140   1.819   3.299  0.2955 -0.1100  0.1996
    6SOL    HW1  838   0.063   1.783   3.246 -0.2822  1.7400 -0.2574
    6SOL    HW2  839   0.198   1.743   3.329 -1.1904 -1.4516 -0.2393
    7SOL     OW  840   3.806   5.598   4.996  0.3557 -0.2321 -0.5137
    7SOL    HW1  841   3.901   5.628   4.985  1.7006 -3.7910  0.3731
    7SOL    HW2  842   3.777   5.614   5.091 -0.2816  1.5349 -0.9594
    8SOL     OW  843   5.699   0.404   1.267  0.3598  0.4129 -0.6094
    8SOL    HW1  844   5.741   0.421   1.178  2.0368  1.5240  0.3218
    8SOL    HW2  845   5.638   0.479   1.290  1.0697  0.8878 -0.2199
    9SOL     OW  846   0.343   6.636   4.046  0.1063  0.3292  0.5638
    9SOL    HW1  847   0.255   6.637   4.094  0.2810 -0.4675  0.9295
    9SOL    HW2  848   0.405   6.570   4.090  0.6332  0.3362 -0.1292
   10SOL     OW  849   1.932   6.187   0.478  0.0672 -0.2171  0.8428
   10SOL    HW1  850   2.021   6.202   0.521 -0.3727  0.5312  1.4995
   10SOL    HW2  851   1.859   6.204   0.544 -0.7302  3.2941 -0.7292
   11SOL     OW  852   2.783   4.960   0.595 -0.3309 -0.0511  0.6474
   11SOL    HW1  853   2.861   4.943   0.535 -0.2892 -0.2890  0.7626
   11SOL    HW2  854   2.816   4.983   0.686 -0.3982 -1.9493  1.1816
   12SOL     OW  855   6.579   4.499   2.128 -0.8680 -0.3294 -0.3508
   12SOL    HW1  856   6.615   4.506   2.035  1.0837  0.9213  0.4354
   12SOL    HW2  857   6.656   4.500   2.193 -2.1660 -1.4232  1.2795
   13SOL     OW  858   4.940   0.231   2.016 -0.1816  0.5825  0.4482
   13SOL    HW1  859   4.858   0.235   2.074 -1.2618  2.0189 -1.1069
   13SOL    HW2  860   4.916   0.192   1.927  0.7628  1.2976 -0.1332
   14SOL     OW  861   1.704   6.494   1.992 -0.1081 -0.0892  0.0144
   14SOL    HW1  862   1.673   6.518   2.084 -1.5953 -0.0022 -0.4773
   14SOL    HW2  863   1.781   6.430   1.998  0.9122  1.2282  1.3028
   15SOL     OW  864   5.010   3.057   1.205  0.6980  0.0355 -0.2628
   15SOL    HW1  865   4.959   3.054   1.119  0.8836 -0.4747 -0.3670
   15SOL    HW2  866   4.992   2.974   1.258  1.1921 -0.0184 -0.1721
   16SOL     OW  867   1.373   0.753   4.776 -0.1573 -0.5019  0.2982
   16SOL    HW1  868   1.343   0.722   4.686  0.1567  0.8166 -0.2854
   16SOL    HW2  869   1.443   0.691   4.812  1.4854  0.2452 -1.4444
   17SOL     OW  870   3.480   6.863   2.767  0.7591 -0.1105 -0.2846
   17SOL    HW1  871   3.525   6.947   2.739  0.1156  0.1230 -0.6457
   17SOL    HW2  872   3.404   6.844   2.705 -0.4254  0.1737  1.0317
   18SOL     OW  873   1.488   5.148   2.111 -0.0281 -0.0893 -0.2773
   18SOL    HW1  874   1.415   5.088   2.078 -0.3442  1.4535 -2.6091
   18SOL    HW2  875   1.455   5.243   2.115  1.2809  0.3755  0.5626
   19SOL     OW  876   0.932   3.850   6.032  0.3557 -0.2828 -0.2526
   19SOL    HW1  877   0.871   3.827   5.956 -1.1404 -1.2600  1.1651
   19SOL    HW2  878   0.895   3.930   6.080  0.0077 -1.0410  0.7783
   20SOL     OW  879   0.706   6.723   0.486 -0.6349 -0.0585  0.3930
   20SOL    HW1  880   0.777   6.689   0.423 -0.1889  1.0521  0.2698
   20SOL    HW2  881   0.700   6.662   0.565  0.1906 -0.3848  0.2146
   21SOL     OW  882   5.651   3.025   4.069  0.0032 -0.7040  0.1055
   21SOL    HW1  883   5.746   3.025   4.103 -0.0039 -0.8796  0.1283
   21SOL    HW2  884   5.594   3.078   4.131  0.2540  0.1731 -0.3825
   22SOL     OW  885   5.040   4.064   6.682 -0.2037 -0.0520  0.2214
   22SOL    HW1  886   5.119   4.053   6.623 -1.5717 -1.3609 -1.4852
   22SOL    HW2  887   5.061   4.033   6.774  1.4958  0.4469  0.0245
   23SOL     OW  888   0.406   5.974   4.291  0.2258  0.0221 -0.5956
   23SOL    HW1  889   0.367   6.020   4.211 -0.6639 -1.1189 -0.8382
   23SOL    HW2  890   0.332   5.935   4.346  0.9032 -0.1615  0.1994
   24SOL     OW  891   3.708   5.958   0.914 -0.1045  0.1546  0.2685
   24SOL    HW1  892   3.783   5.932   0.852  0.0604 -1.7240  1.1993
   24SOL    HW2  893   3.623   5.965   0.862 -0.1906 -2.4844 -0.0681
   25SOL     OW  894   1.187   0.286   1.464  0.3533  0.3314 -0.0246
   25SOL    HW1  895   1.174   0.302   1.562  0.5443 -1.0059  0.2424
   25SOL    HW2  896   1.098   0.266   1.422  0.2937  0.7339 -0.0929
   26SOL     OW  897   4.787   2.580   2.651 -0.1062  0.6384 -0.3629
   26SOL    HW1  898   4.852   2.528   2.596  0.4791  1.1718 -0.1935
   26SOL    HW2  899   4.761   2.526   2.731  0.9372  0.7994  0.1139
   27SOL     OW  900   5.763   1.572   1.414  0.0816  0.5383  0.1079
   27SOL    HW1  901   5.668   1.545   1.403  0.5642 -2.8370  2.5857
   27SOL    HW2  902   5.768   1.657   1.467 -1.5825 -0.1229  1.4095
   28SOL     OW  903   0.457   4.199   2.161 -0.2664  0.4276  0.2181
   28SOL    HW1  904   0.484   4.295   2.173  1.6856 -0.0438 -0.0410
   28SOL    HW2  905   0.499   4.144   2.233  1.0533 -0.6218 -1.2864
   29SOL     OW  906   4.445   1.667   6.764  0.6100  0.7323  0.3453
   29SOL    HW1  907   4.427   1.667   6.862 -1.5814 -2.1332  0.0866
   29SOL    HW2  908   4.369   1.711   6.716  0.2148 -0.4757 -0.1787
   30SOL     OW  909   3.258   1.964   0.974  0.3413 -0.4531  0.1597
   30SOL    HW1  910   3.303   1.909   1.044  0.7861 -1.4801 -0.9093
   30SOL    HW2  911   3.299   2.055   0.971  1.8059 -1.1012 -0.2248
   31SOL     OW  912   1.397   0.013   0.208  0.3712 -0.5603  0.6302
   31SOL    HW1  913   1.436   0.094   0.165  1.1417 -1.1995  0.0935
   31SOL    HW2  914   1.469  -0.052   0.229 -0.1438 -0.7509  1.8020
   32SOL     OW  915   1.717   6.159   2.794  0.0458  0.0574  0.1243
   32SOL    HW1  916   1.702   6.125   2.702 -2.6756  0.1857  0.4196
   32SOL    HW2  917   1.749   6.084   2.852  0.3707 -0.3766 -0.5954
   33SOL     OW  918   2.546   0.772   6.177 -1.3776 -0.6785 -0.2902
   33SOL    HW1  919   2.604   0.691   6.181  0.6039  0.7037  1.4329
   33SOL    HW2  920   2.531   0.806   6.270  0.5028  2.6692 -1.0795
   34SOL     OW  921   2.074   3.678   6.954 -0.1028  0.0895 -0.0162
   34SOL    HW1  922   2.148   3.742   6.931  0.4479 -0.8946 -1.1824
   34SOL    HW2  923   2.088   3.593   6.904 -2.6696  0.2591 -1.2389
   35SOL     OW  924   5.584   5.497   6.116  0.0030 -0.6500  0.1223
   35SOL    HW1  925   5.623   5.407   6.098  2.2141  0.8102 -3.6379
   35SOL    HW2  926   5.649   5.551   6.170 -0.7925 -0.9073  1.3686
   36SOL     OW  927   3.165   5.639   4.452 -0.2178  0.1000  0.5701
   36SOL    HW1  928   3.149   5.735   4.476 -3.3071  0.0801 -0.8768
   36SOL    HW2  929   3.116   5.580   4.517  2.5164 -0.6506  2.0932
   37SOL     OW  930   1.599   3.814   4.933 -0.2929 -0.3697  0.8403
   37SOL    HW1  931   1.591   3.905   4.974  2.5539  0.1354  0.5083
   37SOL    HW2  932   1.662   3.758   4.987  0.6802 -0.9241 -0.7905
   38SOL     OW  933   1.108   5.133   2.782  0.2060  0.1289  0.4006
   38SOL    HW1  934   1.131   5.177   2.869 -1.4375  0.2561  0.8148
   38SOL    HW2  935   1.097   5.035   2.796 -1.7498  0.3646  0.7496
   39SOL     OW  936   0.013   3.428   0.632  1.0941 -0.6027  0.0385
   39SOL    HW1  937   0.102   3.472   0.638  0.8721 -0.0740 -0.8109
   39SOL    HW2  938   0.002   3.386   0.542 -0.5400  1.6737 -0.9048
   40SOL     OW  939   0.318   3.683   2.173  0.0183  0.7365  0.6322
   40SOL    HW1  940   0.286   3.617   2.104  1.5817  0.9043 -0.2872
   40SOL    HW2  941   0.273   3.664   2.260 -1.2628 -0.1032 -0.1779
   41SOL     OW  942   2.325   5.544   4.306 -0.4529  0.2943  0.4357
   41SOL    HW1  943   2.324   5.496   4.394  0.7477  1.2586  1.0157
   41SOL    HW2  944   2.282   5.634   4.317 -0.5471  0.3098 -0.0346
   42SOL     OW  945   2.268   6.696   0.464  0.1563  0.3581 -0.5518
   42SOL    HW1  946   2.237   6.732   0.552 -0.9589 -0.4397 -0.5952
   42SOL    HW2  947   2.308   6.605   0.478 -0.7590 -0.1212 -0.9475
   43SOL     OW  948   0.171   6.569   2.433  0.2244  0.0934  0.6127
   43SOL    HW1  949   0.181   6.591   2.336  0.2938  0.7057  0.7459
   43SOL    HW2  950   0.244   6.507   2.461  1.0674  1.0569  0.6020
   44SOL     OW  951   2.796   1.144   5.890 -0.2740  0.4354  0.1545
   44SOL    HW1  952   2.775   1.097   5.976 -1.3937 -0.2564 -0.4617
   44SOL    HW2  953   2.763   1.238   5.895 -0.1090  0.4755  0.5687
   45SOL     OW  954   1.570   1.474   0.596 -0.1627  0.4550 -0.0045
   45SOL    HW1  955   1.631   1.546   0.564 -0.0044  0.1607 -0.3737
   45SOL    HW2  956   1.534   1.499   0.686 -0.6054  1.2841 -0.4051
   46SOL     OW  957   5.735   3.044   4.877 -0.2964  0.2205 -0.5679
   46SOL    HW1  958   5.795   2.983   4.825 -0.4215  0.3664 -0.8829
   46SOL    HW2  959   5.658   3.071   4.820  0.5048  1.8422 -0.9411
   47SOL     OW  960   1.372   0.543   2.228 -0.2678 -0.2045  0.0076
   47SOL    HW1  961   1.305   0.605   2.188  0.8577  1.4829  0.6465
   47SOL    HW2  962   1.326   0.458   2.256 -1.8689  0.3761 -0.7668
   48SOL     OW  963   4.084   5.741   3.223  0.1536  0.0848 -0.2368
   48SOL    HW1  964   4.033   5.726   3.138  0.2470 -0.0077 -0.2788
   48SOL    HW2  965   4.055   5.827   3.265  0.9186  0.7295 -0.9705
   49SOL     OW  966   3.917   2.178   0.630 -0.0386 -1.0818 -0.6736
   49SOL    HW1  967   3.861   2.253   0.593  1.0257  1.8154  2.9899
   49SOL    HW2  968   3.859   2.116   0.682 -0.2953  1.7573  2.8824
   50SOL     OW  969   5.877   1.608   2.755 -0.3219  0.3346 -0.0407
   50SOL    HW1  970   5.912   1.637   2.666 -1.9336 -0.2669 -0.9144
   50SOL    HW2  971   5.861   1.688   2.813 -0.1859  0.8024 -0.6428
   51SOL     OW  972   1.143   0.713   2.143  0.1492 -0.0153  0.2728
   51SOL    HW1  973   1.213   0.769   2.099  0.5072 -0.4650  0.2551
   51SOL    HW2  974   1.061   0.767   2.159  0.2629  0.3403 -0.3196
   52SOL     OW  975   5.955   2.482   4.652  0.1678 -0.2732 -0.1018
   52SOL    HW1  976   5.916   2.557   4.598  0.1455  1.4398  2.1455
   52SOL    HW2  977   5.894   2.460   4.728  2.0406  0.3718  1.7022
   53SOL     OW  978   3.729   4.109   2.631  0.2468 -0.2249 -0.2613
   53SOL    HW1  979   3.659   4.176   2.611  2.0168  1.6364 -0.4736
   53SOL    HW2  980   3.717   4.029   2.572 -1.0274  0.5194 -1.0384
   54SOL     OW  981   6.068   4.012   0.124 -0.3856 -0.5057 -0.1164
   54SOL    HW1  982   6.073   4.075   0.047 -1.8638 -1.4874 -1.0534
   54SOL    HW2  983   6.138   3.942   0.115 -0.8090 -0.8613 -0.8189
   55SOL     OW  984   0.771   0.310   6.737  0.4648  0.1642 -0.1422
   55SOL    HW1  985   0.761   0.232   6.798  1.5319 -0.0310 -0.2091
   55SOL    HW2  986   0.859   0.355   6.753 -0.4447  1.8432  0.4598
   56SOL     OW  987   3.729   2.526   2.547  0.0645 -0.1658 -0.4399
   56SOL    HW1  988   3.718   2.431   2.518 -0.5959 -0.2557  0.0727
   56SOL    HW2  989   3.644   2.558   2.589 -0.1699  1.0602 -1.7391
   57SOL     OW  990   6.583   1.416   6.907 -0.5656  0.1866  0.2149
   57SOL    HW1  991   6.542   1.325   6.909 -1.1210  0.4401  1.1128
   57SOL    HW2  992   6.672   1.412   6.861 -0.7934 -0.7187 -0.1538
   58SOL     OW  993   2.407   2.338   0.964 -0.4154 -0.3759 -0.4060
   58SOL    HW1  994   2.504   2.358   0.977 -0.6090  0.4305 -0.1344
   58SOL    HW2  995   2.371   2.291   1.045  0.3374 -3.0867 -1.5473
   59SOL     OW  996   2.189   1.515   0.921  0.6156 -0.4519  0.2201
   59SOL    HW1  997   2.155   1.555   1.007  1.0156  1.0763 -0.2974
   59SOL    HW2  998   2.252   1.580   0.877  0.0645 -1.0141 -1.4677
   60SOL     OW  999   0.396   3.786   2.661 -0.4432 -0.3321  0.0799
   60SOL    HW1 1000   0.376   3.858   2.595  1.2312  0.1826  0.0647
   60SOL    HW2 1001   0.408   3.699   2.614  2.5584  0.3627 -0.6093
   61SOL     OW 1002   1.010   5.870   6.757  0.5628 -0.1111 -0.6073
   61SOL    HW1 1003   1.035   5.966   6.741 -0.8997 -0.0300 -3.0805
   61SOL    HW2 1004   1.052   5.813   6.686  0.7787 -1.2172  0.3792
   62SOL     OW 1005   1.685   5.314   4.081  0.4148  0.2229 -0.3713
   62SOL    HW1 1006   1.777   5.332   4.117  0.3018  0.2572 -0.1012
   62SOL    HW2 1007   1.645   5.399   4.048  0.5315  0.1861 -0.6091
   63SOL     OW 1008   4.249   4.850   4.528 -0.0345 -0.2473 -0.3015
   63SOL    HW1 1009   4.175   4.895   4.578 -0.4485  0.3694 -1.4382
   63SOL    HW2 1010   4.328   4.911   4.523  0.3395 -0.6691  0.3893
   64SOL     OW 1011   5.010   6.835   1.279  0.0631 -0.1618  0.2507
   64SOL    HW1 1012   4.935   6.843   1.214 -0.0104  0.0742  0.3569
   64SOL    HW2 1013   5.095   6.864   1.236 -0.0752  0.5168  0.4147
   65SOL     OW 1014   4.621   1.818   5.973 -0.3041 -0.3678  0.1268
   65SOL    HW1 1015   4.544   1.755   5.962 -0.8395 -0.0370  1.7203
   65SOL    HW2 1016   4.700   1.784   5.922 -1.5683 -0.5714 -1.7854
   66SOL     OW 1017   4.812   1.548   4.202 -0.1376 -0.6664 -0.4587
   66SOL    HW1 1018   4.739   1.512   4.260  1.3199  1.3006  2.8316
   66SOL    HW2 1019   4.787   1.639   4.170  0.8334  0.0492  0.7474
   67SOL     OW 1020   4.630   3.422   0.262  0.2078 -0.4300 -0.0759
   67SOL    HW1 1021   4.530   3.431   0.269  0.1209 -1.4475  0.2674
   67SOL    HW2 1022   4.671   3.512   0.250 -0.5928  0.2517  1.8816
   68SOL     OW 1023   0.224   1.135   0.320  0.1049 -0.0843 -0.2183
   68SOL    HW1 1024   0.308   1.111   0.271  0.8145 -0.1578  0.9904
   68SOL    HW2 1025   0.247   1.182   0.405 -1.0766 -0.1641  0.1664
   69SOL     OW 1026   1.899   1.991   4.629 -0.3161  0.0695 -0.2690
   69SOL    HW1 1027   1.801   1.987   4.646 -0.3397 -1.3365 -0.6294
   69SOL    HW2 1028   1.937   2.073   4.672 -1.7086  0.8643 -0.5041
   70SOL     OW 1029   1.241   5.626   3.819  0.5057 -0.1326 -0.1263
   70SOL    HW1 1030   1.304   5.684   3.871 -0.2331 -0.4347  1.1806
   70SOL    HW2 1031   1.290   5.545   3.785  1.0566  0.1539 -0.0430
   71SOL     OW 1032   0.074   1.254   1.217 -0.3503 -0.0818 -0.2395
   71SOL    HW1 1033   0.145   1.221   1.155 -1.6070 -1.8090 -0.8240
   71SOL    HW2 1034   0.047   1.181   1.280 -1.9729  0.3566 -0.3696
   72SOL     OW 1035   6.402   2.300   5.269 -0.7306  0.1657 -0.2721
   72SOL    HW1 1036   6.410   2.391   5.229 -2.4096  1.1294  1.4168
   72SOL    HW2 1037   6.324   2.253   5.230 -0.1733 -0.3784 -0.7658
   73SOL     OW 1038   5.923   2.839   6.480  0.0904  0.2155  0.0001
   73SOL    HW1 1039   6.006   2.887   6.510  0.9563 -1.4230  0.3382
   73SOL    HW2 1040   5.852   2.906   6.459  0.9714  1.6081  1.2499
   74SOL     OW 1041   1.880   0.408   6.034  0.5135  0.7603  0.1912
   74SOL    HW1 1042   1.941   0.481   6.065 -0.0744  1.2572  0.1729
   74SOL    HW2 1043   1.785   0.431   6.054  0.0986  1.0833 -1.8836
   75SOL     OW 1044   5.360   1.241   6.236  0.3993 -0.2257 -0.0507
   75SOL    HW1 1045   5.385   1.152   6.198 -0.4173  0.1564 -1.5201
   75SOL    HW2 1046   5.315   1.297   6.166 -2.2550  0.0626  1.7500
   76SOL     OW 1047   1.370   4.450   4.414 -0.5187  0.0359 -0.0572
   76SOL    HW1 1048   1.383   4.352   4.404  1.9944  0.2737  0.3462
   76SOL    HW2 1049   1.273   4.469   4.431 -1.2547 -2.2283 -1.3036
   77SOL     OW 1050   6.445   4.667   1.069 -0.0985  0.9012 -0.2345
   77SOL    HW1 1051   6.468   4.573   1.091 -1.5844  1.0199  2.2902
   77SOL    HW2 1052   6.524   4.712   1.028  0.9059 -1.1781 -0.7333
   78SOL     OW 1053   5.771   6.208   4.849 -0.7300  0.5569  0.3384
   78SOL    HW1 1054   5.728   6.281   4.797 -2.3497  0.7814  1.9145
   78SOL    HW2 1055   5.700   6.153   4.893  0.5009 -1.2836  0.1115
   79SOL     OW 1056   0.786   5.629   0.102 -0.1744 -0.4941 -0.0317
   79SOL    HW1 1057   0.884   5.637   0.080 -0.0474 -0.7075  0.4371
   79SOL    HW2 1058   0.773   5.554   0.168 -0.7017 -0.7333 -0.3984
   80SOL     OW 1059   1.777   3.360   1.703 -0.2019 -0.1272  0.2481
   80SOL    HW1 1060   1.809   3.265   1.705 -1.1255 -0.4317  0.7705
   80SOL    HW2 1061   1.710   3.374   1.776 -1.2494  0.5007 -0.8120
   81SOL     OW 1062   4.698   0.984   1.659  0.0075 -0.8780 -1.1285
   81SOL    HW1 1063   4.605   0.964   1.629 -0.4670  0.3663 -0.5778
   81SOL    HW2 1064   4.695   1.047   1.738  1.3274 -0.0222 -1.7075
   82SOL     OW 1065   0.398   4.943   4.172 -0.2561  0.1506  0.3587
   82SOL    HW1 1066   0.415   5.041   4.175  0.6792  0.0228 -0.3672
   82SOL    HW2 1067   0.333   4.923   4.099  0.6137  0.0996 -0.4165
   83SOL     OW 1068   5.631   1.464   6.055 -0.9521 -0.4656 -0.2188
   83SOL    HW1 1069   5.703   1.497   6.117 -2.0384  0.8404  0.4208
   83SOL    HW2 1070   5.632   1.519   5.971 -0.2798 -1.4205 -0.8594
   84SOL     OW 1071   4.613   5.515   1.937  0.1603 -0.0737 -0.0853
   84SOL    HW1 1072   4.545   5.581   1.907  0.1540 -0.2157 -0.3866
   84SOL    HW2 1073   4.567   5.438   1.982  0.0434 -0.6239 -1.1245
   85SOL     OW 1074   4.000   4.603   1.345 -0.5656 -0.1117  0.2025
   85SOL    HW1 1075   3.987   4.699   1.367  1.7398  0.4656 -0.6352
   85SOL    HW2 1076   3.962   4.583   1.255  0.9450  0.6331 -0.6380
   86SOL     OW 1077   1.761   5.362   3.676 -0.3683  0.2619 -0.0069
   86SOL    HW1 1078   1.726   5.455   3.680 -1.2218 -0.0824  1.2290
   86SOL    HW2 1079   1.747   5.325   3.584 -2.7650  0.3486  0.2465
   87SOL     OW 1080   4.639   1.179   5.828 -0.3011  0.2708 -0.2584
   87SOL    HW1 1081   4.641   1.098   5.770  1.2039  0.8039 -1.0021
   87SOL    HW2 1082   4.583   1.160   5.909  0.8293 -1.8828  0.0990
   88SOL     OW 1083   0.615   6.642   0.989 -0.0714  0.4892 -0.0894
   88SOL    HW1 1084   0.656   6.571   0.932  1.0745  1.1851 -0.1548
   88SOL    HW2 1085   0.602   6.608   1.082 -1.0049 -0.3100 -0.4834
   89SOL     OW 1086   2.859   4.442   2.730 -0.1450  0.2187 -0.1683
   89SOL    HW1 1087   2.862   4.399   2.820 -1.0418  0.4653 -0.0047
   89SOL    HW2 1088   2.921   4.395   2.668 -0.6392 -0.9391  0.1758
   90SOL     OW 1089   0.256   3.717   6.681  0.0502  0.1169 -0.0073
   90SOL    HW1 1090   0.248   3.721   6.582  1.9908  1.3213 -0.1391
   90SOL    HW2 1091   0.278   3.808   6.717  0.2474 -0.4795  1.4597
   91SOL     OW 1092   0.201   5.558   6.041 -0.0360 -0.0392 -0.3364
   91SOL    HW1 1093   0.250   5.599   5.964  0.1174 -0.8250 -0.6750
   91SOL    HW2 1094   0.256   5.565   6.124  1.9642 -3.3233 -1.2357
   92SOL     OW 1095   5.562   0.518   0.315 -0.1264  0.1064 -0.1328
   92SOL    HW1 1096   5.571   0.538   0.412 -2.1275  0.6589 -0.0146
   92SOL    HW2 1097   5.652   0.497   0.277  0.9845  1.6937  1.4486
   93SOL     OW 1098   2.068   2.690   0.506 -0.4321  0.5799 -0.2895
   93SOL    HW1 1099   2.010   2.769   0.485 -2.6536 -0.8771 -0.0067
   93SOL    HW2 1100   2.108   2.655   0.422 -1.8818  0.2392 -0.8702
   94SOL     OW 1101   2.484   0.762   6.820  0.3072 -0.9786 -0.3121
   94SOL    HW1 1102   2.464   0.757   6.723  0.2628 -4.6037 -0.2555
   94SOL    HW2 1103   2.583   0.767   6.834  0.2827  0.4246 -0.4884
   95SOL     OW 1104   4.542   6.616   2.308 -0.8117 -0.1631 -0.6562
   95SOL    HW1 1105   4.530   6.583   2.402  0.6359 -0.6164 -0.6003
   95SOL    HW2 1106   4.627   6.669   2.302 -0.2891 -1.0750 -1.9103
   96SOL     OW 1107   1.413   1.649   2.002  0.1189  0.4566  0.1287
   96SOL    HW1 1108   1.374   1.585   2.067 -0.7320  2.3988  1.6277
   96SOL    HW2 1109   1.481   1.602   1.945 -1.6731 -2.1350 -0.0305
   97SOL     OW 1110   4.547   4.879   6.637  0.1646 -0.6985 -0.2968
   97SOL    HW1 1111   4.497   4.852   6.719 -0.0269 -1.6755 -0.7228
   97SOL    HW2 1112   4.638   4.838   6.637 -0.7847 -3.0151 -1.8445
   98SOL     OW 1113   3.436   5.922   5.338 -0.4069 -0.0319  0.0750
   98SOL    HW1 1114   3.424   5.882   5.247 -0.5859 -1.2119  0.5929
   98SOL    HW2 1115   3.520   5.976   5.339  0.0801 -0.7344 -0.5613
   99SOL     OW 1116   1.406   3.788   1.399 -0.2459  0.3800 -0.3152
   99SOL    HW1 1117   1.452   3.713   1.446 -0.2087  0.4511 -0.2343
   99SOL    HW2 1118   1.384   3.760   1.306 -1.4499 -0.2268  0.1201
  100SOL     OW 1119   1.941   1.498   2.992  0.1465 -0.0103  0.3117
  100SOL    HW1 1120   1.940   1.596   3.009 -2.3243  0.5977 -2.4341
  100SOL    HW2 1121   1.847   1.463   2.993  0.8698 -2.1313  0.0738
  101SOL     OW 1122   5.782   4.434   6.060  0.0698  0.1455  0.3017
  101SOL    HW1 1123   5.875   4.407   6.034 -0.6420 -1.5731 -0.5990
  101SOL    HW2 1124   5.716   4.381   6.008 -1.4435  0.9485  1.3261
  102SOL     OW 1125   1.545   2.393   1.467 -0.3903 -0.3061  0.1225
  102SOL    HW1 1126   1.497   2.321   1.417 -1.1168  0.6184 -0.5436
  102SOL    HW2 1127   1.483   2.470   1.482  0.2505  0.0173  1.1952
  103SOL     OW 1128   5.760   5.186   1.179  0.2363  0.0361 -0.4054
  103SOL    HW1 1129   5.844   5.169   1.230  1.2149  1.0252 -1.6227
  103SOL    HW2 1130   5.752   5.120   1.104  0.2310  0.3238 -0.6602
  104SOL     OW 1131   3.655   4.587   5.638 -0.2807  0.1867 -0.3405
  104SOL    HW1 1132   3.571   4.581   5.583 -0.2913  0.2882 -0.3366
  104SOL    HW2 1133   3.718   4.652   5.596  0.1103 -0.4366 -0.7616
  105SOL     OW 1134   6.895   0.702   1.945 -0.1371 -0.3027  0.2234
  105SOL    HW1 1135   6.991   0.725   1.957 -1.1236  3.6149  1.9884
  105SOL    HW2 1136   6.869   0.715   1.850  1.0044 -1.3401 -0.2583
  106SOL     OW 1137   3.530   3.197   4.607  0.3217 -0.3672  0.6771
  106SOL    HW1 1138   3.555   3.121   4.667 -2.7127 -1.2751  1.0010
  106SOL    HW2 1139   3.535   3.166   4.512  1.9040  0.0009  0.6178
  107SOL     OW 1140   0.180   6.729   6.646  0.4923  0.5463  0.1960
  107SOL    HW1 1141   0.091   6.695   6.677  1.1586 -1.4404  0.0340
  107SOL    HW2 1142   0.237   6.652   6.618  1.8112  1.8995 -0.9538
  108SOL     OW 1143   3.260   0.971   0.933 -0.1444  0.4903 -0.8008
  108SOL    HW1 1144   3.315   0.897   0.971 -1.7801 -1.1621 -1.4730
  108SOL    HW2 1145   3.315   1.054   0.924  2.4350 -1.2594 -2.1847
  109SOL     OW 1146   0.315   0.274   4.701  0.6681 -0.0591 -0.3866
  109SOL    HW1 1147   0.224   0.251   4.667  0.8483 -3.0545  0.9063
  109SOL    HW2 1148   0.360   0.192   4.734  3.2826  1.6005  0.4493
  110SOL     OW 1149   3.284   0.873   5.461  0.2296  0.1686 -0.3664
  110SOL    HW1 1150   3.234   0.829   5.386  0.3652  0.0567 -0.3942
  110SOL    HW2 1151   3.255   0.832   5.548 -0.3019  0.6537 -0.3084
  111SOL     OW 1152   1.495   6.986   1.248 -0.6893  0.4739 -0.0977
  111SOL    HW1 1153   1.582   7.026   1.277 -1.8151  1.5261  2.0632
  111SOL    HW2 1154   1.486   6.996   1.149  1.1653  1.3098 -0.2308
  112SOL     OW 1155   3.952   1.411   4.706  0.2087  0.3840  0.5684
  112SOL    HW1 1156   3.927   1.495   4.658 -0.3050  0.1640  0.4416
  112SOL    HW2 1157   3.930   1.420   4.803 -0.9833 -0.0442  0.3493
  113SOL     OW 1158   2.981   5.382   6.048  0.3354 -0.5461 -0.3346
  113SOL    HW1 1159   3.058   5.437   6.081  0.4337 -1.1850  0.5466
  113SOL    HW2 1160   3.000   5.350   5.955  0.9720 -0.3704 -0.2692
  114SOL     OW 1161   6.759   0.266   4.575 -0.3533 -0.3103 -0.4184
  114SOL    HW1 1162   6.696   0.331   4.616 -0.5077  0.7720 -2.2761
  114SOL    HW2 1163   6.780   0.193   4.641 -1.2252  0.8827  1.2316
  115SOL     OW 1164   4.485   5.145   0.853 -0.3209 -0.7133  0.3639
  115SOL    HW1 1165   4.418   5.099   0.912  2.4881 -2.0372  2.7581
  115SOL    HW2 1166   4.508   5.084   0.777  0.0045 -1.3338  0.9466
  116SOL     OW 1167   1.238   1.077   4.586 -0.1764 -0.2082  0.5710
  116SOL    HW1 1168   1.318   1.093   4.644 -0.3177 -0.8204  0.9416
  116SOL    HW2 1169   1.197   1.164   4.560  1.5959  0.2169 -1.0058
  117SOL     OW 1170   1.067   5.476   1.339 -0.0472 -0.1971  0.0240
  117SOL    HW1 1171   1.055   5.555   1.279 -0.2289 -0.8119 -0.7848
  117SOL    HW2 1172   1.154   5.432   1.319  0.8896  0.8097  1.7216
  118SOL     OW 1173   1.942   5.190   5.155  0.0667 -0.5155  0.4335
  118SOL    HW1 1174   2.040   5.179   5.141  0.0043 -0.1994 -0.3306
  118SOL    HW2 1175   1.925   5.262   5.222  0.3328  0.9915 -1.0617
  119SOL     OW 1176   4.591   5.070   1.571 -0.0502  0.1368 -0.4777
  119SOL    HW1 1177   4.586   5.019   1.485  2.4366  2.3659 -2.1137
  119SOL    HW2 1178   4.664   5.033   1.628  0.6031  0.7784 -0.8910
  120SOL     OW 1179   5.949   3.564   1.959  0.1319 -0.2601  0.2219
  120SOL    HW1 1180   5.899   3.487   1.921 -0.0367 -0.7827  1.4293
  120SOL    HW2 1181   5.945   3.641   1.896 -0.1325 -1.0587 -0.7824
  121SOL     OW 1182   6.142   0.046   3.320 -0.3804 -0.0320 -0.1550
  121SOL    HW1 1183   6.048   0.018   3.299 -0.0609 -2.0154  0.7691
  121SOL    HW2 1184   6.199  -0.036   3.329  0.9017  1.0327  1.7162
  122SOL     OW 1185   0.890   2.854   5.458  0.1283 -0.0517  0.4206
  122SOL    HW1 1186   0.987   2.851   5.481  0.3312 -0.4922 -0.4495
  122SOL    HW2 1187   0.844   2.923   5.514  0.9085  0.0491  0.9443
  123SOL     OW 1188   6.361   4.542   2.763  0.1231  0.7565  1.0516
  123SOL    HW1 1189   6.289   4.490   2.808  0.1827  0.9441  1.3647
  123SOL    HW2 1190   6.326   4.633   2.739 -0.4259  0.1007 -0.7495
  124SOL     OW 1191   2.055   2.557   5.328 -0.7842  0.4668 -0.2105
  124SOL    HW1 1192   2.113   2.481   5.359  0.6805  2.2291  1.6192
  124SOL    HW2 1193   1.959   2.531   5.336 -0.3848 -0.6140  2.1596
  125SOL     OW 1194   5.795   5.303   4.970 -0.1487 -0.0672 -0.5776
  125SOL    HW1 1195   5.786   5.387   4.916  0.6130  1.2494  1.2477
  125SOL    HW2 1196   5.752   5.315   5.059 -0.1726 -1.6933 -0.3280
  126SOL     OW 1197   6.754   4.507   2.361 -0.1096  0.3477  0.1552
  126SOL    HW1 1198   6.809   4.424   2.374  0.5843  0.7541 -0.1402
  126SOL    HW2 1199   6.685   4.513   2.433  0.6348  0.1538  0.8905
  127SOL     OW 1200   2.824   2.429   5.358 -0.1244 -0.3131  0.3541
  127SOL    HW1 1201   2.918   2.395   5.354 -0.3406 -0.8875 -0.0538
  127SOL    HW2 1202   2.823   2.526   5.334  0.1589 -0.7372 -1.5600
  128SOL     OW 1203   4.049   2.406   3.150 -0.7361 -0.1999 -0.4613
  128SOL    HW1 1204   4.076   2.316   3.114  0.6050  0.4532 -1.1453
  128SOL    HW2 1205   3.971   2.441   3.098 -1.4537 -1.0770 -0.0063
  129SOL     OW 1206   5.407   2.254   5.934 -0.3957  0.2683 -0.4416
  129SOL    HW1 1207   5.426   2.242   5.837  0.9214  2.0886 -0.4635
  129SOL    HW2 1208   5.467   2.195   5.988  0.7866  1.1895 -0.6995
  130SOL     OW 1209   3.401   0.455   3.021 -0.0999 -0.1013  0.4518
  130SOL    HW1 1210   3.494   0.489   3.037 -0.5996  1.2493  0.6962
  130SOL    HW2 1211   3.400   0.356   3.027  1.5677 -0.2414 -0.8332
  131SOL     OW 1212   6.518   4.937   6.021  0.3864  0.0166 -0.0998
  131SOL    HW1 1213   6.615   4.949   6.004  0.0874  2.5693 -0.2751
  131SOL    HW2 1214   6.494   4.975   6.110 -0.4984 -0.4321 -0.1287
  132SOL     OW 1215   3.693   5.508   1.064 -0.3224 -0.1620  0.4796
  132SOL    HW1 1216   3.693   5.408   1.057  1.6059 -0.1898  0.5150
  132SOL    HW2 1217   3.614   5.537   1.119 -2.0789 -1.4872 -1.2037
  133SOL     OW 1218   6.451   3.272   4.920  0.3936 -0.4973 -0.2588
  133SOL    HW1 1219   6.481   3.179   4.938  0.1449 -0.3451  1.0574
  133SOL    HW2 1220   6.354   3.272   4.894  0.5440 -0.6558 -0.8181
  134SOL     OW 1221   6.208   5.639   1.103  0.0047  0.0526 -0.0487
  134SOL    HW1 1222   6.255   5.610   1.186 -0.2295 -0.8440 -0.2206
  134SOL    HW2 1223   6.259   5.713   1.059  0.3854  0.2013  0.6271
  135SOL     OW 1224   1.140   4.799   3.445 -0.1671 -0.0861  0.1998
  135SOL    HW1 1225   1.212   4.853   3.402 -0.3903  0.0642  0.0141
  135SOL    HW2 1226   1.141   4.815   3.544 -2.7780  3.4152 -0.1864
  136SOL     OW 1227   5.572   0.271   1.783  0.3040 -0.4287  0.4362
  136SOL    HW1 1228   5.518   0.328   1.844 -1.0015  0.5666 -1.5377
  136SOL    HW2 1229   5.547   0.175   1.796 -2.7945  0.0433 -1.0395
  137SOL     OW 1230   4.953   1.399   6.195  0.2453 -0.4620 -0.0322
  137SOL    HW1 1231   4.966   1.340   6.274  0.2490  0.4618  0.6732
  137SOL    HW2 1232   4.880   1.465   6.214  2.5964  2.1165  0.6582
  138SOL     OW 1233   6.605   0.939   1.600 -0.1663 -0.1790  0.0658
  138SOL    HW1 1234   6.541   0.962   1.527 -0.1442 -0.5063 -0.0599
  138SOL    HW2 1235   6.567   0.864   1.655 -1.0368  1.2333  1.5045
  139SOL     OW 1236   0.620   6.824   3.306  0.1417 -0.0958 -0.1969
  139SOL    HW1 1237   0.528   6.848   3.338 -0.7676  0.0979 -2.7122
  139SOL    HW2 1238   0.662   6.759   3.370 -1.3920  0.4519  1.4424
  140SOL     OW 1239   0.758   1.702   1.426 -0.0300  0.2401  0.4579
  140SOL    HW1 1240   0.753   1.627   1.361 -0.8703  0.8494 -0.2013
  140SOL    HW2 1241   0.690   1.689   1.498 -0.9714  0.9339 -0.2859
  141SOL     OW 1242   3.148   1.469   4.226 -0.0051  0.3746  0.3844
  141SOL    HW1 1243   3.231   1.488   4.174  0.5322  0.0915  1.1288
  141SOL    HW2 1244   3.073   1.525   4.190  0.9203  1.9280  0.8224
  142SOL     OW 1245   2.149   2.286   3.319  0.3364 -0.1462  0.1674
  142SOL    HW1 1246   2.135   2.195   3.357 -1.1434 -0.0246 -0.0224
  142SOL    HW2 1247   2.242   2.293   3.281  0.1610 -1.8864 -0.6707
  143SOL     OW 1248   1.014   1.767   5.974  0.0412  0.0674  0.2851
  143SOL    HW1 1249   1.010   1.863   6.001 -1.4880  0.6445 -1.7558
  143SOL    HW2 1250   0.924   1.739   5.938  0.8791 -1.6785 -0.5506
  144SOL     OW 1251   2.558   5.249   0.015 -0.5177  0.5134 -0.0680
  144SOL    HW1 1252   2.562   5.228  -0.083 -1.0915 -1.5390  0.3190
  144SOL    HW2 1253   2.480   5.309   0.032 -0.8890  0.2556 -0.7833
  145SOL     OW 1254   5.637   4.842   6.235 -0.1591  0.2405 -0.3737
  145SOL    HW1 1255   5.547   4.856   6.277  0.9619  1.1594  1.8996
  145SOL    HW2 1256   5.661   4.745   6.242  0.9058  0.6063  3.3965
  146SOL     OW 1257   4.364   2.320   4.277  0.7074 -0.1242  0.6675
  146SOL    HW1 1258   4.287   2.256   4.265  2.0318 -1.7820  0.5302
  146SOL    HW2 1259   4.394   2.319   4.373  1.9520 -1.2580  0.3063
  147SOL     OW 1260   4.010   0.391   3.173 -0.1565 -0.1326 -0.1364
  147SOL    HW1 1261   4.063   0.475   3.160  0.6048 -0.5900 -0.0385
  147SOL    HW2 1262   4.066   0.312   3.146 -0.9861 -0.5823 -0.5667
  148SOL     OW 1263   4.438   4.341   2.236 -0.3755  0.3131  0.0236
  148SOL    HW1 1264   4.405   4.429   2.270  0.8111  2.4022 -3.6295
  148SOL    HW2 1265   4.532   4.327   2.267 -0.4444  0.5348  0.3371
  149SOL     OW 1266   5.237   1.260   4.357 -0.1377 -0.6834 -0.5411
  149SOL    HW1 1267   5.141   1.265   4.331 -0.6245 -0.1892  1.2234
  149SOL    HW2 1268   5.258   1.168   4.391  0.1672 -0.9595 -1.4656
  150SOL     OW 1269   6.562   2.606   4.994  0.1032 -0.1011 -0.2443
  150SOL    HW1 1270   6.650   2.611   5.041  0.8752 -1.6408 -1.4515
  150SOL    HW2 1271   6.563   2.530   4.928 -0.9025  1.9140 -2.7695
  151SOL     OW 1272   0.859   0.514   0.770  0.4991  0.9947  0.0965
  151SOL    HW1 1273   0.894   0.420   0.775 -0.2058  0.7675  1.5861
  151SOL    HW2 1274   0.846   0.540   0.674  1.1274 -0.2567 -0.3580
  152SOL     OW 1275   6.804   1.538   2.141  0.2837  0.1336  0.0150
  152SOL    HW1 1276   6.858   1.620   2.160  0.4978  0.0606 -0.2546
  152SOL    HW2 1277   6.739   1.522   2.215 -0.7787  1.3704 -0.5906
  153SOL     OW 1278   4.289   4.565   6.992 -0.1074 -0.6880 -0.0947
  153SOL    HW1 1279   4.206   4.524   6.955 -0.1935  0.7998 -1.6342
  153SOL    HW2 1280   4.270   4.659   7.021  0.8736 -0.5657  0.1698
  154SOL     OW 1281   0.249   1.316   1.730  0.2383  0.1931 -1.1693
  154SOL    HW1 1282   0.326   1.284   1.675 -0.1582  0.4194 -1.8637
  154SOL    HW2 1283   0.220   1.406   1.698  0.5608  0.7246 -0.0201
  155SOL     OW 1284   3.063   5.674   0.660 -0.5587  0.4428  0.2313
  155SOL    HW1 1285   3.107   5.699   0.747  1.3766  0.3538 -0.6775
  155SOL    HW2 1286   3.079   5.745   0.592 -1.1366  0.0230 -0.3604
  156SOL     OW 1287   1.070   6.427   4.786  0.1228 -0.5225 -0.1424
  156SOL    HW1 1288   1.093   6.393   4.877  2.5058  0.9368 -0.1224
  156SOL    HW2 1289   1.142   6.403   4.722 -0.9212 -0.4456 -1.3836
  157SOL     OW 1290   6.217   4.162   0.627  0.3948 -0.1405  0.0324
  157SOL    HW1 1291   6.166   4.091   0.675  1.8755 -0.9436  0.4399
  157SOL    HW2 1292   6.167   4.188   0.544 -0.2711 -1.4840 -0.0046
  158SOL     OW 1293   0.679   6.979   5.832 -0.4279  0.3132 -0.1532
  158SOL    HW1 1294   0.628   6.986   5.918  0.6182 -2.9713  0.9194
  158SOL    HW2 1295   0.615   6.981   5.755 -1.8976 -0.7903  0.9595
  159SOL     OW 1296   1.007   2.781   5.832 -0.0461  0.2989  0.8544
  159SOL    HW1 1297   0.926   2.724   5.814  0.0473 -0.2444  2.0762
  159SOL    HW2 1298   0.978   2.867   5.874 -0.0989  0.7048 -0.0040
  160SOL     OW 1299   5.266   4.653   1.107  0.3264  0.2512 -0.2556
  160SOL    HW1 1300   5.203   4.729   1.123  0.1492  0.4506 -1.7073
  160SOL    HW2 1301   5.334   4.649   1.181  0.5789  2.0837 -0.3513
  161SOL     OW 1302   3.569   0.682   3.917  0.3093  0.1581  0.5388
  161SOL    HW1 1303   3.627   0.699   3.997 -1.3497  1.1159  1.6026
  161SOL    HW2 1304   3.566   0.763   3.860  1.4565 -0.5112 -0.5156
  162SOL     OW 1305   4.491   6.127   3.382  0.5157 -0.0450 -0.0785
  162SOL    HW1 1306   4.509   6.225   3.377  0.5882 -0.0801 -0.6615
  162SOL    HW2 1307   4.491   6.097   3.477  1.4861  0.3287  0.0495
  163SOL     OW 1308   5.746   3.426   0.609 -0.3263  0.4613  0.7700
  163SOL    HW1 1309   5.750   3.349   0.672 -0.0626  0.5465  0.8656
  163SOL    HW2 1310   5.825   3.486   0.624  0.4603 -0.2124 -0.5329
  164SOL     OW 1311   1.412   1.637   5.790 -0.2325 -0.0106  0.4761
  164SOL    HW1 1312   1.313   1.628   5.805 -0.3260 -0.3775 -0.2915
  164SOL    HW2 1313   1.442   1.727   5.819 -1.1152  0.7500 -0.8587
  165SOL     OW 1314   6.362   4.917   5.129  0.7825  0.5288  0.5036
  165SOL    HW1 1315   6.274   4.890   5.090  1.6784 -1.3308 -0.3558
  165SOL    HW2 1316   6.350   4.999   5.184 -1.3193  0.8084 -0.2839
  166SOL     OW 1317   4.781   5.181   5.666 -0.3909  0.5081 -0.2133
  166SOL    HW1 1318   4.764   5.187   5.568  1.7582  1.4984 -0.5898
  166SOL    HW2 1319   4.785   5.085   5.694  0.9665  0.1431 -1.5269
  167SOL     OW 1320   1.860   0.537   1.256 -0.0472 -0.0332 -0.2674
  167SOL    HW1 1321   1.896   0.487   1.335  2.5595  1.6316 -0.3087
  167SOL    HW2 1322   1.777   0.491   1.223  1.1004 -3.1717  0.8703
  168SOL     OW 1323   1.725   5.894   5.019  0.1760 -0.1796  0.0923
  168SOL    HW1 1324   1.749   5.797   5.029 -0.4325 -0.7104 -2.7945
  168SOL    HW2 1325   1.731   5.920   4.923 -0.5636  2.4540  0.6902
  169SOL     OW 1326   3.301   2.746   0.475  0.1956  0.4205  0.5389
  169SOL    HW1 1327   3.324   2.671   0.412  0.8750  1.2562 -0.2427
  169SOL    HW2 1328   3.225   2.718   0.533 -1.1584 -0.0118 -1.3677
  170SOL     OW 1329   5.016   3.896   1.698  0.3394 -0.4492 -0.3038
  170SOL    HW1 1330   5.007   3.953   1.616 -0.4166  1.2663  0.9095
  170SOL    HW2 1331   5.091   3.931   1.755 -0.9502  0.1844  1.0743
  171SOL     OW 1332   5.426   1.099   0.404  0.0301 -0.1244 -0.0021
  171SOL    HW1 1333   5.498   1.168   0.396 -0.5071  0.2649 -2.4223
  171SOL    HW2 1334   5.467   1.008   0.399  0.5780  0.0144  1.4787
  172SOL     OW 1335   4.540   4.040   3.564 -0.1568 -0.0633 -0.3322
  172SOL    HW1 1336   4.586   4.065   3.479  0.4602  0.0071  0.0151
  172SOL    HW2 1337   4.573   3.951   3.594 -0.5351 -0.1876 -0.2801
  173SOL     OW 1338   1.070   0.013   0.131 -0.4569  0.1668 -0.0328
  173SOL    HW1 1339   1.002   0.059   0.188 -0.1353  0.5382  0.0520
  173SOL    HW2 1340   1.105  -0.068   0.178  0.1742  0.7801  0.5093
  174SOL     OW 1341   5.999   1.799   5.659 -0.0027  0.0802 -0.0660
  174SOL    HW1 1342   5.963   1.802   5.752 -1.3582  2.3498 -0.5791
  174SOL    HW2 1343   5.923   1.786   5.595  1.0037 -2.4147 -0.8787
  175SOL     OW 1344   6.327   0.622   0.239  0.3441 -0.4581  0.0263
  175SOL    HW1 1345   6.398   0.633   0.309  1.6024  0.1383 -1.2989
  175SOL    HW2 1346   6.362   0.564   0.165 -1.0304 -1.2419 -0.0527
  176SOL     OW 1347   3.065   0.078   6.475  0.2827  0.0727  0.2392
  176SOL    HW1 1348   3.061   0.037   6.566  1.3054  2.3283  1.3770
  176SOL    HW2 1349   2.981   0.055   6.426 -0.6953 -0.4931  2.0619
  177SOL     OW 1350   6.603   3.661   1.260  0.5236  0.0317  0.6088
  177SOL    HW1 1351   6.572   3.740   1.312 -0.8657  0.9097 -1.4303
  177SOL    HW2 1352   6.553   3.656   1.174  1.0765 -2.7009  0.3667
  178SOL     OW 1353   3.926   3.724   6.195  0.1313  0.0584 -0.1374
  178SOL    HW1 1354   3.893   3.651   6.136 -1.6493  0.2847  0.5050
  178SOL    HW2 1355   3.866   3.804   6.186 -0.1007  0.1409  1.8093
  179SOL     OW 1356   5.052   2.819   3.544  0.0122 -0.3088 -0.1698
  179SOL    HW1 1357   5.020   2.799   3.636 -2.8998  0.2600 -0.9775
  179SOL    HW2 1358   4.996   2.891   3.503  1.0691 -0.7025 -2.4781
  180SOL     OW 1359   1.402   5.665   1.457  0.0796  0.1423  0.0327
  180SOL    HW1 1360   1.428   5.581   1.409  1.0653  0.1644  0.5095
  180SOL    HW2 1361   1.481   5.703   1.504 -0.5520  0.8863  0.5280
  181SOL     OW 1362   5.854   1.634   6.811 -0.5075  0.3004 -0.2472
  181SOL    HW1 1363   5.921   1.585   6.755  1.0719 -1.3466  2.8324
  181SOL    HW2 1364   5.774   1.576   6.825 -0.1506 -0.0257  0.5332
  182SOL     OW 1365   2.528   5.926   5.113  0.4505 -0.1206 -0.6747
  182SOL    HW1 1366   2.549   5.832   5.141  0.5162  0.5975  1.8845
  182SOL    HW2 1367   2.613   5.972   5.086  0.8017 -0.0418  0.5396
  183SOL     OW 1368   4.836   5.486   4.472 -0.2971 -0.4828 -0.2226
  183SOL    HW1 1369   4.899   5.449   4.404 -0.4409 -1.1201 -0.0227
  183SOL    HW2 1370   4.871   5.468   4.564 -0.2148  0.1682 -0.1212
  184SOL     OW 1371   6.462   3.239   1.831  0.1179  0.2670 -0.6887
  184SOL    HW1 1372   6.415   3.318   1.871 -0.2376 -0.6380  0.7610
  184SOL    HW2 1373   6.399   3.161   1.829  1.6583 -1.1913  1.9186
  185SOL     OW 1374   2.149   1.186   5.121  0.2556 -0.1752  0.0446
  185SOL    HW1 1375   2.075   1.245   5.090 -0.9110 -1.2106  0.7999
  185SOL    HW2 1376   2.167   1.203   5.218  0.8439 -0.1033 -0.0738
  186SOL     OW 1377   0.866   6.261   6.902  0.0531  0.1187 -0.1261
  186SOL    HW1 1378   0.943   6.321   6.924 -0.2534  0.5252 -0.1386
  186SOL    HW2 1379   0.829   6.224   6.987 -0.4812  0.8617 -0.0276
  187SOL     OW 1380   1.093   0.816   0.190 -0.3736  0.1503 -0.5904
  187SOL    HW1 1381   1.111   0.879   0.266 -2.9419  1.2414 -0.7708
  187SOL    HW2 1382   1.040   0.864   0.120 -0.1692 -1.5336 -1.9572
  188SOL     OW 1383   4.073   3.756   2.468  0.2237  0.2566 -0.0833
  188SOL    HW1 1384   4.036   3.713   2.386  1.6844 -1.5864  0.1525
  188SOL    HW2 1385   4.146   3.820   2.442 -1.6975  2.4598 -0.4053
  189SOL     OW 1386   6.650   5.364   0.709 -0.0089 -0.3599 -0.4369
  189SOL    HW1 1387   6.603   5.386   0.795 -1.8013 -0.6735 -1.2918
  189SOL    HW2 1388   6.748   5.382   0.719 -0.4863  1.9556  0.9085
  190SOL     OW 1389   5.149   6.816   0.107 -0.2746  0.0425  0.3566
  190SOL    HW1 1390   5.204   6.749   0.058 -0.1138 -1.0992  2.0144
  190SOL    HW2 1391   5.206   6.863   0.175 -1.1148 -0.5576  1.5158
  191SOL     OW 1392   1.067   4.552   1.587  0.3395 -0.0653  0.3140
  191SOL    HW1 1393   1.160   4.521   1.605  0.6312  0.7382  0.2232
  191SOL    HW2 1394   1.057   4.647   1.614 -0.2109  0.1151 -0.4721
  192SOL     OW 1395   2.507   5.216   2.198  0.6323  0.8460  0.1988
  192SOL    HW1 1396   2.416   5.194   2.234  1.0898 -0.3566  0.6937
  192SOL    HW2 1397   2.504   5.303   2.149 -1.3165 -0.2466 -1.7829
  193SOL     OW 1398   6.499   0.518   5.123  0.0067 -0.4521 -0.0850
  193SOL    HW1 1399   6.443   0.563   5.192  0.8611  0.7667 -0.1732
  193SOL    HW2 1400   6.451   0.518   5.035 -0.2633 -0.2731  0.0632
  194SOL     OW 1401   1.494   2.291   0.434  0.1316  0.0574  0.5902
  194SOL    HW1 1402   1.565   2.221   0.424  0.0498 -0.1578  1.3934
  194SOL    HW2 1403   1.436   2.268   0.513 -0.9052  0.1634 -0.1280
  195SOL     OW 1404   0.978   0.706   4.630  0.5910  0.0871 -0.3870
  195SOL    HW1 1405   0.915   0.746   4.696 -1.5930 -1.5146 -1.3703
  195SOL    HW2 1406   1.008   0.616   4.661  0.3659 -0.2350 -1.0827
  196SOL     OW 1407   6.117   6.655   0.407  0.0105 -0.0730  0.1751
  196SOL    HW1 1408   6.148   6.743   0.444  0.6746  0.4869 -1.6165
  196SOL    HW2 1409   6.035   6.625   0.456 -1.0661  2.2337 -0.0734
  197SOL     OW 1410   4.184   1.686   4.625  0.7143  0.0437 -0.2860
  197SOL    HW1 1411   4.086   1.679   4.604  0.6991  1.6452 -0.9124
  197SOL    HW2 1412   4.198   1.683   4.724  0.0990 -0.7220 -0.2135
  198SOL     OW 1413   6.000   6.274   6.823  0.4515 -0.6831 -0.0389
  198SOL    HW1 1414   5.958   6.188   6.852 -1.5609  0.6328  1.2334
  198SOL    HW2 1415   5.999   6.339   6.899  0.2137  1.0771 -1.4591
  199SOL     OW 1416   5.309   6.930   1.987  0.0064 -0.4638 -0.5796
  199SOL    HW1 1417   5.240   6.924   2.059  0.9148 -0.6403  0.2821
  199SOL    HW2 1418   5.323   6.839   1.948  1.7174 -0.9790  1.1203
  200SOL     OW 1419   5.363   0.576   5.469 -0.4542  0.2121  0.3382
  200SOL    HW1 1420   5.427   0.570   5.392 -1.3229  1.4635 -0.5184
  200SOL    HW2 1421   5.381   0.660   5.520 -1.5586  0.7206 -0.0731
  201SOL     OW 1422   0.584   6.231   0.572 -0.2536 -0.6776  0.3943
  201SOL    HW1 1423   0.555   6.244   0.667  1.5728  1.0374  0.7992
  201SOL    HW2 1424   0.640   6.149   0.565 -0.4889 -0.8735  0.7590
  202SOL     OW 1425   1.427   3.260   5.780  0.2626  0.2371 -0.3409
  202SOL    HW1 1426   1.513   3.245   5.730  0.3326 -1.1830  0.1717
  202SOL    HW2 1427   1.354   3.282   5.714  0.6583 -0.1516 -0.9245
  203SOL     OW 1428   3.246   3.257   0.220 -0.0743 -0.2310  0.7016
  203SOL    HW1 1429   3.344   3.260   0.240  0.1216 -0.8929 -0.1472
  203SOL    HW2 1430   3.201   3.193   0.283  0.2748 -1.0413  0.1386
  204SOL     OW 1431   0.101   5.547   1.800 -0.0106 -0.5715  0.2485
  204SOL    HW1 1432   0.025   5.610   1.780  0.9022  0.4757 -0.0177
  204SOL    HW2 1433   0.083   5.499   1.885 -0.1153  1.0446  1.1780
  205SOL     OW 1434   0.886   2.074   5.562  0.2213  0.3015 -0.3889
  205SOL    HW1 1435   0.906   2.123   5.647 -1.5836 -1.4487  1.1113
  205SOL    HW2 1436   0.877   2.140   5.488 -1.2890  2.2328  1.3606
  206SOL     OW 1437   4.930   4.716   6.289 -0.1105  0.7461 -0.1080
  206SOL    HW1 1438   4.964   4.810   6.293 -0.9993  1.0425  1.7631
  206SOL    HW2 1439   4.982   4.659   6.352  0.0131  0.1256 -0.7686
  207SOL     OW 1440   6.426   6.272   4.494 -0.0856 -0.3017  0.6964
  207SOL    HW1 1441   6.388   6.360   4.467  2.1751  0.8151  0.9287
  207SOL    HW2 1442   6.379   6.199   4.446 -0.9470  1.1434 -0.7217
  208SOL     OW 1443   4.650   6.034   6.402 -0.4047  0.1597 -0.8554
  208SOL    HW1 1444   4.613   5.942   6.410 -0.6541  0.2632 -0.8183
  208SOL    HW2 1445   4.732   6.032   6.344  1.3846 -0.5747  1.5320
  209SOL     OW 1446   5.361   3.854   0.807 -0.7786  0.6459 -0.3958
  209SOL    HW1 1447   5.263   3.836   0.803 -1.1605  2.7612 -2.3911
  209SOL    HW2 1448   5.399   3.810   0.888 -3.0014 -1.7867 -0.5399
  210SOL     OW 1449   0.818   4.859   2.094 -0.7125  0.5253  0.4828
  210SOL    HW1 1450   0.748   4.927   2.116  0.7238  2.2033  0.1201
  210SOL    HW2 1451   0.880   4.849   2.171  0.7460  1.7961 -0.4791
  211SOL     OW 1452   6.897   4.031   5.303 -0.3597  0.3779 -0.2477
  211SOL    HW1 1453   6.979   4.023   5.360  0.2778  2.2032 -0.8382
  211SOL    HW2 1454   6.843   3.947   5.310  0.7489 -0.2433  1.3971
  212SOL     OW 1455   5.261   5.001   1.815 -0.0308 -0.0384  0.0377
  212SOL    HW1 1456   5.351   5.043   1.831 -0.1332  0.1706  0.0715
  212SOL    HW2 1457   5.227   4.963   1.900  0.1828 -0.4314 -0.0495
  213SOL     OW 1458   2.341   4.279   0.681  0.0131 -0.8195  0.0707
  213SOL    HW1 1459   2.266   4.223   0.648  0.9206 -2.4398  0.6801
  213SOL    HW2 1460   2.306   4.347   0.746 -1.2859  0.2496 -1.6291
  214SOL     OW 1461   2.904   3.499   6.340  0.1063 -0.0461  0.1159
  214SOL    HW1 1462   2.955   3.585   6.340 -0.6915  0.4634  1.6920
  214SOL    HW2 1463   2.848   3.494   6.257 -1.5198  2.0355  1.0012
  215SOL     OW 1464   5.854   1.981   6.101 -0.1847 -0.2171 -0.3414
  215SOL    HW1 1465   5.806   2.069   6.100  1.2207  0.6254 -2.4774
  215SOL    HW2 1466   5.933   1.987   6.163 -0.5750 -0.2626  0.1622
  216SOL     OW 1467   6.990   4.755   2.080 -0.3365 -0.2804  0.6555
  216SOL    HW1 1468   6.944   4.820   2.019 -0.3251  0.6826  1.6302
  216SOL    HW2 1469   6.931   4.737   2.159 -0.0510 -0.9497  0.7199
  217SOL     OW 1470   2.188   6.425   5.070  0.3185 -0.2961  0.3205
  217SOL    HW1 1471   2.147   6.481   5.142  1.1279 -1.0875  1.4239
  217SOL    HW2 1472   2.246   6.483   5.012 -1.0958  0.5276 -0.3087
  218SOL     OW 1473   4.315   3.628   0.725 -0.1606  0.3376  0.0370
  218SOL    HW1 1474   4.349   3.696   0.790  2.0892 -0.6503  0.0032
  218SOL    HW2 1475   4.369   3.544   0.735 -0.4241 -0.1850 -2.3887
  219SOL     OW 1476   4.378   5.919   3.188 -0.1432  0.0116 -0.0242
  219SOL    HW1 1477   4.349   5.857   3.261  0.8157 -2.8871 -1.9313
  219SOL    HW2 1478   4.451   5.978   3.222 -0.7004 -0.2664  1.7340
  220SOL     OW 1479   5.555   1.805   5.218  0.0388  0.0335  0.0615
  220SOL    HW1 1480   5.616   1.881   5.194  1.6391 -1.3083 -0.3509
  220SOL    HW2 1481   5.602   1.718   5.200 -1.7983 -1.0644  0.3486
  221SOL     OW 1482   4.718   1.023   4.079 -0.0540 -1.0614  0.2766
  221SOL    HW1 1483   4.648   1.092   4.095  0.6657  0.0145 -1.0742
  221SOL    HW2 1484   4.723   1.002   3.981  1.8904 -0.6720  0.2456
  222SOL     OW 1485   5.427   6.896   6.266 -0.8053 -0.2999  0.0871
  222SOL    HW1 1486   5.372   6.963   6.216 -0.7767  0.0140  0.4702
  222SOL    HW2 1487   5.371   6.855   6.339 -1.1577 -1.4779 -0.8159
  223SOL     OW 1488   6.717   0.734   0.370  0.0640 -0.5147  0.6118
  223SOL    HW1 1489   6.675   0.799   0.307  0.4269 -1.0431 -0.1953
  223SOL    HW2 1490   6.808   0.711   0.337  0.4266 -0.4905  1.5550
  224SOL     OW 1491   0.363   5.478   6.278 -0.4230 -0.1383  0.5014
  224SOL    HW1 1492   0.446   5.453   6.227 -0.7928  0.5935 -0.5022
  224SOL    HW2 1493   0.330   5.399   6.328  0.6047 -0.5783  0.5081
  225SOL     OW 1494   5.570   2.544   1.722  0.5678  0.0599  0.1019
  225SOL    HW1 1495   5.611   2.498   1.801 -0.4829  0.9845  1.2130
  225SOL    HW2 1496   5.518   2.623   1.753 -1.3995 -0.6124 -1.3248
  226SOL     OW 1497   4.440   1.464   2.957  0.0450  0.0748 -0.3296
  226SOL    HW1 1498   4.414   1.376   2.997  1.7645  0.4145  1.7171
  226SOL    HW2 1499   4.432   1.535   3.027 -2.0797  1.7602 -2.1423
  227SOL     OW 1500   3.210   1.757   0.803  0.0833  0.9825  0.3705
  227SOL    HW1 1501   3.224   1.808   0.888  1.0207  0.3982  0.5779
  227SOL    HW2 1502   3.268   1.796   0.731  0.7237  0.3317  0.4978
  228SOL     OW 1503   0.490   6.920   0.525  0.2099 -0.0485  0.0408
  228SOL    HW1 1504   0.560   6.849   0.531 -0.6104 -0.7933  0.8869
  228SOL    HW2 1505   0.401   6.883   0.550 -0.1858  1.3471  0.8223
  229SOL     OW 1506   6.068   1.632   1.448  0.1867 -0.1229  0.1549
  229SOL    HW1 1507   6.028   1.545   1.478  1.1204 -0.8133 -0.5219
  229SOL    HW2 1508   6.079   1.630   1.348 -1.8837  1.6811 -0.2073
  230SOL     OW 1509   2.729   1.318   2.369  0.1409 -0.9329 -0.3493
  230SOL    HW1 1510   2.759   1.231   2.332  0.7012  0.0818 -2.4628
  230SOL    HW2 1511   2.669   1.364   2.303 -1.2312 -0.2522  1.2670
  231SOL     OW 1512   0.408   4.859   3.689  0.0623 -0.0528  0.5105
  231SOL    HW1 1513   0.352   4.881   3.768 -0.9704 -0.4797 -0.0825
  231SOL    HW2 1514   0.494   4.911   3.693 -1.2310  2.2204  0.3873
  232SOL     OW 1515   5.422   3.358   4.912 -0.4051 -0.5880  0.1343
  232SOL    HW1 1516   5.483   3.432   4.939 -1.6011  0.3735  0.3151
  232SOL    HW2 1517   5.413   3.357   4.812  1.7370 -2.2708 -0.0933
  233SOL     OW 1518   3.471   5.974   0.808  0.1184 -0.3949  0.1048
  233SOL    HW1 1519   3.409   5.997   0.883  0.4097  0.9955 -0.0576
  233SOL    HW2 1520   3.447   6.027   0.727  0.9028 -0.5793 -0.2575
  234SOL     OW 1521   2.403   6.329   1.081  0.3508  0.1114 -0.0797
  234SOL    HW1 1522   2.408   6.370   0.990 -0.6686  0.1043 -0.1523
  234SOL    HW2 1523   2.313   6.347   1.121  0.2133 -1.2492  0.2681
  235SOL     OW 1524   5.701   6.306   3.262  0.1569  0.0425  0.6497
  235SOL    HW1 1525   5.669   6.388   3.215  1.2527  0.1184 -0.0183
  235SOL    HW2 1526   5.624   6.246   3.281 -0.4681  0.5504 -0.2060
  236SOL     OW 1527   3.457   6.635   1.624  0.0750 -0.1513 -0.0622
  236SOL    HW1 1528   3.553   6.618   1.601 -0.1830  0.4941 -1.7166
  236SOL    HW2 1529   3.402   6.556   1.597 -0.1490  0.3665 -1.1458
  237SOL     OW 1530   0.991   5.479   5.339 -0.0894 -0.4747  0.4908
  237SOL    HW1 1531   0.967   5.382   5.347 -0.4576 -0.5731 -1.3748
  237SOL    HW2 1532   1.025   5.497   5.247  0.9993  0.9714  1.1402
  238SOL     OW 1533   2.215   2.747   5.151  0.6254  0.5553 -0.6447
  238SOL    HW1 1534   2.227   2.833   5.202 -0.0570  0.4845 -0.3520
  238SOL    HW2 1535   2.169   2.680   5.210 -0.2716  0.5041 -1.3802
  239SOL     OW 1536   3.371   4.232   0.529  0.3301 -0.1985  0.2424
  239SOL    HW1 1537   3.329   4.145   0.504  1.4847 -0.9016  0.6658
  239SOL    HW2 1538   3.369   4.294   0.451 -0.1013 -0.7593 -0.2020
  240SOL     OW 1539   1.675   5.067   4.535  0.6461 -0.1019  0.2436
  240SOL    HW1 1540   1.662   5.077   4.634 -0.4323 -1.2351  0.2526
  240SOL    HW2 1541   1.757   5.012   4.519  1.1700  0.5916  0.4761
  241SOL     OW 1542   4.931   2.443   2.478 -0.5227  0.6097 -0.0195
  241SOL    HW1 1543   4.917   2.517   2.413  1.4086  0.7176 -0.3867
  241SOL    HW2 1544   4.962   2.361   2.429 -0.3403  0.2884  0.6209
  242SOL     OW 1545   0.307   0.476   0.961 -0.4091 -0.3214 -0.3704
  242SOL    HW1 1546   0.237   0.531   0.914 -0.6789  0.5479  0.9859
  242SOL    HW2 1547   0.266   0.431   1.040  0.2525 -0.9800 -0.3987
  243SOL     OW 1548   5.420   1.086   1.756 -0.4159 -0.0430  0.2878
  243SOL    HW1 1549   5.477   1.034   1.819 -2.4274 -1.5054  0.9846
  243SOL    HW2 1550   5.323   1.066   1.773 -1.0904 -0.5785 -3.3081
  244SOL     OW 1551   3.931   4.385   1.493 -0.1958 -0.4241  0.5963
  244SOL    HW1 1552   3.985   4.314   1.448 -0.7414 -0.2045 -0.4498
  244SOL    HW2 1553   3.958   4.475   1.457  0.3754 -0.0923  1.7874
  245SOL     OW 1554   2.636   6.897   4.888 -0.1036 -0.3571 -0.1889
  245SOL    HW1 1555   2.693   6.847   4.823  0.5848 -0.9871  0.8670
  245SOL    HW2 1556   2.636   6.850   4.976  0.2275  1.2825  0.7298
  246SOL     OW 1557   0.315   1.464   0.266 -0.4819 -0.3585  0.5506
  246SOL    HW1 1558   0.246   1.411   0.219 -0.4851 -1.4837  1.7742
  246SOL    HW2 1559   0.398   1.469   0.210 -0.2042 -2.3512  0.7489
  247SOL     OW 1560   5.578   0.834   1.590  0.3793  0.3791  0.2239
  247SOL    HW1 1561   5.584   0.860   1.686  2.0435  0.3750  0.1490
  247SOL    HW2 1562   5.664   0.853   1.544  0.3864 -1.6705 -0.7405
  248SOL     OW 1563   1.447   1.428   2.880  0.8054  0.1081 -0.1230
  248SOL    HW1 1564   1.409   1.493   2.946 -0.8661 -2.6028  1.7760
  248SOL    HW2 1565   1.404   1.442   2.791  0.8467  1.8608  0.0993
  249SOL     OW 1566   2.871   0.823   6.284 -0.0648  0.5733  0.3403
  249SOL    HW1 1567   2.927   0.740   6.278 -0.7395  0.1790 -0.6289
  249SOL    HW2 1568   2.928   0.898   6.317  0.2307 -0.5781  2.7127
  250SOL     OW 1569   1.559   4.129   1.638  0.2558 -0.4558  0.6473
  250SOL    HW1 1570   1.477   4.171   1.600  1.0901  0.6737  0.0244
  250SOL    HW2 1571   1.533   4.053   1.698 -1.2204 -0.2218  0.3450
  251SOL     OW 1572   2.632   0.297   0.989  0.2207 -0.3942 -0.4757
  251SOL    HW1 1573   2.541   0.258   0.971  0.3469 -1.0654  0.2838
  251SOL    HW2 1574   2.657   0.279   1.084 -1.6858  5.3288  1.5666
  252SOL     OW 1575   5.230   0.077   6.415 -0.4279  0.0928  0.1671
  252SOL    HW1 1576   5.210   0.162   6.464 -1.0205  1.0889 -1.6810
  252SOL    HW2 1577   5.323   0.081   6.377 -0.9915  0.6095 -1.2087
  253SOL     OW 1578   0.874   1.934   2.652 -0.0915  0.1085 -0.3213
  253SOL    HW1 1579   0.812   1.980   2.589 -0.5387 -1.1947 -0.8725
  253SOL    HW2 1580   0.968   1.962   2.633 -0.4535  1.9267  0.3661
  254SOL     OW 1581   2.037   1.233   4.672 -0.0071 -0.0193  0.3270
  254SOL    HW1 1582   1.955   1.176   4.662  0.6515 -0.9767  0.2957
  254SOL    HW2 1583   2.013   1.317   4.721 -1.1148 -0.0404 -0.1490
  255SOL     OW 1584   2.022   6.986   0.855 -0.2577 -0.5070 -0.2950
  255SOL    HW1 1585   2.093   6.926   0.819  1.4328  0.6015  1.0162
  255SOL    HW2 1586   2.059   7.079   0.864 -1.5594 -0.1448  1.3410
  256SOL     OW 1587   0.423   5.766   3.775 -0.2769 -0.0414  0.4292
  256SOL    HW1 1588   0.467   5.677   3.790 -1.1304 -0.5582 -0.0423
  256SOL    HW2 1589   0.356   5.783   3.847  0.1709  0.4131  0.7444
  257SOL     OW 1590   0.589   1.214   6.003  0.1378 -0.1606 -0.5673
  257SOL    HW1 1591   0.553   1.135   5.954  0.6339  0.6327 -2.2842
  257SOL    HW2 1592   0.689   1.213   5.999  0.1608  0.2764 -0.1417
  258SOL     OW 1593   3.146   6.067   0.687  0.5214  0.2227  0.1278
  258SOL    HW1 1594   3.230   6.119   0.674  1.4410 -1.2033  0.1319
  258SOL    HW2 1595   3.137   5.999   0.613 -1.6489  1.6147 -1.0154
  259SOL     OW 1596   4.918   5.755   6.643 -0.1400  0.4059  0.0791
  259SOL    HW1 1597   4.926   5.712   6.553 -0.1648 -3.5554  1.7670
  259SOL    HW2 1598   4.822   5.756   6.672  0.0825 -0.2572  0.8667
  260SOL     OW 1599   3.758   0.728   0.266  0.3867  0.0508 -0.0722
  260SOL    HW1 1600   3.698   0.793   0.219 -1.9421 -1.6128  0.4258
  260SOL    HW2 1601   3.768   0.756   0.361  1.4688  0.9928 -0.4348
  261SOL     OW 1602   2.414   6.472   0.506  0.3338 -0.3781  0.2815
  261SOL    HW1 1603   2.513   6.466   0.504  0.2424 -1.8139 -1.0142
  261SOL    HW2 1604   2.374   6.387   0.472 -1.3215  1.0992 -1.6757
  262SOL     OW 1605   2.851   3.115   1.464  0.3159  0.2701  0.4839
  262SOL    HW1 1606   2.865   3.034   1.521  0.3075 -1.0484 -1.3106
  262SOL    HW2 1607   2.906   3.108   1.381 -0.4328  1.6614 -0.1750
  263SOL     OW 1608   3.364   6.534   3.439 -0.0430 -0.5009  0.2652
  263SOL    HW1 1609   3.337   6.569   3.349  1.9712 -1.3710 -0.7514
  263SOL    HW2 1610   3.370   6.434   3.435  1.4047 -0.4633  0.9401
  264SOL     OW 1611   1.477   6.939   6.357 -0.1739  0.0028 -0.4026
  264SOL    HW1 1612   1.517   6.972   6.272 -0.6360  1.8288  0.0621
  264SOL    HW2 1613   1.377   6.937   6.349 -0.2439  0.6554  0.2677
  265SOL     OW 1614   3.927   5.933   3.013  0.2826  0.3304  0.4233
  265SOL    HW1 1615   3.867   6.013   3.009  0.0444  0.1678  0.6603
  265SOL    HW2 1616   4.022   5.962   2.999 -0.0830  0.2396 -3.0450
  266SOL     OW 1617   4.608   3.147   1.670 -0.5652 -0.8770  0.2896
  266SOL    HW1 1618   4.647   3.219   1.613  1.1118 -0.1140  2.2980
  266SOL    HW2 1619   4.521   3.179   1.709  0.4833  0.4071  1.6971
  267SOL     OW 1620   4.231   2.700   1.742  0.2875  0.5400  0.2231
  267SOL    HW1 1621   4.302   2.697   1.813  0.3922 -2.1449  0.0824
  267SOL    HW2 1622   4.150   2.650   1.773 -0.4514  1.0898 -0.7708
  268SOL     OW 1623   1.060   2.571   1.294  0.1777 -0.1084 -0.1168
  268SOL    HW1 1624   1.010   2.620   1.365  1.1689  0.9731 -0.1291
  268SOL    HW2 1625   1.102   2.489   1.333 -0.0939 -0.0572  0.2939
  269SOL     OW 1626   1.514   6.796   3.888 -0.4277 -0.5870  0.0560
  269SOL    HW1 1627   1.442   6.732   3.859 -0.6624 -0.9306  1.3619
  269SOL    HW2 1628   1.596   6.744   3.912  0.1312 -0.2237 -0.9762
  270SOL     OW 1629   3.468   4.564   5.437  0.5045  0.1710  0.3710
  270SOL    HW1 1630   3.378   4.602   5.456  0.0602 -0.2404 -0.8235
  270SOL    HW2 1631   3.463   4.464   5.436 -0.0339  0.0560 -3.7391
  271SOL     OW 1632   1.958   5.558   0.815 -0.0767  0.3752 -0.0331
  271SOL    HW1 1633   1.970   5.534   0.719 -0.3878  2.1865 -0.5582
  271SOL    HW2 1634   2.010   5.495   0.872  0.0779 -0.7567 -1.3793
  272SOL     OW 1635   0.779   3.682   1.453  0.0147 -0.6765 -0.5908
  272SOL    HW1 1636   0.849   3.610   1.445  0.1216 -0.5717 -0.6004
  272SOL    HW2 1637   0.744   3.684   1.547  0.7704 -0.0301 -0.3163
  273SOL     OW 1638   4.279   0.945   2.385  0.3459 -0.2612  0.2273
  273SOL    HW1 1639   4.181   0.942   2.368  0.1538  1.8173  0.7337
  273SOL    HW2 1640   4.299   0.908   2.475  0.1634 -1.4804 -0.2066
  274SOL     OW 1641   3.965   2.647   1.453  0.1509 -0.0755  0.5857
  274SOL    HW1 1642   4.028   2.696   1.393 -1.5877 -0.2601 -1.4876
  274SOL    HW2 1643   3.951   2.554   1.419 -1.8760  0.2200  0.4687
  275SOL     OW 1644   1.553   5.130   6.080  0.9753 -0.3574 -0.6692
  275SOL    HW1 1645   1.466   5.088   6.052 -0.6916  0.8958  2.1688
  275SOL    HW2 1646   1.612   5.061   6.121  0.1496 -0.7783 -0.1543
  276SOL     OW 1647   4.416   4.115   5.819 -0.2606  0.4276  0.3436
  276SOL    HW1 1648   4.383   4.128   5.725  0.0218  0.1236  0.1997
  276SOL    HW2 1649   4.341   4.083   5.876 -0.6795  1.5398  0.4418
  277SOL     OW 1650   2.789   6.171   3.504 -0.0112 -0.0707 -0.5065
  277SOL    HW1 1651   2.846   6.241   3.460 -0.2137  0.0311 -0.6065
  277SOL    HW2 1652   2.780   6.193   3.601  0.5216 -0.3514 -0.3936
  278SOL     OW 1653   3.859   2.805   6.639 -0.3963  0.2272  0.0830
  278SOL    HW1 1654   3.873   2.895   6.598  0.3972  0.4565  0.8260
  278SOL    HW2 1655   3.774   2.766   6.604 -1.6963  2.0177  1.0701
  279SOL     OW 1656   0.000   3.423   5.822 -0.0419 -0.3429  0.1548
  279SOL    HW1 1657   0.007   3.392   5.728 -1.1919  1.3210 -0.5232
  279SOL    HW2 1658   0.057   3.504   5.835  1.8189 -1.7689  1.5200
  280SOL     OW 1659   2.689   3.300   2.816 -0.0801 -0.4243  0.1431
  280SOL    HW1 1660   2.711   3.203   2.809  2.1147  0.0324  0.1292
  280SOL    HW2 1661   2.753   3.345   2.878 -0.9501  1.0743  0.0165
  281SOL     OW 1662   0.769   4.395   6.453 -0.4476 -0.2965  0.2958
  281SOL    HW1 1663   0.799   4.359   6.364 -1.6964 -0.7997  0.0513
  281SOL    HW2 1664   0.670   4.410   6.451 -0.2042  1.5580  0.9791
  282SOL     OW 1665   3.935   0.611   2.925  0.6337  0.7290 -1.3312
  282SOL    HW1 1666   3.967   0.632   3.017 -1.7962 -2.0238  0.2955
  282SOL    HW2 1667   3.885   0.690   2.888  1.3866  1.7720 -0.1836
  283SOL     OW 1668   2.524   1.962   2.501  0.1543  0.0221 -0.1188
  283SOL    HW1 1669   2.515   1.973   2.600  1.0797 -2.1064  0.2633
  283SOL    HW2 1670   2.533   2.052   2.458  0.9799  0.9532  1.8637
  284SOL     OW 1671   5.684   5.368   5.216 -0.4309  0.1576  0.4419
  284SOL    HW1 1672   5.704   5.463   5.239  1.8468  0.0671 -0.8287
  284SOL    HW2 1673   5.719   5.308   5.288 -2.2212  0.2537  1.4398
  285SOL     OW 1674   6.434   2.702   6.763 -0.5772 -0.0877 -0.5035
  285SOL    HW1 1675   6.411   2.772   6.695 -1.1062 -0.2665 -0.5116
  285SOL    HW2 1676   6.491   2.632   6.721  1.2482  1.1005 -0.1246
  286SOL     OW 1677   5.320   3.701   0.291 -0.4031  0.2120 -0.5775
  286SOL    HW1 1678   5.287   3.756   0.367  1.7510 -1.1913  1.5494
  286SOL    HW2 1679   5.257   3.626   0.273  0.1807 -0.8344  1.5192
  287SOL     OW 1680   2.898   2.524   1.725  0.0550 -0.3179  0.1699
  287SOL    HW1 1681   2.927   2.532   1.629 -0.1541 -0.3956  0.0986
  287SOL    HW2 1682   2.966   2.471   1.775  0.6422  0.5074  0.2785
  288SOL     OW 1683   3.242   3.685   1.137 -0.4794  0.0379 -0.3017
  288SOL    HW1 1684   3.242   3.675   1.038 -0.6955  0.2647 -0.3259
  288SOL    HW2 1685   3.325   3.644   1.175  0.0813  0.8255 -0.6653
  289SOL     OW 1686   4.488   4.511   3.826 -0.4503 -0.1644 -0.1112
  289SOL    HW1 1687   4.392   4.489   3.813 -0.0975 -1.9363 -0.0667
  289SOL    HW2 1688   4.509   4.518   3.924 -1.0995  3.3621 -0.0740
  290SOL     OW 1689   6.546   2.228   4.487  0.5225  0.2655  0.1502
  290SOL    HW1 1690   6.642   2.220   4.510  0.3334  0.0657  0.9303
  290SOL    HW2 1691   6.505   2.136   4.483  0.6261  0.2428 -1.4393
  291SOL     OW 1692   5.599   4.442   3.616 -0.4217 -0.3888  0.1532
  291SOL    HW1 1693   5.691   4.436   3.579 -0.4966 -0.6887  0.0142
  291SOL    HW2 1694   5.538   4.484   3.548 -0.4097 -0.2846  0.2060
  292SOL     OW 1695   5.971   1.668   3.764 -0.4250  0.4070 -0.5732
  292SOL    HW1 1696   5.925   1.731   3.826 -1.6112 -1.0825  0.1244
  292SOL    HW2 1697   6.009   1.591   3.816  1.3241  0.6852 -1.3516
  293SOL     OW 1698   4.718   2.633   1.279 -0.1331  0.4820  0.2138
  293SOL    HW1 1699   4.778   2.583   1.216  1.0391 -0.2320  1.8161
  293SOL    HW2 1700   4.682   2.569   1.347 -0.1452  1.4743  1.1657
  294SOL     OW 1701   5.382   4.964   5.544  0.2458 -0.1116  0.1770
  294SOL    HW1 1702   5.428   4.875   5.548  2.0631  0.7544 -0.7373
  294SOL    HW2 1703   5.375   4.994   5.449  1.5087  1.6310  0.6056
  295SOL     OW 1704   2.265   4.427   3.097  0.6215 -0.2282  0.2577
  295SOL    HW1 1705   2.306   4.409   3.007  0.9185  0.4438  0.2446
  295SOL    HW2 1706   2.336   4.425   3.167  1.0428  2.6496  0.0255
  296SOL     OW 1707   5.273   1.495   5.602 -0.2422  0.4003  0.7752
  296SOL    HW1 1708   5.323   1.470   5.519 -0.6156 -1.9755  1.1902
  296SOL    HW2 1709   5.224   1.580   5.587  1.4371  1.2072 -0.6683
  297SOL     OW 1710   5.223   3.346   0.875 -0.3902  0.8145  0.4903
  297SOL    HW1 1711   5.190   3.438   0.898  0.0061  0.8186  1.0427
  297SOL    HW2 1712   5.155   3.300   0.818 -0.2108  1.7638 -0.4999
  298SOL     OW 1713   6.368   0.867   6.480 -0.4358 -0.0580  0.5578
  298SOL    HW1 1714   6.368   0.939   6.550  1.3802 -1.1951  1.8058
  298SOL    HW2 1715   6.458   0.863   6.437 -0.4552 -1.6385  0.6094
  299SOL     OW 1716   1.316   2.806   2.983  0.1848 -0.2970 -0.1817
  299SOL    HW1 1717   1.334   2.879   2.917  2.2075  1.9810  2.6351
  299SOL    HW2 1718   1.246   2.836   3.048  0.2655 -1.3072  0.4020
  300SOL     OW 1719   1.040   3.123   3.400  0.1723 -0.3062  0.0810
  300SOL    HW1 1720   0.973   3.094   3.332 -1.4453 -0.6795  1.7611
  300SOL    HW2 1721   1.061   3.220   3.387 -0.5669 -0.2314 -0.5838
  301SOL     OW 1722   2.159   0.501   1.706 -0.4042 -0.3618  0.2189
  301SOL    HW1 1723   2.124   0.571   1.768  2.3710  0.7773  0.6337
  301SOL    HW2 1724   2.172   0.416   1.756  0.5816  0.1791  0.9150
  302SOL     OW 1725   1.320   4.516   1.644 -0.1043 -0.3338  0.0250
  302SOL    HW1 1726   1.387   4.552   1.579 -0.8375  0.2983 -0.4164
  302SOL    HW2 1727   1.344   4.544   1.736 -0.6213  1.2851 -0.3054
  303SOL     OW 1728   4.949   5.629   0.397  0.0981  0.2392 -0.6529
  303SOL    HW1 1729   4.883   5.660   0.329  0.2189  1.7426 -0.1301
  303SOL    HW2 1730   5.005   5.707   0.427  0.7427 -0.5970  0.3928
  304SOL     OW 1731   1.735   2.596   1.423  0.1135  0.1454  0.4206
  304SOL    HW1 1732   1.672   2.672   1.409  1.0710  0.8203 -0.4428
  304SOL    HW2 1733   1.685   2.510   1.421 -0.9095  0.7166  0.8202
  305SOL     OW 1734   0.021   4.420   3.644 -0.2883 -0.6180  0.1086
  305SOL    HW1 1735   0.023   4.518   3.624 -0.9437 -0.2004  1.9178
  305SOL    HW2 1736   0.019   4.369   3.558 -2.2803  1.0086 -0.8875
  306SOL     OW 1737   4.926   5.825   5.868  0.0851 -0.0547  0.0570
  306SOL    HW1 1738   4.837   5.853   5.902 -0.0896 -0.3383 -0.1621
  306SOL    HW2 1739   4.917   5.792   5.774  0.5524  0.6733 -0.2526
  307SOL     OW 1740   1.172   5.517   6.904 -0.7555  0.3406 -0.1868
  307SOL    HW1 1741   1.086   5.471   6.883 -0.7685 -0.1120  0.7882
  307SOL    HW2 1742   1.156   5.594   6.966 -0.2339 -1.3978  2.2980
  308SOL     OW 1743   3.515   3.502   0.647 -0.3022  0.3092 -0.0735
  308SOL    HW1 1744   3.600   3.520   0.696 -0.8414  1.4003  0.4980
  308SOL    HW2 1745   3.440   3.550   0.691 -1.3553 -1.1560 -0.1866
  309SOL     OW 1746   0.780   2.249   2.643  0.1847 -0.9269 -0.2911
  309SOL    HW1 1747   0.875   2.235   2.617  0.4561  1.1062 -0.6049
  309SOL    HW2 1748   0.757   2.346   2.634 -1.9180 -1.3637 -0.1902
  310SOL     OW 1749   5.170   5.464   1.244  0.1576 -0.2385  0.6970
  310SOL    HW1 1750   5.108   5.536   1.212  1.2371 -1.0372 -3.8062
  310SOL    HW2 1751   5.250   5.505   1.286 -0.8362  0.9921  1.4658
  311SOL     OW 1752   4.254   1.128   1.495  0.2578  0.0653 -0.2574
  311SOL    HW1 1753   4.186   1.164   1.431 -2.2814 -1.3398  1.4871
  311SOL    HW2 1754   4.267   1.193   1.570 -1.1899 -0.7270  0.7346
  312SOL     OW 1755   2.325   5.824   0.741  0.6982 -0.0275  0.5005
  312SOL    HW1 1756   2.305   5.792   0.834 -0.0683  2.4575  1.2510
  312SOL    HW2 1757   2.327   5.924   0.739 -1.1504  0.0696 -2.5348
  313SOL     OW 1758   4.830   5.605   5.708 -0.6570 -0.6626 -0.0374
  313SOL    HW1 1759   4.874   5.537   5.767 -0.4950 -0.0862  0.5046
  313SOL    HW2 1760   4.858   5.589   5.613  0.1743 -0.7438  0.2103
  314SOL     OW 1761   4.426   0.661   5.125  0.6988  0.5424 -0.2282
  314SOL    HW1 1762   4.464   0.606   5.199  0.3107  2.2878  1.3453
  314SOL    HW2 1763   4.410   0.754   5.158 -0.5908  1.0628 -2.1895
  315SOL     OW 1764   4.623   0.707   4.233 -0.4257 -0.1325  0.2110
  315SOL    HW1 1765   4.652   0.648   4.308  0.7885 -2.1078 -1.6794
  315SOL    HW2 1766   4.704   0.751   4.193 -0.6931 -1.0249 -1.4097
  316SOL     OW 1767   6.134   0.071   1.189  0.0235  0.0522 -0.0699
  316SOL    HW1 1768   6.219   0.022   1.210 -0.9931 -2.0245 -0.5241
  316SOL    HW2 1769   6.063   0.043   1.253 -0.1713  2.4615  0.8867
  317SOL     OW 1770   1.999   1.073   6.185  0.3443  0.0914 -0.1232
  317SOL    HW1 1771   1.939   1.056   6.107  1.9577  0.0249 -1.3987
  317SOL    HW2 1772   1.944   1.080   6.268 -1.2231 -3.1935 -0.7003
  318SOL     OW 1773   5.851   2.134   1.585 -0.2881  0.2974 -0.0852
  318SOL    HW1 1774   5.896   2.045   1.594 -0.1062  0.4315  0.3551
  318SOL    HW2 1775   5.802   2.138   1.498 -1.9769 -0.9837  0.7518
  319SOL     OW 1776   6.367   6.203   2.719  0.0111  0.0415  0.4859
  319SOL    HW1 1777   6.439   6.159   2.666 -1.1441 -0.6796 -0.5547
  319SOL    HW2 1778   6.380   6.183   2.816  0.5713 -1.0394  0.2066
  320SOL     OW 1779   6.043   4.812   6.202 -0.1237  0.2450  0.3943
  320SOL    HW1 1780   6.088   4.895   6.169 -2.9195  1.8368  0.2968
  320SOL    HW2 1781   6.059   4.804   6.301  1.5173 -0.0495  0.1337
  321SOL     OW 1782   0.130   6.052   2.784 -0.3339  0.3805  0.1131
  321SOL    HW1 1783   0.142   6.077   2.688 -2.7141 -1.2244 -0.6678
  321SOL    HW2 1784   0.205   5.992   2.813  0.2166  0.5997 -0.8275
  322SOL     OW 1785   6.467   5.947   1.322 -0.5688  0.0085  0.0389
  322SOL    HW1 1786   6.465   5.909   1.230 -0.3969  0.9150 -0.3519
  322SOL    HW2 1787   6.389   5.913   1.374 -0.3671 -0.9450 -0.2571
  323SOL     OW 1788   3.553   6.327   0.072 -0.1282 -0.6827 -0.7108
  323SOL    HW1 1789   3.474   6.357   0.019  0.5694  1.3358 -0.6971
  323SOL    HW2 1790   3.529   6.329   0.170 -0.0718 -0.0254 -0.7028
  324SOL     OW 1791   5.992   6.977   4.093 -0.6452  0.1887 -0.1109
  324SOL    HW1 1792   5.967   6.946   4.001  0.9054 -2.1995  0.1848
  324SOL    HW2 1793   5.952   6.915   4.161  1.2095 -0.2609  0.6160
  325SOL     OW 1794   3.688   5.334   3.627  0.4476  0.0799  0.2113
  325SOL    HW1 1795   3.753   5.258   3.633  1.8824  1.2140 -0.2341
  325SOL    HW2 1796   3.706   5.399   3.701 -0.4245  0.2468  0.2878
  326SOL     OW 1797   6.706   2.790   0.744 -0.0545  0.5306 -0.3643
  326SOL    HW1 1798   6.660   2.852   0.680 -0.1706 -0.3526 -1.1589
  326SOL    HW2 1799   6.802   2.780   0.717 -0.3582 -0.6721 -1.0594
  327SOL     OW 1800   2.841   6.453   4.534  0.6963 -0.2035 -0.1220
  327SOL    HW1 1801   2.746   6.460   4.565  0.2371  1.0317 -1.6778
  327SOL    HW2 1802   2.872   6.359   4.547 -0.5413 -0.5083  0.9242
  328SOL     OW 1803   3.781   6.648   2.568  0.3243 -0.4844  0.0674
  328SOL    HW1 1804   3.870   6.645   2.523 -0.0369  0.9999 -0.8463
  328SOL    HW2 1805   3.722   6.715   2.522 -0.5600  0.1001  1.9141
  329SOL     OW 1806   0.350   0.363   3.616  0.0855 -0.5363  0.2467
  329SOL    HW1 1807   0.278   0.433   3.618 -0.5929 -1.1874 -0.6611
  329SOL    HW2 1808   0.391   0.355   3.707  0.9053  1.7745  0.1570
  330SOL     OW 1809   3.709   1.449   6.016  0.6923  0.0069  0.0579
  330SOL    HW1 1810   3.665   1.483   6.098  0.4694  0.1660 -0.1275
  330SOL    HW2 1811   3.648   1.460   5.938  1.4164  1.0796 -0.3666
  331SOL     OW 1812   1.151   4.110   5.677 -0.0959 -0.1825 -0.4038
  331SOL    HW1 1813   1.251   4.099   5.671  0.3330  1.1225  2.5047
  331SOL    HW2 1814   1.119   4.071   5.763 -1.8488  0.9563 -0.4918
  332SOL     OW 1815   3.568   0.996   4.725 -0.0090 -0.5283  0.1706
  332SOL    HW1 1816   3.629   0.993   4.646 -0.7112  0.0906 -0.4091
  332SOL    HW2 1817   3.587   1.078   4.779  1.0396 -1.3656  1.1367
  333SOL     OW 1818   1.169   0.601   6.262  0.1898  0.0052  0.2897
  333SOL    HW1 1819   1.220   0.579   6.345  2.2547  0.7125 -0.7143
  333SOL    HW2 1820   1.104   0.675   6.282  2.1720  1.7017  0.8631
  334SOL     OW 1821   6.870   4.363   4.714 -0.3195  0.2743 -0.1603
  334SOL    HW1 1822   6.787   4.395   4.760 -1.1716 -1.1267 -0.6593
  334SOL    HW2 1823   6.915   4.293   4.769 -0.6828 -0.5412 -0.8687
  335SOL     OW 1824   0.359   1.283   5.052 -0.9905  0.2521 -0.8138
  335SOL    HW1 1825   0.342   1.328   4.965 -0.8987 -0.9957 -1.5117
  335SOL    HW2 1826   0.415   1.201   5.036  0.4441  0.9079  0.6344
  336SOL     OW 1827   0.131   6.132   2.209 -0.1802  0.3301  0.2155
  336SOL    HW1 1828   0.120   6.078   2.125  0.5949 -1.8790  1.4585
  336SOL    HW2 1829   0.149   6.227   2.184  0.2533 -0.2828 -2.1356
  337SOL     OW 1830   0.494   3.139   2.534  0.5168 -0.3667  0.4945
  337SOL    HW1 1831   0.575   3.154   2.591  0.7371  0.3455  0.0164
  337SOL    HW2 1832   0.507   3.058   2.476  1.3161  0.2989 -0.2902
  338SOL     OW 1833   2.354   5.526   5.289  0.3461 -0.6698  0.1201
  338SOL    HW1 1834   2.284   5.536   5.360  0.5550  0.3024  0.2019
  338SOL    HW2 1835   2.310   5.522   5.199  0.0820 -1.8705  0.2810
  339SOL     OW 1836   4.029   1.670   4.215  0.3325  0.1968  0.2146
  339SOL    HW1 1837   4.023   1.658   4.116 -2.6458 -0.0070  0.3258
  339SOL    HW2 1838   4.080   1.595   4.255 -0.2188 -0.8650 -1.0041
  340SOL     OW 1839   5.014   4.461   5.173  0.2777 -0.0797  0.5412
  340SOL    HW1 1840   4.987   4.547   5.129 -2.2205  0.9149  3.6723
  340SOL    HW2 1841   4.962   4.386   5.134 -0.1596  0.4065  0.1711
  341SOL     OW 1842   0.027   5.724   6.192  0.4235 -0.3485 -0.4198
  341SOL    HW1 1843   0.038   5.798   6.126 -0.7157 -1.0825 -1.4522
  341SOL    HW2 1844   0.041   5.636   6.147  0.6689 -0.8248  0.5521
  342SOL     OW 1845   6.471   4.010   2.810 -0.0714 -0.1824 -0.4369
  342SOL    HW1 1846   6.413   4.072   2.756  0.9376 -0.1487 -1.5157
  342SOL    HW2 1847   6.535   4.064   2.865 -0.0095 -0.2516 -0.4399
  343SOL     OW 1848   4.746   2.210   4.481 -0.5442  0.6701  0.1006
  343SOL    HW1 1849   4.728   2.113   4.494  0.4145  0.2267 -1.6737
  343SOL    HW2 1850   4.723   2.236   4.387  0.6941  1.7954  0.0826
  344SOL     OW 1851   4.139   0.847   1.333  0.3919  0.6293  0.7981
  344SOL    HW1 1852   4.154   0.838   1.431 -0.6793 -0.9439  0.8542
  344SOL    HW2 1853   4.186   0.929   1.299  3.4220 -0.4463  2.0547
  345SOL     OW 1854   5.796   4.100   5.046  0.2114  0.1243  0.5227
  345SOL    HW1 1855   5.830   4.192   5.065  0.4054  0.3762 -0.9233
  345SOL    HW2 1856   5.707   4.106   4.999  0.8299 -0.3688 -0.7486
  346SOL     OW 1857   5.476   1.022   5.425  0.5698 -0.0268 -0.2833
  346SOL    HW1 1858   5.499   1.077   5.505 -0.8138  0.7184 -0.3649
  346SOL    HW2 1859   5.560   0.990   5.382  1.4895  2.4070 -0.5008
  347SOL     OW 1860   6.790   5.055   5.648  0.1196 -0.4709 -0.2487
  347SOL    HW1 1861   6.845   4.994   5.591  0.4100 -0.5997  0.1695
  347SOL    HW2 1862   6.818   5.150   5.630  0.8468 -0.5665  0.3436
  348SOL     OW 1863   5.542   6.907   3.910 -0.5308 -0.0501 -0.0269
  348SOL    HW1 1864   5.481   6.986   3.900  1.4098  1.8566  1.9309
  348SOL    HW2 1865   5.552   6.885   4.007 -0.8064 -2.6072 -0.5144
  349SOL     OW 1866   3.420   3.974   3.972  0.1525 -0.1488 -0.0733
  349SOL    HW1 1867   3.338   3.966   4.029 -0.8139  0.2736 -1.3825
  349SOL    HW2 1868   3.458   4.066   3.982 -1.2825  0.6773 -1.7405
  350SOL     OW 1869   5.900   5.758   6.741  0.2719 -0.1162  0.3711
  350SOL    HW1 1870   5.815   5.793   6.702  1.3804  0.9980 -1.1983
  350SOL    HW2 1871   5.914   5.664   6.710  0.9688  0.6357 -1.8154
  351SOL     OW 1872   3.077   2.145   1.698  0.4823  0.4061 -0.3043
  351SOL    HW1 1873   3.066   2.168   1.602  0.6295 -0.0520 -0.4374
  351SOL    HW2 1874   2.991   2.112   1.735  0.4116  0.6331 -0.2652
  352SOL     OW 1875   2.967   2.298   3.321 -0.0950 -0.3267  0.2870
  352SOL    HW1 1876   2.995   2.336   3.410 -2.8903  1.1151  0.6858
  352SOL    HW2 1877   3.009   2.351   3.248  0.7749 -0.3340  0.7642
  353SOL     OW 1878   2.862   4.901   3.453  0.2877  0.7619 -0.9690
  353SOL    HW1 1879   2.864   4.809   3.493 -0.3051  0.4351 -1.6696
  353SOL    HW2 1880   2.771   4.919   3.416  0.9770  0.8335 -2.6642
  354SOL     OW 1881   3.459   6.901   6.344  0.2823  0.2949  0.5835
  354SOL    HW1 1882   3.557   6.904   6.325  0.1857  0.0221 -0.0133
  354SOL    HW2 1883   3.413   6.849   6.272 -0.3075  0.4535  0.8342
  355SOL     OW 1884   1.716   3.349   0.847 -0.4558 -0.1644  0.2588
  355SOL    HW1 1885   1.760   3.391   0.927  0.2010 -1.8946  0.8582
  355SOL    HW2 1886   1.618   3.341   0.865 -0.1025 -2.0244  1.6360
  356SOL     OW 1887   3.849   2.970   4.688 -0.3384 -0.3289 -0.0885
  356SOL    HW1 1888   3.859   3.064   4.656  1.1644  0.3070  2.0470
  356SOL    HW2 1889   3.921   2.949   4.755 -1.9444 -2.2555  1.1785
  357SOL     OW 1890   3.408   1.854   0.623 -0.2092 -0.2094 -0.0940
  357SOL    HW1 1891   3.379   1.823   0.533 -0.9234  0.8847 -0.2567
  357SOL    HW2 1892   3.431   1.951   0.619 -0.4518 -0.0951  0.9337
  358SOL     OW 1893   5.872   1.420   5.091 -0.0056  0.3456  0.4505
  358SOL    HW1 1894   5.921   1.333   5.099 -2.3137 -0.9019  2.1681
  358SOL    HW2 1895   5.786   1.414   5.142 -0.3169  3.6178  0.4665
  359SOL     OW 1896   0.941   1.151   1.258 -0.5875  0.0046  0.2774
  359SOL    HW1 1897   0.880   1.072   1.250 -1.5143  0.7496 -0.2520
  359SOL    HW2 1898   0.942   1.184   1.352 -1.5624  0.4102  0.1571
  360SOL     OW 1899   4.164   0.729   0.547  0.3305  0.0071  0.6059
  360SOL    HW1 1900   4.074   0.709   0.585 -0.0756  0.4721 -0.0686
  360SOL    HW2 1901   4.228   0.654   0.568 -0.2904 -0.4587  0.8522
  361SOL     OW 1902   6.964   4.434   4.162 -0.0353 -0.0052  0.4094
  361SOL    HW1 1903   6.974   4.517   4.217  0.8673 -0.4687  0.9843
  361SOL    HW2 1904   7.055   4.402   4.134 -0.4431 -0.4435 -0.3425
  362SOL     OW 1905   0.062   4.344   6.608  0.3410  0.6106 -0.3892
  362SOL    HW1 1906   0.048   4.441   6.585  1.8929  0.5912 -1.5657
  362SOL    HW2 1907   0.056   4.289   6.525 -2.5074 -0.6107  0.5158
  363SOL     OW 1908   5.000   2.420   1.549 -0.2461 -0.6743  0.2038
  363SOL    HW1 1909   5.086   2.446   1.592  0.2613  0.4925 -1.4395
  363SOL    HW2 1910   5.015   2.339   1.491  0.0071  0.1407 -0.8926
  364SOL     OW 1911   5.562   5.110   2.799  0.4122  0.0542  0.3964
  364SOL    HW1 1912   5.509   5.086   2.881 -0.5956 -1.0388 -0.5447
  364SOL    HW2 1913   5.639   5.048   2.789 -1.0650 -1.6756 -0.9585
  365SOL     OW 1914   1.549   5.395   1.008 -0.2115  0.0379  0.1761
  365SOL    HW1 1915   1.467   5.414   0.954  1.2577  1.7916 -1.5865
  365SOL    HW2 1916   1.571   5.297   1.001 -1.3853 -0.1945 -0.4612
  366SOL     OW 1917   5.670   6.421   5.280 -0.8441  0.0393  0.0390
  366SOL    HW1 1918   5.752   6.468   5.248 -1.9343  0.7988 -1.7833
  366SOL    HW2 1919   5.681   6.396   5.377  1.0790  1.0588  0.1261
  367SOL     OW 1920   2.537   0.072   4.043  0.2710  0.1187  0.4760
  367SOL    HW1 1921   2.511   0.160   4.004 -0.0411  0.0150  0.4473
  367SOL    HW2 1922   2.637   0.063   4.040  0.3292  0.6129  0.7881
  368SOL     OW 1923   6.738   3.611   0.104  0.5931 -0.1837 -0.4570
  368SOL    HW1 1924   6.739   3.628   0.203 -0.5949  0.7112 -0.5698
  368SOL    HW2 1925   6.804   3.540   0.082  2.2554  0.9108  0.7391
  369SOL     OW 1926   4.777   0.510   6.227 -0.2581  0.2545 -0.5128
  369SOL    HW1 1927   4.796   0.570   6.149 -1.8952  2.7233  0.8813
  369SOL    HW2 1928   4.813   0.552   6.310  0.1638 -1.6370  0.3055
  370SOL     OW 1929   1.543   1.223   1.025  0.6673  0.0637  0.5014
  370SOL    HW1 1930   1.469   1.156   1.022  0.8464 -0.0889 -1.1465
  370SOL    HW2 1931   1.532   1.280   1.107 -0.2110 -1.1316  1.2568
  371SOL     OW 1932   5.681   6.431   4.436 -0.5386 -0.0352  0.5413
  371SOL    HW1 1933   5.611   6.453   4.369 -0.2135  1.7089  0.7142
  371SOL    HW2 1934   5.767   6.411   4.388 -0.4196  0.7731  0.3823
  372SOL     OW 1935   2.604   0.500   1.290 -0.5153 -0.2431 -0.5940
  372SOL    HW1 1936   2.671   0.429   1.270 -0.6703 -0.6716  0.3312
  372SOL    HW2 1937   2.580   0.497   1.388  1.3455  2.6892  0.0769
  373SOL     OW 1938   5.215   1.678   3.095  0.1907 -0.8025 -0.6113
  373SOL    HW1 1939   5.195   1.599   3.153 -0.4272 -1.0295 -1.1134
  373SOL    HW2 1940   5.307   1.668   3.056  1.7206  0.6245  2.3210
  374SOL     OW 1941   5.423   3.577   3.963 -0.2763 -0.3308  0.4188
  374SOL    HW1 1942   5.433   3.654   3.900 -0.4729 -0.9494 -0.3928
  374SOL    HW2 1943   5.460   3.494   3.921 -0.4172 -0.7583  1.1189
  375SOL     OW 1944   2.965   3.550   6.944  0.2600 -0.0635 -0.9475
  375SOL    HW1 1945   2.898   3.497   6.892  0.9912 -1.1922 -0.7842
  375SOL    HW2 1946   2.917   3.609   7.009 -0.6283  0.5432 -2.1059
  376SOL     OW 1947   5.753   5.522   5.626  0.2410  0.3983  0.0222
  376SOL    HW1 1948   5.726   5.609   5.668  1.4330  1.3174 -1.0312
  376SOL    HW2 1949   5.824   5.479   5.682  2.0756  1.7813 -1.1069
  377SOL     OW 1950   2.285   0.268   5.813 -0.0423 -0.3538 -0.3934
  377SOL    HW1 1951   2.277   0.292   5.717 -0.9406  0.0806 -0.2217
  377SOL    HW2 1952   2.350   0.192   5.824 -2.5249 -2.8184 -1.7299
  378SOL     OW 1953   2.439   4.431   5.710  0.3361 -0.9376 -0.0042
  378SOL    HW1 1954   2.376   4.360   5.741  2.2084 -2.9343 -0.4832
  378SOL    HW2 1955   2.483   4.474   5.789 -1.1569  0.0857  0.3078
  379SOL     OW 1956   1.964   0.402   2.657 -0.2890 -0.1952  0.5202
  379SOL    HW1 1957   1.886   0.455   2.623 -0.6480 -0.5386  0.7926
  379SOL    HW2 1958   2.011   0.453   2.728 -0.7790 -0.3368  0.9551
  380SOL     OW 1959   2.195   2.793   3.095 -0.4441  0.1794 -0.4018
  380SOL    HW1 1960   2.171   2.698   3.075 -0.9071  0.5160 -1.5450
  380SOL    HW2 1961   2.119   2.853   3.071 -0.5352  0.7871  1.2135
  381SOL     OW 1962   3.611   6.031   1.905  0.0133  0.0492  0.4003
  381SOL    HW1 1963   3.570   5.951   1.948  0.2347  0.3432  1.1731
  381SOL    HW2 1964   3.700   6.007   1.866  0.3042  0.0211  1.0594
  382SOL     OW 1965   2.094   2.748   5.531  0.6350 -0.3788  0.1748
  382SOL    HW1 1966   2.035   2.743   5.611  1.7766  0.6216  1.1285
  382SOL    HW2 1967   2.055   2.695   5.456 -0.5879 -1.1206  1.3131
  383SOL     OW 1968   5.250   1.410   4.830  0.3252  0.2170 -0.5846
  383SOL    HW1 1969   5.180   1.350   4.792  0.1576 -0.5055  0.7821
  383SOL    HW2 1970   5.330   1.411   4.770 -0.2706 -0.1478 -1.3933
  384SOL     OW 1971   6.132   4.784   2.045 -0.5098  0.3196 -0.5156
  384SOL    HW1 1972   6.055   4.734   2.084  0.6020 -1.1775 -0.2065
  384SOL    HW2 1973   6.130   4.879   2.079 -1.3292 -0.1221  0.7193
  385SOL     OW 1974   2.832   6.672   2.815  0.8645 -0.3104 -0.8953
  385SOL    HW1 1975   2.928   6.656   2.838  1.3485  0.0277 -2.5395
  385SOL    HW2 1976   2.811   6.769   2.825  0.1245 -0.6536  1.3446
  386SOL     OW 1977   0.437   4.408   0.683 -0.7886 -0.4773  0.2261
  386SOL    HW1 1978   0.480   4.499   0.688 -0.1238 -0.7673 -0.1279
  386SOL    HW2 1979   0.428   4.371   0.775 -1.5476  0.1687  0.4229
  387SOL     OW 1980   2.159   1.186   2.723 -0.2007 -0.0646  0.3732
  387SOL    HW1 1981   2.084   1.216   2.665  0.3769  2.1329  0.6647
  387SOL    HW2 1982   2.158   1.237   2.809  1.1098 -0.6087  0.7440
  388SOL     OW 1983   3.796   6.130   5.428  0.2143 -0.3470 -0.5375
  388SOL    HW1 1984   3.732   6.142   5.352 -1.0515 -0.6664  0.4593
  388SOL    HW2 1985   3.755   6.162   5.513  1.2915 -0.7593  0.1627
  389SOL     OW 1986   6.503   1.763   3.511  0.2604 -0.1594  0.1758
  389SOL    HW1 1987   6.491   1.754   3.610 -0.3330  0.3344  0.1633
  389SOL    HW2 1988   6.426   1.816   3.474  2.1162  2.5825 -0.0666
  390SOL     OW 1989   5.760   2.624   5.057 -0.4845 -0.3659  0.5622
  390SOL    HW1 1990   5.816   2.706   5.051  1.2200 -1.5343 -0.4467
  390SOL    HW2 1991   5.667   2.644   5.025  0.2433  0.8603 -0.9230
  391SOL     OW 1992   4.858   4.965   0.134  0.1307 -0.2544  0.2350
  391SOL    HW1 1993   4.839   4.926   0.043 -0.5683 -0.4371  0.4524
  391SOL    HW2 1994   4.789   4.933   0.199  1.7056 -1.6552  1.2852
  392SOL     OW 1995   3.615   1.134   0.286  0.0948  0.0241 -0.3090
  392SOL    HW1 1996   3.603   1.037   0.263 -0.5820 -0.2091  0.9103
  392SOL    HW2 1997   3.712   1.152   0.303  0.2349 -0.4218 -0.6119
  393SOL     OW 1998   5.459   2.235   3.205 -0.2121  0.0749 -0.3688
  393SOL    HW1 1999   5.378   2.202   3.253 -1.5213  3.1523 -0.1994
  393SOL    HW2 2000   5.520   2.282   3.270  0.0552  0.6357 -1.0068
  394SOL     OW 2001   3.551   1.770   3.127 -0.2512  0.0829 -1.0376
  394SOL    HW1 2002   3.557   1.798   3.222  0.6007 -0.3771 -0.9475
  394SOL    HW2 2003   3.587   1.677   3.117 -0.3374  0.1253 -1.8104
  395SOL     OW 2004   6.574   0.727   1.779 -0.2415  0.4668  0.5728
  395SOL    HW1 2005   6.669   0.728   1.750 -0.2664  0.9035  0.5021
  395SOL    HW2 2006   6.532   0.640   1.754 -0.2775  0.8435 -0.7554
  396SOL     OW 2007   4.326   6.966   1.243 -0.0379 -0.0497  0.0602
  396SOL    HW1 2008   4.377   6.950   1.158 -0.0166  2.4127 -0.4911
  396SOL    HW2 2009   4.231   6.940   1.231  0.2075 -0.7979 -0.3173
  397SOL     OW 2010   6.458   3.845   0.318  0.1028 -1.3512 -0.0341
  397SOL    HW1 2011   6.558   3.839   0.308  0.0987 -2.1278  0.3761
  397SOL    HW2 2012   6.436   3.916   0.386  0.3500 -0.8351 -0.4805
  398SOL     OW 2013   2.843   1.356   0.477 -0.0493  0.0582 -0.7236
  398SOL    HW1 2014   2.790   1.313   0.551 -1.1454  0.1925 -1.3979
  398SOL    HW2 2015   2.935   1.375   0.509 -0.7034  0.8052  0.8720
  399SOL     OW 2016   6.972   0.268   1.418 -0.4363 -0.2123 -0.1246
  399SOL    HW1 2017   7.045   0.238   1.357 -0.5611  1.0536 -0.9009
  399SOL    HW2 2018   6.883   0.243   1.379 -0.4569 -1.4797  0.6697
  400SOL     OW 2019   0.074   2.435   1.036 -0.3074 -0.4291 -0.1294
  400SOL    HW1 2020   0.026   2.394   1.114  0.6888 -1.4783 -0.0386
  400SOL    HW2 2021   0.032   2.523   1.013 -1.5416 -0.7934  0.6496
  401SOL     OW 2022   4.897   0.988   2.134 -0.7036  0.0595 -0.3901
  401SOL    HW1 2023   4.989   1.023   2.119 -0.4624  0.0717  0.9491
  401SOL    HW2 2024   4.900   0.888   2.140 -0.7708  0.0636 -0.2855
  402SOL     OW 2025   4.000   6.617   6.606  0.0041 -0.4015 -0.0056
  402SOL    HW1 2026   4.068   6.645   6.674  0.0671  1.2734 -0.7272
  402SOL    HW2 2027   3.985   6.518   6.614  1.3344 -0.5460  1.2206
  403SOL     OW 2028   3.627   6.192   1.088 -0.0579 -0.2843 -0.7736
  403SOL    HW1 2029   3.662   6.117   1.031  1.8583 -0.1885  0.1838
  403SOL    HW2 2030   3.672   6.190   1.177 -1.3838  0.8870 -0.0299
  404SOL     OW 2031   1.092   4.536   5.194  0.2786 -0.5974  0.1378
  404SOL    HW1 2032   1.040   4.454   5.170  1.1204 -1.3050  0.6998
  404SOL    HW2 2033   1.151   4.517   5.272  2.1727 -0.1171 -1.1288
  405SOL     OW 2034   0.334   4.466   4.641  0.4499  0.1944  0.2924
  405SOL    HW1 2035   0.336   4.523   4.723  0.5536  1.4258 -0.5429
  405SOL    HW2 2036   0.415   4.484   4.586 -0.3415  0.4870 -0.8059
  406SOL     OW 2037   1.659   1.746   3.140  0.3117  0.1531 -0.4328
  406SOL    HW1 2038   1.592   1.809   3.178 -0.5010 -0.1607 -1.3163
  406SOL    HW2 2039   1.659   1.661   3.193 -1.4718 -0.6561 -1.5939
  407SOL     OW 2040   3.732   6.815   1.930 -0.1706  0.1001 -0.1451
  407SOL    HW1 2041   3.723   6.750   2.006  0.8464  0.8831  0.6760
  407SOL    HW2 2042   3.799   6.780   1.865 -0.1190  0.0207 -0.0513
  408SOL     OW 2043   6.063   3.996   1.334 -0.4984  0.5309 -0.1704
  408SOL    HW1 2044   6.132   4.056   1.293 -0.7334  0.4771 -0.6513
  408SOL    HW2 2045   5.973   4.022   1.300 -0.7981  1.0207  0.9500
  409SOL     OW 2046   6.393   6.589   6.077  0.3668 -0.0438 -0.1590
  409SOL    HW1 2047   6.303   6.560   6.110  0.9678 -1.1412  0.5859
  409SOL    HW2 2048   6.463   6.566   6.146  1.1131  1.6193 -0.3201
  410SOL     OW 2049   2.264   5.726   2.230  0.0618 -0.5021 -0.0018
  410SOL    HW1 2050   2.177   5.774   2.233  0.5492  0.4095 -0.1916
  410SOL    HW2 2051   2.337   5.789   2.203  0.8442 -1.1669  0.4899
  411SOL     OW 2052   5.307   0.428   1.634 -0.2552 -0.2339  0.5286
  411SOL    HW1 2053   5.211   0.454   1.640  0.0851  1.3510 -0.3718
  411SOL    HW2 2054   5.323   0.346   1.689 -2.0886 -0.4800  0.7507
  412SOL     OW 2055   0.540   2.243   1.862 -0.1161 -0.6156  0.2244
  412SOL    HW1 2056   0.575   2.258   1.769 -2.5623  0.6604 -0.6277
  412SOL    HW2 2057   0.495   2.327   1.893  1.0441 -0.8756  2.8070
  413SOL     OW 2058   5.308   5.487   5.317  0.0999  0.6167 -0.2218
  413SOL    HW1 2059   5.354   5.420   5.258 -2.3166 -1.0347 -0.3474
  413SOL    HW2 2060   5.366   5.506   5.396  1.1692 -1.1011 -0.5286
  414SOL     OW 2061   0.668   3.961   1.049  0.1341  0.3246 -0.5240
  414SOL    HW1 2062   0.679   3.874   1.001 -0.6312 -0.5284  0.7873
  414SOL    HW2 2063   0.572   3.988   1.046 -0.1147 -0.2391  1.3141
  415SOL     OW 2064   5.810   1.225   3.352  0.1296  0.1401 -0.1810
  415SOL    HW1 2065   5.812   1.130   3.384 -0.4265  0.5532  1.1292
  415SOL    HW2 2066   5.717   1.249   3.326  0.3505  0.2087 -0.9535
  416SOL     OW 2067   4.078   6.871   1.157  0.5430  0.3180 -0.3112
  416SOL    HW1 2068   3.980   6.853   1.147  0.4257  1.1313 -0.7607
  416SOL    HW2 2069   4.130   6.798   1.114  0.2044 -1.3510  1.9057
  417SOL     OW 2070   6.384   3.854   4.201 -0.1476 -0.0237  0.1924
  417SOL    HW1 2071   6.289   3.851   4.172 -0.5937  0.8776  1.4564
  417SOL    HW2 2072   6.444   3.850   4.121 -1.1737 -2.2639 -0.5305
  418SOL     OW 2073   4.787   5.033   0.986  0.6874  0.5688  0.2417
  418SOL    HW1 2074   4.866   5.045   0.926  1.2155 -0.4158  0.7161
  418SOL    HW2 2075   4.759   5.122   1.022  0.2106  1.2091 -1.6178
  419SOL     OW 2076   1.794   4.936   5.038 -0.3915 -0.4100  0.1947
  419SOL    HW1 2077   1.799   4.954   4.940 -0.4349  0.6782  0.3716
  419SOL    HW2 2078   1.855   4.999   5.086 -1.2946 -0.0856  0.9451
  420SOL     OW 2079   2.648   0.874   5.591 -0.4681  0.4354 -0.4074
  420SOL    HW1 2080   2.566   0.881   5.648  0.5075 -1.0075  1.2979
  420SOL    HW2 2081   2.693   0.963   5.585 -0.4640  0.5696  1.3323
  421SOL     OW 2082   4.563   3.895   1.326 -0.1432 -0.4831 -0.2450
  421SOL    HW1 2083   4.587   3.898   1.229  0.6367  1.5422 -0.0405
  421SOL    HW2 2084   4.623   3.830   1.373  1.7198  0.8919 -0.6026
  422SOL     OW 2085   2.465   6.588   6.851 -0.2256 -0.1929 -0.4556
  422SOL    HW1 2086   2.439   6.520   6.782 -1.8656 -0.9235  0.8026
  422SOL    HW2 2087   2.391   6.654   6.861  0.1407  0.1012  0.3627
  423SOL     OW 2088   5.127   2.100   3.932  0.1692 -0.3501 -0.3778
  423SOL    HW1 2089   5.056   2.134   3.994  0.1703 -1.8696  0.4969
  423SOL    HW2 2090   5.163   2.176   3.878 -2.2970  0.4584 -1.0357
  424SOL     OW 2091   5.665   4.131   2.865  0.2126 -1.0022  0.5035
  424SOL    HW1 2092   5.587   4.188   2.891  1.3277  0.4551  0.7770
  424SOL    HW2 2093   5.665   4.118   2.766  0.0638 -0.3304  0.4126
  425SOL     OW 2094   1.673   4.607   3.567 -0.1068 -0.1928  0.4294
  425SOL    HW1 2095   1.709   4.526   3.521  1.3486  0.1999  0.8367
  425SOL    HW2 2096   1.599   4.580   3.629  1.0432 -1.3679  1.3254
  426SOL     OW 2097   2.671   5.454   2.587 -0.0096  0.2749 -0.6187
  426SOL    HW1 2098   2.751   5.399   2.563  1.0563  1.8499 -0.8267
  426SOL    HW2 2099   2.589   5.397   2.583  1.0895 -1.4071 -0.3210
  427SOL     OW 2100   5.617   1.530   4.659 -1.1101  0.0960  0.0165
  427SOL    HW1 2101   5.669   1.489   4.585 -1.6250  1.1040 -0.9385
  427SOL    HW2 2102   5.679   1.566   4.728 -0.6386 -1.5465  0.5007
  428SOL     OW 2103   6.402   1.174   3.942 -0.2855  0.3591 -0.1887
  428SOL    HW1 2104   6.363   1.225   3.866  1.6278  0.7691 -0.9340
  428SOL    HW2 2105   6.466   1.105   3.908  0.4840  0.4372  1.0446
  429SOL     OW 2106   1.423   1.139   6.065  0.3365 -0.1724 -0.2008
  429SOL    HW1 2107   1.338   1.099   6.031  0.1825 -0.1241  0.1274
  429SOL    HW2 2108   1.405   1.229   6.104  0.6737  0.2273 -0.9403
  430SOL     OW 2109   0.199   5.834   4.466 -0.2670  0.1779 -0.2136
  430SOL    HW1 2110   0.157   5.894   4.534 -0.2609  0.7451 -0.6985
  430SOL    HW2 2111   0.256   5.765   4.512  0.9997  1.5216  0.3032
  431SOL     OW 2112   4.983   1.675   4.634  0.0285  0.2820  0.1237
  431SOL    HW1 2113   4.985   1.696   4.536 -0.6552  0.3574  0.1249
  431SOL    HW2 2114   5.077   1.665   4.667  0.3333  2.1130 -0.1368
  432SOL     OW 2115   6.227   3.469   2.918 -0.3294  0.1323  0.0160
  432SOL    HW1 2116   6.252   3.532   2.844  1.0303 -2.1382 -1.6101
  432SOL    HW2 2117   6.127   3.463   2.924 -0.4761  0.2605 -1.7358
  433SOL     OW 2118   2.611   4.802   2.258  0.3208 -0.2314  0.1708
  433SOL    HW1 2119   2.586   4.783   2.353 -2.1861  3.2353  0.3544
  433SOL    HW2 2120   2.691   4.862   2.257 -0.8922  1.4068  0.1987
  434SOL     OW 2121   5.754   2.554   0.892 -0.3016 -0.0692 -0.0535
  434SOL    HW1 2122   5.784   2.623   0.826 -1.3959  0.5952  0.1191
  434SOL    HW2 2123   5.674   2.587   0.942 -0.8174 -1.4393  0.0894
  435SOL     OW 2124   1.024   2.792   2.693  0.1467 -0.1752  0.1675
  435SOL    HW1 2125   0.956   2.840   2.638  0.8070 -0.0572 -0.5805
  435SOL    HW2 2126   1.061   2.854   2.762  0.3728  0.1357 -0.2277
  436SOL     OW 2127   4.935   6.431   1.376  0.0412  0.7407 -0.4644
  436SOL    HW1 2128   4.929   6.521   1.418 -0.1508  0.4098  0.2330
  436SOL    HW2 2129   4.883   6.430   1.291  1.3250  1.7277 -1.2955
  437SOL     OW 2130   6.587   3.160   6.808 -0.7209  0.5438 -0.7440
  437SOL    HW1 2131   6.588   3.147   6.709  0.7284  1.4989 -0.9037
  437SOL    HW2 2132   6.493   3.161   6.841 -1.1790 -1.0671 -1.9093
  438SOL     OW 2133   4.169   4.119   1.575  0.2447  0.3478  0.1728
  438SOL    HW1 2134   4.134   4.160   1.491  0.2916  0.6583  0.2984
  438SOL    HW2 2135   4.264   4.092   1.561 -0.1335 -0.8023 -0.2759
  439SOL     OW 2136   1.576   4.342   5.662 -0.0520  0.2305  0.1476
  439SOL    HW1 2137   1.547   4.412   5.728  0.6494  1.4361 -0.7993
  439SOL    HW2 2138   1.672   4.356   5.639  0.6813 -2.1946  1.3580
  440SOL     OW 2139   1.371   2.125   0.247 -0.7709  0.5769 -0.0318
  440SOL    HW1 2140   1.300   2.067   0.288 -0.9149  1.0335  0.3877
  440SOL    HW2 2141   1.392   2.200   0.309 -1.2856  1.5398 -0.9613
  441SOL     OW 2142   2.753   0.076   1.798  0.0315  0.3210 -0.3727
  441SOL    HW1 2143   2.674   0.036   1.752  0.3614 -1.2371  0.3205
  441SOL    HW2 2144   2.830   0.081   1.735  0.0675 -0.4498 -0.3982
  442SOL     OW 2145   0.519   3.541   4.282 -0.5664  1.0862  0.1397
  442SOL    HW1 2146   0.470   3.514   4.198  0.7558  0.9549 -0.6101
  442SOL    HW2 2147   0.509   3.640   4.296 -0.6320  1.1432 -0.2858
  443SOL     OW 2148   3.854   0.186   1.604  0.3531 -0.7129  0.7811
  443SOL    HW1 2149   3.767   0.137   1.594  1.1063 -1.8188 -0.7564
  443SOL    HW2 2150   3.836   0.283   1.617 -1.1132 -1.0339  1.3892
  444SOL     OW 2151   4.680   4.185   1.944  0.1308  0.0569  0.2108
  444SOL    HW1 2152   4.730   4.255   1.996  0.3922 -0.5173  0.7434
  444SOL    HW2 2153   4.625   4.230   1.873  1.5039  0.6966 -0.4871
  445SOL     OW 2154   5.011   5.024   4.903  0.1764 -0.4844 -0.2404
  445SOL    HW1 2155   5.065   5.028   4.819  1.1379  0.5652  0.3906
  445SOL    HW2 2156   4.916   5.046   4.883  0.2946 -0.7496 -1.1260
  446SOL     OW 2157   4.709   1.637   6.744 -0.1063  0.1421 -0.1126
  446SOL    HW1 2158   4.749   1.579   6.673  0.2815 -0.0172  0.2259
  446SOL    HW2 2159   4.612   1.614   6.756  0.1814 -0.8890  0.4469
  447SOL     OW 2160   5.386   4.259   1.919 -0.1485 -0.0781 -0.1089
  447SOL    HW1 2161   5.397   4.315   1.837  0.0274 -0.3012 -0.2429
  447SOL    HW2 2162   5.291   4.229   1.927  0.0218 -0.8502 -0.7673
  448SOL     OW 2163   1.169   5.353   2.103  0.1251 -0.7891  0.3547
  448SOL    HW1 2164   1.218   5.328   2.187  0.4014  0.3565  0.5491
  448SOL    HW2 2165   1.139   5.448   2.108  0.5371 -0.5548 -1.0438
  449SOL     OW 2166   4.616   4.991   0.635  0.3413 -0.3941  0.2523
  449SOL    HW1 2167   4.618   5.084   0.599  0.3372 -0.9169 -1.1420
  449SOL    HW2 2168   4.574   4.929   0.568 -1.2777 -1.1272  1.8557
  450SOL     OW 2169   1.927   4.020   3.884  0.2463 -0.0502 -0.0149
  450SOL    HW1 2170   1.922   4.071   3.798  2.6595 -2.5709 -1.8461
  450SOL    HW2 2171   2.010   4.047   3.934 -2.2802  3.1087  2.9252
  451SOL     OW 2172   5.862   6.217   0.854 -0.3498  0.9410 -0.5265
  451SOL    HW1 2173   5.828   6.302   0.895 -0.6157  1.5438 -1.9082
  451SOL    HW2 2174   5.948   6.236   0.806 -0.6400  0.5425 -1.2277
  452SOL     OW 2175   1.119   5.528   0.396 -0.1319 -0.1142  0.4973
  452SOL    HW1 2176   1.180   5.533   0.317  0.2530  1.5053  0.8670
  452SOL    HW2 2177   1.145   5.597   0.463 -0.3706 -1.5470  2.1228
  453SOL     OW 2178   4.359   2.987   3.307  0.2317  0.1750  0.2275
  453SOL    HW1 2179   4.404   3.068   3.269 -0.1122  0.9856  1.4677
  453SOL    HW2 2180   4.403   2.962   3.394  0.7026 -1.3417 -0.4106
  454SOL     OW 2181   4.533   2.033   1.840  0.1808 -0.1711 -0.5328
  454SOL    HW1 2182   4.475   2.105   1.878 -0.3887  0.6972 -2.9230
  454SOL    HW2 2183   4.482   1.980   1.773  0.9350 -2.1511  0.3723
  455SOL     OW 2184   4.449   1.610   1.196  0.7721 -0.6561 -0.2060
  455SOL    HW1 2185   4.364   1.584   1.242  1.1915 -0.7678  0.5321
  455SOL    HW2 2186   4.428   1.662   1.114  0.0166  0.3660  0.6192
  456SOL     OW 2187   5.685   5.720   6.957 -0.5855 -0.7235  0.3677
  456SOL    HW1 2188   5.631   5.637   6.971 -1.8794  0.0372  0.0065
  456SOL    HW2 2189   5.778   5.695   6.931 -1.0066 -2.0590  0.0634
  457SOL     OW 2190   6.685   5.826   6.060  0.0763  0.1509  0.1377
  457SOL    HW1 2191   6.740   5.846   6.141  1.0176  1.2852 -0.7364
  457SOL    HW2 2192   6.739   5.769   5.997 -0.1819  0.3120 -0.2324
  458SOL     OW 2193   4.362   4.283   2.733  0.0886 -0.3365 -0.4293
  458SOL    HW1 2194   4.314   4.254   2.816  2.3869  2.1457  1.9903
  458SOL    HW2 2195   4.305   4.347   2.682 -0.4248  0.0401  0.5942
  459SOL     OW 2196   1.868   2.770   0.058  1.0204  0.2277  0.3378
  459SOL    HW1 2197   1.901   2.690   0.108  2.4215  0.7349  0.2834
  459SOL    HW2 2198   1.935   2.844   0.065  1.0165  0.5161 -1.8215
  460SOL     OW 2199   0.461   0.046   4.978  0.4220 -0.3622 -0.3058
  460SOL    HW1 2200   0.466  -0.026   5.047 -1.5022  1.4153  1.7942
  460SOL    HW2 2201   0.503   0.129   5.013  0.0454  0.4060 -1.5620
  461SOL     OW 2202   1.889   0.899   1.916  0.4518 -0.0960 -0.0757
  461SOL    HW1 2203   1.866   0.859   1.827 -1.1868  0.7731 -0.0779
  461SOL    HW2 2204   1.858   0.994   1.919 -0.7502 -0.4823  1.8780
  462SOL     OW 2205   4.249   5.824   2.636 -0.2284  0.7252 -0.0650
  462SOL    HW1 2206   4.202   5.806   2.722 -1.0404 -0.8355 -0.7982
  462SOL    HW2 2207   4.342   5.789   2.641 -1.3585 -2.7682 -0.9798
  463SOL     OW 2208   4.124   2.509   0.402 -0.1192  0.3056  0.3346
  463SOL    HW1 2209   4.169   2.573   0.340  0.0381 -0.1735 -0.0493
  463SOL    HW2 2210   4.056   2.456   0.351  1.7739 -1.9021 -0.0259
  464SOL     OW 2211   5.833   0.473   3.204  0.3980  0.1255  0.4729
  464SOL    HW1 2212   5.854   0.472   3.302  1.5873  0.9253  0.2556
  464SOL    HW2 2213   5.763   0.542   3.186 -0.5128 -0.6710  0.8648
  465SOL     OW 2214   2.068   1.478   6.185 -0.3143 -0.0365 -0.2245
  465SOL    HW1 2215   1.998   1.444   6.122  0.1166 -1.3967 -0.0169
  465SOL    HW2 2216   2.145   1.516   6.134  1.0351 -3.1184 -0.6894
  466SOL     OW 2217   0.156   4.873   1.685  0.5675  0.3417  0.3283
  466SOL    HW1 2218   0.215   4.814   1.740  1.6484  0.7471 -0.3449
  466SOL    HW2 2219   0.213   4.931   1.626 -0.4783  1.6427  0.5392
  467SOL     OW 2220   3.025   2.100   1.088  0.1215 -0.1437  0.1266
  467SOL    HW1 2221   3.110   2.049   1.099  1.2246  1.4057 -0.7115
  467SOL    HW2 2222   2.953   2.038   1.056  1.2639 -1.2501 -0.3973
  468SOL     OW 2223   6.012   1.414   1.740  0.0015 -0.6170 -0.2184
  468SOL    HW1 2224   5.966   1.498   1.710  0.7333 -0.4139 -0.8329
  468SOL    HW2 2225   5.960   1.371   1.812 -0.0706  0.7119  0.5731
  469SOL     OW 2226   1.121   6.480   3.083  0.2028  0.6554 -0.1545
  469SOL    HW1 2227   1.220   6.472   3.083  0.0786 -1.5628 -0.4450
  469SOL    HW2 2228   1.089   6.494   3.177  0.7557  0.3976  0.0786
  470SOL     OW 2229   3.370   0.355   2.374 -0.1041 -0.0542  0.0861
  470SOL    HW1 2230   3.398   0.452   2.376  0.3050 -0.0664 -2.1381
  470SOL    HW2 2231   3.339   0.332   2.282 -0.1754 -2.0646  0.5864
  471SOL     OW 2232   5.690   2.461   4.215  0.3185  0.9467 -0.7285
  471SOL    HW1 2233   5.777   2.467   4.166  1.1734 -1.2490  0.3520
  471SOL    HW2 2234   5.660   2.552   4.243  2.2890  1.7622 -1.1163
  472SOL     OW 2235   6.357   0.970   4.269 -0.2011  0.1273  0.0102
  472SOL    HW1 2236   6.451   0.962   4.235 -0.3530 -1.3305 -0.1297
  472SOL    HW2 2237   6.295   0.924   4.206 -1.0403  1.2532 -0.0005
  473SOL     OW 2238   0.093   3.669   0.857  0.3070  0.2609  0.1998
  473SOL    HW1 2239   0.045   3.640   0.774 -0.7765  0.6757  0.6607
  473SOL    HW2 2240   0.123   3.764   0.846  2.4112 -0.4416 -0.6755
  474SOL     OW 2241   1.919   4.897   0.802 -0.0500  0.0009  0.1245
  474SOL    HW1 2242   1.943   4.929   0.711  1.1987  1.8992  1.0505
  474SOL    HW2 2243   1.820   4.902   0.815 -0.1547  0.4867 -0.8421
  475SOL     OW 2244   1.298   5.028   5.989 -0.5672 -0.5115 -0.1005
  475SOL    HW1 2245   1.300   4.932   5.961  1.0839  0.0830 -2.2259
  475SOL    HW2 2246   1.208   5.049   6.028 -1.0869 -2.7987  0.0634
  476SOL     OW 2247   2.925   6.152   1.245  0.1101 -0.0078 -0.1503
  476SOL    HW1 2248   2.839   6.201   1.234 -0.0381 -0.6454 -2.1630
  476SOL    HW2 2249   2.907   6.057   1.269  0.2852  0.0818  0.3418
  477SOL     OW 2250   6.391   3.602   4.362 -0.0109 -0.3116 -0.6224
  477SOL    HW1 2251   6.397   3.686   4.309  0.9528  0.7904  1.1200
  477SOL    HW2 2252   6.398   3.624   4.460 -2.2030 -2.1734  0.0425
  478SOL     OW 2253   6.968   2.075   3.183 -0.1980  0.0929  0.5298
  478SOL    HW1 2254   7.015   2.044   3.265  0.0250  0.0137  0.3586
  478SOL    HW2 2255   7.033   2.120   3.122  0.7331 -4.0239 -1.8241
  479SOL     OW 2256   4.735   5.597   3.003 -0.4724  0.0806  0.4150
  479SOL    HW1 2257   4.703   5.530   2.936 -2.5148  2.3778 -1.0692
  479SOL    HW2 2258   4.657   5.645   3.043  0.8898  1.6120  1.3990
  480SOL     OW 2259   3.710   0.397   0.917 -0.0379  0.6441 -0.6661
  480SOL    HW1 2260   3.763   0.321   0.881  0.5797  1.3226 -1.2340
  480SOL    HW2 2261   3.639   0.422   0.852 -1.1735 -0.3454  0.1437
  481SOL     OW 2262   1.018   1.668   2.078  1.2302  0.4139  0.6188
  481SOL    HW1 2263   1.022   1.573   2.111  0.7282 -0.2300 -1.0705
  481SOL    HW2 2264   0.988   1.728   2.153  0.9794 -0.8436  1.5687
  482SOL     OW 2265   0.690   0.444   1.020 -0.0648 -0.0061 -0.2354
  482SOL    HW1 2266   0.686   0.490   0.932  1.0857  0.3011 -0.1470
  482SOL    HW2 2267   0.720   0.350   1.007  1.0784  0.3208 -0.1048
  483SOL     OW 2268   4.051   3.574   4.241  0.6667  0.1831  0.1219
  483SOL    HW1 2269   4.005   3.573   4.152 -1.1535  1.9028  0.9609
  483SOL    HW2 2270   4.076   3.481   4.267 -0.5747 -0.5720 -1.2668
  484SOL     OW 2271   1.533   2.319   2.499  0.0752  0.2775  0.3429
  484SOL    HW1 2272   1.600   2.378   2.454  0.8798 -1.7641 -1.2812
  484SOL    HW2 2273   1.499   2.364   2.582  0.9732  2.7713 -0.5689
  485SOL     OW 2274   2.285   0.677   5.019  0.2836  0.3739  0.5544
  485SOL    HW1 2275   2.256   0.734   4.942 -1.7398 -0.9015  0.3130
  485SOL    HW2 2276   2.245   0.711   5.104  3.0092  2.1588  1.2703
  486SOL     OW 2277   0.398   1.659   6.670  0.6021 -0.3156  0.3324
  486SOL    HW1 2278   0.488   1.657   6.714  0.1936 -2.5532  1.2054
  486SOL    HW2 2279   0.406   1.621   6.577  0.5283 -0.7735  0.5091
  487SOL     OW 2280   5.809   1.129   2.364 -0.5845  0.0233 -0.0357
  487SOL    HW1 2281   5.723   1.133   2.415 -0.4238  0.6621  0.1982
  487SOL    HW2 2282   5.862   1.212   2.381 -0.4856  0.2166 -1.1770
  488SOL     OW 2283   6.864   6.677   4.910  0.4767 -0.2456 -0.0172
  488SOL    HW1 2284   6.947   6.703   4.860  0.9865 -0.0851  0.8972
  488SOL    HW2 2285   6.833   6.754   4.966 -0.0867 -0.4227 -0.0774
  489SOL     OW 2286   2.835   1.102   1.345  0.1849  0.3077 -0.1727
  489SOL    HW1 2287   2.915   1.155   1.375 -0.6361  1.2080  0.4759
  489SOL    HW2 2288   2.763   1.108   1.414 -0.9957  0.7160 -1.3922
  490SOL     OW 2289   1.991   5.073   2.099 -0.4700 -0.0573  0.2388
  490SOL    HW1 2290   1.983   5.051   2.002 -0.1205  4.1988 -0.9705
  490SOL    HW2 2291   1.899   5.080   2.139 -0.7864  0.7782 -0.5744
  491SOL     OW 2292   2.023   4.759   5.205 -0.0809 -1.2956  0.1848
  491SOL    HW1 2293   1.997   4.808   5.289  2.1059  0.1577  0.0763
  491SOL    HW2 2294   1.945   4.756   5.143 -1.2556 -0.9459  1.5827
  492SOL     OW 2295   0.626   5.423   6.162  0.1691 -0.9281 -0.4456
  492SOL    HW1 2296   0.719   5.388   6.172  0.2795 -1.3375 -2.5030
  492SOL    HW2 2297   0.628   5.521   6.141  0.1248 -0.9039 -0.3389
  493SOL     OW 2298   5.400   5.953   4.314 -0.3716  0.1096  0.2593
  493SOL    HW1 2299   5.450   6.028   4.358  0.6097 -1.2732  1.5962
  493SOL    HW2 2300   5.384   5.976   4.218  0.8207  1.5819  0.3744
  494SOL     OW 2301   2.142   4.611   5.726 -0.5763  0.2215  0.2915
  494SOL    HW1 2302   2.124   4.611   5.627 -0.3769  2.1176  0.2321
  494SOL    HW2 2303   2.216   4.546   5.745 -1.4226 -1.0647 -0.6225
  495SOL     OW 2304   0.824   6.016   0.337  0.2458  0.4164  0.5856
  495SOL    HW1 2305   0.764   6.000   0.415  0.2916  0.4864  0.6372
  495SOL    HW2 2306   0.833   6.114   0.321 -0.5708  0.3900 -0.1347
  496SOL     OW 2307   5.914   4.137   6.421 -0.1536  0.7392 -0.2488
  496SOL    HW1 2308   5.900   4.093   6.332  0.5327  1.8593 -0.9582
  496SOL    HW2 2309   6.011   4.133   6.445 -0.6460 -1.8611  1.7648
  497SOL     OW 2310   3.599   0.011   6.675  0.2843 -0.1608 -0.5495
  497SOL    HW1 2311   3.613  -0.088   6.666  1.6963  0.0637 -0.6538
  497SOL    HW2 2312   3.506   0.028   6.707  0.6817 -1.6278  1.5881
  498SOL     OW 2313   6.520   6.083   6.481  0.4615  0.0709  0.3259
  498SOL    HW1 2314   6.616   6.092   6.510  0.1413 -1.3419  2.0282
  498SOL    HW2 2315   6.466   6.044   6.556 -1.6714  1.7038 -0.2550
  499SOL     OW 2316   0.777   4.418   5.533  0.5971 -0.1790 -0.0887
  499SOL    HW1 2317   0.877   4.424   5.541  0.7119 -0.7174 -0.9914
  499SOL    HW2 2318   0.752   4.332   5.488 -0.2270  0.4315 -0.8295
  500SOL     OW 2319   6.263   3.431   1.946  0.2083  0.4706  0.2398
  500SOL    HW1 2320   6.219   3.509   1.991 -0.5374  0.1388  0.1052
  500SOL    HW2 2321   6.226   3.420   1.854 -0.0977 -0.3590  0.4513
  501SOL     OW 2322   0.488   2.174   4.979 -0.4691  0.3591 -0.1364
  501SOL    HW1 2323   0.531   2.122   4.905  0.2506  1.6624 -0.6639
  501SOL    HW2 2324   0.389   2.159   4.977 -0.3848 -0.1549 -0.9315
  502SOL     OW 2325   1.562   6.121   5.452 -0.0846 -0.1415  0.6474
  502SOL    HW1 2326   1.609   6.098   5.367 -1.2730 -0.9523  0.1645
  502SOL    HW2 2327   1.628   6.125   5.527  0.9645  0.4597 -0.2840
  503SOL     OW 2328   1.602   6.875   1.710  0.2410 -0.4412 -0.5489
  503SOL    HW1 2329   1.529   6.809   1.728 -0.2701  0.7189  2.1214
  503SOL    HW2 2330   1.567   6.949   1.653 -1.0830  0.5976  1.4639
  504SOL     OW 2331   1.324   1.205   6.937 -0.8862 -0.1798  0.3862
  504SOL    HW1 2332   1.350   1.253   7.021 -1.5641  1.5757 -0.3633
  504SOL    HW2 2333   1.225   1.194   6.936 -0.6669 -3.6694  1.5656
  505SOL     OW 2334   5.222   1.697   0.152  0.0666 -0.0065 -0.1854
  505SOL    HW1 2335   5.160   1.692   0.074 -0.1303 -1.9107  0.0294
  505SOL    HW2 2336   5.277   1.780   0.146 -0.1062  0.0202 -2.2094
  506SOL     OW 2337   6.130   6.534   6.175  0.2458  0.3001 -0.9863
  506SOL    HW1 2338   6.069   6.598   6.221  0.3885  0.9560 -1.6987
  506SOL    HW2 2339   6.148   6.456   6.236  0.3471  1.0909  0.0211
  507SOL     OW 2340   1.293   2.961   1.761 -0.5224  0.1876  0.1898
  507SOL    HW1 2341   1.250   2.982   1.848  1.9441  0.0990  1.5198
  507SOL    HW2 2342   1.377   3.014   1.751  0.0469 -0.9266 -1.4201
  508SOL     OW 2343   0.876   5.759   3.528  0.2719  0.4390  0.4829
  508SOL    HW1 2344   0.964   5.804   3.544  0.1768  0.5677  0.6592
  508SOL    HW2 2345   0.870   5.730   3.433  1.0132 -0.6852  0.7639
  509SOL     OW 2346   3.337   6.076   1.041 -0.4435 -0.1828 -0.0619
  509SOL    HW1 2347   3.418   6.127   1.070  0.5225 -0.7085 -1.6948
  509SOL    HW2 2348   3.263   6.139   1.021  0.6296  0.6340 -1.7631
  510SOL     OW 2349   0.289   6.272   1.567  0.1731  0.2137 -0.1789
  510SOL    HW1 2350   0.384   6.263   1.536  0.5580 -2.2255  1.3957
  510SOL    HW2 2351   0.272   6.366   1.596  2.4118  0.5037  0.3590
  511SOL     OW 2352   1.825   1.252   2.231 -0.6526  0.4919  0.1736
  511SOL    HW1 2353   1.779   1.213   2.151 -0.4504 -0.3431  0.4534
  511SOL    HW2 2354   1.871   1.179   2.282 -2.1059  0.7399  1.9391
  512SOL     OW 2355   4.162   2.558   5.725  0.3100  0.1810 -1.0484
  512SOL    HW1 2356   4.245   2.518   5.685  1.7830  2.7952 -0.7891
  512SOL    HW2 2357   4.171   2.657   5.727 -2.0116  0.4168  0.8532
  513SOL     OW 2358   6.906   0.280   4.357 -0.1637  0.0473 -0.3105
  513SOL    HW1 2359   6.890   0.200   4.300  0.8881 -0.8070  0.5503
  513SOL    HW2 2360   6.836   0.285   4.428  0.6538 -1.0266  0.5973
  514SOL     OW 2361   6.212   3.561   0.989 -0.4000  0.3820 -0.2441
  514SOL    HW1 2362   6.246   3.537   0.898 -0.1258  0.9222 -0.2873
  514SOL    HW2 2363   6.257   3.504   1.057 -1.2935 -0.6933 -0.5125
  515SOL     OW 2364   0.719   5.546   5.522  0.2204  0.6253  0.2649
  515SOL    HW1 2365   0.726   5.533   5.621 -2.3326 -1.0039  0.3141
  515SOL    HW2 2366   0.800   5.506   5.478  1.9446  2.3540  1.6759
  516SOL     OW 2367   5.156   3.501   0.193  0.8684  0.2170  0.1284
  516SOL    HW1 2368   5.148   3.496   0.093  0.1023  0.0099  0.2016
  516SOL    HW2 2369   5.210   3.423   0.226 -2.9594 -2.5933  0.3289
  517SOL     OW 2370   0.350   4.774   5.803 -0.1403  0.1989 -0.6176
  517SOL    HW1 2371   0.446   4.801   5.802 -0.2322  0.5132 -1.4359
  517SOL    HW2 2372   0.343   4.678   5.830  0.4384  0.0481 -0.9996
  518SOL     OW 2373   4.070   2.186   0.883  0.1314 -0.0604  0.3459
  518SOL    HW1 2374   3.983   2.151   0.918  0.3778  1.4062  2.5621
  518SOL    HW2 2375   4.062   2.198   0.784 -1.7289 -1.2103  0.3003
  519SOL     OW 2376   4.962   5.528   3.720  0.0436 -0.1225 -0.2832
  519SOL    HW1 2377   4.988   5.516   3.624  0.4382  1.6111 -0.4266
  519SOL    HW2 2378   5.033   5.580   3.767 -1.6730  2.0390  0.0956
  520SOL     OW 2379   1.758   0.054   1.301 -0.1938 -0.6048  0.3726
  520SOL    HW1 2380   1.828   0.088   1.365 -1.2047 -0.6857  1.5730
  520SOL    HW2 2381   1.785   0.074   1.207  1.1275 -0.0588  0.8537
  521SOL     OW 2382   5.685   5.106   4.506 -0.0656 -0.2478 -0.0875
  521SOL    HW1 2383   5.638   5.192   4.526  2.8178  1.3575  0.1641
  521SOL    HW2 2384   5.718   5.107   4.411 -0.6856 -1.4558 -0.3447
  522SOL     OW 2385   3.882   2.016   3.487  0.0898 -0.3561  0.0230
  522SOL    HW1 2386   3.884   1.921   3.457  0.6508 -0.2645 -0.2299
  522SOL    HW2 2387   3.813   2.026   3.559  1.4090 -1.3738  1.4853
  523SOL     OW 2388   5.362   0.837   5.594  0.3033 -0.0154  0.7154
  523SOL    HW1 2389   5.266   0.821   5.570  1.0088 -1.4977 -1.3606
  523SOL    HW2 2390   5.399   0.909   5.536  0.3813  0.8644  1.8071
  524SOL     OW 2391   0.709   5.608   6.758  0.8982 -0.6777  0.0005
  524SOL    HW1 2392   0.719   5.626   6.856  0.4319 -0.9696  0.1044
  524SOL    HW2 2393   0.624   5.559   6.742  0.6155 -0.0019 -0.6374
  525SOL     OW 2394   4.996   2.674   6.453 -0.4317  0.0878  0.1285
  525SOL    HW1 2395   5.056   2.595   6.445  0.3015  0.1552  3.5767
  525SOL    HW2 2396   5.046   2.750   6.495 -2.5555  0.5239  2.0655
  526SOL     OW 2397   4.422   1.211   2.624 -0.3109 -0.4619  0.0568
  526SOL    HW1 2398   4.393   1.285   2.684 -2.1727 -1.3418  0.3075
  526SOL    HW2 2399   4.394   1.230   2.530 -1.0727 -0.9369  0.1674
  527SOL     OW 2400   4.660   2.920   3.701  0.4835 -0.3409  0.1209
  527SOL    HW1 2401   4.654   2.985   3.626  3.0797 -0.2966 -0.1504
  527SOL    HW2 2402   4.578   2.863   3.703 -0.9215  1.5419 -0.9195
  528SOL     OW 2403   2.409   0.688   3.356  0.5235 -0.3841 -0.1343
  528SOL    HW1 2404   2.487   0.740   3.391 -0.2028  0.7658 -0.1801
  528SOL    HW2 2405   2.377   0.730   3.271 -1.3106  0.3368  0.8586
  529SOL     OW 2406   2.668   6.709   6.689  0.7622 -0.4674 -0.0548
  529SOL    HW1 2407   2.620   6.768   6.624  1.6440 -0.6296 -0.8726
  529SOL    HW2 2408   2.602   6.651   6.736 -0.1765  1.3035  0.9433
  530SOL     OW 2409   0.956   4.774   5.182 -0.2295  0.0837 -0.2336
  530SOL    HW1 2410   0.914   4.771   5.091  0.6049  0.5675 -0.6570
  530SOL    HW2 2411   1.010   4.691   5.197 -1.4023 -0.5953  0.3609
  531SOL     OW 2412   2.213   5.709   1.769  0.6347 -0.3577  0.1038
  531SOL    HW1 2413   2.204   5.802   1.807 -0.5925 -0.3535 -0.1553
  531SOL    HW2 2414   2.184   5.642   1.837 -0.3146 -0.4249 -0.3484
  532SOL     OW 2415   2.708   3.107   3.129 -0.6242  0.0148 -0.5658
  532SOL    HW1 2416   2.801   3.079   3.155 -0.0215 -0.1246 -2.6440
  532SOL    HW2 2417   2.713   3.194   3.078 -1.4485 -0.6758 -1.8721
  533SOL     OW 2418   6.461   1.062   0.625 -0.0508 -0.0612 -0.2649
  533SOL    HW1 2419   6.382   1.119   0.601  0.1361 -0.4895 -2.0040
  533SOL    HW2 2420   6.527   1.117   0.676 -1.1691  0.4652  0.6633
  534SOL     OW 2421   2.066   5.883   3.781  0.0106  0.4720 -0.5521
  534SOL    HW1 2422   2.140   5.950   3.779  0.7314 -0.3219 -1.0920
  534SOL    HW2 2423   2.097   5.797   3.742 -0.3474 -0.7751  1.6947
  535SOL     OW 2424   2.533   6.533   3.564  0.3116  0.4037 -0.2090
  535SOL    HW1 2425   2.437   6.561   3.568  0.1477  0.1145 -1.7285
  535SOL    HW2 2426   2.569   6.549   3.473  1.9070  1.0655  0.4936
  536SOL     OW 2427   6.071   4.908   6.497 -0.1509 -0.3945 -1.0211
  536SOL    HW1 2428   5.976   4.937   6.479 -0.0386  0.3922 -0.4269
  536SOL    HW2 2429   6.133   4.979   6.466  0.0771  0.8345  1.8794
  537SOL     OW 2430   1.178   0.521   4.063  0.4132  0.0705  0.1146
  537SOL    HW1 2431   1.144   0.470   4.142 -1.0142 -0.9915 -1.1053
  537SOL    HW2 2432   1.255   0.578   4.090  1.1377 -1.6271  1.8708
  538SOL     OW 2433   3.312   3.368   6.874 -0.1334  0.2456 -0.0350
  538SOL    HW1 2434   3.254   3.448   6.856 -0.0091  0.4053  0.2665
  538SOL    HW2 2435   3.364   3.383   6.958 -0.4637 -0.3606  0.2836
  539SOL     OW 2436   6.507   2.229   2.245 -0.8694  0.0529 -0.3588
  539SOL    HW1 2437   6.517   2.308   2.185 -1.9102 -0.2396 -0.9396
  539SOL    HW2 2438   6.575   2.234   2.318  1.2543 -0.2188 -2.2013
  540SOL     OW 2439   2.110   5.162   3.773  0.3651  0.3366 -0.2385
  540SOL    HW1 2440   2.120   5.201   3.682  2.7543 -2.9039 -1.5743
  540SOL    HW2 2441   2.039   5.091   3.771  0.0961  0.5709  0.5592
  541SOL     OW 2442   6.206   1.191   0.971 -0.0603  0.3054  0.0113
  541SOL    HW1 2443   6.304   1.201   0.954  0.2428  1.7499  2.1519
  541SOL    HW2 2444   6.155   1.220   0.890  1.2410 -0.1917 -1.0313
  542SOL     OW 2445   4.030   3.168   2.142 -0.2657 -0.4056 -0.2407
  542SOL    HW1 2446   3.981   3.166   2.055 -0.6598 -0.2863 -0.0249
  542SOL    HW2 2447   3.993   3.099   2.203  0.5002 -0.9847 -0.4249
  543SOL     OW 2448   6.790   3.623   1.656 -0.4833 -0.5160  0.1981
  543SOL    HW1 2449   6.810   3.551   1.722 -0.7319 -0.9771 -0.2260
  543SOL    HW2 2450   6.705   3.670   1.682  0.1347  0.2052  0.9572
  544SOL     OW 2451   2.118   6.397   1.126 -0.1894  0.1598 -0.0979
  544SOL    HW1 2452   2.058   6.470   1.159  1.6802  0.2872  3.5298
  544SOL    HW2 2453   2.063   6.324   1.084 -2.4857  1.7006  0.0784
  545SOL     OW 2454   4.211   4.405   3.305  0.0209  0.2472  0.0510
  545SOL    HW1 2455   4.214   4.504   3.315 -0.0609  0.3566 -0.9397
  545SOL    HW2 2456   4.304   4.368   3.314  0.2199  0.5350 -0.7487
  546SOL     OW 2457   1.014   5.973   2.203  0.0989 -0.3142 -0.3269
  546SOL    HW1 2458   0.987   6.068   2.191 -0.8374 -0.3233  1.3253
  546SOL    HW2 2459   0.933   5.914   2.197  0.3838 -0.8058  0.4448
  547SOL     OW 2460   0.026   1.404   5.994  0.3595  0.5754  0.2546
  547SOL    HW1 2461   0.119   1.384   6.025 -0.3414 -1.4128  1.2457
  547SOL    HW2 2462   0.024   1.408   5.894  1.1646 -1.6942  0.0746
  548SOL     OW 2463   4.811   1.005   3.325  0.9165 -0.0681  1.1714
  548SOL    HW1 2464   4.856   1.012   3.236  0.5090 -1.2765  0.8508
  548SOL    HW2 2465   4.861   0.941   3.383  0.3628 -0.4021  1.2865
  549SOL     OW 2466   1.360   3.200   2.772 -0.3569  0.1142  0.1579
  549SOL    HW1 2467   1.309   3.209   2.857 -0.4925 -1.4466  0.2762
  549SOL    HW2 2468   1.316   3.255   2.701 -2.3170 -1.2861  0.2229
  550SOL     OW 2469   0.003   5.036   2.284 -0.3772 -0.1684  0.4165
  550SOL    HW1 2470   0.037   4.948   2.253 -0.7836 -0.4323  0.7033
  550SOL    HW2 2471  -0.067   5.022   2.355 -1.9091  0.2999 -0.9526
  551SOL     OW 2472   5.840   6.909   3.856  0.3700  0.4267 -0.1944
  551SOL    HW1 2473   5.879   6.819   3.835 -1.7586 -0.9347  1.1483
  551SOL    HW2 2474   5.745   6.897   3.885  0.0269  3.1517  0.0301
  552SOL     OW 2475   3.989   1.519   6.695  0.2265 -0.1902  0.3572
  552SOL    HW1 2476   3.963   1.569   6.612 -0.1964 -0.8690  0.0700
  552SOL    HW2 2477   4.064   1.457   6.674 -1.0151 -1.6509  0.0251
  553SOL     OW 2478   3.603   6.988   3.785 -0.2206  0.1347  0.3872
  553SOL    HW1 2479   3.561   7.005   3.695  0.1541  0.2294  0.2299
  553SOL    HW2 2480   3.538   6.937   3.842  0.4334 -2.1220 -0.7689
  554SOL     OW 2481   3.169   6.310   0.268  0.7465  0.2898 -0.2995
  554SOL    HW1 2482   3.151   6.336   0.363  2.7954  0.4019  0.1114
  554SOL    HW2 2483   3.184   6.393   0.213  0.0968  0.2074 -0.6075
  555SOL     OW 2484   5.458   0.561   1.338  1.1389  0.3983 -0.5127
  555SOL    HW1 2485   5.469   0.658   1.316 -2.8976  0.3964 -3.9050
  555SOL    HW2 2486   5.414   0.551   1.427 -1.5200  2.0392 -1.5473
  556SOL     OW 2487   0.386   4.006   2.383 -0.1915 -0.2201  0.3268
  556SOL    HW1 2488   0.416   3.933   2.322  1.1555  2.7557 -2.9524
  556SOL    HW2 2489   0.462   4.033   2.443  0.4913  0.5414 -0.8074
  557SOL     OW 2490   1.799   1.766   6.690 -0.0904 -0.6151  0.3286
  557SOL    HW1 2491   1.714   1.723   6.719  0.2840 -0.7721  1.2673
  557SOL    HW2 2492   1.859   1.777   6.770 -0.9803  3.5534  0.6600
  558SOL     OW 2493   6.747   0.344   3.389  0.5490 -0.0575  0.1334
  558SOL    HW1 2494   6.839   0.309   3.407  1.0627 -0.6775 -3.0615
  558SOL    HW2 2495   6.681   0.269   3.397  0.4664  0.1210  1.2516
  559SOL     OW 2496   4.508   5.649   2.731 -0.5502 -0.0955  0.5823
  559SOL    HW1 2497   4.544   5.557   2.741  0.1725 -0.1328 -1.7187
  559SOL    HW2 2498   4.492   5.689   2.821  2.2374 -1.2571  1.7113
  560SOL     OW 2499   1.629   0.973   0.729 -0.2372  0.1043 -0.3351
  560SOL    HW1 2500   1.690   0.990   0.806  0.1937 -0.5057 -0.5412
  560SOL    HW2 2501   1.603   1.061   0.688 -0.2479  0.4163  0.3259
  561SOL     OW 2502   6.216   6.176   1.164  0.4085 -0.3477 -0.0981
  561SOL    HW1 2503   6.228   6.274   1.144  0.3543 -0.6702 -1.8524
  561SOL    HW2 2504   6.118   6.156   1.168  0.3269  0.1811  3.2351
  562SOL     OW 2505   1.242   2.654   0.195 -1.0632 -0.4860  0.1534
  562SOL    HW1 2506   1.278   2.743   0.168 -1.7764 -0.0899  0.4940
  562SOL    HW2 2507   1.318   2.594   0.221 -0.7295  0.8652  2.4676
  563SOL     OW 2508   2.378   3.125   5.591 -0.3291  0.2039 -0.6616
  563SOL    HW1 2509   2.379   3.127   5.691  0.1986  0.1588 -0.6627
  563SOL    HW2 2510   2.456   3.073   5.557  2.2246  3.9075 -1.1398
  564SOL     OW 2511   6.029   5.103   5.812  0.3652  0.1043 -0.0569
  564SOL    HW1 2512   6.078   5.037   5.869 -1.6879 -1.3022  0.1625
  564SOL    HW2 2513   6.048   5.084   5.716  0.8886  0.1065  0.0422
  565SOL     OW 2514   4.171   5.058   0.804  0.0698 -0.1359  0.0925
  565SOL    HW1 2515   4.236   5.039   0.878 -0.4275  0.5015  0.7166
  565SOL    HW2 2516   4.087   5.006   0.819 -0.1502  0.2290  0.1487
  566SOL     OW 2517   0.806   6.866   5.062 -0.2107 -0.2989  0.2305
  566SOL    HW1 2518   0.786   6.963   5.079 -0.2781  0.1168 -1.9259
  566SOL    HW2 2519   0.904   6.850   5.069  0.0933  0.4788 -1.6444
  567SOL     OW 2520   6.303   0.180   4.395  0.2189 -0.6995 -0.0974
  567SOL    HW1 2521   6.273   0.206   4.487 -1.8802  1.2217 -1.2070
  567SOL    HW2 2522   6.301   0.081   4.387 -2.4634 -0.8456  1.1099
  568SOL     OW 2523   2.602   3.218   1.451 -0.1705  0.1769  0.8294
  568SOL    HW1 2524   2.697   3.189   1.439 -0.1305  0.9897 -1.2791
  568SOL    HW2 2525   2.597   3.317   1.454 -0.9855  0.1524  0.5606
  569SOL     OW 2526   5.658   1.379   5.291 -0.0686 -0.2448  0.2810
  569SOL    HW1 2527   5.659   1.281   5.270 -0.9069  0.2860 -2.7607
  569SOL    HW2 2528   5.737   1.402   5.348  0.4397 -2.5873  0.6105
  570SOL     OW 2529   3.745   3.571   0.765 -0.0553 -0.0405 -0.3032
  570SOL    HW1 2530   3.801   3.491   0.783 -0.6728 -0.0228  1.9115
  570SOL    HW2 2531   3.785   3.652   0.807 -1.2934  0.1103  0.6757
  571SOL     OW 2532   6.336   1.900   6.855 -0.0471  0.2056 -0.1588
  571SOL    HW1 2533   6.390   1.832   6.904  1.3261  0.5978 -1.0717
  571SOL    HW2 2534   6.298   1.859   6.772 -0.1810  0.2437 -0.1194
  572SOL     OW 2535   5.984   3.813   3.801 -0.0810 -0.2500 -0.6145
  572SOL    HW1 2536   5.890   3.829   3.831 -1.0791 -1.8029 -2.6417
  572SOL    HW2 2537   6.048   3.844   3.872 -2.0734  1.3536  0.5828
  573SOL     OW 2538   5.271   2.987   5.891  0.9771  0.1458 -0.0823
  573SOL    HW1 2539   5.227   3.066   5.933  1.4357  0.6484 -0.5450
  573SOL    HW2 2540   5.318   3.015   5.808 -0.2476 -0.9007 -1.1725
  574SOL     OW 2541   6.188   3.492   6.787 -0.3176  0.2208 -0.2098
  574SOL    HW1 2542   6.234   3.551   6.720 -0.1353  0.9013  0.4969
  574SOL    HW2 2543   6.140   3.549   6.854  0.2560 -0.4068  0.7624
  575SOL     OW 2544   4.815   6.525   4.307 -0.3847 -0.2094  0.3013
  575SOL    HW1 2545   4.797   6.619   4.333  1.8292 -0.0227  1.3426
  575SOL    HW2 2546   4.837   6.521   4.209 -0.8550  0.2847  0.1684
  576SOL     OW 2547   5.078   3.194   4.703  0.2573 -0.3253  0.1552
  576SOL    HW1 2548   5.131   3.162   4.624  0.4974  0.5171 -0.0362
  576SOL    HW2 2549   5.131   3.180   4.786  1.0751  1.0889 -0.0896
  577SOL     OW 2550   6.125   3.001   6.562  0.0826 -0.5640  0.3202
  577SOL    HW1 2551   6.211   2.951   6.559  0.1486 -0.4922  0.9261
  577SOL    HW2 2552   6.136   3.089   6.516  0.1686 -0.7949 -0.1104
  578SOL     OW 2553   4.258   2.187   1.960 -0.2889 -1.0116 -0.1760
  578SOL    HW1 2554   4.295   2.279   1.946  2.2092 -1.6473  1.7272
  578SOL    HW2 2555   4.233   2.148   1.871  0.1222  0.8910 -1.1732
  579SOL     OW 2556   4.050   0.523   1.605  0.2804  0.2807 -0.2741
  579SOL    HW1 2557   4.107   0.504   1.525  1.9732 -1.3554  1.2169
  579SOL    HW2 2558   4.105   0.511   1.688 -2.1189 -0.8506  1.2479
  580SOL     OW 2559   5.755   5.956   6.169  0.3655  0.2184 -0.0400
  580SOL    HW1 2560   5.747   5.893   6.091 -0.9057 -0.1751  0.3744
  580SOL    HW2 2561   5.683   5.935   6.235  0.5878  1.4369  0.6083
  581SOL     OW 2562   5.622   5.993   1.820  0.0404 -0.2806  0.2647
  581SOL    HW1 2563   5.674   6.050   1.883 -0.8629  1.2506 -0.3201
  581SOL    HW2 2564   5.648   5.897   1.833  1.7960  0.2581  1.0962
  582SOL     OW 2565   3.375   1.648   3.395 -0.1277  0.2261  0.2210
  582SOL    HW1 2566   3.305   1.661   3.324 -0.3118  0.4213  0.4375
  582SOL    HW2 2567   3.440   1.723   3.390 -0.5687  0.6497  0.7515
  583SOL     OW 2568   1.455   5.539   2.501  0.0353  0.1705 -0.1680
  583SOL    HW1 2569   1.530   5.603   2.484  0.3694  0.1658  1.1816
  583SOL    HW2 2570   1.481   5.448   2.469  0.2182  0.3619 -0.5754
  584SOL     OW 2571   2.736   4.127   6.268  0.0652 -0.1744  0.5672
  584SOL    HW1 2572   2.741   4.205   6.205 -1.0957 -1.9726 -1.9158
  584SOL    HW2 2573   2.670   4.148   6.341 -0.8232  0.8992 -0.5008
  585SOL     OW 2574   0.119   1.080   5.454 -0.0687  0.3902  0.4466
  585SOL    HW1 2575   0.114   1.130   5.540  0.5171 -0.2683  0.8757
  585SOL    HW2 2576   0.031   1.035   5.437 -0.6671  1.7047 -0.0476
  586SOL     OW 2577   6.671   4.247   5.586  0.3033 -0.1971  0.5116
  586SOL    HW1 2578   6.684   4.342   5.559  0.3542 -0.4401 -0.3566
  586SOL    HW2 2579   6.633   4.195   5.509  2.0708 -1.2929  0.3017
  587SOL     OW 2580   0.844   2.139   0.214  0.1352 -0.0594  0.0900
  587SOL    HW1 2581   0.870   2.228   0.252 -1.3122  0.4246 -0.0430
  587SOL    HW2 2582   0.853   2.141   0.115 -0.1153  0.0200  0.0672
  588SOL     OW 2583   0.942   6.106   5.717 -0.2560 -0.7221 -0.1685
  588SOL    HW1 2584   0.970   6.177   5.652 -1.4185 -0.4608 -0.4334
  588SOL    HW2 2585   0.986   6.122   5.805  0.2906 -0.2738 -0.5163
  589SOL     OW 2586   2.974   6.219   4.569  0.4787 -0.2396  0.1972
  589SOL    HW1 2587   3.064   6.233   4.529 -0.6353  0.0456 -2.4044
  589SOL    HW2 2588   2.981   6.152   4.644  2.7510 -0.5143 -0.1787
  590SOL     OW 2589   3.722   4.211   0.500  0.3246 -0.1886 -0.2444
  590SOL    HW1 2590   3.673   4.133   0.462  0.7656  0.2903 -1.8746
  590SOL    HW2 2591   3.819   4.203   0.480  0.6156  0.0104  0.9644
  591SOL     OW 2592   0.353   6.249   6.928 -0.3520  0.4331 -0.5616
  591SOL    HW1 2593   0.379   6.158   6.962 -0.7695 -0.2234 -1.9239
  591SOL    HW2 2594   0.428   6.286   6.873 -0.2823  0.8212 -0.2153
  592SOL     OW 2595   0.705   5.807   3.738  0.3387  0.4903  0.1511
  592SOL    HW1 2596   0.754   5.795   3.652  0.1933 -1.7123  0.3242
  592SOL    HW2 2597   0.607   5.794   3.723  0.3766 -0.6757  0.7293
  593SOL     OW 2598   2.238   6.652   2.116  0.3229 -0.2500 -0.1034
  593SOL    HW1 2599   2.210   6.729   2.174  1.2346 -0.5247  0.7216
  593SOL    HW2 2600   2.176   6.575   2.131  0.8689 -0.5092  0.9237
  594SOL     OW 2601   2.032   3.166   6.537 -0.8592 -0.1562  0.3467
  594SOL    HW1 2602   2.085   3.092   6.578 -1.2882  0.2801  1.7660
  594SOL    HW2 2603   1.935   3.152   6.555 -1.4064 -1.4157 -2.9787
  595SOL     OW 2604   3.531   5.161   2.810  0.1504 -0.3400 -0.1476
  595SOL    HW1 2605   3.509   5.160   2.908 -1.0850  0.7901 -0.3841
  595SOL    HW2 2606   3.585   5.242   2.789  0.0464 -0.3491 -0.4676
  596SOL     OW 2607   4.053   6.027   3.896 -0.3757 -0.1691 -0.0014
  596SOL    HW1 2608   3.962   5.987   3.902 -0.5761  0.1983 -0.4360
  596SOL    HW2 2609   4.118   5.970   3.947 -0.4993 -1.5247 -1.2573
  597SOL     OW 2610   0.563   1.203   2.062 -0.1657  0.8901 -0.2454
  597SOL    HW1 2611   0.543   1.142   2.139 -0.1255 -0.4232 -1.2419
  597SOL    HW2 2612   0.507   1.178   1.983  1.5660  0.5506 -1.4351
  598SOL     OW 2613   1.442   4.351   3.352  0.6228  0.2376 -0.3336
  598SOL    HW1 2614   1.388   4.354   3.268  0.2484 -2.2056 -0.2517
  598SOL    HW2 2615   1.415   4.426   3.412 -2.2114 -0.4520 -0.6096
  599SOL     OW 2616   5.792   0.126   6.160  0.2892  0.4963  0.1426
  599SOL    HW1 2617   5.766   0.193   6.230  1.1008 -0.5177  1.4915
  599SOL    HW2 2618   5.892   0.121   6.156  0.2661  0.9270 -1.5264
  600SOL     OW 2619   1.666   5.084   6.334  0.3123 -0.0927  0.3877
  600SOL    HW1 2620   1.706   5.169   6.369 -0.5373  0.0861  0.9695
  600SOL    HW2 2621   1.571   5.077   6.365  0.3495 -1.2362  0.2919
  601SOL     OW 2622   1.894   0.234   2.442  0.3521 -0.2638 -0.1226
  601SOL    HW1 2623   1.798   0.206   2.442  0.2676  0.0120 -0.8465
  601SOL    HW2 2624   1.915   0.282   2.527 -1.0935  2.8200 -1.3741
  602SOL     OW 2625   6.006   1.025   5.454 -0.7098 -0.1208  0.5009
  602SOL    HW1 2626   6.078   1.088   5.483 -0.5567 -1.1312  2.4372
  602SOL    HW2 2627   6.044   0.933   5.445 -0.9488 -0.0400 -2.2047
  603SOL     OW 2628   1.028   3.229   2.687  0.7198 -0.0455  0.2757
  603SOL    HW1 2629   1.111   3.261   2.643 -1.0488  0.1152 -3.3025
  603SOL    HW2 2630   1.048   3.148   2.741  3.2704  0.3798  0.1090
  604SOL     OW 2631   4.000   1.655   5.068  0.8238  0.5651 -0.5458
  604SOL    HW1 2632   3.950   1.575   5.035 -2.0736  2.0381  0.0259
  604SOL    HW2 2633   3.961   1.738   5.030  2.9794  1.8518 -0.1548
  605SOL     OW 2634   5.167   3.103   3.342  0.1856  0.0020  0.8378
  605SOL    HW1 2635   5.089   3.137   3.395  0.6448 -0.4560  1.8358
  605SOL    HW2 2636   5.135   3.042   3.270 -0.2636 -1.8917  2.5686
  606SOL     OW 2637   6.488   2.193   6.327  0.6138 -0.1688 -0.2411
  606SOL    HW1 2638   6.472   2.250   6.408  0.0043 -0.4062 -0.1918
  606SOL    HW2 2639   6.481   2.096   6.352 -3.2481 -0.3215 -1.1970
  607SOL     OW 2640   4.792   6.765   6.868 -0.1420  0.2490 -0.2467
  607SOL    HW1 2641   4.796   6.864   6.880  1.5795  0.1184  0.7393
  607SOL    HW2 2642   4.702   6.732   6.896 -0.1058  1.3445  1.3527
  608SOL     OW 2643   6.069   6.223   1.870  0.4399 -0.0782  0.3839
  608SOL    HW1 2644   6.022   6.251   1.954  0.8648  0.1346  0.5528
  608SOL    HW2 2645   6.004   6.178   1.809 -0.1432  0.8056  0.3293
  609SOL     OW 2646   2.067   4.606   2.951  0.4207  0.0690 -0.1051
  609SOL    HW1 2647   2.145   4.600   2.889  0.0878  1.8215 -0.7553
  609SOL    HW2 2648   2.087   4.671   3.025  0.5015 -1.3663  1.1866
  610SOL     OW 2649   1.270   2.977   3.891  0.6983  0.3759  0.5015
  610SOL    HW1 2650   1.234   2.968   3.798  0.3942  0.0234  0.6475
  610SOL    HW2 2651   1.329   3.057   3.896 -0.9658  1.6633  0.5288
  611SOL     OW 2652   3.671   1.565   1.238  0.0373  0.5009  0.3375
  611SOL    HW1 2653   3.746   1.577   1.303  0.5283 -0.9806  0.0652
  611SOL    HW2 2654   3.584   1.577   1.286  0.4096  0.3243  1.0810
  612SOL     OW 2655   2.575   0.624   0.120  0.2622 -0.0298  0.1217
  612SOL    HW1 2656   2.481   0.647   0.095  0.2096 -0.6785 -0.2923
  612SOL    HW2 2657   2.583   0.622   0.220 -0.5448 -1.4515  0.1846
  613SOL     OW 2658   2.903   6.315   3.740  0.1587  0.3855 -0.3124
  613SOL    HW1 2659   2.876   6.409   3.722 -0.9824 -0.0093 -0.6979
  613SOL    HW2 2660   2.999   6.302   3.713  1.1145  2.0586  1.9275
  614SOL     OW 2661   0.932   4.847   4.064  0.7082 -0.0022 -0.2018
  614SOL    HW1 2662   0.898   4.835   4.157  0.0957  0.1392 -0.4041
  614SOL    HW2 2663   0.996   4.924   4.061  2.0353 -1.0320  0.4260
  615SOL     OW 2664   3.359   0.096   1.845 -0.1152 -0.2946 -0.5508
  615SOL    HW1 2665   3.388   0.001   1.835  0.3543  0.0117 -2.5818
  615SOL    HW2 2666   3.400   0.152   1.772 -0.8055  1.3674  0.2698
  616SOL     OW 2667   1.453   5.567   0.700  0.6235  0.0690 -0.3831
  616SOL    HW1 2668   1.463   5.490   0.637  1.0226  0.5551 -0.9242
  616SOL    HW2 2669   1.527   5.564   0.767  0.5961 -0.0630 -0.3572
  617SOL     OW 2670   0.630   2.270   1.604  0.1839  0.1616  0.3815
  617SOL    HW1 2671   0.627   2.181   1.558 -1.4101  0.1742  0.4331
  617SOL    HW2 2672   0.714   2.318   1.576 -0.0127 -0.4309 -1.3657
  618SOL     OW 2673   5.133   6.647   0.434 -0.2567 -0.3240 -0.1819
  618SOL    HW1 2674   5.198   6.715   0.470 -0.7606 -0.1003  0.3165
  618SOL    HW2 2675   5.043   6.689   0.424 -1.0008 -1.3446  1.7552
  619SOL     OW 2676   0.226   3.478   4.837 -0.4800  0.1487  0.2583
  619SOL    HW1 2677   0.273   3.390   4.846 -0.7445 -0.2301 -1.6471
  619SOL    HW2 2678   0.272   3.533   4.767 -1.2356  0.8973  0.3385
  620SOL     OW 2679   3.654   0.301   0.355 -0.1194  0.1397  0.4555
  620SOL    HW1 2680   3.601   0.346   0.427  0.1950 -0.3078  0.9791
  620SOL    HW2 2681   3.597   0.235   0.307  0.0510 -0.6347  1.2846
  621SOL     OW 2682   3.905   1.702   6.865  0.2271  0.1015  0.3401
  621SOL    HW1 2683   3.815   1.708   6.823 -0.2889  0.0264  1.3846
  621SOL    HW2 2684   3.959   1.630   6.820  0.2415  0.9955 -1.1175
  622SOL     OW 2685   6.203   1.480   2.579 -0.1582 -0.3117 -0.1812
  622SOL    HW1 2686   6.302   1.467   2.581 -0.3214 -1.8974  2.0336
  622SOL    HW2 2687   6.182   1.577   2.571  1.5507 -0.0213 -1.5153
  623SOL     OW 2688   5.090   2.827   2.234 -0.3494  0.3598  0.6039
  623SOL    HW1 2689   5.060   2.917   2.201 -1.5589  0.8732  2.8985
  623SOL    HW2 2690   5.119   2.835   2.330 -1.4993 -1.8898  1.1946
  624SOL     OW 2691   0.449   4.925   4.807  0.3788 -0.1629  0.4278
  624SOL    HW1 2692   0.434   5.022   4.823  0.8093  0.1128 -0.7400
  624SOL    HW2 2693   0.401   4.871   4.877  1.9612  0.9223  2.4641
  625SOL     OW 2694   0.172   1.067   6.984  0.1979  0.2509 -0.4245
  625SOL    HW1 2695   0.117   1.051   7.066  0.7806 -0.9729 -0.2874
  625SOL    HW2 2696   0.268   1.043   7.002  0.5949  1.2574 -1.0603
  626SOL     OW 2697   2.289   6.859   6.168 -0.3654  0.8358  0.2033
  626SOL    HW1 2698   2.370   6.819   6.211 -0.2315  1.2147  0.3169
  626SOL    HW2 2699   2.246   6.792   6.109  0.7916  1.0200 -0.9054
  627SOL     OW 2700   5.470   2.404   2.942 -0.3624 -0.4865  0.3913
  627SOL    HW1 2701   5.561   2.393   2.903 -0.2526  0.3051  0.4011
  627SOL    HW2 2702   5.466   2.359   3.031  0.9608  1.9631  1.7704
  628SOL     OW 2703   3.539   3.040   3.524  0.3072  0.2147 -0.2147
  628SOL    HW1 2704   3.621   2.993   3.556 -0.4367  0.2403  1.9363
  628SOL    HW2 2705   3.547   3.138   3.543  0.7122  0.6208 -2.1892
  629SOL     OW 2706   6.341   6.988   2.624 -0.1769  0.2464 -0.1504
  629SOL    HW1 2707   6.389   6.904   2.598 -1.6472 -0.2237 -1.5233
  629SOL    HW2 2708   6.242   6.973   2.616 -0.4468  2.3470 -1.2553
  630SOL     OW 2709   1.644   6.256   6.343  0.3648 -0.0582  0.8534
  630SOL    HW1 2710   1.588   6.175   6.364  0.2241 -0.0843  0.4103
  630SOL    HW2 2711   1.638   6.321   6.419 -1.7565  0.7395  0.0909
  631SOL     OW 2712   5.785   5.391   4.558  0.4693 -0.2954 -0.1548
  631SOL    HW1 2713   5.744   5.427   4.642 -0.0282 -1.6792  0.2214
  631SOL    HW2 2714   5.875   5.352   4.579  2.0912  2.6549 -0.9558
  632SOL     OW 2715   0.145   3.659   0.255 -0.0046  0.0934 -0.5572
  632SOL    HW1 2716   0.174   3.570   0.289  0.5177  0.4891  0.0485
  632SOL    HW2 2717   0.198   3.682   0.173  0.3596  0.1672 -0.3001
  633SOL     OW 2718   2.782   3.552   1.211  0.0731  0.1309 -0.0064
  633SOL    HW1 2719   2.695   3.519   1.173  0.2792 -0.4430  0.0144
  633SOL    HW2 2720   2.821   3.620   1.149  0.1528 -0.4210 -0.5722
  634SOL     OW 2721   4.737   4.769   0.264 -0.1762 -0.2002  0.1081
  634SOL    HW1 2722   4.663   4.816   0.314  3.0592  2.2310  3.0161
  634SOL    HW2 2723   4.747   4.676   0.299 -0.7815 -0.0006  0.8407
  635SOL     OW 2724   4.220   1.574   3.572  0.0538 -0.4811  0.0345
  635SOL    HW1 2725   4.253   1.509   3.504  2.2082  0.9721 -0.4352
  635SOL    HW2 2726   4.128   1.605   3.547  0.1212 -1.2312 -1.2633
  636SOL     OW 2727   0.585   4.698   6.146 -0.1124 -0.8659 -0.3840
  636SOL    HW1 2728   0.680   4.730   6.148  0.4240 -2.3846 -0.4308
  636SOL    HW2 2729   0.527   4.769   6.105  1.1139 -0.2054 -1.0350
  637SOL     OW 2730   1.909   5.722   0.338  0.3431 -0.3545  1.2090
  637SOL    HW1 2731   1.987   5.670   0.304 -0.8967 -0.8073 -1.1940
  637SOL    HW2 2732   1.924   5.820   0.320  0.1740 -0.4924  0.2215
  638SOL     OW 2733   2.096   4.098   2.457 -0.2018  0.3207 -0.3112
  638SOL    HW1 2734   2.077   4.000   2.452 -0.1527  0.3601 -1.6888
  638SOL    HW2 2735   2.016   4.149   2.426  0.2489  0.6549 -0.9507
  639SOL     OW 2736   4.348   6.513   4.296  0.4103 -0.0676 -0.0877
  639SOL    HW1 2737   4.292   6.559   4.227  1.2184 -0.8538 -1.3046
  639SOL    HW2 2738   4.368   6.577   4.370 -1.8751  0.2971  0.2954
  640SOL     OW 2739   4.994   0.901   0.688  0.2786  0.5341  0.3654
  640SOL    HW1 2740   5.080   0.902   0.637  0.6867 -1.9718  0.8443
  640SOL    HW2 2741   4.988   0.982   0.746  2.2681  0.8148  0.2629
  641SOL     OW 2742   4.880   3.903   5.441  0.2438  0.2183 -0.0873
  641SOL    HW1 2743   4.900   3.996   5.408  1.5016  0.9112  2.3436
  641SOL    HW2 2744   4.808   3.907   5.511 -2.3905 -1.1954 -2.5218
  642SOL     OW 2745   1.525   0.738   2.120  0.0856  0.6493  0.4790
  642SOL    HW1 2746   1.460   0.761   2.047 -1.6176  0.1723  1.7872
  642SOL    HW2 2747   1.501   0.649   2.159  2.6817 -0.4478 -0.2077
  643SOL     OW 2748   3.567   0.520   0.132  0.0122 -0.5488  0.1585
  643SOL    HW1 2749   3.640   0.545   0.195  0.5388 -1.3306 -0.1275
  643SOL    HW2 2750   3.499   0.464   0.180 -1.4420  1.7871  0.9389
  644SOL     OW 2751   6.101   1.312   0.328 -0.2084  0.7176 -0.8047
  644SOL    HW1 2752   6.094   1.396   0.381  1.3246 -0.5305  1.5037
  644SOL    HW2 2753   6.015   1.261   0.334 -0.6283  1.3925 -0.9799
  645SOL     OW 2754   0.182   5.137   4.305  0.2434 -0.3970 -0.4732
  645SOL    HW1 2755   0.144   5.057   4.260  0.1118  0.2538 -1.5504
  645SOL    HW2 2756   0.246   5.183   4.243  1.5821 -0.5759  0.7103
  646SOL     OW 2757   5.433   2.294   0.163  0.1276 -0.2609 -0.2816
  646SOL    HW1 2758   5.352   2.235   0.159  0.7821 -1.1722 -0.3865
  646SOL    HW2 2759   5.515   2.237   0.171  1.0806  0.4210 -3.7630
  647SOL     OW 2760   1.480   2.131   1.180 -0.3425  0.0283 -0.3331
  647SOL    HW1 2761   1.401   2.150   1.123 -1.1343  1.3390  1.1039
  647SOL    HW2 2762   1.454   2.139   1.277  1.5454  0.5446  0.1823
  648SOL     OW 2763   5.943   5.753   4.860 -0.1566  0.5052  0.7112
  648SOL    HW1 2764   5.982   5.757   4.952 -0.8185  0.0803  1.0167
  648SOL    HW2 2765   5.967   5.836   4.810  0.8082  0.4207  1.0215
  649SOL     OW 2766   0.658   5.877   3.086 -0.4578 -0.3037 -0.4129
  649SOL    HW1 2767   0.627   5.844   3.175 -0.5647 -0.4037 -0.4838
  649SOL    HW2 2768   0.695   5.969   3.095  1.9670 -1.2684  0.2016
  650SOL     OW 2769   6.442   6.899   1.474 -0.0289  0.3375 -0.3090
  650SOL    HW1 2770   6.350   6.864   1.459  0.4173 -0.1358 -2.1862
  650SOL    HW2 2771   6.501   6.825   1.505 -0.4261  0.8324  1.8319
  651SOL     OW 2772   6.124   1.958   1.849  0.2016 -0.1071  0.7648
  651SOL    HW1 2773   6.084   2.023   1.914 -0.5617 -0.8670  1.0783
  651SOL    HW2 2774   6.219   1.983   1.832 -0.5124  2.0667 -0.4261
  652SOL     OW 2775   5.027   5.132   3.931  0.1650 -0.0133  0.1383
  652SOL    HW1 2776   4.946   5.128   3.872 -0.7017 -1.7419  1.3279
  652SOL    HW2 2777   5.004   5.181   4.015 -0.5220 -2.5094  1.5488
  653SOL     OW 2778   1.174   0.345   0.647  0.2146  0.0084 -0.0709
  653SOL    HW1 2779   1.089   0.313   0.689  0.5292 -0.7423  0.0158
  653SOL    HW2 2780   1.239   0.269   0.643  0.8324  0.5416 -0.2497
  654SOL     OW 2781   0.259   4.033   3.581 -0.2821 -0.3953 -0.1215
  654SOL    HW1 2782   0.335   4.096   3.599  0.4208 -1.3834  0.4757
  654SOL    HW2 2783   0.216   4.056   3.494 -1.4550  2.2975  1.0450
  655SOL     OW 2784   4.251   1.220   6.950 -0.2424  0.6572  0.2261
  655SOL    HW1 2785   4.157   1.234   6.981 -0.3842 -1.7872  1.1453
  655SOL    HW2 2786   4.276   1.292   6.886 -4.3515 -1.0199 -3.7675
  656SOL     OW 2787   5.084   6.034   0.129  0.1519  0.4706  0.2603
  656SOL    HW1 2788   5.000   6.075   0.093 -0.5537 -0.4858  0.7559
  656SOL    HW2 2789   5.160   6.098   0.117  0.0034  0.2078 -2.9597
  657SOL     OW 2790   3.978   5.826   3.522 -0.0139  0.1686 -0.3121
  657SOL    HW1 2791   3.942   5.917   3.503  0.4425  0.4109 -0.0529
  657SOL    HW2 2792   3.907   5.758   3.505 -0.7399  0.6612  0.6371
  658SOL     OW 2793   4.927   2.741   6.177  0.5999  0.0920  0.1062
  658SOL    HW1 2794   4.927   2.732   6.277 -0.7310  0.3529  0.1420
  658SOL    HW2 2795   4.871   2.819   6.151  1.3031  0.2956 -0.8377
  659SOL     OW 2796   5.004   0.996   0.235 -0.4270  0.1183  0.1776
  659SOL    HW1 2797   5.028   0.913   0.287 -2.3495 -0.5615  0.0718
  659SOL    HW2 2798   5.076   1.015   0.168 -0.3357 -1.9964 -0.4155
  660SOL     OW 2799   3.417   1.314   1.400 -0.2227  0.0889  0.2092
  660SOL    HW1 2800   3.484   1.246   1.430 -0.8066 -1.5316 -1.8197
  660SOL    HW2 2801   3.345   1.322   1.469  0.0662 -1.1190  0.6971
  661SOL     OW 2802   4.640   0.249   3.807  0.3653 -0.1163  0.0259
  661SOL    HW1 2803   4.546   0.244   3.775 -0.1647 -0.5515  1.5398
  661SOL    HW2 2804   4.672   0.344   3.805  0.5093 -0.1670 -2.0754
  662SOL     OW 2805   0.900   5.367   6.221 -0.1609 -0.0749  0.1267
  662SOL    HW1 2806   0.930   5.310   6.297  0.0168 -1.1571 -0.7302
  662SOL    HW2 2807   0.978   5.415   6.181  0.2162 -1.6893 -1.1281
  663SOL     OW 2808   5.886   2.120   0.892  0.1709  0.7461 -0.4347
  663SOL    HW1 2809   5.935   2.150   0.810 -1.5619  2.8445 -0.7576
  663SOL    HW2 2810   5.867   2.022   0.886  0.4113  0.8031 -2.3592
  664SOL     OW 2811   4.100   0.341   3.606 -0.1164 -0.3803  0.2815
  664SOL    HW1 2812   4.070   0.250   3.577 -0.4747  0.1883 -1.2455
  664SOL    HW2 2813   4.027   0.407   3.587  0.5971  0.4105  0.2224
  665SOL     OW 2814   2.791   6.867   6.022 -0.0149  0.2151 -0.0759
  665SOL    HW1 2815   2.872   6.819   5.987 -1.0021 -0.5985 -1.2964
  665SOL    HW2 2816   2.710   6.810   6.010 -0.9715  1.5034  0.0025
  666SOL     OW 2817   0.580   5.011   2.107 -0.2576 -0.5116 -0.4030
  666SOL    HW1 2818   0.511   4.971   2.046  0.4563  0.9103 -2.2232
  666SOL    HW2 2819   0.547   5.007   2.201 -1.8652 -1.8114 -0.9592
  667SOL     OW 2820   4.543   4.003   6.445  0.3112 -0.3251  0.1354
  667SOL    HW1 2821   4.620   4.020   6.385  0.0540 -0.4359 -0.2294
  667SOL    HW2 2822   4.576   3.985   6.538  0.7122 -0.2773  0.0051
  668SOL     OW 2823   5.458   4.519   2.981  0.3928 -0.4342  0.0824
  668SOL    HW1 2824   5.466   4.421   2.996 -0.7305 -0.5428  0.1150
  668SOL    HW2 2825   5.390   4.557   3.043  1.2786  0.4893  0.5208
  669SOL     OW 2826   6.585   6.965   3.287  0.5055  0.3663  0.5148
  669SOL    HW1 2827   6.641   7.010   3.217  0.2876 -0.3036 -0.1189
  669SOL    HW2 2828   6.583   7.021   3.369  1.7700  0.5761  0.4235
  670SOL     OW 2829   0.175   1.118   3.923 -0.1880  0.0014  0.2467
  670SOL    HW1 2830   0.246   1.188   3.919  0.9766 -1.1011  0.8305
  670SOL    HW2 2831   0.213   1.030   3.894 -0.7226 -1.0536  2.4936
  671SOL     OW 2832   5.670   2.377   5.637  0.1662 -0.1483 -0.1511
  671SOL    HW1 2833   5.720   2.460   5.659  0.0709  0.1027 -0.8425
  671SOL    HW2 2834   5.732   2.298   5.639  0.3139 -0.0202  0.2357
  672SOL     OW 2835   1.429   1.086   3.165  0.3773  0.2110  0.2598
  672SOL    HW1 2836   1.517   1.132   3.152  0.7814 -0.6051  0.0318
  672SOL    HW2 2837   1.442   1.007   3.225 -0.0722 -0.2951 -0.2976
  673SOL     OW 2838   4.082   5.245   2.365  0.2887 -0.1964  0.1568
  673SOL    HW1 2839   4.105   5.168   2.425 -0.0275 -0.1450  0.3566
  673SOL    HW2 2840   4.056   5.210   2.275  3.4589 -0.1608 -0.8912
  674SOL     OW 2841   3.829   0.011   4.706  0.4613 -0.3442 -0.1571
  674SOL    HW1 2842   3.853  -0.047   4.785 -1.3634 -0.5596  0.2448
  674SOL    HW2 2843   3.750  -0.027   4.659  0.3187  0.8734 -0.9437
  675SOL     OW 2844   0.109   2.805   5.605  0.1433 -0.4514  0.0835
  675SOL    HW1 2845   0.123   2.886   5.662 -0.6958 -0.8053  0.8144
  675SOL    HW2 2846   0.095   2.725   5.664 -1.5237 -0.6867 -0.5737
  676SOL     OW 2847   1.284   3.936   1.781  0.4459  0.2113  0.6051
  676SOL    HW1 2848   1.274   3.968   1.687 -0.1162 -0.7087  0.3441
  676SOL    HW2 2849   1.379   3.944   1.809  0.6478  0.3428 -0.0988
  677SOL     OW 2850   1.812   1.395   6.695 -0.4872 -0.1232 -0.0820
  677SOL    HW1 2851   1.753   1.404   6.615 -1.1877  1.8935  0.6086
  677SOL    HW2 2852   1.772   1.443   6.772  2.4234  2.2266  0.1826
  678SOL     OW 2853   3.254   2.628   1.728  0.1651  1.1394 -0.0596
  678SOL    HW1 2854   3.262   2.699   1.797 -0.1435  2.2455 -1.1326
  678SOL    HW2 2855   3.226   2.668   1.641 -1.7811 -0.5234 -0.2674
  679SOL     OW 2856   0.916   3.234   3.865  0.0026  0.3048  0.2850
  679SOL    HW1 2857   0.972   3.295   3.809  0.0061  2.3020  2.2799
  679SOL    HW2 2858   0.827   3.276   3.882 -0.1173 -0.3507  1.4727
  680SOL     OW 2859   3.235   0.568   3.210  0.1679  0.5609 -0.3267
  680SOL    HW1 2860   3.296   0.509   3.158  0.1950  0.6586 -0.4077
  680SOL    HW2 2861   3.258   0.664   3.193  2.1747  0.6398  2.2314
  681SOL     OW 2862   3.894   6.630   3.369  0.2481  0.0435 -0.3819
  681SOL    HW1 2863   3.887   6.701   3.298  0.7205  0.5400  0.0550
  681SOL    HW2 2864   3.820   6.642   3.435  1.4878  1.4432  0.8351
  682SOL     OW 2865   1.082   5.353   1.024  0.2092 -0.2556 -0.0692
  682SOL    HW1 2866   1.082   5.291   1.103  0.9058 -1.4422 -0.9471
  682SOL    HW2 2867   0.991   5.352   0.982  0.2142 -0.7321 -0.0905
  683SOL     OW 2868   5.376   5.574   2.624 -0.0808  0.3970 -0.2383
  683SOL    HW1 2869   5.443   5.645   2.643 -0.8926  0.7088  1.7867
  683SOL    HW2 2870   5.423   5.485   2.620  0.5785  0.7026  0.3370
  684SOL     OW 2871   1.615   6.830   5.745 -0.3484  0.1968  0.2690
  684SOL    HW1 2872   1.639   6.801   5.837 -0.9428 -0.5923  0.1866
  684SOL    HW2 2873   1.553   6.909   5.749 -0.3946  0.1444  0.5446
  685SOL     OW 2874   2.036   1.312   3.725  0.4286 -0.5459  0.2675
  685SOL    HW1 2875   1.973   1.241   3.760 -0.1982 -0.4875 -0.7074
  685SOL    HW2 2876   2.015   1.399   3.771 -1.2957 -0.1550 -1.1514
  686SOL     OW 2877   3.814   2.273   0.059 -0.4429 -0.4386 -0.3426
  686SOL    HW1 2878   3.752   2.253  -0.017  0.4973  3.1132 -2.2652
  686SOL    HW2 2879   3.908   2.252   0.033 -0.2489 -0.6922  0.4882
  687SOL     OW 2880   4.151   3.833   5.321 -0.3554 -0.2626  0.1732
  687SOL    HW1 2881   4.096   3.906   5.280  0.1760  0.7230  1.1490
  687SOL    HW2 2882   4.244   3.836   5.284 -0.7646 -1.5183 -1.0042
  688SOL     OW 2883   2.098   6.968   4.234  0.5292  0.1912 -0.0054
  688SOL    HW1 2884   2.088   6.870   4.221 -0.4264  0.3181 -0.3172
  688SOL    HW2 2885   2.065   6.994   4.325 -0.4334  0.3919 -0.4054
  689SOL     OW 2886   1.806   0.821   6.187 -0.1139  0.4544 -0.5730
  689SOL    HW1 2887   1.735   0.856   6.126 -0.1279  0.0227 -0.8009
  689SOL    HW2 2888   1.832   0.893   6.252 -0.4145  0.7693 -0.7995
  690SOL     OW 2889   2.507   2.872   0.177 -0.9156 -0.0432  0.6392
  690SOL    HW1 2890   2.504   2.957   0.229  0.6396 -0.3446  1.2935
  690SOL    HW2 2891   2.560   2.803   0.228  0.7822 -0.3166 -1.3558
  691SOL     OW 2892   0.662   4.659   1.987  0.1507  0.3272  0.2387
  691SOL    HW1 2893   0.707   4.745   2.014 -0.4858  0.4152  1.0431
  691SOL    HW2 2894   0.727   4.584   1.996  0.1883  0.4688  1.2916
  692SOL     OW 2895   0.474   1.389   6.854  0.4186 -0.6133 -0.7305
  692SOL    HW1 2896   0.378   1.364   6.866  0.5398 -1.2063 -0.9655
  692SOL    HW2 2897   0.500   1.375   6.758  0.1809  1.5104 -1.1564
  693SOL     OW 2898   0.896   5.696   4.145 -0.2170 -0.1081 -0.0060
  693SOL    HW1 2899   0.945   5.696   4.232  0.2518 -1.7179 -0.2393
  693SOL    HW2 2900   0.808   5.741   4.156 -0.2564 -0.4843  1.3540
  694SOL     OW 2901   4.818   3.353   6.745  0.1328  0.8716  0.1331
  694SOL    HW1 2902   4.803   3.294   6.825  1.3839  0.2832 -0.0534
  694SOL    HW2 2903   4.734   3.357   6.691  0.0817 -0.9254  0.0245
  695SOL     OW 2904   6.139   2.430   5.000 -0.0512 -0.6390 -0.5378
  695SOL    HW1 2905   6.146   2.334   5.028 -0.6379 -0.7952 -0.8840
  695SOL    HW2 2906   6.169   2.439   4.905  2.0132 -0.1010  0.1165
  696SOL     OW 2907   5.721   5.838   0.187  0.2596 -0.2229  0.3557
  696SOL    HW1 2908   5.712   5.793   0.098  2.9550 -3.2936  1.4412
  696SOL    HW2 2909   5.749   5.933   0.174  1.4142 -0.8250 -2.0923
  697SOL     OW 2910   1.475   3.411   6.539  0.2461  0.0400  0.0406
  697SOL    HW1 2911   1.509   3.483   6.478 -0.5447 -0.3923 -0.9329
  697SOL    HW2 2912   1.534   3.405   6.619  1.5069  0.3886 -0.8361
  698SOL     OW 2913   4.136   2.095   7.006 -0.2090 -0.3775 -0.4065
  698SOL    HW1 2914   4.137   2.157   7.085  0.4523  1.4445 -1.7979
  698SOL    HW2 2915   4.188   2.136   6.931  2.6102 -3.7822 -0.5716
  699SOL     OW 2916   5.343   1.379   2.311  0.5460 -0.1030 -0.4273
  699SOL    HW1 2917   5.302   1.411   2.397  1.7620  0.7259 -0.1266
  699SOL    HW2 2918   5.323   1.445   2.238  1.9849  0.7395 -0.0955
  700SOL     OW 2919   4.407   6.040   1.699  0.5294  0.4135  0.4715
  700SOL    HW1 2920   4.402   6.055   1.798 -0.8635  2.5091  0.1391
  700SOL    HW2 2921   4.404   6.129   1.652  3.6325 -0.3465 -1.4124
  701SOL     OW 2922   2.115   0.672   1.939  0.0029  0.0256 -0.4966
  701SOL    HW1 2923   2.023   0.705   1.955 -0.2541  0.1913 -2.0885
  701SOL    HW2 2924   2.151   0.631   2.023 -2.2676 -1.8655 -0.3368
  702SOL     OW 2925   2.260   2.463   5.855  0.7533  0.0876 -0.3776
  702SOL    HW1 2926   2.286   2.555   5.885 -0.6009  0.8353 -1.3880
  702SOL    HW2 2927   2.244   2.405   5.935 -4.4784  2.4936  0.7996
  703SOL     OW 2928   2.431   3.446   3.722  0.4884  0.6418 -0.2178
  703SOL    HW1 2929   2.477   3.504   3.790  0.6561  0.5684 -0.2669
  703SOL    HW2 2930   2.476   3.456   3.634  1.2961 -0.5047  0.0340
  704SOL     OW 2931   4.093   6.074   2.615  0.4347  0.0255  0.4051
  704SOL    HW1 2932   4.008   6.061   2.564  0.3591  1.0748  0.2455
  704SOL    HW2 2933   4.143   5.988   2.617 -0.1992 -0.3768 -0.2744
  705SOL     OW 2934   5.556   1.411   5.661 -0.0789 -0.1825 -0.9456
  705SOL    HW1 2935   5.601   1.482   5.716 -1.2763  0.2009 -0.4270
  705SOL    HW2 2936   5.463   1.441   5.638 -0.4104 -1.3522 -1.1743
  706SOL     OW 2937   5.674   0.986   3.667  0.3326 -0.5496 -0.0007
  706SOL    HW1 2938   5.602   1.020   3.606  0.1721  0.5817  0.7858
  706SOL    HW2 2939   5.716   0.905   3.627 -1.9766 -1.7862 -0.0877
  707SOL     OW 2940   2.835   1.514   5.710  0.0457  0.1517 -0.0048
  707SOL    HW1 2941   2.898   1.556   5.775  0.6378 -1.5291  0.5545
  707SOL    HW2 2942   2.826   1.573   5.629  2.4017  0.4208 -0.1413
  708SOL     OW 2943   2.087   2.900   4.748 -0.2532  0.7888 -0.7658
  708SOL    HW1 2944   2.166   2.860   4.795  0.4837  2.4369 -0.5147
  708SOL    HW2 2945   2.010   2.907   4.811 -0.8155 -1.2652 -1.1369
  709SOL     OW 2946   6.403   3.139   4.346 -0.6446 -0.0038 -0.1634
  709SOL    HW1 2947   6.375   3.153   4.441 -1.3708  1.3596 -0.5514
  709SOL    HW2 2948   6.409   3.041   4.327  1.8519 -0.3741  1.9309
  710SOL     OW 2949   0.992   3.202   6.344  0.2642 -0.5077 -0.1739
  710SOL    HW1 2950   0.939   3.255   6.278  1.8162  0.3795 -0.7554
  710SOL    HW2 2951   1.074   3.166   6.299  0.1673 -1.8661  0.6964
  711SOL     OW 2952   5.834   6.857   0.808 -0.3370  1.0019  0.1113
  711SOL    HW1 2953   5.735   6.868   0.821 -0.4454 -0.0146  0.1230
  711SOL    HW2 2954   5.882   6.915   0.874 -0.9249 -1.0029  2.4456
  712SOL     OW 2955   6.410   1.189   1.772 -0.1962 -0.2824 -0.2939
  712SOL    HW1 2956   6.353   1.261   1.810 -0.6215 -1.2667  1.0285
  712SOL    HW2 2957   6.358   1.138   1.703 -0.1526  0.1895 -0.6776
  713SOL     OW 2958   2.316   3.894   6.999 -0.4133 -0.1362  0.5297
  713SOL    HW1 2959   2.368   3.813   6.972  1.7888  0.9855  1.1334
  713SOL    HW2 2960   2.354   3.975   6.953 -1.7141  0.7520  0.9275
  714SOL     OW 2961   0.945   6.372   1.554  0.2907 -0.6519 -0.3978
  714SOL    HW1 2962   0.955   6.446   1.621  0.1844  0.7354 -1.8509
  714SOL    HW2 2963   0.990   6.290   1.589 -0.1189 -0.1156  1.5472
  715SOL     OW 2964   6.864   3.755   1.141  0.1181  0.2266  0.3412
  715SOL    HW1 2965   6.901   3.670   1.105  0.5931  0.4259  0.3502
  715SOL    HW2 2966   6.811   3.736   1.223 -1.0846 -0.2486 -0.5234
  716SOL     OW 2967   2.372   6.965   3.100 -0.0471 -0.2804  0.1774
  716SOL    HW1 2968   2.454   6.918   3.067  0.3933  0.6137 -0.0827
  716SOL    HW2 2969   2.367   6.959   3.199  1.3324  1.1612  0.3678
  717SOL     OW 2970   4.642   0.805   2.592  0.0292 -0.6264  0.3065
  717SOL    HW1 2971   4.741   0.797   2.605  0.4816  1.2370 -1.4638
  717SOL    HW2 2972   4.595   0.765   2.670  2.2042 -0.7058  1.6617
  718SOL     OW 2973   1.708   2.250   1.146 -0.4559 -0.3036 -0.4239
  718SOL    HW1 2974   1.622   2.202   1.163 -1.2507  0.7401 -1.3723
  718SOL    HW2 2975   1.779   2.213   1.206 -1.8491 -0.3245  1.2845
  719SOL     OW 2976   6.920   4.287   2.324  0.5632 -0.6036  0.6280
  719SOL    HW1 2977   6.925   4.288   2.225  1.0975  0.0634  0.6582
  719SOL    HW2 2978   7.001   4.242   2.361 -0.2456 -2.0115  0.7319
  720SOL     OW 2979   2.362   0.763   5.980 -0.2308  0.5881  0.1891
  720SOL    HW1 2980   2.374   0.664   5.979 -1.0004  0.4358  1.9354
  720SOL    HW2 2981   2.421   0.803   6.050 -0.3969  1.3047 -0.0681
  721SOL     OW 2982   4.044   5.435   3.874 -0.4486  0.5537  0.1960
  721SOL    HW1 2983   4.077   5.505   3.811 -1.0666  1.7257  1.1384
  721SOL    HW2 2984   4.007   5.478   3.956 -1.1617 -0.8684  0.6589
  722SOL     OW 2985   2.268   0.431   4.207 -0.1921 -0.3603 -0.1570
  722SOL    HW1 2986   2.280   0.332   4.213  1.5571 -0.2056 -0.5814
  722SOL    HW2 2987   2.356   0.474   4.185 -0.6267  1.4102  1.3551
  723SOL     OW 2988   0.895   1.233   2.649 -0.1330 -0.3321 -0.9652
  723SOL    HW1 2989   0.944   1.249   2.564  1.8432  2.0529  0.4751
  723SOL    HW2 2990   0.844   1.315   2.674 -1.9169 -1.5089 -0.5571
  724SOL     OW 2991   0.133   6.633   4.596 -0.3017  0.6359 -0.1447
  724SOL    HW1 2992   0.208   6.590   4.545 -1.5371  0.3672 -1.8541
  724SOL    HW2 2993   0.149   6.731   4.603 -1.5623  1.2555 -3.9818
  725SOL     OW 2994   6.900   6.596   6.241 -0.3506 -0.0935 -0.0417
  725SOL    HW1 2995   6.828   6.536   6.205 -0.9014  0.8214 -0.5313
  725SOL    HW2 2996   6.976   6.541   6.274 -0.5134 -1.0412 -1.1659
  726SOL     OW 2997   2.345   3.161   1.580  0.1525 -0.2346 -0.2152
  726SOL    HW1 2998   2.282   3.180   1.505 -0.7055 -0.1210  0.5154
  726SOL    HW2 2999   2.439   3.181   1.552 -0.3731  1.9362 -0.5386
  727SOL     OW 3000   6.133   1.177   2.257 -0.5111 -0.0252 -0.2852
  727SOL    HW1 3001   6.188   1.232   2.194  0.8700 -0.1786  0.7372
  727SOL    HW2 3002   6.086   1.237   2.321  1.6477  0.0561  1.3646
  728SOL     OW 3003   2.165   5.330   3.553 -0.7661  0.2758  1.0924
  728SOL    HW1 3004   2.114   5.386   3.488 -1.0874  0.3979  1.4462
  728SOL    HW2 3005   2.222   5.264   3.502 -0.3686  0.9229  0.6723
  729SOL     OW 3006   6.997   4.971   3.536  0.6166  0.3645  0.4301
  729SOL    HW1 3007   6.903   4.998   3.515  0.0618 -1.8572 -0.2879
  729SOL    HW2 3008   7.060   5.030   3.485 -0.5917 -0.8156 -2.7330
  730SOL     OW 3009   1.653   2.318   4.748  0.1591  0.7597 -0.3206
  730SOL    HW1 3010   1.705   2.319   4.662 -1.2828  1.7148 -1.2321
  730SOL    HW2 3011   1.683   2.241   4.804  0.6192 -0.3651 -2.0130
  731SOL     OW 3012   5.267   5.814   1.097 -0.1268 -0.7450 -0.3277
  731SOL    HW1 3013   5.256   5.914   1.099 -0.2246 -0.7571 -0.1733
  731SOL    HW2 3014   5.200   5.772   1.158  0.6691 -0.8390  0.5116
  732SOL     OW 3015   6.266   4.922   5.892  0.0388 -0.4146 -0.6512
  732SOL    HW1 3016   6.357   4.918   5.933  0.2709  0.2350 -1.0971
  732SOL    HW2 3017   6.269   4.883   5.800 -0.1368 -0.4302 -0.6524
  733SOL     OW 3018   1.626   0.566   6.462 -0.5072  0.0937  0.1225
  733SOL    HW1 3019   1.666   0.476   6.446  0.8910  0.8727 -1.0261
  733SOL    HW2 3020   1.655   0.600   6.552 -1.1698 -0.6385  0.6286
  734SOL     OW 3021   3.755   5.141   5.501  0.3181 -0.3019  0.0167
  734SOL    HW1 3022   3.671   5.125   5.448 -0.6017  0.3389  1.2336
  734SOL    HW2 3023   3.798   5.225   5.470 -0.4444  0.2977  0.5276
  735SOL     OW 3024   5.962   1.479   6.625 -0.0644  0.2503  0.0724
  735SOL    HW1 3025   5.920   1.406   6.572 -0.3957 -0.1535  0.8688
  735SOL    HW2 3026   6.046   1.509   6.580 -0.2419 -0.2090 -0.5737
  736SOL     OW 3027   4.191   2.134   6.721  0.2293 -0.3803 -0.4361
  736SOL    HW1 3028   4.282   2.147   6.682  1.0508 -2.0670  0.8014
  736SOL    HW2 3029   4.139   2.219   6.711  1.6267  0.3756 -1.8873
  737SOL     OW 3030   0.252   2.223   6.824 -0.2518 -0.3386  0.0054
  737SOL    HW1 3031   0.273   2.321   6.827  0.0890 -0.4199  0.4870
  737SOL    HW2 3032   0.237   2.195   6.729  2.3511 -0.3584 -0.4866
  738SOL     OW 3033   1.552   1.582   1.532  0.2163  0.3746 -0.4869
  738SOL    HW1 3034   1.454   1.583   1.511  0.5439  0.1585 -2.1311
  738SOL    HW2 3035   1.593   1.668   1.500  0.4682  0.7636  0.8053
  739SOL     OW 3036   0.645   3.707   0.518 -0.1863  0.0241 -0.2142
  739SOL    HW1 3037   0.583   3.676   0.589 -1.8620  0.5926 -1.3513
  739SOL    HW2 3038   0.631   3.653   0.435  0.2223  0.7400 -0.7660
  740SOL     OW 3039   2.317   5.008   5.329  0.1883  0.1003  0.4486
  740SOL    HW1 3040   2.415   4.989   5.329 -0.1211 -1.6488  0.4391
  740SOL    HW2 3041   2.268   4.931   5.368 -1.2303  0.7843  0.0815
  741SOL     OW 3042   6.565   0.171   1.726 -0.4614  0.3977  0.0387
  741SOL    HW1 3043   6.472   0.197   1.756 -0.7364 -0.5174 -0.0055
  741SOL    HW2 3044   6.581   0.075   1.748  0.1362  0.2959 -0.8132
  742SOL     OW 3045   1.625   6.475   0.147 -0.0904  0.0568 -0.2792
  742SOL    HW1 3046   1.640   6.534   0.068  1.2632 -0.3598 -0.3758
  742SOL    HW2 3047   1.714   6.454   0.190 -0.6001 -1.2885  0.1772
  743SOL     OW 3048   5.651   2.115   3.053  0.4110 -0.0156 -0.2087
  743SOL    HW1 3049   5.595   2.162   3.121  1.5543 -0.3052  0.9510
  743SOL    HW2 3050   5.703   2.183   3.000  1.7266  0.1033  1.1694
  744SOL     OW 3051   1.622   3.122   2.453 -0.0635 -0.0622 -0.1682
  744SOL    HW1 3052   1.603   3.026   2.432 -1.5315  0.3133 -0.7220
  744SOL    HW2 3053   1.654   3.130   2.547  0.2282 -1.0990 -0.1638
  745SOL     OW 3054   6.410   4.323   6.077 -0.1051  0.4732 -0.3791
  745SOL    HW1 3055   6.469   4.285   6.005 -0.3265  1.5605 -1.1729
  745SOL    HW2 3056   6.455   4.401   6.119  0.1509 -0.3479  0.9094
  746SOL     OW 3057   5.761   0.749   3.566  0.4691  0.0953 -0.0961
  746SOL    HW1 3058   5.823   0.723   3.640  0.3734  0.2575  0.0440
  746SOL    HW2 3059   5.762   0.679   3.495  1.6152  0.5993 -0.6086
  747SOL     OW 3060   1.497   0.450   5.145  0.0496 -0.3999 -0.0300
  747SOL    HW1 3061   1.419   0.416   5.092  0.2767 -0.0556 -0.5959
  747SOL    HW2 3062   1.472   0.536   5.189  0.5623  0.5172 -1.4428
  748SOL     OW 3063   2.476   1.845   4.730  0.6639 -0.7274  0.5113
  748SOL    HW1 3064   2.397   1.890   4.690  2.0781 -0.3312 -2.0348
  748SOL    HW2 3065   2.447   1.764   4.781 -1.2804 -1.1785 -1.2379
  749SOL     OW 3066   4.217   3.666   6.232  0.1201 -0.1500 -0.4275
  749SOL    HW1 3067   4.126   3.707   6.226 -1.1081 -2.4773  0.6052
  749SOL    HW2 3068   4.279   3.728   6.279 -1.1484  1.2155 -0.5076
  750SOL     OW 3069   4.225   2.132   3.397  0.1781 -0.0289 -0.1734
  750SOL    HW1 3070   4.181   2.185   3.470  0.8029 -0.5782  0.6338
  750SOL    HW2 3071   4.169   2.136   3.314 -1.6522 -1.1419  0.9509
  751SOL     OW 3072   0.346   5.060   0.915 -0.3386 -0.3254  0.0649
  751SOL    HW1 3073   0.250   5.033   0.916 -0.6368  0.6291 -1.1556
  751SOL    HW2 3074   0.400   4.991   0.867 -0.7226  0.0361 -0.9157
  752SOL     OW 3075   4.355   6.357   0.718  0.2726 -0.7315 -0.6260
  752SOL    HW1 3076   4.313   6.342   0.629 -0.5224 -3.1047  0.0665
  752SOL    HW2 3077   4.420   6.432   0.712 -1.2834  0.5452 -2.6681
  753SOL     OW 3078   3.102   4.506   3.367  0.0267 -0.2016  0.4410
  753SOL    HW1 3079   3.133   4.518   3.462  1.2245  1.5452 -0.1148
  753SOL    HW2 3080   3.135   4.583   3.312 -1.4714 -0.6767 -1.2012
  754SOL     OW 3081   2.279   1.267   5.983 -0.3319  0.8396  0.3756
  754SOL    HW1 3082   2.306   1.358   5.952 -0.7363  1.3078  1.3225
  754SOL    HW2 3083   2.184   1.249   5.955 -0.1216  0.5376 -0.1572
  755SOL     OW 3084   4.470   5.025   6.947  0.1011 -0.2114  0.7740
  755SOL    HW1 3085   4.545   5.049   6.885  1.6192  0.8946  2.9301
  755SOL    HW2 3086   4.475   4.928   6.969  1.5273  0.0493  1.6639
  756SOL     OW 3087   0.313   5.055   1.540  0.6995  0.6652  0.1911
  756SOL    HW1 3088   0.408   5.085   1.539  1.6870 -2.2182 -1.9483
  756SOL    HW2 3089   0.273   5.065   1.449 -0.5856  0.4415  0.7068
  757SOL     OW 3090   2.378   2.109   0.114  0.2612 -0.3170  0.3872
  757SOL    HW1 3091   2.325   2.188   0.083 -0.6710 -1.4667 -1.1993
  757SOL    HW2 3092   2.316   2.033   0.134  1.2339 -1.5374 -0.9669
  758SOL     OW 3093   6.664   1.048   4.483  0.2281  0.2542  0.2291
  758SOL    HW1 3094   6.739   1.063   4.418 -0.7924 -0.1609 -1.0801
  758SOL    HW2 3095   6.634   0.953   4.478  1.0687 -0.1637  2.3628
  759SOL     OW 3096   6.086   4.170   4.205  0.1677  0.0787 -0.2742
  759SOL    HW1 3097   6.183   4.179   4.229  0.1180 -1.1088  0.4541
  759SOL    HW2 3098   6.078   4.136   4.112  0.4387  0.1803 -0.3406
  760SOL     OW 3099   2.659   2.060   2.156 -0.3401  0.4891  0.0014
  760SOL    HW1 3100   2.726   2.128   2.126 -0.7195  0.5550 -0.7175
  760SOL    HW2 3101   2.704   1.972   2.168  0.0813  0.7767  0.5720
  761SOL     OW 3102   1.062   3.405   3.333  0.1771 -0.4065 -0.0661
  761SOL    HW1 3103   1.053   3.426   3.236  0.7145 -0.5737 -0.1559
  761SOL    HW2 3104   1.010   3.472   3.387  1.2556  0.7120 -0.3897
  762SOL     OW 3105   3.045   1.470   3.217  0.3253 -0.0196 -0.7690
  762SOL    HW1 3106   2.994   1.441   3.135 -0.5511  0.3316 -0.3579
  762SOL    HW2 3107   3.121   1.528   3.189  1.0994 -1.3078 -1.4767
  763SOL     OW 3108   6.782   0.327   0.338  0.2687  0.1651  0.4564
  763SOL    HW1 3109   6.757   0.354   0.245 -0.1847  0.1006  0.5573
  763SOL    HW2 3110   6.831   0.240   0.336  0.1213  0.0842  0.2906
  764SOL     OW 3111   3.725   0.823   6.087 -0.0545 -0.1808  0.2809
  764SOL    HW1 3112   3.821   0.829   6.112 -0.3088  0.5594  1.1772
  764SOL    HW2 3113   3.679   0.909   6.111 -1.1824 -0.9511  1.0247
  765SOL     OW 3114   5.090   2.776   5.927  0.0703  0.1500  0.8094
  765SOL    HW1 3115   5.028   2.781   6.005 -0.3420  0.9779  0.4486
  765SOL    HW2 3116   5.130   2.867   5.911 -0.2543  0.1115 -0.2586
  766SOL     OW 3117   0.254   1.478   1.248  0.5436  0.1049  0.4441
  766SOL    HW1 3118   0.192   1.399   1.246  2.1254 -1.1898  0.5846
  766SOL    HW2 3119   0.205   1.557   1.286 -0.8828 -0.9648  0.9637
  767SOL     OW 3120   1.454   6.335   4.836  0.0252  0.4619  0.1178
  767SOL    HW1 3121   1.543   6.296   4.858  1.4910  1.6037 -3.0620
  767SOL    HW2 3122   1.453   6.432   4.861 -0.5423  0.3426  0.6000
  768SOL     OW 3123   0.883   5.713   6.333  0.6564  0.0753  0.1958
  768SOL    HW1 3124   0.940   5.631   6.331 -1.1337 -1.2167 -1.7274
  768SOL    HW2 3125   0.844   5.729   6.242 -1.1000  1.5624  1.1418
  769SOL     OW 3126   3.895   0.781   6.896  0.0716  0.5099 -0.0892
  769SOL    HW1 3127   3.957   0.802   6.821  0.4890  1.5718  0.5405
  769SOL    HW2 3128   3.911   0.844   6.972  0.1729 -1.0056  1.1949
  770SOL     OW 3129   0.346   0.938   6.536  0.2411  0.5373 -0.3960
  770SOL    HW1 3130   0.400   0.864   6.577 -2.3782 -2.1985 -1.4527
  770SOL    HW2 3131   0.324   0.915   6.441 -1.1936  2.4391 -0.5892
  771SOL     OW 3132   0.333   6.535   6.534  0.0920 -0.3884  0.6951
  771SOL    HW1 3133   0.351   6.437   6.527  0.5932 -0.2315 -0.6159
  771SOL    HW2 3134   0.418   6.586   6.519 -0.4294  0.2695 -0.1994
  772SOL     OW 3135   5.915   6.566   4.729  0.5089 -0.4621 -0.1540
  772SOL    HW1 3136   5.838   6.504   4.745 -0.6585  1.1014  0.6910
  772SOL    HW2 3137   5.974   6.529   4.658 -1.5928 -1.2664 -1.5509
  773SOL     OW 3138   2.926   6.736   6.407  0.3698  0.1426 -0.1132
  773SOL    HW1 3139   2.957   6.702   6.496  2.3667  2.2018  0.0776
  773SOL    HW2 3140   2.947   6.669   6.337  1.8839 -0.1652  0.5703
  774SOL     OW 3141   5.952   6.597   0.734  0.0928 -0.6479  0.1880
  774SOL    HW1 3142   5.927   6.694   0.736  3.4944  0.4667 -1.9771
  774SOL    HW2 3143   5.900   6.550   0.664 -0.8794 -0.1728  0.5725
  775SOL     OW 3144   0.867   4.461   4.331 -0.7192  0.0906 -0.1930
  775SOL    HW1 3145   0.798   4.528   4.359 -0.9119  0.3675 -1.2975
  775SOL    HW2 3146   0.832   4.406   4.255  0.9483  1.4865 -2.0404
  776SOL     OW 3147   4.692   1.308   3.184  0.0862 -0.3691  0.1206
  776SOL    HW1 3148   4.693   1.238   3.113  0.3709 -0.8243  0.5654
  776SOL    HW2 3149   4.779   1.307   3.234  0.4135  0.8543 -0.3899
  777SOL     OW 3150   0.630   4.202   3.448  0.1367 -0.5188 -0.1245
  777SOL    HW1 3151   0.651   4.299   3.443 -0.4855 -0.2118  2.1012
  777SOL    HW2 3152   0.715   4.150   3.461  0.3823 -0.2047 -0.4404
  778SOL     OW 3153   5.095   4.007   4.824  0.0233  0.4209  0.2060
  778SOL    HW1 3154   5.137   3.937   4.766  0.0096  1.3281 -0.9238
  778SOL    HW2 3155   5.056   4.079   4.767 -2.0843  0.1918  1.2441
  779SOL     OW 3156   0.875   5.223   5.421 -0.1149  0.6504 -0.4969
  779SOL    HW1 3157   0.933   5.157   5.372  1.3281  0.7067  1.0494
  779SOL    HW2 3158   0.786   5.182   5.438  0.6600 -0.8444  0.1834
  780SOL     OW 3159   6.146   3.034   6.971  0.8099 -0.1872 -0.4077
  780SOL    HW1 3160   6.122   2.964   6.903  0.1996 -0.6462  0.2496
  780SOL    HW2 3161   6.206   2.993   7.040  0.8740  0.0819 -0.3338
  781SOL     OW 3162   1.706   6.684   5.966 -0.0011 -0.1388 -0.0887
  781SOL    HW1 3163   1.774   6.685   6.039 -0.6911  0.9006  0.5616
  781SOL    HW2 3164   1.629   6.627   5.992  0.9037 -1.9081 -1.1244
  782SOL     OW 3165   3.690   1.562   0.296 -0.2865 -0.0390 -0.3291
  782SOL    HW1 3166   3.737   1.476   0.318 -0.1562 -0.4851 -2.1818
  782SOL    HW2 3167   3.746   1.615   0.233 -0.9081  0.8469 -0.1516
  783SOL     OW 3168   2.793   1.315   4.927  0.2310  0.0325  0.2779
  783SOL    HW1 3169   2.753   1.271   4.846  2.0169  0.3519 -0.8306
  783SOL    HW2 3170   2.845   1.396   4.899  0.4776  0.4374  1.8109
  784SOL     OW 3171   2.768   6.961   0.167  0.0563 -0.5097 -0.2635
  784SOL    HW1 3172   2.833   6.942   0.241  2.1693  1.1126 -1.5798
  784SOL    HW2 3173   2.793   6.907   0.086 -0.6409 -0.3386 -0.5985
  785SOL     OW 3174   6.347   2.858   4.282 -0.1912  0.1516  0.7884
  785SOL    HW1 3175   6.363   2.836   4.186  0.9143  0.1404  0.9566
  785SOL    HW2 3176   6.313   2.778   4.330  2.0639 -0.7311  1.0194
  786SOL     OW 3177   6.488   3.464   2.069  0.6461  0.3269  0.3372
  786SOL    HW1 3178   6.398   3.444   2.029  0.7766  0.9137 -0.2692
  786SOL    HW2 3179   6.529   3.542   2.021  1.1094  0.6063  1.1654
  787SOL     OW 3180   2.565   3.440   3.494 -0.1990 -0.3606 -0.0385
  787SOL    HW1 3181   2.559   3.418   3.397 -1.0412 -1.4152  0.2343
  787SOL    HW2 3182   2.617   3.369   3.541  1.2266  0.7423  0.1191
  788SOL     OW 3183   5.652   2.947   5.125  0.2627 -0.1177 -0.6238
  788SOL    HW1 3184   5.612   2.860   5.097 -0.7303  0.3554 -0.7099
  788SOL    HW2 3185   5.710   2.983   5.052 -1.1680  0.4064 -1.5402
  789SOL     OW 3186   6.136   0.667   3.549 -0.1270 -0.4078  0.3893
  789SOL    HW1 3187   6.206   0.614   3.501 -1.4317  0.7655 -3.1692
  789SOL    HW2 3188   6.151   0.764   3.531 -2.5881 -0.1255 -0.4653
  790SOL     OW 3189   2.684   3.705   1.412 -0.2209 -0.4508  0.2206
  790SOL    HW1 3190   2.607   3.765   1.391  0.3162  0.3851  0.5954
  790SOL    HW2 3191   2.715   3.659   1.329 -0.1854  0.3328 -0.2048
  791SOL     OW 3192   5.930   3.081   4.462  0.1000  0.0174 -0.2002
  791SOL    HW1 3193   6.012   3.050   4.510 -0.0559  0.2072  0.1960
  791SOL    HW2 3194   5.947   3.171   4.420  0.4143 -0.4009 -0.9832
  792SOL     OW 3195   0.021   5.115   0.740  0.4498  0.3112 -0.2357
  792SOL    HW1 3196   0.025   5.059   0.658  1.5231  2.0413 -1.4420
  792SOL    HW2 3197   0.075   5.198   0.726  1.0788  0.4362  2.4272
  793SOL     OW 3198   3.904   3.521   6.005  0.0413 -0.5661  0.1280
  793SOL    HW1 3199   3.822   3.474   5.971 -0.3767 -0.4296  0.9413
  793SOL    HW2 3200   3.980   3.505   5.941 -0.9010  0.2411 -1.2299
  794SOL     OW 3201   0.455   4.666   2.472  0.2191 -0.4397 -0.4539
  794SOL    HW1 3202   0.415   4.687   2.561 -1.9520 -1.6060 -1.0684
  794SOL    HW2 3203   0.523   4.593   2.481  2.4440  1.6436  0.6389
  795SOL     OW 3204   7.020   6.102   4.248  0.1699 -0.6920  0.3561
  795SOL    HW1 3205   6.987   6.063   4.162  1.8868 -1.8150  0.1879
  795SOL    HW2 3206   6.963   6.071   4.323 -0.3998 -0.8885 -0.1728
  796SOL     OW 3207   6.277   0.123   2.270  0.3906 -0.3996 -0.6060
  796SOL    HW1 3208   6.281   0.169   2.359  0.4517 -0.3771 -0.6199
  796SOL    HW2 3209   6.307   0.187   2.199 -2.9240  0.7858 -1.1183
  797SOL     OW 3210   0.921   0.277   3.727  0.4369  0.0279 -0.3823
  797SOL    HW1 3211   0.876   0.203   3.776  0.7325 -0.8644 -1.4015
  797SOL    HW2 3212   0.853   0.337   3.685  0.1728  1.1941  1.6258
  798SOL     OW 3213   0.893   2.504   3.225  0.0237  0.2407 -0.0819
  798SOL    HW1 3214   0.835   2.510   3.144 -0.4669 -1.8096  0.0797
  798SOL    HW2 3215   0.940   2.416   3.226 -0.1126  0.1483  1.9483
  799SOL     OW 3216   3.635   5.355   0.424 -0.1954 -0.3328  0.1344
  799SOL    HW1 3217   3.597   5.423   0.361 -0.2153  0.0466  0.5491
  799SOL    HW2 3218   3.733   5.372   0.436 -0.6366  1.1478  2.1082
  800SOL     OW 3219   3.748   5.615   6.753  0.0388 -0.1688 -0.0266
  800SOL    HW1 3220   3.792   5.637   6.666 -0.4323  0.9312 -0.0061
  800SOL    HW2 3221   3.670   5.555   6.736  0.0478 -0.0929 -0.3438
  801SOL     OW 3222   5.955   2.425   6.741  0.6060 -0.7400 -0.5023
  801SOL    HW1 3223   5.888   2.499   6.749  0.2691 -0.9911 -0.9965
  801SOL    HW2 3224   6.029   2.441   6.807 -0.0543 -0.5854  0.2274
  802SOL     OW 3225   6.816   5.379   2.137  0.4838  0.2296 -0.2681
  802SOL    HW1 3226   6.852   5.287   2.152  0.8018  0.6828  2.1438
  802SOL    HW2 3227   6.821   5.431   2.222 -0.5241  2.2075 -1.3471
  803SOL     OW 3228   2.567   0.625   2.977  0.4112  0.1013  0.2441
  803SOL    HW1 3229   2.599   0.577   2.895 -0.3781  0.4077 -0.2573
  803SOL    HW2 3230   2.640   0.682   3.013  0.3304  1.1778 -1.1775
  804SOL     OW 3231   4.073   0.086   3.161 -0.3402  0.1046  0.1535
  804SOL    HW1 3232   4.033   0.003   3.122 -1.1980 -0.1682  1.5461
  804SOL    HW2 3233   4.155   0.063   3.213  0.4596  0.3873 -0.9533
  805SOL     OW 3234   4.540   4.593   5.197 -0.5057  0.6070  0.2281
  805SOL    HW1 3235   4.557   4.500   5.166 -1.7856  0.8881 -1.4756
  805SOL    HW2 3236   4.442   4.605   5.213 -0.6378  2.1362 -1.4103
  806SOL     OW 3237   5.274   4.255   4.561  0.4835  0.0286 -0.1791
  806SOL    HW1 3238   5.288   4.178   4.499  1.1029 -0.0238  0.0201
  806SOL    HW2 3239   5.314   4.338   4.522  1.3457 -0.1072  0.3643
  807SOL     OW 3240   0.153   0.895   3.634 -0.3116  0.1484  0.3137
  807SOL    HW1 3241   0.240   0.889   3.682 -0.9956 -1.6537  1.4365
  807SOL    HW2 3242   0.143   0.986   3.594  0.8909  1.3082  2.4619
  808SOL     OW 3243   0.122   5.637   3.214 -0.4916  0.4441  0.1032
  808SOL    HW1 3244   0.048   5.575   3.239 -0.4239  0.2741 -0.1115
  808SOL    HW2 3245   0.191   5.587   3.162  0.5027  0.2470  1.5575
  809SOL     OW 3246   1.287   6.576   1.411  0.0627 -0.2390 -0.1556
  809SOL    HW1 3247   1.367   6.521   1.388 -1.3617 -1.7839 -1.6119
  809SOL    HW2 3248   1.265   6.565   1.508  1.3954 -0.0266  0.1882
  810SOL     OW 3249   2.473   2.484   2.351  0.3130 -0.1836 -0.2103
  810SOL    HW1 3250   2.478   2.569   2.298 -1.1836 -2.4394 -4.4485
  810SOL    HW2 3251   2.379   2.468   2.380  0.4191 -0.6993 -0.1271
  811SOL     OW 3252   2.127   1.893   5.350 -0.6605 -0.5337 -0.7651
  811SOL    HW1 3253   2.199   1.853   5.293 -1.1720  0.8297 -2.4580
  811SOL    HW2 3254   2.086   1.821   5.406  0.9967 -1.6174 -0.8586
  812SOL     OW 3255   2.638   1.194   6.718  0.1671  0.3781  0.0356
  812SOL    HW1 3256   2.701   1.161   6.788  1.9331  0.6967 -1.3130
  812SOL    HW2 3257   2.690   1.221   6.637 -1.5294  2.5605 -0.4425
  813SOL     OW 3258   0.780   2.732   3.407  0.5896  0.2306 -1.1443
  813SOL    HW1 3259   0.773   2.689   3.317  3.6303  1.1819 -1.9503
  813SOL    HW2 3260   0.799   2.662   3.476 -0.4197 -0.3386 -1.4097
  814SOL     OW 3261   4.578   3.651   1.488 -0.0315  0.0294  0.3724
  814SOL    HW1 3262   4.495   3.625   1.538 -0.1964  1.0579  0.6453
  814SOL    HW2 3263   4.658   3.630   1.543 -0.2142  1.2111  1.1162
  815SOL     OW 3264   6.925   6.292   6.061 -0.8794  0.0886 -0.0571
  815SOL    HW1 3265   7.003   6.235   6.036 -1.9889 -1.0633 -0.9475
  815SOL    HW2 3266   6.928   6.378   6.010 -0.7441 -0.3974 -0.8824
  816SOL     OW 3267   5.996   5.973   4.002 -0.4180 -0.0274  0.0207
  816SOL    HW1 3268   6.026   5.880   3.982 -1.4909 -0.4986  0.5276
  816SOL    HW2 3269   5.897   5.974   4.015 -0.5301  1.3335 -0.7540
  817SOL     OW 3270   0.832   2.253   4.647  0.6063  0.1734 -0.4020
  817SOL    HW1 3271   0.831   2.159   4.613 -0.2622 -0.4361  1.2596
  817SOL    HW2 3272   0.793   2.314   4.578  1.0433 -0.6925 -1.4343
  818SOL     OW 3273   1.085   6.361   2.141  0.2096  0.4438 -0.2864
  818SOL    HW1 3274   1.104   6.448   2.186  0.2825  0.3121 -0.0600
  818SOL    HW2 3275   1.015   6.311   2.191  0.8493 -0.0522  0.1268
  819SOL     OW 3276   2.547   3.089   3.394  0.3665  0.3339 -0.1199
  819SOL    HW1 3277   2.448   3.076   3.395  0.2192  0.8956  2.8194
  819SOL    HW2 3278   2.572   3.146   3.316 -1.4116 -1.0008 -1.7267
  820SOL     OW 3279   1.755   2.659   0.852 -0.0964  0.3606 -0.1279
  820SOL    HW1 3280   1.850   2.633   0.836 -0.5319 -1.2384 -0.1923
  820SOL    HW2 3281   1.726   2.626   0.942 -1.9216 -3.3717 -1.8340
  821SOL     OW 3282   2.285   5.614   4.758  0.2353  0.1307  0.1887
  821SOL    HW1 3283   2.190   5.644   4.768 -0.1506 -0.3877 -1.5942
  821SOL    HW2 3284   2.334   5.630   4.844 -0.9914  2.0146  0.5829
  822SOL     OW 3285   4.314   5.911   0.165 -0.2455 -0.4205 -0.3532
  822SOL    HW1 3286   4.383   5.839   0.157 -0.0551 -0.1631 -1.1712
  822SOL    HW2 3287   4.299   5.933   0.261  0.6649 -0.6229 -0.1589
  823SOL     OW 3288   5.491   2.104   4.757 -0.7263  0.5615  0.5622
  823SOL    HW1 3289   5.505   2.152   4.843  2.0759 -0.6457  0.8657
  823SOL    HW2 3290   5.508   2.167   4.681  0.6298  0.6980  0.9494
  824SOL     OW 3291   0.115   0.759   0.872  0.1021  0.5468  0.0422
  824SOL    HW1 3292   0.073   0.803   0.951 -0.8680  2.6212 -1.5627
  824SOL    HW2 3293   0.214   0.754   0.886 -0.0257  0.9936  1.2993
  825SOL     OW 3294   4.500   4.942   2.610  0.1686 -0.4645  0.0081
  825SOL    HW1 3295   4.506   4.848   2.576 -1.1957 -0.5358 -0.0862
  825SOL    HW2 3296   4.576   4.959   2.673  0.3248 -1.6937  0.1815
  826SOL     OW 3297   1.243   4.088   6.612  0.0454 -0.5021  0.2776
  826SOL    HW1 3298   1.220   4.155   6.683  0.2786  0.0411 -0.1463
  826SOL    HW2 3299   1.186   4.105   6.531 -0.6325 -1.4849  0.5349
  827SOL     OW 3300   0.718   1.505   2.804 -0.0726 -0.2022 -0.5798
  827SOL    HW1 3301   0.729   1.566   2.882 -0.4447 -0.5396 -0.2644
  827SOL    HW2 3302   0.684   1.416   2.834  0.2360 -0.4945 -1.0655
  828SOL     OW 3303   1.588   1.678   2.584  0.3655  0.1418 -0.3251
  828SOL    HW1 3304   1.654   1.740   2.542 -1.0554  1.9647  0.0644
  828SOL    HW2 3305   1.572   1.706   2.679 -2.0149  0.6508 -0.8130
  829SOL     OW 3306   0.444   0.435   5.390  0.6616 -0.1948 -0.0905
  829SOL    HW1 3307   0.424   0.523   5.348  2.3303  0.1391 -0.2185
  829SOL    HW2 3308   0.382   0.420   5.467 -1.7560 -0.3569 -1.9553
  830SOL     OW 3309   0.998   5.615   3.329 -0.0294  0.4087 -0.0070
  830SOL    HW1 3310   1.042   5.619   3.240  0.2725  0.3749  0.1369
  830SOL    HW2 3311   1.039   5.543   3.384 -2.0389 -1.4363 -0.7784
  831SOL     OW 3312   0.458   2.341   0.754 -0.0354  0.4296 -0.7971
  831SOL    HW1 3313   0.547   2.299   0.738 -0.1301 -0.1400  0.0969
  831SOL    HW2 3314   0.446   2.358   0.852 -0.8999  0.5125 -0.9061
  832SOL     OW 3315   1.622   0.853   5.736  0.3868  0.6076  0.6999
  832SOL    HW1 3316   1.612   0.753   5.733 -1.5143  0.7702  0.5144
  832SOL    HW2 3317   1.716   0.877   5.715  0.8648 -1.1464  0.6482
  833SOL     OW 3318   4.412   0.698   1.419 -0.1773 -0.7499 -0.3354
  833SOL    HW1 3319   4.340   0.628   1.412 -0.5619 -0.5608  1.3697
  833SOL    HW2 3320   4.477   0.686   1.344 -1.8233 -1.1005 -1.7724
  834SOL     OW 3321   6.972   5.019   6.393  0.1771 -0.2586 -0.0201
  834SOL    HW1 3322   6.873   5.027   6.394  0.0133 -1.8566  1.1074
  834SOL    HW2 3323   7.003   4.999   6.300 -0.6230 -0.3176 -0.2831
  835SOL     OW 3324   1.992   1.472   4.352 -0.2544 -0.3845 -0.0811
  835SOL    HW1 3325   1.968   1.559   4.309  1.2481 -0.1253 -0.4666
  835SOL    HW2 3326   1.909   1.426   4.382 -1.0371  1.8458  1.4444
  836SOL     OW 3327   3.975   3.254   6.622 -0.1565 -0.3199  0.0527
  836SOL    HW1 3328   3.960   3.250   6.721 -1.0389 -1.1622 -0.1029
  836SOL    HW2 3329   3.887   3.259   6.576  0.2164 -0.9425 -0.7375
  837SOL     OW 3330   6.758   3.617   5.542 -0.1489  0.5410  0.0194
  837SOL    HW1 3331   6.700   3.577   5.470  2.3943 -1.0683 -1.2519
  837SOL    HW2 3332   6.711   3.609   5.630 -2.3340  0.3772 -1.0893
  838SOL     OW 3333   5.127   6.040   1.258 -0.9605 -0.5552  0.7218
  838SOL    HW1 3334   5.221   6.075   1.249 -1.4078  0.9653  1.5709
  838SOL    HW2 3335   5.081   6.089   1.332 -3.1142  0.2773 -1.0660
  839SOL     OW 3336   0.517   1.854   1.842 -0.0907  0.0050 -0.1748
  839SOL    HW1 3337   0.579   1.929   1.821  0.2854 -0.3206 -0.2317
  839SOL    HW2 3338   0.450   1.844   1.768  0.8554 -0.7525 -0.9519
  840SOL     OW 3339   0.602   4.857   6.455  0.3835 -0.1411 -0.5248
  840SOL    HW1 3340   0.526   4.838   6.393  1.0865 -1.5117 -0.9808
  840SOL    HW2 3341   0.650   4.939   6.423 -0.0006 -0.1267 -1.0876
  841SOL     OW 3342   2.505   1.299   0.979  0.2015  0.4723  0.1713
  841SOL    HW1 3343   2.482   1.273   0.885  0.7612  1.3854 -0.2462
  841SOL    HW2 3344   2.585   1.249   1.009 -1.9029 -2.3446  1.4290
  842SOL     OW 3345   4.151   1.150   4.463  0.0946  0.2245  0.2107
  842SOL    HW1 3346   4.063   1.105   4.478 -0.0400  0.4768  0.1986
  842SOL    HW2 3347   4.208   1.093   4.404 -0.9317  1.0903 -1.6978
  843SOL     OW 3348   1.931   5.149   6.813  0.6545 -0.3023  0.0207
  843SOL    HW1 3349   1.879   5.063   6.813 -1.1373  0.7275  0.8028
  843SOL    HW2 3350   1.887   5.214   6.875  1.2264  1.6234 -1.5222
  844SOL     OW 3351   0.886   6.413   3.633  0.7959 -0.0484 -0.5099
  844SOL    HW1 3352   0.812   6.415   3.565  0.7309  0.8708 -0.4179
  844SOL    HW2 3353   0.974   6.404   3.586  0.5960 -2.0634 -0.5884
  845SOL     OW 3354   6.825   2.314   6.465 -0.1299 -0.1229 -0.0942
  845SOL    HW1 3355   6.749   2.355   6.415  0.5988 -0.3165 -1.3924
  845SOL    HW2 3356   6.890   2.386   6.491  0.2045 -0.2007 -0.7024
  846SOL     OW 3357   5.672   2.438   6.515  0.3295  0.2862 -0.2977
  846SOL    HW1 3358   5.650   2.535   6.506  0.6641  0.3705 -0.2564
  846SOL    HW2 3359   5.738   2.412   6.445  1.5782  0.5231  0.7371
  847SOL     OW 3360   1.217   0.685   3.554 -0.3382  0.3626 -0.3367
  847SOL    HW1 3361   1.159   0.755   3.511 -0.3763  0.1218 -0.6812
  847SOL    HW2 3362   1.175   0.656   3.640 -0.6094  0.3657 -0.4645
  848SOL     OW 3363   1.778   4.066   5.288  0.4416  0.5866 -0.1053
  848SOL    HW1 3364   1.825   3.979   5.301  0.6646  0.7526  0.2217
  848SOL    HW2 3365   1.838   4.141   5.318  0.8963  0.9769 -1.8783
  849SOL     OW 3366   5.257   5.773   6.819  0.6659 -0.3783  0.3041
  849SOL    HW1 3367   5.190   5.828   6.769  1.3610 -0.4605 -0.7485
  849SOL    HW2 3368   5.342   5.825   6.830  1.9857 -1.8313 -2.2967
  850SOL     OW 3369   1.379   3.574   5.425 -0.1891 -0.4862 -0.1416
  850SOL    HW1 3370   1.327   3.584   5.340 -0.4132  0.3243  0.0876
  850SOL    HW2 3371   1.321   3.594   5.503  0.3699  0.0744  0.1376
  851SOL     OW 3372   1.361   0.301   3.324  0.3652 -0.7993  0.1613
  851SOL    HW1 3373   1.424   0.322   3.399  0.9781 -0.3554 -0.4690
  851SOL    HW2 3374   1.408   0.310   3.237 -0.6890  0.0401 -0.3513
  852SOL     OW 3375   6.711   0.250   6.658 -0.7411  0.0390  0.6717
  852SOL    HW1 3376   6.650   0.185   6.705  0.4310 -0.4812  1.5092
  852SOL    HW2 3377   6.730   0.327   6.718 -1.6558  0.9155 -0.1068
  853SOL     OW 3378   2.192   5.886   5.467  0.3736 -0.0638  0.5421
  853SOL    HW1 3379   2.099   5.882   5.429  0.2016 -0.6999  1.0221
  853SOL    HW2 3380   2.190   5.862   5.564  1.1619 -1.0000  0.3444
  854SOL     OW 3381   5.728   4.607   0.201  0.0357 -0.5681 -0.4072
  854SOL    HW1 3382   5.653   4.546   0.225 -2.4790  1.6865 -2.0834
  854SOL    HW2 3383   5.740   4.675   0.273  1.2264 -1.4878  0.3156
  855SOL     OW 3384   6.798   1.213   4.814 -0.5470 -0.6480 -0.3876
  855SOL    HW1 3385   6.790   1.115   4.794 -0.1068 -0.7696  0.0247
  855SOL    HW2 3386   6.751   1.232   4.901  0.1109 -0.6459 -0.0295
  856SOL     OW 3387   5.615   4.455   4.726  0.1108 -0.6932 -0.3003
  856SOL    HW1 3388   5.662   4.508   4.796  0.5860 -1.2881 -0.1603
  856SOL    HW2 3389   5.538   4.405   4.767  0.9136 -1.7309 -0.0073
  857SOL     OW 3390   1.147   4.279   3.658  0.3560  0.8002  0.2597
  857SOL    HW1 3391   1.105   4.279   3.748 -2.1107  0.1561 -0.8170
  857SOL    HW2 3392   1.108   4.353   3.603 -0.2578 -0.5121 -1.1498
  858SOL     OW 3393   3.014   2.370   5.081  0.0176 -0.0610 -0.4433
  858SOL    HW1 3394   2.940   2.438   5.069  0.7756  0.8024 -0.3263
  858SOL    HW2 3395   3.056   2.383   5.170  1.5800  0.7496 -1.2648
  859SOL     OW 3396   0.092   4.627   6.552  0.1268 -0.0677  0.2510
  859SOL    HW1 3397   0.141   4.703   6.595  2.1582 -0.1190 -1.8058
  859SOL    HW2 3398  -0.007   4.643   6.559  0.4104  0.8629  3.0796
  860SOL     OW 3399   4.082   3.552   2.989  0.1373 -0.1750  0.1687
  860SOL    HW1 3400   4.123   3.573   2.900 -2.8298 -0.2180 -1.3287
  860SOL    HW2 3401   4.146   3.578   3.062  1.8396  1.8413 -1.8848
  861SOL     OW 3402   1.262   4.429   2.041  0.2549  0.1182  0.2777
  861SOL    HW1 3403   1.244   4.439   2.139 -1.7058 -1.1697  0.1065
  861SOL    HW2 3404   1.198   4.362   2.002  2.1077 -0.7146 -1.5523
  862SOL     OW 3405   3.344   0.410   5.568 -0.2271 -0.1641  0.6552
  862SOL    HW1 3406   3.390   0.485   5.616  0.2556  0.8871 -1.3274
  862SOL    HW2 3407   3.411   0.354   5.520 -0.7746 -0.3751  0.1156
  863SOL     OW 3408   3.250   1.586   0.404  0.1240 -0.4318  0.0974
  863SOL    HW1 3409   3.227   1.501   0.357 -0.4858 -0.1510 -0.1369
  863SOL    HW2 3410   3.209   1.586   0.495  0.6370 -0.6417  0.3314
  864SOL     OW 3411   0.213   0.636   1.491 -0.3314 -0.2337  0.1259
  864SOL    HW1 3412   0.132   0.593   1.453 -0.1809  0.5196 -1.1036
  864SOL    HW2 3413   0.271   0.566   1.533 -1.1537 -0.8962  0.1875
  865SOL     OW 3414   4.610   2.354   6.974 -0.4745 -0.0687  0.2629
  865SOL    HW1 3415   4.606   2.448   6.941 -0.5595  0.3011  1.2927
  865SOL    HW2 3416   4.705   2.324   6.978 -0.4722 -0.1817 -0.4659
  866SOL     OW 3417   2.607   6.058   3.770  0.2639  0.3989  0.1468
  866SOL    HW1 3418   2.559   6.006   3.840  1.0152 -0.5769 -0.0423
  866SOL    HW2 3419   2.683   6.108   3.812  0.8329 -0.3353  0.0327
  867SOL     OW 3420   4.183   1.940   2.590 -0.6141  0.0267  0.1360
  867SOL    HW1 3421   4.170   2.039   2.585 -1.2125 -0.0409  0.2881
  867SOL    HW2 3422   4.214   1.915   2.682 -0.5791  0.0598  0.1335
  868SOL     OW 3423   5.911   6.279   3.420  0.4092  0.3457 -0.1644
  868SOL    HW1 3424   5.959   6.198   3.385 -1.6913 -0.7214 -0.7233
  868SOL    HW2 3425   5.832   6.298   3.361  0.3622  2.2922  0.4756
  869SOL     OW 3426   6.387   5.597   5.145  0.1346  0.0002 -0.4191
  869SOL    HW1 3427   6.317   5.662   5.114  1.4374  1.2994 -0.7346
  869SOL    HW2 3428   6.475   5.644   5.153  1.6765 -2.1759 -2.8608
  870SOL     OW 3429   5.222   6.025   2.028  0.1843  0.7407  0.1377
  870SOL    HW1 3430   5.147   5.986   1.974 -0.3262 -1.2122  2.0901
  870SOL    HW2 3431   5.210   6.124   2.036 -1.4940  0.6287 -0.6189
  871SOL     OW 3432   1.989   3.146   6.829 -0.4195 -0.1964 -0.1046
  871SOL    HW1 3433   2.026   3.057   6.801 -1.1733 -0.4915 -0.1900
  871SOL    HW2 3434   2.052   3.190   6.892 -0.5911 -1.3279  0.8708
  872SOL     OW 3435   2.359   4.618   1.091 -0.1880 -0.4428 -0.0371
  872SOL    HW1 3436   2.262   4.638   1.105  0.1465  0.7917  0.6398
  872SOL    HW2 3437   2.391   4.660   1.006  0.1001  0.4598  0.5029
  873SOL     OW 3438   2.270   1.913   6.374  0.1043  0.2235  0.0153
  873SOL    HW1 3439   2.291   1.916   6.472  2.1362  0.7961 -0.4025
  873SOL    HW2 3440   2.317   1.835   6.333  1.9026  1.8252 -1.0489
  874SOL     OW 3441   1.965   5.690   2.971  0.3525 -0.9102  0.1816
  874SOL    HW1 3442   2.042   5.736   3.014 -0.0214 -1.5520  1.6414
  874SOL    HW2 3443   1.997   5.610   2.920  0.6830 -0.9850  0.4994
  875SOL     OW 3444   3.003   3.952   6.747  0.1171  0.5971 -0.1183
  875SOL    HW1 3445   2.993   4.016   6.670 -2.2078  0.3943 -0.0596
  875SOL    HW2 3446   2.974   3.997   6.831  1.6151  0.4622  0.5246
  876SOL     OW 3447   0.774   2.297   2.121  0.8896  0.3329  0.5366
  876SOL    HW1 3448   0.766   2.296   2.022 -0.3413  0.4378  0.6261
  876SOL    HW2 3449   0.866   2.327   2.147  1.1322  0.5552 -0.5515
  877SOL     OW 3450   0.003   4.842   6.801 -0.0464 -0.0581 -0.0043
  877SOL    HW1 3451   0.012   4.747   6.829  1.1009 -0.2477 -0.9528
  877SOL    HW2 3452  -0.066   4.850   6.730  1.0285 -0.4548 -1.0922
  878SOL     OW 3453   1.287   1.487   2.663 -0.2959 -0.3025  0.0525
  878SOL    HW1 3454   1.257   1.518   2.572 -1.0762  0.9104  0.7128
  878SOL    HW2 3455   1.207   1.455   2.714  0.2811 -2.0607 -0.0638
  879SOL     OW 3456   4.220   6.650   4.108 -0.0720 -0.2119 -0.2518
  879SOL    HW1 3457   4.166   6.734   4.100  0.3568  0.0838 -0.0470
  879SOL    HW2 3458   4.233   6.610   4.018 -0.1759  0.0080 -0.3644
  880SOL     OW 3459   6.074   5.355   4.574  0.2551  0.3023  0.2574
  880SOL    HW1 3460   6.105   5.302   4.495 -1.1899 -1.3385  0.7086
  880SOL    HW2 3461   6.043   5.445   4.545 -1.6712 -0.7982 -1.3501
  881SOL     OW 3462   6.258   6.592   4.717 -0.4399 -0.4126 -0.1199
  881SOL    HW1 3463   6.183   6.544   4.670 -1.8523  0.8014  0.7910
  881SOL    HW2 3464   6.276   6.679   4.671  0.9975 -1.0554 -0.8136
  882SOL     OW 3465   5.354   4.273   2.694 -0.1828 -0.1881  0.4496
  882SOL    HW1 3466   5.411   4.332   2.636 -0.5767  0.4823  0.7291
  882SOL    HW2 3467   5.373   4.293   2.790 -0.6014 -0.2464  0.5430
  883SOL     OW 3468   3.453   6.312   2.284 -0.0652 -0.3851 -0.1961
  883SOL    HW1 3469   3.510   6.243   2.239  0.0810 -0.8963  0.7375
  883SOL    HW2 3470   3.481   6.320   2.380  0.2029  1.2791 -0.3700
  884SOL     OW 3471   1.027   2.024   6.022 -0.2772  0.0531 -0.2171
  884SOL    HW1 3472   1.078   2.074   6.091  0.1740 -0.9471  0.2023
  884SOL    HW2 3473   1.042   2.066   5.932 -0.3787  0.9948  0.1924
  885SOL     OW 3474   6.224   3.057   5.971  0.3961  0.9138 -0.2894
  885SOL    HW1 3475   6.213   3.155   5.990 -2.6361  0.4489  0.9940
  885SOL    HW2 3476   6.202   3.005   6.053  0.5698 -0.9051 -1.3590
  886SOL     OW 3477   1.516   5.663   6.599 -0.1110 -0.3939 -0.3234
  886SOL    HW1 3478   1.608   5.669   6.560 -0.0070  0.6371  0.0363
  886SOL    HW2 3479   1.477   5.755   6.604 -1.3929 -0.8931 -0.9999
  887SOL     OW 3480   2.930   2.917   5.512  0.3974  0.3510  0.0415
  887SOL    HW1 3481   2.951   3.010   5.482  3.8998 -0.6971 -1.2661
  887SOL    HW2 3482   2.986   2.894   5.591 -2.0591  0.0115  1.7710
  888SOL     OW 3483   2.017   0.661   6.092 -0.8108 -0.2657 -0.1604
  888SOL    HW1 3484   1.965   0.731   6.141  1.5989  0.5346  1.4094
  888SOL    HW2 3485   2.056   0.701   6.009  0.9525  0.4670  0.9738
  889SOL     OW 3486   3.820   0.735   4.872  0.0131 -0.1535 -0.6169
  889SOL    HW1 3487   3.793   0.694   4.960 -1.1404  1.1675 -0.3284
  889SOL    HW2 3488   3.741   0.780   4.831  0.5859 -0.6460 -2.2954
  890SOL     OW 3489   4.606   6.157   0.297  0.0941  0.0844  0.3834
  890SOL    HW1 3490   4.618   6.256   0.304 -1.5021  0.1834  2.3200
  890SOL    HW2 3491   4.516   6.131   0.333  0.6016 -2.1233  0.1822
  891SOL     OW 3492   6.580   4.740   1.805  0.7263 -1.2901  0.0266
  891SOL    HW1 3493   6.668   4.714   1.844  0.5482  2.0167  3.2886
  891SOL    HW2 3494   6.509   4.677   1.835  1.1676 -0.7341  2.4764
  892SOL     OW 3495   6.869   1.588   2.461 -0.1735  0.7102  0.4914
  892SOL    HW1 3496   6.944   1.581   2.396 -1.1544  0.8323 -0.6879
  892SOL    HW2 3497   6.858   1.683   2.490 -1.0295  1.0247 -0.7819
  893SOL     OW 3498   1.389   1.385   0.375  0.7106  0.2088 -0.3671
  893SOL    HW1 3499   1.432   1.297   0.396  0.6586  0.0694 -0.8388
  893SOL    HW2 3500   1.419   1.453   0.442 -1.0892 -0.7057  1.4849
  894SOL     OW 3501   0.066   5.566   3.554 -0.1284 -0.6877  0.2419
  894SOL    HW1 3502   0.057   5.546   3.652  0.9885 -0.2496  0.4486
  894SOL    HW2 3503  -0.013   5.620   3.524  0.0750  0.1332  1.1587
  895SOL     OW 3504   2.797   6.399   5.837  0.0858 -0.1758 -0.2848
  895SOL    HW1 3505   2.703   6.409   5.870  0.5030 -1.9723  1.6972
  895SOL    HW2 3506   2.798   6.335   5.760 -0.4702  1.2379 -1.5227
  896SOL     OW 3507   0.727   1.023   6.717 -0.2693 -0.3890 -0.5167
  896SOL    HW1 3508   0.798   1.086   6.684  1.3504 -2.0690 -0.4291
  896SOL    HW2 3509   0.724   1.027   6.817  3.1402 -3.5304 -0.0288
  897SOL     OW 3510   0.359   6.372   4.239 -0.8508 -0.2142  0.1839
  897SOL    HW1 3511   0.417   6.367   4.158 -0.0899 -0.2448  0.7190
  897SOL    HW2 3512   0.263   6.362   4.212 -0.5529 -1.0769 -0.6243
  898SOL     OW 3513   2.886   0.702   0.122 -0.5488 -0.8769 -0.0562
  898SOL    HW1 3514   2.919   0.709   0.028 -0.9495 -1.0203 -0.2089
  898SOL    HW2 3515   2.787   0.712   0.123 -0.7780 -2.8565  0.1242
  899SOL     OW 3516   6.055   1.106   4.525 -0.3387  0.1264  0.7491
  899SOL    HW1 3517   5.957   1.118   4.544 -0.8795  2.1049 -2.5353
  899SOL    HW2 3518   6.106   1.181   4.567 -0.7657  1.1678 -0.5213
  900SOL     OW 3519   6.980   1.641   4.207 -0.1868 -0.9524  0.0877
  900SOL    HW1 3520   6.970   1.735   4.174  0.7504 -0.9023 -0.1233
  900SOL    HW2 3521   6.901   1.588   4.180 -1.5932  0.1825  1.7528
  901SOL     OW 3522   6.151   6.973   0.077  0.0266  0.2641  0.1845
  901SOL    HW1 3523   6.115   7.064   0.096 -0.6138 -0.1531  0.9530
  901SOL    HW2 3524   6.244   6.965   0.113 -0.4197  0.1958  1.3857
  902SOL     OW 3525   3.509   6.651   5.633 -0.0926  0.3960  0.0132
  902SOL    HW1 3526   3.548   6.683   5.719  0.7057  0.4132 -0.3363
  902SOL    HW2 3527   3.582   6.617   5.574 -0.8318 -1.5813  0.1332
  903SOL     OW 3528   4.062   0.302   2.479 -0.3159  0.0761 -0.7911
  903SOL    HW1 3529   4.133   0.318   2.548 -0.5327 -2.0895  0.0142
  903SOL    HW2 3530   4.045   0.387   2.429  1.9825  0.9669 -0.2227
  904SOL     OW 3531   5.734   2.888   4.553  0.1230  0.0326 -0.1779
  904SOL    HW1 3532   5.783   2.909   4.637 -0.1386 -0.6296  0.1431
  904SOL    HW2 3533   5.752   2.960   4.485  2.6708 -0.9028 -0.5800
  905SOL     OW 3534   5.445   5.775   6.202  0.4909  0.0007  0.3864
  905SOL    HW1 3535   5.527   5.723   6.226  0.7416 -0.2507 -0.9219
  905SOL    HW2 3536   5.376   5.763   6.273  0.2432 -2.7432 -0.2127
  906SOL     OW 3537   5.762   5.804   3.450 -0.7084  0.0550  0.0143
  906SOL    HW1 3538   5.838   5.749   3.484 -1.3033 -0.6205  0.2831
  906SOL    HW2 3539   5.770   5.898   3.483  0.0635  0.0249 -0.0637
  907SOL     OW 3540   6.369   6.718   1.068 -0.2062  0.0127 -0.2568
  907SOL    HW1 3541   6.334   6.719   0.974 -0.3040  1.2984 -0.2179
  907SOL    HW2 3542   6.468   6.728   1.067  0.0446 -1.9647 -0.2846
  908SOL     OW 3543   1.381   2.405   2.255 -0.6398 -0.5518  0.3290
  908SOL    HW1 3544   1.338   2.326   2.210 -1.3161 -0.7423  1.2767
  908SOL    HW2 3545   1.414   2.378   2.346 -0.6796  0.1995  0.5769
  909SOL     OW 3546   4.375   1.891   1.647  0.5771 -0.1845  0.4247
  909SOL    HW1 3547   4.398   1.796   1.627 -0.1446 -0.2334 -0.1969
  909SOL    HW2 3548   4.282   1.895   1.684 -0.8217  0.6238 -2.8775
  910SOL     OW 3549   2.936   2.497   6.364  0.0025 -0.5906 -0.1925
  910SOL    HW1 3550   2.862   2.555   6.398  0.0644  0.5128 -1.8534
  910SOL    HW2 3551   3.019   2.513   6.419 -0.5770 -0.7482  0.7453
  911SOL     OW 3552   0.761   5.902   5.745  0.0086 -0.2231 -0.0005
  911SOL    HW1 3553   0.819   5.972   5.703  0.2000 -0.4593 -0.1341
  911SOL    HW2 3554   0.816   5.820   5.762  0.7289  0.8109  3.3834
  912SOL     OW 3555   2.271   4.994   5.771  0.1310 -0.1322  0.0575
  912SOL    HW1 3556   2.354   5.042   5.746  1.5207 -1.4487  1.9118
  912SOL    HW2 3557   2.268   4.982   5.871 -2.6647  0.5499  0.1356
  913SOL     OW 3558   3.063   1.330   2.497  0.4088 -0.4882 -0.0475
  913SOL    HW1 3559   3.012   1.245   2.509 -0.1273 -0.1825 -0.0603
  913SOL    HW2 3560   3.034   1.375   2.413  0.5439 -0.1986  0.0560
  914SOL     OW 3561   5.186   0.047   4.641  0.0528 -0.2317 -0.2581
  914SOL    HW1 3562   5.219   0.056   4.735  0.5772  0.1070 -0.4663
  914SOL    HW2 3563   5.219  -0.039   4.602 -0.4853 -0.5316 -0.0127
  915SOL     OW 3564   2.625   5.648   5.986 -0.2258 -0.1595  0.3456
  915SOL    HW1 3565   2.577   5.670   6.071  1.0715 -0.4923  1.1763
  915SOL    HW2 3566   2.602   5.716   5.916 -2.0868 -0.4519  0.6370
  916SOL     OW 3567   0.078   5.952   1.058  0.1849  0.1114 -0.0757
  916SOL    HW1 3568   0.018   5.904   1.122 -0.5544 -2.1496 -2.3524
  916SOL    HW2 3569   0.033   6.037   1.030 -0.2606  0.2641  1.0336
  917SOL     OW 3570   1.986   5.796   4.273  0.2059 -0.2327  0.1134
  917SOL    HW1 3571   1.984   5.862   4.348  1.8406 -1.0873  0.9965
  917SOL    HW2 3572   1.985   5.844   4.186  0.9049  0.9633  0.7310
  918SOL     OW 3573   5.241   5.044   5.766 -0.4515 -0.1574  0.1067
  918SOL    HW1 3574   5.302   5.091   5.831 -2.1793  0.6871  1.1976
  918SOL    HW2 3575   5.296   4.992   5.701  1.6065  2.9127 -0.8571
  919SOL     OW 3576   1.590   6.402   5.408  0.4807  0.5433  0.4283
  919SOL    HW1 3577   1.581   6.306   5.432 -2.2159  0.4519 -0.6191
  919SOL    HW2 3578   1.575   6.458   5.490 -0.0899  0.1086  0.6321
  920SOL     OW 3579   6.045   6.402   3.612  0.7194  0.1206  0.1186
  920SOL    HW1 3580   6.012   6.355   3.694 -1.6147  2.6770  0.7622
  920SOL    HW2 3581   6.010   6.355   3.531 -0.2333 -0.2146  0.7052
  921SOL     OW 3582   5.435   3.046   2.744 -0.4738  0.4704  0.0726
  921SOL    HW1 3583   5.445   2.953   2.709  0.2098  0.6782 -0.3004
  921SOL    HW2 3584   5.476   3.110   2.680 -0.9110  1.0314  0.3457
  922SOL     OW 3585   0.601   6.102   2.220 -0.5904 -0.1914 -0.9398
  922SOL    HW1 3586   0.520   6.121   2.275  0.5240  1.5909  0.1899
  922SOL    HW2 3587   0.574   6.065   2.132 -2.7164  1.4184 -1.0268
  923SOL     OW 3588   4.178   6.017   2.984 -0.9423 -0.3257 -0.0340
  923SOL    HW1 3589   4.218   6.065   2.906 -3.4564 -3.4166 -3.5380
  923SOL    HW2 3590   4.251   5.991   3.048  1.4440  1.1270 -2.0194
  924SOL     OW 3591   3.113   0.312   6.628 -0.7441 -0.8018 -0.1343
  924SOL    HW1 3592   3.123   0.274   6.720 -1.7572 -1.3943 -0.2433
  924SOL    HW2 3593   3.107   0.237   6.562 -2.4697 -0.4920 -0.3948
  925SOL     OW 3594   3.473   5.108   1.597  0.0745  0.4729 -0.1681
  925SOL    HW1 3595   3.476   5.039   1.526 -0.8321 -0.7385  0.9302
  925SOL    HW2 3596   3.410   5.181   1.570 -0.6819 -0.2428 -0.3930
  926SOL     OW 3597   5.236   5.437   4.662 -0.4853 -0.4955 -0.2677
  926SOL    HW1 3598   5.220   5.534   4.650 -0.1306 -0.4228 -0.1620
  926SOL    HW2 3599   5.218   5.411   4.757 -1.2794 -0.6729 -0.4601
  927SOL     OW 3600   3.687   3.684   5.517 -0.5992  0.3116  0.3712
  927SOL    HW1 3601   3.718   3.592   5.542 -0.0548  0.1305 -0.9325
  927SOL    HW2 3602   3.661   3.733   5.600  2.1611  0.1054  1.4770
  928SOL     OW 3603   6.207   6.167   4.081 -0.2144 -0.2078 -0.4004
  928SOL    HW1 3604   6.211   6.200   4.175 -1.9004  1.2567 -0.8019
  928SOL    HW2 3605   6.121   6.118   4.066 -0.1968  0.0093 -1.3017
  929SOL     OW 3606   4.212   3.934   4.898  0.4239 -0.4410  0.5640
  929SOL    HW1 3607   4.117   3.904   4.904 -0.2008  0.6222 -2.4573
  929SOL    HW2 3608   4.272   3.855   4.891 -0.4075 -1.1061  0.7666
  930SOL     OW 3609   5.358   6.907   6.617 -0.0024  0.4636  0.3687
  930SOL    HW1 3610   5.306   6.836   6.666 -0.0611 -0.3823 -0.8513
  930SOL    HW2 3611   5.298   6.985   6.598 -0.1599  0.5145  1.0352
  931SOL     OW 3612   5.593   1.372   4.156 -0.5879  0.0893 -0.4024
  931SOL    HW1 3613   5.506   1.397   4.199 -0.9851 -1.6262 -0.1335
  931SOL    HW2 3614   5.629   1.289   4.199  1.0154  0.5627 -0.7547
  932SOL     OW 3615   3.897   0.984   4.533  0.6626 -0.9207  0.3141
  932SOL    HW1 3616   3.801   0.965   4.511  0.5168  0.4059 -0.2728
  932SOL    HW2 3617   3.947   0.897   4.541 -0.7378 -1.6505  1.3898
  933SOL     OW 3618   5.291   6.644   2.176 -0.3230  0.1856  0.0267
  933SOL    HW1 3619   5.294   6.636   2.076 -2.2532 -3.3301  0.0949
  933SOL    HW2 3620   5.373   6.601   2.215 -2.6072 -5.1234 -0.1244
  934SOL     OW 3621   2.973   5.002   5.059  0.1636 -0.0032 -0.6917
  934SOL    HW1 3622   3.023   5.029   5.141 -0.3427 -3.1900  0.7984
  934SOL    HW2 3623   2.874   5.009   5.076  0.0404 -1.2803 -0.6956
  935SOL     OW 3624   3.179   3.340   1.596  0.3953  0.3249 -0.5075
  935SOL    HW1 3625   3.130   3.363   1.680 -0.3884 -1.4887 -0.4156
  935SOL    HW2 3626   3.164   3.412   1.528  0.0048  1.2002  0.4731
  936SOL     OW 3627   3.778   6.782   6.611 -0.2100 -0.0170 -0.5136
  936SOL    HW1 3628   3.791   6.870   6.566  1.2103  2.2270  3.6975
  936SOL    HW2 3629   3.861   6.726   6.599 -0.4052 -0.0852 -1.7012
  937SOL     OW 3630   1.117   7.008   1.206  0.0660  0.3026  0.5221
  937SOL    HW1 3631   1.188   6.999   1.136 -0.4972  0.3673 -0.0632
  937SOL    HW2 3632   1.156   6.987   1.296  0.9057  0.6544  0.2496
  938SOL     OW 3633   2.715   5.397   6.104 -0.2135  0.2453 -0.4017
  938SOL    HW1 3634   2.809   5.374   6.079 -0.8205 -1.9438 -0.9553
  938SOL    HW2 3635   2.675   5.458   6.036  0.9373  1.6181  0.1178
  939SOL     OW 3636   5.107   1.393   0.028  0.5009  0.9470 -0.3830
  939SOL    HW1 3637   5.194   1.419   0.070  1.3745 -2.1700  0.0063
  939SOL    HW2 3638   5.091   1.295   0.043 -3.9006  1.6640  1.0182
  940SOL     OW 3639   0.834   2.122   6.975 -0.3887 -0.0284 -0.2685
  940SOL    HW1 3640   0.850   2.043   6.916 -0.9879 -0.8311  0.6077
  940SOL    HW2 3641   0.745   2.163   6.952 -0.3574  0.0162 -0.3139
  941SOL     OW 3642   2.742   4.102   5.553 -0.4145 -0.1990 -0.1862
  941SOL    HW1 3643   2.666   4.046   5.586 -0.9344  0.1266 -0.7909
  941SOL    HW2 3644   2.821   4.045   5.535 -1.0879 -0.8260 -1.2567
  942SOL     OW 3645   0.212   0.396   7.001  0.0988 -0.3012  0.1562
  942SOL    HW1 3646   0.141   0.429   6.939  0.6057 -0.2922 -0.4380
  942SOL    HW2 3647   0.296   0.380   6.949  0.4450 -0.5945  0.7937
  943SOL     OW 3648   6.677   2.602   0.122  0.3589 -0.3428  0.6980
  943SOL    HW1 3649   6.626   2.519   0.143 -0.1973  0.1862  1.4912
  943SOL    HW2 3650   6.616   2.681   0.125  1.0355  0.1934  0.7025
  944SOL     OW 3651   2.609   2.117   1.651 -0.1100 -0.3408  0.0848
  944SOL    HW1 3652   2.654   2.057   1.585  2.4804  1.9903 -0.4918
  944SOL    HW2 3653   2.512   2.124   1.628  0.2262 -1.4909 -1.9989
  945SOL     OW 3654   2.262   6.340   3.373  0.6688  0.4881  0.2880
  945SOL    HW1 3655   2.306   6.268   3.319  0.1611  0.0257  0.4824
  945SOL    HW2 3656   2.287   6.429   3.336  0.9186  0.1977 -0.2517
  946SOL     OW 3657   6.411   5.549   4.789  0.1274  0.4185 -0.2230
  946SOL    HW1 3658   6.495   5.538   4.842  0.0606 -0.6042 -0.3036
  946SOL    HW2 3659   6.405   5.643   4.755  0.6069  0.8502  0.8380
  947SOL     OW 3660   6.540   3.747   2.768 -0.2292 -0.3570 -0.2177
  947SOL    HW1 3661   6.498   3.838   2.770  3.6115  1.5696  0.7859
  947SOL    HW2 3662   6.574   3.727   2.676 -2.8692 -1.8444 -0.9869
  948SOL     OW 3663   0.802   0.993   5.384  0.3469  0.0013 -0.1576
  948SOL    HW1 3664   0.863   1.052   5.436 -0.1537 -0.1434  0.6086
  948SOL    HW2 3665   0.731   0.956   5.445 -1.7596  1.7810 -1.3702
  949SOL     OW 3666   6.223   1.658   1.661 -0.5612  0.7301 -0.1461
  949SOL    HW1 3667   6.164   1.649   1.581 -0.0014  0.8044 -0.5873
  949SOL    HW2 3668   6.318   1.638   1.634 -0.5385 -0.5289  0.7966
  950SOL     OW 3669   2.897   4.241   6.839 -0.5805 -0.4118  0.0213
  950SOL    HW1 3670   2.801   4.264   6.826 -0.3828  0.4379 -0.0309
  950SOL    HW2 3671   2.951   4.275   6.762 -0.1963 -0.5769  0.2115
  951SOL     OW 3672   6.658   2.739   2.466  0.0500 -0.1727  0.2252
  951SOL    HW1 3673   6.601   2.657   2.465  0.1855 -0.3162  1.9456
  951SOL    HW2 3674   6.715   2.741   2.384 -0.8362 -1.1503 -0.4454
  952SOL     OW 3675   1.051   3.641   1.143 -0.1550 -0.1659  0.6612
  952SOL    HW1 3676   1.023   3.625   1.048 -1.1850 -0.0541  0.9243
  952SOL    HW2 3677   1.095   3.730   1.150  0.1673 -0.2861  0.2489
  953SOL     OW 3678   0.810   6.436   0.542  0.3288  0.0441 -0.0170
  953SOL    HW1 3679   0.903   6.468   0.523  1.6233 -3.1736  0.4311
  953SOL    HW2 3680   0.779   6.375   0.469 -1.5005  1.0880 -0.1840
  954SOL     OW 3681   6.341   1.354   1.415 -0.8306  0.1323 -0.2472
  954SOL    HW1 3682   6.374   1.412   1.489 -1.0822 -0.5908  0.4530
  954SOL    HW2 3683   6.319   1.410   1.335 -0.9632  0.9766  0.3735
  955SOL     OW 3684   0.388   0.461   1.625 -0.5150  0.1757  0.0344
  955SOL    HW1 3685   0.458   0.478   1.694 -0.1291  2.3162 -0.8291
  955SOL    HW2 3686   0.418   0.386   1.566 -1.2736 -2.3902  2.6344
  956SOL     OW 3687   6.709   0.566   6.278  0.3632  0.1646 -0.2326
  956SOL    HW1 3688   6.663   0.512   6.348  0.3799  1.3675  0.7189
  956SOL    HW2 3689   6.646   0.583   6.202 -0.1171  0.0866  0.1487
  957SOL     OW 3690   0.173   0.123   3.608  0.0403  0.0129 -0.1900
  957SOL    HW1 3691   0.253   0.172   3.642  0.7484 -1.0346 -0.3008
  957SOL    HW2 3692   0.185   0.025   3.624 -1.1515 -0.1692 -0.3626
  958SOL     OW 3693   5.239   5.790   6.387  0.2533  0.4041  0.3451
  958SOL    HW1 3694   5.308   5.833   6.445 -0.7381  1.3062  0.8843
  958SOL    HW2 3695   5.215   5.700   6.425  1.4885 -0.1742 -0.1511
  959SOL     OW 3696   6.346   0.144   6.552  0.7887  0.2387 -0.0370
  959SOL    HW1 3697   6.284   0.123   6.627  1.4614  0.7207  0.6714
  959SOL    HW2 3698   6.314   0.100   6.468  0.1273 -0.4508  0.5697
  960SOL     OW 3699   4.233   3.750   1.992  0.1605  0.8494 -0.1029
  960SOL    HW1 3700   4.215   3.754   1.894 -0.9337 -1.9246 -0.1167
  960SOL    HW2 3701   4.329   3.728   2.008 -0.1386 -1.0629 -0.6989
  961SOL     OW 3702   5.501   4.896   0.689  0.5033 -0.4051 -0.6331
  961SOL    HW1 3703   5.443   4.834   0.742 -2.4662  1.3623 -1.6019
  961SOL    HW2 3704   5.509   4.984   0.736 -0.2274  0.3998 -1.9441
  962SOL     OW 3705   2.424   1.472   5.871 -0.2290  0.8330 -0.0008
  962SOL    HW1 3706   2.512   1.426   5.870 -0.3603  0.5689  0.3890
  962SOL    HW2 3707   2.399   1.498   5.778 -0.1798  0.0695 -0.2390
  963SOL     OW 3708   4.089   1.445   2.374 -0.3568  0.7517  0.0306
  963SOL    HW1 3709   4.167   1.426   2.314  0.8026 -1.9449  2.1228
  963SOL    HW2 3710   4.114   1.515   2.440  0.0210  0.5380  0.1230
  964SOL     OW 3711   1.388   3.845   3.085  0.2994  0.1435  0.2681
  964SOL    HW1 3712   1.440   3.849   3.000 -1.4007 -1.6624 -0.9338
  964SOL    HW2 3713   1.435   3.898   3.156  1.9582  1.3565 -1.6586
  965SOL     OW 3714   6.226   6.800   3.587  0.3241  0.2726  0.4161
  965SOL    HW1 3715   6.301   6.801   3.520  0.5917  1.0779  0.7069
  965SOL    HW2 3716   6.244   6.869   3.658 -1.1336  1.1554 -0.0202
  966SOL     OW 3717   3.537   6.700   0.026 -0.1259 -0.1605 -0.5698
  966SOL    HW1 3718   3.598   6.632  -0.015 -1.6331 -0.4427 -2.4523
  966SOL    HW2 3719   3.510   6.669   0.117  1.7068 -0.5275 -0.1150
  967SOL     OW 3720   6.859   6.888   5.102  0.3989  0.0302 -0.0308
  967SOL    HW1 3721   6.814   6.971   5.135  0.4036 -0.2616  0.7321
  967SOL    HW2 3722   6.946   6.876   5.150 -0.2361 -1.1439  0.8732
  968SOL     OW 3723   0.943   0.765   6.283  0.5545 -0.0880 -0.0178
  968SOL    HW1 3724   0.932   0.864   6.290 -1.5297 -0.0779 -2.2294
  968SOL    HW2 3725   0.896   0.721   6.359  0.8422  0.5656  0.5529
  969SOL     OW 3726   3.924   6.717   1.775 -0.1344 -0.3244  0.4329
  969SOL    HW1 3727   4.005   6.733   1.831 -0.3095  0.7059  0.3982
  969SOL    HW2 3728   3.925   6.777   1.696 -0.6847 -0.6666  0.1546
  970SOL     OW 3729   1.216   4.179   2.263  0.1473 -0.1175  0.7003
  970SOL    HW1 3730   1.174   4.186   2.172  3.4485  0.0732 -0.9814
  970SOL    HW2 3731   1.199   4.263   2.314 -1.0317  0.1519 -0.0936
  971SOL     OW 3732   2.567   4.914   6.779  0.0222 -0.2410  0.0670
  971SOL    HW1 3733   2.619   4.833   6.807 -0.4041 -0.4325  0.3335
  971SOL    HW2 3734   2.498   4.934   6.849  1.4428  1.5817  1.0344
  972SOL     OW 3735   1.207   3.603   6.595 -0.2699  0.0054 -0.0579
  972SOL    HW1 3736   1.180   3.663   6.671 -1.2331 -0.1327 -0.2627
  972SOL    HW2 3737   1.136   3.534   6.581  0.3972 -0.6207 -0.4161
  973SOL     OW 3738   3.143   0.847   2.600  0.1331 -0.0964 -0.0401
  973SOL    HW1 3739   3.047   0.867   2.621 -0.2079  1.3400 -2.5907
  973SOL    HW2 3740   3.147   0.762   2.546 -0.1990  1.4656 -2.7629
  974SOL     OW 3741   4.938   4.193   1.227 -0.0387 -0.0752  0.5362
  974SOL    HW1 3742   4.875   4.262   1.190  0.0918  1.0195  2.2176
  974SOL    HW2 3743   5.000   4.163   1.155 -1.8831 -0.5615 -0.9569
  975SOL     OW 3744   6.000   1.349   2.412 -0.1804  1.0470 -0.1008
  975SOL    HW1 3745   5.998   1.416   2.337  1.4415  1.3095  0.0491
  975SOL    HW2 3746   6.055   1.385   2.488 -0.0431 -0.0792  0.3559
  976SOL     OW 3747   6.826   3.917   4.891 -0.4207 -0.1235 -0.3656
  976SOL    HW1 3748   6.738   3.960   4.911 -0.4358 -0.3388  0.0358
  976SOL    HW2 3749   6.814   3.850   4.818 -0.6724 -0.4732 -0.0024
  977SOL     OW 3750   6.583   5.747   2.250 -0.1412 -0.3063 -0.4194
  977SOL    HW1 3751   6.674   5.758   2.210 -0.8372  2.2672 -1.4582
  977SOL    HW2 3752   6.532   5.679   2.197 -0.0127  0.8546 -2.1191
  978SOL     OW 3753   5.263   4.366   6.274  0.1212 -0.0243 -0.4478
  978SOL    HW1 3754   5.219   4.306   6.208  1.2030 -0.8637 -0.4331
  978SOL    HW2 3755   5.360   4.342   6.281 -0.0250 -0.1560  1.6637
  979SOL     OW 3756   5.716   4.623   3.336  0.2741 -0.7736 -0.5961
  979SOL    HW1 3757   5.778   4.552   3.303  0.6412 -0.4990 -0.5151
  979SOL    HW2 3758   5.728   4.634   3.435 -0.9618 -1.7302 -0.3088
  980SOL     OW 3759   5.009   1.355   2.289  0.2804  0.9002 -0.5959
  980SOL    HW1 3760   4.943   1.280   2.282  1.5838 -0.1917 -1.8020
  980SOL    HW2 3761   4.963   1.442   2.269 -0.6029  0.0536 -2.6273
  981SOL     OW 3762   0.940   6.713   5.398 -0.4783 -0.2374 -0.3865
  981SOL    HW1 3763   1.016   6.684   5.456  0.4638  2.7539  0.0686
  981SOL    HW2 3764   0.966   6.706   5.302  1.2090  2.4177 -0.2254
  982SOL     OW 3765   0.882   1.424   5.889 -0.0109 -0.1334 -0.0654
  982SOL    HW1 3766   0.869   1.331   5.925 -0.3690  0.5013  1.5693
  982SOL    HW2 3767   0.859   1.426   5.792  0.7607 -1.9126 -0.3321
  983SOL     OW 3768   3.650   4.107   1.668 -0.3171  0.2302 -0.0153
  983SOL    HW1 3769   3.624   4.143   1.757  1.1007  1.2328  0.0423
  983SOL    HW2 3770   3.661   4.183   1.604 -3.1177 -0.5576 -1.6120
  984SOL     OW 3771   5.492   0.944   4.421  0.9126  0.2757 -0.2801
  984SOL    HW1 3772   5.550   0.917   4.345 -0.6137 -2.0466 -0.7326
  984SOL    HW2 3773   5.534   1.020   4.470  3.4006 -0.1344 -1.6316
  985SOL     OW 3774   5.278   4.130   5.904  0.0001  0.2778  0.1130
  985SOL    HW1 3775   5.289   4.041   5.859 -0.6792  0.2696 -0.0517
  985SOL    HW2 3776   5.342   4.195   5.864  0.2255 -0.0355 -0.0468
  986SOL     OW 3777   3.839   3.629   5.101 -0.5939 -0.2173 -0.2547
  986SOL    HW1 3778   3.796   3.644   5.012 -1.2709  2.3550  0.4247
  986SOL    HW2 3779   3.774   3.586   5.163 -0.5591 -0.7800 -0.5981
  987SOL     OW 3780   6.317   1.730   2.766  0.5639  0.3157  0.7084
  987SOL    HW1 3781   6.284   1.792   2.838  2.1712  1.5732  0.4099
  987SOL    HW2 3782   6.325   1.637   2.803  0.4568  0.7677  1.8890
  988SOL     OW 3783   5.213   5.301   0.651 -0.0265  0.1110 -0.0868
  988SOL    HW1 3784   5.287   5.320   0.587 -0.4305  0.9663 -0.3333
  988SOL    HW2 3785   5.135   5.264   0.602 -0.3905  0.9084 -0.1483
  989SOL     OW 3786   2.827   5.890   1.297  0.4633 -0.4418  0.4119
  989SOL    HW1 3787   2.731   5.879   1.322  0.6503  0.6828  1.8035
  989SOL    HW2 3788   2.884   5.838   1.361  0.8470  0.5595  0.9218
  990SOL     OW 3789   3.807   6.951   5.556  0.1373 -0.0264 -0.2715
  990SOL    HW1 3790   3.869   7.012   5.506 -0.5806 -0.5379 -1.8450
  990SOL    HW2 3791   3.777   6.997   5.640  0.7244  1.2073 -0.7009
  991SOL     OW 3792   3.923   3.809   0.223 -0.0423 -0.1544 -0.1701
  991SOL    HW1 3793   3.999   3.763   0.177 -0.4252  0.5459 -1.5648
  991SOL    HW2 3794   3.895   3.888   0.169 -1.8520 -0.4656  0.2552
  992SOL     OW 3795   0.996   5.561   3.941 -0.3207  0.5153 -0.0929
  992SOL    HW1 3796   1.083   5.611   3.943  0.1678 -0.2244  2.9878
  992SOL    HW2 3797   0.933   5.601   4.007 -0.7330 -1.4752  0.8093
  993SOL     OW 3798   4.940   6.854   5.640 -0.1784  0.7640  0.2987
  993SOL    HW1 3799   4.879   6.788   5.684  1.1914 -0.8006 -0.0414
  993SOL    HW2 3800   4.920   6.946   5.674 -1.7464  0.1136  1.2400
  994SOL     OW 3801   1.132   3.314   4.600 -0.3445 -0.0308 -0.2837
  994SOL    HW1 3802   1.123   3.215   4.605  0.4156 -0.2516 -2.2913
  994SOL    HW2 3803   1.178   3.339   4.515  3.4280  1.8186  2.0364
  995SOL     OW 3804   4.464   0.052   2.695  0.4654  0.5790 -0.4378
  995SOL    HW1 3805   4.485  -0.026   2.635 -1.9951  0.1649 -0.8315
  995SOL    HW2 3806   4.447   0.019   2.788  0.5990  0.7976 -0.3359
  996SOL     OW 3807   7.013   4.707   3.604  0.0370  0.5094  0.2217
  996SOL    HW1 3808   7.019   4.800   3.567  3.6021  0.8882  1.3157
  996SOL    HW2 3809   6.955   4.708   3.685 -1.3521  1.3922 -0.7384
  997SOL     OW 3810   6.884   6.015   4.017 -0.4775 -0.6522 -0.6436
  997SOL    HW1 3811   6.820   6.088   4.043  0.0517 -0.1755 -0.6497
  997SOL    HW2 3812   6.836   5.927   4.016 -0.9111 -0.4340  0.2493
  998SOL     OW 3813   0.654   3.784   6.517 -0.4316  0.7984 -0.0062
  998SOL    HW1 3814   0.561   3.787   6.479 -0.4951 -1.4864 -0.1280
  998SOL    HW2 3815   0.719   3.760   6.444  0.2785  2.3148  0.0894
  999SOL     OW 3816   1.232   3.173   2.087  0.0935 -0.7211 -0.0989
  999SOL    HW1 3817   1.295   3.231   2.036 -2.1838  2.0096 -0.0272
  999SOL    HW2 3818   1.192   3.104   2.026  0.7063 -0.3539 -0.9207
 1000SOL     OW 3819   0.134   6.431   4.130 -0.2502  0.5834  0.3703
 1000SOL    HW1 3820   0.081   6.391   4.056 -1.2637  0.3520  1.1944
 1000SOL    HW2 3821   0.073   6.450   4.208  0.3043  2.9860  0.3175
 1001SOL     OW 3822   4.030   4.560   6.864  0.0978  0.4521 -0.2453
 1001SOL    HW1 3823   4.027   4.520   6.772 -0.1952 -0.0859 -0.0099
 1001SOL    HW2 3824   3.953   4.624   6.875 -1.0657 -0.9690  0.2735
 1002SOL     OW 3825   0.844   4.965   3.622 -0.0398 -0.7093 -0.2623
 1002SOL    HW1 3826   0.785   4.920   3.555 -1.9084 -0.1269  0.9046
 1002SOL    HW2 3827   0.875   4.898   3.690 -1.9209 -0.5179  0.8529
 1003SOL     OW 3828   0.950   4.863   3.233 -0.3353 -0.0736  0.0899
 1003SOL    HW1 3829   0.872   4.811   3.198 -0.7781 -0.1120  1.1017
 1003SOL    HW2 3830   0.993   4.811   3.307  0.4026  0.1353 -0.1870
 1004SOL     OW 3831   2.168   1.901   5.748 -0.7791  0.7070 -0.1275
 1004SOL    HW1 3832   2.158   1.802   5.739  0.1976  0.4036  1.6220
 1004SOL    HW2 3833   2.083   1.940   5.784 -1.1640  0.5080 -0.8067
 1005SOL     OW 3834   5.992   2.882   2.145  0.4684  0.1001  0.7213
 1005SOL    HW1 3835   6.027   2.970   2.114  1.3217 -0.2715  0.6085
 1005SOL    HW2 3836   6.029   2.809   2.087 -0.1040 -0.3476  0.9069
 1006SOL     OW 3837   1.947   6.758   6.888  0.0525 -0.2856  0.0808
 1006SOL    HW1 3838   1.926   6.765   6.790 -0.2486 -1.0218  0.0849
 1006SOL    HW2 3839   2.033   6.709   6.900 -0.6006 -1.4323  0.2234
 1007SOL     OW 3840   4.850   2.274   1.887 -0.5174 -0.3670  0.4880
 1007SOL    HW1 3841   4.919   2.201   1.893  0.3738  0.4864  1.1099
 1007SOL    HW2 3842   4.766   2.243   1.931 -0.4955 -1.3689 -0.1356
 1008SOL     OW 3843   6.988   2.695   1.025 -0.5185 -0.3876 -0.4997
 1008SOL    HW1 3844   7.050   2.674   1.101 -1.5961 -0.9138  0.2173
 1008SOL    HW2 3845   7.032   2.762   0.965  1.1803 -1.5395 -0.5985
 1009SOL     OW 3846   2.275   6.653   3.578 -0.4626  0.0224 -0.2723
 1009SOL    HW1 3847   2.221   6.736   3.562 -1.0326 -0.1810  0.5393
 1009SOL    HW2 3848   2.234   6.600   3.652  0.8989 -0.0856  0.4445
 1010SOL     OW 3849   0.373   5.375   2.228  0.4000 -0.4761 -0.2756
 1010SOL    HW1 3850   0.381   5.475   2.233  0.7831 -0.3995 -1.6444
 1010SOL    HW2 3851   0.451   5.333   2.274 -0.3348 -0.1936  1.2842
 1011SOL     OW 3852   6.381   0.381   4.796 -0.3478  0.5265  0.2035
 1011SOL    HW1 3853   6.294   0.363   4.750 -0.7479  0.4159  0.9854
 1011SOL    HW2 3854   6.375   0.467   4.847  0.2426  0.8811 -0.3049
 1012SOL     OW 3855   2.055   5.804   0.911 -0.3760 -1.0227  0.5224
 1012SOL    HW1 3856   2.070   5.789   1.009 -0.4252 -2.7539  0.3056
 1012SOL    HW2 3857   2.003   5.728   0.873  0.4711 -0.8663 -1.0451
 1013SOL     OW 3858   4.378   6.555   4.961  0.6961  0.2310  0.3508
 1013SOL    HW1 3859   4.436   6.570   4.881 -0.9344 -0.8799 -1.1179
 1013SOL    HW2 3860   4.345   6.642   4.995  0.7923  0.6901 -0.6847
 1014SOL     OW 3861   0.652   3.035   2.824 -0.5507  0.2086 -0.8934
 1014SOL    HW1 3862   0.613   3.109   2.879  2.6926  0.8523  0.7571
 1014SOL    HW2 3863   0.703   3.073   2.748  0.3687 -0.3628 -0.5705
 1015SOL     OW 3864   6.084   6.908   4.512 -0.6139 -0.0013 -0.8940
 1015SOL    HW1 3865   6.058   6.999   4.481 -1.1334 -0.8050 -3.0014
 1015SOL    HW2 3866   6.179   6.889   4.486 -0.5863 -0.1604 -0.6898
 1016SOL     OW 3867   0.953   3.556   0.910  1.0292 -0.0273 -0.1286
 1016SOL    HW1 3868   0.939   3.518   0.819  0.8980 -0.8194  0.2106
 1016SOL    HW2 3869   1.000   3.488   0.967 -1.1372 -0.5758  1.1198
 1017SOL     OW 3870   0.364   2.052   0.690  0.6963 -0.0128  0.1381
 1017SOL    HW1 3871   0.377   2.145   0.726 -1.6768  1.6786 -2.9209
 1017SOL    HW2 3872   0.317   1.996   0.758  0.4306  1.5882  1.3380
 1018SOL     OW 3873   3.566   4.822   6.624 -0.0247  0.0652 -0.3757
 1018SOL    HW1 3874   3.489   4.762   6.645  0.9404 -1.4241 -0.9283
 1018SOL    HW2 3875   3.573   4.894   6.694 -0.7406 -0.9421  0.7547
 1019SOL     OW 3876   3.551   2.969   4.804 -0.1021 -0.3258 -0.5452
 1019SOL    HW1 3877   3.622   2.903   4.780  2.1893  2.6071 -2.3950
 1019SOL    HW2 3878   3.576   3.015   4.889 -0.0979  0.3267 -0.9002
 1020SOL     OW 3879   2.492   2.759   6.736 -0.4213 -0.5155 -0.2359
 1020SOL    HW1 3880   2.449   2.711   6.659 -0.5995 -1.0270  0.1743
 1020SOL    HW2 3881   2.516   2.693   6.807  3.4943 -0.6988 -1.4987
 1021SOL     OW 3882   6.874   6.946   3.125  0.1437 -0.4347 -0.0803
 1021SOL    HW1 3883   6.954   6.896   3.094  0.1075 -1.2521  1.0648
 1021SOL    HW2 3884   6.891   6.985   3.216 -0.4157  0.2062 -0.2415
 1022SOL     OW 3885   1.960   1.296   2.539  0.1181  0.0213 -0.4884
 1022SOL    HW1 3886   1.960   1.226   2.468  1.5264 -1.1038  0.5318
 1022SOL    HW2 3887   1.866   1.317   2.566 -0.3940 -0.2839 -1.9345
 1023SOL     OW 3888   0.700   1.164   0.921  0.7038 -0.3547  0.0652
 1023SOL    HW1 3889   0.713   1.104   0.999 -0.3787 -0.6930 -0.0014
 1023SOL    HW2 3890   0.664   1.112   0.844  0.6233  0.2052 -0.2832
 1024SOL     OW 3891   1.043   5.604   2.091  0.3184 -0.4592  0.7318
 1024SOL    HW1 3892   0.949   5.623   2.120  0.2127  0.2365 -0.0718
 1024SOL    HW2 3893   1.101   5.683   2.110  0.6015 -0.6262  0.5789
 1025SOL     OW 3894   3.272   6.789   2.543 -0.4298  0.1822 -0.2305
 1025SOL    HW1 3895   3.174   6.809   2.536 -0.3688  0.1120 -1.7840
 1025SOL    HW2 3896   3.298   6.726   2.470  0.7364  0.0261  0.3015
 1026SOL     OW 3897   1.804   1.975   0.216 -0.0078  1.1369 -0.0990
 1026SOL    HW1 3898   1.773   1.886   0.182  0.6324  0.6604  0.5162
 1026SOL    HW2 3899   1.904   1.977   0.217  0.0243  1.0826  1.7949
 1027SOL     OW 3900   6.826   1.687   5.575 -0.9820  0.7483 -0.6851
 1027SOL    HW1 3901   6.895   1.703   5.646 -1.0346 -0.3838 -0.3742
 1027SOL    HW2 3902   6.856   1.612   5.516 -0.6272  2.0556 -2.2737
 1028SOL     OW 3903   4.175   0.215   3.842  0.4314  0.1521 -0.0351
 1028SOL    HW1 3904   4.129   0.274   3.775  0.9002  0.8719  0.2536
 1028SOL    HW2 3905   4.170   0.258   3.932  0.2209 -0.5712  0.3087
 1029SOL     OW 3906   6.538   0.901   3.109  0.1809 -0.0589 -0.7024
 1029SOL    HW1 3907   6.560   0.916   3.013  0.7147  1.5148 -0.3476
 1029SOL    HW2 3908   6.467   0.830   3.115 -0.7251  0.6514 -2.3127
 1030SOL     OW 3909   6.384   0.819   2.469  0.6246 -0.2132  0.8207
 1030SOL    HW1 3910   6.440   0.786   2.393 -0.2159 -1.1980  0.6085
 1030SOL    HW2 3911   6.289   0.828   2.440  0.3598 -0.1974  1.6357
 1031SOL     OW 3912   1.607   3.873   4.678  0.4988 -0.3280  0.5041
 1031SOL    HW1 3913   1.528   3.933   4.669 -0.0646 -0.9294  1.2339
 1031SOL    HW2 3914   1.621   3.851   4.775  0.6043 -1.4717  0.2454
 1032SOL     OW 3915   0.417   4.742   0.921 -0.2809  0.2409 -0.1865
 1032SOL    HW1 3916   0.464   4.755   0.834 -0.4113  1.6396 -0.0897
 1032SOL    HW2 3917   0.462   4.670   0.973 -0.9749 -1.5324 -1.9058
 1033SOL     OW 3918   3.219   3.633   7.005 -0.0632  0.1314 -0.4894
 1033SOL    HW1 3919   3.257   3.694   6.936  1.8448  0.5883  0.8877
 1033SOL    HW2 3920   3.132   3.596   6.972  1.1330 -0.3464 -3.4560
 1034SOL     OW 3921   3.356   4.552   1.282  0.1479 -0.0113 -0.2934
 1034SOL    HW1 3922   3.427   4.531   1.215  0.1439 -0.6881 -0.0924
 1034SOL    HW2 3923   3.278   4.593   1.236 -0.4014 -1.6864 -0.9230
 1035SOL     OW 3924   0.383   1.514   5.210 -0.6348  0.4892 -0.4622
 1035SOL    HW1 3925   0.391   1.423   5.170  0.4340  0.4233 -0.1109
 1035SOL    HW2 3926   0.466   1.567   5.192 -0.4239  0.7073  1.0198
 1036SOL     OW 3927   1.743   1.684   1.261  0.1189  0.5927 -0.0497
 1036SOL    HW1 3928   1.751   1.591   1.225 -0.6344  0.4886  0.0145
 1036SOL    HW2 3929   1.675   1.735   1.206  0.6384  1.1498 -0.1837
 1037SOL     OW 3930   6.744   6.978   3.595 -0.9353 -0.0157 -0.4366
 1037SOL    HW1 3931   6.711   6.888   3.622 -1.2229  0.2130 -0.0041
 1037SOL    HW2 3932   6.823   7.003   3.651 -0.4580 -0.2749 -1.0018
 1038SOL     OW 3933   5.859   1.146   0.358 -0.1934 -0.5351  0.2479
 1038SOL    HW1 3934   5.930   1.078   0.342  1.2224  0.6020  1.4046
 1038SOL    HW2 3935   5.797   1.114   0.430 -0.2745 -1.1138 -0.0764
 1039SOL     OW 3936   6.434   4.290   3.490  0.0126  0.0254 -0.6498
 1039SOL    HW1 3937   6.464   4.207   3.536  0.7132  0.6090 -0.0498
 1039SOL    HW2 3938   6.472   4.293   3.397  2.4438  1.0787  0.3025
 1040SOL     OW 3939   0.049   0.486   2.597  0.2411  0.4765  0.1808
 1040SOL    HW1 3940   0.048   0.414   2.527 -0.3428 -0.4856  1.1352
 1040SOL    HW2 3941   0.136   0.483   2.646  0.9217  1.5816 -0.8937
 1041SOL     OW 3942   3.786   5.014   4.144 -0.3535 -0.0626 -0.5296
 1041SOL    HW1 3943   3.757   4.929   4.099  1.3517  0.3257 -2.4813
 1041SOL    HW2 3944   3.774   5.091   4.082  0.7569  0.7117  0.1619
 1042SOL     OW 3945   6.655   4.623   5.921 -0.2169  0.1275  0.0428
 1042SOL    HW1 3946   6.580   4.639   5.857  1.9649  0.8340 -2.5436
 1042SOL    HW2 3947   6.621   4.627   6.014 -3.8538 -2.0206 -0.9809
 1043SOL     OW 3948   1.450   2.738   0.971  0.1856  0.2574  0.2355
 1043SOL    HW1 3949   1.446   2.723   1.070 -1.4508  1.7499  0.4217
 1043SOL    HW2 3950   1.372   2.694   0.927 -0.2255  1.3194 -0.1331
 1044SOL     OW 3951   3.693   3.449   5.818  0.1468  0.2394 -0.3803
 1044SOL    HW1 3952   3.727   3.417   5.729 -2.4377  1.9542 -2.1490
 1044SOL    HW2 3953   3.623   3.386   5.851  1.0679 -0.3692  0.4422
 1045SOL     OW 3954   1.285   1.151   2.040  0.1492  0.2891  0.0328
 1045SOL    HW1 3955   1.378   1.123   2.016 -0.4495 -1.6189 -0.2218
 1045SOL    HW2 3956   1.222   1.126   1.967 -0.3776  3.2156 -0.6475
 1046SOL     OW 3957   2.454   0.692   6.552  0.0265 -0.0658  0.2029
 1046SOL    HW1 3958   2.537   0.650   6.513 -0.5567 -0.7208 -0.3605
 1046SOL    HW2 3959   2.427   0.770   6.496  0.4185  0.3229  0.5468
 1047SOL     OW 3960   1.386   0.154   0.615 -0.1942 -0.2281 -0.2647
 1047SOL    HW1 3961   1.438   0.194   0.691  0.0203 -0.6007 -0.2058
 1047SOL    HW2 3962   1.393   0.054   0.620  0.6594 -0.2479 -1.3333
 1048SOL     OW 3963   6.514   4.063   5.910  0.0981  0.4509 -0.4505
 1048SOL    HW1 3964   6.573   3.986   5.887  0.5703 -0.0031  2.1160
 1048SOL    HW2 3965   6.563   4.149   5.893  1.1180  0.0914  0.5591
 1049SOL     OW 3966   0.916   3.886   2.887 -0.3985 -0.3012  0.1352
 1049SOL    HW1 3967   0.993   3.835   2.926 -0.2278 -0.7088 -0.7168
 1049SOL    HW2 3968   0.865   3.930   2.960  2.2135  2.2631  0.5629
 1050SOL     OW 3969   1.879   4.311   1.703 -0.1047 -0.2365  0.3415
 1050SOL    HW1 3970   1.811   4.345   1.638  0.0020 -0.9176 -0.1390
 1050SOL    HW2 3971   1.833   4.270   1.781 -0.2996 -1.7213 -0.5042
 1051SOL     OW 3972   6.583   0.361   1.528  0.3196  0.5249  0.3014
 1051SOL    HW1 3973   6.577   0.305   1.610  0.6912  0.4245  0.2628
 1051SOL    HW2 3974   6.665   0.337   1.477  0.6176  1.2740  0.4114
 1052SOL     OW 3975   2.471   2.530   4.898 -0.0607 -0.6426 -0.0020
 1052SOL    HW1 3976   2.466   2.494   4.805  0.1823 -2.0307  0.4967
 1052SOL    HW2 3977   2.561   2.510   4.937 -0.9477 -2.2342  1.3503
 1053SOL     OW 3978   5.695   5.371   2.796  0.4310  0.0552  0.0094
 1053SOL    HW1 3979   5.622   5.317   2.837  0.3245 -0.7476 -1.1949
 1053SOL    HW2 3980   5.663   5.410   2.710  0.3737  2.3886  0.9661
 1054SOL     OW 3981   2.173   1.631   2.179  0.2625 -0.0391  0.2992
 1054SOL    HW1 3982   2.185   1.535   2.206  0.3535 -0.5565 -1.4509
 1054SOL    HW2 3983   2.088   1.666   2.218 -1.4142 -1.8257 -1.5178
 1055SOL     OW 3984   0.649   0.521   5.190 -1.1161  0.8050  0.0713
 1055SOL    HW1 3985   0.718   0.545   5.258 -1.9919  0.4350  1.1106
 1055SOL    HW2 3986   0.678   0.555   5.100 -0.1771  1.7245  0.6975
 1056SOL     OW 3987   4.008   1.042   3.463  0.0134 -0.5416 -0.1155
 1056SOL    HW1 3988   3.936   1.107   3.489 -0.2368 -1.1652  0.7871
 1056SOL    HW2 3989   4.071   1.087   3.399 -0.3904  0.4543  0.1619
 1057SOL     OW 3990   1.728   1.645   4.078 -0.4321 -0.1646  0.1541
 1057SOL    HW1 3991   1.652   1.628   4.141 -0.5759 -1.0017 -0.2349
 1057SOL    HW2 3992   1.707   1.603   3.989 -0.2723  1.0635 -0.4934
 1058SOL     OW 3993   1.112   6.773   6.697  0.0833 -0.2816  0.0970
 1058SOL    HW1 3994   1.082   6.766   6.793 -0.2725 -0.9489 -0.0552
 1058SOL    HW2 3995   1.087   6.863   6.662  1.5701  0.5495  1.0769
 1059SOL     OW 3996   4.504   3.611   2.039  0.1988 -0.4981 -0.2512
 1059SOL    HW1 3997   4.595   3.578   2.064  0.8096  0.3913 -1.2086
 1059SOL    HW2 3998   4.453   3.538   1.994  0.8926 -0.6606 -0.7985
 1060SOL     OW 3999   5.140   5.752   5.613  0.7746 -0.8885 -0.4020
 1060SOL    HW1 4000   5.194   5.776   5.533  0.3282  1.5865 -0.0505
 1060SOL    HW2 4001   5.191   5.775   5.696  0.0087 -0.3776 -0.0546
 1061SOL     OW 4002   4.367   1.669   0.777  0.4249 -0.2777  0.0373
 1061SOL    HW1 4003   4.436   1.707   0.716  0.6273  1.0546  1.0497
 1061SOL    HW2 4004   4.281   1.658   0.728  0.7465  0.1799 -0.6484
 1062SOL     OW 4005   4.637   5.292   1.029  0.0995  0.2107 -0.1024
 1062SOL    HW1 4006   4.576   5.370   1.046 -1.7644 -0.8380 -1.5526
 1062SOL    HW2 4007   4.591   5.226   0.969  2.7735 -0.6031 -1.3967
 1063SOL     OW 4008   3.120   5.679   3.709  0.0068 -0.6229  0.3381
 1063SOL    HW1 4009   3.118   5.778   3.722 -2.1478 -0.3863 -1.3299
 1063SOL    HW2 4010   3.208   5.652   3.671  0.2825  0.7826 -0.0802
 1064SOL     OW 4011   6.832   4.718   1.144  0.2140  0.2032 -0.3080
 1064SOL    HW1 4012   6.882   4.804   1.156  2.3937 -1.0704  0.3845
 1064SOL    HW2 4013   6.868   4.669   1.064 -0.0862 -0.6439  0.0627
 1065SOL     OW 4014   5.749   2.600   2.996  1.0038 -0.7195  0.7794
 1065SOL    HW1 4015   5.730   2.644   2.908 -0.8517 -0.2677  1.3542
 1065SOL    HW2 4016   5.844   2.615   3.021  1.7010 -1.2343 -1.3519
 1066SOL     OW 4017   2.174   5.517   5.525  0.5210  0.1667  0.0371
 1066SOL    HW1 4018   2.238   5.537   5.599  2.0161 -1.2626 -0.7862
 1066SOL    HW2 4019   2.125   5.432   5.545 -0.2522  0.6146  0.0976
 1067SOL     OW 4020   2.382   5.240   0.407 -0.2989 -0.1397  0.5584
 1067SOL    HW1 4021   2.299   5.184   0.404  0.7707 -1.7658 -1.7014
 1067SOL    HW2 4022   2.462   5.180   0.404  0.9552  1.4752  0.5227
 1068SOL     OW 4023   1.671   1.835   1.460 -0.3039  0.3382 -0.2092
 1068SOL    HW1 4024   1.733   1.912   1.473  0.2349 -0.1642  0.2693
 1068SOL    HW2 4025   1.705   1.777   1.386  1.0098 -1.0842  1.4071
 1069SOL     OW 4026   2.989   3.209   3.872  0.6158 -0.4035 -0.1657
 1069SOL    HW1 4027   3.075   3.212   3.924  1.3181 -0.1765 -1.2971
 1069SOL    HW2 4028   3.008   3.182   3.777 -0.6187 -0.7352 -0.3320
 1070SOL     OW 4029   6.789   4.741   5.128 -0.0934  0.2540  0.1668
 1070SOL    HW1 4030   6.751   4.833   5.140 -1.8080 -0.4938  0.8605
 1070SOL    HW2 4031   6.726   4.674   5.166  1.2764 -1.2066 -0.0244
 1071SOL     OW 4032   6.722   0.531   2.473 -0.8225  0.2258 -0.4070
 1071SOL    HW1 4033   6.751   0.444   2.513 -0.7007  0.1624 -0.6175
 1071SOL    HW2 4034   6.644   0.515   2.413  0.1816 -0.0511 -1.7359
 1072SOL     OW 4035   3.394   6.885   3.947  0.2741  0.0989 -0.5064
 1072SOL    HW1 4036   3.295   6.891   3.936  0.4662  0.0619 -2.4931
 1072SOL    HW2 4037   3.415   6.819   4.020 -1.1790  2.6621  2.4708
 1073SOL     OW 4038   5.381   5.048   5.260 -1.0115  0.9272  0.4557
 1073SOL    HW1 4039   5.400   5.141   5.230 -0.5516  1.8104  3.1748
 1073SOL    HW2 4040   5.283   5.038   5.280 -1.1055  0.7234 -0.0519
 1074SOL     OW 4041   5.413   2.528   0.979 -0.5031  0.0981 -0.5057
 1074SOL    HW1 4042   5.424   2.524   0.879 -0.6624 -0.5716 -0.5048
 1074SOL    HW2 4043   5.465   2.453   1.021 -0.9431 -0.0040 -0.1352
 1075SOL     OW 4044   1.605   4.905   0.044  0.2694  0.6805  0.4921
 1075SOL    HW1 4045   1.596   4.828   0.107  0.5583  0.1591 -0.0955
 1075SOL    HW2 4046   1.515   4.940   0.021  0.1266  0.3956  0.6417
 1076SOL     OW 4047   4.166   5.504   2.586 -0.1443 -0.6243  0.0452
 1076SOL    HW1 4048   4.197   5.598   2.601 -1.6051 -0.1749  0.4159
 1076SOL    HW2 4049   4.135   5.494   2.492  0.1319 -0.7758 -0.0328
 1077SOL     OW 4050   3.624   6.472   4.219  0.0100 -0.4687 -0.0090
 1077SOL    HW1 4051   3.577   6.559   4.202  0.6022 -0.6288 -3.0336
 1077SOL    HW2 4052   3.718   6.490   4.246 -0.4846 -0.1991  1.6573
 1078SOL     OW 4053   2.762   5.341   1.684  0.4847 -0.5916  0.2550
 1078SOL    HW1 4054   2.762   5.326   1.585  0.0719 -2.8022  0.5556
 1078SOL    HW2 4055   2.671   5.321   1.721 -0.2342  2.8666  0.8180
 1079SOL     OW 4056   2.815   6.331   4.001 -0.3301  0.3115  0.6453
 1079SOL    HW1 4057   2.857   6.323   3.911  1.6958  1.3164  1.4667
 1079SOL    HW2 4058   2.767   6.418   4.008  1.0792  1.0875  1.1189
 1080SOL     OW 4059   0.190   5.526   6.628  0.6347 -0.0812 -0.0245
 1080SOL    HW1 4060   0.194   5.554   6.723 -1.2951 -2.0316  0.7295
 1080SOL    HW2 4061   0.140   5.595   6.575 -1.2117 -0.4728  1.1134
 1081SOL     OW 4062   4.192   6.767   1.916  0.2025  0.2702 -0.2909
 1081SOL    HW1 4063   4.209   6.773   1.818  1.1608  0.5856 -0.1173
 1081SOL    HW2 4064   4.279   6.760   1.965 -0.2349  0.5669  0.5599
 1082SOL     OW 4065   2.026   2.266   0.284  0.3676 -0.2530 -0.4514
 1082SOL    HW1 4066   2.026   2.290   0.381  2.7376 -0.1157 -0.4300
 1082SOL    HW2 4067   1.934   2.279   0.247  0.4797  5.5298  0.3808
 1083SOL     OW 4068   4.303   0.377   5.458 -0.7022  0.1214 -0.5356
 1083SOL    HW1 4069   4.251   0.357   5.375  0.4932 -1.8708 -0.8720
 1083SOL    HW2 4070   4.243   0.368   5.537 -1.4431  0.2647 -1.0682
 1084SOL     OW 4071   2.550   3.355   3.218  0.4100  0.2459 -0.2859
 1084SOL    HW1 4072   2.594   3.383   3.133  0.1103  2.7408  0.2880
 1084SOL    HW2 4073   2.457   3.392   3.221  0.4557  0.2905  1.1762
 1085SOL     OW 4074   0.123   3.280   1.058  0.0808  0.3189  0.2289
 1085SOL    HW1 4075   0.054   3.209   1.071  1.2962 -0.5121  2.9233
 1085SOL    HW2 4076   0.171   3.264   0.972 -1.4137 -0.5369 -0.4958
 1086SOL     OW 4077   0.613   1.201   4.408 -0.0850 -0.0440  0.0055
 1086SOL    HW1 4078   0.544   1.186   4.338 -1.0963 -1.9798  1.3143
 1086SOL    HW2 4079   0.654   1.114   4.434 -1.1221  0.2620  3.1051
 1087SOL     OW 4080   2.156   3.181   1.397  0.9608  0.2931 -0.3331
 1087SOL    HW1 4081   2.069   3.209   1.357  1.0501  1.2429  0.1273
 1087SOL    HW2 4082   2.172   3.084   1.375 -0.9539 -0.3572  0.8991
 1088SOL     OW 4083   1.670   4.623   6.775  0.4560  0.0818  0.4286
 1088SOL    HW1 4084   1.603   4.620   6.849 -0.3991 -1.4120 -0.3533
 1088SOL    HW2 4085   1.674   4.533   6.730  1.5674  0.7063 -0.7942
 1089SOL     OW 4086   0.470   0.599   5.651 -0.0451  0.4995 -0.6812
 1089SOL    HW1 4087   0.534   0.639   5.585 -0.0486  0.3954 -0.7501
 1089SOL    HW2 4088   0.377   0.624   5.627 -0.2484 -1.3799 -2.0610
 1090SOL     OW 4089   2.582   5.659   1.151 -0.2938  0.1901  0.4393
 1090SOL    HW1 4090   2.518   5.667   1.074  0.4139  1.6310 -0.0080
 1090SOL    HW2 4091   2.574   5.739   1.210  0.9146  0.2520  0.5313
 1091SOL     OW 4092   0.089   1.320   0.173  0.1506 -0.2259  0.3026
 1091SOL    HW1 4093   0.154   1.270   0.231 -0.2716 -0.9757  0.1459
 1091SOL    HW2 4094   0.041   1.255   0.113 -0.0109  0.4452 -0.2960
 1092SOL     OW 4095   6.002   1.367   5.840  0.5519 -0.6700  0.3029
 1092SOL    HW1 4096   5.972   1.321   5.756  1.8336 -1.1314  0.0710
 1092SOL    HW2 4097   6.052   1.450   5.816  0.9205 -0.8027  0.5924
 1093SOL     OW 4098   0.827   3.322   1.272 -0.3744  0.1269 -0.2880
 1093SOL    HW1 4099   0.873   3.406   1.304 -0.3073 -0.7340  2.0417
 1093SOL    HW2 4100   0.878   3.243   1.304 -1.1343 -0.8438 -1.4161
 1094SOL     OW 4101   0.867   2.910   2.117 -0.2423 -0.2564 -0.1634
 1094SOL    HW1 4102   0.816   2.886   2.200 -0.7382  0.7630 -0.1607
 1094SOL    HW2 4103   0.805   2.946   2.048  0.6835  3.7614  0.8430
 1095SOL     OW 4104   4.193   1.102   4.893  0.4155  0.0412 -0.2046
 1095SOL    HW1 4105   4.275   1.047   4.884  1.1257  0.7390  1.5014
 1095SOL    HW2 4106   4.179   1.156   4.810  1.2255 -0.6836 -0.8234
 1096SOL     OW 4107   2.311   5.403   6.037 -0.1109  0.1598 -0.1065
 1096SOL    HW1 4108   2.307   5.444   6.128 -2.9097  3.2779 -1.4543
 1096SOL    HW2 4109   2.282   5.307   6.042  1.1460 -0.1536  2.4037
 1097SOL     OW 4110   0.620   5.604   1.859 -0.4106  0.6139  0.5948
 1097SOL    HW1 4111   0.593   5.529   1.800 -0.4517 -0.1907  1.6074
 1097SOL    HW2 4112   0.595   5.691   1.817  1.5225  0.2261 -1.6028
 1098SOL     OW 4113   1.354   3.561   4.185 -0.1561  0.0594  0.1052
 1098SOL    HW1 4114   1.438   3.588   4.138  0.4926 -2.5424 -0.3899
 1098SOL    HW2 4115   1.279   3.556   4.118 -0.6044  1.6827  0.4236
 1099SOL     OW 4116   3.533   0.402   5.007  0.2151  0.0416 -0.3061
 1099SOL    HW1 4117   3.454   0.458   4.980  0.4782  0.4469 -0.2516
 1099SOL    HW2 4118   3.557   0.340   4.933  0.9342  1.1502 -1.0418
 1100SOL     OW 4119   1.209   6.159   3.138 -0.4157 -0.2793  0.0436
 1100SOL    HW1 4120   1.264   6.217   3.198 -0.1738  0.9491 -1.3200
 1100SOL    HW2 4121   1.236   6.173   3.043 -0.0619 -2.9603 -0.3309
 1101SOL     OW 4122   0.509   0.108   0.119 -0.4218  0.3591 -0.0928
 1101SOL    HW1 4123   0.578   0.171   0.154  0.0796 -1.4075  2.3493
 1101SOL    HW2 4124   0.450   0.078   0.194 -0.9797 -1.6462 -1.2667
 1102SOL     OW 4125   5.599   1.545   2.996  0.4078  0.0926  0.2291
 1102SOL    HW1 4126   5.650   1.463   2.970  2.6705  1.1664  1.0472
 1102SOL    HW2 4127   5.656   1.625   2.983 -1.2306  1.4226  0.8588
 1103SOL     OW 4128   3.610   2.210   0.403  0.7215 -0.0227 -0.3693
 1103SOL    HW1 4129   3.616   2.121   0.447  1.6884  0.5484  0.6959
 1103SOL    HW2 4130   3.520   2.220   0.360  0.4067 -1.2798 -0.0253
 1104SOL     OW 4131   0.806   5.312   0.943 -0.5675  0.0766  0.2392
 1104SOL    HW1 4132   0.803   5.394   0.886  2.5965  0.7463  0.7751
 1104SOL    HW2 4133   0.856   5.240   0.895  1.2205  0.2919  1.6776
 1105SOL     OW 4134   0.534   5.347   0.591 -0.2111  0.0878  0.2469
 1105SOL    HW1 4135   0.606   5.409   0.561 -1.1746  1.5013  0.7362
 1105SOL    HW2 4136   0.529   5.346   0.690 -1.2064  0.3917  0.2075
 1106SOL     OW 4137   3.220   6.919   5.262 -0.3901 -0.5740  0.3241
 1106SOL    HW1 4138   3.283   6.869   5.321  2.8557  0.9595 -1.6153
 1106SOL    HW2 4139   3.201   7.009   5.302  2.1888  0.6585 -0.9548
 1107SOL     OW 4140   4.170   6.696   4.718  0.0041  0.2701  0.0450
 1107SOL    HW1 4141   4.210   6.753   4.790 -0.8187  1.5407 -0.4760
 1107SOL    HW2 4142   4.096   6.641   4.757 -1.7653  2.3932 -0.1368
 1108SOL     OW 4143   2.619   1.086   3.300  0.5391  0.2794  0.6614
 1108SOL    HW1 4144   2.698   1.146   3.283  0.6548 -0.2538 -0.9434
 1108SOL    HW2 4145   2.537   1.127   3.260  0.4192 -0.1312  0.4732
 1109SOL     OW 4146   4.160   2.245   0.192 -0.3136  0.0646  1.2243
 1109SOL    HW1 4147   4.246   2.293   0.212 -0.1984 -0.0390  0.9859
 1109SOL    HW2 4148   4.119   2.214   0.278 -0.0038 -0.0663  1.3297
 1110SOL     OW 4149   2.239   4.420   6.086 -0.1831  0.2118  0.2775
 1110SOL    HW1 4150   2.311   4.372   6.036  1.3737  1.5524  1.1044
 1110SOL    HW2 4151   2.165   4.356   6.109  0.9377 -1.3216 -0.1927
 1111SOL     OW 4152   6.299   0.368   5.579  0.1502  0.4885 -0.4925
 1111SOL    HW1 4153   6.324   0.463   5.562  3.0042 -0.1476 -0.5296
 1111SOL    HW2 4154   6.299   0.351   5.678  1.3642  0.2136 -0.5104
 1112SOL     OW 4155   1.599   1.773   3.591  0.4379 -0.2767  0.4658
 1112SOL    HW1 4156   1.616   1.818   3.678  0.1047  1.1503 -0.1837
 1112SOL    HW2 4157   1.507   1.736   3.589  0.1301  0.4726  0.4060
 1113SOL     OW 4158   6.789   0.716   2.648  0.5805 -0.1613 -0.6141
 1113SOL    HW1 4159   6.888   0.726   2.649  0.6076 -0.4946 -0.0365
 1113SOL    HW2 4160   6.764   0.637   2.592  0.6420 -0.1197 -0.7011
 1114SOL     OW 4161   5.349   4.805   6.007 -0.1295  0.1095  0.2342
 1114SOL    HW1 4162   5.383   4.725   6.057  0.7968 -0.6553 -1.5045
 1114SOL    HW2 4163   5.287   4.775   5.935  0.3421  0.9459 -0.5422
 1115SOL     OW 4164   0.370   4.314   1.302 -0.4396 -1.0849 -0.0256
 1115SOL    HW1 4165   0.300   4.254   1.264  0.3943 -1.9231 -0.2887
 1115SOL    HW2 4166   0.387   4.288   1.397 -1.3929 -0.0338  0.4441
 1116SOL     OW 4167   5.332   1.943   1.553 -0.4055  0.9130  0.1587
 1116SOL    HW1 4168   5.417   1.937   1.499 -1.5770  1.9806 -1.9434
 1116SOL    HW2 4169   5.318   1.857   1.602  1.7822  0.6479  0.4285
 1117SOL     OW 4170   6.715   2.505   6.284 -0.4889  0.5056  0.2673
 1117SOL    HW1 4171   6.631   2.486   6.232  0.2439  1.8116 -1.5090
 1117SOL    HW2 4172   6.793   2.505   6.221  0.5180  1.6349  1.4617
 1118SOL     OW 4173   3.866   0.481   3.836 -0.8048  0.6257 -0.1459
 1118SOL    HW1 4174   3.927   0.499   3.913 -0.5332  0.9185 -0.4307
 1118SOL    HW2 4175   3.848   0.383   3.830  0.1472  0.4641 -0.4520
 1119SOL     OW 4176   1.824   4.903   2.606 -0.5743 -0.3388 -0.5972
 1119SOL    HW1 4177   1.832   4.808   2.635 -2.2449  0.5223  3.3832
 1119SOL    HW2 4178   1.915   4.941   2.590  0.1561 -2.3903 -1.6003
 1120SOL     OW 4179   4.788   6.271   5.926  0.3717 -0.7154  0.2717
 1120SOL    HW1 4180   4.885   6.274   5.949  0.0847  1.2527  1.4951
 1120SOL    HW2 4181   4.777   6.234   5.833  2.1536 -2.1377  0.5745
 1121SOL     OW 4182   2.341   4.645   2.857  0.3450 -0.5233 -0.4533
 1121SOL    HW1 4183   2.370   4.549   2.854  0.5721 -0.4665 -0.0488
 1121SOL    HW2 4184   2.393   4.693   2.927 -0.6102 -0.3787  0.1755
 1122SOL     OW 4185   4.540   2.532   1.554  0.9546  0.4708  0.3968
 1122SOL    HW1 4186   4.503   2.457   1.500  0.5492 -0.0484  1.3686
 1122SOL    HW2 4187   4.612   2.498   1.615  0.7718  0.8686  0.8425
 1123SOL     OW 4188   2.271   2.414   0.746 -0.5417 -0.2377 -0.5931
 1123SOL    HW1 4189   2.319   2.496   0.716 -0.7026 -0.6905 -2.1407
 1123SOL    HW2 4190   2.306   2.387   0.836 -0.1060  1.1947 -0.3036
 1124SOL     OW 4191   1.058   2.185   2.028  0.4142  0.7136  0.2157
 1124SOL    HW1 4192   1.004   2.230   1.957 -3.3004 -1.6954  1.2649
 1124SOL    HW2 4193   1.058   2.242   2.110 -0.1763  0.9487  0.0662
 1125SOL     OW 4194   2.280   4.761   1.811 -0.4294 -0.3478  0.0867
 1125SOL    HW1 4195   2.284   4.860   1.820  0.3438 -0.4628  1.1639
 1125SOL    HW2 4196   2.339   4.733   1.735 -0.1894 -0.0261  0.1488
 1126SOL     OW 4197   3.464   6.886   1.222 -0.1497  0.3866 -0.4300
 1126SOL    HW1 4198   3.415   6.973   1.217  0.7536  1.0882  1.7275
 1126SOL    HW2 4199   3.482   6.864   1.318  4.9314  0.9388 -0.9657
 1127SOL     OW 4200   1.984   6.620   3.696  0.2115 -0.1190 -0.2949
 1127SOL    HW1 4201   1.935   6.688   3.751  0.0855  0.8395 -1.5617
 1127SOL    HW2 4202   2.021   6.549   3.757 -1.8203 -0.3163  0.8224
 1128SOL     OW 4203   0.241   4.321   5.056  0.2400  0.1731  0.5380
 1128SOL    HW1 4204   0.284   4.266   4.984  1.2344  0.7039  0.6943
 1128SOL    HW2 4205   0.187   4.262   5.115 -0.5279 -0.2792 -0.5840
 1129SOL     OW 4206   4.232   4.681   3.347  0.4470  1.1757  0.1021
 1129SOL    HW1 4207   4.315   4.728   3.377  0.1281  2.1033 -0.4389
 1129SOL    HW2 4208   4.203   4.718   3.259 -0.1586  0.3828 -0.0370
 1130SOL     OW 4209   1.211   0.096   3.948  0.0332 -0.0838  0.1997
 1130SOL    HW1 4210   1.189   0.010   3.903 -1.1974  0.5006 -0.3814
 1130SOL    HW2 4211   1.201   0.171   3.882  1.7626  0.4532  0.5009
 1131SOL     OW 4212   5.956   0.908   7.000  0.6565 -0.2511 -0.3790
 1131SOL    HW1 4213   5.893   0.912   7.077  3.1855  0.1185  1.7668
 1131SOL    HW2 4214   5.918   0.849   6.929 -2.0360 -0.1228  0.8504
 1132SOL     OW 4215   3.349   0.192   3.722  0.9722  0.6438  0.2049
 1132SOL    HW1 4216   3.286   0.250   3.671  0.3964  1.3921  1.7059
 1132SOL    HW2 4217   3.419   0.156   3.660  0.3683  1.5884 -1.0698
 1133SOL     OW 4218   3.097   0.885   2.102 -0.5373 -0.3763 -0.0491
 1133SOL    HW1 4219   3.076   0.943   2.024 -1.1341 -0.3142  0.1484
 1133SOL    HW2 4220   3.029   0.812   2.109 -0.5706 -0.3022  0.4886
 1134SOL     OW 4221   1.399   3.027   2.281  0.0191  0.1130 -0.0534
 1134SOL    HW1 4222   1.385   3.039   2.379 -0.7914 -0.2402 -0.1160
 1134SOL    HW2 4223   1.322   3.066   2.231  0.3738  0.1967 -0.5456
 1135SOL     OW 4224   0.763   0.904   3.325 -0.0525  0.6960 -0.7091
 1135SOL    HW1 4225   0.741   0.892   3.228 -0.7619 -0.4475 -0.4265
 1135SOL    HW2 4226   0.857   0.938   3.333  0.0325  0.7611 -1.7888
 1136SOL     OW 4227   0.251   5.651   2.690 -0.3334 -0.1384 -0.1416
 1136SOL    HW1 4228   0.165   5.601   2.697  0.2530 -1.1139  0.3129
 1136SOL    HW2 4229   0.312   5.623   2.764 -0.5467  2.3800  1.1014
 1137SOL     OW 4230   4.242   5.211   3.554  0.2013  0.1284  0.0974
 1137SOL    HW1 4231   4.176   5.136   3.560  1.6204 -1.4865 -2.7474
 1137SOL    HW2 4232   4.197   5.292   3.516 -0.9915  0.3582  1.8604
 1138SOL     OW 4233   3.469   6.238   3.139 -0.5600  0.0153 -0.2276
 1138SOL    HW1 4234   3.413   6.310   3.098  0.4106 -0.0377 -1.7365
 1138SOL    HW2 4235   3.561   6.239   3.098 -0.1993 -1.4203  0.4456
 1139SOL     OW 4236   6.583   4.409   1.709  0.1723 -0.0964 -0.0704
 1139SOL    HW1 4237   6.682   4.407   1.723  0.1098  0.3175  0.4819
 1139SOL    HW2 4238   6.559   4.349   1.633  0.8045 -0.5136  0.0468
 1140SOL     OW 4239   4.400   2.403   5.672  0.3051  0.8392 -0.2133
 1140SOL    HW1 4240   4.374   2.373   5.580  0.0734  0.1105  0.0831
 1140SOL    HW2 4241   4.480   2.462   5.666 -0.1883  1.4730 -0.9605
 1141SOL     OW 4242   2.697   0.381   1.789 -0.3144  0.7716 -0.5321
 1141SOL    HW1 4243   2.788   0.419   1.801 -0.0778 -0.4829  3.1701
 1141SOL    HW2 4244   2.702   0.281   1.790 -1.7365  0.6688  0.9128
 1142SOL     OW 4245   6.731   5.277   3.612  0.1374 -0.1778  0.5864
 1142SOL    HW1 4246   6.829   5.283   3.631  0.3215  0.0295 -0.3727
 1142SOL    HW2 4247   6.682   5.253   3.696  0.9486  0.2304  1.1911
 1143SOL     OW 4248   1.639   5.402   2.846  0.0712  0.0219 -0.3629
 1143SOL    HW1 4249   1.666   5.312   2.811 -0.7666 -0.4031  0.0893
 1143SOL    HW2 4250   1.552   5.429   2.805 -0.7830 -0.3472  1.1388
 1144SOL     OW 4251   1.479   0.060   0.999 -0.1580  0.2060 -0.0827
 1144SOL    HW1 4252   1.486   0.147   0.949 -1.7419 -0.3530 -1.3812
 1144SOL    HW2 4253   1.389   0.019   0.982 -0.7226 -0.1329  3.1382
 1145SOL     OW 4254   5.668   4.621   5.421 -0.0091  0.6721 -0.4547
 1145SOL    HW1 4255   5.762   4.601   5.451 -0.1667 -0.6243 -0.7533
 1145SOL    HW2 4256   5.632   4.541   5.372 -1.9104  0.4025  1.2384
 1146SOL     OW 4257   1.737   6.350   3.937  0.2872 -0.0479 -0.1096
 1146SOL    HW1 4258   1.759   6.342   3.840  1.1834 -0.1645  0.0984
 1146SOL    HW2 4259   1.638   6.363   3.948  0.2733  0.8334 -1.0880
 1147SOL     OW 4260   6.361   4.207   5.360  0.7897  0.1012 -0.4085
 1147SOL    HW1 4261   6.316   4.208   5.449  0.6974  0.7209 -0.4581
 1147SOL    HW2 4262   6.441   4.146   5.364 -0.5268 -1.6998 -0.5735
 1148SOL     OW 4263   3.470   5.125   5.425  0.4935 -0.3345  0.0105
 1148SOL    HW1 4264   3.462   5.220   5.454  0.1347 -0.8090  1.5336
 1148SOL    HW2 4265   3.397   5.071   5.466  1.2182 -1.4440 -0.1186
 1149SOL     OW 4266   4.398   4.117   0.024  0.0605  0.2232  0.0147
 1149SOL    HW1 4267   4.322   4.172   0.061  0.1962  0.8769 -0.6502
 1149SOL    HW2 4268   4.474   4.178   0.001  0.8473 -0.4410  0.8341
 1150SOL     OW 4269   5.194   3.001   1.903  0.5898  0.2017  0.0315
 1150SOL    HW1 4270   5.239   3.042   1.983  1.0015 -0.5498  0.2047
 1150SOL    HW2 4271   5.095   2.995   1.919  0.9158 -2.4321  1.7130
 1151SOL     OW 4272   6.833   4.194   3.261  0.2859  0.0630 -0.3170
 1151SOL    HW1 4273   6.881   4.215   3.176  0.1062 -2.1143 -1.0392
 1151SOL    HW2 4274   6.872   4.248   3.336  0.6713  1.7803 -1.6966
 1152SOL     OW 4275   3.770   1.721   4.806  0.3913  0.6199  0.2696
 1152SOL    HW1 4276   3.789   1.809   4.849 -0.6409  1.4293 -0.8709
 1152SOL    HW2 4277   3.707   1.668   4.864  0.2110  1.0629  0.4824
 1153SOL     OW 4278   4.159   4.075   0.412 -0.3192 -0.5389 -0.3968
 1153SOL    HW1 4279   4.256   4.099   0.406 -0.1502 -1.0443  0.0787
 1153SOL    HW2 4280   4.150   3.976   0.415 -0.7671 -0.4872  0.6147
 1154SOL     OW 4281   0.333   4.074   3.107  0.0475  0.0430 -0.3305
 1154SOL    HW1 4282   0.411   4.135   3.113 -0.9486  1.3096  0.2340
 1154SOL    HW2 4283   0.339   4.019   3.024  1.5304  0.1065 -0.2808
 1155SOL     OW 4284   1.763   3.021   5.960  0.1160 -0.6212 -0.2587
 1155SOL    HW1 4285   1.753   2.950   6.030  0.5700 -0.5692 -0.1400
 1155SOL    HW2 4286   1.747   3.111   6.001  0.8323 -0.5549 -0.1238
 1156SOL     OW 4287   2.685   6.542   5.403  0.0012 -0.5541 -0.1243
 1156SOL    HW1 4288   2.674   6.443   5.395  1.6265 -0.6122 -3.4009
 1156SOL    HW2 4289   2.598   6.584   5.429 -1.0782 -2.7304 -0.0607
 1157SOL     OW 4290   3.189   2.746   6.289 -0.0240  0.1023  0.7418
 1157SOL    HW1 4291   3.196   2.723   6.192 -1.4651  0.4100  0.5368
 1157SOL    HW2 4292   3.165   2.842   6.299 -2.2660 -0.4689  1.2920
 1158SOL     OW 4293   0.857   3.842   0.463  0.6273  0.2567 -0.0934
 1158SOL    HW1 4294   0.790   3.776   0.496  0.4677  1.2251  1.6539
 1158SOL    HW2 4295   0.911   3.876   0.539 -0.1404  3.0703 -0.6769
 1159SOL     OW 4296   3.071   6.089   4.258  0.3465 -0.1780 -0.7545
 1159SOL    HW1 4297   3.002   6.019   4.242 -0.3789  0.2735  0.3093
 1159SOL    HW2 4298   3.027   6.175   4.281  1.2185 -0.3744  2.0663
 1160SOL     OW 4299   6.261   5.121   2.988  0.1836  0.2727 -0.1646
 1160SOL    HW1 4300   6.263   5.166   2.899  0.2168 -0.5985 -0.6234
 1160SOL    HW2 4301   6.236   5.025   2.976  1.1465 -0.1042  0.6572
 1161SOL     OW 4302   0.809   0.191   4.749 -0.2373 -0.4224  0.5533
 1161SOL    HW1 4303   0.876   0.192   4.823 -1.0048  0.9573  1.2832
 1161SOL    HW2 4304   0.719   0.213   4.786 -1.4044 -3.6082 -0.1706
 1162SOL     OW 4305   6.297   2.997   2.296  0.6876 -0.0031 -0.0439
 1162SOL    HW1 4306   6.204   3.031   2.284  0.6314 -0.3410 -0.6171
 1162SOL    HW2 4307   6.295   2.908   2.341  0.5626 -1.0764 -2.0434
 1163SOL     OW 4308   4.774   5.724   4.388 -0.4361  0.2797 -0.3201
 1163SOL    HW1 4309   4.801   5.642   4.439 -1.1377  1.4933  2.1802
 1163SOL    HW2 4310   4.756   5.700   4.293  1.4169 -2.0473 -0.1668
 1164SOL     OW 4311   0.804   2.929   1.335 -0.1127 -0.2357  0.0727
 1164SOL    HW1 4312   0.736   2.960   1.401 -0.6547 -0.9535 -0.1366
 1164SOL    HW2 4313   0.833   2.836   1.356 -0.3767 -0.5159 -0.7527
 1165SOL     OW 4314   6.346   4.746   4.240 -0.7675 -0.1218  0.0578
 1165SOL    HW1 4315   6.401   4.731   4.322 -0.6370  0.1220  0.0144
 1165SOL    HW2 4316   6.390   4.703   4.161  0.3475  1.6591 -0.3549
 1166SOL     OW 4317   1.366   4.535   3.527 -0.7665 -0.6790 -0.2491
 1166SOL    HW1 4318   1.317   4.621   3.513 -1.0638 -0.8002  0.0035
 1166SOL    HW2 4319   1.392   4.527   3.623  0.5230 -0.2161 -0.5396
 1167SOL     OW 4320   5.104   1.290   0.690 -0.3411  0.1129 -0.3873
 1167SOL    HW1 4321   5.166   1.364   0.717  0.5365 -0.9458  0.6236
 1167SOL    HW2 4322   5.014   1.328   0.671  0.5856  1.7250 -1.9641
 1168SOL     OW 4323   3.988   1.786   5.495  0.2820  0.2487 -0.2081
 1168SOL    HW1 4324   4.058   1.845   5.535  1.5404  0.3751 -2.4077
 1168SOL    HW2 4325   3.976   1.705   5.552  2.9750 -0.2435 -0.2256
 1169SOL     OW 4326   3.076   2.651   1.022  0.5179 -0.3288 -0.2929
 1169SOL    HW1 4327   3.027   2.623   0.939 -0.8917  0.2909  0.2998
 1169SOL    HW2 4328   3.110   2.745   1.010 -1.3987  0.5242  0.5007
 1170SOL     OW 4329   6.584   5.124   1.881  0.1164  0.2146 -0.1523
 1170SOL    HW1 4330   6.614   5.077   1.798  1.6469 -1.4153  1.2345
 1170SOL    HW2 4331   6.562   5.056   1.951  0.4242  1.5640  1.3039
 1171SOL     OW 4332   5.923   0.621   1.612  0.1558  0.1502 -0.3371
 1171SOL    HW1 4333   5.913   0.717   1.637 -0.9109  0.0893 -0.4697
 1171SOL    HW2 4334   5.836   0.573   1.627 -0.1130 -0.2470 -2.5539
 1172SOL     OW 4335   0.200   1.684   0.624 -0.0398 -0.2260 -0.4539
 1172SOL    HW1 4336   0.202   1.658   0.721  0.4555  1.4426  0.0103
 1172SOL    HW2 4337   0.283   1.736   0.602 -1.1731  1.3339 -1.2032
 1173SOL     OW 4338   1.848   4.853   6.054  0.4302 -0.3401  0.6438
 1173SOL    HW1 4339   1.908   4.839   5.975  0.7613  0.2012  0.7979
 1173SOL    HW2 4340   1.769   4.792   6.046  1.0975 -1.2049  0.5488
 1174SOL     OW 4341   2.205   2.135   4.386  0.7432 -0.8414  0.2743
 1174SOL    HW1 4342   2.185   2.232   4.399  2.0810 -0.3646 -0.9846
 1174SOL    HW2 4343   2.120   2.085   4.371  0.1848  0.6637 -2.1500
 1175SOL     OW 4344   5.198   0.452   3.779 -0.6150 -0.5065 -0.7773
 1175SOL    HW1 4345   5.272   0.418   3.720  1.0902  0.5404  0.6784
 1175SOL    HW2 4346   5.122   0.387   3.777  0.6310 -2.0177 -1.7237
 1176SOL     OW 4347   4.744   4.815   1.955  0.6021  0.0995  0.2809
 1176SOL    HW1 4348   4.743   4.749   1.880 -1.3973  0.0425  0.2765
 1176SOL    HW2 4349   4.784   4.901   1.923  1.0091 -0.3506 -0.4488
 1177SOL     OW 4350   3.450   1.500   5.547  0.2957  0.2781  0.2621
 1177SOL    HW1 4351   3.438   1.577   5.484  1.8655  1.1057  0.9164
 1177SOL    HW2 4352   3.514   1.434   5.507 -1.1204 -0.7798 -0.3411
 1178SOL     OW 4353   4.453   4.029   1.889  0.3155 -0.0988 -0.3333
 1178SOL    HW1 4354   4.403   4.056   1.972 -1.2980 -1.2944 -0.8710
 1178SOL    HW2 4355   4.546   4.066   1.892  1.0257 -1.8343  2.9824
 1179SOL     OW 4356   0.027   2.499   6.499 -0.1489 -0.4174  0.2727
 1179SOL    HW1 4357   0.062   2.556   6.425 -0.8371 -0.3448  0.0015
 1179SOL    HW2 4358   0.021   2.554   6.583 -0.2365 -0.2542  0.1611
 1180SOL     OW 4359   0.083   2.064   3.406  0.7779 -0.1977 -0.0952
 1180SOL    HW1 4360   0.028   2.069   3.489  1.3066  3.4871  0.1861
 1180SOL    HW2 4361   0.117   1.970   3.394  0.1251 -1.0221  3.4265
 1181SOL     OW 4362   6.334   3.486   3.563 -0.1936  0.3030 -0.5339
 1181SOL    HW1 4363   6.311   3.561   3.500  1.0983  1.9674  0.9033
 1181SOL    HW2 4364   6.427   3.455   3.544 -1.0189 -1.6173 -1.7121
 1182SOL     OW 4365   6.414   4.630   0.379  0.1778  0.1363 -0.0682
 1182SOL    HW1 4366   6.505   4.598   0.353  0.7580  1.6993 -0.0816
 1182SOL    HW2 4367   6.372   4.677   0.301 -0.1684  0.3952  0.2728
 1183SOL     OW 4368   6.010   6.014   3.389  0.5738 -0.0874 -0.2375
 1183SOL    HW1 4369   6.099   6.055   3.366  0.3365  0.5660 -0.0172
 1183SOL    HW2 4370   5.967   5.980   3.305  1.6732 -1.7618 -0.1721
 1184SOL     OW 4371   2.689   3.055   5.322  0.1105  0.2949  0.3509
 1184SOL    HW1 4372   2.759   3.108   5.369  1.3044 -2.0865  1.4229
 1184SOL    HW2 4373   2.628   3.013   5.389 -0.8744  0.3805 -0.4706
 1185SOL     OW 4374   6.569   0.395   1.172  0.5738 -0.3463  0.1263
 1185SOL    HW1 4375   6.475   0.410   1.200  0.7601  1.2067 -0.0180
 1185SOL    HW2 4376   6.571   0.342   1.087 -0.2607  1.1559 -0.8785
 1186SOL     OW 4377   3.756   5.018   2.905  0.4637 -0.1636  0.4973
 1186SOL    HW1 4378   3.717   5.084   2.841  1.2496  0.5936  0.7850
 1186SOL    HW2 4379   3.712   5.027   2.994  0.5119 -0.0907  0.5141
 1187SOL     OW 4380   0.590   6.274   6.755  0.0982 -0.3123  0.2334
 1187SOL    HW1 4381   0.614   6.368   6.729 -1.7360  0.6528  1.7684
 1187SOL    HW2 4382   0.663   6.236   6.812  0.7965  0.2292 -0.2796
 1188SOL     OW 4383   1.916   4.703   4.886 -0.1553 -0.1061 -0.4063
 1188SOL    HW1 4384   2.010   4.699   4.851  0.2278  0.5202  0.5065
 1188SOL    HW2 4385   1.870   4.784   4.849  0.4087  0.8290  0.8594
 1189SOL     OW 4386   5.448   6.753   0.234 -0.1091  0.7466 -0.4668
 1189SOL    HW1 4387   5.438   6.816   0.311  0.6893 -0.5022  0.6928
 1189SOL    HW2 4388   5.543   6.755   0.202  0.1415 -0.4794  0.1435
 1190SOL     OW 4389   1.782   0.455   0.720 -0.1999 -0.1303  0.3011
 1190SOL    HW1 4390   1.800   0.396   0.799  1.3160 -0.0321  0.0565
 1190SOL    HW2 4391   1.780   0.401   0.637  2.0928  0.1907 -0.0406
 1191SOL     OW 4392   2.143   1.601   4.542  0.1363  0.4111  0.2966
 1191SOL    HW1 4393   2.234   1.611   4.503  0.0308  2.2185  0.3765
 1191SOL    HW2 4394   2.081   1.565   4.472  0.5638  0.8301 -0.3148
 1192SOL     OW 4395   2.376   3.265   6.564 -0.6406  0.1062 -0.6150
 1192SOL    HW1 4396   2.441   3.190   6.551 -0.7924  0.2103 -2.3695
 1192SOL    HW2 4397   2.405   3.322   6.641  1.6861  0.4530 -1.6553
 1193SOL     OW 4398   3.188   4.032   0.460  0.0435 -0.1011 -0.1435
 1193SOL    HW1 4399   3.159   3.938   0.478 -0.1017 -0.1978 -0.8416
 1193SOL    HW2 4400   3.116   4.095   0.491 -1.0472 -0.3403 -2.0547
 1194SOL     OW 4401   1.644   6.197   0.508 -0.1623  0.9883  0.5203
 1194SOL    HW1 4402   1.634   6.211   0.606  1.0939 -0.1472  0.8343
 1194SOL    HW2 4403   1.595   6.270   0.459 -0.8313  1.5506  1.9653
 1195SOL     OW 4404   3.853   0.381   6.202 -0.9108  0.0747  0.2620
 1195SOL    HW1 4405   3.912   0.425   6.135 -2.0035  1.5745  0.2519
 1195SOL    HW2 4406   3.839   0.285   6.176  2.6873 -0.7885  1.0726
 1196SOL     OW 4407   0.537   6.036   3.464  0.4786 -0.0173 -0.3016
 1196SOL    HW1 4408   0.460   6.018   3.403  0.6060  0.5479 -0.6385
 1196SOL    HW2 4409   0.574   5.948   3.497 -0.7389 -0.2703  0.4350
 1197SOL     OW 4410   5.888   5.656   3.640  0.1511 -0.2271 -0.5322
 1197SOL    HW1 4411   5.810   5.646   3.702 -0.4033  1.0390 -0.9901
 1197SOL    HW2 4412   5.969   5.682   3.693 -0.6081  2.1587 -0.3991
 1198SOL     OW 4413   2.155   2.108   1.171  0.2685 -0.2230  0.4758
 1198SOL    HW1 4414   2.227   2.172   1.198  0.1320 -0.3619  1.1970
 1198SOL    HW2 4415   2.066   2.147   1.192  0.1850 -0.6840  1.0268
 1199SOL     OW 4416   2.885   6.546   5.210  0.7010 -0.2589  0.6406
 1199SOL    HW1 4417   2.823   6.543   5.288  0.8657  3.7400  1.1397
 1199SOL    HW2 4418   2.970   6.592   5.236  0.8281  1.0829 -1.8208
 1200SOL     OW 4419   1.516   3.149   4.706 -0.0275  0.2755 -0.3067
 1200SOL    HW1 4420   1.588   3.212   4.676 -0.9431  1.2355 -0.5501
 1200SOL    HW2 4421   1.503   3.079   4.637  1.1183 -0.3143  0.0405
 1201SOL     OW 4422   0.268   5.122   2.448  0.2463 -0.0542 -0.0976
 1201SOL    HW1 4423   0.339   5.062   2.411 -0.6206 -0.4199 -1.2141
 1201SOL    HW2 4424   0.179   5.096   2.411 -0.2449  1.5253 -0.1220
 1202SOL     OW 4425   4.383   4.467   1.175  0.2049  0.4851  0.0757
 1202SOL    HW1 4426   4.376   4.502   1.269 -2.0814 -1.0371  0.5255
 1202SOL    HW2 4427   4.329   4.384   1.166 -1.5581  1.7869 -3.1593
 1203SOL     OW 4428   2.839   5.754   4.324  0.0232 -0.0177 -0.1245
 1203SOL    HW1 4429   2.821   5.822   4.396  1.0335  1.2776 -1.0470
 1203SOL    HW2 4430   2.772   5.680   4.331 -1.3083  1.2135  0.7412
 1204SOL     OW 4431   1.008   2.168   3.595 -0.1164  0.1399  0.5768
 1204SOL    HW1 4432   0.915   2.206   3.592  0.3436  1.3732  1.3099
 1204SOL    HW2 4433   1.026   2.132   3.686  0.3885  0.6192  0.6721
 1205SOL     OW 4434   0.330   5.707   5.800  0.3564 -0.3639 -0.0639
 1205SOL    HW1 4435   0.420   5.708   5.756  0.6452 -1.4864  0.4486
 1205SOL    HW2 4436   0.285   5.794   5.786  1.6296  0.3124 -0.1203
 1206SOL     OW 4437   0.095   3.130   0.560  0.3844 -0.3878 -0.0999
 1206SOL    HW1 4438   0.082   3.171   0.469  1.2127 -1.5667 -0.7549
 1206SOL    HW2 4439   0.005   3.104   0.597  0.0639 -0.1478 -0.6743
 1207SOL     OW 4440   6.960   0.493   3.667 -0.1234  0.6342  0.8182
 1207SOL    HW1 4441   7.052   0.518   3.637 -0.3736  0.2098 -0.3644
 1207SOL    HW2 4442   6.910   0.574   3.695 -0.1041  1.1625 -0.6051
 1208SOL     OW 4443   6.009   0.214   2.627 -0.0082  0.4094 -0.3471
 1208SOL    HW1 4444   6.058   0.287   2.578  3.5633 -0.0363  2.1343
 1208SOL    HW2 4445   5.963   0.253   2.707  2.4584  0.0820  1.3650
 1209SOL     OW 4446   3.421   0.485   6.431 -0.1150 -0.6569  0.2661
 1209SOL    HW1 4447   3.354   0.424   6.389  0.0537 -0.8537  0.2826
 1209SOL    HW2 4448   3.508   0.478   6.382 -0.1479 -0.2938  0.1501
 1210SOL     OW 4449   5.102   3.112   1.466 -0.4822  0.0470 -0.0271
 1210SOL    HW1 4450   5.066   3.125   1.374  3.1623  0.3687 -1.5865
 1210SOL    HW2 4451   5.122   3.015   1.481 -3.9424 -0.5675  1.8044
 1211SOL     OW 4452   6.163   2.898   6.208  0.1442  0.2852 -0.2443
 1211SOL    HW1 4453   6.077   2.881   6.159 -0.0333 -1.3037  0.5366
 1211SOL    HW2 4454   6.195   2.812   6.248  1.6341  1.0388  0.2451
 1212SOL     OW 4455   4.197   4.292   2.410  0.2370  0.0508 -0.5271
 1212SOL    HW1 4456   4.147   4.207   2.394 -2.5240  1.8380 -2.1933
 1212SOL    HW2 4457   4.256   4.311   2.331  1.5062 -0.6597  0.2129
 1213SOL     OW 4458   5.302   5.037   4.951 -0.0024 -0.1855  0.7408
 1213SOL    HW1 4459   5.328   4.961   5.010 -0.6851 -1.5989 -0.6935
 1213SOL    HW2 4460   5.202   5.042   4.946  0.0458 -0.0555 -0.2194
 1214SOL     OW 4461   1.403   4.153   5.589 -0.1148  0.6845 -0.0003
 1214SOL    HW1 4462   1.445   4.106   5.511 -0.7564  2.2612 -1.3815
 1214SOL    HW2 4463   1.456   4.235   5.611 -1.5613  1.9140 -0.8343
 1215SOL     OW 4464   5.381   0.110   3.797  0.3561 -0.2707  0.1326
 1215SOL    HW1 4465   5.467   0.135   3.842 -0.7200  0.8418  1.6484
 1215SOL    HW2 4466   5.304   0.135   3.855 -0.9829 -2.2462 -0.6985
 1216SOL     OW 4467   3.171   4.004   4.119  0.3429 -0.0579  0.2739
 1216SOL    HW1 4468   3.103   3.979   4.187 -0.7896 -0.2705 -0.8923
 1216SOL    HW2 4469   3.128   4.007   4.028  1.1232  3.0205 -0.0872
 1217SOL     OW 4470   4.856   1.505   3.911 -0.2253 -0.3703  0.1312
 1217SOL    HW1 4471   4.850   1.424   3.854  2.1331 -0.9514  0.6439
 1217SOL    HW2 4472   4.818   1.485   4.002  0.4922 -0.9621  0.3086
 1218SOL     OW 4473   5.461   6.245   2.547  0.4388 -0.5594  0.5254
 1218SOL    HW1 4474   5.400   6.185   2.599 -1.3708  1.0996  0.4216
 1218SOL    HW2 4475   5.555   6.214   2.559 -0.2866 -2.5704  1.5789
 1219SOL     OW 4476   4.760   0.093   5.437 -0.5956  0.4139  0.0606
 1219SOL    HW1 4477   4.788   0.020   5.374 -1.7479 -0.2710  0.2878
 1219SOL    HW2 4478   4.841   0.130   5.483 -0.0092 -1.2869  0.5068
 1220SOL     OW 4479   6.033   0.068   2.395 -0.5645  0.1664  0.4359
 1220SOL    HW1 4480   6.046   0.122   2.478  2.9411 -0.2904  0.3554
 1220SOL    HW2 4481   6.116   0.074   2.339 -1.5554 -2.1625 -1.4419
 1221SOL     OW 4482   5.439   4.997   2.209 -0.8506 -0.7570  0.2783
 1221SOL    HW1 4483   5.504   4.935   2.165  0.9107  1.0067  0.2593
 1221SOL    HW2 4484   5.476   5.027   2.297 -1.4739  0.5640  0.1059
 1222SOL     OW 4485   1.172   1.556   2.410  0.1012 -0.1447  0.2810
 1222SOL    HW1 4486   1.253   1.560   2.352  0.1962 -0.9974  0.3412
 1222SOL    HW2 4487   1.098   1.609   2.368  0.7731  0.8878  0.3780
 1223SOL     OW 4488   1.750   1.847   4.903 -0.3829 -0.1627 -0.9281
 1223SOL    HW1 4489   1.811   1.769   4.916 -0.9556 -0.4939 -0.1037
 1223SOL    HW2 4490   1.673   1.840   4.967  0.1843  1.6928  0.0164
 1224SOL     OW 4491   4.334   3.533   5.143 -0.4254 -0.0141 -0.5964
 1224SOL    HW1 4492   4.234   3.527   5.141 -0.5829  0.4095  1.7800
 1224SOL    HW2 4493   4.370   3.460   5.201  0.4269  1.2636  0.5490
 1225SOL     OW 4494   3.326   3.508   0.228  0.3415 -1.2566  0.3047
 1225SOL    HW1 4495   3.312   3.573   0.153  0.6343 -2.3854 -0.7671
 1225SOL    HW2 4496   3.265   3.430   0.216 -1.5381 -0.3078  2.7276
 1226SOL     OW 4497   3.870   1.271   3.564 -0.5361  0.1901 -0.2869
 1226SOL    HW1 4498   3.804   1.342   3.585 -0.2038  0.5326 -0.3837
 1226SOL    HW2 4499   3.956   1.292   3.611 -0.4173 -0.1146 -0.3600
 1227SOL     OW 4500   4.562   0.227   0.021  0.2600  0.3403  0.0211
 1227SOL    HW1 4501   4.601   0.312  -0.015  1.6922 -0.2284  0.1647
 1227SOL    HW2 4502   4.628   0.185   0.084 -0.4814 -0.8173  0.0050
 1228SOL     OW 4503   1.370   3.916   3.407  0.8123  0.0014  0.4419
 1228SOL    HW1 4504   1.422   3.989   3.363 -2.6390  2.8360  0.6767
 1228SOL    HW2 4505   1.296   3.956   3.462 -1.3208 -3.6992  0.5561
 1229SOL     OW 4506   6.172   4.688   3.916  0.3343  0.3768 -0.1852
 1229SOL    HW1 4507   6.098   4.665   3.853  0.5390 -0.6057 -0.0729
 1229SOL    HW2 4508   6.255   4.710   3.864  0.8855 -1.7227 -0.2708
 1230SOL     OW 4509   5.209   5.741   4.647 -0.0680 -0.6334  0.3832
 1230SOL    HW1 4510   5.298   5.786   4.639  0.0896 -0.8077  1.0349
 1230SOL    HW2 4511   5.161   5.748   4.560  0.7129 -0.8138 -0.0897
 1231SOL     OW 4512   2.021   2.610   0.784 -0.0450  0.3266 -0.2959
 1231SOL    HW1 4513   2.075   2.683   0.826 -1.8950  1.1019  0.8253
 1231SOL    HW2 4514   2.017   2.624   0.685  0.6178  1.0386 -0.2317
 1232SOL     OW 4515   2.290   1.581   2.521  0.4602  0.3957 -0.2253
 1232SOL    HW1 4516   2.291   1.650   2.595  0.4401  0.4260 -0.2521
 1232SOL    HW2 4517   2.362   1.602   2.456  1.2394 -0.2932  0.3865
 1233SOL     OW 4518   3.280   5.726   5.880  0.3379  0.3521 -0.1579
 1233SOL    HW1 4519   3.226   5.770   5.951  0.1956  1.6427 -1.0444
 1233SOL    HW2 4520   3.232   5.730   5.793  0.3132 -1.6078 -0.2767
 1234SOL     OW 4521   1.496   6.863   4.428 -0.0713 -1.0180  0.0693
 1234SOL    HW1 4522   1.502   6.945   4.371 -1.6213 -0.8596  0.0750
 1234SOL    HW2 4523   1.410   6.865   4.479  1.2007 -1.2222  2.3521
 1235SOL     OW 4524   1.697   5.924   4.747 -0.1251 -0.2352 -0.7356
 1235SOL    HW1 4525   1.654   5.842   4.707 -2.5401  0.9321 -0.7454
 1235SOL    HW2 4526   1.653   6.006   4.711  2.0616  1.1250 -0.5349
 1236SOL     OW 4527   7.010   6.193   0.949 -0.6191  0.1590 -0.0157
 1236SOL    HW1 4528   6.911   6.199   0.958 -0.6997 -1.6022  0.2481
 1236SOL    HW2 4529   7.037   6.217   0.855 -1.5078 -1.4551 -0.7435
 1237SOL     OW 4530   3.535   0.731   4.805 -0.2362  0.6915  0.2832
 1237SOL    HW1 4531   3.479   0.742   4.887  1.7196 -0.4605  1.8564
 1237SOL    HW2 4532   3.548   0.820   4.761 -0.0527  1.5905  2.0901
 1238SOL     OW 4533   6.091   1.204   1.234  0.4867  0.4536 -0.3176
 1238SOL    HW1 4534   6.146   1.226   1.154 -0.1165  1.3446 -0.5088
 1238SOL    HW2 4535   6.085   1.105   1.245  0.0579  0.2962 -1.7402
 1239SOL     OW 4536   3.649   3.343   2.511  0.1810  0.0462 -0.0155
 1239SOL    HW1 4537   3.550   3.357   2.506  0.2729  0.6466 -0.3563
 1239SOL    HW2 4538   3.687   3.402   2.582  0.3143 -0.0881  0.0270
 1240SOL     OW 4539   1.316   1.555   1.057  0.1235  0.8884  0.2023
 1240SOL    HW1 4540   1.298   1.487   1.128  1.4668  1.2055  0.8744
 1240SOL    HW2 4541   1.269   1.640   1.081  0.1895  0.8560  0.4559
 1241SOL     OW 4542   5.269   6.888   2.573  0.8040  0.4946 -0.6868
 1241SOL    HW1 4543   5.309   6.879   2.482  0.9978 -0.1152 -0.5567
 1241SOL    HW2 4544   5.332   6.848   2.640 -0.6602 -1.9682 -0.6474
 1242SOL     OW 4545   4.939   2.069   0.847  0.1730 -0.1936 -0.3600
 1242SOL    HW1 4546   5.031   2.054   0.884 -0.2735 -0.2695  0.7847
 1242SOL    HW2 4547   4.931   2.025   0.758  1.3945  0.2334 -0.7020
 1243SOL     OW 4548   0.713   2.081   2.294 -0.3021 -1.1432  0.3344
 1243SOL    HW1 4549   0.741   2.170   2.259  2.2405 -2.1203 -0.3392
 1243SOL    HW2 4550   0.686   2.022   2.218 -2.9012 -0.7338  0.8495
 1244SOL     OW 4551   2.040   0.546   5.348 -0.0665  0.2169  0.2991
 1244SOL    HW1 4552   2.015   0.498   5.264  1.0186 -3.4698  1.8494
 1244SOL    HW2 4553   1.960   0.552   5.408  0.0193 -0.8600  0.5533
 1245SOL     OW 4554   0.394   5.186   3.134 -0.2793  0.2622  0.2913
 1245SOL    HW1 4555   0.349   5.275   3.146 -0.5519 -0.1391  2.8176
 1245SOL    HW2 4556   0.473   5.180   3.195 -0.7726 -1.5373  0.7950
 1246SOL     OW 4557   5.607   5.146   2.382 -0.5740 -0.1941 -0.3101
 1246SOL    HW1 4558   5.599   5.231   2.434 -1.0277 -0.1594 -0.4354
 1246SOL    HW2 4559   5.621   5.070   2.444 -0.2448 -0.0432 -0.1911
 1247SOL     OW 4560   2.943   2.815   1.434 -0.2849  0.7232  0.3621
 1247SOL    HW1 4561   2.900   2.856   1.353 -1.0816  0.6352  0.7356
 1247SOL    HW2 4562   2.925   2.717   1.436 -1.9151  0.9918  1.6190
 1248SOL     OW 4563   0.204   3.664   2.440  0.4124 -0.3436  0.4666
 1248SOL    HW1 4564   0.175   3.759   2.428  0.6435 -0.5979 -3.3192
 1248SOL    HW2 4565   0.123   3.605   2.448  0.2436  0.0038  1.4880
 1249SOL     OW 4566   2.172   3.607   0.197  0.3409  0.4610  0.4431
 1249SOL    HW1 4567   2.269   3.585   0.197  0.5818  1.4229 -0.6970
 1249SOL    HW2 4568   2.140   3.618   0.103 -1.0359 -0.4650  0.7548
 1250SOL     OW 4569   6.561   5.474   3.489  0.0255  0.9768  0.3367
 1250SOL    HW1 4570   6.593   5.399   3.547  2.6505  1.3157 -0.5583
 1250SOL    HW2 4571   6.608   5.471   3.401 -1.3709  2.4593 -0.5034
 1251SOL     OW 4572   0.278   2.143   5.784  0.2293 -0.1781  0.2136
 1251SOL    HW1 4573   0.290   2.122   5.881  0.7748  0.7807  0.3761
 1251SOL    HW2 4574   0.323   2.230   5.764  0.0466 -0.3265 -0.8853
 1252SOL     OW 4575   0.789   4.192   1.341  0.5203  0.2479  0.3721
 1252SOL    HW1 4576   0.837   4.118   1.294 -0.1279 -1.0904  1.7749
 1252SOL    HW2 4577   0.733   4.155   1.414 -1.7786  1.8632 -0.4574
 1253SOL     OW 4578   1.344   4.262   1.507 -0.2345 -0.0828 -0.0064
 1253SOL    HW1 4579   1.318   4.326   1.579  0.5856  0.5178 -0.2402
 1253SOL    HW2 4580   1.361   4.312   1.422 -1.9246 -0.8534 -0.8456
 1254SOL     OW 4581   3.078   4.683   0.103  0.4215  0.1335 -0.0153
 1254SOL    HW1 4582   3.061   4.682   0.202  0.1097 -0.0625 -0.0721
 1254SOL    HW2 4583   3.078   4.590   0.068  1.4949  0.1256 -0.0396
 1255SOL     OW 4584   4.004   0.371   1.286  0.4089 -0.2577  0.2246
 1255SOL    HW1 4585   3.915   0.376   1.333  0.5282  0.4813  0.3870
 1255SOL    HW2 4586   4.018   0.278   1.253 -0.4054 -0.3997  0.2361
 1256SOL     OW 4587   0.491   3.099   0.799  0.0776 -0.2670 -0.5929
 1256SOL    HW1 4588   0.590   3.099   0.783  0.1015  0.5806 -0.4988
 1256SOL    HW2 4589   0.443   3.087   0.712  0.2700 -3.4509 -0.3384
 1257SOL     OW 4590   0.022   2.918   1.758  0.4626  0.4252 -0.1713
 1257SOL    HW1 4591   0.057   2.989   1.820 -0.5022  1.6109 -0.9022
 1257SOL    HW2 4592   0.091   2.896   1.690  0.8517  0.5119  0.1886
 1258SOL     OW 4593   0.332   5.281   5.519  0.1892  0.2176  0.1622
 1258SOL    HW1 4594   0.327   5.339   5.600 -0.0361  0.4077  0.0142
 1258SOL    HW2 4595   0.242   5.243   5.499  0.6573 -1.5185  1.2277
 1259SOL     OW 4596   4.476   3.115   0.760  0.0648 -0.3026  0.5517
 1259SOL    HW1 4597   4.471   3.082   0.854  2.4992  0.8008  1.1561
 1259SOL    HW2 4598   4.399   3.176   0.742  0.4553  0.8633  2.4516
 1260SOL     OW 4599   0.842   6.268   2.667  0.9960 -0.2974 -0.3349
 1260SOL    HW1 4600   0.753   6.222   2.669  1.1309 -0.5461  0.4545
 1260SOL    HW2 4601   0.858   6.306   2.576  0.1343 -0.3558 -0.5198
 1261SOL     OW 4602   2.725   1.578   0.752 -0.7525 -0.5950  0.5639
 1261SOL    HW1 4603   2.796   1.566   0.821  1.5674  0.2950 -1.5067
 1261SOL    HW2 4604   2.726   1.499   0.690 -2.0482 -0.8704  0.8684
 1262SOL     OW 4605   5.694   0.452   6.554 -0.1169  0.7277  0.4681
 1262SOL    HW1 4606   5.634   0.436   6.633  0.2930  0.0095  0.6467
 1262SOL    HW2 4607   5.785   0.417   6.575 -0.5137 -1.4261 -1.0747
 1263SOL     OW 4608   4.316   4.405   5.517  0.2145 -0.3777 -0.1768
 1263SOL    HW1 4609   4.411   4.424   5.491 -0.5123  1.6067 -1.6427
 1263SOL    HW2 4610   4.256   4.421   5.438 -1.4967 -0.1179  1.1250
 1264SOL     OW 4611   5.807   4.511   3.988  0.7459  0.1721  0.3015
 1264SOL    HW1 4612   5.868   4.441   4.027  0.5932 -0.1600 -0.0457
 1264SOL    HW2 4613   5.846   4.602   4.005 -0.5858  0.2567  3.6596
 1265SOL     OW 4614   4.077   3.510   5.209  0.2750 -0.5036 -0.3101
 1265SOL    HW1 4615   4.012   3.566   5.158 -0.3008 -0.8829  0.0063
 1265SOL    HW2 4616   4.061   3.522   5.307  0.0210 -1.3725 -0.2373
 1266SOL     OW 4617   2.882   1.707   6.737  0.5498  0.0586  0.1318
 1266SOL    HW1 4618   2.788   1.731   6.717  1.1501  0.3775 -2.7734
 1266SOL    HW2 4619   2.890   1.608   6.749  0.1101 -0.2260 -1.6820
 1267SOL     OW 4620   6.403   3.410   6.558 -0.2229  0.2064 -0.1432
 1267SOL    HW1 4621   6.439   3.446   6.472 -0.3059 -0.2046 -0.3535
 1267SOL    HW2 4622   6.463   3.438   6.633  1.3238 -1.5956 -0.6443
 1268SOL     OW 4623   3.551   0.608   5.679 -0.9299  0.0927 -0.3730
 1268SOL    HW1 4624   3.599   0.601   5.592 -2.2207  0.4953 -1.1448
 1268SOL    HW2 4625   3.590   0.683   5.732 -0.3111  0.0182 -0.7113
 1269SOL     OW 4626   5.901   0.288   1.798  0.4465 -0.3721 -0.0070
 1269SOL    HW1 4627   5.988   0.294   1.749  1.1840  1.1499  1.4132
 1269SOL    HW2 4628   5.859   0.199   1.780  2.0329 -0.9311 -1.1422
 1270SOL     OW 4629   6.970   0.829   1.120  0.3980  0.3539 -0.3935
 1270SOL    HW1 4630   6.919   0.913   1.103 -1.7138 -0.1544  2.5998
 1270SOL    HW2 4631   7.040   0.847   1.189  1.4957  0.0826 -1.3994
 1271SOL     OW 4632   3.301   2.764   4.175  0.3388 -0.0266  0.6284
 1271SOL    HW1 4633   3.235   2.776   4.249  0.1808  0.0234  0.4776
 1271SOL    HW2 4634   3.394   2.778   4.212  0.1762  1.5340  0.4989
 1272SOL     OW 4635   5.336   6.925   1.294  0.4769 -0.7643 -0.4811
 1272SOL    HW1 4636   5.315   6.841   1.343  0.2035 -0.5726 -0.2674
 1272SOL    HW2 4637   5.383   6.989   1.355 -1.1566  0.0472 -0.0097
 1273SOL     OW 4638   1.731   1.737   0.119 -0.2666  0.2462 -0.3172
 1273SOL    HW1 4639   1.636   1.741   0.148 -0.0809 -0.5213  0.4473
 1273SOL    HW2 4640   1.773   1.653   0.153  0.0905 -0.5303 -2.5096
 1274SOL     OW 4641   2.230   3.397   2.734  0.0850  0.3141  0.8992
 1274SOL    HW1 4642   2.264   3.447   2.813  0.8105  0.6700  0.3722
 1274SOL    HW2 4643   2.307   3.368   2.677 -0.4914  1.2871 -0.4128
 1275SOL     OW 4644   1.121   1.481   3.153 -0.0808  0.1883 -1.2305
 1275SOL    HW1 4645   1.139   1.389   3.189 -0.2650  0.7395  0.3431
 1275SOL    HW2 4646   1.031   1.512   3.184  0.3783  1.2694 -0.9424
 1276SOL     OW 4647   2.482   3.061   1.226  0.7873  0.5764  0.3287
 1276SOL    HW1 4648   2.514   3.134   1.287  0.0259  0.7958  0.4770
 1276SOL    HW2 4649   2.392   3.029   1.257  0.6963  0.2247 -0.2899
 1277SOL     OW 4650   7.005   2.341   3.643 -0.3576 -0.3306  0.0962
 1277SOL    HW1 4651   7.000   2.242   3.648 -1.3087 -0.3272 -0.4175
 1277SOL    HW2 4652   6.914   2.378   3.623 -0.4045  0.7878  2.1049
 1278SOL     OW 4653   6.098   6.849   2.536 -0.8201  0.9319  0.2024
 1278SOL    HW1 4654   6.079   6.766   2.484 -0.3245 -0.5442  2.2205
 1278SOL    HW2 4655   6.059   6.928   2.489 -0.5149 -0.2777 -2.2621
 1279SOL     OW 4656   3.741   2.352   0.823 -0.4729  0.9033  0.6809
 1279SOL    HW1 4657   3.819   2.408   0.850  0.9093  0.0613 -1.3319
 1279SOL    HW2 4658   3.722   2.366   0.725 -1.0503 -0.9894  0.4923
 1280SOL     OW 4659   6.162   1.528   0.736  0.0426  0.1387 -0.0377
 1280SOL    HW1 4660   6.108   1.490   0.661 -0.3157 -0.2505  0.4107
 1280SOL    HW2 4661   6.259   1.511   0.718  0.1990  2.4021 -1.7292
 1281SOL     OW 4662   3.318   3.583   5.962 -0.1260 -0.1162  0.5810
 1281SOL    HW1 4663   3.224   3.562   5.990 -0.6731 -1.9604 -2.2778
 1281SOL    HW2 4664   3.366   3.499   5.941  1.0636  0.9496 -1.2291
 1282SOL     OW 4665   0.890   1.257   3.361 -0.1703  0.3379 -0.4116
 1282SOL    HW1 4666   0.872   1.352   3.388 -1.6099  0.8071 -2.7106
 1282SOL    HW2 4667   0.855   1.195   3.431 -0.8873  1.5031  0.2904
 1283SOL     OW 4668   0.790   2.084   4.341  0.1466 -0.4110 -0.0524
 1283SOL    HW1 4669   0.746   2.171   4.360  0.4964  0.1523 -1.7047
 1283SOL    HW2 4670   0.887   2.099   4.322  0.6996 -1.4176  1.6650
 1284SOL     OW 4671   6.972   2.781   0.629 -0.1335  0.0672 -0.2783
 1284SOL    HW1 4672   7.022   2.800   0.545  0.5319 -0.2162  0.0658
 1284SOL    HW2 4673   6.993   2.688   0.660  0.3847  0.5133  0.7387
 1285SOL     OW 4674   0.407   0.650   3.779  0.5257 -0.8281  0.3075
 1285SOL    HW1 4675   0.436   0.562   3.818  3.3090 -0.8357 -1.4388
 1285SOL    HW2 4676   0.339   0.634   3.707  1.3700 -1.6478 -0.3338
 1286SOL     OW 4677   0.870   6.901   1.166  0.2276 -0.2916  0.1422
 1286SOL    HW1 4678   0.825   6.914   1.254 -3.0062  1.3094 -1.5915
 1286SOL    HW2 4679   0.958   6.949   1.166 -0.8780  1.8621  1.6711
 1287SOL     OW 4680   0.984   6.073   3.527 -0.2649  0.8912  0.1580
 1287SOL    HW1 4681   1.028   6.030   3.605 -1.2330  0.1227  0.2969
 1287SOL    HW2 4682   1.027   6.161   3.508  1.4401  0.0831  0.1465
 1288SOL     OW 4683   0.932   0.906   3.791  0.3538 -0.3673  0.6158
 1288SOL    HW1 4684   0.867   0.832   3.808  0.1968  0.2204  2.9728
 1288SOL    HW2 4685   0.903   0.957   3.709 -0.2437 -2.0906 -0.3085
 1289SOL     OW 4686   6.235   3.289   2.534  0.1045  0.6553 -0.4050
 1289SOL    HW1 4687   6.320   3.336   2.559 -0.9504  1.5135  1.8452
 1289SOL    HW2 4688   6.214   3.220   2.602 -1.0574  0.5091 -0.8908
 1290SOL     OW 4689   0.322   0.883   3.902  0.4708  0.3689 -0.0315
 1290SOL    HW1 4690   0.384   0.928   3.967  0.0380  0.1309  0.5587
 1290SOL    HW2 4691   0.374   0.818   3.847  0.7709  0.2405  0.3890
 1291SOL     OW 4692   5.176   2.589   1.094 -0.4410 -0.1976  0.3482
 1291SOL    HW1 4693   5.255   2.546   1.050 -1.0232 -3.3859  2.0551
 1291SOL    HW2 4694   5.204   2.627   1.182 -0.4511  0.5550  0.0357
 1292SOL     OW 4695   6.860   1.134   0.096  0.2973  0.6033 -0.0580
 1292SOL    HW1 4696   6.787   1.127   0.028  0.7517  1.8336 -0.6878
 1292SOL    HW2 4697   6.836   1.203   0.164  0.1426 -0.1581  0.6852
 1293SOL     OW 4698   3.824   6.472   3.115 -0.0363  0.8081  0.2912
 1293SOL    HW1 4699   3.862   6.534   3.183  2.0728 -0.9077  0.7670
 1293SOL    HW2 4700   3.857   6.498   3.024 -0.2264  1.1321  0.3078
 1294SOL     OW 4701   5.573   5.690   0.483 -0.1317  0.4785  0.6117
 1294SOL    HW1 4702   5.637   5.638   0.427  1.0256  1.0184  1.4082
 1294SOL    HW2 4703   5.485   5.642   0.486  0.0706 -0.0269 -0.8845
 1295SOL     OW 4704   1.167   1.849   4.845  0.2731  0.2797  0.1589
 1295SOL    HW1 4705   1.116   1.775   4.802  1.2504  0.2898 -1.0662
 1295SOL    HW2 4706   1.116   1.935   4.835 -1.0506 -0.2384  1.9291
 1296SOL     OW 4707   4.367   4.042   2.568 -0.3826 -0.6301 -0.1453
 1296SOL    HW1 4708   4.332   4.030   2.475  0.2298 -0.2361 -0.4328
 1296SOL    HW2 4709   4.336   4.131   2.604  1.2485  0.2569 -0.8403
 1297SOL     OW 4710   1.483   0.981   0.027  0.0052  0.2142 -0.3513
 1297SOL    HW1 4711   1.432   0.898   0.006 -1.7945  1.0631  0.4176
 1297SOL    HW2 4712   1.428   1.061   0.002  0.7185  1.1739  1.0465
 1298SOL     OW 4713   2.262   6.124   1.252  0.2731  0.1737  0.2345
 1298SOL    HW1 4714   2.170   6.147   1.219  0.0689 -0.7489  0.1424
 1298SOL    HW2 4715   2.322   6.105   1.174  0.1594 -0.6330  0.3377
 1299SOL     OW 4716   4.503   4.663   4.378 -0.0109  0.3503 -0.2195
 1299SOL    HW1 4717   4.508   4.752   4.334  0.3227  0.8849  0.8677
 1299SOL    HW2 4718   4.412   4.651   4.418 -0.3699 -0.2034 -1.1725
 1300SOL     OW 4719   0.816   6.615   0.049  0.8277  0.5730  0.1919
 1300SOL    HW1 4720   0.763   6.698   0.033 -0.0586  0.2923  1.5422
 1300SOL    HW2 4721   0.756   6.542   0.082  1.4526 -0.8803 -1.6434
 1301SOL     OW 4722   0.904   5.792   1.502 -0.6071 -0.2288 -0.6274
 1301SOL    HW1 4723   0.870   5.790   1.408 -2.0065  1.0515 -0.2034
 1301SOL    HW2 4724   0.989   5.740   1.509 -0.4154 -0.2440 -2.6111
 1302SOL     OW 4725   0.666   0.701   2.216 -0.0707 -0.2180 -0.2734
 1302SOL    HW1 4726   0.648   0.745   2.304 -0.6219 -0.2585 -0.3603
 1302SOL    HW2 4727   0.693   0.605   2.232 -0.8814 -0.4376 -0.1806
 1303SOL     OW 4728   1.429   1.035   4.785  0.0497  0.4554 -0.0525
 1303SOL    HW1 4729   1.419   0.936   4.797 -0.9533  0.8194  3.2682
 1303SOL    HW2 4730   1.503   1.068   4.844 -0.1211  1.7840 -0.5540
 1304SOL     OW 4731   3.165   5.911   4.512 -0.3269  0.0171  0.1843
 1304SOL    HW1 4732   3.216   5.961   4.442 -1.6644 -0.4150 -1.1642
 1304SOL    HW2 4733   3.185   5.950   4.602 -0.4786  2.2746 -0.6781
 1305SOL     OW 4734   5.997   3.957   1.623  0.0915 -0.9518 -0.7045
 1305SOL    HW1 4735   6.094   3.933   1.629  1.4935  3.9061  1.1534
 1305SOL    HW2 4736   5.979   3.996   1.532  0.1343 -1.0646 -0.7617
 1306SOL     OW 4737   4.247   4.753   3.635 -0.3942 -0.0094  0.0807
 1306SOL    HW1 4738   4.344   4.777   3.643 -0.7251  1.4983 -0.0882
 1306SOL    HW2 4739   4.237   4.673   3.576  0.6074  0.9517 -1.4281
 1307SOL     OW 4740   2.920   5.117   4.503  0.1995  0.2613 -0.3232
 1307SOL    HW1 4741   2.888   5.133   4.410 -0.6620 -2.0698 -0.5076
 1307SOL    HW2 4742   2.848   5.143   4.568  0.1268  0.2782 -0.4087
 1308SOL     OW 4743   3.858   6.102   2.494 -0.2079 -0.1054 -0.0179
 1308SOL    HW1 4744   3.783   6.119   2.558  0.4686 -0.0955  0.7925
 1308SOL    HW2 4745   3.826   6.041   2.421 -1.4998  1.3012 -0.6910
 1309SOL     OW 4746   5.475   2.428   4.900  0.5867  0.0313 -0.5748
 1309SOL    HW1 4747   5.396   2.384   4.859  1.6588 -0.8755 -1.7208
 1309SOL    HW2 4748   5.522   2.364   4.961  0.0937  0.7687  0.6200
 1310SOL     OW 4749   4.705   5.972   5.159  0.5369 -0.0420 -0.3457
 1310SOL    HW1 4750   4.662   5.917   5.231  0.6101 -0.5069 -0.6462
 1310SOL    HW2 4751   4.653   5.962   5.074  0.6740  0.1661 -0.4623
 1311SOL     OW 4752   2.779   1.303   0.206  0.0079  0.2119  0.4455
 1311SOL    HW1 4753   2.809   1.337   0.295  1.9116 -0.8539  0.2911
 1311SOL    HW2 4754   2.681   1.285   0.208 -0.2498  1.6078  1.8327
 1312SOL     OW 4755   2.343   5.737   1.008 -0.2912 -0.2813  0.3896
 1312SOL    HW1 4756   2.348   5.643   0.974 -0.7962 -0.9024  1.9489
 1312SOL    HW2 4757   2.271   5.744   1.077 -0.7925  1.4520 -0.2480
 1313SOL     OW 4758   6.584   6.674   0.888 -0.2880 -0.5356  0.5447
 1313SOL    HW1 4759   6.558   6.595   0.832 -1.2044 -0.1321  0.3838
 1313SOL    HW2 4760   6.621   6.746   0.830  1.4929 -1.1949  0.7972
 1314SOL     OW 4761   5.030   2.558   3.391 -0.0348 -0.5538 -0.0634
 1314SOL    HW1 4762   5.025   2.637   3.452  1.4974 -0.4074 -0.0906
 1314SOL    HW2 4763   5.084   2.582   3.310 -0.2493 -1.3848 -0.4621
 1315SOL     OW 4764   3.272   1.137   4.876  0.2702 -1.1677 -0.3389
 1315SOL    HW1 4765   3.319   1.087   4.949 -0.2202 -0.0822  0.7789
 1315SOL    HW2 4766   3.174   1.143   4.899 -0.0112 -1.4056 -1.4537
 1316SOL     OW 4767   4.471   6.125   6.612 -0.1303  0.1781  0.1976
 1316SOL    HW1 4768   4.475   6.078   6.700 -2.2351  0.8726  0.7201
 1316SOL    HW2 4769   4.528   6.077   6.545  0.2056 -1.3007  1.5016
 1317SOL     OW 4770   5.469   4.998   4.146  0.3261 -0.5035  0.4022
 1317SOL    HW1 4771   5.489   4.990   4.049 -0.0028 -1.7909  0.4128
 1317SOL    HW2 4772   5.371   5.013   4.159 -0.0361 -2.7609  0.5824
 1318SOL     OW 4773   2.243   6.503   6.278 -1.1814  0.3864  0.2224
 1318SOL    HW1 4774   2.200   6.593   6.273 -2.1460 -0.0891 -0.5000
 1318SOL    HW2 4775   2.175   6.435   6.308 -0.1643  0.0777  1.9403
 1319SOL     OW 4776   6.938   1.152   2.949 -0.0388 -0.2430 -0.3272
 1319SOL    HW1 4777   6.852   1.133   2.901 -0.2860 -0.0750  0.0338
 1319SOL    HW2 4778   6.935   1.244   2.988  0.6112  0.0485 -0.9364
 1320SOL     OW 4779   4.179   1.024   3.175 -0.2729  0.8111 -0.3246
 1320SOL    HW1 4780   4.258   0.982   3.220 -0.4354  1.4929  0.6217
 1320SOL    HW2 4781   4.160   0.976   3.089  0.5801  0.0409 -0.0978
 1321SOL     OW 4782   1.646   1.181   0.157 -0.3310  0.5385 -0.0434
 1321SOL    HW1 4783   1.614   1.172   0.251 -0.6680  1.4572 -0.0699
 1321SOL    HW2 4784   1.617   1.100   0.105  1.7341 -1.0864  1.1345
 1322SOL     OW 4785   0.139   1.082   4.489  0.2540 -0.4543  0.0870
 1322SOL    HW1 4786   0.150   1.030   4.574 -0.6190  0.1754  0.6047
 1322SOL    HW2 4787   0.064   1.043   4.436  0.0723 -0.1751  0.1348
 1323SOL     OW 4788   6.953   2.363   4.734 -0.3267  0.4307 -0.3021
 1323SOL    HW1 4789   7.045   2.377   4.770 -1.1504  0.0314  2.0001
 1323SOL    HW2 4790   6.898   2.311   4.799 -1.5928 -1.2312 -2.5248
 1324SOL     OW 4791   0.708   7.011   2.213 -0.1185 -0.4976 -0.0178
 1324SOL    HW1 4792   0.787   6.999   2.273 -0.1948 -0.6007  0.0646
 1324SOL    HW2 4793   0.741   7.035   2.121  0.0637 -1.8073 -0.3111
 1325SOL     OW 4794   3.417   2.422   0.644  0.2251 -0.4017 -0.2507
 1325SOL    HW1 4795   3.418   2.435   0.743  1.8046  0.9392 -0.4008
 1325SOL    HW2 4796   3.451   2.331   0.621  1.4816 -0.0957  0.3775
 1326SOL     OW 4797   5.866   6.047   6.865 -0.1654 -0.0928 -0.0932
 1326SOL    HW1 4798   5.766   6.054   6.856 -0.0737 -0.2005 -1.5670
 1326SOL    HW2 4799   5.895   5.953   6.846  0.1793 -0.2149  0.9719
 1327SOL     OW 4800   6.814   2.358   2.666 -0.1005 -0.1167  0.0845
 1327SOL    HW1 4801   6.810   2.440   2.723  2.2027  0.5910 -0.6622
 1327SOL    HW2 4802   6.878   2.292   2.705  1.4123  0.3205 -1.4676
 1328SOL     OW 4803   1.200   0.127   0.390  0.1034 -0.1083 -0.5438
 1328SOL    HW1 4804   1.259   0.150   0.467 -0.3398 -1.0801  0.1004
 1328SOL    HW2 4805   1.252   0.075   0.322  0.4733  0.6785 -0.8747
 1329SOL     OW 4806   0.575   6.254   1.815 -0.3712 -0.5645  0.3711
 1329SOL    HW1 4807   0.477   6.255   1.792 -0.2050 -1.4014 -0.4421
 1329SOL    HW2 4808   0.626   6.212   1.740  0.6023 -0.3182  0.8768
 1330SOL     OW 4809   5.420   2.856   2.496 -0.1101 -0.2501 -0.0894
 1330SOL    HW1 4810   5.435   2.771   2.546 -1.8292 -1.0118 -0.8001
 1330SOL    HW2 4811   5.504   2.884   2.451  1.6412  0.6548  3.4305
 1331SOL     OW 4812   1.071   1.951   0.851  0.3950  0.5132 -0.1819
 1331SOL    HW1 4813   1.120   1.906   0.776 -1.1081 -0.9715 -0.3485
 1331SOL    HW2 4814   1.088   1.901   0.936  0.8020  1.2067  0.1460
 1332SOL     OW 4815   3.649   0.493   1.161 -0.2583 -0.2715 -0.4500
 1332SOL    HW1 4816   3.602   0.579   1.139 -0.0956 -0.0204  0.1331
 1332SOL    HW2 4817   3.682   0.450   1.077 -1.4239 -0.4004 -0.8643
 1333SOL     OW 4818   6.612   4.835   0.939  0.1698  0.1909  0.7721
 1333SOL    HW1 4819   6.692   4.894   0.955 -0.7687  1.5661  0.5943
 1333SOL    HW2 4820   6.538   4.891   0.901 -1.3338 -0.7834  2.1919
 1334SOL     OW 4821   4.805   5.411   1.556  0.0188 -0.3965  0.4520
 1334SOL    HW1 4822   4.789   5.414   1.458 -3.0974 -0.7324  0.8631
 1334SOL    HW2 4823   4.799   5.504   1.594  2.7247 -0.0387  0.2275
 1335SOL     OW 4824   4.096   6.426   1.030  0.3572 -0.0749 -0.1622
 1335SOL    HW1 4825   4.096   6.417   1.130  0.0702 -0.3556 -0.1834
 1335SOL    HW2 4826   4.093   6.335   0.989  1.2799  0.0065 -0.4375
 1336SOL     OW 4827   0.702   6.051   1.193  0.2159  0.1608  0.1422
 1336SOL    HW1 4828   0.641   6.004   1.256  0.3665 -0.7251 -0.3651
 1336SOL    HW2 4829   0.778   6.092   1.245 -0.6114  0.9769  0.7297
 1337SOL     OW 4830   6.744   1.461   0.732 -0.5749  0.2033 -0.2055
 1337SOL    HW1 4831   6.729   1.550   0.776  3.2198  0.0849  1.7587
 1337SOL    HW2 4832   6.734   1.471   0.633 -0.7072  2.7505 -0.0134
 1338SOL     OW 4833   3.025   4.187   2.162  0.5583 -0.0817 -0.2244
 1338SOL    HW1 4834   3.090   4.111   2.164  0.0660 -0.5263 -0.7558
 1338SOL    HW2 4835   2.960   4.173   2.087  0.2406  0.6854 -0.0993
 1339SOL     OW 4836   4.294   6.490   6.307  0.1442 -0.0092 -0.9725
 1339SOL    HW1 4837   4.294   6.517   6.211 -1.4502  0.9906 -0.7260
 1339SOL    HW2 4838   4.354   6.550   6.359 -1.0958  1.2354 -0.9221
 1340SOL     OW 4839   0.332   1.262   2.910 -0.4204 -0.2568 -0.0678
 1340SOL    HW1 4840   0.246   1.232   2.869 -1.4340  0.4736  1.4421
 1340SOL    HW2 4841   0.362   1.196   2.978 -1.3503  0.8716  1.4856
 1341SOL     OW 4842   1.690   5.168   5.747  0.3657  0.1795  0.4533
 1341SOL    HW1 4843   1.716   5.202   5.837 -2.2276  2.0870  0.6110
 1341SOL    HW2 4844   1.590   5.169   5.738  0.4954 -0.8713 -2.0980
 1342SOL     OW 4845   4.335   2.705   6.755  0.1048 -0.7481 -0.7672
 1342SOL    HW1 4846   4.329   2.617   6.802 -1.5721  1.2246  3.2445
 1342SOL    HW2 4847   4.259   2.714   6.691  0.3573 -2.1942 -1.3164
 1343SOL     OW 4848   2.982   5.242   0.415 -0.3294  0.0182 -0.6303
 1343SOL    HW1 4849   2.967   5.316   0.480  2.0839  0.3745 -0.3923
 1343SOL    HW2 4850   3.006   5.279   0.325 -1.7189 -0.4994 -1.2580
 1344SOL     OW 4851   6.780   3.818   0.853  1.1883 -0.1579 -0.0915
 1344SOL    HW1 4852   6.821   3.817   0.945  1.7671  0.7391 -0.3215
 1344SOL    HW2 4853   6.699   3.759   0.852  2.2639 -1.7229  0.4876
 1345SOL     OW 4854   5.424   5.210   6.149 -0.1691 -0.0437 -0.1725
 1345SOL    HW1 4855   5.423   5.193   6.051  0.1209 -2.6487  0.1987
 1345SOL    HW2 4856   5.342   5.261   6.175 -0.3662  0.4753 -1.6860
 1346SOL     OW 4857   4.137   5.325   0.803  0.0655 -0.4543  0.1930
 1346SOL    HW1 4858   4.203   5.363   0.739 -0.3521 -0.5919 -0.3312
 1346SOL    HW2 4859   4.135   5.225   0.794 -0.0408 -0.4684  0.3703
 1347SOL     OW 4860   4.356   0.394   0.328 -0.5952  0.4078  0.7661
 1347SOL    HW1 4861   4.321   0.488   0.326 -2.2928 -0.0868  2.9923
 1347SOL    HW2 4862   4.327   0.347   0.245 -0.6196  1.5398  0.0970
 1348SOL     OW 4863   1.353   5.356   0.283 -0.1842 -0.0290 -0.2321
 1348SOL    HW1 4864   1.261   5.318   0.291 -1.4140  2.5420 -0.9648
 1348SOL    HW2 4865   1.384   5.346   0.188 -0.0783 -0.1234 -0.1892
 1349SOL     OW 4866   4.405   6.819   1.000  0.1667 -0.4661 -0.4706
 1349SOL    HW1 4867   4.478   6.764   1.042  0.4243  1.3312  1.5893
 1349SOL    HW2 4868   4.319   6.768   1.004  0.4662 -0.9141  0.9965
 1350SOL     OW 4869   2.246   5.806   4.354  0.6156  0.4185 -0.1100
 1350SOL    HW1 4870   2.158   5.786   4.311  1.9001 -2.2749 -1.7659
 1350SOL    HW2 4871   2.289   5.883   4.308 -0.1276  0.6720 -0.3977
 1351SOL     OW 4872   3.087   5.424   4.900  0.5581  0.5787 -0.1273
 1351SOL    HW1 4873   3.025   5.363   4.850 -0.0923 -0.3876  1.7668
 1351SOL    HW2 4874   3.174   5.377   4.915  0.4566  0.5439  0.3592
 1352SOL     OW 4875   1.250   6.856   4.564 -0.9046 -0.1128 -0.0654
 1352SOL    HW1 4876   1.249   6.756   4.574  1.6388 -0.1802  0.2283
 1352SOL    HW2 4877   1.226   6.898   4.652 -1.1291 -0.4641  0.0511
 1353SOL     OW 4878   4.737   4.857   3.122  0.0097  0.2067  0.0708
 1353SOL    HW1 4879   4.726   4.931   3.188  1.3312  1.8219 -1.4215
 1353SOL    HW2 4880   4.655   4.851   3.065 -0.1321  0.4667  0.2437
 1354SOL     OW 4881   3.267   2.956   3.963 -0.6375 -0.0655 -0.0426
 1354SOL    HW1 4882   3.273   2.891   4.038  1.0720  0.0395 -0.0351
 1354SOL    HW2 4883   3.243   3.047   3.999 -0.7099 -0.1952  0.2448
 1355SOL     OW 4884   3.327   4.883   6.885 -0.3468 -0.3497  0.0027
 1355SOL    HW1 4885   3.348   4.861   6.980 -1.2764  0.1543  0.3338
 1355SOL    HW2 4886   3.350   4.805   6.827 -1.0714 -1.1961  0.8261
 1356SOL     OW 4887   0.341   3.248   4.877 -0.0612  0.5652  0.3520
 1356SOL    HW1 4888   0.437   3.221   4.885 -0.2289 -0.0830  0.2881
 1356SOL    HW2 4889   0.283   3.173   4.909 -0.5591  0.7579 -0.0756
 1357SOL     OW 4890   6.210   2.647   4.410 -0.0702 -0.2097 -0.0563
 1357SOL    HW1 4891   6.275   2.572   4.401 -0.5270 -0.5143 -0.8610
 1357SOL    HW2 4892   6.135   2.634   4.345  0.5723  1.7159 -1.2001
 1358SOL     OW 4893   3.221   6.249   5.883 -0.1891 -0.0754 -0.0374
 1358SOL    HW1 4894   3.258   6.167   5.839 -3.5764 -0.9210 -1.5778
 1358SOL    HW2 4895   3.275   6.329   5.856  1.8968 -1.4897 -0.2252
 1359SOL     OW 4896   5.238   3.510   3.479  0.1261 -0.0081  0.2168
 1359SOL    HW1 4897   5.293   3.448   3.536 -0.5816 -0.6265  0.2442
 1359SOL    HW2 4898   5.297   3.554   3.411  1.0467  0.9309  1.5600
 1360SOL     OW 4899   5.302   2.536   3.794  0.3466 -0.5177 -0.1283
 1360SOL    HW1 4900   5.331   2.606   3.729 -0.1597  1.2841  1.5058
 1360SOL    HW2 4901   5.219   2.567   3.841 -0.0516 -2.3493  0.4626
 1361SOL     OW 4902   3.428   6.131   0.583  0.5096 -0.6519 -0.4566
 1361SOL    HW1 4903   3.424   6.124   0.483  0.7007 -0.9342 -0.4442
 1361SOL    HW2 4904   3.465   6.220   0.609  0.5743 -0.6258 -0.6382
 1362SOL     OW 4905   2.642   2.865   6.056  0.2143  0.8011 -0.7611
 1362SOL    HW1 4906   2.708   2.826   6.121  2.6254  0.1657 -3.3981
 1362SOL    HW2 4907   2.550   2.851   6.091  1.2876 -1.1504  1.6521
 1363SOL     OW 4908   3.045   3.899   0.877 -0.1289  0.8809 -0.2145
 1363SOL    HW1 4909   3.121   3.868   0.821 -0.7479 -1.9119  0.3075
 1363SOL    HW2 4910   2.975   3.942   0.818  0.4295  0.5075 -1.1705
 1364SOL     OW 4911   2.082   1.869   1.478 -0.2121 -0.3597  0.0706
 1364SOL    HW1 4912   2.126   1.887   1.390  0.2895  0.3079  0.4489
 1364SOL    HW2 4913   2.024   1.787   1.470 -2.0906  1.0212 -1.5445
 1365SOL     OW 4914   4.517   5.763   2.981 -0.3232 -0.6373 -0.1475
 1365SOL    HW1 4915   4.545   5.834   2.917 -0.1107 -3.1295 -3.0266
 1365SOL    HW2 4916   4.469   5.805   3.058  0.1650  2.6238 -1.4688
 1366SOL     OW 4917   5.653   0.754   5.865  0.3347  0.7012 -0.0870
 1366SOL    HW1 4918   5.603   0.756   5.951  4.3531 -1.9408  2.6085
 1366SOL    HW2 4919   5.653   0.661   5.828  0.5568  1.3306 -1.7979
 1367SOL     OW 4920   6.948   0.046   6.666 -0.1710 -0.0459 -0.3608
 1367SOL    HW1 4921   6.889  -0.030   6.639 -0.5497  0.7087 -1.6188
 1367SOL    HW2 4922   6.903   0.133   6.647  0.2129  0.5435  1.1551
 1368SOL     OW 4923   5.499   5.521   0.222  0.2022  0.3368 -0.1947
 1368SOL    HW1 4924   5.506   5.521   0.123  0.2208  2.2131 -0.2279
 1368SOL    HW2 4925   5.419   5.574   0.250 -0.0829 -0.5741  0.7961
 1369SOL     OW 4926   0.365   5.580   0.756 -0.3020  0.0458 -0.0468
 1369SOL    HW1 4927   0.287   5.632   0.790 -0.7430  0.3352 -1.4324
 1369SOL    HW2 4928   0.447   5.604   0.807 -0.9304  0.4763  0.7654
 1370SOL     OW 4929   6.911   3.516   4.462 -0.1039 -0.0390  0.3890
 1370SOL    HW1 4930   6.977   3.591   4.454 -1.1723  0.9191  0.3445
 1370SOL    HW2 4931   6.830   3.536   4.407 -0.5577 -1.0817  0.6334
 1371SOL     OW 4932   1.849   1.768   2.738  0.1635 -0.2962  0.6244
 1371SOL    HW1 4933   1.769   1.735   2.787  0.3649 -0.0061  1.1558
 1371SOL    HW2 4934   1.883   1.695   2.678 -1.7966  0.2734 -1.3228
 1372SOL     OW 4935   1.266   4.432   6.621 -0.1481 -0.4806  0.1504
 1372SOL    HW1 4936   1.179   4.433   6.573 -0.5826  0.6858  0.9264
 1372SOL    HW2 4937   1.264   4.363   6.693  0.6440 -2.5223 -1.6475
 1373SOL     OW 4938   3.963   6.310   1.848 -0.1968  0.3382 -0.2901
 1373SOL    HW1 4939   3.894   6.342   1.784  0.2858 -0.1960 -1.0927
 1373SOL    HW2 4940   4.033   6.257   1.799 -0.0598 -0.4861  0.7279
 1374SOL     OW 4941   0.899   0.294   2.760  0.7332  0.3953  0.2094
 1374SOL    HW1 4942   0.901   0.199   2.790 -1.2812  0.0644 -0.5778
 1374SOL    HW2 4943   0.992   0.326   2.743  1.4658 -1.2982  0.8681
 1375SOL     OW 4944   5.749   0.975   5.353 -0.3583  0.0099  0.8831
 1375SOL    HW1 4945   5.841   1.012   5.367  0.9405 -1.8234 -1.9784
 1375SOL    HW2 4946   5.708   1.017   5.273 -1.0190 -0.9195  0.7189
 1376SOL     OW 4947   2.575   5.673   6.707 -0.1992 -0.3146 -0.8638
 1376SOL    HW1 4948   2.657   5.619   6.686  0.4737  0.4326 -0.1922
 1376SOL    HW2 4949   2.596   5.770   6.699 -0.7813 -0.0955  0.1628
 1377SOL     OW 4950   1.383   4.319   4.797 -0.0223 -0.2053  0.4881
 1377SOL    HW1 4951   1.347   4.411   4.815  1.5503  0.9555 -2.0162
 1377SOL    HW2 4952   1.455   4.298   4.864  2.6665  2.2380 -1.4303
 1378SOL     OW 4953   1.133   5.840   3.607 -0.3437  0.6613 -0.0160
 1378SOL    HW1 4954   1.207   5.836   3.541 -1.4643 -1.5839 -1.2804
 1378SOL    HW2 4955   1.145   5.768   3.676  0.3841  2.4565  1.8408
 1379SOL     OW 4956   4.313   1.442   2.705  0.4914  0.1358 -0.4529
 1379SOL    HW1 4957   4.230   1.492   2.680  0.0821 -0.3519 -0.0852
 1379SOL    HW2 4958   4.350   1.479   2.790  1.6345  1.5042 -1.5135
 1380SOL     OW 4959   1.968   6.417   6.352 -0.0047  0.0691 -0.2011
 1380SOL    HW1 4960   1.969   6.321   6.325  0.6222 -0.1036  0.3974
 1380SOL    HW2 4961   1.902   6.430   6.426  0.1168  0.0357 -0.0841
 1381SOL     OW 4962   4.974   0.016   3.453  0.1879 -0.1010 -0.3020
 1381SOL    HW1 4963   5.010  -0.072   3.481  1.0649  0.4104  0.1186
 1381SOL    HW2 4964   4.902   0.045   3.517 -2.0754 -1.7286 -1.9373
 1382SOL     OW 4965   6.752   5.142   4.753 -0.5810 -0.1403  0.8067
 1382SOL    HW1 4966   6.668   5.162   4.803 -1.2003  1.6654 -0.8459
 1382SOL    HW2 4967   6.736   5.152   4.655  1.2169 -1.1273  0.3542
 1383SOL     OW 4968   5.178   0.268   6.678  0.6196  0.0958 -0.1279
 1383SOL    HW1 4969   5.150   0.175   6.703 -1.3592  0.8008  0.4348
 1383SOL    HW2 4970   5.221   0.313   6.756  0.6803 -0.0168 -0.0966
 1384SOL     OW 4971   2.363   3.701   5.062  0.1880  0.2925  0.1206
 1384SOL    HW1 4972   2.324   3.766   4.997 -0.8054 -1.0931 -0.7040
 1384SOL    HW2 4973   2.377   3.613   5.018  1.6846 -0.0442  1.1767
 1385SOL     OW 4974   1.409   3.470   3.786  0.2023  0.6525  0.1093
 1385SOL    HW1 4975   1.385   3.431   3.698  0.6882  0.3623  0.0945
 1385SOL    HW2 4976   1.332   3.521   3.823 -0.7063 -0.8579  0.4115
 1386SOL     OW 4977   6.258   3.687   3.369  0.5769 -0.0375  0.2181
 1386SOL    HW1 4978   6.274   3.738   3.284  0.3670  0.1134  0.2674
 1386SOL    HW2 4979   6.160   3.674   3.382  0.5952  0.1770  0.5773
 1387SOL     OW 4980   2.853   1.377   2.989  0.1097  0.4028  0.2236
 1387SOL    HW1 4981   2.785   1.413   2.925 -1.0337 -2.2095 -0.1634
 1387SOL    HW2 4982   2.940   1.366   2.940  0.2952  1.9059  0.1769
 1388SOL     OW 4983   1.685   0.945   2.657 -0.3761  0.0589  0.0117
 1388SOL    HW1 4984   1.726   0.907   2.575 -1.1623  0.2161 -0.4685
 1388SOL    HW2 4985   1.618   1.015   2.632 -1.2693 -0.5038  0.7356
 1389SOL     OW 4986   5.702   3.628   3.649 -0.0152 -0.5484 -0.3519
 1389SOL    HW1 4987   5.802   3.628   3.650 -0.0114  0.4818 -0.2776
 1389SOL    HW2 4988   5.669   3.545   3.695  0.7924 -0.7376 -0.0867
 1390SOL     OW 4989   4.811   4.494   0.342 -0.5946  0.2617 -0.3522
 1390SOL    HW1 4990   4.854   4.480   0.431 -1.9345  1.1662  0.4767
 1390SOL    HW2 4991   4.753   4.416   0.320  0.0450 -0.1393 -0.6235
 1391SOL     OW 4992   4.699   4.159   6.786 -0.4570 -0.1094  0.2666
 1391SOL    HW1 4993   4.651   4.198   6.864 -1.2216 -0.2040 -0.1392
 1391SOL    HW2 4994   4.677   4.211   6.704  0.8600  0.3905  0.2107
 1392SOL     OW 4995   0.286   3.473   0.604  0.2778  0.9367  0.0762
 1392SOL    HW1 4996   0.306   3.399   0.539  0.0464  0.8062  0.1472
 1392SOL    HW2 4997   0.340   3.461   0.687 -0.1131  0.5634  0.2858
 1393SOL     OW 4998   6.080   1.079   5.758 -0.4449 -0.2788  0.8857
 1393SOL    HW1 4999   6.046   0.989   5.732  0.8361 -0.3699 -0.7144
 1393SOL    HW2 5000   6.019   1.121   5.824 -2.7984 -1.0190 -0.7000
 1394SOL     OW 5001   0.385   2.834   0.059  0.1059 -0.6906  0.2038
 1394SOL    HW1 5002   0.388   2.739   0.030  2.2576 -0.1760 -1.5469
 1394SOL    HW2 5003   0.365   2.892  -0.020  2.2909  0.5297  0.5003
 1395SOL     OW 5004   2.607   6.868   4.585  0.0704 -0.3315 -0.6868
 1395SOL    HW1 5005   2.695   6.830   4.614 -0.2107  0.9427  2.2028
 1395SOL    HW2 5006   2.553   6.892   4.665 -2.0334  0.9957 -2.3800
 1396SOL     OW 5007   0.580   4.656   1.136 -0.6586 -0.0490 -0.0057
 1396SOL    HW1 5008   0.665   4.645   1.187  0.4709  2.3380 -1.2013
 1396SOL    HW2 5009   0.512   4.701   1.194  0.0045  0.9925 -0.0070
 1397SOL     OW 5010   4.354   5.425   0.596  0.2471 -0.3551 -0.4991
 1397SOL    HW1 5011   4.345   5.458   0.502 -0.2145 -1.6274 -0.9487
 1397SOL    HW2 5012   4.436   5.369   0.604  0.8848  0.6720  0.1610
 1398SOL     OW 5013   5.420   2.353   5.205  0.1589 -0.3098  0.2611
 1398SOL    HW1 5014   5.327   2.352   5.243 -0.0435 -0.4125 -0.2268
 1398SOL    HW2 5015   5.478   2.413   5.260  0.2123 -1.4685  1.5419
 1399SOL     OW 5016   2.334   0.490   1.195 -0.3425 -0.0161  0.0826
 1399SOL    HW1 5017   2.303   0.581   1.167 -1.4463  0.1920  1.7697
 1399SOL    HW2 5018   2.423   0.497   1.240 -0.7139  0.3553  0.7822
 1400SOL     OW 5019   3.329   1.330   3.309 -1.1273 -0.3841 -0.1251
 1400SOL    HW1 5020   3.418   1.320   3.265 -1.1609 -2.3226  0.1361
 1400SOL    HW2 5021   3.330   1.408   3.371  1.2044 -1.7323  1.7159
 1401SOL     OW 5022   5.764   6.478   2.658  0.2185  0.3013 -0.3039
 1401SOL    HW1 5023   5.727   6.567   2.630 -0.8392  0.0320  0.1721
 1401SOL    HW2 5024   5.853   6.465   2.615 -0.2825  0.9352 -1.6096
 1402SOL     OW 5025   6.941   5.409   6.339  0.3002  0.0408 -0.0024
 1402SOL    HW1 5026   6.908   5.364   6.422 -2.0167 -0.2744 -1.0102
 1402SOL    HW2 5027   7.035   5.380   6.321  0.5441 -0.6080  1.9585
 1403SOL     OW 5028   2.980   0.573   3.664  0.2063 -0.3465  0.0547
 1403SOL    HW1 5029   3.027   0.642   3.719  1.0274  0.5000 -1.6421
 1403SOL    HW2 5030   2.994   0.593   3.567 -1.1800 -1.8042 -0.4805
 1404SOL     OW 5031   3.563   2.285   6.349  0.5002  0.3686 -0.2502
 1404SOL    HW1 5032   3.473   2.328   6.360  0.5011  0.3001  0.0223
 1404SOL    HW2 5033   3.577   2.264   6.252  0.7289  1.4866 -0.4797
 1405SOL     OW 5034   3.837   1.086   0.900 -0.8221 -0.3838  0.1505
 1405SOL    HW1 5035   3.931   1.056   0.885 -0.7745  0.7644 -2.2227
 1405SOL    HW2 5036   3.836   1.160   0.967 -0.2172 -1.1042  0.9957
 1406SOL     OW 5037   6.277   5.574   3.546  0.2050  0.2428 -0.0171
 1406SOL    HW1 5038   6.203   5.569   3.478 -0.8212 -0.9363  1.1301
 1406SOL    HW2 5039   6.332   5.491   3.542 -1.0646 -0.7620  1.8500
 1407SOL     OW 5040   2.864   3.114   0.216  0.0624 -0.0334  0.3964
 1407SOL    HW1 5041   2.916   3.159   0.143  0.8640 -0.8048  0.4742
 1407SOL    HW2 5042   2.881   3.016   0.213  0.0683 -0.0871  1.6061
 1408SOL     OW 5043   3.996   2.793   0.354  0.1596  0.1938 -0.4741
 1408SOL    HW1 5044   4.001   2.846   0.269  2.0119  1.0202  0.0959
 1408SOL    HW2 5045   4.064   2.828   0.419 -0.6338 -0.9751  1.0436
 1409SOL     OW 5046   4.826   2.089   5.794 -0.0489 -0.6357  0.2193
 1409SOL    HW1 5047   4.733   2.058   5.773 -0.5932  0.6963  0.6318
 1409SOL    HW2 5048   4.847   2.171   5.742  0.2030  0.1614  1.5281
 1410SOL     OW 5049   1.525   1.929   0.588  0.3873 -0.5550 -0.3639
 1410SOL    HW1 5050   1.580   2.010   0.611 -0.6611  1.3473 -3.7381
 1410SOL    HW2 5051   1.579   1.867   0.531 -0.0139 -0.1001 -1.2718
 1411SOL     OW 5052   4.576   5.778   1.710 -0.5890 -0.0978  0.0418
 1411SOL    HW1 5053   4.588   5.875   1.731 -1.9366  0.1882 -0.3844
 1411SOL    HW2 5054   4.504   5.740   1.767 -0.2432 -0.7894  0.0391
 1412SOL     OW 5055   3.501   0.124   5.563 -0.1413 -0.1532 -0.3991
 1412SOL    HW1 5056   3.544   0.099   5.650 -0.6790 -0.7837 -0.3100
 1412SOL    HW2 5057   3.567   0.110   5.489  0.0372 -0.4699 -0.1903
 1413SOL     OW 5058   2.324   3.090   5.005 -0.3102  1.0121 -0.0402
 1413SOL    HW1 5059   2.382   3.165   5.036 -0.9823  2.1801 -1.4637
 1413SOL    HW2 5060   2.379   3.007   4.992  0.3803  1.1226  1.9079
 1414SOL     OW 5061   4.659   5.772   6.747 -0.2290 -0.2266  0.3443
 1414SOL    HW1 5062   4.649   5.682   6.788 -0.7518 -0.5953 -0.5715
 1414SOL    HW2 5063   4.603   5.838   6.797 -1.7528 -0.8869 -0.3974
 1415SOL     OW 5064   6.007   1.094   6.570  0.4206 -0.8037  0.4694
 1415SOL    HW1 5065   6.046   1.073   6.481 -0.7423 -3.2757  0.4424
 1415SOL    HW2 5066   5.930   1.157   6.560 -0.4704 -1.9716 -0.5037
 1416SOL     OW 5067   6.594   6.015   1.722 -0.6240  0.3570  0.4605
 1416SOL    HW1 5068   6.621   5.940   1.663 -0.2629 -0.3068  1.4463
 1416SOL    HW2 5069   6.631   6.001   1.814  0.2819  2.2307  0.4320
 1417SOL     OW 5070   6.143   1.145   6.086  0.3561 -0.2150  0.2394
 1417SOL    HW1 5071   6.156   1.228   6.032  0.6839 -0.9880 -0.9157
 1417SOL    HW2 5072   6.047   1.117   6.083  0.8040 -1.8432 -2.4589
 1418SOL     OW 5073   3.110   2.439   1.848 -0.5617 -0.0231  0.1378
 1418SOL    HW1 5074   3.149   2.349   1.827 -0.5857 -0.5732  2.1788
 1418SOL    HW2 5075   3.167   2.510   1.807 -0.3331 -0.9379 -1.2163
 1419SOL     OW 5076   2.162   6.863   5.388 -0.2897  0.0025 -0.0070
 1419SOL    HW1 5077   2.127   6.917   5.465 -2.1944 -0.5237 -0.4514
 1419SOL    HW2 5078   2.237   6.913   5.344  0.1111  0.8001  1.5038
 1420SOL     OW 5079   3.070   6.789   0.906 -0.0437 -0.4196 -0.3344
 1420SOL    HW1 5080   3.068   6.878   0.952 -1.5060  0.3707 -1.8091
 1420SOL    HW2 5081   3.159   6.746   0.921  0.7318  1.3141  0.3663
 1421SOL     OW 5082   6.826   1.756   3.132 -0.1747 -0.0690 -0.0231
 1421SOL    HW1 5083   6.911   1.728   3.088 -0.0621  0.9860 -0.5135
 1421SOL    HW2 5084   6.775   1.675   3.160  0.7252 -0.7255 -0.2262
 1422SOL     OW 5085   2.876   3.474   4.142 -0.7110  0.1741 -0.0219
 1422SOL    HW1 5086   2.960   3.504   4.097 -0.9088 -1.3888 -1.5622
 1422SOL    HW2 5087   2.797   3.511   4.094 -0.9188 -0.1694  0.0513
 1423SOL     OW 5088   6.933   5.001   1.569 -0.2162  0.1871  0.2341
 1423SOL    HW1 5089   6.945   5.078   1.632  1.7516  0.4266 -0.3587
 1423SOL    HW2 5090   6.997   4.929   1.592 -0.8012 -0.5341 -0.3253
 1424SOL     OW 5091   4.428   3.719   2.291  0.1937 -0.1701  0.2957
 1424SOL    HW1 5092   4.470   3.685   2.207  1.1043 -1.5806  1.2741
 1424SOL    HW2 5093   4.452   3.659   2.367 -1.1390  0.6959  1.4637
 1425SOL     OW 5094   4.117   3.262   5.090 -0.2873 -0.2170 -0.1741
 1425SOL    HW1 5095   4.045   3.194   5.078 -0.4922  0.1736 -1.3111
 1425SOL    HW2 5096   4.077   3.347   5.125 -0.1393 -0.4630  0.6043
 1426SOL     OW 5097   4.633   2.180   4.228  0.6118 -0.3978 -0.0616
 1426SOL    HW1 5098   4.551   2.237   4.221  1.1900  0.3872 -0.5462
 1426SOL    HW2 5099   4.693   2.198   4.151  2.3214  0.7526  1.4385
 1427SOL     OW 5100   3.649   1.055   6.416 -0.2931  0.1777  1.0992
 1427SOL    HW1 5101   3.644   1.132   6.480  2.1824  0.5800  0.8909
 1427SOL    HW2 5102   3.695   0.978   6.460  0.8085  0.2194  0.0577
 1428SOL     OW 5103   2.458   5.181   3.491 -0.0825  0.4185 -0.4548
 1428SOL    HW1 5104   2.470   5.240   3.411 -0.8685  0.0048 -0.8817
 1428SOL    HW2 5105   2.516   5.215   3.566 -1.4176  2.4650 -0.2807
 1429SOL     OW 5106   4.653   3.038   1.410  0.3815  0.1955 -0.1734
 1429SOL    HW1 5107   4.647   3.058   1.508  1.6810 -1.4775  0.2853
 1429SOL    HW2 5108   4.561   3.019   1.375  0.0594 -0.8254  1.1090
 1430SOL     OW 5109   3.466   2.812   3.837  1.2890 -0.1500 -0.0114
 1430SOL    HW1 5110   3.432   2.772   3.753  2.4285 -0.1130 -0.5193
 1430SOL    HW2 5111   3.391   2.851   3.889  0.5005 -0.6598 -0.7455
 1431SOL     OW 5112   6.178   6.925   2.134 -0.4993  0.2185 -0.1342
 1431SOL    HW1 5113   6.216   7.009   2.173  0.9023  0.5414 -2.0856
 1431SOL    HW2 5114   6.234   6.847   2.162 -0.4603  0.2266 -0.1905
 1432SOL     OW 5115   1.922   5.623   2.349 -0.4637 -0.2439  0.3712
 1432SOL    HW1 5116   1.880   5.532   2.355 -1.0003  0.0669  1.7009
 1432SOL    HW2 5117   1.949   5.653   2.441  0.7061  0.4929 -0.1793
 1433SOL     OW 5118   5.044   1.518   0.316  0.2372 -0.0380  0.0974
 1433SOL    HW1 5119   5.074   1.432   0.357 -1.0496 -0.4480  0.2134
 1433SOL    HW2 5120   5.118   1.555   0.260  0.7050 -1.3817 -0.2157
 1434SOL     OW 5121   2.016   6.342   0.722 -0.0631 -0.0298  0.4846
 1434SOL    HW1 5122   2.110   6.375   0.727 -0.0697  0.4270 -1.4845
 1434SOL    HW2 5123   2.006   6.260   0.779  1.7919 -0.6679 -0.0441
 1435SOL     OW 5124   6.628   6.837   5.690 -0.3179  0.1795 -0.3296
 1435SOL    HW1 5125   6.672   6.791   5.767 -0.7594  1.0095  0.4424
 1435SOL    HW2 5126   6.546   6.787   5.663  0.1335 -0.4073 -0.6177
 1436SOL     OW 5127   2.211   6.858   2.316 -0.3917 -0.3824 -0.0889
 1436SOL    HW1 5128   2.188   6.954   2.298  2.0955  0.5936  1.3493
 1436SOL    HW2 5129   2.307   6.852   2.344 -0.7942 -3.1575  1.0207
 1437SOL     OW 5130   1.006   4.595   2.145 -0.0517  0.0615  0.4487
 1437SOL    HW1 5131   1.077   4.661   2.118  0.8907 -1.1251 -0.0542
 1437SOL    HW2 5132   0.962   4.558   2.064 -0.5484  0.0303  0.7261
 1438SOL     OW 5133   3.665   4.399   6.583  0.4746 -0.2145  0.1314
 1438SOL    HW1 5134   3.718   4.483   6.569  1.2474 -0.8346 -0.7763
 1438SOL    HW2 5135   3.709   4.343   6.653  0.7720 -0.5210 -0.2967
 1439SOL     OW 5136   1.184   3.062   6.193  0.3432  0.1842 -0.5943
 1439SOL    HW1 5137   1.251   3.136   6.193 -0.7308  1.2530  1.7184
 1439SOL    HW2 5138   1.217   2.988   6.252  0.4337 -0.2424 -1.1686
 1440SOL     OW 5139   0.783   4.336   0.018 -0.2879 -0.7196  0.2221
 1440SOL    HW1 5140   0.728   4.263  -0.023 -0.0095 -0.8881  0.1775
 1440SOL    HW2 5141   0.765   4.422  -0.030 -0.7354 -0.7072  0.4367
 1441SOL     OW 5142   0.890   1.754   1.043 -0.3230  0.6198 -0.0066
 1441SOL    HW1 5143   0.864   1.676   1.099 -0.0518  0.1906 -0.4721
 1441SOL    HW2 5144   0.808   1.797   1.006 -0.4165 -1.8929 -3.0659
 1442SOL     OW 5145   0.529   4.363   5.657 -0.2702  0.5124  0.0560
 1442SOL    HW1 5146   0.552   4.284   5.714 -0.7605 -1.1033 -1.8919
 1442SOL    HW2 5147   0.610   4.396   5.610 -0.5184 -0.7033 -1.3250
 1443SOL     OW 5148   4.409   2.914   6.293 -0.7287 -0.1804 -0.1891
 1443SOL    HW1 5149   4.437   2.837   6.236 -2.9195 -0.6017 -0.7545
 1443SOL    HW2 5150   4.347   2.883   6.365 -0.3282  0.8210  0.6287
 1444SOL     OW 5151   3.200   1.848   0.398  0.0961  0.0695  0.4348
 1444SOL    HW1 5152   3.132   1.865   0.327  0.6993 -1.6141 -0.6107
 1444SOL    HW2 5153   3.233   1.754   0.390  0.4611 -0.0431  2.7287
 1445SOL     OW 5154   1.275   1.861   2.175 -0.1793  0.0280 -0.1568
 1445SOL    HW1 5155   1.295   1.780   2.119  1.6544 -0.6119  1.2942
 1445SOL    HW2 5156   1.177   1.877   2.177 -0.4415 -1.1071 -1.9284
 1446SOL     OW 5157   5.684   0.187   1.542  0.5995  0.0362  0.1131
 1446SOL    HW1 5158   5.642   0.213   1.628 -0.5917  1.4892 -0.8755
 1446SOL    HW2 5159   5.752   0.256   1.515  0.1506  0.1763 -0.6726
 1447SOL     OW 5160   5.407   6.188   0.286 -0.1736  0.0911  0.5676
 1447SOL    HW1 5161   5.339   6.214   0.355  0.3198 -1.4366  1.6927
 1447SOL    HW2 5162   5.498   6.189   0.327  0.4771  1.5743 -0.7804
 1448SOL     OW 5163   4.634   1.212   6.816 -0.0341  0.0830 -0.3396
 1448SOL    HW1 5164   4.718   1.267   6.810  1.0890 -1.6234 -1.3857
 1448SOL    HW2 5165   4.555   1.270   6.794  1.0310  1.3743 -0.9527
 1449SOL     OW 5166   4.609   0.931   3.561  0.4343 -0.0378  0.2884
 1449SOL    HW1 5167   4.510   0.919   3.552  0.1930  1.2224  0.9923
 1449SOL    HW2 5168   4.640   1.000   3.496  0.4688  1.1411  1.5093
 1450SOL     OW 5169   3.886   0.890   3.120  0.1662  0.1166 -0.4412
 1450SOL    HW1 5170   3.924   0.971   3.165 -0.0460  1.2464 -2.2031
 1450SOL    HW2 5171   3.951   0.814   3.128  1.4321  1.1235 -0.7501
 1451SOL     OW 5172   0.924   0.187   6.416  0.6112 -0.3987 -0.5513
 1451SOL    HW1 5173   0.844   0.242   6.394  0.3292  0.1330  1.5069
 1451SOL    HW2 5174   1.001   0.216   6.360  0.3060  1.7112  0.0233
 1452SOL     OW 5175   1.847   4.646   2.700 -0.0838 -0.6630  0.0495
 1452SOL    HW1 5176   1.879   4.554   2.676 -0.0326 -0.4322 -0.7863
 1452SOL    HW2 5177   1.792   4.642   2.784  0.9473 -1.2771  0.7189
 1453SOL     OW 5178   3.575   5.608   4.190 -0.1621  0.1186  0.1739
 1453SOL    HW1 5179   3.631   5.644   4.264 -0.2204  0.2308  0.1650
 1453SOL    HW2 5180   3.505   5.547   4.227  1.8042 -2.3725 -0.0875
 1454SOL     OW 5181   4.834   6.181   4.852  0.3077 -0.3496 -1.1128
 1454SOL    HW1 5182   4.926   6.160   4.817  0.1133 -0.9467 -1.2724
 1454SOL    HW2 5183   4.766   6.132   4.798 -0.1534  0.5522 -1.3677
 1455SOL     OW 5184   3.891   0.748   1.725 -0.3270  0.2551 -0.2096
 1455SOL    HW1 5185   3.960   0.802   1.774  0.2695 -0.9271  0.2924
 1455SOL    HW2 5186   3.936   0.697   1.652 -1.0051  1.0041 -1.1687
 1456SOL     OW 5187   4.663   6.807   1.922 -0.0521 -0.2231  0.1024
 1456SOL    HW1 5188   4.691   6.842   1.832 -0.8001  1.7593  0.5909
 1456SOL    HW2 5189   4.742   6.767   1.967  0.9552  1.0865 -0.4264
 1457SOL     OW 5190   2.743   6.133   4.468  0.1931 -0.1424  0.0845
 1457SOL    HW1 5191   2.835   6.165   4.492 -0.2123  1.8567 -0.8330
 1457SOL    HW2 5192   2.736   6.035   4.487  1.5072  0.2372  3.1043
 1458SOL     OW 5193   6.992   3.935   3.903 -0.0945  0.4376  0.7915
 1458SOL    HW1 5194   6.920   3.920   3.971 -1.2222  1.3014 -0.1655
 1458SOL    HW2 5195   7.015   4.033   3.899 -0.3191  0.4440 -0.3113
 1459SOL     OW 5196   0.591   2.230   6.986  0.2972  0.3818 -0.3908
 1459SOL    HW1 5197   0.501   2.223   7.030  0.2626 -0.1841 -0.5699
 1459SOL    HW2 5198   0.592   2.310   6.926 -0.0821  0.4297 -0.3376
 1460SOL     OW 5199   4.018   0.954   2.385 -0.1199 -0.2533 -0.3216
 1460SOL    HW1 5200   3.970   0.892   2.447 -0.2785  0.2545  0.0712
 1460SOL    HW2 5201   4.008   1.048   2.417 -1.1855  0.1507 -1.7285
 1461SOL     OW 5202   0.477   5.094   5.783  0.2411 -0.4021 -0.1731
 1461SOL    HW1 5203   0.478   5.055   5.691  1.0691  2.1793 -1.3488
 1461SOL    HW2 5204   0.382   5.108   5.812 -0.0366 -1.8199 -0.3307
 1462SOL     OW 5205   4.461   4.831   3.392 -0.5978 -0.1192  0.1814
 1462SOL    HW1 5206   4.476   4.929   3.402 -0.6942  0.1242 -1.7410
 1462SOL    HW2 5207   4.543   4.781   3.418 -0.1497  0.5374  0.0337
 1463SOL     OW 5208   1.248   0.697   2.620 -0.3333 -0.2985 -0.1961
 1463SOL    HW1 5209   1.264   0.761   2.546  1.6649 -0.3478  0.1292
 1463SOL    HW2 5210   1.275   0.739   2.707 -0.2647 -1.0921  0.1835
 1464SOL     OW 5211   0.796   4.757   2.639  0.2149  0.0261  0.5567
 1464SOL    HW1 5212   0.762   4.845   2.606  1.8764  0.6631  0.4316
 1464SOL    HW2 5213   0.751   4.734   2.726 -1.0820  0.4082  0.0110
 1465SOL     OW 5214   6.319   4.985   5.513 -0.0591  0.5170  0.2034
 1465SOL    HW1 5215   6.409   5.008   5.550 -0.3171  0.5905  0.7838
 1465SOL    HW2 5216   6.304   4.886   5.520 -0.8629  0.7299  2.0306
 1466SOL     OW 5217   1.564   6.513   2.251 -0.1081  0.2160  0.8881
 1466SOL    HW1 5218   1.629   6.488   2.322  2.3762 -2.4045 -1.9705
 1466SOL    HW2 5219   1.497   6.440   2.238  0.9565 -0.5131 -0.9283
 1467SOL     OW 5220   2.083   5.712   2.583  0.1812  0.2030 -0.4440
 1467SOL    HW1 5221   2.163   5.735   2.639 -1.2736  1.4222  1.1894
 1467SOL    HW2 5222   2.029   5.642   2.629 -1.2447  1.5097 -0.0600
 1468SOL     OW 5223   6.869   0.799   3.440 -0.2854 -0.2015 -0.1038
 1468SOL    HW1 5224   6.789   0.843   3.399 -0.7928 -2.3762 -1.6488
 1468SOL    HW2 5225   6.846   0.766   3.531 -1.0945 -0.6119 -0.4495
 1469SOL     OW 5226   0.841   4.258   0.995 -0.2569 -0.1462  0.0432
 1469SOL    HW1 5227   0.770   4.329   0.992 -1.0053 -0.8559  0.4163
 1469SOL    HW2 5228   0.813   4.185   1.058  0.0390 -1.2496 -1.0640
 1470SOL     OW 5229   1.179   6.302   5.017 -0.0095  0.2888  0.2102
 1470SOL    HW1 5230   1.154   6.207   5.035 -0.0084 -0.0944 -1.5577
 1470SOL    HW2 5231   1.275   6.307   4.992  0.3106  0.9500  1.4969
 1471SOL     OW 5232   6.864   2.259   2.090  0.8610  0.0635  0.2920
 1471SOL    HW1 5233   6.925   2.329   2.051  0.2033  2.0282  2.5543
 1471SOL    HW2 5234   6.919   2.183   2.125  2.2274  2.0314  2.7658
 1472SOL     OW 5235   2.478   1.049   1.990 -0.0803  0.6117 -0.0688
 1472SOL    HW1 5236   2.434   1.049   2.080  0.1158  0.8322  0.0302
 1472SOL    HW2 5237   2.415   1.087   1.922  0.2617  1.7747  0.2311
 1473SOL     OW 5238   6.410   1.432   5.734 -0.0676  0.0370  0.1184
 1473SOL    HW1 5239   6.448   1.386   5.814  1.9075 -0.0667 -0.8156
 1473SOL    HW2 5240   6.311   1.439   5.743  0.1476  0.4888  2.7941
 1474SOL     OW 5241   2.907   2.189   0.251  0.1249  0.3205 -0.3191
 1474SOL    HW1 5242   2.935   2.098   0.219  0.3017 -0.2980  1.5122
 1474SOL    HW2 5243   2.809   2.201   0.234 -0.5958 -1.4636  2.1272
 1475SOL     OW 5244   6.400   6.744   5.573  0.0224  0.2171 -0.4365
 1475SOL    HW1 5245   6.352   6.732   5.660 -0.1943 -0.8021 -0.6747
 1475SOL    HW2 5246   6.337   6.783   5.505 -0.0786  0.1891 -0.3636
 1476SOL     OW 5247   0.723   6.419   3.039 -0.3285  0.1267  0.3111
 1476SOL    HW1 5248   0.797   6.441   2.974 -0.6287 -2.5043 -1.0230
 1476SOL    HW2 5249   0.736   6.326   3.073 -1.8945  0.3861  1.6812
 1477SOL     OW 5250   2.896   1.694   4.148 -0.1297  0.8026  0.3081
 1477SOL    HW1 5251   2.958   1.659   4.078  0.3504 -0.8676  1.5029
 1477SOL    HW2 5252   2.814   1.637   4.152  0.6441 -0.2898  2.2768
 1478SOL     OW 5253   5.881   3.479   3.134 -0.0336 -0.5230  0.0434
 1478SOL    HW1 5254   5.845   3.416   3.203 -0.8950 -0.8705 -0.6962
 1478SOL    HW2 5255   5.902   3.428   3.050  2.5386 -0.4013  0.5427
 1479SOL     OW 5256   2.654   2.646   5.501 -0.2208  0.1265 -0.6270
 1479SOL    HW1 5257   2.580   2.604   5.449 -0.9935  1.9107 -1.0470
 1479SOL    HW2 5258   2.679   2.587   5.578 -2.7239 -0.1373  0.0895
 1480SOL     OW 5259   1.078   2.237   4.419  0.5958  0.7329  0.1199
 1480SOL    HW1 5260   1.099   2.145   4.451  0.2882  0.4506 -0.4688
 1480SOL    HW2 5261   1.117   2.304   4.482 -1.2649  0.2262  1.9184
 1481SOL     OW 5262   0.280   2.853   1.208  0.6480 -0.5519 -0.1670
 1481SOL    HW1 5263   0.356   2.802   1.246  0.7891  1.1815  2.0962
 1481SOL    HW2 5264   0.307   2.894   1.121  2.5284  0.5187  0.8791
 1482SOL     OW 5265   0.608   0.098   2.454 -0.3351  0.1611 -0.4602
 1482SOL    HW1 5266   0.694   0.148   2.451 -1.0230  1.8908  3.1443
 1482SOL    HW2 5267   0.615   0.024   2.521 -0.9102 -1.4705 -2.0921
 1483SOL     OW 5268   6.173   1.152   5.248 -0.4598 -0.5254  0.1831
 1483SOL    HW1 5269   6.231   1.084   5.204  0.2994  1.9052 -2.9907
 1483SOL    HW2 5270   6.211   1.176   5.337 -0.1342 -3.3047  0.8900
 1484SOL     OW 5271   1.126   5.092   6.875  0.9719 -0.3278  0.5200
 1484SOL    HW1 5272   1.093   5.039   6.796  0.9247 -0.8437  0.8853
 1484SOL    HW2 5273   1.083   5.183   6.874 -1.5650 -1.4175  1.7325
 1485SOL     OW 5274   5.001   4.289   3.559 -0.5164 -0.2349  0.2132
 1485SOL    HW1 5275   4.988   4.294   3.460  1.1039  1.7924  0.0242
 1485SOL    HW2 5276   4.913   4.296   3.605 -1.1087  1.1447 -1.0796
 1486SOL     OW 5277   6.836   3.880   4.118 -0.4065 -0.5434 -0.6728
 1486SOL    HW1 5278   6.850   3.792   4.163  2.8970 -0.1306 -0.6769
 1486SOL    HW2 5279   6.798   3.945   4.184  3.9138 -0.0752  1.7577
 1487SOL     OW 5280   6.125   5.631   2.829  0.4561 -0.0933 -0.1869
 1487SOL    HW1 5281   6.054   5.570   2.864  1.1753 -0.5841  0.4506
 1487SOL    HW2 5282   6.199   5.639   2.896  1.0333  0.3583 -0.8541
 1488SOL     OW 5283   6.683   3.648   4.396 -0.5338 -0.0156 -0.1606
 1488SOL    HW1 5284   6.595   3.620   4.435 -0.6914 -0.4486 -0.7946
 1488SOL    HW2 5285   6.695   3.746   4.409 -1.5962  0.2460 -0.9665
 1489SOL     OW 5286   3.321   3.301   3.342 -0.2330 -0.4377 -0.0293
 1489SOL    HW1 5287   3.288   3.257   3.258  0.4929  0.9884 -1.1141
 1489SOL    HW2 5288   3.248   3.303   3.410 -1.4894  0.2001 -1.3640
 1490SOL     OW 5289   3.458   5.353   2.570  0.2673 -0.5421  0.0068
 1490SOL    HW1 5290   3.404   5.398   2.641 -0.9352 -3.5649  1.1762
 1490SOL    HW2 5291   3.398   5.328   2.494  0.5906 -1.4423  0.0406
 1491SOL     OW 5292   4.710   4.989   2.771  0.5262  0.1451  0.4482
 1491SOL    HW1 5293   4.761   4.932   2.707  0.3427 -0.8503  1.1530
 1491SOL    HW2 5294   4.769   5.061   2.806  1.4077 -0.8353  1.0722
 1492SOL     OW 5295   1.299   0.026   5.994  0.1090 -0.0346 -0.3111
 1492SOL    HW1 5296   1.334   0.110   6.036  1.5248 -0.7648  0.0695
 1492SOL    HW2 5297   1.205   0.010   6.023 -0.3657  1.6741 -0.7993
 1493SOL     OW 5298   5.676   4.802   6.867  0.0428 -0.2613 -0.1354
 1493SOL    HW1 5299   5.624   4.722   6.835  0.0346 -0.5866  0.6649
 1493SOL    HW2 5300   5.614   4.879   6.881  0.4063  0.9687 -4.0028
 1494SOL     OW 5301   1.404   0.668   4.160  0.5744  0.0272 -0.2751
 1494SOL    HW1 5302   1.392   0.767   4.156  1.8648  0.2824  0.8198
 1494SOL    HW2 5303   1.498   0.645   4.135  0.2048 -0.9542 -0.7962
 1495SOL     OW 5304   5.416   0.778   6.573 -0.6175  0.6744 -0.4833
 1495SOL    HW1 5305   5.441   0.694   6.525  2.6218  1.1430  0.1411
 1495SOL    HW2 5306   5.362   0.755   6.654  1.5061 -1.0883  0.5623
 1496SOL     OW 5307   2.137   0.105   0.527  0.1785 -0.4624 -0.2004
 1496SOL    HW1 5308   2.166   0.200   0.539 -0.5340 -0.3997  1.1438
 1496SOL    HW2 5309   2.214   0.044   0.543 -0.1686 -0.2642  2.6036
 1497SOL     OW 5310   4.894   2.481   1.086 -0.3074 -0.5089  0.2985
 1497SOL    HW1 5311   4.990   2.511   1.086 -0.3205 -0.3531 -1.8077
 1497SOL    HW2 5312   4.874   2.430   1.003 -1.9387 -1.0012  0.9440
 1498SOL     OW 5313   0.353   5.468   3.192  0.7508  0.5111  0.2142
 1498SOL    HW1 5314   0.449   5.446   3.177  0.7702  0.0430  0.9414
 1498SOL    HW2 5315   0.335   5.473   3.290 -0.8592 -3.6701  0.3340
 1499SOL     OW 5316   4.627   6.551   5.413  0.2767  0.2849  0.7106
 1499SOL    HW1 5317   4.644   6.644   5.380  0.2690 -0.3574 -1.2642
 1499SOL    HW2 5318   4.665   6.485   5.348  0.3978 -1.1247  2.1284
 1500SOL     OW 5319   3.620   6.924   4.570 -0.0151  0.4234 -0.5883
 1500SOL    HW1 5320   3.658   6.879   4.490 -1.1168  1.0444 -1.4752
 1500SOL    HW2 5321   3.576   7.010   4.543  0.5898  1.2309  0.8356
 1501SOL     OW 5322   6.450   3.612   7.017  0.3162  0.0410  0.3810
 1501SOL    HW1 5323   6.522   3.599   7.086  0.6372  0.0982  0.0264
 1501SOL    HW2 5324   6.472   3.559   6.935 -0.5253 -0.7773  0.6524
 1502SOL     OW 5325   0.500   6.730   6.175  0.8084  0.2351  0.3292
 1502SOL    HW1 5326   0.434   6.656   6.164  1.7197 -0.5609  0.0887
 1502SOL    HW2 5327   0.476   6.784   6.257 -0.1435 -0.0044  0.2253
 1503SOL     OW 5328   4.970   3.494   4.731 -0.1761  0.1903 -0.4131
 1503SOL    HW1 5329   4.894   3.474   4.792  0.1873 -1.1062 -0.3601
 1503SOL    HW2 5330   5.036   3.420   4.734 -0.0352  0.2073 -2.2022
 1504SOL     OW 5331   1.060   5.915   0.483 -0.5646 -0.2852 -0.0986
 1504SOL    HW1 5332   0.979   5.911   0.425 -1.4040 -0.0704  1.0376
 1504SOL    HW2 5333   1.045   5.980   0.557  0.9564  0.3547 -0.3325
 1505SOL     OW 5334   3.474   3.360   6.535  0.0852 -0.2497 -0.1551
 1505SOL    HW1 5335   3.462   3.441   6.592 -0.9801 -0.7204  0.3279
 1505SOL    HW2 5336   3.396   3.299   6.549 -0.8414  0.1682 -3.0103
 1506SOL     OW 5337   1.078   2.994   1.963 -0.4219  0.0907 -0.0534
 1506SOL    HW1 5338   1.049   3.049   1.885  0.8720 -0.5572 -1.0482
 1506SOL    HW2 5339   0.999   2.968   2.018 -0.9439  4.3461  1.4898
 1507SOL     OW 5340   1.920   6.892   3.889 -0.1492 -0.1323 -0.1156
 1507SOL    HW1 5341   1.846   6.866   3.826 -0.6768 -0.1279  0.4938
 1507SOL    HW2 5342   1.962   6.809   3.927  1.0528 -0.1845 -1.4539
 1508SOL     OW 5343   0.974   3.409   3.662 -0.2636 -0.4641 -0.5327
 1508SOL    HW1 5344   0.879   3.438   3.651 -0.3264 -0.0939  0.8119
 1508SOL    HW2 5345   1.034   3.474   3.616 -0.5013  0.9366  1.0400
 1509SOL     OW 5346   2.114   6.277   4.320 -0.3322 -0.5286  0.4560
 1509SOL    HW1 5347   2.041   6.287   4.387 -0.0177  0.3250  0.6762
 1509SOL    HW2 5348   2.195   6.328   4.349  0.0009 -0.6075 -0.2965
 1510SOL     OW 5349   4.067   4.061   5.129 -0.0439 -0.1439 -0.3708
 1510SOL    HW1 5350   4.146   4.053   5.068 -0.4914  0.0313 -0.9934
 1510SOL    HW2 5351   3.984   4.072   5.074 -0.6399 -1.3786  0.2148
 1511SOL     OW 5352   3.918   3.815   1.412  0.0056 -0.3845 -0.0734
 1511SOL    HW1 5353   3.919   3.875   1.492  0.6200 -0.3321 -0.1136
 1511SOL    HW2 5354   3.955   3.865   1.333  0.4352 -0.7838 -0.1307
 1512SOL     OW 5355   2.627   5.051   1.822 -0.1464 -0.2468 -0.3139
 1512SOL    HW1 5356   2.716   5.089   1.850  1.4252 -1.2225 -3.4785
 1512SOL    HW2 5357   2.565   5.126   1.798  1.3068  0.4907 -2.0224
 1513SOL     OW 5358   3.845   0.752   3.735  0.0043 -0.1019 -0.0177
 1513SOL    HW1 5359   3.822   0.678   3.798  0.1745 -0.9236 -0.8915
 1513SOL    HW2 5360   3.767   0.814   3.725  0.0216  0.1240  1.0832
 1514SOL     OW 5361   5.249   0.502   6.573 -0.2101  0.9080 -0.2668
 1514SOL    HW1 5362   5.331   0.522   6.520 -0.5724  1.7828 -0.5104
 1514SOL    HW2 5363   5.234   0.403   6.574 -0.5900  0.8956 -2.4206
 1515SOL     OW 5364   1.583   5.175   3.839 -0.2087 -0.1125  0.3478
 1515SOL    HW1 5365   1.650   5.206   3.771 -0.0804 -0.6450  0.2225
 1515SOL    HW2 5366   1.617   5.198   3.931 -0.7121  1.2354  0.2173
 1516SOL     OW 5367   6.238   3.158   5.544  0.1349 -0.2518 -0.1866
 1516SOL    HW1 5368   6.164   3.133   5.607 -1.4422  1.7556 -1.1175
 1516SOL    HW2 5369   6.258   3.081   5.484 -0.1264 -1.3405  1.0884
 1517SOL     OW 5370   1.404   4.845   5.293 -0.2203 -0.1613 -0.2495
 1517SOL    HW1 5371   1.471   4.802   5.354  1.3992  1.8800 -0.4629
 1517SOL    HW2 5372   1.389   4.787   5.214  1.4540 -0.6267 -0.2725
 1518SOL     OW 5373   4.479   1.957   5.020 -0.2682 -0.1716  0.1031
 1518SOL    HW1 5374   4.572   1.920   5.021 -0.1834  0.0546  0.7395
 1518SOL    HW2 5375   4.436   1.945   5.109 -0.3527  0.9622  0.2309
 1519SOL     OW 5376   0.441   4.543   6.303  0.0537 -0.2807 -0.4397
 1519SOL    HW1 5377   0.495   4.601   6.242  0.3284 -0.8028 -0.6880
 1519SOL    HW2 5378   0.344   4.565   6.292  0.0815 -0.5871 -1.2772
 1520SOL     OW 5379   4.800   5.229   2.998 -0.5595 -0.0383  0.0532
 1520SOL    HW1 5380   4.780   5.257   3.092 -1.7402 -2.0845  0.4815
 1520SOL    HW2 5381   4.898   5.224   2.985 -0.3645  0.8110  0.9957
 1521SOL     OW 5382   0.270   2.576   5.087  0.5384  0.1292 -1.0518
 1521SOL    HW1 5383   0.202   2.504   5.106 -1.5010  2.1368 -0.3676
 1521SOL    HW2 5384   0.262   2.604   4.991 -0.1072  0.8296 -0.8040
 1522SOL     OW 5385   5.866   6.493   6.376  0.0960 -0.2049  0.2750
 1522SOL    HW1 5386   5.933   6.561   6.406  0.2393  0.0944 -0.6821
 1522SOL    HW2 5387   5.860   6.420   6.444  1.7402 -0.4840  0.1571
 1523SOL     OW 5388   6.440   6.188   6.218  0.2857  0.4314  0.2346
 1523SOL    HW1 5389   6.480   6.123   6.283 -0.1512  1.9541  2.0981
 1523SOL    HW2 5390   6.511   6.218   6.154  0.5334 -1.7023 -0.5681
 1524SOL     OW 5391   6.946   0.032   2.657  0.3094 -0.1189  0.1493
 1524SOL    HW1 5392   6.890   0.109   2.628  0.6268  0.0716  0.0460
 1524SOL    HW2 5393   7.001   0.058   2.736 -0.6173 -0.6584  0.9855
 1525SOL     OW 5394   6.654   0.947   2.562  0.6071  0.1223  0.0255
 1525SOL    HW1 5395   6.713   0.868   2.580 -0.5226 -0.5424  0.8920
 1525SOL    HW2 5396   6.570   0.917   2.518  0.1323  0.8548  0.4152
 1526SOL     OW 5397   4.907   2.272   6.551  0.0336  0.0970  0.7085
 1526SOL    HW1 5398   4.838   2.228   6.494  0.5520 -2.1429  1.7150
 1526SOL    HW2 5399   4.863   2.339   6.610 -1.3855 -1.5535  1.6039
 1527SOL     OW 5400   6.716   4.772   2.876  0.1987 -0.4720  0.4528
 1527SOL    HW1 5401   6.699   4.673   2.880 -0.3221 -0.4196 -0.2828
 1527SOL    HW2 5402   6.654   4.819   2.938 -1.8284 -0.3509 -1.5649
 1528SOL     OW 5403   6.528   2.164   3.168 -0.6123 -0.5463 -0.1768
 1528SOL    HW1 5404   6.558   2.256   3.192 -0.6156 -0.6048  0.0509
 1528SOL    HW2 5405   6.576   2.097   3.224 -1.4123 -0.6245  0.4416
 1529SOL     OW 5406   1.797   5.642   6.559  0.0578 -0.1459  0.0867
 1529SOL    HW1 5407   1.889   5.625   6.524  0.1805  3.2801 -1.6789
 1529SOL    HW2 5408   1.804   5.687   6.649  0.0805 -0.4933  0.2601
 1530SOL     OW 5409   2.101   5.167   4.518  0.0402 -0.0344 -0.1686
 1530SOL    HW1 5410   2.055   5.078   4.520  0.3460 -0.1902 -0.0498
 1530SOL    HW2 5411   2.194   5.156   4.482 -0.4616  0.4721 -1.7039
 1531SOL     OW 5412   2.093   4.350   3.928  0.2746  0.8080 -0.3488
 1531SOL    HW1 5413   2.066   4.298   4.009  0.3445  1.3303  0.0100
 1531SOL    HW2 5414   2.031   4.428   3.916  0.1911  0.6664 -0.8679
 1532SOL     OW 5415   1.220   2.357   0.613  0.2303  0.5148 -0.0364
 1532SOL    HW1 5416   1.197   2.376   0.518  2.0386  1.7757 -0.2675
 1532SOL    HW2 5417   1.251   2.263   0.622  2.2545  1.0277 -1.1729
 1533SOL     OW 5418   5.169   2.353   5.329  0.3127 -0.3547  0.5174
 1533SOL    HW1 5419   5.128   2.356   5.238 -1.4444 -1.6333  1.2183
 1533SOL    HW2 5420   5.149   2.439   5.377  1.7817  0.5948 -0.4649
 1534SOL     OW 5421   3.837   6.980   2.289  0.0589 -0.0041  0.3205
 1534SOL    HW1 5422   3.924   6.956   2.247 -0.3183 -1.5417  0.3697
 1534SOL    HW2 5423   3.808   7.070   2.256  2.4470  1.3273  1.5581
 1535SOL     OW 5424   2.222   6.561   2.396  0.1600  0.2894 -0.0069
 1535SOL    HW1 5425   2.199   6.657   2.413 -3.7686 -0.2767 -1.0247
 1535SOL    HW2 5426   2.219   6.511   2.482 -2.5927  0.3747  0.0600
 1536SOL     OW 5427   1.758   5.843   6.034  0.0324  0.0480  0.3013
 1536SOL    HW1 5428   1.742   5.906   5.958 -0.5850  0.8584  1.0629
 1536SOL    HW2 5429   1.856   5.826   6.043  0.0260 -1.5538 -1.7907
 1537SOL     OW 5430   2.377   2.902   6.170 -0.3055  0.4222 -0.5954
 1537SOL    HW1 5431   2.344   2.911   6.076  1.2052  1.9132 -1.0374
 1537SOL    HW2 5432   2.356   2.985   6.221  0.6988  0.4676 -0.2302
 1538SOL     OW 5433   6.832   4.040   1.091  0.3918  0.3207 -0.2493
 1538SOL    HW1 5434   6.873   3.950   1.109  0.6442  0.6902  1.1784
 1538SOL    HW2 5435   6.847   4.065   0.995  2.9639  0.1318  0.0227
 1539SOL     OW 5436   2.547   6.303   2.725 -0.1168 -0.0426  0.2756
 1539SOL    HW1 5437   2.492   6.262   2.653  0.9472  0.1336 -0.6714
 1539SOL    HW2 5438   2.515   6.396   2.743  0.5097  0.4680 -1.0443
 1540SOL     OW 5439   5.378   3.290   1.112  0.3008  0.3302  0.3793
 1540SOL    HW1 5440   5.340   3.362   1.171 -1.1742  0.7758 -1.0455
 1540SOL    HW2 5441   5.341   3.299   1.020  0.2955 -2.1173  0.0841
 1541SOL     OW 5442   5.546   5.628   3.505  0.1949 -0.3446  0.6099
 1541SOL    HW1 5443   5.452   5.648   3.476  0.0208  0.2766  1.5603
 1541SOL    HW2 5444   5.609   5.681   3.449  0.0003 -0.8589 -0.1187
 1542SOL     OW 5445   5.506   5.662   4.701  0.5834 -0.3642 -0.0365
 1542SOL    HW1 5446   5.508   5.641   4.603  0.6670 -2.2035  0.3327
 1542SOL    HW2 5447   5.550   5.751   4.716 -1.9583  1.3672 -1.9587
 1543SOL     OW 5448   0.129   4.225   5.606 -0.3505 -0.6216  0.1785
 1543SOL    HW1 5449   0.117   4.313   5.653 -1.0883 -1.7040  2.1723
 1543SOL    HW2 5450   0.209   4.230   5.546  0.3959  1.0157  1.2147
 1544SOL     OW 5451   0.719   1.872   5.537 -0.8529  0.1969  0.4705
 1544SOL    HW1 5452   0.675   1.884   5.448  0.3418  0.3291 -0.1278
 1544SOL    HW2 5453   0.775   1.952   5.558 -0.4177 -0.2124  0.9113
 1545SOL     OW 5454   1.735   3.100   6.534 -0.0611 -0.2774  0.0819
 1545SOL    HW1 5455   1.722   3.165   6.459  1.1217 -0.1191 -0.0096
 1545SOL    HW2 5456   1.721   3.007   6.501 -0.1487 -0.1714 -0.1838
 1546SOL     OW 5457   4.858   0.246   6.152  0.0816 -0.2995  0.0228
 1546SOL    HW1 5458   4.812   0.241   6.063 -3.1054 -1.5813  1.5860
 1546SOL    HW2 5459   4.821   0.323   6.204 -1.0866 -1.8407  1.6365
 1547SOL     OW 5460   3.886   3.236   6.888 -0.0628  0.0717  0.1496
 1547SOL    HW1 5461   3.817   3.307   6.879 -0.8142 -0.7191 -0.5431
 1547SOL    HW2 5462   3.849   3.160   6.941 -0.3646 -1.0712 -1.5805
 1548SOL     OW 5463   2.989   0.593   1.578  0.3993 -0.4676  0.2868
 1548SOL    HW1 5464   2.970   0.677   1.527  0.5185 -0.8037 -0.3285
 1548SOL    HW2 5465   2.967   0.606   1.674 -2.3220 -0.6312 -0.2491
 1549SOL     OW 5466   4.864   4.432   1.547  0.3188 -0.1906  0.3991
 1549SOL    HW1 5467   4.803   4.421   1.469  0.2682 -0.4061  0.4669
 1549SOL    HW2 5468   4.813   4.471   1.624  0.6605  1.1979 -0.0572
 1550SOL     OW 5469   5.223   1.827   0.492  0.0716 -0.6349 -0.2189
 1550SOL    HW1 5470   5.247   1.731   0.478 -1.1750 -1.1828  1.1197
 1550SOL    HW2 5471   5.305   1.879   0.515  0.4845 -1.8576  1.2843
 1551SOL     OW 5472   5.441   5.294   1.572 -0.2327 -0.2302  0.0318
 1551SOL    HW1 5473   5.368   5.232   1.601 -2.5543  1.6536 -1.4399
 1551SOL    HW2 5474   5.468   5.271   1.479  0.3369 -0.3041  0.2153
 1552SOL     OW 5475   6.204   0.901   4.052 -0.1975 -0.0841 -0.0922
 1552SOL    HW1 5476   6.234   0.831   3.987 -1.7788 -0.5969 -0.3071
 1552SOL    HW2 5477   6.146   0.967   4.005  1.5832  1.6506  0.0189
 1553SOL     OW 5478   1.806   4.853   6.875 -0.4048  0.1939  0.1058
 1553SOL    HW1 5479   1.738   4.885   6.941  0.0558 -1.8021  1.6401
 1553SOL    HW2 5480   1.767   4.782   6.818  0.3333 -1.0199  1.0426
 1554SOL     OW 5481   6.561   3.545   3.877  0.5943  0.4389 -0.0424
 1554SOL    HW1 5482   6.627   3.487   3.829 -0.9737 -0.7566 -0.8409
 1554SOL    HW2 5483   6.546   3.508   3.969 -0.9965 -1.0093 -0.8124
 1555SOL     OW 5484   2.628   5.410   5.603 -0.2537  0.1400  0.0427
 1555SOL    HW1 5485   2.567   5.394   5.680  0.5773  1.7812  1.1044
 1555SOL    HW2 5486   2.615   5.504   5.570  1.0757  0.2323 -0.2691
 1556SOL     OW 5487   3.930   3.264   4.014  0.8994  0.1002  0.1650
 1556SOL    HW1 5488   4.012   3.242   4.067 -0.7439 -0.8948  2.4075
 1556SOL    HW2 5489   3.914   3.363   4.017  0.5474  0.0173  2.0563
 1557SOL     OW 5490   3.554   0.317   5.317  0.0376  0.3083 -0.0829
 1557SOL    HW1 5491   3.557   0.342   5.221 -2.4660 -1.0472 -0.5923
 1557SOL    HW2 5492   3.591   0.224   5.328  2.5230  1.3010  0.6986
 1558SOL     OW 5493   1.454   1.357   4.034 -0.6941  0.3895  0.1834
 1558SOL    HW1 5494   1.429   1.302   4.115  1.2959 -2.3298 -0.9354
 1558SOL    HW2 5495   1.394   1.333   3.958 -1.3192  1.5691  0.2636
 1559SOL     OW 5496   4.033   3.962   1.198 -0.5151  0.3227 -0.2565
 1559SOL    HW1 5497   4.128   3.930   1.199 -1.2064 -1.9018  0.1267
 1559SOL    HW2 5498   4.015   4.010   1.112  1.1949  1.6987  0.0961
 1560SOL     OW 5499   6.799   6.331   0.227 -0.1952  0.0727 -0.6141
 1560SOL    HW1 5500   6.819   6.235   0.246  0.5853 -0.0629 -2.0055
 1560SOL    HW2 5501   6.834   6.387   0.302  0.3943 -0.6401 -0.3335
 1561SOL     OW 5502   0.837   2.049   0.755 -0.7500  0.0245  0.3943
 1561SOL    HW1 5503   0.918   2.045   0.813 -0.2823  0.0359 -0.2530
 1561SOL    HW2 5504   0.786   2.132   0.775 -1.6351 -0.8934  2.1466
 1562SOL     OW 5505   0.335   5.336   4.997  0.3547 -0.7376  0.0189
 1562SOL    HW1 5506   0.373   5.277   5.069  0.6087 -1.5875 -0.7854
 1562SOL    HW2 5507   0.321   5.428   5.033  0.9927 -1.0065  0.9974
 1563SOL     OW 5508   1.646   3.141   5.259 -0.0733  0.1191 -0.4034
 1563SOL    HW1 5509   1.727   3.190   5.227  0.7502 -1.3506 -0.6332
 1563SOL    HW2 5510   1.582   3.206   5.301  0.2082  1.6480 -2.2335
 1564SOL     OW 5511   1.163   0.764   3.862  0.3206 -0.1089  0.5811
 1564SOL    HW1 5512   1.142   0.701   3.936  0.0467  0.5498  1.0871
 1564SOL    HW2 5513   1.086   0.826   3.847  1.0474  0.9582  1.0104
 1565SOL     OW 5514   3.402   4.294   5.495 -0.1747 -0.4538 -0.5220
 1565SOL    HW1 5515   3.384   4.207   5.450 -0.4789 -1.5826  1.6531
 1565SOL    HW2 5516   3.485   4.286   5.550 -2.0093 -0.5317  2.4239
 1566SOL     OW 5517   2.832   5.028   1.133 -0.2065 -0.4583  0.0653
 1566SOL    HW1 5518   2.878   5.073   1.210  0.2373 -0.1566 -0.3694
 1566SOL    HW2 5519   2.784   4.947   1.166  1.6484 -1.5139  0.3729
 1567SOL     OW 5520   6.432   0.028   0.190  0.6574 -0.4799 -0.0823
 1567SOL    HW1 5521   6.469  -0.037   0.256  0.6701  0.6547  1.0442
 1567SOL    HW2 5522   6.386   0.102   0.239 -0.6229 -0.3710 -1.3742
 1568SOL     OW 5523   1.488   4.708   3.325  0.1938 -0.4681  0.0988
 1568SOL    HW1 5524   1.472   4.629   3.384 -0.2692 -1.1747 -0.9305
 1568SOL    HW2 5525   1.580   4.702   3.285  0.6594  0.2205  1.0439
 1569SOL     OW 5526   2.394   0.001   6.499 -0.0160  0.0879 -0.0631
 1569SOL    HW1 5527   2.464  -0.059   6.461  0.1054  0.6030 -0.6744
 1569SOL    HW2 5528   2.402   0.092   6.458 -1.5708 -0.0929 -0.8135
 1570SOL     OW 5529   1.762   6.486   6.532 -0.1487  0.6850  0.4899
 1570SOL    HW1 5530   1.707   6.563   6.499  0.3702  1.8626  2.2387
 1570SOL    HW2 5531   1.726   6.455   6.620 -1.8084 -2.6912 -1.2095
 1571SOL     OW 5532   0.745   5.349   1.230  0.3163 -0.1126 -0.3317
 1571SOL    HW1 5533   0.767   5.327   1.135  0.1922  0.1962 -0.4359
 1571SOL    HW2 5534   0.813   5.308   1.291  0.7912  0.2624 -0.5972
 1572SOL     OW 5535   3.672   0.495   3.059  0.7334 -0.9734 -0.1544
 1572SOL    HW1 5536   3.723   0.573   3.022 -1.2459  1.2496  1.4911
 1572SOL    HW2 5537   3.723   0.455   3.135 -0.1787  1.8242  2.1141
 1573SOL     OW 5538   1.174   6.577   2.268  0.0250 -0.2456 -0.0687
 1573SOL    HW1 5539   1.251   6.637   2.245 -0.6915  0.3408 -1.0266
 1573SOL    HW2 5540   1.189   6.537   2.358  0.8528  0.8431  0.2992
 1574SOL     OW 5541   4.544   1.374   5.035  0.7394 -0.2746 -0.5808
 1574SOL    HW1 5542   4.496   1.412   4.956  0.0487 -1.1588 -0.5995
 1574SOL    HW2 5543   4.510   1.418   5.119  0.3612 -0.4373 -0.6457
 1575SOL     OW 5544   5.589   5.147   5.560 -0.1222  0.2820  0.0243
 1575SOL    HW1 5545   5.644   5.122   5.640  0.1312 -0.7561 -0.4487
 1575SOL    HW2 5546   5.503   5.096   5.563 -0.0481  0.1273 -0.4279
 1576SOL     OW 5547   0.885   1.981   0.487  0.3988 -0.0098 -0.0695
 1576SOL    HW1 5548   0.879   2.009   0.583  2.3025 -1.1826  0.4358
 1576SOL    HW2 5549   0.847   2.054   0.429  0.6147  1.3928  1.4707
 1577SOL     OW 5550   6.599   4.249   6.566  0.8027  0.9078 -0.0108
 1577SOL    HW1 5551   6.535   4.198   6.624  0.6721 -0.5800 -1.3727
 1577SOL    HW2 5552   6.623   4.335   6.610 -2.1699  1.5712  0.5559
 1578SOL     OW 5553   2.981   2.958   1.695 -0.0312 -0.0928  0.1272
 1578SOL    HW1 5554   3.065   3.000   1.729  0.2411 -1.3693  1.1531
 1578SOL    HW2 5555   3.003   2.900   1.617 -0.1399  0.3522 -0.2411
 1579SOL     OW 5556   5.290   6.230   0.543  0.7071 -0.0685  0.1647
 1579SOL    HW1 5557   5.223   6.244   0.616 -0.5398 -1.2233 -0.6892
 1579SOL    HW2 5558   5.318   6.134   0.542 -2.7393 -1.3047 -3.5319
 1580SOL     OW 5559   1.515   0.809   4.453 -0.1216 -0.6218 -0.3242
 1580SOL    HW1 5560   1.563   0.722   4.442 -0.9144 -1.1485  0.3048
 1580SOL    HW2 5561   1.420   0.792   4.478 -0.0467  0.4383  0.7518
 1581SOL     OW 5562   4.340   3.306   1.233  0.1896  0.7412  0.3182
 1581SOL    HW1 5563   4.288   3.380   1.276 -0.3787  1.3898 -1.4145
 1581SOL    HW2 5564   4.291   3.220   1.246  0.9679  0.5786  2.5439
 1582SOL     OW 5565   6.963   6.492   4.313 -0.3441  0.1796 -0.4823
 1582SOL    HW1 5566   6.899   6.542   4.371 -0.4864  0.6524 -1.0426
 1582SOL    HW2 5567   6.999   6.413   4.363  0.8456  1.5273  0.8812
 1583SOL     OW 5568   0.234   3.853   6.138 -0.0578  0.0606  0.1325
 1583SOL    HW1 5569   0.143   3.885   6.110 -0.5411 -1.9065 -0.7212
 1583SOL    HW2 5570   0.228   3.810   6.228  0.5074  1.8556  1.0836
 1584SOL     OW 5571   3.637   3.442   0.101 -0.3684  0.0041 -0.1784
 1584SOL    HW1 5572   3.695   3.467   0.178  0.3146 -0.9162 -0.3679
 1584SOL    HW2 5573   3.570   3.373   0.131 -1.0160  0.6686 -0.0856
 1585SOL     OW 5574   2.080   0.628   3.781 -0.5708  0.1829 -0.0765
 1585SOL    HW1 5575   2.039   0.713   3.749 -0.3486  0.6482  0.8434
 1585SOL    HW2 5576   2.074   0.558   3.709 -3.0568  0.1841  0.0481
 1586SOL     OW 5577   1.871   6.356   2.664 -0.3142 -0.1667  0.1245
 1586SOL    HW1 5578   1.807   6.308   2.723 -0.2498 -0.6952 -0.2308
 1586SOL    HW2 5579   1.962   6.357   2.706 -0.2164 -0.7449 -0.0724
 1587SOL     OW 5580   4.897   2.626   2.283  0.3208 -0.4022 -0.5332
 1587SOL    HW1 5581   4.969   2.688   2.252 -0.0736  0.4572  0.2164
 1587SOL    HW2 5582   4.837   2.604   2.206  0.0881  0.6944 -0.6907
 1588SOL     OW 5583   4.968   2.098   4.283 -0.3955  0.0072  0.0180
 1588SOL    HW1 5584   4.915   2.125   4.364 -0.9774  0.8428 -0.6222
 1588SOL    HW2 5585   4.972   2.175   4.219 -0.8147 -0.9619 -1.2054
 1589SOL     OW 5586   6.674   3.237   0.088 -0.0580  0.0244  0.2571
 1589SOL    HW1 5587   6.655   3.210  -0.006  0.3632 -0.4231  0.2966
 1589SOL    HW2 5588   6.745   3.308   0.089 -1.3101  1.3119  0.1383
 1590SOL     OW 5589   1.685   2.136   1.797 -0.1790  0.2602 -0.8747
 1590SOL    HW1 5590   1.600   2.110   1.841 -0.1296  0.3718 -0.7092
 1590SOL    HW2 5591   1.694   2.236   1.799  0.5794  0.1914  0.3001
 1591SOL     OW 5592   5.772   6.642   5.580  0.8238 -0.1567 -0.6913
 1591SOL    HW1 5593   5.868   6.669   5.588  0.4249  0.8412  1.1383
 1591SOL    HW2 5594   5.740   6.607   5.668 -0.7930  0.6122 -0.9509
 1592SOL     OW 5595   2.608   1.153   3.901  0.0130 -0.4675 -0.4618
 1592SOL    HW1 5596   2.579   1.099   3.980  0.1346  0.6922  0.4045
 1592SOL    HW2 5597   2.532   1.209   3.869  0.8164  1.6099  1.0083
 1593SOL     OW 5598   6.001   3.951   6.212  0.0041  0.2040  0.1010
 1593SOL    HW1 5599   6.063   3.905   6.275  0.9665  0.5432 -0.5708
 1593SOL    HW2 5600   6.054   4.005   6.147 -1.0095  0.6015 -0.4200
 1594SOL     OW 5601   2.979   2.780   0.143  0.1304  0.0947 -0.2046
 1594SOL    HW1 5602   2.986   2.690   0.099 -0.2664 -0.2453  0.4043
 1594SOL    HW2 5603   2.940   2.769   0.234  1.6603  0.7008  0.5416
 1595SOL     OW 5604   1.063   4.567   6.208 -0.1317  0.9397 -0.1371
 1595SOL    HW1 5605   1.001   4.504   6.162  0.2333  0.1004  0.4992
 1595SOL    HW2 5606   1.157   4.533   6.200 -0.2800 -0.7453  3.5000
 1596SOL     OW 5607   4.348   1.264   1.961 -0.0559  0.4311 -0.5882
 1596SOL    HW1 5608   4.422   1.270   2.028 -0.3973 -1.0053 -0.0287
 1596SOL    HW2 5609   4.362   1.183   1.903 -1.5870 -0.3422  0.0613
 1597SOL     OW 5610   5.677   1.208   6.008 -0.4643 -0.2935 -0.2997
 1597SOL    HW1 5611   5.663   1.304   6.029  1.0135 -0.8017  3.7777
 1597SOL    HW2 5612   5.588   1.163   5.997 -1.3305  0.8665  1.5546
 1598SOL     OW 5613   6.262   2.552   5.505 -0.5085  0.1031 -0.4493
 1598SOL    HW1 5614   6.314   2.577   5.423  0.3364 -1.6614 -0.4782
 1598SOL    HW2 5615   6.313   2.484   5.558 -1.7948 -0.0020  0.7016
 1599SOL     OW 5616   3.929   6.229   4.395 -0.2497 -0.0233 -0.1183
 1599SOL    HW1 5617   3.967   6.305   4.449  2.2835 -1.3444  0.0796
 1599SOL    HW2 5618   3.911   6.152   4.455 -3.8955  0.6564 -0.1246
 1600SOL     OW 5619   6.832   6.301   6.326 -0.5234 -0.2267 -0.4309
 1600SOL    HW1 5620   6.835   6.211   6.369  3.5953  0.7119  1.7880
 1600SOL    HW2 5621   6.871   6.295   6.234 -0.4989 -0.7271 -0.3913
 1601SOL     OW 5622   0.741   6.917   0.939  0.2577 -0.1647  0.7277
 1601SOL    HW1 5623   0.689   6.837   0.910 -1.9803  1.2501  0.6256
 1601SOL    HW2 5624   0.789   6.897   1.024 -0.1841 -1.6342  0.6592
 1602SOL     OW 5625   4.731   3.720   4.893  0.2974  0.1925  0.1823
 1602SOL    HW1 5626   4.809   3.758   4.942  0.2381  1.5281 -0.7216
 1602SOL    HW2 5627   4.739   3.620   4.891  1.4738  0.2509  0.9073
 1603SOL     OW 5628   1.991   6.690   5.847  0.4223  0.2757 -0.2694
 1603SOL    HW1 5629   1.906   6.638   5.843 -0.1378  1.0122  1.0423
 1603SOL    HW2 5630   1.972   6.787   5.830  0.8388  0.5852  0.9375
 1604SOL     OW 5631   0.221   5.262   6.833 -0.2556 -0.2219 -0.3944
 1604SOL    HW1 5632   0.229   5.164   6.851 -0.1218 -0.0419  0.5842
 1604SOL    HW2 5633   0.296   5.290   6.772  0.6583 -0.4334  0.6108
 1605SOL     OW 5634   2.917   0.129   5.273  0.1113  0.3997  0.2740
 1605SOL    HW1 5635   2.882   0.222   5.267 -0.9504  0.0473  0.5427
 1605SOL    HW2 5636   2.960   0.115   5.363  0.3485  0.6562  0.2008
 1606SOL     OW 5637   4.237   1.352   6.548  0.2119 -0.1135 -0.4272
 1606SOL    HW1 5638   4.214   1.378   6.455  1.2773  0.9103 -0.4194
 1606SOL    HW2 5639   4.235   1.252   6.556 -1.2874 -0.1648 -1.1575
 1607SOL     OW 5640   1.869   0.043   0.560  0.1000 -0.8962  0.6464
 1607SOL    HW1 5641   1.966   0.054   0.537 -0.6286 -0.4308 -2.6089
 1607SOL    HW2 5642   1.819   0.126   0.536 -1.4072 -1.7691  0.6225
 1608SOL     OW 5643   2.780   5.875   1.865  0.3926  0.2325  0.0425
 1608SOL    HW1 5644   2.834   5.840   1.942  1.2211  1.0673 -0.1457
 1608SOL    HW2 5645   2.838   5.928   1.805 -0.5552  0.7783 -0.4170
 1609SOL     OW 5646   0.373   1.751   2.119 -0.6340 -0.0433  0.1372
 1609SOL    HW1 5647   0.280   1.783   2.099  0.1048  2.3718  0.2547
 1609SOL    HW2 5648   0.432   1.771   2.041  0.3989  1.3208  1.1970
 1610SOL     OW 5649   1.399   3.704   1.146 -0.7031 -0.0556 -0.0975
 1610SOL    HW1 5650   1.360   3.613   1.133 -1.7021  0.4453 -0.6234
 1610SOL    HW2 5651   1.464   3.723   1.073  1.4629 -1.3446  1.3886
 1611SOL     OW 5652   0.031   6.241   5.767  0.3751 -0.6776  0.5422
 1611SOL    HW1 5653  -0.068   6.235   5.759  0.0126  1.1086  2.8477
 1611SOL    HW2 5654   0.072   6.152   5.746 -1.4493 -0.9164 -2.6660
 1612SOL     OW 5655   2.851   1.814   1.334 -0.3255 -0.2593  0.4605
 1612SOL    HW1 5656   2.792   1.853   1.264 -0.1132  0.0583  0.4566
 1612SOL    HW2 5657   2.901   1.735   1.296  0.4818  0.4695 -0.0165
 1613SOL     OW 5658   0.249   3.062   5.217  0.3841 -0.3552 -0.1987
 1613SOL    HW1 5659   0.247   2.981   5.276  1.3354  0.1934  0.6255
 1613SOL    HW2 5660   0.250   3.034   5.121  1.5941 -1.3451  0.0831
 1614SOL     OW 5661   2.395   1.665   6.803 -0.2515 -0.0567  0.1245
 1614SOL    HW1 5662   2.393   1.565   6.803 -2.2983 -0.0695 -1.0347
 1614SOL    HW2 5663   2.314   1.700   6.850 -0.0711  1.0534 -0.3639
 1615SOL     OW 5664   5.299   3.012   1.109 -0.0812 -0.2923  0.2657
 1615SOL    HW1 5665   5.201   3.028   1.097  0.3671  1.6462 -1.4991
 1615SOL    HW2 5666   5.346   3.100   1.119  1.7262 -1.0142 -1.2736
 1616SOL     OW 5667   4.483   0.125   5.015 -0.3689 -0.3332 -0.1915
 1616SOL    HW1 5668   4.484   0.025   5.013  0.1607 -0.3331  0.0608
 1616SOL    HW2 5669   4.534   0.158   5.094 -2.5248  0.0978  1.1022
 1617SOL     OW 5670   3.537   0.109   3.514  0.4891 -0.4667  0.2149
 1617SOL    HW1 5671   3.594   0.058   3.449 -0.6978 -1.0608 -0.3958
 1617SOL    HW2 5672   3.530   0.204   3.484  2.5603  0.0565  1.2537
 1618SOL     OW 5673   6.379   3.968   3.288  0.4579  0.4331  0.9831
 1618SOL    HW1 5674   6.471   3.996   3.317  0.9407  1.1099 -1.0359
 1618SOL    HW2 5675   6.386   3.891   3.226 -0.3820  0.2456  1.1162
 1619SOL     OW 5676   2.887   5.456   0.605  0.1061 -0.2637  0.1841
 1619SOL    HW1 5677   2.877   5.398   0.685 -0.7488  0.0707  0.3294
 1619SOL    HW2 5678   2.950   5.531   0.626 -0.7203  0.2661  0.8040
 1620SOL     OW 5679   4.867   4.378   3.988 -0.2877 -0.1182  0.4025
 1620SOL    HW1 5680   4.877   4.478   3.993 -0.3349 -0.1202  0.5485
 1620SOL    HW2 5681   4.955   4.335   4.008 -0.0396 -0.0895 -0.5566
 1621SOL     OW 5682   5.429   3.990   3.084 -0.0754  0.3691  0.5048
 1621SOL    HW1 5683   5.421   3.907   3.028 -0.8153  0.7800 -0.0252
 1621SOL    HW2 5684   5.340   4.013   3.122  0.1804  0.7699  0.8689
 1622SOL     OW 5685   3.786   6.338   6.720  0.6178  0.5468 -0.1286
 1622SOL    HW1 5686   3.845   6.316   6.642 -0.6164 -1.4796 -0.5912
 1622SOL    HW2 5687   3.696   6.366   6.686  0.2461  0.1943  0.5547
 1623SOL     OW 5688   4.290   6.330   3.060 -0.2989 -0.1999  0.2774
 1623SOL    HW1 5689   4.291   6.258   2.990 -1.9561  1.0648 -1.1173
 1623SOL    HW2 5690   4.261   6.291   3.147 -2.3660 -1.0331 -0.7160
 1624SOL     OW 5691   6.444   1.482   0.685  0.3469  0.0971 -0.3589
 1624SOL    HW1 5692   6.428   1.400   0.629  1.3127  1.1477 -2.2790
 1624SOL    HW2 5693   6.498   1.457   0.765 -2.3336 -1.7212  1.0143
 1625SOL     OW 5694   2.963   4.074   6.492  0.3846 -0.0935 -0.3183
 1625SOL    HW1 5695   3.002   4.021   6.416 -0.7656 -0.3427 -0.7428
 1625SOL    HW2 5696   2.865   4.084   6.479  0.1613 -0.1669  1.1557
 1626SOL     OW 5697   6.897   5.668   0.977  0.2998  0.2823  0.2850
 1626SOL    HW1 5698   6.851   5.702   1.059  0.4365  0.8558  0.1256
 1626SOL    HW2 5699   6.913   5.570   0.987 -1.7181 -0.1349  0.0073
 1627SOL     OW 5700   0.418   3.343   0.229  0.0421 -0.0502  0.0408
 1627SOL    HW1 5701   0.434   3.311   0.322  0.2510 -1.2997 -0.4069
 1627SOL    HW2 5702   0.454   3.276   0.164  0.7966  1.2602 -0.9539
 1628SOL     OW 5703   4.890   1.234   5.994  0.1578 -0.0949  0.1168
 1628SOL    HW1 5704   4.795   1.247   6.022  0.1507 -2.5594  1.6496
 1628SOL    HW2 5705   4.951   1.282   6.057  0.0088  1.5282 -0.8958
 1629SOL     OW 5706   4.379   1.652   0.012 -0.3576  0.3420 -0.1668
 1629SOL    HW1 5707   4.387   1.587   0.087  1.5418  0.0034 -0.6167
 1629SOL    HW2 5708   4.366   1.744   0.049 -0.8593 -0.0030  0.5329
 1630SOL     OW 5709   1.275   3.058   1.077  0.4478  0.0775  0.5484
 1630SOL    HW1 5710   1.180   3.053   1.044  1.0968  0.3042 -1.4551
 1630SOL    HW2 5711   1.335   3.015   1.010  1.6329 -1.5412  2.5340
 1631SOL     OW 5712   2.070   1.044   6.991 -0.1861  0.6274 -0.2225
 1631SOL    HW1 5713   2.165   1.032   6.964 -0.3449 -2.2398  0.2090
 1631SOL    HW2 5714   2.010   1.023   6.913 -0.5121 -2.4982  0.7583
 1632SOL     OW 5715   2.556   2.172   3.038 -0.1705 -0.2062  0.0717
 1632SOL    HW1 5716   2.616   2.092   3.043 -0.5901 -0.4927  0.7224
 1632SOL    HW2 5717   2.550   2.204   2.944 -0.4448 -1.2896 -0.2896
 1633SOL     OW 5718   6.225   5.111   6.405  0.9418 -0.5126  0.1279
 1633SOL    HW1 5719   6.225   5.163   6.491  0.6997 -1.8410  0.9729
 1633SOL    HW2 5720   6.144   5.135   6.352  0.8410 -0.0179  0.4962
 1634SOL     OW 5721   3.108   1.582   0.055 -0.1211 -0.0892 -0.1303
 1634SOL    HW1 5722   3.120   1.541   0.145 -0.2811  2.6199  1.2149
 1634SOL    HW2 5723   3.012   1.574   0.027  0.6334 -5.0309 -2.3294
 1635SOL     OW 5724   5.039   5.481   3.441 -0.1431 -0.0677 -0.1127
 1635SOL    HW1 5725   4.988   5.557   3.402 -0.7199 -0.7471 -0.7339
 1635SOL    HW2 5726   5.094   5.437   3.370  0.1468 -0.2616  0.2240
 1636SOL     OW 5727   4.368   4.980   6.112  0.4780 -0.4791  0.2445
 1636SOL    HW1 5728   4.404   5.009   6.201  0.4155  2.6019 -0.6031
 1636SOL    HW2 5729   4.269   4.969   6.119  0.3990  0.2971  0.4541
 1637SOL     OW 5730   6.590   6.588   5.415 -0.3504  0.1910 -0.0849
 1637SOL    HW1 5731   6.538   6.641   5.482 -1.0656 -2.1035  1.2983
 1637SOL    HW2 5732   6.529   6.524   5.368  0.1271  1.7313 -3.0584
 1638SOL     OW 5733   2.235   4.272   4.286  0.3910  0.0165 -0.1422
 1638SOL    HW1 5734   2.302   4.306   4.220  3.5343 -1.9657  1.7502
 1638SOL    HW2 5735   2.264   4.297   4.379  0.0550 -3.1706  0.9622
 1639SOL     OW 5736   5.118   4.644   0.732 -0.2475  0.0685 -0.0575
 1639SOL    HW1 5737   5.041   4.637   0.670  1.0293  0.8051 -1.8193
 1639SOL    HW2 5738   5.191   4.583   0.702  0.4186  0.4653  0.7090
 1640SOL     OW 5739   0.972   1.722   0.411  0.4832 -0.0861 -0.0003
 1640SOL    HW1 5740   0.980   1.649   0.479  4.9382  1.5006  1.5745
 1640SOL    HW2 5741   0.908   1.792   0.445 -0.4922 -1.2024  0.5438
 1641SOL     OW 5742   1.892   6.096   4.706 -0.3956 -0.3995 -0.1882
 1641SOL    HW1 5743   1.806   6.047   4.724 -0.8320  0.8108  1.2224
 1641SOL    HW2 5744   1.964   6.062   4.766 -0.3263 -0.3072 -0.2128
 1642SOL     OW 5745   0.990   2.902   6.852  0.1996 -0.7661  0.3238
 1642SOL    HW1 5746   0.900   2.860   6.864  0.2163 -1.0767 -0.5288
 1642SOL    HW2 5747   1.061   2.836   6.878  0.2029 -0.9371 -0.1077
 1643SOL     OW 5748   3.175   3.421   6.272  0.0927  0.0963 -0.2187
 1643SOL    HW1 5749   3.117   3.446   6.195  1.6896 -0.7506 -1.7908
 1643SOL    HW2 5750   3.119   3.381   6.345 -1.3457 -0.1751 -1.4232
 1644SOL     OW 5751   4.997   3.527   1.018 -0.1101  0.2814  0.3593
 1644SOL    HW1 5752   4.958   3.530   0.926  0.3051 -0.7108  0.1446
 1644SOL    HW2 5753   4.945   3.463   1.075 -2.1689  2.8917  1.7144
 1645SOL     OW 5754   0.201   6.054   5.458 -0.0224 -0.2802 -0.3369
 1645SOL    HW1 5755   0.103   6.074   5.465  0.0901  0.0376  0.3568
 1645SOL    HW2 5756   0.221   6.020   5.366 -0.3760  1.9417 -1.3080
 1646SOL     OW 5757   6.630   0.710   4.803 -0.2541 -0.2167  0.0663
 1646SOL    HW1 5758   6.690   0.781   4.767 -0.1164 -0.7311 -0.7461
 1646SOL    HW2 5759   6.655   0.691   4.898  0.0163  0.4795  0.1403
 1647SOL     OW 5760   3.521   3.612   0.386 -0.1351  0.2141 -0.1276
 1647SOL    HW1 5761   3.513   3.562   0.472  1.1529  0.0400 -0.0840
 1647SOL    HW2 5762   3.448   3.584   0.324 -2.7266  2.2010  1.7540
 1648SOL     OW 5763   4.423   3.464   6.778 -0.2103 -0.9112 -0.1764
 1648SOL    HW1 5764   4.349   3.481   6.713  0.9486 -0.1614 -1.3146
 1648SOL    HW2 5765   4.503   3.428   6.731  0.8384  0.1156  0.7546
 1649SOL     OW 5766   6.241   0.507   6.576 -0.7141 -0.1451  0.6829
 1649SOL    HW1 5767   6.253   0.554   6.663 -1.7110  1.0231  0.2172
 1649SOL    HW2 5768   6.237   0.574   6.502 -0.9186 -1.0505 -0.1454
 1650SOL     OW 5769   4.248   2.207   4.831  0.3116  0.3464  0.0829
 1650SOL    HW1 5770   4.317   2.139   4.806 -0.0447 -0.0811  0.2578
 1650SOL    HW2 5771   4.268   2.243   4.922  0.9445  1.0519 -0.3249
 1651SOL     OW 5772   5.744   3.241   5.504 -0.2070 -0.2220 -0.0100
 1651SOL    HW1 5773   5.659   3.284   5.474 -0.1361 -1.1684 -1.7259
 1651SOL    HW2 5774   5.779   3.288   5.585 -1.1107  1.6796 -0.6695
 1652SOL     OW 5775   1.288   6.771   5.927  0.2336  0.4171 -0.2221
 1652SOL    HW1 5776   1.317   6.861   5.961 -0.6576  1.0279 -1.0387
 1652SOL    HW2 5777   1.228   6.783   5.848 -1.6330 -0.8051  0.9410
 1653SOL     OW 5778   4.630   5.396   0.345 -0.2877  0.6513 -0.1817
 1653SOL    HW1 5779   4.708   5.355   0.299 -1.6290 -1.8920 -0.3489
 1653SOL    HW2 5780   4.646   5.494   0.357  2.0218  0.5714 -1.9769
 1654SOL     OW 5781   0.470   5.920   2.549 -0.2395 -0.1512  0.5586
 1654SOL    HW1 5782   0.388   5.864   2.533  1.5397 -2.2148 -2.4789
 1654SOL    HW2 5783   0.466   6.001   2.491  0.1538 -0.6214 -0.1374
 1655SOL     OW 5784   3.668   5.296   2.173  0.1885  0.4742  0.4214
 1655SOL    HW1 5785   3.665   5.241   2.257 -0.7327  0.9914  0.7512
 1655SOL    HW2 5786   3.690   5.237   2.095  1.2508  0.0142  1.0441
 1656SOL     OW 5787   3.072   1.941   1.396 -0.1566  0.5916  0.1773
 1656SOL    HW1 5788   2.976   1.913   1.390 -0.3065  0.6048  1.9966
 1656SOL    HW2 5789   3.079   2.040   1.383 -0.1429  0.4030 -1.6731
 1657SOL     OW 5790   0.466   0.352   3.352 -0.1512  0.2528 -0.2510
 1657SOL    HW1 5791   0.420   0.348   3.441 -0.6546  0.5631 -0.4848
 1657SOL    HW2 5792   0.563   0.333   3.364 -0.4256 -1.0140  0.1712
 1658SOL     OW 5793   6.658   4.149   2.943  0.1354  0.4876 -0.1519
 1658SOL    HW1 5794   6.711   4.220   2.896  0.7904  0.1082  0.0073
 1658SOL    HW2 5795   6.642   4.176   3.038 -0.4708  0.8753 -0.3643
 1659SOL     OW 5796   0.012   4.215   5.173  0.0549  0.3315 -0.0203
 1659SOL    HW1 5797  -0.014   4.140   5.233 -1.5592  1.2437  0.4795
 1659SOL    HW2 5798  -0.033   4.299   5.203  1.1056  1.3148 -1.1276
 1660SOL     OW 5799   3.653   3.860   2.502  0.2822 -0.1414  0.1638
 1660SOL    HW1 5800   3.708   3.780   2.476 -0.6833 -0.5586 -0.7206
 1660SOL    HW2 5801   3.612   3.843   2.592 -0.8274 -1.1747 -0.5008
 1661SOL     OW 5802   4.234   1.004   0.581 -0.1849 -0.2926 -0.0842
 1661SOL    HW1 5803   4.212   0.909   0.557  0.1687 -0.8041  1.4747
 1661SOL    HW2 5804   4.291   1.044   0.510 -2.2882 -0.4344 -1.9671
 1662SOL     OW 5805   1.543   3.029   2.016  0.4679 -0.1760  0.2803
 1662SOL    HW1 5806   1.515   3.066   2.105  1.1024 -1.4191  1.0346
 1662SOL    HW2 5807   1.519   2.932   2.012  0.7245 -0.2115 -0.7919
 1663SOL     OW 5808   6.508   4.081   2.065  0.4131 -0.4845  0.1495
 1663SOL    HW1 5809   6.445   4.049   1.994 -1.0524 -1.9852  2.0027
 1663SOL    HW2 5810   6.481   4.172   2.095 -1.1831 -1.2547  1.1746
 1664SOL     OW 5811   5.376   0.248   0.519  0.2590 -0.0552  0.5516
 1664SOL    HW1 5812   5.343   0.320   0.458 -2.3689 -0.6050  1.2072
 1664SOL    HW2 5813   5.445   0.286   0.581  0.2338  1.4448 -0.2952
 1665SOL     OW 5814   2.843   4.632   3.569 -0.0037 -0.2100 -0.1216
 1665SOL    HW1 5815   2.898   4.617   3.651 -0.7231 -3.3477 -0.1033
 1665SOL    HW2 5816   2.858   4.557   3.505 -1.1642  1.0270 -1.9349
 1666SOL     OW 5817   3.623   3.892   0.946  0.5548 -0.0849 -0.0330
 1666SOL    HW1 5818   3.562   3.928   0.876  0.8115 -2.0908 -1.3966
 1666SOL    HW2 5819   3.597   3.927   1.035 -0.1395  2.1343 -1.0459
 1667SOL     OW 5820   2.834   4.616   0.612 -0.4873  0.0625 -0.3784
 1667SOL    HW1 5821   2.889   4.688   0.654 -0.7519  0.3207 -0.4673
 1667SOL    HW2 5822   2.746   4.610   0.660 -1.1454  0.9405 -1.4321
 1668SOL     OW 5823   0.156   4.706   4.316  0.1781 -0.2769  0.0580
 1668SOL    HW1 5824   0.071   4.671   4.354  1.6323 -3.9840  0.2566
 1668SOL    HW2 5825   0.216   4.736   4.391  0.1654 -0.4432  0.1367
 1669SOL     OW 5826   4.895   6.686   2.031  0.4262 -0.4147 -0.6759
 1669SOL    HW1 5827   4.952   6.662   1.952  1.0378  2.0262 -1.0584
 1669SOL    HW2 5828   4.938   6.652   2.115 -0.0016 -2.6395 -1.2676
 1670SOL     OW 5829   2.954   3.771   6.347 -0.1470  0.0997 -0.1357
 1670SOL    HW1 5830   2.891   3.813   6.281 -1.5308 -0.0969  1.0043
 1670SOL    HW2 5831   3.044   3.814   6.339 -0.3361  0.2034 -2.0037
 1671SOL     OW 5832   1.745   1.603   5.127  0.2174  0.1811  0.5872
 1671SOL    HW1 5833   1.840   1.635   5.129  0.4121 -0.4142  1.7652
 1671SOL    HW2 5834   1.683   1.679   5.147  0.5617  0.2542  1.4280
 1672SOL     OW 5835   6.433   4.602   4.817 -0.0117 -0.2759  0.0917
 1672SOL    HW1 5836   6.456   4.700   4.824 -0.2414 -0.1779 -0.5021
 1672SOL    HW2 5837   6.377   4.586   4.736 -0.8066 -0.7527  0.7144
 1673SOL     OW 5838   4.171   6.984   6.636 -0.1390 -0.5705 -0.2838
 1673SOL    HW1 5839   4.087   6.981   6.581  0.1714 -0.9981 -0.7469
 1673SOL    HW2 5840   4.156   7.039   6.718 -0.4665  0.4259 -1.0231
 1674SOL     OW 5841   0.849   6.178   4.655 -0.2128 -0.0823 -0.2096
 1674SOL    HW1 5842   0.921   6.198   4.588  2.7856  0.3893  2.9320
 1674SOL    HW2 5843   0.868   6.090   4.699 -2.7299 -0.9038 -0.6054
 1675SOL     OW 5844   3.330   5.091   3.879  0.0530 -0.5907  0.7628
 1675SOL    HW1 5845   3.245   5.138   3.855 -0.2491 -1.0223  0.9818
 1675SOL    HW2 5846   3.406   5.132   3.827 -0.4022 -0.7283 -0.0399
 1676SOL     OW 5847   2.475   1.366   2.547  0.0262  0.3179  0.1680
 1676SOL    HW1 5848   2.404   1.432   2.526 -0.7727 -1.6248 -4.2361
 1676SOL    HW2 5849   2.565   1.407   2.529 -0.4222  0.6286 -1.6230
 1677SOL     OW 5850   5.924   5.496   2.191 -0.1197 -0.0118 -0.7546
 1677SOL    HW1 5851   5.943   5.454   2.102 -0.9068  0.3560 -1.1110
 1677SOL    HW2 5852   5.855   5.568   2.180 -0.7874 -0.4567  0.2428
 1678SOL     OW 5853   1.346   6.616   6.731 -0.1271 -0.2171 -0.3757
 1678SOL    HW1 5854   1.264   6.665   6.700  0.1997  0.0967 -0.7502
 1678SOL    HW2 5855   1.344   6.610   6.831 -1.4133 -1.6314 -0.4540
 1679SOL     OW 5856   4.195   2.374   1.483  0.5531  0.3771  0.1127
 1679SOL    HW1 5857   4.245   2.457   1.458 -0.2654  1.0143  0.5310
 1679SOL    HW2 5858   4.115   2.364   1.424  1.5847 -1.0903 -1.1125
 1680SOL     OW 5859   6.015   3.703   1.103  0.5209 -0.0345  0.0653
 1680SOL    HW1 5860   6.090   3.657   1.056  0.4668 -1.0582  0.9528
 1680SOL    HW2 5861   5.993   3.654   1.187 -2.2065 -0.7203 -0.9318
 1681SOL     OW 5862   6.995   4.631   0.456  0.5507  0.1831 -0.1756
 1681SOL    HW1 5863   6.978   4.538   0.488  2.1890 -1.1676 -2.8611
 1681SOL    HW2 5864   7.060   4.676   0.517  0.6985 -0.9045  0.4699
 1682SOL     OW 5865   6.153   4.173   0.349 -0.4034  0.2943  0.2692
 1682SOL    HW1 5866   6.201   4.261   0.357  0.7770 -0.3933  1.2398
 1682SOL    HW2 5867   6.129   4.157   0.253 -0.6982  1.6916  0.0863
 1683SOL     OW 5868   4.903   3.681   3.809  0.3862  0.8082 -0.3401
 1683SOL    HW1 5869   4.817   3.690   3.760 -0.0104  2.3545  0.5768
 1683SOL    HW2 5870   4.975   3.728   3.759  0.6409 -0.1294 -0.8951
 1684SOL     OW 5871   1.668   6.102   1.381  0.2226  0.2058 -0.2755
 1684SOL    HW1 5872   1.730   6.129   1.455  1.4269  0.4068 -1.3201
 1684SOL    HW2 5873   1.707   6.130   1.293 -1.2835  0.1751 -0.9893
 1685SOL     OW 5874   6.755   3.095   3.518 -0.5846  0.2746 -0.0252
 1685SOL    HW1 5875   6.713   3.150   3.447  0.6084  0.0088 -0.9792
 1685SOL    HW2 5876   6.852   3.119   3.527 -0.1083 -1.3881 -0.2339
 1686SOL     OW 5877   1.880   5.413   4.426 -0.0497 -0.7434 -0.5682
 1686SOL    HW1 5878   1.935   5.392   4.506 -0.9651  0.6989  0.5048
 1686SOL    HW2 5879   1.910   5.358   4.348  1.3690 -1.6179  0.5590
 1687SOL     OW 5880   6.851   0.741   1.637 -0.7476 -0.2052 -0.6062
 1687SOL    HW1 5881   6.848   0.817   1.572  0.5449 -0.5656 -1.1291
 1687SOL    HW2 5882   6.887   0.660   1.591 -1.0860 -0.8423  0.2263
 1688SOL     OW 5883   1.692   1.399   6.440  0.9906  0.1042  0.2588
 1688SOL    HW1 5884   1.787   1.379   6.415  2.3061  2.8001  2.5897
 1688SOL    HW2 5885   1.670   1.494   6.416 -0.7424 -0.0884  0.8937
 1689SOL     OW 5886   4.453   2.330   4.528 -0.1437 -0.6690 -0.1510
 1689SOL    HW1 5887   4.541   2.290   4.553 -0.2163 -0.9866 -0.4052
 1689SOL    HW2 5888   4.417   2.382   4.605 -1.3884 -3.3490  1.2194
 1690SOL     OW 5889   1.776   3.907   3.560  0.3040  0.6855 -0.3607
 1690SOL    HW1 5890   1.857   3.861   3.596  0.0282  0.8932  0.5522
 1690SOL    HW2 5891   1.706   3.839   3.535  0.3918  0.5533 -0.2438
 1691SOL     OW 5892   6.667   1.546   2.836 -0.0209  0.0001  0.1107
 1691SOL    HW1 5893   6.609   1.544   2.754  0.0225 -0.7115  0.0752
 1691SOL    HW2 5894   6.615   1.510   2.914  0.3613 -0.6420  0.0809
 1692SOL     OW 5895   3.117   4.652   6.078  0.0190  0.0953 -0.0150
 1692SOL    HW1 5896   3.115   4.677   5.981  0.9916 -0.6879 -0.2483
 1692SOL    HW2 5897   3.208   4.668   6.116  0.1566 -1.2579  0.2984
 1693SOL     OW 5898   6.506   4.582   4.065  0.5685  0.2940 -0.4084
 1693SOL    HW1 5899   6.543   4.586   3.972 -0.2063 -0.1964 -0.7619
 1693SOL    HW2 5900   6.485   4.487   4.089 -0.0981  0.5119 -0.0898
 1694SOL     OW 5901   6.466   0.549   6.872  0.0049  0.0018  0.5775
 1694SOL    HW1 5902   6.419   0.466   6.903  0.4740 -0.2402  0.6541
 1694SOL    HW2 5903   6.518   0.588   6.948 -1.9816  1.6307  1.2053
 1695SOL     OW 5904   5.393   6.076   1.207  0.3968  0.1200 -0.1774
 1695SOL    HW1 5905   5.424   6.154   1.152  0.9974 -0.2741 -0.4111
 1695SOL    HW2 5906   5.470   6.015   1.224  0.0622 -0.1091  0.5376
 1696SOL     OW 5907   3.573   2.934   1.733 -0.3437 -0.5895  0.4912
 1696SOL    HW1 5908   3.610   2.981   1.653 -1.8358 -0.9375 -0.4673
 1696SOL    HW2 5909   3.608   2.975   1.816  2.0837 -0.8795 -0.3236
 1697SOL     OW 5910   0.311   6.746   3.412  0.0077 -0.3857  0.4855
 1697SOL    HW1 5911   0.327   6.661   3.362  2.9907 -0.3940  1.2882
 1697SOL    HW2 5912   0.286   6.725   3.506  0.0558 -0.3962  0.4967
 1698SOL     OW 5913   2.056   0.951   3.906  0.1705  0.4844 -0.7301
 1698SOL    HW1 5914   2.126   0.973   3.838  0.6655 -1.1014 -0.7875
 1698SOL    HW2 5915   2.101   0.929   3.993 -0.5238  5.0622  1.0380
 1699SOL     OW 5916   3.954   1.800   1.164 -0.1463 -0.2383  0.1835
 1699SOL    HW1 5917   4.048   1.832   1.177  1.6540 -4.5840 -0.6576
 1699SOL    HW2 5918   3.912   1.782   1.253 -0.5943  2.4422  0.5992
 1700SOL     OW 5919   1.857   1.003   2.872 -0.1028 -0.0207  0.4364
 1700SOL    HW1 5920   1.794   0.999   2.794 -0.2865 -1.2837  0.6259
 1700SOL    HW2 5921   1.832   1.079   2.932  0.3508  1.3130 -0.9831
 1701SOL     OW 5922   3.292   1.365   6.258  0.2176 -0.3037 -0.3839
 1701SOL    HW1 5923   3.352   1.324   6.328  0.4273  0.5770 -0.0359
 1701SOL    HW2 5924   3.238   1.438   6.300  0.2291  0.1230 -1.1044
 1702SOL     OW 5925   2.920   5.892   2.852  0.1119  0.2954 -0.2416
 1702SOL    HW1 5926   2.904   5.991   2.843 -0.7955  0.0607 -1.5758
 1702SOL    HW2 5927   2.859   5.843   2.789  1.3812 -1.0581 -0.4623
 1703SOL     OW 5928   1.613   0.276   3.940 -0.4296 -0.3227 -0.0058
 1703SOL    HW1 5929   1.697   0.292   3.992 -0.2092 -0.7959 -0.1994
 1703SOL    HW2 5930   1.571   0.190   3.969 -0.8221 -0.1094  0.0708
 1704SOL     OW 5931   0.308   2.460   4.110  0.4312  0.0910  0.2524
 1704SOL    HW1 5932   0.238   2.467   4.182 -0.1987 -0.3130 -0.2928
 1704SOL    HW2 5933   0.265   2.478   4.021  1.8194  3.7739  0.1566
 1705SOL     OW 5934   2.744   2.422   5.012  0.1916 -0.1394  0.2881
 1705SOL    HW1 5935   2.757   2.378   4.923 -0.4313  1.3329 -0.5735
 1705SOL    HW2 5936   2.721   2.353   5.080 -0.0562 -1.2250 -0.8512
 1706SOL     OW 5937   5.226   1.552   2.517 -0.0858  0.4114 -0.2330
 1706SOL    HW1 5938   5.128   1.536   2.526 -0.2376  1.8721  1.6429
 1706SOL    HW2 5939   5.267   1.556   2.608  1.5045  0.9080 -0.9314
 1707SOL     OW 5940   3.312   2.224   5.331  0.5909  0.8013  0.2011
 1707SOL    HW1 5941   3.251   2.293   5.371  1.6317  1.9220 -0.0818
 1707SOL    HW2 5942   3.337   2.157   5.401  0.3712  1.2911  0.7608
 1708SOL     OW 5943   3.562   1.389   4.528 -0.8282 -0.2688  0.4502
 1708SOL    HW1 5944   3.474   1.343   4.537 -0.3734 -1.1299  0.5596
 1708SOL    HW2 5945   3.636   1.326   4.551  0.0160 -0.4573 -2.4434
 1709SOL     OW 5946   0.289   6.254   4.633 -0.1404 -0.0617  0.1063
 1709SOL    HW1 5947   0.334   6.181   4.685 -0.9764 -1.4089 -0.9664
 1709SOL    HW2 5948   0.260   6.326   4.695  0.1538 -0.9384  1.3077
 1710SOL     OW 5949   3.795   4.541   2.600 -0.8174  0.4050  0.1521
 1710SOL    HW1 5950   3.704   4.563   2.634 -1.5213 -2.4164  0.3767
 1710SOL    HW2 5951   3.832   4.463   2.652  1.2077  0.7172 -0.7308
 1711SOL     OW 5952   2.762   4.516   0.066 -0.6571 -0.0590 -0.3893
 1711SOL    HW1 5953   2.668   4.495   0.093  0.5414 -2.8507  2.1144
 1711SOL    HW2 5954   2.811   4.554   0.145  0.8730 -0.6137 -1.0545
 1712SOL     OW 5955   4.757   3.369   1.522 -0.1600  0.4873  0.2698
 1712SOL    HW1 5956   4.692   3.332   1.455 -1.5761  0.8537  1.3795
 1712SOL    HW2 5957   4.835   3.409   1.474 -1.3310  1.1210 -1.1989
 1713SOL     OW 5958   6.360   1.773   3.753 -0.3683 -0.3919 -0.0293
 1713SOL    HW1 5959   6.331   1.867   3.736 -0.5955 -0.4358  0.1035
 1713SOL    HW2 5960   6.319   1.740   3.838 -1.2430 -0.9961 -0.6639
 1714SOL     OW 5961   3.534   2.648   1.027  0.5639 -0.5408 -0.1318
 1714SOL    HW1 5962   3.513   2.743   1.005  1.0040 -0.2434  0.6604
 1714SOL    HW2 5963   3.603   2.646   1.101  1.4774 -1.4727 -0.9825
 1715SOL     OW 5964   2.889   3.692   3.580 -0.2406  0.5068  0.2478
 1715SOL    HW1 5965   2.892   3.596   3.607 -0.5744 -0.7419 -3.5825
 1715SOL    HW2 5966   2.952   3.745   3.637  1.4222 -2.3251  1.2018
 1716SOL     OW 5967   3.244   2.730   6.962  0.1478  0.6310 -0.4881
 1716SOL    HW1 5968   3.307   2.712   6.887  1.2280  1.8160  0.0797
 1716SOL    HW2 5969   3.182   2.805   6.937  0.4479  0.9708 -0.2152
 1717SOL     OW 5970   0.509   5.599   5.195  0.2781  0.1489  0.4961
 1717SOL    HW1 5971   0.558   5.590   5.108 -1.3606 -0.9316 -0.3708
 1717SOL    HW2 5972   0.482   5.694   5.209 -2.0170 -0.0882 -1.7177
 1718SOL     OW 5973   2.366   1.257   3.814 -0.2269 -0.0024 -0.2088
 1718SOL    HW1 5974   2.288   1.281   3.756  1.2456  3.7197 -0.9206
 1718SOL    HW2 5975   2.395   1.337   3.866  4.1141 -0.6097 -1.2930
 1719SOL     OW 5976   1.848   1.951   1.071  0.3027 -0.1847  0.2669
 1719SOL    HW1 5977   1.875   2.030   1.126  0.4844 -0.4165  0.5145
 1719SOL    HW2 5978   1.753   1.928   1.090 -0.0989  0.6516 -0.6249
 1720SOL     OW 5979   5.449   1.824   1.001 -0.0877 -0.3614 -0.4012
 1720SOL    HW1 5980   5.435   1.908   1.054 -2.0007 -0.9807  0.1786
 1720SOL    HW2 5981   5.488   1.846   0.912  0.1963  1.0597  0.0577
 1721SOL     OW 5982   1.813   1.103   0.939 -0.2962 -0.5664  0.1788
 1721SOL    HW1 5983   1.853   1.072   1.025  1.4788  0.9509 -0.0449
 1721SOL    HW2 5984   1.724   1.143   0.957 -0.5563 -1.4967  1.0905
 1722SOL     OW 5985   2.429   4.291   1.919  0.3584 -0.2973  0.1896
 1722SOL    HW1 5986   2.398   4.216   1.979  0.8562 -1.7146 -1.2406
 1722SOL    HW2 5987   2.493   4.254   1.852 -0.8955  1.0260 -1.8141
 1723SOL     OW 5988   1.064   3.152   6.728 -0.5960 -0.0163  0.7580
 1723SOL    HW1 5989   1.158   3.167   6.696  0.2659 -1.6873  2.3819
 1723SOL    HW2 5990   1.043   3.055   6.725 -2.2644  0.3326  0.5026
 1724SOL     OW 5991   0.489   6.736   2.335 -0.0365  0.5941  0.1412
 1724SOL    HW1 5992   0.470   6.773   2.245  2.2669  0.4008 -0.4970
 1724SOL    HW2 5993   0.481   6.809   2.404 -2.2383  0.6449 -0.1012
 1725SOL     OW 5994   1.914   4.444   2.409  0.2041  0.6970 -0.0453
 1725SOL    HW1 5995   1.881   4.373   2.470 -0.2309  0.0256 -1.0361
 1725SOL    HW2 5996   2.014   4.443   2.407  0.2393  1.0896  1.0633
 1726SOL     OW 5997   0.576   4.117   3.906 -0.3053 -0.2454  0.1456
 1726SOL    HW1 5998   0.488   4.115   3.954  0.0785 -0.6217  0.8522
 1726SOL    HW2 5999   0.633   4.189   3.944  0.6070 -1.5529  1.3795
 1727SOL     OW 6000   6.868   3.446   1.851 -0.0076  0.3303  0.4591
 1727SOL    HW1 6001   6.841   3.350   1.861  2.0267 -0.2700  0.5881
 1727SOL    HW2 6002   6.861   3.492   1.939 -2.0893  0.6477  0.1736
 1728SOL     OW 6003   3.223   5.157   1.260 -0.2322  0.3349 -0.5632
 1728SOL    HW1 6004   3.253   5.198   1.174 -0.9870  1.5732 -0.2653
 1728SOL    HW2 6005   3.268   5.069   1.273  1.0836  0.8533 -1.4682
 1729SOL     OW 6006   4.096   6.093   1.697 -1.0997  0.0498 -0.1548
 1729SOL    HW1 6007   4.163   6.140   1.639  0.5651  0.4803  1.9290
 1729SOL    HW2 6008   4.135   6.007   1.731 -2.1106 -0.3341  0.0890
 1730SOL     OW 6009   4.931   6.677   1.470 -0.1250 -0.4144  0.2646
 1730SOL    HW1 6010   4.854   6.725   1.512 -2.2966 -1.0305 -2.7233
 1730SOL    HW2 6011   4.972   6.735   1.400 -1.1911 -1.8893 -1.6618
 1731SOL     OW 6012   1.958   4.297   1.289 -0.4750  0.1886 -0.2229
 1731SOL    HW1 6013   1.985   4.369   1.353 -2.5193  0.9185 -0.1049
 1731SOL    HW2 6014   1.858   4.293   1.283 -0.3701 -0.0116 -3.1973
 1732SOL     OW 6015   6.204   3.779   6.659 -0.1698 -0.1330 -0.5349
 1732SOL    HW1 6016   6.155   3.754   6.743  0.5575 -1.1293 -0.4016
 1732SOL    HW2 6017   6.293   3.817   6.683  0.1863 -0.7456 -0.8556
 1733SOL     OW 6018   0.873   1.527   4.066  0.5358  0.7033 -0.1880
 1733SOL    HW1 6019   0.811   1.489   4.134  0.1597  1.2314 -0.2298
 1733SOL    HW2 6020   0.962   1.481   4.072  0.4062  0.5275  0.4391
 1734SOL     OW 6021   3.446   3.899   2.324  0.4509 -0.3778  0.1633
 1734SOL    HW1 6022   3.394   3.814   2.316  1.6889 -1.0670 -0.8589
 1734SOL    HW2 6023   3.518   3.888   2.392  1.3637 -0.5484 -0.8178
 1735SOL     OW 6024   5.834   5.192   3.996  0.1055 -0.0495 -0.2223
 1735SOL    HW1 6025   5.766   5.250   3.950  1.1342  0.8155 -0.7003
 1735SOL    HW2 6026   5.858   5.115   3.936 -0.2013 -0.1607 -0.2040
 1736SOL     OW 6027   4.954   1.215   0.390  0.1486  0.9449 -0.5048
 1736SOL    HW1 6028   4.925   1.182   0.480 -0.0743  0.9934 -0.5589
 1736SOL    HW2 6029   4.983   1.137   0.334  0.3055  0.9162 -0.3863
 1737SOL     OW 6030   6.286   4.103   1.252 -0.4650 -0.2751 -0.1547
 1737SOL    HW1 6031   6.288   4.202   1.266  0.5366 -0.2664 -0.3134
 1737SOL    HW2 6032   6.363   4.076   1.194 -0.1739 -1.2671  0.6574
 1738SOL     OW 6033   3.609   6.203   5.247  0.1913  0.3716 -0.5679
 1738SOL    HW1 6034   3.667   6.194   5.165  0.0669  0.6638 -0.6919
 1738SOL    HW2 6035   3.581   6.299   5.256 -0.5400  0.1706 -0.6914
 1739SOL     OW 6036   3.180   3.944   2.503  0.1959  0.5932  0.0194
 1739SOL    HW1 6037   3.223   3.868   2.453 -1.1204 -0.0893 -0.1294
 1739SOL    HW2 6038   3.227   3.958   2.590  0.6827 -0.1434 -0.1158
 1740SOL     OW 6039   1.520   1.603   5.533  1.0377 -0.1215  0.0197
 1740SOL    HW1 6040   1.579   1.680   5.508  2.3143 -1.1530 -0.2497
 1740SOL    HW2 6041   1.497   1.609   5.630  1.7958  0.1629  0.1901
 1741SOL     OW 6042   0.700   0.289   1.682 -0.3892  0.3598  0.1100
 1741SOL    HW1 6043   0.664   0.350   1.752 -1.0901  1.1165 -0.9063
 1741SOL    HW2 6044   0.627   0.229   1.648  0.2770 -1.0765  1.0919
 1742SOL     OW 6045   4.461   4.004   5.298 -0.2564  0.3884  0.1801
 1742SOL    HW1 6046   4.437   3.916   5.339 -0.2403 -0.4851 -1.5922
 1742SOL    HW2 6047   4.507   3.988   5.210 -2.0269  2.1826 -1.1498
 1743SOL     OW 6048   3.181   1.246   0.510 -0.0656 -0.1792 -0.1866
 1743SOL    HW1 6049   3.200   1.280   0.418 -0.9234  0.6710 -0.0713
 1743SOL    HW2 6050   3.265   1.246   0.564  0.2147  0.4917 -0.6123
 1744SOL     OW 6051   6.714   4.241   0.663  0.5001  0.2956 -0.0768
 1744SOL    HW1 6052   6.806   4.275   0.685  1.1411 -1.2537 -0.2405
 1744SOL    HW2 6053   6.694   4.258   0.566  0.6702  0.5188 -0.0731
 1745SOL     OW 6054   5.688   2.501   1.277 -0.8659 -0.2583  0.4188
 1745SOL    HW1 6055   5.788   2.497   1.268 -0.6776  1.9738  0.9925
 1745SOL    HW2 6056   5.652   2.567   1.211 -2.1713 -2.1456 -0.8321
 1746SOL     OW 6057   3.168   1.465   5.153 -0.0326  0.1083  0.0463
 1746SOL    HW1 6058   3.132   1.441   5.064  0.3437 -1.0199  0.1827
 1746SOL    HW2 6059   3.160   1.387   5.215  1.0245  0.4061  0.5786
 1747SOL     OW 6060   5.053   1.315   3.077  0.9381 -0.3698  0.2263
 1747SOL    HW1 6061   5.034   1.384   3.008 -0.3039 -0.2879  0.6389
 1747SOL    HW2 6062   5.076   1.228   3.033  0.3967 -0.2550 -0.2778
 1748SOL     OW 6063   4.873   1.358   6.804 -0.2119  0.3049  0.1633
 1748SOL    HW1 6064   4.849   1.422   6.877  0.6447 -0.4633  1.1398
 1748SOL    HW2 6065   4.961   1.314   6.825  1.0521  1.4541 -2.2466
 1749SOL     OW 6066   6.966   0.550   1.440 -0.1587 -0.4897  0.2375
 1749SOL    HW1 6067   6.931   0.567   1.348  0.4134  0.4027  0.1773
 1749SOL    HW2 6068   6.963   0.451   1.458 -1.3592 -0.5761 -0.2927
 1750SOL     OW 6069   4.082   5.328   6.902  0.5291 -0.2864  0.0905
 1750SOL    HW1 6070   4.046   5.371   6.819 -0.6824 -1.4826 -0.0237
 1750SOL    HW2 6071   4.164   5.276   6.879  0.1918 -0.6257 -0.3571
 1751SOL     OW 6072   1.167   0.898   3.103  0.4802 -0.3679  0.2583
 1751SOL    HW1 6073   1.199   0.984   3.062 -1.1199 -0.6719 -1.8278
 1751SOL    HW2 6074   1.216   0.821   3.063  0.5880 -0.5500  0.7282
 1752SOL     OW 6075   0.197   4.918   0.152  0.0183  0.7694  0.7415
 1752SOL    HW1 6076   0.109   4.951   0.187  0.4856  3.7352 -0.5918
 1752SOL    HW2 6077   0.223   4.835   0.201 -4.1053 -1.0367  0.3363
 1753SOL     OW 6078   5.017   0.460   1.411  0.2175  0.0617 -0.1399
 1753SOL    HW1 6079   5.035   0.465   1.510  0.3443  0.8823 -0.2036
 1753SOL    HW2 6080   5.031   0.366   1.380 -2.1968 -0.8071  1.0959
 1754SOL     OW 6081   0.457   1.579   6.403  0.3378 -0.2001 -0.0214
 1754SOL    HW1 6082   0.474   1.503   6.340  0.0742 -0.4718  0.2300
 1754SOL    HW2 6083   0.457   1.665   6.352  1.2107 -0.3048 -0.2310
 1755SOL     OW 6084   2.951   4.507   1.410 -0.1121 -1.0136 -0.2913
 1755SOL    HW1 6085   2.993   4.434   1.357  0.3058  0.7538 -2.5680
 1755SOL    HW2 6086   2.915   4.577   1.348 -0.4848  0.7246  1.7520
 1756SOL     OW 6087   0.507   6.878   2.057  0.1795 -0.0718 -0.1998
 1756SOL    HW1 6088   0.565   6.944   2.104 -0.1160 -0.8285  1.3002
 1756SOL    HW2 6089   0.421   6.921   2.031  0.8332  0.6840 -1.1893
 1757SOL     OW 6090   5.545   3.819   2.642  0.0624  0.0855 -0.4006
 1757SOL    HW1 6091   5.643   3.817   2.660 -0.3682  1.6490  2.7484
 1757SOL    HW2 6092   5.516   3.733   2.601  2.7848 -0.2237 -1.8475
 1758SOL     OW 6093   2.481   5.610   4.929 -0.4586  0.4940 -0.3752
 1758SOL    HW1 6094   2.538   5.530   4.910 -1.0710  0.5919 -3.0298
 1758SOL    HW2 6095   2.516   5.657   5.010  0.1279 -2.2179  1.0938
 1759SOL     OW 6096   3.474   1.228   4.045  0.2158  0.7238 -0.1881
 1759SOL    HW1 6097   3.533   1.197   3.970 -1.2618  0.3541 -1.2472
 1759SOL    HW2 6098   3.390   1.174   4.045  0.3529  0.4699  1.9975
 1760SOL     OW 6099   5.208   2.143   1.672 -0.5461 -0.3376 -0.3500
 1760SOL    HW1 6100   5.233   2.074   1.605  0.2507 -0.8063  0.4268
 1760SOL    HW2 6101   5.170   2.099   1.754  0.3280  0.0908  0.3075
 1761SOL     OW 6102   3.772   4.125   4.506 -0.1925 -0.0590  0.6242
 1761SOL    HW1 6103   3.701   4.181   4.549  0.2163  1.5798 -0.7487
 1761SOL    HW2 6104   3.862   4.154   4.540  0.0295  0.2334 -0.1809
 1762SOL     OW 6105   4.427   4.034   1.540 -0.1157 -0.1015 -0.0184
 1762SOL    HW1 6106   4.508   4.046   1.598 -0.6742  1.6939  0.4878
 1762SOL    HW2 6107   4.452   3.986   1.456  0.9104 -1.9553  1.2708
 1763SOL     OW 6108   3.966   0.136   5.276  0.1122 -0.0384 -0.1076
 1763SOL    HW1 6109   3.988   0.173   5.186  0.5449 -1.7100 -0.7347
 1763SOL    HW2 6110   3.963   0.037   5.271  0.7108 -0.1954  1.8497
 1764SOL     OW 6111   1.396   4.254   5.931 -0.1750  0.2227  0.0034
 1764SOL    HW1 6112   1.432   4.347   5.936  2.0595 -0.5931  0.4216
 1764SOL    HW2 6113   1.471   4.189   5.941 -1.8674 -1.6587  1.3949
 1765SOL     OW 6114   3.463   0.369   4.241 -0.5233 -0.3126 -0.3974
 1765SOL    HW1 6115   3.418   0.307   4.176  0.2538 -0.6960 -0.5751
 1765SOL    HW2 6116   3.539   0.416   4.196 -1.7931  1.6779 -0.6152
 1766SOL     OW 6117   3.065   4.289   1.298 -0.0449  0.5133  0.5169
 1766SOL    HW1 6118   3.129   4.258   1.368  1.0216  0.5918 -0.3878
 1766SOL    HW2 6119   3.065   4.225   1.221 -1.2633  0.3756  0.6138
 1767SOL     OW 6120   4.653   4.866   5.039 -0.5564 -0.0499  0.4362
 1767SOL    HW1 6121   4.557   4.889   5.056 -0.5265 -0.2239  0.8368
 1767SOL    HW2 6122   4.706   4.877   5.123 -0.3606 -0.6743  0.4028
 1768SOL     OW 6123   1.542   2.720   6.792  0.1462  0.3274  0.7297
 1768SOL    HW1 6124   1.449   2.685   6.803 -0.0240  0.8571  1.0186
 1768SOL    HW2 6125   1.582   2.683   6.708  0.1683 -0.9688  1.2794
 1769SOL     OW 6126   5.729   6.762   2.930  0.4237  0.1890  0.0525
 1769SOL    HW1 6127   5.826   6.765   2.953  0.2323  1.3458  0.8007
 1769SOL    HW2 6128   5.712   6.817   2.848  0.3718  0.0979  0.0014
 1770SOL     OW 6129   3.999   6.503   4.801 -0.3552  0.5015 -0.4223
 1770SOL    HW1 6130   3.929   6.495   4.872  1.2643 -0.9321  1.0857
 1770SOL    HW2 6131   4.073   6.438   4.819  0.7917  1.0781 -2.6665
 1771SOL     OW 6132   5.303   0.295   1.284 -0.6927  0.0169  0.1975
 1771SOL    HW1 6133   5.308   0.384   1.329  0.2138  0.9292 -1.5962
 1771SOL    HW2 6134   5.346   0.226   1.342 -0.0901  1.0282  1.0044
 1772SOL     OW 6135   2.238   3.635   6.593 -0.5529 -0.1337  0.1815
 1772SOL    HW1 6136   2.265   3.574   6.519 -0.4697 -1.3181  1.1588
 1772SOL    HW2 6137   2.139   3.648   6.592 -0.3887  1.4001 -1.2692
 1773SOL     OW 6138   6.309   3.623   1.560  0.0430  0.3004  0.1604
 1773SOL    HW1 6139   6.348   3.536   1.531  0.5594 -0.1148  1.9671
 1773SOL    HW2 6140   6.305   3.685   1.482  0.7637 -0.9317 -0.9047
 1774SOL     OW 6141   0.626   1.277   2.902 -0.0853 -0.4804 -0.2340
 1774SOL    HW1 6142   0.538   1.294   2.857  0.3538 -0.6538 -1.1859
 1774SOL    HW2 6143   0.671   1.200   2.857  1.2224  0.5436 -0.7120
 1775SOL     OW 6144   5.652   5.346   3.851  0.3228  0.2225  0.6320
 1775SOL    HW1 6145   5.673   5.444   3.852 -0.1610  0.3255  0.6513
 1775SOL    HW2 6146   5.608   5.322   3.764  0.3096  0.0486  0.6852
 1776SOL     OW 6147   3.001   5.689   2.477  0.0103 -0.0319 -0.0579
 1776SOL    HW1 6148   2.980   5.603   2.430  0.5407 -2.4567  3.6907
 1776SOL    HW2 6149   3.093   5.719   2.452  0.1697 -1.0916 -0.8059
 1777SOL     OW 6150   6.221   3.841   2.316  0.1518 -0.1623  0.1128
 1777SOL    HW1 6151   6.265   3.854   2.405 -0.6960 -1.4184  0.7442
 1777SOL    HW2 6152   6.122   3.844   2.327  0.0236  0.9480 -1.0229
 1778SOL     OW 6153   6.469   3.846   2.191  0.1552  0.0588 -0.1520
 1778SOL    HW1 6154   6.505   3.931   2.154  0.5133  0.5272  1.2282
 1778SOL    HW2 6155   6.375   3.859   2.221  0.7747  0.5226  1.7404
 1779SOL     OW 6156   2.834   5.239   4.850 -0.2946 -0.4519  0.5506
 1779SOL    HW1 6157   2.766   5.179   4.807 -1.3321  1.0149  0.0568
 1779SOL    HW2 6158   2.828   5.230   4.949 -1.0445 -0.5129  0.5055
 1780SOL     OW 6159   5.047   5.626   5.252 -0.1641 -0.3179  0.5606
 1780SOL    HW1 6160   5.119   5.580   5.303 -0.5265 -1.2905  0.2327
 1780SOL    HW2 6161   5.078   5.717   5.223 -0.2847  0.6735  3.2982
 1781SOL     OW 6162   5.708   0.955   1.378  0.3722 -0.4063 -0.0108
 1781SOL    HW1 6163   5.761   1.027   1.424 -1.0900  0.0724  0.9651
 1781SOL    HW2 6164   5.765   0.915   1.305  2.4557 -0.6203  1.6332
 1782SOL     OW 6165   0.209   0.062   0.813  0.9835 -0.3042  0.2567
 1782SOL    HW1 6166   0.303   0.027   0.814  0.7975 -0.8807 -1.0428
 1782SOL    HW2 6167   0.153   0.009   0.878  1.8679  1.0814  2.2664
 1783SOL     OW 6168   2.857   4.962   6.675 -0.2580 -0.3067  0.7883
 1783SOL    HW1 6169   2.765   4.972   6.711 -0.1697  0.7009  0.7704
 1783SOL    HW2 6170   2.910   4.901   6.734 -1.1262 -1.4494  0.4161
 1784SOL     OW 6171   3.377   3.116   6.476  0.6221 -0.1887 -0.1680
 1784SOL    HW1 6172   3.376   3.017   6.463  1.9958 -0.4597  1.4344
 1784SOL    HW2 6173   3.466   3.144   6.513  0.0108  1.5510  0.0765
 1785SOL     OW 6174   4.620   6.048   2.084 -0.1311  0.4457  0.9187
 1785SOL    HW1 6175   4.582   5.977   2.144 -1.0000 -0.3644 -0.5254
 1785SOL    HW2 6176   4.555   6.123   2.076 -1.4887 -0.8340 -1.3649
 1786SOL     OW 6177   2.985   4.309   2.396  1.3167 -0.2840  0.4878
 1786SOL    HW1 6178   2.887   4.326   2.381  1.1812  1.4363  2.6861
 1786SOL    HW2 6179   3.023   4.261   2.318 -0.8094  0.9363 -1.4131
 1787SOL     OW 6180   3.470   4.365   1.461 -0.1089 -0.7816 -0.3736
 1787SOL    HW1 6181   3.413   4.437   1.422  0.5738 -0.0176  0.0127
 1787SOL    HW2 6182   3.477   4.379   1.560  1.8890 -0.0077 -0.5816
 1788SOL     OW 6183   1.156   4.689   4.158 -0.0419 -0.0967 -0.2270
 1788SOL    HW1 6184   1.092   4.751   4.114 -1.7902 -0.8932  1.0553
 1788SOL    HW2 6185   1.143   4.692   4.257 -0.4556 -2.7358 -0.1301
 1789SOL     OW 6186   3.447   1.910   6.861 -0.0274  0.2271  0.0386
 1789SOL    HW1 6187   3.438   2.007   6.839 -0.8970  0.1170 -0.1423
 1789SOL    HW2 6188   3.375   1.859   6.814 -0.7407 -0.2647  1.5951
 1790SOL     OW 6189   1.929   6.765   4.587 -0.2922 -0.8062 -0.1177
 1790SOL    HW1 6190   1.943   6.854   4.543  1.0700 -1.6445 -1.5075
 1790SOL    HW2 6191   1.990   6.756   4.665  0.7135 -1.1157 -0.9288
 1791SOL     OW 6192   2.078   2.113   6.666  0.4057  0.2716  0.3913
 1791SOL    HW1 6193   2.059   2.022   6.630 -0.5215  0.3680  0.6252
 1791SOL    HW2 6194   2.169   2.142   6.636 -0.6346  0.7217 -2.7295
 1792SOL     OW 6195   1.979   3.682   6.576 -0.1468  0.0881 -0.0243
 1792SOL    HW1 6196   1.959   3.598   6.527 -1.0431 -0.4301  1.1740
 1792SOL    HW2 6197   1.905   3.701   6.642  0.3485  1.4653  0.1820
 1793SOL     OW 6198   1.818   5.610   0.018  0.0621 -0.4385  0.2829
 1793SOL    HW1 6199   1.858   5.577   0.103  0.5944  0.4112  0.3906
 1793SOL    HW2 6200   1.879   5.678  -0.023  0.5058 -1.8911 -1.5106
 1794SOL     OW 6201   0.912   6.125   6.148  0.4304 -0.2338 -0.4963
 1794SOL    HW1 6202   0.850   6.199   6.177 -0.8196 -0.8546 -1.4549
 1794SOL    HW2 6203   0.952   6.083   6.229 -0.1571  0.3995  0.1514
 1795SOL     OW 6204   3.824   0.162   3.858 -0.3025 -0.0669  0.8705
 1795SOL    HW1 6205   3.893   0.094   3.831  1.1165  1.8240 -0.5289
 1795SOL    HW2 6206   3.748   0.160   3.793 -1.2439 -1.5748  1.9383
 1796SOL     OW 6207   2.027   1.267   1.153 -0.2248  0.6659 -0.2967
 1796SOL    HW1 6208   2.118   1.271   1.111  0.2453  0.7851  0.7342
 1796SOL    HW2 6209   2.008   1.174   1.183 -0.5788  0.5680 -0.8101
 1797SOL     OW 6210   0.740   0.370   3.280 -0.4901  0.8145  0.4915
 1797SOL    HW1 6211   0.822   0.325   3.314  0.4615  1.8690 -0.3131
 1797SOL    HW2 6212   0.764   0.460   3.243 -1.8097  0.6480 -0.8940
 1798SOL     OW 6213   1.646   1.654   6.345 -0.1077 -0.4147  0.4053
 1798SOL    HW1 6214   1.647   1.656   6.245 -1.0086 -1.6869  0.3528
 1798SOL    HW2 6215   1.554   1.675   6.378 -0.6204 -2.9755  0.8197
 1799SOL     OW 6216   3.000   6.688   4.499 -0.2200  0.2345  0.1562
 1799SOL    HW1 6217   3.002   6.712   4.402 -0.8560  1.7435  0.4700
 1799SOL    HW2 6218   2.937   6.612   4.514 -0.4121  0.2451 -0.5723
 1800SOL     OW 6219   1.263   2.847   6.371  0.0569 -0.3594 -0.0112
 1800SOL    HW1 6220   1.227   2.789   6.444  0.7680 -1.3192 -0.4071
 1800SOL    HW2 6221   1.336   2.906   6.408  1.2458 -1.6750 -0.1502
 1801SOL     OW 6222   1.767   4.535   5.528  0.1816  0.4526 -0.0631
 1801SOL    HW1 6223   1.753   4.627   5.564 -1.4819 -0.0165  0.5670
 1801SOL    HW2 6224   1.740   4.532   5.432  0.9680  0.7887 -0.3021
 1802SOL     OW 6225   4.783   4.658   1.722 -0.1146 -0.0082  0.0176
 1802SOL    HW1 6226   4.800   4.739   1.667 -1.2142  0.3185  0.1445
 1802SOL    HW2 6227   4.700   4.612   1.689 -0.1227 -0.4598  0.6505
 1803SOL     OW 6228   3.923   4.638   1.949 -0.5280  0.1734 -0.1490
 1803SOL    HW1 6229   3.872   4.592   1.876 -0.5979 -0.1090  0.0777
 1803SOL    HW2 6230   3.943   4.732   1.921 -1.0410  0.2409 -0.3031
 1804SOL     OW 6231   0.896   4.405   2.341 -0.1169  1.0003  0.1375
 1804SOL    HW1 6232   0.886   4.312   2.306 -1.3931  1.3239 -0.4170
 1804SOL    HW2 6233   0.939   4.462   2.271 -1.7171  1.4003 -0.6091
 1805SOL     OW 6234   1.926   3.309   1.291 -0.2172  0.0175  0.1698
 1805SOL    HW1 6235   1.902   3.387   1.348  0.5092 -0.2695  0.8859
 1805SOL    HW2 6236   1.898   3.326   1.197  0.3209  1.3393  0.2201
 1806SOL     OW 6237   1.012   5.545   3.038 -0.2042 -0.6046  0.6866
 1806SOL    HW1 6238   0.950   5.623   3.033 -1.3511 -1.5336 -0.1716
 1806SOL    HW2 6239   1.073   5.546   2.958  0.6184  0.0746  1.3082
 1807SOL     OW 6240   0.377   0.157   3.160  0.1317 -0.1563 -0.2649
 1807SOL    HW1 6241   0.332   0.082   3.207 -0.5057 -0.4700 -1.3470
 1807SOL    HW2 6242   0.400   0.229   3.226  2.2613 -1.9520  1.0824
 1808SOL     OW 6243   6.021   2.231   0.693  0.5660  0.0762 -0.4193
 1808SOL    HW1 6244   6.058   2.183   0.613  1.5518  0.3952 -0.1771
 1808SOL    HW2 6245   6.060   2.323   0.698 -0.2765  0.4284 -0.1342
 1809SOL     OW 6246   4.920   5.638   6.379  0.0774  0.4046 -0.2906
 1809SOL    HW1 6247   4.957   5.674   6.293  1.4121 -1.7978 -0.7283
 1809SOL    HW2 6248   4.840   5.581   6.359  0.2306  0.1020 -0.0586
 1810SOL     OW 6249   3.693   4.687   1.355  0.4395 -0.3491 -0.1838
 1810SOL    HW1 6250   3.771   4.732   1.398 -1.0106  0.8322  1.3277
 1810SOL    HW2 6251   3.725   4.607   1.303  2.6544  0.2875  0.1154
 1811SOL     OW 6252   5.710   0.936   3.140 -0.3083 -0.4312  0.3530
 1811SOL    HW1 6253   5.612   0.917   3.139 -0.0783 -1.6887 -0.2035
 1811SOL    HW2 6254   5.734   0.988   3.058 -0.3362 -1.1157 -0.1040
 1812SOL     OW 6255   3.344   1.488   2.910  0.6767  0.1536  0.3981
 1812SOL    HW1 6256   3.414   1.476   2.839 -0.4757  0.4353 -0.8245
 1812SOL    HW2 6257   3.328   1.400   2.955  2.6033  0.3015  1.5192
 1813SOL     OW 6258   5.743   3.133   3.036  0.0354  0.0720  0.6030
 1813SOL    HW1 6259   5.727   3.051   2.982 -1.0684 -0.1001  1.1665
 1813SOL    HW2 6260   5.764   3.108   3.131  0.9510  0.4083  0.5063
 1814SOL     OW 6261   6.609   1.444   1.976 -0.3247 -0.1189 -0.9750
 1814SOL    HW1 6262   6.612   1.469   1.879  0.9336  1.1866 -0.6228
 1814SOL    HW2 6263   6.679   1.494   2.025 -2.2584  0.7884  0.9852
 1815SOL     OW 6264   4.141   0.481   4.422 -0.1648  0.2439  0.7170
 1815SOL    HW1 6265   4.166   0.474   4.518  2.3405 -0.8513  0.1100
 1815SOL    HW2 6266   4.052   0.439   4.407 -0.8277  0.8987  2.6185
 1816SOL     OW 6267   1.253   4.305   3.168 -0.2422  0.4104 -0.2967
 1816SOL    HW1 6268   1.234   4.216   3.211 -1.9527  1.0320  0.3000
 1816SOL    HW2 6269   1.180   4.327   3.103 -0.8958  2.2296  0.9716
 1817SOL     OW 6270   2.497   2.149   5.391 -0.0434 -0.3938  0.4518
 1817SOL    HW1 6271   2.423   2.102   5.439  0.6335 -0.5346  1.4007
 1817SOL    HW2 6272   2.558   2.191   5.459  1.0408 -0.7412 -0.2849
 1818SOL     OW 6273   4.545   3.773   6.161 -0.1231 -0.5846  0.2487
 1818SOL    HW1 6274   4.570   3.749   6.255 -1.0730 -1.0702  0.3911
 1818SOL    HW2 6275   4.502   3.694   6.117  0.0793 -0.2802 -0.5201
 1819SOL     OW 6276   5.878   0.033   5.863  0.3908 -0.2517  0.3722
 1819SOL    HW1 6277   5.961   0.089   5.862  0.0527  0.2922  1.6956
 1819SOL    HW2 6278   5.809   0.076   5.920 -0.6561 -0.9320 -0.3568
 1820SOL     OW 6279   0.329   0.370   4.336  0.1913  0.0613  0.0525
 1820SOL    HW1 6280   0.344   0.397   4.431  0.3513  2.0827 -0.5003
 1820SOL    HW2 6281   0.231   0.352   4.322 -0.0959  1.2829  0.2901
 1821SOL     OW 6282   5.248   2.608   4.184 -0.0371 -0.1425  0.3950
 1821SOL    HW1 6283   5.173   2.659   4.226  0.3628  0.9331 -0.1411
 1821SOL    HW2 6284   5.252   2.516   4.222 -0.0059  0.6092  2.3080
 1822SOL     OW 6285   4.252   1.682   4.948 -0.6520  0.6812 -0.3700
 1822SOL    HW1 6286   4.300   1.760   4.989  0.3102  0.3901 -0.8896
 1822SOL    HW2 6287   4.164   1.669   4.993 -0.1593  1.1212  0.7636
 1823SOL     OW 6288   6.254   4.714   5.633 -0.4409 -0.0594  0.0299
 1823SOL    HW1 6289   6.178   4.685   5.692 -1.1409  0.8197 -0.4126
 1823SOL    HW2 6290   6.223   4.716   5.538  0.4969 -0.8539 -0.2958
 1824SOL     OW 6291   4.536   4.955   5.692  0.6152 -0.2762 -0.1278
 1824SOL    HW1 6292   4.527   5.020   5.618  0.9457 -0.0305  0.0453
 1824SOL    HW2 6293   4.631   4.926   5.700  0.7325  0.2792  0.6905
 1825SOL     OW 6294   1.953   1.053   2.383 -0.3885 -0.8219 -0.4200
 1825SOL    HW1 6295   1.903   0.977   2.424  1.0232 -1.8142 -0.4650
 1825SOL    HW2 6296   2.045   1.056   2.422 -0.6827  1.4013  0.2006
 1826SOL     OW 6297   4.941   3.633   5.980  0.0862 -0.0402 -0.2940
 1826SOL    HW1 6298   5.017   3.671   5.926 -0.7235 -0.0484 -1.4614
 1826SOL    HW2 6299   4.939   3.678   6.070  1.5122 -0.0863 -0.2159
 1827SOL     OW 6300   4.511   3.055   2.915 -0.2190 -0.6296  0.1692
 1827SOL    HW1 6301   4.601   3.094   2.931 -1.2574  1.7686  0.4742
 1827SOL    HW2 6302   4.503   2.969   2.966  1.5344 -0.3834  0.9262
 1828SOL     OW 6303   3.183   3.901   6.404 -0.1462 -0.0587  0.2364
 1828SOL    HW1 6304   3.257   3.968   6.410 -0.8565  0.7772 -0.2164
 1828SOL    HW2 6305   3.219   3.810   6.427  0.9698  0.3622  0.2054
 1829SOL     OW 6306   2.178   5.061   0.417  0.3704  0.4651 -0.2235
 1829SOL    HW1 6307   2.087   5.026   0.443  0.2544  0.9987  0.1196
 1829SOL    HW2 6308   2.247   5.016   0.473  0.4626 -0.8518 -1.3170
 1830SOL     OW 6309   3.412   6.906   0.225 -0.5390  0.1638 -0.6634
 1830SOL    HW1 6310   3.322   6.912   0.183 -1.0528 -0.7606  0.2768
 1830SOL    HW2 6311   3.437   6.810   0.240  0.2200  0.4273 -0.1102
 1831SOL     OW 6312   4.852   4.639   5.828  0.3768 -0.2553  0.0398
 1831SOL    HW1 6313   4.870   4.612   5.923  1.6971 -2.2163 -0.7193
 1831SOL    HW2 6314   4.776   4.586   5.792  0.0302  0.3184 -0.0713
 1832SOL     OW 6315   0.212   3.820   3.803 -0.2163 -0.0102 -0.2462
 1832SOL    HW1 6316   0.193   3.786   3.711  0.8039 -0.3738 -0.3399
 1832SOL    HW2 6317   0.134   3.871   3.837 -1.2571 -1.2662 -0.6610
 1833SOL     OW 6318   0.456   6.093   3.001  0.4686 -0.5712 -0.0898
 1833SOL    HW1 6319   0.552   6.084   2.975  0.6805 -1.2112  0.8753
 1833SOL    HW2 6320   0.405   6.012   2.970  0.5726 -0.9945  0.8207
 1834SOL     OW 6321   1.453   4.638   6.968  0.4768 -0.5154 -0.0727
 1834SOL    HW1 6322   1.419   4.544   6.966  3.1289 -1.5999  0.9895
 1834SOL    HW2 6323   1.482   4.661   7.061  0.6042  1.1186 -0.5145
 1835SOL     OW 6324   6.269   5.152   5.283 -0.1414 -0.1954  0.3429
 1835SOL    HW1 6325   6.180   5.197   5.272  0.2416  0.7695  0.9890
 1835SOL    HW2 6326   6.263   5.082   5.354 -0.3300  0.0299  0.5522
 1836SOL     OW 6327   4.579   4.503   1.650 -0.0765 -0.0595 -0.0875
 1836SOL    HW1 6328   4.592   4.455   1.563  1.0565  0.8753 -0.4575
 1836SOL    HW2 6329   4.501   4.464   1.698  0.5725 -2.0342 -0.5427
 1837SOL     OW 6330   4.071   6.194   2.327 -0.3902  0.0774 -0.0242
 1837SOL    HW1 6331   4.016   6.182   2.410 -1.4327  0.4658 -0.6309
 1837SOL    HW2 6332   4.029   6.142   2.252  0.1455  0.2980 -0.4781
 1838SOL     OW 6333   3.465   3.730   4.324  0.2573  0.3591  0.0830
 1838SOL    HW1 6334   3.558   3.693   4.325 -0.2891 -1.3002 -2.4954
 1838SOL    HW2 6335   3.469   3.828   4.302  1.4240  0.6434  1.4092
 1839SOL     OW 6336   2.411   6.007   4.299  0.2308 -0.4740 -0.1316
 1839SOL    HW1 6337   2.484   6.053   4.248 -0.2103 -0.4187 -0.7261
 1839SOL    HW2 6338   2.419   6.029   4.396 -1.0550  2.4106 -0.5811
 1840SOL     OW 6339   6.631   0.905   3.814 -0.3785 -0.0688  0.2999
 1840SOL    HW1 6340   6.556   0.915   3.748  1.7773  0.9409 -2.2133
 1840SOL    HW2 6341   6.681   0.991   3.821  2.4875 -1.5202 -0.7470
 1841SOL     OW 6342   2.062   5.594   6.690  0.0837  0.1438 -0.0594
 1841SOL    HW1 6343   2.158   5.583   6.714  0.1071  1.3233  0.4683
 1841SOL    HW2 6344   2.016   5.505   6.692  0.6912 -0.1699  1.7649
 1842SOL     OW 6345   0.187   3.326   1.377  0.3684 -0.4353 -0.5836
 1842SOL    HW1 6346   0.215   3.420   1.356 -1.8122  0.5156  0.4038
 1842SOL    HW2 6347   0.205   3.268   1.299 -0.8792  1.4476 -2.3959
 1843SOL     OW 6348   3.535   0.886   6.722  0.3762  0.4751 -0.0458
 1843SOL    HW1 6349   3.444   0.905   6.686  0.1954  0.6159  0.4853
 1843SOL    HW2 6350   3.529   0.818   6.794  0.7890 -0.1174 -0.5643
 1844SOL     OW 6351   1.703   4.169   4.275  0.4646 -0.0023 -0.7922
 1844SOL    HW1 6352   1.748   4.200   4.359 -1.4807  0.8375  0.0091
 1844SOL    HW2 6353   1.742   4.081   4.247 -0.3323 -1.5118  2.2870
 1845SOL     OW 6354   4.822   6.417   6.234  0.5960  0.1212 -0.4773
 1845SOL    HW1 6355   4.814   6.491   6.167 -0.9997  1.2410  0.8504
 1845SOL    HW2 6356   4.758   6.344   6.211 -0.0821  0.5860 -0.1124
 1846SOL     OW 6357   4.473   1.842   1.014  0.4727 -0.4987 -0.4381
 1846SOL    HW1 6358   4.543   1.897   0.967 -0.1709 -0.0299 -0.8680
 1846SOL    HW2 6359   4.416   1.796   0.945 -1.9120  1.9579 -0.2676
 1847SOL     OW 6360   2.124   3.256   3.107  0.1836  0.4585 -0.2038
 1847SOL    HW1 6361   2.040   3.202   3.116  0.8825 -0.4140  1.6441
 1847SOL    HW2 6362   2.180   3.218   3.033  0.3486 -0.9775  0.6032
 1848SOL     OW 6363   3.139   6.943   1.498  0.1687 -0.5789 -0.4915
 1848SOL    HW1 6364   3.151   6.895   1.585 -0.8759 -0.0817 -0.0604
 1848SOL    HW2 6365   3.085   6.886   1.437 -0.5177 -0.2408 -0.2113
 1849SOL     OW 6366   0.406   4.598   2.139  0.0429  0.4800  0.1436
 1849SOL    HW1 6367   0.485   4.637   2.091  0.2962  0.3121  0.4249
 1849SOL    HW2 6368   0.332   4.585   2.074  0.6282 -0.4342 -0.3706
 1850SOL     OW 6369   6.660   1.176   1.423  0.4396 -0.1897 -0.1438
 1850SOL    HW1 6370   6.713   1.132   1.495  0.1175 -0.7660 -0.2582
 1850SOL    HW2 6371   6.563   1.175   1.447  0.5972  2.3554  0.8824
 1851SOL     OW 6372   4.496   5.659   6.062 -0.3143  0.4513 -0.0426
 1851SOL    HW1 6373   4.503   5.621   5.970  0.6797  0.1834  0.1262
 1851SOL    HW2 6374   4.424   5.728   6.064 -0.4383  0.3714 -0.9885
 1852SOL     OW 6375   3.801   1.276   4.283  0.1939  0.5862 -0.4038
 1852SOL    HW1 6376   3.715   1.312   4.246 -0.0990 -0.1904 -0.5088
 1852SOL    HW2 6377   3.791   1.260   4.381 -0.2291 -0.7472 -0.6502
 1853SOL     OW 6378   2.498   3.020   6.596  0.5586  0.0435 -0.2264
 1853SOL    HW1 6379   2.455   2.947   6.649  3.1535 -0.4314  1.3956
 1853SOL    HW2 6380   2.580   2.984   6.552  0.0629  1.2013 -2.2246
 1854SOL     OW 6381   6.856   4.729   3.815  0.3559 -0.8664 -0.1186
 1854SOL    HW1 6382   6.799   4.647   3.805  0.0835 -0.9858  1.9704
 1854SOL    HW2 6383   6.800   4.804   3.850  0.9248 -0.2110 -0.6056
 1855SOL     OW 6384   6.709   5.472   6.170  0.0517  0.2813  0.2673
 1855SOL    HW1 6385   6.792   5.465   6.225  0.2824 -0.9600 -0.2108
 1855SOL    HW2 6386   6.700   5.391   6.112 -1.5618  0.3257  0.4051
 1856SOL     OW 6387   4.148   2.920   3.098  0.0008 -0.4433 -0.3241
 1856SOL    HW1 6388   4.185   2.828   3.112  0.0763 -0.1131  1.9884
 1856SOL    HW2 6389   4.189   2.983   3.165  0.3530  1.4360 -2.1885
 1857SOL     OW 6390   5.672   5.957   4.541  0.1065  0.3510 -0.0215
 1857SOL    HW1 6391   5.672   5.925   4.636  1.8786  1.6161  0.4322
 1857SOL    HW2 6392   5.727   5.896   4.485  0.4693  0.5463  0.1168
 1858SOL     OW 6393   6.484   6.861   4.865  0.1931 -0.5199 -0.9586
 1858SOL    HW1 6394   6.511   6.956   4.876 -0.2926 -0.2662 -1.7921
 1858SOL    HW2 6395   6.437   6.829   4.947  1.2404 -0.3591 -0.2878
 1859SOL     OW 6396   2.605   2.062   6.590 -0.1851  0.3652 -0.6683
 1859SOL    HW1 6397   2.611   2.092   6.685 -1.0747 -2.3427  0.3692
 1859SOL    HW2 6398   2.673   2.110   6.535 -0.1818  2.5962  1.1438
 1860SOL     OW 6399   6.678   3.332   2.210  0.2213  0.3044  0.3876
 1860SOL    HW1 6400   6.612   3.366   2.143  2.6432 -1.8521 -3.5092
 1860SOL    HW2 6401   6.647   3.243   2.245 -0.0051  0.3852  0.3925
 1861SOL     OW 6402   2.302   0.102   1.593  0.1083  0.4462 -0.3676
 1861SOL    HW1 6403   2.278   0.187   1.639  0.4221  0.4716 -0.2478
 1861SOL    HW2 6404   2.247   0.027   1.630 -1.3703  0.8709 -1.6080
 1862SOL     OW 6405   4.543   2.247   0.863 -0.0567  0.8795 -0.0666
 1862SOL    HW1 6406   4.536   2.235   0.962 -1.4728  0.4928 -0.1880
 1862SOL    HW2 6407   4.504   2.168   0.817  1.0985  0.8013 -0.9475
 1863SOL     OW 6408   2.955   3.335   1.175 -0.1835  0.0319 -0.1609
 1863SOL    HW1 6409   2.890   3.402   1.210 -0.4193  0.2400 -0.9799
 1863SOL    HW2 6410   3.048   3.362   1.200 -0.4092 -0.2840  1.0412
 1864SOL     OW 6411   1.202   0.715   0.617 -0.1658 -0.4982  0.0339
 1864SOL    HW1 6412   1.110   0.716   0.657 -1.1077  0.4437 -1.9922
 1864SOL    HW2 6413   1.206   0.649   0.543  1.6750 -2.5249  1.7973
 1865SOL     OW 6414   0.052   5.481   3.818  0.4863  0.0995 -0.0545
 1865SOL    HW1 6415   0.128   5.530   3.861 -0.6162  0.9060  1.0537
 1865SOL    HW2 6416  -0.022   5.470   3.885 -0.3771 -0.6002 -1.1251
 1866SOL     OW 6417   3.084   2.790   4.358 -0.0949  0.3304  0.7559
 1866SOL    HW1 6418   3.154   2.844   4.406  0.0821 -0.6921  1.6935
 1866SOL    HW2 6419   2.994   2.808   4.399 -0.0537  0.0215  0.9899
 1867SOL     OW 6420   3.693   1.985   5.209  0.5533 -0.2840 -0.3466
 1867SOL    HW1 6421   3.733   1.971   5.299  1.6784 -0.1954 -0.8206
 1867SOL    HW2 6422   3.638   2.069   5.209 -1.0879 -1.3078  0.7793
 1868SOL     OW 6423   3.033   5.995   6.353 -0.3737 -0.4721 -0.5579
 1868SOL    HW1 6424   2.979   5.960   6.430  0.3414 -1.8943 -0.6594
 1868SOL    HW2 6425   3.126   5.958   6.359  0.4237  1.4026 -0.7369
 1869SOL     OW 6426   0.324   2.496   6.818  0.1704  0.0745 -0.3278
 1869SOL    HW1 6427   0.269   2.577   6.799 -0.0392 -0.1171 -0.5468
 1869SOL    HW2 6428   0.375   2.470   6.736 -0.5470 -0.6117 -0.5767
 1870SOL     OW 6429   1.040   1.286   3.722  0.4729  0.2240 -0.3416
 1870SOL    HW1 6430   0.941   1.297   3.730  0.4313  1.0656 -1.6335
 1870SOL    HW2 6431   1.060   1.218   3.651  0.8051  0.4630 -0.4811
 1871SOL     OW 6432   3.317   4.025   4.818 -0.1682 -0.8254 -0.1598
 1871SOL    HW1 6433   3.407   3.991   4.791 -0.3339 -1.2563 -0.1893
 1871SOL    HW2 6434   3.327   4.094   4.890  0.1051 -1.8914  0.8422
 1872SOL     OW 6435   4.079   4.806   2.668  0.3161 -0.0189 -0.2869
 1872SOL    HW1 6436   4.114   4.883   2.720 -2.3315  2.4580 -1.8808
 1872SOL    HW2 6437   3.994   4.773   2.710  0.3760 -0.8027 -0.7356
 1873SOL     OW 6438   2.959   3.849   3.883 -0.0831  0.2606  0.1608
 1873SOL    HW1 6439   2.903   3.803   3.951  1.0411 -1.5692 -0.0997
 1873SOL    HW2 6440   2.925   3.943   3.870 -0.6911  0.4578  2.7344
 1874SOL     OW 6441   1.202   1.631   6.910  0.1044  0.1791 -0.1429
 1874SOL    HW1 6442   1.286   1.594   6.869 -0.2175 -0.3900 -0.2913
 1874SOL    HW2 6443   1.133   1.560   6.915  0.0297  0.3197  1.1127
 1875SOL     OW 6444   1.006   6.437   0.873 -0.5196  0.1741 -0.5879
 1875SOL    HW1 6445   0.969   6.518   0.828 -0.2610  1.6588  1.6907
 1875SOL    HW2 6446   1.104   6.431   0.856 -0.3102  1.0767  0.2264
 1876SOL     OW 6447   2.467   0.056   5.805 -0.0550  0.4975 -0.2395
 1876SOL    HW1 6448   2.517   0.031   5.722 -1.4121 -1.6739 -0.4456
 1876SOL    HW2 6449   2.532   0.075   5.879  1.1146  0.5632 -1.2626
 1877SOL     OW 6450   3.483   4.169   1.244  0.4880  0.0724 -0.3048
 1877SOL    HW1 6451   3.539   4.246   1.275  0.0542 -0.0234  0.7504
 1877SOL    HW2 6452   3.540   4.087   1.234  0.4218 -0.2868  1.7138
 1878SOL     OW 6453   1.985   2.740   1.865 -0.2332 -0.3222  0.8500
 1878SOL    HW1 6454   1.984   2.726   1.766 -1.4507 -1.0032  0.9367
 1878SOL    HW2 6455   1.897   2.778   1.894  0.3847  0.6124  1.5825
 1879SOL     OW 6456   6.382   5.679   1.769 -0.0362 -0.4138  0.0540
 1879SOL    HW1 6457   6.323   5.759   1.763  1.7972  1.1744  1.9943
 1879SOL    HW2 6458   6.354   5.622   1.847 -1.3355 -1.7555 -1.3162
 1880SOL     OW 6459   5.463   0.399   3.559 -0.5057  0.4032 -0.5614
 1880SOL    HW1 6460   5.474   0.313   3.509 -0.6590 -0.8941  1.5007
 1880SOL    HW2 6461   5.508   0.473   3.509  1.6208 -1.2856 -1.2917
 1881SOL     OW 6462   0.235   0.371   5.544  0.6458 -0.1231  0.2075
 1881SOL    HW1 6463   0.288   0.365   5.628  1.6981 -0.8793 -0.4932
 1881SOL    HW2 6464   0.211   0.280   5.512  2.5155 -0.0188 -1.6807
 1882SOL     OW 6465   4.197   4.363   1.990  0.1514  0.1270 -0.0711
 1882SOL    HW1 6466   4.159   4.407   2.071  1.1835  0.8818  0.0329
 1882SOL    HW2 6467   4.143   4.282   1.967 -0.8179  0.5320  0.7016
 1883SOL     OW 6468   1.969   1.697   5.475 -0.0290 -0.7136 -0.2269
 1883SOL    HW1 6469   1.875   1.732   5.465  0.1930  0.0096  0.1206
 1883SOL    HW2 6470   1.979   1.615   5.419 -0.2109  0.4834 -2.1317
 1884SOL     OW 6471   0.122   2.589   5.780  0.2961  0.5985 -0.8167
 1884SOL    HW1 6472   0.068   2.517   5.824  1.5374 -0.1680 -0.4895
 1884SOL    HW2 6473   0.160   2.650   5.850  2.2479 -0.6015 -0.7658
 1885SOL     OW 6474   5.918   5.769   2.539 -0.1387 -0.2455  0.2050
 1885SOL    HW1 6475   5.995   5.829   2.514 -0.8876  0.7365  0.2011
 1885SOL    HW2 6476   5.927   5.682   2.491 -0.3477  0.7576 -1.7530
 1886SOL     OW 6477   2.329   0.629   0.821 -0.1480  0.5892 -0.0457
 1886SOL    HW1 6478   2.287   0.656   0.907  0.0187  1.3304 -0.1863
 1886SOL    HW2 6479   2.427   0.615   0.834 -0.3639 -0.7801  0.2057
 1887SOL     OW 6480   6.442   1.825   5.216 -0.3183 -0.1608  0.0222
 1887SOL    HW1 6481   6.387   1.873   5.284 -1.1288 -0.5077 -0.3729
 1887SOL    HW2 6482   6.517   1.777   5.261 -0.3456  0.2885  0.5675
 1888SOL     OW 6483   4.789   4.639   4.899  0.0652 -0.6154 -0.3235
 1888SOL    HW1 6484   4.727   4.703   4.945  0.5520 -0.5173  0.2058
 1888SOL    HW2 6485   4.782   4.651   4.800 -0.2180 -0.0992 -0.2433
 1889SOL     OW 6486   4.150   3.869   3.247 -0.6602 -0.1412  0.1871
 1889SOL    HW1 6487   4.229   3.889   3.189 -0.2241 -0.4648  0.6530
 1889SOL    HW2 6488   4.148   3.772   3.268 -1.2737 -0.1593  0.0514
 1890SOL     OW 6489   2.716   2.918   1.756  0.6518  0.3673  0.4355
 1890SOL    HW1 6490   2.655   2.993   1.782  0.4287  1.4708 -2.7958
 1890SOL    HW2 6491   2.810   2.952   1.751  0.3603  0.9938 -2.5156
 1891SOL     OW 6492   5.930   5.924   4.401 -0.2115  0.2282  0.1792
 1891SOL    HW1 6493   5.945   5.833   4.440 -0.0019  0.0400 -0.3280
 1891SOL    HW2 6494   5.916   5.916   4.302  0.0229  0.7670  0.0977
 1892SOL     OW 6495   6.830   2.232   4.933  0.6388 -0.5381  0.3319
 1892SOL    HW1 6496   6.740   2.191   4.916 -0.4941  1.4577  1.0846
 1892SOL    HW2 6497   6.829   2.277   5.023  2.2003  0.0558  0.0760
 1893SOL     OW 6498   0.555   4.090   0.125  0.3547 -0.3480 -0.5152
 1893SOL    HW1 6499   0.582   4.106   0.029  0.0473  2.5855 -0.2217
 1893SOL    HW2 6500   0.637   4.089   0.182  0.4783 -1.2356 -0.6955
 1894SOL     OW 6501   6.295   6.221   4.731  0.1432  0.6556  0.0716
 1894SOL    HW1 6502   6.255   6.292   4.788 -0.3831  1.2104 -0.9603
 1894SOL    HW2 6503   6.350   6.263   4.659  1.3174 -0.0473  0.5112
 1895SOL     OW 6504   2.755   3.048   2.775  0.0103  0.0145  0.3395
 1895SOL    HW1 6505   2.851   3.037   2.799 -0.1058  0.0172  0.8149
 1895SOL    HW2 6506   2.699   2.988   2.832 -0.5533  2.2698  2.2848
 1896SOL     OW 6507   0.555   0.131   1.268 -0.1746  0.0089  0.0879
 1896SOL    HW1 6508   0.582   0.179   1.185 -0.4841 -1.5311 -0.9509
 1896SOL    HW2 6509   0.526   0.197   1.338 -0.7599  1.3103 -1.3357
 1897SOL     OW 6510   4.779   0.162   4.831 -0.0574 -0.3695  0.3108
 1897SOL    HW1 6511   4.840   0.130   4.759 -0.1600 -1.7000  0.7758
 1897SOL    HW2 6512   4.761   0.087   4.895 -1.8624  0.0987  0.4060
 1898SOL     OW 6513   2.145   0.542   4.415 -1.1223 -0.8812 -0.4596
 1898SOL    HW1 6514   2.161   0.476   4.342 -2.1755 -2.4151  0.6261
 1898SOL    HW2 6515   2.206   0.620   4.404  0.4072 -2.1870 -1.5912
 1899SOL     OW 6516   6.880   6.030   1.446  0.3631 -0.9339 -0.0320
 1899SOL    HW1 6517   6.903   5.968   1.522  0.6674 -1.0259 -0.1921
 1899SOL    HW2 6518   6.963   6.077   1.416  0.5057 -1.8740 -1.1589
 1900SOL     OW 6519   3.023   2.743   0.529  0.1243 -0.2659 -0.3903
 1900SOL    HW1 6520   3.022   2.643   0.530 -2.4645 -0.3137  0.8026
 1900SOL    HW2 6521   2.939   2.778   0.487  0.4838  1.3730  0.1218
 1901SOL     OW 6522   0.663   3.378   0.929 -0.3700 -0.1675 -0.7023
 1901SOL    HW1 6523   0.721   3.307   0.969  1.2640  0.4655 -1.8434
 1901SOL    HW2 6524   0.572   3.374   0.971 -1.2124 -4.5656 -2.2682
 1902SOL     OW 6525   5.160   2.270   5.819  0.4659  0.4613 -0.8034
 1902SOL    HW1 6526   5.173   2.239   5.725  2.4340 -0.0757 -0.4133
 1902SOL    HW2 6527   5.249   2.279   5.864 -0.4861 -1.5017  1.7269
 1903SOL     OW 6528   5.546   1.314   4.891  0.1149 -0.1002 -0.3269
 1903SOL    HW1 6529   5.551   1.366   4.976  0.6850 -0.5026 -0.1073
 1903SOL    HW2 6530   5.574   1.373   4.815 -0.0483  0.1573 -0.1874
 1904SOL     OW 6531   0.355   5.814   3.502 -0.0262 -0.6227  0.9855
 1904SOL    HW1 6532   0.358   5.815   3.602 -1.1892 -0.0773  1.0245
 1904SOL    HW2 6533   0.309   5.730   3.472 -0.6328 -0.2866  0.9506
 1905SOL     OW 6534   2.917   4.980   1.629 -0.3843 -0.1969  0.4420
 1905SOL    HW1 6535   2.993   4.921   1.657  1.6517  1.9341 -0.3130
 1905SOL    HW2 6536   2.897   5.045   1.703 -1.9181 -1.1125  0.8718
 1906SOL     OW 6537   5.451   4.245   5.718 -0.0587 -0.0587  0.4791
 1906SOL    HW1 6538   5.445   4.158   5.669  1.5067  0.2977 -0.4235
 1906SOL    HW2 6539   5.433   4.320   5.654  0.7487  0.3683  0.7410
 1907SOL     OW 6540   0.738   4.708   3.155  0.3935 -0.3278  0.0365
 1907SOL    HW1 6541   0.638   4.708   3.154  0.3652  0.3764 -1.5301
 1907SOL    HW2 6542   0.772   4.654   3.077  1.2960 -2.5755  1.8830
 1908SOL     OW 6543   6.840   1.176   0.546 -0.0164  0.1588 -0.2617
 1908SOL    HW1 6544   6.865   1.083   0.517 -3.1235 -0.0610 -2.6704
 1908SOL    HW2 6545   6.810   1.229   0.467  0.8428  3.0325  1.1884
 1909SOL     OW 6546   6.858   1.817   0.640 -0.3543 -0.0686 -0.2298
 1909SOL    HW1 6547   6.797   1.784   0.568  1.4415 -1.4360 -1.1932
 1909SOL    HW2 6548   6.950   1.830   0.602  0.0212  1.8313  1.1965
 1910SOL     OW 6549   3.519   2.373   1.585  0.0148  0.4365  0.8146
 1910SOL    HW1 6550   3.603   2.319   1.579 -0.6703 -0.9628  2.9057
 1910SOL    HW2 6551   3.533   2.450   1.647 -0.8991 -1.2528  3.2351
 1911SOL     OW 6552   6.804   0.581   3.274  0.8842 -0.4102 -0.9897
 1911SOL    HW1 6553   6.785   0.495   3.322 -1.7089  0.0671 -0.9891
 1911SOL    HW2 6554   6.820   0.654   3.341  1.8485 -0.6320 -0.9685
 1912SOL     OW 6555   4.124   5.419   4.603 -0.2642 -0.0854  0.2252
 1912SOL    HW1 6556   4.073   5.335   4.621  0.3907 -0.3743  0.7919
 1912SOL    HW2 6557   4.220   5.405   4.625 -0.1340  0.7958  0.2757
 1913SOL     OW 6558   5.997   1.926   4.914 -0.5544 -0.3635 -0.0739
 1913SOL    HW1 6559   5.994   1.863   4.837 -2.7791 -0.0577 -0.3036
 1913SOL    HW2 6560   5.974   2.018   4.883  1.0033  0.2550  0.5424
 1914SOL     OW 6561   2.247   3.148   6.305 -0.0282  0.3371 -0.3826
 1914SOL    HW1 6562   2.149   3.133   6.291  0.0649  0.2762 -1.0596
 1914SOL    HW2 6563   2.265   3.171   6.400 -0.4672 -1.5395  0.1841
 1915SOL     OW 6564   4.992   5.025   3.349  0.7381 -0.5627  0.1270
 1915SOL    HW1 6565   5.006   4.992   3.256 -1.4008  1.7038 -1.1151
 1915SOL    HW2 6566   5.064   5.091   3.372 -1.0407  2.1883 -1.7012
 1916SOL     OW 6567   6.461   6.741   3.461  0.2919 -0.5188 -0.3013
 1916SOL    HW1 6568   6.501   6.797   3.389  0.0398 -1.4701 -1.2135
 1916SOL    HW2 6569   6.525   6.732   3.537  0.3400  0.9708 -0.1301
 1917SOL     OW 6570   1.307   5.329   5.008  0.0866 -0.3754 -0.5494
 1917SOL    HW1 6571   1.406   5.316   4.995  0.0536 -1.0302 -0.1902
 1917SOL    HW2 6572   1.282   5.423   4.983  0.6703 -0.4204 -1.3591
 1918SOL     OW 6573   2.315   6.969   3.392 -0.4466 -0.1777 -0.5732
 1918SOL    HW1 6574   2.370   7.030   3.448 -1.2861 -0.1689  0.2877
 1918SOL    HW2 6575   2.219   6.973   3.422 -0.9325 -0.1542 -2.0480
 1919SOL     OW 6576   3.657   6.017   2.870  0.2317  0.0120  0.2942
 1919SOL    HW1 6577   3.616   6.018   2.779  1.0564 -0.8427 -0.1279
 1919SOL    HW2 6578   3.692   6.108   2.892  0.0254  0.2300 -0.2533
 1920SOL     OW 6579   6.629   1.611   5.985  0.0971  0.4215  0.2737
 1920SOL    HW1 6580   6.552   1.547   5.983  1.1623 -0.9980  1.9034
 1920SOL    HW2 6581   6.632   1.662   5.899 -0.5773 -1.9967 -1.2899
 1921SOL     OW 6582   0.671   2.252   0.920  0.1348  0.0870 -0.9176
 1921SOL    HW1 6583   0.757   2.253   0.972  0.7018  1.1041 -1.8415
 1921SOL    HW2 6584   0.594   2.240   0.984  0.9056 -0.2162 -0.0155
 1922SOL     OW 6585   2.290   4.750   3.884 -0.4606 -0.3943  0.5934
 1922SOL    HW1 6586   2.254   4.685   3.817 -0.4316 -1.7313  1.8410
 1922SOL    HW2 6587   2.318   4.834   3.836  2.5895 -2.4478 -1.6424
 1923SOL     OW 6588   5.540   5.173   3.654 -0.3668 -0.6886  0.4998
 1923SOL    HW1 6589   5.506   5.109   3.585 -0.8754  0.3129 -0.2005
 1923SOL    HW2 6590   5.584   5.250   3.608 -1.6500  0.5328  1.2241
 1924SOL     OW 6591   2.246   5.048   2.909  0.3038 -0.2564 -0.1953
 1924SOL    HW1 6592   2.282   5.111   2.978 -1.7327  1.4309 -0.5692
 1924SOL    HW2 6593   2.232   4.958   2.951 -0.9326  0.7154  1.6879
 1925SOL     OW 6594   1.492   5.057   4.797  0.7500  0.0269  0.3506
 1925SOL    HW1 6595   1.532   5.110   4.872  0.8631 -0.7468  0.8411
 1925SOL    HW2 6596   1.401   5.094   4.775  0.6037  0.0941  1.0485
 1926SOL     OW 6597   5.859   6.841   4.304  0.1385 -0.0380  0.2591
 1926SOL    HW1 6598   5.939   6.842   4.364  0.6571 -0.0941 -0.4152
 1926SOL    HW2 6599   5.792   6.909   4.336  1.7446  2.2135 -0.8709
 1927SOL     OW 6600   5.241   4.706   1.731  0.1911 -0.5718  0.3141
 1927SOL    HW1 6601   5.236   4.805   1.738 -1.1748 -0.6825  1.3314
 1927SOL    HW2 6602   5.212   4.664   1.817  0.8891 -1.8657 -0.0361
 1928SOL     OW 6603   1.803   5.360   2.362 -0.7456  0.2333 -0.0403
 1928SOL    HW1 6604   1.796   5.377   2.264 -2.7169  0.6172  0.1308
 1928SOL    HW2 6605   1.715   5.328   2.397  0.0278 -0.2947  1.5509
 1929SOL     OW 6606   6.741   2.138   6.669  0.3210  0.5841 -0.0453
 1929SOL    HW1 6607   6.698   2.200   6.733  1.9167  1.0527  0.6266
 1929SOL    HW2 6608   6.797   2.190   6.605  1.5227 -0.1175  0.4049
 1930SOL     OW 6609   5.990   2.118   3.132 -0.3922 -0.5602  0.2788
 1930SOL    HW1 6610   5.986   2.072   3.043 -3.2359  0.7763 -0.4154
 1930SOL    HW2 6611   5.920   2.078   3.192  1.5355 -1.4971  2.0299
 1931SOL     OW 6612   5.261   3.638   6.691  0.3493 -0.0770  1.1062
 1931SOL    HW1 6613   5.292   3.668   6.600 -0.3399 -1.4368  0.3903
 1931SOL    HW2 6614   5.332   3.659   6.758 -0.1097  3.2116  0.7480
 1932SOL     OW 6615   4.103   2.917   1.599 -0.4546 -0.1311 -0.0143
 1932SOL    HW1 6616   4.089   2.894   1.502  0.1727  0.5806 -0.2880
 1932SOL    HW2 6617   4.161   2.847   1.641 -0.7742 -0.4745 -0.1347
 1933SOL     OW 6618   4.978   1.241   6.424 -0.6913 -0.6895 -0.2310
 1933SOL    HW1 6619   5.071   1.250   6.459 -0.7986 -1.3755  0.2625
 1933SOL    HW2 6620   4.927   1.326   6.440 -0.8598 -1.1112  1.6556
 1934SOL     OW 6621   2.498   4.524   2.480 -0.2185 -0.6814 -0.3873
 1934SOL    HW1 6622   2.521   4.609   2.526  1.0635 -1.1683 -0.0988
 1934SOL    HW2 6623   2.571   4.500   2.416 -0.4664 -1.6747 -0.3044
 1935SOL     OW 6624   0.793   4.503   2.939  0.5321  0.1805 -0.6256
 1935SOL    HW1 6625   0.811   4.504   2.840 -4.1848 -0.2813 -1.7102
 1935SOL    HW2 6626   0.788   4.409   2.971  0.0240  0.2931 -0.3815
 1936SOL     OW 6627   0.479   3.693   5.518 -0.3710  0.0699 -0.0772
 1936SOL    HW1 6628   0.427   3.608   5.522  1.3433 -1.0898 -1.1571
 1936SOL    HW2 6629   0.504   3.722   5.610 -0.3230 -1.0251  0.2670
 1937SOL     OW 6630   2.923   4.972   0.357  0.0367  0.4088 -0.7837
 1937SOL    HW1 6631   2.832   4.973   0.315 -1.4883  0.4509  2.2706
 1937SOL    HW2 6632   2.954   5.066   0.371 -1.1684  0.5227  1.4768
 1938SOL     OW 6633   0.403   5.841   6.069  0.8004 -0.1612  0.1459
 1938SOL    HW1 6634   0.395   5.835   6.169 -1.0754  0.0123  0.0387
 1938SOL    HW2 6635   0.312   5.853   6.029  1.4708 -0.7693 -1.6335
 1939SOL     OW 6636   6.369   0.638   5.614 -0.0909 -0.5005  0.3746
 1939SOL    HW1 6637   6.347   0.721   5.666 -0.7214 -0.2014 -0.3588
 1939SOL    HW2 6638   6.431   0.661   5.539 -0.2259 -0.6983  0.2029
 1940SOL     OW 6639   6.795   1.224   3.256  0.3608 -0.1072 -0.2992
 1940SOL    HW1 6640   6.819   1.128   3.272 -0.3326 -0.3754 -0.7747
 1940SOL    HW2 6641   6.695   1.233   3.254  0.4206  0.5586 -0.6078
 1941SOL     OW 6642   4.203   6.183   5.676  0.4373  0.0894 -0.2143
 1941SOL    HW1 6643   4.294   6.196   5.636  0.3187  1.7194 -0.0081
 1941SOL    HW2 6644   4.188   6.250   5.749 -0.8274 -0.3387 -0.0447
 1942SOL     OW 6645   6.314   3.865   3.587 -0.5315  0.0523 -0.2974
 1942SOL    HW1 6646   6.323   3.793   3.518 -1.0165  0.0180 -0.3286
 1942SOL    HW2 6647   6.292   3.825   3.675 -3.4433  0.2716 -0.8161
 1943SOL     OW 6648   4.005   6.604   2.123 -0.0019  0.2921  0.3674
 1943SOL    HW1 6649   4.062   6.638   2.048 -0.2118 -0.9988 -0.4324
 1943SOL    HW2 6650   3.910   6.629   2.106  0.0112  0.4021  0.4511
 1944SOL     OW 6651   2.860   6.972   6.299  0.5116  0.3201  0.0416
 1944SOL    HW1 6652   2.819   6.948   6.211  0.0500 -0.5860  0.4826
 1944SOL    HW2 6653   2.893   6.888   6.344  0.5336  0.7337  0.8204
 1945SOL     OW 6654   2.448   1.817   2.176 -0.2404 -0.2315 -0.1581
 1945SOL    HW1 6655   2.534   1.868   2.179  1.7128 -3.2939 -0.1518
 1945SOL    HW2 6656   2.415   1.804   2.269 -0.2174  0.1193 -0.0952
 1946SOL     OW 6657   2.536   5.903   6.459  0.3961 -0.1537 -0.2172
 1946SOL    HW1 6658   2.559   5.976   6.524  0.9738 -0.0632 -0.5154
 1946SOL    HW2 6659   2.618   5.878   6.408 -0.4793  1.2055 -2.4080
 1947SOL     OW 6660   3.104   2.092   2.007 -0.6330  0.0705  0.1540
 1947SOL    HW1 6661   3.198   2.084   2.038 -0.1542 -1.1231 -1.4806
 1947SOL    HW2 6662   3.100   2.084   1.908 -2.6144 -1.6189  0.3159
 1948SOL     OW 6663   0.176   3.725   3.123 -0.0272  0.0880 -0.5239
 1948SOL    HW1 6664   0.240   3.682   3.187  0.2960  2.4892  0.8871
 1948SOL    HW2 6665   0.084   3.725   3.163 -0.7223 -2.1261 -1.9541
 1949SOL     OW 6666   3.418   3.462   4.530  0.1173  0.3515  0.1684
 1949SOL    HW1 6667   3.401   3.433   4.436 -2.6750  0.5516  0.5309
 1949SOL    HW2 6668   3.445   3.383   4.585 -1.4891 -0.4536 -0.1407
 1950SOL     OW 6669   1.223   1.583   5.531  0.6853 -0.0540 -0.3882
 1950SOL    HW1 6670   1.185   1.577   5.624  0.7526 -1.4107 -0.4240
 1950SOL    HW2 6671   1.317   1.617   5.536  0.2115  1.2702 -0.1063
 1951SOL     OW 6672   2.690   3.085   4.225 -0.1602 -0.1252  0.3165
 1951SOL    HW1 6673   2.696   3.088   4.125  1.0794 -0.9899  0.3494
 1951SOL    HW2 6674   2.678   3.178   4.261 -0.6780  0.1829 -0.6200
 1952SOL     OW 6675   5.468   2.079   6.515 -0.0768  0.3913  0.0242
 1952SOL    HW1 6676   5.530   2.094   6.592  0.4292  1.0781 -0.5104
 1952SOL    HW2 6677   5.380   2.044   6.549  1.0181 -1.8873  0.6856
 1953SOL     OW 6678   1.827   6.516   4.841 -0.3860 -0.2184  0.1322
 1953SOL    HW1 6679   1.768   6.508   4.760 -0.4869  0.9556  0.0750
 1953SOL    HW2 6680   1.904   6.453   4.832 -0.8543 -0.7237 -0.4656
 1954SOL     OW 6681   3.926   3.950   5.534  0.2048 -0.4460 -0.5365
 1954SOL    HW1 6682   3.984   4.031   5.531  1.1983 -1.1607 -2.1623
 1954SOL    HW2 6683   3.910   3.917   5.441  0.4673 -2.5331  0.1012
 1955SOL     OW 6684   6.604   3.891   1.400 -0.3220 -0.1928  0.2134
 1955SOL    HW1 6685   6.532   3.937   1.453 -0.2932  1.3475 -1.0072
 1955SOL    HW2 6686   6.691   3.899   1.449 -0.7470 -1.0153  1.1299
 1956SOL     OW 6687   0.562   2.166   6.140 -0.1809  0.1835 -0.5184
 1956SOL    HW1 6688   0.627   2.090   6.138 -1.4342 -0.9487 -0.1489
 1956SOL    HW2 6689   0.610   2.251   6.165  1.0252 -0.7060  0.3115
 1957SOL     OW 6690   0.605   6.015   3.920  1.0565 -0.5692 -0.4734
 1957SOL    HW1 6691   0.657   5.935   3.890  0.1724 -1.2915 -0.1063
 1957SOL    HW2 6692   0.528   6.030   3.859 -0.1653 -1.4449  0.8000
 1958SOL     OW 6693   0.854   3.869   5.505 -0.3743 -0.5445  0.1506
 1958SOL    HW1 6694   0.918   3.934   5.463 -1.5290  0.5816  0.0943
 1958SOL    HW2 6695   0.805   3.820   5.433 -1.8903  0.9226  0.1046
 1959SOL     OW 6696   2.321   3.461   5.459  0.6675 -0.6836  0.2185
 1959SOL    HW1 6697   2.274   3.463   5.548 -1.4167 -0.1539 -0.8420
 1959SOL    HW2 6698   2.323   3.368   5.424  0.4717 -0.7156  0.2877
 1960SOL     OW 6699   0.897   3.366   6.153 -0.6206 -0.3274 -0.3472
 1960SOL    HW1 6700   0.904   3.349   6.055  1.2949 -1.7493 -0.0105
 1960SOL    HW2 6701   0.935   3.457   6.174 -0.9379 -0.0608 -0.8987
 1961SOL     OW 6702   2.370   6.911   2.667  0.0117 -0.1153 -0.0258
 1961SOL    HW1 6703   2.355   7.009   2.679  1.9811  0.2856 -0.3357
 1961SOL    HW2 6704   2.388   6.892   2.570 -2.3919 -1.1458 -0.3322
 1962SOL     OW 6705   3.963   3.878   2.693 -0.8894  0.6533  0.0826
 1962SOL    HW1 6706   3.902   3.818   2.746 -1.3679 -0.2784 -1.4404
 1962SOL    HW2 6707   3.998   3.827   2.613  1.2139  1.4396  0.4373
 1963SOL     OW 6708   4.885   6.720   0.149 -0.4730 -0.5678 -0.4077
 1963SOL    HW1 6709   4.832   6.750   0.070  0.1217 -3.7869 -2.1930
 1963SOL    HW2 6710   4.978   6.754   0.142 -0.9010  0.7115 -0.0624
 1964SOL     OW 6711   4.838   2.867   1.330  0.1776  0.1608  0.7048
 1964SOL    HW1 6712   4.769   2.922   1.378  0.6206  0.8506  0.5575
 1964SOL    HW2 6713   4.798   2.779   1.304 -0.1145 -0.1785  2.2196
 1965SOL     OW 6714   3.577   2.678   6.997  0.0950  0.1117 -0.0205
 1965SOL    HW1 6715   3.545   2.603   7.054  0.4012  0.7038  0.9139
 1965SOL    HW2 6716   3.658   2.648   6.945 -1.2335 -0.9907 -1.5376
 1966SOL     OW 6717   6.630   4.509   3.273 -0.3986  0.3235 -0.1671
 1966SOL    HW1 6718   6.550   4.567   3.254 -0.8486  0.6203  2.2934
 1966SOL    HW2 6719   6.704   4.566   3.308  0.2289 -0.2146 -0.5941
 1967SOL     OW 6720   3.283   1.540   1.854 -0.5303 -0.7964 -0.5382
 1967SOL    HW1 6721   3.225   1.570   1.930 -0.6308 -0.3575 -0.7840
 1967SOL    HW2 6722   3.319   1.620   1.807 -0.2026 -1.0694 -0.7510
 1968SOL     OW 6723   2.716   1.313   1.765  0.1206 -0.7731 -0.3167
 1968SOL    HW1 6724   2.658   1.333   1.686 -0.8246 -1.5629  0.1598
 1968SOL    HW2 6725   2.724   1.395   1.822 -3.3033 -1.4411  1.3558
 1969SOL     OW 6726   1.306   6.175   5.627 -0.2348  0.2962  0.1595
 1969SOL    HW1 6727   1.376   6.137   5.567  0.8885  1.6221  0.5642
 1969SOL    HW2 6728   1.225   6.200   5.573 -0.0926 -0.4869 -0.4406
 1970SOL     OW 6729   6.873   0.784   3.062  0.0151 -0.0210 -0.3141
 1970SOL    HW1 6730   6.858   0.740   3.150 -2.0553 -0.0549 -0.6344
 1970SOL    HW2 6731   6.792   0.772   3.005  2.1476 -2.2409 -3.2185
 1971SOL     OW 6732   0.415   3.039   5.616  0.0373  0.1369 -0.1480
 1971SOL    HW1 6733   0.334   3.050   5.674  1.1683  0.1924  1.4859
 1971SOL    HW2 6734   0.445   3.128   5.583 -0.3316  0.1553 -0.4440
 1972SOL     OW 6735   0.882   2.520   0.473  0.4264  0.2747  0.8728
 1972SOL    HW1 6736   0.933   2.577   0.409 -0.4121  0.8729  0.7334
 1972SOL    HW2 6737   0.834   2.578   0.539  0.8143 -0.3143  1.6947
 1973SOL     OW 6738   5.470   2.321   4.575 -0.6971 -0.6551 -0.2079
 1973SOL    HW1 6739   5.378   2.285   4.590 -0.7276 -0.6103 -0.2811
 1973SOL    HW2 6740   5.495   2.310   4.479 -1.4276  1.2218 -0.6387
 1974SOL     OW 6741   6.379   6.013   1.989  0.4259  0.0881  0.2525
 1974SOL    HW1 6742   6.478   6.009   1.982  0.4282 -1.3018  0.6684
 1974SOL    HW2 6743   6.338   5.962   1.914  0.0177  0.7561  0.0157
 1975SOL     OW 6744   4.628   0.076   4.286  0.3648 -0.0398  0.0247
 1975SOL    HW1 6745   4.578   0.133   4.351 -0.5347 -0.8930  0.1024
 1975SOL    HW2 6746   4.651   0.130   4.204  1.0558  0.8942  0.8237
 1976SOL     OW 6747   4.265   3.031   5.115 -0.1922 -0.2773  0.5214
 1976SOL    HW1 6748   4.213   3.115   5.098  0.0745 -0.1652  0.2635
 1976SOL    HW2 6749   4.254   3.005   5.211  1.3374  1.1534  1.1298
 1977SOL     OW 6750   0.858   0.281   4.071 -0.4194  0.4107  0.3820
 1977SOL    HW1 6751   0.925   0.328   4.129  0.6156 -1.0665  0.4215
 1977SOL    HW2 6752   0.855   0.184   4.095 -2.1064  0.3208 -0.0813
 1978SOL     OW 6753   0.394   4.240   6.287 -0.1577  0.4582  0.5458
 1978SOL    HW1 6754   0.349   4.213   6.372 -0.2723  0.5838  0.5259
 1978SOL    HW2 6755   0.445   4.325   6.302  1.0474 -0.3033  0.8853
 1979SOL     OW 6756   7.019   2.006   4.884 -0.3228  0.8251  0.3145
 1979SOL    HW1 6757   6.951   2.076   4.907 -0.7854  0.3737  0.2529
 1979SOL    HW2 6758   7.007   1.927   4.944  0.4876  0.9317  0.6201
 1980SOL     OW 6759   2.701   6.599   0.013  0.6002  0.1404  0.1042
 1980SOL    HW1 6760   2.696   6.663   0.090  0.8409 -0.3870  0.5585
 1980SOL    HW2 6761   2.629   6.621  -0.053 -0.8496 -0.5724  1.4056
 1981SOL     OW 6762   4.457   6.028   4.261 -0.3571 -0.0398  0.1569
 1981SOL    HW1 6763   4.531   5.981   4.212  0.2261 -0.8068  1.6751
 1981SOL    HW2 6764   4.465   6.127   4.246  0.1566 -0.2037 -0.7751
 1982SOL     OW 6765   3.605   1.825   3.398 -0.4221 -0.4259  0.4319
 1982SOL    HW1 6766   3.626   1.857   3.490 -0.9654 -0.3517  0.5318
 1982SOL    HW2 6767   3.683   1.774   3.361  0.0078  0.0351  0.7094
 1983SOL     OW 6768   5.648   6.389   2.912 -0.4931  0.2802  0.1204
 1983SOL    HW1 6769   5.712   6.422   2.843  1.4195  0.4632  1.8963
 1983SOL    HW2 6770   5.654   6.446   2.994 -0.7784 -1.4491  1.4139
 1984SOL     OW 6771   3.682   2.498   6.293 -0.6534  0.9887 -0.2245
 1984SOL    HW1 6772   3.628   2.418   6.317 -1.3169  1.7766  0.9707
 1984SOL    HW2 6773   3.677   2.513   6.194  0.8062 -1.3595 -0.7526
 1985SOL     OW 6774   1.980   5.503   2.727 -0.1819 -0.2986  0.5146
 1985SOL    HW1 6775   2.002   5.440   2.652  2.2877  1.7798 -0.6647
 1985SOL    HW2 6776   1.890   5.545   2.709 -0.3887 -1.0880 -0.3743
 1986SOL     OW 6777   4.878   5.599   1.918  0.0851 -0.0429 -0.5040
 1986SOL    HW1 6778   4.778   5.596   1.905  0.1283 -2.7296 -1.2188
 1986SOL    HW2 6779   4.901   5.553   2.004  0.7105  0.7113 -0.2633
 1987SOL     OW 6780   4.878   4.564   6.076  0.3401 -0.6713 -0.5754
 1987SOL    HW1 6781   4.914   4.629   6.142 -0.5027  0.3672 -1.1084
 1987SOL    HW2 6782   4.840   4.484   6.123  0.4449 -0.3018  0.1310
 1988SOL     OW 6783   1.453   1.398   0.107 -0.4769  0.1395 -0.0356
 1988SOL    HW1 6784   1.416   1.410   0.199 -0.5226  2.5286 -0.3092
 1988SOL    HW2 6785   1.525   1.329   0.109 -1.1879 -0.6007  1.5718
 1989SOL     OW 6786   3.655   1.758   6.772  0.3769  0.5516  0.0450
 1989SOL    HW1 6787   3.677   1.806   6.687 -0.0107  0.0497 -0.3459
 1989SOL    HW2 6788   3.583   1.809   6.820  0.8001  0.9929  0.2214
 1990SOL     OW 6789   3.185   6.804   1.710  0.2887 -0.0893 -0.0500
 1990SOL    HW1 6790   3.265   6.772   1.761  0.4078  2.2563  1.3985
 1990SOL    HW2 6791   3.102   6.788   1.763  0.4548  2.7728  1.2755
 1991SOL     OW 6792   1.421   0.091   2.977  0.5636  0.3088  0.4989
 1991SOL    HW1 6793   1.367   0.139   2.908 -0.5395  0.2079  1.2569
 1991SOL    HW2 6794   1.362   0.028   3.027  1.8774 -1.4761 -0.1415
 1992SOL     OW 6795   0.327   6.510   6.172  0.1683 -0.2044  0.0873
 1992SOL    HW1 6796   0.315   6.469   6.082  2.0810 -1.6005  0.3970
 1992SOL    HW2 6797   0.245   6.494   6.227  0.6318 -3.4024  0.0617
 1993SOL     OW 6798   4.187   2.820   5.694  0.5172 -0.2537  0.3245
 1993SOL    HW1 6799   4.093   2.853   5.703  0.7564  0.2646  0.9494
 1993SOL    HW2 6800   4.250   2.897   5.702  1.0569 -0.7826  1.2440
 1994SOL     OW 6801   3.416   1.011   5.085 -0.4205  0.0133 -0.6735
 1994SOL    HW1 6802   3.414   0.914   5.059  0.4955  0.0619 -0.9897
 1994SOL    HW2 6803   3.469   1.022   5.169 -1.7706  0.0761  0.1760
 1995SOL     OW 6804   0.264   2.982   3.084  0.0504 -1.0067 -0.6387
 1995SOL    HW1 6805   0.334   3.045   3.117 -2.0673 -0.1835  2.8170
 1995SOL    HW2 6806   0.232   3.011   2.994 -0.5998  2.8080  0.6140
 1996SOL     OW 6807   0.499   0.015   5.388 -0.1114 -0.2613 -0.6601
 1996SOL    HW1 6808   0.462  -0.062   5.439 -1.4217  1.1571  0.5901
 1996SOL    HW2 6809   0.551   0.074   5.449 -0.3215  0.5829 -1.2640
 1997SOL     OW 6810   6.457   5.137   1.098  0.2551 -0.4969  0.4376
 1997SOL    HW1 6811   6.454   5.075   1.019  2.4550  0.4303 -0.4551
 1997SOL    HW2 6812   6.397   5.215   1.082 -0.0870 -0.8204  0.1295
 1998SOL     OW 6813   0.916   4.766   3.806 -0.0172 -0.2929 -0.4728
 1998SOL    HW1 6814   0.969   4.681   3.808  2.2445  0.9909 -1.3368
 1998SOL    HW2 6815   0.924   4.812   3.894 -0.0123 -0.2862 -0.4762
 1999SOL     OW 6816   4.956   0.371   5.735 -0.3614 -0.4208 -0.5212
 1999SOL    HW1 6817   4.984   0.297   5.674  0.0175 -0.8762  0.1921
 1999SOL    HW2 6818   4.989   0.458   5.699 -0.8456 -0.5797 -1.3870
 2000SOL     OW 6819   6.753   5.216   2.809 -0.0370 -0.5791  0.0573
 2000SOL    HW1 6820   6.674   5.159   2.790  0.4887 -1.0562 -0.7821
 2000SOL    HW2 6821   6.829   5.190   2.749  0.1445  1.1709 -0.5464
 2001SOL     OW 6822   5.833   5.391   1.703 -0.2249  0.1592  0.1392
 2001SOL    HW1 6823   5.798   5.336   1.779 -0.5446 -0.3758 -0.3937
 2001SOL    HW2 6824   5.880   5.332   1.637  1.0647  0.7504  0.4744
 2002SOL     OW 6825   1.874   0.011   4.888  0.2556  0.3573  0.2198
 2002SOL    HW1 6826   1.815  -0.068   4.874 -1.1750  1.1768  1.4228
 2002SOL    HW2 6827   1.823   0.083   4.935  1.0584  2.5538 -2.0043
 2003SOL     OW 6828   5.034   2.827   4.733 -1.0747  0.3094  0.6040
 2003SOL    HW1 6829   5.065   2.759   4.667  0.7554  0.9834  0.7200
 2003SOL    HW2 6830   4.985   2.900   4.686 -1.2713 -0.0649  0.2198
 2004SOL     OW 6831   5.192   4.095   5.531  0.3603 -0.7266  0.2480
 2004SOL    HW1 6832   5.184   4.190   5.561 -0.0943 -0.5844 -0.2842
 2004SOL    HW2 6833   5.275   4.084   5.478 -0.4476 -0.1836 -1.1901
 2005SOL     OW 6834   4.941   4.536   6.878  0.5598  0.1592 -0.4507
 2005SOL    HW1 6835   4.996   4.456   6.854  0.2811  0.1785 -1.1773
 2005SOL    HW2 6836   4.853   4.506   6.915  0.1196  0.1104 -1.4953
 2006SOL     OW 6837   2.677   1.137   1.141 -0.2962  0.2192  0.0371
 2006SOL    HW1 6838   2.737   1.139   1.221 -0.5613 -0.5206  0.2639
 2006SOL    HW2 6839   2.594   1.087   1.163  0.2819 -1.3125 -1.1476
 2007SOL     OW 6840   5.870   5.019   0.055 -0.3792 -0.0012  0.1640
 2007SOL    HW1 6841   5.834   5.104   0.093 -2.1370 -0.9362  0.7331
 2007SOL    HW2 6842   5.795   4.952   0.047  1.2033 -2.0116  1.2198
 2008SOL     OW 6843   2.156   6.664   2.683 -0.2882 -0.3223  0.6711
 2008SOL    HW1 6844   2.205   6.743   2.646  1.6094 -1.3171  0.9910
 2008SOL    HW2 6845   2.068   6.695   2.720 -0.7625  1.2201 -1.5446
 2009SOL     OW 6846   5.094   6.235   5.332  0.1883  0.1415 -0.3869
 2009SOL    HW1 6847   5.067   6.318   5.382  1.0552  0.2789 -0.1273
 2009SOL    HW2 6848   5.014   6.177   5.318  0.2734 -1.2458  3.6439
 2010SOL     OW 6849   5.089   3.855   6.886 -0.5606  0.5236  0.3715
 2010SOL    HW1 6850   5.025   3.791   6.845 -0.9793  0.7718  0.6262
 2010SOL    HW2 6851   5.051   3.888   6.973 -0.2685  0.9770  0.3290
 2011SOL     OW 6852   5.017   0.513   1.966 -0.2527 -0.0990  0.4711
 2011SOL    HW1 6853   4.977   0.565   2.041 -1.3106  0.0896 -0.2031
 2011SOL    HW2 6854   4.989   0.418   1.972 -2.5059  0.3993 -1.0966
 2012SOL     OW 6855   0.714   4.986   4.963  0.7443 -0.4306 -0.2312
 2012SOL    HW1 6856   0.712   4.970   4.865 -0.0504  1.3719 -0.5536
 2012SOL    HW2 6857   0.712   5.085   4.981  1.4656 -0.7105  1.5836
 2013SOL     OW 6858   0.876   3.018   3.157 -0.2973 -0.5758  0.5903
 2013SOL    HW1 6859   0.827   2.953   3.099 -0.6084  1.1290 -1.1807
 2013SOL    HW2 6860   0.850   3.111   3.132  2.5347  0.3575  0.7612
 2014SOL     OW 6861   2.221   1.876   1.704  0.0730  0.0579 -1.0081
 2014SOL    HW1 6862   2.215   1.800   1.768  4.4457 -1.6100 -2.2144
 2014SOL    HW2 6863   2.163   1.858   1.625 -1.7486 -0.0895  0.2779
 2015SOL     OW 6864   2.593   3.021   2.552 -0.5512  0.7879 -0.4152
 2015SOL    HW1 6865   2.617   3.081   2.476  0.6864  0.1703 -0.5552
 2015SOL    HW2 6866   2.659   3.035   2.627 -1.0305  0.5351  0.0592
 2016SOL     OW 6867   0.236   1.336   3.356  0.2568  0.4155  0.0338
 2016SOL    HW1 6868   0.149   1.337   3.308  0.4336 -0.4985 -0.3283
 2016SOL    HW2 6869   0.273   1.429   3.360 -1.1316  0.9536  0.9538
 2017SOL     OW 6870   6.468   3.852   5.614  0.1258 -0.0332 -0.1260
 2017SOL    HW1 6871   6.401   3.834   5.686  1.1401 -3.6456  0.1149
 2017SOL    HW2 6872   6.553   3.885   5.654  0.6404 -1.9062  0.4424
 2018SOL     OW 6873   4.578   1.129   0.643  0.2757 -0.1716  0.7504
 2018SOL    HW1 6874   4.513   1.200   0.615 -0.7131 -0.9221  1.1114
 2018SOL    HW2 6875   4.617   1.086   0.562  1.2696  1.1009  0.5147
 2019SOL     OW 6876   4.705   4.335   2.286  0.0156 -0.3510  0.4281
 2019SOL    HW1 6877   4.733   4.323   2.382  2.0641  2.1247  0.2537
 2019SOL    HW2 6878   4.778   4.302   2.226 -0.2323  0.2483 -0.2162
 2020SOL     OW 6879   4.454   6.133   4.861  0.8857 -0.1491  0.4822
 2020SOL    HW1 6880   4.528   6.168   4.804  0.4172 -0.9035 -0.6198
 2020SOL    HW2 6881   4.482   6.047   4.904  0.0282 -1.4762 -1.4804
 2021SOL     OW 6882   6.972   3.959   2.067 -0.6432 -0.0332 -0.0329
 2021SOL    HW1 6883   6.982   3.895   1.991 -1.1489  0.3283 -0.4174
 2021SOL    HW2 6884   7.062   3.991   2.096 -0.4158 -0.9729  0.2131
 2022SOL     OW 6885   4.358   0.857   3.620  0.8199 -0.2533 -0.6488
 2022SOL    HW1 6886   4.305   0.933   3.660  3.6851  0.5887  1.9757
 2022SOL    HW2 6887   4.303   0.774   3.622 -0.7542  0.7367  0.9785
 2023SOL     OW 6888   1.448   3.334   0.813  0.0743  0.0833 -0.4138
 2023SOL    HW1 6889   1.395   3.367   0.892 -0.8943 -0.2403 -0.9131
 2023SOL    HW2 6890   1.410   3.247   0.782  1.5982 -0.7075 -0.1017
 2024SOL     OW 6891   6.741   1.634   4.973 -0.2225 -0.1925  0.3379
 2024SOL    HW1 6892   6.698   1.724   4.965  0.2042  0.0150  0.3261
 2024SOL    HW2 6893   6.748   1.592   4.882  1.3930  0.6336  0.0199
 2025SOL     OW 6894   0.640   1.114   3.768  0.5136 -0.1932 -0.0227
 2025SOL    HW1 6895   0.571   1.064   3.716  0.6145  0.8310 -1.1953
 2025SOL    HW2 6896   0.631   1.093   3.865 -1.2073 -0.3746 -0.1896
 2026SOL     OW 6897   0.529   0.975   4.059  0.0839 -0.2663 -0.0580
 2026SOL    HW1 6898   0.599   0.909   4.083 -0.8725 -1.2773  0.0170
 2026SOL    HW2 6899   0.548   1.062   4.104  1.4133 -0.4482 -0.2390
 2027SOL     OW 6900   4.988   5.735   6.138  0.0446  0.4770 -0.2647
 2027SOL    HW1 6901   4.922   5.750   6.064 -0.0818  0.3487 -0.1775
 2027SOL    HW2 6902   5.080   5.728   6.099 -0.0603  0.0707 -0.4421
 2028SOL     OW 6903   2.188   4.297   1.746  0.2733  0.3105  0.4783
 2028SOL    HW1 6904   2.260   4.281   1.815 -0.6789 -2.6034  0.9309
 2028SOL    HW2 6905   2.105   4.327   1.792  0.5558  1.7110  0.1501
 2029SOL     OW 6906   0.594   6.899   1.421  0.1361  0.6562 -0.3771
 2029SOL    HW1 6907   0.536   6.821   1.445  0.9780  0.5929  1.6729
 2029SOL    HW2 6908   0.541   6.964   1.366 -1.1723 -0.4484 -0.4824
 2030SOL     OW 6909   3.136   2.053   0.764 -0.1044 -0.0412  0.0247
 2030SOL    HW1 6910   3.074   1.985   0.724  0.1554 -0.1510 -0.1938
 2030SOL    HW2 6911   3.180   2.014   0.845 -0.7836  0.2496  0.5399
 2031SOL     OW 6912   4.080   6.751   6.144 -0.4280 -0.0011  0.1268
 2031SOL    HW1 6913   4.099   6.664   6.100  0.5305  1.0528 -1.6659
 2031SOL    HW2 6914   4.161   6.780   6.196  0.5036  1.2819 -1.9254
 2032SOL     OW 6915   5.709   0.928   5.687  0.2377  0.4741  0.6839
 2032SOL    HW1 6916   5.636   0.995   5.675 -0.4162 -0.5344 -1.2570
 2032SOL    HW2 6917   5.687   0.869   5.765 -0.6196  0.6884  0.6124
 2033SOL     OW 6918   5.636   5.958   1.303  0.1158  0.0317 -0.2025
 2033SOL    HW1 6919   5.614   5.866   1.269  1.5544 -0.0827 -0.8594
 2033SOL    HW2 6920   5.643   5.955   1.403  0.1944 -0.5771 -0.2213
 2034SOL     OW 6921   4.706   5.624   0.184  0.0253 -0.4010 -0.9104
 2034SOL    HW1 6922   4.616   5.661   0.160  0.0334  0.3416  0.1151
 2034SOL    HW2 6923   4.761   5.613   0.102 -1.2812 -1.6492 -1.6535
 2035SOL     OW 6924   3.545   1.056   2.494  0.0420  0.6346  0.1513
 2035SOL    HW1 6925   3.589   1.041   2.405 -0.1052  0.5864  0.0853
 2035SOL    HW2 6926   3.446   1.048   2.484  0.0592 -0.0221  0.4488
 2036SOL     OW 6927   2.721   3.205   6.652  0.0304 -0.1040  0.6672
 2036SOL    HW1 6928   2.791   3.183   6.720 -1.0148 -1.0604  1.4695
 2036SOL    HW2 6929   2.639   3.151   6.670 -1.5024  2.0704  0.6998
 2037SOL     OW 6930   0.173   3.998   4.766 -0.0728 -0.1344  0.2128
 2037SOL    HW1 6931   0.140   3.954   4.850  1.0368  0.4949  1.0068
 2037SOL    HW2 6932   0.228   4.078   4.790  0.7923 -0.3100 -1.0969
 2038SOL     OW 6933   5.541   4.096   6.122 -0.0722  0.1648 -0.4866
 2038SOL    HW1 6934   5.569   4.146   6.040  1.5919  0.6003  0.2945
 2038SOL    HW2 6935   5.608   4.024   6.141 -0.8206 -0.3892  0.0972
 2039SOL     OW 6936   5.225   1.321   6.480 -0.4144  0.1479  0.5831
 2039SOL    HW1 6937   5.250   1.418   6.481 -1.1383  0.3622 -0.5853
 2039SOL    HW2 6938   5.282   1.273   6.414 -1.2857  0.1319 -0.1624
 2040SOL     OW 6939   4.245   0.473   1.397 -0.1322  0.5683  0.9410
 2040SOL    HW1 6940   4.173   0.415   1.360 -0.1951  2.0172 -1.4005
 2040SOL    HW2 6941   4.333   0.428   1.385 -0.2290  0.6735 -0.3921
 2041SOL     OW 6942   0.356   2.382   0.463  0.4673 -0.5122 -0.1168
 2041SOL    HW1 6943   0.441   2.352   0.508  0.0832 -1.3733  0.0446
 2041SOL    HW2 6944   0.339   2.324   0.383  0.2706 -0.0396 -0.4221
 2042SOL     OW 6945   4.583   2.783   6.641 -0.0218 -0.6895 -0.1287
 2042SOL    HW1 6946   4.488   2.760   6.664 -1.2400  0.0315 -3.8748
 2042SOL    HW2 6947   4.619   2.715   6.577  1.3377  0.1158 -0.2561
 2043SOL     OW 6948   4.610   0.935   0.268  0.0838 -0.1072 -0.2724
 2043SOL    HW1 6949   4.665   0.928   0.352 -0.3632  0.4613  0.0818
 2043SOL    HW2 6950   4.646   1.007   0.210  0.0774 -0.1424 -0.3209
 2044SOL     OW 6951   6.892   1.016   6.573 -0.3657  0.1375 -0.5176
 2044SOL    HW1 6952   6.877   0.982   6.480  1.0039  1.5784 -1.3099
 2044SOL    HW2 6953   6.942   0.947   6.626  0.8720  0.2049 -1.5689
 2045SOL     OW 6954   4.761   6.868   0.661 -0.0263 -0.0817  0.1856
 2045SOL    HW1 6955   4.844   6.863   0.606 -0.4236 -0.6228 -0.3660
 2045SOL    HW2 6956   4.688   6.910   0.608 -1.0597 -2.6204 -0.5297
 2046SOL     OW 6957   4.740   5.045   4.854 -0.5346  0.4954  0.1510
 2046SOL    HW1 6958   4.711   4.972   4.916 -0.2986  0.5207  0.2998
 2046SOL    HW2 6959   4.674   5.120   4.857 -1.9444 -0.5967 -1.6301
 2047SOL     OW 6960   5.888   3.468   4.589 -0.4302  0.3827 -0.1152
 2047SOL    HW1 6961   5.876   3.452   4.491 -0.3532  3.3727 -0.7034
 2047SOL    HW2 6962   5.799   3.487   4.631 -0.3883 -0.2789  0.2849
 2048SOL     OW 6963   4.574   5.048   3.893 -0.4951  0.2106  0.5016
 2048SOL    HW1 6964   4.540   4.980   3.827 -0.0482  0.6272 -0.1750
 2048SOL    HW2 6965   4.670   5.070   3.872 -0.5042  0.7362  0.9768
 2049SOL     OW 6966   1.106   7.005   3.557 -0.0125 -0.3549  0.8282
 2049SOL    HW1 6967   1.136   7.099   3.570 -1.8024  0.3251  0.2477
 2049SOL    HW2 6968   1.077   6.991   3.463 -0.0332 -1.4119  0.9776
 2050SOL     OW 6969   1.446   0.037   4.986 -0.3362  0.6839 -0.0380
 2050SOL    HW1 6970   1.532   0.072   5.023  1.3719 -1.9725 -1.1735
 2050SOL    HW2 6971   1.446   0.046   4.887 -0.0770 -1.7541 -0.3197
 2051SOL     OW 6972   3.399   4.154   0.077 -0.2939  0.0867 -0.3415
 2051SOL    HW1 6973   3.484   4.198   0.105 -0.2704  1.1760 -2.0160
 2051SOL    HW2 6974   3.419   4.080   0.012 -0.4450 -1.5525  1.3976
 2052SOL     OW 6975   6.737   3.855   0.319  0.5594 -0.1617 -0.4653
 2052SOL    HW1 6976   6.777   3.817   0.402  0.3333  3.0747  1.2714
 2052SOL    HW2 6977   6.808   3.898   0.264  0.3993 -0.3521 -0.8219
 2053SOL     OW 6978   3.874   3.605   6.896  0.3872  0.0570 -0.0538
 2053SOL    HW1 6979   3.956   3.631   6.846  0.6409  1.0140  0.8260
 2053SOL    HW2 6980   3.897   3.592   6.993 -0.6262  1.0731  0.3461
 2054SOL     OW 6981   4.941   0.527   2.380  0.1251  0.0616 -0.4040
 2054SOL    HW1 6982   4.847   0.555   2.362  0.4699  0.3710 -1.9403
 2054SOL    HW2 6983   4.942   0.432   2.412 -0.8318  0.6958  1.6955
 2055SOL     OW 6984   2.287   3.078   3.416  0.3224  0.2771 -0.3365
 2055SOL    HW1 6985   2.197   3.093   3.374 -1.0235 -1.1593  1.8115
 2055SOL    HW2 6986   2.292   3.127   3.503  2.4941  2.0098 -1.3147
 2056SOL     OW 6987   5.967   6.808   3.038 -0.4812  0.2422 -0.5445
 2056SOL    HW1 6988   5.948   6.849   3.127 -0.7280 -1.6504  0.3337
 2056SOL    HW2 6989   6.029   6.867   2.987  0.6491  0.8272  1.3792
 2057SOL     OW 6990   6.275   4.974   1.404 -0.3598 -0.1454 -0.0665
 2057SOL    HW1 6991   6.336   4.920   1.461  1.5469  1.9136 -0.0310
 2057SOL    HW2 6992   6.274   4.936   1.311  1.3718  0.0131 -0.1876
 2058SOL     OW 6993   4.856   3.532   5.625 -0.1014  0.2185  0.1109
 2058SOL    HW1 6994   4.801   3.593   5.682 -0.7100  0.4614 -0.7198
 2058SOL    HW2 6995   4.889   3.582   5.545 -0.9287 -0.6248 -0.7871
 2059SOL     OW 6996   1.561   2.797   2.366  0.9983  0.2532  0.6661
 2059SOL    HW1 6997   1.638   2.759   2.316 -0.4727 -1.0603 -0.6779
 2059SOL    HW2 6998   1.509   2.858   2.306  0.1716  0.0036  1.1178
 2060SOL     OW 6999   1.842   0.146   6.623 -0.0269 -0.7651  0.0818
 2060SOL    HW1 7000   1.859   0.047   6.622  0.8179 -0.6525  1.4507
 2060SOL    HW2 7001   1.925   0.194   6.597 -0.2996 -0.3912 -0.1067
 2061SOL     OW 7002   3.176   2.849   3.565 -0.6721 -0.6499  0.4350
 2061SOL    HW1 7003   3.115   2.783   3.520  0.1098  0.8510 -3.1755
 2061SOL    HW2 7004   3.121   2.917   3.615 -1.8371 -0.7619 -0.6405
 2062SOL     OW 7005   2.369   1.577   4.363 -0.2448 -0.2480  0.8513
 2062SOL    HW1 7006   2.345   1.500   4.305 -0.3557  0.4074  0.0067
 2062SOL    HW2 7007   2.350   1.663   4.314 -0.0742  0.3122  1.7463
 2063SOL     OW 7008   4.304   3.344   2.643  0.0663 -0.4372 -1.0368
 2063SOL    HW1 7009   4.324   3.248   2.662  0.1821 -0.0681  0.9632
 2063SOL    HW2 7010   4.209   3.354   2.614 -0.0290 -1.1405 -0.9763
 2064SOL     OW 7011   6.980   6.055   6.395 -0.0863  0.2381 -0.1177
 2064SOL    HW1 7012   6.905   5.995   6.369 -0.3029  1.4134 -2.4686
 2064SOL    HW2 7013   7.055   6.045   6.329  0.6314  1.1307  0.5678
 2065SOL     OW 7014   3.625   0.919   3.730 -0.0502 -0.8538  0.3433
 2065SOL    HW1 7015   3.585   0.948   3.643  2.6536  0.4360 -0.5827
 2065SOL    HW2 7016   3.608   0.990   3.799  0.3576 -0.4535  0.0431
 2066SOL     OW 7017   4.197   5.955   4.282  0.7284  0.2251  0.8487
 2066SOL    HW1 7018   4.295   5.961   4.298  0.8132  0.4610  0.2702
 2066SOL    HW2 7019   4.178   5.965   4.185  0.1039  0.4699  0.9871
 2067SOL     OW 7020   2.486   4.093   6.895 -0.2981  0.0960 -0.1126
 2067SOL    HW1 7021   2.521   4.177   6.854  0.9301 -0.1743  0.3315
 2067SOL    HW2 7022   2.544   4.016   6.869 -1.1415 -0.5431 -0.1388
 2068SOL     OW 7023   6.146   6.584   2.355  0.5182  0.6647 -0.1016
 2068SOL    HW1 7024   6.177   6.489   2.346 -0.0693  0.3360  1.2532
 2068SOL    HW2 7025   6.224   6.643   2.376  0.8964  0.5172 -1.0136
 2069SOL     OW 7026   4.000   3.054   4.335  0.3797  0.2130 -0.5354
 2069SOL    HW1 7027   3.931   3.040   4.265 -0.7613  0.8906  0.4126
 2069SOL    HW2 7028   4.051   2.969   4.349 -1.5574 -0.9203  0.0881
 2070SOL     OW 7029   5.555   0.636   5.266  0.1338  0.2602  0.1382
 2070SOL    HW1 7030   5.507   0.699   5.205 -1.8766 -0.7731  0.5335
 2070SOL    HW2 7031   5.618   0.579   5.213  1.8396  2.3792 -0.2459
 2071SOL     OW 7032   4.260   4.655   5.202  0.1243  0.5394  0.6482
 2071SOL    HW1 7033   4.219   4.564   5.201  3.4259 -1.1859 -2.6339
 2071SOL    HW2 7034   4.229   4.707   5.123 -0.8166  1.8810  1.8523
 2072SOL     OW 7035   3.902   4.372   0.162 -0.2098 -0.4939  0.9095
 2072SOL    HW1 7036   3.862   4.318   0.235 -0.7841 -1.1718  0.1243
 2072SOL    HW2 7037   3.833   4.434   0.124 -0.5984 -1.7458 -0.5298
 2073SOL     OW 7038   0.021   3.353   5.546 -0.1483 -0.2038 -0.1954
 2073SOL    HW1 7039   0.086   3.288   5.507  1.0147 -0.5329  2.1207
 2073SOL    HW2 7040  -0.066   3.348   5.496  1.3526 -0.2984 -2.8689
 2074SOL     OW 7041   3.980   6.350   6.533  0.2430 -0.5008 -0.0878
 2074SOL    HW1 7042   3.960   6.374   6.438  0.7197  1.8763  0.3231
 2074SOL    HW2 7043   4.065   6.298   6.537 -0.6860 -2.1691 -1.0603
 2075SOL     OW 7044   6.883   5.671   1.771  0.6976 -0.4577  0.1357
 2075SOL    HW1 7045   6.877   5.696   1.868  1.3516  1.5464 -0.2936
 2075SOL    HW2 7046   6.795   5.634   1.741  0.1450 -0.0964  1.2484
 2076SOL     OW 7047   4.531   3.332   3.496 -0.8619 -0.0386  0.1997
 2076SOL    HW1 7048   4.582   3.414   3.471  0.2450  0.0806  2.5670
 2076SOL    HW2 7049   4.435   3.343   3.469 -0.0104  0.2911 -3.1390
 2077SOL     OW 7050   3.151   1.219   4.396  0.1441 -0.3629  0.9076
 2077SOL    HW1 7051   3.159   1.155   4.320 -0.9424 -0.2850  0.7126
 2077SOL    HW2 7052   3.128   1.310   4.361  0.8710 -0.0327  1.2423
 2078SOL     OW 7053   2.616   3.657   3.772 -0.5654 -0.2871 -0.6379
 2078SOL    HW1 7054   2.694   3.648   3.710  0.5611 -1.9431  0.9422
 2078SOL    HW2 7055   2.571   3.745   3.757  2.3657  1.3060 -0.7133
 2079SOL     OW 7056   2.699   1.576   1.900  0.4018  0.1608  0.6241
 2079SOL    HW1 7057   2.739   1.663   1.871 -1.4413  1.1205  0.8095
 2079SOL    HW2 7058   2.600   1.585   1.904 -0.0494 -2.6111 -1.5369
 2080SOL     OW 7059   6.991   2.336   6.963  0.2299  0.1937 -0.2084
 2080SOL    HW1 7060   7.005   2.329   6.864 -0.4525 -0.8139 -0.2497
 2080SOL    HW2 7061   6.963   2.429   6.986  0.2100  0.3874 -0.9967
 2081SOL     OW 7062   1.046   4.027   4.591 -0.0279 -0.0918 -0.0623
 2081SOL    HW1 7063   1.122   3.967   4.569 -0.1996  0.4805 -2.5113
 2081SOL    HW2 7064   0.962   3.973   4.599 -0.0075 -0.3390 -1.2586
 2082SOL     OW 7065   0.920   5.915   0.066  0.5613 -0.1923 -0.3042
 2082SOL    HW1 7066   0.894   5.925   0.162  1.8077 -1.8660  0.2680
 2082SOL    HW2 7067   0.840   5.887   0.013 -0.3691  1.7496  0.0323
 2083SOL     OW 7068   6.182   4.144   6.127  0.1024  0.5217 -0.1240
 2083SOL    HW1 7069   6.173   4.113   6.221 -1.2397  1.2551  0.0149
 2083SOL    HW2 7070   6.254   4.214   6.121  0.7345 -0.0866  0.1906
 2084SOL     OW 7071   2.354   2.523   2.867 -0.1522  0.1098  0.0830
 2084SOL    HW1 7072   2.356   2.620   2.842  1.7377 -0.4072 -2.1026
 2084SOL    HW2 7073   2.301   2.512   2.951  0.3335  3.1402  0.9279
 2085SOL     OW 7074   5.116   2.391   5.036  0.0433  0.7640 -0.4638
 2085SOL    HW1 7075   5.143   2.487   5.020  1.8878  0.1521 -1.3216
 2085SOL    HW2 7076   5.161   2.333   4.969 -2.9852 -0.5055 -1.5407
 2086SOL     OW 7077   5.479   3.383   5.485 -0.4383  0.7354 -0.0674
 2086SOL    HW1 7078   5.465   3.380   5.584 -1.3964  2.4809 -0.1059
 2086SOL    HW2 7079   5.409   3.441   5.443 -1.1666 -1.3661 -2.0249
 2087SOL     OW 7080   0.783   0.681   5.924  0.1690  0.3248 -0.2713
 2087SOL    HW1 7081   0.690   0.646   5.911 -0.2277  0.6248  1.5354
 2087SOL    HW2 7082   0.832   0.622   5.989 -0.1930  2.4437  2.0586
 2088SOL     OW 7083   1.064   1.089   5.743  0.5307 -0.6402 -0.1111
 2088SOL    HW1 7084   1.106   1.153   5.808  0.3349 -0.3975 -0.2206
 2088SOL    HW2 7085   1.012   1.020   5.793  0.0508 -0.2284 -0.0178
 2089SOL     OW 7086   5.614   4.892   5.916 -0.0445 -0.1576  0.6287
 2089SOL    HW1 7087   5.518   4.877   5.942 -0.1421 -0.9048 -0.1216
 2089SOL    HW2 7088   5.673   4.843   5.980 -0.1391  0.5672  1.2871
 2090SOL     OW 7089   4.632   0.648   0.301  0.2194 -0.1746 -0.6901
 2090SOL    HW1 7090   4.638   0.628   0.398  1.5969  1.6105 -0.3718
 2090SOL    HW2 7091   4.624   0.746   0.287 -2.5142 -0.5130 -2.3231
 2091SOL     OW 7092   3.380   6.474   5.845  0.4071  0.2800  0.4154
 2091SOL    HW1 7093   3.432   6.527   5.778  0.7787  0.2751  0.6932
 2091SOL    HW2 7094   3.443   6.437   5.914 -0.1211  1.3051  1.4696
 2092SOL     OW 7095   4.774   1.894   1.217  0.2441  0.0281 -0.2504
 2092SOL    HW1 7096   4.747   1.913   1.311  0.9526 -0.3929  0.0512
 2092SOL    HW2 7097   4.775   1.795   1.202 -0.6204  0.1176 -0.9338
 2093SOL     OW 7098   2.509   2.085   6.130  0.7362 -0.1574 -0.2431
 2093SOL    HW1 7099   2.418   2.047   6.109  0.6393 -1.1799  1.7393
 2093SOL    HW2 7100   2.546   2.131   6.050 -0.8433 -1.1364 -1.5891
 2094SOL     OW 7101   6.581   6.679   4.429 -0.0349  0.0712 -0.2797
 2094SOL    HW1 7102   6.626   6.768   4.440 -1.6898  1.0505 -1.1193
 2094SOL    HW2 7103   6.604   6.641   4.339  0.8544 -0.4640  0.1699
 2095SOL     OW 7104   4.374   5.727   1.892  0.1836  0.1907  0.0193
 2095SOL    HW1 7105   4.304   5.656   1.883  0.6728 -0.2888 -0.0072
 2095SOL    HW2 7106   4.351   5.787   1.969  0.6207 -0.9897  1.1027
 2096SOL     OW 7107   4.703   6.756   2.951  0.3295 -0.9403  0.4499
 2096SOL    HW1 7108   4.610   6.762   2.987  0.2305  1.8243 -0.0988
 2096SOL    HW2 7109   4.709   6.805   2.864  2.2920 -1.1812  0.3925
 2097SOL     OW 7110   3.101   0.098   3.406 -0.3183 -0.3181 -0.3029
 2097SOL    HW1 7111   3.165   0.027   3.377  2.8896  1.7364  1.2206
 2097SOL    HW2 7112   3.126   0.185   3.362 -0.4564  1.0613  2.1860
 2098SOL     OW 7113   0.453   5.316   4.568 -0.8767 -0.0682  0.2644
 2098SOL    HW1 7114   0.366   5.266   4.571 -0.0800 -1.4735  1.1435
 2098SOL    HW2 7115   0.517   5.274   4.633 -0.1315  2.0528  0.9815
 2099SOL     OW 7116   0.226   3.032   2.806  0.3861 -0.9468  0.4415
 2099SOL    HW1 7117   0.216   3.129   2.830 -1.0878 -0.7511 -0.7643
 2099SOL    HW2 7118   0.227   3.023   2.706 -1.4994 -2.3067  0.4971
 2100SOL     OW 7119   6.195   4.157   6.411  0.0035  0.1334  0.7208
 2100SOL    HW1 7120   6.196   4.247   6.368 -2.1134  0.3339  1.0074
 2100SOL    HW2 7121   6.200   4.167   6.510 -0.5037 -0.0765  0.7664
 2101SOL     OW 7122   2.385   0.250   3.461  0.6637 -0.0623  0.2437
 2101SOL    HW1 7123   2.377   0.338   3.507  0.4803  0.5855 -0.9715
 2101SOL    HW2 7124   2.430   0.184   3.521  1.9422  1.1987  0.7168
 2102SOL     OW 7125   0.467   4.625   3.960 -0.0279  0.0169 -0.1057
 2102SOL    HW1 7126   0.418   4.568   3.894  1.6566 -0.5164 -0.9654
 2102SOL    HW2 7127   0.423   4.714   3.967 -1.4538 -0.6350 -0.3648
 2103SOL     OW 7128   3.947   5.096   1.248  0.3055 -0.3025  0.1055
 2103SOL    HW1 7129   3.855   5.135   1.239  0.3936 -0.2638 -0.7736
 2103SOL    HW2 7130   4.015   5.166   1.229  0.4916 -0.5915 -0.3192
 2104SOL     OW 7131   0.577   5.683   0.910  0.3571 -0.1377  0.2233
 2104SOL    HW1 7132   0.568   5.655   1.006 -0.9435  0.3156  0.2411
 2104SOL    HW2 7133   0.644   5.624   0.865 -1.3916 -2.5722  0.5655
 2105SOL     OW 7134   0.474   3.711   0.744  0.1171  0.1449 -0.2167
 2105SOL    HW1 7135   0.555   3.742   0.794  1.4193 -0.1718 -2.0121
 2105SOL    HW2 7136   0.437   3.629   0.788  1.9986 -0.8880 -0.4820
 2106SOL     OW 7137   0.133   4.604   3.912 -0.5463  0.5928 -0.5250
 2106SOL    HW1 7138   0.036   4.620   3.926 -0.9309 -1.9443 -0.0116
 2106SOL    HW2 7139   0.161   4.522   3.962  2.1151  1.8904  0.2758
 2107SOL     OW 7140   6.799   2.022   5.834 -0.6322  0.0864  0.5280
 2107SOL    HW1 7141   6.787   1.924   5.813  0.7924 -0.4847  2.1767
 2107SOL    HW2 7142   6.894   2.047   5.818 -0.4679  0.6430  2.1888
 2108SOL     OW 7143   2.303   3.753   0.956 -0.7517  0.1888  0.7022
 2108SOL    HW1 7144   2.236   3.823   0.979 -0.8576  0.7108 -1.0815
 2108SOL    HW2 7145   2.316   3.749   0.857  3.7396  1.9134  0.9929
 2109SOL     OW 7146   3.127   3.777   0.480 -0.3036  0.0879 -0.0130
 2109SOL    HW1 7147   3.059   3.710   0.511 -1.3179  1.9222  1.9811
 2109SOL    HW2 7148   3.110   3.798   0.383 -0.3179 -2.0398 -0.5193
 2110SOL     OW 7149   1.337   5.033   0.398 -0.0275  0.2513  0.4510
 2110SOL    HW1 7150   1.305   5.102   0.333  0.4110 -1.1169 -1.2737
 2110SOL    HW2 7151   1.265   4.966   0.414  0.2245  0.0093  0.5836
 2111SOL     OW 7152   4.171   5.746   6.846 -0.5051 -0.1010 -0.3667
 2111SOL    HW1 7153   4.228   5.743   6.764 -1.9413  0.4264 -1.4159
 2111SOL    HW2 7154   4.153   5.841   6.871 -0.0634 -0.2562  0.5845
 2112SOL     OW 7155   2.912   2.222   0.718  0.2990 -0.0707 -0.1681
 2112SOL    HW1 7156   2.923   2.319   0.743  1.3338 -0.5115  1.2069
 2112SOL    HW2 7157   3.002   2.178   0.720 -0.4052 -1.5349  1.2616
 2113SOL     OW 7158   6.554   4.043   1.094  0.0965 -0.3895  0.1375
 2113SOL    HW1 7159   6.647   4.038   1.130 -0.0236  2.0280  0.9615
 2113SOL    HW2 7160   6.548   4.117   1.027 -1.0682 -1.0213 -0.4741
 2114SOL     OW 7161   0.664   2.927   0.458 -0.4856  0.6726 -0.0327
 2114SOL    HW1 7162   0.744   2.978   0.489 -1.1904  1.4986  0.5167
 2114SOL    HW2 7163   0.625   2.877   0.535 -0.7375  0.6106 -0.1994
 2115SOL     OW 7164   5.914   0.484   3.467  0.2752 -0.2532 -0.4423
 2115SOL    HW1 7165   5.952   0.391   3.473 -0.3938 -0.4878  0.2691
 2115SOL    HW2 7166   5.985   0.550   3.491  0.6748 -0.5886 -0.6644
 2116SOL     OW 7167   1.675   0.082   2.794  0.0131 -0.2400 -0.6079
 2116SOL    HW1 7168   1.614   0.088   2.873  1.6426  1.9972  0.5718
 2116SOL    HW2 7169   1.767   0.056   2.825  0.8213  1.2581 -1.6258
 2117SOL     OW 7170   5.181   4.485   4.291  0.6308  0.9555  0.4264
 2117SOL    HW1 7171   5.208   4.580   4.271  2.2784  0.4991  0.2832
 2117SOL    HW2 7172   5.263   4.430   4.306 -0.2851 -0.5282  0.2159
 2118SOL     OW 7173   1.929   2.901   0.404  0.0315 -0.2261 -0.5688
 2118SOL    HW1 7174   1.859   2.942   0.345 -0.0096 -1.4835 -1.4381
 2118SOL    HW2 7175   2.009   2.960   0.406 -0.7984  0.9057 -0.1018
 2119SOL     OW 7176   0.397   5.595   2.940 -0.5890 -0.5343 -0.0711
 2119SOL    HW1 7177   0.355   5.534   3.007 -1.0315  1.8371  1.9586
 2119SOL    HW2 7178   0.496   5.586   2.944 -0.5811 -0.1679  1.2518
 2120SOL     OW 7179   3.312   2.922   1.170 -0.1116  0.0730 -0.3308
 2120SOL    HW1 7180   3.216   2.944   1.188  0.2446  1.1571  0.4177
 2120SOL    HW2 7181   3.337   2.954   1.079 -1.1427 -2.7008 -1.7055
 2121SOL     OW 7182   6.156   5.686   0.150 -0.0360 -0.0190 -0.1435
 2121SOL    HW1 7183   6.077   5.729   0.193 -0.5504 -0.6058 -0.4710
 2121SOL    HW2 7184   6.136   5.589   0.133  0.7012 -0.1438 -0.3596
 2122SOL     OW 7185   3.821   6.679   1.164 -0.0128 -0.2298 -0.0118
 2122SOL    HW1 7186   3.852   6.631   1.246 -1.5636  0.1510  0.8252
 2122SOL    HW2 7187   3.721   6.683   1.163  0.0348  1.3376 -1.0101
 2123SOL     OW 7188   6.247   2.528   1.897  0.7147  0.2532 -0.2580
 2123SOL    HW1 7189   6.274   2.522   1.993  1.1892 -2.5141 -0.4737
 2123SOL    HW2 7190   6.148   2.519   1.889  0.6833  0.3847 -0.0133
 2124SOL     OW 7191   1.648   0.953   6.804 -0.3615 -0.2592  0.3068
 2124SOL    HW1 7192   1.610   0.928   6.893  0.5875 -2.2269  0.2139
 2124SOL    HW2 7193   1.737   0.998   6.817 -1.1131  1.2560  0.3926
 2125SOL     OW 7194   0.042   0.781   3.910 -0.4163 -0.1784 -0.2944
 2125SOL    HW1 7195   0.022   0.825   3.822 -2.0287  0.6080  0.4268
 2125SOL    HW2 7196   0.141   0.775   3.922 -0.1527  1.5216 -1.2867
 2126SOL     OW 7197   5.922   4.129   5.407  0.5027 -0.0355  0.6915
 2126SOL    HW1 7198   5.949   4.034   5.424 -1.6045 -0.9532 -0.7082
 2126SOL    HW2 7199   5.823   4.134   5.396  0.5129  2.4228  1.0978
 2127SOL     OW 7200   1.271   4.356   5.412 -0.2353  0.0895  0.5191
 2127SOL    HW1 7201   1.311   4.286   5.471 -0.6289 -0.5878 -0.0090
 2127SOL    HW2 7202   1.344   4.395   5.355 -0.3852 -1.6608 -0.9683
 2128SOL     OW 7203   3.198   5.433   6.504 -0.1310 -0.2321 -0.0830
 2128SOL    HW1 7204   3.225   5.379   6.424 -1.0129  0.5843 -0.9588
 2128SOL    HW2 7205   3.122   5.389   6.550 -0.6541  0.0977 -0.6205
 2129SOL     OW 7206   1.808   4.212   5.962 -0.1457 -0.1453  0.4040
 2129SOL    HW1 7207   1.791   4.244   6.056 -1.0065 -2.2767  1.0509
 2129SOL    HW2 7208   1.736   4.147   5.936  1.2410 -1.2278 -0.9294
 2130SOL     OW 7209   4.090   0.884   0.339 -0.5732 -0.2502 -0.0255
 2130SOL    HW1 7210   4.165   0.950   0.333 -0.9072  0.3528  1.9088
 2130SOL    HW2 7211   4.114   0.812   0.403 -1.1414 -0.7576 -0.3738
 2131SOL     OW 7212   6.511   5.501   2.723 -0.3437 -0.2491  0.0896
 2131SOL    HW1 7213   6.465   5.589   2.725 -0.1495 -0.1632  0.8697
 2131SOL    HW2 7214   6.606   5.511   2.753  0.3645 -0.3310 -1.9788
 2132SOL     OW 7215   3.348   0.981   6.386 -0.0654  0.4339 -0.0593
 2132SOL    HW1 7216   3.294   0.965   6.469 -2.7009  3.0908 -1.1114
 2132SOL    HW2 7217   3.437   1.019   6.412 -0.4611  0.3649  1.5547
 2133SOL     OW 7218   0.058   1.522   4.794 -0.7579  0.1595  0.0434
 2133SOL    HW1 7219  -0.008   1.528   4.720 -0.0936 -1.7307 -0.7599
 2133SOL    HW2 7220   0.010   1.515   4.881 -1.6381 -1.1109 -0.5143
 2134SOL     OW 7221   5.148   3.676   3.195  0.6028  0.3034  0.0068
 2134SOL    HW1 7222   5.086   3.599   3.207 -0.4884  0.9185 -1.5137
 2134SOL    HW2 7223   5.237   3.653   3.235  0.0026 -1.3353  0.4759
 2135SOL     OW 7224   1.117   3.616   0.481  0.1819  0.6344 -0.4207
 2135SOL    HW1 7225   1.059   3.697   0.471 -0.3366  0.1412 -1.4770
 2135SOL    HW2 7226   1.061   3.534   0.470  1.0056  0.1417 -0.9777
 2136SOL     OW 7227   5.662   6.754   2.461 -0.0099  0.0361 -0.1445
 2136SOL    HW1 7228   5.653   6.807   2.546 -0.2857 -0.1793 -0.0373
 2136SOL    HW2 7229   5.715   6.807   2.394 -0.2831  0.4464 -0.0396
 2137SOL     OW 7230   5.578   2.395   6.777  0.6022 -0.2343  0.0553
 2137SOL    HW1 7231   5.479   2.389   6.760  0.3299  1.8478  0.6599
 2137SOL    HW2 7232   5.627   2.393   6.690 -0.0458 -0.3962 -0.3098
 2138SOL     OW 7233   5.352   3.233   1.484 -0.2224 -0.7371 -0.2917
 2138SOL    HW1 7234   5.376   3.233   1.581  1.7850 -0.4512 -0.7492
 2138SOL    HW2 7235   5.256   3.207   1.473 -0.3388 -1.2751  1.7216
 2139SOL     OW 7236   3.752   1.001   4.116  0.4595 -0.1611 -0.7648
 2139SOL    HW1 7237   3.758   1.019   4.018 -3.3097  0.3969 -1.0440
 2139SOL    HW2 7238   3.794   1.076   4.166  1.0219  0.3414 -1.9526
 2140SOL     OW 7239   6.359   0.258   1.368 -0.5189 -0.1493 -0.2394
 2140SOL    HW1 7240   6.385   0.174   1.321 -1.0173  0.2320 -1.2378
 2140SOL    HW2 7241   6.436   0.293   1.420 -0.7406 -2.0117  1.4317
 2141SOL     OW 7242   2.975   1.796   6.467 -0.5292  0.1613 -0.4390
 2141SOL    HW1 7243   2.941   1.728   6.532 -2.2387 -0.1741 -1.5730
 2141SOL    HW2 7244   3.058   1.839   6.502 -0.6965 -0.8863  1.3511
 2142SOL     OW 7245   4.969   0.720   6.783  0.3833  0.7008  0.1905
 2142SOL    HW1 7246   5.069   0.716   6.783  0.3614 -0.1609  0.0977
 2142SOL    HW2 7247   4.934   0.673   6.702 -0.1369 -1.4431  1.5530
 2143SOL     OW 7248   5.775   4.275   4.595 -0.1972  0.2916  0.2598
 2143SOL    HW1 7249   5.705   4.341   4.622 -1.4622 -1.2225  0.7976
 2143SOL    HW2 7250   5.828   4.247   4.675  0.0931  0.3819  0.1023
 2144SOL     OW 7251   0.789   6.278   3.923 -0.2666 -0.0173  0.6204
 2144SOL    HW1 7252   0.847   6.317   3.852 -2.1823  1.4528 -0.2258
 2144SOL    HW2 7253   0.745   6.195   3.887  0.1949 -0.3309  0.7660
 2145SOL     OW 7254   5.008   6.658   5.445  0.5027 -0.1252  0.0641
 2145SOL    HW1 7255   4.992   6.725   5.518  1.1351  0.5015 -0.3648
 2145SOL    HW2 7256   5.063   6.582   5.482  0.0758 -0.2473  0.4635
 2146SOL     OW 7257   6.259   0.888   4.554 -0.4179 -0.1601 -0.6076
 2146SOL    HW1 7258   6.201   0.967   4.571 -0.3616 -0.3642  0.5523
 2146SOL    HW2 7259   6.321   0.908   4.478 -1.3886  0.3707 -1.2843
 2147SOL     OW 7260   4.728   0.497   5.483  0.1284  0.5712  0.1180
 2147SOL    HW1 7261   4.685   0.443   5.555  0.3395  0.1533 -0.0592
 2147SOL    HW2 7262   4.778   0.436   5.422 -0.9275  0.8004 -1.0038
 2148SOL     OW 7263   6.117   6.771   1.558 -0.1437 -0.7581  0.0198
 2148SOL    HW1 7264   6.127   6.775   1.459 -0.5508  0.1044  0.0010
 2148SOL    HW2 7265   6.098   6.863   1.593 -1.7120 -1.3053  0.7116
 2149SOL     OW 7266   6.481   5.796   6.862  0.8030 -0.3516 -0.0098
 2149SOL    HW1 7267   6.494   5.880   6.915 -3.1302  0.2533  0.2445
 2149SOL    HW2 7268   6.530   5.803   6.776  1.7174  1.5533  0.6058
 2150SOL     OW 7269   5.140   4.418   4.771 -0.2423 -0.0315 -0.0653
 2150SOL    HW1 7270   5.121   4.503   4.722 -1.6268 -0.2153  0.0755
 2150SOL    HW2 7271   5.179   4.351   4.708  1.4543  0.9001 -0.0338
 2151SOL     OW 7272   6.599   2.372   0.187  0.9032  0.0514 -0.3799
 2151SOL    HW1 7273   6.670   2.310   0.221  0.8222 -0.7894 -1.7016
 2151SOL    HW2 7274   6.514   2.354   0.236  2.1018  2.8819  3.1976
 2152SOL     OW 7275   5.521   6.489   0.275 -0.4302 -0.2290  0.2066
 2152SOL    HW1 7276   5.510   6.589   0.272 -2.2470 -0.3387  1.3912
 2152SOL    HW2 7277   5.536   6.461   0.370 -0.5481 -1.1339 -0.0357
 2153SOL     OW 7278   4.647   5.561   6.317  0.4195  0.0868 -0.1153
 2153SOL    HW1 7279   4.629   5.595   6.225  2.0573 -0.2786 -0.6097
 2153SOL    HW2 7280   4.616   5.467   6.325 -0.1799  0.2796 -0.1264
 2154SOL     OW 7281   5.363   1.470   4.237  0.0135 -0.4623  0.2903
 2154SOL    HW1 7282   5.308   1.389   4.254 -1.7454  0.8809  1.3027
 2154SOL    HW2 7283   5.360   1.530   4.317  0.2435  1.1596 -0.8634
 2155SOL     OW 7284   4.435   5.306   6.690  0.2232  0.2441  0.1313
 2155SOL    HW1 7285   4.378   5.384   6.664  0.8067  1.1122  1.3426
 2155SOL    HW2 7286   4.383   5.244   6.748  0.1063  0.3398  0.1276
 2156SOL     OW 7287   6.009   2.600   3.118  0.0529 -0.6876 -0.4334
 2156SOL    HW1 7288   6.073   2.624   3.046 -0.7757 -1.2012 -1.3761
 2156SOL    HW2 7289   6.030   2.509   3.153  0.1546 -0.6410 -0.3733
 2157SOL     OW 7290   2.244   2.397   1.461 -0.1863  0.6242 -0.1705
 2157SOL    HW1 7291   2.235   2.358   1.553 -2.2222  1.8723  0.2353
 2157SOL    HW2 7292   2.161   2.449   1.439  0.2149  0.3033 -2.7621
 2158SOL     OW 7293   2.779   6.238   2.240 -0.2012  0.0666  0.1793
 2158SOL    HW1 7294   2.717   6.228   2.317  0.5366 -0.9350  0.6630
 2158SOL    HW2 7295   2.874   6.230   2.272  0.1057 -0.6601 -0.8582
 2159SOL     OW 7296   6.550   5.168   3.044  0.1533  0.1939 -0.5983
 2159SOL    HW1 7297   6.452   5.172   3.027 -0.0536 -2.7516 -0.5472
 2159SOL    HW2 7298   6.599   5.160   2.956  0.2650  0.4701 -0.5629
 2160SOL     OW 7299   1.998   6.403   3.441  0.4256 -0.2722  0.1531
 2160SOL    HW1 7300   2.096   6.392   3.424  0.9112  2.4535  0.7357
 2160SOL    HW2 7301   1.977   6.367   3.532  1.8498  2.8063  1.8809
 2161SOL     OW 7302   3.779   3.152   0.377 -0.2230  0.4168  0.7415
 2161SOL    HW1 7303   3.764   3.053   0.376  0.8391  0.2443  0.6423
 2161SOL    HW2 7304   3.868   3.171   0.418  1.4278  1.0374 -2.7271
 2162SOL     OW 7305   1.489   0.660   5.942  0.1624  0.3389  0.9195
 2162SOL    HW1 7306   1.445   0.702   6.021 -0.3196  1.8495 -0.1162
 2162SOL    HW2 7307   1.421   0.648   5.869  0.4282 -1.6229  0.9062
 2163SOL     OW 7308   1.699   6.157   5.197  0.9717 -0.2329 -0.1520
 2163SOL    HW1 7309   1.736   6.072   5.161  0.8799 -1.0071  1.4891
 2163SOL    HW2 7310   1.756   6.234   5.166  2.8149 -1.1920  0.7240
 2164SOL     OW 7311   6.310   5.024   3.889 -0.0841  0.4505  0.3601
 2164SOL    HW1 7312   6.388   5.066   3.844  0.2894 -0.2412  0.3483
 2164SOL    HW2 7313   6.339   4.940   3.936 -1.0918 -0.6661 -0.9361
 2165SOL     OW 7314   5.918   3.264   3.989  0.4832 -0.1704  0.2865
 2165SOL    HW1 7315   5.955   3.214   4.067 -0.0226 -1.8561 -0.4953
 2165SOL    HW2 7316   5.901   3.359   4.015  0.8229 -0.5468  2.0455
 2166SOL     OW 7317   4.179   5.402   6.044 -0.0115  0.0056 -0.0429
 2166SOL    HW1 7318   4.211   5.456   6.122 -1.3882  1.0359 -0.1808
 2166SOL    HW2 7319   4.107   5.339   6.074  0.4608 -0.6426 -0.2146
 2167SOL     OW 7320   5.751   5.974   4.157 -0.0541 -0.7953 -0.1284
 2167SOL    HW1 7321   5.758   6.055   4.215  2.6510 -0.4787 -0.7480
 2167SOL    HW2 7322   5.658   5.967   4.120 -0.2271  2.3999 -0.5739
 2168SOL     OW 7323   4.401   0.738   5.705  0.2734 -0.6244 -0.4469
 2168SOL    HW1 7324   4.348   0.808   5.659  0.4892 -0.5700 -0.6198
 2168SOL    HW2 7325   4.349   0.652   5.707 -0.4240 -0.2042  0.6851
 2169SOL     OW 7326   0.108   4.907   4.172 -0.4132  0.4345 -0.0043
 2169SOL    HW1 7327   0.125   4.823   4.224  0.5726  0.4384 -0.2927
 2169SOL    HW2 7328   0.153   4.900   4.083 -0.6510  1.1171 -0.1813
 2170SOL     OW 7329   6.983   5.434   4.883 -0.1844  0.5261  0.0849
 2170SOL    HW1 7330   7.006   5.337   4.887 -0.6995  0.3791 -0.4682
 2170SOL    HW2 7331   7.015   5.473   4.797 -0.1686  0.8089  0.2184
 2171SOL     OW 7332   5.966   1.962   2.252 -0.3494  0.7361  0.0588
 2171SOL    HW1 7333   6.048   1.906   2.242 -1.1373 -0.5742  0.5808
 2171SOL    HW2 7334   5.954   2.019   2.171 -0.0043 -0.5527 -0.9418
 2172SOL     OW 7335   5.256   6.681   3.854  0.0460  0.0737  0.0440
 2172SOL    HW1 7336   5.266   6.743   3.932  0.2257 -0.2471  0.2772
 2172SOL    HW2 7337   5.309   6.717   3.777 -1.1124  1.0362 -0.3333
 2173SOL     OW 7338   1.543   3.323   4.168 -0.1932 -0.0058 -0.2179
 2173SOL    HW1 7339   1.467   3.386   4.151  0.4418  0.7460 -0.2789
 2173SOL    HW2 7340   1.624   3.374   4.197  0.8947 -0.5610 -2.0614
 2174SOL     OW 7341   3.416   5.792   0.426  0.1280 -0.0328  0.1829
 2174SOL    HW1 7342   3.475   5.754   0.497  2.6355 -0.2385 -1.8519
 2174SOL    HW2 7343   3.417   5.892   0.432 -0.1988 -0.0644  0.8177
 2175SOL     OW 7344   0.114   0.157   5.356  0.1642 -0.1492  0.3472
 2175SOL    HW1 7345   0.200   0.155   5.305 -0.5964 -1.0748 -0.9916
 2175SOL    HW2 7346   0.084   0.063   5.374 -1.7215  0.0347 -1.3520
 2176SOL     OW 7347   5.892   0.476   0.770  0.2702  0.2448 -0.2438
 2176SOL    HW1 7348   5.989   0.498   0.754  0.4628 -0.5034 -0.1323
 2176SOL    HW2 7349   5.843   0.560   0.794  0.7325  0.7528 -1.0337
 2177SOL     OW 7350   4.753   5.207   6.224  0.4199  0.1872 -0.0428
 2177SOL    HW1 7351   4.668   5.192   6.173 -0.1058 -0.2398  0.9348
 2177SOL    HW2 7352   4.733   5.208   6.322  1.5517  0.0457  0.1946
 2178SOL     OW 7353   3.529   2.652   1.690 -0.0146 -0.7455  0.1465
 2178SOL    HW1 7354   3.554   2.746   1.713  2.5111 -1.2541 -0.1118
 2178SOL    HW2 7355   3.430   2.641   1.695 -0.4437  2.0602 -0.4213
 2179SOL     OW 7356   2.647   4.824   2.810  0.0441  0.0398 -0.4151
 2179SOL    HW1 7357   2.569   4.830   2.873 -0.3129 -2.4832 -0.5115
 2179SOL    HW2 7358   2.726   4.871   2.850 -0.7172  0.1540  1.0245
 2180SOL     OW 7359   0.162   2.856   1.510  0.6707  0.3226 -0.0290
 2180SOL    HW1 7360   0.097   2.891   1.443  0.6863  0.5951  0.0962
 2180SOL    HW2 7361   0.169   2.757   1.501  0.0171  0.2504  0.1572
 2181SOL     OW 7362   2.301   5.614   0.038 -0.4432  0.1900  0.7926
 2181SOL    HW1 7363   2.349   5.539   0.082  0.8442  1.6500  1.9860
 2181SOL    HW2 7364   2.356   5.697   0.045 -1.5491  1.1275 -1.0198
 2182SOL     OW 7365   0.721   0.499   3.944  0.7170 -0.0371 -0.4090
 2182SOL    HW1 7366   0.701   0.482   3.848  1.5457 -3.6928 -0.1117
 2182SOL    HW2 7367   0.753   0.414   3.986 -0.5889  1.1382  3.3777
 2183SOL     OW 7368   0.056   4.278   0.128  0.1533  0.1532 -0.3543
 2183SOL    HW1 7369   0.048   4.183   0.155 -0.8378 -0.3398 -2.1254
 2183SOL    HW2 7370  -0.033   4.310   0.093  0.3570  1.8990  0.6680
 2184SOL     OW 7371   4.536   3.161   5.094  0.0210  0.3022 -0.1564
 2184SOL    HW1 7372   4.505   3.068   5.111  0.6077 -0.1003 -1.2277
 2184SOL    HW2 7373   4.469   3.210   5.038 -0.9895  1.0162  1.5959
 2185SOL     OW 7374   0.464   3.965   1.577 -0.6505  0.0590  0.2048
 2185SOL    HW1 7375   0.428   3.966   1.484  1.4676  0.7726 -0.6566
 2185SOL    HW2 7376   0.492   3.872   1.601 -0.2625  0.0572 -0.2499
 2186SOL     OW 7377   3.560   3.151   6.719  0.1769  0.1538 -0.7832
 2186SOL    HW1 7378   3.599   3.079   6.776 -0.9532 -0.3556 -0.6209
 2186SOL    HW2 7379   3.613   3.235   6.729  0.0109  0.0671  0.9950
 2187SOL     OW 7380   0.966   0.589   1.617  0.9439 -0.0933 -0.3065
 2187SOL    HW1 7381   1.053   0.627   1.588  1.2361  0.5756  1.3475
 2187SOL    HW2 7382   0.980   0.495   1.650  0.9800 -0.1122 -0.3743
 2188SOL     OW 7383   4.349   0.999   0.257 -0.0892 -0.5158 -0.2653
 2188SOL    HW1 7384   4.301   0.948   0.186  0.7157 -0.3212 -0.9681
 2188SOL    HW2 7385   4.441   0.962   0.268  0.2909  0.3865 -0.3422
 2189SOL     OW 7386   3.032   5.470   2.327  0.1837 -0.2950 -0.0158
 2189SOL    HW1 7387   2.968   5.509   2.261 -1.0015 -1.5819  0.2810
 2189SOL    HW2 7388   3.120   5.455   2.284 -0.3954 -0.5783 -1.1585
 2190SOL     OW 7389   3.466   5.628   5.608 -0.3510  0.1489  0.2699
 2190SOL    HW1 7390   3.543   5.564   5.611 -0.3512 -0.2439 -3.5912
 2190SOL    HW2 7391   3.500   5.722   5.601 -0.0525 -0.0886 -2.5716
 2191SOL     OW 7392   5.928   2.457   2.415 -0.7750  0.0030  0.8633
 2191SOL    HW1 7393   5.842   2.506   2.428 -0.4304  1.0736 -0.5935
 2191SOL    HW2 7394   5.908   2.365   2.379 -1.3887 -0.6429  2.7416
 2192SOL     OW 7395   3.015   1.208   6.524 -0.1493 -0.1287  0.1207
 2192SOL    HW1 7396   3.105   1.231   6.560 -0.7276  0.9131  0.9590
 2192SOL    HW2 7397   3.025   1.165   6.434  1.1488  0.5793 -0.1057
 2193SOL     OW 7398   5.452   1.050   1.083  0.3511 -0.4721  0.2575
 2193SOL    HW1 7399   5.542   1.095   1.077  0.2962 -0.2135  1.1608
 2193SOL    HW2 7400   5.413   1.042   0.991  0.5379  0.9998  0.0181
 2194SOL     OW 7401   1.868   5.069   0.566 -0.4115 -0.1919 -0.2288
 2194SOL    HW1 7402   1.881   5.047   0.469 -0.9220 -0.2769 -0.2811
 2194SOL    HW2 7403   1.780   5.033   0.596  0.3528 -1.4028  0.6319
 2195SOL     OW 7404   2.514   2.203   2.349 -0.7631  0.4488  0.0622
 2195SOL    HW1 7405   2.523   2.302   2.336  1.5743  0.2837 -0.0273
 2195SOL    HW2 7406   2.563   2.156   2.275 -1.0371 -0.7605  0.6287
 2196SOL     OW 7407   6.867   0.869   0.575  0.2633 -0.0383  0.0536
 2196SOL    HW1 7408   6.836   0.872   0.670 -0.7068 -0.2044 -0.2437
 2196SOL    HW2 7409   6.817   0.798   0.526  1.9029 -1.0753 -0.2047
 2197SOL     OW 7410   5.575   6.155   0.877  0.2319 -0.5337  0.3550
 2197SOL    HW1 7411   5.666   6.169   0.838  0.0825  0.1254  0.2380
 2197SOL    HW2 7412   5.555   6.229   0.942 -0.9192  0.2863 -0.8990
 2198SOL     OW 7413   6.300   4.099   5.632 -0.4657 -0.5469 -0.3127
 2198SOL    HW1 7414   6.390   4.055   5.632 -0.6442 -0.9198 -0.4408
 2198SOL    HW2 7415   6.236   4.043   5.685 -0.6944 -0.4372 -0.4749
 2199SOL     OW 7416   5.432   1.396   3.698  0.5496  0.0208 -0.4557
 2199SOL    HW1 7417   5.409   1.366   3.791  0.8077  0.5457 -0.2138
 2199SOL    HW2 7418   5.439   1.496   3.696 -2.0835  0.2332 -1.6258
 2200SOL     OW 7419   1.546   3.791   5.458  0.3653 -0.5809  0.1705
 2200SOL    HW1 7420   1.483   3.717   5.433  0.5362  0.0374 -2.2873
 2200SOL    HW2 7421   1.636   3.752   5.478  0.0168 -1.1865  0.5942
 2201SOL     OW 7422   5.318   5.770   3.402  0.0851 -0.1200  0.4136
 2201SOL    HW1 7423   5.392   5.827   3.368 -0.1206  0.2442  0.5776
 2201SOL    HW2 7424   5.242   5.827   3.432 -0.5860 -0.5048 -0.4871
 2202SOL     OW 7425   3.528   2.838   4.313 -0.3355 -0.0568  0.7212
 2202SOL    HW1 7426   3.585   2.850   4.232 -0.1740 -1.3623  0.6339
 2202SOL    HW2 7427   3.585   2.814   4.391 -0.7923 -2.2579  0.4439
 2203SOL     OW 7428   0.966   6.675   4.308 -0.6292  0.0553  0.0001
 2203SOL    HW1 7429   1.000   6.767   4.330 -1.7676  0.3904  0.4268
 2203SOL    HW2 7430   0.976   6.616   4.387  1.0681 -0.5102 -0.5905
 2204SOL     OW 7431   3.899   6.376   6.222  0.3588 -0.3327  0.2735
 2204SOL    HW1 7432   3.922   6.430   6.141 -2.5112  1.4429  0.4912
 2204SOL    HW2 7433   3.847   6.296   6.194  0.5777 -0.4726  0.2622
 2205SOL     OW 7434   4.431   0.396   1.908  0.0860 -0.0632 -0.3831
 2205SOL    HW1 7435   4.396   0.318   1.961 -0.7904 -0.7195 -1.8935
 2205SOL    HW2 7436   4.470   0.363   1.822  2.4009  0.8991  0.2395
 2206SOL     OW 7437   6.169   5.905   1.315 -0.5930  0.1503 -0.2541
 2206SOL    HW1 7438   6.213   5.987   1.279  0.0303  0.0740  0.3196
 2206SOL    HW2 7439   6.084   5.888   1.265  0.1129  0.1955 -1.4992
 2207SOL     OW 7440   6.268   4.609   0.851 -0.1129  0.2327  0.3870
 2207SOL    HW1 7441   6.276   4.510   0.837  1.6422  0.3289  0.5079
 2207SOL    HW2 7442   6.344   4.641   0.907 -0.7728  1.6251  0.5152
 2208SOL     OW 7443   2.236   4.431   6.402  0.4815 -0.6924  0.2927
 2208SOL    HW1 7444   2.311   4.405   6.463  0.0857  0.0565  1.1008
 2208SOL    HW2 7445   2.214   4.528   6.414 -0.5111 -0.8652 -0.0531
 2209SOL     OW 7446   5.198   5.012   4.127 -0.1957  0.2687  0.6470
 2209SOL    HW1 7447   5.135   5.009   4.205  0.4792 -0.0512  1.1912
 2209SOL    HW2 7448   5.169   5.084   4.063 -0.7001  0.6023  1.2452
 2210SOL     OW 7449   2.823   0.981   5.141 -0.2026  0.3450 -0.0598
 2210SOL    HW1 7450   2.823   1.043   5.219 -0.5175  0.2314  0.0366
 2210SOL    HW2 7451   2.735   0.987   5.094 -0.5351 -0.5753  0.4072
 2211SOL     OW 7452   4.081   3.305   4.289 -0.2903  0.1590  0.1788
 2211SOL    HW1 7453   4.147   3.326   4.361 -0.3903  0.6601  0.1371
 2211SOL    HW2 7454   4.047   3.212   4.300  0.4460 -0.1179  0.1817
 2212SOL     OW 7455   3.332   6.847   6.568 -0.0184  0.0049  0.7160
 2212SOL    HW1 7456   3.373   6.887   6.486 -0.8945 -0.7934 -0.1383
 2212SOL    HW2 7457   3.257   6.906   6.600 -0.3977 -0.2176  0.2738
 2213SOL     OW 7458   6.828   1.513   1.497  0.4018  0.0487  0.0092
 2213SOL    HW1 7459   6.843   1.415   1.510 -1.0654 -0.3844 -1.2401
 2213SOL    HW2 7460   6.796   1.553   1.583  1.2690 -0.4935  0.6058
 2214SOL     OW 7461   5.872   1.094   6.137 -0.6086 -0.2817 -0.1054
 2214SOL    HW1 7462   5.795   1.112   6.074  1.0543 -2.3309 -2.9450
 2214SOL    HW2 7463   5.857   1.007   6.182 -1.4381  0.8542  1.9855
 2215SOL     OW 7464   6.174   0.684   6.385  0.5322 -0.2061 -0.2776
 2215SOL    HW1 7465   6.080   0.712   6.368  0.3547 -0.4118  0.3291
 2215SOL    HW2 7466   6.230   0.766   6.402 -0.1728 -0.1723  2.4194
 2216SOL     OW 7467   6.779   0.957   4.744  0.0883 -0.0218  0.2631
 2216SOL    HW1 7468   6.755   0.998   4.656  1.0022  2.9947  1.2893
 2216SOL    HW2 7469   6.872   0.920   4.738 -0.0022 -0.2025 -0.1300
 2217SOL     OW 7470   2.098   6.626   5.257  0.2519 -0.1468 -0.3863
 2217SOL    HW1 7471   2.005   6.609   5.287  0.1440 -0.0654 -0.6692
 2217SOL    HW2 7472   2.125   6.720   5.280  0.6014 -0.4690  0.5647
 2218SOL     OW 7473   2.360   6.938   0.622  1.1661 -0.9876  0.3366
 2218SOL    HW1 7474   2.409   6.994   0.689  1.9890 -1.5421  0.2099
 2218SOL    HW2 7475   2.421   6.868   0.585  0.0124 -2.3897  0.9394
 2219SOL     OW 7476   6.758   1.275   5.597 -0.6572 -0.5532 -0.3007
 2219SOL    HW1 7477   6.688   1.299   5.530  0.0679 -0.1939 -0.9512
 2219SOL    HW2 7478   6.753   1.339   5.674  0.4226  0.9743 -1.4245
 2220SOL     OW 7479   6.610   6.220   2.251 -0.5639  0.1511  0.1502
 2220SOL    HW1 7480   6.523   6.269   2.259 -0.1946  0.6919  1.0311
 2220SOL    HW2 7481   6.596   6.123   2.270 -1.1552  0.0426 -0.7684
 2221SOL     OW 7482   3.740   6.369   2.064  0.1025 -0.0924 -0.1872
 2221SOL    HW1 7483   3.704   6.280   2.093  0.3688  0.1072  0.8212
 2221SOL    HW2 7484   3.837   6.361   2.045  0.4989  0.2715  1.4423
 2222SOL     OW 7485   2.700   3.187   3.620  0.7402 -0.9578 -0.3729
 2222SOL    HW1 7486   2.656   3.153   3.536 -1.0463  0.6068 -0.1249
 2222SOL    HW2 7487   2.690   3.119   3.693  0.3839 -1.4117 -0.8321
 2223SOL     OW 7488   6.810   1.341   0.278 -0.5162 -0.9277 -0.3301
 2223SOL    HW1 7489   6.772   1.432   0.290 -1.1637 -1.2579  0.1571
 2223SOL    HW2 7490   6.909   1.347   0.265 -0.3881 -0.2370  0.8748
 2224SOL     OW 7491   6.662   3.700   3.682 -0.2973 -0.4332 -0.1330
 2224SOL    HW1 7492   6.610   3.649   3.751 -1.3722 -0.1033 -0.6739
 2224SOL    HW2 7493   6.604   3.715   3.602 -0.3665  2.4178  0.3525
 2225SOL     OW 7494   6.977   0.030   4.234 -0.2781  0.2264  0.5937
 2225SOL    HW1 7495   6.932  -0.005   4.152 -0.2391  0.5197  0.4464
 2225SOL    HW2 7496   6.953  -0.027   4.312  0.4763 -0.6309  0.1955
 2226SOL     OW 7497   1.117   0.464   2.751 -0.4124  0.2571 -0.0912
 2226SOL    HW1 7498   1.181   0.539   2.768 -2.0477  1.3874  1.6445
 2226SOL    HW2 7499   1.076   0.474   2.660  0.4512  0.6161 -0.4467
 2227SOL     OW 7500   6.117   0.658   4.587 -0.1002  0.0000 -0.3794
 2227SOL    HW1 7501   6.159   0.749   4.581 -0.1162  0.0513  0.1769
 2227SOL    HW2 7502   6.079   0.633   4.498  2.4183 -0.7056 -1.3411
 2228SOL     OW 7503   6.686   6.989   0.867 -0.2807 -0.8869  0.3477
 2228SOL    HW1 7504   6.609   6.970   0.806 -0.1056 -0.6201  0.0467
 2228SOL    HW2 7505   6.755   6.917   0.857 -0.0764 -0.6371 -0.0511
 2229SOL     OW 7506   2.696   2.492   6.033 -0.0356  0.1120 -0.4753
 2229SOL    HW1 7507   2.766   2.503   6.103  0.4144  0.9021 -1.0276
 2229SOL    HW2 7508   2.617   2.549   6.055 -1.1224 -1.7738  0.8529
 2230SOL     OW 7509   3.241   6.351   4.810 -0.4221 -0.1464  0.7779
 2230SOL    HW1 7510   3.190   6.435   4.791 -0.0838  0.1185  1.0168
 2230SOL    HW2 7511   3.255   6.343   4.909 -0.0187 -0.2239  0.7160
 2231SOL     OW 7512   6.161   0.876   2.385  0.0593  0.0191  0.0470
 2231SOL    HW1 7513   6.075   0.885   2.436 -0.5868  2.2844 -1.3327
 2231SOL    HW2 7514   6.153   0.920   2.296  1.6608 -2.4731 -1.4831
 2232SOL     OW 7515   4.264   3.950   0.930  0.1590 -0.5178  0.0131
 2232SOL    HW1 7516   4.232   3.871   0.982  0.9845  0.5206  2.2339
 2232SOL    HW2 7517   4.202   3.966   0.853  0.1181 -3.4317 -0.6689
 2233SOL     OW 7518   6.158   5.730   3.744  1.2328 -0.2205 -0.5853
 2233SOL    HW1 7519   6.147   5.824   3.714  0.2927 -0.3146 -0.5548
 2233SOL    HW2 7520   6.213   5.680   3.678  1.6506  0.3204 -0.6568
 2234SOL     OW 7521   1.479   0.334   3.073  0.2810 -0.2350  0.8711
 2234SOL    HW1 7522   1.477   0.239   3.040 -2.4730 -0.0779  0.2860
 2234SOL    HW2 7523   1.506   0.394   2.998 -1.1790 -0.3157  0.2423
 2235SOL     OW 7524   5.986   1.732   2.522  0.1964 -0.3243 -0.1155
 2235SOL    HW1 7525   5.968   1.738   2.424  2.1297  1.0506 -0.4603
 2235SOL    HW2 7526   6.052   1.803   2.548  1.3226 -1.9514  1.8022
 2236SOL     OW 7527   1.690   2.269   0.879 -0.3143  0.0480  0.1520
 2236SOL    HW1 7528   1.696   2.267   0.978 -1.6259  2.2879  0.3578
 2236SOL    HW2 7529   1.615   2.330   0.851  0.3070 -0.1504 -2.2171
 2237SOL     OW 7530   1.814   6.071   2.025 -0.4263 -0.7831 -0.4573
 2237SOL    HW1 7531   1.855   6.155   1.990 -0.6518  0.5154  2.1716
 2237SOL    HW2 7532   1.780   6.017   1.948 -0.6348  1.6916 -2.2388
 2238SOL     OW 7533   5.377   0.823   2.136 -0.1737  0.0959  0.3097
 2238SOL    HW1 7534   5.302   0.889   2.147  0.1302  0.3191  1.1113
 2238SOL    HW2 7535   5.341   0.739   2.096 -1.1913 -0.4337  2.1944
 2239SOL     OW 7536   6.387   3.828   1.121  0.3122  0.5005  0.8804
 2239SOL    HW1 7537   6.404   3.768   1.042 -1.8545  1.6499 -0.5826
 2239SOL    HW2 7538   6.455   3.901   1.122  0.1509  0.6791 -0.1637
 2240SOL     OW 7539   6.553   4.253   0.894 -0.1500 -0.0799  0.0295
 2240SOL    HW1 7540   6.607   4.235   0.812  1.5076 -0.9253  1.2393
 2240SOL    HW2 7541   6.610   4.300   0.961 -0.9714 -0.8555  1.3098
 2241SOL     OW 7542   6.219   3.125   1.731 -0.8044 -0.0302 -0.7805
 2241SOL    HW1 7543   6.122   3.099   1.736 -1.2014  0.7224 -3.3959
 2241SOL    HW2 7544   6.245   3.141   1.636  2.3632 -1.7699 -0.3406
 2242SOL     OW 7545   3.490   1.806   5.132  0.5432 -0.6086 -0.3349
 2242SOL    HW1 7546   3.577   1.853   5.116 -0.0839  0.3710 -0.9138
 2242SOL    HW2 7547   3.421   1.872   5.160 -0.1353 -1.3125 -0.3104
 2243SOL     OW 7548   6.114   1.983   0.268 -0.0547 -0.0786  0.3650
 2243SOL    HW1 7549   6.017   2.008   0.274 -0.3417 -1.1137  0.1482
 2243SOL    HW2 7550   6.161   2.046   0.205 -0.5445  0.5313  0.6028
 2244SOL     OW 7551   6.339   3.707   5.917 -0.0091  0.2858  0.8978
 2244SOL    HW1 7552   6.338   3.659   6.004 -1.2905 -2.2765 -0.4265
 2244SOL    HW2 7553   6.247   3.738   5.894 -0.3650 -1.7400 -0.8164
 2245SOL     OW 7554   5.766   0.881   0.200 -0.2158  0.5619 -0.0383
 2245SOL    HW1 7555   5.692   0.861   0.266  0.5076 -1.4612  0.2382
 2245SOL    HW2 7556   5.848   0.908   0.250  0.1601 -0.3964 -0.1126
 2246SOL     OW 7557   4.252   6.282   5.931 -0.2700  0.0305 -0.0028
 2246SOL    HW1 7558   4.303   6.228   5.998  1.7421 -0.4831 -1.8142
 2246SOL    HW2 7559   4.156   6.255   5.931 -0.3038 -0.0559  2.4870
 2247SOL     OW 7560   0.527   0.633   0.473  0.0575  0.1834  0.1543
 2247SOL    HW1 7561   0.450   0.681   0.515  0.4939 -0.2604  1.5203
 2247SOL    HW2 7562   0.494   0.546   0.435  0.0746 -0.5861  1.8300
 2248SOL     OW 7563   1.771   3.071   0.911 -0.5600 -0.1852  0.5873
 2248SOL    HW1 7564   1.809   3.163   0.912  1.2164 -0.8963  1.2907
 2248SOL    HW2 7565   1.815   3.017   0.839 -0.4253 -0.9556  1.2328
 2249SOL     OW 7566   0.674   6.712   5.457 -0.0095  0.4599 -0.2387
 2249SOL    HW1 7567   0.769   6.729   5.428 -0.0092 -0.9346 -1.1695
 2249SOL    HW2 7568   0.652   6.615   5.444 -1.4255  0.6743  0.3948
 2250SOL     OW 7569   6.868   1.336   6.184  0.5133  0.0337  0.0026
 2250SOL    HW1 7570   6.802   1.277   6.137 -0.8144  1.2933  0.1859
 2250SOL    HW2 7571   6.934   1.371   6.118  0.5102 -0.6051 -0.3462
 2251SOL     OW 7572   5.324   5.155   0.033  0.2013 -0.4238  0.2647
 2251SOL    HW1 7573   5.279   5.068   0.017 -1.1058  0.7483 -3.8237
 2251SOL    HW2 7574   5.257   5.222   0.065  0.5029 -0.2396  0.5097
 2252SOL     OW 7575   3.656   2.914   0.952  0.0783  0.0213  0.3935
 2252SOL    HW1 7576   3.585   2.975   0.987 -0.4142 -0.1639 -0.2587
 2252SOL    HW2 7577   3.697   2.954   0.870 -0.0003 -0.3438  0.1696
 2253SOL     OW 7578   3.089   0.272   5.964 -0.3702 -0.0516 -0.0249
 2253SOL    HW1 7579   3.136   0.351   6.004  0.2721 -0.4344 -0.0283
 2253SOL    HW2 7580   3.128   0.188   6.001 -0.4878 -0.3894 -0.6711
 2254SOL     OW 7581   4.960   6.445   0.166 -0.0194 -0.0684 -0.1577
 2254SOL    HW1 7582   5.057   6.456   0.187 -0.5536  0.5124  2.1925
 2254SOL    HW2 7583   4.912   6.531   0.180 -1.3033 -0.9685  1.2500
 2255SOL     OW 7584   4.117   2.158   4.211 -0.0528 -0.1831 -0.2539
 2255SOL    HW1 7585   4.108   2.162   4.310 -1.5047  1.0932 -0.3936
 2255SOL    HW2 7586   4.045   2.100   4.173  0.8667 -1.1596 -0.5358
 2256SOL     OW 7587   1.086   2.642   3.570 -0.2452 -0.1398  1.0983
 2256SOL    HW1 7588   1.145   2.562   3.580  0.6621  0.4128  0.3517
 2256SOL    HW2 7589   1.019   2.643   3.644 -0.2719 -1.5746  1.1307
 2257SOL     OW 7590   1.458   1.287   2.414 -0.0948 -0.0493 -0.4559
 2257SOL    HW1 7591   1.382   1.270   2.476  2.7007 -1.4429  2.9617
 2257SOL    HW2 7592   1.458   1.382   2.385 -1.2710  0.8491  2.2417
 2258SOL     OW 7593   1.150   2.452   4.550 -0.0903  0.5927  0.5026
 2258SOL    HW1 7594   1.214   2.499   4.488 -1.8783  0.7093 -1.3395
 2258SOL    HW2 7595   1.096   2.520   4.600 -0.2262  0.4933  0.4931
 2259SOL     OW 7596   0.166   3.354   0.092  0.1099  0.5443 -0.1412
 2259SOL    HW1 7597   0.259   3.359   0.130 -0.1274  1.4688  0.3642
 2259SOL    HW2 7598   0.156   3.423   0.020  0.3247 -0.6947 -1.4003
 2260SOL     OW 7599   5.058   3.368   4.121 -0.1647 -0.0982 -0.2379
 2260SOL    HW1 7600   5.028   3.394   4.029 -3.4888 -1.4796  0.3097
 2260SOL    HW2 7601   5.077   3.451   4.174  0.0030  0.7756 -1.6081
 2261SOL     OW 7602   6.560   3.325   6.333  0.5439  0.3598  0.1300
 2261SOL    HW1 7603   6.574   3.238   6.285 -1.2971  1.1182 -1.9582
 2261SOL    HW2 7604   6.591   3.400   6.275 -1.0748  1.2809  0.3972
 2262SOL     OW 7605   1.243   0.673   5.791 -0.6020 -0.8392 -0.3239
 2262SOL    HW1 7606   1.187   0.712   5.718 -2.0550 -2.6040 -0.2417
 2262SOL    HW2 7607   1.206   0.584   5.817  0.0309 -0.4107  2.3966
 2263SOL     OW 7608   1.494   0.836   5.077  0.4386 -0.3238 -0.2705
 2263SOL    HW1 7609   1.584   0.880   5.083 -0.1991  1.3109 -1.7015
 2263SOL    HW2 7610   1.473   0.817   4.981  0.1485 -2.7446  0.2044
 2264SOL     OW 7611   5.572   1.512   5.080  0.4068  0.1609 -0.3185
 2264SOL    HW1 7612   5.477   1.544   5.077 -0.3768 -2.0203 -2.4911
 2264SOL    HW2 7613   5.592   1.475   5.171 -0.9288  0.3368  0.0701
 2265SOL     OW 7614   5.195   0.340   0.818  0.5684  0.2572  0.0406
 2265SOL    HW1 7615   5.105   0.380   0.837 -0.5763 -1.8818 -0.5835
 2265SOL    HW2 7616   5.256   0.357   0.895 -0.8983  0.3237  1.2294
 2266SOL     OW 7617   2.209   0.888   1.788  0.2733 -0.5437 -0.4679
 2266SOL    HW1 7618   2.162   0.823   1.848 -0.7469  1.3142  0.8584
 2266SOL    HW2 7619   2.300   0.854   1.766 -0.0272 -2.1462  0.6256
 2267SOL     OW 7620   2.233   0.081   0.056 -0.4415 -0.0026 -0.6605
 2267SOL    HW1 7621   2.161   0.106   0.122 -1.1947 -0.1207 -1.4103
 2267SOL    HW2 7622   2.309   0.039   0.105 -0.3200  1.2845  0.3070
 2268SOL     OW 7623   6.842   4.667   6.589  0.1930 -0.4913  0.0244
 2268SOL    HW1 7624   6.810   4.596   6.651  0.6909 -0.5313  0.2442
 2268SOL    HW2 7625   6.766   4.727   6.564  0.3051  0.6158  2.1135
 2269SOL     OW 7626   3.228   3.134   3.141 -0.1869  0.4575 -0.5832
 2269SOL    HW1 7627   3.273   3.048   3.166  0.5904  0.9993 -0.0761
 2269SOL    HW2 7628   3.131   3.130   3.168  0.7348  1.3707  3.6798
 2270SOL     OW 7629   3.642   1.107   1.235  0.5274 -1.2747  0.3494
 2270SOL    HW1 7630   3.724   1.051   1.241 -0.1785 -2.6101 -1.5533
 2270SOL    HW2 7631   3.562   1.050   1.251 -0.2424 -1.0190 -2.1420
 2271SOL     OW 7632   1.909   2.355   4.310 -0.1638  0.5030  0.1695
 2271SOL    HW1 7633   1.841   2.426   4.293  0.0750  0.2195 -2.3967
 2271SOL    HW2 7634   1.885   2.273   4.258  0.8339 -0.4788  1.1906
 2272SOL     OW 7635   0.331   0.521   2.655 -0.1040 -0.2807  0.1582
 2272SOL    HW1 7636   0.385   0.438   2.669 -1.3193 -1.1481 -0.1546
 2272SOL    HW2 7637   0.341   0.582   2.733  0.2932 -1.0052  0.6793
 2273SOL     OW 7638   2.189   3.321   0.244  0.1954  0.2269 -0.6174
 2273SOL    HW1 7639   2.196   3.317   0.344  2.4966  0.0799 -0.7209
 2273SOL    HW2 7640   2.161   3.413   0.216  2.4503  1.2153  0.1306
 2274SOL     OW 7641   4.757   4.730   6.540  0.3334 -0.2273  0.4365
 2274SOL    HW1 7642   4.785   4.725   6.444 -0.8995 -0.3101  0.0621
 2274SOL    HW2 7643   4.837   4.720   6.598  0.8548 -2.2546 -0.5611
 2275SOL     OW 7644   4.671   0.635   2.347 -0.0219 -0.5705 -0.5043
 2275SOL    HW1 7645   4.612   0.559   2.320  1.7438 -1.7691 -1.1477
 2275SOL    HW2 7646   4.631   0.681   2.427 -1.1965 -2.1053 -0.1550
 2276SOL     OW 7647   2.651   2.795   4.060  0.4649 -0.1092  0.0547
 2276SOL    HW1 7648   2.631   2.882   4.106 -0.0045 -0.1279 -0.1026
 2276SOL    HW2 7649   2.733   2.754   4.100 -0.2277 -0.3853  1.2452
 2277SOL     OW 7650   0.749   2.487   2.981 -0.1751  0.3485 -0.1076
 2277SOL    HW1 7651   0.657   2.450   2.992  0.0327 -0.1211  0.0661
 2277SOL    HW2 7652   0.750   2.553   2.906 -0.4800 -0.1940 -0.5836
 2278SOL     OW 7653   3.919   3.211   4.554  0.2931 -0.3277  0.5244
 2278SOL    HW1 7654   3.895   3.307   4.538 -1.0048 -0.7197 -0.0669
 2278SOL    HW2 7655   3.922   3.163   4.466  1.8332 -0.6460  0.7291
 2279SOL     OW 7656   2.574   5.216   6.774  0.0754  0.6609  0.1687
 2279SOL    HW1 7657   2.642   5.244   6.706 -0.0498  2.2974  0.6835
 2279SOL    HW2 7658   2.485   5.204   6.730  0.4276 -0.3383 -0.3058
 2280SOL     OW 7659   2.162   2.789   3.383 -0.5996 -0.1698  0.0513
 2280SOL    HW1 7660   2.205   2.789   3.293 -0.2590 -0.8563  0.2070
 2280SOL    HW2 7661   2.134   2.882   3.407 -1.7002 -0.1490 -1.2396
 2281SOL     OW 7662   5.619   0.346   4.123  0.4876 -0.1528 -0.5563
 2281SOL    HW1 7663   5.569   0.376   4.042  1.8049  1.1779 -0.9259
 2281SOL    HW2 7664   5.701   0.297   4.095  0.7433 -0.0367 -0.0229
 2282SOL     OW 7665   6.160   6.066   5.460  0.0841  0.4030 -0.3830
 2282SOL    HW1 7666   6.070   6.105   5.441 -0.2189 -0.9792 -2.1310
 2282SOL    HW2 7667   6.231   6.128   5.428 -0.2971  0.7156 -0.6280
 2283SOL     OW 7668   1.105   5.018   3.088 -0.3257  0.0698  0.2744
 2283SOL    HW1 7669   1.123   5.108   3.127  3.0111 -0.9070  1.3894
 2283SOL    HW2 7670   1.042   4.968   3.148  0.2908  0.5868  1.3929
 2284SOL     OW 7671   3.182   4.286   5.726 -0.4174 -0.3084 -0.5259
 2284SOL    HW1 7672   3.190   4.349   5.803  1.5579 -2.0195  0.7996
 2284SOL    HW2 7673   3.224   4.327   5.645 -0.5383  0.6725 -0.1060
 2285SOL     OW 7674   6.443   6.824   4.130  0.4549 -0.7192  0.3104
 2285SOL    HW1 7675   6.511   6.814   4.057  0.8329 -1.3530  0.7444
 2285SOL    HW2 7676   6.399   6.736   4.146 -0.3749 -0.3468  0.1330
 2286SOL     OW 7677   3.348   5.638   4.815 -0.1563 -0.3130  0.6002
 2286SOL    HW1 7678   3.263   5.689   4.799 -0.8858 -1.8650 -0.7662
 2286SOL    HW2 7679   3.337   5.580   4.895  0.0033  0.2507  1.0374
 2287SOL     OW 7680   1.061   0.878   3.374  0.2789 -0.2198  0.1395
 2287SOL    HW1 7681   1.013   0.790   3.377  0.8501 -0.5878 -1.0434
 2287SOL    HW2 7682   1.129   0.876   3.301  0.8559  0.9322  0.6277
 2288SOL     OW 7683   4.638   0.438   6.880 -0.3538 -0.9053 -0.3235
 2288SOL    HW1 7684   4.734   0.425   6.856  0.2634  1.3551  0.7168
 2288SOL    HW2 7685   4.593   0.493   6.810 -0.0581  0.6951  0.7094
 2289SOL     OW 7686   0.882   2.268   5.755  0.3294 -0.0275  0.1451
 2289SOL    HW1 7687   0.947   2.322   5.809 -0.5922 -0.1633  1.4402
 2289SOL    HW2 7688   0.797   2.259   5.806  0.1487 -1.9397 -0.4500
 2290SOL     OW 7689   4.111   5.640   3.699  0.4324  0.2984 -0.3587
 2290SOL    HW1 7690   4.074   5.703   3.631 -0.2522  0.0357 -0.2334
 2290SOL    HW2 7691   4.210   5.653   3.706  0.5392  0.2464 -1.5130
 2291SOL     OW 7692   2.366   4.388   4.527 -0.4368 -0.3988  0.4364
 2291SOL    HW1 7693   2.454   4.432   4.507 -0.6267 -0.3100 -0.1983
 2291SOL    HW2 7694   2.360   4.371   4.626 -0.2364  0.7280  0.6564
 2292SOL     OW 7695   4.963   1.516   1.339 -0.1258 -0.0073  0.0612
 2292SOL    HW1 7696   5.018   1.600   1.347  0.6554 -0.5924  0.9304
 2292SOL    HW2 7697   4.929   1.490   1.429 -1.1330 -0.1340 -0.3407
 2293SOL     OW 7698   4.734   5.040   3.318 -0.5232 -0.1886  1.0172
 2293SOL    HW1 7699   4.830   5.023   3.340 -0.6063  0.3611  1.8291
 2293SOL    HW2 7700   4.710   5.134   3.343 -0.1694  1.1955 -3.0822
 2294SOL     OW 7701   4.194   0.659   2.821  1.0014  0.4936 -0.6925
 2294SOL    HW1 7702   4.263   0.610   2.874  0.0441 -0.4501 -0.2793
 2294SOL    HW2 7703   4.104   0.617   2.837  0.5628  0.6888 -2.4298
 2295SOL     OW 7704   3.351   2.962   0.630  0.4508  0.0370  0.2731
 2295SOL    HW1 7705   3.331   2.892   0.562 -1.1044 -1.2415  1.9225
 2295SOL    HW2 7706   3.381   3.046   0.585 -2.0327 -0.2231 -2.0507
 2296SOL     OW 7707   5.554   4.994   3.875 -0.2084 -0.6434  0.2471
 2296SOL    HW1 7708   5.557   5.060   3.800 -0.4811  2.2582  2.5888
 2296SOL    HW2 7709   5.646   4.963   3.896  0.0940  0.0304 -0.0493
 2297SOL     OW 7710   6.540   4.547   6.177 -0.1292 -0.2027  0.6313
 2297SOL    HW1 7711   6.473   4.595   6.233 -0.5076  0.5562 -0.4407
 2297SOL    HW2 7712   6.632   4.561   6.216 -0.1062  2.2267 -0.1697
 2298SOL     OW 7713   0.722   0.493   0.059  0.2537 -0.2757 -0.1664
 2298SOL    HW1 7714   0.666   0.512  -0.022 -0.8502  1.9199  1.0440
 2298SOL    HW2 7715   0.817   0.516   0.041  0.1166 -0.3660 -1.0227
 2299SOL     OW 7716   0.105   4.567   2.932  0.1958 -0.6300  0.4093
 2299SOL    HW1 7717   0.084   4.659   2.899  1.9821 -0.2311  0.3005
 2299SOL    HW2 7718   0.038   4.541   3.002 -0.3463  0.7243  0.4350
 2300SOL     OW 7719   6.502   3.119   0.264  0.5593 -0.0278 -0.0593
 2300SOL    HW1 7720   6.560   3.184   0.214  0.7567  0.1411  0.3840
 2300SOL    HW2 7721   6.484   3.153   0.356 -2.0268  0.9713 -0.8437
 2301SOL     OW 7722   6.262   0.940   2.133 -0.7600  0.3491 -0.1266
 2301SOL    HW1 7723   6.324   0.929   2.055  0.2361  0.3542  0.6517
 2301SOL    HW2 7724   6.300   1.007   2.196 -1.8207  0.7314  0.1193
 2302SOL     OW 7725   1.142   2.601   0.711  0.3530  0.1377  0.4734
 2302SOL    HW1 7726   1.101   2.591   0.802  1.1616  1.5613  1.0278
 2302SOL    HW2 7727   1.164   2.510   0.675  0.4264 -0.4377  1.8993
 2303SOL     OW 7728   6.923   3.991   6.774  0.5128  0.4217  0.0669
 2303SOL    HW1 7729   6.887   4.050   6.702 -0.7005  0.3974  0.6278
 2303SOL    HW2 7730   6.893   4.025   6.863 -0.9944 -1.5190  0.3718
 2304SOL     OW 7731   4.482   6.615   0.721 -0.0226  0.9402  0.2543
 2304SOL    HW1 7732   4.566   6.588   0.770 -0.4750  2.1362  1.7772
 2304SOL    HW2 7733   4.436   6.687   0.772 -2.0122  0.2997 -0.5413
 2305SOL     OW 7734   0.665   4.476   0.934  0.3318  0.0266  0.5658
 2305SOL    HW1 7735   0.650   4.548   0.865  1.1094  0.0466  0.4079
 2305SOL    HW2 7736   0.643   4.512   1.024  1.0388  0.5725  0.5268
 2306SOL     OW 7737   4.271   3.877   5.567  0.6277 -0.3546  0.5175
 2306SOL    HW1 7738   4.245   3.846   5.476  0.9189 -0.3330  0.4225
 2306SOL    HW2 7739   4.227   3.964   5.587 -1.2161 -1.4017  1.2912
 2307SOL     OW 7740   0.081   5.930   3.481 -0.1691 -0.4668  0.2879
 2307SOL    HW1 7741   0.047   6.018   3.513  0.9615  0.0210  0.2162
 2307SOL    HW2 7742   0.180   5.927   3.492 -0.0188 -1.1689 -1.0444
 2308SOL     OW 7743   1.290   2.660   2.186 -0.9262 -0.2263  0.2190
 2308SOL    HW1 7744   1.262   2.723   2.257  0.3257  1.2783 -0.5471
 2308SOL    HW2 7745   1.311   2.571   2.226 -4.6990 -0.8855  1.0515
 2309SOL     OW 7746   2.335   6.070   5.219 -0.0923 -0.0272  0.5816
 2309SOL    HW1 7747   2.405   6.003   5.195 -0.4038 -0.1800  0.0845
 2309SOL    HW2 7748   2.352   6.155   5.169 -1.1488 -0.5767 -0.7847
 2310SOL     OW 7749   4.052   4.438   6.614  0.2342 -0.1204 -0.6089
 2310SOL    HW1 7750   4.023   4.342   6.611  0.1634 -0.0874 -1.1006
 2310SOL    HW2 7751   3.991   4.493   6.558 -0.5000  0.4296  0.7089
 2311SOL     OW 7752   6.906   4.646   0.893 -0.2930 -0.4391  0.1546
 2311SOL    HW1 7753   6.993   4.608   0.864 -0.6575 -0.0452 -1.6141
 2311SOL    HW2 7754   6.863   4.692   0.816 -2.2620 -0.9967  0.8672
 2312SOL     OW 7755   4.335   3.451   0.993 -0.0295 -0.3000  0.5083
 2312SOL    HW1 7756   4.302   3.393   0.918 -1.5604  1.1776 -0.0439
 2312SOL    HW2 7757   4.325   3.402   1.079 -0.4595 -1.1823 -0.0299
 2313SOL     OW 7758   5.648   2.301   3.629  0.2363  0.0573 -0.2900
 2313SOL    HW1 7759   5.620   2.391   3.596  0.5910  0.8735  1.5269
 2313SOL    HW2 7760   5.586   2.231   3.593 -0.9124  1.1917 -0.5803
 2314SOL     OW 7761   6.907   5.749   3.478 -0.0327  0.0277  0.0356
 2314SOL    HW1 7762   6.850   5.750   3.396  0.3126 -0.9692 -0.2239
 2314SOL    HW2 7763   6.981   5.816   3.467  0.5901 -0.7823 -0.9028
 2315SOL     OW 7764   4.747   2.843   5.810  0.0623 -0.1562  0.2603
 2315SOL    HW1 7765   4.803   2.919   5.777 -2.3990  0.8658 -1.9101
 2315SOL    HW2 7766   4.686   2.875   5.882  0.4852 -0.6204  0.8297
 2316SOL     OW 7767   5.182   3.807   4.493  0.7148 -0.3743 -0.3458
 2316SOL    HW1 7768   5.118   3.802   4.570 -0.7130 -0.9329 -1.5162
 2316SOL    HW2 7769   5.220   3.899   4.487  0.3475 -0.1480  0.6095
 2317SOL     OW 7770   1.707   2.141   0.411  0.3210  0.1186  0.0224
 2317SOL    HW1 7771   1.723   2.137   0.510 -1.3977  0.1025  0.3194
 2317SOL    HW2 7772   1.747   2.061   0.368  0.0519 -0.4844  0.8697
 2318SOL     OW 7773   3.925   5.409   4.218  0.1230 -0.5591  0.1462
 2318SOL    HW1 7774   3.903   5.325   4.267 -0.2040 -0.9329 -0.6261
 2318SOL    HW2 7775   3.980   5.469   4.277  1.1441 -1.6980  0.3946
 2319SOL     OW 7776   2.338   4.945   0.600 -0.7197 -0.1772 -0.4749
 2319SOL    HW1 7777   2.411   4.898   0.550  0.4954  1.2348 -0.0783
 2319SOL    HW2 7778   2.261   4.882   0.614 -0.0071 -1.3773 -1.8061
 2320SOL     OW 7779   4.353   5.235   6.406 -0.4097  0.3409  0.4579
 2320SOL    HW1 7780   4.395   5.302   6.344 -0.1122 -1.0532 -0.9411
 2320SOL    HW2 7781   4.388   5.248   6.498  2.8313 -0.4117 -0.5289
 2321SOL     OW 7782   4.429   5.306   4.242 -0.5726  0.5934  0.0505
 2321SOL    HW1 7783   4.340   5.269   4.268 -0.8445  1.0545 -0.2167
 2321SOL    HW2 7784   4.440   5.301   4.143 -0.5183  1.0248  0.0343
 2322SOL     OW 7785   1.024   4.610   3.046 -0.6164 -0.0798  0.2467
 2322SOL    HW1 7786   0.944   4.552   3.031 -0.2596 -0.2624 -1.0128
 2322SOL    HW2 7787   1.067   4.585   3.133 -1.4485 -0.5324  0.5385
 2323SOL     OW 7788   1.713   2.099   0.680 -0.3095  0.7038  0.3230
 2323SOL    HW1 7789   1.800   2.050   0.674 -0.9414 -0.9507  3.0547
 2323SOL    HW2 7790   1.710   2.151   0.765 -1.9635  0.7624  0.2603
 2324SOL     OW 7791   4.807   1.221   3.496  0.6340 -0.4216 -0.3000
 2324SOL    HW1 7792   4.843   1.308   3.462  0.1586 -0.0493  0.1265
 2324SOL    HW2 7793   4.821   1.150   3.427 -2.1117  0.7097 -2.2058
 2325SOL     OW 7794   4.535   1.582   0.441 -0.1787  0.3439 -0.3034
 2325SOL    HW1 7795   4.463   1.561   0.375 -1.9216 -0.6540  1.7975
 2325SOL    HW2 7796   4.623   1.549   0.406 -1.1703 -0.9341 -1.7183
 2326SOL     OW 7797   0.815   6.151   5.075 -0.4441  0.0561 -0.2867
 2326SOL    HW1 7798   0.870   6.233   5.063  3.9491 -2.4420  0.4326
 2326SOL    HW2 7799   0.835   6.086   5.002 -2.5085 -1.0598  0.0445
 2327SOL     OW 7800   5.159   0.855   6.974  0.0537 -0.3736  0.2929
 2327SOL    HW1 7801   5.204   0.800   6.903 -0.2676  1.3689 -1.3522
 2327SOL    HW2 7802   5.119   0.794   7.042  1.7731 -2.0831 -0.1130
 2328SOL     OW 7803   4.150   1.229   3.737  0.3865 -0.1161  0.2397
 2328SOL    HW1 7804   4.182   1.320   3.764 -1.3579  0.2659  1.1806
 2328SOL    HW2 7805   4.197   1.199   3.654  0.4924  1.9476 -0.4883
 2329SOL     OW 7806   2.279   0.758   0.556 -0.2853 -0.1645  0.0196
 2329SOL    HW1 7807   2.202   0.819   0.574 -1.7020 -2.2008  1.2756
 2329SOL    HW2 7808   2.322   0.732   0.643  1.1878  0.1065 -0.5939
 2330SOL     OW 7809   1.350   0.316   6.087 -0.1363  0.1222  0.5205
 2330SOL    HW1 7810   1.436   0.358   6.118  0.4421 -1.3454  0.9928
 2330SOL    HW2 7811   1.322   0.359   6.001  0.2042  1.7260  1.1646
 2331SOL     OW 7812   2.807   1.662   4.854 -0.4406 -0.2135 -0.0098
 2331SOL    HW1 7813   2.856   1.748   4.843  0.1086 -0.2912  1.5732
 2331SOL    HW2 7814   2.781   1.627   4.764 -0.3643  1.4134 -0.7059
 2332SOL     OW 7815   2.565   1.624   7.015  0.3960  0.1639 -0.5985
 2332SOL    HW1 7816   2.523   1.631   6.924 -0.4063 -0.2395 -0.2403
 2332SOL    HW2 7817   2.639   1.556   7.012  0.6112  0.4105 -1.0039
 2333SOL     OW 7818   5.619   1.005   3.983 -0.2408 -0.0186  0.0845
 2333SOL    HW1 7819   5.628   0.964   3.893 -0.2127  0.7139 -0.2497
 2333SOL    HW2 7820   5.598   1.103   3.974 -1.8193 -0.2453  0.8440
 2334SOL     OW 7821   0.110   5.485   4.367 -0.9443 -0.0085 -0.4949
 2334SOL    HW1 7822   0.125   5.554   4.296 -0.3261  0.2419 -0.1308
 2334SOL    HW2 7823   0.114   5.394   4.325 -2.3329  0.1771 -1.0784
 2335SOL     OW 7824   3.750   4.883   5.185 -0.0033 -0.3548 -0.0388
 2335SOL    HW1 7825   3.781   4.792   5.158  1.3052 -0.0363  0.2707
 2335SOL    HW2 7826   3.731   4.883   5.283  2.7791  0.3484  0.5924
 2336SOL     OW 7827   4.550   0.602   2.779 -0.6049  0.1572 -0.0071
 2336SOL    HW1 7828   4.481   0.644   2.838  1.3504 -0.4806  2.9138
 2336SOL    HW2 7829   4.529   0.505   2.767  0.3189 -0.2965  1.8116
 2337SOL     OW 7830   2.304   2.956   5.290 -0.0497  0.2639  0.0387
 2337SOL    HW1 7831   2.375   2.924   5.228  0.5187 -0.5090  1.0633
 2337SOL    HW2 7832   2.315   2.913   5.379 -1.3442  0.7204  0.4492
 2338SOL     OW 7833   3.997   1.855   0.821 -0.5326  0.2715 -0.2722
 2338SOL    HW1 7834   3.962   1.896   0.906  0.5611  1.0769 -0.1798
 2338SOL    HW2 7835   3.978   1.757   0.821 -1.1424  0.3717  0.5973
 2339SOL     OW 7836   1.842   3.273   0.605 -0.0096  0.2186 -0.0784
 2339SOL    HW1 7837   1.813   3.320   0.688  1.0745 -0.2001  0.5466
 2339SOL    HW2 7838   1.784   3.302   0.529  0.1274  2.0012  0.4390
 2340SOL     OW 7839   6.940   3.369   4.668 -0.0649  0.4704 -0.1072
 2340SOL    HW1 7840   6.926   3.443   4.603 -0.8292  1.8571  1.5470
 2340SOL    HW2 7841   6.959   3.407   4.759 -0.7625 -1.3389  0.8641
 2341SOL     OW 7842   3.155   5.023   5.266 -0.0174  0.4052  0.3878
 2341SOL    HW1 7843   3.197   4.967   5.337  1.5333 -0.4853 -1.1540
 2341SOL    HW2 7844   3.146   5.117   5.298  0.5936  0.0076  1.7714
 2342SOL     OW 7845   2.646   0.323   2.287  0.4513  0.2509  0.0202
 2342SOL    HW1 7846   2.628   0.398   2.223 -1.9397 -1.0418 -0.9385
 2342SOL    HW2 7847   2.702   0.357   2.363 -0.7230  3.0695 -0.2630
 2343SOL     OW 7848   4.570   6.042   5.862  0.1879  0.2744 -0.0079
 2343SOL    HW1 7849   4.572   6.140   5.844 -1.1131 -0.0457 -2.2840
 2343SOL    HW2 7850   4.476   6.009   5.858  0.5698 -1.0169  0.9787
 2344SOL     OW 7851   1.434   3.486   5.933 -0.7172  0.1131  0.2853
 2344SOL    HW1 7852   1.478   3.540   5.861  0.2420 -0.6948  0.2549
 2344SOL    HW2 7853   1.414   3.394   5.898 -0.9750 -0.0308  0.8067
 2345SOL     OW 7854   0.736   1.701   2.582 -0.6349  0.5947 -0.8408
 2345SOL    HW1 7855   0.736   1.615   2.634 -1.8671  0.1000 -1.6262
 2345SOL    HW2 7856   0.782   1.772   2.636  0.4472 -0.5489 -0.1889
 2346SOL     OW 7857   4.366   3.307   6.983 -0.0106 -0.0229 -0.4816
 2346SOL    HW1 7858   4.385   3.377   6.914 -1.2120 -0.0121 -0.8305
 2346SOL    HW2 7859   4.397   3.340   7.072 -0.3673  0.8929 -0.6996
 2347SOL     OW 7860   6.379   0.896   3.635 -0.0368  0.1740  0.1195
 2347SOL    HW1 7861   6.287   0.934   3.642  1.0720  3.2729 -0.7070
 2347SOL    HW2 7862   6.404   0.885   3.539  0.8938  0.5744  0.3048
 2348SOL     OW 7863   1.949   1.012   5.367  0.6840  0.2224  0.3738
 2348SOL    HW1 7864   1.998   0.984   5.449  0.0009 -1.6693  0.1653
 2348SOL    HW2 7865   2.007   1.074   5.314  2.2056 -0.6534  0.9335
 2349SOL     OW 7866   1.753   4.256   3.988  0.3115 -0.4029 -0.6518
 2349SOL    HW1 7867   1.731   4.233   4.082  0.4594  0.7999 -0.2963
 2349SOL    HW2 7868   1.813   4.186   3.949  2.2122  0.2523  0.9438
 2350SOL     OW 7869   5.095   5.434   3.155 -0.5614 -0.0971  0.3829
 2350SOL    HW1 7870   5.099   5.515   3.097 -0.8521 -0.1049  0.3462
 2350SOL    HW2 7871   5.153   5.362   3.117  0.1101  0.2713  0.6996
 2351SOL     OW 7872   6.588   0.266   2.117  0.0408  0.1290  0.3938
 2351SOL    HW1 7873   6.662   0.262   2.050 -1.5992  1.3272 -1.6400
 2351SOL    HW2 7874   6.564   0.361   2.135 -0.9133 -0.2304  1.1159
 2352SOL     OW 7875   1.005   2.512   5.050  0.2982  0.5453 -0.2581
 2352SOL    HW1 7876   0.954   2.430   5.024  1.5646 -0.7712  1.2031
 2352SOL    HW2 7877   1.009   2.518   5.150 -1.6562  3.6377 -0.2200
 2353SOL     OW 7878   1.989   0.624   2.387 -0.0895  0.7617 -0.7326
 2353SOL    HW1 7879   2.002   0.693   2.315 -0.1378  1.8364  0.2652
 2353SOL    HW2 7880   2.078   0.591   2.418  0.1836  3.2286  1.4402
 2354SOL     OW 7881   1.004   5.144   2.073 -0.3118  0.1608  0.1373
 2354SOL    HW1 7882   1.064   5.074   2.035 -0.0518  0.0408  0.7559
 2354SOL    HW2 7883   1.057   5.228   2.090 -0.3695  0.1399  0.4456
 2355SOL     OW 7884   6.905   1.227   1.579  0.4628  0.1556 -0.1878
 2355SOL    HW1 7885   6.950   1.190   1.498  0.0472 -0.7257 -0.0223
 2355SOL    HW2 7886   6.962   1.213   1.659  0.5443  0.3695 -0.2060
 2356SOL     OW 7887   6.665   0.447   3.034  0.2777 -0.2977 -0.2080
 2356SOL    HW1 7888   6.709   0.513   3.094 -0.7517  1.1934 -1.0372
 2356SOL    HW2 7889   6.730   0.418   2.963  0.4610  0.5592 -0.3992
 2357SOL     OW 7890   6.736   6.888   6.637 -0.2672  1.0053 -0.3522
 2357SOL    HW1 7891   6.731   6.871   6.539 -0.3439  0.5470 -0.2713
 2357SOL    HW2 7892   6.663   6.950   6.665 -1.8597 -0.9066 -0.1520
 2358SOL     OW 7893   2.015   4.900   0.028  0.6334 -0.2175 -0.7452
 2358SOL    HW1 7894   2.076   4.978   0.018 -1.2647  1.4003 -0.3471
 2358SOL    HW2 7895   1.947   4.901  -0.046 -0.4458 -0.4751  0.2108
 2359SOL     OW 7896   6.550   2.696   3.198 -0.5226  0.5627  0.0292
 2359SOL    HW1 7897   6.469   2.695   3.257 -0.8065  0.8192 -0.3480
 2359SOL    HW2 7898   6.621   2.752   3.239 -0.4634  0.1755  0.4595
 2360SOL     OW 7899   3.790   4.839   5.886 -0.3281  0.0534  0.0779
 2360SOL    HW1 7900   3.824   4.750   5.855  2.4597  1.2186 -0.4903
 2360SOL    HW2 7901   3.780   4.837   5.986 -0.2609 -0.8796  0.0752
 2361SOL     OW 7902   6.969   5.854   3.148  0.1249 -0.6899  1.0319
 2361SOL    HW1 7903   6.982   5.869   3.050 -0.3822 -0.9098  0.9251
 2361SOL    HW2 7904   7.037   5.789   3.181  0.1926 -0.7131  0.7980
 2362SOL     OW 7905   5.155   2.894   2.495 -0.1527 -0.2140  0.0384
 2362SOL    HW1 7906   5.247   2.879   2.460  0.2284  1.8844  0.0566
 2362SOL    HW2 7907   5.151   2.869   2.592  0.7234  0.8344  0.3524
 2363SOL     OW 7908   4.024   1.387   6.996  0.0096 -0.5034  0.3630
 2363SOL    HW1 7909   4.047   1.455   7.065 -0.2337 -1.2701  1.1924
 2363SOL    HW2 7910   3.999   1.432   6.911  1.7147  0.4237  0.3301
 2364SOL     OW 7911   2.797   6.014   5.089  0.3428  0.4530 -0.0930
 2364SOL    HW1 7912   2.820   5.958   5.169  0.0177  0.3398 -0.0723
 2364SOL    HW2 7913   2.866   6.085   5.078 -0.8501  2.0167  1.7550
 2365SOL     OW 7914   0.562   6.351   4.936  0.3782 -0.2464 -1.0264
 2365SOL    HW1 7915   0.512   6.412   4.875 -1.3322  0.6709  1.1565
 2365SOL    HW2 7916   0.654   6.387   4.952  0.6372 -0.1891 -2.5199
 2366SOL     OW 7917   2.158   5.936   1.900  0.0454  0.6999 -0.3195
 2366SOL    HW1 7918   2.220   6.012   1.880  2.1106 -0.3630  1.5151
 2366SOL    HW2 7919   2.125   5.944   1.994 -0.0182 -0.4556 -0.2278
 2367SOL     OW 7920   0.299   4.384   0.027 -0.2107 -0.3823 -0.6212
 2367SOL    HW1 7921   0.210   4.352   0.060 -0.8269  1.4989 -0.2932
 2367SOL    HW2 7922   0.356   4.407   0.106  0.1599 -0.6009 -0.8280
 2368SOL     OW 7923   0.253   2.304   2.115  0.4735  0.4881  0.1609
 2368SOL    HW1 7924   0.235   2.281   2.210 -0.2373  0.8203  0.1056
 2368SOL    HW2 7925   0.295   2.225   2.069  0.2065  0.1030  0.5746
 2369SOL     OW 7926   0.213   4.986   6.888 -0.3854  0.2479  0.7032
 2369SOL    HW1 7927   0.212   4.978   6.988  1.7349 -1.4303  0.6817
 2369SOL    HW2 7928   0.136   4.936   6.850 -0.2301 -0.6265  1.4828
 2370SOL     OW 7929   2.417   1.598   4.852  0.1870  0.4707 -0.1710
 2370SOL    HW1 7930   2.451   1.552   4.934 -1.7455  2.5331  1.9712
 2370SOL    HW2 7931   2.452   1.552   4.771  1.8897 -1.9516  1.7653
 2371SOL     OW 7932   4.036   0.154   1.104  0.4198 -0.2531  0.5629
 2371SOL    HW1 7933   3.941   0.139   1.079  1.0282  0.0934 -2.4229
 2371SOL    HW2 7934   4.082   0.067   1.120 -0.5081 -0.3885  2.7783
 2372SOL     OW 7935   6.234   1.694   3.966 -0.3136  0.5312 -0.4925
 2372SOL    HW1 7936   6.172   1.771   3.977 -0.8621 -0.1453  1.8138
 2372SOL    HW2 7937   6.181   1.611   3.947 -0.1095  0.0950  0.7127
 2373SOL     OW 7938   5.231   3.479   5.146  0.1704  0.1491  0.1729
 2373SOL    HW1 7939   5.272   3.420   5.075 -1.4461 -1.0661  0.2038
 2373SOL    HW2 7940   5.193   3.561   5.103  1.8510  0.9158  0.0467
 2374SOL     OW 7941   0.126   5.138   2.842 -0.6079 -0.1168  0.0265
 2374SOL    HW1 7942   0.223   5.122   2.826  0.1490  1.6835  2.2521
 2374SOL    HW2 7943   0.096   5.086   2.922 -1.6839 -1.1213 -0.9791
 2375SOL     OW 7944   7.012   6.866   0.572  0.3913 -0.2347 -0.2118
 2375SOL    HW1 7945   6.973   6.787   0.523  2.5722 -1.3742 -0.2489
 2375SOL    HW2 7946   7.051   6.930   0.505  1.7303 -0.8843 -0.0818
 2376SOL     OW 7947   3.119   5.578   4.166  0.3109  0.5257 -0.6712
 2376SOL    HW1 7948   3.123   5.625   4.254  0.4121 -0.2705 -0.2496
 2376SOL    HW2 7949   3.149   5.641   4.094  0.5637  1.0710 -0.1030
 2377SOL     OW 7950   2.657   3.299   0.116 -0.3462  0.2929 -0.4067
 2377SOL    HW1 7951   2.720   3.235   0.160 -1.8255  0.6162  2.4606
 2377SOL    HW2 7952   2.705   3.383   0.091  0.5341  0.2123  0.9337
 2378SOL     OW 7953   0.856   1.380   4.646  0.6625  0.3295  0.3532
 2378SOL    HW1 7954   0.793   1.328   4.703  1.1648 -0.3880  0.2733
 2378SOL    HW2 7955   0.806   1.449   4.594  0.3849  2.4463  3.1490
 2379SOL     OW 7956   4.676   1.290   0.170 -0.3449  0.6302 -0.2564
 2379SOL    HW1 7957   4.709   1.208   0.122  2.4156  0.4510  1.7148
 2379SOL    HW2 7958   4.578   1.281   0.188 -0.3292 -1.7415 -1.0180
 2380SOL     OW 7959   5.375   4.988   1.281 -0.1100 -0.8869 -0.0804
 2380SOL    HW1 7960   5.392   5.086   1.273  1.3585 -1.1066 -0.0295
 2380SOL    HW2 7961   5.457   4.938   1.253 -0.1359 -2.0486  1.7543
 2381SOL     OW 7962   2.427   1.629   1.975 -0.6625  0.7072  0.0358
 2381SOL    HW1 7963   2.446   1.682   1.892  1.3370  0.9769  0.5972
 2381SOL    HW2 7964   2.413   1.692   2.052 -0.9703  0.4459  0.1953
 2382SOL     OW 7965   3.273   4.429   6.308  0.3071  0.0317 -0.1321
 2382SOL    HW1 7966   3.332   4.490   6.256  1.5913 -1.6867 -0.7855
 2382SOL    HW2 7967   3.324   4.388   6.383 -0.2918 -0.7700 -0.1369
 2383SOL     OW 7968   1.190   1.805   0.653  0.1667 -0.0439  0.2668
 2383SOL    HW1 7969   1.167   1.711   0.625  1.0769 -0.5454  1.1306
 2383SOL    HW2 7970   1.271   1.836   0.602 -0.7584  0.6940 -0.7971
 2384SOL     OW 7971   2.445   6.004   6.075 -0.4315 -0.0911  0.4179
 2384SOL    HW1 7972   2.485   6.073   6.136  0.0728 -0.4555  0.5057
 2384SOL    HW2 7973   2.428   5.920   6.127  1.1065 -0.8160 -0.1951
 2385SOL     OW 7974   6.605   1.388   5.048  0.1591  0.0441 -0.5416
 2385SOL    HW1 7975   6.643   1.477   5.026 -0.0614 -0.0650 -1.4041
 2385SOL    HW2 7976   6.507   1.387   5.027 -0.0362 -0.0998  0.3655
 2386SOL     OW 7977   3.459   2.172   6.677  0.0020 -1.0318  0.1368
 2386SOL    HW1 7978   3.392   2.236   6.640 -0.3991 -0.2021  2.1379
 2386SOL    HW2 7979   3.527   2.151   6.607  0.8033  2.5054 -0.3397
 2387SOL     OW 7980   0.559   0.187   4.280 -0.9191 -0.0512 -0.0369
 2387SOL    HW1 7981   0.461   0.194   4.296 -0.3442  0.3650  4.3457
 2387SOL    HW2 7982   0.602   0.275   4.299  0.5414 -0.8575  0.5498
 2388SOL     OW 7983   6.427   3.720   4.598  0.2211 -0.0139  0.5968
 2388SOL    HW1 7984   6.487   3.649   4.634  0.0606  0.5830  2.0791
 2388SOL    HW2 7985   6.402   3.784   4.670 -0.6308  0.8696 -0.4318
 2389SOL     OW 7986   5.860   3.363   1.138  0.0398 -0.1312  0.7137
 2389SOL    HW1 7987   5.845   3.454   1.100 -1.7636  0.1105  1.8577
 2389SOL    HW2 7988   5.881   3.370   1.235  0.1551 -0.9299  0.7569
 2390SOL     OW 7989   0.994   2.311   0.793 -0.0497  0.0916  0.2317
 2390SOL    HW1 7990   1.085   2.317   0.753  0.0689  2.1233  0.7063
 2390SOL    HW2 7991   0.926   2.301   0.719  0.4169  0.3683 -0.2397
 2391SOL     OW 7992   5.992   3.952   0.420  0.2637  0.0196  0.2177
 2391SOL    HW1 7993   6.060   4.023   0.406  1.7466 -1.2998  0.3833
 2391SOL    HW2 7994   5.920   3.960   0.352  1.1164  0.8406 -0.6061
 2392SOL     OW 7995   3.837   6.852   4.927  0.2661 -0.5975  0.4961
 2392SOL    HW1 7996   3.921   6.805   4.954  1.2448 -0.9663 -2.6943
 2392SOL    HW2 7997   3.773   6.785   4.889 -0.9961 -0.1441  1.7715
 2393SOL     OW 7998   5.952   4.780   4.623  0.5775 -0.1625  0.1135
 2393SOL    HW1 7999   5.998   4.823   4.545 -0.0586  0.0921 -0.1272
 2393SOL    HW2 8000   5.853   4.781   4.607  0.4335  0.0486  1.0042
 2394SOL     OW 8001   3.508   0.493   6.748 -0.2664 -0.1295 -0.1429
 2394SOL    HW1 8002   3.499   0.466   6.652  1.2346 -1.0857 -0.0361
 2394SOL    HW2 8003   3.431   0.455   6.800 -1.8150  1.4897 -1.1508
 2395SOL     OW 8004   3.810   4.456   5.982  0.2514 -0.8229 -0.4173
 2395SOL    HW1 8005   3.839   4.379   5.924  1.5921 -1.7128  1.3238
 2395SOL    HW2 8006   3.778   4.421   6.070 -2.6534  0.4207 -0.8625
 2396SOL     OW 8007   4.990   1.763   3.945 -0.2800  0.2869 -0.3660
 2396SOL    HW1 8008   5.039   1.751   3.859 -0.0473  1.5753 -0.4433
 2396SOL    HW2 8009   4.954   1.675   3.976  1.0450 -0.4722 -0.9214
 2397SOL     OW 8010   0.109   4.516   0.811  0.1915  0.0153  0.4397
 2397SOL    HW1 8011   0.172   4.539   0.737  0.0159 -0.5325  0.1151
 2397SOL    HW2 8012   0.158   4.516   0.899  0.1574  1.8476  0.5048
 2398SOL     OW 8013   3.232   6.856   4.569 -0.3747  0.0690  0.0867
 2398SOL    HW1 8014   3.157   6.789   4.570 -1.9977  1.7367 -2.1225
 2398SOL    HW2 8015   3.318   6.809   4.548 -1.3050 -1.4417 -0.4832
 2399SOL     OW 8016   2.195   1.708   0.424  0.0799 -0.6356  0.8541
 2399SOL    HW1 8017   2.155   1.768   0.354  2.3201 -1.0217 -0.9006
 2399SOL    HW2 8018   2.242   1.764   0.492 -0.4554 -0.3180  0.9802
 2400SOL     OW 8019   3.418   0.154   4.066  0.1051  0.3763 -0.6285
 2400SOL    HW1 8020   3.401   0.106   3.980 -0.8399 -0.2806 -0.0963
 2400SOL    HW2 8021   3.401   0.093   4.143  1.6799  0.7198  0.0525
 2401SOL     OW 8022   5.981   1.041   2.750 -0.3125 -0.3521 -0.2397
 2401SOL    HW1 8023   6.045   1.118   2.755  1.1237 -1.4972 -0.3100
 2401SOL    HW2 8024   5.994   0.982   2.829 -1.4877 -0.4831 -0.1247
 2402SOL     OW 8025   6.314   4.152   2.633 -0.3763 -0.2668 -0.0733
 2402SOL    HW1 8026   6.239   4.192   2.686  0.6081  0.6579  0.6745
 2402SOL    HW2 8027   6.335   4.212   2.556 -0.1992 -0.3661 -0.1017
 2403SOL     OW 8028   1.320   5.774   5.078 -0.2307 -0.1184  0.3099
 2403SOL    HW1 8029   1.396   5.836   5.058  0.7257 -1.6386 -1.0404
 2403SOL    HW2 8030   1.321   5.750   5.175 -1.6916  3.2510  1.2875
 2404SOL     OW 8031   1.659   4.707   1.042 -0.2430 -0.2906  0.5651
 2404SOL    HW1 8032   1.607   4.622   1.036  0.1520 -0.4798 -0.3247
 2404SOL    HW2 8033   1.741   4.699   0.986  0.3766  0.2691  1.3724
 2405SOL     OW 8034   6.922   4.823   0.281 -0.4936 -0.2588 -0.2559
 2405SOL    HW1 8035   6.923   4.742   0.339 -2.3139  0.1649  0.4787
 2405SOL    HW2 8036   6.862   4.807   0.203 -1.9684  0.7801  0.6143
 2406SOL     OW 8037   3.901   0.040   2.563  0.6214  0.5224  0.2292
 2406SOL    HW1 8038   3.929   0.131   2.531  0.7269 -0.0163 -1.3172
 2406SOL    HW2 8039   3.870  -0.015   2.485 -1.0187 -0.2392  1.3373
 2407SOL     OW 8040   6.522   0.931   5.272 -0.1141 -0.5663  0.0576
 2407SOL    HW1 8041   6.450   0.951   5.206 -0.1211  1.7462  0.7058
 2407SOL    HW2 8042   6.611   0.933   5.226 -0.3119 -1.7243 -0.4020
 2408SOL     OW 8043   4.726   3.142   5.356  0.1893  0.1531  0.7580
 2408SOL    HW1 8044   4.762   3.194   5.279  0.1510 -1.0694 -0.1113
 2408SOL    HW2 8045   4.801   3.116   5.417  0.5435 -0.7251 -0.0233
 2409SOL     OW 8046   4.225   1.958   2.859 -0.1583  0.0481 -0.1459
 2409SOL    HW1 8047   4.145   1.968   2.918 -0.3450 -1.0718 -0.1925
 2409SOL    HW2 8048   4.306   1.939   2.915 -0.3485 -1.0916 -0.2354
 2410SOL     OW 8049   2.806   4.008   1.163  0.7494  0.2302 -0.0056
 2410SOL    HW1 8050   2.748   4.015   1.244  1.6747 -0.4493  0.7415
 2410SOL    HW2 8051   2.767   4.063   1.089 -0.1152  0.8606  0.8921
 2411SOL     OW 8052   1.115   1.872   1.648  0.0769 -0.4994 -0.1277
 2411SOL    HW1 8053   1.046   1.827   1.706 -0.8622  0.8038 -0.1867
 2411SOL    HW2 8054   1.173   1.930   1.705  0.9562 -1.3460 -0.1268
 2412SOL     OW 8055   3.635   1.874   1.877 -0.5608 -0.0729 -0.6754
 2412SOL    HW1 8056   3.542   1.846   1.902 -0.1202 -0.7712  0.2089
 2412SOL    HW2 8057   3.697   1.796   1.885  0.2115  0.5187 -0.7383
 2413SOL     OW 8058   6.637   4.731   5.503 -0.2544  0.1264  0.6417
 2413SOL    HW1 8059   6.597   4.806   5.451  1.0485 -0.6952 -1.7314
 2413SOL    HW2 8060   6.725   4.760   5.541  0.5857 -0.3367 -0.8691
 2414SOL     OW 8061   3.474   3.311   5.941 -0.2835  0.7385  0.0707
 2414SOL    HW1 8062   3.499   3.285   6.035 -2.6067  1.7725  1.0433
 2414SOL    HW2 8063   3.393   3.259   5.913  0.7478 -0.0049 -1.6280
 2415SOL     OW 8064   1.395   5.384   0.025 -0.3707 -0.1223 -0.9103
 2415SOL    HW1 8065   1.313   5.429  -0.010 -1.0976  0.2540  1.1174
 2415SOL    HW2 8066   1.464   5.453   0.047 -0.7331 -0.1135  0.3016
 2416SOL     OW 8067   3.227   1.673   4.913  0.3969 -0.4244 -0.2784
 2416SOL    HW1 8068   3.225   1.747   4.979 -0.0907  1.8996 -2.7238
 2416SOL    HW2 8069   3.311   1.679   4.859 -0.1080 -1.0039 -1.1552
 2417SOL     OW 8070   0.781   4.286   5.138  0.4550 -0.5039 -0.1156
 2417SOL    HW1 8071   0.877   4.269   5.118  1.2148 -0.3803  2.8859
 2417SOL    HW2 8072   0.769   4.381   5.167 -0.5245 -0.5807 -0.2390
 2418SOL     OW 8073   2.987   0.038   5.559 -0.1179 -0.2468 -0.3361
 2418SOL    HW1 8074   3.080   0.070   5.541  0.3359 -1.1637  0.2982
 2418SOL    HW2 8075   2.929   0.116   5.579  0.7571  0.2523  0.3222
 2419SOL     OW 8076   1.878   2.884   4.932 -0.1911 -0.8493  0.4659
 2419SOL    HW1 8077   1.894   2.820   5.007  0.4290  1.4669  2.4249
 2419SOL    HW2 8078   1.897   2.977   4.963 -1.8545  0.4155 -2.0117
 2420SOL     OW 8079   3.405   0.956   1.227  0.8573  0.6790 -0.7187
 2420SOL    HW1 8080   3.430   0.899   1.148  1.3440  0.9470 -0.7611
 2420SOL    HW2 8081   3.310   0.986   1.218  0.3924 -0.6349 -0.3942
 2421SOL     OW 8082   5.517   2.696   4.953 -0.6304  0.4785 -0.5482
 2421SOL    HW1 8083   5.486   2.744   4.871 -2.7278 -1.2232 -0.8523
 2421SOL    HW2 8084   5.496   2.599   4.945  1.1432 -0.1218  1.1101
 2422SOL     OW 8085   5.720   6.509   5.825  0.0370 -0.0594  0.5753
 2422SOL    HW1 8086   5.734   6.522   5.923  0.5993 -1.6909  0.7525
 2422SOL    HW2 8087   5.640   6.451   5.811  0.6366 -0.7927  0.1290
 2423SOL     OW 8088   5.435   5.757   1.852 -0.3237  0.6745 -0.0189
 2423SOL    HW1 8089   5.367   5.803   1.795 -0.4720 -0.5716 -0.9083
 2423SOL    HW2 8090   5.458   5.669   1.810  0.2055  0.1032  1.4190
 2424SOL     OW 8091   4.256   5.294   5.720  0.1272 -0.4058  0.6010
 2424SOL    HW1 8092   4.243   5.204   5.762 -1.5155 -0.0474  0.9404
 2424SOL    HW2 8093   4.193   5.359   5.763  0.1190  0.5213 -0.7857
 2425SOL     OW 8094   3.489   6.802   4.793  0.0478 -0.3226 -0.0623
 2425SOL    HW1 8095   3.533   6.873   4.739 -0.1795  0.3064  0.5741
 2425SOL    HW2 8096   3.432   6.843   4.864  0.1006 -1.1334  0.4761
 2426SOL     OW 8097   4.612   1.248   1.277 -0.6296  0.3169  0.3544
 2426SOL    HW1 8098   4.660   1.301   1.207 -1.7628  0.0007 -0.6956
 2426SOL    HW2 8099   4.678   1.189   1.325  0.0720 -0.0252 -0.9710
 2427SOL     OW 8100   6.429   5.060   6.235  0.2299  0.6802 -0.2732
 2427SOL    HW1 8101   6.433   5.152   6.198 -2.1102  1.3795  0.9750
 2427SOL    HW2 8102   6.356   5.055   6.303  1.2105 -1.7552  0.7126
 2428SOL     OW 8103   2.423   6.810   5.866 -0.0085 -0.5546  0.2560
 2428SOL    HW1 8104   2.424   6.907   5.839  1.5029 -0.3959  0.7796
 2428SOL    HW2 8105   2.329   6.778   5.873 -0.5834  1.1868  1.1365
 2429SOL     OW 8106   3.996   5.464   1.281  0.1625 -0.1789 -0.3978
 2429SOL    HW1 8107   4.041   5.399   1.221 -0.7286 -0.9709 -0.2391
 2429SOL    HW2 8108   4.053   5.482   1.361  1.4768  1.0790 -1.5675
 2430SOL     OW 8109   5.137   4.867   0.094  0.1738  0.1724  0.5345
 2430SOL    HW1 8110   5.075   4.934   0.134 -0.8612 -0.4826  0.0750
 2430SOL    HW2 8111   5.114   4.776   0.128  2.6123  0.1630  2.4445
 2431SOL     OW 8112   1.436   6.594   4.926  0.1596 -0.2238 -0.1914
 2431SOL    HW1 8113   1.406   6.688   4.942  0.5350 -0.3202  1.3075
 2431SOL    HW2 8114   1.466   6.554   5.013 -0.9094 -2.0687 -0.6210
 2432SOL     OW 8115   1.528   0.936   5.408 -0.5917 -0.2694 -0.2401
 2432SOL    HW1 8116   1.486   0.975   5.490 -0.0820  1.7250 -0.8662
 2432SOL    HW2 8117   1.465   0.870   5.367 -0.8878 -1.2606  1.6694
 2433SOL     OW 8118   2.604   6.502   3.282  0.2128  0.2335  0.0338
 2433SOL    HW1 8119   2.667   6.424   3.284  0.1225  0.1583  1.2695
 2433SOL    HW2 8120   2.635   6.569   3.214  0.1473 -0.9797 -1.2367
 2434SOL     OW 8121   1.516   6.359   4.511  0.2077 -0.0257 -0.5478
 2434SOL    HW1 8122   1.584   6.415   4.558 -0.4013  0.7782 -0.6181
 2434SOL    HW2 8123   1.476   6.411   4.436 -1.2712 -0.0926  0.1718
 2435SOL     OW 8124   5.795   3.893   0.902 -0.1126 -0.4676 -0.5697
 2435SOL    HW1 8125   5.888   3.890   0.939 -0.3169 -0.7894 -0.0784
 2435SOL    HW2 8126   5.796   3.858   0.809  0.4630  0.6516 -1.0077
 2436SOL     OW 8127   6.136   0.447   6.994 -0.8855  0.7248  0.2784
 2436SOL    HW1 8128   6.080   0.523   6.962  0.2952  1.6645  0.3937
 2436SOL    HW2 8129   6.184   0.405   6.917 -0.7238  0.7741  0.3485
 2437SOL     OW 8130   0.153   1.257   4.175 -0.0282 -0.0919  0.2217
 2437SOL    HW1 8131   0.062   1.220   4.163 -0.6038  1.6067 -1.3504
 2437SOL    HW2 8132   0.212   1.190   4.220 -1.6997 -1.7059  0.1173
 2438SOL     OW 8133   5.199   2.671   3.200 -0.8335  0.1363  0.2028
 2438SOL    HW1 8134   5.137   2.749   3.203 -1.0855  0.0160 -1.0751
 2438SOL    HW2 8135   5.275   2.692   3.138 -1.4071 -0.9659 -0.9139
 2439SOL     OW 8136   0.619   5.316   2.341 -0.0284 -0.6679 -0.1230
 2439SOL    HW1 8137   0.708   5.312   2.296 -0.1997 -1.0386 -0.4393
 2439SOL    HW2 8138   0.617   5.393   2.405 -0.4125  1.0191 -2.0725
 2440SOL     OW 8139   2.736   0.030   2.479  0.1353  0.1239 -0.2140
 2440SOL    HW1 8140   2.750  -0.025   2.396  1.0290  1.6460 -1.1075
 2440SOL    HW2 8141   2.820   0.082   2.498  0.9326 -2.0396  3.1139
 2441SOL     OW 8142   0.397   0.827   4.662 -0.2408  0.3726 -0.5297
 2441SOL    HW1 8143   0.427   0.919   4.686  1.0887  0.0533 -0.8847
 2441SOL    HW2 8144   0.330   0.795   4.729  1.4569  0.4775  1.3068
 2442SOL     OW 8145   0.283   4.642   1.733 -0.1806  0.0635 -0.4382
 2442SOL    HW1 8146   0.257   4.635   1.637 -1.4707  0.0334 -0.1036
 2442SOL    HW2 8147   0.380   4.621   1.743 -0.0472  0.0069 -1.7164
 2443SOL     OW 8148   0.219   5.310   6.445 -0.2997 -0.4512 -0.1244
 2443SOL    HW1 8149   0.229   5.392   6.502  0.8065 -0.8647  0.3048
 2443SOL    HW2 8150   0.175   5.237   6.497  0.7013 -0.8262  0.2209
 2444SOL     OW 8151   3.320   4.810   0.661  0.0653 -0.1373  0.0663
 2444SOL    HW1 8152   3.265   4.844   0.585 -1.3239 -0.8819  0.7106
 2444SOL    HW2 8153   3.405   4.864   0.667 -0.0465  0.2828 -1.6413
 2445SOL     OW 8154   3.713   0.009   6.421  0.2688  0.0824  0.3515
 2445SOL    HW1 8155   3.650   0.026   6.497  1.0440 -0.1308  1.0504
 2445SOL    HW2 8156   3.733   0.095   6.375 -1.1669  0.0081 -0.3860
 2446SOL     OW 8157   4.770   1.915   0.423  0.4704 -0.3685  0.3213
 2446SOL    HW1 8158   4.803   1.865   0.343 -0.8981 -0.4865 -0.1865
 2446SOL    HW2 8159   4.747   2.008   0.397 -0.4495 -0.5487  0.4555
 2447SOL     OW 8160   6.302   5.283   6.663  0.5282 -0.4881 -0.6928
 2447SOL    HW1 8161   6.242   5.331   6.727  0.7821  0.4918 -1.1776
 2447SOL    HW2 8162   6.314   5.189   6.693 -1.3929 -0.7686 -0.6725
 2448SOL     OW 8163   1.911   3.469   1.502  0.0924  0.2024 -0.3187
 2448SOL    HW1 8164   2.000   3.491   1.541 -0.6377  0.8743  1.0224
 2448SOL    HW2 8165   1.850   3.433   1.573 -0.9167  0.3233 -1.0807
 2449SOL     OW 8166   1.516   5.787   4.270 -0.7238  0.7050  0.1365
 2449SOL    HW1 8167   1.601   5.739   4.292 -1.1684  0.0945  0.5324
 2449SOL    HW2 8168   1.538   5.875   4.228  0.1129  0.9122  0.9731
 2450SOL     OW 8169   4.945   1.088   5.750  0.0299  0.2563  0.2052
 2450SOL    HW1 8170   4.895   1.127   5.826 -0.9812  1.3946 -1.0008
 2450SOL    HW2 8171   5.004   1.158   5.709 -1.5602  0.5610 -1.7809
 2451SOL     OW 8172   4.450   3.601   2.549 -1.0037 -0.1181  0.4167
 2451SOL    HW1 8173   4.443   3.509   2.588 -1.7801  0.3942  1.5275
 2451SOL    HW2 8174   4.446   3.668   2.623 -0.3353  0.8091 -0.3776
 2452SOL     OW 8175   3.088   5.707   1.907  0.1952  0.0161 -0.2852
 2452SOL    HW1 8176   3.183   5.698   1.876  0.3461 -1.3284  0.5007
 2452SOL    HW2 8177   3.028   5.657   1.845 -0.1326  1.5700 -1.2724
 2453SOL     OW 8178   6.757   2.180   0.310 -0.3427 -0.0263 -0.0739
 2453SOL    HW1 8179   6.807   2.190   0.396  3.2377 -1.0537 -1.8827
 2453SOL    HW2 8180   6.688   2.109   0.320  1.1300 -1.3196  1.5228
 2454SOL     OW 8181   4.065   6.701   3.718 -0.2149 -0.3851 -0.4716
 2454SOL    HW1 8182   4.075   6.651   3.632 -0.5361 -0.7544 -0.3024
 2454SOL    HW2 8183   4.139   6.675   3.781 -0.6911 -1.0725 -0.1829
 2455SOL     OW 8184   3.064   3.172   4.615  0.2209  0.0558 -0.1083
 2455SOL    HW1 8185   2.983   3.229   4.612  0.0273 -0.0802  1.7251
 2455SOL    HW2 8186   3.052   3.094   4.553 -0.8806  0.2470 -0.1481
 2456SOL     OW 8187   3.378   5.038   5.063 -0.4221 -0.2011  0.1080
 2456SOL    HW1 8188   3.351   5.112   5.001 -0.3709 -0.6945 -0.5071
 2456SOL    HW2 8189   3.300   5.012   5.120 -0.9465 -0.8348 -0.8615
 2457SOL     OW 8190   1.420   5.307   5.769  1.0641  0.1840  0.1498
 2457SOL    HW1 8191   1.360   5.273   5.842  1.2113 -0.2329  0.0806
 2457SOL    HW2 8192   1.413   5.247   5.689  1.5133  0.1784  0.1113
 2458SOL     OW 8193   3.500   5.702   3.851 -0.2009  0.2760 -0.0892
 2458SOL    HW1 8194   3.469   5.724   3.944  0.6760 -1.1616  0.5794
 2458SOL    HW2 8195   3.471   5.774   3.788 -0.3628  1.5371  1.3778
 2459SOL     OW 8196   4.070   4.267   3.069 -0.1698 -0.0544  0.0414
 2459SOL    HW1 8197   4.097   4.308   3.156 -0.7201 -0.1237  0.2515
 2459SOL    HW2 8198   3.974   4.240   3.073  0.3672 -2.1248  0.2041
 2460SOL     OW 8199   3.853   4.632   1.100 -0.0637  0.3991 -0.1693
 2460SOL    HW1 8200   3.847   4.603   1.005  0.2406 -0.7978  0.1596
 2460SOL    HW2 8201   3.888   4.726   1.104 -0.8279  0.7525 -1.2565
 2461SOL     OW 8202   0.622   1.945   5.264 -0.2182  0.3981  0.4390
 2461SOL    HW1 8203   0.605   2.040   5.239 -0.2797 -0.5130 -3.6518
 2461SOL    HW2 8204   0.701   1.911   5.214  1.1454 -1.2091  3.4562
 2462SOL     OW 8205   1.009   5.390   2.743 -0.7218 -0.2232  0.2337
 2462SOL    HW1 8206   1.092   5.437   2.774 -0.6167 -0.0737 -0.2619
 2462SOL    HW2 8207   1.024   5.291   2.746  0.4161 -0.2174 -2.2359
 2463SOL     OW 8208   4.806   3.804   1.820 -0.5909  0.1780 -0.3350
 2463SOL    HW1 8209   4.794   3.707   1.797  1.1831 -0.3605  0.7919
 2463SOL    HW2 8210   4.885   3.840   1.771 -0.9542  0.9441 -0.3739
 2464SOL     OW 8211   1.474   4.554   2.341  0.7826  0.6303  0.0925
 2464SOL    HW1 8212   1.527   4.596   2.415 -0.7822 -0.3898  1.8665
 2464SOL    HW2 8213   1.511   4.463   2.321 -0.4096 -0.2266  1.5701
 2465SOL     OW 8214   4.287   4.439   0.372  0.4787  0.2456  0.2591
 2465SOL    HW1 8215   4.286   4.345   0.406 -1.2926 -0.3234 -1.2028
 2465SOL    HW2 8216   4.196   4.464   0.340  1.3226  1.8469 -1.0515
 2466SOL     OW 8217   0.832   6.249   2.184 -0.5180  0.0626  0.1239
 2466SOL    HW1 8218   0.767   6.173   2.192  0.2322 -0.5794  0.3108
 2466SOL    HW2 8219   0.828   6.286   2.091 -0.7903 -0.3138 -0.0214
 2467SOL     OW 8220   3.892   0.213   2.930 -0.4804 -0.2140 -0.1862
 2467SOL    HW1 8221   3.875   0.261   2.844  3.3398  1.7313 -0.0633
 2467SOL    HW2 8222   3.834   0.252   3.002 -1.7475 -0.0038 -1.2771
 2468SOL     OW 8223   3.667   3.148   4.990 -0.1040  0.0609  0.2141
 2468SOL    HW1 8224   3.717   3.229   4.958  0.5394 -0.4954 -0.2125
 2468SOL    HW2 8225   3.605   3.175   5.064 -0.2438  1.0259 -0.2288
 2469SOL     OW 8226   3.114   6.574   3.790  0.6103 -0.6429 -0.0812
 2469SOL    HW1 8227   3.090   6.585   3.694 -0.7552 -2.5833 -0.0087
 2469SOL    HW2 8228   3.116   6.664   3.834  0.9572  0.2416 -1.8285
 2470SOL     OW 8229   2.535   0.567   4.789  0.2499  0.8520 -0.1611
 2470SOL    HW1 8230   2.449   0.516   4.786 -0.1603  1.3321  1.9253
 2470SOL    HW2 8231   2.514   0.664   4.803  1.1068  1.1787 -1.1052
 2471SOL     OW 8232   1.225   6.346   4.569  0.1326  0.2541 -0.1610
 2471SOL    HW1 8233   1.317   6.311   4.549  0.2261  0.2058  0.3159
 2471SOL    HW2 8234   1.159   6.306   4.506  0.3328 -0.2953 -0.0276
 2472SOL     OW 8235   1.638   2.815   0.659  0.2125 -0.3179  0.4021
 2472SOL    HW1 8236   1.694   2.761   0.722 -0.3298  0.0816  1.2514
 2472SOL    HW2 8237   1.608   2.899   0.704 -0.4300 -0.1571 -0.2889
 2473SOL     OW 8238   1.125   3.219   4.184 -0.3112  0.1146 -0.6271
 2473SOL    HW1 8239   1.049   3.157   4.202 -1.0775  0.8767 -1.1146
 2473SOL    HW2 8240   1.179   3.185   4.106 -2.8569  1.7906 -3.3707
 2474SOL     OW 8241   3.155   4.114   0.203  0.2491  0.4289 -0.3479
 2474SOL    HW1 8242   3.242   4.132   0.157  0.6392  1.0595  0.5985
 2474SOL    HW2 8243   3.173   4.079   0.295 -0.5156 -1.1309 -0.7704
 2475SOL     OW 8244   5.037   3.746   4.715 -0.1017 -0.2487 -0.1475
 2475SOL    HW1 8245   4.959   3.790   4.672 -0.2028  0.6617  0.9324
 2475SOL    HW2 8246   5.013   3.652   4.740 -0.6087 -0.2099 -0.4746
 2476SOL     OW 8247   1.135   2.924   3.155 -0.0647  0.1524  0.6269
 2476SOL    HW1 8248   1.146   2.840   3.208  0.5924 -0.4764 -0.4686
 2476SOL    HW2 8249   1.039   2.952   3.156 -0.8800 -2.1975 -1.2543
 2477SOL     OW 8250   2.177   5.160   6.082 -0.5279 -0.2736 -0.2355
 2477SOL    HW1 8251   2.218   5.068   6.081  0.7033  0.2370  0.8078
 2477SOL    HW2 8252   2.079   5.153   6.101 -0.6321 -1.4170 -1.0466
 2478SOL     OW 8253   5.007   0.148   1.403  0.2120 -0.4378  0.0665
 2478SOL    HW1 8254   4.941   0.154   1.328 -0.1921  2.2777  0.5527
 2478SOL    HW2 8255   5.093   0.111   1.368 -0.8277 -1.8937 -1.0727
 2479SOL     OW 8256   4.745   5.686   4.839 -0.6051 -0.2452 -0.0801
 2479SOL    HW1 8257   4.835   5.709   4.801 -0.7707 -1.6440 -1.4899
 2479SOL    HW2 8258   4.756   5.620   4.913 -0.3144  1.9723  1.9504
 2480SOL     OW 8259   2.101   5.490   1.929  0.0569 -0.6723  0.1533
 2480SOL    HW1 8260   2.079   5.437   1.847  0.4195 -1.5592  0.6278
 2480SOL    HW2 8261   2.092   5.432   2.010 -0.8271  0.3449  0.8010
 2481SOL     OW 8262   4.575   1.976   5.724  0.4065  0.2506 -0.0362
 2481SOL    HW1 8263   4.574   1.948   5.628  1.0529 -2.0137  0.5522
 2481SOL    HW2 8264   4.574   1.895   5.782 -2.1971  1.5550  1.9446
 2482SOL     OW 8265   6.156   2.413   0.228  0.3865 -0.1948 -0.3060
 2482SOL    HW1 8266   6.093   2.447   0.298  0.9330  0.1759  0.0168
 2482SOL    HW2 8267   6.226   2.482   0.210  0.6976 -0.5917 -0.6620
 2483SOL     OW 8268   2.940   5.824   2.085  0.3090  0.5492 -0.2615
 2483SOL    HW1 8269   2.979   5.883   2.155 -0.0681 -0.7030  1.0870
 2483SOL    HW2 8270   3.012   5.791   2.025  0.9850  0.1279  0.7413
 2484SOL     OW 8271   2.085   4.219   0.189 -0.2018 -0.0398 -0.4880
 2484SOL    HW1 8272   2.110   4.122   0.191 -2.0107 -0.5519 -0.7525
 2484SOL    HW2 8273   2.163   4.273   0.158  0.6946 -1.4613 -0.8169
 2485SOL     OW 8274   5.869   4.202   5.804 -0.6153 -0.6618 -0.1171
 2485SOL    HW1 8275   5.897   4.249   5.720 -1.4229  0.6733  0.3384
 2485SOL    HW2 8276   5.930   4.228   5.879 -0.4868 -1.0896 -0.0700
 2486SOL     OW 8277   6.285   3.793   3.095 -0.8752 -0.2830 -0.1839
 2486SOL    HW1 8278   6.305   3.707   3.048 -0.4377 -0.0276 -0.4682
 2486SOL    HW2 8279   6.248   3.859   3.029 -3.0733 -0.8601  0.3772
 2487SOL     OW 8280   4.654   3.550   1.245 -0.2209  0.1699  0.4071
 2487SOL    HW1 8281   4.646   3.451   1.253 -1.3899  0.3384  1.7901
 2487SOL    HW2 8282   4.619   3.593   1.329 -1.8120  1.8373 -1.0194
 2488SOL     OW 8283   3.804   6.040   3.454 -0.0707  0.7007 -0.2449
 2488SOL    HW1 8284   3.743   6.051   3.532 -1.0579  0.7010 -1.0017
 2488SOL    HW2 8285   3.820   6.129   3.411  0.4368  0.6955 -0.0748
 2489SOL     OW 8286   6.359   6.268   5.483  0.8162  0.1860 -0.2608
 2489SOL    HW1 8287   6.437   6.206   5.472  0.9006  0.6432 -2.6209
 2489SOL    HW2 8288   6.354   6.298   5.579  4.0750  0.8187 -0.1781
 2490SOL     OW 8289   0.509   3.187   5.844  0.0143 -0.0425 -0.4762
 2490SOL    HW1 8290   0.582   3.138   5.892  0.4740  0.3593 -0.7580
 2490SOL    HW2 8291   0.450   3.232   5.911 -0.9070 -1.6477 -0.1681
 2491SOL     OW 8292   4.568   2.123   2.814 -0.3307  0.1479 -0.1681
 2491SOL    HW1 8293   4.530   2.094   2.901 -1.5391  0.3976 -0.5951
 2491SOL    HW2 8294   4.631   2.053   2.780 -0.0474 -0.0695  0.7637
 2492SOL     OW 8295   5.477   0.087   2.145  0.1091  0.3940  0.3525
 2492SOL    HW1 8296   5.394   0.085   2.090  0.5723 -1.3727 -0.3424
 2492SOL    HW2 8297   5.495   0.180   2.175 -1.5794  0.9633 -0.3047
 2493SOL     OW 8298   2.552   6.407   4.618 -0.7549 -0.4187  0.3315
 2493SOL    HW1 8299   2.518   6.315   4.598 -0.7744 -0.3426 -0.0053
 2493SOL    HW2 8300   2.477   6.472   4.609 -0.0979  0.0614 -2.7538
 2494SOL     OW 8301   3.752   0.592   5.948  0.3687 -0.3792 -0.0033
 2494SOL    HW1 8302   3.727   0.672   6.004  0.0165 -0.7564  0.3854
 2494SOL    HW2 8303   3.680   0.523   5.955 -1.1131  0.6837 -3.1514
 2495SOL     OW 8304   5.995   1.743   4.270  0.3893  0.1604  0.5183
 2495SOL    HW1 8305   6.026   1.657   4.229  1.8213  1.1313 -0.6016
 2495SOL    HW2 8306   5.961   1.803   4.198  0.1045  0.8188  1.1864
 2496SOL     OW 8307   3.500   6.045   1.496  0.1148  0.5558 -0.2429
 2496SOL    HW1 8308   3.452   5.979   1.439  0.4794 -0.3750  0.5167
 2496SOL    HW2 8309   3.574   6.087   1.445  1.0972 -1.0167 -0.1655
 2497SOL     OW 8310   1.438   3.040   6.429  0.6305  0.7426  0.4702
 2497SOL    HW1 8311   1.515   3.027   6.367  0.7014  0.8840  0.5265
 2497SOL    HW2 8312   1.400   3.132   6.416 -0.1337  0.3524 -0.2466
 2498SOL     OW 8313   4.951   6.636   3.016 -0.2426  0.4022  0.3708
 2498SOL    HW1 8314   5.001   6.641   2.930  1.3545  1.4758  1.3082
 2498SOL    HW2 8315   4.853   6.644   2.998 -0.0265 -0.5322 -1.4103
 2499SOL     OW 8316   5.474   2.611   2.606  0.3983  0.4584 -0.4281
 2499SOL    HW1 8317   5.444   2.520   2.579  1.9107  0.1622 -1.1908
 2499SOL    HW2 8318   5.437   2.633   2.696  0.3066 -1.0637 -0.0681
 2500SOL     OW 8319   2.586   6.594   2.497  0.0628 -0.4733 -0.5647
 2500SOL    HW1 8320   2.668   6.538   2.491 -0.1761 -0.8988  0.0973
 2500SOL    HW2 8321   2.538   6.575   2.582  0.0499  0.8396 -0.2513
 2501SOL     OW 8322   3.409   4.654   1.804 -0.9660  0.6308  0.0821
 2501SOL    HW1 8323   3.462   4.730   1.767  0.5004  1.0195  2.7216
 2501SOL    HW2 8324   3.464   4.570   1.798 -1.5482  0.2780 -0.4571
 2502SOL     OW 8325   2.759   5.480   4.765  0.2132 -0.3141 -0.6512
 2502SOL    HW1 8326   2.740   5.469   4.668 -1.2080 -1.0119 -0.3237
 2502SOL    HW2 8327   2.765   5.390   4.809  1.1347 -0.0151 -0.1463
 2503SOL     OW 8328   6.348   2.336   6.550  0.2236  0.1222 -1.0871
 2503SOL    HW1 8329   6.287   2.261   6.525  0.6894 -0.0359 -1.7721
 2503SOL    HW2 8330   6.296   2.421   6.554 -0.4465 -0.3238  0.3534
 2504SOL     OW 8331   2.706   2.430   0.064 -0.1972 -0.6040  0.5078
 2504SOL    HW1 8332   2.789   2.411   0.012  0.3007 -0.0035  1.0564
 2504SOL    HW2 8333   2.685   2.353   0.124  2.0526  0.5819  3.0473
 2505SOL     OW 8334   1.806   2.985   1.971  0.1724 -0.5574  0.1709
 2505SOL    HW1 8335   1.708   3.000   1.980 -0.1313 -1.1485 -1.7350
 2505SOL    HW2 8336   1.843   3.049   1.902  1.6712  1.5571  2.7454
 2506SOL     OW 8337   3.506   6.324   2.572  0.2244 -0.4961 -0.3879
 2506SOL    HW1 8338   3.484   6.239   2.621  1.8019 -0.2700  0.7786
 2506SOL    HW2 8339   3.604   6.340   2.576  0.0928  0.8020 -1.6193
 2507SOL     OW 8340   0.282   4.588   1.466  0.6266 -0.3442  0.3907
 2507SOL    HW1 8341   0.299   4.509   1.407 -3.0034 -0.3218 -0.9083
 2507SOL    HW2 8342   0.292   4.672   1.413 -0.8649 -0.2347  0.2500
 2508SOL     OW 8343   4.998   3.424   2.724 -0.0910 -0.0919  0.6304
 2508SOL    HW1 8344   4.947   3.387   2.646  0.1072  0.3596  0.2830
 2508SOL    HW2 8345   5.029   3.349   2.782  0.6894 -0.5258 -0.2981
 2509SOL     OW 8346   1.810   2.961   1.562  0.1403  0.4266  0.0460
 2509SOL    HW1 8347   1.734   2.900   1.584  1.1738 -1.4742 -1.4445
 2509SOL    HW2 8348   1.782   3.024   1.489  0.3208 -1.0968 -1.3890
 2510SOL     OW 8349   6.595   5.376   2.399 -0.6061 -0.4566  0.1289
 2510SOL    HW1 8350   6.666   5.306   2.396  0.7642  0.8896 -1.0579
 2510SOL    HW2 8351   6.587   5.412   2.492  0.4025 -0.5088  0.2437
 2511SOL     OW 8352   2.097   5.961   5.130  0.2336  0.2595 -0.1247
 2511SOL    HW1 8353   2.186   6.003   5.148  0.1677  0.0797  0.6432
 2511SOL    HW2 8354   2.052   5.939   5.216 -1.2537  1.8168 -0.4422
 2512SOL     OW 8355   6.089   1.994   6.943 -0.4403  0.4306  0.6531
 2512SOL    HW1 8356   6.043   1.909   6.970  0.4922  0.2080  1.6339
 2512SOL    HW2 8357   6.171   1.971   6.890 -1.3701  0.8200 -1.0419
 2513SOL     OW 8358   4.864   0.660   4.055  0.3798  0.6346  0.0413
 2513SOL    HW1 8359   4.945   0.718   4.050  1.9757 -1.5428 -1.4111
 2513SOL    HW2 8360   4.864   0.610   4.142  2.8510 -2.1873 -1.3789
 2514SOL     OW 8361   5.853   4.342   2.394 -0.2326 -0.1700 -0.2905
 2514SOL    HW1 8362   5.942   4.384   2.413  1.6582 -3.5587 -0.8966
 2514SOL    HW2 8363   5.791   4.361   2.470  1.5522  0.8332  1.0116
 2515SOL     OW 8364   0.474   1.222   3.355 -0.4974 -0.5177 -0.1212
 2515SOL    HW1 8365   0.488   1.192   3.450  0.1981 -2.6413 -0.8371
 2515SOL    HW2 8366   0.383   1.261   3.347 -0.3689  0.2566  1.5348
 2516SOL     OW 8367   2.547   1.063   4.617 -0.6731  0.1606 -0.0289
 2516SOL    HW1 8368   2.508   1.084   4.527  1.3484  0.3184 -0.9362
 2516SOL    HW2 8369   2.599   1.141   4.650 -0.4781 -0.3010  0.7958
 2517SOL     OW 8370   1.689   6.886   3.073  0.0295  0.3000 -0.2489
 2517SOL    HW1 8371   1.678   6.788   3.091  0.3718  0.3701  0.3357
 2517SOL    HW2 8372   1.619   6.937   3.123 -1.0247  0.2739 -1.5857
 2518SOL     OW 8373   6.859   3.095   0.692  0.7656 -0.0961 -0.4398
 2518SOL    HW1 8374   6.772   3.054   0.665 -0.1424  2.4367 -1.7108
 2518SOL    HW2 8375   6.845   3.150   0.775  1.7138 -1.4246  0.6432
 2519SOL     OW 8376   3.295   5.548   1.271 -0.2917 -0.2079 -0.2990
 2519SOL    HW1 8377   3.259   5.533   1.363 -1.0709 -0.9475 -0.7133
 2519SOL    HW2 8378   3.223   5.532   1.203  0.5335 -0.7000 -1.0929
 2520SOL     OW 8379   5.708   2.804   5.822 -0.1421 -0.0947 -0.6878
 2520SOL    HW1 8380   5.718   2.876   5.754  1.5940  1.6026  1.1958
 2520SOL    HW2 8381   5.625   2.819   5.875 -0.0881  0.2224 -0.6865
 2521SOL     OW 8382   0.714   3.547   4.688 -0.5139  0.1415 -0.0642
 2521SOL    HW1 8383   0.717   3.637   4.643 -0.4818  0.1437 -0.0581
 2521SOL    HW2 8384   0.666   3.482   4.629  0.1590 -0.0353 -0.4277
 2522SOL     OW 8385   6.601   4.481   2.888  0.3709 -0.2691  0.1309
 2522SOL    HW1 8386   6.578   4.449   2.980 -0.8974 -2.0498 -0.7277
 2522SOL    HW2 8387   6.516   4.502   2.838  1.0944  2.5903 -0.0354
 2523SOL     OW 8388   5.721   1.865   6.325  0.1143  0.0440  0.0446
 2523SOL    HW1 8389   5.754   1.875   6.232  1.4533 -1.1286  0.3530
 2523SOL    HW2 8390   5.758   1.938   6.382  0.7035 -0.2282  0.0111
 2524SOL     OW 8391   5.180   5.409   3.955 -0.8354 -0.0361 -0.0468
 2524SOL    HW1 8392   5.180   5.331   3.893 -0.9680  1.8848 -2.6660
 2524SOL    HW2 8393   5.249   5.395   4.026 -0.8360 -2.4578 -0.4397
 2525SOL     OW 8394   6.884   1.491   5.390 -0.2226 -0.0857  0.3607
 2525SOL    HW1 8395   6.968   1.490   5.335  0.0138 -0.5266  0.7255
 2525SOL    HW2 8396   6.825   1.415   5.362  0.7968 -1.5975  2.0743
 2526SOL     OW 8397   3.377   1.613   1.353  0.5408  0.2910  0.0523
 2526SOL    HW1 8398   3.367   1.513   1.355  0.3899  0.3078  0.8022
 2526SOL    HW2 8399   3.305   1.654   1.409  2.1039  0.6787  1.8894
 2527SOL     OW 8400   6.558   0.361   0.520  0.3461 -0.2210 -0.5138
 2527SOL    HW1 8401   6.506   0.445   0.510 -1.1075 -1.1788 -1.4214
 2527SOL    HW2 8402   6.645   0.369   0.470 -0.1186  0.4718 -1.2244
 2528SOL     OW 8403   1.340   1.394   6.171 -0.8343 -0.2376 -0.2436
 2528SOL    HW1 8404   1.325   1.476   6.116 -1.8271  0.8468  1.5845
 2528SOL    HW2 8405   1.323   1.414   6.267 -0.0135 -2.3181  0.3823
 2529SOL     OW 8406   1.952   5.917   4.032  0.4878 -0.2280 -0.9560
 2529SOL    HW1 8407   1.892   5.994   4.052 -2.2993 -2.7567  1.6181
 2529SOL    HW2 8408   1.967   5.911   3.933 -0.9158  2.3666 -1.4279
 2530SOL     OW 8409   0.499   0.775   6.739 -0.1248  0.2883  0.3105
 2530SOL    HW1 8410   0.453   0.790   6.826  1.6710  0.2657  1.3194
 2530SOL    HW2 8411   0.565   0.700   6.749 -0.5846 -0.3987 -1.3605
 2531SOL     OW 8412   4.570   0.244   3.019  0.0310  0.0779  0.0863
 2531SOL    HW1 8413   4.658   0.233   3.066 -0.3524 -1.8084  0.4332
 2531SOL    HW2 8414   4.502   0.280   3.083  0.1083 -0.1748  0.3103
 2532SOL     OW 8415   4.898   0.385   5.285 -0.0095 -0.2354 -0.3281
 2532SOL    HW1 8416   4.875   0.383   5.188  0.7704  0.6193 -0.5533
 2532SOL    HW2 8417   4.975   0.449   5.299  0.8118 -1.3912  0.6613
 2533SOL     OW 8418   5.791   6.301   6.625 -0.3755 -0.0714  0.1051
 2533SOL    HW1 8419   5.728   6.351   6.685  0.6495 -0.1755  1.3230
 2533SOL    HW2 8420   5.867   6.266   6.680  0.7457  0.0487 -1.3361
 2534SOL     OW 8421   4.167   6.253   6.311 -0.1504 -0.1686 -0.0538
 2534SOL    HW1 8422   4.072   6.258   6.281  0.4392 -2.2055 -2.6735
 2534SOL    HW2 8423   4.204   6.345   6.322 -1.4734  0.7598 -2.4950
 2535SOL     OW 8424   4.721   0.752   4.522 -0.7033  0.2590  0.5750
 2535SOL    HW1 8425   4.635   0.727   4.568 -1.4805  1.2674 -0.2738
 2535SOL    HW2 8426   4.704   0.827   4.459  0.8040  0.4028  0.3065
 2536SOL     OW 8427   6.428   5.351   0.551 -0.1374  0.5712 -0.1553
 2536SOL    HW1 8428   6.441   5.365   0.453  0.6129  1.8795  0.0981
 2536SOL    HW2 8429   6.514   5.371   0.599 -0.9846  1.8083  0.9301
 2537SOL     OW 8430   4.422   6.707   2.051  0.3478  0.8025  0.2624
 2537SOL    HW1 8431   4.437   6.652   2.133  1.7441 -0.5454 -0.8251
 2537SOL    HW2 8432   4.507   6.714   1.999 -0.8508  0.0095 -2.0105
 2538SOL     OW 8433   2.476   6.576   1.395 -0.1862 -0.4460  0.0638
 2538SOL    HW1 8434   2.576   6.565   1.400 -0.2403 -1.4365 -0.7469
 2538SOL    HW2 8435   2.432   6.487   1.405 -1.1753  0.2504  3.3730
 2539SOL     OW 8436   1.226   6.627   4.184 -0.4544  0.5116  0.4872
 2539SOL    HW1 8437   1.217   6.694   4.111 -1.3794  0.2459  0.3378
 2539SOL    HW2 8438   1.149   6.637   4.248 -1.1712 -1.0403 -0.0812
 2540SOL     OW 8439   5.803   2.067   3.380 -0.1891 -0.3704 -0.3934
 2540SOL    HW1 8440   5.765   2.150   3.338 -1.1872 -0.6189  0.0067
 2540SOL    HW2 8441   5.823   2.084   3.476 -2.9623 -1.3515  0.4339
 2541SOL     OW 8442   2.237   0.661   6.255  0.1268 -0.6153  0.6201
 2541SOL    HW1 8443   2.304   0.705   6.194 -0.2000 -0.3853  0.4250
 2541SOL    HW2 8444   2.156   0.636   6.202 -0.2033 -0.3261  0.9805
 2542SOL     OW 8445   0.180   5.241   0.436  1.2149  0.3533 -0.1123
 2542SOL    HW1 8446   0.145   5.335   0.425  0.2580 -0.1200 -1.4742
 2542SOL    HW2 8447   0.112   5.177   0.402  1.6426 -0.9055  1.2727
 2543SOL     OW 8448   3.765   0.059   1.038  0.3030 -0.5522 -0.1420
 2543SOL    HW1 8449   3.702  -0.015   1.015 -0.7313  0.1899  0.2283
 2543SOL    HW2 8450   3.786   0.112   0.956 -1.2340  0.4538  0.0682
 2544SOL     OW 8451   4.340   1.370   5.555 -0.5752  0.2512 -0.3458
 2544SOL    HW1 8452   4.338   1.338   5.649 -0.4489  0.1620 -0.3750
 2544SOL    HW2 8453   4.368   1.296   5.494  0.6454  0.6583 -0.3078
 2545SOL     OW 8454   1.450   6.935   0.706 -0.4689  0.1081 -0.0794
 2545SOL    HW1 8455   1.550   6.939   0.711 -0.5223  2.7127  0.5604
 2545SOL    HW2 8456   1.416   6.874   0.778  0.6252  1.1458  1.4022
 2546SOL     OW 8457   1.242   4.435   2.346 -0.3380 -0.1349  0.2723
 2546SOL    HW1 8458   1.330   4.481   2.343 -0.6429  0.4579  0.2459
 2546SOL    HW2 8459   1.176   4.493   2.394 -0.3079 -1.2762  1.7738
 2547SOL     OW 8460   1.804   0.275   1.724 -0.6585 -0.1071  0.1995
 2547SOL    HW1 8461   1.822   0.330   1.805 -0.0450  0.0973 -0.0712
 2547SOL    HW2 8462   1.786   0.180   1.752  1.9903 -0.6239  0.4577
 2548SOL     OW 8463   1.606   5.559   4.792  0.0869  0.3899 -0.4263
 2548SOL    HW1 8464   1.625   5.512   4.705 -1.0502 -0.2075 -0.3795
 2548SOL    HW2 8465   1.518   5.606   4.785 -0.2974 -0.1432  0.5797
 2549SOL     OW 8466   1.267   6.201   6.839  0.5024  0.4657  0.0365
 2549SOL    HW1 8467   1.258   6.129   6.908  0.7375  1.9209  1.6241
 2549SOL    HW2 8468   1.196   6.189   6.769 -0.2562 -0.5611  0.9522
 2550SOL     OW 8469   4.675   4.086   3.327 -0.3924 -0.0292  0.0663
 2550SOL    HW1 8470   4.673   4.034   3.241  0.4176 -0.1160  0.0868
 2550SOL    HW2 8471   4.753   4.149   3.325  0.1718 -0.6687  1.0964
 2551SOL     OW 8472   1.598   6.877   2.650  0.0319 -0.1171 -0.1954
 2551SOL    HW1 8473   1.619   6.942   2.723 -1.6026  1.1198 -0.7465
 2551SOL    HW2 8474   1.629   6.786   2.676 -0.3140  0.3227  1.9683
 2552SOL     OW 8475   1.416   1.952   4.124 -0.5659  0.3635  0.3809
 2552SOL    HW1 8476   1.323   1.917   4.135 -0.2102 -0.7614 -0.0371
 2552SOL    HW2 8477   1.462   1.902   4.050  1.2233 -0.9336  2.2207
 2553SOL     OW 8478   6.705   5.885   3.084 -0.2836 -0.1640 -0.0894
 2553SOL    HW1 8479   6.676   5.945   3.009  0.0145  1.1071  0.7960
 2553SOL    HW2 8480   6.804   5.873   3.080 -0.4600 -1.6542 -1.0028
 2554SOL     OW 8481   0.690   4.788   5.821  0.5854 -0.4041  0.1215
 2554SOL    HW1 8482   0.703   4.693   5.850 -4.0839 -1.2613  0.1847
 2554SOL    HW2 8483   0.666   4.844   5.901  0.5122  0.1890 -0.3124
 2555SOL     OW 8484   4.223   6.249   3.314  0.0727 -0.0704 -0.0310
 2555SOL    HW1 8485   4.307   6.196   3.325 -1.1266 -1.7536  1.4678
 2555SOL    HW2 8486   4.168   6.244   3.398 -3.3709 -2.3878 -2.1826
 2556SOL     OW 8487   5.761   6.778   0.435 -0.1317  0.1119  0.0162
 2556SOL    HW1 8488   5.790   6.699   0.488 -1.1182  0.3359  0.9165
 2556SOL    HW2 8489   5.676   6.815   0.472 -0.7700  0.3969 -1.5991
 2557SOL     OW 8490   1.378   5.678   2.149  0.1176 -0.3324  0.1218
 2557SOL    HW1 8491   1.349   5.720   2.235  0.5054 -2.5101  1.3895
 2557SOL    HW2 8492   1.339   5.729   2.072 -2.8838 -0.1621  1.6311
 2558SOL     OW 8493   4.869   1.789   0.184 -0.1513 -0.1683  0.1683
 2558SOL    HW1 8494   4.907   1.696   0.189  0.3751  0.0551  0.4125
 2558SOL    HW2 8495   4.844   1.809   0.089 -2.4228 -1.3992  0.4174
 2559SOL     OW 8496   3.533   6.054   4.140  0.0158 -0.0037 -0.5045
 2559SOL    HW1 8497   3.478   6.137   4.150  0.4744  0.7687 -3.3622
 2559SOL    HW2 8498   3.624   6.069   4.180  0.0634  0.8761 -0.9022
 2560SOL     OW 8499   4.837   1.817   6.919  0.1955 -0.2203 -0.0591
 2560SOL    HW1 8500   4.781   1.755   6.864  0.4192  0.0077 -0.5476
 2560SOL    HW2 8501   4.792   1.906   6.924 -0.3861 -0.5528  1.0708
 2561SOL     OW 8502   4.498   4.576   6.567 -0.0644  0.4445 -0.3717
 2561SOL    HW1 8503   4.581   4.630   6.552  1.1766 -1.7134 -2.0084
 2561SOL    HW2 8504   4.440   4.581   6.486 -0.1498 -0.2451 -0.3651
 2562SOL     OW 8505   6.776   0.444   4.812 -0.3858 -0.2855 -0.3497
 2562SOL    HW1 8506   6.717   0.522   4.794  2.0705  1.4817 -1.2988
 2562SOL    HW2 8507   6.788   0.433   4.911 -1.8044 -0.3389 -0.1644
 2563SOL     OW 8508   3.339   0.602   5.277  0.1984  0.3321  0.4431
 2563SOL    HW1 8509   3.431   0.567   5.260  0.0195  0.3614 -0.6803
 2563SOL    HW2 8510   3.273   0.527   5.274 -0.3725  0.7950 -3.4018
 2564SOL     OW 8511   2.003   2.251   5.645  0.2152  0.3025  0.7545
 2564SOL    HW1 8512   1.952   2.337   5.651  2.2913  1.7097 -0.2837
 2564SOL    HW2 8513   1.978   2.203   5.561 -0.7245  0.0046  1.1852
 2565SOL     OW 8514   2.768   0.810   6.864 -0.6231  0.7915 -0.3993
 2565SOL    HW1 8515   2.824   0.841   6.787 -0.5282 -0.5238 -0.8826
 2565SOL    HW2 8516   2.721   0.888   6.904 -0.8245  1.4781 -1.9134
 2566SOL     OW 8517   5.430   1.470   5.372  0.3588 -1.1937  0.6016
 2566SOL    HW1 8518   5.373   1.500   5.295  0.5296  0.2846  1.0095
 2566SOL    HW2 8519   5.520   1.444   5.338 -0.0077 -1.8947  0.1512
 2567SOL     OW 8520   6.836   3.999   2.327  0.6953 -0.2200  0.3098
 2567SOL    HW1 8521   6.883   3.986   2.240 -0.4584 -1.6924 -0.1161
 2567SOL    HW2 8522   6.836   4.097   2.350 -2.6873  0.9327 -3.5137
 2568SOL     OW 8523   3.510   6.155   4.826 -0.1042 -0.1780 -0.0468
 2568SOL    HW1 8524   3.535   6.092   4.752 -3.2795 -1.6631  0.0084
 2568SOL    HW2 8525   3.496   6.246   4.788 -1.1950 -0.8081 -1.2600
 2569SOL     OW 8526   0.671   1.866   0.903  0.0833  0.1793  0.1633
 2569SOL    HW1 8527   0.731   1.913   0.839  2.2322 -2.3496  0.1477
 2569SOL    HW2 8528   0.601   1.816   0.853 -1.1729  1.9395  0.0995
 2570SOL     OW 8529   6.062   3.470   2.654 -0.4766 -0.3227  0.5099
 2570SOL    HW1 8530   6.120   3.404   2.607 -0.5781 -0.4891  0.6122
 2570SOL    HW2 8531   6.114   3.554   2.671 -0.2321 -0.5045  0.6835
 2571SOL     OW 8532   5.664   2.424   1.946  0.6759 -0.3574 -0.0341
 2571SOL    HW1 8533   5.691   2.474   2.028  1.1123 -2.0941  0.9394
 2571SOL    HW2 8534   5.727   2.347   1.932 -0.1597 -0.8461 -1.2799
 2572SOL     OW 8535   0.626   3.959   3.022  0.2836  0.4961 -0.3550
 2572SOL    HW1 8536   0.601   3.895   2.950 -0.2936  0.2159  0.0914
 2572SOL    HW2 8537   0.643   3.909   3.107 -0.3281  0.9521  0.0382
 2573SOL     OW 8538   6.810   0.197   6.054 -0.3049  0.2597  0.2080
 2573SOL    HW1 8539   6.717   0.165   6.037 -0.2957 -1.0219  2.2305
 2573SOL    HW2 8540   6.814   0.296   6.039 -1.6215  0.1359 -1.2528
 2574SOL     OW 8541   1.002   3.608   6.156  0.2547 -0.1590  0.4829
 2574SOL    HW1 8542   1.092   3.570   6.136  0.7189  0.9465  0.3632
 2574SOL    HW2 8543   0.986   3.690   6.100 -0.4906  0.1241  1.0806
 2575SOL     OW 8544   0.221   5.780   1.950 -0.0139 -0.1921 -0.0402
 2575SOL    HW1 8545   0.192   5.684   1.955  0.6518 -0.4508 -0.7701
 2575SOL    HW2 8546   0.273   5.794   1.866 -1.5823  1.2352 -0.8415
 2576SOL     OW 8547   4.039   1.238   1.287 -0.2228 -0.2168  0.5362
 2576SOL    HW1 8548   3.951   1.194   1.307 -0.4040 -0.5786 -0.9434
 2576SOL    HW2 8549   4.092   1.179   1.225  0.6713  0.4267  0.6730
 2577SOL     OW 8550   6.638   1.848   4.006 -0.3265 -0.1721  0.3929
 2577SOL    HW1 8551   6.568   1.784   4.037 -2.4367  2.2780  1.0323
 2577SOL    HW2 8552   6.666   1.907   4.082  1.3681 -0.1168 -0.2152
 2578SOL     OW 8553   5.274   6.680   1.906 -0.3037  0.4018  0.1098
 2578SOL    HW1 8554   5.205   6.642   1.844 -0.0518 -1.1724  0.7252
 2578SOL    HW2 8555   5.365   6.663   1.869 -0.1828  0.4327  0.3818
 2579SOL     OW 8556   5.551   6.279   2.110 -0.0390 -0.0530 -0.3579
 2579SOL    HW1 8557   5.610   6.307   2.186 -0.3308  0.3797 -0.2860
 2579SOL    HW2 8558   5.555   6.180   2.100  0.9319  0.0069 -0.5491
 2580SOL     OW 8559   3.118   1.228   5.299 -0.3188  0.0756  0.4272
 2580SOL    HW1 8560   3.206   1.191   5.331 -0.7233 -0.1609  1.3059
 2580SOL    HW2 8561   3.043   1.172   5.335 -0.8103 -0.0727 -0.8184
 2581SOL     OW 8562   0.351   6.376   1.072  0.0717  0.5702 -0.1343
 2581SOL    HW1 8563   0.439   6.421   1.059  1.2202 -1.1602  1.1356
 2581SOL    HW2 8564   0.361   6.278   1.056 -1.6068  0.3136  0.1709
 2582SOL     OW 8565   0.358   1.348   5.794  0.5343  0.3441 -0.1227
 2582SOL    HW1 8566   0.403   1.398   5.869 -2.1042  0.4478  1.5333
 2582SOL    HW2 8567   0.276   1.399   5.766 -0.1742 -1.2321 -0.9913
 2583SOL     OW 8568   4.935   3.875   3.229 -0.4755 -0.0003 -0.0928
 2583SOL    HW1 8569   4.989   3.796   3.200 -0.4359  0.0068 -0.0409
 2583SOL    HW2 8570   4.854   3.883   3.170 -0.6724 -0.2981  0.1293
 2584SOL     OW 8571   1.199   3.236   2.993 -0.1605  0.6100  0.0307
 2584SOL    HW1 8572   1.247   3.200   3.073 -1.1310 -0.9121 -0.0298
 2584SOL    HW2 8573   1.122   3.293   3.024 -1.1158 -0.7437  0.2471
 2585SOL     OW 8574   2.852   3.774   1.067 -0.2773 -0.2165 -0.6539
 2585SOL    HW1 8575   2.832   3.860   1.115 -1.6842 -1.1865  0.5858
 2585SOL    HW2 8576   2.948   3.773   1.038 -0.1089  1.5534 -0.2676
 2586SOL     OW 8577   5.213   2.156   0.140  0.2391  0.3576 -0.5563
 2586SOL    HW1 8578   5.141   2.102   0.184 -0.3284  1.3366 -0.2423
 2586SOL    HW2 8579   5.175   2.208   0.064  0.2074  2.2161  0.6712
 2587SOL     OW 8580   5.332   4.754   0.843 -0.4150 -0.0086  0.0370
 2587SOL    HW1 8581   5.347   4.703   0.927  0.7630 -1.3962 -0.9814
 2587SOL    HW2 8582   5.257   4.713   0.791 -0.0950 -0.1258 -0.3378
 2588SOL     OW 8583   5.627   5.399   0.636  0.2931 -0.3881 -0.1462
 2588SOL    HW1 8584   5.536   5.411   0.596  0.4729 -0.7034 -0.6701
 2588SOL    HW2 8585   5.644   5.470   0.703 -0.6604 -0.7866  0.5447
 2589SOL     OW 8586   0.804   1.070   3.550 -0.3306  0.6517 -0.8468
 2589SOL    HW1 8587   0.763   1.004   3.486 -0.0683  3.2630 -3.9607
 2589SOL    HW2 8588   0.734   1.104   3.612 -0.7726 -1.4626 -0.1157
 2590SOL     OW 8589   1.510   0.406   3.577  0.1415  0.2293 -0.6159
 2590SOL    HW1 8590   1.498   0.431   3.673 -2.1686 -0.3831 -0.6947
 2590SOL    HW2 8591   1.603   0.370   3.564  0.1699 -0.6959  1.6073
 2591SOL     OW 8592   5.262   4.163   3.799  0.0578  0.0473 -0.2008
 2591SOL    HW1 8593   5.171   4.128   3.779 -0.1070  0.1884  0.2895
 2591SOL    HW2 8594   5.261   4.211   3.887  0.3697  0.9050 -0.6456
 2592SOL     OW 8595   3.106   4.752   5.834 -0.2781 -0.1496 -0.0016
 2592SOL    HW1 8596   3.040   4.769   5.761 -0.5352 -2.8379 -0.5210
 2592SOL    HW2 8597   3.198   4.769   5.800 -0.5457  2.4996  0.3707
 2593SOL     OW 8598   1.504   5.112   0.585 -0.6744  0.1952 -0.2027
 2593SOL    HW1 8599   1.517   5.210   0.570 -1.4613  0.4340  0.5921
 2593SOL    HW2 8600   1.437   5.076   0.520 -1.0145  0.3598  0.0575
 2594SOL     OW 8601   4.247   1.701   0.502  0.0313 -0.2616  0.0660
 2594SOL    HW1 8602   4.335   1.691   0.455  0.1129  0.8052 -0.0583
 2594SOL    HW2 8603   4.191   1.620   0.485  0.5664 -0.4760 -0.8067
 2595SOL     OW 8604   0.578   1.946   6.867  0.2519  1.0364 -0.3142
 2595SOL    HW1 8605   0.531   2.032   6.888 -1.2490 -0.0285  0.9899
 2595SOL    HW2 8606   0.620   1.952   6.777 -1.1895  2.5660 -0.9365
 2596SOL     OW 8607   3.048   6.892   2.439 -0.0812  0.0138 -0.0612
 2596SOL    HW1 8608   3.041   6.976   2.492  2.2090 -1.0043  2.0544
 2596SOL    HW2 8609   3.092   6.912   2.351  2.6459  0.7950  1.3688
 2597SOL     OW 8610   3.494   3.578   2.524  0.5358  0.7160 -0.4817
 2597SOL    HW1 8611   3.520   3.645   2.594  0.9198  1.0437 -0.9274
 2597SOL    HW2 8612   3.400   3.594   2.496 -0.4587 -0.9016  1.6361
 2598SOL     OW 8613   5.941   4.462   3.214  0.4200  0.2892  0.5594
 2598SOL    HW1 8614   5.971   4.394   3.146  0.1483  0.4444  0.2862
 2598SOL    HW2 8615   5.942   4.420   3.305  0.4813 -0.0130  0.4214
 2599SOL     OW 8616   2.000   0.102   4.040 -0.1355 -0.3107 -0.0379
 2599SOL    HW1 8617   2.038   0.036   4.105  0.8611 -0.1421 -0.4334
 2599SOL    HW2 8618   1.967   0.053   3.959 -1.6871 -0.5572  0.7137
 2600SOL     OW 8619   4.025   6.714   2.469  0.5731  0.3836 -0.6601
 2600SOL    HW1 8620   4.069   6.628   2.442  1.3791  0.7965 -0.6843
 2600SOL    HW2 8621   4.043   6.783   2.400 -1.3476  0.1904 -1.4129
 2601SOL     OW 8622   5.969   3.435   3.505  0.2303  1.1120  0.2225
 2601SOL    HW1 8623   5.977   3.336   3.489 -3.0145  0.8543 -0.8638
 2601SOL    HW2 8624   5.968   3.453   3.603 -2.4790 -0.4851  0.5947
 2602SOL     OW 8625   1.548   0.712   1.265 -0.2987 -0.4226 -0.1148
 2602SOL    HW1 8626   1.597   0.725   1.179 -2.5731  0.8097 -1.3282
 2602SOL    HW2 8627   1.613   0.698   1.339  1.7994  0.3560 -1.7191
 2603SOL     OW 8628   5.790   6.895   2.269 -0.5115  0.1670 -0.0170
 2603SOL    HW1 8629   5.736   6.857   2.194 -1.0486 -1.2811  1.0724
 2603SOL    HW2 8630   5.886   6.899   2.241 -0.2501 -2.8491  0.0512
 2604SOL     OW 8631   4.822   2.947   3.025  0.2733 -0.1351  0.0951
 2604SOL    HW1 8632   4.787   2.868   2.974  0.1096 -0.7018  1.0673
 2604SOL    HW2 8633   4.863   3.012   2.961 -3.1157  0.9072 -1.2591
 2605SOL     OW 8634   6.030   3.883   5.549  0.6832 -0.5771  0.5131
 2605SOL    HW1 8635   6.067   3.814   5.611 -0.8551 -1.5541  0.4164
 2605SOL    HW2 8636   5.939   3.911   5.580 -1.0010 -2.5231 -2.1989
 2606SOL     OW 8637   6.525   0.063   5.726 -0.6054 -0.3642 -0.3850
 2606SOL    HW1 8638   6.440   0.058   5.674  1.0444 -0.0005 -3.2823
 2606SOL    HW2 8639   6.569  -0.026   5.726  0.5172  0.2022 -1.6289
 2607SOL     OW 8640   6.128   3.815   4.078  0.4275  0.4381 -0.2166
 2607SOL    HW1 8641   6.074   3.842   4.157  0.2516  2.1284 -0.8764
 2607SOL    HW2 8642   6.142   3.716   4.079 -1.2293  0.1874  0.8696
 2608SOL     OW 8643   6.236   6.064   5.774  0.4573 -0.0883 -0.2372
 2608SOL    HW1 8644   6.197   6.022   5.692  1.3787  0.2822 -0.8832
 2608SOL    HW2 8645   6.183   6.146   5.798 -0.3869 -0.7242  0.0985
 2609SOL     OW 8646   1.491   2.605   3.013  0.0467  0.0656  0.2199
 2609SOL    HW1 8647   1.568   2.641   3.065  0.1891 -0.3162  0.2731
 2609SOL    HW2 8648   1.414   2.669   3.019 -0.7266 -0.9607  2.7556
 2610SOL     OW 8649   3.527   4.278   6.042  0.0127  0.0342 -0.5881
 2610SOL    HW1 8650   3.442   4.234   6.071  0.1310  0.6736  0.7920
 2610SOL    HW2 8651   3.579   4.215   5.984 -1.4003 -0.3645 -1.4903
 2611SOL     OW 8652   3.625   6.784   2.361 -0.4188  1.0429 -0.0917
 2611SOL    HW1 8653   3.697   6.852   2.344 -1.1464  1.9336  0.2589
 2611SOL    HW2 8654   3.535   6.827   2.349 -0.9003  0.1041  0.0157
 2612SOL     OW 8655   5.479   3.724   2.359  0.1702 -0.9269 -0.1203
 2612SOL    HW1 8656   5.474   3.626   2.340 -1.6759 -1.0921  1.0290
 2612SOL    HW2 8657   5.406   3.750   2.422  0.6295  1.1968 -0.3911
 2613SOL     OW 8658   5.795   4.134   1.314 -0.1562  0.1008 -0.0606
 2613SOL    HW1 8659   5.711   4.164   1.268 -0.8486 -2.8846 -0.9829
 2613SOL    HW2 8660   5.771   4.079   1.394  0.8788 -1.1547 -0.5690
 2614SOL     OW 8661   1.138   0.210   2.116  0.1251  0.0063  0.4823
 2614SOL    HW1 8662   1.236   0.214   2.135  0.0549  0.5183  0.7677
 2614SOL    HW2 8663   1.095   0.296   2.145 -0.6446 -0.7474  1.6568
 2615SOL     OW 8664   3.515   6.262   1.819  0.4457 -0.3376 -0.6216
 2615SOL    HW1 8665   3.495   6.338   1.881  0.1727  0.1613 -1.3055
 2615SOL    HW2 8666   3.541   6.181   1.872  1.2074  0.3576  0.1000
 2616SOL     OW 8667   3.171   6.533   1.841  0.0737  0.1920 -0.0360
 2616SOL    HW1 8668   3.085   6.584   1.840  0.2971  0.5684 -1.8207
 2616SOL    HW2 8669   3.194   6.509   1.936 -0.8680  1.9579  0.6818
 2617SOL     OW 8670   5.045   1.711   0.695 -0.5061 -0.0141 -0.2752
 2617SOL    HW1 8671   4.963   1.712   0.752  0.2422 -0.5415  0.8210
 2617SOL    HW2 8672   5.055   1.799   0.649  1.4842  2.3592  4.1697
 2618SOL     OW 8673   2.798   0.497   4.678  0.3195  0.2933 -0.3170
 2618SOL    HW1 8674   2.860   0.575   4.667 -0.3187  0.5965 -2.2188
 2618SOL    HW2 8675   2.705   0.531   4.696  0.0005  0.0217 -1.3502
 2619SOL     OW 8676   6.605   4.945   0.578  0.1904 -0.1774 -0.6147
 2619SOL    HW1 8677   6.578   4.853   0.608  0.1140 -0.2560 -0.9227
 2619SOL    HW2 8678   6.701   4.960   0.602  0.1371 -0.2452 -0.3453
 2620SOL     OW 8679   2.135   2.105   1.936  0.4638 -0.2199 -0.1272
 2620SOL    HW1 8680   2.084   2.021   1.917  0.0274  0.4416 -2.1453
 2620SOL    HW2 8681   2.232   2.083   1.948  1.1951 -0.7491 -4.9230
 2621SOL     OW 8682   3.828   6.455   1.347 -0.2900 -0.0219 -0.7529
 2621SOL    HW1 8683   3.801   6.482   1.439  0.1721  0.5650 -0.7854
 2621SOL    HW2 8684   3.747   6.427   1.295 -0.6293  0.2231 -0.3584
 2622SOL     OW 8685   2.746   4.219   5.890  0.1212 -0.4015  0.5232
 2622SOL    HW1 8686   2.750   4.278   5.810 -0.7610 -0.4991  0.3875
 2622SOL    HW2 8687   2.831   4.226   5.941  0.1101  0.8239  0.4088
 2623SOL     OW 8688   2.472   0.345   3.982 -0.1979 -0.2876 -0.0798
 2623SOL    HW1 8689   2.391   0.390   3.945 -0.4786 -0.4719  0.3005
 2623SOL    HW2 8690   2.549   0.408   3.983 -0.3441 -0.1011 -0.4095
 2624SOL     OW 8691   2.873   5.459   4.235 -0.1869 -0.2178  0.5355
 2624SOL    HW1 8692   2.968   5.489   4.240 -0.6448  1.0629  2.9990
 2624SOL    HW2 8693   2.824   5.513   4.166 -0.1153  2.4121  2.3603
 2625SOL     OW 8694   1.707   1.014   5.210  0.6504 -0.3247  0.3559
 2625SOL    HW1 8695   1.645   0.998   5.286 -1.1328  0.8817 -0.7656
 2625SOL    HW2 8696   1.802   1.010   5.242 -0.0196  1.7781  3.0366
 2626SOL     OW 8697   2.703   5.944   0.518 -0.1225 -0.6381 -0.5729
 2626SOL    HW1 8698   2.668   5.875   0.582 -0.3373  1.4407  1.7218
 2626SOL    HW2 8699   2.630   6.009   0.497  1.7215  3.1928  3.4576
 2627SOL     OW 8700   0.432   3.848   4.922 -0.3076  0.3211  0.4860
 2627SOL    HW1 8701   0.335   3.841   4.945 -0.0499 -1.9885  1.1343
 2627SOL    HW2 8702   0.482   3.888   4.999 -0.6928  1.3462  0.2190
 2628SOL     OW 8703   2.228   3.766   5.583  0.4958 -0.1143  0.5608
 2628SOL    HW1 8704   2.258   3.673   5.600 -0.0333 -0.6707 -1.2279
 2628SOL    HW2 8705   2.228   3.783   5.484 -0.8244  1.2958  0.7594
 2629SOL     OW 8706   2.883   5.888   3.621 -0.3034  0.4782  0.1619
 2629SOL    HW1 8707   2.786   5.913   3.626 -0.3638  0.0464  1.4096
 2629SOL    HW2 8708   2.939   5.970   3.635 -0.5018  0.3974  1.5717
 2630SOL     OW 8709   5.999   6.556   1.015 -0.4787  0.1529  0.1292
 2630SOL    HW1 8710   6.006   6.589   0.921 -2.1911  0.3061  0.0151
 2630SOL    HW2 8711   5.925   6.489   1.021  1.5002 -2.0903  0.7991
 2631SOL     OW 8712   4.159   3.901   5.918 -0.4167 -0.1832  0.4086
 2631SOL    HW1 8713   4.132   3.912   6.014  1.4177  0.7981  0.8741
 2631SOL    HW2 8714   4.081   3.872   5.864 -1.8345  0.5923  1.9690
 2632SOL     OW 8715   1.940   0.418   1.527  0.1324  0.2478  0.0858
 2632SOL    HW1 8716   1.896   0.380   1.609  0.6161  0.8752  0.6530
 2632SOL    HW2 8717   2.034   0.442   1.549  0.7827 -1.0741 -1.1080
 2633SOL     OW 8718   3.704   3.677   4.847 -0.0166 -1.2557 -0.3696
 2633SOL    HW1 8719   3.711   3.580   4.824  0.1389 -1.1922 -0.5927
 2633SOL    HW2 8720   3.611   3.709   4.829 -0.2888 -1.5565  0.4619
 2634SOL     OW 8721   2.923   0.441   0.415  0.2037 -0.1608 -0.5501
 2634SOL    HW1 8722   2.979   0.521   0.438 -0.8297  0.0955  1.1514
 2634SOL    HW2 8723   2.908   0.386   0.497 -1.7717 -0.4140 -1.0385
 2635SOL     OW 8724   0.146   3.253   6.733 -0.1218 -0.2151 -0.0739
 2635SOL    HW1 8725   0.078   3.257   6.661 -0.0682 -0.5309 -0.1437
 2635SOL    HW2 8726   0.168   3.346   6.764  1.7905  0.1352 -2.2622
 2636SOL     OW 8727   0.322   2.078   6.067  0.4184 -0.8239 -0.3787
 2636SOL    HW1 8728   0.404   2.114   6.110 -1.0466 -0.7483  2.6044
 2636SOL    HW2 8729   0.329   1.979   6.059  0.8357 -0.8132 -0.1774
 2637SOL     OW 8730   1.640   1.988   4.696  0.5025  0.1904 -0.1597
 2637SOL    HW1 8731   1.548   2.026   4.689  0.4183  0.0022 -0.0950
 2637SOL    HW2 8732   1.654   1.951   4.788  0.3974 -0.4062 -0.3814
 2638SOL     OW 8733   1.039   2.316   0.381  0.2303  0.4323 -0.3396
 2638SOL    HW1 8734   1.069   2.339   0.288  0.9614  2.2205  0.3081
 2638SOL    HW2 8735   1.003   2.398   0.425 -2.1123 -0.8183  0.2539
 2639SOL     OW 8736   5.450   3.830   2.098  0.0957  0.5511 -0.3250
 2639SOL    HW1 8737   5.451   3.814   2.197 -1.7885  2.2786  0.0230
 2639SOL    HW2 8738   5.482   3.922   2.079  0.8486  0.0969 -1.4019
 2640SOL     OW 8739   3.884   5.065   6.471 -0.1834  0.3134 -0.9366
 2640SOL    HW1 8740   3.973   5.104   6.449  0.3295 -0.1217  0.2676
 2640SOL    HW2 8741   3.822   5.137   6.502 -0.1989  0.5880 -1.5930
 2641SOL     OW 8742   3.191   2.931   6.669  0.4130 -0.0347 -0.0100
 2641SOL    HW1 8743   3.139   2.971   6.594  2.2871  0.1692 -1.2429
 2641SOL    HW2 8744   3.220   3.003   6.732  1.0929  0.1297 -0.5095
 2642SOL     OW 8745   2.725   0.797   1.730  0.8587 -0.3267 -0.2169
 2642SOL    HW1 8746   2.690   0.864   1.796  0.1230 -1.7036  0.8419
 2642SOL    HW2 8747   2.761   0.845   1.650  0.7633  1.3394  0.6969
 2643SOL     OW 8748   4.903   4.901   0.679  0.2950  0.4447  0.3314
 2643SOL    HW1 8749   4.952   4.951   0.751 -0.8906  1.3798  0.5345
 2643SOL    HW2 8750   4.806   4.925   0.683 -0.0390 -0.6929 -0.6023
 2644SOL     OW 8751   4.771   1.474   0.340 -0.2300  0.2138 -0.7587
 2644SOL    HW1 8752   4.870   1.492   0.341 -0.4432  1.3609  0.3983
 2644SOL    HW2 8753   4.751   1.405   0.270  1.0997  1.6349 -2.6552
 2645SOL     OW 8754   4.354   0.787   3.230  1.0120  0.1938  0.1535
 2645SOL    HW1 8755   4.412   0.779   3.148  2.0439  2.3404  0.6144
 2645SOL    HW2 8756   4.391   0.728   3.302 -0.6644 -2.7517 -1.2559
 2646SOL     OW 8757   5.595   5.909   4.798 -0.0264 -0.3668 -0.3809
 2646SOL    HW1 8758   5.657   5.906   4.876 -1.9487 -0.4537  1.2288
 2646SOL    HW2 8759   5.528   5.982   4.812 -0.0305  0.0422 -2.2947
 2647SOL     OW 8760   0.043   4.407   1.646  0.0601  0.6262  0.2982
 2647SOL    HW1 8761   0.039   4.384   1.549 -3.1449  0.8591  0.2592
 2647SOL    HW2 8762   0.079   4.329   1.698 -1.6781 -0.9666 -0.7544
 2648SOL     OW 8763   2.475   1.015   4.121  0.4792 -0.0607 -0.5568
 2648SOL    HW1 8764   2.501   1.052   4.210  1.3947  0.1240 -0.8842
 2648SOL    HW2 8765   2.380   1.039   4.101  0.2107 -0.2576  0.4437
 2649SOL     OW 8766   6.479   6.926   0.698 -0.3815  0.3766 -0.5422
 2649SOL    HW1 8767   6.417   7.005   0.706 -1.0855 -0.1499 -0.6184
 2649SOL    HW2 8768   6.440   6.860   0.634  0.6059  0.3442 -1.1280
 2650SOL     OW 8769   0.437   1.969   4.312 -0.1112  0.2048 -0.5799
 2650SOL    HW1 8770   0.516   1.910   4.294  1.0003  1.2727  0.5652
 2650SOL    HW2 8771   0.455   2.060   4.273 -0.2020  0.8279  0.7643
 2651SOL     OW 8772   6.818   5.464   6.891 -0.8092 -0.2527 -0.4331
 2651SOL    HW1 8773   6.874   5.449   6.972  0.9770 -0.6737 -1.6791
 2651SOL    HW2 8774   6.721   5.461   6.916 -0.3157  0.5790  1.8174
 2652SOL     OW 8775   2.249   1.974   4.663  0.3364  0.4857 -0.0585
 2652SOL    HW1 8776   2.168   2.032   4.669  0.8451  1.0529  2.7964
 2652SOL    HW2 8777   2.269   1.954   4.567 -1.9121  2.0841 -0.9394
 2653SOL     OW 8778   2.968   6.339   6.884  0.1868 -0.1316  0.1546
 2653SOL    HW1 8779   2.893   6.312   6.823  0.0664  1.3102 -0.3677
 2653SOL    HW2 8780   3.054   6.341   6.832  0.6238 -1.6635  0.7203
 2654SOL     OW 8781   5.689   6.783   5.102 -0.4614  0.1603 -0.4252
 2654SOL    HW1 8782   5.723   6.877   5.090 -1.8099  0.8138  0.5738
 2654SOL    HW2 8783   5.706   6.753   5.195 -0.2751 -0.5041 -0.6640
 2655SOL     OW 8784   4.137   1.988   1.442 -0.0320  0.0871  0.4927
 2655SOL    HW1 8785   4.219   1.969   1.387  0.7237  3.2825  0.3649
 2655SOL    HW2 8786   4.078   2.052   1.393 -1.1185  0.2042  1.8968
 2656SOL     OW 8787   2.680   3.698   3.415 -0.0598  0.2087  0.1082
 2656SOL    HW1 8788   2.762   3.714   3.470  0.6599  0.3094 -0.9474
 2656SOL    HW2 8789   2.645   3.606   3.431  1.9730 -0.9235 -1.5247
 2657SOL     OW 8790   1.739   3.107   1.349 -0.4760 -0.2763  0.6492
 2657SOL    HW1 8791   1.799   3.186   1.333  0.5410 -0.6734  2.1922
 2657SOL    HW2 8792   1.752   3.040   1.276  0.8819 -0.2675  0.8398
 2658SOL     OW 8793   1.359   3.064   0.400 -0.0446  0.0631  0.1797
 2658SOL    HW1 8794   1.367   3.033   0.494 -0.7148 -1.7626 -0.3395
 2658SOL    HW2 8795   1.398   2.996   0.338  1.6246  1.8281 -0.8330
 2659SOL     OW 8796   6.080   2.939   3.445 -0.0147  0.4519 -0.1384
 2659SOL    HW1 8797   6.164   2.913   3.493  0.7009 -0.0651 -1.6425
 2659SOL    HW2 8798   6.036   2.857   3.409 -1.1336  0.7282  0.5415
 2660SOL     OW 8799   2.171   3.461   0.923  0.3778  0.1471 -1.0108
 2660SOL    HW1 8800   2.151   3.551   0.885 -1.7873 -0.3346 -1.1246
 2660SOL    HW2 8801   2.185   3.396   0.849  0.7866  0.1235 -0.9217
 2661SOL     OW 8802   6.807   6.386   3.406 -0.7959 -0.7277 -0.0352
 2661SOL    HW1 8803   6.818   6.391   3.307  1.7233 -3.6483 -0.0472
 2661SOL    HW2 8804   6.713   6.360   3.429 -1.8755  1.6298 -1.4696
 2662SOL     OW 8805   2.840   3.277   1.674 -0.3367  0.5146  0.1773
 2662SOL    HW1 8806   2.832   3.233   1.585 -0.6778 -0.4750  0.6921
 2662SOL    HW2 8807   2.910   3.231   1.728 -1.1162  0.2131  0.9474
 2663SOL     OW 8808   6.711   5.673   1.226 -0.1219  0.7011  0.3198
 2663SOL    HW1 8809   6.678   5.598   1.283 -0.8865  0.8704  0.1101
 2663SOL    HW2 8810   6.650   5.685   1.148 -0.0645  1.6089  0.4024
 2664SOL     OW 8811   5.236   0.959   4.378  0.6588 -0.1904  0.2011
 2664SOL    HW1 8812   5.193   0.880   4.334 -0.8385  0.1963  0.9256
 2664SOL    HW2 8813   5.332   0.938   4.396  0.7462 -1.1746 -1.2370
 2665SOL     OW 8814   2.197   3.859   1.626 -0.0735  0.8141  0.0308
 2665SOL    HW1 8815   2.287   3.902   1.621 -0.4426  1.9004  1.6689
 2665SOL    HW2 8816   2.127   3.929   1.638 -0.7108 -0.1401  2.5500
 2666SOL     OW 8817   4.150   4.056   3.454  0.4923 -0.2286 -0.0008
 2666SOL    HW1 8818   4.194   4.007   3.379 -0.0332 -1.7540  0.6400
 2666SOL    HW2 8819   4.074   4.001   3.490  1.4888 -0.1434  2.4473
 2667SOL     OW 8820   3.257   0.939   4.645  0.1950  0.0820 -0.2735
 2667SOL    HW1 8821   3.240   1.006   4.718 -1.9539 -0.7703  0.0752
 2667SOL    HW2 8822   3.326   0.975   4.582 -0.8276  2.6055 -0.0472
 2668SOL     OW 8823   0.013   2.788   2.018 -0.0159 -0.3150 -0.3857
 2668SOL    HW1 8824   0.096   2.838   2.045 -1.2642  1.9090 -0.4580
 2668SOL    HW2 8825  -0.011   2.811   1.924 -1.3371  0.0172  0.0206
 2669SOL     OW 8826   0.391   1.415   4.181 -0.7332  1.1349 -0.2537
 2669SOL    HW1 8827   0.384   1.514   4.190  0.8219  1.1581  0.9727
 2669SOL    HW2 8828   0.306   1.373   4.212 -1.1959  2.0413 -0.2573
 2670SOL     OW 8829   0.617   4.780   2.875 -0.3250 -0.3012  0.5323
 2670SOL    HW1 8830   0.685   4.851   2.895 -0.4576 -0.6187  2.3579
 2670SOL    HW2 8831   0.588   4.737   2.961  1.6579 -4.3347 -0.5766
 2671SOL     OW 8832   5.075   1.986   1.221  0.1471 -0.3780  0.0079
 2671SOL    HW1 8833   5.123   1.978   1.135  0.6486 -0.1741  0.2667
 2671SOL    HW2 8834   4.983   2.024   1.205  0.8555  1.3104 -0.2334
 2672SOL     OW 8835   3.889   6.923   3.782  0.7334  0.3920 -0.2752
 2672SOL    HW1 8836   3.943   6.839   3.770 -0.3924 -0.3402 -0.3121
 2672SOL    HW2 8837   3.794   6.899   3.798  0.4421  1.6724 -0.0043
 2673SOL     OW 8838   3.129   1.331   5.806 -0.1106  0.3209  0.5568
 2673SOL    HW1 8839   3.155   1.245   5.761  1.6775  0.6190  0.9491
 2673SOL    HW2 8840   3.098   1.396   5.737  2.2928  0.6569 -0.2513
 2674SOL     OW 8841   3.664   5.672   5.265 -0.0406 -0.5265  0.0074
 2674SOL    HW1 8842   3.573   5.630   5.261  0.6648 -2.0796 -0.6056
 2674SOL    HW2 8843   3.710   5.647   5.350  0.3997 -1.0484 -0.3758
 2675SOL     OW 8844   6.732   4.431   1.003  0.4758  0.0581  0.5140
 2675SOL    HW1 8845   6.774   4.513   0.964  0.8424 -0.7132 -0.7667
 2675SOL    HW2 8846   6.713   4.446   1.100  2.5017  0.9027  0.8132
 2676SOL     OW 8847   6.397   3.278   5.715 -0.1116  0.4906  0.1995
 2676SOL    HW1 8848   6.340   3.307   5.793  0.1588 -0.4126  0.7417
 2676SOL    HW2 8849   6.339   3.232   5.648 -0.3966  1.5151 -0.2880
 2677SOL     OW 8850   1.885   6.552   0.603  0.5425 -0.5021 -0.4435
 2677SOL    HW1 8851   1.944   6.562   0.523 -0.4757 -0.6459 -1.2485
 2677SOL    HW2 8852   1.924   6.485   0.666  2.0430  0.5861 -0.1332
 2678SOL     OW 8853   3.646   2.383   5.558  0.2065 -0.4560 -0.1207
 2678SOL    HW1 8854   3.561   2.410   5.513  1.6752  0.3102 -2.6900
 2678SOL    HW2 8855   3.696   2.464   5.587 -0.1300 -0.9146  1.8205
 2679SOL     OW 8856   6.739   4.450   6.756  0.4217 -0.3285 -0.4009
 2679SOL    HW1 8857   6.798   4.387   6.805  1.6355  1.5528  0.6903
 2679SOL    HW2 8858   6.673   4.490   6.820  1.6320  1.7017 -0.3489
 2680SOL     OW 8859   3.876   2.126   4.849 -0.0319 -0.3266 -0.5225
 2680SOL    HW1 8860   3.906   2.081   4.765  0.6490 -1.3570  0.2523
 2680SOL    HW2 8861   3.954   2.168   4.894 -0.4390  0.4540 -0.5279
 2681SOL     OW 8862   0.967   5.420   4.901 -0.3149 -0.0882  0.0957
 2681SOL    HW1 8863   1.051   5.474   4.907 -0.1170 -0.4640  0.8627
 2681SOL    HW2 8864   0.915   5.448   4.821  1.3786 -1.0187 -1.4040
 2682SOL     OW 8865   2.439   4.560   3.508 -0.3653 -0.0601 -0.4699
 2682SOL    HW1 8866   2.433   4.660   3.516  1.0535  0.3129 -2.9471
 2682SOL    HW2 8867   2.427   4.519   3.598  0.7074  2.4489  0.9453
 2683SOL     OW 8868   3.766   0.837   6.584 -0.4413  0.3246  0.4536
 2683SOL    HW1 8869   3.694   0.830   6.652 -0.0971 -0.1546  0.7693
 2683SOL    HW2 8870   3.798   0.746   6.559 -0.4755  0.5000 -0.2541
 2684SOL     OW 8871   4.689   2.170   6.428  0.1974 -0.0485 -0.4357
 2684SOL    HW1 8872   4.676   2.256   6.378  1.3202  0.9701  0.9263
 2684SOL    HW2 8873   4.662   2.093   6.370 -0.2815  1.1785 -1.9071
 2685SOL     OW 8874   3.887   2.441   0.247 -0.4397  0.5913 -0.3092
 2685SOL    HW1 8875   3.900   2.512   0.179 -0.2607  0.3790 -0.4978
 2685SOL    HW2 8876   3.858   2.356   0.202  2.4016 -0.3925 -0.4679
 2686SOL     OW 8877   4.103   6.753   0.733 -0.2149 -0.1205 -0.8432
 2686SOL    HW1 8878   4.023   6.702   0.703 -0.4395  0.2870 -0.9514
 2686SOL    HW2 8879   4.167   6.762   0.657 -0.9837  1.2964 -1.3633
 2687SOL     OW 8880   2.157   6.859   1.154  0.2057 -0.4166 -0.2668
 2687SOL    HW1 8881   2.159   6.959   1.152  0.7497 -0.4223 -0.0949
 2687SOL    HW2 8882   2.204   6.827   1.236  0.4348 -0.8256 -0.5524
 2688SOL     OW 8883   2.794   2.189   6.411 -0.2964 -0.0438  0.3083
 2688SOL    HW1 8884   2.806   2.165   6.315 -0.5318 -0.6315  0.4187
 2688SOL    HW2 8885   2.844   2.273   6.432  0.0760 -0.1311 -0.2352
 2689SOL     OW 8886   0.979   4.654   0.590  0.5985  0.2225 -0.2787
 2689SOL    HW1 8887   0.931   4.567   0.585  0.8811 -0.0109  0.8366
 2689SOL    HW2 8888   0.961   4.697   0.679  0.3817  1.3547 -0.8467
 2690SOL     OW 8889   2.597   0.375   6.702  0.2647  0.3398 -0.0810
 2690SOL    HW1 8890   2.674   0.313   6.688  0.1472  0.6457 -2.2973
 2690SOL    HW2 8891   2.624   0.448   6.766  1.6032  0.0883 -0.3356
 2691SOL     OW 8892   1.150   3.736   2.982  0.2356  0.7611 -0.0771
 2691SOL    HW1 8893   1.229   3.785   3.020  1.9202 -1.7944 -0.0918
 2691SOL    HW2 8894   1.179   3.684   2.901 -0.5389 -2.9574  1.8479
 2692SOL     OW 8895   2.223   3.757   5.271  0.5041  0.2764  0.1286
 2692SOL    HW1 8896   2.288   3.727   5.201 -0.5814  1.2090 -1.3262
 2692SOL    HW2 8897   2.246   3.850   5.301  0.7012  0.0484  0.7065
 2693SOL     OW 8898   5.351   5.882   2.779 -0.1200 -0.2027 -0.2402
 2693SOL    HW1 8899   5.297   5.943   2.722  1.3801  2.1707  0.7577
 2693SOL    HW2 8900   5.431   5.850   2.728  0.5432  0.8915  0.0978
 2694SOL     OW 8901   4.979   3.191   3.550 -0.6511  0.3719 -0.5678
 2694SOL    HW1 8902   4.956   3.127   3.623  1.0670 -0.1445 -0.4149
 2694SOL    HW2 8903   5.060   3.244   3.577 -0.3079  0.5483 -1.8764
 2695SOL     OW 8904   3.001   6.789   4.950  0.3561 -0.0936  0.1122
 2695SOL    HW1 8905   2.948   6.750   5.025 -3.4152  2.0519 -1.1857
 2695SOL    HW2 8906   2.997   6.889   4.955  0.9550  0.1166 -2.2506
 2696SOL     OW 8907   5.845   5.616   1.290 -0.4450 -0.0969  0.2863
 2696SOL    HW1 8908   5.763   5.631   1.234 -0.2268  0.9594  0.2221
 2696SOL    HW2 8909   5.867   5.518   1.292 -1.9491 -0.4520  0.6552
 2697SOL     OW 8910   6.387   3.234   2.988 -0.5760  0.6532 -0.1382
 2697SOL    HW1 8911   6.307   3.180   3.014  0.0264  0.5284  1.5483
 2697SOL    HW2 8912   6.358   3.323   2.953 -1.4549  1.3474  2.1958
 2698SOL     OW 8913   3.467   3.394   1.044  0.1028 -0.1113 -0.2200
 2698SOL    HW1 8914   3.451   3.384   1.143 -0.4786  3.0237  0.0891
 2698SOL    HW2 8915   3.418   3.321   0.995  0.4549 -1.7796  1.7680
 2699SOL     OW 8916   0.596   6.001   1.969 -0.0173  0.3210 -0.1491
 2699SOL    HW1 8917   0.550   5.926   1.920  1.6749 -0.3852 -0.7447
 2699SOL    HW2 8918   0.565   6.089   1.932 -1.6495 -0.0666  0.2120
 2700SOL     OW 8919   0.105   0.729   0.288 -0.0200 -0.0413 -0.0790
 2700SOL    HW1 8920   0.077   0.805   0.228 -0.7096  0.5650  0.9752
 2700SOL    HW2 8921   0.189   0.689   0.253 -0.0172  0.7592 -1.0531
 2701SOL     OW 8922   4.901   2.725   4.932 -0.5268 -0.1822 -0.4422
 2701SOL    HW1 8923   4.936   2.774   4.852 -0.4530 -0.6337 -0.6895
 2701SOL    HW2 8924   4.975   2.671   4.973  0.3659  2.4790  1.8653
 2702SOL     OW 8925   4.068   0.169   1.807 -0.3176 -0.1409  0.4554
 2702SOL    HW1 8926   3.985   0.159   1.751 -1.4268 -0.1806  2.0349
 2702SOL    HW2 8927   4.070   0.260   1.847 -0.4779 -0.6657  1.7176
 2703SOL     OW 8928   0.902   5.955   4.352 -0.4547  0.1184 -0.5930
 2703SOL    HW1 8929   0.847   6.027   4.394 -1.3842  0.2317 -1.9234
 2703SOL    HW2 8930   0.902   5.967   4.253 -0.3096 -1.4917 -0.8227
 2704SOL     OW 8931   5.167   4.361   6.845  0.2340  0.2179  0.0773
 2704SOL    HW1 8932   5.165   4.321   6.937  1.2141  0.0485  0.0366
 2704SOL    HW2 8933   5.184   4.289   6.778 -2.2880  0.0329 -0.4610
 2705SOL     OW 8934   5.216   3.866   3.993  0.2214  0.1067 -0.2637
 2705SOL    HW1 8935   5.127   3.820   3.999  0.3592 -0.2469 -0.8887
 2705SOL    HW2 8936   5.208   3.945   3.933 -0.1647  1.2692  1.2604
 2706SOL     OW 8937   2.781   3.543   6.095 -0.1428  0.1743  0.0158
 2706SOL    HW1 8938   2.800   3.565   5.999  0.3983  1.1163  0.3325
 2706SOL    HW2 8939   2.682   3.543   6.110 -0.2640 -0.6155 -0.6787
 2707SOL     OW 8940   2.485   6.676   6.244 -0.2110  0.0058 -1.0784
 2707SOL    HW1 8941   2.424   6.598   6.258  2.4763 -2.1161 -0.3592
 2707SOL    HW2 8942   2.538   6.662   6.160  0.4829  0.9449 -0.8187
 2708SOL     OW 8943   1.336   3.434   3.477  0.4755 -0.3300 -0.2414
 2708SOL    HW1 8944   1.331   3.534   3.480 -0.9925 -0.3654 -0.5686
 2708SOL    HW2 8945   1.266   3.399   3.415  1.0458 -1.5693 -0.2220
 2709SOL     OW 8946   3.768   5.672   3.493 -0.3346 -0.4901 -0.1916
 2709SOL    HW1 8947   3.678   5.707   3.469  0.1658  1.0055  0.0172
 2709SOL    HW2 8948   3.764   5.630   3.584 -0.4766  1.0795  0.5478
 2710SOL     OW 8949   6.948   5.030   4.943  0.0157  0.7036 -0.7816
 2710SOL    HW1 8950   7.038   5.070   4.929 -0.4893  2.3040  0.3768
 2710SOL    HW2 8951   6.886   5.063   4.872 -0.3835  1.9952  0.1297
 2711SOL     OW 8952   4.273   2.335   5.418  0.1348 -0.1426 -0.2936
 2711SOL    HW1 8953   4.176   2.318   5.437  0.1186  1.8963  1.7652
 2711SOL    HW2 8954   4.281   2.407   5.348  0.1433  0.3105  0.1686
 2712SOL     OW 8955   2.852   6.798   4.700  0.7832  0.2027  0.4411
 2712SOL    HW1 8956   2.912   6.793   4.780  0.3898  1.3050  0.8264
 2712SOL    HW2 8957   2.896   6.754   4.622  0.5952 -2.1504  1.5854
 2713SOL     OW 8958   1.511   4.525   5.912  0.1799  0.3926  0.1463
 2713SOL    HW1 8959   1.488   4.597   5.847 -0.0250  0.6399  0.4942
 2713SOL    HW2 8960   1.556   4.565   5.992  2.8608 -0.1270 -0.9648
 2714SOL     OW 8961   5.118   5.083   2.683  0.2488  0.3448  0.4719
 2714SOL    HW1 8962   5.111   5.156   2.615  1.5835 -0.1469 -0.2325
 2714SOL    HW2 8963   5.199   5.027   2.664 -0.0204 -0.5369  1.7668
 2715SOL     OW 8964   3.754   1.169   3.107 -0.4794  0.0577  0.1626
 2715SOL    HW1 8965   3.688   1.094   3.117  0.5654 -1.0253 -0.8021
 2715SOL    HW2 8966   3.779   1.179   3.011  1.0251  0.1693  0.5346
 2716SOL     OW 8967   0.498   5.339   1.737 -0.4596 -0.2143  0.1647
 2716SOL    HW1 8968   0.507   5.347   1.837 -0.9647 -0.6832  0.2552
 2716SOL    HW2 8969   0.562   5.268   1.705 -0.7022 -0.4627  0.2256
 2717SOL     OW 8970   3.584   2.209   6.088  0.1808  0.1528  0.3824
 2717SOL    HW1 8971   3.664   2.234   6.033 -0.3746 -0.8817 -0.9385
 2717SOL    HW2 8972   3.559   2.114   6.071  0.4369 -0.4593  3.0395
 2718SOL     OW 8973   4.571   2.311   1.342  0.3180 -0.0273 -0.2492
 2718SOL    HW1 8974   4.671   2.306   1.341  0.4551  1.9838 -0.1109
 2718SOL    HW2 8975   4.534   2.233   1.393  1.8661 -0.2103  0.6223
 2719SOL     OW 8976   3.784   5.433   4.543  0.1208  0.2499  0.1025
 2719SOL    HW1 8977   3.842   5.361   4.506 -0.9143 -0.0704 -0.9732
 2719SOL    HW2 8978   3.804   5.445   4.640  1.1708 -0.6234  0.0231
 2720SOL     OW 8979   2.597   4.232   2.224  0.0838 -0.3780 -0.4039
 2720SOL    HW1 8980   2.636   4.315   2.263  1.8276 -1.3075 -0.1022
 2720SOL    HW2 8981   2.498   4.242   2.218  0.1940  1.4591  0.2286
 2721SOL     OW 8982   1.580   2.086   0.083 -0.2213  0.6953 -0.1395
 2721SOL    HW1 8983   1.491   2.091   0.128 -0.8358  1.6214 -1.4013
 2721SOL    HW2 8984   1.648   2.049   0.147 -1.5408 -0.2144  0.7815
 2722SOL     OW 8985   4.103   6.459   2.316 -0.4357  0.2167  0.6782
 2722SOL    HW1 8986   4.078   6.500   2.228 -0.4823  1.3816  1.2121
 2722SOL    HW2 8987   4.067   6.366   2.321  2.2907 -1.1471 -1.8422
 2723SOL     OW 8988   5.049   3.839   2.291  0.3204 -0.7723 -0.0378
 2723SOL    HW1 8989   5.024   3.866   2.198 -0.1897 -1.1033  0.0023
 2723SOL    HW2 8990   5.061   3.740   2.295  0.8235 -0.7066  0.1373
 2724SOL     OW 8991   5.759   2.286   6.953 -0.2719 -0.0380  0.1015
 2724SOL    HW1 8992   5.704   2.316   6.875 -1.1956  1.7273  1.3744
 2724SOL    HW2 8993   5.815   2.362   6.986  0.0625 -0.7373  1.1789
 2725SOL     OW 8994   2.318   3.472   6.376  0.7900 -0.0129 -0.2053
 2725SOL    HW1 8995   2.396   3.524   6.341  0.7185  1.3669  1.5063
 2725SOL    HW2 8996   2.351   3.399   6.436  0.8156 -0.8067 -1.1604
 2726SOL     OW 8997   5.520   1.545   0.265  0.1497 -0.0030 -0.2569
 2726SOL    HW1 8998   5.448   1.560   0.197 -0.2383  0.2325  0.2054
 2726SOL    HW2 8999   5.486   1.569   0.356  0.8080  0.0927 -0.0337
 2727SOL     OW 9000   5.182   4.929   1.006  0.6279 -0.5396 -0.0794
 2727SOL    HW1 9001   5.232   4.946   1.091  0.5068 -0.7880  0.0430
 2727SOL    HW2 9002   5.247   4.907   0.933  0.9282  2.0587 -0.6587
 2728SOL     OW 9003   6.603   6.155   3.200 -0.0960 -0.2916  0.3551
 2728SOL    HW1 9004   6.654   6.071   3.216  0.0083 -0.1236  0.9269
 2728SOL    HW2 9005   6.667   6.231   3.188 -0.1725 -0.3916 -0.7793
 2729SOL     OW 9006   6.595   5.391   1.970  0.0680  0.2134 -0.3475
 2729SOL    HW1 9007   6.581   5.295   1.944  0.5200  0.1235 -0.2595
 2729SOL    HW2 9008   6.687   5.402   2.007 -0.2514  0.5344  0.3561
 2730SOL     OW 9009   1.079   2.238   6.661  0.0978  0.1389  0.2216
 2730SOL    HW1 9010   1.096   2.222   6.758 -1.0968 -0.9851  0.2801
 2730SOL    HW2 9011   1.140   2.180   6.607 -0.4779 -0.6198  0.3553
 2731SOL     OW 9012   4.713   5.284   1.282  0.6440  0.5393 -0.0378
 2731SOL    HW1 9013   4.679   5.271   1.189 -0.8433 -0.3677  0.5922
 2731SOL    HW2 9014   4.763   5.203   1.311 -0.5218  0.0368  0.6047
 2732SOL     OW 9015   0.559   3.825   5.762 -0.4254 -0.8059  0.4194
 2732SOL    HW1 9016   0.563   3.907   5.706  1.1469 -0.0089  1.6251
 2732SOL    HW2 9017   0.515   3.846   5.849  1.3423 -0.7825  1.3642
 2733SOL     OW 9018   4.078   0.362   0.692  0.3989 -0.0117  0.4217
 2733SOL    HW1 9019   3.982   0.357   0.665 -0.2491  1.1243  2.2729
 2733SOL    HW2 9020   4.123   0.274   0.675 -0.4070  0.0515 -2.3158
 2734SOL     OW 9021   0.555   1.152   6.294  0.2121 -0.2074 -0.0762
 2734SOL    HW1 9022   0.571   1.057   6.318  0.5819 -0.2823 -0.6051
 2734SOL    HW2 9023   0.561   1.164   6.195  0.9921  0.5169  0.0404
 2735SOL     OW 9024   3.788   6.870   4.366 -0.1452  0.2835  0.6023
 2735SOL    HW1 9025   3.872   6.818   4.380 -1.0213 -1.5675 -0.6180
 2735SOL    HW2 9026   3.766   6.873   4.268 -1.4853  0.7268  0.8751
 2736SOL     OW 9027   6.186   3.646   4.871  0.1058 -0.5503 -0.0761
 2736SOL    HW1 9028   6.229   3.556   4.875 -0.6495 -0.8778  1.9848
 2736SOL    HW2 9029   6.103   3.646   4.925 -1.9680  0.3924 -2.9974
 2737SOL     OW 9030   1.123   4.494   0.837 -0.3066  0.0483  0.1955
 2737SOL    HW1 9031   1.098   4.475   0.932  1.8818 -3.0254  0.2931
 2737SOL    HW2 9032   1.063   4.442   0.776 -0.1346  0.0497  0.0236
 2738SOL     OW 9033   5.409   6.273   4.641 -0.6718 -0.0475  0.3285
 2738SOL    HW1 9034   5.421   6.241   4.735  1.9004 -0.2539 -0.0158
 2738SOL    HW2 9035   5.357   6.359   4.642 -1.7842 -0.7027  1.8021
 2739SOL     OW 9036   3.324   6.160   2.816  0.0821  0.0243 -0.0548
 2739SOL    HW1 9037   3.370   6.072   2.831 -0.5687 -0.1560  0.9123
 2739SOL    HW2 9038   3.348   6.223   2.889 -0.7645  0.1135  0.1507
 2740SOL     OW 9039   2.987   3.191   4.254 -0.6643 -0.0065  0.3260
 2740SOL    HW1 9040   3.087   3.193   4.250 -0.6624  1.8880  0.3575
 2740SOL    HW2 9041   2.951   3.279   4.224 -2.2828 -0.1434  1.7042
 2741SOL     OW 9042   0.328   3.516   5.093  0.1059 -0.3646 -0.0313
 2741SOL    HW1 9043   0.283   3.507   5.004  0.5354 -0.8082 -0.2088
 2741SOL    HW2 9044   0.425   3.538   5.079  0.1869 -0.4944  0.3262
 2742SOL     OW 9045   3.406   6.831   5.443 -0.0935 -0.1261 -0.6048
 2742SOL    HW1 9046   3.390   6.897   5.517  0.5498  0.4550 -0.9693
 2742SOL    HW2 9047   3.432   6.743   5.482 -2.8435 -0.7559 -0.0346
 2743SOL     OW 9048   0.609   3.741   2.832  0.3276  0.2634  0.3860
 2743SOL    HW1 9049   0.533   3.740   2.766 -0.5907 -1.7529  1.3642
 2743SOL    HW2 9050   0.686   3.791   2.793 -1.1371  1.5082 -1.0597
 2744SOL     OW 9051   2.459   4.979   1.219 -0.2722 -0.3556  0.2171
 2744SOL    HW1 9052   2.486   5.028   1.302  1.3108  2.0039 -1.6185
 2744SOL    HW2 9053   2.539   4.933   1.180 -0.3882  0.7577 -1.4036
 2745SOL     OW 9054   3.075   6.145   5.135 -0.1856 -0.2349  0.0272
 2745SOL    HW1 9055   3.008   6.202   5.088  0.3962  0.5645  0.1304
 2745SOL    HW2 9056   3.167   6.169   5.101  0.1168 -0.7001  0.5020
 2746SOL     OW 9057   3.512   0.469   0.531  0.2754  0.2771  0.1210
 2746SOL    HW1 9058   3.435   0.504   0.478  0.1974  0.3962  0.3096
 2746SOL    HW2 9059   3.557   0.545   0.578 -2.1147 -0.1644  3.5258
 2747SOL     OW 9060   0.010   4.261   3.055  0.0304 -0.0347  0.2039
 2747SOL    HW1 9061   0.102   4.282   3.025 -0.6553  0.5807 -1.6301
 2747SOL    HW2 9062  -0.055   4.285   2.983 -1.4369 -1.5501  0.9581
 2748SOL     OW 9063   5.738   0.539   6.054 -0.6106 -0.3560 -0.2941
 2748SOL    HW1 9064   5.782   0.625   6.080 -0.6134 -0.0107 -1.4044
 2748SOL    HW2 9065   5.788   0.496   5.980  1.4479 -3.1119  2.4520
 2749SOL     OW 9066   3.577   4.034   5.873  0.1100 -0.1621  0.3453
 2749SOL    HW1 9067   3.496   3.993   5.916 -0.7586  1.5305  0.3524
 2749SOL    HW2 9068   3.577   4.014   5.775  0.2048 -0.9729  0.5038
 2750SOL     OW 9069   0.426   2.365   6.592 -0.0015  0.0734  0.0970
 2750SOL    HW1 9070   0.500   2.303   6.619  1.7792  1.4451 -1.3891
 2750SOL    HW2 9071   0.340   2.313   6.588  1.2053 -2.0418 -0.0526
 2751SOL     OW 9072   0.357   1.685   5.817  0.2693 -0.0566 -0.0291
 2751SOL    HW1 9073   0.439   1.688   5.760 -1.0348  0.4283 -2.0123
 2751SOL    HW2 9074   0.309   1.598   5.801  0.1253 -0.1226  0.7250
 2752SOL     OW 9075   5.971   0.423   6.620 -0.3559  0.0830 -0.4465
 2752SOL    HW1 9076   6.063   0.433   6.583 -0.9821  0.5771 -1.9946
 2752SOL    HW2 9077   5.971   0.444   6.718  1.0804  0.6108 -0.5348
 2753SOL     OW 9078   1.983   1.840   0.863  0.0965 -0.1554 -0.0524
 2753SOL    HW1 9079   1.925   1.863   0.941  1.0585 -1.0671  0.9643
 2753SOL    HW2 9080   2.036   1.921   0.836  1.4613 -0.3571  1.7639
 2754SOL     OW 9081   0.476   0.274   2.673  0.4014 -0.3080 -0.6030
 2754SOL    HW1 9082   0.500   0.207   2.603 -0.2861 -2.0297  0.7617
 2754SOL    HW2 9083   0.420   0.231   2.744  1.1731  1.3367  1.0954
 2755SOL     OW 9084   6.512   0.013   2.977 -0.1298  0.2857 -0.4422
 2755SOL    HW1 9085   6.541   0.080   3.045  1.4101  0.2232 -0.9780
 2755SOL    HW2 9086   6.541   0.044   2.886  1.0150 -1.2817 -0.6540
 2756SOL     OW 9087   1.408   1.867   6.170  0.3296  0.6072 -0.4789
 2756SOL    HW1 9088   1.393   1.953   6.217 -3.5231  0.7025 -1.6406
 2756SOL    HW2 9089   1.470   1.882   6.092  0.1721  2.2093 -0.3345
 2757SOL     OW 9090   3.493   5.991   3.243  0.4334  0.3947 -0.3280
 2757SOL    HW1 9091   3.588   5.961   3.229  0.0359 -0.5783 -1.0818
 2757SOL    HW2 9092   3.480   6.081   3.202  0.7391  0.0126 -1.3003
 2758SOL     OW 9093   2.537   5.910   2.380 -0.1947  0.2885  0.4592
 2758SOL    HW1 9094   2.579   5.820   2.367  2.9323  1.8908 -2.1998
 2758SOL    HW2 9095   2.473   5.928   2.306  1.5930  1.3355 -0.9260
 2759SOL     OW 9096   3.528   4.871   1.741 -0.2063  0.7947  0.4124
 2759SOL    HW1 9097   3.521   4.955   1.688 -3.2224 -0.5322 -1.5852
 2759SOL    HW2 9098   3.516   4.891   1.838 -3.3070  2.5171 -0.2262
 2760SOL     OW 9099   4.213   2.520   3.340 -0.0048  0.2621 -0.4610
 2760SOL    HW1 9100   4.231   2.470   3.425  2.5828 -0.0807 -1.1276
 2760SOL    HW2 9101   4.135   2.479   3.294  0.6635 -1.7714  0.1037
 2761SOL     OW 9102   4.618   6.864   4.616  0.2642 -0.5988  0.4046
 2761SOL    HW1 9103   4.549   6.928   4.649 -0.2448 -1.9837  2.1697
 2761SOL    HW2 9104   4.650   6.894   4.526 -2.0783  0.4837 -0.1610
 2762SOL     OW 9105   6.531   0.073   6.034 -0.1455 -0.3730 -0.0220
 2762SOL    HW1 9106   6.511   0.091   5.937  3.1382 -0.7609 -0.8876
 2762SOL    HW2 9107   6.550  -0.024   6.047 -1.8916 -0.5448  1.3491
 2763SOL     OW 9108   6.599   5.394   3.211  0.3649 -0.3548  0.4585
 2763SOL    HW1 9109   6.500   5.412   3.209  0.5094  0.8864 -3.1714
 2763SOL    HW2 9110   6.616   5.301   3.178  0.4324  0.4896 -2.0952
 2764SOL     OW 9111   1.417   0.643   1.747  0.2798  0.5595  0.3008
 2764SOL    HW1 9112   1.484   0.579   1.783 -1.9263 -2.0562  0.1079
 2764SOL    HW2 9113   1.462   0.727   1.718  3.4545 -1.1640 -0.1172
 2765SOL     OW 9114   0.145   4.525   2.378  0.1786  0.0080  0.3672
 2765SOL    HW1 9115   0.053   4.553   2.350 -0.2495 -0.6126  1.0821
 2765SOL    HW2 9116   0.212   4.592   2.345 -0.5921  0.8083  0.3717
 2766SOL     OW 9117   2.313   6.592   3.230 -0.3145 -0.8795 -0.0721
 2766SOL    HW1 9118   2.406   6.575   3.261 -0.1938 -1.2314 -0.6215
 2766SOL    HW2 9119   2.315   6.633   3.138 -0.7048 -1.2039 -0.2294
 2767SOL     OW 9120   1.824   0.160   5.318  0.0632  0.1863  0.3122
 2767SOL    HW1 9121   1.765   0.236   5.345  1.4789  1.1783  0.7864
 2767SOL    HW2 9122   1.792   0.076   5.361 -0.3665  0.8882  1.4147
 2768SOL     OW 9123   0.334   0.595   6.209  0.1420 -0.2206 -0.1261
 2768SOL    HW1 9124   0.297   0.561   6.295  0.1972 -0.5290 -0.2251
 2768SOL    HW2 9125   0.410   0.658   6.228  0.7157 -0.9461  0.0294
 2769SOL     OW 9126   3.988   2.730   1.010  0.1318 -0.0026 -0.3371
 2769SOL    HW1 9127   3.932   2.728   0.927  0.4772  0.4736 -0.5905
 2769SOL    HW2 9128   3.994   2.638   1.049  1.3871 -0.5967 -1.8110
 2770SOL     OW 9129   6.520   2.916   5.175 -0.0338  0.2372 -0.1720
 2770SOL    HW1 9130   6.547   2.932   5.270 -1.1672 -0.5878  0.3057
 2770SOL    HW2 9131   6.585   2.962   5.115  0.9444  0.4347  0.9802
 2771SOL     OW 9132   1.026   2.693   0.323 -0.0423  0.4719 -0.4172
 2771SOL    HW1 9133   0.963   2.757   0.278 -0.6621 -0.5081 -0.9699
 2771SOL    HW2 9134   1.111   2.688   0.272  0.7153  2.1274  0.5622
 2772SOL     OW 9135   3.731   1.485   0.622  0.3241 -0.2676  0.3162
 2772SOL    HW1 9136   3.734   1.496   0.523  0.4616 -0.6205  0.2802
 2772SOL    HW2 9137   3.635   1.487   0.653  0.2474 -0.7155  0.1190
 2773SOL     OW 9138   2.594   5.676   5.164 -0.5004 -0.3896 -0.5233
 2773SOL    HW1 9139   2.684   5.633   5.171 -0.4059 -0.0348  1.0347
 2773SOL    HW2 9140   2.536   5.642   5.238 -0.9037  1.0662 -0.1382
 2774SOL     OW 9141   0.995   0.453   5.599  0.3840 -0.0723  0.0090
 2774SOL    HW1 9142   0.904   0.481   5.631 -1.0138  0.4645 -3.7629
 2774SOL    HW2 9143   1.004   0.354   5.606 -0.7457 -0.1988 -0.0734
 2775SOL     OW 9144   4.416   5.250   3.947  0.5081  0.1467 -0.0477
 2775SOL    HW1 9145   4.329   5.203   3.961  1.0574 -0.8545  0.0888
 2775SOL    HW2 9146   4.485   5.183   3.919  1.4572  0.7646  0.7556
 2776SOL     OW 9147   0.251   4.582   0.587 -0.3955  0.2529  0.8313
 2776SOL    HW1 9148   0.324   4.517   0.568 -0.6112  0.0343  0.7452
 2776SOL    HW2 9149   0.265   4.665   0.532  0.2401  0.5504  1.4175
 2777SOL     OW 9150   5.585   0.626   2.564  0.1985  0.2640 -0.0223
 2777SOL    HW1 9151   5.659   0.673   2.612  2.0784 -0.7495 -1.7382
 2777SOL    HW2 9152   5.610   0.530   2.552 -0.6948  0.2303 -1.9574
 2778SOL     OW 9153   1.826   0.694   0.824 -0.0798 -0.0634  0.5842
 2778SOL    HW1 9154   1.823   0.599   0.793 -0.7537  0.2148 -0.2322
 2778SOL    HW2 9155   1.857   0.752   0.748 -1.9867  0.6693  0.3110
 2779SOL     OW 9156   1.354   6.586   6.121  0.2435 -0.4478 -0.1605
 2779SOL    HW1 9157   1.355   6.653   6.047  0.9599 -1.8380 -1.4610
 2779SOL    HW2 9158   1.321   6.630   6.205  2.8182  2.1417 -0.3564
 2780SOL     OW 9159   2.955   5.348   3.471  0.1479  0.4604  0.4577
 2780SOL    HW1 9160   3.041   5.335   3.421  0.3267 -0.9397  1.0709
 2780SOL    HW2 9161   2.974   5.387   3.561 -0.1475  2.7168 -0.4011
 2781SOL     OW 9162   3.650   5.053   4.816 -0.1380 -0.8202  0.2296
 2781SOL    HW1 9163   3.593   4.980   4.854 -0.5677 -0.7682 -0.3063
 2781SOL    HW2 9164   3.622   5.071   4.722 -1.6135  1.6441  1.0653
 2782SOL     OW 9165   6.798   4.982   1.328 -0.2684  0.3561 -0.0259
 2782SOL    HW1 9166   6.873   4.967   1.265  0.6059 -0.0093  1.0719
 2782SOL    HW2 9167   6.834   5.015   1.416 -1.5823  2.7846 -0.2959
 2783SOL     OW 9168   4.750   1.305   3.771  0.3865  0.0187  0.0891
 2783SOL    HW1 9169   4.680   1.247   3.813  0.6527  1.2252  2.3582
 2783SOL    HW2 9170   4.766   1.275   3.677 -1.5847 -1.6676  0.2144
 2784SOL     OW 9171   0.938   0.190   1.919  0.2218  0.1231 -0.4438
 2784SOL    HW1 9172   1.025   0.205   1.967 -0.5242  0.8911  0.7253
 2784SOL    HW2 9173   0.937   0.098   1.879  1.6503  0.1848 -0.6890
 2785SOL     OW 9174   5.490   2.536   2.242  0.6079  0.3548  0.7618
 2785SOL    HW1 9175   5.460   2.626   2.210  0.7289 -0.0161 -0.4405
 2785SOL    HW2 9176   5.422   2.467   2.217  0.3041  0.1646  2.0615
 2786SOL     OW 9177   6.801   6.415   2.163 -0.1199 -0.1845 -0.7829
 2786SOL    HW1 9178   6.731   6.344   2.165  0.3854 -0.6807  0.0133
 2786SOL    HW2 9179   6.797   6.468   2.248 -1.3791  1.6509 -1.8992
 2787SOL     OW 9180   6.783   5.211   0.521 -0.1507  0.3585 -0.0795
 2787SOL    HW1 9181   6.740   5.256   0.442  0.5480  1.4376  0.1311
 2787SOL    HW2 9182   6.741   5.245   0.605  1.2002  1.5980  0.1451
 2788SOL     OW 9183   2.723   6.173   1.472  0.0631  0.1784  0.3980
 2788SOL    HW1 9184   2.757   6.265   1.493 -0.0873 -0.2513  2.8238
 2788SOL    HW2 9185   2.702   6.167   1.375  1.2918  2.2908 -0.0706
 2789SOL     OW 9186   5.466   1.875   4.411  0.5559  0.1223  0.4051
 2789SOL    HW1 9187   5.548   1.855   4.464  1.9978  0.9009 -1.4149
 2789SOL    HW2 9188   5.490   1.926   4.329 -1.7122 -0.0251 -0.4523
 2790SOL     OW 9189   3.055   4.896   2.710 -0.7566 -0.1391 -0.4908
 2790SOL    HW1 9190   3.107   4.930   2.789  0.8476 -0.5016 -1.3420
 2790SOL    HW2 9191   2.993   4.824   2.740  0.1119 -0.5479  0.3933
 2791SOL     OW 9192   1.243   6.914   1.897  0.1528 -0.7266 -0.1119
 2791SOL    HW1 9193   1.223   6.992   1.837  0.5812 -0.5640 -0.0489
 2791SOL    HW2 9194   1.158   6.867   1.921 -0.0981 -0.3520 -0.2560
 2792SOL     OW 9195   5.129   2.481   0.203  0.0223 -0.1722  0.3234
 2792SOL    HW1 9196   5.174   2.458   0.117  1.7792 -0.6027  1.3193
 2792SOL    HW2 9197   5.124   2.400   0.261 -1.0207  0.1471  0.7022
 2793SOL     OW 9198   2.937   5.948   5.818  0.3833 -0.3265  0.4154
 2793SOL    HW1 9199   2.908   6.019   5.754 -0.2624 -0.1122  0.9355
 2793SOL    HW2 9200   2.902   5.860   5.788  2.6072 -0.7446 -1.1764
 2794SOL     OW 9201   2.229   2.024   5.050 -0.1900  0.1072 -0.2451
 2794SOL    HW1 9202   2.146   1.977   5.019  0.4524  0.0360 -2.0207
 2794SOL    HW2 9203   2.227   2.119   5.019  0.0713  0.2994  0.3202
 2795SOL     OW 9204   1.384   0.467   0.113  0.1479  0.2824  0.7751
 2795SOL    HW1 9205   1.426   0.402   0.049  1.1126 -1.0935  2.6996
 2795SOL    HW2 9206   1.296   0.431   0.143 -0.1599  0.7752  0.4802
 2796SOL     OW 9207   1.272   5.382   1.839  0.4170 -0.0639  0.3602
 2796SOL    HW1 9208   1.372   5.382   1.833  0.4848 -2.2199  0.5179
 2796SOL    HW2 9209   1.245   5.364   1.933 -0.0578 -1.9661 -0.1092
 2797SOL     OW 9210   1.091   6.485   2.539  0.1138  0.1085  0.6038
 2797SOL    HW1 9211   1.062   6.558   2.601 -0.6249 -0.3777  0.8559
 2797SOL    HW2 9212   1.013   6.458   2.482  0.4159 -0.3571  0.4027
 2798SOL     OW 9213   6.962   5.628   5.094 -0.4624  0.7373  0.4629
 2798SOL    HW1 9214   6.915   5.704   5.050 -2.4485 -0.7221 -0.0603
 2798SOL    HW2 9215   7.010   5.574   5.026  1.3514  1.7224  0.8921
 2799SOL     OW 9216   4.420   3.348   2.012 -0.0716  0.5098 -0.1064
 2799SOL    HW1 9217   4.364   3.328   2.092  1.3869  2.9026  1.6216
 2799SOL    HW2 9218   4.498   3.286   2.009 -1.1569 -0.9133 -0.9107
 2800SOL     OW 9219   5.914   4.791   6.728 -0.0190  0.5829 -0.1371
 2800SOL    HW1 9220   5.822   4.819   6.755  0.9136  2.5167  1.3087
 2800SOL    HW2 9221   5.909   4.711   6.668 -2.6151  0.7011 -0.1740
 2801SOL     OW 9222   4.288   4.216   1.111 -0.2041 -0.1621  0.3637
 2801SOL    HW1 9223   4.241   4.146   1.057  0.0802  0.0981 -0.2255
 2801SOL    HW2 9224   4.367   4.175   1.157  0.8874  0.0564 -1.1965
 2802SOL     OW 9225   5.995   5.298   5.236 -0.2180 -0.1320 -0.2254
 2802SOL    HW1 9226   5.928   5.267   5.303  0.1943 -1.2200 -0.3044
 2802SOL    HW2 9227   6.004   5.230   5.163  1.1341 -0.1277 -0.0953
 2803SOL     OW 9228   3.109   5.631   3.132  0.0094 -0.3222 -0.1447
 2803SOL    HW1 9229   3.194   5.653   3.084  0.2434  0.3538  0.5694
 2803SOL    HW2 9230   3.037   5.611   3.065 -0.1553  2.4121 -0.8576
 2804SOL     OW 9231   5.977   3.541   3.745 -0.0374  0.0339  0.1354
 2804SOL    HW1 9232   6.060   3.499   3.781  1.2417  1.4078 -1.0250
 2804SOL    HW2 9233   5.987   3.640   3.748 -1.4676  0.2112 -0.4239
 2805SOL     OW 9234   3.183   3.026   6.244  0.0180  0.1908  0.3942
 2805SOL    HW1 9235   3.122   3.065   6.175 -0.1914  1.4673  1.2668
 2805SOL    HW2 9236   3.264   3.084   6.253  0.3110 -0.2770  0.8170
 2806SOL     OW 9237   0.614   6.686   3.059 -0.6105 -0.1948 -0.0006
 2806SOL    HW1 9238   0.678   6.609   3.058 -0.5481 -0.1759 -2.1165
 2806SOL    HW2 9239   0.599   6.716   3.153 -0.9029 -3.0221  0.9477
 2807SOL     OW 9240   5.345   6.781   4.877 -0.0460 -0.8640 -0.7611
 2807SOL    HW1 9241   5.344   6.769   4.976  1.4960 -0.8073 -0.7169
 2807SOL    HW2 9242   5.280   6.853   4.852 -0.7119 -1.1180  0.1511
 2808SOL     OW 9243   6.659   0.752   2.893  0.5297  0.6220 -0.3677
 2808SOL    HW1 9244   6.584   0.787   2.837  0.5791  1.2218 -0.0708
 2808SOL    HW2 9245   6.738   0.733   2.834 -0.6327 -2.5344 -1.1239
 2809SOL     OW 9246   5.492   0.255   6.056 -0.1443 -0.3117 -0.0781
 2809SOL    HW1 9247   5.460   0.283   5.966  0.4084  1.5331  0.2514
 2809SOL    HW2 9248   5.588   0.227   6.050  0.0617  0.3623  0.0272
 2810SOL     OW 9249   5.237   5.530   6.970  0.1159 -0.1195 -0.1564
 2810SOL    HW1 9250   5.242   5.617   6.920 -0.2954  0.6695  1.1348
 2810SOL    HW2 9251   5.325   5.484   6.965  0.8907  1.2163  0.5995
 2811SOL     OW 9252   3.424   5.435   4.998  0.3050  0.2786  0.2783
 2811SOL    HW1 9253   3.493   5.444   4.926 -1.3968  0.2507 -1.4397
 2811SOL    HW2 9254   3.380   5.346   4.991 -0.5557  0.6543  0.7691
 2812SOL     OW 9255   0.998   5.985   5.373  0.7421 -0.7635  0.2603
 2812SOL    HW1 9256   1.040   5.898   5.396  3.0732  0.8093  2.4392
 2812SOL    HW2 9257   1.047   6.027   5.296  1.6971  0.0116  1.2692
 2813SOL     OW 9258   3.817   3.003   0.006  0.0150  0.1343 -0.6264
 2813SOL    HW1 9259   3.750   3.006   0.080 -0.3391 -0.0593 -0.9374
 2813SOL    HW2 9260   3.898   2.952   0.036  0.1933  0.7201 -0.1109
 2814SOL     OW 9261   2.675   6.675   3.077  0.0241 -0.1469  0.0289
 2814SOL    HW1 9262   2.610   6.711   3.010  0.9111  0.4421 -0.5408
 2814SOL    HW2 9263   2.768   6.687   3.042  0.7722  3.0858  2.6144
 2815SOL     OW 9264   1.717   1.814   5.473 -0.1981  0.1335 -0.4428
 2815SOL    HW1 9265   1.655   1.857   5.408 -0.0706 -0.6864 -1.1286
 2815SOL    HW2 9266   1.745   1.881   5.542 -1.7706  0.5411 -0.1555
 2816SOL     OW 9267   0.280   5.491   1.412 -0.3532 -1.2122  0.5059
 2816SOL    HW1 9268   0.363   5.437   1.396  0.6149 -0.5242  2.8002
 2816SOL    HW2 9269   0.217   5.439   1.469  0.5529 -0.0625  2.6667
 2817SOL     OW 9270   6.127   0.726   2.794 -0.1143 -0.4028  0.2210
 2817SOL    HW1 9271   6.079   0.663   2.733 -0.6221  0.1993 -0.0185
 2817SOL    HW2 9272   6.103   0.707   2.889 -0.5429 -0.3396  0.1259
 2818SOL     OW 9273   1.176   0.499   0.917  0.6516 -0.1349  0.6547
 2818SOL    HW1 9274   1.154   0.432   0.846  0.1629 -0.4823  1.1171
 2818SOL    HW2 9275   1.134   0.587   0.894  1.9168  0.2416 -0.3322
 2819SOL     OW 9276   6.671   6.924   5.400  0.1132  0.6288 -0.5257
 2819SOL    HW1 9277   6.674   6.901   5.497  0.6718 -0.2516 -0.7344
 2819SOL    HW2 9278   6.576   6.935   5.371 -0.0781  0.4818  0.0292
 2820SOL     OW 9279   6.760   4.796   4.841 -0.0186 -0.3380  0.5841
 2820SOL    HW1 9280   6.759   4.741   4.924 -0.4703  0.4992  1.1397
 2820SOL    HW2 9281   6.849   4.841   4.831 -0.0966 -0.1301  0.8205
 2821SOL     OW 9282   1.607   6.907   4.686 -0.1991  0.6441 -0.1588
 2821SOL    HW1 9283   1.589   6.872   4.594 -1.3363 -0.5734  0.4962
 2821SOL    HW2 9284   1.553   6.990   4.701 -0.5711  0.4419 -0.3519
 2822SOL     OW 9285   5.708   1.957   3.674 -0.2436  0.0615 -0.4493
 2822SOL    HW1 9286   5.642   1.997   3.737  0.5201 -0.7394  0.9287
 2822SOL    HW2 9287   5.785   2.020   3.663  0.0141 -0.1433  0.1148
 2823SOL     OW 9288   0.714   4.909   0.485  0.4804 -0.3018 -0.2594
 2823SOL    HW1 9289   0.665   4.919   0.571  2.6688 -1.6439  1.2762
 2823SOL    HW2 9290   0.788   4.976   0.481 -0.4116  0.6416 -1.7747
 2824SOL     OW 9291   6.523   1.172   4.664 -0.2460 -0.4668 -0.3295
 2824SOL    HW1 9292   6.584   1.164   4.743  0.1964  1.4431 -0.4192
 2824SOL    HW2 9293   6.571   1.141   4.582 -0.7581 -2.6055  0.1297
 2825SOL     OW 9294   4.630   0.704   1.206  0.0833 -0.2329  0.0295
 2825SOL    HW1 9295   4.696   0.777   1.227 -0.1825  0.3677 -1.1313
 2825SOL    HW2 9296   4.569   0.735   1.133 -1.5310 -0.7584  1.1158
 2826SOL     OW 9297   6.008   6.740   6.439  0.0251  0.5970  0.2438
 2826SOL    HW1 9298   6.107   6.752   6.445  0.1883  0.9881 -2.1675
 2826SOL    HW2 9299   5.962   6.822   6.473  0.5466  0.7902  0.4889
 2827SOL     OW 9300   1.290   6.711   2.910  0.4437  0.1114  0.3865
 2827SOL    HW1 9301   1.330   6.631   2.955  1.2847 -0.3539 -1.1349
 2827SOL    HW2 9302   1.199   6.729   2.948  0.4219 -1.2945  1.0451
 2828SOL     OW 9303   6.729   1.474   4.749 -0.4266  0.1354 -0.1168
 2828SOL    HW1 9304   6.792   1.536   4.703 -0.4816  0.3054  0.0339
 2828SOL    HW2 9305   6.772   1.385   4.761 -1.3944 -0.8730 -3.1120
 2829SOL     OW 9306   5.188   4.386   2.184  0.3711 -0.8307 -0.5085
 2829SOL    HW1 9307   5.157   4.332   2.105  1.0540  0.6860 -1.8630
 2829SOL    HW2 9308   5.118   4.384   2.255  0.1650 -3.0659 -0.6866
 2830SOL     OW 9309   4.105   3.197   6.378  0.1914 -0.4481 -0.5225
 2830SOL    HW1 9310   4.095   3.274   6.315  1.2398 -1.7842 -2.4555
 2830SOL    HW2 9311   4.088   3.227   6.471 -2.2562  1.4809 -1.4713
 2831SOL     OW 9312   2.172   2.651   6.188  0.1327  0.3071  0.3341
 2831SOL    HW1 9313   2.270   2.652   6.171 -0.0392 -0.3857 -0.7277
 2831SOL    HW2 9314   2.150   2.581   6.256  0.5866  1.8005  2.1024
 2832SOL     OW 9315   5.484   2.945   3.678  0.6019  0.0474  0.0292
 2832SOL    HW1 9316   5.574   2.917   3.645  1.1969  1.3381  0.5022
 2832SOL    HW2 9317   5.494   2.999   3.761 -0.5208  1.3814 -0.6825
 2833SOL     OW 9318   4.666   5.773   3.309  0.6756 -0.7058  0.2215
 2833SOL    HW1 9319   4.686   5.831   3.387 -0.4656 -0.7502  0.5714
 2833SOL    HW2 9320   4.632   5.684   3.341  1.5986 -1.2808 -0.3148
 2834SOL     OW 9321   6.417   4.534   1.877 -0.3381 -0.0266 -0.5284
 2834SOL    HW1 9322   6.364   4.475   1.938  1.6577  0.1550  1.4715
 2834SOL    HW2 9323   6.473   4.477   1.817 -2.7247 -0.2245 -2.7299
 2835SOL     OW 9324   5.045   3.032   6.319  0.0686 -0.1161  0.5218
 2835SOL    HW1 9325   4.950   3.060   6.336 -0.6732 -1.9479 -0.3849
 2835SOL    HW2 9326   5.075   2.971   6.391 -0.2826 -1.4059 -0.3868
 2836SOL     OW 9327   1.332   4.956   3.321  0.6166 -0.0786 -0.2883
 2836SOL    HW1 9328   1.350   5.015   3.242 -0.6662 -0.0563 -0.5840
 2836SOL    HW2 9329   1.406   4.888   3.329  0.5378 -0.3854 -1.7839
 2837SOL     OW 9330   6.075   6.714   7.021  0.2308 -0.1113  0.2564
 2837SOL    HW1 9331   6.013   6.708   6.942  0.1849 -1.4879  0.4037
 2837SOL    HW2 9332   6.081   6.809   7.051 -1.1917  0.1709 -0.2675
 2838SOL     OW 9333   0.501   6.869   1.737 -0.0091  0.4578  0.1303
 2838SOL    HW1 9334   0.537   6.862   1.830  0.3405 -1.1335 -0.0669
 2838SOL    HW2 9335   0.576   6.878   1.672 -0.2473  1.5132 -0.0231
 2839SOL     OW 9336   2.603   2.708   3.634  0.3017 -0.2845 -0.4015
 2839SOL    HW1 9337   2.514   2.752   3.623  0.2966 -0.3085 -0.4749
 2839SOL    HW2 9338   2.605   2.658   3.721  0.2175 -0.3522 -0.4394
 2840SOL     OW 9339   0.816   1.713   6.697 -0.5121  0.3072  0.2564
 2840SOL    HW1 9340   0.752   1.650   6.742  0.0018  0.5212  1.3005
 2840SOL    HW2 9341   0.802   1.707   6.598 -1.9027  0.0827  0.4306
 2841SOL     OW 9342   2.532   6.999   1.697 -0.1721 -0.1782  0.1227
 2841SOL    HW1 9343   2.490   6.948   1.772  0.2509  0.3136  0.7067
 2841SOL    HW2 9344   2.463   7.057   1.654 -1.1167 -2.6426 -1.7874
 2842SOL     OW 9345   6.768   6.163   4.885  0.1533  0.1972 -0.7760
 2842SOL    HW1 9346   6.680   6.125   4.855 -1.0596  1.1293  1.3117
 2842SOL    HW2 9347   6.761   6.263   4.888  0.7682  0.2235  0.7712
 2843SOL     OW 9348   0.198   3.611   1.882  0.2334 -0.5546  0.1434
 2843SOL    HW1 9349   0.139   3.560   1.818 -2.1188  1.9375  0.1822
 2843SOL    HW2 9350   0.195   3.708   1.859  0.1617  0.2909  3.3782
 2844SOL     OW 9351   1.527   6.555   5.201  0.1347 -0.1189 -0.5822
 2844SOL    HW1 9352   1.542   6.498   5.282 -1.1551 -0.8214 -0.7903
 2844SOL    HW2 9353   1.545   6.651   5.224  1.3727 -0.4793  0.0548
 2845SOL     OW 9354   1.538   5.746   1.142 -0.1871 -0.3075 -0.3525
 2845SOL    HW1 9355   1.594   5.723   1.222 -0.2136  1.9346  0.4125
 2845SOL    HW2 9356   1.530   5.666   1.083  1.8922 -1.3746  0.6475
 2846SOL     OW 9357   6.460   3.734   5.058 -0.2639  0.2354 -0.2700
 2846SOL    HW1 9358   6.426   3.809   5.001 -0.1363 -0.4632 -1.2845
 2846SOL    HW2 9359   6.456   3.761   5.154  0.1020  1.6772 -0.6358
 2847SOL     OW 9360   0.290   2.560   0.811 -0.1910  0.2494  0.7518
 2847SOL    HW1 9361   0.320   2.466   0.795 -1.0003  0.0622  0.2952
 2847SOL    HW2 9362   0.196   2.571   0.781  0.4326  1.6647 -0.8591
 2848SOL     OW 9363   5.534   0.821   2.365  0.1217  0.0224  0.0863
 2848SOL    HW1 9364   5.522   0.733   2.412  0.8006 -0.9880 -1.5149
 2848SOL    HW2 9365   5.473   0.824   2.285 -1.2798  1.8520  1.1639
 2849SOL     OW 9366   0.633   1.448   3.234 -0.0402  0.4260 -0.0631
 2849SOL    HW1 9367   0.615   1.458   3.136 -0.3727  1.4061  0.0857
 2849SOL    HW2 9368   0.583   1.370   3.270  0.9239 -0.5959 -0.8804
 2850SOL     OW 9369   1.530   1.470   0.872  0.4830 -0.1462 -0.0611
 2850SOL    HW1 9370   1.516   1.377   0.906 -0.0229 -0.8102 -1.9672
 2850SOL    HW2 9371   1.464   1.531   0.915 -1.6474 -1.3717 -1.4039
 2851SOL     OW 9372   0.318   1.350   0.510 -0.3327 -0.0107  0.1354
 2851SOL    HW1 9373   0.250   1.390   0.571  0.5954  1.5486  0.1986
 2851SOL    HW2 9374   0.313   1.394   0.421 -0.7493 -1.3143 -0.5083
 2852SOL     OW 9375   5.090   0.638   0.931 -0.1226  0.5133  0.0406
 2852SOL    HW1 9376   5.078   0.717   0.991  1.5094  1.3683 -0.6838
 2852SOL    HW2 9377   5.186   0.631   0.905 -0.5230 -0.8002 -1.1931
 2853SOL     OW 9378   5.859   4.234   0.681 -0.0301  0.1915 -0.0285
 2853SOL    HW1 9379   5.839   4.262   0.775 -0.9476  2.1727 -0.7836
 2853SOL    HW2 9380   5.774   4.224   0.630  0.3302 -2.7925 -0.1930
 2854SOL     OW 9381   6.111   0.320   0.424  0.2400  0.0030 -0.0674
 2854SOL    HW1 9382   6.147   0.413   0.426  0.4658 -0.0852  1.7698
 2854SOL    HW2 9383   6.087   0.291   0.516  0.4885 -1.8973 -0.5430
 2855SOL     OW 9384   1.303   5.424   0.905  0.4322  0.0004 -0.4361
 2855SOL    HW1 9385   1.278   5.489   0.834 -1.4618 -0.3480 -0.1332
 2855SOL    HW2 9386   1.222   5.399   0.958  1.2676 -1.9244  0.0249
 2856SOL     OW 9387   0.714   3.762   3.648  0.4516 -0.4570 -0.3381
 2856SOL    HW1 9388   0.737   3.839   3.708  0.5179 -0.7768  0.0513
 2856SOL    HW2 9389   0.623   3.777   3.609 -0.1769 -0.8897  0.8990
 2857SOL     OW 9390   1.285   5.262   2.329  0.0876  0.8368 -0.8826
 2857SOL    HW1 9391   1.262   5.358   2.345 -2.5782  0.1985 -0.5328
 2857SOL    HW2 9392   1.228   5.204   2.387 -0.1971 -1.0434 -2.9261
 2858SOL     OW 9393   5.509   6.257   5.114  0.0327 -0.3307  0.3604
 2858SOL    HW1 9394   5.490   6.163   5.143  1.0104 -0.0577  1.9897
 2858SOL    HW2 9395   5.567   6.302   5.182 -2.3735  2.2612  0.9125
 2859SOL     OW 9396   5.530   4.887   4.417  0.1520  0.3986 -0.0398
 2859SOL    HW1 9397   5.502   4.913   4.325  1.7646  0.9414 -0.4138
 2859SOL    HW2 9398   5.564   4.967   4.466 -2.7391  0.6033  1.8837
 2860SOL     OW 9399   1.923   1.181   5.688  0.2903  0.7264  0.3196
 2860SOL    HW1 9400   1.921   1.240   5.607 -1.1695  0.9589  0.5063
 2860SOL    HW2 9401   1.976   1.225   5.760  0.4678  1.1388 -0.0573
 2861SOL     OW 9402   0.155   1.815   6.235  0.1929  0.0863  0.3054
 2861SOL    HW1 9403   0.159   1.718   6.259  0.9264  0.2010  0.6978
 2861SOL    HW2 9404   0.214   1.832   6.156 -0.6963  0.0502 -0.3766
 2862SOL     OW 9405   4.034   3.886   4.576  0.3752  0.5424 -0.6940
 2862SOL    HW1 9406   3.989   3.877   4.487  0.6396 -0.7737 -0.7079
 2862SOL    HW2 9407   4.032   3.982   4.605 -3.5556  0.4500 -0.1205
 2863SOL     OW 9408   1.978   1.896   6.527 -0.5200  0.3038  0.2848
 2863SOL    HW1 9409   1.982   1.836   6.447  2.1857  1.9955 -0.9862
 2863SOL    HW2 9410   1.905   1.866   6.588 -1.2284 -2.3942 -1.7332
 2864SOL     OW 9411   6.640   6.307   2.847  0.6625 -0.5115 -0.4923
 2864SOL    HW1 9412   6.704   6.370   2.803  1.9829 -1.8686 -0.5832
 2864SOL    HW2 9413   6.589   6.355   2.919  2.0678  0.5166 -0.1496
 2865SOL     OW 9414   2.940   0.784   2.943 -0.6289 -0.1585  0.0618
 2865SOL    HW1 9415   3.014   0.851   2.948 -0.8767  0.0329  2.2295
 2865SOL    HW2 9416   2.852   0.830   2.944 -0.7826 -0.4494  0.1580
 2866SOL     OW 9417   1.759   1.725   0.573  0.4961 -0.4967  0.1227
 2866SOL    HW1 9418   1.806   1.808   0.542 -0.3079  0.3575  1.0575
 2866SOL    HW2 9419   1.821   1.671   0.631  0.1262  1.1065  2.1632
 2867SOL     OW 9420   4.552   3.163   2.455  1.2922  0.4560 -0.0798
 2867SOL    HW1 9421   4.511   3.156   2.546  0.2482  1.8027 -0.4013
 2867SOL    HW2 9422   4.484   3.138   2.385  0.5936  3.5097 -0.6683
 2868SOL     OW 9423   1.326   1.241   5.486  0.3741 -0.5148 -0.0177
 2868SOL    HW1 9424   1.339   1.155   5.536  0.6746  1.6336  3.9999
 2868SOL    HW2 9425   1.415   1.278   5.459  0.4383 -0.2660  0.5250
 2869SOL     OW 9426   5.732   0.245   4.367  0.3819  0.3779  0.4976
 2869SOL    HW1 9427   5.689   0.291   4.444 -1.0869 -0.7849  0.4198
 2869SOL    HW2 9428   5.704   0.290   4.282  0.9623  0.8572  0.5507
 2870SOL     OW 9429   4.416   2.218   5.079 -0.2793 -0.0576  0.4794
 2870SOL    HW1 9430   4.454   2.126   5.071  1.1441  0.2969  2.3839
 2870SOL    HW2 9431   4.321   2.212   5.111 -0.2093 -0.8547  0.5661
 2871SOL     OW 9432   5.138   1.600   6.058  0.1069  0.0134  0.2414
 2871SOL    HW1 9433   5.069   1.536   6.091 -0.1208  0.2227  0.1845
 2871SOL    HW2 9434   5.146   1.677   6.122 -0.3948  0.4620 -0.2122
 2872SOL     OW 9435   3.735   0.724   4.155  0.0271  0.0727 -0.3976
 2872SOL    HW1 9436   3.714   0.671   4.237 -0.2352 -0.2442 -0.6613
 2872SOL    HW2 9437   3.750   0.819   4.180 -0.2260  0.0176 -0.0074
 2873SOL     OW 9438   3.678   3.398   1.403 -0.3240 -0.3223  0.0123
 2873SOL    HW1 9439   3.684   3.498   1.413  1.6761 -0.4843  0.8277
 2873SOL    HW2 9440   3.762   3.356   1.436 -0.3074 -2.1835 -2.1774
 2874SOL     OW 9441   3.292   0.613   4.271  0.2843 -0.3590  0.0981
 2874SOL    HW1 9442   3.312   0.642   4.364 -0.0658 -0.1879  0.1193
 2874SOL    HW2 9443   3.337   0.525   4.254 -0.9506 -1.2199  0.9725
 2875SOL     OW 9444   4.751   0.195   2.214 -0.4434  0.1072  0.3427
 2875SOL    HW1 9445   4.708   0.105   2.204 -0.1101  0.0822 -1.1160
 2875SOL    HW2 9446   4.683   0.261   2.246 -1.2696 -0.2062 -0.7056
 2876SOL     OW 9447   6.782   5.290   6.548  0.1186 -0.9455 -0.1144
 2876SOL    HW1 9448   6.719   5.343   6.605  1.2421  1.3338 -0.8392
 2876SOL    HW2 9449   6.863   5.266   6.601  0.4604 -0.2071 -0.2793
 2877SOL     OW 9450   2.404   5.989   1.063 -0.3370 -0.4065  0.1582
 2877SOL    HW1 9451   2.370   5.898   1.040 -0.5815  0.1152 -1.7289
 2877SOL    HW2 9452   2.504   5.990   1.057 -0.3323 -0.5664  0.2130
 2878SOL     OW 9453   5.301   2.382   6.745 -0.1665 -0.3271 -0.1001
 2878SOL    HW1 9454   5.272   2.474   6.772 -1.8628 -0.7574 -0.3082
 2878SOL    HW2 9455   5.280   2.367   6.649  0.0634 -0.9485 -0.0576
 2879SOL     OW 9456   5.687   0.487   1.629  0.2678  0.0001 -0.4165
 2879SOL    HW1 9457   5.679   0.399   1.676 -0.1093 -0.0035 -0.4722
 2879SOL    HW2 9458   5.602   0.539   1.641  0.2007  0.0421 -0.9916
 2880SOL     OW 9459   4.843   6.109   5.319 -0.5514 -0.0016 -0.1676
 2880SOL    HW1 9460   4.808   6.056   5.241 -0.5049 -1.5787  0.8338
 2880SOL    HW2 9461   4.867   6.046   5.393  1.9932  1.2243  0.1369
 2881SOL     OW 9462   0.512   0.994   1.643  0.0459  0.7799  0.8781
 2881SOL    HW1 9463   0.509   1.016   1.545  0.3665  0.1753  0.7287
 2881SOL    HW2 9464   0.603   0.959   1.666 -0.2857  0.1327  1.2225
 2882SOL     OW 9465   1.712   0.259   6.391  0.2730 -0.2215  0.1493
 2882SOL    HW1 9466   1.734   0.212   6.476  2.6534  2.3800  1.0919
 2882SOL    HW2 9467   1.768   0.223   6.317 -1.3845 -2.0763 -0.3075
 2883SOL     OW 9468   2.105   4.257   3.655 -0.5377 -0.0933 -0.0761
 2883SOL    HW1 9469   2.114   4.311   3.738  0.8364 -0.1553 -0.1646
 2883SOL    HW2 9470   2.022   4.200   3.660 -0.6848  0.2134  1.0546
 2884SOL     OW 9471   5.129   1.099   2.907  0.0071 -0.2722  0.1157
 2884SOL    HW1 9472   5.227   1.091   2.888 -0.1246 -0.4673 -0.5221
 2884SOL    HW2 9473   5.087   1.161   2.841  0.0156  1.2535  1.4911
 2885SOL     OW 9474   4.264   1.252   5.801  0.6264 -0.1389 -0.0770
 2885SOL    HW1 9475   4.328   1.260   5.878 -2.6114 -0.3394  2.8705
 2885SOL    HW2 9476   4.211   1.167   5.810 -1.2747  0.8364 -1.4254
 2886SOL     OW 9477   1.413   3.188   3.918 -0.2115 -0.1043  0.5726
 2886SOL    HW1 9478   1.424   3.262   3.852 -1.2133  0.7924  1.3827
 2886SOL    HW2 9479   1.476   3.200   3.994 -0.3318 -0.1204  0.6791
 2887SOL     OW 9480   1.927   4.227   6.885  0.4649  0.0808 -0.0950
 2887SOL    HW1 9481   1.842   4.273   6.911  1.1099  0.6079  1.1654
 2887SOL    HW2 9482   1.917   4.128   6.895 -0.3259  0.0673 -0.9702
 2888SOL     OW 9483   6.503   4.285   4.059 -0.4106  0.4643  0.1448
 2888SOL    HW1 9484   6.452   4.270   4.143 -0.0407 -0.1392  0.2712
 2888SOL    HW2 9485   6.442   4.276   3.980 -0.2842 -1.5781  0.2206
 2889SOL     OW 9486   3.078   6.187   5.409 -0.4863  0.4503  0.2621
 2889SOL    HW1 9487   3.028   6.154   5.328 -0.7390  0.0100  0.5927
 2889SOL    HW2 9488   3.132   6.267   5.384  2.4978 -1.8867 -1.3417
 2890SOL     OW 9489   3.709   4.376   6.237  0.4420 -0.1364  0.1244
 2890SOL    HW1 9490   3.686   4.371   6.335 -0.9688  1.9513 -0.0239
 2890SOL    HW2 9491   3.644   4.321   6.185  1.4129 -1.5432  0.3527
 2891SOL     OW 9492   0.138   0.372   1.159 -0.5507  0.6444  0.0918
 2891SOL    HW1 9493   0.107   0.277   1.150 -0.2773  0.4483  0.9978
 2891SOL    HW2 9494   0.063   0.434   1.138 -0.8839  0.2127 -0.0170
 2892SOL     OW 9495   0.015   4.616   6.113 -0.0871 -0.5562 -0.1677
 2892SOL    HW1 9496   0.017   4.522   6.079  0.9761 -0.4490 -0.4290
 2892SOL    HW2 9497  -0.051   4.670   6.059  0.6574 -0.6881 -1.2373
 2893SOL     OW 9498   1.814   1.932   3.950  0.0495 -0.0369 -0.0401
 2893SOL    HW1 9499   1.744   1.958   3.884 -0.9540 -0.8277  0.6693
 2893SOL    HW2 9500   1.787   1.846   3.993  0.8031  0.3289  1.1930
 2894SOL     OW 9501   2.456   0.343   4.423 -0.1310  0.3690  0.2760
 2894SOL    HW1 9502   2.411   0.284   4.356 -1.3341  2.6461 -1.0469
 2894SOL    HW2 9503   2.539   0.298   4.456 -0.5663 -1.6930 -1.2267
 2895SOL     OW 9504   6.308   2.038   4.930 -0.2851 -0.7653 -0.5919
 2895SOL    HW1 9505   6.270   1.946   4.917 -0.8086 -0.8267  1.1158
 2895SOL    HW2 9506   6.271   2.078   5.014  1.5625  0.1659 -0.1601
 2896SOL     OW 9507   4.720   6.416   1.161 -0.1260 -0.2150 -0.0508
 2896SOL    HW1 9508   4.762   6.363   1.088 -0.4891 -0.3973 -0.1256
 2896SOL    HW2 9509   4.640   6.465   1.126 -0.1302 -0.0636  0.1543
 2897SOL     OW 9510   5.278   6.415   3.414  0.0941  0.1763  0.5005
 2897SOL    HW1 9511   5.252   6.339   3.355 -0.4170 -0.9748  2.0977
 2897SOL    HW2 9512   5.228   6.408   3.501 -1.0870  3.1752  0.1927
 2898SOL     OW 9513   1.110   2.269   4.771 -0.3294 -0.3192 -0.1317
 2898SOL    HW1 9514   1.016   2.250   4.741 -0.5851 -0.7281  0.9065
 2898SOL    HW2 9515   1.151   2.336   4.710 -1.3404 -0.0487 -0.5296
 2899SOL     OW 9516   2.385   3.815   1.843 -0.1480 -0.1907  0.0695
 2899SOL    HW1 9517   2.416   3.863   1.925 -0.7005  0.0352  0.1511
 2899SOL    HW2 9518   2.418   3.864   1.762  0.4364 -0.4402  0.1594
 2900SOL     OW 9519   5.960   5.740   5.781 -0.5514  0.1509 -0.5230
 2900SOL    HW1 9520   5.978   5.691   5.695 -0.1988  0.7542 -0.7964
 2900SOL    HW2 9521   6.036   5.725   5.844 -0.7567 -0.2009 -0.3597
 2901SOL     OW 9522   0.036   1.371   2.539  0.0074 -0.0352 -0.4627
 2901SOL    HW1 9523  -0.038   1.437   2.533 -0.9815 -1.2390 -1.8054
 2901SOL    HW2 9524   0.123   1.417   2.523 -0.1610  1.7074  2.6860
 2902SOL     OW 9525   4.901   6.119   6.568 -0.6874 -0.0386  0.4513
 2902SOL    HW1 9526   4.806   6.096   6.547 -0.1365 -1.9151 -0.0894
 2902SOL    HW2 9527   4.957   6.110   6.486 -0.0832  1.4498  0.6639
 2903SOL     OW 9528   5.484   5.441   1.105 -1.0620 -0.3047  0.5493
 2903SOL    HW1 9529   5.431   5.392   1.035 -0.7904 -1.9769  1.4852
 2903SOL    HW2 9530   5.578   5.452   1.074 -1.5429  1.3152 -0.4666
 2904SOL     OW 9531   4.638   0.956   4.748  0.4350  0.6642  0.4188
 2904SOL    HW1 9532   4.699   1.018   4.797 -0.2540  1.9616 -0.3275
 2904SOL    HW2 9533   4.693   0.896   4.689  1.1139  0.4998  1.1917
 2905SOL     OW 9534   2.411   4.162   1.150  0.8847  0.5569  0.7475
 2905SOL    HW1 9535   2.435   4.077   1.104 -0.0049  0.6158  0.1351
 2905SOL    HW2 9536   2.319   4.154   1.189  0.2954  1.6149 -0.3396
 2906SOL     OW 9537   6.296   6.306   3.369  0.0999 -0.0718 -0.3086
 2906SOL    HW1 9538   6.273   6.250   3.289  0.4765  0.0845 -0.5264
 2906SOL    HW2 9539   6.221   6.369   3.388 -0.3178 -0.6227 -0.0770
 2907SOL     OW 9540   5.462   5.002   3.458  0.2648 -0.1053 -0.1229
 2907SOL    HW1 9541   5.457   4.905   3.434 -1.2213  0.1232 -0.8419
 2907SOL    HW2 9542   5.439   5.058   3.379 -1.0135  0.7751  0.8340
 2908SOL     OW 9543   4.709   3.940   3.864 -0.2112 -0.5781 -0.4236
 2908SOL    HW1 9544   4.683   4.036   3.862 -0.8094 -0.7366 -0.4706
 2908SOL    HW2 9545   4.670   3.896   3.945  0.1914 -0.7460 -0.3183
 2909SOL     OW 9546   0.276   2.884   2.095  0.5019  0.0347 -0.0436
 2909SOL    HW1 9547   0.281   2.973   2.141 -0.3148  0.0913 -0.0453
 2909SOL    HW2 9548   0.287   2.811   2.162 -0.6398  0.1166  0.2582
 2910SOL     OW 9549   2.053   2.141   5.883 -0.2961  0.5981 -0.8184
 2910SOL    HW1 9550   1.963   2.110   5.915 -0.1402  0.5459 -0.4228
 2910SOL    HW2 9551   2.047   2.169   5.787  0.0060 -2.8013 -1.9611
 2911SOL     OW 9552   0.483   0.615   6.510 -0.2286 -0.2766  0.5169
 2911SOL    HW1 9553   0.488   0.649   6.604 -0.5698 -1.1995  0.8763
 2911SOL    HW2 9554   0.394   0.572   6.495 -0.5087  0.6011 -0.4909
 2912SOL     OW 9555   5.516   4.724   5.608 -0.1720  0.1288 -0.6714
 2912SOL    HW1 9556   5.575   4.705   5.687 -0.9499 -0.9830 -0.3283
 2912SOL    HW2 9557   5.565   4.704   5.524  0.5649  1.0283 -0.4607
 2913SOL     OW 9558   0.899   3.059   4.218  0.0220 -0.3378  0.5372
 2913SOL    HW1 9559   0.813   3.010   4.234 -0.4435  0.2170 -0.2100
 2913SOL    HW2 9560   0.943   3.023   4.136 -0.2485  0.3901  0.0687
 2914SOL     OW 9561   2.093   0.848   2.875 -0.7191 -0.2376  0.6444
 2914SOL    HW1 9562   2.003   0.886   2.854 -1.0520 -1.4251 -0.2199
 2914SOL    HW2 9563   2.165   0.909   2.841 -1.1128  1.6921  3.0444
 2915SOL     OW 9564   3.113   6.907   0.233  0.1191 -0.2626 -0.0338
 2915SOL    HW1 9565   3.051   6.836   0.267 -0.0719 -0.2961 -0.4348
 2915SOL    HW2 9566   3.105   6.989   0.289 -0.2724 -0.2727 -0.0652
 2916SOL     OW 9567   5.450   4.447   5.521 -0.1730 -0.4541  0.0113
 2916SOL    HW1 9568   5.359   4.466   5.483  0.1355  1.5708  0.1225
 2916SOL    HW2 9569   5.489   4.533   5.556  1.3871 -1.4598  0.8288
 2917SOL     OW 9570   0.645   3.036   1.962  0.4044 -0.1661 -0.5383
 2917SOL    HW1 9571   0.651   3.122   1.912  2.9032  0.5483  0.8292
 2917SOL    HW2 9572   0.549   3.011   1.975 -0.3473  1.9594 -1.6708
 2918SOL     OW 9573   2.837   3.760   0.055  0.5305  0.1427 -0.1698
 2918SOL    HW1 9574   2.878   3.849   0.037  2.1804 -0.4719  0.3486
 2918SOL    HW2 9575   2.836   3.743   0.154 -2.4639  0.7681  0.0070
 2919SOL     OW 9576   6.509   1.422   2.597 -0.0691 -0.9416  0.5614
 2919SOL    HW1 9577   6.506   1.322   2.599 -2.0496 -0.9733 -0.9887
 2919SOL    HW2 9578   6.549   1.452   2.510  0.1482 -0.3789  0.8515
 2920SOL     OW 9579   2.555   0.604   5.126  0.1080 -0.2325 -0.2248
 2920SOL    HW1 9580   2.481   0.665   5.099  0.3267 -0.5516 -1.5979
 2920SOL    HW2 9581   2.533   0.510   5.101 -0.1435 -0.7236  1.6987
 2921SOL     OW 9582   5.624   0.811   6.315 -0.3072  0.3389 -0.5312
 2921SOL    HW1 9583   5.578   0.741   6.261 -1.5054  0.1503  0.6974
 2921SOL    HW2 9584   5.556   0.873   6.355  0.5548  0.5700  0.6385
 2922SOL     OW 9585   4.635   2.642   6.913 -0.3002 -0.6457 -1.0927
 2922SOL    HW1 9586   4.622   2.679   6.821  0.0206  0.1205 -0.8420
 2922SOL    HW2 9587   4.705   2.696   6.960  1.3887 -2.5857 -1.2724
 2923SOL     OW 9588   6.794   5.851   4.921 -0.3401  0.8708  0.5899
 2923SOL    HW1 9589   6.812   5.948   4.939  0.8256  0.9919 -0.9478
 2923SOL    HW2 9590   6.708   5.824   4.963  0.1376  2.1424  2.4762
 2924SOL     OW 9591   4.367   6.174   6.150 -0.3272  0.4253 -0.1316
 2924SOL    HW1 9592   4.460   6.202   6.173 -0.0868 -1.6990  1.7563
 2924SOL    HW2 9593   4.303   6.218   6.213 -0.0848 -1.9298  1.8583
 2925SOL     OW 9594   2.494   3.144   6.955  0.1833  0.4070  0.1093
 2925SOL    HW1 9595   2.536   3.186   7.036  2.8161 -1.4343 -0.1862
 2925SOL    HW2 9596   2.545   3.062   6.930 -2.1781 -0.6057 -1.8764
 2926SOL     OW 9597   3.320   3.869   5.972 -0.5460 -0.9653  0.1687
 2926SOL    HW1 9598   3.298   3.772   5.957 -2.9470 -0.6776  1.3295
 2926SOL    HW2 9599   3.257   3.926   5.919  0.6146 -0.0179 -0.2265
 2927SOL     OW 9600   3.401   0.161   6.217  0.7754 -0.4322 -0.0990
 2927SOL    HW1 9601   3.393   0.061   6.212 -0.9163 -0.2965 -0.8713
 2927SOL    HW2 9602   3.317   0.199   6.256  0.7008  0.7910 -1.3890
 2928SOL     OW 9603   3.062   5.248   6.688  0.5053 -0.3566  0.1316
 2928SOL    HW1 9604   3.126   5.172   6.688  0.8466 -0.1121  1.9838
 2928SOL    HW2 9605   2.968   5.213   6.692  0.6846 -0.7171  1.7765
 2929SOL     OW 9606   2.979   4.714   3.808 -0.5922 -0.3826  0.1912
 2929SOL    HW1 9607   2.966   4.806   3.770  0.6726 -0.6838 -1.0196
 2929SOL    HW2 9608   2.999   4.721   3.906  0.2496  0.6876 -0.0410
 2930SOL     OW 9609   4.163   1.032   6.313  0.3972 -0.4650  0.0872
 2930SOL    HW1 9610   4.084   1.077   6.355 -0.9011 -2.2526 -0.3455
 2930SOL    HW2 9611   4.227   1.004   6.385  0.6297  0.9027  0.4487
 2931SOL     OW 9612   3.815   3.433   5.562 -0.4220  0.2670  0.5836
 2931SOL    HW1 9613   3.844   3.344   5.527  0.1238  1.2192 -1.5531
 2931SOL    HW2 9614   3.893   3.497   5.560 -0.5515  0.6031  2.9566
 2932SOL     OW 9615   3.726   1.880   6.528  0.8089  0.5423  0.5763
 2932SOL    HW1 9616   3.750   1.971   6.561 -0.5810  0.4658  1.9349
 2932SOL    HW2 9617   3.662   1.887   6.452 -2.6237  0.8376  3.2543
 2933SOL     OW 9618   2.441   1.510   3.852 -0.1116  0.0751 -0.2780
 2933SOL    HW1 9619   2.405   1.507   3.758 -0.1690  1.2281 -0.2995
 2933SOL    HW2 9620   2.535   1.544   3.850 -0.5396  1.3067  0.1964
 2934SOL     OW 9621   0.301   1.974   3.101  0.6962  0.6826 -0.5201
 2934SOL    HW1 9622   0.239   1.920   3.158  0.6778  1.4926  0.2362
 2934SOL    HW2 9623   0.249   2.045   3.053  0.4745 -0.8058 -2.6225
 2935SOL     OW 9624   6.434   4.013   0.531  0.8374  0.2412 -0.1443
 2935SOL    HW1 9625   6.357   4.068   0.563  0.3219 -0.6257  0.1541
 2935SOL    HW2 9626   6.460   3.947   0.602  1.2518 -0.0966 -0.5930
 2936SOL     OW 9627   5.402   5.555   3.249  0.2627 -0.0906  0.3612
 2936SOL    HW1 9628   5.364   5.592   3.164  0.1452 -1.1433 -0.0575
 2936SOL    HW2 9629   5.363   5.604   3.327 -2.4763 -1.5328  0.0098
 2937SOL     OW 9630   2.809   3.216   5.791  0.7128 -0.3451 -0.0406
 2937SOL    HW1 9631   2.748   3.227   5.870 -0.4220 -0.4932 -0.8723
 2937SOL    HW2 9632   2.860   3.300   5.776  1.5485 -0.5677  1.3233
 2938SOL     OW 9633   4.888   4.414   0.601 -0.6638 -0.8071 -0.3428
 2938SOL    HW1 9634   4.910   4.325   0.641  1.5495 -0.3161 -0.3532
 2938SOL    HW2 9635   4.886   4.484   0.673  2.6337 -0.0464 -0.8489
 2939SOL     OW 9636   2.054   1.066   1.621  0.3628 -0.9393 -0.0954
 2939SOL    HW1 9637   2.116   1.084   1.545  1.5082 -1.3283  0.7115
 2939SOL    HW2 9638   2.099   1.006   1.687 -1.2698 -2.1289  0.0024
 2940SOL     OW 9639   2.716   2.958   5.792  0.2585 -0.1489  0.3097
 2940SOL    HW1 9640   2.780   3.031   5.816 -0.7417  0.6172  0.6892
 2940SOL    HW2 9641   2.688   2.909   5.874 -0.0410 -0.1636  0.1994
 2941SOL     OW 9642   0.635   4.159   6.881 -0.2052 -0.2609 -0.1985
 2941SOL    HW1 9643   0.569   4.209   6.824  0.7082  2.9996  1.3921
 2941SOL    HW2 9644   0.685   4.095   6.824 -1.0881  0.9718 -2.5415
 2942SOL     OW 9645   3.159   1.543   6.593  0.3802 -0.1250  0.3644
 2942SOL    HW1 9646   3.119   1.511   6.679 -0.5094 -0.8915 -0.3206
 2942SOL    HW2 9647   3.104   1.510   6.517  0.5973  1.3283 -0.4674
 2943SOL     OW 9648   3.158   6.630   4.775 -0.1369 -0.0672  0.5542
 2943SOL    HW1 9649   3.234   6.694   4.763 -1.1419  0.6682 -3.0042
 2943SOL    HW2 9650   3.091   6.670   4.837 -0.5035  2.1787 -1.1619
 2944SOL     OW 9651   3.918   5.668   6.957 -0.0676 -0.5543  0.4829
 2944SOL    HW1 9652   3.993   5.685   6.894 -0.8627  2.6453  0.2695
 2944SOL    HW2 9653   3.832   5.666   6.907 -0.6427  1.3406  1.3313
 2945SOL     OW 9654   3.911   0.684   0.576  0.0816 -0.2179  0.0846
 2945SOL    HW1 9655   3.879   0.590   0.593  0.9585 -0.3191  1.2628
 2945SOL    HW2 9656   3.885   0.742   0.653 -1.7204  0.8703 -1.2788
 2946SOL     OW 9657   2.316   1.890   5.976 -0.1792  0.5887 -0.4654
 2946SOL    HW1 9658   2.407   1.850   5.965  0.0526  0.9481  0.0896
 2946SOL    HW2 9659   2.278   1.910   5.886  0.3215  0.4966 -0.7024
 2947SOL     OW 9660   3.395   5.495   3.280 -0.1883 -0.0991  0.6256
 2947SOL    HW1 9661   3.353   5.523   3.194 -1.3333 -1.6944  0.6103
 2947SOL    HW2 9662   3.490   5.523   3.282 -0.1237 -0.1076 -1.2143
 2948SOL     OW 9663   2.066   3.062   5.970  0.0188  0.1849 -0.1183
 2948SOL    HW1 9664   2.135   2.994   5.947  1.0979  1.7761 -1.9037
 2948SOL    HW2 9665   1.979   3.038   5.926  0.9983  1.0405 -2.7431
 2949SOL     OW 9666   4.422   6.322   1.008  0.3556  0.2167 -0.0891
 2949SOL    HW1 9667   4.394   6.343   0.914  0.2793  0.8445  0.0773
 2949SOL    HW2 9668   4.402   6.226   1.027  1.9099 -0.3893 -1.2861
 2950SOL     OW 9669   1.128   2.805   0.549 -0.3698  0.4670 -0.0243
 2950SOL    HW1 9670   1.112   2.735   0.618  1.9820  1.0238  1.1809
 2950SOL    HW2 9671   1.095   2.773   0.460 -1.6951 -1.0610  0.9574
 2951SOL     OW 9672   7.005   4.886   4.529 -0.2468 -0.0189 -0.6992
 2951SOL    HW1 9673   7.093   4.858   4.569  0.7302  0.7781 -2.2553
 2951SOL    HW2 9674   6.932   4.833   4.571  0.9196 -0.4580  0.9069
 2952SOL     OW 9675   6.862   0.882   4.058  0.4733 -0.0500 -0.3420
 2952SOL    HW1 9676   6.941   0.833   4.022 -0.4459 -1.4422 -0.4997
 2952SOL    HW2 9677   6.779   0.827   4.046 -0.3704  0.9141  0.8188
 2953SOL     OW 9678   0.450   4.188   4.253  0.1099 -0.6733  0.6033
 2953SOL    HW1 9679   0.408   4.145   4.173 -0.3715 -1.5633  1.3243
 2953SOL    HW2 9680   0.378   4.217   4.316  0.5360 -1.4657  1.4763
 2954SOL     OW 9681   4.242   2.840   2.404  0.0984 -0.1976  0.3022
 2954SOL    HW1 9682   4.261   2.829   2.502 -3.5993 -1.5926  1.0217
 2954SOL    HW2 9683   4.146   2.817   2.386  0.8470 -0.7573 -3.8306
 2955SOL     OW 9684   4.195   0.626   3.617  0.5464  0.8088 -0.1530
 2955SOL    HW1 9685   4.172   0.529   3.603  0.0728  1.0278 -0.9546
 2955SOL    HW2 9686   4.111   0.678   3.633  0.8541  0.9976  0.9871
 2956SOL     OW 9687   1.384   4.071   4.639 -0.3938 -0.4767 -0.0669
 2956SOL    HW1 9688   1.369   4.164   4.674 -1.8860 -0.7101 -0.0554
 2956SOL    HW2 9689   1.425   4.076   4.548 -0.0723  0.1740  0.1047
 2957SOL     OW 9690   5.549   5.602   5.878 -0.6040  0.2514 -0.2993
 2957SOL    HW1 9691   5.483   5.545   5.828  0.6111 -1.1224 -0.4650
 2957SOL    HW2 9692   5.556   5.569   5.972  0.3906 -0.1674 -0.5035
 2958SOL     OW 9693   4.752   3.598   6.932  0.2947 -0.1341  0.0961
 2958SOL    HW1 9694   4.827   3.603   6.867 -1.0494 -0.8532 -1.6107
 2958SOL    HW2 9695   4.725   3.502   6.945 -0.4880  0.1175  0.4527
 2959SOL     OW 9696   2.438   6.873   4.187 -0.0997  0.1623 -0.1177
 2959SOL    HW1 9697   2.463   6.946   4.123 -1.6038  1.3086  0.5073
 2959SOL    HW2 9698   2.515   6.852   4.245 -0.1134  2.6734  0.9565
 2960SOL     OW 9699   0.996   1.150   4.288 -0.1027  0.0481  0.6431
 2960SOL    HW1 9700   0.982   1.067   4.341 -2.3985 -0.2769 -0.3232
 2960SOL    HW2 9701   0.996   1.127   4.190  3.2158  0.7309  0.3634
 2961SOL     OW 9702   5.088   2.614   3.958  0.3696 -0.6201  0.2455
 2961SOL    HW1 9703   5.139   2.601   4.043 -0.7181  0.7203  1.1397
 2961SOL    HW2 9704   4.990   2.619   3.978 -0.0033 -1.3359 -1.2344
 2962SOL     OW 9705   1.062   6.496   6.372 -0.2788  0.1602  0.0118
 2962SOL    HW1 9706   1.117   6.414   6.365 -0.3285  0.0737  0.5930
 2962SOL    HW2 9707   1.121   6.576   6.382 -0.2535  0.0102  1.2069
 2963SOL     OW 9708   0.588   1.562   0.205 -0.2801  0.5367 -0.7888
 2963SOL    HW1 9709   0.608   1.649   0.161 -1.0237  2.7450  2.8183
 2963SOL    HW2 9710   0.654   1.546   0.278 -0.1706 -2.0026 -1.3602
 2964SOL     OW 9711   0.861   1.114   1.923  0.1874  0.4067  0.2426
 2964SOL    HW1 9712   0.786   1.169   1.888 -2.0747 -2.5648  0.0531
 2964SOL    HW2 9713   0.857   1.111   2.023 -0.3357 -0.2782  0.2001
 2965SOL     OW 9714   0.495   1.052   1.352  0.4762 -0.1114  0.3290
 2965SOL    HW1 9715   0.465   0.987   1.282  0.7200  0.3841 -0.2468
 2965SOL    HW2 9716   0.489   1.145   1.316  2.7379  0.0231  0.1416
 2966SOL     OW 9717   6.526   2.816   1.259  0.4385  0.5662 -0.0580
 2966SOL    HW1 9718   6.594   2.801   1.186 -0.5663 -1.6504 -0.6021
 2966SOL    HW2 9719   6.573   2.824   1.346  1.4516 -2.6528 -0.1637
 2967SOL     OW 9720   6.602   3.672   1.963 -0.5589 -0.1633  0.1331
 2967SOL    HW1 9721   6.602   3.699   1.866  1.7053 -0.2809  0.0488
 2967SOL    HW2 9722   6.545   3.735   2.015 -2.7534 -0.7497 -1.4118
 2968SOL     OW 9723   4.909   3.912   3.505 -0.0020 -0.0211 -0.1634
 2968SOL    HW1 9724   4.907   3.913   3.405  1.3487  0.1628 -0.2215
 2968SOL    HW2 9725   4.989   3.861   3.536 -0.2599  0.1498  0.8219
 2969SOL     OW 9726   0.066   3.763   0.560  0.8606  0.6416  0.0831
 2969SOL    HW1 9727   0.113   3.738   0.475 -0.0739 -2.1279  0.2694
 2969SOL    HW2 9728   0.113   3.840   0.603  2.2891  1.0952 -2.1370
 2970SOL     OW 9729   3.740   2.225   1.655  0.5224  0.2819  0.3111
 2970SOL    HW1 9730   3.832   2.222   1.693  0.4685 -0.0404  0.4140
 2970SOL    HW2 9731   3.732   2.157   1.582  0.5116  0.6368 -0.0228
 2971SOL     OW 9732   0.804   6.454   5.163  0.6628  0.0724 -0.0613
 2971SOL    HW1 9733   0.793   6.512   5.082 -2.7553 -1.4761 -0.9017
 2971SOL    HW2 9734   0.726   6.467   5.224  1.4690 -1.2821  1.3027
 2972SOL     OW 9735   6.233   5.095   2.052 -0.3121  0.1265 -0.0268
 2972SOL    HW1 9736   6.157   5.146   2.092  1.0105  1.7068  0.6075
 2972SOL    HW2 9737   6.252   5.130   1.960 -0.3305 -0.2496 -0.1762
 2973SOL     OW 9738   0.919   1.409   0.174  0.3708  0.1426  0.1913
 2973SOL    HW1 9739   0.904   1.500   0.212 -0.5569  0.5204 -1.0283
 2973SOL    HW2 9740   0.833   1.376   0.133  1.0782 -0.6707 -0.6704
 2974SOL     OW 9741   0.475   4.239   1.575 -0.1759  0.7147 -0.2962
 2974SOL    HW1 9742   0.442   4.261   1.667 -1.3084  1.4129 -0.8529
 2974SOL    HW2 9743   0.469   4.140   1.561  2.3910  0.2656  1.2536
 2975SOL     OW 9744   6.500   5.678   4.393 -0.0051 -0.5093  0.2958
 2975SOL    HW1 9745   6.412   5.700   4.435  0.9299  5.0957  0.0711
 2975SOL    HW2 9746   6.565   5.651   4.464 -0.3295  1.7505  1.5485
 2976SOL     OW 9747   3.046   5.329   0.173  0.2814 -0.1041 -0.0302
 2976SOL    HW1 9748   3.118   5.275   0.128 -0.8160 -3.3994  1.7912
 2976SOL    HW2 9749   2.957   5.301   0.139 -0.3703  0.0162  1.4974
 2977SOL     OW 9750   4.732   6.850   3.511  0.1708 -0.3490  0.4165
 2977SOL    HW1 9751   4.679   6.831   3.428 -0.2109 -1.4465  0.8940
 2977SOL    HW2 9752   4.824   6.813   3.501  0.5961  0.7739 -0.0587
 2978SOL     OW 9753   2.243   0.655   6.880  0.1952 -0.0793 -0.5920
 2978SOL    HW1 9754   2.327   0.703   6.856 -0.0899 -0.3867 -2.2970
 2978SOL    HW2 9755   2.226   0.582   6.815 -2.2765  1.0630 -1.3543
 2979SOL     OW 9756   6.034   2.351   5.420  0.1729 -0.2588  0.0569
 2979SOL    HW1 9757   6.003   2.423   5.358 -1.4176 -0.0808  0.9883
 2979SOL    HW2 9758   6.071   2.393   5.503 -0.5164 -0.4913  0.4912
 2980SOL     OW 9759   0.571   0.780   2.457  0.1531  0.3413 -0.7146
 2980SOL    HW1 9760   0.544   0.860   2.511  0.9915  0.2883 -0.1841
 2980SOL    HW2 9761   0.493   0.720   2.443 -0.3565  0.9755 -0.6277
 2981SOL     OW 9762   6.008   5.110   5.002 -0.0825  0.0357 -0.1624
 2981SOL    HW1 9763   5.950   5.184   4.967 -1.2235 -1.4079 -1.4953
 2981SOL    HW2 9764   5.983   5.024   4.956  1.4973 -1.1025  1.0052
 2982SOL     OW 9765   4.222   1.744   5.823 -0.0086 -0.0790  0.1540
 2982SOL    HW1 9766   4.194   1.648   5.817  0.4671 -0.2738  0.9984
 2982SOL    HW2 9767   4.237   1.769   5.919  1.4856  0.3591 -0.1666
 2983SOL     OW 9768   3.553   2.179   1.304 -0.3647 -0.0044 -0.2423
 2983SOL    HW1 9769   3.619   2.240   1.260  1.3393 -1.2963  0.4690
 2983SOL    HW2 9770   3.577   2.084   1.285 -1.3820 -0.5158  0.9385
 2984SOL     OW 9771   1.461   2.393   5.012 -0.0926  0.4846 -0.1395
 2984SOL    HW1 9772   1.531   2.448   4.965 -0.6954  1.0975 -0.3293
 2984SOL    HW2 9773   1.403   2.454   5.067 -0.1506 -0.0838  0.4336
 2985SOL     OW 9774   0.925   5.904   3.869  0.2066 -0.8931  0.3774
 2985SOL    HW1 9775   0.839   5.886   3.821 -0.8161  1.1191  1.3823
 2985SOL    HW2 9776   0.927   5.854   3.955 -0.2876 -0.3780  0.6920
 2986SOL     OW 9777   2.631   2.174   6.849  0.2536 -0.0168 -0.3750
 2986SOL    HW1 9778   2.723   2.213   6.853 -0.1555  0.8666  1.5796
 2986SOL    HW2 9779   2.624   2.099   6.916 -0.2031 -0.6731 -1.1414
 2987SOL     OW 9780   3.062   0.658   5.016 -0.3148  0.2168 -0.0385
 2987SOL    HW1 9781   2.970   0.619   5.012 -0.2899  0.2259 -0.7697
 2987SOL    HW2 9782   3.089   0.691   4.926  0.4934  0.0142  0.1157
 2988SOL     OW 9783   0.664   5.660   2.881  0.3549  0.3361 -0.2795
 2988SOL    HW1 9784   0.684   5.739   2.939  2.5646 -0.3470 -0.0025
 2988SOL    HW2 9785   0.652   5.691   2.786 -2.3962  1.3516  0.2939
 2989SOL     OW 9786   5.975   2.532   1.884  0.2601 -0.0504  0.2879
 2989SOL    HW1 9787   5.917   2.582   1.948 -1.5169 -1.4967 -0.0795
 2989SOL    HW2 9788   5.928   2.524   1.796  1.4796 -0.4097 -0.3621
 2990SOL     OW 9789   6.031   3.542   6.094  0.1211 -0.5049 -0.3065
 2990SOL    HW1 9790   6.115   3.579   6.134  0.3385 -1.4492  0.1318
 2990SOL    HW2 9791   6.013   3.451   6.131 -0.3380 -0.9001 -1.4439
 2991SOL     OW 9792   1.037   2.917   5.186 -0.2470 -0.2311  0.2573
 2991SOL    HW1 9793   1.119   2.861   5.186 -0.8945 -1.3655 -2.3441
 2991SOL    HW2 9794   0.984   2.900   5.269  0.5736 -1.9686  0.4752
 2992SOL     OW 9795   2.443   1.662   0.798 -0.0868  0.5811  0.3678
 2992SOL    HW1 9796   2.431   1.717   0.880  1.5274 -1.1929  1.8957
 2992SOL    HW2 9797   2.530   1.613   0.803 -0.6039 -0.6855 -1.7544
 2993SOL     OW 9798   3.992   6.147   5.942 -0.2049  0.2680  0.5340
 2993SOL    HW1 9799   4.027   6.061   5.905  0.4272  0.2596  1.1261
 2993SOL    HW2 9800   3.954   6.132   6.033 -1.0911  0.4203  0.1961
 2994SOL     OW 9801   2.994   5.046   6.975 -0.3593  0.0711  0.3150
 2994SOL    HW1 9802   3.089   5.078   6.971  0.5675 -2.4471  0.3853
 2994SOL    HW2 9803   2.990   4.951   6.943 -2.9071  0.1870  0.1309
 2995SOL     OW 9804   5.898   6.615   1.936  0.1388 -0.2678 -0.5101
 2995SOL    HW1 9805   5.822   6.555   1.910  0.9632 -1.4570 -0.2462
 2995SOL    HW2 9806   5.982   6.585   1.890  0.6736  0.3778  0.0218
 2996SOL     OW 9807   1.251   0.204   5.065 -0.4125 -0.4419 -0.2827
 2996SOL    HW1 9808   1.269   0.214   5.163 -0.1173 -0.4843 -0.3301
 2996SOL    HW2 9809   1.322   0.146   5.024 -0.0494  0.2692 -0.6742
 2997SOL     OW 9810   5.823   0.705   2.356  0.5508 -0.0797 -0.2132
 2997SOL    HW1 9811   5.862   0.764   2.426  1.7144  1.8969 -2.3979
 2997SOL    HW2 9812   5.742   0.750   2.316  1.8552  0.4965 -2.3850
 2998SOL     OW 9813   0.678   4.837   3.452  0.6355 -0.4522 -0.4773
 2998SOL    HW1 9814   0.609   4.764   3.459  0.4863 -0.2041  1.1255
 2998SOL    HW2 9815   0.738   4.820   3.374  0.0687 -1.8223 -0.6364
 2999SOL     OW 9816   3.087   6.056   0.142  0.3343  0.0056  0.1631
 2999SOL    HW1 9817   3.165   6.001   0.115  1.7264  2.0014 -0.0617
 2999SOL    HW2 9818   3.118   6.147   0.170 -1.8061  0.4859  1.1720
 3000SOL     OW 9819   6.530   4.540   2.535 -0.0702  0.1046  0.2378
 3000SOL    HW1 9820   6.544   4.637   2.518 -1.4564  0.2741 -0.0139
 3000SOL    HW2 9821   6.481   4.528   2.622 -1.7723 -0.2298 -0.7253
 3001SOL     OW 9822   1.301   2.531   4.347  0.1801 -0.3900 -0.8807
 3001SOL    HW1 9823   1.335   2.625   4.351  0.4663 -0.5233  0.0420
 3001SOL    HW2 9824   1.318   2.494   4.256 -1.1110  0.8720 -1.6915
 3002SOL     OW 9825   5.580   3.622   5.702  0.5542 -0.1272 -0.2539
 3002SOL    HW1 9826   5.548   3.679   5.626 -0.6890  0.3654  0.6056
 3002SOL    HW2 9827   5.516   3.546   5.715  0.6984 -0.1448  0.3762
 3003SOL     OW 9828   2.286   4.208   5.785 -0.7475 -0.2823  0.8141
 3003SOL    HW1 9829   2.219   4.176   5.852 -0.6347 -0.0141  1.0598
 3003SOL    HW2 9830   2.274   4.159   5.699 -1.5649  0.0982  0.7071
 3004SOL     OW 9831   6.540   1.577   6.423  0.4040 -0.6589  0.3888
 3004SOL    HW1 9832   6.588   1.491   6.405  0.2409 -0.7359  0.3173
 3004SOL    HW2 9833   6.593   1.631   6.489 -0.0841 -1.3212  1.3507
 3005SOL     OW 9834   1.875   3.825   0.649  0.2353 -0.1600  0.0592
 3005SOL    HW1 9835   1.936   3.870   0.583  1.6840 -0.0476  1.4054
 3005SOL    HW2 9836   1.793   3.793   0.602  1.3755 -0.4394 -1.8716
 3006SOL     OW 9837   2.398   3.522   1.828 -0.0124  0.5521 -0.2073
 3006SOL    HW1 9838   2.419   3.607   1.878  0.1452  0.5043 -0.1855
 3006SOL    HW2 9839   2.479   3.491   1.779  0.3786 -0.3887  0.9801
 3007SOL     OW 9840   1.578   1.535   1.834  0.7303 -0.4033  0.4974
 3007SOL    HW1 9841   1.570   1.541   1.735 -0.5819  2.3582  0.6768
 3007SOL    HW2 9842   1.673   1.551   1.861  0.6290  1.6797 -0.2239
 3008SOL     OW 9843   3.033   4.454   2.050 -0.0330 -0.1743 -0.0387
 3008SOL    HW1 9844   2.939   4.466   2.019  0.1147 -1.0422 -0.8878
 3008SOL    HW2 9845   3.042   4.366   2.096  0.2844  0.0586  0.3462
 3009SOL     OW 9846   1.115   6.811   5.704 -0.4733 -0.2648  0.8677
 3009SOL    HW1 9847   1.136   6.714   5.690 -1.1809 -0.2304 -0.5898
 3009SOL    HW2 9848   1.024   6.820   5.743 -0.1567 -0.1908  1.6140
 3010SOL     OW 9849   4.500   3.418   4.806 -0.3404  0.5509 -0.8681
 3010SOL    HW1 9850   4.465   3.487   4.742 -1.4256  1.9467  1.1298
 3010SOL    HW2 9851   4.428   3.354   4.829 -0.5373  1.1821  0.3606
 3011SOL     OW 9852   2.697   3.445   5.625 -0.5214 -0.4499  0.1510
 3011SOL    HW1 9853   2.644   3.503   5.563 -1.7244 -2.0061 -0.3419
 3011SOL    HW2 9854   2.636   3.406   5.693  0.1365 -1.6864  0.0443
 3012SOL     OW 9855   2.652   6.197   1.186  0.6322  0.6788 -0.2387
 3012SOL    HW1 9856   2.671   6.120   1.125  0.8657  0.7541 -0.2625
 3012SOL    HW2 9857   2.560   6.233   1.167  0.5308  0.4210 -0.2426
 3013SOL     OW 9858   2.861   6.912   2.995 -0.8333 -0.1897  0.5452
 3013SOL    HW1 9859   2.818   6.934   3.083  0.5695 -0.1580  1.2604
 3013SOL    HW2 9860   2.825   6.972   2.924 -0.6789  1.0518  1.4785
 3014SOL     OW 9861   2.571   5.868   1.343 -0.1018  0.0560  0.1745
 3014SOL    HW1 9862   2.520   5.945   1.306  1.2557  0.9956  0.2135
 3014SOL    HW2 9863   2.526   5.836   1.427 -1.4832 -0.1507 -0.6081
 3015SOL     OW 9864   1.645   2.055   5.300  0.7730 -0.7858  0.4140
 3015SOL    HW1 9865   1.703   2.109   5.239  0.6983 -1.4055 -0.2152
 3015SOL    HW2 9866   1.551   2.087   5.293  0.5401 -1.6616 -0.7524
 3016SOL     OW 9867   1.921   0.906   5.698  0.8276  0.0731 -0.1462
 3016SOL    HW1 9868   1.945   1.002   5.681 -0.5811  0.5547  0.4243
 3016SOL    HW2 9869   1.983   0.868   5.767  1.4045  0.5648 -0.3823
 3017SOL     OW 9870   0.303   3.572   1.604 -0.0196 -0.4194  0.2884
 3017SOL    HW1 9871   0.304   3.553   1.506 -0.2714  1.3889 -0.1056
 3017SOL    HW2 9872   0.215   3.547   1.643 -0.4679  0.2523 -0.2742
 3018SOL     OW 9873   3.553   6.916   0.938  0.1597 -0.3316  0.2297
 3018SOL    HW1 9874   3.531   6.894   1.033 -2.4564 -1.5690 -0.5638
 3018SOL    HW2 9875   3.589   6.834   0.892  1.9423  0.3917  0.2130
 3019SOL     OW 9876   0.060   1.218   5.084 -0.6492 -0.1445  0.6544
 3019SOL    HW1 9877   0.160   1.212   5.095 -0.4996 -0.5388 -0.7266
 3019SOL    HW2 9878   0.036   1.310   5.054 -0.2997 -0.9101 -2.2794
 3020SOL     OW 9879   1.063   1.492   1.344  0.2983  0.3266 -0.6688
 3020SOL    HW1 9880   1.157   1.465   1.325  0.1723 -1.0360  0.5017
 3020SOL    HW2 9881   1.060   1.541   1.431 -0.0464  0.5604 -0.8108
 3021SOL     OW 9882   4.759   1.192   2.257 -0.3699 -0.1457 -0.5788
 3021SOL    HW1 9883   4.784   1.114   2.199 -0.9040 -0.3650 -0.5208
 3021SOL    HW2 9884   4.719   1.158   2.342 -1.9917  0.1743 -1.1591
 3022SOL     OW 9885   5.513   6.496   6.132 -0.1950  0.3230 -0.8198
 3022SOL    HW1 9886   5.480   6.515   6.224 -2.7607 -0.2475 -1.5606
 3022SOL    HW2 9887   5.441   6.518   6.066  2.0339  1.9787 -2.8310
 3023SOL     OW 9888   1.343   6.887   3.144  0.0296 -0.1464  0.1389
 3023SOL    HW1 9889   1.364   6.837   3.060  0.1760  0.1096  0.0196
 3023SOL    HW2 9890   1.248   6.871   3.170 -0.6759  1.4084 -1.2295
 3024SOL     OW 9891   4.223   0.583   1.824  0.0966 -0.1006  0.5097
 3024SOL    HW1 9892   4.220   0.661   1.887 -1.7451  1.0100 -0.8243
 3024SOL    HW2 9893   4.303   0.527   1.845  3.0579  3.4724 -0.0473
 3025SOL     OW 9894   0.682   0.365   5.507  0.2436  0.5600  0.1466
 3025SOL    HW1 9895   0.593   0.373   5.460 -0.0414 -0.2045  0.5459
 3025SOL    HW2 9896   0.746   0.429   5.465  0.5426 -1.2744 -2.5509
 3026SOL     OW 9897   3.204   2.548   4.032 -0.5320  0.1201 -0.0221
 3026SOL    HW1 9898   3.153   2.503   4.105 -0.3805 -0.1787 -0.0990
 3026SOL    HW2 9899   3.267   2.615   4.072 -1.2205  0.7236  0.0499
 3027SOL     OW 9900   4.389   0.602   0.127 -0.1404 -0.2646  0.1186
 3027SOL    HW1 9901   4.360   0.510   0.102 -1.4236  0.3064 -0.5346
 3027SOL    HW2 9902   4.476   0.597   0.176  0.5284 -1.6980 -1.1685
 3028SOL     OW 9903   0.756   5.408   2.819  0.2535 -0.1983  0.4078
 3028SOL    HW1 9904   0.729   5.487   2.874  0.7612 -1.5025  2.6621
 3028SOL    HW2 9905   0.855   5.409   2.804  0.0142  0.6283 -1.3545
 3029SOL     OW 9906   5.505   3.915   1.812  0.0420  0.0213  0.2442
 3029SOL    HW1 9907   5.511   3.979   1.736  0.5758 -0.2639  0.0382
 3029SOL    HW2 9908   5.553   3.953   1.891 -2.9498  1.6418  1.4170
 3030SOL     OW 9909   2.263   1.850   0.647 -0.0154  0.2127 -0.0008
 3030SOL    HW1 9910   2.277   1.944   0.677  2.6762  0.3083 -1.3054
 3030SOL    HW2 9911   2.329   1.790   0.692 -1.8246 -1.1489  0.9783
 3031SOL     OW 9912   2.334   3.914   6.591  0.1152 -0.0286  0.2330
 3031SOL    HW1 9913   2.286   3.968   6.661  0.9467  1.4859 -0.3101
 3031SOL    HW2 9914   2.302   3.820   6.593 -2.1380  0.7023  0.5613
 3032SOL     OW 9915   0.129   4.557   1.974  0.1259 -0.0653  0.2060
 3032SOL    HW1 9916   0.075   4.639   1.993  0.4987 -0.0577  1.2408
 3032SOL    HW2 9917   0.189   4.574   1.895  2.1359  1.5925  2.0037
 3033SOL     OW 9918   2.558   0.023   0.348 -0.3153  0.1949  0.1496
 3033SOL    HW1 9919   2.645  -0.007   0.309 -0.6243 -0.8070  0.2055
 3033SOL    HW2 9920   2.530   0.109   0.306  0.6791  0.4864  0.0646
 3034SOL     OW 9921   4.183   3.393   2.227  0.0679 -0.0724 -0.4366
 3034SOL    HW1 9922   4.219   3.354   2.312  0.2690 -0.2311 -0.5921
 3034SOL    HW2 9923   4.127   3.324   2.181 -1.3608  0.5306  0.3464
 3035SOL     OW 9924   5.238   0.941   6.468 -0.0611 -0.5265  0.1780
 3035SOL    HW1 9925   5.309   0.896   6.522  0.6285  1.4859  1.0142
 3035SOL    HW2 9926   5.165   0.971   6.529  1.3421  2.9875  0.3726
 3036SOL     OW 9927   5.977   1.594   3.453 -0.3052 -0.2716 -0.3987
 3036SOL    HW1 9928   5.938   1.543   3.529 -0.1047 -2.1134 -1.4577
 3036SOL    HW2 9929   5.934   1.684   3.447 -1.3337 -0.6371  1.0079
 3037SOL     OW 9930   6.138   0.491   3.220 -0.2683 -1.0777 -0.1248
 3037SOL    HW1 9931   6.059   0.434   3.242 -0.2798 -0.0235  3.1282
 3037SOL    HW2 9932   6.149   0.498   3.121 -3.5086 -2.2218 -0.6501
 3038SOL     OW 9933   0.054   5.890   6.670 -0.0225  0.2792 -0.0338
 3038SOL    HW1 9934  -0.019   5.821   6.672 -0.3496  0.5901 -0.8439
 3038SOL    HW2 9935   0.113   5.872   6.591  1.2933 -0.4756  1.0783
 3039SOL     OW 9936   3.789   1.234   4.558  0.1651  0.1845 -1.0139
 3039SOL    HW1 9937   3.832   1.290   4.628 -0.4053 -0.1993 -0.3514
 3039SOL    HW2 9938   3.849   1.158   4.533  0.2041  0.0943 -0.6503
 3040SOL     OW 9939   1.844   4.828   6.324  0.0109 -0.2150 -0.6504
 3040SOL    HW1 9940   1.852   4.821   6.225 -1.7410  1.8019 -0.9867
 3040SOL    HW2 9941   1.812   4.919   6.349  1.4036 -0.3443  1.8657
 3041SOL     OW 9942   4.227   3.727   4.463  0.2799  0.1973 -0.2165
 3041SOL    HW1 9943   4.180   3.811   4.493 -0.0836 -0.0562 -0.0728
 3041SOL    HW2 9944   4.190   3.698   4.375  0.9425  0.6172 -0.6354
 3042SOL     OW 9945   0.606   3.242   4.813 -0.3025 -0.1554  0.3019
 3042SOL    HW1 9946   0.669   3.223   4.739 -2.1645 -1.7152 -0.9774
 3042SOL    HW2 9947   0.656   3.246   4.899  1.7333  0.3549 -0.8350
 3043SOL     OW 9948   5.260   6.856   4.056 -0.6527  0.0625 -0.1334
 3043SOL    HW1 9949   5.339   6.874   4.115 -1.4039  1.6823  0.4182
 3043SOL    HW2 9950   5.219   6.942   4.027 -1.6900 -0.7418 -1.1608
 3044SOL     OW 9951   5.983   2.814   1.618 -0.1853 -0.3620 -0.0594
 3044SOL    HW1 9952   6.043   2.751   1.568 -3.0191 -2.5647 -0.9461
 3044SOL    HW2 9953   5.890   2.807   1.582 -1.1207  2.7385  1.3805
 3045SOL     OW 9954   3.364   1.821   4.271  0.0502  0.3616 -0.0446
 3045SOL    HW1 9955   3.390   1.763   4.349 -0.9826 -0.5834 -0.3684
 3045SOL    HW2 9956   3.266   1.840   4.276  0.2256  1.4183 -0.4044
 3046SOL     OW 9957   2.642   3.549   4.018  0.2111  0.7963 -0.1478
 3046SOL    HW1 9958   2.595   3.461   4.030 -1.1975  1.6400  0.7558
 3046SOL    HW2 9959   2.618   3.588   3.930 -0.2905  0.9222  0.0406
 3047SOL     OW 9960   6.503   4.668   0.638 -0.2606  0.1750 -0.0926
 3047SOL    HW1 9961   6.442   4.646   0.562 -1.4430 -0.0115  0.8858
 3047SOL    HW2 9962   6.459   4.644   0.725  1.2314 -0.0195  0.6434
 3048SOL     OW 9963   6.571   0.993   1.178 -0.1712  0.3286  0.2031
 3048SOL    HW1 9964   6.531   1.033   1.261 -1.8591  0.7449 -0.7853
 3048SOL    HW2 9965   6.666   1.022   1.170 -0.1582  0.7775  1.6648
 3049SOL     OW 9966   1.675   6.628   0.755 -0.3308 -0.3591 -0.0231
 3049SOL    HW1 9967   1.751   6.598   0.697  2.7864 -0.6091  3.7895
 3049SOL    HW2 9968   1.682   6.727   0.771 -2.3764  0.1025 -1.5002
 3050SOL     OW 9969   2.879   6.319   5.043 -0.5674 -0.2818 -0.8376
 3050SOL    HW1 9970   2.809   6.328   4.971  0.8287  0.8195 -2.1215
 3050SOL    HW2 9971   2.894   6.408   5.086  0.1201 -0.4761 -0.6633
 3051SOL     OW 9972   6.063   3.676   4.626 -0.3781  0.3052 -0.1517
 3051SOL    HW1 9973   5.995   3.605   4.607 -0.0730  0.4677 -2.0016
 3051SOL    HW2 9974   6.108   3.657   4.713 -0.6130 -1.5205 -0.3959
 3052SOL     OW 9975   6.274   1.908   5.424  0.6022  0.2258  0.0499
 3052SOL    HW1 9976   6.221   1.981   5.467 -0.3892 -0.3421 -0.1615
 3052SOL    HW2 9977   6.222   1.822   5.429  2.0637 -0.6458  0.9798
 3053SOL     OW 9978   4.524   6.817   5.802  0.1033  0.0562 -0.7746
 3053SOL    HW1 9979   4.535   6.896   5.862 -1.6820  0.1246 -0.4671
 3053SOL    HW2 9980   4.613   6.781   5.777  0.9841 -0.6289  2.7702
 3054SOL     OW 9981   4.472   5.772   1.096 -0.3050 -0.3666  0.2972
 3054SOL    HW1 9982   4.541   5.824   1.047 -1.7116  0.8683 -0.4833
 3054SOL    HW2 9983   4.467   5.804   1.191 -0.1964 -0.0545  0.1984
 3055SOL     OW 9984   6.034   0.886   4.851  0.2748 -0.2093  0.5791
 3055SOL    HW1 9985   6.063   0.975   4.886 -1.0970 -0.8034  3.4843
 3055SOL    HW2 9986   5.937   0.890   4.824  0.6201 -0.4639 -0.8094
 3056SOL     OW 9987   1.693   0.384   5.375  0.5962  0.5766 -0.2367
 3056SOL    HW1 9988   1.658   0.437   5.298  0.4989  0.7554 -0.0714
 3056SOL    HW2 9989   1.674   0.432   5.460 -2.0803 -1.0502  0.1895
 3057SOL     OW 9990   5.613   5.563   0.844  0.1427 -0.1413  0.4370
 3057SOL    HW1 9991   5.646   5.496   0.911 -0.9785  0.2316  1.3695
 3057SOL    HW2 9992   5.525   5.600   0.873 -1.8953 -2.0905 -2.6469
 3058SOL     OW 9993   0.561   5.336   4.311  0.3471 -0.6411  0.5015
 3058SOL    HW1 9994   0.656   5.368   4.310  0.1700 -0.0829 -0.6486
 3058SOL    HW2 9995   0.521   5.352   4.401  0.5561  1.6133  0.2562
 3059SOL     OW 9996   0.537   6.014   5.800 -0.5922 -0.6592 -0.1740
 3059SOL    HW1 9997   0.620   5.961   5.783  1.0086  1.4928  0.6670
 3059SOL    HW2 9998   0.523   6.024   5.898 -0.5950  0.8877 -0.3203
 3060SOL     OW 9999   2.243   6.373   6.007 -0.0283 -0.2908 -0.2482
 3060SOL    HW110000   2.268   6.332   6.095  0.3048  2.3536  1.0125
 3060SOL    HW210001   2.160   6.330   5.972 -0.3068 -1.2573  1.4989
 3061SOL     OW10002   1.503   1.002   4.046  0.9342  0.0758  0.1157
 3061SOL    HW110003   1.503   0.953   3.958  1.2787  1.2754 -0.5638
 3061SOL    HW210004   1.551   1.089   4.036 -0.2696  0.8842  1.1403
 3062SOL     OW10005   0.315   2.530   4.584  0.5185  0.1640  0.0673
 3062SOL    HW110006   0.413   2.522   4.567  0.3400 -1.3807 -0.3642
 3062SOL    HW210007   0.271   2.568   4.502  0.5110 -1.0165 -0.4924
 3063SOL     OW10008   5.037   1.000   4.603 -0.0072  0.3577 -0.3608
 3063SOL    HW110009   5.087   0.991   4.517  0.0636 -0.2889 -0.2636
 3063SOL    HW210010   4.950   0.952   4.596 -0.1307  0.5558 -0.1739
 3064SOL     OW10011   5.989   3.942   2.787 -0.5391  0.4860 -0.4847
 3064SOL    HW110012   5.917   3.939   2.856 -0.6354 -0.0164 -0.6061
 3064SOL    HW210013   6.078   3.950   2.831 -0.5103 -0.9665 -0.2529
 3065SOL     OW10014   6.223   5.241   4.950  0.1007 -0.4718 -0.0876
 3065SOL    HW110015   6.140   5.186   4.963  0.1781 -0.0017  2.9503
 3065SOL    HW210016   6.198   5.333   4.921 -0.3340 -0.7525 -0.6138
 3066SOL     OW10017   0.622   4.165   6.105  0.0710  0.3578  0.6283
 3066SOL    HW110018   0.550   4.185   6.172 -3.4816 -2.1641 -2.0898
 3066SOL    HW210019   0.623   4.236   6.035 -0.1113  0.1202  0.3860
 3067SOL     OW10020   6.149   4.963   0.570  0.3330 -0.4926  0.1729
 3067SOL    HW110021   6.243   4.996   0.579  0.5421 -0.5542 -1.3580
 3067SOL    HW210022   6.111   4.997   0.484 -0.8255 -0.9900  0.4790
 3068SOL     OW10023   4.545   1.355   2.140 -0.9310 -0.4341 -1.1091
 3068SOL    HW110024   4.586   1.442   2.114 -1.8374  0.5343  0.5546
 3068SOL    HW210025   4.617   1.285   2.147  0.2740  0.9043  0.4310
 3069SOL     OW10026   5.377   2.010   2.533 -0.0217 -0.1651 -0.1623
 3069SOL    HW110027   5.449   2.029   2.467 -1.0170  0.8362 -1.0025
 3069SOL    HW210028   5.319   1.935   2.500 -2.7881  2.7009 -2.4203
 3070SOL     OW10029   3.967   4.625   2.394 -0.6841 -0.5960  0.1670
 3070SOL    HW110030   3.912   4.673   2.326 -1.1682  1.3027  1.8080
 3070SOL    HW210031   3.908   4.599   2.471  0.3395 -0.3311  1.0458
 3071SOL     OW10032   1.938   3.161   4.973 -0.6313 -0.0084 -0.2914
 3071SOL    HW110033   1.946   3.178   5.072 -0.6129  1.0891 -0.4577
 3071SOL    HW210034   2.017   3.201   4.927  0.7336 -2.8105 -0.5370
 3072SOL     OW10035   4.900   2.078   1.674 -0.2520  0.3073  0.4507
 3072SOL    HW110036   4.866   2.158   1.724 -0.0099  0.2112  0.7756
 3072SOL    HW210037   4.936   2.011   1.739  0.5018  0.3846  0.1294
 3073SOL     OW10038   4.783   3.912   6.894 -0.2574 -0.0109  0.9134
 3073SOL    HW110039   4.791   4.007   6.863 -0.0452 -0.4299 -0.3964
 3073SOL    HW210040   4.832   3.901   6.980 -2.0107  1.5201  2.1889
 3074SOL     OW10041   3.304   4.276   2.240 -0.3470 -0.1662  0.7554
 3074SOL    HW110042   3.221   4.268   2.185  1.2651 -1.4362 -1.6732
 3074SOL    HW210043   3.328   4.373   2.251 -1.3092  0.1457  0.1850
 3075SOL     OW10044   2.217   1.154   5.396 -0.2798 -0.0728 -0.1120
 3075SOL    HW110045   2.255   1.065   5.420  2.8681  0.3247 -2.9625
 3075SOL    HW210046   2.250   1.223   5.460  0.1845 -0.3972 -0.0005
 3076SOL     OW10047   6.916   0.670   2.325 -0.1163  0.4885  0.3008
 3076SOL    HW110048   6.850   0.708   2.261 -1.1117 -1.7163 -0.0564
 3076SOL    HW210049   6.868   0.620   2.397  1.1046 -0.5287  0.4505
 3077SOL     OW10050   0.237   3.234   5.443  0.2001 -0.1512  0.0951
 3077SOL    HW110051   0.335   3.253   5.444 -0.1085  1.5502  0.0412
 3077SOL    HW210052   0.218   3.161   5.377  1.6081 -1.7757  1.3937
 3078SOL     OW10053   4.656   2.721   2.404 -0.1568 -0.3034  0.1812
 3078SOL    HW110054   4.723   2.704   2.332  0.4895 -0.4047  0.7904
 3078SOL    HW210055   4.683   2.670   2.486  0.0067  1.0775  1.0002
 3079SOL     OW10056   4.308   0.241   0.555 -0.5028  0.0302  0.0704
 3079SOL    HW110057   4.300   0.286   0.466  1.4864  0.0362 -0.1466
 3079SOL    HW210058   4.402   0.249   0.588 -0.9767 -0.8267  1.7271
 3080SOL     OW10059   0.668   3.636   6.751 -0.4241 -0.7002 -0.4206
 3080SOL    HW110060   0.761   3.652   6.783 -1.3054 -0.8639  2.5760
 3080SOL    HW210061   0.654   3.681   6.664  1.2439  3.0054  1.0394
 3081SOL     OW10062   0.869   5.358   2.210  0.1797  0.1587 -0.4123
 3081SOL    HW110063   0.834   5.448   2.184 -0.2659  0.1725  0.2220
 3081SOL    HW210064   0.969   5.360   2.210  0.2037  0.2064 -1.9361
 3082SOL     OW10065   6.494   0.597   3.252 -0.3595  0.0907 -0.4765
 3082SOL    HW110066   6.433   0.580   3.331  0.4571 -0.2560  0.0906
 3082SOL    HW210067   6.560   0.522   3.245  2.0032  1.8840  0.8106
 3083SOL     OW10068   3.351   6.900   5.012  0.3302 -0.3042  0.0712
 3083SOL    HW110069   3.283   6.884   5.084  2.4763  0.5802  2.4291
 3083SOL    HW210070   3.432   6.943   5.052  2.2965 -1.2610 -2.6054
 3084SOL     OW10071   0.534   4.573   5.395  0.5708 -0.1076  0.9101
 3084SOL    HW110072   0.544   4.486   5.347  0.6114 -0.6599  1.9013
 3084SOL    HW210073   0.620   4.623   5.391 -0.1869  1.2253 -2.1066
 3085SOL     OW10074   2.393   6.444   6.640  0.2143 -0.2958  0.0241
 3085SOL    HW110075   2.413   6.432   6.543  0.0109  1.0489 -0.1998
 3085SOL    HW210076   2.313   6.389   6.664  0.7045 -1.2192 -0.3764
 3086SOL     OW10077   5.786   3.396   6.588  0.0823  0.1215  0.0599
 3086SOL    HW110078   5.873   3.354   6.612  0.3546  0.9378  0.5384
 3086SOL    HW210079   5.717   3.324   6.574  0.7077 -0.5061  0.1459
 3087SOL     OW10080   0.209   6.827   4.289 -0.5210 -0.5076  0.1221
 3087SOL    HW110081   0.219   6.742   4.341 -1.1294 -0.3531  0.4994
 3087SOL    HW210082   0.238   6.904   4.345  0.1537 -0.4687 -0.2645
 3088SOL     OW10083   0.639   1.328   0.050 -1.0217 -0.2593  0.0358
 3088SOL    HW110084   0.579   1.315  -0.029  0.1330 -1.0293 -0.7131
 3088SOL    HW210085   0.618   1.416   0.093 -0.0191  1.4031 -2.6320
 3089SOL     OW10086   4.962   1.626   6.551 -0.3091  0.4933  0.0619
 3089SOL    HW110087   5.056   1.620   6.584 -0.6254 -0.8295  0.7597
 3089SOL    HW210088   4.927   1.719   6.566  0.7159  0.8574  0.2323
 3090SOL     OW10089   4.696   0.100   0.222  0.4107 -0.7159  0.9002
 3090SOL    HW110090   4.679   0.170   0.291  0.4495 -0.1839  0.3865
 3090SOL    HW210091   4.794   0.099   0.198  0.3774 -0.8107  0.7618
 3091SOL     OW10092   5.241   6.653   6.751 -0.3789 -0.1042 -0.0225
 3091SOL    HW110093   5.304   6.664   6.827  0.0115 -1.8324 -0.0620
 3091SOL    HW210094   5.243   6.559   6.718 -2.6907 -0.1432 -0.2749
 3092SOL     OW10095   0.519   0.558   0.768  0.0349  0.1338  0.2142
 3092SOL    HW110096   0.454   0.501   0.817 -1.7701  1.0366 -0.9944
 3092SOL    HW210097   0.521   0.531   0.672  1.1024  0.4559  0.1297
 3093SOL     OW10098   0.761   5.056   6.367  0.3970 -0.6180  0.1501
 3093SOL    HW110099   0.692   5.110   6.318  0.2676 -0.0540  0.9319
 3093SOL    HW210100   0.847   5.108   6.372  1.1062 -1.5741 -1.3778
 3094SOL     OW10101   0.584   5.634   4.487  0.1602 -0.2169  0.0394
 3094SOL    HW110102   0.554   5.564   4.551  0.6867  0.2529  0.8189
 3094SOL    HW210103   0.683   5.627   4.474 -0.0978 -1.1620 -1.7786
 3095SOL     OW10104   6.830   4.124   1.350  0.2614 -0.6034 -0.5599
 3095SOL    HW110105   6.832   4.091   1.256 -0.4114  0.5654 -1.0082
 3095SOL    HW210106   6.867   4.054   1.411  2.1584 -0.8181 -1.8549
 3096SOL     OW10107   2.887   0.340   1.478  0.2521 -0.2278 -0.4312
 3096SOL    HW110108   2.908   0.428   1.520 -1.0194  0.8902 -1.9695
 3096SOL    HW210109   2.889   0.350   1.378 -2.1686 -1.3237 -0.6576
 3097SOL     OW10110   0.561   0.752   6.238  0.0031 -0.2457  0.6614
 3097SOL    HW110111   0.642   0.701   6.213  1.2173  1.0121  1.8566
 3097SOL    HW210112   0.583   0.817   6.311 -1.9304  0.5691  0.5904
 3098SOL     OW10113   5.372   1.026   1.477  0.3187 -0.7718 -0.0400
 3098SOL    HW110114   5.397   0.941   1.431 -0.5223 -1.8641  1.3829
 3098SOL    HW210115   5.429   1.038   1.559 -0.6343 -0.8205  0.6487
 3099SOL     OW10116   4.037   5.902   2.050 -0.1658  0.1754 -0.6483
 3099SOL    HW110117   4.000   5.842   1.979 -0.3351 -0.6898  0.1448
 3099SOL    HW210118   4.135   5.886   2.060 -0.2416 -0.1001 -0.3205
 3100SOL     OW10119   6.200   2.325   6.874  0.3097  0.2317  0.0701
 3100SOL    HW110120   6.189   2.242   6.929 -1.5618  1.8318  2.3262
 3100SOL    HW210121   6.250   2.304   6.790  2.4219 -2.5760  1.8653
 3101SOL     OW10122   5.102   6.253   4.347  0.1834  0.2533  0.5666
 3101SOL    HW110123   5.126   6.191   4.422 -0.4415  2.1606  2.4278
 3101SOL    HW210124   5.004   6.244   4.328 -0.1064  1.2248  1.4596
 3102SOL     OW10125   3.268   4.479   2.770  0.0783  0.2409 -0.0883
 3102SOL    HW110126   3.246   4.450   2.863  1.0987 -0.5783 -0.0939
 3102SOL    HW210127   3.204   4.435   2.706 -0.4675  0.6070  0.1872
 3103SOL     OW10128   2.196   2.644   2.147  0.7585  0.0434 -0.3672
 3103SOL    HW110129   2.123   2.712   2.142  0.5501 -0.2272 -1.2188
 3103SOL    HW210130   2.174   2.578   2.218  1.0717  0.9792  0.6143
 3104SOL     OW10131   2.166   3.069   0.431 -1.2402 -0.3892 -0.6182
 3104SOL    HW110132   2.225   3.072   0.512  0.4236  1.9230 -1.8128
 3104SOL    HW210133   2.222   3.063   0.349 -2.6421  1.3301 -1.7848
 3105SOL     OW10134   2.138   3.427   6.113  0.6845 -0.0127 -0.4602
 3105SOL    HW110135   2.172   3.396   6.201  0.2315  1.1320  0.1310
 3105SOL    HW210136   2.176   3.369   6.040 -0.5813 -2.3022  0.6064
 3106SOL     OW10137   1.472   4.911   1.809 -0.3088  0.0106  0.2322
 3106SOL    HW110138   1.565   4.931   1.839 -0.0970 -1.0243  0.2894
 3106SOL    HW210139   1.433   4.838   1.866 -0.3156 -1.1782 -1.2317
 3107SOL     OW10140   6.285   4.764   0.128 -0.1187  0.2735  0.3284
 3107SOL    HW110141   6.268   4.726   0.037 -1.2874 -0.4114  0.8160
 3107SOL    HW210142   6.200   4.798   0.167  0.1443 -0.5003  1.6386
 3108SOL     OW10143   5.913   0.884   1.664 -0.4311 -0.1806  0.6017
 3108SOL    HW110144   5.917   0.974   1.621  3.2442 -0.5568 -0.1912
 3108SOL    HW210145   5.943   0.891   1.760 -1.6586 -0.3471  1.0039
 3109SOL     OW10146   0.580   5.529   2.519  0.6165  0.1722  0.2056
 3109SOL    HW110147   0.502   5.472   2.545  0.2181  0.7342  0.2433
 3109SOL    HW210148   0.605   5.588   2.596  0.0281  1.1696 -0.3620
 3110SOL     OW10149   2.819   1.930   4.422 -0.0139 -0.2321  1.0764
 3110SOL    HW110150   2.770   1.984   4.354  3.1413  1.4390 -0.0361
 3110SOL    HW210151   2.776   1.839   4.430 -0.2878 -0.6979 -3.4863
 3111SOL     OW10152   2.907   5.879   6.581  0.5100 -0.0654  0.1353
 3111SOL    HW110153   2.976   5.852   6.648 -0.2433 -1.2138  0.4761
 3111SOL    HW210154   2.829   5.816   6.586 -0.4137  0.9944 -0.4773
 3112SOL     OW10155   3.291   2.477   1.463  0.7805 -0.0294  0.2632
 3112SOL    HW110156   3.363   2.453   1.529  1.0188 -1.9258 -0.6000
 3112SOL    HW210157   3.290   2.409   1.390  1.4323  2.7568 -2.5134
 3113SOL     OW10158   2.750   5.434   4.480  0.6391 -0.1030  0.2235
 3113SOL    HW110159   2.657   5.410   4.453  0.6160  0.4743 -0.2442
 3113SOL    HW210160   2.796   5.480   4.404  1.8037 -1.6627 -0.0714
 3114SOL     OW10161   4.441   5.634   1.495 -0.0746 -0.4359 -0.8592
 3114SOL    HW110162   4.493   5.686   1.562  0.2519 -0.0964 -1.3673
 3114SOL    HW210163   4.473   5.539   1.495  0.0143 -0.4074 -0.6319
 3115SOL     OW10164   6.147   3.304   4.971 -0.2312 -0.7258 -0.6454
 3115SOL    HW110165   6.049   3.292   4.961 -0.2805 -0.2377 -0.7830
 3115SOL    HW210166   6.183   3.239   5.038 -0.3393 -2.2047 -1.9606
 3116SOL     OW10167   6.991   2.656   6.785  0.5303 -0.0172  0.2716
 3116SOL    HW110168   6.927   2.711   6.731 -0.7457 -0.1423  1.5812
 3116SOL    HW210169   6.947   2.631   6.872  1.2828 -2.6122 -0.0280
 3117SOL     OW10170   2.054   5.291   6.612 -0.5539  0.2551  0.4817
 3117SOL    HW110171   1.978   5.255   6.666 -0.1769 -0.5279  0.5122
 3117SOL    HW210172   2.078   5.225   6.541  0.3761  0.2937  0.7459
 3118SOL     OW10173   0.761   5.478   0.516  0.1190  0.2791  0.4875
 3118SOL    HW110174   0.719   5.541   0.450 -3.0305 -0.6303  1.4654
 3118SOL    HW210175   0.841   5.436   0.475  1.9227  4.2144 -0.5193
 3119SOL     OW10176   4.394   5.343   4.606  0.4259 -0.3426 -0.2016
 3119SOL    HW110177   4.462   5.417   4.603 -0.0581  0.1224  0.1396
 3119SOL    HW210178   4.429   5.265   4.555  1.4385 -0.2944  0.3873
 3120SOL     OW10179   6.030   0.919   0.324  0.4292 -0.1971  0.2613
 3120SOL    HW110180   6.038   0.888   0.419  1.7814 -0.6689  0.0101
 3120SOL    HW210181   6.117   0.905   0.276  0.8473  2.9975 -0.1626
 3121SOL     OW10182   6.305   6.194   5.037 -0.1513  0.4243 -0.1484
 3121SOL    HW110183   6.352   6.268   4.989 -0.3556 -0.2594 -1.4343
 3121SOL    HW210184   6.361   6.163   5.114  0.3147  1.3457 -0.1056
 3122SOL     OW10185   3.628   1.199   3.818  0.3337 -0.2396  0.1072
 3122SOL    HW110186   3.723   1.228   3.807 -0.2520  1.0828 -1.9935
 3122SOL    HW210187   3.576   1.223   3.736 -1.7122 -1.4195  0.9883
 3123SOL     OW10188   0.105   3.917   6.947  0.1683  0.6580 -0.5923
 3123SOL    HW110189   0.151   4.001   6.974  0.0582  0.5655 -0.0889
 3123SOL    HW210190   0.056   3.932   6.862 -0.0554  1.1748 -0.3774
 3124SOL     OW10191   5.798   2.358   6.271 -0.3701 -0.1474  0.2078
 3124SOL    HW110192   5.759   2.429   6.213 -2.1043 -0.3727  1.0528
 3124SOL    HW210193   5.897   2.353   6.256  0.1193  3.5251  1.2137
 3125SOL     OW10194   1.891   2.502   6.550 -0.1725  0.3735 -0.3704
 3125SOL    HW110195   1.870   2.482   6.454 -1.9422 -0.4479  0.1438
 3125SOL    HW210196   1.902   2.416   6.600  0.6726  0.7957  0.1971
 3126SOL     OW10197   2.065   6.064   0.824  0.1674  0.2029  0.3291
 3126SOL    HW110198   2.067   5.966   0.842 -1.2441  0.2004  0.6629
 3126SOL    HW210199   2.156   6.096   0.801  0.3906 -1.4783 -1.3419
 3127SOL     OW10200   3.722   6.632   2.157  0.3239 -0.4176 -0.4304
 3127SOL    HW110201   3.719   6.533   2.140 -2.8294 -0.2998 -1.2782
 3127SOL    HW210202   3.699   6.650   2.252 -0.9324 -0.4905 -0.6985
 3128SOL     OW10203   2.609   3.902   6.713  0.5519  0.1334  0.0793
 3128SOL    HW110204   2.513   3.910   6.687  0.5820 -0.4787 -0.2279
 3128SOL    HW210205   2.659   3.849   6.644  1.3525  1.4173 -0.3668
 3129SOL     OW10206   5.161   6.839   6.101 -0.4212 -0.4809  0.0915
 3129SOL    HW110207   5.211   6.925   6.093  0.0309 -0.5635  1.7049
 3129SOL    HW210208   5.063   6.856   6.090 -0.3371  0.2470  0.3879
 3130SOL     OW10209   5.076   0.552   6.375  0.7912  0.5942 -0.5173
 3130SOL    HW110210   5.135   0.552   6.456 -0.2487  0.8969  0.2669
 3130SOL    HW210211   5.132   0.542   6.293  1.8956  0.5403  0.2187
 3131SOL     OW10212   2.955   3.698   6.604 -0.7876  0.0324  0.4032
 3131SOL    HW110213   2.968   3.779   6.661 -2.4361  0.4198  0.2785
 3131SOL    HW210214   2.953   3.725   6.508  0.1166 -0.3763  0.2567
 3132SOL     OW10215   2.527   4.582   6.663  0.3573 -0.7459  0.1515
 3132SOL    HW110216   2.597   4.602   6.731  0.8488  0.2505 -0.6131
 3132SOL    HW210217   2.447   4.641   6.678  1.5893  1.5760 -1.7756
 3133SOL     OW10218   5.602   2.724   1.088  0.2685 -0.0298 -0.2436
 3133SOL    HW110219   5.635   2.805   1.039  2.2227 -1.4783 -1.4535
 3133SOL    HW210220   5.512   2.698   1.052  1.0931 -0.3034 -2.2391
 3134SOL     OW10221   4.844   4.275   5.060 -0.1984 -0.3113 -0.6466
 3134SOL    HW110222   4.863   4.229   5.147  1.9371 -0.1511 -0.9710
 3134SOL    HW210223   4.831   4.207   4.988  0.3890 -0.4545 -0.6294
 3135SOL     OW10224   4.836   3.877   4.599 -0.2732 -0.2791  0.4832
 3135SOL    HW110225   4.894   3.958   4.587  0.4028 -0.7437  0.5344
 3135SOL    HW210226   4.748   3.905   4.638 -0.3767  0.5326 -0.2978
 3136SOL     OW10227   2.157   3.176   4.818  0.1731 -0.0709 -0.3234
 3136SOL    HW110228   2.221   3.165   4.894 -0.1575 -0.9246 -0.1635
 3136SOL    HW210229   2.159   3.095   4.760 -0.7507 -0.1083 -0.3278
 3137SOL     OW10230   3.236   2.345   6.951 -0.1874  0.2064 -0.6884
 3137SOL    HW110231   3.328   2.330   6.988 -1.5954  0.0847  3.3810
 3137SOL    HW210232   3.194   2.258   6.929 -0.7394 -0.2237  1.7358
 3138SOL     OW10233   5.101   1.299   5.723 -0.4605  0.0552  0.4668
 3138SOL    HW110234   5.162   1.355   5.667 -0.0047  1.0148  1.8753
 3138SOL    HW210235   5.039   1.358   5.774 -1.0706 -0.8110  0.7533
 3139SOL     OW10236   4.683   3.705   5.312 -0.6478  0.4465  0.2637
 3139SOL    HW110237   4.749   3.661   5.252 -1.8090  0.4523 -1.0952
 3139SOL    HW210238   4.722   3.790   5.349  0.5504 -0.2109  0.5635
 3140SOL     OW10239   4.489   6.662   6.471 -0.4195 -0.1935  0.1492
 3140SOL    HW110240   4.581   6.623   6.472  0.3294  1.4773 -0.2317
 3140SOL    HW210241   4.457   6.677   6.565  1.4543  3.0001  0.4287
 3141SOL     OW10242   6.283   0.324   6.800  0.4131 -0.0311 -0.0363
 3141SOL    HW110243   6.308   0.361   6.711  0.2547 -2.8062 -1.3189
 3141SOL    HW210244   6.228   0.242   6.788 -0.5391  0.1013  2.6641
 3142SOL     OW10245   6.744   2.410   3.550  0.0766 -0.1110 -0.1818
 3142SOL    HW110246   6.679   2.483   3.531 -0.2234 -0.4021 -0.2943
 3142SOL    HW210247   6.696   2.333   3.591  0.3800 -0.2622 -0.1091
 3143SOL     OW10248   6.883   2.121   0.552 -0.1704  0.2171  0.0733
 3143SOL    HW110249   6.843   2.032   0.572 -0.1352 -0.1206 -1.2192
 3143SOL    HW210250   6.981   2.110   0.535 -0.6742 -0.1505 -3.4078
 3144SOL     OW10251   6.102   6.309   0.679  0.9157  0.6515 -0.2571
 3144SOL    HW110252   6.073   6.254   0.600 -2.3331  0.3068  0.9932
 3144SOL    HW210253   6.066   6.402   0.670 -2.8750 -0.3307  2.3175
 3145SOL     OW10254   5.809   3.003   6.738  0.5428  0.2831  0.3137
 3145SOL    HW110255   5.743   3.069   6.701 -1.6621 -1.2590  1.2523
 3145SOL    HW210256   5.893   3.006   6.685 -1.2571  0.4353 -2.7862
 3146SOL     OW10257   4.182   2.197   2.576  0.2323 -0.6632 -0.1920
 3146SOL    HW110258   4.281   2.196   2.559  0.0877 -0.4418 -1.1053
 3146SOL    HW210259   4.161   2.264   2.647  0.6170  0.2736 -0.9337
 3147SOL     OW10260   6.106   0.218   0.683  0.5063  0.0788  0.0787
 3147SOL    HW110261   6.015   0.177   0.692  0.6162 -0.5744 -1.3266
 3147SOL    HW210262   6.102   0.315   0.708 -0.5863  0.0578  0.0289
 3148SOL     OW10263   1.242   1.081   1.268  0.3873  0.2163  0.2491
 3148SOL    HW110264   1.155   1.032   1.273  1.4234 -1.7967  0.0403
 3148SOL    HW210265   1.273   1.083   1.173  0.9834  0.1066  0.4377
 3149SOL     OW10266   4.095   1.509   5.527  0.1810 -0.1973 -0.5753
 3149SOL    HW110267   4.181   1.460   5.541 -0.1906 -0.9372 -0.8548
 3149SOL    HW210268   4.027   1.448   5.486 -0.0493  0.7605 -1.6845
 3150SOL     OW10269   6.362   5.436   1.264 -0.2095 -0.0699 -0.4948
 3150SOL    HW110270   6.451   5.462   1.300 -0.8856  1.8353 -0.0779
 3150SOL    HW210271   6.323   5.363   1.320  0.2032  0.5361  0.6146
 3151SOL     OW10272   0.034   3.207   3.075 -0.3504 -0.3399  0.4364
 3151SOL    HW110273  -0.014   3.130   3.033 -0.5374 -0.1210  0.2478
 3151SOL    HW210274   0.079   3.261   3.004 -0.0271 -0.4069  0.5896
 3152SOL     OW10275   4.221   5.158   2.980  0.2337 -0.2398  0.2744
 3152SOL    HW110276   4.152   5.191   3.044 -0.5262  0.4373 -0.8594
 3152SOL    HW210277   4.253   5.234   2.923 -1.4287 -1.2807 -2.2791
 3153SOL     OW10278   0.854   5.117   3.233 -0.2010  0.3487 -0.1038
 3153SOL    HW110279   0.894   5.026   3.245  2.1253  0.7247 -3.7454
 3153SOL    HW210280   0.927   5.186   3.236 -1.8715  2.1778  2.1708
 3154SOL     OW10281   3.911   4.021   3.240 -0.4096  0.2674 -0.1129
 3154SOL    HW110282   3.875   4.037   3.148 -0.1479  1.1385 -0.0744
 3154SOL    HW210283   3.996   3.969   3.234  0.9979  2.4539 -0.5627
 3155SOL     OW10284   2.288   2.562   1.893  0.8592 -0.1884 -0.0616
 3155SOL    HW110285   2.379   2.604   1.889 -0.0446  1.9360 -0.2578
 3155SOL    HW210286   2.246   2.584   1.981 -0.1725  0.5416 -0.7107
 3156SOL     OW10287   1.361   2.222   5.707  0.1354 -0.6316 -0.6172
 3156SOL    HW110288   1.461   2.217   5.705  0.3176  0.0601  2.1069
 3156SOL    HW210289   1.333   2.299   5.765 -1.9810 -1.3197 -0.6480
 3157SOL     OW10290   2.669   3.578   6.989 -0.6358  0.2738 -0.1753
 3157SOL    HW110291   2.695   3.537   6.902 -0.9095  2.2190 -1.2389
 3157SOL    HW210292   2.721   3.663   7.002  0.2624 -0.5583  2.1224
 3158SOL     OW10293   6.244   2.917   0.811  0.5994  0.0855  0.5676
 3158SOL    HW110294   6.288   2.876   0.731  0.1110 -0.5485  0.6166
 3158SOL    HW210295   6.309   2.924   0.886  0.4726 -1.3799  0.8283
 3159SOL     OW10296   1.487   0.607   0.377  0.8310 -0.1502  0.4888
 3159SOL    HW110297   1.504   0.592   0.475 -2.0830  0.0465  1.1389
 3159SOL    HW210298   1.494   0.704   0.356  2.1481 -0.2722  0.3309
 3160SOL     OW10299   1.831   5.198   1.426 -0.1114 -0.1064  0.2955
 3160SOL    HW110300   1.922   5.233   1.403 -0.8091  0.4682 -1.7823
 3160SOL    HW210301   1.769   5.275   1.442 -0.4599 -0.4720  0.6968
 3161SOL     OW10302   5.230   3.756   2.526 -0.0011  0.0464 -0.2851
 3161SOL    HW110303   5.165   3.798   2.463 -1.3195 -0.0146  0.9721
 3161SOL    HW210304   5.263   3.825   2.590 -1.3458 -0.5234  1.1018
 3162SOL     OW10305   1.467   2.428   5.393  0.0185 -0.5206  0.1426
 3162SOL    HW110306   1.471   2.328   5.389 -0.7883 -0.6206  1.3455
 3162SOL    HW210307   1.555   2.466   5.363 -0.7064 -1.4295 -3.7690
 3163SOL     OW10308   6.367   5.822   4.751  0.1986  0.3212 -0.2939
 3163SOL    HW110309   6.341   5.848   4.658  0.0424  1.2568 -0.0013
 3163SOL    HW210310   6.304   5.864   4.816 -0.1163 -0.8768  0.2120
 3164SOL     OW10311   1.653   5.842   5.335 -0.2389  0.5224 -0.3287
 3164SOL    HW110312   1.606   5.788   5.405 -0.9450 -0.6283 -1.6555
 3164SOL    HW210313   1.586   5.895   5.283  0.2150  0.9230 -0.5148
 3165SOL     OW10314   5.302   6.074   5.401  0.0263  0.2183 -0.3319
 3165SOL    HW110315   5.222   6.131   5.380 -0.8492 -0.4353  1.0402
 3165SOL    HW210316   5.273   5.980   5.416  1.0174  0.0191  0.4563
 3166SOL     OW10317   1.289   1.982   5.782 -0.3831 -0.5362 -0.1266
 3166SOL    HW110318   1.233   1.936   5.713  0.7883 -0.9753 -0.8155
 3166SOL    HW210319   1.290   2.080   5.763 -0.8807 -0.5233 -0.1216
 3167SOL     OW10320   6.786   0.051   0.033 -0.6059  0.1766 -0.0024
 3167SOL    HW110321   6.726  -0.029   0.027 -0.0725 -0.2969  0.9853
 3167SOL    HW210322   6.878   0.025   0.001 -1.0552  1.1558 -2.2356
 3168SOL     OW10323   1.843   0.306   4.135 -0.5091  0.2436  0.0028
 3168SOL    HW110324   1.896   0.224   4.115 -0.4672 -0.0143  1.0823
 3168SOL    HW210325   1.902   0.387   4.127 -0.5398  0.1830 -1.0212
 3169SOL     OW10326   3.429   6.724   4.192 -0.3868 -0.3803 -0.0200
 3169SOL    HW110327   3.398   6.809   4.236  0.3316 -0.1262  0.0095
 3169SOL    HW210328   3.379   6.647   4.231 -0.5375 -0.0458  0.4676
 3170SOL     OW10329   1.324   0.111   5.329 -0.3685  0.2880 -0.2888
 3170SOL    HW110330   1.280   0.037   5.380  1.0998 -0.5913 -0.2789
 3170SOL    HW210331   1.394   0.155   5.386  1.4947 -0.8902 -1.6022
 3171SOL     OW10332   6.693   2.496   4.711 -0.0353 -0.5292  0.8436
 3171SOL    HW110333   6.711   2.581   4.661  0.1577 -1.4293 -0.6651
 3171SOL    HW210334   6.780   2.452   4.734 -0.1249 -1.4527 -0.4370
 3172SOL     OW10335   5.833   6.031   3.607 -1.0178  0.1122  0.1263
 3172SOL    HW110336   5.802   6.126   3.597 -2.9633 -0.5344 -0.6679
 3172SOL    HW210337   5.911   6.015   3.547 -0.8580  1.1246  0.0457
 3173SOL     OW10338   0.639   6.455   5.382 -0.7010  0.6622  0.6845
 3173SOL    HW110339   0.663   6.384   5.447  0.1619 -0.4616 -0.7792
 3173SOL    HW210340   0.550   6.434   5.340  0.0657 -0.2283 -0.5724
 3174SOL     OW10341   1.731   1.129   3.586  0.2868 -1.1921 -0.1482
 3174SOL    HW110342   1.665   1.064   3.625  0.7416 -0.8593  1.2454
 3174SOL    HW210343   1.798   1.154   3.656 -1.1272  2.4992  0.0803
 3175SOL     OW10344   3.353   2.137   0.596 -0.0122  0.2850  0.4056
 3175SOL    HW110345   3.266   2.109   0.636  0.5610 -0.4508  1.1808
 3175SOL    HW210346   3.346   2.136   0.496 -1.1336  1.0556  0.4689
 3176SOL     OW10347   4.249   0.370   6.511  0.0353  0.6389 -0.2212
 3176SOL    HW110348   4.157   0.331   6.503  0.8333 -1.2588 -0.8629
 3176SOL    HW210349   4.244   0.458   6.557 -2.0242  0.2814  0.3516
 3177SOL     OW10350   5.678   0.944   6.674 -0.7338 -0.1278  0.2860
 3177SOL    HW110351   5.754   0.891   6.636 -1.1151 -1.1081  0.8414
 3177SOL    HW210352   5.616   0.970   6.600  0.4136  1.1812 -0.2573
 3178SOL     OW10353   6.267   3.646   6.174 -0.2542  0.2261 -0.0480
 3178SOL    HW110354   6.361   3.678   6.177 -0.7550  2.1818 -2.3121
 3178SOL    HW210355   6.220   3.672   6.259  1.1492 -0.6804  1.0506
 3179SOL     OW10356   4.076   0.710   2.072  0.1681 -0.0256 -0.0142
 3179SOL    HW110357   4.141   0.689   2.145  0.6044  0.4656 -0.2601
 3179SOL    HW210358   3.993   0.749   2.113 -0.5219 -1.8175  0.4225
 3180SOL     OW10359   2.763   1.803   2.267  0.2976  0.1309  0.1027
 3180SOL    HW110360   2.853   1.824   2.229  0.5852 -0.8470  0.2000
 3180SOL    HW210361   2.774   1.752   2.353 -0.3462  0.5290  0.4374
 3181SOL     OW10362   5.698   5.269   5.994 -0.6928 -0.2794  0.0290
 3181SOL    HW110363   5.749   5.321   5.925  1.2378 -1.3378  0.5912
 3181SOL    HW210364   5.753   5.193   6.026 -2.7539 -1.6495  0.5447
 3182SOL     OW10365   0.465   6.354   3.058 -0.2507 -0.4086  0.1308
 3182SOL    HW110366   0.547   6.404   3.030  0.0617 -0.5737  0.7284
 3182SOL    HW210367   0.478   6.256   3.040 -0.2452 -0.4567  0.3754
 3183SOL     OW10368   0.808   2.642   1.429  0.1352 -0.1182 -0.0389
 3183SOL    HW110369   0.750   2.638   1.348 -0.5365  1.5041  0.3452
 3183SOL    HW210370   0.760   2.688   1.504  1.6419  0.6111  0.5215
 3184SOL     OW10371   6.796   1.960   6.473  0.6776  0.0558 -0.7268
 3184SOL    HW110372   6.786   2.019   6.553 -1.1443  0.4102 -1.1678
 3184SOL    HW210373   6.706   1.946   6.431  0.8536 -3.7314 -0.1894
 3185SOL     OW10374   4.859   2.500   0.665 -0.8256  0.4902 -0.3283
 3185SOL    HW110375   4.822   2.428   0.723 -1.0490 -0.1530 -1.2367
 3185SOL    HW210376   4.848   2.589   0.709  0.5749 -0.1365  1.3697
 3186SOL     OW10377   3.729   4.809   3.383 -0.0493 -0.8609  0.8776
 3186SOL    HW110378   3.768   4.731   3.335  0.2543  0.5356 -1.2979
 3186SOL    HW210379   3.802   4.868   3.416 -0.2391 -1.8522  3.3528
 3187SOL     OW10380   1.849   1.123   3.826 -0.0136  0.4950  0.2440
 3187SOL    HW110381   1.804   1.158   3.909 -1.1597  1.6144 -0.8187
 3187SOL    HW210382   1.908   1.046   3.851 -0.4089  0.7364  2.0854
 3188SOL     OW10383   6.277   2.030   3.740 -0.3998  0.0080 -0.0960
 3188SOL    HW110384   6.369   2.050   3.775 -0.7331  0.8730  0.3435
 3188SOL    HW210385   6.252   2.098   3.672 -1.1441  0.4452  0.5998
 3189SOL     OW10386   5.719   5.259   0.149 -0.4507  0.5596  0.1619
 3189SOL    HW110387   5.673   5.293   0.067  0.0759  0.2086 -0.2867
 3189SOL    HW210388   5.804   5.310   0.162  1.1005 -1.5045 -1.3454
 3190SOL     OW10389   0.286   4.159   5.849  0.2330  0.2268  0.1115
 3190SOL    HW110390   0.339   4.089   5.897  0.8063  0.8587  0.4118
 3190SOL    HW210391   0.237   4.117   5.772  0.4510 -0.5251  0.3756
 3191SOL     OW10392   4.800   2.729   0.777 -0.1464  0.2371 -0.0429
 3191SOL    HW110393   4.755   2.697   0.860 -2.6983 -1.0805 -1.7861
 3191SOL    HW210394   4.747   2.805   0.737 -0.0391 -0.3761 -1.4117
 3192SOL     OW10395   2.203   5.844   3.062  0.4566 -0.4566  0.3425
 3192SOL    HW110396   2.286   5.798   3.095  1.1192  0.4325 -0.0462
 3192SOL    HW210397   2.229   5.925   3.011 -0.7054  0.6813  1.5011
 3193SOL     OW10398   4.657   6.543   1.493  0.1105 -0.0149 -0.2797
 3193SOL    HW110399   4.610   6.485   1.559 -0.8747 -0.4891 -1.3574
 3193SOL    HW210400   4.660   6.497   1.404  0.3520  1.0919 -0.8729
 3194SOL     OW10401   3.043   5.407   4.547  0.4499 -0.4198  0.3488
 3194SOL    HW110402   2.950   5.371   4.544 -0.3656  1.6251 -0.6249
 3194SOL    HW210403   3.101   5.353   4.486 -0.2826 -1.1572  0.2734
 3195SOL     OW10404   1.096   6.415   6.917 -0.5385 -0.4196 -0.9213
 3195SOL    HW110405   1.173   6.352   6.926  0.4477  1.0321  1.8902
 3195SOL    HW210406   1.095   6.451   6.823  1.6567 -1.1577 -1.3074
 3196SOL     OW10407   3.598   2.096   4.818  0.4899 -0.3729  0.2634
 3196SOL    HW110408   3.541   2.134   4.890  0.6134  1.2429 -0.4518
 3196SOL    HW210409   3.694   2.115   4.839  0.5990 -0.8360  0.1920
 3197SOL     OW10410   3.569   5.166   5.970  0.3663  0.1927  0.9389
 3197SOL    HW110411   3.617   5.136   5.888  1.1976  0.5759  1.2664
 3197SOL    HW210412   3.497   5.102   5.993  0.3259 -0.0705  0.0757
 3198SOL     OW10413   4.933   3.816   6.189  0.4689  0.1010  0.6656
 3198SOL    HW110414   4.954   3.851   6.280 -1.1825  0.5453  0.9073
 3198SOL    HW210415   4.896   3.890   6.133  0.6565 -0.3723 -0.0985
 3199SOL     OW10416   1.170   4.010   3.591  0.4666 -0.4095 -0.0769
 3199SOL    HW110417   1.169   3.952   3.672  0.8109 -1.1744 -0.6077
 3199SOL    HW210418   1.155   4.105   3.618  2.9313 -0.2801  1.1937
 3200SOL     OW10419   0.834   0.580   1.902  0.3824  0.1106  0.1029
 3200SOL    HW110420   0.899   0.589   1.827 -0.6036  0.7724 -0.6981
 3200SOL    HW210421   0.827   0.667   1.951 -0.7400  0.4257 -0.5545
 3201SOL     OW10422   4.796   2.395   3.937  0.0536 -0.4766  0.1790
 3201SOL    HW110423   4.838   2.382   3.848  1.2453 -0.7074  0.7633
 3201SOL    HW210424   4.711   2.343   3.942  0.8647 -1.8576 -0.2108
 3202SOL     OW10425   2.856   5.752   3.870 -1.3487 -0.4209  0.4972
 3202SOL    HW110426   2.892   5.828   3.924 -3.6773  1.1340 -0.0469
 3202SOL    HW210427   2.878   5.766   3.773  0.0762 -1.5904  0.6195
 3203SOL     OW10428   5.605   6.356   1.353 -0.1218 -0.3409  0.2368
 3203SOL    HW110429   5.519   6.311   1.374 -0.1312 -0.3098  0.2662
 3203SOL    HW210430   5.675   6.287   1.334  0.3616 -0.4312  2.1751
 3204SOL     OW10431   0.143   1.370   6.572  0.1886  0.4726 -0.0648
 3204SOL    HW110432   0.188   1.388   6.659 -1.3519 -0.1696  0.9089
 3204SOL    HW210433   0.208   1.329   6.508  1.6530  2.0386  0.3626
 3205SOL     OW10434   5.907   6.212   5.528  0.4797  0.3703  0.0738
 3205SOL    HW110435   5.901   6.157   5.611  0.8945 -0.5625 -0.4972
 3205SOL    HW210436   5.971   6.287   5.542 -1.0601  1.5257  1.2948
 3206SOL     OW10437   1.303   5.453   5.567  1.4966 -0.0539  0.2391
 3206SOL    HW110438   1.324   5.439   5.470  1.7310 -0.5451  0.3562
 3206SOL    HW210439   1.344   5.380   5.621 -0.1892 -0.8419  0.5241
 3207SOL     OW10440   6.688   0.576   4.284 -0.5366 -0.0359 -0.2855
 3207SOL    HW110441   6.669   0.623   4.197 -1.8360  0.0105 -0.0000
 3207SOL    HW210442   6.638   0.489   4.286  1.7443 -1.4278 -0.7593
 3208SOL     OW10443   1.354   3.375   4.791  0.0731  0.1145  0.3058
 3208SOL    HW110444   1.275   3.370   4.730 -0.3012 -0.9736  0.8461
 3208SOL    HW210445   1.419   3.303   4.767 -0.4160 -0.7985  1.6262
 3209SOL     OW10446   6.222   0.374   5.882 -0.7227  0.5689  0.3231
 3209SOL    HW110447   6.148   0.442   5.874 -0.0803  1.5422  2.1591
 3209SOL    HW210448   6.228   0.343   5.976  0.6040 -0.2283 -0.0038
 3210SOL     OW10449   5.515   6.249   3.885  0.3049  0.0090  0.1185
 3210SOL    HW110450   5.446   6.313   3.918  0.1857 -0.0479 -0.0167
 3210SOL    HW210451   5.518   6.252   3.786 -1.0566 -1.6010 -0.0006
 3211SOL     OW10452   4.290   6.392   2.492  0.5428 -0.4529  0.2731
 3211SOL    HW110453   4.382   6.363   2.465  0.3784 -0.0104 -0.7838
 3211SOL    HW210454   4.240   6.426   2.413 -0.6334 -0.9151  0.7749
 3212SOL     OW10455   2.447   5.778   6.222  0.3155 -0.1840  0.4329
 3212SOL    HW110456   2.464   5.826   6.308 -1.0617  0.5387  0.3212
 3212SOL    HW210457   2.393   5.696   6.240 -1.7172  1.0129  0.0834
 3213SOL     OW10458   1.071   3.497   4.108 -0.0114 -0.0807  0.3506
 3213SOL    HW110459   1.045   3.401   4.116 -1.1291  0.0584 -1.0681
 3213SOL    HW210460   0.991   3.554   4.125  0.2383  0.5183 -0.4574
 3214SOL     OW10461   1.571   4.308   2.277  0.3597  0.9189  0.2385
 3214SOL    HW110462   1.654   4.300   2.222  1.3127  0.7419  1.6487
 3214SOL    HW210463   1.572   4.239   2.349  0.3170  2.5676  1.9090
 3215SOL     OW10464   5.901   3.536   4.009 -0.0580  0.4024 -0.1093
 3215SOL    HW110465   5.997   3.535   4.039 -0.4665 -0.7197  1.2594
 3215SOL    HW210466   5.897   3.557   3.911  1.6677 -0.6344 -0.4491
 3216SOL     OW10467   5.444   1.883   3.466 -0.3159 -0.1243 -0.3269
 3216SOL    HW110468   5.482   1.973   3.487 -0.0337 -0.6591  1.5511
 3216SOL    HW210469   5.347   1.882   3.490 -0.3818 -0.2611 -0.5890
 3217SOL     OW10470   6.463   1.649   4.117 -0.2245  0.4212  0.3791
 3217SOL    HW110471   6.472   1.560   4.161 -0.5439  0.8127  1.2544
 3217SOL    HW210472   6.375   1.653   4.069 -0.0287  0.1183 -0.0080
 3218SOL     OW10473   0.809   6.524   4.877  0.0445  0.0404 -0.1357
 3218SOL    HW110474   0.902   6.496   4.856  0.1483  0.6636 -0.5225
 3218SOL    HW210475   0.748   6.498   4.802 -0.4845 -2.2758  1.0231
 3219SOL     OW10476   0.814   2.641   4.589 -0.6834  0.1371  0.3140
 3219SOL    HW110477   0.859   2.675   4.506 -1.2198  2.7817  1.0242
 3219SOL    HW210478   0.881   2.638   4.664 -1.1696  2.3838  0.9267
 3220SOL     OW10479   3.545   2.508   5.803 -0.0517  0.1895  0.1472
 3220SOL    HW110480   3.485   2.454   5.744  1.1842 -1.5155  0.3816
 3220SOL    HW210481   3.618   2.451   5.838 -0.3429  1.2938  2.8501
 3221SOL     OW10482   4.999   1.873   2.314 -0.2340 -0.0235 -0.1702
 3221SOL    HW110483   4.933   1.941   2.282 -0.4452 -0.7365 -1.3426
 3221SOL    HW210484   4.970   1.836   2.402 -1.4326 -0.3397 -0.6744
 3222SOL     OW10485   5.761   0.709   0.851  0.2773 -0.5344  0.1240
 3222SOL    HW110486   5.796   0.794   0.811  0.1738  0.1298  1.4109
 3222SOL    HW210487   5.662   0.707   0.843  0.4087 -1.8981 -2.4942
 3223SOL     OW10488   6.774   2.540   4.419  0.0314 -0.5542  0.4746
 3223SOL    HW110489   6.761   2.458   4.475 -2.2465  0.0459  0.9417
 3223SOL    HW210490   6.732   2.526   4.330 -0.0612 -0.0132  0.4329
 3224SOL     OW10491   6.575   1.200   2.121  0.3826 -0.5330  0.3501
 3224SOL    HW110492   6.552   1.274   2.057  0.6247 -0.7235  0.0402
 3224SOL    HW210493   6.653   1.148   2.086  1.0329 -0.1497  1.1983
 3225SOL     OW10494   5.336   3.119   2.097 -0.0626 -0.1552  1.0598
 3225SOL    HW110495   5.339   3.098   2.195 -0.0557  0.8814  1.2983
 3225SOL    HW210496   5.422   3.161   2.069 -0.4253  0.4653  0.8416
 3226SOL     OW10497   4.755   1.851   4.098 -0.1403  0.1026 -0.2997
 3226SOL    HW110498   4.783   1.899   4.014 -2.1054  0.7312 -0.6325
 3226SOL    HW210499   4.748   1.918   4.173  0.7485 -0.3153  0.1737
 3227SOL     OW10500   2.582   0.514   0.635  0.6346  0.1951  0.6201
 3227SOL    HW110501   2.676   0.486   0.619  0.1709 -3.0788  2.6506
 3227SOL    HW210502   2.561   0.508   0.733 -2.1022 -0.7804  0.0858
 3228SOL     OW10503   2.968   1.020   5.470 -0.0674  0.2279 -0.0996
 3228SOL    HW110504   2.879   1.011   5.515  0.5354  0.2451  1.1108
 3228SOL    HW210505   3.036   1.050   5.536  0.4694  2.1461 -1.4299
 3229SOL     OW10506   6.635   6.561   4.188 -0.0040 -0.0093  0.0628
 3229SOL    HW110507   6.716   6.575   4.131 -1.0132 -0.7491 -1.6466
 3229SOL    HW210508   6.559   6.531   4.130 -1.0726 -0.8866  1.8458
 3230SOL     OW10509   5.059   4.682   1.529  1.1152 -0.0163  0.2977
 3230SOL    HW110510   5.137   4.694   1.591  0.4443 -0.0248  1.1574
 3230SOL    HW210511   5.027   4.588   1.533  2.1372 -0.4734 -1.3740
 3231SOL     OW10512   1.373   6.311   3.595  0.5849 -0.1829  0.3034
 3231SOL    HW110513   1.455   6.368   3.597  1.6208 -1.5574 -1.0265
 3231SOL    HW210514   1.343   6.292   3.689  0.5688  1.9379  0.7883
 3232SOL     OW10515   2.179   2.569   0.285  0.3323 -0.4559  0.1199
 3232SOL    HW110516   2.195   2.657   0.240 -2.7460 -0.2475 -0.8424
 3232SOL    HW210517   2.262   2.515   0.284  1.5780  1.3370 -1.8159
 3233SOL     OW10518   4.387   4.177   6.111 -0.0027  0.1517 -0.2264
 3233SOL    HW110519   4.430   4.185   6.201 -2.1938 -2.0280  1.1174
 3233SOL    HW210520   4.459   4.165   6.041  1.7572  2.3725  1.0604
 3234SOL     OW10521   3.408   5.965   6.822 -0.2877  0.6132 -0.3695
 3234SOL    HW110522   3.416   5.908   6.740 -1.3124  0.4546 -0.3678
 3234SOL    HW210523   3.330   6.027   6.812 -0.1569  0.8977  0.3101
 3235SOL     OW10524   1.482   2.392   6.004 -0.1660  0.2044  0.3104
 3235SOL    HW110525   1.525   2.302   5.995  0.4457  0.5574 -0.3514
 3235SOL    HW210526   1.479   2.417   6.101  0.6706 -0.0454  0.4090
 3236SOL     OW10527   5.018   5.348   0.352 -0.1964  0.3892 -0.6891
 3236SOL    HW110528   5.009   5.310   0.444  2.3825  1.2582  0.0300
 3236SOL    HW210529   5.008   5.448   0.356 -1.0483  0.3575 -1.5631
 3237SOL     OW10530   4.741   6.358   5.239 -0.4662  0.1490 -0.5048
 3237SOL    HW110531   4.789   6.274   5.265 -0.4405  0.3440  0.0854
 3237SOL    HW210532   4.652   6.335   5.200 -1.7595 -0.0829  2.3516
 3238SOL     OW10533   4.032   4.162   2.159 -0.6836  0.1184 -0.0005
 3238SOL    HW110534   3.990   4.126   2.243 -1.1227 -0.1533 -0.3310
 3238SOL    HW210535   4.008   4.103   2.082 -1.7700  1.3450 -0.6331
 3239SOL     OW10536   1.175   0.372   3.827  0.3743 -0.2007 -0.7484
 3239SOL    HW110537   1.082   0.356   3.794  0.6957 -1.1654 -1.2303
 3239SOL    HW210538   1.172   0.433   3.906 -0.4796  1.5201 -2.0463
 3240SOL     OW10539   3.736   2.645   1.202  1.4091 -0.4072 -0.3115
 3240SOL    HW110540   3.677   2.674   1.277  2.3959 -1.1531  0.7751
 3240SOL    HW210541   3.809   2.712   1.188  2.0440 -0.9535  0.3349
 3241SOL     OW10542   3.123   6.982   6.977  0.3844 -0.2292  0.6114
 3241SOL    HW110543   3.094   6.958   7.070  0.0036 -1.7956  0.0794
 3241SOL    HW210544   3.200   6.925   6.949  0.1212 -0.1787 -0.2573
 3242SOL     OW10545   2.755   5.901   6.280  0.6338 -0.5741 -0.0957
 3242SOL    HW110546   2.751   5.807   6.244  3.2197 -1.0370  0.5955
 3242SOL    HW210547   2.851   5.928   6.291 -0.0610  1.7821  0.7586
 3243SOL     OW10548   5.466   5.185   5.866  0.1207 -0.1410 -0.4786
 3243SOL    HW110549   5.543   5.200   5.928  0.3986 -1.7953 -0.3932
 3243SOL    HW210550   5.452   5.266   5.810  3.8215 -0.7715 -2.5993
 3244SOL     OW10551   5.271   2.329   4.251  0.5125 -0.4448 -0.0160
 3244SOL    HW110552   5.367   2.301   4.254  0.6650 -0.1512 -1.4908
 3244SOL    HW210553   5.213   2.251   4.275  1.0963 -0.7944  0.2692
 3245SOL     OW10554   4.049   0.031   1.449  0.1659  0.5446 -0.1639
 3245SOL    HW110555   4.126   0.064   1.504  0.8147  0.6638 -1.1324
 3245SOL    HW210556   3.972   0.094   1.459  1.1556  2.0317 -1.4322
 3246SOL     OW10557   3.276   1.020   2.464 -0.6500  0.5894  0.4111
 3246SOL    HW110558   3.217   0.965   2.523 -1.9089  0.4760 -0.8911
 3246SOL    HW210559   3.224   1.098   2.428  0.0358  0.5849 -0.6425
 3247SOL     OW10560   5.962   6.024   4.789 -0.4916 -0.1615 -0.6395
 3247SOL    HW110561   5.995   6.038   4.696  0.2899  2.3960 -0.0445
 3247SOL    HW210562   5.897   6.096   4.813 -0.3584 -0.5230  0.9411
 3248SOL     OW10563   1.401   5.776   3.989 -0.2738 -0.1387 -0.4201
 3248SOL    HW110564   1.469   5.849   3.981 -1.8301  1.3041 -1.0247
 3248SOL    HW210565   1.340   5.795   4.066 -0.3756 -1.1020 -0.2423
 3249SOL     OW10566   1.727   3.979   3.076 -0.2710  0.1226  0.3625
 3249SOL    HW110567   1.768   3.898   3.117  2.9857  1.7266  0.5288
 3249SOL    HW210568   1.696   3.957   2.983 -1.7630 -1.8454  1.2338
 3250SOL     OW10569   0.555   6.614   5.937  0.2384  0.5801 -0.5343
 3250SOL    HW110570   0.550   6.661   6.025 -1.1062  2.1364 -1.3922
 3250SOL    HW210571   0.649   6.617   5.903  0.2054  2.7074 -0.5507
 3251SOL     OW10572   0.192   0.854   1.307  0.0897  0.5008 -0.3184
 3251SOL    HW110573   0.270   0.866   1.246 -1.8285 -1.1220 -3.3048
 3251SOL    HW210574   0.210   0.780   1.371  0.9747  0.0648 -1.0565
 3252SOL     OW10575   2.078   4.860   2.443  0.0628  0.4183 -0.6406
 3252SOL    HW110576   1.989   4.816   2.428 -0.1232  0.9263 -1.0868
 3252SOL    HW210577   2.135   4.847   2.362 -0.6128  2.4063 -1.5147
 3253SOL     OW10578   1.256   6.005   6.388 -0.6225  0.6889  0.1758
 3253SOL    HW110579   1.283   5.985   6.294  0.5527 -1.5287  0.9335
 3253SOL    HW210580   1.167   5.965   6.407 -0.4842  0.4131  0.2504
 3254SOL     OW10581   3.714   3.258   1.705 -0.1321 -0.2775  0.3580
 3254SOL    HW110582   3.693   3.213   1.618 -2.4612 -1.7550  1.5967
 3254SOL    HW210583   3.748   3.350   1.687  1.4357 -1.2272 -2.1504
 3255SOL     OW10584   0.725   0.416   2.279 -0.1442  0.4831 -1.0402
 3255SOL    HW110585   0.752   0.363   2.359 -0.5498  0.3347 -0.9969
 3255SOL    HW210586   0.647   0.371   2.234  0.0606  0.5733 -1.5021
 3256SOL     OW10587   2.553   6.834   2.879 -0.2590  0.0082  0.6707
 3256SOL    HW110588   2.615   6.905   2.844 -0.8060  0.2685  0.2012
 3256SOL    HW210589   2.461   6.851   2.844 -1.0663  0.8488  3.0241
 3257SOL     OW10590   5.145   5.191   1.352 -0.0596 -0.1006  0.1706
 3257SOL    HW110591   5.171   5.243   1.433  1.2211  1.6168 -1.2866
 3257SOL    HW210592   5.149   5.250   1.271  2.0829 -2.5517 -1.6723
 3258SOL     OW10593   4.333   5.520   3.004 -0.5099 -0.4489  0.0234
 3258SOL    HW110594   4.414   5.531   3.060 -0.5511 -1.6922  0.3550
 3258SOL    HW210595   4.359   5.482   2.915  0.1313  5.0305 -2.5085
 3259SOL     OW10596   3.800   6.323   5.853 -0.0522 -0.1658  0.4636
 3259SOL    HW110597   3.882   6.277   5.886  0.4464  0.8209  0.6246
 3259SOL    HW210598   3.824   6.414   5.819 -0.7095 -0.7621 -1.7143
 3260SOL     OW10599   4.565   1.023   5.582  0.0611  0.2939  0.2235
 3260SOL    HW110600   4.575   1.073   5.496 -0.2465  0.4179  0.2578
 3260SOL    HW210601   4.627   0.944   5.582 -1.6402 -1.1201 -1.1527
 3261SOL     OW10602   1.525   1.889   5.896 -0.0200 -0.0833  0.2007
 3261SOL    HW110603   1.461   1.942   5.841  0.5826  0.2766 -0.1695
 3261SOL    HW210604   1.615   1.933   5.894  0.5120 -1.1454 -0.1574
 3262SOL     OW10605   6.447   1.787   0.916  0.4512 -0.4843  0.3851
 3262SOL    HW110606   6.455   1.886   0.931  1.8929 -0.6284  0.6832
 3262SOL    HW210607   6.380   1.749   0.979 -0.4408  0.3623 -0.0296
 3263SOL     OW10608   1.081   2.193   3.872  0.5910 -0.3951 -0.3393
 3263SOL    HW110609   1.009   2.249   3.912 -1.6046 -1.3870 -2.6075
 3263SOL    HW210610   1.168   2.243   3.874  0.7610 -0.2683  5.2353
 3264SOL     OW10611   5.346   3.209   1.762  0.3960  0.1191 -0.6063
 3264SOL    HW110612   5.302   3.149   1.828  0.4512  2.4179  1.7259
 3264SOL    HW210613   5.295   3.295   1.756  1.3325  0.6090 -2.3627
 3265SOL     OW10614   0.540   1.047   5.043 -0.3311  0.1349  0.2240
 3265SOL    HW110615   0.602   0.969   5.049 -1.6691 -0.8748  1.3909
 3265SOL    HW210616   0.560   1.112   5.116 -0.0055  0.3049 -0.0080
 3266SOL     OW10617   2.762   5.319   5.126  0.0423  0.4849 -0.4800
 3266SOL    HW110618   2.705   5.327   5.207  1.7846  0.0071  0.8541
 3266SOL    HW210619   2.814   5.404   5.114 -1.4437  1.2421 -2.1581
 3267SOL     OW10620   0.404   6.397   2.486  0.4390  0.3646  0.5167
 3267SOL    HW110621   0.459   6.398   2.403  1.1533 -0.0321  0.9781
 3267SOL    HW210622   0.456   6.437   2.561 -1.0563  3.1603  0.2589
 3268SOL     OW10623   0.445   3.250   1.044 -0.1271 -0.6307  0.3841
 3268SOL    HW110624   0.432   3.205   1.132  0.6097 -1.1155  0.2556
 3268SOL    HW210625   0.456   3.181   0.972 -0.7414 -0.2405 -0.0946
 3269SOL     OW10626   3.925   6.286   0.423 -0.3734  0.0809 -0.0507
 3269SOL    HW110627   3.889   6.374   0.392 -0.4641 -0.2651 -0.9731
 3269SOL    HW210628   3.915   6.219   0.349 -0.3604 -0.7186  0.6580
 3270SOL     OW10629   0.244   3.023   4.094  0.1603  0.5920 -0.4991
 3270SOL    HW110630   0.285   3.098   4.146 -0.4695  0.7246 -0.1799
 3270SOL    HW210631   0.196   2.961   4.157 -0.6198  0.7568 -0.9127
 3271SOL     OW10632   0.141   6.998   5.725  0.1171 -1.4115 -0.5353
 3271SOL    HW110633   0.108   7.068   5.788 -1.5653 -0.7912 -2.0072
 3271SOL    HW210634   0.199   6.933   5.774  0.7995  0.3937  1.1018
 3272SOL     OW10635   1.548   2.925   5.128 -0.6288 -0.0685 -0.2650
 3272SOL    HW110636   1.597   2.999   5.174 -1.7918  0.2255  0.5432
 3272SOL    HW210637   1.495   2.962   5.052 -0.3393 -0.2484 -0.5583
 3273SOL     OW10638   4.010   2.759   2.269  0.3357  0.3809  0.8209
 3273SOL    HW110639   4.045   2.783   2.178  0.3825  1.4382  1.1060
 3273SOL    HW210640   3.977   2.665   2.268 -0.9456  0.8159 -0.6577
 3274SOL     OW10641   6.703   1.710   1.670 -0.1044  0.0402 -0.1196
 3274SOL    HW110642   6.733   1.752   1.584  2.5532 -1.3899  0.0254
 3274SOL    HW210643   6.774   1.721   1.740  0.2093 -3.4899  0.2940
 3275SOL     OW10644   2.115   2.098   0.895 -1.1353  0.4174  0.0834
 3275SOL    HW110645   2.077   2.186   0.865  0.0089  1.0009  0.2934
 3275SOL    HW210646   2.106   2.090   0.995 -2.1868 -0.1799 -0.0476
 3276SOL     OW10647   3.144   6.703   5.998 -0.1169 -0.5556 -0.0577
 3276SOL    HW110648   3.130   6.750   5.911 -0.1877 -0.6958 -0.1219
 3276SOL    HW210649   3.113   6.609   5.991 -0.8692 -0.3502  0.3563
 3277SOL     OW10650   0.780   1.612   0.689 -0.0729  0.0069 -0.2775
 3277SOL    HW110651   0.685   1.613   0.721  0.5449 -1.1968  1.7744
 3277SOL    HW210652   0.839   1.578   0.762  2.1587  2.1512 -0.9315
 3278SOL     OW10653   2.185   5.009   1.236 -0.6436 -0.7478 -0.2852
 3278SOL    HW110654   2.141   5.000   1.147  0.3220  2.6574 -1.2220
 3278SOL    HW210655   2.284   5.009   1.225 -0.5163  0.0584  0.7503
 3279SOL     OW10656   2.932   6.374   3.393  0.1834 -0.2857 -0.2344
 3279SOL    HW110657   2.974   6.449   3.445 -1.5505  0.3840  0.2701
 3279SOL    HW210658   2.935   6.396   3.295 -0.7998  0.7434 -0.0597
 3280SOL     OW10659   4.460   5.088   3.396  0.4490 -0.0316  0.0473
 3280SOL    HW110660   4.379   5.133   3.434  0.5550 -0.5096  0.8553
 3280SOL    HW210661   4.524   5.158   3.363 -0.3853  0.3496 -0.8261
 3281SOL     OW10662   1.124   3.092   0.007 -0.5333 -0.4418 -0.2233
 3281SOL    HW110663   1.069   3.048  -0.064 -3.0780  1.7466  0.2484
 3281SOL    HW210664   1.180   3.164  -0.033 -0.7857 -0.2429 -0.1952
 3282SOL     OW10665   2.081   6.399   3.847  0.6858 -0.3543  0.8781
 3282SOL    HW110666   2.088   6.388   3.946  1.5780 -0.7163  0.7881
 3282SOL    HW210667   2.156   6.349   3.803  1.0567  0.8748  0.0880
 3283SOL     OW10668   5.755   3.333   0.115 -0.3963  0.0645 -0.4105
 3283SOL    HW110669   5.780   3.398   0.187  1.0494  1.0438 -1.6903
 3283SOL    HW210670   5.832   3.271   0.098 -0.0852  0.8332 -2.0780
 3284SOL     OW10671   1.755   0.509   2.529  0.1578  0.8182  0.1950
 3284SOL    HW110672   1.834   0.538   2.475 -0.7673  1.8330 -0.6729
 3284SOL    HW210673   1.675   0.562   2.502 -0.6790  0.3115  1.5487
 3285SOL     OW10674   5.700   1.925   4.986 -0.2118 -0.2993 -1.0112
 3285SOL    HW110675   5.785   1.964   4.951  0.3094 -1.3298 -0.9235
 3285SOL    HW210676   5.627   1.994   4.979  0.8887  1.0557  0.0890
 3286SOL     OW10677   1.926   1.324   5.027 -0.0327 -0.0338 -0.5018
 3286SOL    HW110678   1.838   1.279   5.045 -0.3909  0.4083 -1.0937
 3286SOL    HW210679   1.926   1.360   4.933  0.9990 -0.5289 -0.7049
 3287SOL     OW10680   5.344   4.964   6.248 -0.4703 -0.4489  0.1795
 3287SOL    HW110681   5.340   4.923   6.157 -1.9901  0.5365 -0.2388
 3287SOL    HW210682   5.366   5.061   6.240 -0.4774 -0.3773  0.9045
 3288SOL     OW10683   4.696   1.813   2.964 -0.1311 -0.0527 -0.2606
 3288SOL    HW110684   4.710   1.724   3.007 -0.2451  0.9222  1.8906
 3288SOL    HW210685   4.741   1.883   3.018 -1.4641  1.4102 -0.9870
 3289SOL     OW10686   5.000   4.963   3.635  0.5836 -0.4345  0.8162
 3289SOL    HW110687   5.072   5.027   3.664  0.3934  0.3276 -0.2949
 3289SOL    HW210688   4.999   4.959   3.535 -0.5030 -0.9266  0.8367
 3290SOL     OW10689   6.832   5.836   6.290  0.0354 -0.1060 -0.7882
 3290SOL    HW110690   6.795   5.814   6.380  2.9653  1.4957  1.0135
 3290SOL    HW210691   6.910   5.777   6.271 -0.0809  0.1005 -1.9650
 3291SOL     OW10692   2.832   0.613   4.115 -0.0200  0.0204  0.6102
 3291SOL    HW110693   2.832   0.519   4.081  1.2393  0.0516  0.4790
 3291SOL    HW210694   2.751   0.661   4.082  0.0732 -0.5900 -0.5371
 3292SOL     OW10695   4.100   5.999   6.438  0.3382 -0.3094 -0.8743
 3292SOL    HW110696   4.053   5.928   6.386 -0.9251 -0.3687  0.3073
 3292SOL    HW210697   4.118   6.078   6.379 -3.1123  0.5880 -0.9458
 3293SOL     OW10698   6.150   4.273   3.494  0.3244  0.4120  0.3791
 3293SOL    HW110699   6.112   4.186   3.526 -1.9118  0.8985 -0.7184
 3293SOL    HW210700   6.249   4.265   3.484  0.2262 -1.8477  0.7922
 3294SOL     OW10701   5.723   6.197   2.645 -0.0714  0.0362  0.4324
 3294SOL    HW110702   5.764   6.148   2.721  1.2676  0.9114  0.2950
 3294SOL    HW210703   5.719   6.295   2.666  2.0454  0.5860 -1.3086
 3295SOL     OW10704   3.369   5.936   1.715 -1.1539 -0.1979 -0.2286
 3295SOL    HW110705   3.323   5.872   1.653 -0.0366  0.2147 -1.5439
 3295SOL    HW210706   3.438   5.987   1.664  1.1760 -1.1768  1.7640
 3296SOL     OW10707   2.960   5.127   1.393 -0.2234 -0.3180 -0.0915
 3296SOL    HW110708   2.977   5.068   1.472 -0.9670  1.2564  1.2968
 3296SOL    HW210709   3.046   5.143   1.345 -0.2503 -3.9542 -1.6303
 3297SOL     OW10710   2.323   6.829   5.050 -0.3165  0.6104  0.4952
 3297SOL    HW110711   2.370   6.906   5.093 -1.1568  1.7443 -0.5629
 3297SOL    HW210712   2.226   6.850   5.040 -0.6106 -0.6992  0.3973
 3298SOL     OW10713   4.139   1.857   6.659 -0.1153 -0.0841  0.4865
 3298SOL    HW110714   4.079   1.810   6.723  0.1272 -0.7033  0.2607
 3298SOL    HW210715   4.172   1.941   6.702 -0.1978 -0.3347  1.0602
 3299SOL     OW10716   5.730   5.024   0.965 -0.1601 -0.1142 -0.0148
 3299SOL    HW110717   5.774   4.970   0.893 -1.8401 -0.6899 -0.6798
 3299SOL    HW210718   5.659   5.081   0.925  0.4121  1.3000  0.9242
 3300SOL     OW10719   0.002   0.474   6.564  0.1932  0.1387 -0.5719
 3300SOL    HW110720   0.010   0.407   6.637  0.7648  0.4177 -0.3792
 3300SOL    HW210721  -0.044   0.432   6.486 -2.7195  0.5378  0.8230
 3301SOL     OW10722   4.656   4.724   1.194  0.0739  0.2185 -0.2334
 3301SOL    HW110723   4.635   4.682   1.106  0.0040 -2.6660  1.0463
 3301SOL    HW210724   4.739   4.778   1.186  0.2361 -0.2417 -2.0076
 3302SOL     OW10725   6.080   0.755   5.484 -0.0120 -0.4408  0.4625
 3302SOL    HW110726   6.179   0.757   5.502  0.0470 -0.9838  0.2067
 3302SOL    HW210727   6.052   0.661   5.465 -0.7464 -0.4506  1.4775
 3303SOL     OW10728   5.651   3.630   1.605 -0.0154 -0.1269 -0.4334
 3303SOL    HW110729   5.572   3.636   1.666 -0.8269  0.6494 -1.5164
 3303SOL    HW210730   5.637   3.554   1.541 -0.2025  0.4270 -1.0543
 3304SOL     OW10731   3.718   5.382   2.833  0.1840  0.4082 -0.3762
 3304SOL    HW110732   3.817   5.396   2.839 -0.0117  1.4806  0.6811
 3304SOL    HW210733   3.673   5.470   2.816 -0.9095  0.8133  3.5958
 3305SOL     OW10734   2.254   5.012   4.878 -0.4054 -0.3116 -0.2848
 3305SOL    HW110735   2.310   4.966   4.809  0.1095 -0.7960  0.4314
 3305SOL    HW210736   2.169   4.960   4.891 -0.6504 -0.0476 -0.7610
 3306SOL     OW10737   4.012   0.543   4.046  0.4287 -0.2560  0.1768
 3306SOL    HW110738   4.079   0.470   4.060  0.0034 -0.3768  1.7800
 3306SOL    HW210739   4.037   0.622   4.102  0.3167  0.4654 -0.7633
 3307SOL     OW10740   3.739   4.561   5.345  0.0259 -0.3822  0.0377
 3307SOL    HW110741   3.645   4.563   5.377 -0.1007  1.9844 -0.2698
 3307SOL    HW210742   3.798   4.610   5.410  0.9209 -1.1111 -0.1845
 3308SOL     OW10743   2.657   1.043   1.557 -0.1161 -0.6879  0.8615
 3308SOL    HW110744   2.637   1.099   1.638  1.1559  0.0148  0.7249
 3308SOL    HW210745   2.573   0.999   1.525 -0.7294 -0.5875  2.2663
 3309SOL     OW10746   4.092   1.509   1.245 -0.4209  0.4184  0.3304
 3309SOL    HW110747   4.052   1.418   1.235  0.2861  0.0254  0.8699
 3309SOL    HW210748   4.124   1.542   1.156  4.1288 -2.1874  0.7287
 3310SOL     OW10749   0.807   2.281   0.596  0.3041  0.1359  0.4425
 3310SOL    HW110750   0.710   2.255   0.597  0.6703 -1.5457 -1.8352
 3310SOL    HW210751   0.816   2.371   0.553 -0.1924  0.0091  0.0650
 3311SOL     OW10752   5.290   0.187   0.097  0.0772 -0.5323 -0.0462
 3311SOL    HW110753   5.242   0.217   0.180  1.1889 -0.6146  0.6559
 3311SOL    HW210754   5.380   0.152   0.122  0.7644  0.2092 -1.3726
 3312SOL     OW10755   4.819   5.126   3.746 -0.5202  0.2871 -0.2298
 3312SOL    HW110756   4.794   5.191   3.674  1.1626 -0.7685 -1.8608
 3312SOL    HW210757   4.873   5.052   3.706 -3.4116 -2.8678  1.2812
 3313SOL     OW10758   3.034   1.282   1.867 -0.8007 -0.0687  0.4891
 3313SOL    HW110759   3.034   1.188   1.902  1.0432  0.0560  0.9720
 3313SOL    HW210760   3.113   1.295   1.807 -0.6700  1.3334  0.9381
 3314SOL     OW10761   6.346   3.730   3.838  0.4584 -0.8981 -0.2325
 3314SOL    HW110762   6.386   3.639   3.846  0.8664 -0.5874  1.7258
 3314SOL    HW210763   6.386   3.791   3.907 -1.4914  0.1319  0.0718
 3315SOL     OW10764   6.267   1.534   1.216 -0.4884 -0.4144 -0.0562
 3315SOL    HW110765   6.331   1.601   1.255 -0.3126 -0.0489 -0.9491
 3315SOL    HW210766   6.195   1.582   1.166  0.0585 -0.8814 -1.3588
 3316SOL     OW10767   5.616   4.903   1.197  0.0731  0.1185 -0.1549
 3316SOL    HW110768   5.641   4.930   1.104  2.1234 -0.6373  0.1178
 3316SOL    HW210769   5.633   4.805   1.208  2.3019  0.6201  1.7026
 3317SOL     OW10770   1.405   6.177   1.336  0.6645  0.7719 -0.1300
 3317SOL    HW110771   1.327   6.119   1.358  0.0134  0.9516 -1.8591
 3317SOL    HW210772   1.490   6.130   1.358  0.0998  0.3020  1.1123
 3318SOL     OW10773   2.631   5.125   0.360 -0.5870  0.7695  0.2322
 3318SOL    HW110774   2.692   5.081   0.427 -0.0101  0.5688 -0.4198
 3318SOL    HW210775   2.684   5.186   0.302 -0.6985 -0.7160 -1.4714
 3319SOL     OW10776   5.449   1.508   3.214  0.4044 -0.0692 -0.3024
 3319SOL    HW110777   5.492   1.562   3.287 -0.1574  0.0459 -0.0495
 3319SOL    HW210778   5.497   1.525   3.128  2.2749 -1.6003  0.3455
 3320SOL     OW10779   3.246   6.159   2.040 -0.2755  0.5265  0.4969
 3320SOL    HW110780   3.175   6.196   2.100 -1.9615  0.4075 -1.3403
 3320SOL    HW210781   3.312   6.231   2.017  0.3743  0.5831  2.4075
 3321SOL     OW10782   0.913   6.697   2.219  0.1078 -0.2038  0.2647
 3321SOL    HW110783   0.867   6.675   2.306  0.7300 -1.5893  0.2557
 3321SOL    HW210784   1.012   6.687   2.230  0.2204  0.0537 -0.4634
 3322SOL     OW10785   2.844   6.330   3.110  0.8769 -0.2938 -0.2845
 3322SOL    HW110786   2.800   6.358   3.025 -0.0115  1.3568  0.6640
 3322SOL    HW210787   2.919   6.267   3.090  0.8010  0.1990 -2.2862
 3323SOL     OW10788   3.284   5.140   7.015 -0.0456  0.2113  0.1083
 3323SOL    HW110789   3.347   5.138   7.092  1.7181  2.3679 -1.1899
 3323SOL    HW210790   3.310   5.069   6.949 -0.3242 -0.3202  0.5599
 3324SOL     OW10791   2.026   2.837   6.382  0.2281  0.7721 -0.1577
 3324SOL    HW110792   2.092   2.775   6.339 -0.7963 -1.3076  1.1397
 3324SOL    HW210793   2.032   2.927   6.338  1.5849 -0.2751 -2.2942
 3325SOL     OW10794   5.582   2.873   6.820  0.7189 -0.5197  0.6455
 3325SOL    HW110795   5.670   2.910   6.790  1.5139 -1.0702  2.1939
 3325SOL    HW210796   5.597   2.790   6.873 -0.7214 -0.4779  1.1526
 3326SOL     OW10797   0.684   1.792   0.076 -0.3649  0.2251 -0.2581
 3326SOL    HW110798   0.646   1.860   0.012  0.2847  1.6651  0.8244
 3326SOL    HW210799   0.781   1.811   0.090 -0.8318  0.9711  2.3822
 3327SOL     OW10800   3.985   5.783   4.265  0.7319 -0.4164  0.1456
 3327SOL    HW110801   4.054   5.855   4.273  1.4918 -1.3046  2.3086
 3327SOL    HW210802   4.030   5.693   4.265 -0.2717 -0.9514 -1.3532
 3328SOL     OW10803   2.789   0.673   3.178 -0.5394 -0.1597 -0.0464
 3328SOL    HW110804   2.847   0.746   3.143  1.6348 -1.4744  0.6269
 3328SOL    HW210805   2.746   0.703   3.263  0.9817  0.0877  0.6716
 3329SOL     OW10806   1.092   4.967   0.121 -0.2630 -0.5705 -0.7184
 3329SOL    HW110807   1.131   4.988   0.031 -0.0350 -1.2332 -0.7734
 3329SOL    HW210808   1.008   4.915   0.110 -0.1606 -0.7746 -0.5450
 3330SOL     OW10809   3.769   5.663   4.389  0.3235 -0.3780 -0.3388
 3330SOL    HW110810   3.783   5.580   4.444  0.0942 -0.8090 -0.9251
 3330SOL    HW210811   3.855   5.690   4.346  1.4819  2.0853  3.1139
 3331SOL     OW10812   1.467   6.429   6.506  0.1911 -0.4055  0.3963
 3331SOL    HW110813   1.517   6.364   6.564  0.5237  0.2750  0.8872
 3331SOL    HW210814   1.412   6.490   6.564  1.2118  0.8549  0.0759
 3332SOL     OW10815   3.228   0.693   0.651  0.2730  0.5844 -0.6969
 3332SOL    HW110816   3.275   0.773   0.613  3.1932 -0.7235 -0.1127
 3332SOL    HW210817   3.256   0.681   0.746 -0.0549 -1.1549 -0.7892
 3333SOL     OW10818   4.564   0.418   2.213  0.2222  0.2768 -0.3388
 3333SOL    HW110819   4.470   0.412   2.248  0.0298  3.7459  0.1098
 3333SOL    HW210820   4.561   0.442   2.116  0.7401 -1.6476 -0.8775
 3334SOL     OW10821   3.015   4.931   6.037 -0.1321  0.3328  0.0502
 3334SOL    HW110822   3.055   4.845   6.004 -1.0052 -1.2335  2.7983
 3334SOL    HW210823   2.918   4.934   6.013 -0.3189  0.0882  0.7498
 3335SOL     OW10824   6.340   1.122   6.574 -0.4183 -0.5374 -0.2572
 3335SOL    HW110825   6.271   1.116   6.502  0.5168 -0.3140 -1.2034
 3335SOL    HW210826   6.428   1.149   6.534  0.3841 -1.4321  0.8094
 3336SOL     OW10827   0.754   2.856   2.980  0.1399 -0.1146  0.2151
 3336SOL    HW110828   0.681   2.802   3.021  0.4263 -0.8442 -0.2134
 3336SOL    HW210829   0.714   2.923   2.918 -0.1896 -0.1921  0.3393
 3337SOL     OW10830   6.551   4.230   4.685 -0.2295  0.3406  0.2791
 3337SOL    HW110831   6.616   4.227   4.610 -0.7572  1.8412 -0.2732
 3337SOL    HW210832   6.459   4.213   4.650 -0.3055 -0.4291  0.8334
 3338SOL     OW10833   1.178   1.373   4.955  0.1438  0.6743 -0.2669
 3338SOL    HW110834   1.199   1.277   4.933  0.0541  1.1689 -2.7663
 3338SOL    HW210835   1.161   1.424   4.870 -0.7240  2.7146  1.0622
 3339SOL     OW10836   5.395   4.522   3.458 -0.7281 -0.1682  0.5653
 3339SOL    HW110837   5.381   4.556   3.365 -1.0922 -1.5394  0.0952
 3339SOL    HW210838   5.339   4.440   3.472 -1.7738  0.8043  2.4663
 3340SOL     OW10839   0.227   3.007   4.924 -0.0743 -0.5584 -0.5240
 3340SOL    HW110840   0.289   2.930   4.908 -0.3098 -0.9948  0.5608
 3340SOL    HW210841   0.150   3.002   4.860 -0.5182 -1.7083  0.0677
 3341SOL     OW10842   4.347   1.960   4.549  0.0655  0.1358 -0.1860
 3341SOL    HW110843   4.276   1.893   4.569 -0.2062  0.5598  0.2978
 3341SOL    HW210844   4.387   1.993   4.635  1.7894 -1.0964 -0.4743
 3342SOL     OW10845   2.934   0.195   2.279 -1.1180 -0.3769 -0.1102
 3342SOL    HW110846   3.020   0.191   2.228 -1.1765 -3.7196 -0.0972
 3342SOL    HW210847   2.862   0.149   2.227 -2.7074  1.5026  0.3374
 3343SOL     OW10848   0.899   3.609   2.086 -0.2932  0.1956  0.2271
 3343SOL    HW110849   0.936   3.700   2.068  2.1504 -0.6017  0.7930
 3343SOL    HW210850   0.913   3.586   2.182  0.2875 -1.2111 -0.1590
 3344SOL     OW10851   2.127   5.316   2.133 -0.0176 -0.3915  0.1197
 3344SOL    HW110852   2.103   5.220   2.143 -3.1672  0.0681 -1.5370
 3344SOL    HW210853   2.115   5.363   2.220  2.5665 -1.5626  1.2189
 3345SOL     OW10854   3.526   4.844   6.346 -0.0884  0.2386 -0.5826
 3345SOL    HW110855   3.542   4.825   6.442  0.2103  0.2313 -0.6354
 3345SOL    HW210856   3.470   4.927   6.337 -0.7267 -0.1559 -0.3809
 3346SOL     OW10857   0.322   3.362   3.798 -0.1357 -0.1836 -0.1617
 3346SOL    HW110858   0.374   3.398   3.720  0.2571  0.2841  0.3108
 3346SOL    HW210859   0.370   3.383   3.883 -1.5819  1.1774  0.3733
 3347SOL     OW10860   5.199   3.693   5.873 -0.4842 -0.4421 -0.1720
 3347SOL    HW110861   5.275   3.648   5.921 -0.5950 -0.3054  0.1281
 3347SOL    HW210862   5.228   3.783   5.842 -0.4559 -0.4768 -0.2484
 3348SOL     OW10863   4.236   2.199   2.995 -0.5563 -0.2178 -0.2247
 3348SOL    HW110864   4.289   2.172   3.075 -1.0412 -1.1736 -0.2192
 3348SOL    HW210865   4.249   2.133   2.921 -1.2783 -0.1494 -0.4220
 3349SOL     OW10866   5.493   2.830   4.714 -0.3412  0.0237 -0.3843
 3349SOL    HW110867   5.450   2.919   4.728  2.3638  1.2798  0.3700
 3349SOL    HW210868   5.563   2.837   4.643 -0.6146 -1.7252 -0.8816
 3350SOL     OW10869   3.221   1.740   5.530  0.5964  0.1074  0.4289
 3350SOL    HW110870   3.162   1.796   5.472 -1.1368  0.9370  2.8295
 3350SOL    HW210871   3.183   1.648   5.536  1.2274 -0.2106 -0.3736
 3351SOL     OW10872   0.800   3.306   5.349 -0.4063  0.5152 -0.1652
 3351SOL    HW110873   0.761   3.230   5.295  1.3763 -0.7191  0.2004
 3351SOL    HW210874   0.793   3.391   5.297 -0.1418 -0.3728 -1.7047
 3352SOL     OW10875   2.743   0.971   0.728  0.0545 -0.2477  0.0946
 3352SOL    HW110876   2.835   1.011   0.732  0.8101 -1.8783  0.0969
 3352SOL    HW210877   2.729   0.928   0.639 -0.5270 -0.4131  0.2626
 3353SOL     OW10878   5.979   6.552   3.139 -0.3241 -0.6398 -0.2195
 3353SOL    HW110879   6.008   6.645   3.115  0.2041 -1.2313 -2.0147
 3353SOL    HW210880   5.879   6.548   3.143 -0.5757 -0.6631 -3.5120
 3354SOL     OW10881   6.305   2.742   2.561 -0.0608 -0.6272  0.1556
 3354SOL    HW110882   6.350   2.817   2.609 -0.1749 -1.1327  1.0630
 3354SOL    HW210883   6.356   2.657   2.576  1.6153 -0.3335 -3.0165
 3355SOL     OW10884   3.403   3.817   1.435 -0.0583  0.1683  0.1690
 3355SOL    HW110885   3.388   3.819   1.533  1.4741  2.8041  0.4244
 3355SOL    HW210886   3.350   3.889   1.391  1.5055  0.9870 -0.4946
 3356SOL     OW10887   4.793   2.569   5.911  0.3496  0.7648  0.5759
 3356SOL    HW110888   4.790   2.662   5.874  0.6848  0.2891 -0.6971
 3356SOL    HW210889   4.843   2.510   5.848 -0.3794 -0.4136  1.0674
 3357SOL     OW10890   5.338   6.514   5.919 -0.9413  0.1555 -0.3132
 3357SOL    HW110891   5.310   6.584   5.853  0.0305  0.7707 -0.1017
 3357SOL    HW210892   5.260   6.455   5.940 -1.3050  0.0327 -1.8919
 3358SOL     OW10893   4.238   3.095   0.548 -0.0771  0.4010 -0.0782
 3358SOL    HW110894   4.158   3.048   0.585  0.4975 -1.0189 -0.5723
 3358SOL    HW210895   4.219   3.124   0.454  0.1398 -0.3454 -0.3564
 3359SOL     OW10896   6.283   3.813   0.121  0.0142  0.2044 -0.2957
 3359SOL    HW110897   6.342   3.825   0.200  1.0071  0.2840 -1.0290
 3359SOL    HW210898   6.308   3.729   0.073  0.2137  0.7520 -1.1751
 3360SOL     OW10899   4.805   5.322   0.756 -0.0692 -0.3162 -0.0722
 3360SOL    HW110900   4.742   5.325   0.833  1.0871 -1.1487  0.9272
 3360SOL    HW210901   4.836   5.415   0.734 -2.0019  0.1931 -0.9317
 3361SOL     OW10902   3.745   0.393   1.391 -0.1814 -0.0453  0.3605
 3361SOL    HW110903   3.718   0.430   1.480 -2.2019 -0.8235  0.1288
 3361SOL    HW210904   3.699   0.444   1.319 -1.1114 -1.4098 -0.0578
 3362SOL     OW10905   2.620   6.053   2.853  0.5111 -0.2966 -0.1056
 3362SOL    HW110906   2.592   5.972   2.802 -1.8995  0.3766  0.0457
 3362SOL    HW210907   2.609   6.134   2.795  0.5975  0.1690  0.5177
 3363SOL     OW10908   0.998   3.373   6.595 -0.8637 -0.0805  0.1619
 3363SOL    HW110909   0.994   3.352   6.498  3.0168  0.8293 -0.3526
 3363SOL    HW210910   1.010   3.289   6.648 -1.0401 -0.3995 -0.3032
 3364SOL     OW10911   2.422   0.842   2.389  0.5008 -0.5700 -0.2492
 3364SOL    HW110912   2.395   0.800   2.476 -1.1565 -0.6416 -0.7709
 3364SOL    HW210913   2.462   0.932   2.406  0.1716 -0.5772  0.5801
 3365SOL     OW10914   6.710   1.872   4.514 -0.0697  0.0541  0.4537
 3365SOL    HW110915   6.668   1.847   4.427  0.1672  0.0175  0.3476
 3365SOL    HW210916   6.679   1.810   4.586 -1.6205  1.1070  0.7559
 3366SOL     OW10917   4.190   2.509   0.802 -0.1267  0.2595 -0.1038
 3366SOL    HW110918   4.208   2.427   0.748 -0.0782 -0.6510  1.2854
 3366SOL    HW210919   4.137   2.573   0.746  1.2394  0.0063 -1.7641
 3367SOL     OW10920   0.973   3.910   3.931 -0.4927  0.7425 -0.0943
 3367SOL    HW110921   1.070   3.924   3.914 -0.6504  1.7736 -0.2286
 3367SOL    HW210922   0.953   3.924   4.028 -0.0852 -2.1964  0.5117
 3368SOL     OW10923   3.804   1.603   5.698  0.1472 -0.0604  0.3013
 3368SOL    HW110924   3.754   1.527   5.738  3.6257 -1.3734  2.5822
 3368SOL    HW210925   3.805   1.594   5.598 -1.1613 -1.8794  0.4046
 3369SOL     OW10926   2.219   2.005   2.856  0.0279 -0.2635  0.2998
 3369SOL    HW110927   2.139   1.972   2.907 -1.1239  0.1830 -1.1534
 3369SOL    HW210928   2.203   2.099   2.827 -0.3244 -1.1563 -2.7035
 3370SOL     OW10929   1.240   5.119   3.512 -0.5823 -0.1397 -0.2541
 3370SOL    HW110930   1.283   5.209   3.512  0.2857 -0.5283  1.2203
 3370SOL    HW210931   1.247   5.078   3.421  0.1692  0.7339 -0.5961
 3371SOL     OW10932   6.000   1.659   1.134  0.0888  0.6469 -0.5558
 3371SOL    HW110933   6.046   1.735   1.089 -1.2539  1.1038 -1.1975
 3371SOL    HW210934   5.906   1.685   1.156 -0.2387 -0.6499 -0.3417
 3372SOL     OW10935   5.318   0.702   1.558 -0.1970  0.0462  0.4065
 3372SOL    HW110936   5.404   0.752   1.550  0.0862 -0.4271  0.3194
 3372SOL    HW210937   5.329   0.628   1.625  0.1049 -1.2762 -1.0394
 3373SOL     OW10938   2.138   6.558   0.023  0.2702 -0.3807  0.0238
 3373SOL    HW110939   2.153   6.535   0.119 -0.5396 -3.0374 -0.4104
 3373SOL    HW210940   2.186   6.644   0.002  1.3879 -0.3010  2.4856
 3374SOL     OW10941   5.815   6.507   0.509 -0.1698  0.4381  0.0735
 3374SOL    HW110942   5.857   6.452   0.437  0.0422  0.8196 -0.1010
 3374SOL    HW210943   5.718   6.484   0.516 -0.2101  0.4484 -0.3842
 3375SOL     OW10944   3.153   5.569   5.322  0.0235  0.0908 -0.0875
 3375SOL    HW110945   3.245   5.593   5.290  0.1262  0.4290  0.4402
 3375SOL    HW210946   3.157   5.485   5.376  0.1338  0.4660  0.4963
 3376SOL     OW10947   4.498   0.540   5.338 -0.2986 -0.0794  0.3458
 3376SOL    HW110948   4.438   0.491   5.401  0.3313 -2.9737 -1.1276
 3376SOL    HW210949   4.583   0.566   5.384 -1.1089  0.7070  1.4419
 3377SOL     OW10950   1.951   5.270   4.159  0.1342 -0.3139 -0.0704
 3377SOL    HW110951   1.953   5.174   4.131 -2.9982  0.1804 -2.6737
 3377SOL    HW210952   2.012   5.324   4.101  1.1675 -0.5386  0.7672
 3378SOL     OW10953   0.431   0.733   3.089 -0.0191 -0.2887  0.3561
 3378SOL    HW110954   0.398   0.639   3.087 -1.5859  0.2349  0.7727
 3378SOL    HW210955   0.420   0.774   2.998  1.5357 -0.7627 -0.0862
 3379SOL     OW10956   6.927   4.318   6.888 -0.4165  0.3666  0.5318
 3379SOL    HW110957   6.992   4.290   6.817  2.6369  0.1132  3.2416
 3379SOL    HW210958   6.898   4.237   6.940 -1.2288  0.7643  0.7159
 3380SOL     OW10959   4.431   3.274   0.495  0.5456 -0.2613  0.0776
 3380SOL    HW110960   4.373   3.206   0.540 -0.4277 -0.2855 -1.1214
 3380SOL    HW210961   4.508   3.229   0.451 -0.0821 -0.6135 -0.6924
 3381SOL     OW10962   5.554   2.824   2.054  0.5584  1.0721  0.4480
 3381SOL    HW110963   5.463   2.783   2.048  0.1645  1.4985  2.6912
 3381SOL    HW210964   5.561   2.899   1.988 -0.8168  1.1988  0.4179
 3382SOL     OW10965   2.154   0.309   3.954  0.3466  0.1286 -0.0033
 3382SOL    HW110966   2.114   0.398   3.977  0.1443 -0.5976  2.9465
 3382SOL    HW210967   2.100   0.236   3.995  1.3349 -1.2888 -1.1017
 3383SOL     OW10968   5.745   5.558   4.822 -0.1917 -0.4313  0.5205
 3383SOL    HW110969   5.813   5.631   4.836  1.6938 -1.8742 -0.5399
 3383SOL    HW210970   5.656   5.589   4.853  0.4879  2.4060 -0.0617
 3384SOL     OW10971   5.407   3.613   3.278  0.4964 -0.4227 -0.2181
 3384SOL    HW110972   5.493   3.645   3.319  0.6638  2.2016 -2.3590
 3384SOL    HW210973   5.425   3.572   3.189 -0.5026  0.8258 -1.0223
 3385SOL     OW10974   1.631   0.967   6.033  0.0782 -0.6149 -0.0831
 3385SOL    HW110975   1.606   0.918   5.950  2.3152 -1.0696 -0.5450
 3385SOL    HW210976   1.567   1.042   6.049 -0.8522 -1.0280 -1.7575
 3386SOL     OW10977   1.045   2.223   2.532 -0.7020  0.0712  0.2585
 3386SOL    HW110978   1.108   2.288   2.576 -0.2962  0.2908 -0.6299
 3386SOL    HW210979   1.093   2.137   2.515 -1.0900 -0.2900  0.9697
 3387SOL     OW10980   2.912   0.263   4.802 -0.0908  0.3950  0.6681
 3387SOL    HW110981   3.005   0.268   4.766 -0.4521  1.4233 -0.1889
 3387SOL    HW210982   2.869   0.353   4.795 -1.8611 -0.4845 -0.9340
 3388SOL     OW10983   6.161   0.859   1.807  0.0118  0.1773  0.2163
 3388SOL    HW110984   6.240   0.884   1.862 -0.2135 -1.0095  1.1281
 3388SOL    HW210985   6.104   0.795   1.859 -1.1729  0.4543 -0.7030
 3389SOL     OW10986   1.022   4.648   6.771 -0.0841  0.8066 -0.5818
 3389SOL    HW110987   1.006   4.550   6.781 -0.4544  0.9613  0.4692
 3389SOL    HW210988   1.111   4.663   6.726 -0.7215 -0.0080 -2.1986
 3390SOL     OW10989   0.064   0.681   6.213  0.5167  0.2102  0.0318
 3390SOL    HW110990   0.033   0.598   6.260  1.0755 -0.5319 -0.8996
 3390SOL    HW210991   0.150   0.662   6.165 -0.8892  0.3713 -2.7843
 3391SOL     OW10992   0.757   4.237   2.949 -0.3380  0.5973  0.0137
 3391SOL    HW110993   0.676   4.223   3.006 -0.2766 -0.9774 -0.2090
 3391SOL    HW210994   0.731   4.227   2.853  0.0115  0.5712 -0.0809
 3392SOL     OW10995   0.148   3.231   5.962 -0.1922  0.1998 -0.4243
 3392SOL    HW110996   0.080   3.296   5.929 -0.7600 -0.1950 -0.0390
 3392SOL    HW210997   0.234   3.280   5.981 -0.7812  0.9414  0.4069
 3393SOL     OW10998   6.238   3.997   5.905 -0.2416  0.1948 -0.0232
 3393SOL    HW110999   6.335   3.982   5.884 -0.4096 -0.8285 -0.1346
 3393SOL    HW211000   6.230   4.055   5.986  0.4563  0.8382 -0.4034
 3394SOL     OW11001   6.475   5.496   2.176  0.4556  0.4491  0.5627
 3394SOL    HW111002   6.515   5.451   2.097  1.1273 -0.5166  1.4258
 3394SOL    HW211003   6.509   5.453   2.260 -2.5708 -0.6673  1.3533
 3395SOL     OW11004   3.667   5.022   6.854  0.4836  0.1918 -0.1905
 3395SOL    HW111005   3.590   5.085   6.866 -0.2078 -0.5504 -0.6237
 3395SOL    HW211006   3.752   5.069   6.875 -0.1992  0.6192  1.7661
 3396SOL     OW11007   0.711   0.355   4.439  0.5215 -0.4868 -0.0290
 3396SOL    HW111008   0.788   0.293   4.449 -0.3619 -1.5499  0.3168
 3396SOL    HW211009   0.724   0.434   4.499  0.7012 -1.3205  1.0658
 3397SOL     OW11010   6.052   1.966   6.281 -0.6020 -0.4074  0.1059
 3397SOL    HW111011   5.983   1.986   6.350  2.1407  0.7154  2.8007
 3397SOL    HW211012   6.086   1.873   6.294  1.9557  0.7131  2.4496
 3398SOL     OW11013   1.177   5.602   2.833 -0.0840  0.1487 -0.4613
 3398SOL    HW111014   1.146   5.696   2.850  1.5351  0.4302  1.1585
 3398SOL    HW211015   1.276   5.601   2.825 -0.1589 -1.3013 -1.5947
 3399SOL     OW11016   4.806   3.757   6.630  0.1280  0.8447 -0.2176
 3399SOL    HW111017   4.786   3.807   6.715  0.0217  2.5865 -1.2363
 3399SOL    HW211018   4.876   3.687   6.649 -0.7145  0.3945  1.5344
 3400SOL     OW11019   5.358   1.622   4.470  0.1094 -0.0613 -0.0692
 3400SOL    HW111020   5.310   1.640   4.556 -0.4294 -2.2797  0.1394
 3400SOL    HW211021   5.387   1.708   4.430  1.0513  1.0045  2.7149
 3401SOL     OW11022   0.983   0.212   4.958 -0.2068  0.2055 -0.3763
 3401SOL    HW111023   0.931   0.147   5.013  1.0407 -2.6549 -2.3432
 3401SOL    HW211024   1.079   0.210   4.985 -0.0746  0.8959 -0.7669
 3402SOL     OW11025   1.572   6.047   0.063  0.3513 -0.0333 -0.4778
 3402SOL    HW111026   1.578   6.011   0.156 -0.3933 -0.8290 -0.7199
 3402SOL    HW211027   1.502   6.119   0.060 -0.8835 -1.2122 -0.7647
 3403SOL     OW11028   1.381   6.198   4.145 -0.0933  0.3184  0.3057
 3403SOL    HW111029   1.446   6.126   4.122 -0.8995 -0.6932  1.0974
 3403SOL    HW211030   1.310   6.202   4.074 -1.7165 -1.7542  1.6804
 3404SOL     OW11031   1.520   5.371   0.493  0.3415 -0.4696 -0.3905
 3404SOL    HW111032   1.615   5.386   0.464  0.8676 -2.4364  0.0957
 3404SOL    HW211033   1.458   5.393   0.418  1.2629 -0.3496 -1.1418
 3405SOL     OW11034   3.323   6.439   2.072  0.4807 -0.0873  0.5649
 3405SOL    HW111035   3.375   6.389   2.141 -0.4440  1.6877  2.6616
 3405SOL    HW211036   3.350   6.535   2.072  0.9611 -0.1544 -2.1170
 3406SOL     OW11037   3.919   4.834   1.461 -0.0991  0.1160  0.7494
 3406SOL    HW111038   3.954   4.926   1.441 -1.1596  0.4032  0.0757
 3406SOL    HW211039   3.952   4.804   1.550 -2.1600  2.4447  2.4339
 3407SOL     OW11040   2.646   5.536   0.470  0.0182 -0.2754  0.2621
 3407SOL    HW111041   2.721   5.501   0.526  0.8171  1.2799  0.2306
 3407SOL    HW211042   2.665   5.519   0.373  0.7611  0.7808  0.1904
 3408SOL     OW11043   2.120   0.237   0.896  0.0841 -1.2320 -0.0351
 3408SOL    HW111044   2.081   0.288   0.972  1.8192  0.0489  0.0580
 3408SOL    HW211045   2.104   0.287   0.811  0.9940 -0.9483 -0.0576
 3409SOL     OW11046   3.836   6.297   3.336  0.0093  0.2109  0.4144
 3409SOL    HW111047   3.789   6.344   3.261  1.3588 -0.7236 -1.0682
 3409SOL    HW211048   3.916   6.350   3.364  1.6350 -1.1540 -1.3771
 3410SOL     OW11049   5.146   6.439   0.823 -0.6171 -0.1151  0.8835
 3410SOL    HW111050   5.138   6.346   0.785 -0.6552  0.1809  0.1462
 3410SOL    HW211051   5.067   6.493   0.796 -0.8800 -0.0283  1.7985
 3411SOL     OW11052   2.015   3.931   0.433 -0.5285 -0.0025 -0.2801
 3411SOL    HW111053   1.959   3.935   0.351 -0.0235 -2.2171 -0.7815
 3411SOL    HW211054   2.106   3.896   0.410 -0.4386 -0.8621  1.2244
 3412SOL     OW11055   4.243   5.942   5.814 -0.6627 -0.0265  0.5220
 3412SOL    HW111056   4.235   6.023   5.757  0.2115  0.0844  0.5286
 3412SOL    HW211057   4.272   5.864   5.758 -0.3578 -0.0541  0.7143
 3413SOL     OW11058   3.603   5.762   2.981 -0.4093  0.8293  0.8319
 3413SOL    HW111059   3.610   5.862   2.978 -1.2099  0.8570 -1.6552
 3413SOL    HW211060   3.619   5.725   2.890 -2.8411 -1.1315  1.1184
 3414SOL     OW11061   3.633   4.498   3.002  0.4275 -0.0662  0.1187
 3414SOL    HW111062   3.654   4.591   3.031  1.1523 -0.2151  0.0857
 3414SOL    HW211063   3.615   4.496   2.904 -1.2267  0.3074  0.3757
 3415SOL     OW11064   4.431   0.650   3.453 -0.3634  0.5888  0.1196
 3415SOL    HW111065   4.369   0.611   3.520 -0.2955  0.8645  0.3463
 3415SOL    HW211066   4.515   0.681   3.499  0.1656 -0.2529 -0.2531
 3416SOL     OW11067   1.229   2.693   6.593 -0.3465 -0.5509 -0.6104
 3416SOL    HW111068   1.186   2.731   6.675  0.3022 -0.8418 -0.1244
 3416SOL    HW211069   1.256   2.598   6.610  2.7521  0.3346  0.0243
 3417SOL     OW11070   3.454   5.142   3.084  0.5072 -0.8408 -0.1886
 3417SOL    HW111071   3.480   5.091   3.166  1.9681 -1.5722 -1.0500
 3417SOL    HW211072   3.405   5.225   3.109  2.7914  0.0861  1.5927
 3418SOL     OW11073   1.027   2.331   2.266  0.0334  0.8037 -0.1404
 3418SOL    HW111074   1.015   2.424   2.300 -1.4438  0.0213  1.6967
 3418SOL    HW211075   1.046   2.270   2.343  1.8916 -0.3340 -1.3998
 3419SOL     OW11076   3.298   0.375   0.173 -0.2965  0.1626 -0.4899
 3419SOL    HW111077   3.354   0.294   0.190  0.8516  1.3604  1.7989
 3419SOL    HW211078   3.201   0.351   0.182 -0.1244 -1.4097 -2.1550
 3420SOL     OW11079   2.460   6.122   3.574  0.2156  0.1918  0.0434
 3420SOL    HW111080   2.506   6.092   3.657  1.0015  0.4938 -0.2787
 3420SOL    HW211081   2.521   6.180   3.520 -0.7869  1.2209 -0.0383
 3421SOL     OW11082   6.266   5.479   1.590  0.1009 -0.4441 -0.3546
 3421SOL    HW111083   6.310   5.540   1.656  2.5074 -0.1980 -2.0459
 3421SOL    HW211084   6.200   5.532   1.536 -0.9628 -0.3758  0.9399
 3422SOL     OW11085   4.291   5.684   5.674 -0.2099  0.2951  0.2476
 3422SOL    HW111086   4.216   5.633   5.717  1.1652 -0.3296  2.0643
 3422SOL    HW211087   4.370   5.624   5.662  0.3073  1.1444 -0.8578
 3423SOL     OW11088   5.241   1.324   0.313 -0.7694 -0.1062 -0.3546
 3423SOL    HW111089   5.150   1.290   0.292 -1.1012  0.0059  0.8347
 3423SOL    HW211090   5.310   1.257   0.286 -1.3298 -1.1259  0.6537
 3424SOL     OW11091   2.111   5.008   0.962  0.2077 -0.5613  0.0035
 3424SOL    HW111092   2.031   4.964   0.922 -1.3271  3.2448 -1.5877
 3424SOL    HW211093   2.187   5.004   0.897  0.2769 -1.2822  0.1185
 3425SOL     OW11094   5.739   1.067   0.592 -0.4205 -0.4505 -0.4798
 3425SOL    HW111095   5.806   1.014   0.645 -0.5232 -0.7166 -0.6085
 3425SOL    HW211096   5.726   1.156   0.636 -0.4829 -0.6559 -0.0772
 3426SOL     OW11097   4.304   4.144   3.676  0.5879  0.5718 -0.5672
 3426SOL    HW111098   4.385   4.110   3.628  0.3521 -0.5485 -0.2053
 3426SOL    HW211099   4.223   4.128   3.620  0.5933  1.6041 -0.8886
 3427SOL     OW11100   0.894   4.991   1.397 -0.0823 -0.6853 -0.0737
 3427SOL    HW111101   0.889   4.979   1.298 -1.4634 -0.0505 -0.1084
 3427SOL    HW211102   0.918   5.087   1.417 -1.2445 -0.4420  0.1967
 3428SOL     OW11103   3.005   2.544   5.862 -0.0494  0.3033 -0.0576
 3428SOL    HW111104   2.946   2.604   5.808  0.1588  0.4366 -0.1388
 3428SOL    HW211105   2.950   2.493   5.928 -0.4437 -0.6211 -1.0849
 3429SOL     OW11106   3.612   5.702   0.608 -0.0149 -0.0708  0.0874
 3429SOL    HW111107   3.646   5.796   0.597  0.4283 -0.4202 -1.9354
 3429SOL    HW211108   3.689   5.641   0.626  0.1690 -0.4854 -1.8869
 3430SOL     OW11109   4.798   1.117   0.827  0.1315  0.1761  0.0426
 3430SOL    HW111110   4.801   1.188   0.898 -0.3585  0.0805  0.1637
 3430SOL    HW211111   4.728   1.140   0.759  0.5741  0.2526 -0.3915
 3431SOL     OW11112   2.486   1.069   0.764  0.2713  0.1407 -0.5791
 3431SOL    HW111113   2.462   1.081   0.668 -1.7859  0.8478 -0.0309
 3431SOL    HW211114   2.567   1.012   0.772 -0.0897 -0.7263 -2.6969
 3432SOL     OW11115   5.437   0.042   5.838 -0.0414  0.2754  0.2882
 3432SOL    HW111116   5.438  -0.031   5.770 -3.1015 -0.5727  1.0061
 3432SOL    HW211117   5.483   0.010   5.922 -0.3733 -0.4004  0.2208
 3433SOL     OW11118   1.321   2.576   5.592  0.2548 -0.4791 -0.5266
 3433SOL    HW111119   1.366   2.501   5.544 -1.5072 -1.2474 -1.0450
 3433SOL    HW211120   1.292   2.547   5.683 -0.2239 -0.3662 -0.6374
 3434SOL     OW11121   1.986   5.706   4.770 -1.0919  0.1720  0.5189
 3434SOL    HW111122   2.016   5.799   4.793  1.5415 -0.2396 -0.8441
 3434SOL    HW211123   1.934   5.708   4.684 -0.2498  0.3278 -0.0025
 3435SOL     OW11124   5.008   3.435   3.870 -0.1698  0.4123  1.2742
 3435SOL    HW111125   4.995   3.534   3.857  1.3580  0.4626 -0.0779
 3435SOL    HW211126   4.939   3.385   3.818  0.5055  0.7548  0.0140
 3436SOL     OW11127   5.503   6.939   0.462  0.7028 -0.0044  0.2364
 3436SOL    HW111128   5.551   7.013   0.415 -1.5498  0.4689 -1.4864
 3436SOL    HW211129   5.447   6.976   0.536  2.5963 -0.5110  2.0019
 3437SOL     OW11130   5.989   2.530   5.202 -0.1896 -0.2139  0.0430
 3437SOL    HW111131   5.896   2.563   5.187 -0.1847  0.7759  1.8422
 3437SOL    HW211132   6.023   2.487   5.118 -2.4888 -1.2413 -0.4480
 3438SOL     OW11133   5.893   6.371   4.273 -1.0226  0.0676 -0.9872
 3438SOL    HW111134   5.814   6.346   4.218 -3.0558  3.0677  0.2850
 3438SOL    HW211135   5.948   6.438   4.224 -0.9860  0.2649 -0.6787
 3439SOL     OW11136   4.733   3.745   0.771  0.2703 -0.3842 -0.2242
 3439SOL    HW111137   4.672   3.697   0.832 -1.4126  0.5746 -1.0756
 3439SOL    HW211138   4.704   3.731   0.676  2.8705 -1.9399 -0.9074
 3440SOL     OW11139   0.490   3.730   1.716  0.0206 -0.0233 -0.9251
 3440SOL    HW111140   0.434   3.662   1.669  0.6698 -1.6718  0.5578
 3440SOL    HW211141   0.585   3.699   1.719 -0.4020 -1.7295  4.0941
 3441SOL     OW11142   2.131   6.405   2.180 -0.2101  0.3394 -0.2299
 3441SOL    HW111143   2.084   6.326   2.220  3.0050 -1.4518  0.3642
 3441SOL    HW211144   2.161   6.467   2.252  1.9738 -0.7748 -0.0860
 3442SOL     OW11145   0.187   3.097   5.727 -0.5680 -0.2217 -0.6243
 3442SOL    HW111146   0.189   3.122   5.824 -2.6021 -2.6527  0.1796
 3442SOL    HW211147   0.137   3.167   5.675 -0.5158  0.5324  0.3206
 3443SOL     OW11148   1.579   3.738   3.517 -0.5455  0.7421 -0.1087
 3443SOL    HW111149   1.585   3.638   3.509  1.7214  0.8391 -0.1045
 3443SOL    HW211150   1.519   3.773   3.445 -3.0067 -0.7499  1.1075
 3444SOL     OW11151   2.415   2.171   4.811 -0.0869 -0.1532  0.4038
 3444SOL    HW111152   2.502   2.142   4.772 -0.4835  0.7146 -1.2842
 3444SOL    HW211153   2.344   2.106   4.787 -0.3227  0.3526 -0.3082
 3445SOL     OW11154   1.432   4.553   5.128  0.1371 -0.3780 -0.5379
 3445SOL    HW111155   1.360   4.555   5.059 -0.6705  0.4504  0.3032
 3445SOL    HW211156   1.430   4.464   5.175  0.0134 -0.5508 -0.8641
 3446SOL     OW11157   2.380   0.682   4.081  0.4758 -0.9519  0.3145
 3446SOL    HW111158   2.341   0.774   4.085  0.8485 -0.5127 -3.1837
 3446SOL    HW211159   2.453   0.673   4.148  0.8333  1.5306  0.3235
 3447SOL     OW11160   2.435   0.917   6.380  0.1681 -0.0469 -0.4755
 3447SOL    HW111161   2.377   0.957   6.309  0.8841  2.4484  0.2205
 3447SOL    HW211162   2.436   0.978   6.459  2.1638 -1.0111  0.3045
 3448SOL     OW11163   6.532   5.488   6.869 -0.5331 -0.7348 -0.0499
 3448SOL    HW111164   6.533   5.474   6.770 -3.0594 -1.4403 -0.0200
 3448SOL    HW211165   6.505   5.583   6.889 -1.2193 -0.9339 -0.0238
 3449SOL     OW11166   1.782   1.905   2.341 -0.4516 -0.0833 -0.3351
 3449SOL    HW111167   1.725   1.839   2.291  0.4623 -1.7876  0.7819
 3449SOL    HW211168   1.724   1.971   2.388 -1.4990 -1.2752  0.1014
 3450SOL     OW11169   3.655   2.884   0.320 -0.5555  0.3836  0.6022
 3450SOL    HW111170   3.587   2.861   0.250 -0.9855  2.3639  0.3238
 3450SOL    HW211171   3.693   2.799   0.358 -0.9195 -0.7575 -1.4091
 3451SOL     OW11172   0.289   0.717   0.550  0.0239 -0.1867 -0.0875
 3451SOL    HW111173   0.240   0.705   0.464  0.2668  1.8198 -0.5437
 3451SOL    HW211174   0.235   0.774   0.612  0.8290  0.2507  0.2242
 3452SOL     OW11175   4.602   6.707   3.247 -0.1730  0.3928 -0.0072
 3452SOL    HW111176   4.536   6.635   3.265  0.2141 -0.2569 -1.0573
 3452SOL    HW211177   4.554   6.790   3.218 -0.5804  0.3443  0.5100
 3453SOL     OW11178   0.288   5.431   5.754  0.3583 -0.9160 -0.3786
 3453SOL    HW111179   0.325   5.520   5.783 -0.1244 -0.9538  0.3679
 3453SOL    HW211180   0.188   5.436   5.752  0.3120 -1.5785  0.1116
 3454SOL     OW11181   5.700   5.056   4.234  0.2767  0.5700 -0.0681
 3454SOL    HW111182   5.756   5.107   4.169 -1.6199  0.9365 -1.5099
 3454SOL    HW211183   5.610   5.038   4.193 -0.1782 -1.2424  1.5863
 3455SOL     OW11184   6.187   2.051   4.655  0.2550 -0.2842  0.2121
 3455SOL    HW111185   6.273   2.028   4.610  0.4082 -0.7606  0.7236
 3455SOL    HW211186   6.202   2.059   4.754 -0.6415 -2.3747  0.5749
 3456SOL     OW11187   1.281   3.287   6.951 -0.1311 -0.3527  0.7468
 3456SOL    HW111188   1.307   3.276   6.855  1.0867 -0.1872  1.0455
 3456SOL    HW211189   1.353   3.336   7.000  0.1235 -2.0574  2.1580
 3457SOL     OW11190   6.922   2.030   4.578 -0.1646  0.3499 -0.2751
 3457SOL    HW111191   6.929   2.017   4.677  0.9423 -1.6953 -0.5535
 3457SOL    HW211192   6.856   1.965   4.540 -1.3213  1.7852 -0.7936
 3458SOL     OW11193   6.966   6.661   3.234 -0.1959  0.1954 -0.4888
 3458SOL    HW111194   6.939   6.580   3.182  1.3069  0.7730 -2.2509
 3458SOL    HW211195   6.885   6.701   3.279 -1.7327  0.1085 -3.0299
 3459SOL     OW11196   5.495   5.414   4.063 -0.3920  0.2549 -0.2804
 3459SOL    HW111197   5.526   5.498   4.109  0.1408 -0.4424  0.6653
 3459SOL    HW211198   5.570   5.376   4.009  0.1869 -0.9445  1.2894
 3460SOL     OW11199   4.345   4.245   5.081 -0.6235 -0.2207 -0.5422
 3460SOL    HW111200   4.413   4.264   5.010 -1.9354 -3.1349 -2.8219
 3460SOL    HW211201   4.376   4.168   5.137 -0.9955  0.0210  0.0132
 3461SOL     OW11202   2.620   1.907   6.377  0.0372  0.1599 -0.0232
 3461SOL    HW111203   2.567   1.952   6.305 -2.1144 -2.0454  0.0561
 3461SOL    HW211204   2.619   1.964   6.459  0.2198  1.4380 -0.8707
 3462SOL     OW11205   0.283   0.028   4.464  0.2989  0.6416 -0.0068
 3462SOL    HW111206   0.229   0.110   4.482 -0.2194 -0.0214  1.5971
 3462SOL    HW211207   0.371   0.036   4.512 -1.0364 -1.1006  2.9641
 3463SOL     OW11208   1.179   5.711   0.623 -0.1335 -0.2228 -0.3613
 3463SOL    HW111209   1.119   5.768   0.566  0.1749 -0.5885 -1.0549
 3463SOL    HW211210   1.271   5.710   0.585  0.0564 -0.5257  0.1042
 3464SOL     OW11211   4.294   2.756   3.465 -0.1599 -0.1972  0.6177
 3464SOL    HW111212   4.260   2.832   3.409  0.7689 -1.1895 -1.3884
 3464SOL    HW211213   4.265   2.669   3.424  1.0963 -0.9719  1.3325
 3465SOL     OW11214   6.632   3.426   3.531  0.4746  0.2949 -0.3854
 3465SOL    HW111215   6.609   3.511   3.483  0.8778  0.5448 -0.1439
 3465SOL    HW211216   6.603   3.348   3.476  0.6922  0.5818 -0.9126
 3466SOL     OW11217   6.861   2.896   5.181 -0.2849 -0.4156  0.8898
 3466SOL    HW111218   6.847   2.818   5.119  0.8857  0.0127  0.0531
 3466SOL    HW211219   6.838   2.980   5.133  0.6301 -0.0787  1.0141
 3467SOL     OW11220   0.679   0.273   0.230 -0.5004 -0.5605  0.2076
 3467SOL    HW111221   0.713   0.337   0.161 -0.3808 -1.3893 -0.5220
 3467SOL    HW211222   0.751   0.207   0.253 -1.3773 -1.9926 -0.9417
 3468SOL     OW11223   5.417   2.704   5.455  0.0342  0.0563 -0.2914
 3468SOL    HW111224   5.333   2.677   5.408  0.5385 -0.1930 -1.0709
 3468SOL    HW211225   5.410   2.682   5.553 -0.6335 -0.3623 -0.4308
 3469SOL     OW11226   2.241   4.092   4.739 -0.4044 -0.3058  0.3374
 3469SOL    HW111227   2.201   4.079   4.648  2.2108  0.4845 -1.0487
 3469SOL    HW211228   2.259   4.003   4.781  0.3722 -0.7648 -0.9137
 3470SOL     OW11229   6.793   4.008   3.670  0.2547  0.1862 -0.3714
 3470SOL    HW111230   6.885   3.975   3.694  1.4559  1.6219 -2.6237
 3470SOL    HW211231   6.790   4.107   3.679 -0.2737  0.4139 -2.6848
 3471SOL     OW11232   2.345   6.056   4.896 -0.0522 -1.0849 -0.3141
 3471SOL    HW111233   2.416   6.084   4.831 -1.0433  1.5456 -0.3962
 3471SOL    HW211234   2.383   5.994   4.963  1.8884 -1.0862 -1.3424
 3472SOL     OW11235   3.376   2.733   5.803 -0.2000 -0.4679 -0.2017
 3472SOL    HW111236   3.454   2.796   5.796 -0.2891 -0.4530 -1.3175
 3472SOL    HW211237   3.410   2.640   5.819 -0.0515 -0.2080  1.1185
 3473SOL     OW11238   3.906   1.188   3.879 -0.2525 -0.0477  0.6034
 3473SOL    HW111239   3.920   1.207   3.976 -0.1901  1.7029  0.2826
 3473SOL    HW211240   3.990   1.208   3.829  0.7169 -3.7613  0.4917
 3474SOL     OW11241   2.824   1.978   5.178  0.1042  0.2882 -0.6635
 3474SOL    HW111242   2.796   1.953   5.086  0.1081 -0.9236 -0.3519
 3474SOL    HW211243   2.773   2.059   5.208  0.0223  0.6242 -1.6709
 3475SOL     OW11244   2.071   1.963   2.219  0.2205  0.4478  0.1253
 3475SOL    HW111245   1.985   1.989   2.175 -1.0625  0.3265  2.3881
 3475SOL    HW211246   2.130   1.916   2.153 -1.5927  0.1948 -1.3961
 3476SOL     OW11247   2.801   1.633   5.467  0.2567  0.0079 -0.1533
 3476SOL    HW111248   2.730   1.635   5.396 -0.1677 -0.2452  0.2507
 3476SOL    HW211249   2.891   1.641   5.424  0.0945 -1.5082 -0.8657
 3477SOL     OW11250   4.966   3.894   6.446 -0.5888  0.1158  0.3875
 3477SOL    HW111251   4.873   3.888   6.483 -0.0144 -0.4052  1.8243
 3477SOL    HW211252   5.027   3.931   6.516  0.1983  1.0158 -0.7350
 3478SOL     OW11253   5.118   2.235   2.593  0.7423 -0.2346 -0.3356
 3478SOL    HW111254   5.215   2.261   2.592  0.6661  0.0827  0.1819
 3478SOL    HW211255   5.086   2.224   2.499  1.6586 -1.7288 -0.5234
 3479SOL     OW11256   2.429   0.044   5.165 -0.1538 -0.3422  0.0520
 3479SOL    HW111257   2.407   0.076   5.257  0.2470  1.3395 -0.4054
 3479SOL    HW211258   2.528   0.049   5.151 -0.3923  2.1996 -1.3904
 3480SOL     OW11259   1.357   0.410   4.897  0.0978 -0.2548  0.2683
 3480SOL    HW111260   1.294   0.340   4.930 -0.0735  0.2485  1.0144
 3480SOL    HW211261   1.342   0.424   4.799  0.0496 -1.1652  0.1391
 3481SOL     OW11262   2.145   2.431   6.410 -0.3282  0.3333  0.4712
 3481SOL    HW111263   2.199   2.349   6.392  1.2042  1.6043 -1.0983
 3481SOL    HW211264   2.048   2.411   6.396  0.1369 -0.8286 -1.6235
 3482SOL     OW11265   0.591   6.465   0.111 -0.0044 -0.4311  0.1374
 3482SOL    HW111266   0.545   6.405   0.176  0.4034 -1.4930 -0.5251
 3482SOL    HW211267   0.526   6.496   0.042 -0.3124  0.2561  0.7195
 3483SOL     OW11268   0.942   0.024   2.786 -0.3656 -0.0695  0.1952
 3483SOL    HW111269   0.962  -0.021   2.699  1.2038  1.6972 -0.4061
 3483SOL    HW211270   1.006  -0.008   2.856  0.5805  1.0306 -0.1649
 3484SOL     OW11271   5.212   3.943   1.340  0.3082 -0.4013  0.6118
 3484SOL    HW111272   5.273   3.984   1.272  1.3367 -0.7628  1.3097
 3484SOL    HW211273   5.124   3.923   1.296  0.4146  0.8015 -0.2194
 3485SOL     OW11274   4.305   3.067   1.746 -0.3114 -0.3786 -0.2346
 3485SOL    HW111275   4.222   3.033   1.701 -1.5578  0.5606  1.2721
 3485SOL    HW211276   4.307   3.166   1.741 -0.6299 -0.2294  1.9663
 3486SOL     OW11277   1.765   2.715   4.750  0.2636 -0.3988  0.1040
 3486SOL    HW111278   1.806   2.782   4.812  1.1608 -1.5849  0.8421
 3486SOL    HW211279   1.834   2.684   4.685  0.1775 -1.3626  0.4489
 3487SOL     OW11280   5.278   4.291   3.559  0.6996  0.2319  1.0811
 3487SOL    HW111281   5.301   4.262   3.652  0.2733  0.1590  1.1678
 3487SOL    HW211282   5.179   4.285   3.545  0.7148  0.6331  0.7524
 3488SOL     OW11283   1.562   5.915   2.042 -0.4284 -0.0482  0.0574
 3488SOL    HW111284   1.626   5.872   2.105  0.0437  0.9324  0.2935
 3488SOL    HW211285   1.493   5.966   2.095  1.1649  2.5000 -0.1409
 3489SOL     OW11286   2.827   1.974   6.833 -0.1965  0.6242  0.1574
 3489SOL    HW111287   2.767   1.961   6.912 -1.3271 -0.1804 -0.7858
 3489SOL    HW211288   2.845   1.885   6.791  0.7895  0.9888 -0.2156
 3490SOL     OW11289   4.041   4.711   1.678 -0.6760 -0.5965 -0.6733
 3490SOL    HW111290   4.076   4.621   1.701  0.3152 -0.4423 -1.5149
 3490SOL    HW211291   4.098   4.781   1.720 -2.0047 -0.3417  0.7836
 3491SOL     OW11292   0.683   6.546   4.295  0.2771  0.0051 -0.4444
 3491SOL    HW111293   0.763   6.604   4.282 -0.3619  1.1510  0.5085
 3491SOL    HW211294   0.650   6.556   4.389 -2.8155  1.9815 -1.6177
 3492SOL     OW11295   1.398   2.190   5.247 -0.8373  0.2778  0.2827
 3492SOL    HW111296   1.348   2.201   5.162 -0.7888  1.2967  0.3675
 3492SOL    HW211297   1.334   2.193   5.324 -0.5540  4.0094  0.5636
 3493SOL     OW11298   6.603   0.897   0.179  0.0178  0.1802  0.2012
 3493SOL    HW111299   6.573   0.978   0.231  0.3982 -0.0188  0.7454
 3493SOL    HW211300   6.636   0.926   0.089 -1.6519  0.4303 -0.3734
 3494SOL     OW11301   6.670   5.653   3.247 -0.5022  0.3222  0.2449
 3494SOL    HW111302   6.669   5.724   3.177  0.4958  0.3145  0.1986
 3494SOL    HW211303   6.633   5.568   3.209 -1.7063  0.8093  0.2997
 3495SOL     OW11304   3.826   0.171   0.800 -0.1567 -0.7545 -0.2991
 3495SOL    HW111305   3.757   0.120   0.748  2.0757 -4.4345 -0.0396
 3495SOL    HW211306   3.916   0.133   0.781  1.4916  1.7482  1.7829
 3496SOL     OW11307   5.501   0.760   6.845 -0.4776 -0.1512  0.4830
 3496SOL    HW111308   5.506   0.818   6.926 -0.8287  0.8692 -0.1993
 3496SOL    HW211309   5.549   0.804   6.769  0.2879 -1.3201  0.2539
 3497SOL     OW11310   5.952   3.053   5.216  0.0902 -0.0506 -0.3255
 3497SOL    HW111311   5.941   3.150   5.234  0.1651 -0.3946  1.7620
 3497SOL    HW211312   5.935   3.001   5.299  0.8343 -1.7831 -1.2029
 3498SOL     OW11313   6.222   1.849   2.254 -0.2150 -0.7991  0.1669
 3498SOL    HW111314   6.278   1.822   2.177 -0.2135 -0.5738  0.0858
 3498SOL    HW211315   6.278   1.854   2.337 -0.0319 -0.2076  0.0148
 3499SOL     OW11316   5.327   3.121   2.983 -0.5081  0.1652 -0.2521
 3499SOL    HW111317   5.379   3.088   2.905  0.7808  0.5495  0.4064
 3499SOL    HW211318   5.388   3.171   3.045 -1.2696 -1.0282  1.5381
 3500SOL     OW11319   6.677   5.364   1.632 -0.0437 -0.4910  0.2337
 3500SOL    HW111320   6.596   5.309   1.650 -1.2050  1.1745  0.3830
 3500SOL    HW211321   6.663   5.456   1.669  1.9386 -0.1623  0.2712
 3501SOL     OW11322   3.527   0.241   4.782  0.4582 -0.2557  0.4378
 3501SOL    HW111323   3.538   0.228   4.683  2.8417 -0.1570  0.6537
 3501SOL    HW211324   3.442   0.197   4.811  0.2267 -1.2115 -1.4925
 3502SOL     OW11325   5.685   5.950   2.222  0.3692 -0.2496 -0.2453
 3502SOL    HW111326   5.592   5.942   2.187 -0.7229  2.6188  1.6240
 3502SOL    HW211327   5.683   5.949   2.322  2.2180  0.7777 -0.1514
 3503SOL     OW11328   5.121   2.252   6.907 -0.0303  0.5569  0.2079
 3503SOL    HW111329   5.202   2.286   6.859  0.6022  0.2068  0.9907
 3503SOL    HW211330   5.092   2.165   6.865 -0.8589  1.3584 -0.9533
 3504SOL     OW11331   4.835   0.311   4.401 -0.7175  0.4600 -0.3493
 3504SOL    HW111332   4.735   0.316   4.404 -0.7153  0.1927  0.8793
 3504SOL    HW211333   4.868   0.262   4.482  0.3843  0.0306 -1.0380
 3505SOL     OW11334   4.363   5.350   2.289  0.3466 -0.9991 -0.1674
 3505SOL    HW111335   4.416   5.310   2.364  1.2019 -0.0450 -0.2338
 3505SOL    HW211336   4.266   5.332   2.303  0.6195 -2.1285  0.3718
 3506SOL     OW11337   0.147   2.555   3.002 -0.1183  0.2869  0.2055
 3506SOL    HW111338   0.112   2.619   2.934 -0.1798 -0.2906 -0.3158
 3506SOL    HW211339   0.071   2.507   3.045 -0.0266 -0.0888 -0.0520
 3507SOL     OW11340   1.296   5.868   3.368 -0.4982 -0.3099  0.2005
 3507SOL    HW111341   1.365   5.928   3.327  0.4336  1.0001  3.3896
 3507SOL    HW211342   1.205   5.896   3.337  0.1182  0.7405 -0.7431
 3508SOL     OW11343   4.983   6.090   3.709 -0.5107  0.6552  0.4320
 3508SOL    HW111344   5.018   6.027   3.640 -2.7210  0.5556 -0.7132
 3508SOL    HW211345   5.019   6.182   3.691 -2.0196  0.9093 -1.7497
 3509SOL     OW11346   3.485   1.727   0.362 -0.2584 -0.1618  0.1049
 3509SOL    HW111347   3.575   1.684   0.353  0.5538  1.1699  1.4440
 3509SOL    HW211348   3.413   1.659   0.348  0.9504 -1.2394 -1.0466
 3510SOL     OW11349   4.353   6.581   6.058  0.1586  0.7591  0.2714
 3510SOL    HW111350   4.405   6.662   6.087  2.0365 -0.3823  0.2329
 3510SOL    HW211351   4.348   6.578   5.958  2.2899 -0.4266  0.1499
 3511SOL     OW11352   3.907   0.283   0.286  0.5425 -0.0766 -0.0792
 3511SOL    HW111353   3.914   0.376   0.250 -0.8422 -0.1979 -0.7392
 3511SOL    HW211354   3.815   0.268   0.320  0.7579 -1.2140  0.0217
 3512SOL     OW11355   1.573   5.296   4.899 -0.6642  0.7853 -0.1790
 3512SOL    HW111356   1.664   5.259   4.913 -0.9185  0.5758  1.0277
 3512SOL    HW211357   1.579   5.381   4.846  0.1545  0.4392 -0.6567
 3513SOL     OW11358   5.131   7.002   3.195 -0.1347 -0.6035  0.0097
 3513SOL    HW111359   5.094   7.017   3.287 -0.6860 -0.4922 -0.2272
 3513SOL    HW211360   5.065   6.951   3.141 -0.1620  0.0051 -0.5515
 3514SOL     OW11361   4.236   4.893   0.579  0.0767  0.2486  0.2020
 3514SOL    HW111362   4.173   4.928   0.648  2.4847 -0.6431  3.0331
 3514SOL    HW211363   4.287   4.970   0.540  1.0050  0.5184  1.8669
 3515SOL     OW11364   0.821   5.541   3.679 -0.1411  0.3118  0.5406
 3515SOL    HW111365   0.842   5.613   3.612  0.9891 -0.8855 -0.4303
 3515SOL    HW211366   0.894   5.537   3.747  0.8798 -1.2676 -0.6007
 3516SOL     OW11367   2.463   2.474   3.392 -0.8688  0.2154 -0.2190
 3516SOL    HW111368   2.448   2.558   3.341  3.1259  0.9702 -0.4696
 3516SOL    HW211369   2.455   2.492   3.490 -0.1972  0.8681 -0.2804
 3517SOL     OW11370   3.666   3.561   2.304 -0.9633 -0.5110 -0.1035
 3517SOL    HW111371   3.741   3.496   2.311 -0.2913  0.3692  1.5204
 3517SOL    HW211372   3.616   3.564   2.391 -1.8291  0.1641 -0.5944
 3518SOL     OW11373   0.443   2.469   1.982 -0.8034 -0.3172 -0.2506
 3518SOL    HW111374   0.513   2.524   2.028  0.2228 -1.7574 -0.0251
 3518SOL    HW211375   0.397   2.411   2.049 -0.7476 -0.9147 -0.7198
 3519SOL     OW11376   1.013   4.640   4.818 -0.3420  0.6647  0.5248
 3519SOL    HW111377   0.956   4.650   4.900 -1.0413  1.7069 -0.0727
 3519SOL    HW211378   0.991   4.554   4.772  0.5457 -0.2701  1.7793
 3520SOL     OW11379   5.652   3.296   1.719  0.2095  0.1966  0.8154
 3520SOL    HW111380   5.595   3.348   1.782 -0.7832  0.0665  0.0442
 3520SOL    HW211381   5.594   3.242   1.658  1.0752  1.4951 -1.2479
 3521SOL     OW11382   2.046   4.238   6.303 -0.2465  0.2224 -0.2763
 3521SOL    HW111383   2.105   4.315   6.328  0.9009 -1.3086  2.1424
 3521SOL    HW211384   1.986   4.216   6.380 -1.3512 -0.6355 -1.3324
 3522SOL     OW11385   6.676   0.306   0.074  0.0874  0.0663  0.0401
 3522SOL    HW111386   6.688   0.209   0.053 -0.1031 -0.2609  1.3561
 3522SOL    HW211387   6.580   0.331   0.062  0.0844  0.0230 -0.0309
 3523SOL     OW11388   4.510   0.373   5.616 -0.2704  0.4900 -0.5133
 3523SOL    HW111389   4.441   0.336   5.553  0.0785  0.4863 -0.8946
 3523SOL    HW211390   4.482   0.354   5.710 -0.7118  0.3482 -0.6713
 3524SOL     OW11391   2.366   0.234   1.011  0.1655 -0.0357  0.1648
 3524SOL    HW111392   2.371   0.321   1.060  0.2399  0.0622 -0.0151
 3524SOL    HW211393   2.283   0.231   0.955 -0.5361 -0.6085  1.1883
 3525SOL     OW11394   6.701   6.223   6.814 -0.8110  0.1872  0.1413
 3525SOL    HW111395   6.713   6.305   6.870 -1.5341  0.8596 -0.6498
 3525SOL    HW211396   6.664   6.149   6.870 -1.0163  0.6876  0.6767
 3526SOL     OW11397   0.229   4.605   6.877  0.4858 -0.4276  0.2351
 3526SOL    HW111398   0.286   4.682   6.906  2.1452 -1.5742  0.0725
 3526SOL    HW211399   0.255   4.523   6.927 -0.0906 -1.2777 -0.8337
 3527SOL     OW11400   6.777   6.004   3.721  0.3802 -0.0957  0.0356
 3527SOL    HW111401   6.721   6.007   3.637 -1.3120 -0.2443  1.0954
 3527SOL    HW211402   6.816   5.913   3.732  0.4584 -0.1304 -0.4812
 3528SOL     OW11403   2.184   1.416   4.172 -0.4063 -0.6126  0.0255
 3528SOL    HW111404   2.110   1.446   4.233  0.8103  2.3887  0.2272
 3528SOL    HW211405   2.170   1.454   4.081  0.4039 -0.8097 -0.1928
 3529SOL     OW11406   2.462   6.338   6.401  0.1653  0.3793 -0.1703
 3529SOL    HW111407   2.384   6.376   6.353  0.0511 -0.9039 -1.0507
 3529SOL    HW211408   2.519   6.287   6.337  1.1687  0.4161  0.6660
 3530SOL     OW11409   0.208   1.490   2.100 -0.3001 -0.7508 -0.2665
 3530SOL    HW111410   0.306   1.504   2.115 -0.3528  0.8735 -1.0864
 3530SOL    HW211411   0.182   1.398   2.130  1.7244 -1.6798 -1.1072
 3531SOL     OW11412   6.162   2.016   0.537  0.5420 -0.1534  0.0200
 3531SOL    HW111413   6.149   1.991   0.441  2.2589 -1.3910  0.0726
 3531SOL    HW211414   6.118   1.948   0.595 -0.3849  0.5266  0.1509
 3532SOL     OW11415   1.086   6.976   5.137  0.1566  0.0487 -0.2570
 3532SOL    HW111416   1.148   6.898   5.140 -1.0261 -0.9306  2.4508
 3532SOL    HW211417   1.136   7.060   5.156  0.7496 -0.7012  1.5032
 3533SOL     OW11418   2.799   1.619   5.136 -0.0221 -0.0284 -0.3912
 3533SOL    HW111419   2.712   1.648   5.175  0.4875  0.1755  0.6257
 3533SOL    HW211420   2.792   1.616   5.037 -0.7806  1.2961 -0.3877
 3534SOL     OW11421   3.239   4.657   5.557 -0.5146  0.3407 -0.2336
 3534SOL    HW111422   3.145   4.693   5.561 -0.4337  0.4564  1.1730
 3534SOL    HW211423   3.282   4.667   5.647  1.4159  1.7675 -1.2451
 3535SOL     OW11424   4.323   6.860   4.940  0.1720  0.1848 -0.2464
 3535SOL    HW111425   4.278   6.947   4.923  0.0160  0.1797  0.1325
 3535SOL    HW211426   4.422   6.875   4.952  0.0072  0.4501  0.8733
 3536SOL     OW11427   6.255   3.373   4.281  0.0385 -0.0351  0.7615
 3536SOL    HW111428   6.299   3.284   4.294  0.1515  0.0076  0.6781
 3536SOL    HW211429   6.309   3.443   4.328  0.6723  0.1793 -0.2548
 3537SOL     OW11430   5.098   1.918   3.443 -0.3076 -0.5944  0.3799
 3537SOL    HW111431   5.149   1.940   3.360  1.5351 -1.5569  1.1917
 3537SOL    HW211432   5.007   1.961   3.440  0.0310  0.0540 -1.7316
 3538SOL     OW11433   5.578   3.731   0.191 -0.2792 -0.2349 -0.1514
 3538SOL    HW111434   5.488   3.707   0.228 -0.1113 -0.4288  0.1284
 3538SOL    HW211435   5.629   3.784   0.258  0.9051 -2.4902  0.8234
 3539SOL     OW11436   5.390   1.337   2.877 -0.4324 -0.4494  0.2148
 3539SOL    HW111437   5.461   1.287   2.926 -0.1185 -1.2976 -1.0500
 3539SOL    HW211438   5.402   1.435   2.892 -0.5221 -0.6779  2.0184
 3540SOL     OW11439   0.324   3.047   6.785 -0.2502  0.0315 -0.1462
 3540SOL    HW111440   0.245   3.106   6.771 -0.3882 -0.1949 -0.3322
 3540SOL    HW211441   0.408   3.102   6.783 -0.2900  0.0853 -1.4427
 3541SOL     OW11442   4.712   6.524   0.895 -0.3774 -0.3440 -0.0645
 3541SOL    HW111443   4.762   6.438   0.901  0.5841  0.2093  0.0713
 3541SOL    HW211444   4.710   6.568   0.984  1.7836  1.2164 -0.7255
 3542SOL     OW11445   3.485   1.776   5.439  0.0335 -0.2598  0.1297
 3542SOL    HW111446   3.516   1.783   5.344 -1.9558  0.7352 -0.5034
 3542SOL    HW211447   3.388   1.799   5.444  0.2482  0.3621  2.5303
 3543SOL     OW11448   2.141   3.500   5.210  0.1198 -0.1032 -0.3477
 3543SOL    HW111449   2.154   3.543   5.120  1.7346  0.4229  0.1016
 3543SOL    HW211450   2.175   3.561   5.281 -2.8491  0.3030  0.8364
 3544SOL     OW11451   4.691   2.995   0.679 -0.5065 -0.1918 -0.3506
 3544SOL    HW111452   4.699   3.000   0.579 -1.0346  0.0179 -0.3853
 3544SOL    HW211453   4.602   3.031   0.707 -0.8482 -1.3198  0.0975
 3545SOL     OW11454   3.784   0.475   1.655  0.0769 -0.1104  0.2642
 3545SOL    HW111455   3.875   0.502   1.624 -1.0165  2.2733 -1.1265
 3545SOL    HW211456   3.774   0.495   1.752  0.9615 -0.2129  0.3887
 3546SOL     OW11457   3.115   2.537   0.088 -0.4947  0.2636 -0.0175
 3546SOL    HW111458   3.132   2.465   0.022 -1.8938  0.3781 -0.5491
 3546SOL    HW211459   3.160   2.621   0.058  0.6982 -0.2353  0.3325
 3547SOL     OW11460   6.118   2.526   2.616 -0.5167  0.4531  0.1999
 3547SOL    HW111461   6.167   2.613   2.611  0.2907 -0.0343 -0.7547
 3547SOL    HW211462   6.055   2.518   2.540 -0.1065 -0.0709 -0.0915
 3548SOL     OW11463   6.985   1.903   1.274 -0.1591 -0.2356  0.3932
 3548SOL    HW111464   6.941   1.935   1.190  0.5918  0.1558  0.1361
 3548SOL    HW211465   7.060   1.965   1.298 -0.9144  0.1464  1.8421
 3549SOL     OW11466   6.648   5.159   7.000  0.2675 -0.2851 -0.5988
 3549SOL    HW111467   6.673   5.213   7.080 -0.4325  2.5735 -2.1717
 3549SOL    HW211468   6.553   5.130   7.007  0.3504 -0.4798 -0.1953
 3550SOL     OW11469   5.185   0.135   5.324 -0.3580  0.5934 -0.4035
 3550SOL    HW111470   5.207   0.058   5.265 -0.8730  0.6342 -0.6473
 3550SOL    HW211471   5.270   0.182   5.350  0.0495 -0.5896  0.4814
 3551SOL     OW11472   6.577   6.494   6.284  0.6935 -0.0328  0.1676
 3551SOL    HW111473   6.645   6.422   6.270 -2.3274 -2.9403 -0.8559
 3551SOL    HW211474   6.513   6.466   6.356 -0.6867  1.5405 -0.3782
 3552SOL     OW11475   6.287   6.271   2.015 -0.0042  0.5422 -0.2176
 3552SOL    HW111476   6.348   6.192   2.010  2.2243  2.2104 -1.7239
 3552SOL    HW211477   6.201   6.249   1.969  0.0471 -1.3803  0.5196
 3553SOL     OW11478   5.273   6.256   2.845  0.0707 -0.0835  0.0200
 3553SOL    HW111479   5.254   6.342   2.798  0.4861  1.2212  2.1382
 3553SOL    HW211480   5.209   6.186   2.813 -0.6200  1.1171 -1.3698
 3554SOL     OW11481   5.428   0.877   3.136 -0.0912 -0.0758  0.9027
 3554SOL    HW111482   5.371   0.853   3.215  0.6496 -1.6063  0.9971
 3554SOL    HW211483   5.396   0.826   3.056  0.3659  0.0105  0.6636
 3555SOL     OW11484   0.764   3.369   5.624  0.1289 -0.7239  0.3737
 3555SOL    HW111485   0.666   3.354   5.640  0.4382 -1.9711  1.2227
 3555SOL    HW211486   0.784   3.358   5.527 -0.6427  0.0180  0.1190
 3556SOL     OW11487   5.174   3.264   6.378  0.2638  0.1191 -0.6500
 3556SOL    HW111488   5.100   3.307   6.430  0.8546 -1.9815  2.1151
 3556SOL    HW211489   5.142   3.177   6.340  0.2254  1.0311 -2.8537
 3557SOL     OW11490   0.578   6.662   6.500 -0.5238  0.1783  0.4904
 3557SOL    HW111491   0.671   6.666   6.462 -0.8151  0.7801 -0.1781
 3557SOL    HW211492   0.525   6.741   6.467 -1.0776  0.1870  1.3825
 3558SOL     OW11493   4.300   0.810   6.410  0.0757  0.2107  0.0150
 3558SOL    HW111494   4.368   0.778   6.344  0.6670  0.9667  0.2321
 3558SOL    HW211495   4.342   0.812   6.501 -0.2549  0.6366  0.1630
 3559SOL     OW11496   5.548   3.440   1.433  0.4397  0.2883 -0.1991
 3559SOL    HW111497   5.506   3.350   1.433  0.9226  0.0268  1.8450
 3559SOL    HW211498   5.499   3.500   1.370 -0.3030 -1.1780 -1.0803
 3560SOL     OW11499   6.113   5.073   6.087 -0.5417 -0.3353 -0.2046
 3560SOL    HW111500   6.185   5.047   6.022 -1.0249 -1.2605 -0.3887
 3560SOL    HW211501   6.136   5.161   6.128  0.1960 -0.1336 -1.0046
 3561SOL     OW11502   6.726   4.652   1.559  0.2151  0.0995  0.0693
 3561SOL    HW111503   6.808   4.671   1.613 -0.6917 -0.2552  1.6218
 3561SOL    HW211504   6.652   4.624   1.620 -0.4962 -1.5674 -1.4706
 3562SOL     OW11505   3.341   3.527   4.064  0.0285  0.3736 -0.0085
 3562SOL    HW111506   3.305   3.587   4.135  0.2549  1.1481 -0.5331
 3562SOL    HW211507   3.272   3.515   3.992  0.3154  0.7773 -0.3610
 3563SOL     OW11508   2.312   2.752   3.645  0.4419  0.6000  0.2690
 3563SOL    HW111509   2.255   2.770   3.565 -0.1672 -2.1201 -0.0335
 3563SOL    HW211510   2.353   2.661   3.635  2.5278  1.3088  1.8468
 3564SOL     OW11511   2.632   4.540   4.042  0.5299  0.0365  0.0926
 3564SOL    HW111512   2.627   4.585   3.953  0.6652  2.5735  1.3110
 3564SOL    HW211513   2.697   4.463   4.036  1.0236  0.5469 -1.8241
 3565SOL     OW11514   3.729   1.386   2.151 -0.0083 -0.6712  0.2907
 3565SOL    HW111515   3.782   1.444   2.213  0.6102 -1.2159  0.2831
 3565SOL    HW211516   3.657   1.441   2.107 -1.0849 -0.4758  2.1837
 3566SOL     OW11517   1.852   3.818   6.137 -0.1802  0.1342  0.2117
 3566SOL    HW111518   1.776   3.821   6.202  0.7311 -1.9048  1.4845
 3566SOL    HW211519   1.938   3.827   6.187  0.5318 -1.0220 -0.7478
 3567SOL     OW11520   3.794   6.501   5.010 -0.5054  0.0580  0.3221
 3567SOL    HW111521   3.703   6.513   4.971 -0.4561 -1.1802 -0.2057
 3567SOL    HW211522   3.808   6.405   5.035  1.0600  0.0078 -0.6169
 3568SOL     OW11523   1.059   6.765   0.977 -0.0167 -0.3134  0.8525
 3568SOL    HW111524   0.983   6.791   1.037  0.0958  3.9215 -0.5103
 3568SOL    HW211525   1.022   6.727   0.892 -1.1048  4.0610 -0.9098
 3569SOL     OW11526   4.903   5.070   1.358 -0.5816 -0.0147  0.5309
 3569SOL    HW111527   4.910   4.983   1.309 -1.5694  1.0779 -1.7089
 3569SOL    HW211528   4.994   5.113   1.363 -0.6000  0.2893 -1.2682
 3570SOL     OW11529   5.598   1.910   1.369 -0.0166 -0.4796 -0.5801
 3570SOL    HW111530   5.667   1.981   1.350  1.5906 -2.0838 -1.0668
 3570SOL    HW211531   5.633   1.848   1.439 -0.6975 -1.6805 -1.2774
 3571SOL     OW11532   4.272   6.820   5.410  0.1395 -0.4412  0.6046
 3571SOL    HW111533   4.304   6.882   5.481  2.1209  0.3560 -0.8739
 3571SOL    HW211534   4.250   6.871   5.327 -0.1153 -1.5085 -0.0079
 3572SOL     OW11535   0.328   3.892   0.620 -0.0889 -0.3032 -0.1624
 3572SOL    HW111536   0.341   3.900   0.521 -1.9094  1.6973 -0.3181
 3572SOL    HW211537   0.373   3.809   0.653  1.2177 -0.6303 -2.5232
 3573SOL     OW11538   0.931   3.009   0.469 -0.1267 -0.2235  0.0480
 3573SOL    HW111539   0.915   3.049   0.378 -3.3927 -0.0985  0.5385
 3573SOL    HW211540   1.008   2.945   0.464  1.6340  1.8827 -2.0663
 3574SOL     OW11541   0.870   2.923   2.520 -0.1949  0.0128  0.1818
 3574SOL    HW111542   0.814   2.881   2.448 -0.8537  3.2901 -1.4400
 3574SOL    HW211543   0.963   2.937   2.486  0.2041 -0.7528  0.9497
 3575SOL     OW11544   2.267   6.045   3.881 -0.0830  0.6405 -0.3345
 3575SOL    HW111545   2.228   6.057   3.972  1.9199  2.7480  0.3289
 3575SOL    HW211546   2.361   6.012   3.888 -0.2420 -0.2417 -1.7378
 3576SOL     OW11547   3.092   1.312   4.649  0.8135 -0.6168  0.0713
 3576SOL    HW111548   3.112   1.263   4.564 -0.3307 -2.2999  0.7325
 3576SOL    HW211549   3.081   1.409   4.630 -0.1394 -1.0618 -1.8239
 3577SOL     OW11550   2.297   5.141   0.775 -0.5133 -0.0811 -0.3347
 3577SOL    HW111551   2.316   5.063   0.716 -1.0134  0.4045 -1.1500
 3577SOL    HW211552   2.228   5.199   0.733 -0.2525  0.7322  0.3307
 3578SOL     OW11553   6.213   4.436   6.297  0.1029  0.4277 -0.2549
 3578SOL    HW111554   6.266   4.497   6.238 -0.5533 -1.1391 -2.6086
 3578SOL    HW211555   6.117   4.440   6.272 -0.0001 -1.3307 -0.2721
 3579SOL     OW11556   5.384   6.079   1.677 -0.4342 -0.4077  0.1381
 3579SOL    HW111557   5.455   6.037   1.734  1.2554  0.9756 -0.8821
 3579SOL    HW211558   5.300   6.024   1.682  1.1823 -3.0107  0.0797
 3580SOL     OW11559   0.669   2.896   0.168 -0.3560  0.0959  1.0001
 3580SOL    HW111560   0.593   2.833   0.153  0.0190 -0.3377  0.9286
 3580SOL    HW211561   0.690   2.901   0.266 -0.5790  0.3419  1.0398
 3581SOL     OW11562   6.945   5.868   2.473  0.2532  0.1844  0.1651
 3581SOL    HW111563   6.908   5.956   2.442  1.3192  0.6840  0.2618
 3581SOL    HW211564   6.871   5.811   2.507 -0.5258  0.8586 -0.3471
 3582SOL     OW11565   4.464   4.716   6.291 -0.2920  0.3659  0.6824
 3582SOL    HW111566   4.460   4.805   6.336 -1.3872 -0.2782  1.9430
 3582SOL    HW211567   4.379   4.699   6.242  0.9807  1.1544 -1.9406
 3583SOL     OW11568   5.787   0.440   0.184 -0.2721  0.1715 -0.3667
 3583SOL    HW111569   5.786   0.340   0.189  2.0473  0.1576  0.9062
 3583SOL    HW211570   5.793   0.469   0.088  2.1338 -1.0392 -0.6561
 3584SOL     OW11571   0.785   3.399   0.225 -0.2651  0.2813 -0.4452
 3584SOL    HW111572   0.700   3.355   0.195 -1.2973 -1.5725  4.4445
 3584SOL    HW211573   0.863   3.340   0.205 -0.8267 -0.6258  0.0181
 3585SOL     OW11574   5.433   2.727   6.211  0.6501 -0.1262  0.0762
 3585SOL    HW111575   5.386   2.642   6.185 -1.5553  0.3904  1.9788
 3585SOL    HW211576   5.499   2.708   6.284  1.9090 -0.5305 -1.1362
 3586SOL     OW11577   1.338   0.461   4.345  0.0188 -0.4914 -0.8738
 3586SOL    HW111578   1.414   0.421   4.397 -1.1527  1.5482  2.7619
 3586SOL    HW211579   1.371   0.539   4.293  0.4057  1.2219  1.7127
 3587SOL     OW11580   0.310   4.426   3.130  0.0417  0.0379 -0.1262
 3587SOL    HW111581   0.283   4.422   3.034 -0.8804  0.2331  0.1081
 3587SOL    HW211582   0.234   4.464   3.184  0.8509  0.7053  0.5687
 3588SOL     OW11583   0.824   6.966   1.538  0.0921 -0.0758 -0.0445
 3588SOL    HW111584   0.853   7.055   1.504  0.5588 -1.2110 -2.7712
 3588SOL    HW211585   0.741   6.937   1.490  1.1938 -2.0528 -0.9077
 3589SOL     OW11586   6.554   2.488   6.652  0.2547 -0.8705  0.0692
 3589SOL    HW111587   6.478   2.445   6.604  0.0141  0.0314 -0.3906
 3589SOL    HW211588   6.577   2.435   6.734 -1.5246 -0.6516  0.7587
 3590SOL     OW11589   6.875   0.051   0.296  0.4218  0.2544  0.4880
 3590SOL    HW111590   6.849   0.046   0.200  1.3049 -2.1410  0.2938
 3590SOL    HW211591   6.973   0.070   0.303  0.4349  0.0377  0.9125
 3591SOL     OW11592   6.861   6.833   1.257  0.3488  0.6316 -0.0266
 3591SOL    HW111593   6.895   6.822   1.350 -0.8565  1.2586  0.4977
 3591SOL    HW211594   6.816   6.749   1.227  1.2623  0.2150 -0.2915
 3592SOL     OW11595   3.021   4.226   0.508  0.1241 -0.4430  0.4513
 3592SOL    HW111596   2.931   4.266   0.492 -0.2589 -1.3516  0.2263
 3592SOL    HW211597   3.092   4.291   0.481 -0.4691 -0.4445 -1.3039
 3593SOL     OW11598   2.292   6.822   7.007 -0.5335 -0.0648  0.2362
 3593SOL    HW111599   2.295   6.863   7.098 -0.6280 -0.8165  0.5573
 3593SOL    HW211600   2.288   6.894   6.938  0.7552  0.5498  0.7635
 3594SOL     OW11601   1.403   3.319   0.348  0.2653 -0.1903  0.1369
 3594SOL    HW111602   1.372   3.224   0.354 -0.2906 -0.0580 -0.5359
 3594SOL    HW211603   1.327   3.378   0.322  0.8090  0.3155 -0.3453
 3595SOL     OW11604   0.695   0.815   0.154  0.9830 -0.7083  0.4392
 3595SOL    HW111605   0.748   0.734   0.179 -0.7996 -1.4736  1.9517
 3595SOL    HW211606   0.597   0.792   0.154  0.4645  1.3062  0.3212
 3596SOL     OW11607   2.065   6.977   6.578 -0.5275  0.2201  0.0568
 3596SOL    HW111608   2.114   6.994   6.664 -3.6549  0.3156  1.9658
 3596SOL    HW211609   2.079   7.055   6.517  0.3916  0.9125  1.1295
 3597SOL     OW11610   4.547   2.941   5.980 -0.0999  0.3696 -0.3038
 3597SOL    HW111611   4.473   2.877   6.001 -0.6721  0.9515 -0.5123
 3597SOL    HW211612   4.508   3.031   5.961  0.5786  0.4225 -1.5261
 3598SOL     OW11613   3.708   3.109   6.102 -0.2323  0.1233  0.1004
 3598SOL    HW111614   3.805   3.091   6.087 -0.1148  1.0371 -0.3626
 3598SOL    HW211615   3.696   3.205   6.129 -0.9188 -0.2553  1.1991
 3599SOL     OW11616   4.515   5.151   2.413  0.3415 -0.3364 -0.6454
 3599SOL    HW111617   4.480   5.112   2.327 -2.5893 -0.6060  0.5444
 3599SOL    HW211618   4.525   5.077   2.480  1.5036  0.0320 -0.4070
 3600SOL     OW11619   2.678   5.954   3.342  0.3267  0.1269  0.1027
 3600SOL    HW111620   2.626   6.002   3.271  2.1299 -0.5947 -1.8160
 3600SOL    HW211621   2.720   6.022   3.403 -2.4722  0.7205  1.4981
 3601SOL     OW11622   0.765   1.335   3.720 -0.2992 -0.0983  0.0078
 3601SOL    HW111623   0.689   1.399   3.708 -1.5547 -1.0922  2.0383
 3601SOL    HW211624   0.730   1.244   3.739  1.3742 -0.5366  1.3232
 3602SOL     OW11625   2.485   5.294   1.773  0.9713  0.1132 -0.1920
 3602SOL    HW111626   2.411   5.267   1.712  0.7724  0.8231 -0.2693
 3602SOL    HW211627   2.471   5.388   1.805  2.5014  0.7604 -1.2530
 3603SOL     OW11628   0.591   4.034   2.570 -0.4399  0.0690 -0.0772
 3603SOL    HW111629   0.621   4.103   2.636 -0.8897  0.6715 -0.4912
 3603SOL    HW211630   0.629   3.946   2.595 -0.8340  0.2272  1.1635
 3604SOL     OW11631   1.029   6.722   4.763  0.2659 -0.3053  0.6427
 3604SOL    HW111632   0.957   6.667   4.805 -0.6766  0.3150 -0.0914
 3604SOL    HW211633   1.092   6.663   4.713 -0.7533 -0.7354 -0.1692
 3605SOL     OW11634   4.309   0.016   3.344 -0.0224 -0.2749 -1.0050
 3605SOL    HW111635   4.286   0.109   3.374 -1.9955 -0.8675 -0.5215
 3605SOL    HW211636   4.306  -0.045   3.423  0.1795 -0.9204 -1.5146
 3606SOL     OW11637   1.021   2.652   2.095 -0.1202  0.6482  0.0634
 3606SOL    HW111638   0.984   2.745   2.089  0.2683  0.9459  1.8462
 3606SOL    HW211639   1.119   2.656   2.115 -0.1238 -0.1460  0.2650
 3607SOL     OW11640   4.288   0.306   2.261  0.1816  0.3957  0.6475
 3607SOL    HW111641   4.220   0.253   2.312 -0.4372 -0.3712 -0.8851
 3607SOL    HW211642   4.297   0.267   2.169  0.7137  2.1361 -0.0867
 3608SOL     OW11643   0.723   5.528   3.326  0.3521 -0.5152  1.1877
 3608SOL    HW111644   0.820   5.555   3.331 -0.1285  1.0977  2.8859
 3608SOL    HW211645   0.705   5.458   3.396  0.5066 -1.7582  0.0445
 3609SOL     OW11646   2.262   0.032   4.529 -0.1175  0.5795  0.2743
 3609SOL    HW111647   2.289   0.013   4.624  0.5202  0.8358  0.1452
 3609SOL    HW211648   2.316   0.108   4.493  2.7064 -2.1275 -1.6548
 3610SOL     OW11649   2.563   4.925   4.480  0.1124 -0.1422  0.5614
 3610SOL    HW111650   2.647   4.888   4.440 -1.0399 -0.0139 -2.1963
 3610SOL    HW211651   2.485   4.868   4.454 -1.2387  2.1769 -0.8667
 3611SOL     OW11652   2.770   3.884   0.607  0.2459  0.1735 -0.4229
 3611SOL    HW111653   2.789   3.807   0.668  1.2401  0.1024 -0.7954
 3611SOL    HW211654   2.806   3.968   0.647 -0.1309  0.3211 -0.3853
 3612SOL     OW11655   2.790   2.318   3.113  0.0860  0.4543 -0.1544
 3612SOL    HW111656   2.695   2.286   3.115  0.0798  0.4478 -0.4835
 3612SOL    HW211657   2.840   2.277   3.189 -0.2052  0.5467  0.0881
 3613SOL     OW11658   4.016   3.304   2.929  0.0427 -0.0988  0.2148
 3613SOL    HW111659   4.025   3.398   2.962  0.4705  0.7277 -2.1279
 3613SOL    HW211660   4.095   3.251   2.957 -0.9062 -0.2714  2.9010
 3614SOL     OW11661   5.357   1.408   1.687 -0.0384 -0.1032  0.3110
 3614SOL    HW111662   5.298   1.353   1.629 -1.4871  1.3545  0.3243
 3614SOL    HW211663   5.355   1.372   1.781  0.5301 -1.1267 -0.0630
 3615SOL     OW11664   5.310   1.576   5.111 -0.1215  0.2172 -0.1751
 3615SOL    HW111665   5.254   1.658   5.107  0.6389  0.6868 -2.3303
 3615SOL    HW211666   5.257   1.497   5.081  0.2329  0.6229 -1.9936
 3616SOL     OW11667   5.773   1.172   4.274 -0.0934  0.2032  0.2342
 3616SOL    HW111668   5.864   1.202   4.246 -0.2678  3.0205  2.3644
 3616SOL    HW211669   5.756   1.080   4.237  1.9589  1.1341 -3.5845
 3617SOL     OW11670   6.888   5.690   6.747 -0.5130  0.7103 -0.4326
 3617SOL    HW111671   6.866   5.675   6.651 -0.3325 -0.9728 -0.2403
 3617SOL    HW211672   6.858   5.611   6.801  0.7897  0.9247  0.6578
 3618SOL     OW11673   4.958   0.755   4.982  0.2205 -0.2145 -0.4127
 3618SOL    HW111674   4.975   0.854   4.991  2.6056 -0.3980 -2.0135
 3618SOL    HW211675   5.042   0.705   5.002 -0.5716 -1.8650 -1.0555
 3619SOL     OW11676   5.191   0.967   2.325  0.4665 -0.2348  0.3744
 3619SOL    HW111677   5.156   0.888   2.375  0.9812 -0.5559  0.2422
 3619SOL    HW211678   5.180   1.049   2.380  0.3769 -0.4766  0.7234
 3620SOL     OW11679   2.564   4.050   5.264  0.2983  0.3512  0.5115
 3620SOL    HW111680   2.521   4.083   5.179 -0.8155 -1.8244  0.1549
 3620SOL    HW211681   2.643   4.107   5.285  1.8188 -0.1160 -3.0779
 3621SOL     OW11682   5.142   0.404   3.054 -0.4583 -0.1124 -0.5391
 3621SOL    HW111683   5.183   0.408   3.145 -1.1163  0.0012 -0.2404
 3621SOL    HW211684   5.047   0.434   3.059 -1.2771 -2.4642 -0.8065
 3622SOL     OW11685   4.373   6.094   0.452  0.6872 -0.3672  0.1774
 3622SOL    HW111686   4.326   6.182   0.440  0.5699 -0.3715  0.6173
 3622SOL    HW211687   4.319   6.034   0.510  1.9125  0.1788  1.9653
 3623SOL     OW11688   6.724   1.381   1.257 -0.1830  0.2148  0.3159
 3623SOL    HW111689   6.705   1.303   1.316 -0.2803 -0.7090 -0.9131
 3623SOL    HW211690   6.785   1.445   1.305 -2.2369  0.7489  2.3792
 3624SOL     OW11691   1.222   7.006   0.927 -0.2786 -0.2408 -0.2290
 3624SOL    HW111692   1.223   7.043   0.834  0.7862 -0.6995 -0.3942
 3624SOL    HW211693   1.175   6.918   0.927  0.0933 -0.4395 -0.4304
 3625SOL     OW11694   5.711   5.963   2.484 -0.2129 -0.3737 -0.1550
 3625SOL    HW111695   5.704   6.031   2.556  1.2015  0.1770 -0.5095
 3625SOL    HW211696   5.780   5.895   2.508  1.7409  0.9357 -1.8256
 3626SOL     OW11697   2.059   3.384   1.780 -0.3322 -0.1738 -0.3836
 3626SOL    HW111698   1.964   3.355   1.778 -0.1484 -0.7853 -0.5895
 3626SOL    HW211699   2.118   3.303   1.786  0.1492  0.2222  0.3529
 3627SOL     OW11700   2.037   7.018   3.445 -0.3388 -0.0614 -0.6259
 3627SOL    HW111701   2.021   6.978   3.354  0.9724  0.7056 -1.2183
 3627SOL    HW211702   2.003   7.112   3.447  0.3679  0.1732 -0.6020
 3628SOL     OW11703   3.172   1.452   5.530  0.3133  0.5149 -0.1016
 3628SOL    HW111704   3.129   1.390   5.464 -0.1207  1.3719 -0.6537
 3628SOL    HW211705   3.271   1.449   5.518  0.3310 -0.5393  0.3118
 3629SOL     OW11706   5.187   3.746   2.034 -0.3944  0.4777 -0.0473
 3629SOL    HW111707   5.151   3.668   2.084 -1.1429  0.8720  0.0634
 3629SOL    HW211708   5.269   3.781   2.079  0.8401 -1.1504 -0.9463
 3630SOL     OW11709   1.334   3.416   1.052  0.2336  0.0534  0.2559
 3630SOL    HW111710   1.235   3.406   1.049  0.2492 -0.0939 -2.6040
 3630SOL    HW211711   1.373   3.344   1.110 -1.1860 -1.6597 -0.8186
 3631SOL     OW11712   6.243   0.631   5.269 -0.4877 -0.1235  0.0448
 3631SOL    HW111713   6.194   0.703   5.219  0.0534  0.7807  0.7719
 3631SOL    HW211714   6.178   0.571   5.315 -0.9281  0.5344  0.2899
 3632SOL     OW11715   0.916   3.262   5.889  0.2833  0.5697  0.2426
 3632SOL    HW111716   0.984   3.233   5.822  0.8459  0.5812  0.7930
 3632SOL    HW211717   0.830   3.282   5.843  0.4988  0.0465 -0.4057
 3633SOL     OW11718   2.475   6.190   2.474 -0.6919 -0.1755 -0.1900
 3633SOL    HW111719   2.476   6.217   2.378  0.7236  1.2892  0.1741
 3633SOL    HW211720   2.535   6.111   2.487 -0.3122  0.0758 -0.4005
 3634SOL     OW11721   2.301   6.687   4.024  0.2339  0.0023  0.2344
 3634SOL    HW111722   2.332   6.763   4.081 -0.5887  1.4186 -1.1089
 3634SOL    HW211723   2.356   6.683   3.940 -1.0732  0.4916 -0.6799
 3635SOL     OW11724   6.273   0.019   4.077 -0.2110  0.1819  0.2925
 3635SOL    HW111725   6.330  -0.059   4.106  1.0336  1.2917  0.8501
 3635SOL    HW211726   6.182   0.010   4.118  0.0137 -0.7823  0.6122
 3636SOL     OW11727   1.636   0.531   2.896 -0.1435 -0.2160 -0.2439
 3636SOL    HW111728   1.625   0.629   2.877 -0.0742 -0.4379 -1.5439
 3636SOL    HW211729   1.725   0.515   2.938 -0.2639  0.2975  0.2342
 3637SOL     OW11730   6.190   1.258   2.731  0.1233  0.4591  0.6959
 3637SOL    HW111731   6.192   1.352   2.698 -4.3617 -0.2019 -2.4153
 3637SOL    HW211732   6.231   1.198   2.663  1.8640 -0.0578  2.1219
 3638SOL     OW11733   5.477   4.253   1.622  0.6388 -0.2970  0.1807
 3638SOL    HW111734   5.574   4.271   1.605  0.5014 -0.7214 -1.1494
 3638SOL    HW211735   5.453   4.162   1.588 -0.3720  0.0655 -0.1146
 3639SOL     OW11736   5.755   1.309   0.731  0.4917 -0.2531  0.1037
 3639SOL    HW111737   5.685   1.366   0.689 -0.9438 -1.3880  0.8763
 3639SOL    HW211738   5.804   1.362   0.800 -0.3451  0.2716  0.3098
 3640SOL     OW11739   4.913   0.418   0.925 -0.0864  0.5488  0.3809
 3640SOL    HW111740   4.967   0.500   0.942 -0.5901  1.4507 -1.9629
 3640SOL    HW211741   4.819   0.445   0.904 -0.3828 -0.6846  0.0611
 3641SOL     OW11742   5.688   3.124   3.545 -0.3496 -0.3751  0.1735
 3641SOL    HW111743   5.622   3.101   3.474 -0.5076  1.9812 -0.5496
 3641SOL    HW211744   5.640   3.138   3.632 -0.6224 -0.0557 -0.0255
 3642SOL     OW11745   1.007   4.177   0.796 -0.3522 -0.1088 -0.4168
 3642SOL    HW111746   0.933   4.208   0.856  1.5819  2.0303  1.0146
 3642SOL    HW211747   0.996   4.219   0.706 -0.0185  1.5415  0.2785
 3643SOL     OW11748   6.529   1.932   6.408  0.0284  0.0119  0.5540
 3643SOL    HW111749   6.526   1.902   6.503 -0.3792  0.7905  0.8010
 3643SOL    HW211750   6.490   1.861   6.349 -0.2280 -0.2468  1.0330
 3644SOL     OW11751   2.443   1.548   1.125  0.6132  0.5339 -0.0777
 3644SOL    HW111752   2.464   1.491   1.045 -1.7006 -1.0231  0.2997
 3644SOL    HW211753   2.345   1.542   1.144  0.6981  2.8878  1.3997
 3645SOL     OW11754   3.784   3.045   4.157  0.1227  0.1609  0.2345
 3645SOL    HW111755   3.813   3.124   4.103 -0.3013  0.0561 -0.1460
 3645SOL    HW211756   3.735   2.980   4.099 -2.0539  0.9290  1.0920
 3646SOL     OW11757   3.945   1.186   0.607 -0.1103 -0.6189 -0.5115
 3646SOL    HW111758   4.033   1.163   0.649  0.0470  1.2056  0.2209
 3646SOL    HW211759   3.924   1.282   0.623 -2.7639 -1.2505  0.2567
 3647SOL     OW11760   2.298   1.478   0.254  0.5308  0.3088 -0.0833
 3647SOL    HW111761   2.289   1.540   0.332 -0.2934  1.2992 -0.9378
 3647SOL    HW211762   2.383   1.426   0.262  0.6189  0.6454  1.2930
 3648SOL     OW11763   2.203   0.072   6.253  0.2929 -0.0397 -0.2275
 3648SOL    HW111764   2.242  -0.016   6.226  2.1482  0.5004  0.6201
 3648SOL    HW211765   2.240   0.144   6.196  0.9494  0.5140  0.8668
 3649SOL     OW11766   4.385   6.601   3.537 -0.5012 -0.0818 -0.0991
 3649SOL    HW111767   4.402   6.678   3.598 -1.5975  0.9253 -1.0119
 3649SOL    HW211768   4.286   6.589   3.526 -0.3315 -0.1638 -1.7278
 3650SOL     OW11769   0.129   3.920   2.451 -0.2055  0.2441 -0.4665
 3650SOL    HW111770   0.077   3.980   2.513 -1.0722 -0.9185 -0.0278
 3650SOL    HW211771   0.215   3.964   2.427 -0.1845  1.0577  0.9602
 3651SOL     OW11772   6.488   1.391   0.342  0.8859  0.2927 -0.0841
 3651SOL    HW111773   6.579   1.431   0.337  0.9857 -0.0872 -1.7149
 3651SOL    HW211774   6.495   1.291   0.343  0.4548  0.1950 -2.4340
 3652SOL     OW11775   5.922   6.636   6.798 -0.0344  0.3372  0.3141
 3652SOL    HW111776   5.888   6.702   6.730 -0.5145 -1.5457 -1.3472
 3652SOL    HW211777   6.004   6.591   6.762  0.5297  0.2876  1.6041
 3653SOL     OW11778   5.169   3.024   4.897  0.3419 -0.3247 -0.0828
 3653SOL    HW111779   5.134   2.959   4.829 -0.3342 -0.3803  0.3015
 3653SOL    HW211780   5.242   2.981   4.950 -0.5043 -0.9939  0.5645
 3654SOL     OW11781   4.514   6.437   6.963 -0.6128  0.6413 -0.3807
 3654SOL    HW111782   4.533   6.535   6.955  0.5433  0.5227  0.6877
 3654SOL    HW211783   4.536   6.392   6.877  0.3870  1.0934 -0.3751
 3655SOL     OW11784   4.570   2.040   2.358  0.0680 -0.2554 -0.1594
 3655SOL    HW111785   4.513   1.958   2.347 -0.4223  0.0436  0.1308
 3655SOL    HW211786   4.511   2.121   2.361  0.5390  0.0926 -0.2491
 3656SOL     OW11787   6.437   4.009   4.403 -0.0538  0.0909 -0.6334
 3656SOL    HW111788   6.405   3.954   4.326 -2.1958  1.7627 -1.0372
 3656SOL    HW211789   6.364   4.017   4.471  0.8680  0.8324  0.3091
 3657SOL     OW11790   6.885   5.774   4.666 -0.3899 -0.0174 -0.0449
 3657SOL    HW111791   6.861   5.803   4.759  3.2675  0.3372  0.9507
 3657SOL    HW211792   6.875   5.852   4.604  2.3090  1.4874  1.2117
 3658SOL     OW11793   3.623   3.302   2.082  0.5976 -0.5057 -0.6312
 3658SOL    HW111794   3.646   3.379   2.023 -3.3485  1.5659  0.1965
 3658SOL    HW211795   3.668   3.313   2.171  0.3965  0.6808 -0.6641
 3659SOL     OW11796   5.251   3.491   0.592 -0.0263  0.4195  0.3600
 3659SOL    HW111797   5.260   3.432   0.672  0.6293 -1.2437 -0.9083
 3659SOL    HW211798   5.340   3.499   0.547 -0.6510  0.3174 -0.9203
 3660SOL     OW11799   2.564   0.988   7.004 -0.0029 -0.3035 -0.5074
 3660SOL    HW111800   2.518   1.010   7.090 -1.4984  1.0825 -1.6156
 3660SOL    HW211801   2.507   0.927   6.950 -1.0954  2.2054 -2.2979
 3661SOL     OW11802   4.487   4.892   0.358  0.0353 -0.0327  0.1594
 3661SOL    HW111803   4.431   4.809   0.363  0.2628 -0.1268  1.9532
 3661SOL    HW211804   4.428   4.972   0.373 -0.0468  0.0698 -0.6981
 3662SOL     OW11805   3.323   6.403   3.761  0.3691  0.4350  0.1748
 3662SOL    HW111806   3.267   6.484   3.775  0.5304  0.7718 -1.0384
 3662SOL    HW211807   3.283   6.347   3.689  1.7259  0.8220 -0.9111
 3663SOL     OW11808   4.083   0.829   4.843  0.2519 -0.4698 -0.0551
 3663SOL    HW111809   4.102   0.914   4.892  1.9203 -0.2178 -1.0621
 3663SOL    HW211810   3.985   0.811   4.845 -0.2427  1.8674 -0.4610
 3664SOL     OW11811   2.557   0.955   5.067  0.4351  0.3871 -0.2103
 3664SOL    HW111812   2.496   1.029   5.040 -3.3790 -2.7792 -1.0948
 3664SOL    HW211813   2.544   0.934   5.164 -1.3826 -1.3602 -0.7514
 3665SOL     OW11814   6.434   5.794   6.222 -0.1510  0.2849  0.1864
 3665SOL    HW111815   6.339   5.823   6.216 -1.3058 -3.1210  0.1996
 3665SOL    HW211816   6.493   5.868   6.189 -2.7590  2.3927 -0.0892
 3666SOL     OW11817   2.822   1.530   0.055 -0.0435 -0.0439 -0.2324
 3666SOL    HW111818   2.822   1.443   0.104  2.4837  0.0640  0.1046
 3666SOL    HW211819   2.790   1.603   0.116 -2.0934 -0.6614 -0.4907
 3667SOL     OW11820   6.957   4.611   4.402 -0.0282 -0.0653  0.0712
 3667SOL    HW111821   6.883   4.651   4.457  0.9489  1.9187  0.0619
 3667SOL    HW211822   6.998   4.535   4.452 -1.0266 -0.1445  0.8024
 3668SOL     OW11823   0.270   5.552   1.119 -0.0946 -0.1379  0.0978
 3668SOL    HW111824   0.301   5.645   1.098  0.7192 -0.5572 -0.6436
 3668SOL    HW211825   0.254   5.544   1.218  0.8815  0.5010  0.3264
 3669SOL     OW11826   3.843   4.496   3.624 -0.1582 -0.0738  0.3396
 3669SOL    HW111827   3.913   4.441   3.578 -0.4724  0.6754 -1.0654
 3669SOL    HW211828   3.881   4.535   3.708  0.1938 -2.0859  1.1505
 3670SOL     OW11829   5.301   2.807   1.754  0.0772 -0.3273 -0.2449
 3670SOL    HW111830   5.281   2.711   1.776  0.5658 -0.3285  0.2180
 3670SOL    HW211831   5.271   2.865   1.830  2.5675 -0.3938  0.8693
 3671SOL     OW11832   6.815   1.095   2.085  0.2520 -0.1587 -0.5617
 3671SOL    HW111833   6.801   1.065   1.991  0.1068 -2.0820  0.0271
 3671SOL    HW211834   6.874   1.176   2.086 -0.6927  0.6034 -2.3439
 3672SOL     OW11835   6.941   0.299   1.685 -0.1723 -0.6630  0.2724
 3672SOL    HW111836   6.938   0.295   1.585  0.6566  0.0715  0.1961
 3672SOL    HW211837   7.027   0.340   1.713  0.0361 -1.8312  1.3369
 3673SOL     OW11838   6.841   2.958   5.770 -0.4850  0.2603 -0.1049
 3673SOL    HW111839   6.767   3.025   5.774  0.2103  1.1397 -1.2473
 3673SOL    HW211840   6.883   2.960   5.679  0.3101 -0.9126  0.2134
 3674SOL     OW11841   0.709   5.039   4.355  0.4767 -0.7676 -0.1358
 3674SOL    HW111842   0.743   5.088   4.435 -1.7084 -0.0356  0.4262
 3674SOL    HW211843   0.709   5.100   4.276  1.0663 -0.9778 -0.3060
 3675SOL     OW11844   6.356   3.138   4.618 -0.0062  0.2357  0.2785
 3675SOL    HW111845   6.410   3.137   4.702 -1.4502  0.5812  1.2399
 3675SOL    HW211846   6.293   3.216   4.619  2.2196  2.3495 -2.6434
 3676SOL     OW11847   3.395   2.962   2.111  0.1602  0.1692 -0.5311
 3676SOL    HW111848   3.487   2.995   2.093 -0.3895  1.7158 -0.6546
 3676SOL    HW211849   3.329   3.036   2.096 -1.2873 -1.3540 -2.1844
 3677SOL     OW11850   5.105   2.544   6.176 -0.6229  0.5844 -0.3894
 3677SOL    HW111851   5.059   2.630   6.196  1.4038  1.4668  0.7237
 3677SOL    HW211852   5.166   2.556   6.097  0.1359  0.3832  0.1462
 3678SOL     OW11853   6.215   6.811   1.311 -0.2130 -0.0597  0.2723
 3678SOL    HW111854   6.130   6.826   1.259  0.9667  2.3450 -1.1577
 3678SOL    HW211855   6.285   6.774   1.250  0.3843  0.0740  0.8720
 3679SOL     OW11856   6.618   3.115   6.182  0.5396 -0.1143  0.1836
 3679SOL    HW111857   6.628   3.116   6.082  2.8319 -0.4526  0.3541
 3679SOL    HW211858   6.673   3.040   6.220  1.5353  1.3885  1.8443
 3680SOL     OW11859   6.514   0.750   2.217  0.0765  0.4739 -0.8160
 3680SOL    HW111860   6.459   0.759   2.134 -0.3920  0.5046 -0.5123
 3680SOL    HW211861   6.603   0.793   2.204 -0.1980  0.9562 -1.1179
 3681SOL     OW11862   4.549   0.351   4.857  0.5051  0.0232  0.2319
 3681SOL    HW111863   4.641   0.322   4.831  0.3828  0.2211 -0.4469
 3681SOL    HW211864   4.516   0.294   4.932  1.1290 -0.1340  0.3981
 3682SOL     OW11865   1.711   2.369   1.676  0.2917  0.2625 -0.3878
 3682SOL    HW111866   1.640   2.356   1.607  0.6302  1.2973 -0.9651
 3682SOL    HW211867   1.801   2.359   1.633  0.5102  1.3527 -0.2058
 3683SOL     OW11868   0.433   1.035   0.116  0.0645  0.1151 -0.5558
 3683SOL    HW111869   0.506   1.032   0.049 -1.4998  0.4457 -2.3520
 3683SOL    HW211870   0.464   0.993   0.201  1.6150 -1.7428 -1.9650
 3684SOL     OW11871   4.887   0.342   6.689  0.6609  0.3067 -0.4070
 3684SOL    HW111872   4.986   0.358   6.689  0.8085 -0.5770  0.3966
 3684SOL    HW211873   4.867   0.259   6.638  0.3013  0.6340 -0.8045
 3685SOL     OW11874   1.292   4.746   5.978 -0.7390  0.6265 -0.1588
 3685SOL    HW111875   1.348   4.740   5.896 -0.8030 -0.0493 -0.1639
 3685SOL    HW211876   1.205   4.700   5.962  0.3539 -2.1298  1.1722
 3686SOL     OW11877   3.556   6.015   2.608 -0.3971  0.3792 -0.2139
 3686SOL    HW111878   3.463   5.978   2.613  0.3337 -1.6168 -0.4862
 3686SOL    HW211879   3.619   5.942   2.584  1.3930  1.5069  0.8892
 3687SOL     OW11880   6.860   5.482   4.003 -0.1350 -0.0417  0.3251
 3687SOL    HW111881   6.770   5.515   3.974  0.4294 -0.0080 -1.5303
 3687SOL    HW211882   6.850   5.423   4.083 -2.0441 -1.4913 -0.8825
 3688SOL     OW11883   4.541   5.825   3.783  0.7941 -0.3546 -0.4904
 3688SOL    HW111884   4.517   5.886   3.707  0.5096 -0.1843 -0.2687
 3688SOL    HW211885   4.629   5.853   3.821  1.0349 -0.5657 -0.8852
 3689SOL     OW11886   1.434   0.785   3.853 -0.7168  0.7791 -0.5485
 3689SOL    HW111887   1.334   0.783   3.850 -0.7925  1.8928  0.4600
 3689SOL    HW211888   1.469   0.692   3.842 -1.8644  0.3607 -0.8369
 3690SOL     OW11889   6.673   1.330   4.418  0.0130 -0.1550  0.0234
 3690SOL    HW111890   6.763   1.374   4.423  0.1839 -0.5048  0.0193
 3690SOL    HW211891   6.664   1.266   4.495 -0.8362  1.0157  0.9345
 3691SOL     OW11892   0.359   6.016   0.103  0.3131 -0.0774  0.3386
 3691SOL    HW111893   0.444   5.965   0.114 -0.3511 -0.9530  1.6420
 3691SOL    HW211894   0.365   6.103   0.151  0.5659 -0.0080  0.1860
 3692SOL     OW11895   2.497   6.295   5.102  0.3758 -0.0508  0.0370
 3692SOL    HW111896   2.405   6.324   5.076  0.0678 -1.0895 -0.1086
 3692SOL    HW211897   2.565   6.341   5.046 -0.0786  0.4592 -0.0945
 3693SOL     OW11898   3.382   5.468   4.346 -0.2583 -0.1034 -0.3703
 3693SOL    HW111899   3.312   5.397   4.333 -1.3229  0.8551 -0.0795
 3693SOL    HW211900   3.343   5.544   4.399  0.4093  1.3036 -1.7776
 3694SOL     OW11901   2.135   6.787   6.399  0.1951  0.3944 -0.1643
 3694SOL    HW111902   2.225   6.808   6.362 -0.8625  2.2908 -1.8344
 3694SOL    HW211903   2.114   6.850   6.474 -0.1422  0.6233 -0.4477
 3695SOL     OW11904   3.840   5.898   6.690 -0.0087  0.1258  0.0133
 3695SOL    HW111905   3.788   5.887   6.775  1.9022 -0.8490  1.1467
 3695SOL    HW211906   3.920   5.956   6.708  1.0474 -1.0121 -0.7709
 3696SOL     OW11907   6.875   3.032   2.393 -0.0768  0.3496 -0.4558
 3696SOL    HW111908   6.789   3.024   2.443  0.5248  2.4995  1.0482
 3696SOL    HW211909   6.920   3.118   2.418  1.1627  0.6285 -3.3753
 3697SOL     OW11910   6.206   4.622   6.046  0.4407  1.0300  0.2668
 3697SOL    HW111911   6.151   4.675   6.111 -0.2132  1.0512 -0.3073
 3697SOL    HW211912   6.207   4.668   5.957 -1.0310 -0.4663 -0.5564
 3698SOL     OW11913   1.893   2.703   1.199 -0.0792  0.4818  0.3480
 3698SOL    HW111914   1.820   2.635   1.188 -0.1421  0.5630  0.2434
 3698SOL    HW211915   1.940   2.688   1.286  0.3434 -0.1010  0.0190
 3699SOL     OW11916   4.255   1.077   4.180  0.5774 -0.0682  0.8997
 3699SOL    HW111917   4.351   1.088   4.153  0.7198 -0.3272  1.2833
 3699SOL    HW211918   4.207   1.024   4.109  0.4408  1.0130  0.1619
 3700SOL     OW11919   4.799   3.586   6.313  0.1691  0.0820 -0.3236
 3700SOL    HW111920   4.838   3.660   6.258 -0.5218 -0.3596 -1.4334
 3700SOL    HW211921   4.724   3.622   6.370  0.6197  0.4606  0.0354
 3701SOL     OW11922   3.679   3.370   6.207  0.2911  0.1673 -0.4566
 3701SOL    HW111923   3.703   3.357   6.303 -3.0197 -1.1690  0.3172
 3701SOL    HW211924   3.649   3.465   6.193  0.0064  0.1524  0.0353
 3702SOL     OW11925   3.181   1.644   3.631 -0.2059 -0.3380  0.3159
 3702SOL    HW111926   3.251   1.647   3.559 -0.2018  1.2662  0.3201
 3702SOL    HW211927   3.216   1.690   3.713 -2.0858  2.8946 -0.5355
 3703SOL     OW11928   4.036   6.179   0.848  0.5337  0.3259  0.2666
 3703SOL    HW111929   4.065   6.137   0.935  2.5391 -0.6388 -0.7885
 3703SOL    HW211930   4.049   6.113   0.774  3.3003  2.5143 -1.3920
 3704SOL     OW11931   5.666   2.107   0.134 -0.1498  0.1933  0.3740
 3704SOL    HW111932   5.651   2.021   0.086 -0.6735  0.1016  0.6980
 3704SOL    HW211933   5.707   2.173   0.071 -0.4727 -0.0407 -0.0989
 3705SOL     OW11934   5.092   3.843   0.744  0.0633  0.1174 -0.0735
 3705SOL    HW111935   5.031   3.916   0.773 -0.2015  0.4857 -1.4770
 3705SOL    HW211936   5.042   3.756   0.744 -0.6314  0.4749 -1.6014
 3706SOL     OW11937   3.460   3.569   2.116  0.1949  0.4934  0.4618
 3706SOL    HW111938   3.527   3.590   2.187 -0.8942 -0.5802  1.8610
 3706SOL    HW211939   3.502   3.512   2.046  0.6143 -0.6409  1.6123
 3707SOL     OW11940   3.912   5.304   0.468  0.7188  0.4612 -0.3138
 3707SOL    HW111941   3.936   5.211   0.496 -1.0090 -0.4334 -1.5831
 3707SOL    HW211942   3.961   5.329   0.385 -0.5440 -0.2721 -1.3125
 3708SOL     OW11943   4.369   6.558   3.224 -0.3102  1.0162 -0.4436
 3708SOL    HW111944   4.361   6.461   3.201 -1.3736  1.1360 -0.6793
 3708SOL    HW211945   4.322   6.574   3.312 -0.2885  1.3496 -0.4923
 3709SOL     OW11946   1.730   5.061   2.198 -0.6587 -0.0596 -0.3843
 3709SOL    HW111947   1.647   5.110   2.170 -1.3338 -0.3867  0.9475
 3709SOL    HW211948   1.728   5.046   2.297  1.5072  0.8645 -0.1427
 3710SOL     OW11949   5.689   5.673   2.195 -0.3832 -0.0889  1.1577
 3710SOL    HW111950   5.599   5.645   2.231 -2.5011  0.1554 -3.3221
 3710SOL    HW211951   5.695   5.773   2.197 -2.2113  0.2035 -2.3777
 3711SOL     OW11952   5.922   4.348   1.807 -0.1515 -0.5606  0.3576
 3711SOL    HW111953   5.920   4.445   1.782  1.5750 -0.3864  0.7562
 3711SOL    HW211954   5.934   4.339   1.906 -2.9522 -1.2345  0.7105
 3712SOL     OW11955   4.533   1.023   6.184 -0.0251 -0.5879  1.0327
 3712SOL    HW111956   4.433   1.026   6.183 -0.0015  0.4695  0.5650
 3712SOL    HW211957   4.565   0.954   6.119 -0.4151  1.9809 -2.1382
 3713SOL     OW11958   1.859   6.735   2.023 -0.0260  0.3003  0.5906
 3713SOL    HW111959   1.815   6.657   1.977  1.1138 -0.4719  0.7441
 3713SOL    HW211960   1.866   6.716   2.121  0.3368  0.5639  0.6204
 3714SOL     OW11961   6.548   2.873   3.519 -0.2393 -0.5424 -0.2415
 3714SOL    HW111962   6.466   2.854   3.466 -1.4757  0.5069  1.2355
 3714SOL    HW211963   6.622   2.901   3.457 -1.4056 -0.1013 -1.4732
 3715SOL     OW11964   3.902   0.726   5.771 -0.1756  0.5604  0.1063
 3715SOL    HW111965   3.835   0.729   5.696  0.1367 -1.6858 -0.3656
 3715SOL    HW211966   3.874   0.656   5.837  2.0514 -1.0150 -0.5116
 3716SOL     OW11967   6.920   3.593   4.131  0.2726  0.1130  0.4345
 3716SOL    HW111968   6.958   3.570   4.042  1.2806  1.1094  0.5760
 3716SOL    HW211969   6.916   3.510   4.188  0.5207 -0.3483 -0.2091
 3717SOL     OW11970   4.457   1.947   3.020 -0.2081  0.0244  0.8644
 3717SOL    HW111971   4.535   1.894   2.988 -1.3878 -1.4205  0.2892
 3717SOL    HW211972   4.445   1.935   3.118  0.9059  1.1176  1.1616
 3718SOL     OW11973   2.247   2.803   0.137  0.1844 -0.2119  0.2802
 3718SOL    HW111974   2.334   2.850   0.148 -0.5679  1.3092  0.0752
 3718SOL    HW211975   2.197   2.842   0.060 -1.6662  0.6013  1.7963
 3719SOL     OW11976   4.727   4.233   4.522 -0.2358 -0.2699  0.1524
 3719SOL    HW111977   4.719   4.261   4.426 -0.9672 -0.1909  0.2361
 3719SOL    HW211978   4.747   4.313   4.578 -0.1770 -0.2601  0.1185
 3720SOL     OW11979   6.552   6.934   1.810 -0.0029 -0.3946 -0.1591
 3720SOL    HW111980   6.567   6.928   1.909 -0.9279  0.2168  0.0284
 3720SOL    HW211981   6.455   6.925   1.790  0.1303 -0.1292 -0.9846
 3721SOL     OW11982   2.744   1.278   4.618  0.3259 -0.2833 -0.5382
 3721SOL    HW111983   2.783   1.370   4.619 -0.7211  0.2102 -1.9951
 3721SOL    HW211984   2.812   1.213   4.583  0.1472  0.4550 -2.3829
 3722SOL     OW11985   4.820   0.922   1.195  0.5163  0.1351  0.1703
 3722SOL    HW111986   4.807   0.992   1.265  3.1610  2.1181 -1.1489
 3722SOL    HW211987   4.883   0.853   1.230 -0.1128 -0.2515  0.5743
 3723SOL     OW11988   1.662   2.353   3.038 -0.4977 -0.2074  0.1538
 3723SOL    HW111989   1.743   2.348   3.097 -0.4247 -1.6908 -0.0250
 3723SOL    HW211990   1.615   2.440   3.052  0.4430  0.1523  1.1656
 3724SOL     OW11991   1.068   3.130   5.666 -0.0704 -0.3173 -0.2985
 3724SOL    HW111992   1.106   3.222   5.656 -0.8768 -0.1210 -1.8646
 3724SOL    HW211993   1.142   3.066   5.689  0.5661  0.6355  0.3798
 3725SOL     OW11994   4.938   0.354   2.709 -0.4485  0.5813 -0.6402
 3725SOL    HW111995   4.946   0.333   2.611 -0.0135  0.0191 -0.4865
 3725SOL    HW211996   5.023   0.397   2.740  0.1372 -0.8913 -0.1121
 3726SOL     OW11997   2.989   2.671   3.432 -0.1018  0.3324 -0.1252
 3726SOL    HW111998   2.985   2.581   3.477  0.4300  0.3078 -0.1233
 3726SOL    HW211999   2.898   2.695   3.399 -0.7747  0.8641  1.9520
 3727SOL     OW12000   4.539   3.180   3.178  0.1096 -0.0548  0.3132
 3727SOL    HW112001   4.541   3.269   3.133 -1.4344  0.2529  0.7764
 3727SOL    HW212002   4.631   3.154   3.206  0.9667  0.2377 -2.0148
 3728SOL     OW12003   4.522   4.903   1.363 -0.3468 -0.7156  0.4804
 3728SOL    HW112004   4.446   4.951   1.320  0.5732  0.3779  0.0422
 3728SOL    HW212005   4.551   4.827   1.304  0.1007  0.0141 -0.2663
 3729SOL     OW12006   1.493   4.257   2.026 -0.0125 -0.3642 -0.1792
 3729SOL    HW112007   1.484   4.242   2.124 -2.7367 -0.8337 -0.4256
 3729SOL    HW212008   1.410   4.300   1.990  1.4739  1.1038 -2.0898
 3730SOL     OW12009   5.977   4.874   4.878 -0.0332 -0.0575 -0.1977
 3730SOL    HW112010   5.880   4.864   4.897  0.1659 -0.2848  0.7912
 3730SOL    HW212011   5.997   4.844   4.785 -1.4120  2.9857 -1.6650
 3731SOL     OW12012   3.603   5.569   2.160  0.3058 -0.0363  0.5324
 3731SOL    HW112013   3.606   5.469   2.154  0.8832  0.0311 -0.7250
 3731SOL    HW212014   3.603   5.597   2.256  0.0829 -1.2331  0.9008
 3732SOL     OW12015   1.055   0.376   4.278 -0.2953  0.4375 -0.1145
 3732SOL    HW112016   1.151   0.397   4.296 -0.5496  1.2119  0.4401
 3732SOL    HW212017   1.016   0.331   4.358 -0.5746  0.8012 -0.0373
 3733SOL     OW12018   1.920   3.665   1.191 -0.4046  0.2770  0.1064
 3733SOL    HW112019   2.019   3.677   1.195 -0.4314  0.2147  2.2372
 3733SOL    HW212020   1.876   3.754   1.206 -0.6632  0.2826 -0.6975
 3734SOL     OW12021   5.334   0.296   5.073 -0.6446  0.3221 -0.3808
 3734SOL    HW112022   5.241   0.331   5.059 -2.3304 -2.7524  1.9702
 3734SOL    HW212023   5.338   0.247   5.161  2.9586 -0.4977 -0.8771
 3735SOL     OW12024   6.390   3.657   0.722  0.0942 -0.3795 -0.4163
 3735SOL    HW112025   6.434   3.599   0.653 -0.2402 -2.2578  0.8530
 3735SOL    HW212026   6.326   3.719   0.677  1.4513 -0.0200 -1.9709
 3736SOL     OW12027   0.159   4.148   3.827 -0.1841  0.0615 -0.0982
 3736SOL    HW112028   0.152   4.248   3.831 -1.9774 -0.0827  1.1637
 3736SOL    HW212029   0.198   4.122   3.738 -0.8174  1.8222 -0.9535
 3737SOL     OW12030   2.418   2.487   3.675  0.2034 -0.3949 -0.2635
 3737SOL    HW112031   2.451   2.524   3.762  0.3428  0.6258 -0.7275
 3737SOL    HW212032   2.336   2.432   3.692  0.3830 -0.4329  0.5440
 3738SOL     OW12033   1.116   0.255   6.241 -0.2203 -0.3805  0.2528
 3738SOL    HW112034   1.195   0.252   6.179  0.2706 -0.1021  0.8533
 3738SOL    HW212035   1.101   0.349   6.271 -0.8963 -0.4023  0.0089
 3739SOL     OW12036   3.940   2.248   2.413 -0.4429  0.1017  0.1524
 3739SOL    HW112037   3.940   2.181   2.338  0.1773  1.1921 -0.8500
 3739SOL    HW212038   4.026   2.242   2.463 -0.5006 -0.0422  0.2389
 3740SOL     OW12039   1.880   0.628   5.609  0.2716  0.5685  0.2582
 3740SOL    HW112040   1.907   0.720   5.637  1.2585  0.0637  1.0583
 3740SOL    HW212041   1.840   0.580   5.687  0.2174  0.1675 -0.0122
 3741SOL     OW12042   2.714   0.604   5.492  0.2773  0.2610  0.1411
 3741SOL    HW112043   2.698   0.696   5.525 -0.9797  0.6167 -1.3438
 3741SOL    HW212044   2.665   0.538   5.550  1.0229  0.5265  1.0871
 3742SOL     OW12045   1.466   2.527   0.295  0.7209 -0.1320  0.1423
 3742SOL    HW112046   1.523   2.508   0.216 -1.7669 -2.0189 -1.3522
 3742SOL    HW212047   1.496   2.472   0.373  2.1957  0.5026  0.0421
 3743SOL     OW12048   0.932   5.087   5.762 -0.2258  0.0787 -0.5084
 3743SOL    HW112049   0.972   5.052   5.847  3.4579  0.4977 -1.9150
 3743SOL    HW212050   0.983   5.167   5.731 -2.3216  0.7763 -2.5072
 3744SOL     OW12051   0.568   2.053   1.306  0.1623 -0.1919  0.3930
 3744SOL    HW112052   0.663   2.073   1.329 -0.3470  1.3310  1.2401
 3744SOL    HW212053   0.557   2.053   1.206  1.0336 -0.3470  0.2928
 3745SOL     OW12054   2.671   5.284   4.001  0.3323 -0.5029  0.1403
 3745SOL    HW112055   2.694   5.380   3.982 -1.0714  0.1469  1.5074
 3745SOL    HW212056   2.602   5.280   4.072 -1.2383 -2.4890 -1.4000
 3746SOL     OW12057   1.131   0.064   4.393  0.9383  0.4356  0.3555
 3746SOL    HW112058   1.064   0.062   4.319 -0.2479  1.4888  1.3536
 3746SOL    HW212059   1.155  -0.029   4.419  0.3933  0.0820 -0.4843
 3747SOL     OW12060   0.398   2.622   1.731 -0.6455  0.0356  0.3125
 3747SOL    HW112061   0.390   2.551   1.801  1.7599 -0.2613  0.3748
 3747SOL    HW212062   0.380   2.711   1.771  1.0366 -0.0915  1.4535
 3748SOL     OW12063   4.978   4.487   2.773  0.3634  0.2460 -0.4524
 3748SOL    HW112064   4.914   4.473   2.697 -0.1283  0.0152 -0.0023
 3748SOL    HW212065   5.061   4.434   2.757  0.0950 -0.1254 -0.6334
 3749SOL     OW12066   1.774   6.163   5.637  0.5562  0.0225  0.2457
 3749SOL    HW112067   1.781   6.253   5.679  0.2858  0.3616 -0.4242
 3749SOL    HW212068   1.809   6.167   5.543  0.7686 -0.6281  0.2864
 3750SOL     OW12069   4.597   5.686   0.745 -0.3397  0.4981  0.2188
 3750SOL    HW112070   4.505   5.675   0.783 -0.6485  0.9008 -0.3825
 3750SOL    HW212071   4.591   5.738   0.659  0.4401  0.4492  0.1290
 3751SOL     OW12072   4.007   5.784   6.305 -0.4110  0.3273  0.6812
 3751SOL    HW112073   4.091   5.740   6.274 -0.3222  1.7351 -1.3030
 3751SOL    HW212074   3.932   5.759   6.243 -0.8712  1.0899  0.9186
 3752SOL     OW12075   6.161   4.048   3.930  0.5351  0.2423  0.2719
 3752SOL    HW112076   6.148   3.952   3.957 -0.5350 -0.6962 -3.1254
 3752SOL    HW212077   6.257   4.062   3.903  0.6974  0.1703  0.7828
 3753SOL     OW12078   3.782   0.258   4.853 -0.3755 -0.2542  0.2723
 3753SOL    HW112079   3.684   0.261   4.831 -1.0964 -1.3097  2.9906
 3753SOL    HW212080   3.825   0.183   4.804 -1.0648 -0.2266 -0.3954
 3754SOL     OW12081   0.140   3.661   4.453  1.0564  0.1985 -0.2607
 3754SOL    HW112082   0.094   3.731   4.506 -0.3722 -0.8014 -0.1000
 3754SOL    HW212083   0.225   3.634   4.499  0.1454 -0.2382  1.2192
 3755SOL     OW12084   4.986   1.628   5.329  0.6865 -0.2033 -0.3513
 3755SOL    HW112085   5.005   1.541   5.285 -0.0113  0.5188 -2.1874
 3755SOL    HW212086   4.892   1.655   5.308  0.4528  0.3711  1.3104
 3756SOL     OW12087   0.570   5.171   3.348  0.0395 -0.6332  0.1088
 3756SOL    HW112088   0.588   5.213   3.436  0.5877  1.0187 -0.7545
 3756SOL    HW212089   0.657   5.152   3.301 -0.2166  2.1867 -1.7087
 3757SOL     OW12090   1.640   5.283   3.439  0.5074 -0.8261  0.2144
 3757SOL    HW112091   1.687   5.362   3.400 -1.0971 -0.8293 -1.8915
 3757SOL    HW212092   1.638   5.209   3.372 -1.2852 -1.2949  0.7332
 3758SOL     OW12093   0.136   6.732   1.154  0.5993  0.1466 -0.3619
 3758SOL    HW112094   0.084   6.767   1.232  0.3162  0.2831 -0.6089
 3758SOL    HW212095   0.233   6.754   1.166  0.4492  0.8636 -0.4265
 3759SOL     OW12096   6.661   1.282   3.545 -0.7165 -0.0314  0.0821
 3759SOL    HW112097   6.561   1.290   3.542 -0.8529  2.1504  3.8572
 3759SOL    HW212098   6.702   1.368   3.516  0.1566 -0.9091 -1.4308
 3760SOL     OW12099   0.821   6.292   0.295 -0.6168 -0.4046  0.0249
 3760SOL    HW112100   0.760   6.279   0.216 -0.1534  0.4132 -0.4803
 3760SOL    HW212101   0.908   6.329   0.264 -0.8857  1.1812  1.0637
 3761SOL     OW12102   5.843   5.199   1.913  0.4633 -0.5446 -0.2027
 3761SOL    HW112103   5.840   5.105   1.877 -0.6137 -0.7119  0.3030
 3761SOL    HW212104   5.768   5.213   1.976 -0.7894  1.3691 -1.9871
 3762SOL     OW12105   5.987   5.484   0.964  0.2856  0.8423  0.1079
 3762SOL    HW112106   6.050   5.512   1.036  1.1156 -2.3463  0.7666
 3762SOL    HW212107   6.006   5.390   0.937 -2.8098  0.4736 -1.2345
 3763SOL     OW12108   4.546   3.003   1.034  0.2960  0.1184 -0.0171
 3763SOL    HW112109   4.470   3.047   1.081 -0.1680  0.1178 -0.7625
 3763SOL    HW212110   4.555   2.909   1.066  1.8452  0.9297  2.2417
 3764SOL     OW12111   0.211   1.332   6.866  0.4435 -0.4771 -0.0510
 3764SOL    HW112112   0.129   1.386   6.884  0.1423 -0.3727 -1.6348
 3764SOL    HW212113   0.205   1.245   6.914  0.5424  0.4858  1.8364
 3765SOL     OW12114   0.201   2.800   5.948  0.1787 -0.3727  0.8356
 3765SOL    HW112115   0.298   2.778   5.947  0.2624 -0.1101 -1.1815
 3765SOL    HW212116   0.181   2.860   6.025  1.6434 -0.2899  1.1791
 3766SOL     OW12117   6.279   2.934   1.323  0.4737 -0.2959 -0.4949
 3766SOL    HW112118   6.207   2.907   1.259 -0.2861  0.1184  0.1734
 3766SOL    HW212119   6.358   2.873   1.313  0.0379 -0.7407 -1.2471
 3767SOL     OW12120   6.536   3.462   4.719  0.2636  0.7245 -0.1744
 3767SOL    HW112121   6.559   3.398   4.645  0.7670  1.7560 -0.9481
 3767SOL    HW212122   6.514   3.412   4.802  0.3118 -0.4524 -0.8598
 3768SOL     OW12123   5.775   4.916   2.766  0.2034  0.5519  0.0180
 3768SOL    HW112124   5.828   4.950   2.844 -0.7446  0.3219  0.7855
 3768SOL    HW212125   5.748   4.820   2.783  1.6569 -0.1432 -1.4828
 3769SOL     OW12126   5.663   4.834   4.692 -0.2781  0.2753 -0.0062
 3769SOL    HW112127   5.619   4.855   4.605 -0.9543 -1.0837 -0.0092
 3769SOL    HW212128   5.687   4.920   4.738 -1.4379  1.0408 -0.7574
 3770SOL     OW12129   0.328   3.855   5.355 -0.0825  0.3102  0.5504
 3770SOL    HW112130   0.379   3.937   5.329 -0.5160  0.6588  0.7962
 3770SOL    HW212131   0.377   3.807   5.428 -0.1632  0.7043  0.8637
 3771SOL     OW12132   2.317   1.748   2.727  0.2834 -0.1569  0.1616
 3771SOL    HW112133   2.409   1.787   2.729  1.2846 -2.2526  3.5053
 3771SOL    HW212134   2.258   1.799   2.790  0.2505 -1.1116  0.9112
 3772SOL     OW12135   3.014   6.871   1.185 -0.4465 -0.6234 -0.7081
 3772SOL    HW112136   3.058   6.786   1.213 -0.0694  0.6914  3.5638
 3772SOL    HW212137   3.084   6.935   1.153  0.1172 -0.3001  1.0346
 3773SOL     OW12138   2.445   6.586   5.646 -0.2737 -0.5523  0.2424
 3773SOL    HW112139   2.441   6.686   5.642 -2.2076 -0.6168 -0.2749
 3773SOL    HW212140   2.375   6.547   5.587  0.3362 -2.2389  0.5584
 3774SOL     OW12141   2.843   4.683   6.146  0.3260 -0.0148  0.0446
 3774SOL    HW112142   2.789   4.698   6.229  0.0853 -1.4777  0.1732
 3774SOL    HW212143   2.929   4.734   6.152 -0.9136  2.2519 -0.0968
 3775SOL     OW12144   6.235   3.422   3.810  0.2254  0.2920  0.1900
 3775SOL    HW112145   6.291   3.349   3.850 -0.1752  1.8108  3.9120
 3775SOL    HW212146   6.276   3.452   3.724  2.0572 -2.2543  0.0543
 3776SOL     OW12147   5.726   3.789   1.160 -0.0669 -0.6296  0.3322
 3776SOL    HW112148   5.726   3.853   1.083 -1.0662 -0.2854  0.5977
 3776SOL    HW212149   5.812   3.738   1.161  0.4961  0.2749 -0.2493
 3777SOL     OW12150   5.628   1.534   6.501 -0.8083 -0.0110 -0.5722
 3777SOL    HW112151   5.541   1.526   6.453 -0.4299  0.0687 -1.3086
 3777SOL    HW212152   5.703   1.531   6.434 -0.2436 -0.2003  0.0505
 3778SOL     OW12153   3.524   4.558   5.969 -1.0850 -0.6396  0.0416
 3778SOL    HW112154   3.624   4.558   5.967 -0.9612  1.6480  1.9735
 3778SOL    HW212155   3.492   4.464   5.979  0.9198 -1.3274  0.6786
 3779SOL     OW12156   1.238   0.391   5.852  0.5116  0.0904  0.9351
 3779SOL    HW112157   1.259   0.375   5.756  1.0141  0.7759  0.9220
 3779SOL    HW212158   1.141   0.376   5.868  0.7838 -2.1614  0.7818
 3780SOL     OW12159   4.293   0.765   2.596 -0.0106  0.0161 -0.2560
 3780SOL    HW112160   4.330   0.696   2.533  0.5844 -1.1835  1.3609
 3780SOL    HW212161   4.267   0.721   2.682 -1.0384  1.5873  0.2691
 3781SOL     OW12162   0.849   1.915   5.094 -0.1940 -0.5305 -0.1835
 3781SOL    HW112163   0.912   1.992   5.105  1.7749 -1.7086 -2.1484
 3781SOL    HW212164   0.796   1.927   5.010  1.1735 -1.8850 -1.3098
 3782SOL     OW12165   1.511   6.554   5.631  0.4669  0.0582  0.0098
 3782SOL    HW112166   1.467   6.489   5.693 -1.4072  1.3301  0.0781
 3782SOL    HW212167   1.502   6.647   5.668 -3.9635  1.4446 -3.6479
 3783SOL     OW12168   6.837   3.557   1.390 -0.3122  0.2595 -0.0087
 3783SOL    HW112169   6.818   3.587   1.484  0.6553  1.4946 -0.1874
 3783SOL    HW212170   6.767   3.592   1.329 -1.0613 -0.7221  0.2712
 3784SOL     OW12171   3.098   4.855   4.167  0.1247  0.5412 -0.6876
 3784SOL    HW112172   3.022   4.792   4.155 -5.0096  5.4325  1.6244
 3784SOL    HW212173   3.132   4.848   4.261  0.4476  0.3527 -0.8186
 3785SOL     OW12174   5.269   0.582   0.650 -0.4994 -0.0388 -0.1420
 3785SOL    HW112175   5.237   0.673   0.676  1.7042  1.0004 -0.7929
 3785SOL    HW212176   5.199   0.514   0.673 -2.3031  1.8191  0.1506
 3786SOL     OW12177   3.450   1.743   3.767 -0.7178 -1.0140 -0.0820
 3786SOL    HW112178   3.489   1.651   3.776 -1.9340 -1.5386  0.0448
 3786SOL    HW212179   3.438   1.783   3.858  2.5243  0.5021 -0.2085
 3787SOL     OW12180   4.595   4.774   2.216 -0.4269  0.1799  0.5052
 3787SOL    HW112181   4.649   4.754   2.135  0.4393  0.8825  0.9046
 3787SOL    HW212182   4.548   4.861   2.203 -0.0740  0.4247  0.8656
 3788SOL     OW12183   1.837   4.249   4.500 -0.0741 -0.1160 -0.2437
 3788SOL    HW112184   1.921   4.302   4.511  0.4175 -0.6038 -1.5403
 3788SOL    HW212185   1.758   4.309   4.514  0.4773  0.5090  0.2585
 3789SOL     OW12186   0.424   3.279   5.195  0.0682  0.0221  0.0134
 3789SOL    HW112187   0.380   3.356   5.149  0.9461  0.2780 -0.4286
 3789SOL    HW212188   0.355   3.212   5.222 -0.7347  1.0308  0.5571
 3790SOL     OW12189   6.034   4.289   3.865  0.1936  0.6597  0.4387
 3790SOL    HW112190   5.937   4.274   3.842 -0.5302  0.5091  3.2556
 3790SOL    HW212191   6.082   4.202   3.865  0.1529  0.6309 -0.2073
 3791SOL     OW12192   6.500   6.195   5.811 -0.6955 -0.5487  0.2232
 3791SOL    HW112193   6.414   6.145   5.814 -0.0384 -1.8127 -1.1637
 3791SOL    HW212194   6.506   6.247   5.726 -0.3483  0.0671  0.6066
 3792SOL     OW12195   5.382   2.475   0.708  0.2157  0.2086  0.0038
 3792SOL    HW112196   5.287   2.502   0.694 -1.2908 -4.7409 -1.0264
 3792SOL    HW212197   5.428   2.468   0.619  0.7455  0.1523  0.2756
 3793SOL     OW12198   2.609   4.197   0.709  0.3974 -0.0755 -0.0097
 3793SOL    HW112199   2.643   4.166   0.798  0.5593 -0.1558 -0.0971
 3793SOL    HW212200   2.516   4.231   0.719  0.3892 -0.1489  0.1783
 3794SOL     OW12201   0.621   4.845   0.227 -0.0419 -0.0414  0.1709
 3794SOL    HW112202   0.705   4.836   0.173 -0.1444  0.7996 -0.1451
 3794SOL    HW212203   0.644   4.882   0.318  0.1275 -1.4242  0.7170
 3795SOL     OW12204   2.023   5.770   6.105  0.7640 -0.1222 -0.5257
 3795SOL    HW112205   2.060   5.830   6.034 -0.1871  1.4784  0.2631
 3795SOL    HW212206   2.034   5.814   6.194 -2.1037  0.0629 -0.1569
 3796SOL     OW12207   4.504   6.980   3.146  0.1699 -0.1151  0.3420
 3796SOL    HW112208   4.584   7.037   3.128  0.0165  0.0398  0.1404
 3796SOL    HW212209   4.456   7.014   3.227 -0.8988  1.1247 -0.7638
 3797SOL     OW12210   0.952   3.987   2.460  0.9236  0.0387 -0.3940
 3797SOL    HW112211   1.022   3.931   2.416  0.1498 -0.5537 -0.9162
 3797SOL    HW212212   0.978   4.006   2.554  1.4554 -0.7610 -0.3716
 3798SOL     OW12213   2.316   2.231   2.525 -0.0823 -0.9550 -0.0724
 3798SOL    HW112214   2.242   2.171   2.495 -1.5181  0.6877  0.0404
 3798SOL    HW212215   2.397   2.217   2.468 -0.7502 -2.2090 -0.7213
 3799SOL     OW12216   5.684   2.578   2.437  0.3539 -0.2436 -0.4462
 3799SOL    HW112217   5.634   2.555   2.353 -0.6193  1.1545 -0.2852
 3799SOL    HW212218   5.622   2.573   2.515  0.9822 -0.4437  0.0578
 3800SOL     OW12219   2.470   6.846   2.388  0.3032  0.1335  0.3906
 3800SOL    HW112220   2.506   6.893   2.307 -0.5892 -0.7481 -0.5490
 3800SOL    HW212221   2.545   6.800   2.435  0.9010  1.0059  0.3204
 3801SOL     OW12222   5.888   5.809   1.105  0.1714  0.3632  0.9311
 3801SOL    HW112223   5.893   5.745   1.182 -0.1153 -0.5967  0.1626
 3801SOL    HW212224   5.892   5.759   1.019  1.7005  1.5091  0.2843
 3802SOL     OW12225   1.690   3.355   4.577 -0.1129  0.4629  0.5450
 3802SOL    HW112226   1.640   3.439   4.557 -0.3749 -0.3466 -2.6017
 3802SOL    HW212227   1.784   3.363   4.546 -0.7191 -1.1262 -1.9606
 3803SOL     OW12228   5.874   1.399   5.428 -0.6320  0.1940 -0.3832
 3803SOL    HW112229   5.874   1.334   5.504 -1.8204 -0.1549 -0.6560
 3803SOL    HW212230   5.968   1.427   5.408 -0.0621 -1.6786 -0.4766
 3804SOL     OW12231   6.887   0.626   0.117 -0.7061  0.2567 -0.4698
 3804SOL    HW112232   6.979   0.589   0.132  0.4222  2.4361 -1.5455
 3804SOL    HW212233   6.882   0.667   0.026 -3.1170 -0.7403 -0.8750
 3805SOL     OW12234   0.118   0.787   1.928  0.0900  0.4781  0.7783
 3805SOL    HW112235   0.130   0.864   1.990 -0.8951  1.7805 -0.5738
 3805SOL    HW212236   0.169   0.805   1.844 -0.5112 -0.1360  0.2745
 3806SOL     OW12237   6.368   0.236   0.358  0.4969 -0.2790  0.2541
 3806SOL    HW112238   6.282   0.256   0.406  0.6784 -1.6047  1.1486
 3806SOL    HW212239   6.444   0.281   0.405  0.4460 -0.0222  0.0995
 3807SOL     OW12240   4.032   1.521   2.024 -0.4173  0.2924 -0.0929
 3807SOL    HW112241   4.006   1.436   1.978  1.5531  0.2110 -1.1789
 3807SOL    HW212242   4.107   1.503   2.087 -1.9700  0.7279  1.9891
 3808SOL     OW12243   6.526   1.275   3.202  0.2464 -0.0268  0.1424
 3808SOL    HW112244   6.436   1.283   3.244 -0.2503 -0.0879 -0.8881
 3808SOL    HW212245   6.516   1.246   3.107  1.1492  2.6064 -0.8431
 3809SOL     OW12246   1.941   1.937   0.556 -0.0207  0.2548 -0.1736
 3809SOL    HW112247   1.997   1.883   0.619 -1.7003  0.2082  1.3526
 3809SOL    HW212248   1.994   1.957   0.473  1.5202 -1.4977  0.3267
 3810SOL     OW12249   4.810   5.024   5.252 -0.3195 -0.1713 -0.1041
 3810SOL    HW112250   4.777   4.945   5.302  0.7849 -0.6035 -0.0159
 3810SOL    HW212251   4.810   5.104   5.312 -2.2755  0.1185 -0.4499
 3811SOL     OW12252   4.042   2.956   0.676 -0.8093  0.4982  0.6186
 3811SOL    HW112253   4.050   2.859   0.700 -0.1066  0.0714 -1.1769
 3811SOL    HW212254   3.955   2.992   0.709 -2.2627 -1.4347 -0.9013
 3812SOL     OW12255   6.116   1.250   4.884  0.7056 -0.0450  0.1424
 3812SOL    HW112256   6.207   1.272   4.918  0.3481  0.7750  0.6236
 3812SOL    HW212257   6.058   1.222   4.960  0.3377  0.2274 -0.0311
 3813SOL     OW12258   6.823   0.029   6.292  0.5337 -0.3842 -0.3416
 3813SOL    HW112259   6.789  -0.064   6.281  0.2494 -0.4334  1.0129
 3813SOL    HW212260   6.815   0.078   6.205 -1.6266 -0.8618 -0.4544
 3814SOL     OW12261   4.194   4.796   3.102 -0.1741 -0.8721  0.7211
 3814SOL    HW112262   4.273   4.856   3.094 -0.5082 -0.3774  1.0240
 3814SOL    HW212263   4.219   4.704   3.074  0.7652 -0.9298  1.6937
 3815SOL     OW12264   0.861   2.269   1.832 -0.0266 -0.7143 -0.2564
 3815SOL    HW112265   0.887   2.365   1.828 -0.7765 -0.5144 -0.6465
 3815SOL    HW212266   0.896   2.221   1.752 -0.6994 -0.4776 -0.7089
 3816SOL     OW12267   3.830   2.032   1.049  0.5933  0.1093  0.4587
 3816SOL    HW112268   3.735   2.037   1.020  0.8971 -1.3459 -0.9745
 3816SOL    HW212269   3.844   1.947   1.101  1.7865 -1.6717 -2.4842
 3817SOL     OW12270   2.593   1.755   4.047 -0.2148 -0.1938 -0.1748
 3817SOL    HW112271   2.593   1.670   4.100  1.4186 -0.2248 -0.1813
 3817SOL    HW212272   2.683   1.798   4.051 -1.1550  1.8421  0.2702
 3818SOL     OW12273   0.703   0.573   1.516  0.1727 -0.0515 -0.2055
 3818SOL    HW112274   0.785   0.590   1.570  0.0599  0.9655 -0.3309
 3818SOL    HW212275   0.634   0.529   1.573 -0.1273  1.4527  0.6351
 3819SOL     OW12276   3.497   4.808   2.835 -0.9569 -0.2210 -0.1076
 3819SOL    HW112277   3.534   4.788   2.926 -2.2861 -2.5551 -0.0011
 3819SOL    HW212278   3.564   4.785   2.765 -0.4827  0.1515  0.2230
 3820SOL     OW12279   5.347   3.911   6.852  0.0157 -0.4877  0.0324
 3820SOL    HW112280   5.250   3.887   6.843  0.1753 -0.3358 -3.2650
 3820SOL    HW212281   5.400   3.829   6.872 -0.6115 -0.8600  0.2035
 3821SOL     OW12282   2.843   3.008   0.856 -0.4939 -0.4096  0.1510
 3821SOL    HW112283   2.833   3.062   0.940  0.3914  0.5477 -0.3358
 3821SOL    HW212284   2.926   2.954   0.861  0.8352  1.4266 -1.0251
 3822SOL     OW12285   6.412   1.188   6.969 -0.1112  0.5793  0.1410
 3822SOL    HW112286   6.347   1.232   6.909  0.7416  0.5421 -0.8408
 3822SOL    HW212287   6.377   1.188   7.063 -2.2625 -0.8707 -0.5996
 3823SOL     OW12288   5.883   0.112   5.451 -0.3726 -0.6992 -0.0639
 3823SOL    HW112289   5.909   0.194   5.502 -0.2053 -0.5351 -0.4147
 3823SOL    HW212290   5.840   0.047   5.514 -0.8845 -0.1785  0.1411
 3824SOL     OW12291   5.507   3.160   2.461 -0.0854  0.1939 -0.5815
 3824SOL    HW112292   5.545   3.113   2.381 -1.2978  0.0332 -1.0704
 3824SOL    HW212293   5.423   3.207   2.436  0.2857  1.3679  0.2697
 3825SOL     OW12294   4.767   2.111   5.356 -0.2739 -0.1352  0.2808
 3825SOL    HW112295   4.705   2.034   5.370 -2.3777  1.4117 -0.1397
 3825SOL    HW212296   4.827   2.092   5.279  0.4764 -2.0659  1.3003
 3826SOL     OW12297   0.085   0.411   5.203 -0.4339 -0.6862 -0.0111
 3826SOL    HW112298   0.145   0.390   5.126  1.8077 -1.3340  1.7972
 3826SOL    HW212299   0.080   0.332   5.264 -1.6710  0.0066  0.8277
 3827SOL     OW12300   6.545   6.122   2.543 -0.2008 -0.0207  0.5578
 3827SOL    HW112301   6.642   6.123   2.566  0.5647  0.2296 -2.2497
 3827SOL    HW212302   6.531   6.065   2.462 -2.5203 -0.5939  1.3021
 3828SOL     OW12303   6.745   5.066   3.442 -0.2927  0.3771  0.0499
 3828SOL    HW112304   6.763   5.103   3.351 -1.7532 -0.7609 -0.7285
 3828SOL    HW212305   6.714   5.140   3.502  0.5879  1.1164 -0.3683
 3829SOL     OW12306   0.469   2.379   2.995  0.3613 -0.1588  0.6353
 3829SOL    HW112307   0.435   2.410   2.906 -0.9231 -0.7951  0.8873
 3829SOL    HW212308   0.439   2.443   3.066  1.9374  0.7139  0.5707
 3830SOL     OW12309   5.275   3.319   6.706  0.1959 -0.0475  0.5797
 3830SOL    HW112310   5.308   3.293   6.797 -1.2993 -1.0512  0.8560
 3830SOL    HW212311   5.279   3.419   6.697  0.2336  0.0816  1.7957
 3831SOL     OW12312   3.177   0.293   4.675 -0.1725  0.1758 -0.2437
 3831SOL    HW112313   3.183   0.224   4.603  0.9238 -0.4675  0.4389
 3831SOL    HW212314   3.198   0.252   4.763 -1.2838  1.0059  0.4360
 3832SOL     OW12315   2.519   1.526   4.615 -0.0617  0.5919 -0.3955
 3832SOL    HW112316   2.614   1.557   4.612 -0.3660  1.4744 -1.6685
 3832SOL    HW212317   2.476   1.540   4.526 -2.0845  2.5050  0.7645
 3833SOL     OW12318   3.380   6.771   0.635  0.1493  1.0009  0.0997
 3833SOL    HW112319   3.423   6.860   0.618 -2.0367  2.0469 -0.2586
 3833SOL    HW212320   3.286   6.772   0.602  0.3961 -1.8699 -1.0191
 3834SOL     OW12321   4.686   3.560   3.443  0.4643 -0.2068  0.2643
 3834SOL    HW112322   4.780   3.533   3.423  0.6097 -0.8162  1.6355
 3834SOL    HW212323   4.686   3.636   3.508  0.0015  0.9166 -0.9874
 3835SOL     OW12324   3.343   2.067   6.351 -0.4476 -0.3072 -0.0299
 3835SOL    HW112325   3.437   2.034   6.342 -0.3323 -0.4938  1.5458
 3835SOL    HW212326   3.344   2.167   6.355 -0.2887 -0.3235  0.3212
 3836SOL     OW12327   4.252   3.282   0.790 -0.1021  0.0025  0.6659
 3836SOL    HW112328   4.227   3.234   0.874  0.9134 -2.0180 -0.1257
 3836SOL    HW212329   4.194   3.249   0.715 -0.2970  1.0154  0.3583
 3837SOL     OW12330   0.559   1.180   0.484  0.2439  0.5909  0.4343
 3837SOL    HW112331   0.655   1.200   0.504 -0.0411  1.4440  0.9800
 3837SOL    HW212332   0.501   1.250   0.525 -0.5999  0.2244 -0.1170
 3838SOL     OW12333   0.102   6.020   1.978  0.2883 -0.0043  0.5083
 3838SOL    HW112334   0.087   6.063   1.889 -1.8379 -0.5070  0.5709
 3838SOL    HW212335   0.146   5.931   1.965  0.6363  0.2291  0.0299
 3839SOL     OW12336   2.094   3.498   2.042  0.1478 -0.1812 -0.3963
 3839SOL    HW112337   2.155   3.438   2.093  1.0381 -0.8766 -2.2212
 3839SOL    HW212338   2.074   3.457   1.953 -0.2666  1.6355 -1.1654
 3840SOL     OW12339   4.679   2.572   3.555  0.1437  0.3367  0.3817
 3840SOL    HW112340   4.625   2.531   3.482  1.4641 -0.4233 -0.2032
 3840SOL    HW212341   4.619   2.605   3.628 -1.0077 -1.9029  0.4845
 3841SOL     OW12342   2.779   0.767   0.918 -0.1893 -0.1678 -0.0104
 3841SOL    HW112343   2.849   0.703   0.886  0.8893  0.9691 -0.0510
 3841SOL    HW212344   2.760   0.834   0.846 -0.7872 -0.0345  0.2651
 3842SOL     OW12345   4.587   5.519   4.599  0.8608 -0.0012 -0.3614
 3842SOL    HW112346   4.592   5.609   4.644 -0.8928 -0.0657 -0.0011
 3842SOL    HW212347   4.673   5.503   4.550  1.6107  1.4253  0.3999
 3843SOL     OW12348   0.172   2.462   3.811  0.0819 -0.4349  0.3887
 3843SOL    HW112349   0.243   2.507   3.757 -1.8182  1.9193 -0.3356
 3843SOL    HW212350   0.110   2.413   3.749  0.1920 -1.2295  0.8791
 3844SOL     OW12351   3.956   2.703   2.569 -0.4648 -0.2161 -0.1718
 3844SOL    HW112352   3.882   2.638   2.589 -0.1341 -0.8618 -0.9777
 3844SOL    HW212353   3.979   2.698   2.472 -1.8742  2.6620 -0.7684
 3845SOL     OW12354   5.793   4.786   1.563 -0.5567  0.0158 -0.7126
 3845SOL    HW112355   5.695   4.790   1.580 -0.5031  0.8198 -0.5407
 3845SOL    HW212356   5.822   4.870   1.517  0.1660  0.0984 -0.1343
 3846SOL     OW12357   5.788   6.812   6.121 -0.2042 -0.2183 -0.8166
 3846SOL    HW112358   5.703   6.835   6.074 -0.8325 -1.1653 -0.1695
 3846SOL    HW212359   5.771   6.740   6.189  0.9651  0.0934 -0.1608
 3847SOL     OW12360   0.442   2.377   5.700  0.3883 -0.2871  0.0191
 3847SOL    HW112361   0.362   2.404   5.645  1.2338  0.3436 -0.9347
 3847SOL    HW212362   0.524   2.422   5.664  1.2745 -1.3783  0.6292
 3848SOL     OW12363   6.959   0.433   6.299 -0.3480  0.4368  0.1830
 3848SOL    HW112364   6.870   0.478   6.292 -1.4571 -1.6121  0.6900
 3848SOL    HW212365   6.966   0.361   6.231  0.1715 -0.6047  1.2766
 3849SOL     OW12366   4.654   4.735   6.093 -0.3274  0.3604 -0.2036
 3849SOL    HW112367   4.597   4.729   6.175 -0.5570 -0.0395 -0.3933
 3849SOL    HW212368   4.714   4.655   6.089 -0.2891  0.4004 -0.4100
 3850SOL     OW12369   6.051   3.679   0.311  0.3779  0.3426  0.2283
 3850SOL    HW112370   6.051   3.774   0.342 -1.9197  0.4064  0.2496
 3850SOL    HW212371   6.140   3.656   0.273  1.5295  1.9486  1.8180
 3851SOL     OW12372   2.232   1.106   2.468  0.7842 -0.7019  0.3811
 3851SOL    HW112373   2.219   1.126   2.566 -0.2307 -0.6498  0.2397
 3851SOL    HW212374   2.330   1.094   2.450  1.0632  0.1851  1.2292
 3852SOL     OW12375   4.400   2.434   3.849 -0.1428 -0.1819 -0.5360
 3852SOL    HW112376   4.351   2.352   3.881  1.0221 -0.8811 -0.5052
 3852SOL    HW212377   4.452   2.473   3.924  0.2788 -0.1247 -0.8573
 3853SOL     OW12378   0.677   1.631   3.893  0.7840 -0.2015  0.3636
 3853SOL    HW112379   0.699   1.560   3.960 -1.9756 -0.1751  1.4103
 3853SOL    HW212380   0.638   1.589   3.811  0.6614 -0.0216  0.3259
 3854SOL     OW12381   0.601   2.602   0.175  0.1243  0.2315  0.3907
 3854SOL    HW112382   0.601   2.602   0.275 -1.9596  1.9788  0.4908
 3854SOL    HW212383   0.509   2.582   0.142  0.2159  1.9726 -1.0836
 3855SOL     OW12384   5.800   4.021   0.194 -0.2787  0.3106  0.1996
 3855SOL    HW112385   5.898   4.026   0.177 -0.3706  1.3707 -0.0879
 3855SOL    HW212386   5.764   4.113   0.210 -0.7860 -0.2480  2.8914
 3856SOL     OW12387   2.623   6.168   6.228  0.7239 -0.3062 -0.1252
 3856SOL    HW112388   2.670   6.092   6.273 -0.1917 -2.0077 -1.9444
 3856SOL    HW212389   2.656   6.176   6.134  0.2655  1.0943 -0.1915
 3857SOL     OW12390   2.100   6.274   4.850 -0.1238  0.3437 -0.3073
 3857SOL    HW112391   2.159   6.202   4.813  1.1114  2.1813 -2.1883
 3857SOL    HW212392   2.134   6.301   4.940 -0.1212 -0.8536  0.0636
 3858SOL     OW12393   6.382   6.137   1.594 -0.3864 -0.0136 -0.0155
 3858SOL    HW112394   6.416   6.159   1.502 -0.3974  1.0859  0.2228
 3858SOL    HW212395   6.453   6.089   1.645  0.5362  1.4583  0.1785
 3859SOL     OW12396   3.338   0.902   5.916 -0.1914  0.2513 -0.2872
 3859SOL    HW112397   3.326   0.999   5.935 -0.6882  0.3153 -0.8575
 3859SOL    HW212398   3.430   0.886   5.883  0.8945  0.0447  2.5706
 3860SOL     OW12399   0.315   0.658   2.411  0.3021  0.1020  0.0433
 3860SOL    HW112400   0.237   0.720   2.424  0.4819  0.2376  0.4526
 3860SOL    HW212401   0.305   0.579   2.472 -0.3761 -0.7141 -1.0612
 3861SOL     OW12402   4.957   3.408   6.488  0.5687 -0.3921 -0.4372
 3861SOL    HW112403   4.901   3.450   6.417  1.2279  0.7805 -0.2735
 3861SOL    HW212404   4.905   3.402   6.573  0.2061 -0.6490 -0.6755
 3862SOL     OW12405   1.834   1.916   5.941  0.4205 -0.0492  0.1792
 3862SOL    HW112406   1.857   1.924   6.038  2.7652  0.4548 -0.3471
 3862SOL    HW212407   1.844   1.820   5.913  1.4846  0.0784  0.0758
 3863SOL     OW12408   2.487   0.247   6.482 -0.3307  0.2882 -0.4114
 3863SOL    HW112409   2.494   0.301   6.566 -2.0179 -0.2856  0.1570
 3863SOL    HW212410   2.575   0.207   6.460 -0.1891 -0.9530  2.0920
 3864SOL     OW12411   4.795   3.098   6.391  0.3453 -0.5129  0.4328
 3864SOL    HW112412   4.789   3.083   6.490  1.6916 -2.5817  0.2484
 3864SOL    HW212413   4.771   3.193   6.371 -0.7353 -0.2454  2.6406
 3865SOL     OW12414   1.198   1.979   2.522 -0.2104 -0.2155  0.3409
 3865SOL    HW112415   1.278   1.968   2.581 -0.4756  0.4959  0.8419
 3865SOL    HW212416   1.205   1.917   2.444 -0.0699 -1.5317  1.3502
 3866SOL     OW12417   2.966   0.113   1.608  0.3788 -0.2374 -0.4048
 3866SOL    HW112418   3.016   0.050   1.549  2.1079  1.3735 -0.7419
 3866SOL    HW212419   2.934   0.192   1.555  0.5818  0.4680  0.4891
 3867SOL     OW12420   1.467   4.619   0.418  0.8993 -0.1127  0.2419
 3867SOL    HW112421   1.409   4.539   0.401 -0.5939  0.3007  2.9595
 3867SOL    HW212422   1.544   4.592   0.476  0.3912  0.3655  1.1656
 3868SOL     OW12423   5.167   3.356   5.833 -0.2489 -0.6414  0.0585
 3868SOL    HW112424   5.177   3.329   5.929 -0.0318  1.4742  0.6975
 3868SOL    HW212425   5.149   3.455   5.827 -0.5964 -0.7612 -2.0767
 3869SOL     OW12426   3.156   1.709   1.496  0.0803 -0.2004  0.4678
 3869SOL    HW112427   3.079   1.654   1.527  0.0295 -0.1862  0.3688
 3869SOL    HW212428   3.122   1.795   1.457  0.0558 -0.7899 -0.8489
 3870SOL     OW12429   1.418   6.129   5.209 -0.2208 -0.1873 -0.0057
 3870SOL    HW112430   1.383   6.156   5.299 -1.4243  1.3700 -0.8932
 3870SOL    HW212431   1.517   6.147   5.205 -0.4396  1.2536  0.4677
 3871SOL     OW12432   4.006   2.145   1.262 -0.1744 -0.2664 -0.9097
 3871SOL    HW112433   4.087   2.163   1.207  0.6047  0.1966  0.3560
 3871SOL    HW212434   3.933   2.111   1.203  1.5874 -2.7952 -1.8003
 3872SOL     OW12435   1.122   2.901   1.257  0.3143 -0.2891  0.3350
 3872SOL    HW112436   1.209   2.918   1.212 -0.5991  2.7891 -0.5094
 3872SOL    HW212437   1.069   2.834   1.204  0.5285  0.9336 -1.5302
 3873SOL     OW12438   6.359   6.560   4.079 -0.1911 -0.5839  0.2187
 3873SOL    HW112439   6.416   6.511   4.012 -0.4817 -0.2948 -0.2428
 3873SOL    HW212440   6.277   6.595   4.034  0.9777  2.1411  0.0446
 3874SOL     OW12441   2.113   2.783   1.051 -0.0778  0.3756  0.2973
 3874SOL    HW112442   2.020   2.761   1.082  0.5241  2.2399  3.9540
 3874SOL    HW212443   2.164   2.698   1.037 -1.0828 -0.7304  2.6855
 3875SOL     OW12444   5.807   1.851   0.841  0.5946 -0.2295  0.1626
 3875SOL    HW112445   5.806   1.803   0.929 -0.3414 -1.0336 -0.2836
 3875SOL    HW212446   5.827   1.787   0.768  0.4927  0.2695 -0.3114
 3876SOL     OW12447   0.883   3.445   2.346 -0.5196  0.1782  0.2573
 3876SOL    HW112448   0.817   3.369   2.347  0.4461 -0.6844  0.4786
 3876SOL    HW212449   0.976   3.408   2.342 -0.0191  1.3592  0.5425
 3877SOL     OW12450   3.964   5.722   1.846 -0.5097 -0.2137  0.4428
 3877SOL    HW112451   3.957   5.658   1.923  3.4133  0.8355  1.9203
 3877SOL    HW212452   3.961   5.672   1.760 -1.1514 -1.9030  1.4009
 3878SOL     OW12453   5.459   5.938   2.068 -0.2135 -0.0564  0.6470
 3878SOL    HW112454   5.366   5.975   2.066  0.2992  1.3083  0.9539
 3878SOL    HW212455   5.472   5.876   1.991 -0.9211  0.8709 -0.2462
 3879SOL     OW12456   6.996   5.270   3.659 -0.3753  0.1369 -0.5424
 3879SOL    HW112457   7.021   5.357   3.703 -0.2482 -1.2322  2.3172
 3879SOL    HW212458   7.079   5.223   3.630 -0.0287 -1.1344  2.3079
 3880SOL     OW12459   1.464   3.961   0.827 -0.1128 -0.0588  0.4371
 3880SOL    HW112460   1.397   4.034   0.813  0.9309  0.4402 -2.6928
 3880SOL    HW212461   1.553   4.000   0.849  0.4863 -0.2657 -1.3956
 3881SOL     OW12462   1.822   4.645   4.308  0.3110  0.1948  0.5706
 3881SOL    HW112463   1.800   4.688   4.220 -1.3925  0.5875  1.1413
 3881SOL    HW212464   1.913   4.605   4.304  0.0626 -0.2736 -1.5556
 3882SOL     OW12465   6.731   6.768   6.352 -0.2685 -0.0793  0.0189
 3882SOL    HW112466   6.648   6.712   6.358 -0.7036  0.5619  0.0604
 3882SOL    HW212467   6.805   6.712   6.314 -0.8435 -0.5251 -0.4831
 3883SOL     OW12468   2.676   2.675   1.037 -0.7635 -0.1671  0.1348
 3883SOL    HW112469   2.604   2.715   1.094  0.6802  0.0904  1.8654
 3883SOL    HW212470   2.636   2.605   0.978 -2.5748  0.6156  0.3440
 3884SOL     OW12471   0.163   5.057   6.584  0.1762  0.0100  0.1123
 3884SOL    HW112472   0.118   5.049   6.672  3.0006 -2.8515  1.4835
 3884SOL    HW212473   0.099   5.034   6.511 -1.2884 -1.0691  1.6698
 3885SOL     OW12474   4.583   3.340   6.593  0.0173  0.3224 -0.0010
 3885SOL    HW112475   4.533   3.257   6.619 -2.3304  1.8437  0.5643
 3885SOL    HW212476   4.530   3.391   6.525  0.9491  1.8330  0.3593
 3886SOL     OW12477   5.951   5.205   6.627 -0.4367 -0.3169 -0.4507
 3886SOL    HW112478   5.855   5.177   6.632 -0.5643  0.1707 -0.1794
 3886SOL    HW212479   6.008   5.135   6.670 -0.5233 -1.3147 -1.8829
 3887SOL     OW12480   0.731   4.553   6.888 -0.0667 -0.5065  0.1064
 3887SOL    HW112481   0.763   4.646   6.907  2.7394 -1.0290 -1.3856
 3887SOL    HW212482   0.666   4.555   6.812 -0.8814  0.3074  0.8007
 3888SOL     OW12483   2.420   0.910   1.449  0.2788 -0.4040  0.0292
 3888SOL    HW112484   2.342   0.968   1.424  0.5808  0.0190  0.0682
 3888SOL    HW212485   2.387   0.820   1.476 -0.1441 -0.4632 -0.6811
 3889SOL     OW12486   4.484   1.162   4.071 -0.0328 -0.5216 -0.5530
 3889SOL    HW112487   4.457   1.258   4.067  1.7976  0.1102  0.5954
 3889SOL    HW212488   4.485   1.123   3.979  0.4923  0.9704 -1.2137
 3890SOL     OW12489   3.538   6.642   6.575  0.4060 -0.2421 -0.2669
 3890SOL    HW112490   3.462   6.707   6.574 -1.0834 -1.5073  4.3468
 3890SOL    HW212491   3.623   6.691   6.600  0.6768  0.7562 -2.8754
 3891SOL     OW12492   3.955   2.018   2.962  0.0617  0.3733  0.1223
 3891SOL    HW112493   3.906   2.101   2.939 -0.9907 -0.2996 -0.1407
 3891SOL    HW212494   3.916   1.941   2.911  0.7822 -0.3394  0.6172
 3892SOL     OW12495   1.165   5.308   3.979  0.0148 -0.1824  0.1410
 3892SOL    HW112496   1.117   5.396   3.976  1.7995  0.9141  1.0940
 3892SOL    HW212497   1.226   5.300   3.900  0.4600 -0.1636  0.4733
 3893SOL     OW12498   2.146   3.156   5.445  0.1153 -0.2746  0.6885
 3893SOL    HW112499   2.148   3.074   5.387 -0.2771  0.3816 -0.2785
 3893SOL    HW212500   2.236   3.170   5.485  0.3106 -0.9139  0.4854
 3894SOL     OW12501   4.078   5.514   2.317 -0.0805  0.1395  0.3767
 3894SOL    HW112502   4.015   5.551   2.249 -2.3004 -1.8398  1.2100
 3894SOL    HW212503   4.063   5.415   2.325  1.8300 -0.0804  2.0121
 3895SOL     OW12504   5.990   0.167   4.410 -0.2898  0.4903 -0.1250
 3895SOL    HW112505   6.041   0.217   4.340 -0.5601  1.5671  0.4168
 3895SOL    HW212506   5.893   0.191   4.404 -0.5336 -0.5016 -0.2883
 3896SOL     OW12507   6.485   3.589   0.426 -0.3344 -0.2269  0.8252
 3896SOL    HW112508   6.467   3.674   0.377 -0.0496  0.5264  1.9515
 3896SOL    HW212509   6.582   3.567   0.420 -0.0900  0.4705  1.9333
 3897SOL     OW12510   1.656   1.572   6.854 -0.1469  0.1513 -0.7131
 3897SOL    HW112511   1.570   1.521   6.853 -0.1296 -0.0069  1.5316
 3897SOL    HW212512   1.658   1.633   6.932  0.3272  2.8779 -2.7304
 3898SOL     OW12513   6.276   3.641   2.681 -0.9796 -0.1178 -0.0323
 3898SOL    HW112514   6.285   3.731   2.640 -1.6559 -0.1961 -0.3513
 3898SOL    HW212515   6.339   3.577   2.636 -0.5813  0.1576  0.1202
 3899SOL     OW12516   1.170   3.020   4.628  0.1128 -0.2160 -0.1553
 3899SOL    HW112517   1.113   3.004   4.708 -0.3672 -0.2250 -0.4975
 3899SOL    HW212518   1.266   3.006   4.652  0.1064  1.2487  0.8095
 3900SOL     OW12519   5.426   4.000   1.519  0.0708  0.7190 -0.0225
 3900SOL    HW112520   5.341   3.985   1.468  0.5467  2.8470 -1.5372
 3900SOL    HW212521   5.495   3.935   1.489 -0.1813  0.8278 -0.9014
 3901SOL     OW12522   0.321   0.026   1.420  0.1773 -0.0560 -0.0332
 3901SOL    HW112523   0.228  -0.001   1.446  0.3703 -0.8931 -0.1787
 3901SOL    HW212524   0.326   0.038   1.321  0.6823 -1.9963 -0.2923
 3902SOL     OW12525   0.587   6.764   6.813  0.7145  0.0592  0.2330
 3902SOL    HW112526   0.515   6.826   6.841 -0.3936  0.3926 -2.9820
 3902SOL    HW212527   0.666   6.816   6.780  1.0633 -0.2858  0.5044
 3903SOL     OW12528   0.577   5.780   3.327 -0.3542 -0.4239 -0.3928
 3903SOL    HW112529   0.493   5.788   3.382 -0.6340  1.4585 -1.0167
 3903SOL    HW212530   0.606   5.685   3.325 -2.4296 -1.1247 -0.0878
 3904SOL     OW12531   6.762   4.527   1.323 -0.6589 -0.4380  0.2143
 3904SOL    HW112532   6.794   4.590   1.252  1.9467 -1.0563  0.7212
 3904SOL    HW212533   6.740   4.579   1.406  0.6365 -0.0492  0.3468
 3905SOL     OW12534   3.798   2.594   6.845  0.1591  0.1157 -0.4608
 3905SOL    HW112535   3.824   2.667   6.783 -3.6045  0.7317 -1.5699
 3905SOL    HW212536   3.850   2.601   6.930  1.6598  2.4882 -1.4944
 3906SOL     OW12537   3.111   0.234   1.809 -0.2988 -0.2796 -0.2567
 3906SOL    HW112538   3.046   0.212   1.736 -2.0665 -0.4278  1.2826
 3906SOL    HW212539   3.187   0.169   1.806  0.0245  0.1274 -2.3415
 3907SOL     OW12540   2.243   0.529   2.466  0.3215  0.3977  0.0052
 3907SOL    HW112541   2.269   0.435   2.443  1.8635  1.2020 -1.7848
 3907SOL    HW212542   2.293   0.559   2.547  0.1022 -0.1795  0.3636
 3908SOL     OW12543   6.616   3.469   5.376  0.7068  0.0529 -0.5887
 3908SOL    HW112544   6.674   3.388   5.364 -0.2414 -0.6190 -0.7608
 3908SOL    HW212545   6.542   3.468   5.308 -1.3832 -0.8102  1.5617
 3909SOL     OW12546   3.630   5.776   4.884  0.3309  0.1047 -0.2407
 3909SOL    HW112547   3.610   5.792   4.788  0.7697 -1.3300 -0.5931
 3909SOL    HW212548   3.672   5.686   4.895 -2.3749 -1.0690  1.6233
 3910SOL     OW12549   3.559   1.393   6.414 -0.4098  0.1466 -0.2465
 3910SOL    HW112550   3.531   1.412   6.508  2.0541  0.1476  0.5577
 3910SOL    HW212551   3.561   1.479   6.362 -1.8928  0.1318 -0.4004
 3911SOL     OW12552   6.339   1.708   3.103  0.3070  0.0717  0.2792
 3911SOL    HW112553   6.365   1.630   3.046  0.1103 -0.5518  1.0276
 3911SOL    HW212554   6.293   1.776   3.047 -1.0031 -1.0733 -0.1257
 3912SOL     OW12555   0.998   0.550   0.014 -0.4330 -0.5199  0.4156
 3912SOL    HW112556   1.050   0.502   0.085 -1.6499  0.3345  1.9197
 3912SOL    HW212557   1.035   0.642   0.003 -0.9486 -0.2796  0.6951
 3913SOL     OW12558   2.466   0.195   3.038  0.6967 -1.0007  0.1722
 3913SOL    HW112559   2.415   0.271   3.077  1.5765  0.1440 -0.8308
 3913SOL    HW212560   2.419   0.109   3.059 -1.2596 -0.0677 -0.1389
 3914SOL     OW12561   6.329   1.505   6.570  0.1222 -0.4320  0.1666
 3914SOL    HW112562   6.409   1.518   6.512  0.6730 -1.4919  0.6503
 3914SOL    HW212563   6.348   1.539   6.662  0.4895 -1.7522  0.6137
 3915SOL     OW12564   3.362   3.805   1.722 -0.1361 -0.1747  0.3686
 3915SOL    HW112565   3.365   3.716   1.767  0.3779  0.1791  1.0720
 3915SOL    HW212566   3.305   3.868   1.775  1.8455  0.7496  1.5599
 3916SOL     OW12567   3.652   0.597   4.433  0.1678  0.0598 -0.0496
 3916SOL    HW112568   3.714   0.519   4.439  0.4202  0.3654  2.4917
 3916SOL    HW212569   3.583   0.589   4.505  0.8653  2.6913  1.0043
 3917SOL     OW12570   5.347   6.461   5.189 -0.5996  0.1944 -0.1062
 3917SOL    HW112571   5.350   6.472   5.289  1.8896  1.9676 -0.2910
 3917SOL    HW212572   5.423   6.403   5.160 -1.5810 -0.6991 -0.9860
 3918SOL     OW12573   1.899   1.741   1.773  0.3219  0.2146 -0.2040
 3918SOL    HW112574   1.875   1.818   1.831  2.3493  0.9253 -0.2016
 3918SOL    HW212575   1.890   1.656   1.825 -1.2843  0.4863  0.0006
 3919SOL     OW12576   2.470   1.377   3.456  0.3318  0.3963  0.1175
 3919SOL    HW112577   2.566   1.397   3.474  0.6032 -1.7494  1.3722
 3919SOL    HW212578   2.453   1.383   3.357  1.9785 -0.0565 -0.2164
 3920SOL     OW12579   4.838   2.435   6.156  0.2711  0.1267 -0.1898
 3920SOL    HW112580   4.812   2.488   6.075 -1.4884  0.5557  0.5909
 3920SOL    HW212581   4.929   2.462   6.186  1.4114 -0.7737 -2.5772
 3921SOL     OW12582   5.881   2.095   6.719  0.1264  0.3445  0.0537
 3921SOL    HW112583   5.791   2.124   6.751  0.5236 -1.1379  2.8249
 3921SOL    HW212584   5.940   2.078   6.797  2.3210 -0.3407 -1.6550
 3922SOL     OW12585   1.484   3.394   0.069  0.2504 -0.3144 -1.3500
 3922SOL    HW112586   1.569   3.342   0.077 -1.1927 -2.9450 -2.1831
 3922SOL    HW212587   1.439   3.399   0.158 -0.1757 -1.6542 -1.4535
 3923SOL     OW12588   6.461   2.512   1.240 -0.0581  0.1304 -0.2059
 3923SOL    HW112589   6.414   2.580   1.183  1.8412  0.8451 -0.9930
 3923SOL    HW212590   6.415   2.506   1.329 -0.9522  1.6062 -0.5305
 3924SOL     OW12591   2.369   2.823   0.845 -0.6847  0.4467  0.6846
 3924SOL    HW112592   2.344   2.788   0.755 -0.5228  0.2078  0.7273
 3924SOL    HW212593   2.373   2.747   0.910  2.4696  0.0607  0.2112
 3925SOL     OW12594   2.343   0.996   2.787 -0.2662 -0.5022 -0.2332
 3925SOL    HW112595   2.432   1.033   2.814  0.1710 -1.3299 -0.4629
 3925SOL    HW212596   2.277   1.070   2.778  0.1909  0.0570  0.6985
 3926SOL     OW12597   1.380   0.764   6.156  0.5609  0.6962  0.8234
 3926SOL    HW112598   1.312   0.693   6.177 -0.0507  0.8509 -0.4823
 3926SOL    HW212599   1.424   0.795   6.240 -0.7082  0.3000  1.6565
 3927SOL     OW12600   0.654   5.752   6.499 -0.1318  0.3587 -0.0070
 3927SOL    HW112601   0.650   5.702   6.586 -0.7339  0.1824 -0.1378
 3927SOL    HW212602   0.735   5.723   6.448 -1.3174 -1.6419 -0.7891
 3928SOL     OW12603   6.458   5.756   3.390  0.3383 -0.4203 -0.6546
 3928SOL    HW112604   6.541   5.712   3.358 -0.0139  0.4928 -3.0514
 3928SOL    HW212605   6.419   5.704   3.466  0.4619 -3.6659 -2.6318
 3929SOL     OW12606   5.231   0.678   4.948 -0.1049 -0.1119 -0.4416
 3929SOL    HW112607   5.240   0.592   4.998 -0.7573 -0.1511 -0.3841
 3929SOL    HW212608   5.210   0.659   4.852 -1.1959 -0.0118 -0.2367
 3930SOL     OW12609   5.626   4.579   5.804 -0.3306 -0.0810  0.5373
 3930SOL    HW112610   5.678   4.633   5.870 -0.1411 -0.9644  1.1324
 3930SOL    HW212611   5.629   4.482   5.831  0.6348 -0.6121 -1.3312
 3931SOL     OW12612   2.228   4.070   6.229  0.0956  0.2235  0.3898
 3931SOL    HW112613   2.158   4.123   6.277 -1.3649 -1.5056  0.2876
 3931SOL    HW212614   2.201   4.056   6.134 -0.7578 -2.5257  0.9383
 3932SOL     OW12615   6.615   4.291   0.154 -0.1758  0.4275  0.0791
 3932SOL    HW112616   6.584   4.272   0.247 -1.0424 -0.1273 -0.3064
 3932SOL    HW212617   6.678   4.368   0.155  0.3568  0.0055  1.2035
 3933SOL     OW12618   6.838   3.370   0.822  0.3780 -0.0566  0.3464
 3933SOL    HW112619   6.868   3.418   0.905 -0.9659  0.2352  0.6964
 3933SOL    HW212620   6.914   3.365   0.757  1.6481 -0.8455  1.8185
 3934SOL     OW12621   0.791   3.270   3.112  0.2033 -0.1192 -0.1855
 3934SOL    HW112622   0.776   3.355   3.163 -0.6859 -0.6334  0.4239
 3934SOL    HW212623   0.719   3.259   3.044  0.6460 -0.1019 -0.6670
 3935SOL     OW12624   3.340   5.009   6.056 -0.6647  0.1405 -0.2402
 3935SOL    HW112625   3.256   4.962   6.025 -1.1660  0.8910 -0.0390
 3935SOL    HW212626   3.335   5.024   6.154 -0.7123  1.0443 -0.3795
 3936SOL     OW12627   1.829   4.474   2.114  0.1607  0.5162  0.7364
 3936SOL    HW112628   1.889   4.538   2.065  1.9328 -0.9946  0.8482
 3936SOL    HW212629   1.864   4.461   2.207 -0.0746 -0.7341  0.6603
 3937SOL     OW12630   4.189   1.418   4.300 -0.4376  0.2640 -0.2394
 3937SOL    HW112631   4.233   1.480   4.364  0.2710 -0.8943  0.4289
 3937SOL    HW212632   4.199   1.324   4.332 -1.1544 -0.2396 -1.4159
 3938SOL     OW12633   5.532   4.087   2.068 -0.4147 -0.2416 -0.3914
 3938SOL    HW112634   5.612   4.115   2.121  0.6905 -1.5502 -1.2703
 3938SOL    HW212635   5.496   4.165   2.017  0.9540  0.1704 -0.7749
 3939SOL     OW12636   0.416   5.065   0.403  0.0146  0.0333  0.3497
 3939SOL    HW112637   0.356   5.141   0.428  2.1759  1.7571  0.6095
 3939SOL    HW212638   0.430   5.066   0.304 -0.5960 -0.5702  0.2480
 3940SOL     OW12639   4.053   6.888   4.137 -0.3385  0.3557  0.4751
 3940SOL    HW112640   3.959   6.892   4.101 -0.7325 -0.4130  1.3716
 3940SOL    HW212641   4.084   6.980   4.159  0.1560  0.9613 -2.3427
 3941SOL     OW12642   2.183   5.693   3.980 -0.1624 -0.6207 -0.4926
 3941SOL    HW112643   2.096   5.645   3.993  0.1024 -0.7953  0.8047
 3941SOL    HW212644   2.165   5.790   3.965 -0.5483 -0.3233  1.6397
 3942SOL     OW12645   6.138   2.861   4.583 -0.1543  0.2444 -0.1930
 3942SOL    HW112646   6.216   2.923   4.594 -1.1611  1.3474  1.1172
 3942SOL    HW212647   6.155   2.799   4.507  0.7538  2.4004 -1.8591
 3943SOL     OW12648   1.990   0.013   4.511 -0.1544  0.1980  0.3183
 3943SOL    HW112649   2.087   0.006   4.535 -0.4751 -0.1758  1.6454
 3943SOL    HW212650   1.945   0.076   4.574 -0.8852 -0.1519  0.1695
 3944SOL     OW12651   0.130   5.106   5.154  0.4459  0.5969 -0.3628
 3944SOL    HW112652   0.078   5.046   5.092 -0.4920  0.5832  0.4321
 3944SOL    HW212653   0.110   5.201   5.133  2.6887  0.7216 -2.2926
 3945SOL     OW12654   0.147   3.127   1.867 -0.0954  0.2622 -0.0626
 3945SOL    HW112655   0.079   3.149   1.937  1.0642  1.3613  0.7498
 3945SOL    HW212656   0.225   3.188   1.876  0.1109  0.3988 -2.3198
 3946SOL     OW12657   4.333   2.038   6.308 -0.1154  0.6238  0.5212
 3946SOL    HW112658   4.392   1.966   6.343 -3.0233 -2.5502 -0.5988
 3946SOL    HW212659   4.351   2.052   6.210 -2.5443 -2.0699 -0.4397
 3947SOL     OW12660   3.783   4.266   6.784 -0.0655 -0.0236  0.0160
 3947SOL    HW112661   3.748   4.174   6.801 -0.9054  0.3027  0.0819
 3947SOL    HW212662   3.872   4.260   6.740  0.6460 -0.8823  1.4845
 3948SOL     OW12663   2.854   0.319   6.985  0.1501 -0.6570  0.1701
 3948SOL    HW112664   2.813   0.404   6.953  2.9372  0.5582 -0.4641
 3948SOL    HW212665   2.787   0.245   6.979 -1.8488  1.1489 -0.8520
 3949SOL     OW12666   4.353   3.074   2.285 -0.0729  0.1663 -0.1805
 3949SOL    HW112667   4.331   3.048   2.191  0.0539 -1.1761  0.1291
 3949SOL    HW212668   4.329   2.998   2.346  1.5828  0.2680  0.6394
 3950SOL     OW12669   6.106   4.382   1.066 -0.2693 -0.1923  0.2590
 3950SOL    HW112670   6.182   4.345   1.013  1.7741  1.6181  1.7095
 3950SOL    HW212671   6.128   4.376   1.164 -1.9663  0.4841  0.7228
 3951SOL     OW12672   4.773   0.214   5.898 -0.2853 -0.0416 -0.1064
 3951SOL    HW112673   4.682   0.206   5.857 -0.6669  0.9715  0.4844
 3951SOL    HW212674   4.832   0.268   5.839 -0.5613  0.6598  0.2518
 3952SOL     OW12675   4.003   5.200   6.150  0.4460  0.1743 -0.3566
 3952SOL    HW112676   4.026   5.227   6.243  0.1221  0.8481 -0.4604
 3952SOL    HW212677   3.904   5.202   6.138  0.3569 -1.8287 -0.1634
 3953SOL     OW12678   4.931   5.418   4.741  0.4914  0.4288  0.1963
 3953SOL    HW112679   4.850   5.392   4.794 -0.9502  2.9792 -0.5827
 3953SOL    HW212680   5.013   5.407   4.797 -0.5566 -0.6844  1.5738
 3954SOL     OW12681   3.272   3.257   0.904  0.8975  0.5192  0.4337
 3954SOL    HW112682   3.241   3.265   0.809  0.5084 -1.1215  0.3855
 3954SOL    HW212683   3.198   3.284   0.965  0.0522 -1.2534  0.2775
 3955SOL     OW12684   3.239   1.321   0.254  0.3483  0.5072 -0.2557
 3955SOL    HW112685   3.335   1.324   0.226  0.2443  0.2769 -0.6441
 3955SOL    HW212686   3.189   1.256   0.197  0.1015  0.1296  0.3732
 3956SOL     OW12687   1.755   6.942   5.521 -0.2404 -0.0333  0.0611
 3956SOL    HW112688   1.700   6.911   5.598  0.2914 -1.5104 -0.1301
 3956SOL    HW212689   1.848   6.962   5.551 -0.3341  0.5449  0.0032
 3957SOL     OW12690   1.649   1.639   6.060  0.3139 -0.8905 -0.4635
 3957SOL    HW112691   1.563   1.641   6.009  0.8816 -0.3779 -1.4126
 3957SOL    HW212692   1.726   1.640   5.996  1.0781  1.2835  0.4136
 3958SOL     OW12693   5.987   1.151   5.084  0.6939  0.3618 -0.0834
 3958SOL    HW112694   6.053   1.154   5.159 -1.0530  0.1454  1.5287
 3958SOL    HW212695   5.899   1.118   5.118 -0.6444  1.8730 -1.8587
 3959SOL     OW12696   4.713   0.668   3.524  0.1150  1.2294 -0.1347
 3959SOL    HW112697   4.788   0.656   3.590 -0.2111  0.9665  0.1928
 3959SOL    HW212698   4.704   0.765   3.502 -0.2239  1.4137  0.7570
 3960SOL     OW12699   0.340   6.885   6.837 -0.4913  0.2138  0.0663
 3960SOL    HW112700   0.277   6.819   6.796 -1.8238  0.1130  2.1483
 3960SOL    HW212701   0.299   6.926   6.918  2.1252  0.1533  1.5591
 3961SOL     OW12702   2.788   5.695   2.660 -0.6937  0.0556  0.1400
 3961SOL    HW112703   2.737   5.612   2.636  0.1707 -0.1621 -1.0377
 3961SOL    HW212704   2.880   5.689   2.622  0.3796  0.2775  2.5031
 3962SOL     OW12705   4.710   6.295   2.545  0.0880  0.3173  0.3673
 3962SOL    HW112706   4.740   6.386   2.518  0.9633 -0.3568 -1.0242
 3962SOL    HW212707   4.780   6.254   2.605  0.0411  0.2824  0.3982
 3963SOL     OW12708   1.465   4.863   2.673 -0.3898 -0.1932  0.3964
 3963SOL    HW112709   1.394   4.864   2.603 -1.4055  1.6982  1.3576
 3963SOL    HW212710   1.538   4.927   2.648  0.5712 -1.4642 -0.1596
 3964SOL     OW12711   3.858   6.569   5.781 -0.0054  0.2557  0.3794
 3964SOL    HW112712   3.798   6.649   5.793  0.4659  0.7944 -0.7789
 3964SOL    HW212713   3.879   6.557   5.684  0.6891 -0.7285  0.6400
 3965SOL     OW12714   6.381   5.570   6.042 -0.0332  0.0243  0.2480
 3965SOL    HW112715   6.384   5.643   6.110 -0.2592  0.5478 -0.2898
 3965SOL    HW212716   6.448   5.588   5.970  0.2379 -0.5432  0.3567
 3966SOL     OW12717   2.846   5.659   3.508  0.5957  0.1911  0.7386
 3966SOL    HW112718   2.933   5.612   3.491  0.1081  0.0861 -1.8442
 3966SOL    HW212719   2.865   5.753   3.538  1.5587 -0.2549  1.6181
 3967SOL     OW12720   0.735   5.896   6.859  0.4149  0.3563 -0.1016
 3967SOL    HW112721   0.810   5.846   6.815  0.6414  1.1248 -0.5910
 3967SOL    HW212722   0.669   5.924   6.790 -1.0248 -1.4509  0.4526
 3968SOL     OW12723   6.052   5.900   2.903  0.0033  0.7378  0.6358
 3968SOL    HW112724   6.005   5.910   2.991 -3.2348  0.0557 -0.8948
 3968SOL    HW212725   6.087   5.807   2.895 -2.1643 -0.0907  0.1582
 3969SOL     OW12726   3.336   5.915   0.062 -0.0540 -0.0816 -0.2790
 3969SOL    HW112727   3.317   5.817   0.053  3.4308 -0.9579  0.3676
 3969SOL    HW212728   3.383   5.947  -0.021  0.0522  0.7167  0.0756
 3970SOL     OW12729   5.970   2.916   3.918 -0.1766 -0.1860 -0.3163
 3970SOL    HW112730   6.012   2.987   3.862 -1.6991  0.4680 -0.6869
 3970SOL    HW212731   5.967   2.946   4.014  2.2580 -1.2250  0.1660
 3971SOL     OW12732   4.877   1.397   4.569 -0.1045 -0.4132 -0.8760
 3971SOL    HW112733   4.887   1.494   4.590  0.7432 -0.6132 -0.3323
 3971SOL    HW212734   4.797   1.361   4.615  0.4549 -0.3252  0.2016
 3972SOL     OW12735   3.961   4.017   6.425  0.3390 -0.0380 -0.1317
 3972SOL    HW112736   3.986   3.950   6.355  1.9714 -1.1346  1.4042
 3972SOL    HW212737   3.949   4.107   6.384 -1.8100 -1.1794 -2.2709
 3973SOL     OW12738   4.782   6.456   4.925 -0.5371 -0.2048 -0.2778
 3973SOL    HW112739   4.796   6.358   4.940 -0.5764 -0.0319  0.9544
 3973SOL    HW212740   4.812   6.506   5.006 -2.0597  0.6770 -0.2383
 3974SOL     OW12741   3.467   3.588   6.674 -0.4899  0.0256  0.0466
 3974SOL    HW112742   3.439   3.677   6.636 -1.3626 -0.4557 -0.4854
 3974SOL    HW212743   3.487   3.598   6.771  0.1037  0.9400 -0.1536
 3975SOL     OW12744   0.521   1.645   0.811  0.0480  0.1124 -0.3484
 3975SOL    HW112745   0.492   1.630   0.906 -0.0193 -1.5356 -0.5909
 3975SOL    HW212746   0.492   1.568   0.755 -0.2938  1.2736 -1.8227
 3976SOL     OW12747   3.015   6.657   3.484  0.3965 -0.0577  0.0190
 3976SOL    HW112748   2.922   6.692   3.480  0.3762 -0.2272 -3.3301
 3976SOL    HW212749   3.078   6.723   3.442  1.0072 -1.9242 -2.2656
 3977SOL     OW12750   3.515   2.305   2.464  0.0870 -0.7607 -0.3725
 3977SOL    HW112751   3.510   2.389   2.411 -1.9948 -0.6336 -0.0669
 3977SOL    HW212752   3.461   2.234   2.419  2.1289 -2.1302 -0.8536
 3978SOL     OW12753   1.680   5.607   3.738  0.5332 -0.2060 -0.3571
 3978SOL    HW112754   1.618   5.665   3.684  2.3832  0.1871 -2.1579
 3978SOL    HW212755   1.767   5.654   3.750  1.8804 -2.3634 -1.3353
 3979SOL     OW12756   3.082   5.132   0.666 -0.5160  0.2327 -0.2108
 3979SOL    HW112757   3.023   5.102   0.741 -1.3212  2.8151  0.2933
 3979SOL    HW212758   3.027   5.167   0.591  0.3325  0.4765 -0.7404
 3980SOL     OW12759   1.261   2.474   6.916  0.1196 -0.2287  0.1628
 3980SOL    HW112760   1.323   2.396   6.919 -1.9112 -1.8998  0.8890
 3980SOL    HW212761   1.188   2.457   6.849 -0.7863  0.6669  0.8753
 3981SOL     OW12762   3.180   3.722   3.534 -0.7030 -0.1631  0.0494
 3981SOL    HW112763   3.226   3.664   3.602 -2.0283  0.1552  1.2615
 3981SOL    HW212764   3.248   3.779   3.488  0.2845 -0.6509  0.8609
 3982SOL     OW12765   2.029   0.419   6.675  0.5683 -0.3104 -0.3632
 3982SOL    HW112766   1.999   0.504   6.630  0.8341  1.5229  2.6595
 3982SOL    HW212767   2.120   0.395   6.642  1.3685  1.7787  0.1836
 3983SOL     OW12768   1.642   1.958   6.484  0.4141 -0.3386  0.4793
 3983SOL    HW112769   1.724   1.923   6.530  1.0692  0.2004 -0.2601
 3983SOL    HW212770   1.587   1.882   6.450  1.4280 -0.6769 -0.4297
 3984SOL     OW12771   6.824   2.630   5.362 -0.1198  0.0136  0.5251
 3984SOL    HW112772   6.846   2.720   5.325  1.0685 -0.5271 -0.1274
 3984SOL    HW212773   6.804   2.639   5.460 -0.9963  1.1119  0.2670
 3985SOL     OW12774   1.537   2.176   4.202  0.9165 -0.5897 -0.5880
 3985SOL    HW112775   1.522   2.201   4.297 -0.5800  0.2042 -0.9992
 3985SOL    HW212776   1.490   2.090   4.183  0.4707 -0.3013 -0.8165
 3986SOL     OW12777   2.512   0.059   0.791  0.2974  0.5324 -0.0948
 3986SOL    HW112778   2.591   0.120   0.779  0.9700 -0.6146 -1.9412
 3986SOL    HW212779   2.489   0.053   0.888  0.8581  2.8633  0.2468
 3987SOL     OW12780   0.582   5.592   1.186 -0.6789 -0.1194  0.1662
 3987SOL    HW112781   0.593   5.493   1.201 -0.6557  0.1245  2.0417
 3987SOL    HW212782   0.660   5.640   1.224 -0.0872  0.5911 -1.8313
 3988SOL     OW12783   1.267   4.285   6.831  0.1204  0.0593 -0.3943
 3988SOL    HW112784   1.348   4.257   6.883  0.4298  0.5934 -0.5761
 3988SOL    HW212785   1.209   4.342   6.889  0.9196  1.4300 -0.8833
 3989SOL     OW12786   5.897   2.430   3.472 -0.5041 -0.2991  0.2563
 3989SOL    HW112787   5.942   2.415   3.560 -2.3178 -1.3172  1.0586
 3989SOL    HW212788   5.798   2.436   3.485 -0.6991  1.5209 -1.4874
 3990SOL     OW12789   2.817   6.722   1.644 -0.1257  0.3314 -0.0640
 3990SOL    HW112790   2.767   6.657   1.702  0.8447  0.2231  0.6636
 3990SOL    HW212791   2.810   6.692   1.548 -0.6217 -0.2193  0.1368
 3991SOL     OW12792   3.718   3.072   1.495  0.0337 -0.4760 -0.1552
 3991SOL    HW112793   3.631   3.036   1.462 -1.1141  2.3986 -0.5015
 3991SOL    HW212794   3.778   3.091   1.416 -0.5257  1.0678 -0.2425
 3992SOL     OW12795   3.346   6.744   6.160 -0.7090 -0.2142  0.8678
 3992SOL    HW112796   3.269   6.740   6.098 -0.6818  1.1229  0.7191
 3992SOL    HW212797   3.419   6.685   6.127 -1.1136 -0.3628  0.2298
 3993SOL     OW12798   3.190   1.084   5.677 -0.7080 -0.2023 -0.4033
 3993SOL    HW112799   3.278   1.130   5.673 -1.0823  0.9380  2.2209
 3993SOL    HW212800   3.204   0.985   5.681  0.4336 -0.0538 -0.4579
 3994SOL     OW12801   4.352   5.288   1.232 -0.1510  0.2288 -0.4812
 3994SOL    HW112802   4.381   5.363   1.173 -0.2016  1.5556  1.1350
 3994SOL    HW212803   4.373   5.310   1.327 -1.9341 -0.9609  0.2363
 3995SOL     OW12804   5.378   0.660   0.136 -0.1481 -0.6568 -0.2778
 3995SOL    HW112805   5.449   0.630   0.201  0.2727 -0.3176 -0.5792
 3995SOL    HW212806   5.406   0.745   0.092 -1.0763 -0.1309  0.1280
 3996SOL     OW12807   4.808   5.711   1.580 -0.2737  0.2843  0.6579
 3996SOL    HW112808   4.820   5.787   1.516 -1.5280  1.1448  1.4057
 3996SOL    HW212809   4.727   5.727   1.636 -1.0175 -1.9862  0.3198
 3997SOL     OW12810   4.169   0.691   0.964 -0.0533 -0.1017  0.1322
 3997SOL    HW112811   4.091   0.674   1.024 -0.3220 -0.6182 -0.3501
 3997SOL    HW212812   4.186   0.610   0.908  1.0190 -0.1033  0.4450
 3998SOL     OW12813   3.205   6.984   2.207 -0.0358  0.6334  0.6029
 3998SOL    HW112814   3.273   6.981   2.281 -0.4271  2.1119  1.0546
 3998SOL    HW212815   3.200   7.077   2.171 -1.1618  0.3024 -0.0493
 3999SOL     OW12816   2.785   6.142   5.994 -0.1542  0.4815  0.0785
 3999SOL    HW112817   2.839   6.194   5.928 -1.1617  1.8837  0.3040
 3999SOL    HW212818   2.765   6.052   5.957  0.7398  0.6152 -0.7950
 4000SOL     OW12819   0.735   2.543   3.916  0.2609 -0.3012  0.2176
 4000SOL    HW112820   0.661   2.610   3.902  0.4814 -0.5260 -2.4660
 4000SOL    HW212821   0.816   2.590   3.952  0.0979  0.7127 -0.7021
 4001SOL     OW12822   4.317   6.589   5.785  0.1977  0.1327  0.2514
 4001SOL    HW112823   4.259   6.587   5.704  1.9294 -0.3608 -1.0564
 4001SOL    HW212824   4.369   6.674   5.787  0.2434  0.1001  0.8072
 4002SOL     OW12825   1.704   5.209   3.105 -0.0079 -0.1909 -0.0028
 4002SOL    HW112826   1.711   5.301   3.067 -1.0544 -0.3621 -0.6726
 4002SOL    HW212827   1.780   5.192   3.168  0.8727  0.6896 -0.7924
 4003SOL     OW12828   1.478   4.890   3.951 -0.8785 -0.4866  0.3632
 4003SOL    HW112829   1.475   4.939   3.864 -1.6031 -2.8132 -1.0054
 4003SOL    HW212830   1.541   4.936   4.013  1.1488  0.2190 -2.0602
 4004SOL     OW12831   6.708   4.016   4.325  0.5065  0.0549 -0.0609
 4004SOL    HW112832   6.618   3.979   4.350  1.2440 -3.0649 -1.5388
 4004SOL    HW212833   6.719   4.107   4.365 -3.0294  0.2849  0.6795
 4005SOL     OW12834   4.304   3.908   1.247  0.4377 -0.3489  0.0153
 4005SOL    HW112835   4.293   3.841   1.174  1.2962  1.2545 -1.6516
 4005SOL    HW212836   4.397   3.902   1.283  0.0886 -0.9770  0.8473
 4006SOL     OW12837   6.785   4.513   0.165  0.0055 -0.1768  0.1006
 4006SOL    HW112838   6.696   4.557   0.163 -0.0785 -0.2701  1.2101
 4006SOL    HW212839   6.851   4.568   0.114 -0.7165 -0.2215 -0.9334
 4007SOL     OW12840   0.549   0.458   2.901  0.3154  0.8904  0.1137
 4007SOL    HW112841   0.547   0.424   2.807 -0.3128 -2.5225  1.1879
 4007SOL    HW212842   0.642   0.486   2.924  1.2250 -1.2271 -0.6902
 4008SOL     OW12843   3.888   1.326   5.413 -0.5798  0.1292  0.0455
 4008SOL    HW112844   3.894   1.229   5.391  0.3762  0.1684  0.1112
 4008SOL    HW212845   3.823   1.370   5.351 -2.2838 -0.8438  1.0670
 4009SOL     OW12846   2.355   5.414   2.635 -0.1324 -1.1793  0.1192
 4009SOL    HW112847   2.407   5.329   2.642 -0.4910 -1.3071  1.5003
 4009SOL    HW212848   2.330   5.446   2.726  0.1059  0.4960 -0.3603
 4010SOL     OW12849   2.248   4.682   4.151 -0.5597  0.3143 -0.3728
 4010SOL    HW112850   2.288   4.591   4.149  2.2443  1.4198 -0.0043
 4010SOL    HW212851   2.274   4.732   4.068 -1.2479  1.0672 -0.1517
 4011SOL     OW12852   4.987   1.351   5.223  0.8145 -0.4466 -0.0110
 4011SOL    HW112853   4.932   1.269   5.235 -0.2893  0.0456 -1.3999
 4011SOL    HW212854   5.068   1.329   5.168  0.5419 -0.6306 -0.3470
 4012SOL     OW12855   2.842   3.391   0.923 -0.0962  0.2339 -0.2649
 4012SOL    HW112856   2.750   3.355   0.939  0.0403  0.6426  1.6357
 4012SOL    HW212857   2.898   3.380   1.005  1.5484  0.1056 -1.3441
 4013SOL     OW12858   2.631   4.785   4.760  0.1199 -0.1858 -0.2124
 4013SOL    HW112859   2.697   4.798   4.686  0.7094 -0.3975  0.2662
 4013SOL    HW212860   2.614   4.687   4.773  1.1580 -0.2484  0.8966
 4014SOL     OW12861   3.340   2.485   6.713 -0.2415  0.4905 -0.3965
 4014SOL    HW112862   3.312   2.453   6.803  0.1476 -0.4653 -0.5974
 4014SOL    HW212863   3.400   2.564   6.723 -1.3558  1.2957  0.1103
 4015SOL     OW12864   1.064   4.763   4.502 -0.3021 -0.3751 -0.5677
 4015SOL    HW112865   0.986   4.779   4.442  0.2499 -0.1861 -1.2590
 4015SOL    HW212866   1.056   4.818   4.585 -0.4287  0.3599 -1.0632
 4016SOL     OW12867   5.296   5.776   2.260 -0.2465  0.1050  0.3780
 4016SOL    HW112868   5.204   5.743   2.237 -0.5042  0.2498  1.1615
 4016SOL    HW212869   5.313   5.863   2.215  0.1482 -0.6970 -1.1005
 4017SOL     OW12870   1.907   4.981   0.321 -0.2604  0.1051 -0.4936
 4017SOL    HW112871   1.914   4.927   0.237 -0.6405 -0.1366 -0.3696
 4017SOL    HW212872   1.830   5.045   0.313 -0.7816 -0.4587 -0.0103
 4018SOL     OW12873   0.013   1.749   0.881 -0.0009 -0.4061  0.1610
 4018SOL    HW112874  -0.065   1.726   0.822 -0.5704 -0.0921  0.7620
 4018SOL    HW212875   0.016   1.686   0.958  0.4010 -0.4412  0.1231
 4019SOL     OW12876   1.812   7.016   1.011  0.2671 -0.4370  0.4434
 4019SOL    HW112877   1.897   6.989   0.967  0.7356  0.2760  0.8939
 4019SOL    HW212878   1.750   6.937   1.015  0.1360 -0.4683 -1.5908
 4020SOL     OW12879   6.030   1.194   0.737  0.2049  0.4795  0.3302
 4020SOL    HW112880   5.943   1.242   0.725  0.4227  0.8007  0.0467
 4020SOL    HW212881   6.012   1.096   0.750 -0.0964  0.1719 -1.9436
 4021SOL     OW12882   0.382   0.110   2.894 -0.2204 -0.6670 -0.0080
 4021SOL    HW112883   0.372   0.128   2.991  0.3069  0.6601 -0.1834
 4021SOL    HW212884   0.464   0.055   2.878 -1.2000 -2.3106  0.4244
 4022SOL     OW12885   6.753   0.977   5.040  0.3255 -0.5990  0.2298
 4022SOL    HW112886   6.738   0.880   5.059 -1.9726 -0.6002 -1.2213
 4022SOL    HW212887   6.776   0.989   4.944 -1.1215  0.4116 -0.0160
 4023SOL     OW12888   1.357   2.318   3.847  0.8919 -0.5601  0.4711
 4023SOL    HW112889   1.368   2.227   3.807  2.5562 -0.1542 -0.0607
 4023SOL    HW212890   1.311   2.378   3.782  0.4270 -0.8235  0.5506
 4024SOL     OW12891   4.640   2.437   6.339  0.5576 -0.6571 -0.3039
 4024SOL    HW112892   4.709   2.439   6.267  1.2537 -1.1199  0.3236
 4024SOL    HW212893   4.668   2.497   6.414 -0.0829 -0.2941 -0.3539
 4025SOL     OW12894   0.177   6.477   5.708  0.3941  0.9894 -0.1210
 4025SOL    HW112895   0.140   6.384   5.719 -0.0182  1.1598 -0.0683
 4025SOL    HW212896   0.186   6.498   5.611 -1.2185  1.5582 -0.1833
 4026SOL     OW12897   3.528   4.195   5.088  0.8805  0.1412  0.2223
 4026SOL    HW112898   3.483   4.184   5.176  0.7241  1.8227  0.3706
 4026SOL    HW212899   3.561   4.106   5.056 -3.1566 -1.3495 -0.2391
 4027SOL     OW12900   2.791   6.679   1.155  0.0112 -0.6077 -0.3939
 4027SOL    HW112901   2.845   6.754   1.192 -1.5153 -0.3431  1.4158
 4027SOL    HW212902   2.709   6.715   1.112  1.3391 -0.9777 -3.5078
 4028SOL     OW12903   0.306   6.403   2.144  0.3886 -0.0019 -0.2223
 4028SOL    HW112904   0.318   6.394   2.045  1.0183 -0.1119 -0.1438
 4028SOL    HW212905   0.396   6.404   2.188  0.1173 -2.0321  0.5239
 4029SOL     OW12906   4.094   3.318   1.710  0.6399 -0.6727  0.0042
 4029SOL    HW112907   4.179   3.356   1.746 -0.5440  1.2090  0.9644
 4029SOL    HW212908   4.046   3.268   1.783  0.6897 -1.3519 -0.4164
 4030SOL     OW12909   3.009   1.632   5.287 -0.7001 -0.3682  0.4726
 4030SOL    HW112910   3.085   1.577   5.254  1.7914  2.8155  0.3670
 4030SOL    HW212911   2.937   1.636   5.218  0.3055 -1.2218 -0.6651
 4031SOL     OW12912   3.014   1.069   4.934  0.2950  0.6753  0.2615
 4031SOL    HW112913   2.960   1.015   4.999 -0.6387  0.1559 -0.9039
 4031SOL    HW212914   2.999   1.166   4.950 -1.6130  0.5423 -0.5034
 4032SOL     OW12915   2.509   5.841   1.796  0.4076 -0.0171 -0.7870
 4032SOL    HW112916   2.446   5.913   1.827  0.0873 -0.4615 -0.3927
 4032SOL    HW212917   2.598   5.855   1.839  0.1327 -0.2841 -0.0965
 4033SOL     OW12918   1.265   1.193   1.595  0.1045  0.6448  0.4071
 4033SOL    HW112919   1.238   1.097   1.596 -0.1634  0.7173  0.8204
 4033SOL    HW212920   1.343   1.206   1.535  1.5329 -0.2129  1.9918
 4034SOL     OW12921   0.287   1.355   4.792 -0.0925  0.5807  0.1760
 4034SOL    HW112922   0.204   1.408   4.774 -0.4189 -0.1575 -0.5668
 4034SOL    HW212923   0.347   1.359   4.713 -0.1348 -0.1815  0.0985
 4035SOL     OW12924   6.621   2.410   1.650 -0.2255  0.4289  0.0025
 4035SOL    HW112925   6.550   2.469   1.687 -2.0083 -1.0529 -0.8799
 4035SOL    HW212926   6.611   2.317   1.687  0.9254  0.0514 -0.5519
 4036SOL     OW12927   0.923   1.742   1.814 -0.6496 -0.0137  0.3951
 4036SOL    HW112928   0.864   1.822   1.830 -1.0752 -0.3220  0.4150
 4036SOL    HW212929   0.969   1.717   1.899 -0.3046  0.3776  0.3274
 4037SOL     OW12930   4.825   3.836   2.081  0.2549  0.0242  0.2295
 4037SOL    HW112931   4.827   3.843   1.981  1.4226 -0.1239  0.2297
 4037SOL    HW212932   4.759   3.900   2.118  0.6566  0.9142 -0.5702
 4038SOL     OW12933   4.738   0.575   1.900  0.0363 -0.2452  0.0316
 4038SOL    HW112934   4.837   0.584   1.887  0.1529 -1.4492  0.0110
 4038SOL    HW212935   4.695   0.554   1.812 -0.5261  2.4436 -0.3841
 4039SOL     OW12936   2.982   4.204   6.014  0.5566  0.0571  0.4250
 4039SOL    HW112937   2.998   4.188   6.111  1.2294 -0.8695  0.1782
 4039SOL    HW212938   3.016   4.294   5.989  0.7346  0.1480  0.9665
 4040SOL     OW12939   1.280   5.840   1.116  0.5489  0.2569  0.4498
 4040SOL    HW112940   1.296   5.845   1.017  0.7419 -1.1051  0.3878
 4040SOL    HW212941   1.349   5.780   1.157 -0.7456 -0.8303  1.0973
 4041SOL     OW12942   6.815   3.124   4.597 -0.2496 -0.0231 -0.3109
 4041SOL    HW112943   6.883   3.067   4.552 -0.0972  1.7957 -2.5834
 4041SOL    HW212944   6.858   3.208   4.630 -1.0823  0.4058 -0.2871
 4042SOL     OW12945   6.206   0.906   3.094 -0.2568  0.1091 -0.0485
 4042SOL    HW112946   6.239   0.995   3.062  0.0855  0.1473  0.3831
 4042SOL    HW212947   6.257   0.833   3.049 -0.7714  0.1161 -0.6584
 4043SOL     OW12948   7.005   6.711   4.162 -0.6693  1.2841  0.2487
 4043SOL    HW112949   6.989   6.636   4.226 -0.5915 -0.0414 -1.2241
 4043SOL    HW212950   7.085   6.763   4.191 -0.2552  0.3167  0.8867
 4044SOL     OW12951   0.039   2.655   3.954  0.3122  0.1281 -0.1989
 4044SOL    HW112952   0.105   2.730   3.948  0.7068 -0.2751 -1.2128
 4044SOL    HW212953   0.077   2.575   3.909  0.6394 -1.2770  2.3964
 4045SOL     OW12954   6.924   3.068   1.108 -0.0424  0.1044  0.8525
 4045SOL    HW112955   6.849   3.007   1.083 -0.1288  0.1108  1.0948
 4045SOL    HW212956   6.886   3.154   1.144  0.0790 -0.0304  1.3113
 4046SOL     OW12957   6.604   4.082   5.351 -0.1454 -0.0461  0.4158
 4046SOL    HW112958   6.560   3.996   5.323  0.5313  0.0271 -0.9899
 4046SOL    HW212959   6.698   4.083   5.317 -0.7994  2.1834 -1.5916
 4047SOL     OW12960   5.892   2.490   0.049  0.1815  0.0517  0.9197
 4047SOL    HW112961   5.851   2.537   0.127 -1.4335  0.5853 -0.1828
 4047SOL    HW212962   5.989   2.473   0.066 -0.1284  0.2211  2.9805
 4048SOL     OW12963   5.215   5.156   2.186 -0.5142 -0.1294  0.0658
 4048SOL    HW112964   5.281   5.086   2.211  0.7133  0.8021 -0.4290
 4048SOL    HW212965   5.252   5.212   2.112 -0.4366  2.4863  1.9029
 4049SOL     OW12966   0.347   1.896   3.563  0.7080  0.0125 -0.2880
 4049SOL    HW112967   0.295   1.813   3.586  1.0142 -0.1038 -0.0142
 4049SOL    HW212968   0.444   1.875   3.559  0.7680  0.3073 -0.4723
 4050SOL     OW12969   4.477   2.295   2.647  0.1488  0.2840 -0.5845
 4050SOL    HW112970   4.532   2.291   2.564 -0.7159 -0.0082 -1.1502
 4050SOL    HW212971   4.508   2.225   2.711 -0.5030 -0.8514 -1.4895
 4051SOL     OW12972   5.083   0.221   0.549  0.2056  0.1541 -0.0189
 4051SOL    HW112973   5.025   0.198   0.627  1.3281 -2.2138  0.2078
 4051SOL    HW212974   5.161   0.274   0.581  0.5617 -0.6424  0.4684
 4052SOL     OW12975   3.683   5.174   2.447 -0.2259 -0.2786 -0.2553
 4052SOL    HW112976   3.652   5.253   2.500 -0.3164  0.0150 -0.7313
 4052SOL    HW212977   3.749   5.121   2.500 -0.7423 -0.3081  0.3642
 4053SOL     OW12978   1.688   1.232   0.589  0.0594 -0.2890  0.2576
 4053SOL    HW112979   1.788   1.231   0.594  0.1769  1.4048 -0.7942
 4053SOL    HW212980   1.655   1.324   0.608 -1.2728 -0.7323  0.1509
 4054SOL     OW12981   2.317   2.802   2.845  0.3580 -0.1092  0.4231
 4054SOL    HW112982   2.347   2.887   2.801 -1.5476  0.0980 -0.6147
 4054SOL    HW212983   2.298   2.819   2.941  0.2249  0.5812  0.2825
 4055SOL     OW12984   5.382   1.080   5.186 -0.2508  0.0153  0.3933
 4055SOL    HW112985   5.401   1.046   5.278 -0.3385 -1.4926 -0.1207
 4055SOL    HW212986   5.398   1.007   5.120  2.6849  1.8445 -1.1301
 4056SOL     OW12987   3.263   5.074   5.740  0.5489 -0.4880  0.2539
 4056SOL    HW112988   3.201   5.123   5.802  1.2079  0.7112 -0.0116
 4056SOL    HW212989   3.345   5.046   5.791  0.0495 -1.6242  0.4786
 4057SOL     OW12990   0.992   5.180   3.576  0.1258 -0.0934  0.4588
 4057SOL    HW112991   0.936   5.105   3.611  0.8176 -0.5271  0.6661
 4057SOL    HW212992   1.084   5.146   3.557 -0.0529  0.2700 -1.2229
 4058SOL     OW12993   2.927   6.024   6.934 -0.2959 -0.1632 -0.3715
 4058SOL    HW112994   2.873   6.092   6.884 -1.0547  1.7996  2.8138
 4058SOL    HW212995   2.962   6.065   7.018  1.0998 -3.1635  0.6424
 4059SOL     OW12996   3.405   1.266   0.662 -0.6777 -0.2910 -0.1189
 4059SOL    HW112997   3.492   1.228   0.694 -0.4113  0.2870 -0.1466
 4059SOL    HW212998   3.376   1.338   0.724 -0.6521  0.1714 -0.6317
 4060SOL     OW12999   6.186   3.671   5.648  0.0812 -0.4276 -0.2912
 4060SOL    HW113000   6.239   3.597   5.608 -0.8760 -0.7155 -1.0883
 4060SOL    HW213001   6.175   3.655   5.746  1.4755 -0.3302 -0.0966
 4061SOL     OW13002   1.854   5.669   1.944 -0.1820  0.3630  0.1976
 4061SOL    HW113003   1.948   5.647   1.917 -0.0327 -0.5017  1.3401
 4061SOL    HW213004   1.818   5.741   1.886  0.5677 -0.5254 -1.4412
 4062SOL     OW13005   1.212   2.379   3.589 -0.2744  0.2641 -0.7703
 4062SOL    HW113006   1.309   2.358   3.576 -0.6788 -1.1448 -1.8417
 4062SOL    HW213007   1.157   2.313   3.538 -1.8736 -0.2281  1.4482
 4063SOL     OW13008   3.580   1.911   2.906 -0.4233 -0.0546  0.2285
 4063SOL    HW113009   3.563   1.860   2.991  0.0586  0.7925  0.8339
 4063SOL    HW213010   3.559   2.008   2.921 -0.2207  0.1153 -0.5878
 4064SOL     OW13011   1.935   4.950   5.423 -0.8602  0.6364  0.3990
 4064SOL    HW113012   1.844   4.990   5.435 -0.7416  0.3808  2.3731
 4064SOL    HW213013   2.004   5.010   5.465 -0.2541  0.2492 -0.0213
 4065SOL     OW13014   2.429   1.085   3.619 -0.0183  0.0631 -0.4979
 4065SOL    HW113015   2.434   1.153   3.692 -0.8161 -0.1173 -0.2575
 4065SOL    HW213016   2.436   1.129   3.530  0.3314  0.3545 -0.3283
 4066SOL     OW13017   0.162   1.085   4.815 -0.2939  0.2833  0.1249
 4066SOL    HW113018   0.122   1.116   4.902 -1.8661  2.1852 -1.1850
 4066SOL    HW213019   0.220   1.158   4.778  2.5159 -1.4731  0.7339
 4067SOL     OW13020   4.028   4.316   3.491  0.2353 -0.4682 -0.4977
 4067SOL    HW113021   4.030   4.220   3.516  1.0339  0.0712  1.7303
 4067SOL    HW213022   4.103   4.337   3.428  1.4588 -0.8702  0.7966
 4068SOL     OW13023   0.552   0.115   0.719 -0.3925 -0.3914 -0.2821
 4068SOL    HW113024   0.650   0.094   0.723 -0.3028 -0.0591 -0.6430
 4068SOL    HW213025   0.506   0.052   0.657 -0.0991  0.5586 -1.4997
 4069SOL     OW13026   2.358   0.815   4.361  0.0671  0.4754 -0.1978
 4069SOL    HW113027   2.434   0.750   4.368  0.6603  1.2805  2.4014
 4069SOL    HW213028   2.312   0.821   4.450  0.8474  4.4124  0.1731
 4070SOL     OW13029   5.437   3.704   6.459  0.2420  0.0561 -0.7478
 4070SOL    HW113030   5.521   3.655   6.480  1.1876  1.6009 -0.8299
 4070SOL    HW213031   5.427   3.713   6.360 -1.4259 -2.4222 -0.9107
 4071SOL     OW13032   0.780   3.524   5.163  0.2993 -0.4430  0.2977
 4071SOL    HW113033   0.859   3.555   5.110 -0.8968  1.1622 -0.6515
 4071SOL    HW213034   0.704   3.505   5.101 -0.3490 -1.0691  1.2627
 4072SOL     OW13035   3.178   0.584   6.543  0.3755  0.1798  0.2512
 4072SOL    HW113036   3.152   0.490   6.565 -0.7841 -0.0685 -1.9970
 4072SOL    HW213037   3.275   0.586   6.517 -0.0795 -0.8384 -1.7551
 4073SOL     OW13038   6.815   3.649   5.052 -0.0163 -0.8247 -0.3689
 4073SOL    HW113039   6.731   3.697   5.027 -1.0164 -2.2243  0.1999
 4073SOL    HW213040   6.846   3.679   5.142  0.7782  0.5406 -1.0609
 4074SOL     OW13041   3.404   1.746   6.139  0.4478 -0.2593 -0.5360
 4074SOL    HW113042   3.316   1.783   6.168  0.5957  1.5194 -2.1261
 4074SOL    HW213043   3.390   1.660   6.091 -0.8111  1.1023 -2.8542
 4075SOL     OW13044   5.157   6.217   5.672  0.4122  0.0378  0.1140
 4075SOL    HW113045   5.232   6.187   5.613  0.3838 -0.6638  0.4226
 4075SOL    HW213046   5.159   6.164   5.757 -0.2057  0.2782  0.2802
 4076SOL     OW13047   3.935   2.988   6.440  0.3367  0.1636  0.0680
 4076SOL    HW113048   3.842   3.010   6.409  0.1319 -0.4111  0.2742
 4076SOL    HW213049   3.998   3.059   6.407 -0.0191  0.0467 -0.9062
 4077SOL     OW13050   1.961   6.567   4.370 -0.0123  0.7345  0.2449
 4077SOL    HW113051   1.868   6.534   4.355  0.2833 -0.1337  0.2141
 4077SOL    HW213052   1.960   6.644   4.433 -0.9906  2.3418 -1.6389
 4078SOL     OW13053   0.355   0.838   3.336  0.3023 -0.2990  0.2034
 4078SOL    HW113054   0.402   0.809   3.253 -0.4433 -1.0974  0.0417
 4078SOL    HW213055   0.257   0.845   3.318  0.1464 -0.3552  0.9745
 4079SOL     OW13056   3.849   1.826   3.190  0.0281  0.2057  0.0545
 4079SOL    HW113057   3.842   1.911   3.138 -0.3913  0.2032  0.1125
 4079SOL    HW213058   3.827   1.749   3.130  2.0260 -0.0129 -0.4717
 4080SOL     OW13059   4.256   6.942   3.886  0.3372 -0.4197  0.4629
 4080SOL    HW113060   4.238   7.038   3.863  1.5265  0.6978  3.7716
 4080SOL    HW213061   4.170   6.899   3.914 -0.2466 -0.4428 -1.2352
 4081SOL     OW13062   6.801   5.949   0.134  0.2143 -0.3383  0.0062
 4081SOL    HW113063   6.821   5.912   0.225  0.9143 -0.1950 -0.0885
 4081SOL    HW213064   6.883   5.945   0.077 -0.1691 -0.2421 -0.5589
 4082SOL     OW13065   1.982   3.175   2.794 -0.3167 -0.7405  0.0015
 4082SOL    HW113066   2.028   3.101   2.746 -0.5473 -0.9476  0.0911
 4082SOL    HW213067   2.040   3.257   2.795 -0.9888 -0.1639 -2.1484
 4083SOL     OW13068   5.765   1.605   4.123  0.3553  0.2508  0.1917
 4083SOL    HW113069   5.718   1.517   4.131  0.3303  0.3644  1.6719
 4083SOL    HW213070   5.842   1.607   4.187 -0.6024  1.8659  1.3743
 4084SOL     OW13071   5.385   5.702   0.876 -0.5642 -0.2797 -0.3544
 4084SOL    HW113072   5.447   5.764   0.828 -0.9584 -0.5887 -1.2799
 4084SOL    HW213073   5.368   5.738   0.968  3.9169 -2.0535  1.4463
 4085SOL     OW13074   3.608   6.974   0.410 -0.4707 -0.4137  0.2479
 4085SOL    HW113075   3.540   6.953   0.340  0.1147 -1.4406 -0.0340
 4085SOL    HW213076   3.694   7.002   0.366 -0.4537  0.1283  0.5937
 4086SOL     OW13077   1.282   6.646   3.798  0.1675  0.0894  0.0872
 4086SOL    HW113078   1.196   6.595   3.789  0.8000 -1.0329  0.2467
 4086SOL    HW213079   1.324   6.655   3.707 -0.1822  0.7608 -0.0109
 4087SOL     OW13080   4.651   1.086   2.519  0.2409  0.1224  0.1339
 4087SOL    HW113081   4.589   1.146   2.570  1.0720  0.5400  0.6689
 4087SOL    HW213082   4.622   0.991   2.530  0.2394  0.2315  1.1442
 4088SOL     OW13083   4.606   5.448   5.414  0.5950  1.1011  0.2427
 4088SOL    HW113084   4.598   5.542   5.381 -1.8491  0.1974 -2.1477
 4088SOL    HW213085   4.523   5.422   5.462  0.7928 -0.1252 -0.0250
 4089SOL     OW13086   2.377   4.442   3.753  0.1602 -0.2909  0.1419
 4089SOL    HW113087   2.309   4.514   3.757 -0.0745 -0.4212 -1.0555
 4089SOL    HW213088   2.331   4.354   3.740  0.4859 -0.5413  0.6885
 4090SOL     OW13089   0.471   1.379   0.787  0.3891 -0.6363  0.0646
 4090SOL    HW113090   0.387   1.324   0.788  0.6309 -1.0052  0.5742
 4090SOL    HW213091   0.551   1.319   0.784  0.6410 -0.2884 -0.3667
 4091SOL     OW13092   5.691   4.620   2.565  0.0391 -0.3969 -0.4285
 4091SOL    HW113093   5.774   4.637   2.511  0.9188  0.2635  1.0738
 4091SOL    HW213094   5.616   4.676   2.529  0.6513  0.1794 -0.8336
 4092SOL     OW13095   2.823   5.708   0.812  0.3455 -0.0581  0.2489
 4092SOL    HW113096   2.907   5.684   0.764  0.7714  1.2018  0.3494
 4092SOL    HW213097   2.745   5.694   0.751  0.8011  0.6253 -0.5183
 4093SOL     OW13098   3.517   4.992   0.717 -0.4391  0.4961 -0.0531
 4093SOL    HW113099   3.614   5.007   0.738 -0.0783 -0.2826 -1.1001
 4093SOL    HW213100   3.462   5.053   0.773  0.6254  0.5944  0.9436
 4094SOL     OW13101   1.393   2.416   4.115  0.0008 -0.6723  0.7274
 4094SOL    HW113102   1.429   2.325   4.136 -0.4096 -0.9347  0.3173
 4094SOL    HW213103   1.379   2.424   4.016  1.4906  0.3809  0.5789
 4095SOL     OW13104   0.483   4.461   6.548  0.4302  0.1926 -0.0825
 4095SOL    HW113105   0.459   4.497   6.458 -0.0785  0.3288  0.1029
 4095SOL    HW213106   0.522   4.535   6.604 -0.4799  0.4507  0.2494
 4096SOL     OW13107   5.777   5.671   4.090 -0.2900 -0.0398  0.0272
 4096SOL    HW113108   5.749   5.696   4.182  0.0839 -1.2285  0.4771
 4096SOL    HW213109   5.860   5.721   4.066 -0.3747  0.2565  0.3327
 4097SOL     OW13110   5.789   3.554   4.895 -0.1473  0.4904 -0.3859
 4097SOL    HW113111   5.816   3.458   4.893 -0.0004  0.5308 -3.2427
 4097SOL    HW213112   5.847   3.603   4.961 -0.5921 -1.4204  1.5300
 4098SOL     OW13113   5.631   4.678   2.840 -0.2496 -0.0690 -0.2245
 4098SOL    HW113114   5.566   4.625   2.894 -0.9582  0.7207 -0.2880
 4098SOL    HW213115   5.641   4.637   2.750  0.6455 -1.1687  0.3461
 4099SOL     OW13116   2.916   1.030   4.638 -0.1967 -0.0266 -0.6180
 4099SOL    HW113117   2.961   1.058   4.722 -0.4673  0.3048 -0.5837
 4099SOL    HW213118   2.852   0.956   4.657 -1.6662  1.2989 -0.1939
 4100SOL     OW13119   2.741   2.483   2.066 -0.0259 -0.5673  0.7894
 4100SOL    HW113120   2.767   2.546   2.139  1.1197  1.3715 -1.1469
 4100SOL    HW213121   2.662   2.521   2.017  0.5068 -0.7431 -0.2362
 4101SOL     OW13122   1.923   1.778   3.053 -0.0056  0.0145 -0.2334
 4101SOL    HW113123   1.913   1.868   3.009  0.9330  2.2228  3.5719
 4101SOL    HW213124   1.841   1.757   3.105 -0.0634 -1.1962 -0.7800
 4102SOL     OW13125   3.189   2.521   3.758  0.2477  0.5951  0.1691
 4102SOL    HW113126   3.219   2.490   3.848  2.6162  0.3346 -0.6089
 4102SOL    HW213127   3.262   2.574   3.715 -1.5896  2.4765 -0.8237
 4103SOL     OW13128   0.450   2.499   1.191 -0.3545 -0.1144  0.1111
 4103SOL    HW113129   0.429   2.575   1.130 -0.1626 -1.1818 -1.3365
 4103SOL    HW213130   0.431   2.526   1.285 -1.7882  1.1977 -0.5056
 4104SOL     OW13131   5.562   5.790   2.647  0.1506 -0.2922 -0.0330
 4104SOL    HW113132   5.645   5.784   2.702  0.5510 -1.5473 -0.7583
 4104SOL    HW213133   5.578   5.851   2.569 -0.6298  2.0605  1.5447
 4105SOL     OW13134   5.830   3.703   2.969  0.0050  0.3121 -0.0336
 4105SOL    HW113135   5.771   3.761   3.025  0.3715  0.7670 -0.1119
 4105SOL    HW213136   5.852   3.619   3.019 -1.2956 -0.1913 -0.2915
 4106SOL     OW13137   4.387   2.424   0.265  0.1598  0.2681 -0.7300
 4106SOL    HW113138   4.365   2.515   0.230 -4.9495 -0.0415  0.9212
 4106SOL    HW213139   4.430   2.432   0.355  0.3543  1.0109 -0.8857
 4107SOL     OW13140   5.795   2.638   4.511  0.2170 -0.5342  0.0398
 4107SOL    HW113141   5.735   2.613   4.434 -0.0986  0.2411  0.0163
 4107SOL    HW213142   5.779   2.734   4.534  0.2189 -0.7991  1.1623
 4108SOL     OW13143   5.822   5.864   5.436  0.1272 -0.1509  0.2116
 4108SOL    HW113144   5.816   5.903   5.528 -1.8410  0.6509 -0.2056
 4108SOL    HW213145   5.847   5.935   5.371 -0.9194 -0.1543 -0.2023
 4109SOL     OW13146   1.011   1.545   0.864 -0.4037  0.1019 -0.4812
 4109SOL    HW113147   0.992   1.457   0.909 -1.2980 -0.8141 -2.5050
 4109SOL    HW213148   0.967   1.619   0.915 -2.7090 -1.0710 -0.6492
 4110SOL     OW13149   5.826   1.914   2.785  0.5492  0.1424 -0.1725
 4110SOL    HW113150   5.751   1.966   2.744 -0.1485 -0.8250 -0.1757
 4110SOL    HW213151   5.911   1.933   2.735  0.4916  1.8695  0.3295
 4111SOL     OW13152   5.868   6.943   6.664  0.0374 -0.1380 -0.4699
 4111SOL    HW113153   5.912   7.009   6.602 -0.1515  0.2238 -0.1862
 4111SOL    HW213154   5.772   6.933   6.639 -0.5191  1.3343  0.8143
 4112SOL     OW13155   0.376   0.196   5.247 -0.0300 -0.3528 -0.6740
 4112SOL    HW113156   0.399   0.285   5.288 -0.6111  0.4788 -2.0755
 4112SOL    HW213157   0.432   0.125   5.288  1.6274  0.9055 -0.6679
 4113SOL     OW13158   0.697   1.397   4.244  0.5957  0.5190  0.3979
 4113SOL    HW113159   0.723   1.323   4.306  0.3899  0.6429  0.6346
 4113SOL    HW213160   0.599   1.396   4.230  0.7140  0.0587 -0.4876
 4114SOL     OW13161   4.557   4.123   4.740  0.0513 -0.1621 -0.1073
 4114SOL    HW113162   4.563   4.023   4.739 -0.6446 -0.2093 -0.8058
 4114SOL    HW213163   4.592   4.160   4.654 -0.0988  0.1696 -0.0300
 4115SOL     OW13164   1.762   0.723   5.354  0.8205 -0.4872 -0.0758
 4115SOL    HW113165   1.704   0.804   5.343 -0.4319 -1.4882 -1.3946
 4115SOL    HW213166   1.780   0.708   5.451  0.5380  0.9852  0.2313
 4116SOL     OW13167   4.813   1.698   0.874  0.1192  0.0055  0.1028
 4116SOL    HW113168   4.743   1.769   0.881  0.9920  0.9006  0.1943
 4116SOL    HW213169   4.835   1.664   0.966  0.8061  0.7675  0.2363
 4117SOL     OW13170   5.625   3.303   0.985  0.7559 -0.0928 -0.2553
 4117SOL    HW113171   5.697   3.312   1.053 -0.7651 -0.1905  1.4538
 4117SOL    HW213172   5.537   3.286   1.031 -0.4461  0.4152 -2.2151
 4118SOL     OW13173   5.242   2.229   4.863  0.3365 -1.1018 -0.2227
 4118SOL    HW113174   5.214   2.234   4.767  2.4072  1.6350 -0.7883
 4118SOL    HW213175   5.292   2.144   4.879  1.8058 -0.6424 -2.1518
 4119SOL     OW13176   1.814   0.852   4.490 -0.5321 -0.5367  0.4138
 4119SOL    HW113177   1.714   0.844   4.491 -0.5350 -0.4927  1.0719
 4119SOL    HW213178   1.847   0.851   4.396 -1.2498  0.6169  0.1401
 4120SOL     OW13179   0.949   4.836   6.360  0.3956 -0.1646 -0.1121
 4120SOL    HW113180   0.939   4.798   6.452 -0.1689  0.1486 -0.0268
 4120SOL    HW213181   0.879   4.907   6.346  1.1837  0.5855 -0.3800
 4121SOL     OW13182   4.559   5.767   6.492  0.1875  0.0273  0.4266
 4121SOL    HW113183   4.591   5.690   6.438  0.4422  0.4692 -0.0528
 4121SOL    HW213184   4.615   5.775   6.575  0.2641 -0.1968  0.3989
 4122SOL     OW13185   5.916   3.055   1.714 -0.1957  0.1255  0.3555
 4122SOL    HW113186   5.965   2.975   1.679  1.1662  0.8026  0.6380
 4122SOL    HW213187   5.825   3.027   1.745 -0.0670 -1.1516 -0.3287
 4123SOL     OW13188   5.238   5.581   1.965  0.0565 -0.1771  0.3136
 4123SOL    HW113189   5.167   5.613   2.028 -0.6926 -0.5099 -0.3479
 4123SOL    HW213190   5.323   5.631   1.983 -0.2706  0.0592  1.2726
 4124SOL     OW13191   5.489   0.584   3.304 -0.0503  0.1317  0.1112
 4124SOL    HW113192   5.451   0.667   3.344  1.3311  0.0680  1.6774
 4124SOL    HW213193   5.555   0.608   3.233 -1.4070  0.2904 -1.1186
 4125SOL     OW13194   6.823   1.890   1.487 -0.3833  0.6141 -0.0065
 4125SOL    HW113195   6.888   1.905   1.413  2.3283  1.3562  2.3388
 4125SOL    HW213196   6.783   1.977   1.516  0.7287  0.7483  1.1906
 4126SOL     OW13197   0.740   5.262   4.968 -0.1871  0.0736  0.0602
 4126SOL    HW113198   0.823   5.313   4.947  0.2983 -0.1368  1.4063
 4126SOL    HW213199   0.706   5.288   5.058 -1.4268 -0.0460 -0.3539
 4127SOL     OW13200   1.351   2.441   0.952 -0.0103  0.2497 -0.0413
 4127SOL    HW113201   1.322   2.349   0.981  0.5423  0.6877  2.1445
 4127SOL    HW213202   1.397   2.435   0.864 -0.9922 -1.4035 -0.4848
 4128SOL     OW13203   6.536   4.241   0.399 -0.4226 -0.2687 -0.7277
 4128SOL    HW113204   6.451   4.291   0.416 -0.8929 -1.1078 -0.5503
 4128SOL    HW213205   6.536   4.157   0.453  0.6509 -0.1445 -0.5114
 4129SOL     OW13206   6.115   6.048   2.644  0.0988 -0.1830 -0.0861
 4129SOL    HW113207   6.205   6.091   2.638  0.7338 -1.4220  0.0629
 4129SOL    HW213208   6.101   6.011   2.736 -0.9666  0.8035  0.1691
 4130SOL     OW13209   3.387   4.037   4.318  0.7858  0.2301  0.3593
 4130SOL    HW113210   3.352   4.059   4.408  0.4052  0.0976  0.2453
 4130SOL    HW213211   3.313   4.003   4.260  1.2115 -0.6646  0.3075
 4131SOL     OW13212   0.082   4.708   5.061  0.4673 -0.3027  0.8084
 4131SOL    HW113213   0.004   4.739   5.116  0.7121  1.6469  0.0928
 4131SOL    HW213214   0.056   4.626   5.010 -0.8183 -0.2226  1.2943
 4132SOL     OW13215   2.932   4.705   2.906 -0.4358  0.4526  0.6024
 4132SOL    HW113216   2.974   4.640   2.970  0.1246  0.0078 -0.1980
 4132SOL    HW213217   2.873   4.655   2.843  1.2254  0.4647 -1.0363
 4133SOL     OW13218   3.448   3.217   0.513 -0.5266  0.3330 -0.0207
 4133SOL    HW113219   3.474   3.222   0.417 -0.6224  2.5841  0.0243
 4133SOL    HW213220   3.475   3.301   0.560 -0.7516 -0.5900  1.8695
 4134SOL     OW13221   2.368   2.338   3.181 -0.0681 -0.6281  0.7265
 4134SOL    HW113222   2.422   2.271   3.130  0.3004 -0.5754  1.0530
 4134SOL    HW213223   2.417   2.366   3.263 -0.2623 -0.0204  0.6353
 4135SOL     OW13224   6.363   5.048   2.396  0.0807  0.1549 -0.0054
 4135SOL    HW113225   6.399   5.021   2.307  2.0472 -1.7174  1.2846
 4135SOL    HW213226   6.340   5.146   2.394  0.0328  0.1444 -2.5496
 4136SOL     OW13227   2.488   4.435   0.138  0.2182  0.5114 -0.3879
 4136SOL    HW113228   2.410   4.449   0.077  1.9223 -0.8480 -3.0889
 4136SOL    HW213229   2.464   4.366   0.207 -1.0682  0.3370 -0.9776
 4137SOL     OW13230   3.914   4.128   4.891 -0.0493  0.2982 -0.1646
 4137SOL    HW113231   3.940   4.180   4.809 -0.6905  0.3403 -0.3471
 4137SOL    HW213232   3.894   4.034   4.866 -0.8654  0.4644 -0.1676
 4138SOL     OW13233   5.635   4.116   2.591  0.5774 -0.4021 -0.4584
 4138SOL    HW113234   5.602   4.205   2.562  0.9269 -0.3215 -0.6213
 4138SOL    HW213235   5.641   4.055   2.512 -1.2366 -1.1009 -0.1097
 4139SOL     OW13236   1.340   5.691   0.218 -0.3633 -0.0143 -0.0538
 4139SOL    HW113237   1.376   5.702   0.311  0.1798  1.5623 -0.4126
 4139SOL    HW213238   1.410   5.654   0.158 -0.2388  0.3473 -0.1365
 4140SOL     OW13239   4.320   2.029   5.398 -0.6518 -0.0432 -0.1572
 4140SOL    HW113240   4.266   1.992   5.473 -0.4813  1.9794  1.0250
 4140SOL    HW213241   4.327   2.129   5.407  3.1157 -0.1114 -0.2566
 4141SOL     OW13242   5.784   0.205   2.367 -0.0922 -0.0049  0.3100
 4141SOL    HW113243   5.859   0.139   2.370 -0.2767 -0.3074 -1.0113
 4141SOL    HW213244   5.820   0.297   2.352  0.0780 -0.0003  0.7431
 4142SOL     OW13245   4.731   1.848   5.031  0.1536  0.2101  0.2981
 4142SOL    HW113246   4.749   1.792   4.950  0.2727  2.6606 -1.4932
 4142SOL    HW213247   4.809   1.907   5.049 -0.5187  0.8361  1.2414
 4143SOL     OW13248   4.157   5.738   2.881 -0.3801  0.6109  0.2627
 4143SOL    HW113249   4.173   5.818   2.939 -1.4615  0.0845  1.3302
 4143SOL    HW213250   4.199   5.658   2.922  1.0268  0.6417 -0.9925
 4144SOL     OW13251   3.771   3.592   0.315  0.2602 -0.2361  0.6923
 4144SOL    HW113252   3.675   3.597   0.342  0.1455  0.4542  0.1969
 4144SOL    HW213253   3.803   3.683   0.289  0.3590 -0.8337 -1.4511
 4145SOL     OW13254   1.350   1.653   3.569 -0.5643  0.2855 -0.2889
 4145SOL    HW113255   1.344   1.560   3.603  0.0836  0.1929 -0.4029
 4145SOL    HW213256   1.267   1.704   3.592 -0.2049  0.1961  1.3205
 4146SOL     OW13257   1.953   2.199   2.679 -0.0605 -0.0428 -0.3194
 4146SOL    HW113258   2.035   2.246   2.712  0.8942 -0.8963 -1.4160
 4146SOL    HW213259   1.977   2.139   2.603 -1.4781 -1.3713  0.2437
 4147SOL     OW13260   5.217   6.457   1.457  0.1162 -0.7325  0.1153
 4147SOL    HW113261   5.276   6.376   1.453 -0.1017 -1.1249  2.8391
 4147SOL    HW213262   5.124   6.433   1.430  0.1001 -1.3743  0.7179
 4148SOL     OW13263   1.565   0.647   2.395  0.1180 -0.2979  0.0263
 4148SOL    HW113264   1.481   0.595   2.378  1.1889 -2.0625 -0.0444
 4148SOL    HW213265   1.592   0.694   2.311 -0.1553 -0.6868 -0.2844
 4149SOL     OW13266   6.986   6.662   2.588 -0.2366 -0.7777 -0.0525
 4149SOL    HW113267   6.906   6.645   2.531 -0.0508 -1.3684 -0.1529
 4149SOL    HW213268   7.064   6.610   2.552 -0.4236 -2.0616  1.3765
 4150SOL     OW13269   4.427   6.483   2.857 -0.3628 -0.7658 -0.2676
 4150SOL    HW113270   4.443   6.567   2.909  1.6379 -0.9120 -0.5398
 4150SOL    HW213271   4.355   6.430   2.901  0.4438 -0.3177  1.7109
 4151SOL     OW13272   3.308   3.517   3.653 -0.1873 -0.1389  0.0553
 4151SOL    HW113273   3.276   3.426   3.626  1.6638 -1.4111  1.9070
 4151SOL    HW213274   3.398   3.510   3.694 -0.1845  2.5174  0.6738
 4152SOL     OW13275   2.444   3.834   1.325  0.1632 -0.7367 -0.1959
 4152SOL    HW113276   2.348   3.845   1.348 -0.1632 -0.4780 -1.6323
 4152SOL    HW213277   2.461   3.867   1.232  1.8000  0.0265  0.3179
 4153SOL     OW13278   2.753   1.298   6.483  0.0861 -0.1158  0.2638
 4153SOL    HW113279   2.738   1.269   6.388  1.0088 -0.1947  0.1247
 4153SOL    HW213280   2.850   1.285   6.506  0.1022  0.9296  0.8603
 4154SOL     OW13281   2.765   2.953   6.477  0.2915  0.0187 -0.4012
 4154SOL    HW113282   2.841   3.011   6.448  0.6302 -0.2689 -0.0992
 4154SOL    HW213283   2.791   2.904   6.560 -0.2777  0.0288 -0.2104
 4155SOL     OW13284   6.250   5.832   3.206  0.2855  0.2582 -0.5683
 4155SOL    HW113285   6.221   5.927   3.198  1.1370  0.7707  1.7457
 4155SOL    HW213286   6.326   5.825   3.271  1.3729 -1.8050 -1.9263
 4156SOL     OW13287   1.212   3.858   3.823 -0.4778  0.2348  0.0419
 4156SOL    HW113288   1.221   3.767   3.863  1.4002 -0.4796 -1.7980
 4156SOL    HW213289   1.303   3.900   3.816 -1.1326  1.6136 -0.5802
 4157SOL     OW13290   1.847   4.547   6.294  0.0306  0.6573 -0.0534
 4157SOL    HW113291   1.905   4.551   6.213 -1.0938  0.9292 -0.8694
 4157SOL    HW213292   1.822   4.640   6.321 -1.1523  0.5052 -0.5621
 4158SOL     OW13293   3.612   2.655   6.495  0.4410  0.2267  0.3131
 4158SOL    HW113294   3.552   2.732   6.470  0.7664  0.7536  1.1169
 4158SOL    HW213295   3.641   2.608   6.412 -0.0946  0.7220 -0.1688
 4159SOL     OW13296   6.140   2.687   3.879  0.0536 -0.0570 -0.3734
 4159SOL    HW113297   6.216   2.735   3.835  0.8549 -0.3708  0.6169
 4159SOL    HW213298   6.067   2.752   3.899  0.6235  0.5199 -0.1214
 4160SOL     OW13299   0.153   1.238   2.173 -0.1861  0.3416  0.8056
 4160SOL    HW113300   0.134   1.212   2.268  0.0178 -1.6206  0.3473
 4160SOL    HW213301   0.188   1.159   2.123 -0.7382  1.2066 -1.0435
 4161SOL     OW13302   5.533   1.043   6.466 -0.7224  0.2788  0.4288
 4161SOL    HW113303   5.557   1.107   6.392 -0.8790  0.1446  0.2594
 4161SOL    HW213304   5.434   1.036   6.473 -0.7108 -0.4186  0.0330
 4162SOL     OW13305   3.510   6.842   3.316  0.0569 -0.0824 -0.1789
 4162SOL    HW113306   3.514   6.828   3.217  1.1700 -1.1464 -0.0138
 4162SOL    HW213307   3.429   6.797   3.353 -1.3909  1.8936 -0.8014
 4163SOL     OW13308   6.371   6.491   1.899 -0.2972 -0.0674  0.4422
 4163SOL    HW113309   6.307   6.498   1.823 -1.3128 -0.7289  1.2006
 4163SOL    HW213310   6.357   6.405   1.947 -0.1165  0.6077  1.7603
 4164SOL     OW13311   5.934   3.911   4.657 -0.5136 -0.3506 -0.0881
 4164SOL    HW113312   5.996   3.832   4.656  0.0481  0.0885 -0.1862
 4164SOL    HW213313   5.941   3.960   4.570  1.3203  1.4807  1.0074
 4165SOL     OW13314   4.085   2.164   5.806  0.0137  0.0233 -0.3320
 4165SOL    HW113315   4.000   2.114   5.823  0.1852 -0.9450 -2.1158
 4165SOL    HW213316   4.121   2.198   5.893 -2.1599  0.4361  0.4761
 4166SOL     OW13317   3.276   1.462   6.006  0.0526  1.0833 -0.0198
 4166SOL    HW113318   3.279   1.420   6.096  0.6683  2.6867  0.7610
 4166SOL    HW213319   3.217   1.408   5.946  0.5005 -0.6246  0.9983
 4167SOL     OW13320   0.887   0.883   1.525  0.5593 -0.1326 -0.3600
 4167SOL    HW113321   0.870   0.785   1.532 -1.1807  0.0638 -1.2959
 4167SOL    HW213322   0.841   0.931   1.599 -0.3825  0.1327 -1.0860
 4168SOL     OW13323   3.390   2.087   5.554  0.0289 -0.6278  0.5817
 4168SOL    HW113324   3.378   2.152   5.629  2.0430  0.6647 -0.1599
 4168SOL    HW213325   3.423   2.000   5.590 -2.8096 -1.4093  1.6044
 4169SOL     OW13326   1.859   5.424   1.136  0.1871  0.2918 -0.4547
 4169SOL    HW113327   1.924   5.382   1.073  1.6229 -0.0303  1.1625
 4169SOL    HW213328   1.766   5.401   1.109  0.8209 -1.2714 -1.4410
 4170SOL     OW13329   6.192   1.814   6.634 -0.2803  0.2886 -0.2365
 4170SOL    HW113330   6.202   1.770   6.544 -1.4160  2.8855 -1.7511
 4170SOL    HW213331   6.095   1.826   6.654 -0.0385  2.8482 -0.3368
 4171SOL     OW13332   4.017   6.340   5.096 -0.2352 -0.9022 -0.3361
 4171SOL    HW113333   3.986   6.245   5.102  0.9949 -1.3379 -0.5606
 4171SOL    HW213334   4.097   6.345   5.036  0.6957  0.0108  0.9192
 4172SOL     OW13335   6.607   2.173   3.550  0.3164  0.5703  0.6001
 4172SOL    HW113336   6.612   2.119   3.633 -0.0883 -0.8734 -0.2891
 4172SOL    HW213337   6.646   2.122   3.474 -0.1582  1.4892 -0.2913
 4173SOL     OW13338   2.860   2.687   5.704 -0.4213  0.1940  0.0129
 4173SOL    HW113339   2.794   2.695   5.629  0.1023 -0.8258 -0.5708
 4173SOL    HW213340   2.866   2.775   5.752 -0.6686  0.9083 -1.2187
 4174SOL     OW13341   0.531   2.104   3.941 -0.6256  0.0600  0.3628
 4174SOL    HW113342   0.527   2.163   4.022  1.3479  0.5655  0.1288
 4174SOL    HW213343   0.601   2.034   3.954  0.3322  0.6791 -1.2355
 4175SOL     OW13344   5.154   1.308   0.992 -0.1094  0.0505  0.3133
 4175SOL    HW113345   5.128   1.284   0.898  1.2095 -1.7031  0.3400
 4175SOL    HW213346   5.214   1.388   0.990 -0.6323  0.4451 -0.2614
 4176SOL     OW13347   0.929   5.531   1.818 -0.5556  0.0704  0.5711
 4176SOL    HW113348   0.872   5.458   1.856 -1.1193  1.0197  1.6291
 4176SOL    HW213349   1.021   5.525   1.856 -0.4775 -0.3461  0.3198
 4177SOL     OW13350   5.974   6.814   5.344 -0.3558  0.2830  0.0319
 4177SOL    HW113351   5.989   6.797   5.441  0.4184 -2.7417 -0.5235
 4177SOL    HW213352   6.023   6.897   5.316 -1.0901  1.5494  2.2888
 4178SOL     OW13353   2.925   0.192   0.605  0.3753  0.5956  0.5966
 4178SOL    HW113354   2.861   0.120   0.579  1.4945 -0.6496  1.2015
 4178SOL    HW213355   2.889   0.241   0.685 -0.3589  0.6708  0.2267
 4179SOL     OW13356   6.328   0.972   5.088  0.0155 -0.1073 -0.4443
 4179SOL    HW113357   6.270   0.895   5.116  1.3545 -0.9474  0.1074
 4179SOL    HW213358   6.379   0.947   5.006 -0.1369  0.4858 -0.7212
 4180SOL     OW13359   6.003   5.062   1.275 -0.5109 -0.2818 -0.7453
 4180SOL    HW113360   6.089   5.081   1.322  1.2454 -2.3979 -2.8545
 4180SOL    HW213361   5.983   4.964   1.282 -1.1122 -0.3483 -2.8202
 4181SOL     OW13362   6.247   1.266   4.632  0.0657  0.0249 -0.1443
 4181SOL    HW113363   6.338   1.227   4.639  0.1002  0.2814  1.1025
 4181SOL    HW213364   6.204   1.267   4.722 -1.7744 -1.5040 -0.9199
 4182SOL     OW13365   5.024   2.728   0.167  0.3247 -0.6100  0.0224
 4182SOL    HW113366   4.958   2.742   0.241  0.4339  0.2276 -0.0247
 4182SOL    HW213367   5.072   2.641   0.181  2.1369  0.6715  2.3625
 4183SOL     OW13368   5.516   3.286   3.116  0.0642  0.4361 -0.3600
 4183SOL    HW113369   5.599   3.244   3.077  2.0642  2.1157  1.7764
 4183SOL    HW213370   5.501   3.375   3.074  0.6780  1.0955  0.7707
 4184SOL     OW13371   4.548   4.187   1.166 -0.8420 -0.5246 -0.4367
 4184SOL    HW113372   4.570   4.263   1.226 -1.2904 -1.9998  1.6965
 4184SOL    HW213373   4.624   4.122   1.164 -0.6115 -0.2769 -1.9510
 4185SOL     OW13374   5.688   6.682   6.374  0.5323 -0.1832  0.2756
 4185SOL    HW113375   5.603   6.644   6.409  0.0152 -0.0864 -0.8263
 4185SOL    HW213376   5.755   6.608   6.364 -0.3365 -0.7883 -1.4680
 4186SOL     OW13377   4.609   2.671   0.493 -0.4580  0.0270 -0.1862
 4186SOL    HW113378   4.560   2.622   0.565  0.5950 -0.7268  0.0410
 4186SOL    HW213379   4.559   2.754   0.470 -0.2677  0.9128  2.2265
 4187SOL     OW13380   1.748   0.037   1.852 -0.7028 -0.4315 -1.2198
 4187SOL    HW113381   1.766   0.049   1.949 -0.3650  1.6129 -1.4913
 4187SOL    HW213382   1.671  -0.026   1.840 -1.7532  0.4633  0.4223
 4188SOL     OW13383   5.939   3.800   2.286  0.3016  0.4233  0.6347
 4188SOL    HW113384   5.978   3.887   2.317 -0.6775  1.7236 -1.5241
 4188SOL    HW213385   5.925   3.804   2.187 -1.0450 -1.6967  0.6851
 4189SOL     OW13386   5.148   6.052   2.366 -0.6941 -0.0339  0.4371
 4189SOL    HW113387   5.143   6.143   2.325 -1.8112 -0.6226 -0.8024
 4189SOL    HW213388   5.108   5.985   2.304 -0.8528 -1.2358  1.7835
 4190SOL     OW13389   1.948   1.263   0.136  0.3738 -0.4266  0.4660
 4190SOL    HW113390   1.852   1.252   0.161 -0.0611  0.6718 -0.6280
 4190SOL    HW213391   1.968   1.205   0.056  0.2393  0.3875 -0.1726
 4191SOL     OW13392   6.705   1.168   3.914 -0.0293  0.1394 -0.4857
 4191SOL    HW113393   6.705   1.266   3.890  1.7477 -0.7322 -5.2275
 4191SOL    HW213394   6.781   1.150   3.976  0.4107  1.6503 -0.5482
 4192SOL     OW13395   2.192   1.333   1.990 -0.0031 -0.3410  0.3793
 4192SOL    HW113396   2.225   1.428   1.991 -1.7032  0.3012  0.2802
 4192SOL    HW213397   2.163   1.307   2.082 -1.7885  0.1328 -0.0012
 4193SOL     OW13398   5.052   6.496   3.881  0.2163  0.2129 -0.8400
 4193SOL    HW113399   5.122   6.568   3.876  1.6091 -1.1194 -1.7233
 4193SOL    HW213400   5.019   6.489   3.975 -1.7536  3.5449 -1.1115
 4194SOL     OW13401   4.757   2.508   4.816  0.2818 -0.3204 -0.1775
 4194SOL    HW113402   4.674   2.466   4.852  1.2148 -1.5102  0.6605
 4194SOL    HW213403   4.787   2.580   4.877  1.4459 -1.8390  1.1564
 4195SOL     OW13404   6.751   2.647   6.510  0.3688 -0.1316  0.6380
 4195SOL    HW113405   6.682   2.612   6.573 -0.5420  0.0078 -0.2389
 4195SOL    HW213406   6.759   2.585   6.432  1.0236  0.0174  0.5786
 4196SOL     OW13407   6.143   5.106   4.597  0.1690  0.7225 -0.6547
 4196SOL    HW113408   6.053   5.062   4.589  0.2857  0.4714 -0.6178
 4196SOL    HW213409   6.131   5.201   4.626 -0.1077  0.8239 -1.0866
 4197SOL     OW13410   0.089   4.193   1.821 -0.3292 -0.1205  0.1768
 4197SOL    HW113411   0.168   4.176   1.880 -0.7246  0.2245  0.8155
 4197SOL    HW213412   0.036   4.109   1.813  1.2808 -1.0371 -2.1025
 4198SOL     OW13413   0.381   1.865   1.380 -0.3314 -0.0672 -0.3430
 4198SOL    HW113414   0.471   1.908   1.376 -1.0554  1.4684 -0.9997
 4198SOL    HW213415   0.359   1.825   1.292 -0.3320 -0.3776 -0.2042
 4199SOL     OW13416   4.135   6.543   3.479  0.4200  0.9034 -0.0491
 4199SOL    HW113417   4.060   6.581   3.426  0.9218  2.0627  0.0206
 4199SOL    HW213418   4.166   6.458   3.438 -1.1340  0.2350  0.1180
 4200SOL     OW13419   5.214   2.572   1.850  0.0942  0.0527  0.1071
 4200SOL    HW113420   5.116   2.590   1.856  0.0727  1.1570 -2.4553
 4200SOL    HW213421   5.230   2.495   1.788  0.8766  0.0548  0.2969
 4201SOL     OW13422   4.266   1.397   3.364 -0.0838  0.2687  0.1216
 4201SOL    HW113423   4.204   1.369   3.291 -0.9583  3.0315 -0.2598
 4201SOL    HW213424   4.349   1.435   3.325 -0.3329  1.2798  0.5458
 4202SOL     OW13425   5.371   5.161   6.589  0.2420  0.2452 -0.0927
 4202SOL    HW113426   5.335   5.068   6.603  1.0128  0.1042  1.1236
 4202SOL    HW213427   5.307   5.213   6.533 -0.8531 -0.6195  0.2997
 4203SOL     OW13428   3.352   6.240   6.512 -0.3868  0.1927 -0.7290
 4203SOL    HW113429   3.419   6.210   6.445  0.1347 -0.7783  0.2039
 4203SOL    HW213430   3.313   6.161   6.558 -0.1928  0.8727  0.6350
 4204SOL     OW13431   3.534   2.824   2.331  0.0330 -0.0395 -0.7358
 4204SOL    HW113432   3.577   2.884   2.398 -1.5823  0.3703 -0.0038
 4204SOL    HW213433   3.478   2.879   2.268 -1.5998 -0.7394  0.0384
 4205SOL     OW13434   2.814   5.570   6.562  0.2138  0.1084 -0.0643
 4205SOL    HW113435   2.830   5.582   6.464 -1.1471  0.6498 -0.2348
 4205SOL    HW213436   2.901   5.548   6.607  0.9641  0.4468 -1.2879
 4206SOL     OW13437   0.628   2.191   6.657  0.1554 -0.4518  0.2421
 4206SOL    HW113438   0.666   2.267   6.710  0.8652 -0.6711  0.0500
 4206SOL    HW213439   0.702   2.137   6.617 -0.2563 -2.3406  1.8771
 4207SOL     OW13440   4.088   2.345   2.824 -0.5318  0.2147  0.1638
 4207SOL    HW113441   4.158   2.303   2.883 -0.6353  1.6359  1.3582
 4207SOL    HW213442   4.123   2.432   2.790 -1.1104  0.1575 -0.5804
 4208SOL     OW13443   3.337   1.317   2.598  0.4406  0.2834 -0.0757
 4208SOL    HW113444   3.240   1.338   2.583 -0.3292 -2.9634 -0.4077
 4208SOL    HW213445   3.366   1.247   2.532  2.6144  0.1265  0.9649
 4209SOL     OW13446   5.377   1.670   3.755 -0.0946 -0.9566  0.1411
 4209SOL    HW113447   5.393   1.749   3.696 -0.6870 -0.2252  0.9209
 4209SOL    HW213448   5.412   1.690   3.847 -2.1481 -0.7092  0.9360
 4210SOL     OW13449   1.690   0.200   5.072 -0.1299  0.0287 -0.4321
 4210SOL    HW113450   1.636   0.281   5.092  0.3925  0.1684  0.4814
 4210SOL    HW213451   1.730   0.164   5.157  1.7525  0.3390 -1.1344
 4211SOL     OW13452   4.178   6.006   3.657  0.1003  0.1036 -0.1463
 4211SOL    HW113453   4.145   5.926   3.606  1.0314 -0.5732  0.2848
 4211SOL    HW213454   4.128   6.013   3.743 -1.3045  1.1066 -0.9989
 4212SOL     OW13455   3.037   3.897   4.337 -0.0748  0.8757 -0.1735
 4212SOL    HW113456   2.997   3.987   4.355 -0.5879  0.7467 -0.6210
 4212SOL    HW213457   2.970   3.826   4.357  0.6512  0.5188  1.1400
 4213SOL     OW13458   1.748   0.993   4.902  0.0458  0.4933 -0.3555
 4213SOL    HW113459   1.725   1.006   4.998 -0.7963 -0.1128 -0.4591
 4213SOL    HW213460   1.820   0.925   4.893 -0.3058  0.0858 -0.1731
 4214SOL     OW13461   4.081   2.981   4.869 -0.2929  0.1072  0.4943
 4214SOL    HW113462   4.177   2.956   4.868  0.0091  1.1791 -0.1772
 4214SOL    HW213463   4.052   3.001   4.963  0.3349  0.4308  0.6311
 4215SOL     OW13464   0.885   0.838   2.092  0.3207  0.1753  0.4617
 4215SOL    HW113465   0.865   0.934   2.109 -0.3546 -0.1957  1.9271
 4215SOL    HW213466   0.821   0.780   2.144  0.6438 -1.0633 -0.4687
 4216SOL     OW13467   5.900   4.577   2.132 -0.0824  0.3229 -0.1733
 4216SOL    HW113468   5.957   4.495   2.127  1.0504  1.0280  0.6698
 4216SOL    HW213469   5.812   4.559   2.088  1.0071 -0.6093 -2.0975
 4217SOL     OW13470   1.015   1.029   2.763  0.1501 -0.3989 -0.3685
 4217SOL    HW113471   0.967   1.105   2.720  0.1898 -0.9168 -1.3421
 4217SOL    HW213472   1.057   1.060   2.848  0.0810  0.6394 -0.6981
 4218SOL     OW13473   4.904   2.820   1.666  0.2709 -0.0906  1.0271
 4218SOL    HW113474   4.986   2.823   1.611  0.4984 -1.8953  1.1924
 4218SOL    HW213475   4.823   2.825   1.607  0.4145  2.7234  0.9275
 4219SOL     OW13476   0.253   1.732   0.289 -0.6946 -0.1057 -0.0307
 4219SOL    HW113477   0.259   1.633   0.297 -1.6432 -0.2057 -0.4767
 4219SOL    HW213478   0.307   1.774   0.362  1.9978 -0.8967 -1.4163
 4220SOL     OW13479   5.971   6.095   6.222 -0.2645 -0.8713  0.6579
 4220SOL    HW113480   5.963   6.103   6.322  0.5984 -2.9296  0.9435
 4220SOL    HW213481   5.900   6.034   6.188 -0.6940  0.0009 -0.0363
 4221SOL     OW13482   2.603   1.520   6.379 -0.6873  0.1952  0.5198
 4221SOL    HW113483   2.648   1.517   6.468 -1.6683 -1.4868  1.0173
 4221SOL    HW213484   2.628   1.439   6.326 -0.1903  1.1310 -0.7284
 4222SOL     OW13485   6.935   5.465   3.299 -0.0917  0.2114 -0.2225
 4222SOL    HW113486   6.839   5.483   3.280  0.1111  1.9732  0.2321
 4222SOL    HW213487   6.948   5.451   3.397  0.1972  0.6451 -0.1958
 4223SOL     OW13488   4.786   0.983   4.329  0.1818 -0.1582  0.1448
 4223SOL    HW113489   4.751   1.062   4.379  0.8749 -0.6887  1.5434
 4223SOL    HW213490   4.783   1.000   4.231 -1.3179  0.9049  0.3451
 4224SOL     OW13491   4.957   4.051   0.458 -0.1327  0.0272 -0.0224
 4224SOL    HW113492   4.973   4.072   0.554 -1.3469 -0.1230  0.2355
 4224SOL    HW213493   4.936   3.954   0.447  0.1389  0.0096 -0.4782
 4225SOL     OW13494   1.783   4.830   1.873  0.5346  0.2963  0.9420
 4225SOL    HW113495   1.832   4.916   1.864  1.5248 -0.3311  0.1810
 4225SOL    HW213496   1.838   4.765   1.926  0.8565 -0.6455 -0.4958
 4226SOL     OW13497   3.478   0.652   2.094  0.0874 -0.2167  0.5730
 4226SOL    HW113498   3.456   0.735   2.146 -2.0677  0.6677 -1.5155
 4226SOL    HW213499   3.517   0.678   2.005 -0.1268 -1.4687  0.0860
 4227SOL     OW13500   4.200   0.266   2.957  0.1558 -0.0645 -0.9577
 4227SOL    HW113501   4.267   0.193   2.948  0.4487  0.1230 -0.3163
 4227SOL    HW213502   4.109   0.226   2.968  0.1384 -0.3190 -1.8982
 4228SOL     OW13503   0.514   0.869   5.746  0.1512 -0.1190 -0.1494
 4228SOL    HW113504   0.490   0.966   5.745 -0.9446 -0.3719  0.2756
 4228SOL    HW213505   0.527   0.840   5.841 -1.0689 -0.7445 -0.1622
 4229SOL     OW13506   6.810   4.102   7.019 -0.6123 -0.3292  0.6227
 4229SOL    HW113507   6.774   4.009   7.023 -0.1920 -0.4715  1.1519
 4229SOL    HW213508   6.756   4.162   7.079 -1.5513  0.0323 -0.5573
 4230SOL     OW13509   3.593   4.762   3.098 -0.2241  0.5227  0.4052
 4230SOL    HW113510   3.525   4.824   3.137  1.5429  2.7186  0.1531
 4230SOL    HW213511   3.652   4.727   3.171  0.7596  1.7209  0.2445
 4231SOL     OW13512   4.928   0.293   3.375  0.3021  0.0130  0.4759
 4231SOL    HW113513   5.009   0.347   3.398  1.5450  0.0632 -3.3215
 4231SOL    HW213514   4.948   0.196   3.390  0.4333  0.1381  1.1498
 4232SOL     OW13515   2.023   0.526   4.034 -0.0051 -0.3783 -0.1869
 4232SOL    HW113516   2.091   0.539   4.107 -0.5464  0.5265  0.1707
 4232SOL    HW213517   2.056   0.569   3.950 -0.0198 -0.1783 -0.0896
 4233SOL     OW13518   4.836   0.472   0.604  0.3137  0.3409  1.1022
 4233SOL    HW113519   4.858   0.544   0.669  1.7819 -0.2993  1.3774
 4233SOL    HW213520   4.892   0.482   0.522 -0.1563  0.0663  0.7395
 4234SOL     OW13521   5.024   3.241   0.691  0.4503  0.5316 -0.3352
 4234SOL    HW113522   5.039   3.256   0.593  2.8807  0.1533 -0.0788
 4234SOL    HW213523   5.008   3.143   0.708  0.3316  0.5539 -0.3155
 4235SOL     OW13524   3.623   1.233   1.792  0.4518  0.4392 -0.3068
 4235SOL    HW113525   3.575   1.184   1.865  1.3529 -2.1069 -1.3358
 4235SOL    HW213526   3.589   1.203   1.703  0.4471  2.3842 -1.0124
 4236SOL     OW13527   2.764   4.345   1.259  0.7241 -0.7623  0.0492
 4236SOL    HW113528   2.676   4.332   1.305  0.7019  0.1658  0.2846
 4236SOL    HW213529   2.836   4.356   1.328  0.6373  1.0265 -0.0996
 4237SOL     OW13530   2.593   4.311   6.804 -0.0737 -0.9367  0.2087
 4237SOL    HW113531   2.550   4.370   6.736 -0.6728 -1.7954 -0.1754
 4237SOL    HW213532   2.601   4.360   6.891  0.7367  0.1875 -0.4725
 4238SOL     OW13533   2.485   2.662   0.404 -0.3310 -0.4596 -0.1894
 4238SOL    HW113534   2.583   2.644   0.409 -0.5917 -2.0584 -0.2687
 4238SOL    HW213535   2.440   2.588   0.355 -1.7679 -0.4532  1.0464
 4239SOL     OW13536   1.781   1.999   5.681  0.1518 -0.4721  0.2657
 4239SOL    HW113537   1.754   2.095   5.667  2.3606 -0.0292 -1.3309
 4239SOL    HW213538   1.808   1.986   5.777  0.8606  0.8091  0.2611
 4240SOL     OW13539   3.699   1.928   1.579  0.2100  0.0410 -0.2230
 4240SOL    HW113540   3.721   1.961   1.671  0.2098 -1.3072  0.2880
 4240SOL    HW213541   3.604   1.951   1.557  0.3220  0.7006 -0.0493
 4241SOL     OW13542   0.742   0.877   4.268 -0.0329 -0.0104  0.1643
 4241SOL    HW113543   0.802   0.900   4.345 -0.0016 -1.5366  0.6246
 4241SOL    HW213544   0.796   0.831   4.197 -0.3374  0.1307 -0.1641
 4242SOL     OW13545   2.356   0.788   3.056  0.0916  0.0178  0.1422
 4242SOL    HW113546   2.424   0.720   3.030  0.4431  0.8067 -1.0722
 4242SOL    HW213547   2.296   0.807   2.978 -1.1731 -0.2376  1.0177
 4243SOL     OW13548   0.841   0.707   2.507 -0.5721 -0.4333 -0.4610
 4243SOL    HW113549   0.873   0.731   2.599 -0.0602  1.2610 -1.0522
 4243SOL    HW213550   0.745   0.732   2.498 -0.8334 -1.2805 -0.1775
 4244SOL     OW13551   0.801   7.011   3.380 -0.0311  0.0702 -0.0469
 4244SOL    HW113552   0.850   7.062   3.309  2.3109 -2.1632 -0.2190
 4244SOL    HW213553   0.729   6.956   3.338 -0.0224  0.3664 -0.4140
 4245SOL     OW13554   1.602   4.049   5.039 -0.0331  0.2267 -0.2524
 4245SOL    HW113555   1.647   4.062   5.128 -0.4537  1.1341 -0.1529
 4245SOL    HW213556   1.597   4.137   4.991 -0.1049 -0.1947 -1.0373
 4246SOL     OW13557   0.075   5.158   5.472  0.0677 -0.6357  0.3009
 4246SOL    HW113558   0.089   5.158   5.373 -0.0998 -0.7830  0.2754
 4246SOL    HW213559   0.014   5.082   5.497 -2.1487  1.0119  0.1855
 4247SOL     OW13560   4.821   6.773   1.076  0.5345 -0.0338 -0.3799
 4247SOL    HW113561   4.796   6.818   0.990  0.6693 -0.2712 -0.5465
 4247SOL    HW213562   4.885   6.698   1.056  0.1185 -0.4567 -0.1374
 4248SOL     OW13563   6.872   6.791   0.797  0.1379  0.2777 -0.2544
 4248SOL    HW113564   6.890   6.693   0.804  1.9753  0.5539 -0.5153
 4248SOL    HW213565   6.925   6.829   0.722  0.1689  1.6302  0.4180
 4249SOL     OW13566   3.099   4.306   2.634 -0.2591  0.1089 -0.3632
 4249SOL    HW113567   3.129   4.219   2.674 -0.4247  0.7427  1.2005
 4249SOL    HW213568   3.066   4.290   2.541 -0.0961 -1.4690 -0.1797
 4250SOL     OW13569   3.266   4.936   5.496  0.0726  0.1635  0.6298
 4250SOL    HW113570   3.254   4.981   5.585 -0.0801 -0.8040  1.1204
 4250SOL    HW213571   3.270   4.837   5.510  1.8761  0.0784 -0.2502
 4251SOL     OW13572   3.863   3.121   0.799  0.0030 -0.5586  0.2340
 4251SOL    HW113573   3.908   3.175   0.728  0.9144 -0.2754  1.0051
 4251SOL    HW213574   3.784   3.073   0.760  0.8280 -0.8618 -1.1000
 4252SOL     OW13575   1.036   0.857   1.313  0.0220  0.7285 -1.0968
 4252SOL    HW113576   0.995   0.781   1.264 -0.3549  0.1716  0.0432
 4252SOL    HW213577   0.983   0.876   1.396  1.4978  0.6173 -0.0790
 4253SOL     OW13578   3.290   6.985   4.252  0.2830 -0.1501  0.3965
 4253SOL    HW113579   3.218   6.965   4.185  0.3028 -0.9355  0.6071
 4253SOL    HW213580   3.250   6.999   4.342  0.1038  2.2925 -0.0114
 4254SOL     OW13581   2.660   1.880   4.967 -0.7283  0.2077 -0.5473
 4254SOL    HW113582   2.578   1.898   5.021 -1.0794 -1.8450 -0.3080
 4254SOL    HW213583   2.642   1.806   4.903  0.9553 -0.3100 -0.4694
 4255SOL     OW13584   2.486   3.307   2.645 -0.0882 -0.1426 -0.1459
 4255SOL    HW113585   2.551   3.296   2.720 -0.6345 -0.7026  0.2517
 4255SOL    HW213586   2.535   3.334   2.562  0.5560  0.1737  0.3322
 4256SOL     OW13587   2.697   5.363   3.569 -0.0692  0.0226  0.3234
 4256SOL    HW113588   2.791   5.360   3.535 -0.3923 -0.4269 -0.5676
 4256SOL    HW213589   2.638   5.404   3.499 -0.7523 -0.9297  0.3180
 4257SOL     OW13590   6.820   5.990   4.455 -0.6476  0.2943 -0.8510
 4257SOL    HW113591   6.760   5.931   4.401 -1.1884 -0.8700  0.9427
 4257SOL    HW213592   6.770   6.074   4.479 -1.1396 -0.1102 -0.4317
 4258SOL     OW13593   4.991   2.299   4.089  0.1802  0.2772 -0.7599
 4258SOL    HW113594   5.064   2.354   4.048 -1.8160  3.4093 -0.4527
 4258SOL    HW213595   4.904   2.323   4.046 -1.0196 -1.6708  0.4369
 4259SOL     OW13596   5.295   3.902   5.718 -0.2668 -0.0033  0.1879
 4259SOL    HW113597   5.395   3.894   5.711 -0.1599  1.1133  0.2616
 4259SOL    HW213598   5.258   3.930   5.630 -0.4350  0.2491  0.3361
 4260SOL     OW13599   6.312   5.755   0.455  0.2471  0.6964 -0.2706
 4260SOL    HW113600   6.250   5.681   0.483  1.4703 -0.8554 -1.5068
 4260SOL    HW213601   6.261   5.841   0.453 -1.7134 -0.4128 -0.6587
 4261SOL     OW13602   0.927   5.989   4.825  0.8366 -0.0880 -0.3543
 4261SOL    HW113603   0.981   5.947   4.898 -0.2844  0.0360  0.5774
 4261SOL    HW213604   0.841   5.938   4.815  0.9054  0.0032 -1.4888
 4262SOL     OW13605   0.266   3.378   4.299 -0.7037  0.0488  0.4060
 4262SOL    HW113606   0.364   3.392   4.291 -0.4635 -1.6672 -0.2784
 4262SOL    HW213607   0.217   3.453   4.255  0.3441  0.1619 -0.6269
 4263SOL     OW13608   1.611   0.294   4.581 -0.0272  0.2941 -0.2029
 4263SOL    HW113609   1.606   0.264   4.485 -2.5567 -1.0940  0.2874
 4263SOL    HW213610   1.627   0.392   4.584 -1.0165  0.5538 -2.0781
 4264SOL     OW13611   3.324   5.200   0.767 -0.2385 -0.5670 -0.1938
 4264SOL    HW113612   3.337   5.246   0.679 -1.2093  0.2374  0.0682
 4264SOL    HW213613   3.233   5.158   0.770 -1.0409  1.1460  1.1602
 4265SOL     OW13614   1.541   2.120   4.957 -0.5084 -0.9966 -0.0070
 4265SOL    HW113615   1.485   2.067   5.021 -0.5833 -0.2784  0.5458
 4265SOL    HW213616   1.536   2.217   4.982 -0.1904 -0.7545 -0.8523
 4266SOL     OW13617   6.325   4.360   2.445 -0.1434 -0.0019  0.2765
 4266SOL    HW113618   6.246   4.387   2.500  0.6261  1.3049  0.7871
 4266SOL    HW213619   6.403   4.418   2.468  0.2951  0.4000 -2.0197
 4267SOL     OW13620   2.659   2.638   5.157  0.2437  0.1347 -0.6329
 4267SOL    HW113621   2.686   2.577   5.082  0.9593 -0.8188  0.3632
 4267SOL    HW213622   2.735   2.646   5.222 -0.1788  1.3558 -0.2618
 4268SOL     OW13623   0.978   6.540   1.792 -0.0163  0.0888 -0.6830
 4268SOL    HW113624   0.984   6.609   1.864  0.5111 -0.1258 -0.5155
 4268SOL    HW213625   0.982   6.449   1.833 -1.6215 -0.0651 -0.8205
 4269SOL     OW13626   5.144   3.407   1.821  0.3833 -0.0657 -0.5955
 4269SOL    HW113627   5.135   3.501   1.788  0.1282  0.6696  1.3926
 4269SOL    HW213628   5.070   3.351   1.783 -3.7901  2.1556  3.1992
 4270SOL     OW13629   4.462   6.067   3.672 -0.2670  0.3561  0.1968
 4270SOL    HW113630   4.481   6.136   3.742 -2.6802 -1.1620  2.5291
 4270SOL    HW213631   4.363   6.062   3.657 -0.1975 -2.6935  0.2941
 4271SOL     OW13632   6.306   0.499   3.413  0.2691  0.1313  0.3420
 4271SOL    HW113633   6.247   0.525   3.336 -0.4296 -0.4426  0.6747
 4271SOL    HW213634   6.330   0.403   3.406 -0.4561 -0.1412  1.2490
 4272SOL     OW13635   0.259   5.964   5.719  0.2949 -0.0908  0.0180
 4272SOL    HW113636   0.353   5.982   5.747 -0.5773  3.6769  1.2221
 4272SOL    HW213637   0.247   5.988   5.623  0.2420  1.3031  0.3447
 4273SOL     OW13638   6.604   1.874   2.443 -0.3395 -0.0838  0.5100
 4273SOL    HW113639   6.698   1.876   2.476 -0.8190  1.6491  1.9504
 4273SOL    HW213640   6.602   1.901   2.347  0.6763 -0.7784  0.2766
 4274SOL     OW13641   3.266   1.042   4.089  0.2369 -0.5772 -0.0742
 4274SOL    HW113642   3.216   0.968   4.134 -1.0094 -0.3841 -1.0934
 4274SOL    HW213643   3.273   1.024   3.991 -1.5882  1.4070 -0.6444
 4275SOL     OW13644   6.315   6.828   5.102  0.7096 -0.3469  0.5546
 4275SOL    HW113645   6.318   6.734   5.138  2.1085 -0.5630 -0.0943
 4275SOL    HW213646   6.330   6.892   5.177  2.9417 -0.7717  0.5074
 4276SOL     OW13647   6.800   0.452   0.929  0.2249  0.1765  0.1899
 4276SOL    HW113648   6.874   0.466   0.862 -0.6271  0.2124 -0.7610
 4276SOL    HW213649   6.734   0.386   0.892 -1.4571  1.8678 -0.0185
 4277SOL     OW13650   2.964   0.604   0.817 -0.1750 -0.1799 -0.1914
 4277SOL    HW113651   3.023   0.597   0.897 -0.5787  0.6608  0.2012
 4277SOL    HW213652   3.019   0.623   0.736  0.0995  0.6160  0.1746
 4278SOL     OW13653   4.914   4.569   1.964 -0.2182  0.2619 -0.2162
 4278SOL    HW113654   5.013   4.588   1.961 -0.3309  1.1415  0.8184
 4278SOL    HW213655   4.875   4.582   1.873  0.5519  0.3724 -0.5405
 4279SOL     OW13656   4.057   2.029   6.074  0.4601 -0.4664 -0.2103
 4279SOL    HW113657   3.981   2.020   6.009  0.0098  1.6659 -0.0487
 4279SOL    HW213658   4.022   2.025   6.167  0.4676  0.7983 -0.1337
 4280SOL     OW13659   6.072   0.222   0.150 -0.0807 -0.4369 -0.3836
 4280SOL    HW113660   6.073   0.247   0.247 -2.0436  0.8585 -0.6397
 4280SOL    HW213661   6.069   0.305   0.094  1.6444 -1.1483 -1.6195
 4281SOL     OW13662   5.430   1.634   4.046 -0.5367 -0.3291 -0.4360
 4281SOL    HW113663   5.413   1.567   4.118 -1.3847 -0.6235 -0.8942
 4281SOL    HW213664   5.388   1.722   4.070  1.5290  0.4224  0.6943
 4282SOL     OW13665   4.877   3.950   0.894  0.0102 -0.5839 -0.5688
 4282SOL    HW113666   4.832   3.880   0.837  1.0219 -1.2748 -0.5403
 4282SOL    HW213667   4.928   3.906   0.967 -0.5476  0.2630  0.3702
 4283SOL     OW13668   2.773   6.375   2.839  0.5870  0.1218 -0.2768
 4283SOL    HW113669   2.684   6.349   2.803 -0.3835  0.3766  1.8034
 4283SOL    HW213670   2.790   6.472   2.819  0.0482  0.2650 -0.0820
 4284SOL     OW13671   3.277   2.057   4.799 -0.0701  0.0415 -0.0076
 4284SOL    HW113672   3.360   2.006   4.818  0.7385  1.1279 -0.5178
 4284SOL    HW213673   3.277   2.088   4.704 -0.4305  1.1751  0.3428
 4285SOL     OW13674   4.801   4.871   6.872  0.4174  0.2917 -0.1200
 4285SOL    HW113675   4.756   4.959   6.856  0.2697  0.3135  0.3975
 4285SOL    HW213676   4.891   4.872   6.830  0.5868  0.8533  0.2435
 4286SOL     OW13677   5.108   4.061   3.129  0.0768  0.3724  0.0997
 4286SOL    HW113678   5.108   4.035   3.033 -0.1821 -1.1342  0.4909
 4286SOL    HW213679   5.042   4.005   3.179 -1.3720  2.5607  0.8016
 4287SOL     OW13680   7.004   0.524   0.750 -0.3975  0.0769 -0.8950
 4287SOL    HW113681   6.972   0.517   0.656 -2.4910  0.7215 -0.2795
 4287SOL    HW213682   7.031   0.618   0.769  3.2219 -0.6389 -1.7408
 4288SOL     OW13683   5.164   1.277   3.605 -0.7491  0.4324 -0.2047
 4288SOL    HW113684   5.095   1.301   3.674 -0.2996 -0.0950  0.4498
 4288SOL    HW213685   5.229   1.353   3.596 -0.0705  0.0108  0.9109
 4289SOL     OW13686   5.428   1.010   6.105  0.0092  0.3153 -0.8594
 4289SOL    HW113687   5.351   0.963   6.148  0.4180  0.4062 -0.0049
 4289SOL    HW213688   5.427   0.993   6.007 -0.7321 -0.2042 -0.7705
 4290SOL     OW13689   5.425   0.242   5.382 -0.2341 -0.1753  0.4473
 4290SOL    HW113690   5.472   0.156   5.359  0.6882  0.8904 -2.0401
 4290SOL    HW213691   5.445   0.266   5.477 -0.5461 -2.6875  1.2314
 4291SOL     OW13692   5.305   3.982   0.141  0.2570 -0.0220  0.0205
 4291SOL    HW113693   5.340   3.913   0.204 -0.3328 -0.5104 -0.1839
 4291SOL    HW213694   5.302   3.943   0.049 -0.4808  0.1441 -0.0234
 4292SOL     OW13695   3.324   6.633   3.188 -0.1432 -0.1136 -0.1598
 4292SOL    HW113696   3.409   6.630   3.135 -1.1165 -2.4587 -1.7230
 4292SOL    HW213697   3.256   6.688   3.139 -0.0438  0.4551  0.3231
 4293SOL     OW13698   4.262   1.488   3.848  0.8108  0.0984 -0.1550
 4293SOL    HW113699   4.320   1.477   3.928  0.9968  0.7793 -0.1923
 4293SOL    HW213700   4.303   1.555   3.786 -0.1605  0.8312 -0.0311
 4294SOL     OW13701   3.624   0.040   2.663 -0.3209 -0.0298  0.3523
 4294SOL    HW113702   3.719   0.013   2.679  0.4381  2.7720  1.0903
 4294SOL    HW213703   3.619   0.099   2.583 -1.5640 -0.6856 -0.0782
 4295SOL     OW13704   5.520   6.112   3.359  0.4031  0.0652 -0.1837
 4295SOL    HW113705   5.527   6.015   3.336  1.5558  1.0807 -5.1857
 4295SOL    HW213706   5.431   6.147   3.330  0.9430  0.9801 -0.7952
 4296SOL     OW13707   4.740   1.940   1.497  0.2114  0.4303 -0.7481
 4296SOL    HW113708   4.653   1.978   1.527  0.1754 -1.3322  1.5752
 4296SOL    HW213709   4.814   1.974   1.556  0.8838  0.6127 -1.6639
 4297SOL     OW13710   6.092   1.675   1.892 -0.1042  0.7387  0.2032
 4297SOL    HW113711   6.122   1.612   1.821  0.4561 -0.0981  1.1524
 4297SOL    HW213712   6.111   1.769   1.864  2.2970  0.3175  0.2070
 4298SOL     OW13713   2.055   4.740   1.208  0.2414 -0.1503 -0.5644
 4298SOL    HW113714   2.116   4.812   1.241 -0.5854 -0.9811  3.1644
 4298SOL    HW213715   1.961   4.775   1.203  0.0350 -0.6088  0.0076
 4299SOL     OW13716   0.511   5.322   6.888 -0.6491  0.3157 -0.1715
 4299SOL    HW113717   0.447   5.319   6.965 -2.5114  1.4701 -1.5928
 4299SOL    HW213718   0.495   5.405   6.834  2.6586  1.1155 -0.1417
 4300SOL     OW13719   6.847   4.176   6.119  0.3975 -0.4330  0.0330
 4300SOL    HW113720   6.784   4.229   6.176  0.1507 -0.5675 -0.1162
 4300SOL    HW213721   6.865   4.225   6.034 -2.7547 -2.2446 -1.8295
 4301SOL     OW13722   1.971   5.869   7.007 -0.1159 -0.1154 -0.2021
 4301SOL    HW113723   1.937   5.960   7.032 -0.7082 -0.0370 -1.2304
 4301SOL    HW213724   2.066   5.860   7.034  0.1572  1.0637 -0.7360
 4302SOL     OW13725   0.870   2.656   0.941  0.3943  0.7123  0.2317
 4302SOL    HW113726   0.963   2.657   0.978  0.3549  0.6933  0.3316
 4302SOL    HW213727   0.807   2.622   1.010  0.3987  0.1366 -0.0392
 4303SOL     OW13728   5.537   4.294   6.323  0.2359  0.0792  1.0082
 4303SOL    HW113729   5.557   4.250   6.410 -1.5752  0.4127  1.6292
 4303SOL    HW213730   5.530   4.225   6.251 -2.4883 -0.7592  1.9396
 4304SOL     OW13731   5.927   5.128   3.291  0.4365 -0.2686 -0.1989
 4304SOL    HW113732   5.955   5.033   3.289  0.2649 -0.4005  1.6699
 4304SOL    HW213733   5.950   5.168   3.380  0.6668  1.4880 -1.0060
 4305SOL     OW13734   2.789   4.448   1.957 -0.0837  0.5700 -0.5066
 4305SOL    HW113735   2.715   4.504   1.993 -0.7394  0.7419 -2.0402
 4305SOL    HW213736   2.771   4.352   1.978 -0.4406  0.6670 -0.3623
 4306SOL     OW13737   2.487   4.615   1.617 -0.5967  0.1753  0.3052
 4306SOL    HW113738   2.466   4.642   1.523  1.2111  0.4736 -0.0350
 4306SOL    HW213739   2.581   4.581   1.622 -0.7205 -0.0016  1.9766
 4307SOL     OW13740   1.308   0.852   1.963  0.6796  0.0831  0.9021
 4307SOL    HW113741   1.310   0.795   1.881 -1.5706 -1.6512  1.9604
 4307SOL    HW213742   1.237   0.921   1.954  1.7500  1.1709  0.6225
 4308SOL     OW13743   3.846   2.255   2.879 -0.0888  0.1342 -0.0245
 4308SOL    HW113744   3.785   2.280   2.803  0.6460 -0.1678 -0.7228
 4308SOL    HW213745   3.941   2.276   2.854  0.1454  0.1677  0.8689
 4309SOL     OW13746   2.750   4.441   5.740 -0.5838 -0.1153  0.4050
 4309SOL    HW113747   2.673   4.431   5.677 -0.7876  0.3802  0.5656
 4309SOL    HW213748   2.732   4.517   5.802  0.5064  0.7113 -0.2507
 4310SOL     OW13749   0.228   4.789   4.669  0.1356 -0.0151 -0.1130
 4310SOL    HW113750   0.224   4.766   4.766 -1.6003  1.7288  0.2840
 4310SOL    HW213751   0.323   4.810   4.644  0.5428 -0.0891  1.2820
 4311SOL     OW13752   4.912   3.772   0.443 -0.0079  0.7197 -0.3824
 4311SOL    HW113753   4.816   3.765   0.468 -0.5748 -2.0468 -2.7589
 4311SOL    HW213754   4.952   3.680   0.435  3.0482  1.7570  1.0215
 4312SOL     OW13755   0.472   6.738   3.654  0.1282  1.0639  0.2448
 4312SOL    HW113756   0.552   6.695   3.696 -0.7302 -0.7386  0.1542
 4312SOL    HW213757   0.412   6.773   3.725  0.3550  1.1823  0.3786
 4313SOL     OW13758   3.630   6.119   2.186 -0.2790 -0.3651  0.3297
 4313SOL    HW113759   3.721   6.088   2.214  2.3572  3.4354 -2.7062
 4313SOL    HW213760   3.597   6.061   2.112  1.9777  0.6413 -1.6094
 4314SOL     OW13761   1.486   1.852   6.920  0.2152  0.3423  0.1010
 4314SOL    HW113762   1.539   1.923   6.965 -1.9398  1.4649  0.9797
 4314SOL    HW213763   1.455   1.785   6.987 -2.5385  1.7201  0.4123
 4315SOL     OW13764   6.694   3.075   5.407 -0.5202 -0.1721 -0.0348
 4315SOL    HW113765   6.617   3.024   5.444  0.2249  0.1330  2.0678
 4315SOL    HW213766   6.778   3.023   5.423 -0.2253 -0.3763 -2.0434
 4316SOL     OW13767   5.945   4.133   2.613 -0.0164 -0.0226 -0.4137
 4316SOL    HW113768   5.958   4.058   2.678 -0.7749 -1.9405 -2.3419
 4316SOL    HW213769   5.848   4.153   2.605 -0.0098 -0.4569 -1.6470
 4317SOL     OW13770   3.246   3.839   6.801 -0.4531  0.6293  0.1714
 4317SOL    HW113771   3.317   3.835   6.731  0.0696 -1.1284  0.7575
 4317SOL    HW213772   3.162   3.877   6.761 -0.4672 -1.1885 -1.6965
 4318SOL     OW13773   6.619   2.317   6.856 -0.1561 -0.1502  0.0568
 4318SOL    HW113774   6.567   2.243   6.898  0.1040  0.3464  1.2791
 4318SOL    HW213775   6.632   2.391   6.922  0.8684  0.3583 -0.6820
 4319SOL     OW13776   2.565   4.504   4.786  0.1826 -1.3149  0.0579
 4319SOL    HW113777   2.605   4.489   4.877  0.0091 -0.0281  0.3762
 4319SOL    HW213778   2.488   4.442   4.773 -0.2223 -1.0476  1.0800
 4320SOL     OW13779   5.083   6.280   5.987  0.0442  0.0124 -0.2961
 4320SOL    HW113780   5.110   6.261   6.081 -0.0787  1.0412 -0.0307
 4320SOL    HW213781   5.093   6.198   5.931  2.0049 -0.1317  0.1746
 4321SOL     OW13782   0.444   1.066   3.101  0.8519 -0.2190  0.6308
 4321SOL    HW113783   0.438   1.127   3.179 -0.8279  1.2340 -0.5504
 4321SOL    HW213784   0.366   1.004   3.101  1.6564 -1.2819  0.8896
 4322SOL     OW13785   0.880   5.808   2.456 -0.4088 -0.3569 -0.6957
 4322SOL    HW113786   0.934   5.725   2.446 -0.3863 -0.3608 -0.5278
 4322SOL    HW213787   0.835   5.828   2.369 -0.5525 -0.6395 -0.6878
 4323SOL     OW13788   1.026   6.358   5.269 -0.1841  0.2962  0.3698
 4323SOL    HW113789   1.079   6.325   5.190 -1.6622 -1.3466  0.0320
 4323SOL    HW213790   0.933   6.379   5.240 -0.3665  1.0217  1.4266
 4324SOL     OW13791   5.916   0.910   2.519  0.2998 -0.4662 -0.0967
 4324SOL    HW113792   5.889   0.977   2.449  2.4627 -0.7365 -1.2561
 4324SOL    HW213793   5.934   0.957   2.605 -0.7976  0.0805 -0.1388
 4325SOL     OW13794   2.884   5.615   2.953 -0.5575  0.1878  0.1519
 4325SOL    HW113795   2.904   5.703   2.909  2.5015 -1.2519 -1.7109
 4325SOL    HW213796   2.792   5.586   2.929 -0.8271  1.8757 -1.0972
 4326SOL     OW13797   3.932   2.015   4.607  0.4107  0.0389  0.2116
 4326SOL    HW113798   3.875   1.963   4.543 -0.2390 -0.7436  1.3825
 4326SOL    HW213799   4.017   2.042   4.562 -0.1907 -0.1592 -1.0861
 4327SOL     OW13800   1.992   4.337   3.039 -0.4697  0.3480  0.1290
 4327SOL    HW113801   2.079   4.334   3.088 -0.3822  0.1822 -0.0339
 4327SOL    HW213802   1.977   4.429   3.004  0.2308  0.0888 -0.8973
 4328SOL     OW13803   6.177   3.460   0.156 -0.9023 -0.2277 -0.0224
 4328SOL    HW113804   6.215   3.475   0.065 -1.2611  0.5453 -0.0524
 4328SOL    HW213805   6.122   3.377   0.156  1.6682 -2.0760  0.2869
 4329SOL     OW13806   2.666   0.527   2.739 -0.4120 -0.3681  0.6691
 4329SOL    HW113807   2.592   0.461   2.751 -0.6020  0.0977  2.3192
 4329SOL    HW213808   2.753   0.479   2.732 -0.7310 -0.8590 -0.0067
 4330SOL     OW13809   6.316   3.110   3.636  0.4392  0.5663  0.1078
 4330SOL    HW113810   6.401   3.097   3.688  0.8689 -1.2209 -0.9823
 4330SOL    HW213811   6.245   3.144   3.698  1.2540 -0.3639  1.6330
 4331SOL     OW13812   3.974   5.224   4.442  0.3247 -0.0633 -0.2563
 4331SOL    HW113813   4.045   5.210   4.372 -0.6206 -0.3176 -1.1882
 4331SOL    HW213814   3.929   5.137   4.461 -1.0763  0.4254 -1.1624
 4332SOL     OW13815   1.189   2.227   6.139 -0.2815  0.1073 -0.1577
 4332SOL    HW113816   1.143   2.291   6.201  0.6034 -0.7957  1.5169
 4332SOL    HW213817   1.271   2.190   6.184  0.9531  0.1072 -2.2454
 4333SOL     OW13818   1.060   1.154   5.460  0.2308  0.2486  0.3480
 4333SOL    HW113819   1.155   1.163   5.431 -0.5160 -0.8177 -2.7492
 4333SOL    HW213820   1.057   1.117   5.553  2.8394 -0.4515  0.2237
 4334SOL     OW13821   1.470   0.015   3.979 -0.1987 -0.0217 -0.3355
 4334SOL    HW113822   1.373   0.038   3.988 -0.3600 -0.9843  0.5980
 4334SOL    HW213823   1.480  -0.075   3.938  0.1512 -1.1876  2.1391
 4335SOL     OW13824   3.080   0.623   6.931 -0.0035 -0.3637  0.5303
 4335SOL    HW113825   3.151   0.553   6.933 -1.1605 -1.5848  0.5690
 4335SOL    HW213826   3.027   0.614   6.846  1.2506  1.9656 -0.5610
 4336SOL     OW13827   6.137   5.145   0.156  0.5116 -0.8777  0.1858
 4336SOL    HW113828   6.129   5.171   0.252  2.5685 -1.6192  0.5953
 4336SOL    HW213829   6.070   5.073   0.135 -0.6389 -0.0021  0.7688
 4337SOL     OW13830   2.512   1.808   1.756  0.5019  0.1724 -0.0369
 4337SOL    HW113831   2.424   1.817   1.710  0.1774  0.5043  0.6276
 4337SOL    HW213832   2.586   1.817   1.690  0.0302 -2.9160 -1.1052
 4338SOL     OW13833   0.427   1.369   3.883  0.6401 -0.2187 -0.3244
 4338SOL    HW113834   0.340   1.416   3.899 -0.5333 -2.0608 -0.9324
 4338SOL    HW213835   0.476   1.360   3.970 -0.5394 -0.5539  0.3266
 4339SOL     OW13836   0.159   1.789   6.639 -0.3738  0.9837 -1.0104
 4339SOL    HW113837   0.153   1.839   6.726 -3.8457 -0.0032 -0.5271
 4339SOL    HW213838   0.235   1.723   6.644  0.5240  2.0573  0.6036
 4340SOL     OW13839   6.568   0.160   3.506 -0.1096  0.3745  0.1493
 4340SOL    HW113840   6.611   0.077   3.540  0.7413  0.3854 -0.8617
 4340SOL    HW213841   6.477   0.169   3.547 -0.3726 -1.2504 -0.0207
 4341SOL     OW13842   0.726   5.503   5.793 -0.2148  0.1657 -0.4120
 4341SOL    HW113843   0.713   5.408   5.763 -1.2983  0.4635 -0.9434
 4341SOL    HW213844   0.661   5.525   5.865  0.7420  0.2074  0.4751
 4342SOL     OW13845   3.491   1.500   5.801  0.3826 -0.3438 -0.2439
 4342SOL    HW113846   3.413   1.511   5.863 -0.8087  0.6451 -1.8524
 4342SOL    HW213847   3.462   1.520   5.707  2.2435 -1.3610 -1.0787
 4343SOL     OW13848   1.386   6.222   0.995  0.4496  0.4801  0.3538
 4343SOL    HW113849   1.342   6.219   1.085 -1.8537 -0.8749 -0.7053
 4343SOL    HW213850   1.444   6.141   0.984  0.5124  0.4998  0.5239
 4344SOL     OW13851   4.773   6.893   2.743  0.1275  0.5664  0.1096
 4344SOL    HW113852   4.789   6.989   2.767  1.6409  0.3448  0.1196
 4344SOL    HW213853   4.838   6.866   2.672  0.8991 -0.9020  1.3098
 4345SOL     OW13854   3.924   0.700   5.453  0.2695  0.0966  0.7262
 4345SOL    HW113855   3.871   0.774   5.494  0.5891 -0.3907  2.1009
 4345SOL    HW213856   3.997   0.738   5.396 -0.2321  0.8134  0.5551
 4346SOL     OW13857   4.497   3.685   6.897  0.4663  1.0925 -0.6509
 4346SOL    HW113858   4.594   3.686   6.919 -0.0677  0.7168  1.9751
 4346SOL    HW213859   4.476   3.606   6.840  1.2690 -0.4624  1.1505
 4347SOL     OW13860   5.211   2.047   4.405  0.0459 -0.6375  0.5162
 4347SOL    HW113861   5.287   1.982   4.407  0.4907 -0.2026 -0.9873
 4347SOL    HW213862   5.140   2.015   4.342 -0.9095 -0.9056  1.7032
 4348SOL     OW13863   4.253   6.526   3.865 -0.2953  0.0401 -0.3703
 4348SOL    HW113864   4.323   6.473   3.817  0.7626 -0.0408  1.1757
 4348SOL    HW213865   4.174   6.468   3.884 -1.4805  0.5170 -3.4402
 4349SOL     OW13866   1.233   4.882   2.471 -0.0474  0.1064  0.3526
 4349SOL    HW113867   1.300   4.883   2.396 -0.3209 -0.2934  0.0955
 4349SOL    HW213868   1.177   4.964   2.466  1.8768  1.6278  1.9239
 4350SOL     OW13869   1.049   4.443   1.079 -0.2601  0.6415 -0.1410
 4350SOL    HW113870   1.059   4.435   1.179 -0.0887  1.6787 -0.0630
 4350SOL    HW213871   0.987   4.372   1.047 -2.1007  1.6368  1.0228
 4351SOL     OW13872   0.466   1.161   5.418 -0.2911  0.3051 -0.4846
 4351SOL    HW113873   0.377   1.160   5.373 -0.1981  0.2421 -0.6645
 4351SOL    HW213874   0.538   1.176   5.351 -0.0705 -0.7861 -0.5009
 4352SOL     OW13875   2.838   5.608   5.804 -0.6811  0.5259 -0.2967
 4352SOL    HW113876   2.857   5.510   5.808  1.2525  0.9230  2.6236
 4352SOL    HW213877   2.766   5.631   5.869 -2.7802  0.8201 -2.5809
 4353SOL     OW13878   4.228   4.402   3.700  0.3410 -0.2681  0.1336
 4353SOL    HW113879   4.143   4.397   3.648 -1.2357  0.8077  2.4724
 4353SOL    HW213880   4.269   4.311   3.704 -1.1214 -0.9854 -0.3477
 4354SOL     OW13881   2.839   4.735   4.104  0.1947 -0.0448 -0.2332
 4354SOL    HW113882   2.767   4.666   4.097 -1.2186  0.8506  3.3966
 4354SOL    HW213883   2.816   4.814   4.047 -0.5676 -0.6563 -0.7968
 4355SOL     OW13884   5.495   1.134   3.027  0.6256  0.3911 -0.4635
 4355SOL    HW113885   5.581   1.109   2.982 -0.3136 -1.1161 -1.5273
 4355SOL    HW213886   5.449   1.051   3.059 -1.6053  0.8585 -2.1487
 4356SOL     OW13887   2.694   5.575   3.994 -0.5840  0.3691  0.1743
 4356SOL    HW113888   2.754   5.650   3.966 -0.2779 -0.0276 -0.2493
 4356SOL    HW213889   2.598   5.603   3.981 -0.4564  0.2246 -1.2365
 4357SOL     OW13890   3.096   6.901   5.789 -0.3423 -0.2787  0.1094
 4357SOL    HW113891   3.112   6.818   5.736 -0.6036  0.7489 -1.6477
 4357SOL    HW213892   3.061   6.973   5.729 -0.3763  1.0396  1.6375
 4358SOL     OW13893   5.418   2.172   3.511 -0.0973  0.1950 -0.2075
 4358SOL    HW113894   5.368   2.258   3.521  1.4777  1.0077  1.5958
 4358SOL    HW213895   5.361   2.096   3.541 -0.8418  0.8678  0.1119
 4359SOL     OW13896   1.447   2.517   4.709  0.2640  0.1171 -0.5098
 4359SOL    HW113897   1.368   2.455   4.708 -0.4899  1.0548 -1.1565
 4359SOL    HW213898   1.530   2.465   4.728 -0.5559 -0.8272  0.6264
 4360SOL     OW13899   0.884   5.064   0.788  0.0841 -0.2765  0.0703
 4360SOL    HW113900   0.883   5.099   0.694 -1.1892  0.7687  0.4349
 4360SOL    HW213901   0.971   5.018   0.806  0.6584  0.1898 -1.3679
 4361SOL     OW13902   2.508   4.969   0.168 -0.6421  0.5602 -0.4774
 4361SOL    HW113903   2.505   5.051   0.111 -0.0231 -0.7556 -2.5306
 4361SOL    HW213904   2.549   4.992   0.257 -0.6326  2.4858 -0.9260
 4362SOL     OW13905   4.009   2.642   0.648  0.1847 -0.4855  0.1697
 4362SOL    HW113906   3.934   2.633   0.713 -0.6770  1.0423 -0.5424
 4362SOL    HW213907   3.977   2.618   0.556  0.1808  1.2859 -0.3384
 4363SOL     OW13908   4.011   2.351   6.656 -0.2443  0.7963  0.0501
 4363SOL    HW113909   4.062   2.403   6.587 -1.0971  0.6782 -0.6857
 4363SOL    HW213910   3.916   2.381   6.657 -0.8700 -1.0147 -0.6968
 4364SOL     OW13911   0.603   1.696   6.140 -0.2680  0.3908 -0.3645
 4364SOL    HW113912   0.677   1.689   6.074  2.1339 -3.3632  2.3404
 4364SOL    HW213913   0.548   1.613   6.138  0.6661 -0.4455  3.0419
 4365SOL     OW13914   5.787   1.626   0.157 -0.2973  0.0634  0.0517
 4365SOL    HW113915   5.826   1.550   0.105 -1.5571 -0.9635  0.5600
 4365SOL    HW213916   5.701   1.597   0.199 -1.1699  1.9990 -0.3174
 4366SOL     OW13917   1.785   5.846   6.809 -0.5169  0.3609  0.3237
 4366SOL    HW113918   1.852   5.845   6.883 -1.1183  3.1743  1.0507
 4366SOL    HW213919   1.693   5.836   6.848 -0.7324 -0.1103 -0.2822
 4367SOL     OW13920   5.703   6.410   4.695  0.2791 -0.6267 -0.0993
 4367SOL    HW113921   5.637   6.474   4.734  1.1559 -0.3380  0.9898
 4367SOL    HW213922   5.707   6.422   4.596 -0.1435  0.4528  0.0022
 4368SOL     OW13923   2.936   6.335   4.240  0.0881  0.4500  0.4199
 4368SOL    HW113924   2.876   6.387   4.301 -0.5929  0.8774 -0.5817
 4368SOL    HW213925   2.890   6.320   4.153  2.2492  2.9541 -1.3433
 4369SOL     OW13926   3.154   2.677   5.476 -0.4226 -0.7386 -0.5580
 4369SOL    HW113927   3.138   2.697   5.573  0.2481 -0.3894 -0.5164
 4369SOL    HW213928   3.097   2.736   5.420 -0.0644 -0.2348 -0.3946
 4370SOL     OW13929   3.921   3.150   1.871  0.0480  0.7304  0.2982
 4370SOL    HW113930   3.921   3.052   1.848  0.5766  1.1188 -1.4745
 4370SOL    HW213931   3.830   3.188   1.857 -0.2585  0.4312  1.3741
 4371SOL     OW13932   4.223   6.750   1.622 -1.0195  0.0331 -0.5527
 4371SOL    HW113933   4.294   6.816   1.596 -0.7369 -0.5174 -1.2144
 4371SOL    HW213934   4.151   6.749   1.553 -0.2919 -1.4016 -1.3503
 4372SOL     OW13935   2.815   6.171   6.719  0.0500  0.4696  0.1211
 4372SOL    HW113936   2.719   6.192   6.703 -0.2311 -0.2535  0.7831
 4372SOL    HW213937   2.833   6.076   6.693  0.6227  0.6492 -0.1453
 4373SOL     OW13938   6.149   3.310   4.670 -0.2121  0.5412 -1.1302
 4373SOL    HW113939   6.061   3.348   4.642  0.1856  0.4742 -2.5302
 4373SOL    HW213940   6.154   3.308   4.770 -1.2600  1.7916 -1.0264
 4374SOL     OW13941   1.822   5.288   6.429 -0.1517  0.2965 -0.4934
 4374SOL    HW113942   1.878   5.348   6.372  0.1346  1.9142  1.3644
 4374SOL    HW213943   1.794   5.336   6.512 -0.6712 -1.8884  0.7151
 4375SOL     OW13944   3.176   4.932   0.428  0.2575  0.0845 -0.3494
 4375SOL    HW113945   3.229   5.016   0.438 -0.9494  0.6873  1.5003
 4375SOL    HW213946   3.082   4.955   0.404  0.3741 -0.8870 -1.8931
 4376SOL     OW13947   5.815   2.090   6.417 -0.0243  0.1823 -0.4500
 4376SOL    HW113948   5.829   2.095   6.516  0.5616 -0.1083 -0.5136
 4376SOL    HW213949   5.801   2.182   6.381 -1.0039  0.2278  0.0024
 4377SOL     OW13950   1.454   2.938   2.778 -0.0127  0.5841 -0.3592
 4377SOL    HW113951   1.427   2.887   2.697 -0.0863  1.8272 -1.1393
 4377SOL    HW213952   1.437   3.036   2.764  1.4729  1.0119  0.5220
 4378SOL     OW13953   4.906   0.490   3.140 -0.6863  0.8225 -0.1279
 4378SOL    HW113954   4.869   0.516   3.050 -1.3437  2.8870  0.7075
 4378SOL    HW213955   4.831   0.479   3.205 -0.0650  1.7354  0.7676
 4379SOL     OW13956   3.231   4.704   2.926 -0.1504 -0.3090 -0.1946
 4379SOL    HW113957   3.297   4.776   2.903 -0.0078 -0.4179 -0.1355
 4379SOL    HW213958   3.254   4.622   2.874 -0.0209 -0.4591  0.0963
 4380SOL     OW13959   5.004   6.797   5.060  0.3422  0.5061  0.0028
 4380SOL    HW113960   4.948   6.812   4.979 -0.7009  2.5162  1.0319
 4380SOL    HW213961   4.991   6.704   5.093 -0.5149  0.1915 -1.1660
 4381SOL     OW13962   1.782   3.438   6.343  0.0565  0.1116 -0.4213
 4381SOL    HW113963   1.878   3.448   6.369  0.0041  0.9790 -0.5272
 4381SOL    HW213964   1.773   3.453   6.245 -0.1105 -0.5553 -0.5109
 4382SOL     OW13965   2.472   2.814   1.945 -0.5782  0.8362 -0.1734
 4382SOL    HW113966   2.549   2.754   1.926  0.7792  2.2194  0.7368
 4382SOL    HW213967   2.482   2.899   1.893 -1.8425  0.7850 -0.5391
 4383SOL     OW13968   0.869   4.374   1.708  0.1178  0.2255 -0.6338
 4383SOL    HW113969   0.946   4.436   1.691  0.8587 -0.5020  0.0335
 4383SOL    HW213970   0.818   4.360   1.622  0.3841  1.1522 -0.9554
 4384SOL     OW13971   3.949   0.750   3.443  0.1349  0.3108 -0.0037
 4384SOL    HW113972   3.888   0.767   3.520  1.9314 -1.4895  1.9462
 4384SOL    HW213973   3.997   0.835   3.419  0.7190  0.5819  1.9729
 4385SOL     OW13974   4.814   5.255   5.395 -0.1861  0.0328  0.1628
 4385SOL    HW113975   4.906   5.294   5.397  0.4066 -1.3413  0.5403
 4385SOL    HW213976   4.747   5.328   5.380  1.0510  0.8760 -1.5185
 4386SOL     OW13977   6.926   0.540   4.453  0.3766  0.1445 -0.3184
 4386SOL    HW113978   6.950   0.454   4.409  0.6502  0.8546 -1.6398
 4386SOL    HW213979   6.854   0.586   4.400  1.3349  1.4369 -0.5861
 4387SOL     OW13980   1.690   4.349   6.929 -0.1019 -0.6003 -0.2528
 4387SOL    HW113981   1.598   4.311   6.939 -0.2623 -0.2719 -0.4363
 4387SOL    HW213982   1.704   4.379   6.835  0.4894 -1.3928 -0.4323
 4388SOL     OW13983   3.092   4.681   2.176  0.3869  0.1277 -0.1831
 4388SOL    HW113984   3.054   4.674   2.268  1.8611 -0.9360  0.3700
 4388SOL    HW213985   3.067   4.600   2.123 -0.1113  0.5462 -0.6066
 4389SOL     OW13986   1.084   5.293   3.184 -0.0749  0.0093  0.3877
 4389SOL    HW113987   1.046   5.378   3.147 -1.1185  0.6298  2.6854
 4389SOL    HW213988   1.158   5.315   3.248  0.4248 -0.9031  0.1352
 4390SOL     OW13989   5.195   3.367   3.087 -0.1429 -0.2376 -0.1199
 4390SOL    HW113990   5.168   3.366   2.991  0.4805  0.9291 -0.3435
 4390SOL    HW213991   5.281   3.318   3.099 -0.8052 -1.3871  0.0631
 4391SOL     OW13992   6.780   0.032   4.768 -0.1481 -0.3789 -0.1703
 4391SOL    HW113993   6.707   0.060   4.829  0.0243  0.2975 -0.2684
 4391SOL    HW213994   6.755  -0.054   4.722 -2.0791  1.1982 -2.2318
 4392SOL     OW13995   5.658   5.934   3.024 -0.5329  0.8116 -0.4133
 4392SOL    HW113996   5.573   5.986   3.013 -1.9370 -1.7146 -2.5103
 4392SOL    HW213997   5.719   5.954   2.947  0.3521  1.8042  0.5236
 4393SOL     OW13998   4.500   6.238   2.718 -0.1362  0.4152 -0.3805
 4393SOL    HW113999   4.570   6.242   2.647  0.9982  0.8668  0.7340
 4393SOL    HW214000   4.486   6.330   2.755  1.9492 -0.2820  2.4604
 4394SOL     OW14001   2.207   3.201   7.008  0.1800 -0.3704  0.0416
 4394SOL    HW114002   2.188   3.253   7.091  1.1215  1.3933 -0.8365
 4394SOL    HW214003   2.304   3.206   6.987  0.2770 -2.3655 -0.1773
 4395SOL     OW14004   2.066   5.549   0.184 -0.4367 -0.4104  0.2163
 4395SOL    HW114005   2.091   5.457   0.213 -0.8381 -1.1099 -1.5462
 4395SOL    HW214006   2.125   5.577   0.108 -1.3562  0.1396 -0.3169
 4396SOL     OW14007   6.198   3.681   2.049 -0.0899 -0.2835 -0.4068
 4396SOL    HW114008   6.243   3.699   2.137 -0.5549 -2.5886  0.3714
 4396SOL    HW214009   6.102   3.659   2.066 -0.2635 -0.4135 -1.5468
 4397SOL     OW14010   5.296   3.691   1.407  0.8826  0.0279 -0.2346
 4397SOL    HW114011   5.327   3.680   1.502 -1.5032 -0.0802  0.5870
 4397SOL    HW214012   5.283   3.789   1.388  2.3526  0.1346 -0.8304
 4398SOL     OW14013   3.226   0.124   5.489  0.0610 -0.3498 -0.6110
 4398SOL    HW114014   3.189   0.204   5.441 -1.4994 -1.5114 -1.4408
 4398SOL    HW214015   3.317   0.146   5.524  0.1355  1.4303 -1.7688
 4399SOL     OW14016   4.114   4.924   2.363 -0.4099 -0.1523  0.5722
 4399SOL    HW114017   4.127   4.829   2.335  2.2692  0.2699  0.0329
 4399SOL    HW214018   4.146   4.935   2.457 -0.6263  0.2209  0.6031
 4400SOL     OW14019   6.343   5.456   3.186  0.2612  0.3616 -0.0154
 4400SOL    HW114020   6.308   5.362   3.183  0.4530  0.3160 -2.6734
 4400SOL    HW214021   6.269   5.519   3.210 -0.6997 -0.1684 -1.4520
 4401SOL     OW14022   5.944   0.941   0.743  0.1047 -0.3385  0.0469
 4401SOL    HW114023   6.007   0.886   0.688  0.6628 -0.0728  0.4128
 4401SOL    HW214024   5.969   0.934   0.839 -0.9552 -0.9130  0.2860
 4402SOL     OW14025   3.001   2.341   5.660 -0.0919 -0.1568 -0.5235
 4402SOL    HW114026   2.927   2.286   5.698  0.1677 -1.2213 -1.4867
 4402SOL    HW214027   3.003   2.430   5.704  0.0022 -1.1934  1.6984
 4403SOL     OW14028   4.206   4.417   4.886  0.1397 -0.2258  0.0566
 4403SOL    HW114029   4.224   4.373   4.974 -0.3598 -0.5481  0.0026
 4403SOL    HW214030   4.243   4.361   4.812 -0.8265 -0.7596 -0.0377
 4404SOL     OW14031   2.625   0.511   5.839 -0.1358 -0.3520  0.1342
 4404SOL    HW114032   2.549   0.497   5.903 -1.2926 -1.3993 -1.3728
 4404SOL    HW214033   2.695   0.568   5.882 -1.8705  0.8663  1.5064
 4405SOL     OW14034   3.818   6.989   3.393  0.6976 -0.3371 -0.2250
 4405SOL    HW114035   3.811   6.962   3.297 -0.5450  1.8774 -0.8301
 4405SOL    HW214036   3.780   6.917   3.451 -1.4416 -0.4457 -1.6431
 4406SOL     OW14037   4.747   1.061   0.026  0.1009 -0.1111  0.1277
 4406SOL    HW114038   4.784   0.968   0.032  1.0342  0.1314 -1.2679
 4406SOL    HW214039   4.702   1.073  -0.063  0.5190  0.9387  0.0739
 4407SOL     OW14040   3.410   1.944   0.133  0.0739 -0.4542 -0.3622
 4407SOL    HW114041   3.411   1.889   0.216 -0.7523  0.3675  0.2074
 4407SOL    HW214042   3.426   1.885   0.054  0.5700 -1.2913  0.3506
 4408SOL     OW14043   3.771   1.568   2.494  0.1838 -0.3649  0.1923
 4408SOL    HW114044   3.825   1.599   2.416  1.1457  0.6420  1.2158
 4408SOL    HW214045   3.682   1.613   2.494  1.1158  1.6022  1.0046
 4409SOL     OW14046   2.299   3.705   6.098  0.4326 -0.6826  0.4575
 4409SOL    HW114047   2.257   3.759   6.026  1.4864 -1.2587 -0.6404
 4409SOL    HW214048   2.239   3.628   6.123 -0.7447  0.5259  1.5272
 4410SOL     OW14049   6.443   2.294   1.864  0.9297  0.0736 -0.0734
 4410SOL    HW114050   6.511   2.280   1.936  1.8557  0.7136 -0.7983
 4410SOL    HW214051   6.398   2.382   1.876 -1.8059 -1.4488  1.9921
 4411SOL     OW14052   6.482   5.595   5.435 -0.1625  0.3017  0.0717
 4411SOL    HW114053   6.416   5.666   5.410  0.5519  0.8088 -0.4333
 4411SOL    HW214054   6.453   5.507   5.397 -1.5298  0.1201  1.4692
 4412SOL     OW14055   4.817   4.949   5.972 -0.0515  0.4753  0.2896
 4412SOL    HW114056   4.765   5.012   6.029  0.6737  0.9660  0.4191
 4412SOL    HW214057   4.821   4.859   6.016 -1.0916  0.3200  0.1024
 4413SOL     OW14058   2.377   5.344   4.122 -0.0179 -0.2734  0.4280
 4413SOL    HW114059   2.340   5.411   4.187 -1.6202  1.3269 -1.9613
 4413SOL    HW214060   2.419   5.269   4.172 -1.3847  0.7233  3.2940
 4414SOL     OW14061   5.003   1.685   4.358  0.1931 -0.6058  0.5443
 4414SOL    HW114062   5.059   1.753   4.311 -0.7047 -0.4978 -0.3939
 4414SOL    HW214063   4.977   1.613   4.294 -3.1035  0.7837  0.1030
 4415SOL     OW14064   1.891   6.130   0.051 -0.5902 -0.2754  0.7699
 4415SOL    HW114065   1.793   6.135   0.030 -0.8295 -1.6042  1.4271
 4415SOL    HW214066   1.936   6.213   0.020 -1.8878  0.2633  0.2725
 4416SOL     OW14067   3.915   3.167   5.446  0.1696  0.0073  0.7524
 4416SOL    HW114068   4.008   3.165   5.410 -0.2348  0.8823 -0.3842
 4416SOL    HW214069   3.913   3.122   5.536  0.9899 -3.3930 -0.8208
 4417SOL     OW14070   6.676   6.369   0.545 -0.0981  0.4030  0.0804
 4417SOL    HW114071   6.743   6.426   0.498 -0.1546  0.1676 -0.2884
 4417SOL    HW214072   6.630   6.423   0.616 -0.4344  0.9259 -0.5265
 4418SOL     OW14073   3.675   2.983   0.651  0.6148  0.3186  0.2622
 4418SOL    HW114074   3.641   2.890   0.659  0.2747  0.2204 -1.7337
 4418SOL    HW214075   3.616   3.035   0.588  0.8242  1.8683  1.2802
 4419SOL     OW14076   5.963   3.664   3.337 -0.0019 -0.3800 -0.4876
 4419SOL    HW114077   5.949   3.650   3.239  0.9361 -1.2088 -0.5228
 4419SOL    HW214078   5.963   3.575   3.383  1.5862 -0.1804 -0.0366
 4420SOL     OW14079   4.449   4.309   3.363 -0.5366  0.5944 -1.1417
 4420SOL    HW114080   4.506   4.227   3.366 -2.0716 -0.4727  0.6017
 4420SOL    HW214081   4.477   4.371   3.436 -1.8377 -0.1452  0.0349
 4421SOL     OW14082   0.436   1.617   1.529  0.2344 -0.8981 -0.2657
 4421SOL    HW114083   0.403   1.698   1.482  0.1793 -0.6691  0.1604
 4421SOL    HW214084   0.505   1.643   1.597  0.0485 -1.1782  0.0388
 4422SOL     OW14085   6.863   0.712   6.894  0.3243  0.5698 -0.3387
 4422SOL    HW114086   6.950   0.720   6.846 -0.3224  0.1447 -1.6198
 4422SOL    HW214087   6.796   0.775   6.855 -0.4505 -0.3561 -0.5635
 4423SOL     OW14088   3.116   5.536   1.056  0.1776 -0.6796 -0.0109
 4423SOL    HW114089   3.156   5.601   0.991  0.0247 -1.2593 -0.6951
 4423SOL    HW214090   3.017   5.545   1.055  0.0920 -1.4698 -0.7272
 4424SOL     OW14091   1.502   3.154   1.751  0.3301  0.2969  0.0941
 4424SOL    HW114092   1.560   3.101   1.814  0.9105  1.0703  0.2273
 4424SOL    HW214093   1.451   3.222   1.804  1.2323  1.3185 -0.3143
 4425SOL     OW14094   5.930   4.316   2.057 -0.0901  0.2642 -0.3150
 4425SOL    HW114095   5.840   4.278   2.078 -0.3783  1.1223  0.0392
 4425SOL    HW214096   6.001   4.249   2.081 -0.3303  1.2046  3.8771
 4426SOL     OW14097   1.617   3.639   4.126  0.1096 -0.5074 -0.3627
 4426SOL    HW114098   1.685   3.589   4.180 -0.3300 -0.1564  0.5220
 4426SOL    HW214099   1.664   3.704   4.066  0.7194 -2.2757 -1.8699
 4427SOL     OW14100   0.369   3.000   6.309  0.1259  0.3498 -1.1834
 4427SOL    HW114101   0.333   2.987   6.401 -1.1717  0.6745 -1.6292
 4427SOL    HW214102   0.420   2.919   6.281  0.5618  0.2630 -0.1691
 4428SOL     OW14103   6.411   4.717   6.336 -1.2373 -0.1147 -0.2662
 4428SOL    HW114104   6.412   4.766   6.423  1.1613  0.2477 -0.4369
 4428SOL    HW214105   6.369   4.775   6.265  0.2634  1.1717 -0.1543
 4429SOL     OW14106   6.742   0.228   1.282  0.2131 -0.4433  0.2492
 4429SOL    HW114107   6.728   0.142   1.233  2.5834 -0.0297 -1.3371
 4429SOL    HW214108   6.682   0.298   1.244  2.1551 -0.0782 -2.4166
 4430SOL     OW14109   4.332   6.414   1.309  0.2758  0.3337 -0.4313
 4430SOL    HW114110   4.371   6.344   1.250 -0.8966 -2.0651  1.4830
 4430SOL    HW214111   4.232   6.410   1.303  0.1738  1.4780  0.1620
 4431SOL     OW14112   3.399   0.910   0.588 -0.4242  0.1161  0.6127
 4431SOL    HW114113   3.383   0.991   0.644 -1.1885 -0.7787  1.7362
 4431SOL    HW214114   3.376   0.930   0.493 -0.5160  1.2320  0.8573
 4432SOL     OW14115   0.824   0.879   3.015 -0.0113 -0.0096 -0.4800
 4432SOL    HW114116   0.895   0.876   2.944 -0.2317 -0.2377 -0.6932
 4432SOL    HW214117   0.827   0.967   3.062  0.6303 -0.1348 -0.2657
 4433SOL     OW14118   2.325   5.264   5.474 -0.4838 -0.2651  0.3747
 4433SOL    HW114119   2.330   5.182   5.416  0.7455 -0.4386  0.7044
 4433SOL    HW214120   2.328   5.346   5.416 -1.6442 -0.4293  0.0493
 4434SOL     OW14121   3.728   6.932   0.039 -0.0258 -1.0064 -0.8485
 4434SOL    HW114122   3.647   6.873   0.044 -0.5973 -0.2157  3.4409
 4434SOL    HW214123   3.786   6.916   0.118  0.7244  2.8298 -0.4132
 4435SOL     OW14124   3.597   5.267   4.373  0.6974  0.2621 -0.7010
 4435SOL    HW114125   3.534   5.326   4.323  1.7536  0.4980 -1.8343
 4435SOL    HW214126   3.648   5.321   4.440  1.2165  0.5296 -1.2990
 4436SOL     OW14127   5.703   3.082   1.257  0.1468 -0.5993 -0.3946
 4436SOL    HW114128   5.758   3.157   1.293  0.2254 -1.2407  0.9040
 4436SOL    HW214129   5.751   2.995   1.274 -1.2948 -1.1846  0.8954
 4437SOL     OW14130   5.699   3.862   3.164 -0.1402  0.2182  0.0653
 4437SOL    HW114131   5.615   3.910   3.139 -1.2786 -2.6182 -2.2084
 4437SOL    HW214132   5.692   3.828   3.258 -1.6930 -0.2207 -0.1847
 4438SOL     OW14133   5.474   7.009   1.773 -0.2699 -0.1148 -0.0708
 4438SOL    HW114134   5.433   6.981   1.860 -1.6488 -1.1420 -1.0218
 4438SOL    HW214135   5.544   6.943   1.746 -0.8429 -0.5545 -0.4415
 4439SOL     OW14136   5.382   5.646   4.977 -0.1092  0.5833 -0.3508
 4439SOL    HW114137   5.475   5.650   5.016  0.1731  0.4437 -1.0040
 4439SOL    HW214138   5.387   5.660   4.879 -0.7233 -0.0786 -0.4802
 4440SOL     OW14139   2.425   5.876   3.458  0.1418  0.2700  0.4418
 4440SOL    HW114140   2.456   5.950   3.518  0.4644 -0.6737  1.4585
 4440SOL    HW214141   2.492   5.802   3.458 -0.2158 -0.0793 -0.5205
 4441SOL     OW14142   4.151   4.401   5.754 -0.9838 -0.1316  0.3278
 4441SOL    HW114143   4.204   4.449   5.824 -1.3756 -3.1630  2.8971
 4441SOL    HW214144   4.208   4.386   5.674  1.5153 -1.6538  2.2775
 4442SOL     OW14145   6.239   1.898   2.966  0.2307 -0.1655  0.1823
 4442SOL    HW114146   6.171   1.972   2.973  0.0954 -0.0300 -1.9930
 4442SOL    HW214147   6.330   1.938   2.952  0.4403 -0.4029  0.8171
 4443SOL     OW14148   4.367   1.012   1.821  0.0737 -0.1785 -0.1780
 4443SOL    HW114149   4.369   0.985   1.725 -0.5025  1.1773 -0.5888
 4443SOL    HW214150   4.308   0.949   1.872 -1.2546  0.2869 -1.1045
 4444SOL     OW14151   1.252   5.277   1.341 -0.5804 -0.2000  0.0147
 4444SOL    HW114152   1.255   5.285   1.441 -1.3199  0.3573 -0.0005
 4444SOL    HW214153   1.319   5.209   1.311  0.2266  0.2145  0.8238
 4445SOL     OW14154   2.168   3.796   5.841 -0.0188 -0.1935  0.0240
 4445SOL    HW114155   2.077   3.838   5.851  1.3255  2.8394  0.8887
 4445SOL    HW214156   2.197   3.804   5.746 -0.4260 -0.6737 -0.1461
 4446SOL     OW14157   4.630   2.792   1.600  0.7825 -0.2473  0.0213
 4446SOL    HW114158   4.581   2.838   1.674  2.8878  2.2726 -0.0053
 4446SOL    HW214159   4.590   2.701   1.585 -2.5818  0.8954  1.1654
 4447SOL     OW14160   6.607   2.296   2.516  0.5061  0.0239  0.1370
 4447SOL    HW114161   6.681   2.334   2.571  1.1408 -0.3825 -0.4317
 4447SOL    HW214162   6.573   2.212   2.558 -0.4719  0.8342  1.0520
 4448SOL     OW14163   0.371   1.818   6.076  0.0252 -0.1717 -0.3571
 4448SOL    HW114164   0.384   1.794   5.979  0.0002 -0.4047 -0.3051
 4448SOL    HW214165   0.450   1.786   6.128 -0.0295 -0.1795 -0.2787
 4449SOL     OW14166   1.989   2.829   2.137 -0.1647  0.0326 -0.0442
 4449SOL    HW114167   1.939   2.868   2.059 -0.7629  0.2160  0.4290
 4449SOL    HW214168   2.015   2.902   2.200  0.8799 -0.0343 -0.3749
 4450SOL     OW14169   4.361   6.744   4.487  0.5029  1.0556 -0.2189
 4450SOL    HW114170   4.300   6.693   4.546  0.1394  0.2138 -1.2881
 4450SOL    HW214171   4.442   6.773   4.538 -0.1826  1.0655  0.8771
 4451SOL     OW14172   5.698   0.867   5.023 -0.0142 -0.1302  0.4736
 4451SOL    HW114173   5.711   0.852   4.925  0.0147 -0.4662  0.5269
 4451SOL    HW214174   5.759   0.806   5.074 -1.4055 -1.3708  0.7204
 4452SOL     OW14175   3.143   0.022   1.025 -0.3153  0.0182 -0.7199
 4452SOL    HW114176   3.127   0.042   0.928  0.2192  1.1046 -0.6048
 4452SOL    HW214177   3.239   0.041   1.048 -1.2574  3.4840  0.8489
 4453SOL     OW14178   4.986   3.598   6.784  0.1174 -0.5327  0.1485
 4453SOL    HW114179   5.083   3.620   6.772  0.1049 -0.9371 -0.7454
 4453SOL    HW214180   4.971   3.501   6.768 -0.5484 -0.3425 -0.4416
 4454SOL     OW14181   1.302   4.383   0.651  0.2485  0.4535  0.5373
 4454SOL    HW114182   1.267   4.428   0.733 -0.9752 -0.2564  0.4309
 4454SOL    HW214183   1.378   4.323   0.676  0.0406  0.4276  1.1171
 4455SOL     OW14184   4.625   2.602   1.846 -0.0754 -0.0946 -0.1677
 4455SOL    HW114185   4.617   2.701   1.839  1.3431 -0.0182 -1.0832
 4455SOL    HW214186   4.696   2.569   1.784 -0.5173 -1.6922  0.1156
 4456SOL     OW14187   0.217   6.912   0.087 -0.2908 -0.2491 -0.9926
 4456SOL    HW114188   0.133   6.878   0.129  0.1341 -0.7997 -0.5797
 4456SOL    HW214189   0.261   6.977   0.150 -0.5058  0.2139 -1.2951
 4457SOL     OW14190   3.874   6.143   0.201 -0.4256  0.2875 -0.3353
 4457SOL    HW114191   3.903   6.048   0.203  2.3203  0.9901 -1.9701
 4457SOL    HW214192   3.828   6.163   0.115  1.1551  0.9321 -1.0727
 4458SOL     OW14193   6.853   4.975   1.960 -0.0628  0.7277  0.2018
 4458SOL    HW114194   6.761   5.011   1.970 -0.5439  0.5598 -2.7520
 4458SOL    HW214195   6.919   5.050   1.966 -0.6067  1.2583 -0.2890
 4459SOL     OW14196   3.201   3.369   1.290  0.0610 -0.0646  0.3597
 4459SOL    HW114197   3.201   3.460   1.332 -1.2196  0.1705 -0.1263
 4459SOL    HW214198   3.295   3.335   1.285  0.8102  1.9833 -1.0663
 4460SOL     OW14199   0.124   3.660   2.848  0.3967 -0.7325 -0.0069
 4460SOL    HW114200   0.211   3.685   2.806 -0.1114  0.1948 -0.5352
 4460SOL    HW214201   0.128   3.678   2.947 -0.4162  2.9197 -0.5472
 4461SOL     OW14202   2.066   4.125   4.137 -0.3346 -0.2879 -0.2998
 4461SOL    HW114203   2.135   4.166   4.196 -0.8754 -0.1148  0.2225
 4461SOL    HW214204   2.058   4.028   4.159 -1.3121 -0.0054  0.7076
 4462SOL     OW14205   1.791   0.326   3.578 -0.1493 -0.3332 -0.8322
 4462SOL    HW114206   1.817   0.264   3.504  2.2471  0.1136 -0.4703
 4462SOL    HW214207   1.828   0.291   3.664  0.7648  1.3008 -0.5320
 4463SOL     OW14208   1.818   4.498   0.115  0.0870  0.6517 -0.2549
 4463SOL    HW114209   1.917   4.494   0.096 -0.1959 -1.0828 -1.5350
 4463SOL    HW214210   1.767   4.472   0.033 -1.4264  0.8330  0.5971
 4464SOL     OW14211   2.785   4.575   1.647 -0.2317 -0.0409  0.1968
 4464SOL    HW114212   2.862   4.555   1.586 -0.0904 -0.2842  0.4533
 4464SOL    HW214213   2.818   4.619   1.730 -0.4980  0.8908 -0.1796
 4465SOL     OW14214   0.218   1.945   4.704 -0.4718  0.2781 -0.2263
 4465SOL    HW114215   0.125   1.979   4.718 -0.4996  0.5997 -1.1174
 4465SOL    HW214216   0.282   2.022   4.697 -0.2632  0.0910 -0.4109
 4466SOL     OW14217   2.684   4.168   0.987  0.3004 -0.0935  0.6628
 4466SOL    HW114218   2.632   4.234   1.042  1.1627  0.8438  0.3953
 4466SOL    HW214219   2.762   4.215   0.944 -0.3810 -0.7668 -1.4254
 4467SOL     OW14220   5.588   0.857   0.429 -0.5492  0.0217  0.9453
 4467SOL    HW114221   5.558   0.771   0.470  1.5412 -0.8265  0.8041
 4467SOL    HW214222   5.638   0.910   0.497  0.5066 -0.1211  0.2976
 4468SOL     OW14223   3.576   0.223   6.013  0.3938 -0.0706 -0.3143
 4468SOL    HW114224   3.509   0.208   6.085  0.2255  1.5129 -0.1022
 4468SOL    HW214225   3.558   0.310   5.968  1.3919 -0.3347 -1.2796
 4469SOL     OW14226   1.015   3.073   0.990 -0.1886 -0.4501 -0.3806
 4469SOL    HW114227   1.012   3.022   0.904 -0.4586  0.8125 -1.1464
 4469SOL    HW214228   0.922   3.093   1.020 -0.0879 -0.4376 -0.0724
 4470SOL     OW14229   4.188   2.880   1.064  0.1655 -0.1075 -0.3674
 4470SOL    HW114230   4.107   2.826   1.042  0.0264  0.3892 -1.0875
 4470SOL    HW214231   4.270   2.826   1.044  0.0213 -0.7745  0.7759
 4471SOL     OW14232   5.414   6.786   3.484 -0.6419  0.2093 -0.3799
 4471SOL    HW114233   5.338   6.795   3.548 -0.5106 -1.4649  0.0399
 4471SOL    HW214234   5.411   6.861   3.418 -2.3533  0.4398 -0.0690
 4472SOL     OW14235   6.882   3.926   1.574  0.1785  0.2105 -0.1709
 4472SOL    HW114236   6.849   3.844   1.621 -1.3449  1.3156  0.7741
 4472SOL    HW214237   6.979   3.914   1.550  0.0990 -1.6792  0.3203
 4473SOL     OW14238   0.855   2.165   6.512 -0.3069  0.5187 -0.1711
 4473SOL    HW114239   0.927   2.181   6.580  0.8028 -0.5843 -1.0431
 4473SOL    HW214240   0.826   2.252   6.473  0.6829  0.9749  0.0720
 4474SOL     OW14241   0.495   5.200   4.821  0.0579  0.0809 -0.1340
 4474SOL    HW114242   0.430   5.253   4.875  0.7170  2.2751 -1.3775
 4474SOL    HW214243   0.584   5.199   4.867 -0.3741 -1.4451  0.7178
 4475SOL     OW14244   1.268   4.503   0.106  0.9480  0.1385  0.1838
 4475SOL    HW114245   1.285   4.595   0.142  1.8462 -0.4828  1.3978
 4475SOL    HW214246   1.271   4.437   0.180 -1.5486 -0.7010 -0.3479
 4476SOL     OW14247   3.082   1.611   3.977 -0.6273 -0.0069  0.2340
 4476SOL    HW114248   3.035   1.595   3.891 -0.1295  4.9633 -1.2927
 4476SOL    HW214249   3.180   1.620   3.960 -0.4241  0.2922  1.4620
 4477SOL     OW14250   3.107   4.912   4.471 -0.0138 -0.4544  0.2472
 4477SOL    HW114251   3.054   4.996   4.481 -1.6570 -1.3736 -0.3255
 4477SOL    HW214252   3.204   4.935   4.459 -0.6346  1.5115 -1.9247
 4478SOL     OW14253   5.883   5.179   1.534 -0.6378  0.0885 -0.3917
 4478SOL    HW114254   5.789   5.146   1.543 -0.9678  0.9426 -0.5487
 4478SOL    HW214255   5.945   5.118   1.582 -1.2222 -0.7272 -0.6544
 4479SOL     OW14256   0.338   1.591   3.308 -0.1793 -0.0873 -0.3848
 4479SOL    HW114257   0.357   1.550   3.219 -0.1509 -1.4235  0.2143
 4479SOL    HW214258   0.423   1.629   3.345  0.1707 -0.9761 -0.2298
 4480SOL     OW14259   4.749   0.885   0.942 -0.0929  0.1157  0.9690
 4480SOL    HW114260   4.763   0.972   0.895  1.5637 -0.6619 -0.0802
 4480SOL    HW214261   4.776   0.893   1.038 -0.6009  0.9098  1.0570
 4481SOL     OW14262   2.959   2.083   6.625 -0.0878 -0.0327  0.1129
 4481SOL    HW114263   2.904   2.127   6.554  0.8102  0.3837 -0.3482
 4481SOL    HW214264   2.899   2.054   6.699 -0.7381  2.2683  0.5885
 4482SOL     OW14265   5.693   1.153   0.976 -0.6443 -0.0226  0.7933
 4482SOL    HW114266   5.786   1.117   0.984 -1.5149 -3.8639 -3.0113
 4482SOL    HW214267   5.684   1.202   0.889 -2.3565 -0.5845  0.6053
 4483SOL     OW14268   3.252   1.247   1.138 -0.1803 -0.2274  0.1650
 4483SOL    HW114269   3.308   1.231   1.056  2.2860  0.8083  1.5593
 4483SOL    HW214270   3.310   1.279   1.212 -2.5233 -0.1106  2.0473
 4484SOL     OW14271   5.264   6.306   2.032 -0.0996 -0.0719  0.1663
 4484SOL    HW114272   5.255   6.313   1.933 -2.0391  0.9629  0.3704
 4484SOL    HW214273   5.360   6.313   2.057  0.2649  1.6398 -1.5008
 4485SOL     OW14274   6.178   5.895   2.435 -0.1742  0.3391  0.4816
 4485SOL    HW114275   6.150   5.923   2.343  0.9527  1.2182  0.3849
 4485SOL    HW214276   6.127   5.948   2.503  0.1550  0.8364  0.3389
 4486SOL     OW14277   4.508   2.541   3.323 -0.3576  0.0840  0.1959
 4486SOL    HW114278   4.535   2.449   3.296  0.2180  0.2825  0.0925
 4486SOL    HW214279   4.408   2.544   3.335 -0.6505 -0.0312 -1.8521
 4487SOL     OW14280   4.995   2.592   2.968 -0.1123 -0.2875 -0.7711
 4487SOL    HW114281   5.037   2.572   2.880  0.9735 -0.4526 -0.2448
 4487SOL    HW214282   5.061   2.574   3.041 -0.7523  0.5092  0.0325
 4488SOL     OW14283   1.389   5.914   2.951  0.5009 -0.1509  0.0870
 4488SOL    HW114284   1.296   5.947   2.968  0.3003 -1.4257  1.6805
 4488SOL    HW214285   1.412   5.928   2.855  0.3087  4.2008  0.4683
 4489SOL     OW14286   4.698   1.949   0.956  0.2334  0.2088  0.2726
 4489SOL    HW114287   4.759   2.017   0.916 -0.2563  0.6373  0.2405
 4489SOL    HW214288   4.730   1.925   1.048  1.0921 -0.4245 -0.1792
 4490SOL     OW14289   3.843   4.361   2.070  0.2506  0.4486  0.4688
 4490SOL    HW114290   3.913   4.299   2.105 -0.4644 -1.0228 -0.5985
 4490SOL    HW214291   3.886   4.436   2.020  1.0749 -0.8721 -0.8869
 4491SOL     OW14292   2.666   5.107   4.650 -0.6062 -0.2194 -0.0328
 4491SOL    HW114293   2.575   5.132   4.682 -0.4743  1.8323 -1.0725
 4491SOL    HW214294   2.660   5.027   4.591 -1.6281 -0.5562  0.5107
 4492SOL     OW14295   1.536   6.145   5.988  0.0845  0.0482  0.3934
 4492SOL    HW114296   1.559   6.242   5.996 -1.4053  0.5676 -0.9958
 4492SOL    HW214297   1.597   6.102   5.921  0.0945  0.2716  0.2559
 4493SOL     OW14298   6.969   3.316   6.557  0.0789 -0.1121  0.2777
 4493SOL    HW114299   6.915   3.241   6.519 -0.3095  0.3231 -0.0466
 4493SOL    HW214300   6.908   3.386   6.593  0.3998  0.7390 -0.7889
 4494SOL     OW14301   1.411   6.440   4.265 -0.1534 -0.4081 -0.6921
 4494SOL    HW114302   1.400   6.364   4.201  1.0378  0.6676 -2.2369
 4494SOL    HW214303   1.346   6.512   4.243  0.2210 -0.0544 -0.6577
 4495SOL     OW14304   1.132   2.905   4.367  0.1228  0.0549  0.3953
 4495SOL    HW114305   1.224   2.893   4.330  1.0967  4.0328  0.9908
 4495SOL    HW214306   1.136   2.967   4.446 -3.1059  0.6508  0.2310
 4496SOL     OW14307   1.094   1.325   4.503  0.4680 -0.2539  0.0438
 4496SOL    HW114308   1.089   1.257   4.431  2.1046  0.6805 -1.0039
 4496SOL    HW214309   1.006   1.329   4.551  0.4766 -3.4100  0.4993
 4497SOL     OW14310   2.236   6.741   0.755  0.3705 -0.1999 -0.0877
 4497SOL    HW114311   2.276   6.827   0.726 -0.1875 -0.2702 -1.1146
 4497SOL    HW214312   2.243   6.733   0.855  1.7930  0.3217 -0.1197
 4498SOL     OW14313   1.192   3.711   3.447  0.4286 -0.3421 -0.2476
 4498SOL    HW114314   1.255   3.788   3.437  0.9211 -0.7761 -0.4744
 4498SOL    HW214315   1.138   3.724   3.531 -0.8482  1.2313 -1.2057
 4499SOL     OW14316   6.266   7.005   3.798 -0.4060  0.1940 -0.1225
 4499SOL    HW114317   6.281   7.023   3.895 -0.4935 -0.1896 -0.0396
 4499SOL    HW214318   6.295   7.084   3.744 -1.0134  0.6472  0.2420
 4500SOL     OW14319   6.031   3.154   2.096 -0.1891  0.2971 -0.3137
 4500SOL    HW114320   6.085   3.226   2.138 -2.1304  1.4633  0.3297
 4500SOL    HW214321   5.986   3.189   2.014  0.5306 -0.8441 -1.2240
 4501SOL     OW14322   2.398   6.285   5.656 -0.0851  0.7519 -0.4353
 4501SOL    HW114323   2.467   6.334   5.603 -0.4898  2.8661  0.8724
 4501SOL    HW214324   2.310   6.331   5.647 -0.6792 -0.2512  0.1448
 4502SOL     OW14325   2.530   4.863   5.776  0.4353 -0.4404 -0.3496
 4502SOL    HW114326   2.510   4.959   5.756  0.2390 -0.0920  1.4080
 4502SOL    HW214327   2.593   4.827   5.707  1.1767  1.2055 -0.5694
 4503SOL     OW14328   5.087   2.725   0.892 -0.2617 -0.2045  0.4220
 4503SOL    HW114329   4.991   2.750   0.898 -0.5545 -1.2601  0.2781
 4503SOL    HW214330   5.115   2.680   0.977 -0.1627 -0.8026  0.0714
 4504SOL     OW14331   5.842   4.743   2.373  0.3183  0.1461  0.4795
 4504SOL    HW114332   5.870   4.671   2.310 -0.1738  0.7139 -0.3898
 4504SOL    HW214333   5.860   4.833   2.332 -2.0409  0.5464  0.1923
 4505SOL     OW14334   3.759   5.764   1.603  0.9046  0.6726  0.2922
 4505SOL    HW114335   3.817   5.684   1.593 -0.1767  0.1918 -3.5125
 4505SOL    HW214336   3.681   5.742   1.662  2.7307  0.3881  2.8021
 4506SOL     OW14337   2.859   0.428   3.099  0.0251  0.0149  0.5979
 4506SOL    HW114338   2.908   0.458   3.017 -1.3040 -0.6708 -0.4798
 4506SOL    HW214339   2.834   0.508   3.154 -0.4606  0.6271 -0.4841
 4507SOL     OW14340   0.683   3.417   3.948 -1.1547 -0.6193  0.5031
 4507SOL    HW114341   0.591   3.456   3.956 -0.8387  0.1192  0.5315
 4507SOL    HW214342   0.722   3.440   3.859 -0.6265 -0.1126  0.8558
 4508SOL     OW14343   4.238   2.100   1.064 -0.2483 -0.2966 -0.1355
 4508SOL    HW114344   4.334   2.097   1.036 -0.5632 -0.7878 -1.2089
 4508SOL    HW214345   4.181   2.131   0.988 -0.9819 -0.3373  0.3749
 4509SOL     OW14346   4.602   1.394   4.325 -0.1889 -0.0020 -0.3606
 4509SOL    HW114347   4.637   1.304   4.350 -0.2121  0.5031  1.7402
 4509SOL    HW214348   4.528   1.384   4.258 -0.7709 -1.6329  0.4740
 4510SOL     OW14349   6.506   4.067   3.655 -0.2598  0.0210  0.4117
 4510SOL    HW114350   6.598   4.028   3.648 -0.1284  0.4089 -0.1156
 4510SOL    HW214351   6.438   3.997   3.635 -0.0133  0.1493 -0.9868
 4511SOL     OW14352   5.208   6.701   6.352 -0.1834  0.0160 -0.7638
 4511SOL    HW114353   5.180   6.751   6.270 -0.4184 -0.6990 -1.1243
 4511SOL    HW214354   5.159   6.614   6.357 -0.5604  0.2788  0.4139
 4512SOL     OW14355   6.066   0.965   0.993 -0.5845  0.0312 -0.5110
 4512SOL    HW114356   6.117   0.903   1.052 -1.4565 -0.6298 -0.4291
 4512SOL    HW214357   6.114   1.053   0.988 -1.0980  0.5722  2.2105
 4513SOL     OW14358   2.807   7.021   1.304  0.0430 -0.3243  0.4213
 4513SOL    HW114359   2.875   6.960   1.264 -0.0482 -0.2761  0.2362
 4513SOL    HW214360   2.731   6.968   1.341 -0.7008 -0.2207 -0.9679
 4514SOL     OW14361   5.848   2.590   5.726 -0.4055 -0.1245  0.2549
 4514SOL    HW114362   5.933   2.627   5.689  0.1792 -1.8714 -0.2654
 4514SOL    HW214363   5.794   2.664   5.766  0.1572  1.4277 -1.7053
 4515SOL     OW14364   2.184   4.600   3.669  0.1037 -0.0756 -0.3138
 4515SOL    HW114365   2.086   4.600   3.693  0.3585 -0.5567  0.8276
 4515SOL    HW214366   2.198   4.549   3.585 -0.3722 -2.1596  0.7990
 4516SOL     OW14367   0.358   4.556   4.920 -0.0823 -0.7517  1.0520
 4516SOL    HW114368   0.334   4.649   4.947 -1.4835 -1.1983  1.4327
 4516SOL    HW214369   0.302   4.491   4.971 -1.3921 -1.7004 -1.4114
 4517SOL     OW14370   3.166   5.867   2.961 -0.0300  0.3221 -0.1027
 4517SOL    HW114371   3.211   5.797   2.905  1.4545  1.1472  0.0225
 4517SOL    HW214372   3.076   5.887   2.923 -0.1393 -1.0373 -0.6322
 4518SOL     OW14373   1.278   4.720   0.897 -0.4198 -0.4287  0.3541
 4518SOL    HW114374   1.206   4.654   0.873 -0.5982  0.0232 -0.4161
 4518SOL    HW214375   1.353   4.713   0.831 -0.2821 -0.1122  0.4723
 4519SOL     OW14376   3.278   4.863   1.318 -0.1343  0.1736 -0.2342
 4519SOL    HW114377   3.245   4.795   1.382 -1.1902 -0.1639 -1.1083
 4519SOL    HW214378   3.269   4.829   1.224 -0.0620  1.2279 -0.6492
 4520SOL     OW14379   3.999   3.306   0.615  0.1678  0.0012 -1.1126
 4520SOL    HW114380   4.034   3.331   0.525  1.1351  0.4796 -0.6251
 4520SOL    HW214381   4.033   3.372   0.683 -0.9784 -0.0426 -0.4796
 4521SOL     OW14382   5.762   5.610   5.324  0.0528  0.2523  0.1647
 4521SOL    HW114383   5.787   5.580   5.416  0.5711  2.2366  0.7221
 4521SOL    HW214384   5.765   5.710   5.320  0.4022  0.1898 -2.1197
 4522SOL     OW14385   5.583   6.132   6.860  0.0682  0.4566  0.6343
 4522SOL    HW114386   5.514   6.139   6.932  0.0261  0.4592  0.5948
 4522SOL    HW214387   5.601   6.223   6.823  0.8360  0.6066  1.3376
 4523SOL     OW14388   2.499   4.275   1.387 -0.1106  0.2378 -0.1292
 4523SOL    HW114389   2.449   4.334   1.451  0.8640  0.4201  0.4854
 4523SOL    HW214390   2.438   4.244   1.315 -0.7267  1.7210 -0.2613
 4524SOL     OW14391   2.912   3.933   2.363  0.3065 -0.3470  0.2953
 4524SOL    HW114392   2.977   3.947   2.437  1.2392 -1.1417 -0.3493
 4524SOL    HW214393   2.936   3.850   2.313  0.3869  0.7819 -1.6249
 4525SOL     OW14394   1.778   3.466   4.269  0.0179 -0.7360 -0.3109
 4525SOL    HW114395   1.840   3.388   4.261  1.8664  0.5614  0.6682
 4525SOL    HW214396   1.808   3.526   4.343 -1.0944  1.1341 -1.2685
 4526SOL     OW14397   3.551   6.544   4.874  0.3670 -0.2475 -0.5650
 4526SOL    HW114398   3.555   6.494   4.788 -0.2444  0.7590 -1.1958
 4526SOL    HW214399   3.518   6.637   4.857  0.1389 -0.0681  0.7686
 4527SOL     OW14400   6.358   2.416   4.412  0.6903  0.1875 -0.4718
 4527SOL    HW114401   6.302   2.379   4.486  1.1310 -2.3280 -1.3258
 4527SOL    HW214402   6.444   2.366   4.407  0.0770 -0.7286 -3.5982
 4528SOL     OW14403   1.310   2.091   0.633 -0.1711  0.3548 -0.7003
 4528SOL    HW114404   1.235   2.043   0.587 -2.1904  0.0361  2.5181
 4528SOL    HW214405   1.392   2.035   0.630 -1.0181 -0.9056 -1.4401
 4529SOL     OW14406   6.494   2.530   0.808  0.1444  0.0664  0.1610
 4529SOL    HW114407   6.546   2.513   0.892  1.3000  1.4054 -0.2331
 4529SOL    HW214408   6.529   2.612   0.764 -0.9129 -0.2191 -1.2825
 4530SOL     OW14409   0.266   6.803   0.596  0.1738  0.1111  0.2321
 4530SOL    HW114410   0.171   6.834   0.601  0.4063  0.6279  2.0942
 4530SOL    HW214411   0.292   6.759   0.682  1.9307  0.8999  0.1577
 4531SOL     OW14412   2.558   0.364   5.599  0.1035 -0.4744  0.5483
 4531SOL    HW114413   2.467   0.382   5.561  0.6704  1.5788 -0.0298
 4531SOL    HW214414   2.561   0.398   5.693  0.6896  0.8995  0.0539
 4532SOL     OW14415   4.905   6.979   3.042  0.2814  0.1988 -0.0907
 4532SOL    HW114416   4.879   7.021   2.955  0.2656 -0.0290 -0.2007
 4532SOL    HW214417   4.871   6.884   3.044 -0.9880  0.6347  0.7606
 4533SOL     OW14418   4.511   2.469   0.718  0.0287  0.0218  0.0256
 4533SOL    HW114419   4.485   2.426   0.632 -0.7028  0.8188 -0.1726
 4533SOL    HW214420   4.519   2.400   0.790 -0.1900 -0.5392 -0.4920
 4534SOL     OW14421   5.504   1.124   4.687 -0.0241  0.4861  0.3644
 4534SOL    HW114422   5.556   1.138   4.771 -0.4299 -1.1776  0.9104
 4534SOL    HW214423   5.464   1.211   4.658  0.3084  1.1272  1.7575
 4535SOL     OW14424   6.706   3.086   5.027 -0.2194  0.4519  0.0994
 4535SOL    HW114425   6.781   3.152   5.032 -0.4494  0.7221  0.0270
 4535SOL    HW214426   6.679   3.073   4.932 -2.1711  2.5519  0.2676
 4536SOL     OW14427   4.748   2.993   6.642  0.0532 -0.7724 -0.4671
 4536SOL    HW114428   4.715   2.900   6.634  0.0555 -0.9027  0.7973
 4536SOL    HW214429   4.800   3.003   6.727  0.0971  0.3722 -0.6018
 4537SOL     OW14430   2.019   5.309   0.919 -0.0706  0.1871 -0.0589
 4537SOL    HW114431   2.005   5.281   0.824 -0.0202 -0.3762  0.0931
 4537SOL    HW214432   2.088   5.249   0.960 -2.9604 -2.3129  1.5352
 4538SOL     OW14433   6.200   5.519   2.589 -0.3332 -0.1371  0.0874
 4538SOL    HW114434   6.173   5.526   2.685  2.8530  0.5213  1.0350
 4538SOL    HW214435   6.255   5.598   2.564  1.4937 -1.7663 -1.3425
 4539SOL     OW14436   1.774   3.416   5.306 -0.0996 -0.1475 -0.2348
 4539SOL    HW114437   1.853   3.363   5.277  0.7695  0.6561  0.6103
 4539SOL    HW214438   1.706   3.417   5.233  0.6148 -0.9276 -0.9311
 4540SOL     OW14439   1.774   4.594   2.959  0.2511 -0.2961 -0.9905
 4540SOL    HW114440   1.754   4.604   3.056  0.1175  2.4040 -1.2412
 4540SOL    HW214441   1.872   4.607   2.943  0.0062  1.1304 -1.4079
 4541SOL     OW14442   3.588   6.641   6.075  0.5386 -0.0023 -0.3114
 4541SOL    HW114443   3.578   6.550   6.034 -0.0793 -0.4013  0.6938
 4541SOL    HW214444   3.632   6.633   6.164 -0.1092  0.6187  0.0692
 4542SOL     OW14445   0.929   5.102   0.524 -0.1765  0.1706  0.8882
 4542SOL    HW114446   0.962   5.195   0.508 -0.6037 -0.0527 -1.5971
 4542SOL    HW214447   0.992   5.036   0.483 -1.6195 -0.4341 -0.4999
 4543SOL     OW14448   0.314   1.937   5.593  0.0814 -0.2157 -0.4253
 4543SOL    HW114449   0.301   2.003   5.667  1.9380 -0.1912 -0.0626
 4543SOL    HW214450   0.350   1.851   5.631 -3.3905 -1.9718 -0.7139
 4544SOL     OW14451   1.865   0.494   3.031 -0.7855 -0.0847 -0.1871
 4544SOL    HW114452   1.922   0.563   3.076 -0.2249 -0.4108 -0.3872
 4544SOL    HW214453   1.800   0.456   3.096 -0.0715 -0.4544  0.3226
 4545SOL     OW14454   0.279   5.420   5.279  0.4003  0.4119 -0.8585
 4545SOL    HW114455   0.305   5.359   5.353 -0.3546  1.5085  0.3716
 4545SOL    HW214456   0.355   5.481   5.258  1.5391 -1.5436 -2.8169
 4546SOL     OW14457   0.913   3.344   1.998 -0.6268  0.5690  0.3193
 4546SOL    HW114458   0.866   3.290   2.068 -0.4334 -1.0602 -0.7599
 4546SOL    HW214459   0.923   3.439   2.030 -1.9724  0.2514  1.7952
 4547SOL     OW14460   1.695   0.686   6.705 -0.2715  0.0591  1.1854
 4547SOL    HW114461   1.672   0.779   6.732  0.1065  0.3367  0.5815
 4547SOL    HW214462   1.678   0.623   6.781 -2.7323  0.2779  0.8843
 4548SOL     OW14463   1.441   6.706   0.274  0.5267  0.5385  0.8247
 4548SOL    HW114464   1.515   6.757   0.231  0.7511 -0.8487 -0.5379
 4548SOL    HW214465   1.477   6.621   0.312 -0.3058 -0.0898  0.2685
 4549SOL     OW14466   3.919   0.588   6.494  0.1981 -0.4674 -0.0267
 4549SOL    HW114467   3.848   0.572   6.425 -1.3042  1.3400  1.0288
 4549SOL    HW214468   3.906   0.524   6.570 -0.4675  0.0149  0.2713
 4550SOL     OW14469   0.454   1.120   5.692  0.4201  0.3190  0.2429
 4550SOL    HW114470   0.455   1.128   5.592 -2.8897  0.2588  0.0993
 4550SOL    HW214471   0.419   1.204   5.732 -0.1293 -0.3594  1.2228
 4551SOL     OW14472   0.086   3.624   1.385 -0.1442 -0.5155 -1.0890
 4551SOL    HW114473   0.153   3.591   1.318 -1.4167 -0.5583 -2.3852
 4551SOL    HW214474  -0.003   3.581   1.367 -0.2956 -1.1929  1.1911
 4552SOL     OW14475   5.391   2.757   6.648  0.3425  0.0410 -0.5976
 4552SOL    HW114476   5.451   2.822   6.696  0.3514 -0.0509 -0.4836
 4552SOL    HW214477   5.338   2.705   6.715 -0.1283  0.3722 -0.6997
 4553SOL     OW14478   4.678   2.944   2.026 -0.0276  0.1964 -0.0519
 4553SOL    HW114479   4.698   2.929   2.123  1.0587  0.2847 -0.2547
 4553SOL    HW214480   4.659   3.041   2.011 -2.6980 -0.1764  0.4913
 4554SOL     OW14481   5.626   3.827   5.480 -0.0985 -1.0171  0.1774
 4554SOL    HW114482   5.694   3.878   5.531 -0.6156  0.8343 -0.9231
 4554SOL    HW214483   5.670   3.780   5.404 -0.0575  0.5652 -0.8220
 4555SOL     OW14484   3.298   7.015   3.219  0.2201  0.1301  0.1505
 4555SOL    HW114485   3.392   7.008   3.254  0.1968 -0.1066  0.1629
 4555SOL    HW214486   3.301   7.048   3.124  0.3057  0.2739  0.2108
 4556SOL     OW14487   5.929   4.383   4.294 -0.0932 -0.1944  0.4855
 4556SOL    HW114488   5.991   4.453   4.330 -1.2322 -0.0815  2.3342
 4556SOL    HW214489   5.983   4.309   4.253  1.1413  1.4620 -0.9772
 4557SOL     OW14490   1.447   5.687   6.174 -0.3256  0.1383  0.0497
 4557SOL    HW114491   1.507   5.733   6.238 -0.1363 -1.2135  0.9012
 4557SOL    HW214492   1.498   5.662   6.092  0.4097 -1.3319  0.9224
 4558SOL     OW14493   5.405   3.990   1.156 -0.2073 -0.3065  0.1747
 4558SOL    HW114494   5.480   4.053   1.177  0.2596 -0.8906  0.2755
 4558SOL    HW214495   5.438   3.920   1.093 -0.7354 -0.4290  0.0390
 4559SOL     OW14496   1.127   3.705   2.631  1.1520 -0.2293  0.3055
 4559SOL    HW114497   1.070   3.626   2.654  0.3763 -0.1084 -1.0628
 4559SOL    HW214498   1.129   3.716   2.531 -0.4554  2.6417  0.4736
 4560SOL     OW14499   5.300   0.893   2.741  0.1746 -0.4960 -0.4373
 4560SOL    HW114500   5.303   0.828   2.666  0.2653 -0.1157 -0.7714
 4560SOL    HW214501   5.337   0.981   2.711  0.7921 -0.5167  0.2267
 4561SOL     OW14502   0.951   4.362   2.611  0.4871  0.1878  0.0691
 4561SOL    HW114503   0.961   4.381   2.513  0.1737  0.8010  0.1497
 4561SOL    HW214504   1.010   4.423   2.663  0.1334  0.3403  0.2954
 4562SOL     OW14505   3.169   5.282   5.336 -0.3062  0.0449 -0.0279
 4562SOL    HW114506   3.252   5.314   5.382 -1.4203  0.6681  1.6728
 4562SOL    HW214507   3.089   5.311   5.389 -1.5141 -2.9050 -0.0684
 4563SOL     OW14508   3.770   0.415   3.297 -0.2595  0.3784 -0.3902
 4563SOL    HW114509   3.859   0.377   3.270 -1.1223 -1.1746 -1.1327
 4563SOL    HW214510   3.771   0.433   3.396 -0.2714 -3.1566  0.4076
 4564SOL     OW14511   0.606   5.877   0.073  0.5731 -0.1701 -0.6818
 4564SOL    HW114512   0.630   5.789   0.112  0.9983  0.4715  0.5596
 4564SOL    HW214513   0.639   5.882  -0.022 -0.2146 -1.6446 -1.0579
 4565SOL     OW14514   3.666   6.558   6.349  0.6449 -0.9049  0.6030
 4565SOL    HW114515   3.758   6.597   6.354  0.2209 -0.0061  3.5764
 4565SOL    HW214516   3.608   6.599   6.419 -2.7466  0.1353 -2.4975
 4566SOL     OW14517   1.971   3.959   6.940 -0.0906  0.0027 -0.4507
 4566SOL    HW114518   1.914   3.919   7.012 -0.3113 -0.3443 -0.8346
 4566SOL    HW214519   2.003   3.886   6.879  1.0601  0.1465 -0.0320
 4567SOL     OW14520   2.995   2.542   6.770 -0.8387  0.2021  0.3508
 4567SOL    HW114521   2.972   2.639   6.776 -2.7221  0.0847 -2.8740
 4567SOL    HW214522   3.053   2.527   6.691  2.0465 -0.9866  2.5580
 4568SOL     OW14523   4.088   4.944   3.855  0.4276 -0.2818 -0.1372
 4568SOL    HW114524   3.999   4.899   3.846 -0.4263  1.4211 -0.4623
 4568SOL    HW214525   4.152   4.904   3.788 -1.0655  0.7343 -2.2624
 4569SOL     OW14526   0.354   4.418   3.775  0.1345 -0.6409 -0.0536
 4569SOL    HW114527   0.274   4.460   3.732  0.2103 -0.4495 -0.0125
 4569SOL    HW214528   0.387   4.343   3.718  0.2695 -0.3509 -0.3603
 4570SOL     OW14529   1.464   4.982   4.372 -0.3258  0.4777  0.6506
 4570SOL    HW114530   1.529   5.008   4.444  0.3475  1.7631 -0.3876
 4570SOL    HW214531   1.425   4.893   4.394  2.0452 -0.5231  1.1401
 4571SOL     OW14532   5.636   4.975   5.170  0.1169  0.1040 -0.4030
 4571SOL    HW114533   5.677   4.951   5.257  1.1323  2.5787 -0.1045
 4571SOL    HW214534   5.541   5.001   5.184  0.8612  2.7019  0.4772
 4572SOL     OW14535   0.680   6.163   0.083  0.2977  0.3436  0.5880
 4572SOL    HW114536   0.659   6.065   0.080  0.6243  0.2745  0.5868
 4572SOL    HW214537   0.594   6.215   0.089 -0.0988  0.2005 -2.3814
 4573SOL     OW14538   6.591   1.800   0.466 -0.2146 -0.2816  0.2931
 4573SOL    HW114539   6.593   1.887   0.417  1.2655  1.0156  2.4804
 4573SOL    HW214540   6.502   1.788   0.510 -0.8721 -0.5475 -1.0359
 4574SOL     OW14541   6.843   5.997   5.713 -0.2981  0.4156  0.0683
 4574SOL    HW114542   6.898   5.918   5.740  1.0358  1.5589  0.8501
 4574SOL    HW214543   6.748   5.983   5.741 -0.2726 -1.2521 -0.5742
 4575SOL     OW14544   0.443   2.694   0.993 -0.0627 -0.0677  0.3892
 4575SOL    HW114545   0.400   2.620   0.940  0.1490  1.5211 -2.2157
 4575SOL    HW214546   0.392   2.778   0.980  1.4922  0.9550  0.5830
 4576SOL     OW14547   3.937   4.885   0.895  1.0351 -0.4270  0.2052
 4576SOL    HW114548   3.975   4.863   0.984 -0.0880 -1.6622  0.4055
 4576SOL    HW214549   3.925   4.801   0.842 -1.3862 -0.1401  0.1655
 4577SOL     OW14550   2.385   0.320   2.391 -0.1271  0.4750 -0.5903
 4577SOL    HW114551   2.479   0.336   2.363  0.0612  1.9014  0.6915
 4577SOL    HW214552   2.333   0.281   2.315  1.4325 -0.1280 -1.3732
 4578SOL     OW14553   2.711   3.475   1.756  0.7556  0.0041 -0.0077
 4578SOL    HW114554   2.630   3.479   1.698  0.9697 -0.9628 -0.3709
 4578SOL    HW214555   2.766   3.395   1.733  1.4054  0.2072  0.7836
 4579SOL     OW14556   3.743   1.108   2.220 -0.6315  0.5512  0.5110
 4579SOL    HW114557   3.740   1.205   2.245 -0.3300  1.3555 -2.2175
 4579SOL    HW214558   3.838   1.081   2.205 -0.8502  0.6513 -1.3604
 4580SOL     OW14559   1.612   3.520   1.919  0.0594 -0.3077 -0.8143
 4580SOL    HW114560   1.680   3.532   1.992 -0.5706  0.4694 -0.3472
 4580SOL    HW214561   1.631   3.584   1.845 -0.5476  0.3835 -0.3851
 4581SOL     OW14562   4.345   3.738   5.822 -0.4299 -0.2390  0.6091
 4581SOL    HW114563   4.349   3.769   5.727 -1.6841 -1.7269  0.0326
 4581SOL    HW214564   4.269   3.782   5.868 -0.5970 -0.4419  0.5377
 4582SOL     OW14565   5.568   4.374   2.508 -0.1038  0.1683  0.2927
 4582SOL    HW114566   5.610   4.460   2.537 -0.0865  0.5357 -0.7832
 4582SOL    HW214567   5.528   4.385   2.417  0.3212 -1.0825 -0.0737
 4583SOL     OW14568   6.725   0.085   5.196  0.3513 -0.6156  0.0283
 4583SOL    HW114569   6.727   0.181   5.223  0.1975 -0.4241 -0.6175
 4583SOL    HW214570   6.719   0.028   5.277 -0.6601 -0.0372  0.3701
 4584SOL     OW14571   5.295   0.371   6.903 -0.0915 -0.7707  0.5915
 4584SOL    HW114572   5.237   0.433   6.957  1.8039  0.2652  1.5353
 4584SOL    HW214573   5.333   0.300   6.962 -0.5026 -1.5164 -0.0356
 4585SOL     OW14574   1.060   6.374   0.231  0.1470  0.0631  0.1869
 4585SOL    HW114575   1.069   6.389   0.132 -0.5176 -0.0201  0.1138
 4585SOL    HW214576   1.131   6.311   0.261 -0.1660 -0.5746 -0.3898
 4586SOL     OW14577   1.952   2.014   5.016 -0.3823 -0.2980  0.2982
 4586SOL    HW114578   1.955   2.114   5.006 -0.6776 -0.2776  0.3385
 4586SOL    HW214579   1.874   1.978   4.965  0.9343 -0.7551 -1.5250
 4587SOL     OW14580   3.245   0.511   2.786  0.2427  0.2011  0.0237
 4587SOL    HW114581   3.288   0.598   2.760 -1.8366  1.3573  0.1591
 4587SOL    HW214582   3.279   0.482   2.876  2.5146 -0.2917 -0.9379
 4588SOL     OW14583   2.500   3.339   3.988 -0.3003  0.6264 -0.1860
 4588SOL    HW114584   2.577   3.278   3.968 -0.4271  0.7031 -0.9569
 4588SOL    HW214585   2.425   3.320   3.926 -0.4541  1.3597 -0.2362
 4589SOL     OW14586   1.998   2.622   1.483 -0.8416  0.1660  0.0492
 4589SOL    HW114587   1.898   2.619   1.480 -0.8167 -0.4863 -0.6924
 4589SOL    HW214588   2.028   2.703   1.532 -1.7411  2.1858 -2.5222
 4590SOL     OW14589   2.996   6.213   0.852 -0.5243 -0.3996  0.0721
 4590SOL    HW114590   2.923   6.150   0.877 -1.3684  1.3873  2.4826
 4590SOL    HW214591   3.063   6.166   0.795 -1.4424 -3.2880  1.2150
 4591SOL     OW14592   2.718   4.869   5.532 -0.0846  0.4641 -0.3180
 4591SOL    HW114593   2.656   4.930   5.482  0.7718  1.7574  0.1286
 4591SOL    HW214594   2.750   4.797   5.470 -0.7100  0.7711 -1.0140
 4592SOL     OW14595   2.089   5.233   0.649  0.1861 -0.6505  0.0234
 4592SOL    HW114596   2.085   5.321   0.601  0.8302 -1.1441 -0.9859
 4592SOL    HW214597   2.023   5.170   0.608  0.9924 -1.1931 -0.4793
 4593SOL     OW14598   5.727   3.224   2.619  0.0246  0.0259 -0.2448
 4593SOL    HW114599   5.719   3.249   2.716  0.4478 -0.1241 -0.1655
 4593SOL    HW214600   5.650   3.260   2.568 -0.1135  0.2515  0.1250
 4594SOL     OW14601   1.969   6.217   2.273  0.1732 -0.7991 -0.4163
 4594SOL    HW114602   1.893   6.171   2.227 -0.2062 -1.1632  0.5477
 4594SOL    HW214603   2.005   6.158   2.345  3.3923 -1.9819 -2.7265
 4595SOL     OW14604   6.705   5.321   5.205 -0.4083 -0.1814  0.3857
 4595SOL    HW114605   6.757   5.396   5.246 -0.8891 -0.0539  0.7650
 4595SOL    HW214606   6.631   5.359   5.149  1.4274 -0.2651 -2.2784
 4596SOL     OW14607   5.133   3.587   6.323  0.1745 -0.0830  0.3369
 4596SOL    HW114608   5.178   3.503   6.352  0.0459  0.4774  2.3476
 4596SOL    HW214609   5.079   3.623   6.399 -1.2864  0.8362 -1.0781
 4597SOL     OW14610   0.186   6.896   3.699 -0.2658 -0.1570  0.2998
 4597SOL    HW114611   0.147   6.811   3.666 -0.5570  0.1261 -0.0867
 4597SOL    HW214612   0.238   6.879   3.783  0.9490 -0.9837 -0.5870
 4598SOL     OW14613   4.975   0.234   0.288  0.3581  0.8898 -0.1303
 4598SOL    HW114614   4.933   0.324   0.295 -0.2069  0.9801 -3.2731
 4598SOL    HW214615   5.011   0.207   0.377 -0.1782  3.8337  1.0913
 4599SOL     OW14616   1.719   3.167   6.805 -0.4635 -0.1421  1.0458
 4599SOL    HW114617   1.692   3.130   6.716 -2.1752 -1.3643  2.0122
 4599SOL    HW214618   1.816   3.149   6.820 -0.3578 -0.7304 -0.1791
 4600SOL     OW14619   0.224   1.424   6.181  0.0112  0.3713 -0.6165
 4600SOL    HW114620   0.150   1.484   6.214 -0.6790 -0.1575 -1.1803
 4600SOL    HW214621   0.213   1.333   6.221  0.8662  0.5124 -0.0308
 4601SOL     OW14622   4.097   5.460   3.131 -0.1715  0.2245  0.0591
 4601SOL    HW114623   4.066   5.513   3.209  0.8153  0.0944  0.5561
 4601SOL    HW214624   4.193   5.482   3.111 -0.3122  0.0140 -0.9071
 4602SOL     OW14625   0.337   6.522   3.239  0.2389 -0.4512  0.4969
 4602SOL    HW114626   0.281   6.586   3.187  0.7047  0.1448  0.7089
 4602SOL    HW214627   0.392   6.467   3.176  1.8888  1.2481  0.3267
 4603SOL     OW14628   2.477   5.160   5.702 -0.2406  0.7722 -0.1598
 4603SOL    HW114629   2.475   5.234   5.768  0.3994 -0.0364  0.7970
 4603SOL    HW214630   2.466   5.197   5.610  0.3465  2.0866  0.2702
 4604SOL     OW14631   0.576   5.084   3.718  0.2315  0.2990  0.6586
 4604SOL    HW114632   0.573   5.149   3.793 -0.1424  1.7226 -0.5118
 4604SOL    HW214633   0.670   5.077   3.684 -0.0424  2.2437 -0.7719
 4605SOL     OW14634   1.639   3.925   2.051  0.4695  0.3243  0.7458
 4605SOL    HW114635   1.584   3.948   2.131  1.5728  0.4133  1.5113
 4605SOL    HW214636   1.730   3.897   2.081 -0.1048 -3.0298 -0.2241
 4606SOL     OW14637   3.566   6.619   1.195  0.0526 -0.9182 -0.7174
 4606SOL    HW114638   3.493   6.685   1.180 -0.0395 -0.6058  0.8540
 4606SOL    HW214639   3.535   6.549   1.259  1.6363  0.2317  1.4648
 4607SOL     OW14640   3.966   6.946   6.486 -0.6117 -0.9224 -0.3252
 4607SOL    HW114641   3.983   6.864   6.432 -1.8169 -1.4772  0.0947
 4607SOL    HW214642   3.878   6.986   6.460 -1.2834 -1.2813  1.2939
 4608SOL     OW14643   5.934   5.475   2.889 -0.2312  0.3962  0.3330
 4608SOL    HW114644   5.862   5.422   2.846 -0.3424  1.1980 -0.4996
 4608SOL    HW214645   5.974   5.422   2.964 -0.0764 -1.0102 -0.6894
 4609SOL     OW14646   5.508   2.068   3.807  0.9458 -0.2410 -0.1770
 4609SOL    HW114647   5.497   2.165   3.828  3.2919  0.4122 -1.6047
 4609SOL    HW214648   5.418   2.027   3.791 -0.1342  1.4846  1.1877
 4610SOL     OW14649   2.194   4.380   5.337 -0.2361  0.1283  0.3677
 4610SOL    HW114650   2.266   4.428   5.388  0.0304 -2.0541  2.1902
 4610SOL    HW214651   2.221   4.370   5.242  0.8672  1.2444  0.5406
 4611SOL     OW14652   2.731   5.801   6.942  0.2816 -0.2475 -0.2801
 4611SOL    HW114653   2.803   5.739   6.973  0.8511  0.7313  0.4234
 4611SOL    HW214654   2.768   5.894   6.935 -1.0119  0.3516  0.4722
 4612SOL     OW14655   4.977   4.087   2.621  0.0106  0.4737 -0.1547
 4612SOL    HW114656   4.886   4.075   2.581 -0.3145  2.0906  0.0210
 4612SOL    HW214657   4.974   4.062   2.718 -0.8192  2.4454  0.3817
 4613SOL     OW14658   5.078   2.924   3.130  0.3880  0.3201 -0.2890
 4613SOL    HW114659   4.983   2.908   3.102  0.2701  0.1979  0.1680
 4613SOL    HW214660   5.139   2.912   3.051 -0.1952  2.7200 -1.2063
 4614SOL     OW14661   6.895   2.885   6.028 -0.1742 -0.3929 -0.0182
 4614SOL    HW114662   6.992   2.901   6.047 -0.0572 -1.0412 -0.0418
 4614SOL    HW214663   6.880   2.881   5.929 -0.2708 -0.0484 -0.0209
 4615SOL     OW14664   0.358   1.526   1.011  0.5386 -0.0538  0.5501
 4615SOL    HW114665   0.317   1.484   1.092 -1.0268 -0.1211 -0.2389
 4615SOL    HW214666   0.306   1.499   0.930  0.7728  1.7219 -0.2309
 4616SOL     OW14667   6.235   0.970   1.576  0.7187 -0.0737 -0.1280
 4616SOL    HW114668   6.204   0.905   1.645 -0.9403  0.2954 -0.4826
 4616SOL    HW214669   6.211   1.063   1.605  0.9026  0.1656 -0.7270
 4617SOL     OW14670   2.352   2.255   1.246 -0.0633  0.6048  0.1775
 4617SOL    HW114671   2.443   2.232   1.280  0.3709  0.3291 -1.1582
 4617SOL    HW214672   2.302   2.305   1.317  1.0423  0.5658  0.9988
 4618SOL     OW14673   6.257   0.276   6.138  0.2144  0.1852 -0.2861
 4618SOL    HW114674   6.344   0.228   6.124 -0.3163 -0.4297 -1.7043
 4618SOL    HW214675   6.189   0.212   6.172  0.7742  1.0934  2.8965
 4619SOL     OW14676   4.258   1.787   2.195 -0.1728  0.3913  0.3234
 4619SOL    HW114677   4.246   1.884   2.175 -1.8968  0.3151  0.9204
 4619SOL    HW214678   4.294   1.776   2.287  0.1311  0.4668  0.2146
 4620SOL     OW14679   3.026   2.160   4.900 -0.7320  0.3366  0.0868
 4620SOL    HW114680   3.029   2.244   4.955 -1.2431  0.0026  0.6350
 4620SOL    HW214681   3.118   2.138   4.867 -0.5108  0.8353  0.3656
 4621SOL     OW14682   4.850   0.407   5.007 -0.2375 -0.1203 -0.0379
 4621SOL    HW114683   4.815   0.322   4.968 -0.4633 -0.7337  1.3984
 4621SOL    HW214684   4.780   0.478   5.000  0.0299  0.0221 -1.4354
 4622SOL     OW14685   3.770   6.585   6.875 -0.4262  0.2196  0.0017
 4622SOL    HW114686   3.751   6.659   6.810 -2.0219 -1.4310 -1.5269
 4622SOL    HW214687   3.821   6.512   6.829  2.4976  0.9188  1.8883
 4623SOL     OW14688   3.656   5.788   5.896  0.5106  0.4050  0.7211
 4623SOL    HW114689   3.582   5.734   5.935  0.4591  1.7269  2.6206
 4623SOL    HW214690   3.633   5.817   5.804 -1.9207  1.7896  1.6916
 4624SOL     OW14691   5.061   6.484   6.394 -0.2393 -0.3846 -0.1167
 4624SOL    HW114692   4.972   6.476   6.348  0.4499 -1.5163 -1.3391
 4624SOL    HW214693   5.058   6.436   6.481  0.4257 -4.8068 -2.2391
 4625SOL     OW14694   4.088   5.078   2.135 -0.1053 -0.1482  0.0127
 4625SOL    HW114695   4.114   5.032   2.220  0.1650  0.3297  0.1950
 4625SOL    HW214696   4.028   5.019   2.082  0.5363 -0.8572  0.0618
 4626SOL     OW14697   2.938   6.354   1.457 -0.0696  0.2823 -0.1758
 4626SOL    HW114698   3.016   6.343   1.518 -1.2700 -1.4474  1.1409
 4626SOL    HW214699   2.952   6.298   1.375  1.3530  2.2796 -1.3840
 4627SOL     OW14700   0.058   3.276   3.423 -0.3807 -1.0568  0.3017
 4627SOL    HW114701   0.094   3.298   3.513  1.5216 -0.5511 -0.5307
 4627SOL    HW214702  -0.023   3.331   3.404  1.4369  1.7762  0.2132
 4628SOL     OW14703   5.893   2.109   4.033  0.6851  0.3348 -0.6652
 4628SOL    HW114704   5.944   2.179   4.082  0.0248  0.0457  0.4634
 4628SOL    HW214705   5.953   2.032   4.010  0.4533 -0.7888  2.1714
 4629SOL     OW14706   2.903   3.374   4.501  0.8734  0.2045  0.0642
 4629SOL    HW114707   2.904   3.458   4.556 -1.3643 -0.2080  0.8110
 4629SOL    HW214708   2.814   3.364   4.457  0.5962 -2.4663  1.0806
 4630SOL     OW14709   0.346   6.778   5.859  0.1882 -0.3029 -0.0759
 4630SOL    HW114710   0.428   6.731   5.893  1.1285  0.4776 -1.1716
 4630SOL    HW214711   0.327   6.750   5.765  0.1183  0.6758 -0.3686
 4631SOL     OW14712   1.123   4.563   3.880 -0.6086 -0.3674  0.1313
 4631SOL    HW114713   1.188   4.584   3.953 -1.4865 -0.6280  1.0103
 4631SOL    HW214714   1.090   4.469   3.890 -1.3374 -0.1454 -0.1084
 4632SOL     OW14715   4.808   4.690   4.528 -0.1768 -0.2011 -0.0696
 4632SOL    HW114716   4.749   4.727   4.600  1.4779  0.1663  1.1488
 4632SOL    HW214717   4.780   4.728   4.440 -1.3049  0.5078  0.5662
 4633SOL     OW14718   4.812   4.611   0.812  0.1837  0.4932  0.4481
 4633SOL    HW114719   4.847   4.704   0.813 -2.1507  1.4427 -0.5136
 4633SOL    HW214720   4.732   4.604   0.871 -1.4573 -0.1054 -1.7416
 4634SOL     OW14721   5.377   5.829   3.842 -0.3603  0.1324  0.3637
 4634SOL    HW114722   5.450   5.853   3.777 -0.3162  0.9721  0.7115
 4634SOL    HW214723   5.331   5.746   3.810  1.3153 -0.9343  0.6022
 4635SOL     OW14724   4.877   1.744   1.896 -0.1568 -0.1460 -0.5831
 4635SOL    HW114725   4.827   1.660   1.914  0.8448 -0.4545  1.0217
 4635SOL    HW214726   4.917   1.740   1.804 -1.5793 -0.6258 -1.2078
 4636SOL     OW14727   2.503   4.405   1.015 -0.1501  0.2635 -0.0241
 4636SOL    HW114728   2.467   4.320   1.054  0.3326  0.3936  0.7330
 4636SOL    HW214729   2.451   4.482   1.052  1.2227  0.4948  1.5027
 4637SOL     OW14730   4.371   3.720   4.897  0.3792 -0.5546 -0.4858
 4637SOL    HW114731   4.468   3.697   4.896  0.6425  0.4689  0.1211
 4637SOL    HW214732   4.324   3.665   4.966  0.7380 -0.2924 -0.0255
 4638SOL     OW14733   3.105   5.097   4.757  0.4714 -0.0566 -0.0039
 4638SOL    HW114734   3.031   5.116   4.692  0.2657 -0.2377  0.1742
 4638SOL    HW214735   3.066   5.071   4.845  0.7434 -0.9250 -0.1290
 4639SOL     OW14736   6.689   6.961   0.462 -0.1950  0.2536  0.3326
 4639SOL    HW114737   6.686   7.000   0.554  2.0996  1.4136 -0.0117
 4639SOL    HW214738   6.741   7.021   0.402 -4.0570  1.0565 -2.5947
 4640SOL     OW14739   1.479   4.498   3.768  0.4611  0.6077 -0.2524
 4640SOL    HW114740   1.493   4.399   3.766 -1.4111  0.2873  0.3502
 4640SOL    HW214741   1.443   4.525   3.857  0.8553  1.8062 -0.4435
 4641SOL     OW14742   5.280   4.777   5.150  0.4579 -0.0745  0.2586
 4641SOL    HW114743   5.251   4.749   5.059  1.1696  1.0604 -0.3306
 4641SOL    HW214744   5.228   4.858   5.179  0.1430 -0.5007  0.9333
 4642SOL     OW14745   5.096   4.483   0.959 -0.1827  0.2707  0.1716
 4642SOL    HW114746   5.087   4.527   0.869 -1.3343  0.0622  0.1819
 4642SOL    HW214747   5.156   4.539   1.017 -1.0318  1.4518 -0.0602
 4643SOL     OW14748   2.292   0.888   5.401  0.3310  0.5213 -0.4040
 4643SOL    HW114749   2.383   0.876   5.362  0.6138  1.4702 -0.0445
 4643SOL    HW214750   2.224   0.847   5.340  0.9303  0.4021 -1.0004
 4644SOL     OW14751   1.956   2.739   6.061  0.0239  0.1542  0.0635
 4644SOL    HW114752   2.041   2.712   6.106  0.0593 -1.9365 -1.1379
 4644SOL    HW214753   1.975   2.769   5.968 -0.6033 -1.8735 -0.7998
 4645SOL     OW14754   2.506   4.790   5.219  0.0914  0.2051  0.0461
 4645SOL    HW114755   2.588   4.767   5.168 -0.0720 -0.6969  0.1757
 4645SOL    HW214756   2.515   4.759   5.314 -0.2380  0.4522  0.1635
 4646SOL     OW14757   1.034   6.517   3.332  0.0779 -0.4998  0.2269
 4646SOL    HW114758   1.083   6.582   3.391  0.8509 -2.1423  1.4761
 4646SOL    HW214759   0.937   6.518   3.356  0.3353 -0.9326  1.3685
 4647SOL     OW14760   6.999   5.860   1.609 -0.3574  0.3353  0.2234
 4647SOL    HW114761   7.046   5.812   1.534 -1.3419  1.2803 -1.0216
 4647SOL    HW214762   6.946   5.794   1.662  1.1348 -0.5130  0.7396
 4648SOL     OW14763   1.024   1.619   6.360 -0.1077  0.2860  0.0421
 4648SOL    HW114764   0.996   1.596   6.267  0.0265 -0.6347  0.2139
 4648SOL    HW214765   1.026   1.718   6.372  0.3623  0.4182 -1.0818
 4649SOL     OW14766   3.124   2.349   0.300  1.0170 -0.2402 -0.0066
 4649SOL    HW114767   3.048   2.292   0.270 -0.0947 -0.2247  2.5169
 4649SOL    HW214768   3.144   2.417   0.229 -1.1009 -0.4562 -0.8891
 4650SOL     OW14769   2.199   5.961   5.960 -0.0088 -0.3099 -0.1669
 4650SOL    HW114770   2.111   6.003   5.982 -0.1786 -1.2360  1.0067
 4650SOL    HW214771   2.273   6.019   5.994 -0.1838  0.1067 -0.4806
 4651SOL     OW14772   3.036   4.511   0.780  0.7250 -0.0785 -0.4143
 4651SOL    HW114773   3.030   4.586   0.715 -0.6011 -1.6720 -2.2220
 4651SOL    HW214774   3.122   4.463   0.770  0.4381 -0.4446 -1.1623
 4652SOL     OW14775   6.016   2.262   4.230 -0.1459 -0.6049  0.2521
 4652SOL    HW114776   6.101   2.312   4.214  0.2087 -1.2586  0.0666
 4652SOL    HW214777   6.034   2.185   4.292 -0.6858 -0.4998  0.5399
 4653SOL     OW14778   0.498   6.291   4.455 -0.0492 -0.1550 -0.2303
 4653SOL    HW114779   0.457   6.313   4.367 -0.1825  1.1006  0.1177
 4653SOL    HW214780   0.425   6.275   4.522  0.0498 -0.8927 -0.2988
 4654SOL     OW14781   0.956   0.254   4.502 -0.1076  0.0478 -0.0333
 4654SOL    HW114782   1.015   0.173   4.494 -1.8729 -1.4039  0.9631
 4654SOL    HW214783   0.922   0.260   4.596 -0.8655  1.3404 -0.3753
 4655SOL     OW14784   2.733   6.038   4.805 -0.0369  0.2124  0.6073
 4655SOL    HW114785   2.800   5.991   4.748  0.4379 -0.0264  1.3427
 4655SOL    HW214786   2.753   6.019   4.901 -0.6653  0.8177  0.8617
 4656SOL     OW14787   3.909   1.679   2.262  0.0027  0.0364 -0.1657
 4656SOL    HW114788   3.935   1.773   2.281 -0.8912  0.7047 -2.0750
 4656SOL    HW214789   3.981   1.634   2.210 -0.4986  0.3246 -1.1081
 4657SOL     OW14790   0.430   6.860   1.078 -0.2243  0.5147  0.3976
 4657SOL    HW114791   0.483   6.941   1.104  1.0948  0.2941 -1.3774
 4657SOL    HW214792   0.491   6.793   1.034 -1.7469 -0.3583 -0.4742
 4658SOL     OW14793   3.387   4.520   2.333 -0.4087  0.4828  0.2003
 4658SOL    HW114794   3.329   4.600   2.349  0.8962  1.2111  1.6515
 4658SOL    HW214795   3.483   4.549   2.330  0.1208 -1.0550  1.1195
 4659SOL     OW14796   1.394   5.108   6.973  0.5728 -0.3223  0.1618
 4659SOL    HW114797   1.398   5.199   7.012 -2.4662 -0.4036  0.9268
 4659SOL    HW214798   1.312   5.100   6.916  3.1314 -1.2253 -3.7492
 4660SOL     OW14799   2.503   3.568   1.131 -0.6566  0.4427  0.3083
 4660SOL    HW114800   2.439   3.583   1.055 -0.7045 -0.4521  0.1544
 4660SOL    HW214801   2.492   3.640   1.199 -0.8398  1.0783 -0.3763
 4661SOL     OW14802   6.940   6.296   2.553 -0.6467 -0.5383 -0.0728
 4661SOL    HW114803   6.945   6.315   2.651  2.2998  0.7307 -0.3652
 4661SOL    HW214804   6.906   6.376   2.504 -0.0280 -0.3899 -0.2662
 4662SOL     OW14805   3.994   5.193   3.121  0.5588  0.1154 -0.5537
 4662SOL    HW114806   3.897   5.175   3.132  0.8614 -1.0420  0.3782
 4662SOL    HW214807   4.012   5.290   3.138 -0.5852  0.6150 -1.9779
 4663SOL     OW14808   1.809   1.192   1.559 -0.8158 -0.0431  0.5292
 4663SOL    HW114809   1.869   1.123   1.600  0.1165  0.8623  0.7138
 4663SOL    HW214810   1.858   1.278   1.551 -0.6405 -0.3429 -3.3117
 4664SOL     OW14811   5.613   2.704   3.197 -0.0851 -0.4434 -0.2353
 4664SOL    HW114812   5.659   2.664   3.119 -1.0538  0.8306 -1.5157
 4664SOL    HW214813   5.605   2.636   3.270  0.5275 -1.7706 -1.3669
 4665SOL     OW14814   5.867   0.732   5.238 -0.0195  0.1017 -0.0432
 4665SOL    HW114815   5.887   0.651   5.293  2.2027  0.9735  0.5091
 4665SOL    HW214816   5.818   0.799   5.293  1.6208  0.7013  0.7399
 4666SOL     OW14817   4.686   1.181   1.865 -0.5021 -0.1783  0.4932
 4666SOL    HW114818   4.649   1.262   1.819 -1.2981 -1.3372 -1.0017
 4666SOL    HW214819   4.764   1.208   1.921 -1.0081  1.6757  0.3832
 4667SOL     OW14820   2.571   3.953   0.418  0.0011 -0.5775 -0.6079
 4667SOL    HW114821   2.641   3.937   0.488  1.4247 -0.1359 -1.8810
 4667SOL    HW214822   2.611   3.942   0.328 -1.4405  0.3074 -1.3942
 4668SOL     OW14823   6.864   1.100   4.331  0.3113  0.6227  0.4773
 4668SOL    HW114824   6.921   1.018   4.329 -2.3890 -1.4310  1.3819
 4668SOL    HW214825   6.843   1.129   4.238 -1.1706 -1.6497  0.0283
 4669SOL     OW14826   6.644   6.540   1.808 -0.1734  0.0059  0.3239
 4669SOL    HW114827   6.555   6.534   1.852  0.4336 -0.3837  1.5475
 4669SOL    HW214828   6.673   6.448   1.780  0.0644  0.0604  0.3882
 4670SOL     OW14829   0.457   1.621   4.507  0.3071  0.9630 -0.6505
 4670SOL    HW114830   0.427   1.629   4.412  0.0852  1.6480 -0.5257
 4670SOL    HW214831   0.390   1.665   4.567 -0.3788 -0.8256 -0.0275
 4671SOL     OW14832   3.674   5.268   0.817  0.0366 -0.4766 -0.5888
 4671SOL    HW114833   3.696   5.359   0.782  0.1586 -0.5944 -0.8224
 4671SOL    HW214834   3.712   5.199   0.757  0.8169 -0.6858  0.1329
 4672SOL     OW14835   4.767   2.022   3.126  0.7948 -0.0900 -0.5613
 4672SOL    HW114836   4.838   2.070   3.075  0.9527  0.2094 -0.0612
 4672SOL    HW214837   4.683   2.077   3.124  0.4225 -0.6596 -1.5521
 4673SOL     OW14838   4.511   3.919   6.745 -0.4040 -0.2753 -0.5611
 4673SOL    HW114839   4.563   3.994   6.786 -1.2408  1.5274 -2.5566
 4673SOL    HW214840   4.507   3.842   6.809  2.6944  0.3557  0.5357
 4674SOL     OW14841   5.582   5.114   6.979 -0.4602 -0.0047  0.4049
 4674SOL    HW114842   5.639   5.123   7.061 -1.5491  2.1555  0.9777
 4674SOL    HW214843   5.485   5.119   7.005 -0.8431 -0.6088 -0.8780
 4675SOL     OW14844   5.655   5.020   1.466 -0.6849 -0.7339  0.7234
 4675SOL    HW114845   5.661   5.012   1.367 -1.7082  3.8936  0.0997
 4675SOL    HW214846   5.566   5.057   1.491  0.8129  1.6467  2.9773
 4676SOL     OW14847   2.607   2.195   1.341 -0.0886 -0.1469 -0.0280
 4676SOL    HW114848   2.659   2.254   1.403 -1.7776  0.9588  0.4083
 4676SOL    HW214849   2.663   2.172   1.262  1.6027 -0.3659  1.1778
 4677SOL     OW14850   5.325   5.799   5.826  1.0096  0.1678  0.2335
 4677SOL    HW114851   5.357   5.880   5.875 -1.3399  0.1958  1.8464
 4677SOL    HW214852   5.291   5.732   5.891  0.8257 -1.1830 -1.2173
 4678SOL     OW14853   1.757   3.833   3.975  0.1124  0.1314 -0.0792
 4678SOL    HW114854   1.726   3.765   3.909 -0.6801 -0.0018  0.4118
 4678SOL    HW214855   1.822   3.895   3.931  0.8943 -0.9716 -0.5111
 4679SOL     OW14856   5.777   3.476   6.312  0.2689  0.6947 -0.5764
 4679SOL    HW114857   5.765   3.461   6.410 -0.6842  0.3812 -0.7308
 4679SOL    HW214858   5.873   3.467   6.288  0.6059  1.4911  0.4459
 4680SOL     OW14859   0.328   4.814   5.026 -0.4445  0.0411 -0.4781
 4680SOL    HW114860   0.240   4.773   5.047  0.6632 -1.2602  2.1064
 4680SOL    HW214861   0.372   4.845   5.110  1.7912  0.1400 -1.5905
 4681SOL     OW14862   1.658   3.869   6.306  0.0789  0.0373 -0.0766
 4681SOL    HW114863   1.683   3.905   6.395 -1.1968  1.3310 -0.1991
 4681SOL    HW214864   1.622   3.942   6.249 -0.7257 -1.0634 -1.0538
 4682SOL     OW14865   6.297   6.862   3.000 -0.7312 -0.3198  0.2535
 4682SOL    HW114866   6.387   6.905   2.998 -0.7315 -0.3477 -0.4222
 4682SOL    HW214867   6.228   6.925   2.967 -1.5416  0.9594  3.9087
 4683SOL     OW14868   6.329   3.895   2.565 -0.0540 -0.3594 -0.2116
 4683SOL    HW114869   6.316   3.989   2.594 -0.2067  0.0506 -1.5596
 4683SOL    HW214870   6.425   3.880   2.541 -0.0208 -0.5556  0.0358
 4684SOL     OW14871   0.854   5.094   2.329 -0.2244  0.2234 -0.3273
 4684SOL    HW114872   0.879   5.150   2.250  0.0736 -0.0595 -0.4372
 4684SOL    HW214873   0.888   5.001   2.316 -3.8965 -1.0617 -1.8857
 4685SOL     OW14874   1.287   2.437   5.834 -0.2722  0.4110 -0.4030
 4685SOL    HW114875   1.358   2.434   5.905  1.1037 -0.5075 -1.7713
 4685SOL    HW214876   1.197   2.435   5.878  0.4708 -3.4963  1.2792
 4686SOL     OW14877   6.586   3.056   4.772  0.4726  0.0343  0.1661
 4686SOL    HW114878   6.662   3.064   4.707  0.2875  0.2179 -0.0310
 4686SOL    HW214879   6.546   2.965   4.766 -2.1006  1.1865 -2.8680
 4687SOL     OW14880   1.622   4.655   6.130 -0.0315  0.0707  0.8716
 4687SOL    HW114881   1.566   4.730   6.165 -0.0236  0.4276  0.1310
 4687SOL    HW214882   1.662   4.605   6.207 -0.4208  0.5327  1.3824
 4688SOL     OW14883   6.013   6.556   4.130 -0.4431  0.2674  0.3018
 4688SOL    HW114884   5.920   6.588   4.113 -0.1874  0.2928 -1.1483
 4688SOL    HW214885   6.078   6.629   4.110 -0.1077  0.4851  1.9859
 4689SOL     OW14886   6.002   6.204   4.455 -0.1292  0.1792 -0.2600
 4689SOL    HW114887   5.960   6.264   4.387  0.5688 -0.1227 -0.9648
 4689SOL    HW214888   5.937   6.134   4.483  0.6307 -1.8125 -3.1712
 4690SOL     OW14889   5.222   1.820   1.844  0.1128 -0.0925  0.3047
 4690SOL    HW114890   5.284   1.752   1.805  0.2171  0.4294 -0.4595
 4690SOL    HW214891   5.132   1.812   1.800  0.2167  0.4726 -0.0140
 4691SOL     OW14892   1.716   1.002   1.359 -0.0180  0.0698 -0.1927
 4691SOL    HW114893   1.617   1.000   1.373  0.0354 -0.0562  0.1586
 4691SOL    HW214894   1.757   1.068   1.421  0.2978 -0.9879  0.7373
 4692SOL     OW14895   2.066   2.287   4.989  0.2062 -0.3772  0.3303
 4692SOL    HW114896   1.996   2.357   5.006  0.3412 -0.5383  1.7630
 4692SOL    HW214897   2.156   2.331   4.981  0.1232 -0.2812 -0.0622
 4693SOL     OW14898   4.465   0.721   2.045  0.7548  0.2327 -0.2202
 4693SOL    HW114899   4.535   0.790   2.026  0.2854  0.7572 -0.0915
 4693SOL    HW214900   4.492   0.634   2.005  1.6566  0.3303  0.1440
 4694SOL     OW14901   1.342   1.845   4.477 -0.5389  0.0823 -0.1177
 4694SOL    HW114902   1.365   1.918   4.413  0.5366 -0.4215 -0.3317
 4694SOL    HW214903   1.424   1.790   4.497 -1.4487 -1.4862 -0.4917
 4695SOL     OW14904   4.867   2.253   0.010 -0.2139  0.4119 -0.1838
 4695SOL    HW114905   4.954   2.280  -0.033 -0.6527  2.5299  0.1983
 4695SOL    HW214906   4.881   2.241   0.108  0.3746 -2.6426 -0.5256
 4696SOL     OW14907   1.458   1.580   2.360  0.3022  0.8360 -0.1240
 4696SOL    HW114908   1.518   1.625   2.294  1.9218  1.0477  1.4236
 4696SOL    HW214909   1.465   1.627   2.448  0.5793 -1.2794  1.0321
 4697SOL     OW14910   4.998   5.674   2.997  0.2258 -0.0367  0.3333
 4697SOL    HW114911   4.902   5.674   2.971 -0.7328 -1.1809  3.4718
 4697SOL    HW214912   5.052   5.628   2.926 -1.2482  1.5817 -2.0076
 4698SOL     OW14913   1.738   6.574   3.521  0.2585 -0.6375 -0.1295
 4698SOL    HW114914   1.800   6.594   3.597 -1.3326 -0.8101  1.2658
 4698SOL    HW214915   1.770   6.493   3.472  0.6759 -1.2337  1.0891
 4699SOL     OW14916   1.611   5.109   6.818  0.0039 -0.1776 -0.3380
 4699SOL    HW114917   1.631   5.207   6.827 -1.4624  0.2473 -1.3492
 4699SOL    HW214918   1.529   5.087   6.871  0.6217 -0.9775  0.3068
 4700SOL     OW14919   5.260   2.634   0.401  0.1309 -0.5274 -0.8051
 4700SOL    HW114920   5.225   2.560   0.344 -0.9590 -1.1330  0.6123
 4700SOL    HW214921   5.196   2.654   0.475  1.0153  0.9521 -0.3757
 4701SOL     OW14922   4.501   3.831   2.710  0.1279 -0.2180  0.3701
 4701SOL    HW114923   4.586   3.880   2.687  0.7122 -2.1897 -2.0889
 4701SOL    HW214924   4.423   3.890   2.691  0.8270  0.1436 -1.6215
 4702SOL     OW14925   3.581   4.820   5.392  0.6444  0.5807 -0.0106
 4702SOL    HW114926   3.523   4.745   5.361  1.7860  0.7035 -2.6772
 4702SOL    HW214927   3.526   4.904   5.399  0.2727  0.5134 -1.6969
 4703SOL     OW14928   5.428   6.582   6.441 -0.2168  0.2507 -0.6233
 4703SOL    HW114929   5.395   6.510   6.502  0.7123 -1.6203 -2.2265
 4703SOL    HW214930   5.351   6.635   6.406 -1.0272 -0.7075 -0.3281
 4704SOL     OW14931   4.924   5.996   0.630  0.3304  0.4153  0.1574
 4704SOL    HW114932   4.842   6.032   0.586 -0.3532 -0.1473  0.9085
 4704SOL    HW214933   4.964   5.924   0.574 -1.2067 -1.1373  0.8828
 4705SOL     OW14934   1.102   3.344   5.381 -0.1689  0.0037 -0.6328
 4705SOL    HW114935   1.003   3.333   5.380 -0.1816  0.0805 -0.3688
 4705SOL    HW214936   1.127   3.424   5.326 -0.4301  1.3133  1.1104
 4706SOL     OW14937   4.941   3.535   1.405 -0.4127 -0.0362  0.1491
 4706SOL    HW114938   4.955   3.475   1.326  1.3179 -1.3829  1.4015
 4706SOL    HW214939   4.991   3.620   1.390 -1.2165  0.2916 -0.7756
 4707SOL     OW14940   1.810   4.770   5.605 -0.1570  0.5247  0.9070
 4707SOL    HW114941   1.865   4.809   5.531  0.8142 -0.8464  0.8817
 4707SOL    HW214942   1.848   4.798   5.693 -0.1676  0.5885  0.8920
 4708SOL     OW14943   2.468   1.335   5.483 -0.5703  0.0450  0.2983
 4708SOL    HW114944   2.459   1.257   5.546 -1.4843  0.3712  0.5903
 4708SOL    HW214945   2.565   1.358   5.473 -0.3984 -0.0347  1.5679
 4709SOL     OW14946   1.835   6.552   5.326  0.1632 -0.3496  0.2723
 4709SOL    HW114947   1.824   6.643   5.285 -0.4039  0.0774  1.3069
 4709SOL    HW214948   1.746   6.517   5.354  0.5785 -0.2351  1.8793
 4710SOL     OW14949   6.919   0.311   3.884  0.0952 -0.2376 -0.4128
 4710SOL    HW114950   6.939   0.375   3.958 -0.3156  0.0506 -0.5464
 4710SOL    HW214951   6.904   0.361   3.799 -1.4469 -0.3864 -0.2676
 4711SOL     OW14952   2.156   3.582   1.614  0.1857  1.1742 -0.0745
 4711SOL    HW114953   2.156   3.679   1.636  1.6381  1.4037 -0.9341
 4711SOL    HW214954   2.130   3.529   1.695  1.2094  2.1709  0.9321
 4712SOL     OW14955   2.540   0.863   3.741  0.0807  0.1273 -0.0228
 4712SOL    HW114956   2.502   0.938   3.688 -0.0123 -0.1118 -0.3003
 4712SOL    HW214957   2.469   0.796   3.761  0.2159 -0.0096  0.0154
 4713SOL     OW14958   3.435   3.071   0.058 -0.1104  0.4127 -0.1753
 4713SOL    HW114959   3.406   2.996   0.118 -0.1406 -0.0994 -0.8110
 4713SOL    HW214960   3.377   3.074  -0.023  2.1483 -1.3670 -2.0141
 4714SOL     OW14961   6.640   2.108   5.571  0.4093 -0.7743  0.4046
 4714SOL    HW114962   6.585   2.027   5.592 -0.1171 -0.7036 -0.6039
 4714SOL    HW214963   6.719   2.111   5.631  0.0198 -1.6095  0.9897
 4715SOL     OW14964   4.703   4.054   2.544 -0.1358 -0.2658 -0.1377
 4715SOL    HW114965   4.603   4.048   2.548 -0.0174 -2.3010  1.0139
 4715SOL    HW214966   4.737   3.984   2.482  0.4998  2.4662 -3.1233
 4716SOL     OW14967   1.916   4.461   5.038 -0.2692  0.9120  0.0692
 4716SOL    HW114968   1.929   4.410   4.952 -0.1193 -0.7814  1.0659
 4716SOL    HW214969   1.901   4.558   5.017 -1.1835  0.3784 -1.9150
 4717SOL     OW14970   2.078   5.954   4.869 -0.0068  0.2209  0.2216
 4717SOL    HW114971   2.059   5.952   4.967 -0.9680 -1.8318  0.0577
 4717SOL    HW214972   2.175   5.974   4.854  0.6159 -1.4429  1.7079
 4718SOL     OW14973   1.490   2.974   0.882  0.5408 -0.2277  0.4564
 4718SOL    HW114974   1.470   2.881   0.912 -0.7488 -0.3194 -0.5872
 4718SOL    HW214975   1.583   2.998   0.908  0.6107 -1.4996  1.4810
 4719SOL     OW14976   6.823   0.411   2.786 -0.2605 -0.6499  0.2038
 4719SOL    HW114977   6.802   0.339   2.719  0.1698 -2.4518  1.9112
 4719SOL    HW214978   6.912   0.450   2.766  0.0466 -1.4536 -0.0652
 4720SOL     OW14979   4.417   0.414   3.227  0.4415  0.3995 -0.6399
 4720SOL    HW114980   4.370   0.354   3.292  0.8925  0.4814 -0.2369
 4720SOL    HW214981   4.505   0.442   3.265  0.1153  1.5418 -0.7089
 4721SOL     OW14982   5.141   2.047   6.363 -0.0130 -0.5164 -0.2745
 4721SOL    HW114983   5.186   2.013   6.446 -1.3767 -0.1197  0.6552
 4721SOL    HW214984   5.167   2.142   6.347  0.3568 -0.6346 -0.3832
 4722SOL     OW14985   6.450   4.975   2.115  0.5324  0.3792 -0.0207
 4722SOL    HW114986   6.370   5.030   2.091  0.4033  0.7030  1.1027
 4722SOL    HW214987   6.427   4.878   2.108 -0.0998  0.4652  0.6895
 4723SOL     OW14988   0.441   3.481   2.855  1.0846 -0.4769 -0.2423
 4723SOL    HW114989   0.448   3.473   2.755  0.0409  0.6642 -0.4332
 4723SOL    HW214990   0.494   3.560   2.885  0.8683 -0.4367  0.0295
 4724SOL     OW14991   3.559   4.427   1.750 -0.4635 -0.3927 -0.4706
 4724SOL    HW114992   3.568   4.362   1.825  0.0845  1.2600  0.9677
 4724SOL    HW214993   3.645   4.477   1.738 -1.9601  2.8507  1.2142
 4725SOL     OW14994   1.947   6.980   5.854 -0.7770  0.4983 -0.0299
 4725SOL    HW114995   1.860   7.025   5.874 -1.2829 -0.5573  0.1826
 4725SOL    HW214996   2.016   7.012   5.919 -1.7501 -0.9229  1.7664
 4726SOL     OW14997   1.108   4.630   2.505 -0.1720 -0.1545 -0.3378
 4726SOL    HW114998   1.128   4.728   2.502 -0.1669 -0.1437  0.0080
 4726SOL    HW214999   1.133   4.594   2.595  1.5302 -0.8436 -1.0375
 4727SOL     OW15000   6.837   0.250   2.545  0.0466  0.0839 -0.1850
 4727SOL    HW115001   6.918   0.273   2.490  0.4071 -1.4824 -0.3432
 4727SOL    HW215002   6.770   0.203   2.488 -0.6429  0.6541  0.1443
 4728SOL     OW15003   3.845   7.019   0.290 -0.2692  0.0265  0.3687
 4728SOL    HW115004   3.915   6.990   0.356  1.7243 -0.3937 -1.8034
 4728SOL    HW215005   3.853   7.118   0.275 -1.9959  0.4485  2.1024
 4729SOL     OW15006   3.947   4.539   3.011  0.2611  0.1664  0.2661
 4729SOL    HW115007   4.041   4.543   2.977 -0.1015 -0.4436 -0.8962
 4729SOL    HW215008   3.900   4.460   2.970 -0.5881  0.1176  1.2826
 4730SOL     OW15009   0.296   3.994   2.837  0.1974 -0.3070 -0.0533
 4730SOL    HW115010   0.345   3.924   2.785  0.2147  0.9531 -1.8111
 4730SOL    HW215011   0.273   4.071   2.777 -1.1332  0.5546  1.4658
 4731SOL     OW15012   3.408   6.629   0.253 -0.1249 -0.2770 -0.4003
 4731SOL    HW115013   3.347   6.574   0.195 -0.7646  2.1524 -2.2070
 4731SOL    HW215014   3.414   6.588   0.344 -2.7663 -1.7717 -0.8101
 4732SOL     OW15015   5.958   5.987   1.704  0.6322 -0.1456 -0.3662
 4732SOL    HW115016   5.928   5.945   1.789 -0.6175  1.5591  0.0770
 4732SOL    HW215017   5.885   5.980   1.636  0.4070  1.2444 -0.2889
 4733SOL     OW15018   3.940   4.640   6.163  0.3275 -0.7078 -0.0440
 4733SOL    HW115019   3.893   4.563   6.120 -0.2614  0.1286 -0.9275
 4733SOL    HW215020   3.882   4.721   6.159  1.8219  0.3789 -1.2156
 4734SOL     OW15021   2.420   1.372   2.840 -0.0534  0.9962  0.2097
 4734SOL    HW115022   2.408   1.385   2.741  0.5467  0.5935  0.0801
 4734SOL    HW215023   2.331   1.352   2.881 -0.0792 -0.6042 -0.5293
 4735SOL     OW15024   0.072   1.294   0.648 -0.7094 -0.2022  0.8239
 4735SOL    HW115025   0.036   1.373   0.599  2.1662  0.0831 -1.1372
 4735SOL    HW215026   0.008   1.217   0.641 -2.0143  0.9434 -0.2365
 4736SOL     OW15027   5.341   1.542   0.494 -0.8368 -0.0605 -0.0679
 4736SOL    HW115028   5.297   1.519   0.581  0.1365 -1.0531  0.1903
 4736SOL    HW215029   5.317   1.473   0.425  2.2141 -2.1316  0.7490
 4737SOL     OW15030   3.118   0.218   6.918 -0.0110 -0.6550  0.3937
 4737SOL    HW115031   3.028   0.261   6.919  0.3577  0.1520  0.3181
 4737SOL    HW215032   3.109   0.120   6.936 -0.9925 -0.7592 -0.5266
 4738SOL     OW15033   0.780   4.160   5.395  0.0370  0.0668  0.1414
 4738SOL    HW115034   0.770   4.179   5.297 -0.8805 -2.4624 -0.3130
 4738SOL    HW215035   0.872   4.123   5.413 -0.6112 -1.8389 -0.2471
 4739SOL     OW15036   2.353   0.693   3.807 -0.2047 -0.0111 -0.3994
 4739SOL    HW115037   2.374   0.688   3.905 -1.3663  0.6181 -0.1011
 4739SOL    HW215038   2.264   0.652   3.791 -0.0370 -0.0662 -1.1927
 4740SOL     OW15039   1.573   3.570   5.725  0.5179 -0.0971  0.1696
 4740SOL    HW115040   1.661   3.612   5.746  0.1840 -0.1002  1.6499
 4740SOL    HW215041   1.586   3.473   5.703  0.6078 -1.1103  3.9845
 4741SOL     OW15042   0.698   0.988   0.723  0.4486  0.1748 -0.2696
 4741SOL    HW115043   0.707   0.916   0.791 -0.8526  0.8363  0.6347
 4741SOL    HW215044   0.728   0.954   0.634 -2.5752 -2.4035 -0.4596
 4742SOL     OW15045   1.644   2.636   6.551 -0.4293  0.6342 -0.5759
 4742SOL    HW115046   1.671   2.724   6.512 -1.9800  0.4988 -2.1034
 4742SOL    HW215047   1.720   2.571   6.545 -0.1009  1.1107 -1.9035
 4743SOL     OW15048   3.656   1.930   0.431  0.0408  0.5654 -0.6751
 4743SOL    HW115049   3.706   1.961   0.349  1.7780 -0.0366  0.1128
 4743SOL    HW215050   3.598   1.852   0.407  1.9172 -0.7939 -1.0375
 4744SOL     OW15051   0.379   1.513   3.054 -0.1571 -0.6733  0.1944
 4744SOL    HW115052   0.378   1.434   2.993 -2.8306 -0.2245 -0.4808
 4744SOL    HW215053   0.390   1.596   3.000 -2.5201 -0.2711  0.2312
 4745SOL     OW15054   4.691   4.221   5.341  0.1162  0.0015 -0.8820
 4745SOL    HW115055   4.782   4.221   5.382 -1.2181  1.4487  2.4174
 4745SOL    HW215056   4.660   4.127   5.329  1.2638 -0.4739 -0.2043
 4746SOL     OW15057   6.727   0.388   5.721 -0.4366 -0.1704  0.2121
 4746SOL    HW115058   6.790   0.348   5.654 -1.2979  0.6454 -1.1247
 4746SOL    HW215059   6.638   0.342   5.714 -1.1478  1.2757 -0.6714
 4747SOL     OW15060   4.753   3.149   3.829 -0.8752  0.4233  0.4891
 4747SOL    HW115061   4.712   3.060   3.807 -1.1164  0.4141  0.9694
 4747SOL    HW215062   4.783   3.149   3.925 -1.1493  0.9579  0.5771
 4748SOL     OW15063   2.969   5.140   2.177  0.6327 -0.5061  0.2534
 4748SOL    HW115064   3.063   5.130   2.145  0.7749 -0.6421  0.6969
 4748SOL    HW215065   2.920   5.053   2.164  1.4262 -1.3892  2.7154
 4749SOL     OW15066   1.132   1.580   5.787 -0.1402  0.1730  0.7556
 4749SOL    HW115067   1.104   1.669   5.825 -1.2141 -0.3917  1.3342
 4749SOL    HW215068   1.083   1.507   5.834 -1.7281 -0.5734 -1.8438
 4750SOL     OW15069   4.084   5.886   4.542 -0.2631 -0.3038  0.4060
 4750SOL    HW115070   3.989   5.906   4.520  0.1195  0.7620 -0.4169
 4750SOL    HW215071   4.143   5.915   4.466  0.7066 -1.0506  0.8448
 4751SOL     OW15072   6.129   0.124   5.824  0.1435 -0.1677 -0.4601
 4751SOL    HW115073   6.163   0.060   5.893  0.8438  0.8953  0.2336
 4751SOL    HW215074   6.175   0.212   5.836  1.0450 -0.2161 -2.9347
 4752SOL     OW15075   6.662   6.191   4.573 -0.2359 -0.0173  0.6874
 4752SOL    HW115076   6.591   6.238   4.520  0.9652  0.9314 -0.1383
 4752SOL    HW215077   6.623   6.154   4.657 -1.6222  0.8125  0.4230
 4753SOL     OW15078   4.486   6.297   4.364  0.0302  0.3629  0.1774
 4753SOL    HW115079   4.441   6.381   4.333  1.4202  1.0454 -0.0310
 4753SOL    HW215080   4.565   6.320   4.421 -0.9034 -0.8404  2.0578
 4754SOL     OW15081   6.345   6.183   0.721 -0.3547  0.4244  0.0906
 4754SOL    HW115082   6.276   6.250   0.691 -0.4523  0.0792 -0.4881
 4754SOL    HW215083   6.413   6.171   0.649  0.4082  0.8793  0.7270
 4755SOL     OW15084   5.640   1.250   1.351 -0.1459 -0.1388  0.0082
 4755SOL    HW115085   5.654   1.235   1.448  0.8431  0.5171 -0.0182
 4755SOL    HW215086   5.632   1.161   1.304 -2.9272 -0.4772  0.9533
 4756SOL     OW15087   0.811   1.478   5.594 -0.0066  0.9675 -0.0186
 4756SOL    HW115088   0.891   1.490   5.536  1.2730  0.5288  1.5787
 4756SOL    HW215089   0.766   1.566   5.608  0.1481  1.2140 -0.9717
 4757SOL     OW15090   0.938   4.392   3.445 -0.1469 -0.4623 -0.7618
 4757SOL    HW115091   0.847   4.428   3.466 -0.0290 -0.2105 -0.6785
 4757SOL    HW215092   0.993   4.463   3.403  0.3023 -0.3534 -0.0131
 4758SOL     OW15093   0.487   3.812   4.338 -0.1755  0.8943  0.3630
 4758SOL    HW115094   0.557   3.802   4.409  0.3626 -0.1613 -0.2891
 4758SOL    HW215095   0.408   3.861   4.376 -0.1585 -0.1593  1.8719
 4759SOL     OW15096   6.186   4.396   1.684  0.5108  0.1002  0.2393
 4759SOL    HW115097   6.194   4.464   1.611  0.6686 -0.3489 -0.1671
 4759SOL    HW215098   6.092   4.394   1.718  0.0132 -0.8795 -1.1288
 4760SOL     OW15099   0.292   4.203   2.655 -0.5542  0.5133 -0.3930
 4760SOL    HW115100   0.238   4.213   2.571 -0.9273  1.4768 -0.0453
 4760SOL    HW215101   0.381   4.248   2.642 -0.8015  1.1026 -0.1166
 4761SOL     OW15102   2.376   1.628   1.492 -0.1043 -0.5207  0.0529
 4761SOL    HW115103   2.464   1.614   1.447 -0.7880 -1.1854 -1.1405
 4761SOL    HW215104   2.341   1.719   1.472 -0.6888 -1.0268 -1.3244
 4762SOL     OW15105   4.255   2.801   2.668 -0.0630 -0.2466 -0.0764
 4762SOL    HW115106   4.162   2.770   2.687 -0.6942  1.2364 -0.6115
 4762SOL    HW215107   4.318   2.760   2.735 -0.9662 -1.7997 -0.1228
 4763SOL     OW15108   0.562   5.175   6.201 -0.1966  0.3256 -0.1347
 4763SOL    HW115109   0.462   5.170   6.197 -0.2788  1.7091 -0.4342
 4763SOL    HW215110   0.593   5.257   6.153  1.3119 -1.6980 -2.8399
 4764SOL     OW15111   2.738   0.180   6.354 -0.4294 -0.2295  0.2209
 4764SOL    HW115112   2.766   0.226   6.270 -0.6358  0.1604  0.3602
 4764SOL    HW215113   2.762   0.083   6.349  1.3333  0.1639  0.4947
 4765SOL     OW15114   2.148   4.665   6.191  0.3753  0.3869 -0.2066
 4765SOL    HW115115   2.188   4.689   6.279  1.4702 -0.5555 -0.4196
 4765SOL    HW215116   2.176   4.572   6.167 -0.4996  0.3741 -1.2124
 4766SOL     OW15117   5.023   6.079   1.021  0.5815 -0.2547 -0.5523
 4766SOL    HW115118   5.044   6.050   1.114 -1.0372 -1.2075 -0.4387
 4766SOL    HW215119   4.995   5.999   0.967 -0.6007  0.5887 -1.2394
 4767SOL     OW15120   6.622   5.384   1.014 -0.1486 -0.0552 -0.3903
 4767SOL    HW115121   6.717   5.367   1.040 -0.6611 -2.1138  0.2772
 4767SOL    HW215122   6.562   5.324   1.065 -1.6693 -0.1874 -2.2252
 4768SOL     OW15123   0.451   3.492   6.725 -0.1835  0.0667 -0.1966
 4768SOL    HW115124   0.538   3.519   6.766 -1.0297 -0.8706  2.3553
 4768SOL    HW215125   0.393   3.573   6.712  0.4365  0.4807 -0.3981
 4769SOL     OW15126   3.920   3.857   4.858 -0.5162  0.1657  0.0034
 4769SOL    HW115127   3.958   3.772   4.821  1.2128 -0.1342  2.2711
 4769SOL    HW215128   3.828   3.839   4.895  0.1491 -0.9906  1.2119
 4770SOL     OW15129   3.820   4.496   1.714  0.3639 -0.5631  0.1839
 4770SOL    HW115130   3.865   4.585   1.707 -0.2907 -0.2138  0.3186
 4770SOL    HW215131   3.847   4.438   1.637 -0.3432  0.2727 -0.7098
 4771SOL     OW15132   2.600   5.596   4.265 -0.1627 -0.1185  0.4376
 4771SOL    HW115133   2.617   5.617   4.168  1.6167 -0.7705  0.5617
 4771SOL    HW215134   2.502   5.582   4.279 -0.7871  2.3220 -0.7699
 4772SOL     OW15135   6.789   2.766   1.796  0.1237  0.4250 -0.4241
 4772SOL    HW115136   6.869   2.817   1.766 -0.3459  0.4192 -1.7548
 4772SOL    HW215137   6.726   2.755   1.720 -0.4367 -0.9393  0.2010
 4773SOL     OW15138   1.228   3.935   4.945 -0.4075 -0.1722  0.7329
 4773SOL    HW115139   1.291   3.997   4.899  0.1027  0.2525  1.9574
 4773SOL    HW215140   1.222   3.849   4.894  1.3402 -0.3156  0.6769
 4774SOL     OW15141   2.371   5.141   4.454  0.1723  0.4028 -0.1225
 4774SOL    HW115142   2.389   5.051   4.495  1.6619  0.0065 -1.5806
 4774SOL    HW215143   2.418   5.148   4.366 -0.3908  2.4165 -0.3037
 4775SOL     OW15144   0.177   0.384   1.799 -1.2897  0.2329  0.3892
 4775SOL    HW115145   0.213   0.443   1.871  0.1723 -1.4734  1.1508
 4775SOL    HW215146   0.231   0.396   1.716  0.2224 -1.2619  1.0911
 4776SOL     OW15147   3.038   1.626   5.857  0.1640  0.4396 -0.1697
 4776SOL    HW115148   3.138   1.621   5.857  0.1288 -1.3670  1.3113
 4776SOL    HW215149   3.002   1.572   5.933 -2.0080 -0.2886 -1.6336
 4777SOL     OW15150   0.397   2.373   2.556 -0.3296 -0.2034 -0.0138
 4777SOL    HW115151   0.356   2.431   2.626  1.5782  0.0865  0.9206
 4777SOL    HW215152   0.332   2.302   2.528 -1.6280  0.5699  0.9802
 4778SOL     OW15153   4.150   3.952   6.974 -0.2046  0.1360  0.2103
 4778SOL    HW115154   4.194   4.030   6.930 -0.5757 -0.8766 -2.0813
 4778SOL    HW215155   4.219   3.898   7.024  1.0124 -0.6878 -2.2039
 4779SOL     OW15156   5.637   5.836   3.718  0.0045  0.0642  0.0200
 4779SOL    HW115157   5.607   5.789   3.636  1.6011 -0.9294 -0.0153
 4779SOL    HW215158   5.707   5.903   3.695  1.6569 -1.3532  0.7266
 4780SOL     OW15159   2.622   1.733   6.647 -0.4688 -0.1741  0.1650
 4780SOL    HW115160   2.590   1.753   6.554  0.3024 -0.4006 -0.1580
 4780SOL    HW215161   2.544   1.719   6.707 -1.0132  1.2746 -0.1560
 4781SOL     OW15162   2.964   0.266   3.890  0.0910  0.1303  0.3300
 4781SOL    HW115163   3.029   0.255   3.816  1.8693 -1.9902  2.0394
 4781SOL    HW215164   3.001   0.331   3.957  0.6841 -1.3372  1.4722
 4782SOL     OW15165   5.680   0.331   6.304 -0.0822 -0.5172 -0.0695
 4782SOL    HW115166   5.709   0.404   6.241  1.3596 -1.4221 -0.5229
 4782SOL    HW215167   5.694   0.362   6.399 -1.9564  0.7328 -0.1408
 4783SOL     OW15168   5.320   4.259   6.642 -0.5669 -0.6102 -0.2948
 4783SOL    HW115169   5.297   4.178   6.587 -2.4500  0.0194 -0.4981
 4783SOL    HW215170   5.415   4.286   6.623 -0.6678 -1.3510 -2.0385
 4784SOL     OW15171   3.643   1.479   3.576 -0.0057 -0.5128 -0.3622
 4784SOL    HW115172   3.595   1.474   3.663  1.7955  0.8579  0.7898
 4784SOL    HW215173   3.578   1.465   3.501 -2.2326  1.3891  1.0539
 4785SOL     OW15174   3.576   0.928   5.803 -0.2187  0.5191  0.2233
 4785SOL    HW115175   3.656   0.942   5.860 -1.1465  2.2220  1.1777
 4785SOL    HW215176   3.546   1.015   5.765 -1.1604 -0.2059 -0.7836
 4786SOL     OW15177   4.575   2.315   3.626  0.0228  0.5954  0.3522
 4786SOL    HW115178   4.672   2.334   3.632  0.1629  0.2395 -0.5795
 4786SOL    HW215179   4.531   2.334   3.714  0.9870  0.4331  0.8755
 4787SOL     OW15180   1.702   1.388   2.583  0.5951 -0.2387  0.1440
 4787SOL    HW115181   1.637   1.322   2.544  0.1122 -1.9033  3.4296
 4787SOL    HW215182   1.666   1.481   2.570 -1.3490 -0.9657 -0.0942
 4788SOL     OW15183   6.274   2.948   5.369  0.0598 -0.4367 -0.3312
 4788SOL    HW115184   6.218   2.867   5.352 -0.7809  0.3831 -1.6767
 4788SOL    HW215185   6.276   3.005   5.286  0.8617  0.7676  0.4878
 4789SOL     OW15186   3.659   4.486   0.407  0.0800  0.1921  0.1758
 4789SOL    HW115187   3.568   4.517   0.381  0.2347  0.1205 -0.4825
 4789SOL    HW215188   3.653   4.393   0.444 -0.5868  1.4220  3.5133
 4790SOL     OW15189   0.932   5.280   1.447  0.1552 -0.2444  0.6702
 4790SOL    HW115190   0.922   5.276   1.547  0.3819 -1.6181  0.6476
 4790SOL    HW215191   0.979   5.365   1.422 -0.0351  0.1870  1.7159
 4791SOL     OW15192   5.894   1.747   0.378  0.4035 -0.1072 -0.2641
 4791SOL    HW115193   5.856   1.704   0.295 -1.3505 -0.2831  0.5967
 4791SOL    HW215194   5.882   1.846   0.373 -0.5485 -0.1779  0.1391
 4792SOL     OW15195   0.488   3.314   5.599  0.0681 -0.1926 -0.7977
 4792SOL    HW115196   0.502   3.262   5.683  0.8468  2.1073  0.5724
 4792SOL    HW215197   0.429   3.392   5.618  1.3487  1.1406 -2.0405
 4793SOL     OW15198   2.147   0.141   2.628  0.3614 -0.2793 -0.2185
 4793SOL    HW115199   2.167   0.130   2.530 -0.0247 -0.1587 -0.3094
 4793SOL    HW215200   2.111   0.233   2.645  1.7466  0.1959  0.2497
 4794SOL     OW15201   5.482   4.777   3.313 -0.4411  0.1316  0.1024
 4794SOL    HW115202   5.418   4.710   3.276 -1.6094  0.2416  1.8330
 4794SOL    HW215203   5.573   4.737   3.319 -0.9120 -0.9428  0.1537
 4795SOL     OW15204   6.978   5.983   0.657  0.1766  0.5322  0.2180
 4795SOL    HW115205   7.029   5.933   0.727  1.0160 -0.2831 -0.9444
 4795SOL    HW215206   6.891   6.014   0.696  0.0320 -1.0198  1.2468
 4796SOL     OW15207   6.561   6.769   6.949 -0.0698 -1.2706  0.0506
 4796SOL    HW115208   6.477   6.760   6.895 -0.3764 -2.6641  0.7388
 4796SOL    HW215209   6.640   6.748   6.892 -0.3003 -1.5018 -0.1907
 4797SOL     OW15210   3.685   5.603   3.232  0.1507  0.0924 -0.0408
 4797SOL    HW115211   3.716   5.633   3.322  0.6184  0.5502 -0.3477
 4797SOL    HW215212   3.658   5.683   3.177  0.7072 -0.0938 -0.6109
 4798SOL     OW15213   1.181   6.762   0.209 -0.2964  0.1772 -0.0869
 4798SOL    HW115214   1.145   6.730   0.297  0.3013  2.5539  1.0901
 4798SOL    HW215215   1.280   6.768   0.214 -0.2879  0.6631 -0.7804
 4799SOL     OW15216   6.375   4.167   5.052  0.1104  0.5244 -0.0161
 4799SOL    HW115217   6.356   4.194   5.146 -1.6196  0.5750 -0.3433
 4799SOL    HW215218   6.473   4.172   5.035  0.2837  2.4220  1.2042
 4800SOL     OW15219   3.812   1.362   6.369 -0.0477 -0.1565 -0.6953
 4800SOL    HW115220   3.713   1.360   6.359 -0.2300  0.6943  0.7271
 4800SOL    HW215221   3.840   1.444   6.419  1.5569  0.6257 -2.7429
 4801SOL     OW15222   0.490   3.842   4.656 -0.4188  0.2381  0.3693
 4801SOL    HW115223   0.407   3.874   4.611  0.3139  1.1162 -0.4032
 4801SOL    HW215224   0.475   3.837   4.755 -0.7904  2.3634  0.4654
 4802SOL     OW15225   6.276   6.341   2.274  0.1890 -0.5170 -0.2730
 4802SOL    HW115226   6.292   6.325   2.177  0.7798 -0.4314 -0.1924
 4802SOL    HW215227   6.203   6.280   2.306  0.0124 -0.5674 -0.7562
 4803SOL     OW15228   1.169   3.553   1.905 -0.2875 -0.6529 -0.3270
 4803SOL    HW115229   1.174   3.609   1.987 -0.9053 -1.5578  0.3502
 4803SOL    HW215230   1.116   3.602   1.835 -0.3672 -0.1644  0.0635
 4804SOL     OW15231   1.933   3.581   5.984 -0.5464 -0.3859 -0.1556
 4804SOL    HW115232   2.011   3.531   6.020 -0.6271 -0.0513  0.5074
 4804SOL    HW215233   1.915   3.661   6.041 -1.4181 -0.5004 -0.2486
 4805SOL     OW15234   2.569   0.326   5.104  0.2675  0.3441 -0.4481
 4805SOL    HW115235   2.472   0.344   5.089 -0.1960  0.5342  2.2860
 4805SOL    HW215236   2.586   0.227   5.098 -0.2093  0.2582 -0.4652
 4806SOL     OW15237   5.037   5.004   4.345 -0.0916 -0.0354 -0.0608
 4806SOL    HW115238   5.098   4.932   4.379 -0.6353 -0.5828 -0.2175
 4806SOL    HW215239   5.004   5.058   4.422 -0.4785 -0.5951  0.1737
 4807SOL     OW15240   0.594   2.902   3.527 -0.2727  0.2702 -0.3566
 4807SOL    HW115241   0.663   2.840   3.488  1.4729  2.4394 -0.9066
 4807SOL    HW215242   0.623   2.930   3.619 -1.8532 -0.9284  0.5405
 4808SOL     OW15243   2.463   3.179   5.262 -0.9242 -0.6135  0.1184
 4808SOL    HW115244   2.549   3.135   5.289 -0.5087  0.1581  0.0977
 4808SOL    HW215245   2.388   3.114   5.271 -0.0207 -2.1247 -2.2535
 4809SOL     OW15246   4.585   4.322   5.882 -0.3177 -0.1190  0.1523
 4809SOL    HW115247   4.533   4.249   5.836  1.5909 -1.5600  0.1681
 4809SOL    HW215248   4.623   4.384   5.813  0.5312 -0.8862 -0.0885
 4810SOL     OW15249   1.739   3.092   2.709 -0.7599 -0.2863 -0.5543
 4810SOL    HW115250   1.692   3.024   2.766 -3.0792  2.6730  1.3532
 4810SOL    HW215251   1.816   3.130   2.760 -0.6288 -0.1451 -0.8520
 4811SOL     OW15252   6.580   2.209   5.909 -0.8653 -0.2272 -0.1458
 4811SOL    HW115253   6.647   2.142   5.876 -1.1479 -1.1824  1.1483
 4811SOL    HW215254   6.603   2.236   6.002 -0.8437  1.3934 -0.5847
 4812SOL     OW15255   1.780   4.856   1.239  0.2419 -0.1490  0.3004
 4812SOL    HW115256   1.727   4.913   1.301  0.4638  1.5314 -0.9941
 4812SOL    HW215257   1.723   4.827   1.162  0.5025 -0.5396  0.2478
 4813SOL     OW15258   5.680   3.916   2.381  0.1160  0.4428 -0.5150
 4813SOL    HW115259   5.588   3.877   2.373  0.0021  0.7699 -0.8138
 4813SOL    HW215260   5.747   3.843   2.380 -0.2629 -0.0411  2.3495
 4814SOL     OW15261   6.140   0.931   1.325  0.3377 -0.4173 -0.3281
 4814SOL    HW115262   6.164   0.943   1.422 -2.0059  0.4206  0.1983
 4814SOL    HW215263   6.073   0.857   1.317 -0.4406  0.3759 -1.1617
 4815SOL     OW15264   3.483   0.997   4.267  0.3221  0.6000 -0.4658
 4815SOL    HW115265   3.574   0.980   4.228  0.0342 -0.4510 -0.7290
 4815SOL    HW215266   3.420   1.021   4.194 -0.4183 -2.2040 -0.8483
 4816SOL     OW15267   5.682   1.816   4.544 -0.5987  0.0781 -0.6869
 4816SOL    HW115268   5.717   1.909   4.550 -1.0176  0.2546 -0.8841
 4816SOL    HW215269   5.758   1.752   4.529 -0.4381  0.5687 -2.1984
 4817SOL     OW15270   4.373   6.296   4.033  0.0355  0.1396  0.2137
 4817SOL    HW115271   4.292   6.245   4.062 -0.8516  1.5112  0.2712
 4817SOL    HW215272   4.411   6.345   4.112  0.6126 -0.0742  0.0747
 4818SOL     OW15273   3.126   6.653   1.298  0.3224  0.0224 -0.2823
 4818SOL    HW115274   3.070   6.590   1.352 -0.1164  0.6053 -0.0442
 4818SOL    HW215275   3.192   6.601   1.244  0.7894 -0.5899  0.8251
 4819SOL     OW15276   1.620   4.315   4.943 -0.4002 -0.3269 -0.1178
 4819SOL    HW115277   1.631   4.393   4.882  0.5533 -0.2257  0.1634
 4819SOL    HW215278   1.660   4.336   5.032 -2.2666 -0.2660  0.7449
 4820SOL     OW15279   1.599   5.837   0.766 -0.3468  0.0257  0.0990
 4820SOL    HW115280   1.611   5.751   0.817 -1.5603 -1.4063 -1.8670
 4820SOL    HW215281   1.681   5.856   0.714 -0.9149 -1.3440 -1.3741
 4821SOL     OW15282   6.380   5.084   0.611  0.0386  0.5312  0.1731
 4821SOL    HW115283   6.454   5.022   0.583 -1.3825 -1.5774  0.8788
 4821SOL    HW215284   6.400   5.176   0.577  1.6059 -0.5206 -2.0521
 4822SOL     OW15285   5.133   5.211   3.487 -0.1306 -0.8465  0.3263
 4822SOL    HW115286   5.179   5.183   3.571 -1.0388 -2.3772  0.3267
 4822SOL    HW215287   5.075   5.291   3.505  2.2008  0.9538  0.3890
 4823SOL     OW15288   6.605   3.298   4.538 -0.4115 -0.1280 -0.3322
 4823SOL    HW115289   6.603   3.284   4.440  0.4195 -1.7751 -0.1338
 4823SOL    HW215290   6.666   3.232   4.581 -0.3508  0.8877  1.2487
 4824SOL     OW15291   2.204   4.801   5.477 -0.1272  0.1300 -0.0984
 4824SOL    HW115292   2.122   4.749   5.453  0.5386 -0.5975 -0.8772
 4824SOL    HW215293   2.197   4.832   5.572 -0.5208 -1.4211  0.4207
 4825SOL     OW15294   1.409   2.156   1.434  0.0610 -0.5983  0.6000
 4825SOL    HW115295   1.426   2.064   1.470 -0.2548 -0.6223  0.6892
 4825SOL    HW215296   1.368   2.213   1.506 -0.2063 -0.5331  0.3978
 4826SOL     OW15297   1.776   2.438   0.590 -0.1079  0.2731  0.1478
 4826SOL    HW115298   1.710   2.390   0.648  1.0904 -2.3569 -0.5305
 4826SOL    HW215299   1.742   2.440   0.496  0.0960  0.2495  0.0724
 4827SOL     OW15300   6.128   5.829   6.234  0.3330  0.5391  0.2624
 4827SOL    HW115301   6.029   5.820   6.242  0.3815  0.6467  1.1199
 4827SOL    HW215302   6.150   5.878   6.150 -0.3195  0.1980 -0.1201
 4828SOL     OW15303   5.407   1.679   1.667 -0.1671 -0.1771  0.2753
 4828SOL    HW115304   5.404   1.584   1.700  3.6521 -1.0707 -1.4280
 4828SOL    HW215305   5.494   1.721   1.693 -1.8187  3.0657  1.1553
 4829SOL     OW15306   1.837   5.472   5.188  0.0337  0.3946 -0.1314
 4829SOL    HW115307   1.832   5.492   5.090  2.4899  1.1587 -0.1860
 4829SOL    HW215308   1.882   5.548   5.235  0.0905 -0.5323  1.3773
 4830SOL     OW15309   5.198   6.459   4.699  0.4009 -0.0653  0.2053
 4830SOL    HW115310   5.233   6.504   4.781 -0.6160  2.6034 -0.7089
 4830SOL    HW215311   5.098   6.457   4.703  0.1774  1.9830 -1.7235
 4831SOL     OW15312   5.604   4.926   0.174 -0.6583  0.3934  0.2949
 4831SOL    HW115313   5.545   4.895   0.249  1.3742 -1.9461  1.0632
 4831SOL    HW215314   5.555   4.916   0.087 -2.6024  1.9643  1.1158
 4832SOL     OW15315   5.903   0.351   1.458  0.7215 -0.3039  0.1230
 4832SOL    HW115316   5.844   0.348   1.377 -0.5379 -2.9138  1.0340
 4832SOL    HW215317   5.900   0.443   1.498 -1.3209  0.1354 -0.8833
 4833SOL     OW15318   1.335   3.000   0.671  0.1820 -0.1069  0.4664
 4833SOL    HW115319   1.388   2.975   0.752  0.7203 -1.3833 -0.2700
 4833SOL    HW215320   1.289   2.920   0.635  0.4850  0.3035 -0.8831
 4834SOL     OW15321   3.873   0.487   6.954 -0.2980 -0.2708 -0.7135
 4834SOL    HW115322   3.856   0.583   6.933 -1.8525 -0.8997 -2.6432
 4834SOL    HW215323   3.878   0.475   7.053 -1.1583  1.6152 -0.4330
 4835SOL     OW15324   5.217   2.620   4.930  0.6772  1.1044 -0.1306
 4835SOL    HW115325   5.231   2.705   4.981  1.9381  1.3639 -0.8516
 4835SOL    HW215326   5.240   2.635   4.834  0.3266  0.0985 -0.3846
 4836SOL     OW15327   6.386   0.185   1.965 -0.6779 -0.3455 -0.1763
 4836SOL    HW115328   6.473   0.196   2.012 -0.5892  0.3223 -0.4737
 4836SOL    HW215329   6.317   0.244   2.008 -0.9944 -0.9085  0.0926
 4837SOL     OW15330   6.985   3.787   5.589 -0.3129  0.5150 -0.3055
 4837SOL    HW115331   6.928   3.716   5.548  0.5016  0.0621 -0.6734
 4837SOL    HW215332   7.002   3.859   5.522  1.6452 -0.6069 -1.0648
 4838SOL     OW15333   4.834   2.326   0.877 -0.7568  0.0455 -0.1595
 4838SOL    HW115334   4.738   2.311   0.852 -0.1438  1.0361 -3.4221
 4838SOL    HW215335   4.884   2.240   0.869 -1.0777 -0.1880  0.2712
 4839SOL     OW15336   1.896   5.005   4.055  0.3661  0.1453 -0.2876
 4839SOL    HW115337   1.889   5.012   3.955 -0.3630 -0.7119 -0.3091
 4839SOL    HW215338   1.804   4.996   4.094  0.6359  0.6394  0.4832
 4840SOL     OW15339   5.794   0.006   5.057  0.2077  0.2999 -0.4355
 4840SOL    HW115340   5.850   0.070   5.112  1.1195 -2.1134  1.5656
 4840SOL    HW215341   5.854  -0.050   5.001 -0.0455 -2.1893  1.6227
 4841SOL     OW15342   1.628   6.032   3.773  0.1861 -0.5606 -0.9703
 4841SOL    HW115343   1.616   5.946   3.722 -1.0793 -0.0236 -1.6301
 4841SOL    HW215344   1.612   6.109   3.712 -1.9448  0.1100  0.3430
 4842SOL     OW15345   5.983   5.480   6.100 -0.3991 -0.1582  0.0629
 4842SOL    HW115346   5.908   5.546   6.086 -0.2067  0.4340  1.6386
 4842SOL    HW215347   6.069   5.522   6.070 -0.3274  0.1979  0.7375
 4843SOL     OW15348   5.083   1.962   0.267  0.0787  0.3520 -0.1637
 4843SOL    HW115349   5.007   1.906   0.233  0.8787 -0.7718 -0.1547
 4843SOL    HW215350   5.134   1.911   0.335  0.5427  1.2959  0.2109
 4844SOL     OW15351   3.667   3.998   4.270  0.3085 -0.2169  0.1475
 4844SOL    HW115352   3.719   4.051   4.337  0.1421 -1.2858  1.1500
 4844SOL    HW215353   3.571   4.026   4.272  0.1018 -0.9448  1.1085
 4845SOL     OW15354   1.300   0.065   6.677 -0.3693  0.2344 -0.5522
 4845SOL    HW115355   1.348  -0.014   6.638 -0.5460 -0.0952 -0.1016
 4845SOL    HW215356   1.304   0.061   6.777 -0.6426  0.6353 -0.5243
 4846SOL     OW15357   3.821   4.268   3.301 -0.2109 -0.1563  0.3612
 4846SOL    HW115358   3.882   4.313   3.367 -0.1839 -0.3822  0.4889
 4846SOL    HW215359   3.855   4.177   3.280 -0.8291 -0.5139  0.8836
 4847SOL     OW15360   1.781   6.419   2.408 -0.0186  0.1655 -0.3067
 4847SOL    HW115361   1.823   6.416   2.498 -1.7586 -0.8052  0.5087
 4847SOL    HW215362   1.809   6.338   2.355 -2.0348 -1.3563  0.8321
 4848SOL     OW15363   5.640   2.098   2.677 -0.4023  0.2924 -0.6392
 4848SOL    HW115364   5.552   2.078   2.720  0.2157 -0.5150  0.3011
 4848SOL    HW215365   5.636   2.074   2.580 -1.4441  0.9747 -0.7797
 4849SOL     OW15366   6.062   4.269   3.028  0.2638  0.2339 -0.3667
 4849SOL    HW115367   5.993   4.197   3.028  0.3841  0.0721 -1.7011
 4849SOL    HW215368   6.142   4.239   3.080  0.2521 -0.5485 -0.7827
 4850SOL     OW15369   5.734   1.785   1.584 -0.6324 -0.2307 -0.0163
 4850SOL    HW115370   5.674   1.818   1.657 -0.5719  0.4532 -0.2735
 4850SOL    HW215371   5.828   1.812   1.604 -0.4184 -1.1030  0.2702
 4851SOL     OW15372   5.888   5.706   0.852  0.9494  0.3960  0.0381
 4851SOL    HW115373   5.927   5.615   0.864 -1.2105 -0.4956  0.8181
 4851SOL    HW215374   5.795   5.698   0.815 -0.8233  1.9793  3.6969
 4852SOL     OW15375   1.709   6.332   3.261 -0.7225 -0.5470  0.3217
 4852SOL    HW115376   1.702   6.371   3.170  1.5121 -0.3379  0.1792
 4852SOL    HW215377   1.802   6.296   3.275 -0.4574  0.9092  3.0734
 4853SOL     OW15378   4.540   6.792   6.108 -0.2118  0.9621  0.4090
 4853SOL    HW115379   4.599   6.807   6.188  0.7386  0.9946 -0.2795
 4853SOL    HW215380   4.540   6.874   6.051  1.2587  0.0706 -0.9737
 4854SOL     OW15381   4.027   4.159   6.656  0.9089  0.0017  0.0360
 4854SOL    HW115382   3.989   4.087   6.599 -0.7156 -0.3292  1.4471
 4854SOL    HW215383   4.125   4.146   6.667  1.3918  0.3865 -3.0446
 4855SOL     OW15384   5.780   4.839   0.349 -0.3418  0.7068  0.7140
 4855SOL    HW115385   5.736   4.830   0.439 -1.5701 -1.0746 -0.0193
 4855SOL    HW215386   5.717   4.882   0.285  0.0120  0.6831  0.3358
 4856SOL     OW15387   1.136   2.627   1.025 -0.1711 -0.1035  0.9506
 4856SOL    HW115388   1.213   2.573   0.992  1.1857  1.3388  1.5502
 4856SOL    HW215389   1.121   2.609   1.122 -1.5356 -1.4052  0.5269
 4857SOL     OW15390   6.492   0.601   0.467 -1.0859  0.2018  0.4944
 4857SOL    HW115391   6.582   0.628   0.435 -1.2314  0.7741  0.5606
 4857SOL    HW215392   6.454   0.672   0.526 -1.8379  0.2659 -0.0306
 4858SOL     OW15393   6.845   5.300   4.203  0.5192  0.1713  0.4701
 4858SOL    HW115394   6.826   5.365   4.276  0.8081  0.8907 -0.0840
 4858SOL    HW215395   6.877   5.214   4.242  0.2203  0.3860  1.2072
 4859SOL     OW15396   4.473   4.463   0.179  0.3259 -0.1880  0.6632
 4859SOL    HW115397   4.415   4.465   0.260  0.2147 -0.4991  0.5996
 4859SOL    HW215398   4.416   4.479   0.098  0.6092  1.2258  0.7207
 4860SOL     OW15399   4.353   4.728   1.059 -0.1480 -0.2093  0.1582
 4860SOL    HW115400   4.333   4.638   1.097  1.3772  0.1818  2.0973
 4860SOL    HW215401   4.451   4.733   1.036  0.1595  1.4428  1.6647
 4861SOL     OW15402   0.755   6.974   6.746 -0.0125  0.4915  0.6117
 4861SOL    HW115403   0.781   6.976   6.649 -1.6547  0.9045  0.1619
 4861SOL    HW215404   0.815   7.036   6.797  0.1218  1.1472 -0.3267
 4862SOL     OW15405   0.835   2.535   3.658 -0.6573 -0.5742  0.3346
 4862SOL    HW115406   0.783   2.527   3.743 -1.8879  1.0254 -0.2300
 4862SOL    HW215407   0.820   2.453   3.603 -1.5992 -0.6716  0.7196
 4863SOL     OW15408   6.468   1.789   0.083 -0.2898 -0.2382  0.0485
 4863SOL    HW115409   6.376   1.754   0.100  0.1219 -0.5263  1.7909
 4863SOL    HW215410   6.535   1.717   0.098  0.2458 -0.1237 -1.5348
 4864SOL     OW15411   0.495   6.480   1.599 -0.1398  0.1782  0.0298
 4864SOL    HW115412   0.437   6.540   1.544 -0.0188 -1.4364 -1.9227
 4864SOL    HW215413   0.591   6.495   1.574  0.4747  2.7047  3.0945
 4865SOL     OW15414   5.798   1.187   4.611  0.5459  0.4508  0.0768
 4865SOL    HW115415   5.712   1.138   4.625  0.4745  0.2489 -1.0371
 4865SOL    HW215416   5.812   1.251   4.687 -0.6841  0.6406  0.1562
 4866SOL     OW15417   3.030   1.070   0.794 -0.2688 -0.3039  0.0829
 4866SOL    HW115418   3.043   1.066   0.694  0.5970 -1.2594  0.2176
 4866SOL    HW215419   3.107   1.025   0.839 -1.1260 -0.7208  1.1631
 4867SOL     OW15420   5.062   6.564   1.743  0.0302  0.3641  0.7556
 4867SOL    HW115421   4.965   6.545   1.756 -0.0596  0.2342 -0.0273
 4867SOL    HW215422   5.081   6.575   1.645  1.1111 -1.3675  0.7298
 4868SOL     OW15423   1.451   1.803   0.874 -0.9885  0.1001  0.3327
 4868SOL    HW115424   1.362   1.758   0.864 -1.2246  0.4160  0.9459
 4868SOL    HW215425   1.483   1.835   0.785 -1.0241 -0.8914 -0.0469
 4869SOL     OW15426   1.432   1.646   3.983  0.1150  0.2935 -0.1818
 4869SOL    HW115427   1.338   1.652   3.951 -0.4886 -0.4336  1.3578
 4869SOL    HW215428   1.453   1.551   4.008  1.5949  0.2527 -1.4538
 4870SOL     OW15429   4.086   5.238   6.408 -0.1051  0.7365 -0.0954
 4870SOL    HW115430   4.076   5.303   6.483  0.3239 -2.3118  2.8327
 4870SOL    HW215431   4.181   5.207   6.403 -0.7241 -1.3902  0.2441
 4871SOL     OW15432   0.994   6.448   6.648  0.1638 -0.2682  0.0034
 4871SOL    HW115433   0.994   6.486   6.555  0.1375  0.5199  0.3112
 4871SOL    HW215434   0.904   6.462   6.689  0.1152 -0.7893  0.0749
 4872SOL     OW15435   4.392   3.491   2.851  0.3981 -0.6584 -0.1830
 4872SOL    HW115436   4.357   3.425   2.784  3.6075 -0.1668 -2.5259
 4872SOL    HW215437   4.336   3.573   2.849 -0.8632 -1.4965 -0.6411
 4873SOL     OW15438   2.293   1.074   6.861 -0.3926  0.4773  0.3302
 4873SOL    HW115439   2.292   1.174   6.866  1.0870  0.5055  0.4739
 4873SOL    HW215440   2.325   1.045   6.771  1.8418  0.1826  1.1698
 4874SOL     OW15441   3.970   3.578   1.028 -0.4688 -0.2121  0.4691
 4874SOL    HW115442   3.896   3.531   1.076  0.0403 -0.0599  1.4349
 4874SOL    HW215443   3.933   3.659   0.982 -0.8229  0.2110  1.4474
 4875SOL     OW15444   4.327   6.045   2.308 -0.2603 -0.2533 -0.5053
 4875SOL    HW115445   4.245   6.101   2.323 -0.7867 -0.8643 -1.0254
 4875SOL    HW215446   4.408   6.101   2.324 -0.7645  0.2229  0.5637
 4876SOL     OW15447   2.827   0.673   5.941 -0.0242 -0.4769  0.1429
 4876SOL    HW115448   2.861   0.766   5.930 -0.9482 -0.1135  0.3169
 4876SOL    HW215449   2.791   0.662   6.034 -1.4990 -0.4788 -0.4137
 4877SOL     OW15450   0.997   1.286   1.491 -0.3438  0.5163 -0.2676
 4877SOL    HW115451   0.998   1.362   1.427 -0.8038  0.4841 -0.3128
 4877SOL    HW215452   1.079   1.289   1.548 -0.4565  1.1588 -0.1386
 4878SOL     OW15453   5.087   4.655   4.631 -0.4750  0.1889  0.1665
 4878SOL    HW115454   4.990   4.660   4.606 -0.0128 -0.5096 -1.9585
 4878SOL    HW215455   5.140   4.719   4.576  0.4109 -0.2295  0.5063
 4879SOL     OW15456   6.350   6.512   4.373  0.1814 -0.0073  0.3488
 4879SOL    HW115457   6.428   6.572   4.394 -0.4365  0.9024  0.0809
 4879SOL    HW215458   6.330   6.517   4.275 -0.5848  0.2316  0.5136
 4880SOL     OW15459   6.583   5.925   5.822 -0.2303 -0.4044 -0.7752
 4880SOL    HW115460   6.541   6.016   5.821  0.9274  0.2076  0.7894
 4880SOL    HW215461   6.593   5.895   5.917  0.7224 -1.5278 -1.2154
 4881SOL     OW15462   6.829   3.065   1.625  0.2944 -0.2236  0.2762
 4881SOL    HW115463   6.789   3.125   1.694  1.0188  0.7921 -0.1523
 4881SOL    HW215464   6.920   3.036   1.654  0.3388 -0.3248  0.0425
 4882SOL     OW15465   6.198   3.264   6.454 -0.0914 -0.1122  0.0092
 4882SOL    HW115466   6.268   3.324   6.493 -1.2007  2.3623 -1.5452
 4882SOL    HW215467   6.239   3.206   6.384  0.3547  2.0801 -1.6802
 4883SOL     OW15468   2.484   1.992   5.159  0.2086 -0.3319  0.4254
 4883SOL    HW115469   2.397   2.000   5.110 -0.1165 -1.3276  0.8064
 4883SOL    HW215470   2.488   2.062   5.230 -0.4065 -0.4176  0.5644
 4884SOL     OW15471   4.801   4.897   5.667  0.2856 -0.5877 -0.1766
 4884SOL    HW115472   4.844   4.856   5.747  0.6702  0.3276  0.0960
 4884SOL    HW215473   4.854   4.874   5.585  0.8227 -0.1764  0.0500
 4885SOL     OW15474   0.533   3.778   2.283  0.4801  0.4786  0.2583
 4885SOL    HW115475   0.457   3.721   2.252 -1.3097  1.4747  2.5647
 4885SOL    HW215476   0.593   3.724   2.342  0.9536  0.0275 -0.5987
 4886SOL     OW15477   6.745   2.967   4.085 -0.0945 -0.6469  1.1082
 4886SOL    HW115478   6.666   2.921   4.043 -0.3551  1.8170 -1.3408
 4886SOL    HW215479   6.805   2.898   4.125 -0.6361 -3.2047 -2.0021
 4887SOL     OW15480   1.887   0.520   4.480 -0.1868 -0.1180 -0.4381
 4887SOL    HW115481   1.836   0.457   4.421  1.1872 -1.5986 -0.0931
 4887SOL    HW215482   1.980   0.531   4.445  0.9829 -1.7916  1.9085
 4888SOL     OW15483   0.503   5.030   0.661 -0.2842 -0.0910 -0.3099
 4888SOL    HW115484   0.473   5.048   0.567 -3.1020 -0.9262  0.3693
 4888SOL    HW215485   0.540   5.115   0.701  0.1804  0.4740 -1.8533
 4889SOL     OW15486   0.979   6.781   1.951  0.1457 -0.6496 -0.2777
 4889SOL    HW115487   0.919   6.845   1.904  0.1918  0.2971  0.9110
 4889SOL    HW215488   0.945   6.765   2.044  2.0065  0.3696  0.6353
 4890SOL     OW15489   4.412   0.217   1.347 -0.1651  0.2862  0.0338
 4890SOL    HW115490   4.509   0.197   1.359  0.2441 -0.3754 -3.3271
 4890SOL    HW215491   4.361   0.131   1.345 -0.6965  0.5760  0.5714
 4891SOL     OW15492   3.865   1.097   6.718 -0.1745  0.1251 -0.1333
 4891SOL    HW115493   3.822   1.132   6.801  0.6003  1.0659 -0.1217
 4891SOL    HW215494   3.828   1.006   6.698 -1.1173  0.3200  0.6592
 4892SOL     OW15495   0.644   2.491   5.110 -0.2874 -0.6796 -0.1556
 4892SOL    HW115496   0.669   2.561   5.176 -2.0278 -0.3681  0.2293
 4892SOL    HW215497   0.636   2.403   5.156  0.4307 -0.8518 -0.3495
 4893SOL     OW15498   3.319   0.811   3.104 -0.3069 -1.0364 -0.1448
 4893SOL    HW115499   3.254   0.866   3.052 -0.9816 -0.3241  1.4041
 4893SOL    HW215500   3.405   0.862   3.116 -0.4197 -0.9023  0.0897
 4894SOL     OW15501   5.306   5.276   0.921  0.4770  0.0039 -0.1300
 4894SOL    HW115502   5.264   5.278   0.831 -0.2418 -1.3434  0.1522
 4894SOL    HW215503   5.237   5.296   0.991  0.8526  0.2707  0.1696
 4895SOL     OW15504   0.515   3.065   1.268 -0.0704  0.0389  0.2806
 4895SOL    HW115505   0.496   2.993   1.336  0.4036 -1.3184 -0.9689
 4895SOL    HW215506   0.564   3.025   1.191 -0.6293  1.5449 -0.8922
 4896SOL     OW15507   6.411   2.897   1.745  0.4521 -0.8529 -0.2114
 4896SOL    HW115508   6.426   2.904   1.844 -0.8256 -1.1192  0.0144
 4896SOL    HW215509   6.331   2.949   1.719  1.6225  0.4359 -1.3662
 4897SOL     OW15510   3.464   5.108   4.124  0.0356  0.5163  0.0845
 4897SOL    HW115511   3.546   5.157   4.153  0.4060  1.3631 -2.1745
 4897SOL    HW215512   3.450   5.121   4.026 -2.2402 -0.4724  0.2009
 4898SOL     OW15513   1.536   5.534   3.969  0.0389  0.5535 -0.0666
 4898SOL    HW115514   1.585   5.567   3.888 -1.5855 -0.7040 -1.6177
 4898SOL    HW215515   1.491   5.611   4.014  0.0914  1.1165 -0.9555
 4899SOL     OW15516   3.783   4.105   5.284  0.0764  0.1795 -0.2847
 4899SOL    HW115517   3.800   4.007   5.282 -0.1530 -0.0139  2.6011
 4899SOL    HW215518   3.685   4.122   5.287  0.0261  0.1336  3.5242
 4900SOL     OW15519   2.937   2.810   6.693  0.6505 -0.5176  0.3451
 4900SOL    HW115520   2.924   2.852   6.783 -0.7483  1.5531 -0.7241
 4900SOL    HW215521   3.027   2.835   6.657 -0.3665  2.4367 -0.5438
 4901SOL     OW15522   4.516   4.721   5.849 -0.1939 -0.4927 -0.4653
 4901SOL    HW115523   4.525   4.743   5.946  1.0684 -0.2101 -0.6272
 4901SOL    HW215524   4.521   4.805   5.795 -1.9754 -0.5190 -0.7405
 4902SOL     OW15525   1.280   4.085   2.523 -0.1995  0.1433  0.4357
 4902SOL    HW115526   1.254   4.105   2.428  0.1869 -0.4501  0.1920
 4902SOL    HW215527   1.205   4.110   2.584 -0.3786  0.7226 -0.0047
 4903SOL     OW15528   2.189   5.795   5.736 -0.4836 -1.3247  0.1962
 4903SOL    HW115529   2.124   5.727   5.771 -2.4445  0.8254  1.0130
 4903SOL    HW215530   2.206   5.864   5.805  0.2666 -0.1575 -1.1002
 4904SOL     OW15531   6.255   5.790   4.488 -0.0345  0.4151  0.1810
 4904SOL    HW115532   6.255   5.817   4.392  0.5615 -0.2808 -0.0328
 4904SOL    HW215533   6.163   5.767   4.517 -0.4181  1.8399  0.1428
 4905SOL     OW15534   1.329   6.364   2.627  0.2459  0.2228 -0.1015
 4905SOL    HW115535   1.414   6.402   2.592 -0.3334  0.2425 -1.5778
 4905SOL    HW215536   1.252   6.418   2.593 -0.4575 -0.9061 -0.3921
 4906SOL     OW15537   0.099   6.484   6.347 -0.2409 -0.2408  0.4752
 4906SOL    HW115538   0.154   6.507   6.428  0.0180 -1.2682  0.6078
 4906SOL    HW215539   0.074   6.387   6.350  0.8538 -0.6225 -1.3094
 4907SOL     OW15540   3.750   3.417   1.122 -0.0827  0.0512  0.2791
 4907SOL    HW115541   3.724   3.382   1.213 -0.5478 -1.7184 -0.4832
 4907SOL    HW215542   3.670   3.457   1.078 -0.4392 -1.2146 -0.2535
 4908SOL     OW15543   6.260   6.117   4.358  0.0506 -1.0168  0.0414
 4908SOL    HW115544   6.255   6.026   4.318  0.1807 -0.4340 -1.3464
 4908SOL    HW215545   6.169   6.147   4.385 -0.3669 -0.6067 -1.7348
 4909SOL     OW15546   3.145   2.494   0.561  0.0258 -0.1808 -0.3007
 4909SOL    HW115547   3.217   2.449   0.614 -0.5871 -1.0908 -0.2004
 4909SOL    HW215548   3.129   2.442   0.477  1.2957  1.4801 -1.6613
 4910SOL     OW15549   1.692   0.274   0.524  0.1582 -0.5898 -0.1966
 4910SOL    HW115550   1.607   0.248   0.570  0.6658 -1.6719  0.1390
 4910SOL    HW215551   1.669   0.316   0.435 -0.7023 -1.5811 -0.4658
 4911SOL     OW15552   0.349   6.286   5.472 -0.3397 -0.3312  0.4465
 4911SOL    HW115553   0.282   6.212   5.476  1.5114 -2.1004  0.4017
 4911SOL    HW215554   0.441   6.248   5.481  0.6995  1.9751  0.2488
 4912SOL     OW15555   3.572   1.816   5.786  0.0623 -0.1962  0.5538
 4912SOL    HW115556   3.642   1.754   5.752  0.6325  1.2207 -1.0121
 4912SOL    HW215557   3.483   1.770   5.784  0.8309 -1.8638  2.1452
 4913SOL     OW15558   0.134   4.035   0.288  0.7768 -0.0271  0.1087
 4913SOL    HW115559   0.209   3.970   0.282  1.0273  0.2216  0.5128
 4913SOL    HW215560   0.050   3.992   0.256  0.6728 -0.9883  1.5782
 4914SOL     OW15561   5.110   0.435   5.019 -0.0878 -0.5967 -0.3966
 4914SOL    HW115562   5.134   0.453   5.115 -0.2559  0.7203 -0.5725
 4914SOL    HW215563   5.011   0.424   5.011 -0.1693  0.1258 -0.5123
 4915SOL     OW15564   0.429   3.514   2.564 -0.3316  0.1660  0.3840
 4915SOL    HW115565   0.485   3.474   2.491 -0.7754  1.4961 -0.7531
 4915SOL    HW215566   0.338   3.535   2.528 -0.2932  1.6312  1.0541
 4916SOL     OW15567   2.204   4.455   2.484  0.0449 -0.3591 -0.6991
 4916SOL    HW115568   2.272   4.522   2.514  0.3843 -0.6074 -0.9148
 4916SOL    HW215569   2.199   4.381   2.551 -0.7243  0.1492 -0.1772
 4917SOL     OW15570   0.610   4.452   6.034 -0.0180 -0.0920  0.2716
 4917SOL    HW115571   0.609   4.538   6.086  0.4796  0.2774 -0.3236
 4917SOL    HW215572   0.529   4.448   5.976  1.2612  1.2524 -1.7301
 4918SOL     OW15573   0.743   0.359   6.345 -0.3608 -0.0416  0.3556
 4918SOL    HW115574   0.742   0.423   6.421  0.5752  3.0479 -2.0602
 4918SOL    HW215575   0.649   0.340   6.316 -0.6617 -0.0460  1.2996
 4919SOL     OW15576   6.596   0.092   4.966 -0.5248  0.4485 -0.4341
 4919SOL    HW115577   6.628   0.074   5.059  0.9597 -0.2616 -1.0383
 4919SOL    HW215578   6.587   0.191   4.953 -0.7064  0.5583  0.4480
 4920SOL     OW15579   2.834   3.569   5.836 -0.1092 -0.2329 -0.2394
 4920SOL    HW115580   2.874   3.660   5.826  1.4440 -1.0166 -1.5998
 4920SOL    HW215581   2.797   3.538   5.748 -1.2971 -0.6276  0.3786
 4921SOL     OW15582   3.732   5.797   2.517 -0.3548 -0.0199 -0.2086
 4921SOL    HW115583   3.697   5.705   2.498 -1.7571  0.3000  0.6601
 4921SOL    HW215584   3.815   5.791   2.571 -1.0684 -0.7950  0.8422
 4922SOL     OW15585   7.003   2.832   0.136  0.1949  0.4726 -0.4050
 4922SOL    HW115586   7.047   2.817   0.225 -0.5292  1.1372  0.0703
 4922SOL    HW215587   7.026   2.923   0.102  1.2303 -0.1425 -1.4000
 4923SOL     OW15588   4.196   6.320   0.495 -0.1036  0.4783 -0.5155
 4923SOL    HW115589   4.185   6.404   0.442 -1.4272  1.5841  1.3900
 4923SOL    HW215590   4.109   6.271   0.499  0.2328 -0.1066 -0.2376
 4924SOL     OW15591   7.008   0.305   6.781 -0.0399  0.0496  0.3209
 4924SOL    HW115592   7.036   0.223   6.831 -0.9723 -0.4389  0.0472
 4924SOL    HW215593   6.916   0.332   6.810 -0.5414 -0.1566 -1.0201
 4925SOL     OW15594   2.414   2.026   1.954 -0.1140 -0.2553  0.1241
 4925SOL    HW115595   2.482   2.041   2.025  0.8743 -0.7194 -0.6876
 4925SOL    HW215596   2.455   1.972   1.880 -1.3301 -0.4234 -0.4507
 4926SOL     OW15597   2.130   5.108   5.555 -0.0450  0.0287  0.2271
 4926SOL    HW115598   2.212   5.160   5.535 -0.8087  1.6215  1.0738
 4926SOL    HW215599   2.147   5.046   5.632  0.9797 -1.3538 -1.0374
 4927SOL     OW15600   5.391   2.282   2.634 -0.7937  0.4192 -0.3824
 4927SOL    HW115601   5.412   2.191   2.598 -0.6942  0.8771 -1.5222
 4927SOL    HW215602   5.396   2.280   2.734 -0.7400 -0.8077 -0.3926
 4928SOL     OW15603   1.952   3.550   4.476  0.2218 -0.1756  0.5239
 4928SOL    HW115604   2.037   3.603   4.470  0.5458 -0.7724 -0.1890
 4928SOL    HW215605   1.965   3.473   4.539  0.0204  0.0634  0.8678
 4929SOL     OW15606   4.335   5.417   5.482 -0.5870  0.2041  0.0779
 4929SOL    HW115607   4.246   5.426   5.438 -0.8512  1.2162  0.8093
 4929SOL    HW215608   4.323   5.382   5.575  0.0115 -2.5636 -0.7944
 4930SOL     OW15609   2.767   1.729   0.218  0.4226 -0.1075 -0.4633
 4930SOL    HW115610   2.674   1.761   0.233  1.1469  1.7433  0.3567
 4930SOL    HW215611   2.809   1.705   0.306 -0.2508 -4.0700 -1.0353
 4931SOL     OW15612   0.464   2.728   5.246  0.1603  0.3871 -0.4332
 4931SOL    HW115613   0.413   2.794   5.300  1.4069  1.0335  0.0167
 4931SOL    HW215614   0.405   2.651   5.223 -0.0588 -0.8255  3.4122
 4932SOL     OW15615   6.407   3.503   5.540  0.1317 -0.3390  0.1874
 4932SOL    HW115616   6.400   3.433   5.611 -0.1916  0.0008  0.4973
 4932SOL    HW215617   6.480   3.480   5.476 -1.1746 -1.9337 -0.7996
 4933SOL     OW15618   4.981   2.077   6.707  0.4713 -0.2195  0.1901
 4933SOL    HW115619   4.943   1.987   6.685  0.7371  0.2113 -2.3124
 4933SOL    HW215620   4.948   2.144   6.642  0.1639  1.5884  2.1008
 4934SOL     OW15621   5.418   5.042   4.711  0.1971 -0.5895 -0.3036
 4934SOL    HW115622   5.510   5.004   4.724 -0.6603 -2.5549  0.3516
 4934SOL    HW215623   5.379   5.066   4.801  0.1746  0.5503 -0.6036
 4935SOL     OW15624   6.146   0.198   4.644  0.1513 -0.5265  0.2959
 4935SOL    HW115625   6.125   0.138   4.722  1.6990 -3.8050 -1.5876
 4935SOL    HW215626   6.077   0.185   4.573  0.7137 -0.3705 -0.2849
 4936SOL     OW15627   3.158   3.807   0.199  0.4748  0.5228 -0.2219
 4936SOL    HW115628   3.212   3.879   0.156  0.1365  1.2664  0.5758
 4936SOL    HW215629   3.144   3.732   0.134  1.4728  0.8360 -0.8107
 4937SOL     OW15630   0.784   6.935   0.336  0.0332 -0.2892  0.0380
 4937SOL    HW115631   0.778   6.918   0.238  0.8124 -0.9419  0.0974
 4937SOL    HW215632   0.706   6.893   0.382 -1.2312  1.3952 -0.4548
 4938SOL     OW15633   0.497   4.926   2.388  0.2944 -0.3537 -0.7252
 4938SOL    HW115634   0.486   4.827   2.396  0.0014 -0.2661  0.0925
 4938SOL    HW215635   0.540   4.962   2.471 -0.6869  0.3496 -0.4988
 4939SOL     OW15636   4.497   2.050   0.688  0.2634 -0.3848 -0.0473
 4939SOL    HW115637   4.399   2.029   0.698  0.2050 -0.6493 -1.0634
 4939SOL    HW215638   4.544   1.970   0.650  0.7590 -0.0415 -0.1649
 4940SOL     OW15639   3.971   5.891   0.147 -0.1612  0.2802  0.2859
 4940SOL    HW115640   4.064   5.919   0.122 -0.2238  0.6351  0.4377
 4940SOL    HW215641   3.915   5.884   0.064  0.3492 -1.2591  0.0576
 4941SOL     OW15642   4.740   1.690   5.270 -0.1852 -0.0201 -0.2021
 4941SOL    HW115643   4.711   1.749   5.195 -1.4827  0.0729  0.3399
 4941SOL    HW215644   4.670   1.620   5.286  0.8911 -1.1197 -0.2114
 4942SOL     OW15645   6.249   6.823   3.257 -0.3068  0.2023  0.2110
 4942SOL    HW115646   6.261   6.823   3.157 -0.5423  1.7617  0.1508
 4942SOL    HW215647   6.236   6.729   3.289 -2.3917 -0.1992 -1.4782
 4943SOL     OW15648   3.918   0.164   5.839  0.2038 -0.2735 -0.4092
 4943SOL    HW115649   3.970   0.086   5.874  1.5815  0.8838  0.2497
 4943SOL    HW215650   3.930   0.242   5.901 -1.3408  0.4105 -0.9150
 4944SOL     OW15651   0.008   0.161   5.904  0.5209  0.5779 -0.0623
 4944SOL    HW115652   0.062   0.238   5.938 -1.0159  0.6357  2.4856
 4944SOL    HW215653  -0.079   0.157   5.952 -0.7788 -0.9260 -2.3641
 4945SOL     OW15654   1.655   3.673   1.715 -0.4526 -0.0014 -0.1663
 4945SOL    HW115655   1.658   3.660   1.616  0.1146 -1.6707  0.0370
 4945SOL    HW215656   1.733   3.728   1.744  1.4692 -2.4488 -0.3185
 4946SOL     OW15657   5.635   4.216   6.563 -0.4814 -0.0246 -0.6322
 4946SOL    HW115658   5.734   4.229   6.559 -0.7372  2.2335 -0.8005
 4946SOL    HW215659   5.607   4.197   6.657  0.0599 -0.1830 -0.5001
 4947SOL     OW15660   5.892   0.532   2.696 -0.6875  0.1838  0.2493
 4947SOL    HW115661   5.941   0.495   2.616 -0.9420  0.7344 -0.1659
 4947SOL    HW215662   5.888   0.462   2.767  0.4837  0.0321  0.2032
 4948SOL     OW15663   6.118   0.061   5.343  0.3544 -0.0118  0.2566
 4948SOL    HW115664   6.040   0.095   5.396  1.1491  1.2245  0.6969
 4948SOL    HW215665   6.138   0.125   5.269  1.4735  0.1712  0.6847
 4949SOL     OW15666   0.131   6.623   0.383 -0.1865 -0.3589  0.0748
 4949SOL    HW115667   0.192   6.679   0.439 -1.0498  1.8147 -1.0448
 4949SOL    HW215668   0.157   6.630   0.287 -1.3591 -0.4785 -0.2611
 4950SOL     OW15669   4.130   4.741   5.424 -0.4980  0.7314  0.0019
 4950SOL    HW115670   4.189   4.712   5.500 -0.3974 -0.8707 -0.6327
 4950SOL    HW215671   4.169   4.708   5.338 -2.0573  0.0557 -0.4737
 4951SOL     OW15672   2.014   5.631   5.321  0.5868  0.3569 -0.3286
 4951SOL    HW115673   2.050   5.595   5.407  2.9458  0.8841 -1.0226
 4951SOL    HW215674   1.968   5.718   5.338 -1.8891 -1.0682  0.8120
 4952SOL     OW15675   6.794   0.458   5.992  0.1086  0.2471  0.1526
 4952SOL    HW115676   6.782   0.446   5.893 -0.9988  1.5986  0.0904
 4952SOL    HW215677   6.717   0.510   6.029 -0.0812 -1.2185  1.9637
 4953SOL     OW15678   5.780   1.591   2.175  0.1323 -0.4793  0.2517
 4953SOL    HW115679   5.868   1.610   2.218  0.5024 -0.6303 -0.4228
 4953SOL    HW215680   5.731   1.522   2.229  0.7826 -1.0041  0.1776
 4954SOL     OW15681   6.909   5.417   0.724  0.6090  0.0666 -0.6034
 4954SOL    HW115682   6.987   5.443   0.781  0.4517 -1.0379  0.1616
 4954SOL    HW215683   6.938   5.406   0.629  1.2845  0.1404 -0.4099
 4955SOL     OW15684   6.102   4.694   3.184 -0.3772  0.3584 -0.4800
 4955SOL    HW115685   6.028   4.628   3.178 -0.6424  0.6912 -0.8874
 4955SOL    HW215686   6.076   4.768   3.246 -0.3094  0.3698 -0.4661
 4956SOL     OW15687   4.474   4.401   0.797  0.8605  0.1980 -0.4715
 4956SOL    HW115688   4.466   4.309   0.835  0.6821 -0.0432 -1.0676
 4956SOL    HW215689   4.511   4.395   0.704  0.2363  0.6785 -0.7581
 4957SOL     OW15690   0.394   3.895   0.347  0.2026 -0.2587  0.0240
 4957SOL    HW115691   0.472   3.936   0.301  1.9947 -0.4544  2.7382
 4957SOL    HW215692   0.395   3.796   0.332  1.6529 -0.5205  1.6074
 4958SOL     OW15693   5.844   2.275   1.810 -0.4520 -0.1389 -0.0791
 4958SOL    HW115694   5.835   2.208   1.737  0.6314 -0.4752  0.0605
 4958SOL    HW215695   5.907   2.348   1.781  1.3314 -1.1405  1.0576
 4959SOL     OW15696   3.612   2.719   0.609  0.0284 -0.2831  0.1627
 4959SOL    HW115697   3.681   2.691   0.542  1.3617  1.8700  0.5194
 4959SOL    HW215698   3.521   2.702   0.572  0.7259 -0.7159 -1.4652
 4960SOL     OW15699   1.410   3.958   7.012  0.2579 -0.0893  0.0707
 4960SOL    HW115700   1.345   3.936   7.085  0.3893 -0.4958  0.0399
 4960SOL    HW215701   1.374   3.925   6.925 -0.3275  1.1969 -0.2031
 4961SOL     OW15702   0.149   2.224   5.426  0.2995 -0.0292 -0.0785
 4961SOL    HW115703   0.095   2.141   5.441  0.4232  0.2694  2.5532
 4961SOL    HW215704   0.246   2.201   5.425  0.3390  0.0332  0.7326
 4962SOL     OW15705   1.081   3.016   2.883 -0.2553 -0.2647 -0.6907
 4962SOL    HW115706   1.124   3.096   2.926  0.0767 -0.9278  0.2241
 4962SOL    HW215707   1.029   2.965   2.952 -0.4055 -0.8771 -1.2558
 4963SOL     OW15708   1.602   4.520   1.958 -0.3104 -0.1475  0.2963
 4963SOL    HW115709   1.696   4.529   1.990 -0.7044  0.0234  1.4699
 4963SOL    HW215710   1.560   4.440   1.999 -0.7239 -0.1487 -0.1185
 4964SOL     OW15711   4.209   5.541   0.031 -0.4157  0.3556  0.1283
 4964SOL    HW115712   4.180   5.452  -0.004 -1.2542  0.7416 -0.1765
 4964SOL    HW215713   4.181   5.613  -0.033 -1.0570  0.9861  1.1078
 4965SOL     OW15714   1.506   5.438   2.142  0.3646 -0.0482 -0.5101
 4965SOL    HW115715   1.461   5.523   2.114 -0.5001 -0.9863 -2.1045
 4965SOL    HW215716   1.605   5.448   2.133  0.1832 -0.1522 -3.7285
 4966SOL     OW15717   5.926   7.016   0.395 -0.1464  0.3278  0.1649
 4966SOL    HW115718   5.874   6.930   0.400 -1.6195  1.2294  1.5358
 4966SOL    HW215719   6.024   6.996   0.398 -0.4474 -1.2935  1.1446
 4967SOL     OW15720   0.607   5.398   3.085  0.3116 -0.2462 -0.6401
 4967SOL    HW115721   0.649   5.379   2.997 -0.8651 -0.9435 -1.0789
 4967SOL    HW215722   0.673   5.444   3.144  2.2774 -2.7805 -0.6611
 4968SOL     OW15723   2.741   0.715   3.632  0.1668  0.1466 -0.1918
 4968SOL    HW115724   2.811   0.660   3.677 -0.5061 -1.7311 -1.3171
 4968SOL    HW215725   2.675   0.746   3.701 -0.1769 -1.6314  0.3333
 4969SOL     OW15726   6.865   5.489   0.156 -0.4643 -0.0959 -0.5838
 4969SOL    HW115727   6.945   5.545   0.141 -0.4159  0.0198  0.0581
 4969SOL    HW215728   6.784   5.547   0.165 -0.7841 -0.2684 -2.2686
 4970SOL     OW15729   3.457   1.239   3.603 -0.6038 -0.1569 -0.1956
 4970SOL    HW115730   3.395   1.182   3.550 -0.3473 -0.2178 -0.4308
 4970SOL    HW215731   3.405   1.293   3.669 -0.8299 -0.7644  0.1241
 4971SOL     OW15732   4.157   4.796   5.857 -0.1984  0.6651 -0.0172
 4971SOL    HW115733   4.120   4.845   5.936 -2.5788 -0.4413 -0.3210
 4971SOL    HW215734   4.091   4.725   5.829  2.0698 -1.1949 -0.9574
 4972SOL     OW15735   1.113   4.216   4.806 -0.1516 -0.2630 -0.0399
 4972SOL    HW115736   1.085   4.153   4.733  0.6754  0.3215 -0.8813
 4972SOL    HW215737   1.212   4.209   4.820 -0.1949  0.1725  0.5168
 4973SOL     OW15738   0.379   2.414   3.459  0.2098  0.3928 -0.6522
 4973SOL    HW115739   0.424   2.449   3.541  1.6090 -0.2099 -1.1282
 4973SOL    HW215740   0.400   2.317   3.449 -0.1629  0.4016 -1.5752
 4974SOL     OW15741   6.390   2.868   2.033 -0.1309 -0.2877 -0.0984
 4974SOL    HW115742   6.379   2.923   2.116 -0.3208  2.8345 -2.0022
 4974SOL    HW215743   6.300   2.836   2.003 -0.0673 -1.4001  0.8258
 4975SOL     OW15744   0.708   0.623   4.949  0.2676 -0.7434 -0.1097
 4975SOL    HW115745   0.735   0.716   4.972 -1.8504  0.2355 -1.2922
 4975SOL    HW215746   0.710   0.612   4.849 -3.2816 -0.6111 -0.3100
 4976SOL     OW15747   2.114   1.478   0.066 -0.1247 -0.1041 -0.3166
 4976SOL    HW115748   2.189   1.491   0.130 -0.0121 -1.2395 -0.1982
 4976SOL    HW215749   2.050   1.410   0.102 -1.0363  0.5982 -0.5717
 4977SOL     OW15750   5.850   0.507   1.940  0.4327  0.5712 -0.7509
 4977SOL    HW115751   5.880   0.419   1.902  1.0321  0.3307  0.2219
 4977SOL    HW215752   5.752   0.519   1.925  0.0342 -0.9921  0.4711
 4978SOL     OW15753   2.377   2.408   4.676  0.7584  0.1460  0.4287
 4978SOL    HW115754   2.429   2.398   4.591 -0.1989 -0.6844 -0.0886
 4978SOL    HW215755   2.378   2.321   4.726 -0.4260 -0.0021  0.2182
 4979SOL     OW15756   2.369   4.862   4.705  0.1983 -0.2547  0.1701
 4979SOL    HW115757   2.348   4.816   4.619 -1.3678  2.4148 -1.0116
 4979SOL    HW215758   2.467   4.855   4.723  0.9442  0.6457 -2.8859
 4980SOL     OW15759   5.223   0.262   2.086 -0.5476  0.0891 -0.0404
 4980SOL    HW115760   5.239   0.344   2.141 -0.2719  1.4709 -2.0457
 4980SOL    HW215761   5.127   0.237   2.090 -0.7571  0.8729  0.1365
 4981SOL     OW15762   3.319   5.218   4.877  0.2605 -0.3992 -0.7177
 4981SOL    HW115763   3.240   5.183   4.826 -0.1606 -0.7853  0.1791
 4981SOL    HW215764   3.390   5.246   4.812 -0.4898 -0.3199 -1.5278
 4982SOL     OW15765   2.065   1.983   0.328  0.1538 -0.2244 -0.0335
 4982SOL    HW115766   2.050   2.076   0.298 -1.1111 -0.3256  0.2519
 4982SOL    HW215767   2.134   1.939   0.270 -0.5439  0.3235 -1.2761
 4983SOL     OW15768   5.010   0.058   6.259 -0.1127  0.6678  0.7385
 4983SOL    HW115769   4.954   0.137   6.236 -1.0194  0.1806  1.2233
 4983SOL    HW215770   5.065   0.078   6.340  1.7774  1.7727 -0.7571
 4984SOL     OW15771   5.173   0.120   1.821  0.8271 -0.3700 -0.1863
 4984SOL    HW115772   5.170   0.182   1.900 -1.7873 -2.0569  1.1401
 4984SOL    HW215773   5.231   0.041   1.842  1.6448  0.0557 -0.7238
 4985SOL     OW15774   5.549   5.846   3.297 -0.0434 -0.4850 -0.4372
 4985SOL    HW115775   5.561   5.835   3.199 -0.1513 -0.1280 -0.4904
 4985SOL    HW215776   5.637   5.835   3.343  0.1777  0.3362 -0.6610
 4986SOL     OW15777   2.905   1.446   6.786  0.0570 -0.0137  0.1292
 4986SOL    HW115778   2.897   1.480   6.879  1.4073  2.6396 -0.6174
 4986SOL    HW215779   2.938   1.351   6.788  0.7621  0.2241  2.3202
 4987SOL     OW15780   3.666   6.746   0.544  0.1024  0.2510 -0.1096
 4987SOL    HW115781   3.649   6.829   0.490 -0.3862  0.4373  0.3242
 4987SOL    HW215782   3.654   6.766   0.641  1.1539 -0.0423  0.0977
 4988SOL     OW15783   5.725   1.780   3.006  0.9503  0.0977 -0.4900
 4988SOL    HW115784   5.798   1.778   3.075  1.5370  0.7719 -1.0738
 4988SOL    HW215785   5.750   1.844   2.933 -0.2283  0.3468 -0.6996
 4989SOL     OW15786   1.260   6.282   6.360 -0.3547 -0.5041  0.0638
 4989SOL    HW115787   1.247   6.183   6.357  1.7780 -0.7903 -2.3643
 4989SOL    HW215788   1.346   6.303   6.405 -0.3280  0.1832 -0.2958
 4990SOL     OW15789   4.259   5.754   0.423 -0.2229 -0.2744 -0.8744
 4990SOL    HW115790   4.160   5.745   0.417 -0.3252 -0.7534  0.9649
 4990SOL    HW215791   4.303   5.675   0.380 -0.7037 -0.9283 -0.2001
 4991SOL     OW15792   5.583   0.195   4.652  0.2539  0.2115 -0.0911
 4991SOL    HW115793   5.567   0.220   4.748  2.8564  0.3095  0.3785
 4991SOL    HW215794   5.566   0.097   4.640 -1.4667  0.4444  0.0802
 4992SOL     OW15795   0.676   1.882   4.227  0.1434 -0.2405  0.1248
 4992SOL    HW115796   0.716   1.962   4.273  1.8646 -0.7443 -0.3962
 4992SOL    HW215797   0.695   1.888   4.129  2.0329 -2.1656  0.2908
 4993SOL     OW15798   2.087   3.671   0.748 -0.4138  0.2012  0.8649
 4993SOL    HW115799   2.075   3.626   0.659  0.1710  1.3341  0.1901
 4993SOL    HW215800   2.014   3.738   0.762  0.2551  1.0015  0.6044
 4994SOL     OW15801   1.534   0.348   2.695  0.2716 -0.0560  0.7670
 4994SOL    HW115802   1.601   0.278   2.669 -0.6083 -0.7549  0.3337
 4994SOL    HW215803   1.581   0.423   2.743  1.2982 -0.7099  0.8154
 4995SOL     OW15804   3.140   6.664   5.665 -0.1620 -0.2187  0.2945
 4995SOL    HW115805   3.052   6.624   5.641 -0.4495  0.2125  0.6300
 4995SOL    HW215806   3.203   6.591   5.694 -0.2664 -0.5747 -0.3468
 4996SOL     OW15807   1.099   2.687   3.303 -0.5268  0.8377 -0.2115
 4996SOL    HW115808   1.014   2.649   3.266 -1.3580  0.9385  1.4431
 4996SOL    HW215809   1.097   2.681   3.403  1.8616  0.0039 -0.1614
 4997SOL     OW15810   6.530   5.088   2.752 -0.4093  0.4127  0.1831
 4997SOL    HW115811   6.503   5.000   2.711  0.3371  0.4690 -0.4724
 4997SOL    HW215812   6.452   5.151   2.749 -1.5893 -0.8107  2.4421
 4998SOL     OW15813   2.378   3.664   6.832 -0.0350 -0.5086  0.2483
 4998SOL    HW115814   2.462   3.615   6.856 -1.1599 -1.5044  2.4383
 4998SOL    HW215815   2.347   3.635   6.742  3.1581  1.6693 -1.8046
 4999SOL     OW15816   0.687   3.014   1.559 -0.4007  0.0898  0.5445
 4999SOL    HW115817   0.728   2.939   1.612  0.9173  1.4659  1.5266
 4999SOL    HW215818   0.591   3.025   1.585  0.0882  0.3886  2.2651
 5000SOL     OW15819   5.939   5.364   5.797 -0.2623 -0.3548 -0.5409
 5000SOL    HW115820   5.974   5.270   5.794  0.3310 -0.1821  0.4084
 5000SOL    HW215821   5.998   5.420   5.855 -0.6468  0.5975 -1.0342
 5001SOL     OW15822   5.720   6.423   1.917 -0.2979  0.1684 -1.1042
 5001SOL    HW115823   5.706   6.368   1.834 -0.7450 -1.2151 -0.1571
 5001SOL    HW215824   5.672   6.379   1.993 -0.7038  1.9296 -0.3086
 5002SOL     OW15825   2.591   4.414   5.063  0.2470 -0.5613 -0.0554
 5002SOL    HW115826   2.528   4.344   5.029 -0.2240 -0.4799  0.6261
 5002SOL    HW215827   2.553   4.456   5.145  1.6287 -1.1705  0.9289
 5003SOL     OW15828   0.100   2.266   4.408 -0.0016 -0.0318  0.0957
 5003SOL    HW115829   0.006   2.256   4.441  0.0173  0.7016  0.3738
 5003SOL    HW215830   0.163   2.250   4.484  0.0363  1.9986  0.5297
 5004SOL     OW15831   1.270   2.942   5.720 -0.0265  0.1678 -0.6731
 5004SOL    HW115832   1.268   2.876   5.795  2.0108 -0.8725 -1.4689
 5004SOL    HW215833   1.218   2.908   5.643 -0.7664  0.4974 -0.3297
 5005SOL     OW15834   5.020   0.859   3.484  0.1228  0.3950 -0.3492
 5005SOL    HW115835   5.071   0.943   3.463  2.0337 -0.5620  0.1956
 5005SOL    HW215836   5.012   0.850   3.583  0.5030 -0.3879 -0.3850
 5006SOL     OW15837   0.423   2.157   5.490  0.0864  0.6793 -0.2402
 5006SOL    HW115838   0.398   2.066   5.523  2.4454  0.0930  0.1061
 5006SOL    HW215839   0.457   2.212   5.567 -1.1120  1.8018 -0.4863
 5007SOL     OW15840   6.881   4.078   5.674 -0.8051 -0.3431  0.9854
 5007SOL    HW115841   6.968   4.124   5.653 -0.5489 -1.8949 -1.7479
 5007SOL    HW215842   6.805   4.136   5.643 -0.5987 -0.4770  0.2018
 5008SOL     OW15843   0.838   3.855   5.756  0.0776 -0.4167  0.1410
 5008SOL    HW115844   0.738   3.862   5.758  0.0888 -0.2625  2.2457
 5008SOL    HW215845   0.869   3.855   5.661 -1.8299  0.7982 -0.5532
 5009SOL     OW15846   6.788   0.434   6.866  0.1208 -0.2987 -0.1683
 5009SOL    HW115847   6.807   0.532   6.858 -0.0209 -0.3090 -0.6019
 5009SOL    HW215848   6.746   0.416   6.955 -1.8714  0.3487 -0.9439
 5010SOL     OW15849   6.075   4.963   3.766 -0.5861 -0.0046  0.7111
 5010SOL    HW115850   6.079   4.872   3.724 -0.2832 -0.0396  0.8176
 5010SOL    HW215851   6.162   4.984   3.811 -0.1574  0.8979 -0.4698
 5011SOL     OW15852   2.185   0.259   3.261 -0.2216  0.0405  0.0803
 5011SOL    HW115853   2.182   0.359   3.263 -0.5073  0.0371  1.9807
 5011SOL    HW215854   2.237   0.226   3.340  1.1887 -1.3051 -1.3545
 5012SOL     OW15855   2.233   2.359   0.099  0.1610 -0.1891 -0.2609
 5012SOL    HW115856   2.155   2.354   0.162  1.3671 -0.8755  1.2323
 5012SOL    HW215857   2.204   2.404   0.014 -1.5261  0.7353  0.7479
 5013SOL     OW15858   3.404   0.374   0.780  0.8721  0.1476  0.0486
 5013SOL    HW115859   3.424   0.378   0.682  1.0467  1.1622  0.1152
 5013SOL    HW215860   3.414   0.280   0.812 -2.3555 -0.9046 -1.5453
 5014SOL     OW15861   2.823   4.993   3.717 -0.2595 -0.3824 -0.2496
 5014SOL    HW115862   2.745   5.055   3.730  0.2657  0.3012 -0.3137
 5014SOL    HW215863   2.843   4.985   3.619  0.0051 -0.2390 -0.2076
 5015SOL     OW15864   6.478   6.445   2.509  0.6180  0.4222  0.0543
 5015SOL    HW115865   6.498   6.355   2.548 -1.9534 -0.0347  0.5184
 5015SOL    HW215866   6.425   6.433   2.425  1.5858  1.4985 -0.7219
 5016SOL     OW15867   1.991   4.855   6.574  0.0404 -0.1757 -0.0182
 5016SOL    HW115868   1.937   4.928   6.616 -1.9991 -2.0599  0.8842
 5016SOL    HW215869   1.940   4.818   6.496  1.6781  0.2420 -1.3191
 5017SOL     OW15870   1.549   3.923   1.803 -0.6426  0.4368  0.1405
 5017SOL    HW115871   1.581   3.915   1.898  0.3312 -0.6751 -0.2639
 5017SOL    HW215872   1.559   3.835   1.757 -2.8525  0.4500 -0.4896
 5018SOL     OW15873   6.828   3.228   2.811 -0.1220 -0.2551  0.2353
 5018SOL    HW115874   6.805   3.220   2.908  0.8111 -1.1470  0.4032
 5018SOL    HW215875   6.831   3.137   2.770  2.8593 -0.2635  0.2063
 5019SOL     OW15876   5.011   4.638   6.642 -0.4906  0.4994 -0.7329
 5019SOL    HW115877   4.999   4.604   6.735 -1.1016 -1.4143 -1.4427
 5019SOL    HW215878   5.063   4.571   6.589 -0.4532  1.3874 -1.8702
 5020SOL     OW15879   5.383   7.004   2.832 -0.1792  0.1626 -0.5575
 5020SOL    HW115880   5.351   7.058   2.754 -3.7387  0.3209  0.8413
 5020SOL    HW215881   5.339   7.037   2.916  2.1215 -1.2065  1.2968
 5021SOL     OW15882   3.484   1.527   6.645  0.1107  0.1101 -0.0256
 5021SOL    HW115883   3.558   1.546   6.709 -0.5602 -1.7379  1.3640
 5021SOL    HW215884   3.412   1.596   6.654 -0.0728 -0.2444  1.3943
 5022SOL     OW15885   3.952   3.776   5.751  0.2385  0.8820  0.1100
 5022SOL    HW115886   3.945   3.847   5.681 -1.0802  1.9503  1.2475
 5022SOL    HW215887   3.866   3.772   5.802  0.5393 -1.0658  0.5430
 5023SOL     OW15888   5.648   6.090   0.377  0.3132 -0.3735 -0.1042
 5023SOL    HW115889   5.724   6.092   0.312  0.0429  0.7907 -0.4020
 5023SOL    HW215890   5.680   6.056   0.465  1.3004  0.5252 -0.0998
 5024SOL     OW15891   6.409   0.487   1.784 -0.1735 -0.2185 -0.0449
 5024SOL    HW115892   6.431   0.421   1.856  0.2670 -0.3741 -0.3101
 5024SOL    HW215893   6.315   0.517   1.793 -0.2658 -0.5971  0.3139
 5025SOL     OW15894   3.893   4.583   6.472  0.1546 -0.4017  0.0479
 5025SOL    HW115895   3.877   4.588   6.374  0.8564  2.9716 -0.0475
 5025SOL    HW215896   3.927   4.672   6.505  0.9096 -1.6911  3.1928
 5026SOL     OW15897   5.106   0.863   1.519 -0.0991  0.5102  0.2448
 5026SOL    HW115898   5.150   0.952   1.510 -0.1526  0.6248  1.0675
 5026SOL    HW215899   5.176   0.792   1.528 -0.0643  0.6156  0.8631
 5027SOL     OW15900   2.781   2.235   4.799 -0.2847 -0.1416  0.7390
 5027SOL    HW115901   2.738   2.176   4.730  0.1944  2.8014 -2.3572
 5027SOL    HW215902   2.871   2.198   4.823  0.0925 -0.6451 -1.2621
 5028SOL     OW15903   3.714   5.386   1.404  0.0347 -0.4810 -0.3389
 5028SOL    HW115904   3.807   5.419   1.385  0.0781 -0.6134 -0.3660
 5028SOL    HW215905   3.712   5.287   1.396 -0.2764 -0.4192 -1.0099
 5029SOL     OW15906   4.326   3.448   5.741 -0.4337  0.2768 -0.6137
 5029SOL    HW115907   4.396   3.405   5.684  0.0202 -0.2627  0.3230
 5029SOL    HW215908   4.363   3.530   5.784 -0.0369 -0.5326  0.6428
 5030SOL     OW15909   2.440   3.991   1.613  0.5969  0.8522 -0.5182
 5030SOL    HW115910   2.468   4.085   1.634  2.9964  0.2816 -0.9615
 5030SOL    HW215911   2.493   3.957   1.536 -0.2733 -0.8690 -0.3857
 5031SOL     OW15912   4.298   2.482   2.748  0.4911 -0.1646  0.1043
 5031SOL    HW115913   4.348   2.411   2.698  1.2905  1.0914 -0.9295
 5031SOL    HW215914   4.354   2.564   2.754 -1.3520  1.2682 -1.0166
 5032SOL     OW15915   6.130   6.483   6.705 -0.2739  0.6362 -0.6555
 5032SOL    HW115916   6.100   6.388   6.715  1.0047  0.2405 -0.3827
 5032SOL    HW215917   6.182   6.493   6.620  0.6390  0.8106 -0.0879
 5033SOL     OW15918   6.571   2.243   3.989  0.3064  0.3462  0.0192
 5033SOL    HW115919   6.490   2.269   4.043 -0.2243 -0.3962 -0.3942
 5033SOL    HW215920   6.592   2.316   3.924  0.0825  0.6272  0.2531
 5034SOL     OW15921   3.619   5.093   0.328  0.0679 -0.0324  1.0620
 5034SOL    HW115922   3.634   5.186   0.361 -1.6741  1.0307 -0.8897
 5034SOL    HW215923   3.543   5.052   0.378  0.7178 -0.3589  1.7984
 5035SOL     OW15924   5.396   5.316   6.839  0.4462 -0.8833 -0.4911
 5035SOL    HW115925   5.363   5.252   6.908 -1.9337  0.3218 -0.3720
 5035SOL    HW215926   5.394   5.272   6.749  1.6775 -1.8520 -0.0648
 5036SOL     OW15927   4.587   6.397   3.576  0.3532  0.2891  0.4099
 5036SOL    HW115928   4.591   6.356   3.667 -1.1444 -2.1304 -0.5392
 5036SOL    HW215929   4.507   6.456   3.570 -0.4453 -0.7732  0.2419
 5037SOL     OW15930   4.860   6.585   3.261  0.2087  0.0363  0.0268
 5037SOL    HW115931   4.923   6.598   3.185  2.5764  2.4595  2.1667
 5037SOL    HW215932   4.771   6.625   3.238  0.0964 -1.3528 -2.2057
 5038SOL     OW15933   6.057   1.204   4.250  0.3509  0.0387  0.6861
 5038SOL    HW115934   6.056   1.151   4.335 -1.2555 -0.9115  0.1092
 5038SOL    HW215935   6.151   1.230   4.228  0.9156 -0.6273  2.1723
 5039SOL     OW15936   1.649   6.608   2.706 -0.1416 -0.3834 -0.0733
 5039SOL    HW115937   1.625   6.603   2.803 -0.7814 -1.5424 -0.2853
 5039SOL    HW215938   1.714   6.536   2.684  0.8103  0.5113 -0.2980
 5040SOL     OW15939   5.498   5.699   5.553 -0.0016  0.7980 -0.4130
 5040SOL    HW115940   5.471   5.724   5.646  0.0447 -0.4331 -0.0546
 5040SOL    HW215941   5.499   5.600   5.543  0.7120  0.8867 -1.5226
 5041SOL     OW15942   6.874   5.014   4.309  0.5338  0.0622 -0.3362
 5041SOL    HW115943   6.917   4.992   4.396  0.6779  2.2994  0.2156
 5041SOL    HW215944   6.923   4.969   4.235  1.8045 -0.0557  0.5526
 5042SOL     OW15945   0.562   6.467   4.064 -0.2868 -0.4035 -0.5703
 5042SOL    HW115946   0.608   6.392   4.016  0.6478 -1.2002  1.4454
 5042SOL    HW215947   0.624   6.508   4.131 -0.6835  2.4346 -1.8104
 5043SOL     OW15948   5.841   2.138   5.643 -0.0631  0.6609  0.3291
 5043SOL    HW115949   5.852   2.094   5.553  0.6125 -0.6029  0.9879
 5043SOL    HW215950   5.773   2.088   5.696 -0.3908  1.3483  0.5583
 5044SOL     OW15951   4.461   2.690   3.685 -0.3455  0.1222  0.0166
 5044SOL    HW115952   4.388   2.698   3.618 -2.7117 -0.1881  2.4232
 5044SOL    HW215953   4.448   2.607   3.740  1.3713  0.4720  1.0286
 5045SOL     OW15954   3.810   5.908   1.362  0.5770  0.1323 -0.2788
 5045SOL    HW115955   3.781   5.865   1.448 -0.4290 -2.3267 -1.7208
 5045SOL    HW215956   3.849   5.838   1.302 -0.3907  1.3980 -2.5000
 5046SOL     OW15957   4.270   4.684   1.966 -0.1346  0.1924 -0.0823
 5046SOL    HW115958   4.263   4.612   1.897 -0.8692 -2.1998  2.2924
 5046SOL    HW215959   4.178   4.706   2.000  0.0132  2.8415 -1.2671
 5047SOL     OW15960   3.416   6.322   5.600  0.5391  0.4626  0.3721
 5047SOL    HW115961   3.380   6.374   5.522 -2.5382  1.4679  2.2414
 5047SOL    HW215962   3.376   6.231   5.601  0.4537  0.4984  0.7798
 5048SOL     OW15963   2.813   0.071   3.982  0.1784 -0.1836 -0.3082
 5048SOL    HW115964   2.870   0.142   3.939 -0.0843 -0.5298 -1.2724
 5048SOL    HW215965   2.866  -0.012   3.994  0.5127  0.1793  0.9091
 5049SOL     OW15966   2.657   2.100   0.696  0.4438  0.3868 -0.1677
 5049SOL    HW115967   2.733   2.162   0.717  0.4957  0.6529 -1.1005
 5049SOL    HW215968   2.683   2.006   0.719  0.7897  0.5667  0.1867
 5050SOL     OW15969   0.862   4.775   6.594  0.4919 -0.4243  0.1976
 5050SOL    HW115970   0.923   4.722   6.654 -1.4976  0.4944  3.2826
 5050SOL    HW215971   0.778   4.723   6.578  0.1669  0.1827 -0.0860
 5051SOL     OW15972   2.280   1.383   1.454  0.7189  0.2932  0.3505
 5051SOL    HW115973   2.321   1.471   1.477  0.8412 -0.2730  2.4300
 5051SOL    HW215974   2.180   1.390   1.458  0.7117  0.5219 -0.2186
 5052SOL     OW15975   2.483   0.261   0.217 -0.0780 -0.3392 -0.1437
 5052SOL    HW115976   2.556   0.244   0.151 -0.4757 -1.1501 -0.3798
 5052SOL    HW215977   2.429   0.339   0.187 -0.3381 -0.7840 -0.8462
 5053SOL     OW15978   2.635   6.737   0.537  0.6086  0.6489 -0.0283
 5053SOL    HW115979   2.636   6.695   0.628  1.6308  2.7775  1.0357
 5053SOL    HW215980   2.637   6.666   0.467  1.4487 -1.0507  1.6164
 5054SOL     OW15981   2.415   2.275   5.736  0.0663  0.2484 -0.4581
 5054SOL    HW115982   2.331   2.328   5.725  0.4927  0.8732 -0.7594
 5054SOL    HW215983   2.412   2.196   5.675 -1.0490 -0.7027  0.7834
 5055SOL     OW15984   4.691   3.223   5.711  0.2585 -0.0045 -0.5150
 5055SOL    HW115985   4.785   3.201   5.684 -0.1455 -0.8247 -1.3041
 5055SOL    HW215986   4.690   3.249   5.808  1.2938  0.0385 -0.4938
 5056SOL     OW15987   3.523   4.922   1.408 -0.3567  0.7845  0.5646
 5056SOL    HW115988   3.582   4.842   1.417 -0.4659  0.6177 -0.1558
 5056SOL    HW215989   3.433   4.893   1.375 -0.6093  1.1222  0.9543
 5057SOL     OW15990   5.438   3.672   4.502  0.2885  0.6725  0.0410
 5057SOL    HW115991   5.351   3.722   4.508 -1.5451 -2.1994 -0.5474
 5057SOL    HW215992   5.447   3.631   4.412  1.3675 -0.5686  0.6754
 5058SOL     OW15993   3.195   1.682   2.076 -0.7284 -0.2565 -0.5892
 5058SOL    HW115994   3.267   1.725   2.022  0.8778 -1.8645  0.1805
 5058SOL    HW215995   3.139   1.753   2.118  0.4084  1.0635 -1.2164
 5059SOL     OW15996   5.402   5.386   0.468  0.1001 -0.7635  0.2858
 5059SOL    HW115997   5.384   5.449   0.392  0.3509 -1.3236 -0.2551
 5059SOL    HW215998   5.443   5.302   0.432 -0.7310 -1.4675  0.9348
 5060SOL     OW15999   1.357   3.842   2.649 -0.1412  0.1783  0.1592
 5060SOL    HW116000   1.336   3.928   2.604 -1.0219  0.2803  0.7509
 5060SOL    HW216001   1.278   3.780   2.643  0.2822 -0.3850  0.2138
 5061SOL     OW16002   5.142   0.192   1.063 -0.6013 -0.2149  0.1950
 5061SOL    HW116003   5.145   0.261   0.991 -0.7188  0.3007  0.6782
 5061SOL    HW216004   5.212   0.211   1.131  0.4418 -1.4932 -0.4804
 5062SOL     OW16005   5.497   3.909   6.615  0.1171  0.2291  0.2402
 5062SOL    HW116006   5.481   3.828   6.558  1.0774  0.9293 -1.0953
 5062SOL    HW216007   5.449   3.899   6.701  1.4972 -2.5172  0.8178
 5063SOL     OW16008   2.982   2.533   1.458 -0.3329  0.3775  0.1508
 5063SOL    HW116009   2.976   2.519   1.359  2.2877 -0.8368  0.0926
 5063SOL    HW216010   3.074   2.509   1.490 -1.1012  0.7600  2.9039
 5064SOL     OW16011   5.471   2.925   1.318 -0.1189 -0.1654 -0.3868
 5064SOL    HW116012   5.394   2.950   1.259  0.6160  1.4730 -0.7247
 5064SOL    HW216013   5.552   2.977   1.290  1.3653 -2.4657 -0.5981
 5065SOL     OW16014   5.931   4.601   5.497 -0.5665 -0.3702 -0.3525
 5065SOL    HW116015   5.956   4.512   5.535  0.4256  0.4229  0.9595
 5065SOL    HW216016   5.995   4.626   5.425  0.8375  0.4503  1.1264
 5066SOL     OW16017   4.956   1.555   2.548  0.3412  0.0130 -0.0178
 5066SOL    HW116018   4.967   1.644   2.594  0.7236 -0.0298 -0.0229
 5066SOL    HW216019   4.891   1.565   2.472 -0.7361 -0.0339  0.8604
 5067SOL     OW16020   0.145   5.541   6.908 -0.1850 -0.1610 -0.1626
 5067SOL    HW116021   0.111   5.557   7.001 -1.2916 -0.8439 -0.4406
 5067SOL    HW216022   0.187   5.450   6.903  2.1231  0.8144  0.2856
 5068SOL     OW16023   1.147   0.880   5.341  0.0931  0.8007  0.4102
 5068SOL    HW116024   1.099   0.875   5.254 -0.4630  0.9299  0.6949
 5068SOL    HW216025   1.133   0.971   5.381  0.9291  0.9765  0.3028
 5069SOL     OW16026   4.572   0.021   5.971 -0.1991 -0.0797  0.3341
 5069SOL    HW116027   4.517   0.068   6.039 -1.8461 -0.4884 -0.6487
 5069SOL    HW216028   4.661   0.067   5.961 -1.6137  2.7002 -0.4373
 5070SOL     OW16029   1.762   6.631   1.724 -0.2718  0.0102 -0.3665
 5070SOL    HW116030   1.765   6.570   1.803  2.3822  2.1495  1.3945
 5070SOL    HW216031   1.741   6.724   1.754 -1.0802  0.5645 -2.4745
 5071SOL     OW16032   5.400   5.449   5.721 -0.8327  0.5848 -0.1634
 5071SOL    HW116033   5.428   5.405   5.636  1.2235 -0.0905  0.8043
 5071SOL    HW216034   5.306   5.484   5.712 -0.1606  1.8690 -3.1970
 5072SOL     OW16035   5.155   5.552   6.467 -0.1060  0.1355  0.5179
 5072SOL    HW116036   5.139   5.525   6.562 -0.6891  0.4551  0.5164
 5072SOL    HW216037   5.070   5.585   6.427  0.2748  0.6103  0.0835
 5073SOL     OW16038   3.275   1.371   3.795 -0.3607 -0.4391 -0.4087
 5073SOL    HW116039   3.289   1.405   3.888  0.7574 -0.2818 -0.6229
 5073SOL    HW216040   3.212   1.294   3.797  0.5875 -1.2435  0.6551
 5074SOL     OW16041   4.513   1.047   0.899 -0.0688  0.0060  0.1297
 5074SOL    HW116042   4.524   1.067   0.802 -1.4578 -0.0103 -0.0420
 5074SOL    HW216043   4.575   0.972   0.925 -0.5447 -0.8131 -1.0231
 5075SOL     OW16044   4.432   4.962   6.409 -0.1288 -0.1481  0.0986
 5075SOL    HW116045   4.387   5.049   6.426 -1.3484 -0.9272  1.0538
 5075SOL    HW216046   4.475   4.929   6.494  0.1502 -0.5560 -0.1949
 5076SOL     OW16047   2.633   0.025   5.591 -0.1519 -0.0595  0.3497
 5076SOL    HW116048   2.693   0.102   5.568 -0.5540  0.5538  1.2982
 5076SOL    HW216049   2.681  -0.061   5.572  1.2106  0.4335  1.4166
 5077SOL     OW16050   3.936   6.901   5.956  0.4557  0.7696  0.5095
 5077SOL    HW116051   3.991   6.839   6.012  0.7813 -0.3532 -0.9838
 5077SOL    HW216052   3.848   6.859   5.935  1.1445  0.2279 -1.5164
 5078SOL     OW16053   0.570   2.155   0.538 -0.4144 -0.0103  0.0263
 5078SOL    HW116054   0.530   2.098   0.611 -0.3081 -0.4498 -0.2501
 5078SOL    HW216055   0.566   2.104   0.452  0.9955 -0.1878  0.0513
 5079SOL     OW16056   6.422   3.198   0.507  0.1721 -0.0456 -0.3715
 5079SOL    HW116057   6.389   3.289   0.480  0.4516  0.1321 -0.1294
 5079SOL    HW216058   6.345   3.142   0.536  0.1623  0.6078  0.9010
 5080SOL     OW16059   0.577   2.220   5.230  0.0059 -0.5030  0.4891
 5080SOL    HW116060   0.539   2.197   5.140 -0.3066 -2.2043  0.9997
 5080SOL    HW216061   0.502   2.241   5.293  0.0176 -1.7813  0.9615
 5081SOL     OW16062   3.261   3.851   0.738  0.0862 -1.1485 -0.9268
 5081SOL    HW116063   3.217   3.852   0.649  0.4457 -0.3661 -1.1080
 5081SOL    HW216064   3.263   3.758   0.774 -1.9151 -1.2070 -0.8166
 5082SOL     OW16065   1.336   0.736   2.909 -0.1169  0.5573 -0.2666
 5082SOL    HW116066   1.431   0.756   2.885 -0.1164 -0.0691 -0.8121
 5082SOL    HW216067   1.334   0.683   2.994  0.0808 -0.1544 -0.6915
 5083SOL     OW16068   3.848   1.877   5.020  0.1119  0.1723  0.9922
 5083SOL    HW116069   3.870   1.954   4.960 -0.0503 -1.1794 -0.8822
 5083SOL    HW216070   3.810   1.911   5.106 -2.0042  2.1276 -0.6234
 5084SOL     OW16071   0.300   4.628   5.537  0.7762 -0.0145 -0.0141
 5084SOL    HW116072   0.378   4.588   5.488  1.2116  0.9714 -0.1590
 5084SOL    HW216073   0.332   4.698   5.600 -0.0235  0.6534 -0.3215
 5085SOL     OW16074   1.677   3.041   0.282 -0.5877  0.0574 -0.2684
 5085SOL    HW116075   1.640   3.097   0.356  0.9396 -0.5052  0.9891
 5085SOL    HW216076   1.644   2.947   0.292 -0.8357  0.1035 -0.6458
 5086SOL     OW16077   3.236   3.242   4.006  0.0468  0.3212  0.2845
 5086SOL    HW116078   3.281   3.326   3.975  3.4336 -1.8112 -1.1192
 5086SOL    HW216079   3.266   3.220   4.098 -0.1614  0.1846  0.3213
 5087SOL     OW16080   1.716   2.823   6.132  0.1067  0.1192  0.2864
 5087SOL    HW116081   1.802   2.774   6.119  0.5032  0.7513  0.4746
 5087SOL    HW216082   1.642   2.773   6.088  0.8863  0.6029 -1.7147
 5088SOL     OW16083   0.480   2.462   5.971 -0.2836 -0.1220  0.2626
 5088SOL    HW116084   0.478   2.437   5.875 -0.4260 -0.3041  0.3124
 5088SOL    HW216085   0.401   2.422   6.018  0.6732 -1.4996  0.8136
 5089SOL     OW16086   0.739   2.519   1.146  0.3383  0.0505 -0.3564
 5089SOL    HW116087   0.643   2.504   1.124  0.5041  0.2982 -1.3094
 5089SOL    HW216088   0.786   2.431   1.153  0.0787 -0.0654 -0.0547
 5090SOL     OW16089   2.860   6.151   5.666  0.6674  0.4393 -0.3479
 5090SOL    HW116090   2.802   6.113   5.594  2.0961  0.5256 -1.6019
 5090SOL    HW216091   2.944   6.188   5.625  1.8364 -0.1095  1.4209
 5091SOL     OW16092   1.349   6.766   5.349  0.1448  0.4026  0.5581
 5091SOL    HW116093   1.312   6.836   5.409 -1.4100 -0.9191  1.2229
 5091SOL    HW216094   1.313   6.676   5.375  0.7556 -0.4487 -1.2942
 5092SOL     OW16095   5.626   0.685   1.850  0.6480  0.1882 -0.1747
 5092SOL    HW116096   5.709   0.655   1.802 -0.1250 -0.9797 -0.8593
 5092SOL    HW216097   5.645   0.768   1.901  3.0103 -1.4513  1.8403
 5093SOL     OW16098   0.807   3.556   4.216 -0.6050 -0.3365 -0.2645
 5093SOL    HW116099   0.767   3.561   4.125 -0.4131 -2.0140 -0.4904
 5093SOL    HW216100   0.734   3.544   4.283 -0.7100  0.3670 -0.2435
 5094SOL     OW16101   6.221   4.044   4.563 -0.8566 -0.0070  0.0113
 5094SOL    HW116102   6.133   4.044   4.514 -1.1498 -0.0576  0.5316
 5094SOL    HW216103   6.205   4.055   4.661 -0.2846 -0.1109  0.1219
 5095SOL     OW16104   5.832   4.432   6.594  0.1692 -0.8353  0.3263
 5095SOL    HW116105   5.931   4.420   6.606  0.4988  0.1324 -1.1166
 5095SOL    HW216106   5.814   4.520   6.550 -1.4435 -0.4134  1.7347
 5096SOL     OW16107   4.155   2.170   5.171 -0.3533  0.2117 -0.3106
 5096SOL    HW116108   4.166   2.089   5.228 -0.0655  0.3361 -0.1835
 5096SOL    HW216109   4.060   2.201   5.174 -0.1381  0.8452  0.9793
 5097SOL     OW16110   5.337   1.360   1.940  0.7310  0.1587  0.1612
 5097SOL    HW116111   5.332   1.435   2.006  2.0070  0.1218  0.3223
 5097SOL    HW216112   5.367   1.277   1.987 -0.7419 -0.5065  0.0132
 5098SOL     OW16113   1.117   1.556   0.590 -0.2725 -0.2963  0.4539
 5098SOL    HW116114   1.083   1.556   0.684 -3.2989 -1.3940 -0.5357
 5098SOL    HW216115   1.132   1.462   0.559  1.4318  0.0743 -0.0008
 5099SOL     OW16116   3.999   4.885   1.931 -0.1927  0.1975  0.0198
 5099SOL    HW116117   4.069   4.932   1.876  0.3201 -1.3411 -0.7031
 5099SOL    HW216118   3.911   4.931   1.919  0.3518  1.1898 -0.3371
 5100SOL     OW16119   7.021   1.981   5.426  0.1942  0.0335 -0.0691
 5100SOL    HW116120   6.944   1.986   5.362  1.1109 -0.1136 -1.1896
 5100SOL    HW216121   7.077   1.901   5.404  1.1628  0.6339  0.1434
 5101SOL     OW16122   5.865   0.375   1.037 -0.3591 -0.4117 -0.5660
 5101SOL    HW116123   5.951   0.399   1.083 -0.3106 -1.0523 -0.3144
 5101SOL    HW216124   5.879   0.376   0.938 -0.1848 -0.0652 -0.5441
 5102SOL     OW16125   3.970   0.859   6.179 -0.1144  0.4025  0.0090
 5102SOL    HW116126   4.002   0.765   6.189 -0.7569  0.2887  1.4164
 5102SOL    HW216127   4.014   0.917   6.247  1.6314  1.5260 -1.9946
 5103SOL     OW16128   0.570   1.491   3.671  0.4155 -0.3980 -0.1224
 5103SOL    HW116129   0.484   1.490   3.723 -0.9755 -1.3556 -2.3282
 5103SOL    HW216130   0.553   1.531   3.581  1.9897 -1.8219 -1.0856
 5104SOL     OW16131   5.891   6.606   5.211  0.9348  0.4890  0.7350
 5104SOL    HW116132   5.941   6.624   5.126  0.2147  1.5179  0.5085
 5104SOL    HW216133   5.910   6.678   5.277 -2.0444  2.3470 -0.2080
 5105SOL     OW16134   4.447   5.574   4.281  0.1647 -0.0517  0.2146
 5105SOL    HW116135   4.466   5.623   4.366  3.0664  0.3952 -0.6036
 5105SOL    HW216136   4.445   5.476   4.298 -1.8221  0.0837  1.1663
 5106SOL     OW16137   4.447   0.719   4.570  0.4391  0.3439  0.5790
 5106SOL    HW116138   4.440   0.666   4.654  1.9560 -2.4397 -0.9428
 5106SOL    HW216139   4.420   0.663   4.492  0.0739  2.5127 -0.9574
 5107SOL     OW16140   2.680   4.176   6.534  0.3348  1.2489 -0.1370
 5107SOL    HW116141   2.680   4.199   6.632  0.8678  1.7615 -0.2528
 5107SOL    HW216142   2.604   4.113   6.515  1.1771 -0.1526  0.9193
 5108SOL     OW16143   6.216   5.389   0.056  0.2976  0.1018 -0.1419
 5108SOL    HW116144   6.178   5.299   0.081 -0.7412  0.7852  0.9412
 5108SOL    HW216145   6.244   5.389  -0.040  0.2492 -1.3567 -0.1429
 5109SOL     OW16146   2.339   2.612   1.027  0.3084  0.4786  0.1217
 5109SOL    HW116147   2.393   2.651   1.102  1.4357  1.2808 -1.0598
 5109SOL    HW216148   2.357   2.514   1.021  2.6721  0.9204 -1.0156
 5110SOL     OW16149   5.466   2.164   6.269  0.1626  0.1539  0.4311
 5110SOL    HW116150   5.388   2.226   6.257  0.2113  0.0271 -0.6980
 5110SOL    HW216151   5.467   2.130   6.363 -0.7647  0.6594  0.6470
 5111SOL     OW16152   4.644   3.061   0.401 -0.2520 -0.5749  0.0276
 5111SOL    HW116153   4.624   3.054   0.303  2.2005 -0.8638 -0.5028
 5111SOL    HW216154   4.704   3.139   0.418 -0.1816 -0.8700  1.2268
 5112SOL     OW16155   0.417   3.489   4.007 -0.2547 -0.1328 -0.3342
 5112SOL    HW116156   0.320   3.483   4.033  0.1352  0.9575  1.5822
 5112SOL    HW216157   0.436   3.582   3.976 -0.1503 -0.7853 -2.3546
 5113SOL     OW16158   0.592   3.728   1.259  0.4251  0.1092  0.4694
 5113SOL    HW116159   0.666   3.718   1.326  1.3053  1.8371 -0.1736
 5113SOL    HW216160   0.622   3.789   1.185 -1.0118 -0.6297 -0.7808
 5114SOL     OW16161   5.205   6.738   5.796  0.1445 -0.0753 -0.2834
 5114SOL    HW116162   5.138   6.756   5.725 -0.4876  0.1129  0.3490
 5114SOL    HW216163   5.180   6.789   5.879  0.7272 -0.4889  0.1527
 5115SOL     OW16164   4.137   0.658   5.091  0.0450  0.5560  0.3949
 5115SOL    HW116165   4.085   0.697   5.014 -1.3895 -2.2153 -0.1705
 5115SOL    HW216166   4.235   0.672   5.075 -0.2501  0.6929 -1.5911
 5116SOL     OW16167   2.195   5.902   1.422 -0.0038 -0.5023 -0.3377
 5116SOL    HW116168   2.276   5.860   1.464 -0.3594 -2.7543 -1.7452
 5116SOL    HW216169   2.223   5.970   1.355  0.6571 -0.2209  0.2094
 5117SOL     OW16170   4.451   1.608   1.910 -0.1872 -0.1405  0.6316
 5117SOL    HW116171   4.463   1.595   1.811 -0.7084  2.1071  0.2238
 5117SOL    HW216172   4.365   1.657   1.927 -0.1570 -0.5918  2.2394
 5118SOL     OW16173   2.747   1.166   3.611 -0.0126  0.2949 -0.2827
 5118SOL    HW116174   2.662   1.137   3.568 -1.8105  4.0088  0.3784
 5118SOL    HW216175   2.783   1.091   3.668 -2.3794 -1.6360 -1.1660
 5119SOL     OW16176   6.699   2.912   0.055  0.4940  0.0183  0.9663
 5119SOL    HW116177   6.783   2.873   0.090  1.6213  2.4941  1.1772
 5119SOL    HW216178   6.691   3.008   0.083 -1.2704  0.5137 -0.9144
 5120SOL     OW16179   0.709   6.997   4.338 -0.3177 -0.3105 -0.7473
 5120SOL    HW116180   0.662   7.084   4.322 -1.5263 -0.5411  1.1965
 5120SOL    HW216181   0.663   6.925   4.286 -0.9351 -0.1826 -0.3964
 5121SOL     OW16182   6.501   0.215   5.428 -0.4592 -0.3631 -0.5119
 5121SOL    HW116183   6.514   0.173   5.518 -0.1942  0.0824 -0.3384
 5121SOL    HW216184   6.419   0.271   5.430  0.1679  0.5780 -0.1857
 5122SOL     OW16185   3.676   1.376   5.234 -0.1965 -0.0995  0.1891
 5122SOL    HW116186   3.595   1.426   5.263  0.5099  2.1296 -1.4497
 5122SOL    HW216187   3.655   1.324   5.151 -0.3155 -0.6995  0.5880
 5123SOL     OW16188   1.684   1.303   3.353  0.0630  0.1755  0.0792
 5123SOL    HW116189   1.709   1.295   3.449 -1.8905 -0.8826  0.5627
 5123SOL    HW216190   1.649   1.395   3.335  1.1039  0.6002  0.1985
 5124SOL     OW16191   5.537   6.651   1.869 -0.3774  0.1551  0.1174
 5124SOL    HW116192   5.572   6.558   1.876  0.7683  0.5377 -0.4618
 5124SOL    HW216193   5.577   6.707   1.941 -0.8569  0.2770  0.2968
 5125SOL     OW16194   1.886   0.438   1.958  0.8034  0.4737 -0.1255
 5125SOL    HW116195   1.894   0.436   2.058  0.2224 -0.9044 -0.0719
 5125SOL    HW216196   1.972   0.406   1.918  1.1465  1.3219 -0.0933
 5126SOL     OW16197   3.729   3.842   6.566  0.3534 -0.8670  0.5025
 5126SOL    HW116198   3.782   3.909   6.513  0.1295 -0.5130  0.7159
 5126SOL    HW216199   3.760   3.750   6.545  0.9220 -0.6749  0.4849
 5127SOL     OW16200   4.681   2.290   2.435 -0.1384  0.4427 -0.0277
 5127SOL    HW116201   4.651   2.199   2.410 -0.7870  0.7874 -0.5209
 5127SOL    HW216202   4.759   2.316   2.377  0.1378  0.1528  0.2087
 5128SOL     OW16203   2.812   2.887   1.218  0.5346 -0.5023 -0.0735
 5128SOL    HW116204   2.762   2.815   1.169  0.9960  0.2828 -1.7723
 5128SOL    HW216205   2.789   2.976   1.178 -0.5337  0.4136  2.4057
 5129SOL     OW16206   2.484   4.534   3.233 -0.3635  0.1506 -0.0239
 5129SOL    HW116207   2.580   4.527   3.207 -0.1010 -4.3200  1.3409
 5129SOL    HW216208   2.477   4.560   3.329 -0.3607 -1.3122  0.3937
 5130SOL     OW16209   6.078   1.490   4.221 -0.1990 -0.1475  0.8381
 5130SOL    HW116210   6.060   1.392   4.214 -0.1560 -0.1010  0.0370
 5130SOL    HW216211   6.139   1.506   4.299  2.5837 -1.1617 -0.9877
 5131SOL     OW16212   2.622   3.824   6.392  0.4161  0.0785 -0.0850
 5131SOL    HW116213   2.559   3.902   6.396  0.7928  0.3537  0.7124
 5131SOL    HW216214   2.680   3.833   6.311  0.3472  0.5446 -0.0879
 5132SOL     OW16215   6.196   1.858   1.046  0.1569  0.4475 -0.2192
 5132SOL    HW116216   6.175   1.898   0.957 -2.5813  0.2500  0.2577
 5132SOL    HW216217   6.229   1.930   1.107 -1.2840  1.3197 -0.4182
 5133SOL     OW16218   6.190   4.444   4.050  0.2802 -0.4766  0.3186
 5133SOL    HW116219   6.164   4.386   3.972  0.5341  0.4597 -0.4722
 5133SOL    HW216220   6.201   4.538   4.020 -0.0474 -0.0106  1.5835
 5134SOL     OW16221   0.834   5.639   5.152  0.2463 -0.7787  0.4207
 5134SOL    HW116222   0.766   5.591   5.097 -0.2937  0.9563 -0.5369
 5134SOL    HW216223   0.788   5.683   5.229  0.1100  1.1281 -0.7160
 5135SOL     OW16224   4.799   6.662   1.703  0.2150 -0.0655  0.1557
 5135SOL    HW116225   4.729   6.638   1.771  0.4598 -0.1438  0.3840
 5135SOL    HW216226   4.773   6.626   1.614  0.0252 -0.2042  0.2671
 5136SOL     OW16227   1.047   7.017   6.610  0.1176  0.1933  0.2868
 5136SOL    HW116228   0.994   7.077   6.550 -0.0640  2.3577  2.4680
 5136SOL    HW216229   1.129   7.065   6.641  1.1662 -1.5833  0.3757
 5137SOL     OW16230   6.328   3.886   4.861  0.6161  0.6986 -0.1584
 5137SOL    HW116231   6.278   3.800   4.866  1.4319 -0.0769 -3.1298
 5137SOL    HW216232   6.264   3.961   4.843  0.2608 -0.0739 -2.4863
 5138SOL     OW16233   5.365   4.421   4.937  0.1387  0.0978 -0.4452
 5138SOL    HW116234   5.402   4.349   4.995  0.3397 -0.0838 -0.8024
 5138SOL    HW216235   5.277   4.392   4.900  0.7497 -0.4343 -1.5137
 5139SOL     OW16236   6.971   1.383   3.079  0.4144  0.1738  0.0373
 5139SOL    HW116237   7.001   1.465   3.029 -2.0403  0.4582 -1.0734
 5139SOL    HW216238   6.988   1.396   3.176  0.6371  1.7464 -0.1728
 5140SOL     OW16239   1.542   5.318   1.673  0.3978 -0.1775  0.4263
 5140SOL    HW116240   1.448   5.307   1.641  0.2336  0.3999  0.7072
 5140SOL    HW216241   1.596   5.364   1.602  1.1221 -2.7488 -0.8157
 5141SOL     OW16242   2.167   5.331   3.973  0.2384  0.1536 -0.0464
 5141SOL    HW116243   2.148   5.245   3.926  0.1957  0.3003 -0.2990
 5141SOL    HW216244   2.245   5.319   4.035  0.5068  0.0526 -0.4046
 5142SOL     OW16245   6.727   2.865   6.771 -0.0115  0.0235  0.0511
 5142SOL    HW116246   6.663   2.926   6.724  0.2042  1.2788  1.3034
 5142SOL    HW216247   6.708   2.866   6.869  1.7720  0.2648  0.4336
 5143SOL     OW16248   1.656   1.000   2.130 -0.5015  0.6468  0.1965
 5143SOL    HW116249   1.615   0.909   2.125  0.0095  0.2105  2.5453
 5143SOL    HW216250   1.691   1.026   2.040 -3.7724  0.0752 -1.3923
 5144SOL     OW16251   3.459   1.150   0.992  0.0107 -0.3991  0.0427
 5144SOL    HW116252   3.542   1.135   1.045  0.3119  3.4198  0.9489
 5144SOL    HW216253   3.481   1.152   0.894  0.8849  0.0373  0.2502
 5145SOL     OW16254   3.370   4.796   0.105  0.1039  0.5559  0.4840
 5145SOL    HW116255   3.308   4.839   0.170  0.5320 -0.7088  1.7854
 5145SOL    HW216256   3.386   4.701   0.132  0.4016  0.0245 -1.4129
 5146SOL     OW16257   3.716   2.212   2.625  0.3194 -0.2967 -0.7166
 5146SOL    HW116258   3.634   2.249   2.580  0.8801 -0.6096 -2.0237
 5146SOL    HW216259   3.792   2.212   2.561  1.2566 -0.3780  0.3743
 5147SOL     OW16260   6.350   6.385   1.380  0.1919 -0.0360  0.5822
 5147SOL    HW116261   6.267   6.384   1.323  0.6284  3.2926 -0.2538
 5147SOL    HW216262   6.324   6.374   1.476 -0.9509 -1.5058  0.1482
 5148SOL     OW16263   1.664   0.235   4.311 -0.3035 -0.6548  0.2415
 5148SOL    HW116264   1.635   0.143   4.285  1.7028 -1.2534 -0.0966
 5148SOL    HW216265   1.723   0.272   4.239 -0.8217  0.7834  0.5270
 5149SOL     OW16266   3.705   0.711   3.306 -0.3245 -0.1898  0.4923
 5149SOL    HW116267   3.787   0.757   3.272 -0.7952  0.0486 -0.3610
 5149SOL    HW216268   3.689   0.627   3.254 -1.6852  0.7553 -0.7188
 5150SOL     OW16269   6.108   6.972   2.802 -0.6867  0.2776 -0.3475
 5150SOL    HW116270   6.093   6.901   2.733  3.9946  0.4730 -1.9717
 5150SOL    HW216271   6.076   7.060   2.767 -2.1244 -0.2858 -0.4241
 5151SOL     OW16272   4.209   3.770   1.462 -0.1813  0.2051  0.1860
 5151SOL    HW116273   4.262   3.801   1.384 -0.4027 -0.4913 -0.2426
 5151SOL    HW216274   4.111   3.785   1.444 -0.2051  0.4874  0.5285
 5152SOL     OW16275   1.105   2.289   1.350  0.1144 -0.5934  0.7364
 5152SOL    HW116276   1.115   2.198   1.310 -0.7431 -0.3328 -0.0932
 5152SOL    HW216277   1.162   2.295   1.432 -0.1928 -2.0317  1.0872
 5153SOL     OW16278   1.167   2.922   3.651  0.3795 -0.1111 -0.4095
 5153SOL    HW116279   1.131   2.963   3.567 -1.9237 -2.0154 -0.4632
 5153SOL    HW216280   1.155   2.823   3.648  0.4497 -0.2703  2.0629
 5154SOL     OW16281   4.524   4.822   2.927  0.9846  0.1581 -0.1342
 5154SOL    HW116282   4.476   4.886   2.986  0.0583 -0.0471 -0.6347
 5154SOL    HW216283   4.597   4.869   2.878  2.3499  0.1290  1.8220
 5155SOL     OW16284   4.699   5.180   2.017 -0.0809  0.1756  0.6978
 5155SOL    HW116285   4.711   5.223   1.928 -0.7144  0.0423  0.5493
 5155SOL    HW216286   4.788   5.149   2.051  0.1702  0.2875  0.1466
 5156SOL     OW16287   6.010   1.234   3.572  0.7566 -0.2234  0.3436
 5156SOL    HW116288   5.987   1.263   3.479 -0.6118 -0.3250  0.6296
 5156SOL    HW216289   5.927   1.235   3.628  1.3841 -1.0997  1.3179
 5157SOL     OW16290   3.344   0.973   3.545 -0.6984 -0.5490  0.0627
 5157SOL    HW116291   3.379   0.884   3.517 -0.5547 -0.6222  0.4672
 5157SOL    HW216292   3.252   0.987   3.506 -0.2698 -0.3930 -0.9374
 5158SOL     OW16293   2.350   3.216   2.988  0.1039  0.2908  0.1913
 5158SOL    HW116294   2.350   3.315   2.971 -1.1016  0.8052  2.6655
 5158SOL    HW216295   2.419   3.194   3.056  0.1008 -0.5439 -0.0613
 5159SOL     OW16296   4.998   6.512   5.892  0.1051 -0.1295 -0.0944
 5159SOL    HW116297   5.034   6.424   5.922 -1.0879  0.2148  2.5815
 5159SOL    HW216298   4.928   6.544   5.956 -0.8962  1.8815 -2.0391
 5160SOL     OW16299   4.186   1.292   5.163 -0.1723 -0.4498 -0.1000
 5160SOL    HW116300   4.170   1.380   5.118  1.1493 -0.3473 -0.4322
 5160SOL    HW216301   4.202   1.222   5.093  0.7974 -0.5236  0.1844
 5161SOL     OW16302   4.927   0.757   6.298  0.0585  0.5533 -0.3973
 5161SOL    HW116303   4.945   0.749   6.199 -0.3399  2.7433 -0.6731
 5161SOL    HW216304   4.978   0.685   6.346  1.6533  0.5048 -2.0437
 5162SOL     OW16305   3.792   3.736   2.114 -0.0565  0.1649  0.6148
 5162SOL    HW116306   3.731   3.710   2.189  0.6145 -0.9920  0.7855
 5162SOL    HW216307   3.887   3.715   2.140  0.2661  0.5692 -0.2203
 5163SOL     OW16308   0.144   1.522   5.709 -0.0303  0.6126 -0.8240
 5163SOL    HW116309   0.201   1.528   5.627 -1.7188 -0.4280 -2.1191
 5163SOL    HW216310   0.090   1.606   5.718  0.8133  1.1126 -0.2310
 5164SOL     OW16311   6.566   2.178   4.922  0.2708  0.3647 -0.2686
 5164SOL    HW116312   6.479   2.134   4.946  0.9216  0.1964  2.0372
 5164SOL    HW216313   6.547   2.265   4.875 -1.1919  0.5796  0.6129
 5165SOL     OW16314   3.582   2.264   5.295 -0.1886  0.4649  0.2578
 5165SOL    HW116315   3.483   2.276   5.292 -0.1454  0.6255 -1.9617
 5165SOL    HW216316   3.617   2.294   5.384 -2.0485  1.0232  0.8344
 5166SOL     OW16317   4.225   2.913   6.495 -0.7433 -0.4777  0.4564
 5166SOL    HW116318   4.180   2.829   6.525 -0.2463 -0.4023  1.4539
 5166SOL    HW216319   4.162   2.990   6.507 -0.9387 -0.6051  0.2560
 5167SOL     OW16320   2.526   2.886   5.131  0.4672  0.0005 -0.3915
 5167SOL    HW116321   2.566   2.796   5.114  1.9245  0.7307 -0.9703
 5167SOL    HW216322   2.598   2.952   5.151 -0.6214  0.9088  0.7429
 5168SOL     OW16323   5.303   6.218   3.224 -0.3538  0.0509 -0.3590
 5168SOL    HW116324   5.385   6.206   3.169  1.3322 -3.2107  2.4913
 5168SOL    HW216325   5.224   6.180   3.176  0.7909 -1.5207 -1.0577
 5169SOL     OW16326   4.745   6.021   3.849  0.1117  0.3118  0.4080
 5169SOL    HW116327   4.686   6.102   3.838  1.0373  1.4483  2.8693
 5169SOL    HW216328   4.832   6.038   3.804  0.5148  0.9974  1.3921
 5170SOL     OW16329   0.412   0.586   4.560  0.0429 -0.2019  0.1459
 5170SOL    HW116330   0.385   0.681   4.578 -1.4550 -0.8468  1.5479
 5170SOL    HW216331   0.374   0.526   4.631  0.3778 -1.9339 -1.0678
 5171SOL     OW16332   1.694   6.060   2.280  0.3693  0.0043 -0.0420
 5171SOL    HW116333   1.739   6.066   2.191  0.0447 -1.0941 -0.3032
 5171SOL    HW216334   1.596   6.047   2.267  0.4348 -1.1438  0.4280
 5172SOL     OW16335   5.537   1.149   5.670  0.0983 -0.2492 -0.0348
 5172SOL    HW116336   5.482   1.132   5.752 -0.5737 -1.1340 -0.6461
 5172SOL    HW216337   5.546   1.247   5.656  1.0677 -0.0662  1.6476
 5173SOL     OW16338   4.581   5.985   2.819  0.3563 -0.4796  0.2889
 5173SOL    HW116339   4.560   6.076   2.783  0.9561 -0.5701 -0.3036
 5173SOL    HW216340   4.674   5.959   2.793  0.4517 -0.9583  1.0881
 5174SOL     OW16341   2.354   6.981   3.839  0.1974 -0.3201 -0.3832
 5174SOL    HW116342   2.390   7.007   3.929 -0.3012  1.9783 -0.7690
 5174SOL    HW216343   2.257   7.006   3.834  0.2030 -0.4706 -1.5154
 5175SOL     OW16344   3.668   2.824   4.034  0.0380 -0.2352  1.0001
 5175SOL    HW116345   3.755   2.788   3.999  0.6938  3.5990 -1.9873
 5175SOL    HW216346   3.596   2.810   3.967 -0.8803 -0.3582  1.9754
 5176SOL     OW16347   0.609   3.606   2.073  0.1676  0.3407  0.1128
 5176SOL    HW116348   0.550   3.684   2.091 -0.1308  0.9999 -3.1487
 5176SOL    HW216349   0.705   3.637   2.070  0.3084  0.0717  1.0857
 5177SOL     OW16350   1.122   0.295   3.166  0.7978 -0.1516 -0.5349
 5177SOL    HW116351   1.066   0.376   3.147  0.1165  0.5370  3.4806
 5177SOL    HW216352   1.219   0.319   3.157  0.6589  1.5662  1.6355
 5178SOL     OW16353   6.607   1.962   2.193  0.4032 -0.6986 -0.1335
 5178SOL    HW116354   6.534   1.922   2.136 -0.7872 -0.1384  0.9622
 5178SOL    HW216355   6.599   2.062   2.191  1.8727 -0.5849 -0.9307
 5179SOL     OW16356   4.679   5.186   4.253 -0.0013 -0.2324  0.1210
 5179SOL    HW116357   4.589   5.227   4.235 -0.9819 -1.1783  2.4064
 5179SOL    HW216358   4.693   5.182   4.352  3.0112  0.7569 -0.1792
 5180SOL     OW16359   1.663   0.603   1.902  0.7233  0.4558  0.2451
 5180SOL    HW116360   1.613   0.627   1.985 -1.5376 -3.0271  0.1415
 5180SOL    HW216361   1.746   0.553   1.926  0.6271  0.3862  0.4378
 5181SOL     OW16362   5.774   1.245   3.733 -0.0008  0.2856 -0.1047
 5181SOL    HW116363   5.716   1.166   3.714 -1.2803  0.6114  2.0139
 5181SOL    HW216364   5.734   1.327   3.691 -0.9818  0.4508  1.0706
 5182SOL     OW16365   0.039   4.307   3.393  0.4963 -0.3119 -0.6348
 5182SOL    HW116366   0.083   4.217   3.388  0.0806 -0.5082 -0.7493
 5182SOL    HW216367   0.084   4.370   3.330  0.5751 -0.5273 -0.7940
 5183SOL     OW16368   1.674   3.918   7.018  0.0943 -0.3130  0.2250
 5183SOL    HW116369   1.575   3.925   7.029  0.2186 -0.2590  1.4187
 5183SOL    HW216370   1.696   3.888   6.925 -1.0815 -0.8457  0.1099
 5184SOL     OW16371   6.915   1.688   6.009  0.5079 -0.1049 -0.4996
 5184SOL    HW116372   6.852   1.753   6.051  0.0931  0.0171 -1.2697
 5184SOL    HW216373   6.900   1.597   6.048 -0.2325 -0.1021 -0.7483
 5185SOL     OW16374   4.421   5.550   4.950 -0.2192 -0.2023 -0.2993
 5185SOL    HW116375   4.443   5.593   4.863  4.2144  0.4709  0.8721
 5185SOL    HW216376   4.372   5.615   5.008 -3.0542 -0.6050 -2.0587
 5186SOL     OW16377   3.245   3.083   1.535 -0.3863 -0.5562  0.2988
 5186SOL    HW116378   3.214   3.174   1.562  2.2819  0.6083 -0.1956
 5186SOL    HW216379   3.264   3.028   1.617 -0.9280 -0.2761  0.6173
 5187SOL     OW16380   4.004   5.370   5.510 -0.7711 -0.4920 -0.4335
 5187SOL    HW116381   4.023   5.300   5.579 -0.8648 -0.5186 -0.4316
 5187SOL    HW216382   3.959   5.329   5.431 -1.9196 -0.2486  0.0564
 5188SOL     OW16383   2.566   5.645   3.480 -0.0423 -0.1347 -0.3291
 5188SOL    HW116384   2.658   5.680   3.498 -0.4388  0.5724  0.4680
 5188SOL    HW216385   2.524   5.617   3.567 -0.5937 -0.4074 -0.6797
 5189SOL     OW16386   0.117   0.960   3.030 -0.0868 -0.6845 -0.2685
 5189SOL    HW116387   0.098   0.928   3.123  1.1359 -0.9151 -0.0988
 5189SOL    HW216388   0.043   1.022   3.002  0.1080  0.3421  1.2977
 5190SOL     OW16389   2.129   4.514   0.125  0.1272 -0.0620  1.0233
 5190SOL    HW116390   2.193   4.517   0.049 -0.9269 -1.4629  0.0153
 5190SOL    HW216391   2.138   4.597   0.180  1.3365  0.7133 -0.2704
 5191SOL     OW16392   4.085   0.708   4.230 -0.7968 -0.0498  0.2027
 5191SOL    HW116393   4.113   0.629   4.284  2.2938  0.9382  0.2460
 5191SOL    HW216394   4.064   0.784   4.292 -0.8178  0.0243  0.1053
 5192SOL     OW16395   3.881   5.006   0.479  0.5182 -0.4972  0.6466
 5192SOL    HW116396   3.931   4.923   0.455  2.0239  0.3999  0.5567
 5192SOL    HW216397   3.807   5.020   0.414  0.5135 -1.5311  0.4068
 5193SOL     OW16398   3.596   1.562   4.962 -0.0607 -0.1529 -0.2816
 5193SOL    HW116399   3.527   1.491   4.947  0.3486 -1.3901  3.0076
 5193SOL    HW216400   3.561   1.630   5.027  0.8552  0.6871 -0.6415
 5194SOL     OW16401   3.160   2.736   3.224 -0.4195  0.0054 -0.0398
 5194SOL    HW116402   3.218   2.813   3.252 -1.9801  0.8568  1.0176
 5194SOL    HW216403   3.089   2.721   3.292 -1.1837 -1.2886 -1.0710
 5195SOL     OW16404   3.219   5.275   6.254  0.0696 -0.5807 -0.6730
 5195SOL    HW116405   3.237   5.289   6.156 -1.0189  1.5960 -0.6113
 5195SOL    HW216406   3.133   5.225   6.265 -0.7374  0.7458 -0.8331
 5196SOL     OW16407   6.660   4.539   3.789 -0.0711  0.1528  0.1981
 5196SOL    HW116408   6.578   4.498   3.748 -0.6970  0.0404  1.5062
 5196SOL    HW216409   6.701   4.474   3.853  0.8359  0.3487 -0.1730
 5197SOL     OW16410   2.301   6.789   1.370 -0.5148  0.3356  0.1726
 5197SOL    HW116411   2.358   6.707   1.371  0.0492  0.7130 -0.0756
 5197SOL    HW216412   2.348   6.862   1.419  0.4510  1.4531 -2.2637
 5198SOL     OW16413   6.789   1.007   1.829  0.0507 -0.2326 -0.4511
 5198SOL    HW116414   6.732   0.976   1.753  0.3451  4.3829 -2.9261
 5198SOL    HW216415   6.881   1.028   1.796  0.7563  0.1800  1.6271
 5199SOL     OW16416   6.467   1.015   5.517 -0.1934  0.2873  0.0273
 5199SOL    HW116417   6.554   1.034   5.561 -0.4800  0.1855  0.6499
 5199SOL    HW216418   6.482   0.987   5.422  0.4506  0.2018  0.1565
 5200SOL     OW16419   1.054   5.312   5.620  1.0514 -0.2697 -0.0960
 5200SOL    HW116420   0.992   5.287   5.545 -0.2406  0.5581  0.6944
 5200SOL    HW216421   1.127   5.369   5.584 -0.2893  1.2275 -0.5164
 5201SOL     OW16422   5.225   3.448   4.445  0.4406  0.5111  0.6548
 5201SOL    HW116423   5.222   3.486   4.352 -0.7089 -0.9181  0.0841
 5201SOL    HW216424   5.152   3.490   4.500 -0.4575 -0.3882  0.1898
 5202SOL     OW16425   6.557   5.806   0.401  0.1284 -0.1342  0.2024
 5202SOL    HW116426   6.460   5.787   0.415 -0.4342  2.3163 -0.1278
 5202SOL    HW216427   6.596   5.846   0.484  0.0871  1.6811 -0.5923
 5203SOL     OW16428   4.822   5.196   0.255  0.2303  0.0074  0.4092
 5203SOL    HW116429   4.836   5.105   0.216 -0.3008  0.8424 -1.9109
 5203SOL    HW216430   4.910   5.236   0.280  0.5746 -0.6555  0.2688
 5204SOL     OW16431   5.862   4.078   3.040 -0.5851 -0.4288 -0.5203
 5204SOL    HW116432   5.785   4.093   2.978 -2.1707 -0.2875  1.3850
 5204SOL    HW216433   5.860   3.983   3.072  0.9867 -0.8713 -1.6281
 5205SOL     OW16434   3.847   5.100   3.571 -0.2469  0.0903  0.0130
 5205SOL    HW116435   3.935   5.057   3.592 -0.1608  0.6929  0.9533
 5205SOL    HW216436   3.859   5.163   3.494 -0.2568 -1.1327 -1.0128
 5206SOL     OW16437   0.712   6.909   0.073 -0.1966 -0.3125  0.2309
 5206SOL    HW116438   0.743   6.953  -0.012 -0.5853  0.5698  0.5586
 5206SOL    HW216439   0.616   6.933   0.088 -0.7975 -2.2862 -0.2377
 5207SOL     OW16440   3.396   5.596   5.224 -0.1722  0.1269 -0.0393
 5207SOL    HW116441   3.400   5.684   5.178  0.6498 -0.3424 -0.9086
 5207SOL    HW216442   3.392   5.523   5.156 -1.1104 -0.5061  0.6699
 5208SOL     OW16443   5.704   6.576   6.973 -0.0724  0.0236  0.2164
 5208SOL    HW116444   5.710   6.638   7.052 -0.3541 -0.2865  0.4568
 5208SOL    HW216445   5.794   6.566   6.931  0.1892 -0.2461  0.8349
 5209SOL     OW16446   5.311   0.632   2.626 -0.2095 -0.3940 -0.2576
 5209SOL    HW116447   5.411   0.620   2.625  0.1930  1.8787  1.6884
 5209SOL    HW216448   5.270   0.560   2.683  0.6033 -0.0680  0.7764
 5210SOL     OW16449   6.507   1.997   0.269 -0.2781 -0.1121 -1.3788
 5210SOL    HW116450   6.446   2.076   0.275 -2.5954 -1.8721 -0.3469
 5210SOL    HW216451   6.465   1.926   0.213  0.4360 -1.7030 -0.0019
 5211SOL     OW16452   3.259   4.058   4.549  0.3101 -0.9365 -0.0563
 5211SOL    HW116453   3.169   4.020   4.528 -1.6751  2.6295  1.3928
 5211SOL    HW216454   3.280   4.042   4.646  0.2675  0.0576  0.1206
 5212SOL     OW16455   5.684   5.031   4.895 -0.2268  0.4086 -0.2715
 5212SOL    HW116456   5.730   5.116   4.920 -0.4115  0.2618  0.5917
 5212SOL    HW216457   5.653   4.984   4.978 -1.7106  0.3812 -0.8071
 5213SOL     OW16458   2.003   0.730   3.151  0.1685  0.4091  0.0516
 5213SOL    HW116459   2.011   0.781   3.237 -0.1628  1.3026 -0.4366
 5213SOL    HW216460   2.031   0.788   3.075 -0.1264 -0.1715 -0.5093
 5214SOL     OW16461   5.939   3.159   3.568 -0.4659 -0.1749 -0.2946
 5214SOL    HW116462   5.839   3.154   3.564 -0.5714  1.3712  0.0716
 5214SOL    HW216463   5.978   3.079   3.523 -1.8658 -0.7171 -0.5818
 5215SOL     OW16464   0.803   4.943   1.146 -0.3014  0.0753 -0.0134
 5215SOL    HW116465   0.824   4.855   1.104 -0.2800  0.7904 -1.5528
 5215SOL    HW216466   0.712   4.973   1.117 -0.3220  0.5531  0.5151
 5216SOL     OW16467   6.882   3.347   3.226  0.4213  0.5639 -0.2243
 5216SOL    HW116468   6.960   3.298   3.187  0.5374  0.9434 -0.4827
 5216SOL    HW216469   6.803   3.338   3.167  0.2281  0.0550  0.1139
 5217SOL     OW16470   0.394   1.178   3.672  0.3049 -0.1141 -0.4148
 5217SOL    HW116471   0.402   1.232   3.757  0.6664  2.3085 -1.8856
 5217SOL    HW216472   0.301   1.186   3.637  0.6088  0.3684 -1.1322
 5218SOL     OW16473   0.222   4.333   2.892 -0.2824  0.2356  0.0634
 5218SOL    HW116474   0.234   4.282   2.807  0.5702  0.0440  0.2903
 5218SOL    HW216475   0.180   4.422   2.872 -2.2283 -0.7388 -0.2784
 5219SOL     OW16476   0.574   3.238   6.870  0.0794 -0.3035  0.1437
 5219SOL    HW116477   0.521   3.312   6.828  0.5694  0.6474  1.1596
 5219SOL    HW216478   0.640   3.203   6.804  0.0268  0.3558 -0.2693
 5220SOL     OW16479   0.112   0.106   0.405  0.4978 -0.1684  0.5263
 5220SOL    HW116480   0.120   0.158   0.489  1.4135 -1.9075  1.5716
 5220SOL    HW216481   0.116   0.168   0.327 -2.7252  1.7633  1.6938
 5221SOL     OW16482   2.150   5.097   6.441  0.0052 -0.3731  0.1703
 5221SOL    HW116483   2.117   5.003   6.434  2.7292 -1.6592  2.4245
 5221SOL    HW216484   2.244   5.101   6.408  0.5275  1.1175  1.7051
 5222SOL     OW16485   4.530   4.463   4.136  0.3355 -0.3755  0.3419
 5222SOL    HW116486   4.460   4.532   4.156  1.2434  1.1214 -1.2898
 5222SOL    HW216487   4.585   4.447   4.218  1.0637  2.0375  0.3970
 5223SOL     OW16488   1.607   5.895   1.520 -0.6304 -0.1889  0.2659
 5223SOL    HW116489   1.575   5.921   1.611 -0.7028 -0.3294  0.2818
 5223SOL    HW216490   1.613   5.977   1.463 -0.2782 -0.0585  0.4887
 5224SOL     OW16491   1.477   3.225   1.173 -0.0725  0.2017  0.0397
 5224SOL    HW116492   1.420   3.151   1.137  0.4711  0.2227 -0.9118
 5224SOL    HW216493   1.538   3.189   1.243 -0.2530 -0.1153  0.0424
 5225SOL     OW16494   3.629   4.242   3.091  0.9971  0.1364 -0.3491
 5225SOL    HW116495   3.692   4.250   3.168  0.9943 -0.9294 -0.2193
 5225SOL    HW216496   3.624   4.330   3.043 -0.2620  1.3287  1.8026
 5226SOL     OW16497   2.001   1.721   5.111  0.1380 -0.2600 -0.0166
 5226SOL    HW116498   2.055   1.660   5.054 -0.9905 -0.9921 -0.3526
 5226SOL    HW216499   2.020   1.816   5.087 -0.1453 -0.5478 -1.4741
 5227SOL     OW16500   6.448   0.109   6.929 -0.5169  0.2436  0.2114
 5227SOL    HW116501   6.457   0.064   7.018 -1.1369 -0.1858  0.0357
 5227SOL    HW216502   6.412   0.201   6.941  0.1600  0.4793  0.4666
 5228SOL     OW16503   1.838   1.901   2.002  0.9739 -0.2916 -0.5785
 5228SOL    HW116504   1.782   1.973   1.962  1.6395  1.1834  1.0155
 5228SOL    HW216505   1.783   1.850   2.069  0.7377 -0.7558 -1.1128
 5229SOL     OW16506   1.949   4.121   6.563 -0.6954 -0.0912  0.0539
 5229SOL    HW116507   1.938   4.220   6.567  0.7152  0.1004 -0.2516
 5229SOL    HW216508   2.033   4.095   6.611  0.5655 -0.8088 -2.3641
 5230SOL     OW16509   0.024   5.296   0.092 -0.1025 -0.1819  0.3564
 5230SOL    HW116510  -0.001   5.387   0.126 -0.3782 -0.3042  0.4694
 5230SOL    HW216511  -0.048   5.231   0.116 -0.2425 -0.3060 -0.3801
 5231SOL     OW16512   3.449   0.927   1.781  0.3450  0.3128 -0.3985
 5231SOL    HW116513   3.430   0.854   1.715 -1.4024  1.0517 -0.7619
 5231SOL    HW216514   3.529   0.902   1.835  0.6381 -1.2149 -1.4646
 5232SOL     OW16515   3.743   2.443   6.635  0.3694  0.0197  0.7517
 5232SOL    HW116516   3.769   2.469   6.728  0.1554  1.2161  0.4902
 5232SOL    HW216517   3.674   2.506   6.600  0.6767 -0.2092 -0.3331
 5233SOL     OW16518   7.003   2.412   5.907 -0.0305  0.1310  0.0168
 5233SOL    HW116519   6.943   2.381   5.833 -0.7487 -0.3190  0.7706
 5233SOL    HW216520   7.019   2.337   5.971  0.7026  0.4790  0.2530
 5234SOL     OW16521   2.629   2.213   0.223  0.3362 -0.4960 -0.0002
 5234SOL    HW116522   2.559   2.165   0.169 -0.3746  0.2704  0.2189
 5234SOL    HW216523   2.610   2.199   0.320  0.5113 -0.3138  0.0603
 5235SOL     OW16524   0.956   2.763   6.196 -0.5582  0.1157  0.4188
 5235SOL    HW116525   0.923   2.846   6.152 -0.4394  0.6780  1.3724
 5235SOL    HW216526   0.901   2.745   6.278 -1.9581 -1.8976 -0.8465
 5236SOL     OW16527   5.301   6.406   2.413 -0.0135 -0.1474  0.1137
 5236SOL    HW116528   5.370   6.470   2.379 -0.3140  0.9549  1.5305
 5236SOL    HW216529   5.345   6.338   2.471  0.0004  0.0349  0.3166
 5237SOL     OW16530   1.025   4.458   6.468 -0.2571 -0.4756  0.4630
 5237SOL    HW116531   1.038   4.519   6.390  0.4671  0.5901  1.3759
 5237SOL    HW216532   0.929   4.455   6.493 -0.4671 -0.6590 -0.3275
 5238SOL     OW16533   6.418   0.494   2.582  0.0890  0.0932  0.2065
 5238SOL    HW116534   6.446   0.430   2.654  0.1085 -0.3724 -0.1987
 5238SOL    HW216535   6.408   0.586   2.620  2.1447  0.2744  0.3816
 5239SOL     OW16536   2.319   2.658   0.626 -0.2254  0.2412  0.2170
 5239SOL    HW116537   2.231   2.659   0.579  0.6964  0.1960 -1.6019
 5239SOL    HW216538   2.390   2.626   0.564  1.0494 -0.0052  1.7267
 5240SOL     OW16539   5.217   5.605   0.660  0.3794  0.1250 -0.1294
 5240SOL    HW116540   5.263   5.516   0.658  1.7390  0.7607  0.5124
 5240SOL    HW216541   5.259   5.662   0.730 -1.2456  0.8795  0.2784
 5241SOL     OW16542   0.966   6.429   1.151 -0.3748  0.3111  0.2476
 5241SOL    HW116543   0.984   6.515   1.199 -3.9950  1.3074  0.0853
 5241SOL    HW216544   1.004   6.434   1.059  2.3539  0.3126  1.2675
 5242SOL     OW16545   4.119   6.038   1.098  0.4847 -0.0211  0.2363
 5242SOL    HW116546   4.113   6.057   1.196  1.2089 -2.4410  0.8040
 5242SOL    HW216547   4.140   5.941   1.084  2.2047  0.6256 -2.2631
 5243SOL     OW16548   6.249   0.728   6.875 -0.1698 -0.7921 -0.6543
 5243SOL    HW116549   6.328   0.667   6.874  0.3007 -0.1918 -0.5072
 5243SOL    HW216550   6.275   0.817   6.837 -0.3017 -0.0083  1.0045
 5244SOL     OW16551   4.796   2.382   3.210 -0.2452 -0.2488  0.6281
 5244SOL    HW116552   4.779   2.480   3.224 -0.6461 -0.4543  1.5980
 5244SOL    HW216553   4.726   2.345   3.150 -0.3776 -0.0422  0.6504
 5245SOL     OW16554   5.756   4.157   2.244 -0.3281 -0.4879 -0.1160
 5245SOL    HW116555   5.815   4.216   2.299  2.3366 -2.2554 -0.9391
 5245SOL    HW216556   5.734   4.074   2.295 -0.6305 -0.6410 -0.4898
 5246SOL     OW16557   0.873   4.432   1.970  0.3305  0.4189 -0.3843
 5246SOL    HW116558   0.866   4.350   2.026  0.2953  0.8404  0.2444
 5246SOL    HW216559   0.869   4.407   1.873  0.2117 -0.3029 -0.1991
 5247SOL     OW16560   0.135   4.809   0.983  0.3813  0.0518  0.2401
 5247SOL    HW116561   0.229   4.810   0.947  0.0786 -3.1767 -0.9538
 5247SOL    HW216562   0.074   4.770   0.914 -1.9652  2.3794  0.8754
 5248SOL     OW16563   2.133   0.844   6.456  0.1721 -0.4599  0.4791
 5248SOL    HW116564   2.195   0.796   6.394 -0.4630  0.2108 -0.7285
 5248SOL    HW216565   2.064   0.781   6.490  0.1235 -0.7039 -0.0588
 5249SOL     OW16566   0.998   1.464   6.611 -0.2628  0.4552  0.2424
 5249SOL    HW116567   1.022   1.496   6.519  0.7856  0.2048  0.4199
 5249SOL    HW216568   0.973   1.542   6.668  1.6338  0.9194  0.4810
 5250SOL     OW16569   5.533   4.431   0.290 -0.0503  0.0375  0.2594
 5250SOL    HW116570   5.450   4.471   0.250 -0.6874  0.5731  2.0099
 5250SOL    HW216571   5.582   4.379   0.220  0.0625  2.6574 -1.7862
 5251SOL     OW16572   4.954   6.172   1.489  0.2245  0.6101  0.0700
 5251SOL    HW116573   4.907   6.247   1.442  0.4958 -0.3991 -1.9250
 5251SOL    HW216574   5.029   6.209   1.544  0.8244  1.7942 -1.4525
 5252SOL     OW16575   2.509   5.907   3.981  0.2138 -0.9134 -0.2050
 5252SOL    HW116576   2.452   5.867   4.053 -0.2919  1.9957  1.2077
 5252SOL    HW216577   2.597   5.935   4.020  0.1872  0.1238 -0.8425
 5253SOL     OW16578   1.192   1.498   4.685  0.3706 -0.1100  0.0613
 5253SOL    HW116579   1.291   1.479   4.683 -0.0057 -2.2975 -0.5004
 5253SOL    HW216580   1.147   1.443   4.616 -1.0283  2.6663 -1.3877
 5254SOL     OW16581   1.728   6.933   0.742  0.1403  0.0947 -0.1898
 5254SOL    HW116582   1.795   6.961   0.811  0.8032  1.0638 -1.1759
 5254SOL    HW216583   1.759   6.963   0.652 -1.7801  0.8803 -0.6463
 5255SOL     OW16584   2.562   2.359   6.325 -0.4122  0.4547 -0.4750
 5255SOL    HW116585   2.594   2.264   6.324  0.5920  0.7614 -2.6005
 5255SOL    HW216586   2.515   2.377   6.411  0.8669 -1.4631  0.7118
 5256SOL     OW16587   2.163   1.583   6.471  0.2373 -0.0680 -0.2254
 5256SOL    HW116588   2.078   1.631   6.450 -0.8797 -1.9582 -0.1577
 5256SOL    HW216589   2.238   1.627   6.421 -0.5574  2.2399  0.4613
 5257SOL     OW16590   5.367   5.568   1.486 -0.1618  0.6467  0.5270
 5257SOL    HW116591   5.388   5.489   1.543 -1.2760  0.1590  0.2936
 5257SOL    HW216592   5.282   5.611   1.518 -1.1866 -0.0426 -1.1179
 5258SOL     OW16593   1.289   0.268   5.612  0.6853 -0.1677 -0.2109
 5258SOL    HW116594   1.287   0.350   5.554 -0.9165  0.2329  0.3511
 5258SOL    HW216595   1.203   0.218   5.601  1.1745 -1.1496  0.3419
 5259SOL     OW16596   2.393   2.045   0.849  0.2948 -0.1195 -0.6874
 5259SOL    HW116597   2.304   2.086   0.869  1.0280  1.0823  0.3908
 5259SOL    HW216598   2.443   2.104   0.785  0.2773 -0.8397 -1.3798
 5260SOL     OW16599   6.541   6.543   4.647  0.0397  0.0805 -0.7273
 5260SOL    HW116600   6.443   6.556   4.663  0.2804  1.7282 -0.4697
 5260SOL    HW216601   6.572   6.603   4.574  0.7251 -1.0078 -1.3665
 5261SOL     OW16602   2.221   5.673   0.520  0.1495  0.0653 -0.4134
 5261SOL    HW116603   2.251   5.718   0.604  0.8728  0.3856 -0.8325
 5261SOL    HW216604   2.270   5.586   0.510 -0.2246 -0.1595 -0.2997
 5262SOL     OW16605   5.282   4.589   3.222 -0.9483 -0.2824  0.3591
 5262SOL    HW116606   5.206   4.641   3.261 -2.8651 -0.8370 -2.3528
 5262SOL    HW216607   5.247   4.505   3.181  0.9496 -0.0621 -1.8737
 5263SOL     OW16608   4.941   2.223   3.001  0.1997 -0.6261  0.7873
 5263SOL    HW116609   4.889   2.268   2.929 -0.2045 -1.3529  0.6193
 5263SOL    HW216610   4.915   2.262   3.090  0.1694 -0.2351  0.6099
 5264SOL     OW16611   2.990   1.009   1.852  0.1329  0.1152 -0.1725
 5264SOL    HW116612   2.891   1.023   1.840  0.1030 -1.3038 -2.0828
 5264SOL    HW216613   3.030   0.981   1.765  2.4280  1.5446  0.3421
 5265SOL     OW16614   4.580   5.419   5.126  0.0331  0.6751 -0.2285
 5265SOL    HW116615   4.543   5.425   5.218  0.5225  1.2489 -0.0691
 5265SOL    HW216616   4.520   5.466   5.062 -0.4140  0.0989 -0.2430
 5266SOL     OW16617   6.740   4.325   6.321 -0.5357 -0.0379 -0.0731
 5266SOL    HW116618   6.751   4.424   6.316 -0.7779 -0.0013  0.0956
 5266SOL    HW216619   6.671   4.302   6.389 -2.5855 -0.1728 -2.0769
 5267SOL     OW16620   6.144   5.470   4.839  0.0585 -0.0775  0.0305
 5267SOL    HW116621   6.114   5.454   4.744  0.2435  0.5622 -0.1389
 5267SOL    HW216622   6.234   5.513   4.839 -0.0988  0.2576  0.4919
 5268SOL     OW16623   0.199   4.253   6.106 -0.0104 -0.3881 -0.3162
 5268SOL    HW116624   0.236   4.260   6.014  1.6429 -0.2608  0.3260
 5268SOL    HW216625   0.274   4.235   6.171 -1.1838 -0.8693  0.9489
 5269SOL     OW16626   0.467   1.357   4.588  0.6292 -0.1874 -0.0428
 5269SOL    HW116627   0.513   1.308   4.515 -0.7251 -3.0417  0.8809
 5269SOL    HW216628   0.440   1.448   4.555  0.0450 -1.3378 -3.0626
 5270SOL     OW16629   4.389   4.611   2.329 -0.3336 -0.3813  0.0159
 5270SOL    HW116630   4.374   4.618   2.428 -2.3466 -0.7190 -0.2160
 5270SOL    HW216631   4.423   4.699   2.294 -0.8618  0.1557  0.8187
 5271SOL     OW16632   6.699   3.860   6.989  0.2465  0.1014  0.3242
 5271SOL    HW116633   6.616   3.915   6.985  0.0775 -0.2031 -0.6508
 5271SOL    HW216634   6.687   3.785   7.055  1.0693  2.1388  2.9121
 5272SOL     OW16635   2.314   4.361   4.790  0.2315  0.1896  0.6864
 5272SOL    HW116636   2.318   4.261   4.785 -0.7040  0.1983 -0.4983
 5272SOL    HW216637   2.265   4.388   4.873  1.0901 -0.2953  1.3816
 5273SOL     OW16638   0.977   0.412   5.906  0.6125  0.7340  0.5760
 5273SOL    HW116639   0.896   0.422   5.848 -0.1588 -1.1608  1.2641
 5273SOL    HW216640   0.951   0.427   6.001  1.1784  0.5793  0.7620
 5274SOL     OW16641   5.477   0.458   1.968 -0.1937  0.3937 -1.0684
 5274SOL    HW116642   5.511   0.549   1.947 -0.6370  0.7457 -0.3208
 5274SOL    HW216643   5.379   0.464   1.992  0.0392 -0.1022  0.0712
 5275SOL     OW16644   2.908   3.001   4.426  0.5265  0.1050  0.2221
 5275SOL    HW116645   2.810   2.985   4.418 -0.1381  3.0261  1.4327
 5275SOL    HW216646   2.938   3.063   4.354  1.0118  0.8594  1.0447
 5276SOL     OW16647   4.267   1.462   2.133 -0.1694  0.1135  0.6611
 5276SOL    HW116648   4.270   1.384   2.071 -1.1028  0.3607  0.2895
 5276SOL    HW216649   4.354   1.513   2.126 -0.2265  0.0986 -0.3977
 5277SOL     OW16650   5.232   6.506   4.418 -0.1582  0.2282  0.1840
 5277SOL    HW116651   5.228   6.488   4.516  0.2886 -0.7776  0.0365
 5277SOL    HW216652   5.210   6.422   4.368  1.4230  0.2118 -0.5543
 5278SOL     OW16653   4.399   0.155   3.692  0.1102 -0.0411 -0.3564
 5278SOL    HW116654   4.378   0.069   3.646 -0.3792  0.9089 -2.0188
 5278SOL    HW216655   4.325   0.177   3.756 -0.7864  0.0978 -1.3945
 5279SOL     OW16656   0.964   1.902   6.444 -0.4868  0.4853 -0.1015
 5279SOL    HW116657   0.888   1.839   6.427  0.0230  0.0900 -1.0140
 5279SOL    HW216658   0.928   1.993   6.462 -1.2355 -0.0491  1.2326
 5280SOL     OW16659   5.798   6.100   2.020 -0.2122 -0.1731 -0.0526
 5280SOL    HW116660   5.748   6.036   2.079  0.7594  0.0249  1.0214
 5280SOL    HW216661   5.880   6.131   2.067 -1.1090  2.5756 -0.1426
 5281SOL     OW16662   4.928   2.048   5.146  0.1704 -0.4309  0.1613
 5281SOL    HW116663   5.008   1.989   5.130  0.2201 -1.0104  2.1200
 5281SOL    HW216664   4.937   2.132   5.092  1.3115 -1.1572 -0.8559
 5282SOL     OW16665   0.246   6.951   2.016  0.5752 -0.5294 -0.3847
 5282SOL    HW116666   0.178   6.880   1.998  1.8100 -2.3546  1.5907
 5282SOL    HW216667   0.205   7.041   2.004 -0.9630 -1.5216 -3.3031
 5283SOL     OW16668   6.209   5.680   6.441  0.2701  0.5382  0.3956
 5283SOL    HW116669   6.241   5.593   6.405  0.1967  0.7406 -0.1686
 5283SOL    HW216670   6.183   5.740   6.366  0.8739  1.2627  0.7440
 5284SOL     OW16671   0.118   6.108   1.717  0.0497  0.3729  0.1542
 5284SOL    HW116672   0.075   6.042   1.656 -0.3229  0.6895  0.0699
 5284SOL    HW216673   0.207   6.134   1.680 -0.0306  0.3158 -0.0826
 5285SOL     OW16674   4.685   5.298   6.496 -0.0585  0.3313 -0.4140
 5285SOL    HW116675   4.615   5.275   6.564  0.0678 -0.1404 -0.4385
 5285SOL    HW216676   4.776   5.294   6.539 -0.1286  2.2257 -0.0395
 5286SOL     OW16677   1.644   3.687   3.797  0.3751  0.5428  0.3736
 5286SOL    HW116678   1.617   3.716   3.706  2.0971 -1.3015 -0.7940
 5286SOL    HW216679   1.600   3.600   3.819 -1.2635  1.7037  2.0138
 5287SOL     OW16680   4.521   0.026   1.882 -0.0199  0.4578  0.2021
 5287SOL    HW116681   4.579   0.056   1.806 -0.3679 -1.2110 -0.7559
 5287SOL    HW216682   4.503  -0.072   1.874 -1.2454  0.5594  1.6630
 5288SOL     OW16683   2.226   6.213   5.417 -0.0942 -0.3026  0.0265
 5288SOL    HW116684   2.286   6.211   5.497 -1.0198  0.7271  0.7765
 5288SOL    HW216685   2.266   6.158   5.344  0.5540 -1.6280  1.3484
 5289SOL     OW16686   5.026   0.618   5.676 -0.1399 -0.1688 -0.5126
 5289SOL    HW116687   4.980   0.672   5.746 -1.2277  0.3031 -1.5557
 5289SOL    HW216688   5.045   0.676   5.596  1.0498 -0.6918 -0.6327
 5290SOL     OW16689   2.189   0.954   3.636  0.5969  0.0888 -0.2215
 5290SOL    HW116690   2.191   0.867   3.585  1.8466 -0.1087  0.1307
 5290SOL    HW216691   2.269   1.008   3.612  0.5246  0.5654  0.5735
 5291SOL     OW16692   6.269   3.416   0.410  0.5029 -0.2657  0.2022
 5291SOL    HW116693   6.238   3.417   0.315  0.2117 -2.2166  0.2240
 5291SOL    HW216694   6.346   3.479   0.420  0.3881  0.1672 -1.2698
 5292SOL     OW16695   5.660   0.683   3.857 -0.9881 -0.0198 -0.1141
 5292SOL    HW116696   5.753   0.709   3.830 -0.9613  0.7444  0.6624
 5292SOL    HW216697   5.648   0.584   3.845  0.4732 -0.4178  1.3383
 5293SOL     OW16698   6.079   5.404   1.917 -0.2857 -0.0382  0.5979
 5293SOL    HW116699   6.001   5.342   1.927 -0.7566  0.5524  0.6692
 5293SOL    HW216700   6.053   5.480   1.857  0.0454  0.4771  1.0955
 5294SOL     OW16701   5.728   4.303   1.550  0.1331 -0.7063  0.0708
 5294SOL    HW116702   5.749   4.378   1.487 -0.5852 -1.7524 -1.4916
 5294SOL    HW216703   5.780   4.314   1.635  2.5488 -0.1756 -1.3919
 5295SOL     OW16704   1.660   5.287   5.283 -0.4675 -0.7906 -0.2167
 5295SOL    HW116705   1.625   5.214   5.225 -0.2629 -1.7852  0.8796
 5295SOL    HW216706   1.721   5.346   5.230 -2.2400 -0.1318 -1.6720
 5296SOL     OW16707   3.551   5.211   1.862 -0.1712  0.1588 -0.0637
 5296SOL    HW116708   3.494   5.158   1.925 -0.4770 -0.1131 -0.5600
 5296SOL    HW216709   3.537   5.178   1.768 -1.8667  2.3763 -0.6719
 5297SOL     OW16710   4.624   2.392   5.222 -0.2886  0.1916 -0.1790
 5297SOL    HW116711   4.535   2.351   5.202 -0.0730  0.1494 -1.1009
 5297SOL    HW216712   4.695   2.323   5.213  0.1282  0.8022 -2.1493
 5298SOL     OW16713   0.524   2.777   3.102  0.8413  0.0249  0.0251
 5298SOL    HW116714   0.468   2.843   3.151  0.7335  1.0255 -1.3592
 5298SOL    HW216715   0.477   2.689   3.099  0.2493  0.3154  0.5546
 5299SOL     OW16716   2.019   5.384   4.682 -0.0073 -0.5432 -0.2413
 5299SOL    HW116717   2.057   5.477   4.678  0.9438 -0.7093  2.5360
 5299SOL    HW216718   2.064   5.326   4.615 -0.8684  1.0534 -2.2717
 5300SOL     OW16719   1.976   5.307   5.646  0.2089  0.1569  0.7474
 5300SOL    HW116720   1.962   5.315   5.744 -0.5634 -1.1170  0.7667
 5300SOL    HW216721   2.022   5.221   5.625  0.7717  0.6140  0.0191
 5301SOL     OW16722   1.463   0.100   3.546 -0.4645 -0.3262 -0.1711
 5301SOL    HW116723   1.528   0.099   3.622  0.4785 -2.5121 -0.9204
 5301SOL    HW216724   1.379   0.147   3.574 -0.0513 -0.8362  2.1080
 5302SOL     OW16725   1.785   2.103   6.288 -0.6402  0.0885 -0.0398
 5302SOL    HW116726   1.842   2.028   6.256 -0.8764 -0.2921  0.4216
 5302SOL    HW216727   1.716   2.068   6.352 -1.1489  0.6003 -0.2991
 5303SOL     OW16728   2.037   1.351   5.906  0.6449 -0.0614  0.3767
 5303SOL    HW116729   1.966   1.366   5.975 -2.5176  0.4971 -2.7215
 5303SOL    HW216730   2.052   1.436   5.855  2.8474 -0.4715  0.2680
 5304SOL     OW16731   2.094   6.991   3.713 -0.6644  0.8934  0.6592
 5304SOL    HW116732   2.072   6.983   3.616 -0.7106 -0.1579  0.7417
 5304SOL    HW216733   2.018   6.956   3.768  0.3466 -0.9267  0.9868
 5305SOL     OW16734   0.062   4.961   3.785  0.0338 -0.0988  0.1673
 5305SOL    HW116735   0.037   4.980   3.690 -1.3951 -0.0162  0.5434
 5305SOL    HW216736   0.004   4.888   3.821  1.1318 -0.6906  0.7519
 5306SOL     OW16737   1.520   6.029   6.444 -0.0138  0.5004 -0.5809
 5306SOL    HW116738   1.465   5.982   6.375  0.8845  0.3931 -1.2372
 5306SOL    HW216739   1.615   6.001   6.435  0.2053  0.9179  0.3445
 5307SOL     OW16740   5.136   0.707   2.428 -0.3196 -0.0049  0.1280
 5307SOL    HW116741   5.050   0.657   2.426  0.5863 -1.7073  1.1835
 5307SOL    HW216742   5.195   0.670   2.500  1.5939  0.6008 -1.0415
 5308SOL     OW16743   5.053   0.240   4.242 -1.2930 -0.0234 -0.1580
 5308SOL    HW116744   5.109   0.321   4.223 -0.8194 -0.4900 -0.7904
 5308SOL    HW216745   4.989   0.261   4.316 -1.2705  0.9705 -0.4011
 5309SOL     OW16746   2.274   6.466   0.737  0.7349  0.0483  0.6821
 5309SOL    HW116747   2.246   6.562   0.744 -0.0078 -0.2212  1.5760
 5309SOL    HW216748   2.347   6.458   0.670  0.6241  1.2071  0.3985
 5310SOL     OW16749   2.496   1.262   0.200 -0.3435  0.0266  0.2224
 5310SOL    HW116750   2.521   1.281   0.105 -0.7975 -0.1605  0.0622
 5310SOL    HW216751   2.440   1.180   0.204 -0.2577 -0.0137  0.6611
 5311SOL     OW16752   5.852   5.989   5.710  0.1042  0.1797  0.4986
 5311SOL    HW116753   5.788   6.019   5.780  0.2326  1.9060 -0.0676
 5311SOL    HW216754   5.889   5.899   5.734 -1.0437  0.0301  1.8122
 5312SOL     OW16755   1.061   1.293   6.942  0.3848 -0.0033  0.1660
 5312SOL    HW116756   1.019   1.317   7.030  0.6571  1.2596 -0.0243
 5312SOL    HW216757   0.989   1.280   6.873  0.2202  1.1198  0.0913
 5313SOL     OW16758   5.115   3.631   1.668  0.0619 -0.0636 -0.2838
 5313SOL    HW116759   5.063   3.716   1.677  0.9732  0.5548 -0.5593
 5313SOL    HW216760   5.096   3.590   1.579 -1.7114 -1.0952  0.5334
 5314SOL     OW16761   4.597   2.273   2.031  0.2870  0.1734  0.1705
 5314SOL    HW116762   4.501   2.287   2.056  0.6131  2.1622  0.5004
 5314SOL    HW216763   4.623   2.179   2.049 -1.3600 -0.1611  0.9513
 5315SOL     OW16764   5.049   6.097   4.742 -0.1240  0.0560  0.2060
 5315SOL    HW116765   5.111   6.139   4.809 -0.5564  2.2575 -0.7063
 5315SOL    HW216766   5.098   6.078   4.658 -0.3924  0.6827 -0.1028
 5316SOL     OW16767   6.235   6.468   3.064 -0.3013  0.5701 -0.4195
 5316SOL    HW116768   6.137   6.476   3.082  0.1316  1.3595  2.0598
 5316SOL    HW216769   6.259   6.523   2.984 -1.7782  0.9396 -0.6414
 5317SOL     OW16770   0.236   6.419   2.912  0.3494 -0.0726  0.4552
 5317SOL    HW116771   0.319   6.372   2.943 -0.1488 -1.0588  0.3146
 5317SOL    HW216772   0.261   6.501   2.861  1.2460  1.8071  3.6122
 5318SOL     OW16773   2.038   6.169   1.755  0.1919 -0.1633  0.0934
 5318SOL    HW116774   1.959   6.192   1.697 -1.3851  1.4210  2.6574
 5318SOL    HW216775   2.063   6.073   1.742 -1.1349 -0.2894 -1.9306
 5319SOL     OW16776   5.440   3.361   4.630 -0.3995 -0.0258  0.8131
 5319SOL    HW116777   5.364   3.386   4.570 -1.2181  0.0571  1.8449
 5319SOL    HW216778   5.503   3.438   4.639 -0.3093 -0.0146  0.1297
 5320SOL     OW16779   6.444   1.836   1.766 -0.6122 -0.3568 -0.2058
 5320SOL    HW116780   6.514   1.764   1.756 -1.1047 -0.8292 -0.3289
 5320SOL    HW216781   6.472   1.917   1.715  0.6945  0.1043  1.1726
 5321SOL     OW16782   2.422   1.334   0.507  0.3562 -0.4507 -0.0608
 5321SOL    HW116783   2.350   1.314   0.573 -1.2094 -0.5318 -1.7175
 5321SOL    HW216784   2.460   1.248   0.472  1.2858 -0.4085  0.7987
 5322SOL     OW16785   2.277   5.751   6.516 -0.5932 -0.2385 -0.6143
 5322SOL    HW116786   2.351   5.818   6.513 -1.8667  1.3991  1.7161
 5322SOL    HW216787   2.291   5.689   6.593 -0.7142 -1.0600 -1.2511
 5323SOL     OW16788   0.630   3.132   3.801 -0.0513  0.1054  1.1306
 5323SOL    HW116789   0.575   3.211   3.774 -1.5100 -0.8292  1.2800
 5323SOL    HW216790   0.706   3.121   3.737 -0.1403  1.3038  0.8031
 5324SOL     OW16791   6.376   6.811   4.613 -0.3523  1.0971 -0.2694
 5324SOL    HW116792   6.404   6.868   4.537 -1.0930  3.5488  1.1659
 5324SOL    HW216793   6.418   6.845   4.698 -2.9312  1.2450  1.0486
 5325SOL     OW16794   6.214   3.064   4.131  0.1097 -0.1144  0.2852
 5325SOL    HW116795   6.261   3.119   4.062 -0.8886 -0.9333 -1.1086
 5325SOL    HW216796   6.280   3.005   4.178  0.3986 -2.7897 -3.0667
 5326SOL     OW16797   1.190   1.295   0.631  0.2180 -0.1432 -0.0860
 5326SOL    HW116798   1.233   1.326   0.716  0.1117 -1.6960  0.5690
 5326SOL    HW216799   1.130   1.217   0.651 -1.3641  0.7181 -1.2929
 5327SOL     OW16800   5.902   2.694   6.258 -0.7374 -0.7783  0.1376
 5327SOL    HW116801   5.898   2.738   6.347  0.0940  2.4899 -1.3036
 5327SOL    HW216802   5.969   2.620   6.260  0.4205  0.2606  1.8001
 5328SOL     OW16803   6.744   3.543   0.423 -0.0221  0.2046  0.5560
 5328SOL    HW116804   6.799   3.465   0.453 -0.1551  0.1106  0.5561
 5328SOL    HW216805   6.765   3.622   0.481  0.4776  0.3044  0.2388
 5329SOL     OW16806   4.184   4.397   5.246  0.3419 -0.3853 -0.0496
 5329SOL    HW116807   4.095   4.358   5.224  1.0943 -1.9711 -0.3797
 5329SOL    HW216808   4.254   4.354   5.189  1.2072  1.5806 -0.5623
 5330SOL     OW16809   4.338   3.604   1.636  0.1496  0.7509 -0.7381
 5330SOL    HW116810   4.355   3.665   1.713 -0.6464 -0.1736  0.2066
 5330SOL    HW216811   4.283   3.651   1.567  0.0992  1.3013 -0.3268
 5331SOL     OW16812   2.739   5.161   2.342  0.1599  0.4696 -0.4581
 5331SOL    HW116813   2.817   5.161   2.280  0.6172 -0.5327  0.0727
 5331SOL    HW216814   2.655   5.176   2.291  0.4065 -1.3469 -1.5022
 5332SOL     OW16815   5.963   0.663   3.021 -0.5039  0.5130  0.4570
 5332SOL    HW116816   5.989   0.709   3.106  1.5725 -1.4548  0.9761
 5332SOL    HW216817   5.912   0.580   3.044  1.6489 -1.0147 -0.0563
 5333SOL     OW16818   2.681   6.553   4.031  0.1630  0.0459  0.0352
 5333SOL    HW116819   2.631   6.630   3.993  0.4336  0.4185  0.4277
 5333SOL    HW216820   2.639   6.526   4.117 -0.0333 -0.3559 -0.1825
 5334SOL     OW16821   3.283   6.780   6.943 -0.1750  0.0922 -0.0980
 5334SOL    HW116822   3.274   6.739   6.852 -0.1364 -1.0341  0.3906
 5334SOL    HW216823   3.377   6.768   6.975  0.1829  1.7102 -0.4692
 5335SOL     OW16824   1.698   0.491   6.894  0.2362 -0.3548  0.1094
 5335SOL    HW116825   1.786   0.444   6.896 -0.0942 -0.9964 -0.1016
 5335SOL    HW216826   1.624   0.424   6.896 -0.2453  0.1528 -0.1922
 5336SOL     OW16827   5.119   1.368   3.867  0.3227  0.5224 -0.4540
 5336SOL    HW116828   5.072   1.314   3.936  0.9219 -0.3821 -0.7292
 5336SOL    HW216829   5.218   1.362   3.881  0.3919  2.7219  0.3647
 5337SOL     OW16830   2.394   5.627   5.682 -0.0199  0.1729  0.3075
 5337SOL    HW116831   2.465   5.660   5.619  1.4529  1.0486  2.3243
 5337SOL    HW216832   2.331   5.701   5.703  0.3637  0.3035  1.0030
 5338SOL     OW16833   5.016   2.175   1.430  0.6061 -0.1134  0.4823
 5338SOL    HW116834   5.023   2.162   1.529  2.0773 -0.0912  0.4196
 5338SOL    HW216835   5.042   2.090   1.384 -2.0543 -0.8009  0.0846
 5339SOL     OW16836   4.905   2.987   1.878  0.2477  0.2513  0.2856
 5339SOL    HW116837   4.902   2.929   1.796 -1.3017  1.4409 -0.5585
 5339SOL    HW216838   4.831   2.959   1.940 -1.3958  2.0896 -0.7388
 5340SOL     OW16839   2.872   4.323   2.978  1.0224 -0.5281 -0.2983
 5340SOL    HW116840   2.862   4.230   3.014  1.2225 -1.0570 -1.5256
 5340SOL    HW216841   2.884   4.388   3.053  1.1846 -1.5400  0.5703
 5341SOL     OW16842   3.379   0.488   3.897  0.0503  0.4930  0.0045
 5341SOL    HW116843   3.387   0.410   3.836 -3.4154  0.7919 -1.0583
 5341SOL    HW216844   3.460   0.546   3.890  0.8662 -0.8318 -2.3608
 5342SOL     OW16845   0.370   4.509   5.855 -0.0815 -0.2838 -0.5355
 5342SOL    HW116846   0.274   4.483   5.857 -0.0819 -0.3556 -1.3805
 5342SOL    HW216847   0.415   4.466   5.777  0.5469  0.0804 -0.3844
 5343SOL     OW16848   4.586   6.893   5.014  0.5589 -0.1770  0.2511
 5343SOL    HW116849   4.663   6.862   4.958  0.5097  0.7253 -0.3501
 5343SOL    HW216850   4.606   6.877   5.111  1.3098 -0.3521  0.0758
 5344SOL     OW16851   4.735   2.684   2.937  0.0014  0.2204  0.0695
 5344SOL    HW116852   4.823   2.643   2.915 -0.1663  0.2937 -0.7462
 5344SOL    HW216853   4.725   2.690   3.037  0.4201 -0.8647  0.1916
 5345SOL     OW16854   3.123   6.352   1.650 -0.0034 -0.6546 -0.1059
 5345SOL    HW116855   3.108   6.261   1.687  2.1171 -1.0907 -0.1869
 5345SOL    HW216856   3.160   6.412   1.722 -2.1428  0.4215  0.1748
 5346SOL     OW16857   3.304   5.271   1.040 -0.1342  0.3278  0.2619
 5346SOL    HW116858   3.318   5.255   0.942  0.4037  1.4075  0.1536
 5346SOL    HW216859   3.247   5.352   1.052  0.0042  0.3409  0.8561
 5347SOL     OW16860   6.461   2.064   2.628  0.3332 -0.6971 -0.0940
 5347SOL    HW116861   6.370   2.089   2.594  0.2572  1.0167  1.2139
 5347SOL    HW216862   6.509   2.011   2.558 -0.1340  1.8562 -2.5511
 5348SOL     OW16863   5.378   5.263   2.621  0.4991 -0.0989 -0.0694
 5348SOL    HW116864   5.419   5.195   2.681  0.2918 -1.4977 -1.4506
 5348SOL    HW216865   5.279   5.264   2.633  0.5480  0.3109  0.3051
 5349SOL     OW16866   0.519   3.612   5.924  0.3955 -0.5953 -0.0259
 5349SOL    HW116867   0.527   3.672   5.845 -0.8713 -3.3684 -2.4126
 5349SOL    HW216868   0.609   3.574   5.945  0.8100  0.4488  0.1745
 5350SOL     OW16869   0.482   0.295   6.274  0.0483  0.0947 -0.5790
 5350SOL    HW116870   0.411   0.232   6.240  0.1296 -0.8069  0.8461
 5350SOL    HW216871   0.442   0.354   6.345  0.5685  0.0007 -0.2054
 5351SOL     OW16872   3.801   1.603   3.876 -0.0133 -0.2109 -0.4058
 5351SOL    HW116873   3.838   1.686   3.834 -0.3970  0.1258 -0.0919
 5351SOL    HW216874   3.877   1.548   3.912  0.3454 -0.6844 -1.8446
 5352SOL     OW16875   5.640   5.419   2.502  0.3264 -0.3816  0.4666
 5352SOL    HW116876   5.732   5.458   2.494  0.0645  0.4530  1.2731
 5352SOL    HW216877   5.575   5.477   2.452  0.1389 -0.5702  0.4905
 5353SOL     OW16878   5.961   6.663   3.799  0.4217 -0.5764  0.3657
 5353SOL    HW116879   5.939   6.666   3.702  1.4755  0.7440  0.1475
 5353SOL    HW216880   5.902   6.596   3.844  1.1902 -2.6100 -1.4866
 5354SOL     OW16881   1.122   3.237   0.548  0.0627  0.3285 -0.0433
 5354SOL    HW116882   1.216   3.207   0.531 -0.7378 -1.5521 -1.4492
 5354SOL    HW216883   1.063   3.158   0.557 -1.6916  1.4893 -0.8767
 5355SOL     OW16884   4.357   2.392   1.194 -0.5599 -0.4083 -0.1645
 5355SOL    HW116885   4.339   2.303   1.153 -0.8382 -0.0547 -0.8345
 5355SOL    HW216886   4.425   2.383   1.266 -1.4267 -1.3453  0.5662
 5356SOL     OW16887   0.092   4.488   5.696 -0.1951 -0.7190  0.1853
 5356SOL    HW116888   0.163   4.518   5.632  0.3630 -0.0929  1.0690
 5356SOL    HW216889   0.011   4.545   5.685 -0.7737 -1.7463 -1.1669
 5357SOL     OW16890   4.006   2.457   5.916 -0.9261 -0.3498 -0.6008
 5357SOL    HW116891   4.062   2.420   5.990 -0.1622 -1.2385 -1.6048
 5357SOL    HW216892   4.064   2.488   5.842 -1.7296 -0.7992 -1.4429
 5358SOL     OW16893   2.269   4.672   5.096 -0.7679  0.0238  0.1867
 5358SOL    HW116894   2.364   4.681   5.126 -1.3565 -0.0607  2.2283
 5358SOL    HW216895   2.211   4.732   5.151 -1.8810  0.3412 -1.2547
 5359SOL     OW16896   5.843   4.699   6.028  0.4843  0.3071  0.3711
 5359SOL    HW116897   5.909   4.734   6.095  0.9275 -1.0147  0.6654
 5359SOL    HW216898   5.827   4.602   6.045 -0.2074  0.1958 -0.7907
 5360SOL     OW16899   3.072   1.539   6.315 -0.0906 -0.4478  0.1926
 5360SOL    HW116900   3.034   1.488   6.237  0.8958 -0.4390 -0.3026
 5360SOL    HW216901   2.998   1.587   6.362 -0.6536 -0.2147 -0.9167
 5361SOL     OW16902   2.517   1.313   6.938  0.0591 -0.4492 -0.5994
 5361SOL    HW116903   2.559   1.286   6.852 -0.9638 -0.3857 -1.1274
 5361SOL    HW216904   2.418   1.323   6.926 -0.4593 -2.5914  1.0887
 5362SOL     OW16905   1.271   0.234   2.796 -0.6647  0.1087  0.5419
 5362SOL    HW116906   1.363   0.249   2.762 -1.0373 -1.6295 -1.4561
 5362SOL    HW216907   1.219   0.319   2.790  0.4132  0.7667  0.4071
 5363SOL     OW16908   4.295   5.774   5.108  0.4133 -0.2464  0.8234
 5363SOL    HW116909   4.294   5.872   5.129  2.6715  0.2069 -0.7954
 5363SOL    HW216910   4.203   5.743   5.087 -0.3245  1.5665  1.2004
 5364SOL     OW16911   2.344   4.866   3.442 -0.1616  0.2992  0.0977
 5364SOL    HW116912   2.355   4.954   3.489  1.2477  0.4692 -0.5033
 5364SOL    HW216913   2.249   4.836   3.451 -0.6507  1.8165  0.4358
 5365SOL     OW16914   4.001   5.457   2.833  0.3118  0.2903  0.1718
 5365SOL    HW116915   4.087   5.450   2.782 -0.0750 -2.8150 -0.2181
 5365SOL    HW216916   4.020   5.475   2.929  1.2458  1.5529 -0.2129
 5366SOL     OW16917   4.989   5.850   1.860  0.3197 -0.3977 -0.3740
 5366SOL    HW116918   4.933   5.769   1.875  0.7673 -0.9666 -1.6252
 5366SOL    HW216919   4.945   5.929   1.901  0.1672 -1.3570  1.3986
 5367SOL     OW16920   6.430   4.877   6.616  0.2151  0.1637  0.0096
 5367SOL    HW116921   6.403   4.935   6.693  0.0261 -0.5369  0.4838
 5367SOL    HW216922   6.529   4.881   6.604  0.5207 -1.2526  1.5924
 5368SOL     OW16923   3.387   2.990   0.923 -0.1787  0.1805 -0.3562
 5368SOL    HW116924   3.424   2.946   0.842  0.9422  1.8563 -0.8233
 5368SOL    HW216925   3.348   3.079   0.897  0.4138  0.8470  0.9393
 5369SOL     OW16926   4.515   6.733   6.931 -0.2799  0.2212  0.9461
 5369SOL    HW116927   4.538   6.802   7.000 -0.3185  0.2751  0.9083
 5369SOL    HW216928   4.432   6.761   6.883 -1.0835 -0.5316  1.8497
 5370SOL     OW16929   3.210   2.744   1.484 -0.4895 -0.4910 -0.2411
 5370SOL    HW116930   3.114   2.761   1.459 -0.0143  1.5223 -0.8993
 5370SOL    HW216931   3.240   2.657   1.445 -1.0053  0.5570 -3.2547
 5371SOL     OW16932   0.783   6.121   3.082  0.3380 -0.2246 -0.2068
 5371SOL    HW116933   0.861   6.147   3.025  0.8906 -2.3366 -0.4844
 5371SOL    HW216934   0.803   6.144   3.178  0.2646  1.4333 -0.5574
 5372SOL     OW16935   2.049   5.471   3.350  0.2061  0.0920 -0.2239
 5372SOL    HW116936   1.992   5.553   3.345  0.6226  0.3426 -1.0725
 5372SOL    HW216937   2.103   5.463   3.266  0.0678 -1.1382 -0.2151
 5373SOL     OW16938   2.495   5.243   0.917 -0.0702 -0.0748  0.3527
 5373SOL    HW116939   2.413   5.195   0.886  1.1284 -2.3695  0.5255
 5373SOL    HW216940   2.502   5.239   1.016  0.4422 -0.2372  0.3150
 5374SOL     OW16941   0.871   3.057   3.654  0.4004  0.0432  0.5036
 5374SOL    HW116942   0.914   3.103   3.731  0.1461  0.4959  0.3786
 5374SOL    HW216943   0.909   3.093   3.568 -1.6719  1.9659  0.3108
 5375SOL     OW16944   2.379   4.386   2.832  0.2154 -0.2815  0.1594
 5375SOL    HW116945   2.319   4.332   2.772 -1.2272  0.4161  0.9055
 5375SOL    HW216946   2.473   4.380   2.799 -0.3324 -0.9595 -1.4108
 5376SOL     OW16947   5.633   3.569   4.645 -0.5425  0.2811 -0.1818
 5376SOL    HW116948   5.651   3.612   4.734 -0.2672 -1.1000  0.4498
 5376SOL    HW216949   5.570   3.627   4.593 -0.1041  1.4906  0.5906
 5377SOL     OW16950   4.774   6.452   3.897 -0.1855  0.3204  0.5091
 5377SOL    HW116951   4.868   6.465   3.867 -0.8106  0.1364 -1.7015
 5377SOL    HW216952   4.728   6.540   3.905 -0.8537  0.3150 -2.1995
 5378SOL     OW16953   6.097   2.748   5.616 -0.8709  0.3722 -0.8220
 5378SOL    HW116954   6.144   2.747   5.704  0.5977  2.7737 -1.4636
 5378SOL    HW216955   6.146   2.691   5.551 -2.0091 -1.4836 -0.0933
 5379SOL     OW16956   3.655   3.035   6.357 -0.3339 -0.4030  0.4959
 5379SOL    HW116957   3.652   3.030   6.257  0.1788 -0.1014  0.4620
 5379SOL    HW216958   3.579   2.983   6.396 -0.4146 -0.6930 -0.0472
 5380SOL     OW16959   5.446   1.745   6.299 -0.3223  0.2986 -0.4233
 5380SOL    HW116960   5.405   1.819   6.247  0.2954  0.6622 -0.4056
 5380SOL    HW216961   5.544   1.762   6.310 -0.3418 -0.0107  0.4428
 5381SOL     OW16962   2.500   6.082   4.676  0.6778  0.0421  0.6373
 5381SOL    HW116963   2.596   6.072   4.702  1.2291  1.4792 -0.6510
 5381SOL    HW216964   2.461   5.992   4.657  1.2580 -0.7179  2.7750
 5382SOL     OW16965   2.282   1.472   5.240 -0.4799  0.4130 -1.3823
 5382SOL    HW116966   2.189   1.439   5.259  0.0815  0.0319  0.9903
 5382SOL    HW216967   2.348   1.412   5.284  0.8321  1.6497 -1.6024
 5383SOL     OW16968   6.111   5.283   4.310  0.1584  0.1198 -0.2300
 5383SOL    HW116969   6.193   5.226   4.303 -0.1619 -0.6414  1.6213
 5383SOL    HW216970   6.050   5.262   4.234  1.9759  1.3105 -2.1302
 5384SOL     OW16971   2.409   0.865   5.728 -0.5003  0.0945 -0.5333
 5384SOL    HW116972   2.405   0.871   5.828  2.1142 -0.2915 -0.3265
 5384SOL    HW216973   2.387   0.771   5.700  2.8104 -1.0264  0.1378
 5385SOL     OW16974   4.809   2.459   5.641 -0.6148 -0.0267  0.1919
 5385SOL    HW116975   4.728   2.517   5.628 -0.5629  0.2850  1.1614
 5385SOL    HW216976   4.805   2.382   5.579 -2.0175 -0.3837  0.6770
 5386SOL     OW16977   1.214   3.351   5.642  0.0916 -0.2255 -0.1259
 5386SOL    HW116978   1.218   3.445   5.678  0.0231 -0.1006 -0.4463
 5386SOL    HW216979   1.177   3.352   5.550 -0.0208 -0.5834 -0.0866
 5387SOL     OW16980   6.012   6.214   2.156 -0.4838  0.2918 -0.4487
 5387SOL    HW116981   6.007   6.313   2.163  1.3627  0.3287  1.2239
 5387SOL    HW216982   6.002   6.174   2.248 -1.6885 -1.1070 -1.1567
 5388SOL     OW16983   0.054   0.093   4.805  0.2713 -1.1649 -0.7709
 5388SOL    HW116984  -0.044   0.073   4.811  0.0778 -0.0811 -0.5582
 5388SOL    HW216985   0.095   0.086   4.896  0.0946 -0.2334 -0.6053
 5389SOL     OW16986   1.270   2.755   5.914  0.2693 -0.4041  0.0266
 5389SOL    HW116987   1.270   2.710   6.004 -0.0862  1.0194  0.7790
 5389SOL    HW216988   1.179   2.748   5.874 -0.1674  0.7599  0.7584
 5390SOL     OW16989   1.633   5.620   5.975  0.1970  0.4844 -0.2753
 5390SOL    HW116990   1.671   5.712   5.971  0.9602  0.2565  0.9220
 5390SOL    HW216991   1.658   5.570   5.892  1.3686  0.7892 -0.1331
 5391SOL     OW16992   4.006   1.238   3.206  0.7061  0.2223 -0.1996
 5391SOL    HW116993   3.915   1.204   3.184  0.3238  0.2989  1.2084
 5391SOL    HW216994   4.072   1.163   3.201  0.2702 -0.2119  0.4582
 5392SOL     OW16995   3.678   3.526   1.941  0.3215  0.9213  0.2713
 5392SOL    HW116996   3.733   3.528   1.858  1.1244 -0.8540  0.7237
 5392SOL    HW216997   3.714   3.592   2.007  1.3377  0.4568  0.2027
 5393SOL     OW16998   0.733   1.191   4.038 -0.2464  0.3087 -0.2499
 5393SOL    HW116999   0.730   1.271   4.097 -0.2421  0.6583 -0.7167
 5393SOL    HW217000   0.828   1.165   4.020 -0.1766 -1.5708  2.2481
 5394SOL     OW17001   0.691   4.275   4.229 -0.3192  0.1295  0.2532
 5394SOL    HW117002   0.595   4.246   4.236  0.2169 -1.7831  0.4209
 5394SOL    HW217003   0.748   4.195   4.209  1.2071  1.2907 -0.2201
 5395SOL     OW17004   3.040   0.590   5.812  0.3564  0.1901  0.2311
 5395SOL    HW117005   2.957   0.632   5.850  0.4429  1.8566 -1.2747
 5395SOL    HW217006   3.015   0.512   5.756 -0.4546  1.7567 -1.7053
 5396SOL     OW17007   2.206   1.025   1.320 -0.2764 -0.3267  0.3515
 5396SOL    HW117008   2.252   1.104   1.279  1.7209 -0.8443  1.4205
 5396SOL    HW217009   2.118   1.010   1.275  0.2560  1.1819 -1.3185
 5397SOL     OW17010   2.247   6.539   4.331 -0.0075  0.0968  0.4562
 5397SOL    HW117011   2.162   6.527   4.279 -0.1044  0.2427  0.5808
 5397SOL    HW217012   2.265   6.637   4.343 -0.1459  0.0634  0.9586
 5398SOL     OW17013   4.444   1.591   5.297 -0.3558 -0.3604 -0.3242
 5398SOL    HW117014   4.433   1.595   5.397  0.8283 -0.2006 -0.1824
 5398SOL    HW217015   4.385   1.660   5.255 -1.1038 -0.6376  0.2431
 5399SOL     OW17016   5.315   4.058   4.394  0.8842  0.2366 -0.1867
 5399SOL    HW117017   5.395   4.061   4.453  0.5832 -1.3957  0.3284
 5399SOL    HW217018   5.338   4.011   4.308  0.2636 -1.0646  0.3378
 5400SOL     OW17019   0.361   3.573   4.603 -0.7008  0.0651 -0.1877
 5400SOL    HW117020   0.435   3.508   4.587  0.2296  1.5145 -2.1376
 5400SOL    HW217021   0.398   3.666   4.610 -2.1365  0.5998  1.1149
 5401SOL     OW17022   6.886   5.717   3.756  0.0724  0.1771  0.4823
 5401SOL    HW117023   6.961   5.660   3.791  1.3963  1.8363  0.4577
 5401SOL    HW217024   6.890   5.720   3.657  0.3581  0.7616  0.5085
 5402SOL     OW17025   4.047   3.485   0.363  0.3476 -0.4253 -0.4900
 5402SOL    HW117026   3.953   3.504   0.338  1.2616  0.5806 -3.5240
 5402SOL    HW217027   4.075   3.545   0.438 -0.8055  0.6172 -0.8731
 5403SOL     OW17028   4.472   2.149   6.638 -0.4642 -0.2199 -0.1459
 5403SOL    HW117029   4.502   2.071   6.694  2.0425  1.0723  0.4910
 5403SOL    HW217030   4.542   2.168   6.569 -0.8838  1.5776 -0.1161
 5404SOL     OW17031   5.057   0.698   6.073  0.2445 -0.4519 -0.0889
 5404SOL    HW117032   5.013   0.743   5.995  1.2195  0.3182 -0.2123
 5404SOL    HW217033   5.134   0.642   6.040 -0.7656 -1.9939  0.0948
 5405SOL     OW17034   4.793   3.393   3.715  0.1746  0.1703 -0.2820
 5405SOL    HW117035   4.773   3.307   3.763  2.4503 -0.9473 -1.2249
 5405SOL    HW217036   4.715   3.416   3.655 -0.4216 -1.3212 -0.1280
 5406SOL     OW17037   1.620   0.473   6.102  0.0389  0.3120 -0.4011
 5406SOL    HW117038   1.567   0.545   6.057  0.9696  1.6456  0.5545
 5406SOL    HW217039   1.609   0.480   6.201  1.8347  0.5142 -0.1823
 5407SOL     OW17040   5.989   4.696   0.547  0.4160 -0.8831  0.4742
 5407SOL    HW117041   6.056   4.770   0.558  2.7233 -2.6885 -0.5411
 5407SOL    HW217042   5.928   4.718   0.470  1.0486 -0.0211  0.1990
 5408SOL     OW17043   0.450   5.643   4.209  0.2329  0.0512 -0.2033
 5408SOL    HW117044   0.500   5.609   4.289  1.5967  1.2963 -0.4631
 5408SOL    HW217045   0.353   5.648   4.230  0.3888 -0.9224  0.9042
 5409SOL     OW17046   0.867   6.177   4.178 -0.1356  0.2989 -0.1542
 5409SOL    HW117047   0.867   6.200   4.081 -0.6044 -2.8575 -1.0290
 5409SOL    HW217048   0.773   6.170   4.211 -0.1564 -1.9847 -0.4957
 5410SOL     OW17049   5.297   4.029   6.246 -0.0908  0.1323  0.4715
 5410SOL    HW117050   5.225   4.059   6.183 -0.7981  1.0345  1.6592
 5410SOL    HW217051   5.385   4.067   6.216 -0.7702  2.5580  1.2323
 5411SOL     OW17052   1.062   6.533   5.699 -0.6127  0.2753  0.1990
 5411SOL    HW117053   0.966   6.510   5.710 -0.0343 -1.1080  3.4732
 5411SOL    HW217054   1.118   6.471   5.755  2.0305  2.2543 -0.0457
 5412SOL     OW17055   2.520   1.670   2.411 -0.6798  0.2333  0.0763
 5412SOL    HW117056   2.540   1.765   2.437  0.6844 -0.2122  0.7238
 5412SOL    HW217057   2.558   1.651   2.321  1.1382 -0.3484  0.9249
 5413SOL     OW17058   5.326   0.425   1.027  0.1998  0.2370 -0.0251
 5413SOL    HW117059   5.329   0.398   1.123  0.2863 -0.3388 -0.1831
 5413SOL    HW217060   5.368   0.516   1.016  0.1423  0.3259  0.4827
 5414SOL     OW17061   3.833   6.087   6.168 -0.3776  0.1385 -0.0144
 5414SOL    HW117062   3.810   6.038   6.252  2.6740 -0.9520  0.3082
 5414SOL    HW217063   3.757   6.080   6.103 -1.2360 -2.4540  1.1488
 5415SOL     OW17064   5.285   0.067   6.117  0.4355 -0.4786 -0.4391
 5415SOL    HW117065   5.358   0.135   6.109 -0.0848  0.0127 -1.0730
 5415SOL    HW217066   5.213   0.102   6.177  0.7094 -0.9689  0.2003
 5416SOL     OW17067   1.507   1.136   0.407  0.6215  0.4036 -0.2047
 5416SOL    HW117068   1.563   1.158   0.487 -0.5460  0.9899  0.4771
 5416SOL    HW217069   1.476   1.042   0.413 -0.9838  0.9610  1.0202
 5417SOL     OW17070   5.305   3.756   6.192 -0.4537  0.8081  0.8066
 5417SOL    HW117071   5.282   3.852   6.206 -2.0993  0.8362 -1.4459
 5417SOL    HW217072   5.235   3.698   6.235  0.2689  0.5809  1.7327
 5418SOL     OW17073   5.251   0.665   1.927 -0.0883  0.1772  0.0687
 5418SOL    HW117074   5.166   0.614   1.939 -0.3991  0.9228  1.1090
 5418SOL    HW217075   5.234   0.745   1.870 -0.6367  1.6372  2.2156
 5419SOL     OW17076   2.102   3.208   0.744 -0.4671 -0.3600 -0.0257
 5419SOL    HW117077   2.027   3.160   0.699 -0.7117 -0.0323  0.0171
 5419SOL    HW217078   2.119   3.166   0.834 -1.3511  0.2440  0.4391
 5420SOL     OW17079   0.905   5.494   6.587  0.8452 -0.5937 -0.5256
 5420SOL    HW117080   0.970   5.568   6.576  0.9561 -0.5174  0.5610
 5420SOL    HW217081   0.824   5.527   6.635  0.4902 -0.9594 -0.8518
 5421SOL     OW17082   0.136   2.008   4.277  0.0943  0.6474 -0.2189
 5421SOL    HW117083   0.235   1.999   4.288  0.1971  1.0185 -0.8322
 5421SOL    HW217084   0.107   2.101   4.301 -0.4012 -0.0177  1.9814
 5422SOL     OW17085   2.560   4.821   2.557 -0.2510  0.1196 -0.1822
 5422SOL    HW117086   2.597   4.807   2.648 -2.6656  0.8471  1.0027
 5422SOL    HW217087   2.461   4.832   2.562 -0.4629  0.3333 -2.8933
 5423SOL     OW17088   0.921   6.601   4.024  0.1782 -0.1362 -0.0387
 5423SOL    HW117089   0.911   6.584   4.122 -0.0317  0.6046  0.0740
 5423SOL    HW217090   0.901   6.697   4.004  1.4549  0.0283 -0.6291
 5424SOL     OW17091   6.244   3.778   1.338 -0.2825 -0.1701 -0.3819
 5424SOL    HW117092   6.170   3.845   1.345  0.6381  0.8118  0.1125
 5424SOL    HW217093   6.295   3.794   1.254  2.0252  1.9832  1.3151
 5425SOL     OW17094   2.175   2.430   2.344 -0.1559 -0.1516 -0.2636
 5425SOL    HW117095   2.076   2.424   2.360  0.0315 -2.1766  0.5314
 5425SOL    HW217096   2.204   2.353   2.287  1.2639 -0.9650  1.4563
 5426SOL     OW17097   3.847   0.633   0.966  0.1068 -0.1420 -0.2781
 5426SOL    HW117098   3.904   0.640   1.048  0.7711  0.3102 -0.7634
 5426SOL    HW217099   3.842   0.538   0.937 -0.2008 -0.3141  0.3332
 5427SOL     OW17100   6.874   6.167   5.501  0.0415  0.0220 -0.1136
 5427SOL    HW117101   6.889   6.094   5.567 -0.8715  0.8153  1.0138
 5427SOL    HW217102   6.887   6.256   5.545  1.9174  0.5849 -1.6504
 5428SOL     OW17103   6.320   3.223   6.857  0.3487 -0.1506 -0.6455
 5428SOL    HW117104   6.284   3.317   6.857  0.8066  0.0723  1.6630
 5428SOL    HW217105   6.260   3.164   6.910 -0.3418 -1.4052 -2.6951
 5429SOL     OW17106   4.458   5.690   0.078 -0.0738  0.4441 -0.5121
 5429SOL    HW117107   4.372   5.641   0.067  0.0392  0.1470 -0.0951
 5429SOL    HW217108   4.491   5.721  -0.011 -0.6885  0.6973 -0.6302
 5430SOL     OW17109   1.750   4.277   0.654 -0.1011 -0.4241  0.1763
 5430SOL    HW117110   1.766   4.253   0.558  0.7642  4.1357 -1.0405
 5430SOL    HW217111   1.826   4.243   0.710  0.4049 -1.4547 -1.0968
 5431SOL     OW17112   3.546   3.529   3.750  0.4128  0.1929  0.1772
 5431SOL    HW117113   3.537   3.604   3.815  1.6653  1.2335 -0.7807
 5431SOL    HW217114   3.615   3.465   3.781  0.2686  0.1283  0.3681
 5432SOL     OW17115   0.794   4.689   4.955  0.0069 -0.4240  0.1587
 5432SOL    HW117116   0.754   4.777   4.932  1.6021  0.3174  0.0777
 5432SOL    HW217117   0.745   4.616   4.906 -1.9522  0.2629  0.9912
 5433SOL     OW17118   5.704   3.632   6.093 -0.3290 -0.0999  0.3487
 5433SOL    HW117119   5.735   3.585   6.176  1.8057  0.6226  0.0164
 5433SOL    HW217120   5.760   3.604   6.015  1.1708  2.9757  0.1580
 5434SOL     OW17121   3.995   4.083   0.960  0.0592  0.0695  0.4759
 5434SOL    HW117122   3.902   4.120   0.959  0.5064  1.3877 -1.8670
 5434SOL    HW217123   4.038   4.101   0.871  2.6064 -0.3838  1.5383
 5435SOL     OW17124   3.029   0.108   2.578 -0.2115  0.0641  0.1280
 5435SOL    HW117125   3.098   0.176   2.554 -2.0325  1.6667 -0.8326
 5435SOL    HW217126   2.998   0.125   2.672 -1.7368  1.6380 -0.5932
 5436SOL     OW17127   0.440   2.815   4.870  0.3253 -0.6190 -0.4575
 5436SOL    HW117128   0.449   2.716   4.865  2.9790 -0.4356 -0.6682
 5436SOL    HW217129   0.507   2.852   4.935  0.1123  1.0913 -1.1509
 5437SOL     OW17130   2.845   4.131   1.959  0.2188  0.0455  0.5394
 5437SOL    HW117131   2.838   4.141   1.860  0.7971  1.1233  0.5929
 5437SOL    HW217132   2.766   4.081   1.993  0.3099 -0.8813 -0.5291
 5438SOL     OW17133   6.059   3.277   1.379 -0.1857 -0.7197  0.1369
 5438SOL    HW117134   5.970   3.286   1.423 -0.1686 -1.5280  0.3455
 5438SOL    HW217135   6.115   3.211   1.430 -0.0442 -1.4270 -0.9193
 5439SOL     OW17136   6.664   0.949   3.377  0.9191 -0.0618 -0.3318
 5439SOL    HW117137   6.630   1.024   3.434  0.3157 -0.7078  0.1774
 5439SOL    HW217138   6.609   0.944   3.294 -0.6204 -1.4217  0.7199
 5440SOL     OW17139   4.550   0.681   0.612  0.1396 -0.2103 -0.5714
 5440SOL    HW117140   4.586   0.660   0.702  2.0303 -0.4817 -1.3296
 5440SOL    HW217141   4.468   0.626   0.594 -1.8934  1.7397  1.9145
 5441SOL     OW17142   4.074   3.517   0.754 -0.0261 -0.4364 -0.0017
 5441SOL    HW117143   4.167   3.547   0.731  0.0499 -1.6451 -1.4014
 5441SOL    HW217144   4.062   3.518   0.853  0.7572  1.7716  0.1412
 5442SOL     OW17145   0.445   0.287   6.916  0.2291  0.6255  0.2875
 5442SOL    HW117146   0.453   0.232   6.999  1.8895  1.9578  1.0872
 5442SOL    HW217147   0.464   0.230   6.836 -0.8689 -0.5545  0.8340
 5443SOL     OW17148   3.337   0.693   4.525 -1.0176  0.0489 -0.2393
 5443SOL    HW117149   3.385   0.628   4.585  1.0235  1.4798 -0.2065
 5443SOL    HW217150   3.318   0.777   4.577  0.1192  1.0312 -1.3595
 5444SOL     OW17151   3.342   6.737   2.083 -0.2864  0.1390  0.1635
 5444SOL    HW117152   3.372   6.738   1.987  2.8328  0.5126  1.0326
 5444SOL    HW217153   3.285   6.817   2.100 -1.9331 -0.5639 -1.6120
 5445SOL     OW17154   5.867   0.459   2.254  0.0991  0.5346 -0.2537
 5445SOL    HW117155   5.838   0.548   2.288  0.6538  0.3842  0.6322
 5445SOL    HW217156   5.892   0.466   2.158  1.6143  1.6716  0.1986
 5446SOL     OW17157   2.006   1.563   2.565  0.1878 -0.2362  0.4188
 5446SOL    HW117158   2.105   1.568   2.548  0.0042 -1.6292 -1.3397
 5446SOL    HW217159   1.983   1.472   2.600 -0.5473 -0.1712  0.1188
 5447SOL     OW17160   0.710   4.591   4.650  0.1314  0.3738  0.2012
 5447SOL    HW117161   0.802   4.552   4.661 -0.0549  0.2425  1.3930
 5447SOL    HW217162   0.662   4.544   4.576  1.4451  1.2512 -1.2736
 5448SOL     OW17163   2.081   3.032   2.327 -0.5822  0.0399 -0.1265
 5448SOL    HW117164   2.169   2.992   2.355 -1.3594 -1.0610  0.8609
 5448SOL    HW217165   2.023   3.044   2.408 -2.1652 -1.3615 -0.9864
 5449SOL     OW17166   6.500   6.507   5.846  0.2018 -0.2295  0.2117
 5449SOL    HW117167   6.473   6.515   5.942  1.4605  1.7662  0.4598
 5449SOL    HW217168   6.591   6.546   5.833  0.1996 -0.7507 -1.7462
 5450SOL     OW17169   5.063   0.499   1.689 -0.0342  0.0800 -0.5236
 5450SOL    HW117170   5.008   0.578   1.661 -0.7928 -0.3655 -0.3333
 5450SOL    HW217171   5.058   0.489   1.789 -2.3228 -1.8760 -0.7513
 5451SOL     OW17172   2.939   1.562   3.742  0.4480 -0.5829  0.6107
 5451SOL    HW117173   2.875   1.521   3.678 -0.6936 -0.0105  1.3467
 5451SOL    HW217174   3.022   1.590   3.694 -0.3846 -0.1636 -0.6089
 5452SOL     OW17175   2.406   0.528   5.405 -0.8989  1.1002  0.2648
 5452SOL    HW117176   2.447   0.619   5.402  1.4788  0.1262  1.3294
 5452SOL    HW217177   2.433   0.476   5.324  1.3457 -0.0185  1.6153
 5453SOL     OW17178   1.052   0.356   1.724 -0.4420  0.7347  0.2093
 5453SOL    HW117179   0.994   0.285   1.762 -0.6352  0.2195 -1.0096
 5453SOL    HW217180   1.113   0.391   1.795  1.9805 -2.9308  0.1327
 5454SOL     OW17181   1.796   2.640   6.857 -0.1983  0.1672  0.0796
 5454SOL    HW117182   1.704   2.665   6.828 -0.2986 -0.2353  0.0389
 5454SOL    HW217183   1.816   2.684   6.945  0.2613  1.7197 -0.7747
 5455SOL     OW17184   4.703   5.859   6.018  0.6338  0.1930  0.4690
 5455SOL    HW117185   4.663   5.930   5.960 -1.3926  0.4895  2.1114
 5455SOL    HW217186   4.635   5.789   6.037  1.7259 -0.7072  1.2380
 5456SOL     OW17187   0.674   1.506   5.247 -0.3320  0.4201  0.3288
 5456SOL    HW117188   0.773   1.517   5.241  0.0003 -1.7681  1.1231
 5456SOL    HW217189   0.646   1.497   5.342 -1.5759  2.8025  0.2717
 5457SOL     OW17190   2.820   2.145   6.137 -0.8476 -0.1218  0.3280
 5457SOL    HW117191   2.758   2.197   6.078 -0.1341  0.7987  0.3729
 5457SOL    HW217192   2.848   2.060   6.090  0.4050  1.0029 -1.0660
 5458SOL     OW17193   6.769   0.834   2.149 -0.3190  0.0016  0.0062
 5458SOL    HW117194   6.805   0.797   2.064  0.9495 -0.6819  0.8267
 5458SOL    HW217195   6.782   0.934   2.150  0.2535 -0.0676 -0.3182
 5459SOL     OW17196   1.996   3.308   4.601  0.4841  0.6626 -0.1428
 5459SOL    HW117197   1.976   3.219   4.561 -0.7094  1.0861 -0.5508
 5459SOL    HW217198   2.019   3.297   4.698  1.9543 -0.2266 -0.5628
 5460SOL     OW17199   0.146   1.478   0.854  0.3457 -0.3416  0.6143
 5460SOL    HW117200   0.098   1.423   0.785  0.5822  1.1360 -0.7912
 5460SOL    HW217201   0.089   1.487   0.935 -0.9849 -0.1924 -0.3005
 5461SOL     OW17202   2.366   0.005   2.021  0.4351 -0.7588 -0.1389
 5461SOL    HW117203   2.449   0.007   2.077  1.4112  0.3752 -1.5503
 5461SOL    HW217204   2.367  -0.075   1.961 -0.6722 -2.0191  1.4462
 5462SOL     OW17205   2.105   6.483   4.682  0.0765 -0.8436  0.2824
 5462SOL    HW117206   2.085   6.571   4.726 -3.9241 -1.0219 -0.7860
 5462SOL    HW217207   2.121   6.414   4.752 -2.2454 -0.3051  1.4508
 5463SOL     OW17208   1.484   5.846   6.882 -0.3762  0.1874 -0.5300
 5463SOL    HW117209   1.405   5.876   6.828 -0.6939  1.0819  0.3805
 5463SOL    HW217210   1.501   5.913   6.955  1.2917  0.0643 -0.7625
 5464SOL     OW17211   5.975   6.489   2.186 -0.1578 -0.1402  0.2879
 5464SOL    HW117212   6.044   6.541   2.236  2.0014 -0.6470 -2.0031
 5464SOL    HW217213   5.932   6.547   2.117  1.3437 -0.9228 -1.3994
 5465SOL     OW17214   3.979   2.440   1.003 -0.3378 -1.0631 -0.2761
 5465SOL    HW117215   4.036   2.444   0.921 -0.7100 -0.7546 -0.5204
 5465SOL    HW217216   4.002   2.358   1.055  0.8480 -0.5669  0.0113
 5466SOL     OW17217   6.151   5.563   5.874  0.7751  0.2739  0.1815
 5466SOL    HW117218   6.240   5.536   5.912  0.8022 -1.4850 -1.0164
 5466SOL    HW217219   6.162   5.587   5.778  0.4829  3.3987  0.8280
 5467SOL     OW17220   2.316   5.599   6.780 -0.0081  0.2510  0.0297
 5467SOL    HW117221   2.403   5.648   6.773  0.0585  0.1069 -0.1589
 5467SOL    HW217222   2.297   5.579   6.876 -0.0441  0.6612  0.1110
 5468SOL     OW17223   3.929   1.574   2.706  0.3247  0.2572 -0.3686
 5468SOL    HW117224   3.874   1.551   2.626 -2.1862  0.4972  1.1844
 5468SOL    HW217225   3.914   1.506   2.777 -0.2711  1.8693  1.1243
 5469SOL     OW17226   2.154   3.069   2.607 -0.1421  0.2081 -0.1898
 5469SOL    HW117227   2.240   3.047   2.653  1.0958  1.5969 -1.6745
 5469SOL    HW217228   2.111   2.985   2.574  1.8556 -0.4066 -1.4158
 5470SOL     OW17229   2.590   3.313   1.139 -0.4065 -0.5249  0.8015
 5470SOL    HW117230   2.544   3.398   1.166  1.7313  1.7869 -2.1261
 5470SOL    HW217231   2.522   3.241   1.127 -2.6442  1.4015  1.1690
 5471SOL     OW17232   6.878   3.144   6.848  0.1253  0.1522  0.2741
 5471SOL    HW117233   6.940   3.116   6.774  1.5436  1.5517  0.8965
 5471SOL    HW217234   6.784   3.129   6.818  0.6949 -0.6916 -1.2539
 5472SOL     OW17235   0.956   2.933   0.156 -0.7429  0.4988 -0.4091
 5472SOL    HW117236   1.018   2.991   0.103 -0.1720 -0.9938 -1.4280
 5472SOL    HW217237   0.863   2.940   0.118 -0.4981  0.0753 -1.1025
 5473SOL     OW17238   3.814   5.920   4.490  0.7485 -0.6654 -0.1109
 5473SOL    HW117239   3.796   5.826   4.458 -1.2277 -0.0494 -0.9461
 5473SOL    HW217240   3.727   5.965   4.510  1.6581  1.1148 -0.0139
 5474SOL     OW17241   1.574   5.966   4.040 -0.2001  0.2396  0.5271
 5474SOL    HW117242   1.569   5.998   3.945  0.3941  1.1539  0.7877
 5474SOL    HW217243   1.666   5.983   4.076 -0.1149 -1.0164  0.9613
 5475SOL     OW17244   0.260   0.324   5.021 -0.0944  0.1048  0.6548
 5475SOL    HW117245   0.306   0.276   5.096 -0.3289  1.0945  1.4479
 5475SOL    HW217246   0.234   0.258   4.951  0.7253 -0.7459  1.1295
 5476SOL     OW17247   4.867   6.770   0.420 -0.1194  0.2625 -0.0840
 5476SOL    HW117248   4.779   6.816   0.429 -0.5176 -0.5232  0.0791
 5476SOL    HW217249   4.874   6.728   0.330 -0.7395 -1.3400  0.5801
 5477SOL     OW17250   4.017   0.471   5.609 -0.1718 -0.2964 -0.1834
 5477SOL    HW117251   3.989   0.549   5.552 -0.9555 -0.0678  0.4914
 5477SOL    HW217252   4.082   0.501   5.678 -1.4041  0.0643  0.8784
 5478SOL     OW17253   1.932   6.318   4.521 -0.1897  0.7596  0.3622
 5478SOL    HW117254   1.918   6.263   4.603 -1.0748 -0.2191 -0.4221
 5478SOL    HW217255   1.975   6.405   4.547  2.8189 -0.8844  1.4545
 5479SOL     OW17256   5.123   0.681   3.892  0.1783 -0.3268 -0.1862
 5479SOL    HW117257   5.163   0.591   3.873 -1.6797 -1.4237  0.7578
 5479SOL    HW217258   5.177   0.727   3.963  1.7327 -0.1913 -1.3827
 5480SOL     OW17259   0.782   5.862   2.205 -0.0589 -0.4986 -0.0406
 5480SOL    HW117260   0.752   5.778   2.159  1.4771 -0.7550 -0.6386
 5480SOL    HW217261   0.729   5.939   2.170 -0.9830 -1.0982 -0.0161
 5481SOL     OW17262   2.302   4.715   6.750 -0.0076  0.3274 -0.4573
 5481SOL    HW117263   2.204   4.696   6.748 -0.1599  1.0215  0.0259
 5481SOL    HW217264   2.320   4.796   6.806  0.8173  0.3614 -0.7455
 5482SOL     OW17265   2.388   1.904   1.441 -0.3444  0.6321 -0.6835
 5482SOL    HW117266   2.371   1.963   1.520  1.0811  1.4079 -0.8955
 5482SOL    HW217267   2.330   1.932   1.365 -0.9125  0.6283 -0.2585
 5483SOL     OW17268   5.870   3.053   3.262 -0.3897 -0.3066 -0.1705
 5483SOL    HW117269   5.941   2.989   3.291  1.0018 -0.2151 -3.0019
 5483SOL    HW217270   5.857   3.123   3.332  2.9045  0.1091  0.1689
 5484SOL     OW17271   1.386   2.126   6.294 -0.7822  0.2872  0.0631
 5484SOL    HW117272   1.328   2.121   6.376  0.4232 -0.6145  0.8908
 5484SOL    HW217273   1.473   2.168   6.318 -1.4789  2.8195 -1.4445
 5485SOL     OW17274   5.017   4.872   3.113  0.2906 -0.1514  0.3688
 5485SOL    HW117275   5.049   4.783   3.146 -1.5342 -1.9340 -2.2098
 5485SOL    HW217276   4.917   4.872   3.109  0.2398  2.0657  0.3132
 5486SOL     OW17277   3.796   0.832   2.859 -0.5487 -0.1706  0.7592
 5486SOL    HW117278   3.707   0.855   2.819 -0.5509  1.3485  1.5423
 5486SOL    HW217279   3.820   0.901   2.927  1.5020 -0.2204  0.1481
 5487SOL     OW17280   4.736   0.507   3.861 -0.4430 -0.3123 -0.2525
 5487SOL    HW117281   4.778   0.566   3.931  1.3893  0.3449 -1.8243
 5487SOL    HW217282   4.650   0.548   3.831 -0.9083 -0.2453  1.0778
 5488SOL     OW17283   6.222   5.731   6.870  0.1206 -0.0047  0.6522
 5488SOL    HW117284   6.316   5.748   6.841 -0.1143  0.3228  0.0665
 5488SOL    HW217285   6.211   5.757   6.966  0.3986  0.8070  0.4645
 5489SOL     OW17286   0.797   2.430   6.421 -0.1244 -0.7530 -0.2367
 5489SOL    HW117287   0.785   2.499   6.493  1.7595 -0.7848  0.1751
 5489SOL    HW217288   0.736   2.451   6.345  0.9033  1.8824 -0.4598
 5490SOL     OW17289   6.757   4.394   3.994 -0.3741  0.0042 -0.3219
 5490SOL    HW117290   6.680   4.342   4.031  0.9573 -1.2901  0.7729
 5490SOL    HW217291   6.830   4.397   4.061  1.3033 -0.5081 -2.0478
 5491SOL     OW17292   2.828   0.374   5.236 -0.3301  0.8793  0.0467
 5491SOL    HW117293   2.832   0.461   5.286  1.9338  1.0086 -0.2652
 5491SOL    HW217294   2.752   0.376   5.172 -1.0818  2.1387  0.9360
 5492SOL     OW17295   5.991   6.125   2.410  1.0484 -0.3984 -0.2533
 5492SOL    HW117296   6.033   6.122   2.501  1.9989 -1.8370 -0.7087
 5492SOL    HW217297   5.892   6.112   2.419  1.0599  0.0828  0.6274
 5493SOL     OW17298   2.043   4.583   5.473 -0.2644  0.1970 -0.2179
 5493SOL    HW117299   1.945   4.577   5.494 -0.0290  0.4431  1.0378
 5493SOL    HW217300   2.070   4.504   5.418 -0.8032 -0.8940  1.0159
 5494SOL     OW17301   4.550   3.995   0.229  0.0554 -0.2709 -0.5626
 5494SOL    HW117302   4.491   3.959   0.300 -0.8914  2.4855  0.1865
 5494SOL    HW217303   4.494   4.037   0.157  1.0378  1.6727 -0.2520
 5495SOL     OW17304   1.465   3.295   5.359 -0.0943  0.2506  0.2453
 5495SOL    HW117305   1.374   3.254   5.365 -0.3977  1.0725  2.2369
 5495SOL    HW217306   1.462   3.388   5.397  2.1346 -0.7781  3.3931
 5496SOL     OW17307   0.075   1.608   1.903 -0.2202  0.1023 -0.1026
 5496SOL    HW117308   0.131   1.565   1.974 -2.1295 -0.8547  0.9309
 5496SOL    HW217309   0.094   1.565   1.815  1.6595  0.7968 -0.0717
 5497SOL     OW17310   4.092   1.777   1.577 -0.1715  0.0491  0.0039
 5497SOL    HW117311   4.082   1.858   1.520 -0.4109  0.2317  0.2997
 5497SOL    HW217312   4.071   1.800   1.672 -1.1009 -0.5575 -0.0486
 5498SOL     OW17313   0.555   0.367   4.785 -0.2989  0.0445  1.0993
 5498SOL    HW117314   0.460   0.349   4.758  0.2394  0.1839 -1.0305
 5498SOL    HW217315   0.595   0.436   4.726 -0.0604  3.2329  4.5513
 5499SOL     OW17316   3.409   4.344   6.544 -0.0787 -0.3825  0.2550
 5499SOL    HW117317   3.357   4.398   6.610  0.1549  1.7953 -1.2389
 5499SOL    HW217318   3.506   4.344   6.569 -0.2759 -1.4633  1.0973
 5500SOL     OW17319   4.359   2.267   1.666 -0.0815  0.0286 -0.0584
 5500SOL    HW117320   4.366   2.311   1.755  0.3275 -1.4647  0.6697
 5500SOL    HW217321   4.288   2.313   1.612 -0.4726  0.8268  1.0924
 5501SOL     OW17322   2.699   3.596   6.490  0.0742 -0.4122  0.5218
 5501SOL    HW117323   2.667   3.682   6.451 -0.4806 -1.2891 -1.0279
 5501SOL    HW217324   2.781   3.566   6.441 -0.0634 -1.0440  0.6754
 5502SOL     OW17325   5.596   3.175   6.628 -0.1165  0.2053 -0.0532
 5502SOL    HW117326   5.526   3.213   6.568  0.7603  2.7745  0.4362
 5502SOL    HW217327   5.586   3.214   6.720  0.3403 -1.4510  0.7587
 5503SOL     OW17328   4.518   0.539   0.881 -0.3428 -0.5932  0.3003
 5503SOL    HW117329   4.513   0.633   0.916 -0.8222 -0.8023  0.8011
 5503SOL    HW217330   4.545   0.477   0.954 -2.0970 -1.1397  0.5300
 5504SOL     OW17331   5.984   0.139   6.538  0.4036 -0.5225  0.0422
 5504SOL    HW117332   6.042   0.116   6.617 -1.3006 -1.1873  1.1755
 5504SOL    HW217333   5.938   0.226   6.556 -0.7610 -1.1726  0.2560
 5505SOL     OW17334   2.950   6.165   2.799  0.0995 -0.7442  0.2893
 5505SOL    HW117335   3.016   6.209   2.739  1.4157 -0.1292  2.1181
 5505SOL    HW217336   2.879   6.232   2.825  0.4585 -0.5287  0.7256
 5506SOL     OW17337   5.665   5.960   5.076 -0.0451 -0.2336 -0.1560
 5506SOL    HW117338   5.735   5.994   5.138  1.4133 -1.2690 -1.1714
 5506SOL    HW217339   5.580   5.943   5.127  1.2466 -1.5610  1.6453
 5507SOL     OW17340   1.975   2.378   1.575 -0.4172 -0.3434  0.5137
 5507SOL    HW117341   1.972   2.471   1.538  1.1109 -0.1737  0.7275
 5507SOL    HW217342   2.030   2.377   1.658  2.7464 -1.9686 -1.3831
 5508SOL     OW17343   4.039   2.110   2.157  0.1132  0.3048  0.3353
 5508SOL    HW117344   4.014   2.044   2.086  2.4710 -0.2364 -0.0742
 5508SOL    HW217345   4.130   2.147   2.137 -0.5023  2.5448  1.3869
 5509SOL     OW17346   6.967   4.330   0.688 -0.1754  0.0549 -0.3863
 5509SOL    HW117347   7.043   4.280   0.646 -0.3164 -0.2127 -0.2768
 5509SOL    HW217348   7.003   4.410   0.737 -0.1021  0.5350 -1.2380
 5510SOL     OW17349   1.464   1.284   6.517 -0.4261 -0.3873 -0.0411
 5510SOL    HW117350   1.398   1.356   6.497  0.0949 -0.2148 -1.2340
 5510SOL    HW217351   1.557   1.319   6.505 -0.1033 -0.6801  1.4221
 5511SOL     OW17352   0.399   0.820   2.190 -0.6438  0.3370 -0.3033
 5511SOL    HW117353   0.354   0.751   2.246  0.8353 -0.0631  0.4421
 5511SOL    HW217354   0.488   0.786   2.160 -0.2201  1.6241 -0.5848
 5512SOL     OW17355   0.296   2.937   0.958  0.1487  0.2553  0.4011
 5512SOL    HW117356   0.208   2.921   0.912 -1.4580  0.6669  3.1192
 5512SOL    HW217357   0.343   3.013   0.913 -0.9870  0.2230 -0.9430
 5513SOL     OW17358   2.290   4.420   1.543 -0.1501 -0.6371  0.4648
 5513SOL    HW117359   2.252   4.369   1.620  0.2270 -0.9864  0.4195
 5513SOL    HW217360   2.352   4.491   1.577 -3.1649  2.0806  0.7919
 5514SOL     OW17361   3.096   4.178   1.648 -0.0044  0.2220 -0.5373
 5514SOL    HW117362   3.158   4.152   1.573  0.9387 -0.1652  0.3454
 5514SOL    HW217363   3.123   4.268   1.683  0.6001 -0.3015  0.3835
 5515SOL     OW17364   6.038   2.838   1.168 -0.3185 -0.0858 -0.3562
 5515SOL    HW117365   6.009   2.878   1.081  0.2177 -0.5921 -0.7694
 5515SOL    HW217366   5.957   2.820   1.225 -1.0017 -2.9308 -2.0978
 5516SOL     OW17367   2.033   1.653   1.132 -0.5431  0.1428 -0.2277
 5516SOL    HW117368   1.970   1.683   1.060  0.0333 -0.5499 -1.0359
 5516SOL    HW217369   1.984   1.593   1.196 -0.9689  0.4599 -0.2546
 5517SOL     OW17370   1.618   6.429   1.522  0.0129 -0.6104  0.2826
 5517SOL    HW117371   1.552   6.370   1.569  0.2317 -0.2408  1.0664
 5517SOL    HW217372   1.649   6.501   1.584 -0.3258  0.4063 -0.7024
 5518SOL     OW17373   1.815   1.430   1.175 -0.3642 -0.5745  0.1540
 5518SOL    HW117374   1.892   1.367   1.176 -0.2595 -0.5002 -1.5105
 5518SOL    HW217375   1.812   1.478   1.087 -1.2752  0.7107  0.8553
 5519SOL     OW17376   0.808   4.796   4.323 -0.8871 -0.7062 -0.2242
 5519SOL    HW117377   0.733   4.735   4.299 -1.5693 -0.4497  1.1773
 5519SOL    HW217378   0.772   4.889   4.337 -0.1110 -0.3117 -0.7454
 5520SOL     OW17379   6.000   0.466   4.742  0.4615  0.5205 -0.6191
 5520SOL    HW117380   6.040   0.550   4.705 -0.0066  0.4781 -1.2595
 5520SOL    HW217381   6.053   0.387   4.710  0.7177  0.5526 -0.2766
 5521SOL     OW17382   3.728   5.582   3.750 -0.2420 -0.0307 -0.4837
 5521SOL    HW117383   3.640   5.614   3.785 -1.1224 -0.7395 -1.9818
 5521SOL    HW217384   3.778   5.537   3.824 -0.0594  2.4319  1.0192
 5522SOL     OW17385   4.395   5.595   4.013 -0.3820  0.3166  0.2970
 5522SOL    HW117386   4.382   5.551   4.102 -1.9588 -0.0415 -0.0892
 5522SOL    HW217387   4.430   5.529   3.948  1.0445  0.6465  0.6946
 5523SOL     OW17388   6.429   6.154   3.939  0.2747 -0.3038 -0.4268
 5523SOL    HW117389   6.348   6.151   3.997  1.7768  0.6447  1.8855
 5523SOL    HW217390   6.436   6.244   3.896 -0.2562 -0.6361 -1.2428
 5524SOL     OW17391   2.340   0.534   2.758 -0.1513 -0.3819 -0.4395
 5524SOL    HW117392   2.248   0.541   2.798 -0.3057  1.0111 -0.9873
 5524SOL    HW217393   2.382   0.447   2.785 -1.8173 -1.2574 -0.5767
 5525SOL     OW17394   5.932   4.618   1.714  0.5565  0.3820  0.0971
 5525SOL    HW117395   6.028   4.635   1.735  0.9493 -0.1826 -1.1605
 5525SOL    HW217396   5.898   4.689   1.653 -0.1138  1.0967  1.2489
 5526SOL     OW17397   6.548   3.831   3.998  0.2722 -0.7113 -0.3095
 5526SOL    HW117398   6.621   3.899   4.007  0.8094 -1.0418 -1.8903
 5526SOL    HW217399   6.585   3.747   3.958 -0.6916 -1.4311  0.2507
 5527SOL     OW17400   3.821   0.406   6.680  0.3188 -0.5583  0.3460
 5527SOL    HW117401   3.828   0.444   6.773  1.4893 -0.2229  0.1370
 5527SOL    HW217402   3.727   0.416   6.648  0.2463  0.7826  0.8976
 5528SOL     OW17403   0.803   5.309   1.926 -0.3169 -0.0964  0.0080
 5528SOL    HW117404   0.705   5.320   1.945  0.0417  1.2358  1.2780
 5528SOL    HW217405   0.840   5.237   1.984 -0.6840 -1.1854 -1.0724
 5529SOL     OW17406   4.620   2.151   0.364  0.2719  0.1299 -0.1268
 5529SOL    HW117407   4.535   2.146   0.417  0.1085  0.8160 -0.3191
 5529SOL    HW217408   4.657   2.243   0.369 -0.1909  0.4599 -1.8959
 5530SOL     OW17409   1.533   0.264   0.815 -0.2327  0.4172  0.2372
 5530SOL    HW117410   1.490   0.340   0.863 -2.6663 -0.7193 -0.0218
 5530SOL    HW217411   1.628   0.256   0.845 -0.4476  2.3598  1.6625
 5531SOL     OW17412   6.307   4.834   3.462 -0.6526 -0.5331  0.1989
 5531SOL    HW117413   6.340   4.804   3.552  0.0218  0.3451  0.2605
 5531SOL    HW217414   6.274   4.928   3.469  0.2445 -0.1477 -0.6721
 5532SOL     OW17415   6.172   4.630   6.916  0.1552 -0.4327 -0.2423
 5532SOL    HW117416   6.196   4.697   6.847 -1.5263  2.8397  2.0581
 5532SOL    HW217417   6.072   4.628   6.927  0.3355 -1.3318  1.5967
 5533SOL     OW17418   5.111   5.827   0.512  0.0906 -0.2909  0.3771
 5533SOL    HW117419   5.159   5.742   0.534  0.4938  0.3115  2.1215
 5533SOL    HW217420   5.178   5.902   0.508 -0.0665 -0.2363 -2.5482
 5534SOL     OW17421   1.749   5.649   4.257  0.1824 -0.2973  0.0462
 5534SOL    HW117422   1.765   5.556   4.290  1.1817 -0.6948 -1.4941
 5534SOL    HW217423   1.833   5.703   4.268 -1.1196  1.3153  3.5277
 5535SOL     OW17424   5.501   2.201   0.613 -0.2526 -0.3413  0.6702
 5535SOL    HW117425   5.469   2.279   0.559 -2.1037 -2.2097 -1.0828
 5535SOL    HW217426   5.491   2.221   0.710  0.3815  1.9885  0.3215
 5536SOL     OW17427   6.440   6.849   0.404 -0.1932  0.2154 -0.1175
 5536SOL    HW117428   6.445   6.766   0.348 -1.3027  1.0491 -1.5426
 5536SOL    HW217429   6.532   6.881   0.425  0.2415 -0.8979 -0.2865
 5537SOL     OW17430   2.366   6.138   3.232 -0.0482 -0.6072  0.4653
 5537SOL    HW117431   2.343   6.051   3.275 -1.1942 -1.4071 -1.6165
 5537SOL    HW217432   2.454   6.130   3.186 -0.3264 -0.7707 -0.0352
 5538SOL     OW17433   2.473   6.568   2.765 -0.2004  0.7403 -0.5184
 5538SOL    HW117434   2.375   6.585   2.775 -0.3295 -0.0111 -0.4442
 5538SOL    HW217435   2.524   6.631   2.825 -0.7668 -0.6343  1.5269
 5539SOL     OW17436   0.228   4.400   4.091  0.1835  0.6164  0.1317
 5539SOL    HW117437   0.218   4.352   4.178  1.4197  0.3840  0.1540
 5539SOL    HW217438   0.321   4.388   4.056 -0.4462  0.1998 -1.5256
 5540SOL     OW17439   6.796   4.631   6.280 -0.1711 -0.1157  0.7126
 5540SOL    HW117440   6.873   4.619   6.219 -0.2972 -1.6559  0.8207
 5540SOL    HW217441   6.827   4.669   6.367  0.7377 -2.0166  1.2808
 5541SOL     OW17442   3.127   1.016   1.229  0.1606  0.1808  0.0688
 5541SOL    HW117443   3.063   0.942   1.207  0.0874  0.0982  0.5542
 5541SOL    HW217444   3.136   1.076   1.149 -1.6170  1.0102  0.4238
 5542SOL     OW17445   1.851   5.836   0.611 -0.1116 -0.2551 -0.1455
 5542SOL    HW117446   1.891   5.922   0.641 -0.4383 -1.1165  3.0880
 5542SOL    HW217447   1.880   5.816   0.518  2.0230  2.0877 -0.0624
 5543SOL     OW17448   1.779   4.232   1.982 -0.3680 -0.4034 -0.3223
 5543SOL    HW117449   1.680   4.229   1.987 -0.3428 -0.1964  3.3630
 5543SOL    HW217450   1.812   4.321   2.014  1.0019 -1.5266  1.6140
 5544SOL     OW17451   5.916   3.008   4.190 -0.3261 -0.5827 -0.0514
 5544SOL    HW117452   5.891   3.015   4.287 -0.6661 -0.4369 -0.1437
 5544SOL    HW217453   6.015   3.014   4.180 -0.0843 -2.5873  0.4918
 5545SOL     OW17454   1.302   0.927   4.191  0.0095 -0.1141 -0.4848
 5545SOL    HW117455   1.379   0.961   4.137 -1.9095  1.3732 -2.4583
 5545SOL    HW217456   1.322   0.937   4.289  1.5113  2.1896 -0.9519
 5546SOL     OW17457   2.285   5.970   0.001  0.0749  0.0556 -0.6756
 5546SOL    HW117458   2.259   5.979   0.097 -0.1011  1.4540 -0.8287
 5546SOL    HW217459   2.362   5.906  -0.007  0.8078  0.7349  0.5629
 5547SOL     OW17460   2.983   0.566   5.431 -0.1419 -0.4367  0.2547
 5547SOL    HW117461   3.024   0.646   5.386 -0.3006 -0.9337 -0.7997
 5547SOL    HW217462   2.884   0.579   5.438 -0.1287 -0.4013  0.3840
 5548SOL     OW17463   4.376   1.675   3.124  0.1778 -0.5138 -0.1418
 5548SOL    HW117464   4.276   1.674   3.118  0.0994  1.7109 -0.0490
 5548SOL    HW217465   4.405   1.749   3.185  1.8805 -1.2256 -0.0513
 5549SOL     OW17466   3.160   3.578   1.465  0.3387  0.1614 -0.0770
 5549SOL    HW117467   3.089   3.648   1.459  0.4390  0.6267  2.6579
 5549SOL    HW217468   3.250   3.622   1.460  0.4028  0.3249  1.7078
 5550SOL     OW17469   4.425   3.729   5.311  0.0810  0.3188 -0.2101
 5550SOL    HW117470   4.386   3.650   5.263  1.1351  1.1474 -2.6280
 5550SOL    HW217471   4.520   3.709   5.335  0.6186  1.0306 -1.5590
 5551SOL     OW17472   4.897   0.587   4.341  0.3627  0.0915  0.1221
 5551SOL    HW117473   4.908   0.493   4.372 -0.4166 -0.5151 -1.3477
 5551SOL    HW217474   4.836   0.636   4.403 -1.1210 -1.0674 -0.3519
 5552SOL     OW17475   2.167   4.756   0.261  0.5521  0.6251 -0.2690
 5552SOL    HW117476   2.140   4.840   0.215 -0.9056  0.6545  0.5689
 5552SOL    HW217477   2.173   4.772   0.360 -0.6903 -0.4370  0.0204
 5553SOL     OW17478   5.391   1.351   4.586  0.2404  0.6805  0.1257
 5553SOL    HW117479   5.435   1.435   4.555  1.5201 -0.5785 -1.6529
 5553SOL    HW217480   5.331   1.316   4.514  1.1333 -0.8646  0.0945
 5554SOL     OW17481   6.239   5.236   1.418 -0.0851 -0.0766  0.0873
 5554SOL    HW117482   6.267   5.141   1.435 -1.9113 -0.7898 -0.6103
 5554SOL    HW217483   6.241   5.287   1.504  0.0646 -0.9760  0.6419
 5555SOL     OW17484   3.408   0.598   1.715  0.6096  0.1456 -0.0438
 5555SOL    HW117485   3.476   0.569   1.781  0.5243 -0.5502 -0.2572
 5555SOL    HW217486   3.316   0.581   1.750  0.5656 -0.9577 -0.6502
 5556SOL     OW17487   5.414   4.651   1.330  0.5976  0.1213 -0.4584
 5556SOL    HW117488   5.393   4.587   1.405 -0.3964  0.8864 -0.0456
 5556SOL    HW217489   5.513   4.664   1.325  0.8846 -1.9760 -1.0197
 5557SOL     OW17490   0.546   4.273   3.122  0.2524 -0.3491 -0.9148
 5557SOL    HW117491   0.597   4.267   3.208  0.2622  0.6303 -0.8425
 5557SOL    HW217492   0.471   4.339   3.133  0.1026 -0.4078 -1.5873
 5558SOL     OW17493   0.618   4.620   0.473 -0.0662 -0.8455 -0.6240
 5558SOL    HW117494   0.653   4.700   0.425 -0.3954  0.6838  1.5352
 5558SOL    HW217495   0.611   4.543   0.409  1.5038  0.4459 -2.4686
 5559SOL     OW17496   5.109   6.507   2.611  0.2699 -0.5602  0.4236
 5559SOL    HW117497   5.140   6.559   2.690  0.0357  0.1582  0.0462
 5559SOL    HW217498   5.184   6.496   2.546 -0.1822  1.1024 -0.4479
 5560SOL     OW17499   0.351   2.833   0.325 -0.0421  0.3249 -0.3457
 5560SOL    HW117500   0.358   2.849   0.227 -1.2603 -2.0711 -0.8784
 5560SOL    HW217501   0.412   2.759   0.352 -0.3327  0.4059  0.5741
 5561SOL     OW17502   1.881   3.121   1.757 -0.2574  0.0601 -0.1310
 5561SOL    HW117503   1.851   3.055   1.689  0.8482 -0.7008  0.0949
 5561SOL    HW217504   1.980   3.115   1.768 -0.0669  2.0555 -0.3985
 5562SOL     OW17505   1.552   1.298   1.551  0.3419 -0.1469 -0.9755
 5562SOL    HW117506   1.564   1.397   1.555 -0.5642  0.0204 -2.1252
 5562SOL    HW217507   1.633   1.253   1.590  1.0572  1.0297 -1.0681
 5563SOL     OW17508   1.365   4.641   3.991 -1.1781  0.1804 -0.3669
 5563SOL    HW117509   1.406   4.730   3.971  0.1693 -0.6299 -1.4348
 5563SOL    HW217510   1.305   4.648   4.070 -2.0338  2.2788 -1.1477
 5564SOL     OW17511   4.673   0.757   5.613  0.0823  0.3495 -0.2502
 5564SOL    HW117512   4.713   0.669   5.588 -0.2865  0.0570  0.1782
 5564SOL    HW217513   4.592   0.742   5.670 -0.4229  0.9441 -0.7980
 5565SOL     OW17514   4.291   0.699   2.261 -0.0793  0.2441  0.0736
 5565SOL    HW117515   4.273   0.781   2.315 -0.6946  1.2641 -1.5904
 5565SOL    HW217516   4.351   0.723   2.185  2.3235 -1.5418  1.2860
 5566SOL     OW17517   0.910   5.169   1.718  0.2788 -0.7137  0.4825
 5566SOL    HW117518   0.872   5.222   1.794 -0.2902 -0.0586 -0.2303
 5566SOL    HW217519   1.009   5.163   1.729  0.1612 -1.0550  1.5232
 5567SOL     OW17520   1.515   6.039   3.282  0.2831 -0.4729 -0.3464
 5567SOL    HW117521   1.597   6.040   3.339  0.1328  0.3595 -0.1327
 5567SOL    HW217522   1.525   5.970   3.209  0.5214 -1.4687  0.6110
 5568SOL     OW17523   4.761   6.994   0.895 -0.3318  0.0795 -0.6420
 5568SOL    HW117524   4.680   7.051   0.911  0.9388  1.7015  0.2753
 5568SOL    HW217525   4.742   6.930   0.821 -2.2857  0.7600 -0.7868
 5569SOL     OW17526   2.900   1.925   4.825 -0.7021  0.2529  1.2049
 5569SOL    HW117527   2.803   1.943   4.810 -0.3183  0.7541 -0.9649
 5569SOL    HW217528   2.937   1.994   4.888 -1.1941  1.6548  0.0155
 5570SOL     OW17529   6.372   4.958   0.884  0.2503 -0.2385 -0.4465
 5570SOL    HW117530   6.394   5.008   0.800  0.1132  0.1331 -0.2674
 5570SOL    HW217531   6.278   4.925   0.878  0.4132 -0.6664 -0.6568
 5571SOL     OW17532   3.168   6.108   1.780 -0.5216  0.4472  0.1753
 5571SOL    HW117533   3.240   6.044   1.752 -1.5203 -0.6882  0.1407
 5571SOL    HW217534   3.173   6.124   1.878 -0.2845  0.2862  0.1899
 5572SOL     OW17535   3.304   3.115   6.812  0.3703 -0.3265  0.3574
 5572SOL    HW117536   3.293   3.212   6.837  2.5384 -0.3998  1.8388
 5572SOL    HW217537   3.377   3.106   6.746 -1.0131 -0.8459 -1.1901
 5573SOL     OW17538   6.490   1.539   1.592 -0.2261  0.0429 -0.5560
 5573SOL    HW117539   6.507   1.451   1.636  0.4166 -0.1568 -1.1703
 5573SOL    HW217540   6.564   1.602   1.614 -0.9364  0.6117  0.2877
 5574SOL     OW17541   0.654   0.157   1.965 -0.2753  0.2445  0.4291
 5574SOL    HW117542   0.587   0.205   2.022 -0.0899  0.4346  0.4907
 5574SOL    HW217543   0.721   0.223   1.931 -0.1812  0.0734  0.2801
 5575SOL     OW17544   5.438   2.285   1.926 -0.4856  0.1245 -0.1694
 5575SOL    HW117545   5.512   2.351   1.911 -0.2752 -0.1007 -0.1294
 5575SOL    HW217546   5.364   2.302   1.860 -0.5093  0.5171 -0.0476
 5576SOL     OW17547   1.304   1.092   6.376  0.2253  0.2498 -0.6540
 5576SOL    HW117548   1.330   1.079   6.281  0.2029 -1.2883 -0.4751
 5576SOL    HW217549   1.373   1.147   6.423 -0.5309  2.3935 -1.8880
 5577SOL     OW17550   2.024   6.132   1.137 -0.3011  0.7039 -0.0261
 5577SOL    HW117551   1.924   6.134   1.142 -0.4083 -1.9088  0.6848
 5577SOL    HW217552   2.052   6.104   1.045 -0.2084  1.6271 -0.2825
 5578SOL     OW17553   3.919   2.855   1.811  0.2296 -0.2443 -0.1886
 5578SOL    HW117554   3.853   2.781   1.826  1.4070 -1.5739 -1.1720
 5578SOL    HW217555   3.963   2.842   1.721  1.1369  1.1242  0.0302
 5579SOL     OW17556   1.475   6.456   3.903  0.1930  0.0472  0.2106
 5579SOL    HW117557   1.387   6.412   3.917  0.2161 -0.3350 -0.7281
 5579SOL    HW217558   1.468   6.553   3.925  0.0487 -0.3454  1.9612
 5580SOL     OW17559   0.609   0.292   5.032  0.9241  0.5440 -0.6846
 5580SOL    HW117560   0.618   0.367   5.098  4.8615 -0.0459 -0.3476
 5580SOL    HW217561   0.613   0.329   4.939 -0.9691  1.0074 -0.6366
 5581SOL     OW17562   6.608   3.114   3.773  0.0832  0.3501  0.1566
 5581SOL    HW117563   6.675   3.168   3.825 -0.0853 -1.0964  1.9794
 5581SOL    HW217564   6.642   3.097   3.681  0.8363  2.2085  0.0571
 5582SOL     OW17565   1.200   6.974   6.341 -0.3065  0.1077 -0.0044
 5582SOL    HW117566   1.195   7.067   6.378 -1.7919 -0.2826  0.7986
 5582SOL    HW217567   1.162   6.972   6.249  0.3722  0.4172 -0.2962
 5583SOL     OW17568   2.181   1.734   6.967 -0.3388  0.1867  0.3170
 5583SOL    HW117569   2.105   1.781   6.921 -0.4543 -1.0679 -0.8235
 5583SOL    HW217570   2.153   1.642   6.992  0.6068 -0.0723  0.4554
 5584SOL     OW17571   3.202   1.068   0.082  0.4796 -0.4350  0.3170
 5584SOL    HW117572   3.210   1.011   0.000  1.3085  0.3322 -0.1337
 5584SOL    HW217573   3.264   1.033   0.153  2.4121  0.8615 -0.6145
 5585SOL     OW17574   1.168   3.414   2.293 -0.1507 -0.3810  0.0532
 5585SOL    HW117575   1.239   3.485   2.290 -0.1783 -0.3728 -0.7980
 5585SOL    HW217576   1.188   3.344   2.224 -1.0622 -0.2880 -0.3186
 5586SOL     OW17577   0.923   1.936   6.777  0.1678 -0.0884 -0.3302
 5586SOL    HW117578   0.998   1.912   6.840 -0.6438 -0.5218  0.5043
 5586SOL    HW217579   0.880   1.852   6.744 -2.0694  0.1156  1.8260
 5587SOL     OW17580   3.006   3.155   6.112 -0.0637 -0.3454  0.1346
 5587SOL    HW117581   3.058   3.238   6.093 -0.0968 -0.2343  0.5117
 5587SOL    HW217582   2.909   3.172   6.094  0.2663 -1.3780 -3.3317
 5588SOL     OW17583   0.968   4.131   1.784  0.6885  0.2797 -0.9121
 5588SOL    HW117584   0.926   4.218   1.759  2.7033  1.3309 -0.8360
 5588SOL    HW217585   0.962   4.067   1.707 -0.6350  0.5257 -1.0430
 5589SOL     OW17586   2.159   0.530   3.247  0.9357 -0.1671  0.7718
 5589SOL    HW117587   2.092   0.591   3.205  0.6342  0.4737  2.1424
 5589SOL    HW217588   2.245   0.534   3.194  0.5214  0.4828  0.1260
 5590SOL     OW17589   5.101   5.942   6.673  0.5102 -0.3232 -0.9267
 5590SOL    HW117590   5.029   5.873   6.672 -0.2982  0.4768 -0.2292
 5590SOL    HW217591   5.060   6.033   6.682  1.6915 -0.0252  2.7383
 5591SOL     OW17592   6.058   5.878   0.722  0.0315  0.0724  0.0643
 5591SOL    HW117593   5.973   5.833   0.747  0.6327 -0.4641  1.2164
 5591SOL    HW217594   6.104   5.912   0.804  0.3397  1.4648 -0.6459
 5592SOL     OW17595   2.458   6.430   1.757 -0.1843  0.1360 -0.8706
 5592SOL    HW117596   2.361   6.451   1.747 -1.2270 -2.5176  2.1727
 5592SOL    HW217597   2.477   6.339   1.721  0.5551 -0.4293  0.8363
 5593SOL     OW17598   6.389   5.878   5.165  0.6856  0.2135 -0.1500
 5593SOL    HW117599   6.465   5.925   5.210 -2.2099  2.7787  2.5895
 5593SOL    HW217600   6.361   5.929   5.084  0.7694  0.3284 -0.1071
 5594SOL     OW17601   5.973   7.013   0.967  0.6428 -0.5240  0.2230
 5594SOL    HW117602   5.952   7.085   0.900 -0.7303 -1.0589  0.0310
 5594SOL    HW217603   6.044   7.044   1.029  0.1114  0.9885  0.1147
 5595SOL     OW17604   6.256   3.248   0.820 -0.0800  0.1241  0.0439
 5595SOL    HW117605   6.322   3.210   0.885 -1.1720 -0.4241  0.8740
 5595SOL    HW217606   6.217   3.174   0.764 -1.6491  0.0713  1.1386
 5596SOL     OW17607   2.112   5.226   1.434  0.2791  0.2485  0.0372
 5596SOL    HW117608   2.153   5.301   1.382  2.2949 -0.3726  0.6427
 5596SOL    HW217609   2.138   5.139   1.394 -0.3245 -0.1879  0.5676
 5597SOL     OW17610   0.113   4.553   3.269  0.1501  0.2557  0.3528
 5597SOL    HW117611   0.016   4.576   3.270  0.2407  0.7601 -0.5226
 5597SOL    HW217612   0.163   4.620   3.323 -0.0687 -0.4975  1.5289
 5598SOL     OW17613   4.616   5.640   2.488  0.9154 -0.2898  0.0248
 5598SOL    HW117614   4.556   5.649   2.568  0.2192 -0.3806 -0.4792
 5598SOL    HW217615   4.703   5.686   2.507  0.5517  0.1728  0.6231
 5599SOL     OW17616   5.534   4.746   1.599 -0.6368  0.5580 -0.0481
 5599SOL    HW117617   5.481   4.823   1.563 -0.1396 -0.4894 -3.2737
 5599SOL    HW217618   5.481   4.662   1.591  0.5499 -0.1348 -1.1045
 5600SOL     OW17619   2.669   5.066   5.085  0.4205 -0.2420  0.4068
 5600SOL    HW117620   2.684   5.156   5.126 -0.2982 -0.5851  1.4934
 5600SOL    HW217621   2.600   5.073   5.013  1.2037  0.2624 -0.2985
 5601SOL     OW17622   1.486   2.446   2.739  0.3617  0.0425 -0.2684
 5601SOL    HW117623   1.503   2.513   2.811  0.9016 -0.1640 -0.2028
 5601SOL    HW217624   1.405   2.392   2.762  0.7408 -0.2671  0.3627
 5602SOL     OW17625   3.764   1.526   1.726 -0.0790 -0.3973 -0.1017
 5602SOL    HW117626   3.780   1.486   1.636 -1.5244 -1.6050  0.1281
 5602SOL    HW217627   3.713   1.461   1.783  0.4200  0.5031  1.4495
 5603SOL     OW17628   6.331   2.836   3.739 -0.6922 -0.4210  1.0729
 5603SOL    HW117629   6.303   2.925   3.703  0.8970 -0.5923 -0.7576
 5603SOL    HW217630   6.430   2.828   3.734 -0.6839 -1.7835  2.5439
 5604SOL     OW17631   6.044   0.439   2.455  0.5620 -0.2827 -0.4498
 5604SOL    HW117632   6.136   0.408   2.428 -0.5932 -2.8406 -1.8134
 5604SOL    HW217633   5.987   0.447   2.373 -0.0036  3.1932  0.1498
 5605SOL     OW17634   2.985   4.782   6.855  0.4571 -0.0243  0.2826
 5605SOL    HW117635   3.008   4.761   6.950 -0.1910 -0.3597  0.3809
 5605SOL    HW217636   3.051   4.738   6.794  2.3044  2.1411  0.5957
 5606SOL     OW17637   3.932   6.507   0.789 -0.7193  0.3266 -0.3366
 5606SOL    HW117638   3.981   6.466   0.866 -1.7863  0.4917  0.4574
 5606SOL    HW217639   3.894   6.434   0.731  0.1348  0.1988 -0.7394
 5607SOL     OW17640   6.688   0.690   5.092 -0.1859  0.1191  0.4171
 5607SOL    HW117641   6.604   0.637   5.103  0.2453 -0.7207 -0.2031
 5607SOL    HW217642   6.767   0.628   5.090  0.2305  0.6378 -1.6278
 5608SOL     OW17643   0.315   1.870   1.658  0.0867 -1.0243 -0.3343
 5608SOL    HW117644   0.324   1.896   1.562  1.2426  0.6420  0.1647
 5608SOL    HW217645   0.224   1.897   1.691  0.4581  0.4261 -0.4227
 5609SOL     OW17646   3.821   4.747   2.850  0.3969 -0.1195  0.7527
 5609SOL    HW117647   3.808   4.836   2.894 -1.4930 -0.3682  0.7888
 5609SOL    HW217648   3.857   4.682   2.917 -1.8701 -0.3371  1.8677
 5610SOL     OW17649   4.269   1.735   6.092  0.1620  0.3503 -0.1109
 5610SOL    HW117650   4.312   1.825   6.093 -0.6320  0.7463  1.4373
 5610SOL    HW217651   4.301   1.682   6.171  0.9848 -0.9304 -1.2536
 5611SOL     OW17652   5.401   6.473   3.991 -0.2563  0.4956  0.5005
 5611SOL    HW117653   5.349   6.542   3.939 -2.1236 -1.9633 -1.1155
 5611SOL    HW217654   5.346   6.439   4.066 -0.4025 -0.9347 -0.2050
 5612SOL     OW17655   6.309   0.249   3.368  0.0072 -0.1257 -0.0913
 5612SOL    HW117656   6.247   0.170   3.356  0.7397 -1.1706  2.3094
 5612SOL    HW217657   6.403   0.220   3.350  0.2229  0.3776  0.2187
 5613SOL     OW17658   2.690   3.963   2.189  0.2528 -0.4041 -0.1182
 5613SOL    HW117659   2.656   4.057   2.185  0.6857 -0.2809 -2.2070
 5613SOL    HW217660   2.751   3.953   2.268  0.7447  1.2656 -0.2477
 5614SOL     OW17661   3.398   4.207   2.925 -0.6339  0.0489  0.3934
 5614SOL    HW117662   3.332   4.266   2.972  0.2431  0.8154  0.6830
 5614SOL    HW217663   3.482   4.202   2.979  0.2183  0.5569 -0.8519
 5615SOL     OW17664   0.386   0.998   0.654  0.2445  0.3083 -0.0733
 5615SOL    HW117665   0.470   1.028   0.610  1.0252 -0.6302  0.7485
 5615SOL    HW217666   0.320   0.971   0.584  1.5601 -1.4241 -0.7412
 5616SOL     OW17667   5.268   4.832   2.395  0.4947 -0.2122  0.2387
 5616SOL    HW117668   5.262   4.887   2.478 -1.6407  1.5507 -0.9840
 5616SOL    HW217669   5.361   4.797   2.386  1.8278  2.6493  1.4790
 5617SOL     OW17670   2.924   1.414   6.122  0.0759  0.0019  0.0742
 5617SOL    HW117671   2.835   1.407   6.166  0.9650 -0.4709  1.8638
 5617SOL    HW217672   2.955   1.323   6.094  0.6136 -0.0455  0.7755
 5618SOL     OW17673   0.807   3.565   2.948  0.0796 -0.3067 -0.1918
 5618SOL    HW117674   0.789   3.565   3.046  0.4891  3.6176  0.0676
 5618SOL    HW217675   0.739   3.622   2.902 -0.3633 -2.4157 -2.3368
 5619SOL     OW17676   5.660   5.464   3.204 -0.5979  0.4173 -0.3326
 5619SOL    HW117677   5.574   5.512   3.220  0.0075  1.4440 -0.0568
 5619SOL    HW217678   5.643   5.366   3.197 -1.7597  0.5900 -0.0705
 5620SOL     OW17679   0.139   4.943   5.852 -0.3182 -0.5448  0.1810
 5620SOL    HW117680   0.223   4.890   5.853  0.0142 -0.0314  0.3396
 5620SOL    HW217681   0.097   4.938   5.762  0.2349 -0.2675 -0.0966
 5621SOL     OW17682   3.092   0.108   0.375  0.0727 -0.5106 -1.0950
 5621SOL    HW117683   3.044   0.140   0.457  3.0973 -0.3367  0.7508
 5621SOL    HW217684   3.092   0.181   0.306  0.3374  0.6559  0.0908
 5622SOL     OW17685   5.385   2.838   4.417  0.2979 -0.1057  0.3356
 5622SOL    HW117686   5.389   2.810   4.513  1.1787  0.3585  0.4438
 5622SOL    HW217687   5.291   2.831   4.384  0.4087 -3.3368  0.2971
 5623SOL     OW17688   6.234   2.633   1.110  0.2950  0.1582  0.1194
 5623SOL    HW117689   6.179   2.711   1.140 -0.3521 -0.5450  0.8242
 5623SOL    HW217690   6.262   2.646   1.015  1.9089  2.1951  0.7953
 5624SOL     OW17691   0.806   1.513   1.224  0.0781  0.2979  0.5081
 5624SOL    HW117692   0.901   1.482   1.215  0.3104  1.1732 -0.3619
 5624SOL    HW217693   0.748   1.463   1.159 -0.2853 -1.0081  1.7877
 5625SOL     OW17694   5.988   6.431   2.528  0.3795 -0.2228 -0.3193
 5625SOL    HW117695   6.028   6.504   2.473 -0.4239  1.5718  1.3625
 5625SOL    HW217696   6.045   6.414   2.608 -0.8589  0.6142  0.7873
 5626SOL     OW17697   3.995   5.395   6.603 -0.7281  0.0961  0.1520
 5626SOL    HW117698   3.913   5.338   6.602 -0.7442  0.0077  2.0584
 5626SOL    HW217699   3.970   5.489   6.580 -1.4355  0.1246  0.9749
 5627SOL     OW17700   2.154   2.366   1.793 -0.0967 -0.8283 -0.0550
 5627SOL    HW117701   2.158   2.285   1.850 -0.2208 -0.6392  0.2246
 5627SOL    HW217702   2.191   2.444   1.843  0.1283 -0.7350 -0.3628
 5628SOL     OW17703   0.492   4.624   3.403 -0.3085 -0.2919 -0.2944
 5628SOL    HW117704   0.477   4.628   3.305 -0.3903 -0.2206 -0.2813
 5628SOL    HW217705   0.403   4.628   3.450 -0.2320  0.6304 -0.1926
 5629SOL     OW17706   6.144   4.533   4.326 -0.3457  0.1886 -0.1378
 5629SOL    HW117707   6.172   4.481   4.246  2.3911 -0.4103  1.1113
 5629SOL    HW217708   6.167   4.629   4.313  1.4282 -0.1357  0.4600
 5630SOL     OW17709   4.164   4.588   3.903  0.7794  0.2446  0.0981
 5630SOL    HW117710   4.113   4.650   3.844  1.6440  0.9652  0.0932
 5630SOL    HW217711   4.174   4.499   3.858  0.1192  0.3020 -0.1754
 5631SOL     OW17712   1.057   4.054   5.403  0.0090 -0.3321  0.5564
 5631SOL    HW117713   1.095   4.081   5.492  1.4209 -1.3042  0.2786
 5631SOL    HW217714   1.131   4.048   5.337 -0.8535 -0.8415 -0.3846
 5632SOL     OW17715   1.888   2.757   3.320 -0.0741 -0.0661  0.2780
 5632SOL    HW117716   1.987   2.767   3.318 -0.1067  0.1656 -1.3867
 5632SOL    HW217717   1.854   2.776   3.412  1.4764 -0.7865  1.0293
 5633SOL     OW17718   1.456   0.474   3.838 -1.2883  0.6064  0.2023
 5633SOL    HW117719   1.361   0.443   3.845 -1.3772  1.0350  0.9185
 5633SOL    HW217720   1.510   0.431   3.910 -1.0230  0.6794  0.0465
 5634SOL     OW17721   1.908   1.713   4.272 -0.0730 -0.0695 -0.1373
 5634SOL    HW117722   1.911   1.809   4.301  1.6947  0.4054 -1.6616
 5634SOL    HW217723   1.826   1.698   4.217 -0.0891  0.7067 -0.3392
 5635SOL     OW17724   5.195   6.795   4.524  0.0690 -0.2721  0.0459
 5635SOL    HW117725   5.278   6.756   4.564  1.2870  1.3022 -0.8300
 5635SOL    HW217726   5.158   6.732   4.455  0.0693 -1.3223  0.9747
 5636SOL     OW17727   2.643   0.142   0.030  0.7175 -0.0294 -0.0283
 5636SOL    HW117728   2.620   0.120  -0.065 -0.5485  0.6183  0.1314
 5636SOL    HW217729   2.676   0.059   0.076 -1.4567 -1.0869 -0.2616
 5637SOL     OW17730   3.515   1.550   2.079  0.3387 -0.0954 -0.0437
 5637SOL    HW117731   3.430   1.550   2.026  1.0520  0.1713 -1.2316
 5637SOL    HW217732   3.534   1.643   2.111  0.2677 -0.1214  0.0728
 5638SOL     OW17733   4.496   1.489   3.281  0.2169  0.2361  0.6847
 5638SOL    HW117734   4.570   1.430   3.248 -0.3563  0.2526 -0.6833
 5638SOL    HW217735   4.487   1.568   3.221 -0.3794  0.6556  1.3134
 5639SOL     OW17736   5.211   0.901   6.198  0.6792 -0.1523  0.2275
 5639SOL    HW117737   5.220   0.911   6.297  1.9323 -0.6782  0.1918
 5639SOL    HW217738   5.156   0.820   6.178 -0.8165  0.7396  0.4637
 5640SOL     OW17739   4.153   0.332   4.099  0.4460  0.2138 -0.5368
 5640SOL    HW117740   4.142   0.258   4.166 -1.1042  2.5201  1.9242
 5640SOL    HW217741   4.251   0.353   4.089  0.7847 -0.9755  0.1019
 5641SOL     OW17742   0.852   2.254   5.343 -0.2351 -0.2317  0.0808
 5641SOL    HW117743   0.755   2.232   5.345 -0.7804  1.9494  0.4574
 5641SOL    HW217744   0.899   2.193   5.280 -2.0289 -0.6389 -0.9267
 5642SOL     OW17745   0.928   0.160   0.362  0.0419 -0.4326  0.2103
 5642SOL    HW117746   0.894   0.070   0.389 -0.3767  0.3557  2.4467
 5642SOL    HW217747   1.022   0.171   0.394 -0.2965  0.3349  0.9696
 5643SOL     OW17748   2.576   5.754   0.632  0.3729 -0.1815 -0.4817
 5643SOL    HW117749   2.587   5.688   0.557  0.4212 -1.0649  0.2852
 5643SOL    HW217750   2.485   5.743   0.672  0.7435 -0.4506  0.2902
 5644SOL     OW17751   3.804   3.628   2.729 -0.2422 -0.2195  0.0409
 5644SOL    HW117752   3.819   3.667   2.820  1.5337 -0.6130 -0.0472
 5644SOL    HW217753   3.866   3.551   2.715 -0.9529 -0.5870 -1.2761
 5645SOL     OW17754   3.093   0.363   3.311 -0.2742 -0.3924  0.2200
 5645SOL    HW117755   3.138   0.441   3.270 -2.2470  2.7195  3.4161
 5645SOL    HW217756   3.001   0.353   3.272 -0.9544  0.5752  1.4759
 5646SOL     OW17757   6.668   2.539   4.141 -0.3554  0.3237  0.2887
 5646SOL    HW117758   6.689   2.455   4.091 -0.2969 -0.9006  2.2506
 5646SOL    HW217759   6.586   2.581   4.101 -0.5454 -0.7900 -0.5728
 5647SOL     OW17760   5.052   3.360   5.568 -0.3985  0.4798  0.0396
 5647SOL    HW117761   5.123   3.350   5.637  1.0448  0.3514 -1.4043
 5647SOL    HW217762   4.974   3.409   5.607  0.3985  0.4937  1.7041
 5648SOL     OW17763   2.541   1.143   2.943 -0.6319  0.2153 -0.2629
 5648SOL    HW117764   2.523   1.237   2.914  0.9935  0.0798 -1.8713
 5648SOL    HW217765   2.480   1.119   3.018 -0.4610  2.8426  0.7911
 5649SOL     OW17766   2.735   1.123   5.627  0.4365 -0.1983  0.3370
 5649SOL    HW117767   2.767   1.130   5.722  0.8470  0.3378  0.1621
 5649SOL    HW217768   2.748   1.211   5.581  0.5055 -0.5405 -0.3047
 5650SOL     OW17769   6.727   4.842   2.570  0.2020  0.0014 -0.1520
 5650SOL    HW117770   6.736   4.812   2.665  0.6838  0.4234 -0.0553
 5650SOL    HW217771   6.666   4.921   2.567  2.2000  1.6507  0.1917
 5651SOL     OW17772   0.074   4.004   4.336 -0.5775 -0.0478 -0.1482
 5651SOL    HW117773  -0.001   3.991   4.400 -0.4654 -0.2915 -0.0868
 5651SOL    HW217774   0.073   3.931   4.267  0.0412 -0.4974  0.3040
 5652SOL     OW17775   4.343   1.225   3.047 -0.2166 -0.2824  0.1288
 5652SOL    HW117776   4.244   1.225   3.037 -0.2834 -2.1597  0.5475
 5652SOL    HW217777   4.379   1.132   3.036  1.6768  0.5404 -1.5068
 5653SOL     OW17778   6.695   6.258   3.750 -0.0012 -0.3656 -0.0482
 5653SOL    HW117779   6.727   6.163   3.757  0.4027 -0.2162  0.1854
 5653SOL    HW217780   6.684   6.281   3.653  2.2471  0.0952 -0.2696
 5654SOL     OW17781   1.100   1.875   6.962  0.2777  0.1134  0.1623
 5654SOL    HW117782   1.156   1.792   6.964  0.3415  0.1733  1.3863
 5654SOL    HW217783   1.051   1.884   7.049 -0.7752  0.6474 -0.4989
 5655SOL     OW17784   3.837   1.426   4.979  0.5685  0.6252  0.1376
 5655SOL    HW117785   3.832   1.350   5.045  2.6315  1.1377  0.9553
 5655SOL    HW217786   3.745   1.460   4.960 -0.2888 -1.1910  0.7881
 5656SOL     OW17787   1.171   4.020   3.199 -0.4514  0.2220 -0.5008
 5656SOL    HW117788   1.146   3.976   3.285  0.4654 -0.1253 -0.4012
 5656SOL    HW217789   1.245   3.969   3.156  0.7916  1.7894 -0.2815
 5657SOL     OW17790   2.922   6.483   0.369 -0.0773 -0.9081 -0.0169
 5657SOL    HW117791   2.894   6.446   0.280  0.9203 -2.4404  0.2830
 5657SOL    HW217792   2.988   6.422   0.412 -0.6115 -0.2374  1.8531
 5658SOL     OW17793   5.612   6.924   2.726 -0.3523  0.2004  0.3344
 5658SOL    HW117794   5.616   6.992   2.653 -0.8465  0.7938  0.8633
 5658SOL    HW217795   5.527   6.933   2.777 -0.5678 -1.0106  0.2269
 5659SOL     OW17796   5.241   0.485   2.262 -0.0442  0.2558 -0.7439
 5659SOL    HW117797   5.331   0.519   2.289 -0.0475 -0.3620  0.0862
 5659SOL    HW217798   5.171   0.552   2.287  0.1288  0.4511 -0.7833
 5660SOL     OW17799   5.869   4.309   0.943 -0.1879  0.4078  0.0092
 5660SOL    HW117800   5.949   4.320   1.002  0.1310  0.2156 -0.3847
 5660SOL    HW217801   5.803   4.248   0.987 -0.1803  0.6809  0.3988
 5661SOL     OW17802   1.016   4.889   2.751 -0.0205 -0.2130  0.1147
 5661SOL    HW117803   1.083   4.825   2.786  0.8292  2.0112  2.8497
 5661SOL    HW217804   0.940   4.838   2.709  0.2130 -3.0587  2.7778
 5662SOL     OW17805   4.589   2.648   0.928 -0.0525  0.3254  0.3145
 5662SOL    HW117806   4.506   2.659   0.982  0.0520  1.1034  0.3293
 5662SOL    HW217807   4.567   2.600   0.843 -0.7758  1.6875 -0.2932
 5663SOL     OW17808   4.191   5.675   4.665 -0.0707  0.1923  0.5753
 5663SOL    HW117809   4.155   5.755   4.616 -0.8954  1.3024  2.8441
 5663SOL    HW217810   4.147   5.592   4.629 -1.3780  1.0558  0.0826
 5664SOL     OW17811   0.592   6.169   2.664 -0.0905 -0.2855 -0.4761
 5664SOL    HW117812   0.518   6.104   2.645  0.0587 -0.9659  1.0864
 5664SOL    HW217813   0.553   6.252   2.704  0.0433 -1.1632  1.5916
 5665SOL     OW17814   6.638   2.854   1.527  0.2631  0.8431 -0.1248
 5665SOL    HW117815   6.711   2.908   1.568  1.4025 -1.7306  1.4813
 5665SOL    HW217816   6.557   2.858   1.586  0.2754  0.9307 -0.1116
 5666SOL     OW17817   3.508   5.544   0.791  0.5331 -0.0065 -0.0204
 5666SOL    HW117818   3.517   5.617   0.723 -4.6514  2.1058  1.1138
 5666SOL    HW217819   3.471   5.582   0.875 -1.4048 -3.7938  1.0210
 5667SOL     OW17820   4.044   6.368   2.645 -0.4872 -0.3413 -0.1961
 5667SOL    HW117821   4.047   6.268   2.643  1.5702 -0.3149 -0.4892
 5667SOL    HW217822   4.129   6.405   2.607  0.6423  1.4591  3.5027
 5668SOL     OW17823   0.060   1.191   6.236 -0.2828 -0.0547 -0.5323
 5668SOL    HW117824   0.062   1.148   6.326 -0.4126 -0.6030 -0.7856
 5668SOL    HW217825  -0.022   1.247   6.228 -1.9786 -2.5239 -1.4283
 5669SOL     OW17826   0.507   2.750   5.965 -0.5856  0.4560  0.8390
 5669SOL    HW117827   0.511   2.653   5.940 -0.9634  0.9667 -1.4615
 5669SOL    HW217828   0.572   2.801   5.908 -0.7367  1.6245  1.6830
 5670SOL     OW17829   6.078   5.078   5.564  0.2345 -0.3703  0.0008
 5670SOL    HW117830   6.022   5.035   5.493  0.2836  0.1465 -0.3538
 5670SOL    HW217831   6.173   5.049   5.552  0.1707 -0.6481  0.1330
 5671SOL     OW17832   3.423   4.734   3.740 -0.2286 -0.1378 -0.8358
 5671SOL    HW117833   3.413   4.752   3.838 -1.9401 -0.5498 -0.8905
 5671SOL    HW217834   3.514   4.696   3.722 -0.1610 -0.8125  0.6960
 5672SOL     OW17835   5.037   4.593   5.602 -0.2010 -0.0990 -0.4657
 5672SOL    HW117836   4.957   4.604   5.661  1.0578  2.7213  0.8851
 5672SOL    HW217837   5.012   4.610   5.507 -1.1022  1.4903  0.0214
 5673SOL     OW17838   6.889   0.608   5.670 -0.0380  0.3187 -0.4922
 5673SOL    HW117839   6.955   0.588   5.742  0.0440  1.5798 -0.1936
 5673SOL    HW217840   6.808   0.550   5.682  0.2783 -0.0016  0.1747
 5674SOL     OW17841   1.645   3.113   6.196 -0.0398  0.2629 -0.0205
 5674SOL    HW117842   1.634   3.210   6.174 -2.5331  0.3499  1.2047
 5674SOL    HW217843   1.582   3.060   6.139  0.9809 -0.6208 -0.3531
 5675SOL     OW17844   6.875   6.600   4.590  0.0411  0.3880 -0.2783
 5675SOL    HW117845   6.859   6.506   4.620 -0.6443 -0.3359 -2.6975
 5675SOL    HW217846   6.972   6.622   4.601  0.7246 -1.5156 -1.8944
 5676SOL     OW17847   5.606   1.288   6.328 -0.3491  0.8011  0.0958
 5676SOL    HW117848   5.664   1.318   6.253 -0.7579  0.3869 -0.3893
 5676SOL    HW217849   5.510   1.304   6.305 -0.6532 -1.5534 -0.5138
 5677SOL     OW17850   5.237   1.968   3.681 -0.0978 -0.2216 -0.0815
 5677SOL    HW117851   5.179   1.926   3.612  0.9509 -0.4579 -0.8556
 5677SOL    HW217852   5.181   2.013   3.750 -1.1846 -0.6929 -0.6392
 5678SOL     OW17853   2.606   2.894   2.966  0.2039 -0.1195  0.5223
 5678SOL    HW117854   2.655   2.822   3.015  1.4138  1.1451  1.2269
 5678SOL    HW217855   2.598   2.974   3.024  1.4647  1.3500 -1.2025
 5679SOL     OW17856   1.253   0.429   4.605  0.2106  0.1917 -0.5100
 5679SOL    HW117857   1.250   0.485   4.523 -0.8941  1.0399  0.0794
 5679SOL    HW217858   1.238   0.333   4.581  3.1719 -0.0623 -1.6667
 5680SOL     OW17859   6.855   2.265   4.494  0.8630  0.3657 -0.3507
 5680SOL    HW117860   6.864   2.170   4.524  0.3009  0.4632  0.1565
 5680SOL    HW217861   6.896   2.325   4.564  0.0858  0.5653 -0.0556
 5681SOL     OW17862   0.713   2.018   1.786  0.1577  0.0490 -0.1163
 5681SOL    HW117863   0.791   2.017   1.723 -0.7999  0.2201 -1.3337
 5681SOL    HW217864   0.725   2.093   1.852  1.4084 -0.4348  0.2458
 5682SOL     OW17865   4.580   6.916   0.466 -0.6555 -0.1893  0.7506
 5682SOL    HW117866   4.508   6.962   0.517 -1.3708 -0.0026 -0.3817
 5682SOL    HW217867   4.607   6.972   0.388  1.0595 -0.0454  1.3907
 5683SOL     OW17868   1.102   6.864   3.207  0.2310  0.2845 -0.2743
 5683SOL    HW117869   1.055   6.952   3.204 -0.5189 -0.0744  0.4289
 5683SOL    HW217870   1.037   6.790   3.189  1.1571 -0.0532 -2.4797
 5684SOL     OW17871   4.605   6.337   6.715  0.1635  0.6082 -0.1649
 5684SOL    HW117872   4.549   6.267   6.671 -1.1022  1.0606  0.6432
 5684SOL    HW217873   4.636   6.403   6.646  1.3976 -0.7289 -0.9370
 5685SOL     OW17874   6.956   2.974   2.967  0.0818 -0.2996 -0.2337
 5685SOL    HW117875   6.906   2.937   2.889 -0.3596  0.1430 -0.1679
 5685SOL    HW217876   7.044   2.928   2.975  0.3831  0.1196 -1.3845
 5686SOL     OW17877   5.980   6.072   1.086  0.5596  0.0009  0.2259
 5686SOL    HW117878   5.955   5.976   1.093  0.8520  0.0060  1.7039
 5686SOL    HW217879   5.955   6.107   0.996 -0.8956 -1.0755  0.1746
 5687SOL     OW17880   4.505   0.064   4.690 -0.1683  0.0719 -0.0175
 5687SOL    HW117881   4.563   0.115   4.754 -0.6102 -0.9196  1.2411
 5687SOL    HW217882   4.425   0.119   4.666  1.7114  1.8776 -2.6068
 5688SOL     OW17883   6.573   5.841   5.560  0.1859 -0.2469 -0.3969
 5688SOL    HW117884   6.569   5.846   5.660 -3.1295 -1.4550 -0.3333
 5688SOL    HW217885   6.542   5.751   5.530 -1.3031  0.8891 -2.5367
 5689SOL     OW17886   6.886   3.733   5.299 -0.3511  0.6160  0.5061
 5689SOL    HW117887   6.875   3.678   5.382  0.1673  2.3664  1.8069
 5689SOL    HW217888   6.983   3.738   5.274 -0.6249 -1.0832 -1.1048
 5690SOL     OW17889   6.596   5.630   0.950 -0.0135 -0.6414  0.2287
 5690SOL    HW117890   6.609   5.535   0.978  1.4060 -0.3819  0.5465
 5690SOL    HW217891   6.622   5.641   0.853  0.2987 -0.4965  0.3242
 5691SOL     OW17892   3.335   0.397   1.235  0.4735  0.0111  0.1723
 5691SOL    HW117893   3.259   0.427   1.177  0.3716 -0.9523 -0.2046
 5691SOL    HW217894   3.415   0.454   1.216  0.5586 -0.5117 -1.1973
 5692SOL     OW17895   5.103   6.029   6.389 -0.3340 -0.4879  0.0874
 5692SOL    HW117896   5.126   6.029   6.487  1.4700 -1.3789 -0.2915
 5692SOL    HW217897   5.131   5.942   6.348  0.7937  0.5941 -1.6161
 5693SOL     OW17898   5.160   6.199   4.999  0.3610  0.4982  0.6625
 5693SOL    HW117899   5.162   6.296   5.022  1.1219  0.6343  0.0643
 5693SOL    HW217900   5.134   6.146   5.080 -1.2497  1.2756  0.6857
 5694SOL     OW17901   0.054   4.999   3.076 -0.5064  0.4603  0.0333
 5694SOL    HW117902   0.048   4.929   3.006 -0.5343  1.0923 -0.6033
 5694SOL    HW217903   0.137   4.986   3.130 -0.9351 -0.5585  0.4610
 5695SOL     OW17904   2.812   6.783   2.370  0.7112  0.7626  0.5050
 5695SOL    HW117905   2.776   6.700   2.411 -1.2545  1.5771  0.5015
 5695SOL    HW217906   2.901   6.804   2.410  0.4824 -0.4292  1.6994
 5696SOL     OW17907   6.238   4.327   4.536  0.0019  0.1207 -0.3474
 5696SOL    HW117908   6.174   4.389   4.582  0.3462 -0.7590  1.3681
 5696SOL    HW217909   6.198   4.236   4.531  0.7506 -0.2289 -0.0488
 5697SOL     OW17910   5.836   1.395   1.951 -0.2064 -0.1055 -0.0567
 5697SOL    HW117911   5.786   1.312   1.977  1.7665 -0.6106  2.6454
 5697SOL    HW217912   5.802   1.473   2.004 -2.0778  0.9712 -2.6113
 5698SOL     OW17913   1.946   1.310   6.390 -0.3436 -0.4146 -0.8940
 5698SOL    HW117914   1.984   1.230   6.436  1.7052  1.3120  0.6258
 5698SOL    HW217915   1.995   1.328   6.305 -0.0626 -0.1622 -0.6802
 5699SOL     OW17916   1.040   6.651   1.273 -0.1223  0.9141  0.0888
 5699SOL    HW117917   0.984   6.674   1.353  0.3156  0.3840  0.5526
 5699SOL    HW217918   1.135   6.640   1.300 -0.0137  0.4411 -0.4463
 5700SOL     OW17919   2.054   5.843   6.363  0.6049 -0.6933  0.6347
 5700SOL    HW117920   2.019   5.919   6.418  0.6059 -1.3108  1.5161
 5700SOL    HW217921   2.127   5.797   6.413  0.7525 -1.1428  0.0154
 5701SOL     OW17922   1.047   1.266   0.362 -0.1902  0.0401 -0.1042
 5701SOL    HW117923   1.023   1.334   0.292 -1.1261 -0.4829 -0.3226
 5701SOL    HW217924   1.119   1.302   0.421 -1.5747  1.7747  0.6259
 5702SOL     OW17925   1.221   5.959   1.394 -0.7032 -0.2032  0.1865
 5702SOL    HW117926   1.193   5.946   1.299  1.4866 -1.6906 -0.3394
 5702SOL    HW217927   1.271   5.878   1.425 -0.0892  0.8576  2.1279
 5703SOL     OW17928   1.444   0.491   0.956 -0.3557  0.6426  0.2272
 5703SOL    HW117929   1.479   0.583   0.974  0.5245  0.5186 -0.6883
 5703SOL    HW217930   1.345   0.493   0.951 -0.4740  1.1967  2.0125
 5704SOL     OW17931   5.252   1.960   3.218  0.4646 -0.2250 -0.2238
 5704SOL    HW117932   5.340   1.946   3.264  1.0776  0.5062 -1.1374
 5704SOL    HW217933   5.239   1.889   3.149 -0.4823 -1.3567  1.0686
 5705SOL     OW17934   1.050   6.862   2.546 -0.4269 -0.0054  0.3941
 5705SOL    HW117935   1.141   6.835   2.577  0.3703  3.9774  2.2174
 5705SOL    HW217936   1.059   6.928   2.471 -1.7596  0.7354  0.8645
 5706SOL     OW17937   6.790   0.878   1.379  0.1629 -0.1013  0.0678
 5706SOL    HW117938   6.721   0.890   1.450 -1.9638  0.9660 -2.0347
 5706SOL    HW217939   6.773   0.794   1.328  0.4590  0.1121 -0.3996
 5707SOL     OW17940   5.625   3.930   4.270  0.1621 -0.1759  0.5228
 5707SOL    HW117941   5.648   3.980   4.187  0.0761  0.0571  0.6378
 5707SOL    HW217942   5.539   3.881   4.257 -1.7129  2.5854  1.5797
 5708SOL     OW17943   0.016   6.515   5.325  0.6635  0.6452  0.1118
 5708SOL    HW117944  -0.070   6.565   5.313 -0.6183 -0.9231  2.1607
 5708SOL    HW217945   0.029   6.452   5.249  0.3174  1.2756 -0.4899
 5709SOL     OW17946   1.875   4.986   3.783  0.1380  0.0647  0.0743
 5709SOL    HW117947   1.891   4.887   3.786  0.6653  0.1639  0.6144
 5709SOL    HW217948   1.816   5.007   3.705 -0.9101 -0.8044  0.6010
 5710SOL     OW17949   4.070   7.000   4.527 -0.7109 -0.3955 -0.2001
 5710SOL    HW117950   3.992   7.034   4.580 -0.2591 -0.0209  0.2172
 5710SOL    HW217951   4.077   6.901   4.537 -1.7030 -0.5629 -0.9678
 5711SOL     OW17952   0.610   1.649   3.440 -0.3862  0.0874  0.1027
 5711SOL    HW117953   0.635   1.582   3.370 -0.9767  0.5591 -0.5965
 5711SOL    HW217954   0.679   1.721   3.443 -1.4584  1.2613 -1.6323
 5712SOL     OW17955   3.282   0.168   2.996 -0.3820  0.0344 -0.7854
 5712SOL    HW117956   3.343   0.169   2.916 -1.1445 -2.7100 -1.5043
 5712SOL    HW217957   3.188   0.180   2.966 -0.6567 -0.7658 -0.2710
 5713SOL     OW17958   1.257   6.328   6.041  0.1438  0.0890 -0.6498
 5713SOL    HW117959   1.277   6.283   6.128 -1.2983 -0.2273 -0.4482
 5713SOL    HW217960   1.285   6.424   6.046 -2.0627  0.7503  1.1021
 5714SOL     OW17961   6.503   3.838   6.705 -0.2556 -0.6210  0.2687
 5714SOL    HW117962   6.497   3.817   6.802 -0.3507  1.4259  0.7656
 5714SOL    HW217963   6.585   3.894   6.689  0.0977 -1.4522 -0.9518
 5715SOL     OW17964   2.117   5.775   1.163 -0.0120  0.2600  0.3709
 5715SOL    HW117965   2.102   5.845   1.233 -3.1581  1.3884 -1.2585
 5715SOL    HW217966   2.071   5.690   1.190  0.4024  0.0694  0.4985
 5716SOL     OW17967   6.722   5.807   3.978 -0.0504  0.3990 -0.0780
 5716SOL    HW117968   6.760   5.763   3.897  0.3895 -0.7747  0.7421
 5716SOL    HW217969   6.624   5.821   3.965 -0.2789 -1.1817 -0.2322
 5717SOL     OW17970   1.149   4.873   0.538 -0.2268  0.1459  0.1631
 5717SOL    HW117971   1.136   4.920   0.625  2.2006 -1.9110  1.7670
 5717SOL    HW217972   1.105   4.783   0.541 -2.0890  0.8905 -1.6831
 5718SOL     OW17973   1.454   5.646   2.759  0.5617  0.2017  0.4762
 5718SOL    HW117974   1.431   5.596   2.676 -3.4822  1.3278  0.6974
 5718SOL    HW217975   1.441   5.744   2.744  0.1002  0.4689  2.2613
 5719SOL     OW17976   0.914   4.809   2.361  0.3695  0.8011  0.2077
 5719SOL    HW117977   0.895   4.822   2.458 -0.8950  0.1257  0.0807
 5719SOL    HW217978   0.917   4.712   2.339 -1.0912  0.9141 -0.6901
 5720SOL     OW17979   0.104   0.146   2.843 -0.2170  0.1064 -0.4207
 5720SOL    HW117980   0.101   0.244   2.864  1.3012  0.2050 -0.5970
 5720SOL    HW217981   0.198   0.113   2.848 -0.8434 -1.6225  0.8135
 5721SOL     OW17982   5.850   2.921   7.005 -0.3836  0.2159  0.3136
 5721SOL    HW117983   5.783   2.977   6.956 -2.2618 -2.0899  0.1383
 5721SOL    HW217984   5.931   2.909   6.948 -0.1004  2.3310  0.1807
 5722SOL     OW17985   6.806   5.032   6.803 -0.0757  0.1296 -0.2466
 5722SOL    HW117986   6.737   5.051   6.873  1.3383 -0.8904  1.5145
 5722SOL    HW217987   6.856   5.116   6.782 -1.8458  0.9221 -1.6613
 5723SOL     OW17988   1.731   6.633   3.975  0.4028 -0.1761  0.2929
 5723SOL    HW117989   1.749   6.535   3.974  1.1094 -0.0572 -1.2440
 5723SOL    HW217990   1.809   6.681   4.014 -0.1261 -0.2377  1.4633
 5724SOL     OW17991   0.482   1.335   1.292 -0.2722 -0.6442  0.2666
 5724SOL    HW117992   0.410   1.403   1.277 -0.3476 -0.7950 -0.0724
 5724SOL    HW217993   0.550   1.342   1.219 -0.1515 -0.7694  0.3664
 5725SOL     OW17994   4.123   4.861   6.388  0.4663  0.5811 -0.3955
 5725SOL    HW117995   4.054   4.871   6.459 -0.4811  0.3111 -1.2469
 5725SOL    HW217996   4.214   4.867   6.428 -0.0325  2.1097  0.5968
 5726SOL     OW17997   0.966   4.723   1.073  0.0966 -0.2043 -0.1600
 5726SOL    HW117998   1.045   4.741   1.132 -0.0038 -1.2873  0.3336
 5726SOL    HW217999   0.954   4.624   1.063 -1.4050 -0.0648  0.0444
 5727SOL     OW18000   2.736   1.360   5.485 -0.2288  0.0015  0.3975
 5727SOL    HW118001   2.756   1.323   5.395 -0.7491  1.2256 -0.2378
 5727SOL    HW218002   2.770   1.454   5.492 -0.0197 -0.1373  1.5472
 5728SOL     OW18003   5.953   2.864   2.819 -0.4850  0.0315 -0.1217
 5728SOL    HW118004   5.966   2.942   2.757 -2.1980  2.3958  2.3165
 5728SOL    HW218005   5.865   2.821   2.800 -0.8988  0.6034  0.4495
 5729SOL     OW18006   5.702   6.762   0.157 -0.6735  0.0285  0.0614
 5729SOL    HW118007   5.748   6.765   0.245  0.6168 -1.3286 -0.5330
 5729SOL    HW218008   5.746   6.827   0.094  0.5525 -1.3203 -0.5291
 5730SOL     OW18009   0.532   3.315   1.339 -0.2939 -0.3525  0.1884
 5730SOL    HW118010   0.625   3.347   1.358 -0.3303  1.0584 -1.6072
 5730SOL    HW218011   0.535   3.218   1.315  0.8256 -0.2179 -0.3236
 5731SOL     OW18012   6.839   6.027   3.351 -0.0541  0.4660 -0.3409
 5731SOL    HW118013   6.898   6.104   3.378  0.2413  0.3667 -0.6921
 5731SOL    HW218014   6.881   5.979   3.274  0.9260 -1.4356  1.3146
 5732SOL     OW18015   2.586   0.571   0.898 -0.4135  0.3636  0.1790
 5732SOL    HW118016   2.635   0.656   0.922 -0.6502  0.2636  1.0424
 5732SOL    HW218017   2.605   0.502   0.968  0.5891 -0.6303 -1.0359
 5733SOL     OW18018   3.123   6.814   3.918  0.3846  0.0930 -0.0351
 5733SOL    HW118019   3.111   6.874   3.838  1.0856  0.7942  0.3672
 5733SOL    HW218020   3.033   6.793   3.957  0.1535  1.5137  0.2627
 5734SOL     OW18021   2.973   3.083   3.252 -0.4572 -0.3528  0.1476
 5734SOL    HW118022   2.938   3.012   3.312  0.7645 -0.2305  1.0512
 5734SOL    HW218023   2.983   3.168   3.304  2.4089 -0.7155  0.3697
 5735SOL     OW18024   0.570   2.037   0.265 -0.8503 -0.1662 -0.3064
 5735SOL    HW118025   0.553   1.939   0.253 -0.7172 -0.2155 -0.0872
 5735SOL    HW218026   0.654   2.062   0.217  0.6073 -0.6844  1.8426
 5736SOL     OW18027   3.194   4.725   1.095 -0.3797  0.3085  0.3635
 5736SOL    HW118028   3.246   4.678   1.024 -1.5908  0.2327 -0.4898
 5736SOL    HW218029   3.112   4.766   1.055 -1.0207  0.3560  1.6868
 5737SOL     OW18030   4.226   1.991   0.671 -0.2320  0.1252  0.2117
 5737SOL    HW118031   4.200   1.978   0.575 -0.5758 -1.6478  0.5127
 5737SOL    HW218032   4.159   1.946   0.730 -0.2059  1.4837  1.3142
 5738SOL     OW18033   0.420   1.689   2.407  0.1409 -0.0756 -0.2140
 5738SOL    HW118034   0.399   1.700   2.310 -0.4786 -1.1079 -0.2187
 5738SOL    HW218035   0.505   1.736   2.429  0.2144  0.2842 -1.2278
 5739SOL     OW18036   2.005   2.365   1.203 -0.2688 -0.4379  0.2604
 5739SOL    HW118037   1.971   2.449   1.245  1.8833  1.2079 -1.0622
 5739SOL    HW218038   1.988   2.368   1.104  1.0394 -0.9167  0.0008
 5740SOL     OW18039   3.583   0.095   3.086 -0.1368 -0.7044  0.4010
 5740SOL    HW118040   3.580   0.138   2.996  2.0162  0.2208  0.6946
 5740SOL    HW218041   3.543   0.156   3.153  0.3809 -0.3593  0.4020
 5741SOL     OW18042   0.936   5.797   1.803 -0.1018  0.5204 -0.3802
 5741SOL    HW118043   0.927   5.815   1.705  1.0368 -0.1586 -0.6257
 5741SOL    HW218044   0.910   5.703   1.822 -0.3663  0.6645 -0.0219
 5742SOL     OW18045   6.918   0.959   5.978 -0.5443 -0.0119 -0.0060
 5742SOL    HW118046   6.857   0.906   5.919  0.9756  1.0887 -2.7201
 5742SOL    HW218047   7.011   0.958   5.941  0.1630  2.1084  1.4963
 5743SOL     OW18048   2.348   0.267   6.885 -0.1123  0.1032  0.4547
 5743SOL    HW118049   2.302   0.226   6.964 -0.8987  1.1600  0.5709
 5743SOL    HW218050   2.436   0.305   6.914 -0.0686 -0.1581  0.6659
 5744SOL     OW18051   4.721   1.732   3.367 -0.1768  0.0521  0.0135
 5744SOL    HW118052   4.665   1.663   3.414 -0.9116  0.6768  0.0722
 5744SOL    HW218053   4.789   1.686   3.310  0.9132 -0.7547  1.8585
 5745SOL     OW18054   2.081   4.126   5.950  0.6844  0.0740  0.0684
 5745SOL    HW118055   1.991   4.168   5.962  0.1384 -1.3968  1.4197
 5745SOL    HW218056   2.071   4.033   5.914  1.7643  0.3665 -1.0659
 5746SOL     OW18057   6.350   1.335   6.346 -0.1509  0.3534  0.6183
 5746SOL    HW118058   6.351   1.383   6.433  0.5559 -0.1774  0.9113
 5746SOL    HW218059   6.406   1.253   6.352  1.2789  1.1585 -0.8170
 5747SOL     OW18060   1.574   2.832   1.679  0.0579 -0.2953  0.6048
 5747SOL    HW118061   1.496   2.890   1.655 -0.8850 -0.8529  2.1698
 5747SOL    HW218062   1.542   2.752   1.730  1.5277 -1.2733  0.0685
 5748SOL     OW18063   5.065   1.995   5.649  0.1756 -0.1055 -0.1349
 5748SOL    HW118064   5.093   2.076   5.599 -1.7967  0.7017 -0.0185
 5748SOL    HW218065   4.980   2.014   5.699 -0.7116 -2.4255 -0.6439
 5749SOL     OW18066   4.766   4.301   3.743  0.0313  0.3579  0.1220
 5749SOL    HW118067   4.810   4.341   3.824 -0.0197 -1.9955  1.3836
 5749SOL    HW218068   4.688   4.245   3.771  0.2650 -0.8647 -1.5045
 5750SOL     OW18069   1.273   5.243   1.592  0.8201 -0.2949 -0.0474
 5750SOL    HW118070   1.277   5.145   1.613  1.8800  0.0119  1.3826
 5750SOL    HW218071   1.236   5.292   1.670  0.3486  0.4634 -0.7291
 5751SOL     OW18072   2.516   6.645   0.261  0.5860 -0.1420  0.3547
 5751SOL    HW118073   2.449   6.686   0.199 -0.4336  1.3054  2.3070
 5751SOL    HW218074   2.471   6.576   0.318  1.1189 -0.2879  0.6088
 5752SOL     OW18075   4.096   1.357   2.980  0.5227  0.0592  0.1772
 5752SOL    HW118076   4.117   1.454   2.996 -0.4816  0.0487  1.8023
 5752SOL    HW218077   4.050   1.320   3.061 -2.6609 -0.7703 -1.8335
 5753SOL     OW18078   5.872   0.113   0.729  0.3729  0.2746 -0.4665
 5753SOL    HW118079   5.846   0.022   0.695 -0.8793  1.3856 -2.6335
 5753SOL    HW218080   5.791   0.157   0.768  0.4881  1.1883 -1.2328
 5754SOL     OW18081   0.404   6.122   4.982 -0.6747 -0.3230 -0.1943
 5754SOL    HW118082   0.389   6.082   4.891  0.4570  0.4447 -0.7479
 5754SOL    HW218083   0.468   6.198   4.974 -0.6786 -0.1503  1.2410
 5755SOL     OW18084   6.402   2.922   1.027  0.9444  0.2874  0.2082
 5755SOL    HW118085   6.433   2.865   1.104  1.1037 -0.9059 -0.7160
 5755SOL    HW218086   6.409   3.019   1.053 -2.2588 -0.0709  2.9793
 5756SOL     OW18087   3.519   0.277   3.277 -0.3144 -0.7124  0.1249
 5756SOL    HW118088   3.452   0.338   3.319 -0.1596  0.1297 -0.8288
 5756SOL    HW218089   3.603   0.327   3.259 -0.2198 -1.1855 -0.7747
 5757SOL     OW18090   5.982   3.639   5.104 -0.0102 -0.1320 -0.4239
 5757SOL    HW118091   5.916   3.636   5.179  1.3151 -0.6567  0.7759
 5757SOL    HW218092   6.071   3.607   5.137  0.7371  0.1008 -2.1102
 5758SOL     OW18093   4.647   4.470   2.003 -0.2559  0.0148  0.4897
 5758SOL    HW118094   4.730   4.525   1.990  0.4504 -1.1993 -0.2712
 5758SOL    HW218095   4.645   4.432   2.095  0.7316 -1.0532  0.0867
 5759SOL     OW18096   3.752   5.370   3.117  0.0859 -0.1257  0.7576
 5759SOL    HW118097   3.732   5.462   3.151 -3.2133 -1.0676  1.6203
 5759SOL    HW218098   3.725   5.363   3.021 -0.8334 -0.4828  1.0254
 5760SOL     OW18099   6.764   4.723   4.577  0.0201  0.2325 -0.0447
 5760SOL    HW118100   6.692   4.747   4.511 -1.5704 -0.7794  1.2284
 5760SOL    HW218101   6.730   4.741   4.669  0.6556 -2.1134  0.7001
 5761SOL     OW18102   5.956   3.576   0.581 -0.5954 -0.0994  0.0210
 5761SOL    HW118103   5.987   3.608   0.491 -1.1032 -0.4835 -0.2981
 5761SOL    HW218104   6.033   3.533   0.629 -0.3688 -0.0718 -0.3107
 5762SOL     OW18105   2.653   4.600   3.770  0.1638  0.1157 -0.1381
 5762SOL    HW118106   2.570   4.549   3.748 -1.2607  2.4772 -0.5010
 5762SOL    HW218107   2.700   4.625   3.686  0.5378 -0.0583  0.0156
 5763SOL     OW18108   6.799   3.516   6.616  0.5149 -0.0043  0.2534
 5763SOL    HW118109   6.727   3.549   6.555 -0.0325 -1.7248 -0.0689
 5763SOL    HW218110   6.839   3.593   6.665 -1.7403  0.9860  0.6660
 5764SOL     OW18111   2.649   0.533   6.173 -0.0928 -0.3272 -0.1086
 5764SOL    HW118112   2.575   0.474   6.206 -0.3832  0.6483  1.0769
 5764SOL    HW218113   2.724   0.477   6.140 -0.8964 -1.3476 -0.2464
 5765SOL     OW18114   6.086   3.694   6.941 -0.3213 -0.8442  0.7907
 5765SOL    HW118115   6.124   3.720   7.029 -1.7206 -0.9847  1.4572
 5765SOL    HW218116   6.012   3.757   6.916  1.9885  1.1240 -1.7669
 5766SOL     OW18117   4.789   4.447   2.562 -0.4047  0.0427  0.3655
 5766SOL    HW118118   4.745   4.532   2.535  1.2163  0.3237 -1.6186
 5766SOL    HW218119   4.728   4.397   2.624 -1.6649  2.2966  1.0874
 5767SOL     OW18120   1.926   3.917   5.854  0.2985 -0.0110  0.6746
 5767SOL    HW118121   1.862   3.932   5.779 -2.3227 -2.1109  2.2683
 5767SOL    HW218122   1.877   3.920   5.941  2.9261  0.8418  2.2518
 5768SOL     OW18123   1.696   5.361   6.060  0.3289  0.0232 -0.2875
 5768SOL    HW118124   1.658   5.438   6.009 -0.7005 -0.1522  0.1897
 5768SOL    HW218125   1.628   5.288   6.066  0.8016 -0.3773  0.4419
 5769SOL     OW18126   6.597   5.978   3.463 -0.1137 -0.1933  0.3731
 5769SOL    HW118127   6.549   5.896   3.431 -2.8542  1.1979  0.6494
 5769SOL    HW218128   6.688   5.981   3.422 -0.1423 -3.0246 -0.1188
 5770SOL     OW18129   6.073   1.709   5.356  0.0623 -0.0340  0.2841
 5770SOL    HW118130   5.987   1.725   5.405  0.0639 -0.1056  0.3113
 5770SOL    HW218131   6.100   1.613   5.366  1.2085  0.4153  1.9894
 5771SOL     OW18132   0.540   1.050   2.292  0.4364  0.5031 -0.1568
 5771SOL    HW118133   0.627   1.032   2.339 -0.3571  0.7118  1.4436
 5771SOL    HW218134   0.503   0.965   2.255  0.1364 -0.0124  1.2901
 5772SOL     OW18135   3.828   0.116   6.121  0.0836  0.2494  0.3916
 5772SOL    HW118136   3.741   0.112   6.072 -0.6599 -0.4534  1.7167
 5772SOL    HW218137   3.881   0.033   6.101  0.4650  0.6847 -0.4268
 5773SOL     OW18138   6.589   0.756   4.465  0.1592  0.5042 -0.0051
 5773SOL    HW118139   6.529   0.702   4.524 -2.2254  0.8615 -1.8963
 5773SOL    HW218140   6.631   0.697   4.396  2.3283  0.2113  1.4587
 5774SOL     OW18141   4.910   3.124   4.062  0.5734  0.2109 -0.5602
 5774SOL    HW118142   4.924   3.198   4.127 -0.3106  0.2114 -0.3513
 5774SOL    HW218143   4.984   3.124   3.995  2.1157 -0.5104  1.1025
 5775SOL     OW18144   0.159   1.570   1.634  0.1699  0.3594  0.0776
 5775SOL    HW118145   0.113   1.577   1.546  0.8167  2.2380 -0.1531
 5775SOL    HW218146   0.254   1.601   1.625  0.7830 -1.0877  1.0722
 5776SOL     OW18147   1.831   4.529   3.948 -0.2298  0.4320 -0.8555
 5776SOL    HW118148   1.799   4.436   3.966 -0.5359  0.7944  0.6406
 5776SOL    HW218149   1.782   4.593   4.007 -1.0141  1.7321 -2.7908
 5777SOL     OW18150   6.227   5.918   1.746 -0.0838  0.0417 -0.0211
 5777SOL    HW118151   6.270   5.976   1.676 -1.5669  3.1396  1.4640
 5777SOL    HW218152   6.128   5.924   1.737 -0.2856 -0.6918  1.4528
 5778SOL     OW18153   6.364   0.833   3.360  0.5375 -0.4429  0.0504
 5778SOL    HW118154   6.445   0.782   3.333 -1.3160 -3.1816 -0.7279
 5778SOL    HW218155   6.316   0.866   3.279 -0.6588 -1.3971  0.3479
 5779SOL     OW18156   2.519   4.248   5.504 -0.8245 -0.4972 -0.2424
 5779SOL    HW118157   2.608   4.209   5.527 -0.6751 -0.8381 -1.3383
 5779SOL    HW218158   2.491   4.313   5.575  0.0598 -0.7640  0.3578
 5780SOL     OW18159   0.091   6.528   1.535 -0.1412  0.2408 -0.1247
 5780SOL    HW118160   0.093   6.477   1.449  0.7299 -0.9221  0.5710
 5780SOL    HW218161   0.047   6.473   1.605 -0.5962  1.0762  0.2626
 5781SOL     OW18162   4.587   3.717   6.463 -0.0737  0.1521 -0.8511
 5781SOL    HW118163   4.497   3.733   6.504  0.2795  3.9392 -1.2674
 5781SOL    HW218164   4.658   3.724   6.533  0.0576 -1.7498 -0.7274
 5782SOL     OW18165   5.742   1.511   3.649 -0.8792  0.2515 -0.3863
 5782SOL    HW118166   5.771   1.605   3.666  0.0593  0.2472 -1.8425
 5782SOL    HW218167   5.646   1.509   3.621 -0.6966  0.8557 -1.0570
 5783SOL     OW18168   1.910   3.815   5.325  0.1699 -0.0964  0.4466
 5783SOL    HW118169   1.860   3.769   5.399 -1.6707  0.9039 -0.1144
 5783SOL    HW218170   1.994   3.765   5.306  0.0114 -1.1441  2.2840
 5784SOL     OW18171   4.376   3.035   6.936  0.6342 -0.0094  0.0053
 5784SOL    HW118172   4.357   3.007   6.842 -1.2896 -1.1953  0.6806
 5784SOL    HW218173   4.409   3.129   6.937  1.0531 -0.1048 -1.8697
 5785SOL     OW18174   4.834   1.325   2.650 -0.2117 -0.4207 -0.3514
 5785SOL    HW118175   4.850   1.233   2.686  2.0795  0.4780  1.0867
 5785SOL    HW218176   4.914   1.356   2.598 -2.4105 -0.6529 -4.3092
 5786SOL     OW18177   1.239   0.654   1.543 -0.1504 -0.5976  0.3364
 5786SOL    HW118178   1.271   0.619   1.454  1.2219  1.7076 -0.1658
 5786SOL    HW218179   1.302   0.625   1.614  0.0456 -0.4853  0.2079
 5787SOL     OW18180   2.133   3.719   1.864 -0.0234 -0.8837 -0.6217
 5787SOL    HW118181   2.153   3.624   1.889  0.0287 -0.7281 -0.0470
 5787SOL    HW218182   2.219   3.769   1.855 -0.0955 -0.5005  0.6809
 5788SOL     OW18183   6.097   4.312   2.715  0.3773 -0.1358  0.1395
 5788SOL    HW118184   6.050   4.306   2.803 -0.6704  0.9387 -0.3219
 5788SOL    HW218185   6.037   4.275   2.643 -0.3338  2.3787 -0.6366
 5789SOL     OW18186   3.309   1.732   5.797  0.0088 -0.3896 -0.6343
 5789SOL    HW118187   3.276   1.809   5.851  1.7746  1.3096 -1.8664
 5789SOL    HW218188   3.288   1.748   5.700  0.0237 -1.6681 -0.8551
 5790SOL     OW18189   6.830   1.716   3.797  0.0572 -0.0679 -0.3762
 5790SOL    HW118190   6.924   1.748   3.789 -0.1886  0.6793 -0.3346
 5790SOL    HW218191   6.783   1.766   3.869 -0.4763 -0.1925 -0.6226
 5791SOL     OW18192   5.317   5.359   4.279  0.1163  0.1477 -0.1442
 5791SOL    HW118193   5.326   5.312   4.367 -1.9361  0.3610  0.2268
 5791SOL    HW218194   5.405   5.359   4.232  0.8141 -1.6297  1.0639
 5792SOL     OW18195   1.479   4.868   6.192  0.1693 -0.3664 -0.0474
 5792SOL    HW118196   1.426   4.874   6.277 -0.0616  0.5023 -0.2471
 5792SOL    HW218197   1.419   4.841   6.117 -0.9047  3.8026 -1.0059
 5793SOL     OW18198   5.990   4.345   5.573 -0.3463  0.0794  0.2687
 5793SOL    HW118199   6.089   4.344   5.591 -0.3577  0.4067  0.3566
 5793SOL    HW218200   5.971   4.288   5.493  0.0275  0.7489 -0.3127
 5794SOL     OW18201   1.331   6.819   5.072  0.4882  0.5386  0.3922
 5794SOL    HW118202   1.380   6.902   5.045  0.5075  1.8055  3.8915
 5794SOL    HW218203   1.372   6.780   5.154 -0.5609 -2.0438 -0.2011
 5795SOL     OW18204   3.078   2.102   6.886 -0.1949 -0.1637 -0.1731
 5795SOL    HW118205   2.994   2.066   6.845 -1.1559  0.7531  0.9388
 5795SOL    HW218206   3.113   2.036   6.953 -1.2529  0.3575  0.9358
 5796SOL     OW18207   5.836   4.817   4.310 -0.2497 -0.0783 -0.5498
 5796SOL    HW118208   5.759   4.875   4.282 -0.9062 -0.1745  0.9519
 5796SOL    HW218209   5.801   4.732   4.349  0.6149 -0.2277 -0.0749
 5797SOL     OW18210   4.707   4.650   7.016  0.0430 -0.2216 -0.6518
 5797SOL    HW118211   4.729   4.722   6.951  0.4495  1.6311  1.4644
 5797SOL    HW218212   4.723   4.682   7.109  0.3197 -3.0541  0.3859
 5798SOL     OW18213   5.726   2.943   2.571 -0.1172 -0.1522  0.0187
 5798SOL    HW118214   5.801   2.911   2.513 -0.3254  0.0110 -0.3402
 5798SOL    HW218215   5.721   3.042   2.569  0.2195 -0.1171  0.7513
 5799SOL     OW18216   4.877   1.437   0.607 -0.4126  0.7993  0.0337
 5799SOL    HW118217   4.906   1.532   0.604 -1.8871  1.3396  1.2524
 5799SOL    HW218218   4.833   1.412   0.520 -0.6909  1.4645 -0.0202
 5800SOL     OW18219   5.901   2.860   4.766  0.4992 -0.4818 -0.0646
 5800SOL    HW118220   5.975   2.840   4.701 -1.4984 -2.7455 -1.8196
 5800SOL    HW218221   5.916   2.808   4.850  0.6673 -1.3354 -0.6112
 5801SOL     OW18222   0.139   2.565   3.470  0.2758 -1.0025  0.8068
 5801SOL    HW118223   0.084   2.524   3.543  2.0143 -1.4403  1.9233
 5801SOL    HW218224   0.229   2.523   3.469  0.1731 -1.3131 -1.9111
 5802SOL     OW18225   2.322   6.332   1.445 -0.0052  0.5459  0.4879
 5802SOL    HW118226   2.372   6.281   1.516 -0.9408 -1.1981 -0.0315
 5802SOL    HW218227   2.294   6.269   1.372 -0.7758  1.9320 -0.4833
 5803SOL     OW18228   3.387   4.627   0.883  0.0492  0.2506  0.4011
 5803SOL    HW118229   3.365   4.705   0.825  0.5810  0.1399  0.0425
 5803SOL    HW218230   3.349   4.543   0.843  0.4379  0.1670  0.2071
 5804SOL     OW18231   4.132   0.106   4.258 -0.8778  0.3498  0.1917
 5804SOL    HW118232   4.224   0.068   4.255  0.1062  2.6483 -1.6773
 5804SOL    HW218233   4.089   0.082   4.345  0.7232 -2.3682  0.3348
 5805SOL     OW18234   5.369   4.957   1.540  0.4881 -0.0205  0.0880
 5805SOL    HW118235   5.289   4.996   1.585 -0.6263 -1.3517 -0.6777
 5805SOL    HW218236   5.355   4.958   1.441  0.5563 -1.9502  0.0110
 5806SOL     OW18237   5.258   4.632   6.856 -0.0206  0.4131 -0.0805
 5806SOL    HW118238   5.214   4.543   6.870 -2.1648  1.5988  1.2904
 5806SOL    HW218239   5.304   4.632   6.767  0.5937 -2.2388  0.1528
 5807SOL     OW18240   2.417   4.662   5.502 -0.3590 -0.0986 -0.0433
 5807SOL    HW118241   2.398   4.616   5.589 -0.5873 -2.1657 -1.1226
 5807SOL    HW218242   2.341   4.723   5.480 -0.2320  0.5701  1.2647
 5808SOL     OW18243   5.626   1.896   6.979  0.0571 -0.3806  0.5128
 5808SOL    HW118244   5.724   1.877   6.972 -0.0988 -1.0732  0.1857
 5808SOL    HW218245   5.575   1.811   6.968 -0.7167  0.3789 -2.3604
 5809SOL     OW18246   3.313   2.943   4.697 -0.2031  0.1722  0.3497
 5809SOL    HW118247   3.396   2.948   4.753  0.0670  1.2512 -0.1303
 5809SOL    HW218248   3.237   2.985   4.748  0.3626  2.5077 -0.6176
 5810SOL     OW18249   0.465   5.763   0.556 -0.3405  0.3999  0.2783
 5810SOL    HW118250   0.482   5.671   0.591  0.1416 -0.2626 -1.5790
 5810SOL    HW218251   0.367   5.775   0.542 -0.3075 -0.3470 -0.7220
 5811SOL     OW18252   4.953   5.879   5.044 -0.1803  0.4683 -0.3311
 5811SOL    HW118253   4.879   5.919   5.098 -0.7195 -0.7253 -0.1574
 5811SOL    HW218254   4.922   5.867   4.949 -0.4805 -0.7370 -0.0857
 5812SOL     OW18255   6.613   0.610   6.633  0.3372 -0.5720  0.1334
 5812SOL    HW118256   6.558   0.610   6.716  1.0599 -1.5739  0.6368
 5812SOL    HW218257   6.596   0.526   6.581  0.9639 -0.6338  0.0144
 5813SOL     OW18258   4.884   5.401   2.119 -0.0179 -0.0230 -0.0740
 5813SOL    HW118259   4.909   5.304   2.123 -1.3580 -0.3936 -0.2800
 5813SOL    HW218260   4.785   5.410   2.109  0.1640  1.3669 -0.8745
 5814SOL     OW18261   2.215   2.898   1.922 -0.1761 -0.1744  0.3886
 5814SOL    HW118262   2.150   2.822   1.914  1.2776 -1.3809 -0.5432
 5814SOL    HW218263   2.306   2.862   1.945 -0.2041  1.6286  4.0190
 5815SOL     OW18264   6.718   4.934   3.894 -0.2478 -0.3208 -0.2140
 5815SOL    HW118265   6.658   4.903   3.968 -1.3852 -2.8296 -2.0160
 5815SOL    HW218266   6.771   5.014   3.924 -2.9398  0.7325  2.1742
 5816SOL     OW18267   0.497   2.618   0.441 -0.1183  0.0086 -0.1347
 5816SOL    HW118268   0.445   2.534   0.451 -0.1543  0.0844  0.3611
 5816SOL    HW218269   0.548   2.636   0.526  0.4522  0.1038 -0.4927
 5817SOL     OW18270   1.828   6.392   0.332 -0.0038  0.1122  1.2316
 5817SOL    HW118271   1.899   6.461   0.344 -0.6212  0.7446  1.3581
 5817SOL    HW218272   1.864   6.302   0.357  1.5836 -0.0489 -1.2875
 5818SOL     OW18273   5.424   4.028   5.167  0.2269  0.5310 -0.1538
 5818SOL    HW118274   5.419   3.974   5.250  0.9206 -0.7312 -0.9142
 5818SOL    HW218275   5.385   4.119   5.184 -1.8576 -0.4903  0.8989
 5819SOL     OW18276   2.475   3.358   0.757  0.4908  0.3249  0.4136
 5819SOL    HW118277   2.459   3.317   0.846 -0.1313  0.7250  0.4937
 5819SOL    HW218278   2.387   3.378   0.713  0.7631 -0.6103 -0.6414
 5820SOL     OW18279   2.487   1.068   0.480  0.5749 -0.0820  0.0132
 5820SOL    HW118280   2.451   1.049   0.389  0.0521  1.0956 -0.0485
 5820SOL    HW218281   2.561   1.004   0.501  0.1826 -0.8653 -0.9186
 5821SOL     OW18282   5.403   0.553   4.703  0.6331  0.3964 -0.5770
 5821SOL    HW118283   5.433   0.510   4.618  0.2688  1.5719 -1.3223
 5821SOL    HW218284   5.303   0.548   4.709  0.6400  0.5314 -0.3443
 5822SOL     OW18285   2.576   1.370   1.562  0.3104  0.2014 -0.0706
 5822SOL    HW118286   2.604   1.440   1.496 -0.5905 -0.4136 -1.1254
 5822SOL    HW218287   2.480   1.346   1.547  0.1610 -0.1189  1.3173
 5823SOL     OW18288   0.718   3.521   3.238  0.0265 -1.0546  0.0380
 5823SOL    HW118289   0.715   3.499   3.335 -1.7515 -1.0620  0.0090
 5823SOL    HW218290   0.665   3.605   3.221  1.4806 -0.2524 -0.7422
 5824SOL     OW18291   6.431   5.295   6.108  0.1958 -0.2958  0.7554
 5824SOL    HW118292   6.519   5.296   6.061  0.2227 -1.2029  0.7739
 5824SOL    HW218293   6.382   5.380   6.089  0.7949 -0.0644  0.2183
 5825SOL     OW18294   2.998   2.444   3.588 -0.2873  0.2211  0.0096
 5825SOL    HW118295   3.080   2.470   3.639 -1.3556  1.5123  1.1637
 5825SOL    HW218296   2.917   2.458   3.646 -1.5190  1.2949 -1.8839
 5826SOL     OW18297   2.837   1.644   0.463  0.2704 -0.0233 -0.1677
 5826SOL    HW118298   2.758   1.582   0.465  0.5160 -0.3340  0.1588
 5826SOL    HW218299   2.904   1.613   0.531  1.0982 -0.3357 -1.1007
 5827SOL     OW18300   0.175   1.980   0.196  0.2802 -0.2611  0.0695
 5827SOL    HW118301   0.211   1.889   0.219 -0.9961 -1.1562 -1.2991
 5827SOL    HW218302   0.090   1.996   0.247  0.6384  0.3141  0.5121
 5828SOL     OW18303   0.094   5.739   1.400  0.2969  0.3001 -0.2174
 5828SOL    HW118304   0.031   5.722   1.324 -0.5351 -2.2130  0.9193
 5828SOL    HW218305   0.168   5.672   1.397  1.0645  1.1071  0.3670
 5829SOL     OW18306   1.418   2.250   6.949  0.4177  0.8204  0.0611
 5829SOL    HW118307   1.480   2.207   7.015 -0.5552  2.0376  1.8425
 5829SOL    HW218308   1.374   2.179   6.894  2.8702 -0.1081 -0.8243
 5830SOL     OW18309   0.324   2.966   0.572  0.0044  0.1563 -0.1749
 5830SOL    HW118310   0.243   3.023   0.557 -0.5514 -0.6684 -0.3744
 5830SOL    HW218311   0.339   2.907   0.492  0.0196 -0.6486  0.4219
 5831SOL     OW18312   4.569   1.186   5.352  0.3172 -0.5518 -0.0086
 5831SOL    HW118313   4.569   1.163   5.254 -0.0737 -0.8669  0.0572
 5831SOL    HW218314   4.624   1.269   5.366  0.0638 -0.2693 -0.5524
 5832SOL     OW18315   3.006   3.533   1.745 -0.1216  0.6838 -0.3456
 5832SOL    HW118316   2.907   3.534   1.754 -0.0079 -0.7858  1.5550
 5832SOL    HW218317   3.034   3.597   1.673 -2.4605  0.6847 -1.3348
 5833SOL     OW18318   4.976   3.587   0.729  0.1468 -0.2785  0.8716
 5833SOL    HW118319   4.880   3.558   0.736 -0.4936  1.0910 -1.2977
 5833SOL    HW218320   5.028   3.521   0.675 -0.0322 -0.0943  0.4704
 5834SOL     OW18321   2.397   5.462   0.573 -0.0928 -0.0994  0.2717
 5834SOL    HW118322   2.390   5.367   0.545  1.0777 -0.0119 -0.3661
 5834SOL    HW218323   2.477   5.504   0.531 -0.3414  1.0508  0.8915
 5835SOL     OW18324   3.080   0.264   4.189  0.5375  0.4857 -0.4244
 5835SOL    HW118325   3.172   0.224   4.190  1.2428  2.0508 -0.1238
 5835SOL    HW218326   3.081   0.349   4.137 -0.3874  1.3350  0.8925
 5836SOL     OW18327   2.700   6.300   4.854  0.1862 -0.5268 -0.0940
 5836SOL    HW118328   2.702   6.206   4.822 -0.9392 -1.0214  1.1916
 5836SOL    HW218329   2.669   6.360   4.780 -2.5857 -1.6680  0.0149
 5837SOL     OW18330   1.252   5.927   0.300  0.3510  0.3453  0.7916
 5837SOL    HW118331   1.277   5.840   0.257 -0.7047  0.7243 -0.6647
 5837SOL    HW218332   1.202   5.909   0.384  1.7525 -0.4256  1.5083
 5838SOL     OW18333   3.405   4.643   6.785 -0.3279 -0.0700 -0.1097
 5838SOL    HW118334   3.484   4.605   6.833  0.7225  2.0042 -0.1174
 5838SOL    HW218335   3.328   4.579   6.792  1.6314 -2.6917 -1.1176
 5839SOL     OW18336   2.094   3.807   6.296  0.1354 -0.2988  0.0665
 5839SOL    HW118337   2.072   3.800   6.393 -1.0971  0.8460 -0.0988
 5839SOL    HW218338   2.162   3.879   6.282  0.3833 -0.5278  0.0922
 5840SOL     OW18339   6.462   3.440   2.589  0.0673  0.4090  0.0040
 5840SOL    HW118340   6.541   3.438   2.650 -1.0574  1.5746  1.5811
 5840SOL    HW218341   6.493   3.454   2.495  1.7380  0.7016  0.5628
 5841SOL     OW18342   5.828   2.015   0.307 -0.1163 -0.1101  0.0128
 5841SOL    HW118343   5.768   2.046   0.233  0.0822  1.1341  0.3551
 5841SOL    HW218344   5.815   2.073   0.387  0.0595 -1.1222  0.7834
 5842SOL     OW18345   0.132   5.457   2.419 -0.2430  0.1713 -0.2799
 5842SOL    HW118346   0.173   5.426   2.333  1.6637  0.3706  0.5266
 5842SOL    HW218347   0.191   5.432   2.495 -1.6415  0.4853  0.9492
 5843SOL     OW18348   6.680   6.404   5.166 -0.2501 -1.8365 -0.7192
 5843SOL    HW118349   6.706   6.494   5.201 -0.2448 -2.2158  0.2629
 5843SOL    HW218350   6.650   6.413   5.071 -0.9797 -0.6874 -0.3913
 5844SOL     OW18351   6.966   3.560   2.515 -0.3488 -0.1755  0.0880
 5844SOL    HW118352   6.967   3.597   2.608 -0.9764 -1.5114  0.6322
 5844SOL    HW218353   6.913   3.621   2.456  0.9599  1.2704  0.3182
 5845SOL     OW18354   5.790   5.756   2.780  0.2251 -0.4842  0.3897
 5845SOL    HW118355   5.859   5.778   2.711  1.1288  1.5987  1.8761
 5845SOL    HW218356   5.822   5.681   2.837  0.7623 -0.2820  0.3573
 5846SOL     OW18357   4.908   6.870   6.126 -0.1505 -0.1756 -0.3117
 5846SOL    HW118358   4.934   6.952   6.177 -0.6939 -0.9882  1.3495
 5846SOL    HW218359   4.813   6.846   6.148  0.0174 -1.2969 -0.7198
 5847SOL     OW18360   0.238   4.855   3.944  0.3553  0.1541 -0.7247
 5847SOL    HW118361   0.189   4.910   3.877  0.3902  0.3228 -0.6109
 5847SOL    HW218362   0.205   4.760   3.940 -1.7834  0.7420  1.0739
 5848SOL     OW18363   6.542   3.121   2.314  0.0802  0.5744  0.4597
 5848SOL    HW118364   6.573   3.089   2.404  1.0606 -2.9147 -0.9634
 5848SOL    HW218365   6.448   3.090   2.299  0.2622  0.2778 -0.0929
 5849SOL     OW18366   1.832   3.075   5.710  0.1282 -0.0019  0.0357
 5849SOL    HW118367   1.774   3.059   5.789 -1.4019  2.4776 -0.4878
 5849SOL    HW218368   1.797   3.026   5.631  1.2661 -1.9231  0.6468
 5850SOL     OW18369   0.737   2.640   0.673 -0.0634 -0.2968  0.2339
 5850SOL    HW118370   0.664   2.708   0.667  1.8276  1.8534  0.1041
 5850SOL    HW218371   0.756   2.621   0.770 -1.1550 -1.3063  0.2621
 5851SOL     OW18372   1.805   0.833   2.460  0.0831 -0.2700  0.1975
 5851SOL    HW118373   1.737   0.845   2.387  2.3719  2.0132 -1.7622
 5851SOL    HW218374   1.864   0.756   2.437 -0.1429 -0.5292  0.4747
 5852SOL     OW18375   0.983   2.576   2.349  0.3279  0.0928 -0.6418
 5852SOL    HW118376   1.030   2.612   2.429 -2.3953 -0.1435  1.1856
 5852SOL    HW218377   1.013   2.626   2.268  2.4039  1.0587  0.6378
 5853SOL     OW18378   0.086   1.813   4.487  0.3725 -0.0337  0.1060
 5853SOL    HW118379   0.070   1.870   4.407  1.6490 -1.2190 -1.0566
 5853SOL    HW218380   0.137   1.865   4.555 -0.0254  0.7317 -0.1575
 5854SOL     OW18381   2.167   6.440   1.785 -0.4617 -0.2931 -0.5285
 5854SOL    HW118382   2.148   6.539   1.781 -0.1916 -0.2507 -0.8148
 5854SOL    HW218383   2.120   6.394   1.710 -1.3605 -0.5168  0.1626
 5855SOL     OW18384   0.834   2.304   4.966  0.4123 -0.0821 -0.3672
 5855SOL    HW118385   0.774   2.377   4.998  0.6095  0.7637 -1.8421
 5855SOL    HW218386   0.789   2.253   4.892  1.4039  0.4357 -1.3592
 5856SOL     OW18387   6.507   6.689   0.189  0.3885 -0.3519  0.1679
 5856SOL    HW118388   6.550   6.724   0.106 -0.2741  0.3621  0.1203
 5856SOL    HW218389   6.430   6.631   0.165  0.9071 -1.1041  0.2702
 5857SOL     OW18390   3.868   5.706   1.180  0.3363  0.8991 -0.5952
 5857SOL    HW118391   3.785   5.659   1.150 -0.1816  0.9796  0.6353
 5857SOL    HW218392   3.941   5.640   1.194 -0.5277  0.3252  1.6067
 5858SOL     OW18393   0.018   3.005   4.482  0.0517 -0.4326 -0.0161
 5858SOL    HW118394   0.058   2.928   4.432 -0.1111  1.3086 -3.0701
 5858SOL    HW218395   0.078   3.085   4.474 -0.7600  0.3410  1.2857
 5859SOL     OW18396   3.096   1.435   4.890  0.1675  0.4558 -0.2555
 5859SOL    HW118397   3.160   1.511   4.879  1.6253 -0.4320  1.4629
 5859SOL    HW218398   3.098   1.378   4.808 -0.4315  1.8628 -1.2814
 5860SOL     OW18399   4.004   5.317   2.031  0.1479 -0.9769 -0.3290
 5860SOL    HW118400   3.971   5.310   1.937 -0.3724 -1.2118 -0.1361
 5860SOL    HW218401   4.047   5.231   2.058 -1.1241 -1.4673  0.1689
 5861SOL     OW18402   2.809   1.748   6.251  0.2110 -0.0612  0.1212
 5861SOL    HW118403   2.722   1.775   6.293 -0.5344  1.6002 -2.2393
 5861SOL    HW218404   2.885   1.787   6.303 -0.5733  0.7079  0.7122
 5862SOL     OW18405   0.884   0.523   6.151 -0.1093  0.8226 -0.0935
 5862SOL    HW118406   0.838   0.469   6.222  2.3112 -0.8831  0.3119
 5862SOL    HW218407   0.932   0.600   6.193  0.1440  0.6566 -0.0764
 5863SOL     OW18408   0.635   0.785   1.283  0.0800  0.2124 -0.3243
 5863SOL    HW118409   0.722   0.756   1.322  1.2227 -0.4712 -3.0916
 5863SOL    HW218410   0.571   0.708   1.284  0.0470  0.2454  0.2934
 5864SOL     OW18411   3.294   1.704   2.729 -0.2995  0.3195  0.0613
 5864SOL    HW118412   3.257   1.792   2.758 -0.5055 -0.1641  1.3251
 5864SOL    HW218413   3.314   1.648   2.810  0.1456 -0.6616 -0.7106
 5865SOL     OW18414   2.619   2.864   1.499  0.0641 -0.6498  0.1970
 5865SOL    HW118415   2.670   2.932   1.447 -0.9698  1.8812  2.2903
 5865SOL    HW218416   2.667   2.846   1.585 -1.7263  0.8255  1.6227
 5866SOL     OW18417   4.850   4.916   2.554 -0.2098  0.2538 -0.0538
 5866SOL    HW118418   4.926   4.852   2.540  0.0436  0.1597  1.5977
 5866SOL    HW218419   4.884   5.009   2.544 -0.5592  0.2026 -2.3761
 5867SOL     OW18420   3.570   0.203   2.447 -0.0829 -0.2124 -0.2241
 5867SOL    HW118421   3.484   0.251   2.432  0.7714  1.1300 -1.0361
 5867SOL    HW218422   3.641   0.244   2.391  1.5496  0.0006  1.8700
 5868SOL     OW18423   5.348   4.548   6.592  0.2922  0.2875  0.0850
 5868SOL    HW118424   5.285   4.471   6.601 -0.2168  0.7610  0.6522
 5868SOL    HW218425   5.319   4.607   6.516 -1.3103  1.7167  1.6867
 5869SOL     OW18426   4.796   0.052   3.685 -0.2049 -0.3506  0.2656
 5869SOL    HW118427   4.739  -0.021   3.647  0.1911 -0.7453  0.4232
 5869SOL    HW218428   4.738   0.121   3.727 -0.5544 -1.5241  1.8479
 5870SOL     OW18429   0.330   3.963   6.759  0.2448 -0.5270  0.0233
 5870SOL    HW118430   0.338   4.062   6.771 -0.8812 -0.5400  0.9683
 5870SOL    HW218431   0.390   3.916   6.825 -2.7161 -0.5109  3.0248
 5871SOL     OW18432   4.427   2.275   0.531 -0.3474 -0.1268 -0.6340
 5871SOL    HW118433   4.328   2.283   0.534 -0.4221 -0.7189 -1.0474
 5871SOL    HW218434   4.457   2.209   0.600 -0.3417 -0.6451 -1.1184
 5872SOL     OW18435   1.743   2.481   5.323  0.3260 -0.9290  0.3153
 5872SOL    HW118436   1.738   2.572   5.282 -0.5305  0.0918  2.5099
 5872SOL    HW218437   1.761   2.413   5.252  2.7676  1.1095 -1.2072
 5873SOL     OW18438   4.313   2.663   1.477  0.6672 -0.4845 -0.5055
 5873SOL    HW118439   4.282   2.671   1.572  2.1494  1.9185 -0.1528
 5873SOL    HW218440   4.402   2.617   1.476  0.1386 -1.5369 -0.8840
 5874SOL     OW18441   5.588   3.165   0.739  0.4347 -0.3879  0.2468
 5874SOL    HW118442   5.683   3.138   0.722  0.1805 -0.5852 -0.8838
 5874SOL    HW218443   5.585   3.227   0.818  1.7078  0.8744 -0.6464
 5875SOL     OW18444   2.207   6.038   2.858  0.6111 -0.1043 -0.2109
 5875SOL    HW118445   2.166   6.052   2.768  0.7930  0.0886 -0.2680
 5875SOL    HW218446   2.217   6.126   2.904 -2.2165 -0.4026  1.2066
 5876SOL     OW18447   4.806   2.055   2.236 -0.2487  0.3697  0.3636
 5876SOL    HW118448   4.748   2.021   2.310  0.1722 -0.5061  0.2953
 5876SOL    HW218449   4.781   2.009   2.150  0.5568 -0.0438  0.3417
 5877SOL     OW18450   3.019   0.814   3.890  0.5733  0.2084 -0.1081
 5877SOL    HW118451   3.106   0.862   3.899  0.2548  0.8097 -0.2491
 5877SOL    HW218452   3.019   0.735   3.953  0.2537  1.6318  1.7517
 5878SOL     OW18453   3.601   3.929   1.249 -0.1425  0.1642  0.1748
 5878SOL    HW118454   3.696   3.909   1.273  0.4462  3.7538  1.3178
 5878SOL    HW218455   3.540   3.891   1.319  0.5697 -0.7343  0.3210
 5879SOL     OW18456   6.305   3.142   1.480  0.1680 -0.2219  0.0718
 5879SOL    HW118457   6.294   3.073   1.409 -0.2421 -0.3461  0.2520
 5879SOL    HW218458   6.397   3.135   1.520 -0.2386 -1.4075  0.8620
 5880SOL     OW18459   2.339   2.115   1.621  0.5883  0.1263  0.4476
 5880SOL    HW118460   2.296   2.198   1.657  0.7965  0.1198  0.7185
 5880SOL    HW218461   2.303   2.035   1.669 -0.1537 -0.0104 -0.3197
 5881SOL     OW18462   0.698   6.332   1.064 -0.9503  0.0117  0.1714
 5881SOL    HW118463   0.785   6.351   1.110 -1.0665  1.0937 -0.0227
 5881SOL    HW218464   0.662   6.244   1.094  0.9084 -1.1428 -0.8142
 5882SOL     OW18465   5.194   2.219   5.565  0.2027  0.3423  0.1754
 5882SOL    HW118466   5.152   2.246   5.479 -1.5049 -0.3501  0.7367
 5882SOL    HW218467   5.293   2.220   5.556  0.1032  2.1758 -1.1883
 5883SOL     OW18468   3.378   2.683   3.627 -0.2914 -0.1265 -0.4842
 5883SOL    HW118469   3.308   2.753   3.608  1.2386  1.1536 -1.6613
 5883SOL    HW218470   3.405   2.639   3.542  0.1569 -0.8110 -0.0045
 5884SOL     OW18471   2.872   0.608   1.213 -0.4638  0.5550  0.0539
 5884SOL    HW118472   2.913   0.699   1.207 -1.1301  0.8613  0.1366
 5884SOL    HW218473   2.781   0.614   1.255  0.0788 -0.3129  1.4573
 5885SOL     OW18474   1.352   3.352   1.910 -0.3949  0.2770  0.3703
 5885SOL    HW118475   1.445   3.387   1.921 -0.6348  0.4918  2.0664
 5885SOL    HW218476   1.289   3.429   1.901 -0.2744  0.1102 -2.4690
 5886SOL     OW18477   1.397   2.625   0.548 -0.2497 -0.1232 -0.4091
 5886SOL    HW118478   1.412   2.602   0.452 -0.9721  1.0181 -0.8157
 5886SOL    HW218479   1.311   2.675   0.557  0.9738  1.9804  0.4531
 5887SOL     OW18480   3.172   4.433   1.772  0.4436 -0.0348  0.7374
 5887SOL    HW118481   3.223   4.512   1.739  2.1224 -0.5222  2.0721
 5887SOL    HW218482   3.137   4.451   1.864 -1.7845  0.2573 -0.1124
 5888SOL     OW18483   1.587   6.423   6.113 -0.0654 -0.7519 -0.0966
 5888SOL    HW118484   1.500   6.473   6.124  1.1850  1.2076  1.4961
 5888SOL    HW218485   1.607   6.373   6.197  0.8898 -0.2812 -0.0444
 5889SOL     OW18486   1.295   6.080   4.775  0.4497  0.0933  0.0730
 5889SOL    HW118487   1.343   6.048   4.857  0.4482 -0.6311 -0.2057
 5889SOL    HW218488   1.313   6.177   4.762  0.5087  0.1979  0.8959
 5890SOL     OW18489   6.301   0.611   4.914 -0.3554 -0.2595 -0.3229
 5890SOL    HW118490   6.289   0.700   4.870 -0.8144  0.5693  1.3869
 5890SOL    HW218491   6.237   0.602   4.990  1.3101 -1.0389  1.0712
 5891SOL     OW18492   1.142   5.296   5.885 -0.0861 -0.4149 -0.4714
 5891SOL    HW118493   1.099   5.318   5.798 -1.9517 -1.1564  0.2104
 5891SOL    HW218494   1.114   5.204   5.914  2.9407 -1.4725 -0.5287
 5892SOL     OW18495   5.588   4.560   6.733 -0.2563 -0.3361 -0.0564
 5892SOL    HW118496   5.510   4.581   6.675  0.1904  1.6002 -0.0322
 5892SOL    HW218497   5.662   4.523   6.678  0.0289  1.1284 -0.6910
 5893SOL     OW18498   6.967   2.993   6.615  0.0961  0.3828 -0.2436
 5893SOL    HW118499   6.883   2.942   6.632 -0.5914  1.3921 -0.4729
 5893SOL    HW218500   7.044   2.949   6.661 -0.7828  0.0038  0.8504
 5894SOL     OW18501   5.207   4.614   1.975 -0.0720 -0.2323 -0.1083
 5894SOL    HW118502   5.210   4.709   2.006 -1.0448 -0.6549  1.3703
 5894SOL    HW218503   5.232   4.553   2.051  0.5498 -1.1662 -1.0366
 5895SOL     OW18504   0.733   3.093   6.421 -0.7315 -0.3412 -0.4095
 5895SOL    HW118505   0.821   3.136   6.401 -0.3953 -0.2759  1.0985
 5895SOL    HW218506   0.664   3.129   6.358 -0.0985  1.0856 -0.3310
 5896SOL     OW18507   1.741   2.350   0.258  0.2477 -0.2966  0.4201
 5896SOL    HW118508   1.722   2.261   0.300  2.4320 -1.3817 -0.7480
 5896SOL    HW218509   1.673   2.368   0.187  0.1490 -1.3531  0.2239
 5897SOL     OW18510   2.258   1.397   6.882  0.8703  0.1530 -0.2205
 5897SOL    HW118511   2.189   1.427   6.815 -1.7689 -2.0758  1.2540
 5897SOL    HW218512   2.228   1.424   6.974  1.4528 -1.6779  0.5497
 5898SOL     OW18513   0.866   1.168   4.898 -0.4018  0.6004  0.5490
 5898SOL    HW118514   0.801   1.230   4.855 -0.1871  0.3711 -0.1177
 5898SOL    HW218515   0.818   1.109   4.963 -0.9273  0.1711 -0.2211
 5899SOL     OW18516   6.377   2.319   2.985 -0.2028 -0.1561 -0.4316
 5899SOL    HW118517   6.460   2.273   3.017  1.3634  0.8470 -2.7277
 5899SOL    HW218518   6.348   2.386   3.052  0.0759 -1.3818  0.9671
 5900SOL     OW18519   0.007   1.153   1.813  0.7188  0.2702  0.5738
 5900SOL    HW118520   0.097   1.196   1.801 -0.1785  2.4060  1.0181
 5900SOL    HW218521  -0.049   1.211   1.873 -1.2648 -0.5077 -0.4281
 5901SOL     OW18522   4.585   1.683   2.566  0.0320  0.3614  0.1118
 5901SOL    HW118523   4.588   1.614   2.494  1.0859  2.3760 -1.8962
 5901SOL    HW218524   4.589   1.639   2.656  0.2176 -2.1583 -1.0773
 5902SOL     OW18525   1.778   0.598   5.091 -0.2442 -0.4200  0.0195
 5902SOL    HW118526   1.782   0.621   5.188  1.4566 -2.8870  0.6339
 5902SOL    HW218527   1.848   0.650   5.041 -1.8827  1.7090 -0.1426
 5903SOL     OW18528   1.861   4.151   3.647  0.0373  0.1673 -0.0848
 5903SOL    HW118529   1.823   4.232   3.603  1.9580  0.6144 -1.0699
 5903SOL    HW218530   1.823   4.069   3.605 -0.0267  0.5974 -0.8896
 5904SOL     OW18531   3.030   5.403   5.542  0.9074 -0.4272  0.3915
 5904SOL    HW118532   2.960   5.351   5.591  1.5731 -0.7407  1.0316
 5904SOL    HW218533   3.112   5.411   5.599  0.1348  3.1896  1.2438
 5905SOL     OW18534   1.275   3.500   6.133  0.4729 -0.6116 -0.1797
 5905SOL    HW118535   1.309   3.581   6.180  3.6439 -2.7402  1.5462
 5905SOL    HW218536   1.326   3.486   6.048  1.0567 -1.5751  0.3093
 5906SOL     OW18537   3.028   6.459   5.976  0.3667  0.6193 -0.0643
 5906SOL    HW118538   2.938   6.457   5.934  0.8435  1.4454 -1.1726
 5906SOL    HW218539   3.081   6.380   5.944 -1.2937 -2.4230  3.8651
 5907SOL     OW18540   4.226   6.290   2.078 -0.9532 -0.0974 -0.1705
 5907SOL    HW118541   4.253   6.337   2.162 -1.5287 -1.0281  0.5589
 5907SOL    HW218542   4.128   6.269   2.082 -1.1676  0.5718 -1.4444
 5908SOL     OW18543   0.403   3.347   6.031 -0.0019  0.9365  0.4049
 5908SOL    HW118544   0.454   3.337   6.116 -1.3651  1.4986  1.3159
 5908SOL    HW218545   0.427   3.435   5.988  1.5885  0.1261 -0.4525
 5909SOL     OW18546   3.817   6.800   3.165 -0.0729 -0.3150 -0.0122
 5909SOL    HW118547   3.872   6.844   3.093  2.8015 -0.8149  1.7259
 5909SOL    HW218548   3.723   6.790   3.133  1.0436 -0.4879 -3.6833
 5910SOL     OW18549   2.983   1.868   2.089  0.4916  0.3976 -0.1018
 5910SOL    HW118550   3.030   1.953   2.066  1.1818  0.3975  1.2219
 5910SOL    HW218551   2.954   1.822   2.005  3.0633  0.2884 -1.0172
 5911SOL     OW18552   5.890   1.354   0.061  0.3944 -0.3050  0.0847
 5911SOL    HW118553   5.976   1.346   0.112  0.2707 -0.1689  0.3174
 5911SOL    HW218554   5.895   1.297  -0.021  0.9183  0.1160 -0.1634
 5912SOL     OW18555   0.484   3.630   0.279 -1.0999 -0.0266 -0.6014
 5912SOL    HW118556   0.523   3.648   0.188 -0.0218  2.6640  0.3106
 5912SOL    HW218557   0.449   3.536   0.281  3.0536 -1.8400 -2.3340
 5913SOL     OW18558   0.062   1.597   2.317 -0.2496 -0.5308 -0.4381
 5913SOL    HW118559   0.131   1.581   2.387 -0.4654  0.1332 -0.0590
 5913SOL    HW218560   0.104   1.591   2.226  0.4486  0.4882 -0.2003
 5914SOL     OW18561   6.027   5.799   5.138  0.6557 -0.0558 -0.4355
 5914SOL    HW118562   6.027   5.700   5.124 -1.7802 -0.2223  0.4441
 5914SOL    HW218563   6.056   5.819   5.231 -0.4601 -0.0768 -0.0685
 5915SOL     OW18564   0.350   6.586   4.428  0.2090 -0.4491  0.0663
 5915SOL    HW118565   0.443   6.604   4.461  0.6070 -1.6744 -0.3593
 5915SOL    HW218566   0.353   6.518   4.355 -1.0448 -0.6014  0.1447
 5916SOL     OW18567   1.822   5.711   5.728 -0.7325  0.6821  0.1227
 5916SOL    HW118568   1.897   5.666   5.777 -1.4742  1.0927  1.6906
 5916SOL    HW218569   1.807   5.664   5.641 -0.9436 -1.6250  1.3148
 5917SOL     OW18570   5.076   0.390   5.985  0.2187  0.1696  0.2771
 5917SOL    HW118571   5.042   0.406   5.892 -1.3955  0.9033  0.9690
 5917SOL    HW218572   5.002   0.356   6.042  0.9785  0.5876  1.5357
 5918SOL     OW18573   3.260   0.867   6.659 -0.3847  0.2469 -0.0464
 5918SOL    HW118574   3.231   0.783   6.613 -3.5030  1.5694 -0.6934
 5918SOL    HW218575   3.256   0.854   6.758 -0.8600 -0.3595 -0.1383
 5919SOL     OW18576   3.848   5.314   1.751  0.1050  0.2310  0.3946
 5919SOL    HW118577   3.778   5.367   1.799 -0.5998  1.8883 -2.2407
 5919SOL    HW218578   3.804   5.251   1.687  0.8730  1.7396 -1.7611
 5920SOL     OW18579   4.267   0.139   1.610 -0.0105  0.3676 -0.1977
 5920SOL    HW118580   4.342   0.197   1.642  0.2267 -0.6488  1.2289
 5920SOL    HW218581   4.191   0.144   1.675  0.1310 -1.0866  0.1171
 5921SOL     OW18582   1.444   4.003   2.248  0.4069  0.2904  0.1066
 5921SOL    HW118583   1.363   4.058   2.268  1.3976  1.1519  1.8630
 5921SOL    HW218584   1.483   3.967   2.333  0.8484 -1.6468 -0.8460
 5922SOL     OW18585   3.427   2.841   6.407  0.5977  0.3166 -0.3839
 5922SOL    HW118586   3.437   2.845   6.308  1.8923  0.1381 -0.2874
 5922SOL    HW218587   3.348   2.785   6.431  0.6857 -0.2210 -1.3175
 5923SOL     OW18588   0.297   4.813   0.460 -0.3110 -0.1797  0.8488
 5923SOL    HW118589   0.350   4.897   0.452 -1.0433  0.2186  0.0257
 5923SOL    HW218590   0.315   4.754   0.382 -0.1864 -0.5700  1.1676
 5924SOL     OW18591   0.730   2.797   2.328 -0.2007 -0.3716 -0.2119
 5924SOL    HW118592   0.748   2.704   2.295 -4.2469 -0.5733 -2.6723
 5924SOL    HW218593   0.642   2.799   2.376  0.5838  1.9322  1.2708
 5925SOL     OW18594   4.340   0.506   2.973  0.2529  0.0123 -0.0271
 5925SOL    HW118595   4.282   0.426   2.955 -0.4884  0.6461 -0.5204
 5925SOL    HW218596   4.374   0.502   3.067  1.8343 -1.8854 -0.6073
 5926SOL     OW18597   0.311   5.836   1.146 -0.2967  0.0341 -0.2315
 5926SOL    HW118598   0.373   5.879   1.211 -0.6302 -0.0833  0.1705
 5926SOL    HW218599   0.218   5.871   1.161 -0.0348  1.7343 -2.1389
 5927SOL     OW18600   1.196   5.988   3.842 -0.1533  0.3114 -0.7287
 5927SOL    HW118601   1.147   5.938   3.913  0.6274 -0.5183 -0.7553
 5927SOL    HW218602   1.176   5.948   3.753  0.2883  0.2156 -0.7830
 5928SOL     OW18603   0.211   6.851   1.722 -0.1964  0.2815  0.1371
 5928SOL    HW118604   0.292   6.890   1.766  0.2989 -0.5446 -0.0283
 5928SOL    HW218605   0.182   6.910   1.646  2.6810 -1.3487 -2.4616
 5929SOL     OW18606   2.899   1.535   1.300 -0.4531  0.0218 -0.3070
 5929SOL    HW118607   2.883   1.485   1.385 -0.1788  0.7440  0.1683
 5929SOL    HW218608   2.943   1.475   1.233  0.4521 -0.1880  0.4717
 5930SOL     OW18609   4.838   0.562   4.668  0.1940  0.0268  0.2810
 5930SOL    HW118610   4.806   0.574   4.762 -1.0520 -0.5809 -0.0442
 5930SOL    HW218611   4.794   0.628   4.609 -0.8464 -1.0873 -0.2414
 5931SOL     OW18612   4.874   2.823   2.619  0.3352  0.2569  0.3935
 5931SOL    HW118613   4.849   2.727   2.628  1.4258  0.0769  2.0862
 5931SOL    HW218614   4.930   2.836   2.537 -0.2278 -0.4420 -0.1104
 5932SOL     OW18615   6.275   1.431   1.845  0.0823 -1.4843 -0.0651
 5932SOL    HW118616   6.199   1.394   1.791 -0.1487 -0.3383 -0.5558
 5932SOL    HW218617   6.285   1.529   1.826  0.4673 -1.1990  1.4283
 5933SOL     OW18618   5.549   6.198   6.528 -0.3982  0.1621 -0.4752
 5933SOL    HW118619   5.619   6.264   6.555 -1.8557  1.8930 -0.7653
 5933SOL    HW218620   5.543   6.194   6.428  0.4996 -1.3373 -0.4945
 5934SOL     OW18621   6.017   3.304   6.260  0.2160  0.1294  0.0380
 5934SOL    HW118622   6.062   3.303   6.350 -1.3158  1.6355  0.8695
 5934SOL    HW218623   5.970   3.217   6.246 -1.3400  0.6514  1.6950
 5935SOL     OW18624   0.045   2.934   4.730  0.0838  0.3575 -0.1786
 5935SOL    HW118625   0.056   2.955   4.632  0.1653 -1.7510 -0.6599
 5935SOL    HW218626  -0.036   2.981   4.764  0.1816  1.2780 -1.2093
 5936SOL     OW18627   0.402   6.752   2.632 -0.2151  0.4603 -0.1005
 5936SOL    HW118628   0.355   6.673   2.593  1.4392 -0.4820 -0.3351
 5936SOL    HW218629   0.396   6.749   2.732  0.2884 -0.2677 -0.0885
 5937SOL     OW18630   5.229   6.475   0.230  0.2907 -0.0531  0.7420
 5937SOL    HW118631   5.324   6.444   0.236  0.2510 -0.2312  0.4446
 5937SOL    HW218632   5.210   6.538   0.305  1.5811  2.4849 -0.9056
 5938SOL     OW18633   4.164   0.909   2.948 -0.7675  0.3930 -0.6357
 5938SOL    HW118634   4.210   0.827   2.913  0.4529  0.6794  0.2596
 5938SOL    HW218635   4.136   0.967   2.871 -1.1872 -0.6004 -1.2623
 5939SOL     OW18636   0.675   3.102   3.357 -0.5425  0.0515  0.0682
 5939SOL    HW118637   0.742   3.065   3.293 -0.4738  0.4744 -0.1097
 5939SOL    HW218638   0.661   3.038   3.432  0.3846  0.1407  0.3305
 5940SOL     OW18639   1.940   4.575   1.708 -0.2366 -0.0311 -0.4562
 5940SOL    HW118640   1.912   4.480   1.720  0.6260 -0.0048  2.2237
 5940SOL    HW218641   1.983   4.586   1.619  1.4201 -2.6281 -0.0719
 5941SOL     OW18642   1.760   1.140   1.908 -0.1248  0.2996 -0.1310
 5941SOL    HW118643   1.666   1.172   1.893 -0.2859 -0.4067 -0.7070
 5941SOL    HW218644   1.824   1.209   1.875 -0.4035  1.4508  1.6459
 5942SOL     OW18645   4.204   1.248   0.673 -0.1363  0.2220 -0.6014
 5942SOL    HW118646   4.291   1.296   0.674 -0.1608  0.2741 -0.9507
 5942SOL    HW218647   4.220   1.149   0.667 -0.0505  0.0923  1.0408
 5943SOL     OW18648   0.397   1.847   0.487  0.1845  0.1520 -0.6571
 5943SOL    HW118649   0.387   1.940   0.523 -0.2259  0.3300 -1.2139
 5943SOL    HW218650   0.488   1.812   0.511 -0.0194  0.3140  0.4172
 5944SOL     OW18651   6.657   6.734   3.645 -0.3765  0.1171  0.1292
 5944SOL    HW118652   6.652   6.756   3.742 -2.2329 -2.1300  0.6309
 5944SOL    HW218653   6.716   6.654   3.631 -1.1986 -0.4231 -0.3735
 5945SOL     OW18654   6.091   1.609   2.187 -0.6977  0.0987  0.5127
 5945SOL    HW118655   6.147   1.684   2.222  1.4132 -1.1259 -0.0465
 5945SOL    HW218656   6.105   1.600   2.088 -2.7820  0.4399  0.1505
 5946SOL     OW18657   0.747   3.124   6.683 -0.5863 -0.0289 -0.5313
 5946SOL    HW118658   0.838   3.137   6.721 -1.1677  1.0424  0.5784
 5946SOL    HW218659   0.749   3.136   6.584  0.2701  1.1412 -0.3818
 5947SOL     OW18660   0.826   6.526   2.782 -0.0205  1.1800  0.4221
 5947SOL    HW118661   0.844   6.455   2.713 -3.4138  0.3804  0.1781
 5947SOL    HW218662   0.821   6.615   2.737  2.0058  1.2990  0.3687
 5948SOL     OW18663   1.101   4.469   4.452 -0.2804  0.3528  0.4816
 5948SOL    HW118664   1.023   4.441   4.396 -1.2202 -1.7608  2.6775
 5948SOL    HW218665   1.070   4.533   4.522 -0.5996 -1.8307  2.4996
 5949SOL     OW18666   0.830   5.088   4.634  0.4335  0.1998  0.0092
 5949SOL    HW118667   0.762   5.016   4.645 -1.8885  2.3064  0.2717
 5949SOL    HW218668   0.921   5.051   4.651 -0.7595 -2.3493  1.3280
 5950SOL     OW18669   0.065   3.886   5.815  0.0692  0.3765 -0.1141
 5950SOL    HW118670   0.021   3.856   5.730 -2.0248 -0.1315  1.0686
 5950SOL    HW218671   0.007   3.954   5.861  1.0200  0.4654  1.0223
 5951SOL     OW18672   5.111   4.963   6.380  0.2323 -0.5197 -0.4181
 5951SOL    HW118673   5.063   5.039   6.336  0.5137  0.8656  1.5655
 5951SOL    HW218674   5.208   4.966   6.357  0.5897  0.8847  1.1128
 5952SOL     OW18675   3.917   1.066   5.369 -0.2153 -0.6783  0.6396
 5952SOL    HW118676   3.868   1.018   5.442 -1.0750 -1.4801 -0.4363
 5952SOL    HW218677   3.964   1.000   5.312  0.1879 -0.0774  0.2694
 5953SOL     OW18678   1.146   1.027   6.598 -0.1516 -0.2656  0.1909
 5953SOL    HW118679   1.186   0.945   6.637 -2.1706 -2.5548 -2.2042
 5953SOL    HW218680   1.201   1.059   6.521 -1.0167 -1.3305 -0.8951
 5954SOL     OW18681   4.604   5.246   0.581 -0.1157  0.1937  0.3470
 5954SOL    HW118682   4.647   5.262   0.492 -0.2325  1.3703  0.4962
 5954SOL    HW218683   4.671   5.259   0.654 -0.7906  2.6014  0.6165
 5955SOL     OW18684   0.990   3.965   1.561 -0.1336  0.2001 -0.6366
 5955SOL    HW118685   1.079   3.988   1.521 -0.0319 -0.5901 -0.8865
 5955SOL    HW218686   0.918   3.983   1.493  0.0523 -1.2800 -1.2618
 5956SOL     OW18687   0.491   0.783   5.311 -0.3064  0.3560  0.5807
 5956SOL    HW118688   0.515   0.708   5.250 -1.9075 -0.6371  1.1334
 5956SOL    HW218689   0.396   0.809   5.298  0.1848  2.2782  0.4546
 5957SOL     OW18690   4.140   4.209   0.117 -0.2201  0.1034 -0.2328
 5957SOL    HW118691   4.055   4.261   0.116 -1.6200 -2.0938 -0.1192
 5957SOL    HW218692   4.177   4.208   0.211 -0.9460 -0.3491  0.0454
 5958SOL     OW18693   6.321   2.721   0.603  0.3420 -0.3319  0.3272
 5958SOL    HW118694   6.373   2.690   0.523 -2.5207  0.2306 -1.9112
 5958SOL    HW218695   6.285   2.641   0.651  1.6161 -0.6620  0.7872
 5959SOL     OW18696   6.631   5.655   0.157 -0.2383 -0.5589 -0.4569
 5959SOL    HW118697   6.602   5.721   0.089 -1.7374 -1.1102 -0.3669
 5959SOL    HW218698   6.635   5.699   0.247 -2.2995 -0.8154 -0.2039
 5960SOL     OW18699   1.617   4.726   6.511  0.4144 -0.0869 -0.4485
 5960SOL    HW118700   1.625   4.695   6.606 -0.7708 -2.1630 -0.9782
 5960SOL    HW218701   1.703   4.770   6.484  1.3789 -0.9307  1.0678
 5961SOL     OW18702   1.745   2.204   6.046  0.1182 -0.1764 -0.0070
 5961SOL    HW118703   1.736   2.170   6.140  2.9793 -1.8586 -0.2067
 5961SOL    HW218704   1.814   2.276   6.044  0.6888 -0.7239 -0.8898
 5962SOL     OW18705   0.980   6.730   1.555  0.9101  0.3596  0.5741
 5962SOL    HW118706   0.928   6.816   1.558  0.4956  0.1254  0.2072
 5962SOL    HW218707   0.958   6.675   1.635  0.0870 -0.0255  0.0998
 5963SOL     OW18708   1.098   1.153   3.002 -0.1771 -0.3573 -0.0274
 5963SOL    HW118709   1.004   1.157   3.036 -0.4066 -0.8277 -0.5942
 5963SOL    HW218710   1.160   1.190   3.071 -0.9321  1.4182 -0.2524
 5964SOL     OW18711   1.677   3.320   0.372  0.1197  0.2672  0.6442
 5964SOL    HW118712   1.703   3.397   0.313 -0.9699  1.5685  1.8021
 5964SOL    HW218713   1.578   3.313   0.376  0.1774 -2.2401 -0.6886
 5965SOL     OW18714   3.424   5.827   5.066 -0.2804 -0.1187  0.1424
 5965SOL    HW118715   3.341   5.855   5.017  1.1283  1.8481 -1.2642
 5965SOL    HW218716   3.493   5.797   5.000  0.9740  0.6787  1.0409
 5966SOL     OW18717   6.743   6.757   1.627  0.8270  0.0468  0.6018
 5966SOL    HW118718   6.727   6.844   1.676  1.6253  0.6087 -0.1194
 5966SOL    HW218719   6.710   6.681   1.684 -2.0533  0.9420  0.2868
 5967SOL     OW18720   1.827   3.626   4.996  0.2928  0.4352  0.2892
 5967SOL    HW118721   1.799   3.624   5.092  0.9435  2.2546  0.5594
 5967SOL    HW218722   1.821   3.534   4.957 -2.2714  0.0395  1.3865
 5968SOL     OW18723   6.270   5.204   3.262 -0.5577 -0.0107  0.2303
 5968SOL    HW118724   6.249   5.187   3.358 -0.8086  0.0625  0.1880
 5968SOL    HW218725   6.226   5.135   3.204 -1.3941  0.6329  0.0778
 5969SOL     OW18726   1.610   4.671   0.201 -0.1346 -0.1017  0.1688
 5969SOL    HW118727   1.675   4.600   0.173 -1.5499 -0.3690 -2.8541
 5969SOL    HW218728   1.554   4.637   0.277  1.1390 -1.0174  0.7492
 5970SOL     OW18729   3.562   5.239   1.059  0.1486 -0.0357 -0.2095
 5970SOL    HW118730   3.465   5.261   1.075  0.5190  2.8132 -1.3565
 5970SOL    HW218731   3.585   5.260   0.964  2.0993  0.1147  0.2624
 5971SOL     OW18732   2.696   5.481   0.207 -0.0328  0.5470 -0.0185
 5971SOL    HW118733   2.705   5.413   0.134 -0.3124  0.8235 -0.3169
 5971SOL    HW218734   2.768   5.549   0.198  0.0588  0.4634  0.0892
 5972SOL     OW18735   4.910   6.266   1.851  0.3355  0.1398  0.5946
 5972SOL    HW118736   4.893   6.323   1.931  3.1683 -0.0002  1.4010
 5972SOL    HW218737   4.989   6.301   1.801  0.9579 -1.9788  0.0188
 5973SOL     OW18738   0.319   4.251   4.780  0.2705  0.4556 -0.0925
 5973SOL    HW118739   0.323   4.313   4.702 -0.9705  0.9408  0.2089
 5973SOL    HW218740   0.412   4.236   4.816  1.0782 -1.0623 -2.6366
 5974SOL     OW18741   3.056   6.007   3.417  0.2792  0.7134 -0.0863
 5974SOL    HW118742   2.971   6.058   3.399  0.3914  1.5558  1.5886
 5974SOL    HW218743   3.114   6.011   3.336 -0.5957  1.4967 -0.7063
 5975SOL     OW18744   1.857   0.191   4.670  0.7505 -0.0336 -0.2087
 5975SOL    HW118745   1.846   0.149   4.760 -1.1253 -1.3250 -0.9767
 5975SOL    HW218746   1.767   0.216   4.633  1.5048  0.7214 -1.6321
 5976SOL     OW18747   4.597   6.827   5.304  0.1708 -0.7491  0.3536
 5976SOL    HW118748   4.539   6.894   5.351  1.1487 -0.1385  0.7046
 5976SOL    HW218749   4.693   6.849   5.319  0.5059 -1.2882 -0.8847
 5977SOL     OW18750   6.765   1.007   5.619 -0.0934  0.1039  0.2112
 5977SOL    HW118751   6.816   0.948   5.557  1.2519 -0.0558  1.4243
 5977SOL    HW218752   6.781   1.103   5.595  0.4973  0.0452  0.3640
 5978SOL     OW18753   1.934   6.439   4.103 -0.0488 -0.5905  0.0602
 5978SOL    HW118754   1.933   6.393   4.191 -1.0950 -0.4186  0.1549
 5978SOL    HW218755   1.851   6.415   4.051  0.1014  0.0361 -0.4886
 5979SOL     OW18756   5.607   1.801   6.631  0.9509  0.2137 -0.1504
 5979SOL    HW118757   5.629   1.740   6.555 -0.4411  0.4059 -0.7304
 5979SOL    HW218758   5.587   1.893   6.596  1.0242  0.4888  0.5150
 5980SOL     OW18759   1.678   4.389   6.662 -0.3907  0.3020  0.3399
 5980SOL    HW118760   1.775   4.391   6.637 -0.4478 -0.8647 -0.0260
 5980SOL    HW218761   1.631   4.318   6.610 -1.0011 -0.5823  1.9945
 5981SOL     OW18762   5.887   3.087   6.179 -0.3515  0.5376  0.7447
 5981SOL    HW118763   5.791   3.113   6.194 -0.9171 -1.1020  0.2018
 5981SOL    HW218764   5.890   3.008   6.118  1.5012  2.4696 -1.8620
 5982SOL     OW18765   5.886   6.023   5.226  0.1736 -0.1789 -0.4940
 5982SOL    HW118766   5.923   6.105   5.182 -0.8467  0.9105  0.6216
 5982SOL    HW218767   5.923   5.942   5.180  1.2905  0.8787 -1.5573
 5983SOL     OW18768   6.151   5.475   6.773  0.1865 -0.0714  0.1628
 5983SOL    HW118769   6.192   5.567   6.773  0.0452 -0.0092 -0.3164
 5983SOL    HW218770   6.091   5.465   6.694 -1.9843  0.3759  1.6693
 5984SOL     OW18771   0.392   2.872   1.847  0.5320 -0.2424  0.0636
 5984SOL    HW118772   0.399   2.959   1.799 -2.0616  0.1143  0.2005
 5984SOL    HW218773   0.367   2.889   1.943  1.5940 -1.1111  0.5277
 5985SOL     OW18774   6.832   7.006   2.056 -0.2738 -0.1810  0.2467
 5985SOL    HW118775   6.814   7.101   2.028 -0.3319  0.2510  1.7502
 5985SOL    HW218776   6.907   6.969   2.001 -0.4484  0.6261 -0.5685
 5986SOL     OW18777   5.429   0.697   2.925 -0.1102 -0.4578 -0.7283
 5986SOL    HW118778   5.455   0.601   2.911  0.0824 -0.2974 -1.5431
 5986SOL    HW218779   5.399   0.735   2.837 -0.7172  0.0690 -0.2938
 5987SOL     OW18780   0.305   5.672   1.658  0.1033  0.4931  0.3748
 5987SOL    HW118781   0.322   5.652   1.561  2.1665  2.4667  0.2231
 5987SOL    HW218782   0.221   5.628   1.687 -0.5399 -0.2499 -2.2895
 5988SOL     OW18783   3.333   5.022   6.336 -0.4023  0.2706 -1.0591
 5988SOL    HW118784   3.299   5.116   6.336  0.5192  0.6381 -2.2640
 5988SOL    HW218785   3.274   4.965   6.393 -1.3629  1.4393 -0.8400
 5989SOL     OW18786   3.014   6.948   4.193 -0.4321 -0.2109 -0.2712
 5989SOL    HW118787   2.987   7.035   4.234 -0.6730  0.1644 -1.2067
 5989SOL    HW218788   2.962   6.874   4.236 -1.1193  0.2379 -0.3133
 5990SOL     OW18789   2.832   0.301   6.088  0.2213  0.4835 -0.1671
 5990SOL    HW118790   2.930   0.303   6.064  0.9734  0.8935  2.5257
 5990SOL    HW218791   2.784   0.238   6.028  1.6842  1.8942 -3.0374
 5991SOL     OW18792   1.176   4.393   5.834 -0.2910 -0.3897  1.0316
 5991SOL    HW118793   1.153   4.337   5.755 -1.0275 -0.4228  1.2638
 5991SOL    HW218794   1.265   4.364   5.870 -0.8769 -1.7656  1.4486
 5992SOL     OW18795   1.344   0.410   2.502  0.3397 -0.2910 -0.2634
 5992SOL    HW118796   1.297   0.498   2.507 -0.1564 -0.5877  0.3184
 5992SOL    HW218797   1.415   0.406   2.572 -0.7047 -0.9646  0.8087
 5993SOL     OW18798   6.682   3.983   3.373 -0.2805  0.8533 -0.0530
 5993SOL    HW118799   6.681   3.993   3.472 -1.5035  1.2866 -0.0872
 5993SOL    HW218800   6.740   4.053   3.332  0.1259  0.7513  0.3512
 5994SOL     OW18801   2.293   4.020   5.334 -0.5085  0.9920  0.3460
 5994SOL    HW118802   2.381   4.066   5.322  0.0593 -0.0447  0.3892
 5994SOL    HW218803   2.252   4.048   5.420  0.8392 -0.1814  1.3934
 5995SOL     OW18804   5.577   6.608   0.751 -0.5959 -0.3734 -0.5978
 5995SOL    HW118805   5.567   6.705   0.731 -2.0881 -0.2616  0.4820
 5995SOL    HW218806   5.512   6.581   0.822  0.4737 -1.9562 -0.1337
 5996SOL     OW18807   0.999   3.502   2.736 -0.2223 -0.0449 -0.2100
 5996SOL    HW118808   0.930   3.539   2.798  0.5997  0.3028  0.5240
 5996SOL    HW218809   0.966   3.417   2.696 -0.3797 -0.8307  1.5089
 5997SOL     OW18810   4.331   7.009   2.924 -0.3607 -0.0350  0.2996
 5997SOL    HW118811   4.286   6.932   2.878  0.8081 -0.9752  0.6753
 5997SOL    HW218812   4.367   6.979   3.012  1.6106  0.4734 -0.2964
 5998SOL     OW18813   6.878   0.780   5.457  0.1345 -0.1778  0.2791
 5998SOL    HW118814   6.942   0.743   5.389  0.6456  1.6210 -0.2818
 5998SOL    HW218815   6.865   0.714   5.530  1.8202 -1.0247 -0.1375
 5999SOL     OW18816   4.319   3.067   5.743 -0.2235  0.1253  0.3015
 5999SOL    HW118817   4.399   3.051   5.686 -1.9137  0.6996 -2.4078
 5999SOL    HW218818   4.339   3.139   5.809  0.9086  1.8185 -1.7514
 6000SOL     OW18819   2.481   1.752   0.234 -0.1451 -0.2588  0.0125
 6000SOL    HW118820   2.504   1.704   0.149  1.1079  0.3709 -0.0265
 6000SOL    HW218821   2.483   1.687   0.311  0.2355 -0.5287 -0.2181
 6001SOL     OW18822   1.615   0.574   3.214  0.1994 -0.4167  1.0538
 6001SOL    HW118823   1.539   0.591   3.277 -0.0118  0.0382  0.6848
 6001SOL    HW218824   1.584   0.517   3.139 -0.1558  0.8741  0.1830
 6002SOL     OW18825   1.036   0.455   2.210  0.1179 -0.4632  0.0485
 6002SOL    HW118826   1.075   0.517   2.142 -0.7688 -3.6713 -3.7838
 6002SOL    HW218827   0.937   0.470   2.216  0.2350  0.0275  0.9670
 6003SOL     OW18828   6.878   2.009   1.030  0.5149 -0.4951  0.1232
 6003SOL    HW118829   6.920   1.941   0.971  2.8760  0.8103  0.1760
 6003SOL    HW218830   6.851   2.089   0.976  1.7944  0.3054  0.6246
 6004SOL     OW18831   6.560   0.259   0.933  0.1168 -0.4314  0.0803
 6004SOL    HW118832   6.626   0.183   0.927  0.6515  0.0479 -0.2340
 6004SOL    HW218833   6.477   0.234   0.883  0.9310 -0.1852 -1.4642
 6005SOL     OW18834   3.418   1.531   5.209 -0.2816 -0.3932 -0.1485
 6005SOL    HW118835   3.421   1.630   5.198  0.9074 -0.3849  0.1449
 6005SOL    HW218836   3.328   1.497   5.181  0.5145  0.2979 -4.0617
 6006SOL     OW18837   5.125   3.221   2.842  0.6828 -0.4559  0.1417
 6006SOL    HW118838   5.065   3.145   2.818  2.5701 -1.3113 -2.4006
 6006SOL    HW218839   5.208   3.186   2.884  0.2507  0.5258  1.8868
 6007SOL     OW18840   2.743   6.064   4.034  0.1231  0.6759  0.3028
 6007SOL    HW118841   2.779   6.158   4.031  0.7335  0.4726  1.0155
 6007SOL    HW218842   2.818   5.999   4.025 -0.3079  0.2480 -0.2582
 6008SOL     OW18843   2.789   2.817   0.369  0.2380 -0.0196 -0.1178
 6008SOL    HW118844   2.763   2.725   0.341 -0.4481  0.8374 -2.4785
 6008SOL    HW218845   2.726   2.850   0.440 -0.5593 -0.7100 -0.5018
 6009SOL     OW18846   2.071   1.061   0.796  0.7246 -0.6298 -0.0033
 6009SOL    HW118847   2.053   1.007   0.714 -2.4417  1.0833 -0.6077
 6009SOL    HW218848   1.985   1.078   0.844  1.7518  2.5414  0.9823
 6010SOL     OW18849   3.599   3.636   6.936 -0.5071  0.6887  0.2634
 6010SOL    HW118850   3.588   3.549   6.983 -2.0641  0.2908 -0.7632
 6010SOL    HW218851   3.695   3.649   6.912 -0.2497 -0.7558  0.4283
 6011SOL     OW18852   4.275   0.622   6.068  0.3985  0.1408  0.5965
 6011SOL    HW118853   4.200   0.629   6.134 -1.9691  0.3035 -1.9713
 6011SOL    HW218854   4.361   0.642   6.114 -1.2342  1.2514  3.3936
 6012SOL     OW18855   3.841   5.440   2.529  0.2551  0.4253  0.0901
 6012SOL    HW118856   3.887   5.360   2.490 -1.0101 -2.0867  3.3118
 6012SOL    HW218857   3.904   5.490   2.588  0.3431  0.1792  0.2093
 6013SOL     OW18858   3.282   4.388   0.783 -0.5817  0.0228  0.0500
 6013SOL    HW118859   3.313   4.327   0.710 -1.0434 -0.6591  0.4002
 6013SOL    HW218860   3.263   4.334   0.865 -0.7605  0.6793  0.4483
 6014SOL     OW18861   1.904   4.903   4.475  0.0169 -0.3809  0.2668
 6014SOL    HW118862   1.872   4.810   4.455  3.2340 -1.3553 -0.9822
 6014SOL    HW218863   1.969   4.932   4.405 -0.7045  2.7987  0.7450
 6015SOL     OW18864   0.675   0.594   4.646  0.8798 -0.8321 -0.1101
 6015SOL    HW118865   0.586   0.583   4.602  0.7274 -0.4911  0.1052
 6015SOL    HW218866   0.689   0.690   4.668 -0.3216 -1.3031  3.2194
 6016SOL     OW18867   6.019   5.551   5.077  0.0483 -0.3155  0.1211
 6016SOL    HW118868   5.991   5.472   5.132 -1.4287 -1.3309 -1.9200
 6016SOL    HW218869   6.055   5.518   4.989 -1.6022  1.2342 -1.2194
 6017SOL     OW18870   5.134   5.955   3.484  0.3627 -0.5660  0.0179
 6017SOL    HW118871   5.073   5.987   3.412 -0.2110  1.4454  1.3488
 6017SOL    HW218872   5.195   6.029   3.512  0.6157 -1.3291  1.5609
 6018SOL     OW18873   6.773   1.454   5.815  0.3818  0.1204  0.2310
 6018SOL    HW118874   6.801   1.549   5.801 -0.1039  0.0772 -1.0913
 6018SOL    HW218875   6.740   1.443   5.909 -0.8544  1.5915  0.0209
 6019SOL     OW18876   0.133   4.063   3.319 -0.0613  0.0138 -0.0960
 6019SOL    HW118877   0.052   4.014   3.288 -1.7390  1.5058  1.6571
 6019SOL    HW218878   0.193   4.082   3.242 -1.1511 -1.5514 -1.3628
 6020SOL     OW18879   5.082   5.576   2.198  0.0912  0.3908 -0.4817
 6020SOL    HW118880   5.068   5.591   2.296  0.2585 -1.7057 -0.0967
 6020SOL    HW218881   5.042   5.488   2.172 -1.0107  1.4309 -2.5739
 6021SOL     OW18882   3.096   2.828   0.807 -0.9503  0.2247 -0.1206
 6021SOL    HW118883   3.187   2.866   0.828  0.3461 -2.1477 -0.9548
 6021SOL    HW218884   3.087   2.818   0.708 -0.1343 -3.7944  0.0792
 6022SOL     OW18885   5.632   2.530   3.461 -0.4484  0.5784 -0.5732
 6022SOL    HW118886   5.641   2.613   3.515  1.0430  1.2231 -1.7129
 6022SOL    HW218887   5.541   2.528   3.419 -0.4851  1.6759 -0.5959
 6023SOL     OW18888   4.525   0.849   5.928  0.4527 -0.7977 -0.5526
 6023SOL    HW118889   4.479   0.805   5.850 -0.8008  2.6502 -1.9556
 6023SOL    HW218890   4.458   0.898   5.983  1.7414 -0.6301  0.9182
 6024SOL     OW18891   3.302   2.347   6.390 -0.3513 -0.5651  0.5692
 6024SOL    HW118892   3.230   2.387   6.447  0.3569  0.2511  0.9207
 6024SOL    HW218893   3.293   2.381   6.296 -1.3120 -1.6384  0.2595
 6025SOL     OW18894   0.980   3.714   3.635 -0.0602 -0.3707 -0.1513
 6025SOL    HW118895   1.006   3.744   3.727  0.0931  0.7212 -0.5453
 6025SOL    HW218896   0.881   3.717   3.626 -0.0042  1.0415 -0.5135
 6026SOL     OW18897   1.044   1.954   3.407 -0.2885  0.5159 -0.2955
 6026SOL    HW118898   1.137   1.948   3.371 -1.0613  1.9964 -2.7172
 6026SOL    HW218899   1.039   2.029   3.474  0.3177  0.1908  0.1241
 6027SOL     OW18900   5.136   3.577   2.255  0.4953  0.6427 -0.3966
 6027SOL    HW118901   5.131   3.561   2.354 -1.9434 -0.6388 -0.6178
 6027SOL    HW218902   5.187   3.503   2.212  0.1254  0.2941 -0.2412
 6028SOL     OW18903   4.295   5.780   6.600 -0.0593 -0.2955  0.1414
 6028SOL    HW118904   4.248   5.861   6.566  0.7016  1.2117  2.4529
 6028SOL    HW218905   4.387   5.775   6.560 -0.6664 -1.0030 -1.2639
 6029SOL     OW18906   5.108   3.620   4.257 -0.1406  0.0131 -0.7012
 6029SOL    HW118907   5.120   3.674   4.340 -0.4349 -0.6437 -0.2351
 6029SOL    HW218908   5.067   3.678   4.186 -0.8376  0.2978 -0.0822
 6030SOL     OW18909   1.703   4.014   6.545  0.1583  0.4847  0.2099
 6030SOL    HW118910   1.794   4.054   6.538  0.3779 -0.0047  0.2205
 6030SOL    HW218911   1.634   4.087   6.540  0.4588  0.6677 -1.8660
 6031SOL     OW18912   0.276   2.884   6.576  0.1225  0.0075  0.1855
 6031SOL    HW118913   0.304   2.788   6.569 -1.7589 -0.6369  0.9675
 6031SOL    HW218914   0.310   2.922   6.662  0.6720 -0.0209 -0.0153
 6032SOL     OW18915   0.907   6.903   3.930 -0.2058 -0.7065  0.0392
 6032SOL    HW118916   0.849   6.961   3.873 -1.1396 -2.5494 -0.9765
 6032SOL    HW218917   1.000   6.902   3.893 -0.2743 -0.1948 -0.1663
 6033SOL     OW18918   1.532   3.957   0.535  0.6401 -0.3239 -0.1266
 6033SOL    HW118919   1.568   3.864   0.538  0.3465 -0.4146  1.1021
 6033SOL    HW218920   1.485   3.978   0.621  0.7062  0.9661 -0.3808
 6034SOL     OW18921   6.878   1.852   0.170  0.1590  0.2370  0.5321
 6034SOL    HW118922   6.884   1.946   0.136 -0.5653  0.7560  1.7804
 6034SOL    HW218923   6.866   1.789   0.093  0.7490  1.1515 -0.3248
 6035SOL     OW18924   2.732   4.809   1.232 -0.6621  0.1716  0.5138
 6035SOL    HW118925   2.708   4.775   1.323  0.7134  0.8381  1.1508
 6035SOL    HW218926   2.742   4.731   1.169  1.8730 -0.6582  1.8027
 6036SOL     OW18927   4.714   5.109   6.821  0.0431  0.1765 -0.3268
 6036SOL    HW118928   4.759   5.152   6.743  0.2065  0.9972  0.2080
 6036SOL    HW218929   4.689   5.179   6.888  1.1071 -0.6545  0.9804
 6037SOL     OW18930   3.738   5.205   6.183 -0.2374 -0.2425 -0.0486
 6037SOL    HW118931   3.699   5.287   6.225  0.4039 -1.1876  2.5687
 6037SOL    HW218932   3.666   5.154   6.136 -0.8431  1.2289 -0.7880
 6038SOL     OW18933   4.056   3.612   4.654 -0.3569  0.0820  0.1275
 6038SOL    HW118934   4.037   3.710   4.646 -0.9789 -0.1801 -2.0006
 6038SOL    HW218935   4.145   3.591   4.614 -0.8908 -0.4218 -0.8423
 6039SOL     OW18936   0.129   3.448   3.635 -0.7711  0.1371  0.0202
 6039SOL    HW118937   0.138   3.548   3.627 -2.6047  0.3339 -0.2068
 6039SOL    HW218938   0.190   3.414   3.706  0.0100  1.3977 -0.0130
 6040SOL     OW18939   3.307   2.140   0.322  0.4257 -0.0470  0.4802
 6040SOL    HW118940   3.340   2.115   0.231  2.2362 -0.4397  1.2150
 6040SOL    HW218941   3.232   2.206   0.313  1.1070  0.5358 -1.2603
 6041SOL     OW18942   6.580   5.134   1.331 -0.8120 -0.3400  0.1891
 6041SOL    HW118943   6.657   5.070   1.340 -0.7475 -0.0485  2.2142
 6041SOL    HW218944   6.546   5.132   1.237  1.5535 -0.5994 -0.7181
 6042SOL     OW18945   2.550   0.803   5.336  0.3070 -0.2555  0.1482
 6042SOL    HW118946   2.596   0.846   5.414  1.2826  1.6532 -1.3820
 6042SOL    HW218947   2.618   0.769   5.272 -0.4487 -0.5174 -0.5325
 6043SOL     OW18948   0.394   5.051   2.881  0.0226  0.5597  0.0675
 6043SOL    HW118949   0.473   5.085   2.831 -0.8961  0.5638 -1.4256
 6043SOL    HW218950   0.381   5.105   2.964  1.6548  0.4614  0.4248
 6044SOL     OW18951   4.688   6.260   3.042  0.1000  0.0257  0.2071
 6044SOL    HW118952   4.593   6.255   3.010 -0.0785  0.6287  0.6141
 6044SOL    HW218953   4.715   6.170   3.077  0.3439 -0.6850 -1.7322
 6045SOL     OW18954   5.145   6.497   5.626 -0.1521  0.1066 -0.3476
 6045SOL    HW118955   5.090   6.530   5.703  0.0934 -0.7343  0.2045
 6045SOL    HW218956   5.147   6.397   5.627 -0.7138  0.0547 -1.8607
 6046SOL     OW18957   1.374   1.177   3.544 -0.7116 -0.0647 -0.2780
 6046SOL    HW118958   1.297   1.115   3.533 -2.3710  2.1345 -1.7510
 6046SOL    HW218959   1.458   1.131   3.517 -1.9143 -1.5341 -1.7167
 6047SOL     OW18960   4.856   5.285   1.792  0.1134 -0.2946 -0.0321
 6047SOL    HW118961   4.839   5.323   1.701  0.4467  1.2639  0.5227
 6047SOL    HW218962   4.910   5.350   1.845  0.0201 -1.2311  1.2465
 6048SOL     OW18963   5.585   6.415   6.779 -0.0076 -1.0400 -0.1172
 6048SOL    HW118964   5.492   6.438   6.748  0.5148 -0.3960 -1.2993
 6048SOL    HW218965   5.613   6.481   6.849  0.1418 -0.2521 -0.9020
 6049SOL     OW18966   3.841   2.038   5.882 -0.1945 -0.0559 -0.4427
 6049SOL    HW118967   3.802   2.059   5.792  0.7769 -1.2542 -1.1956
 6049SOL    HW218968   3.853   1.939   5.890  0.2815  0.0788  0.7985
 6050SOL     OW18969   5.309   2.694   1.337 -0.3757  0.4531 -0.1097
 6050SOL    HW118970   5.372   2.770   1.323 -1.9634  1.8509 -0.0181
 6050SOL    HW218971   5.357   2.619   1.382  1.1930  1.4736 -0.0087
 6051SOL     OW18972   0.359   6.427   1.869  0.1498  0.1059 -0.0573
 6051SOL    HW118973   0.434   6.468   1.818 -0.5536 -0.4484 -1.6184
 6051SOL    HW218974   0.275   6.480   1.853  0.3729  1.4690  2.6520
 6052SOL     OW18975   0.216   0.803   4.185 -0.3746  0.0228 -0.3433
 6052SOL    HW118976   0.252   0.816   4.093 -0.2855  2.1747 -0.0722
 6052SOL    HW218977   0.292   0.801   4.250 -0.4940 -0.3727 -0.2129
 6053SOL     OW18978   2.039   6.291   5.857  0.4243 -0.0345  0.4932
 6053SOL    HW118979   1.958   6.334   5.898  0.5600  0.6136  0.0989
 6053SOL    HW218980   2.016   6.258   5.765  1.0905  1.9017 -0.4207
 6054SOL     OW18981   0.771   3.701   1.757 -0.2552 -0.1292  0.4918
 6054SOL    HW118982   0.834   3.625   1.772  1.6575  0.4496 -3.3143
 6054SOL    HW218983   0.806   3.783   1.803  0.1900 -0.4627  0.7590
 6055SOL     OW18984   5.397   6.600   6.975  0.0719 -0.1123  0.1874
 6055SOL    HW118985   5.413   6.509   7.015  0.7271  0.1796  0.5730
 6055SOL    HW218986   5.475   6.659   6.994 -1.0659  1.0576  1.3925
 6056SOL     OW18987   4.178   3.700   0.487  0.5889 -0.6534  0.1689
 6056SOL    HW118988   4.232   3.664   0.564 -0.0457 -0.1323  0.8716
 6056SOL    HW218989   4.098   3.748   0.522 -0.6678 -1.9141 -0.8685
 6057SOL     OW18990   2.438   4.059   6.388  0.0521 -0.4490  0.1998
 6057SOL    HW118991   2.367   4.075   6.319 -1.2439 -0.5065  1.4496
 6057SOL    HW218992   2.395   4.024   6.471  1.1861  1.8523  1.8731
 6058SOL     OW18993   3.167   0.501   1.840 -0.0953  0.0621  0.1853
 6058SOL    HW118994   3.078   0.547   1.845  0.3999  1.0075  0.9152
 6058SOL    HW218995   3.153   0.403   1.827 -1.2138  0.3125 -0.7594
 6059SOL     OW18996   4.142   6.263   4.193  0.2385  0.3174 -0.5275
 6059SOL    HW118997   4.051   6.300   4.178 -0.9816 -2.7934 -1.7273
 6059SOL    HW218998   4.158   6.250   4.291 -1.2065 -0.3796 -0.3615
 6060SOL     OW18999   5.912   3.164   0.418 -0.6085  0.3135 -0.5910
 6060SOL    HW119000   5.833   3.105   0.435 -1.2364  0.6646 -2.1024
 6060SOL    HW219001   5.880   3.255   0.389  0.3330  1.2158  1.0520
 6061SOL     OW19002   5.565   0.494   6.801 -0.0851  0.3098 -0.1004
 6061SOL    HW119003   5.487   0.437   6.829 -1.4216  1.5524 -1.1235
 6061SOL    HW219004   5.549   0.588   6.831  0.6991  0.7154 -0.9344
 6062SOL     OW19005   1.535   5.973   1.768 -0.7128  0.5277  0.3281
 6062SOL    HW119006   1.439   5.947   1.755 -0.5081 -0.0024 -0.1817
 6062SOL    HW219007   1.565   5.948   1.860 -1.7520  2.9262  1.4094
 6063SOL     OW19008   4.292   1.863   5.209 -0.7336 -1.0067 -0.3150
 6063SOL    HW119009   4.217   1.799   5.230 -0.9247 -0.2027  1.6069
 6063SOL    HW219010   4.309   1.921   5.288 -0.9920  1.8069 -2.2023
 6064SOL     OW19011   4.395   6.382   0.187 -0.0474  0.5607  0.0514
 6064SOL    HW119012   4.442   6.402   0.101  0.4103  0.6468  0.3158
 6064SOL    HW219013   4.460   6.391   0.263 -0.6589  1.3339  0.4968
 6065SOL     OW19014   2.704   4.496   2.288  0.0662  0.4606  0.0807
 6065SOL    HW119015   2.788   4.532   2.327 -1.1673  2.2893  1.2990
 6065SOL    HW219016   2.678   4.550   2.208 -0.0800  0.0728 -0.1400
 6066SOL     OW19017   1.364   5.638   4.656  0.4456  0.1877  0.0114
 6066SOL    HW119018   1.400   5.576   4.586  0.5043 -1.7132  1.6470
 6066SOL    HW219019   1.337   5.724   4.613 -0.7721 -1.3495 -2.5869
 6067SOL     OW19020   2.209   4.409   5.031 -0.3042 -0.1370 -0.2560
 6067SOL    HW119021   2.109   4.400   5.030 -0.3684  0.1796  1.1053
 6067SOL    HW219022   2.233   4.504   5.049  0.2084 -0.5521  1.3842
 6068SOL     OW19023   2.243   0.761   0.135 -0.5749 -0.7686 -0.1993
 6068SOL    HW119024   2.209   0.680   0.184 -1.9068 -0.2242 -0.1807
 6068SOL    HW219025   2.252   0.740   0.038  0.0483 -1.2293 -0.0457
 6069SOL     OW19026   4.598   3.027   0.132  0.6165 -0.5829 -0.1743
 6069SOL    HW119027   4.511   3.019   0.083  0.1699  0.6517  0.3808
 6069SOL    HW219028   4.622   2.939   0.173 -0.8917 -0.6921  0.5332
 6070SOL     OW19029   5.692   0.897   4.219  0.3383  0.2186 -0.5378
 6070SOL    HW119030   5.681   0.942   4.130  0.7583  1.5529  0.0501
 6070SOL    HW219031   5.731   0.806   4.207  0.2466  0.3274 -1.7282
 6071SOL     OW19032   1.009   6.056   2.551 -0.2112  0.1569  0.1827
 6071SOL    HW119033   0.941   6.104   2.607 -0.3235 -1.4384  1.5485
 6071SOL    HW219034   0.970   5.969   2.520  1.3641 -1.1671  1.6484
 6072SOL     OW19035   3.298   1.853   1.686 -0.2295 -0.0420  0.0781
 6072SOL    HW119036   3.279   1.797   1.606  2.7578 -0.9589 -0.0999
 6072SOL    HW219037   3.311   1.948   1.658 -0.2614 -0.1641 -0.3612
 6073SOL     OW19038   2.377   1.054   3.134  0.0918 -0.2965  0.1076
 6073SOL    HW119039   2.375   0.956   3.116 -0.0469 -0.1877 -0.5201
 6073SOL    HW219040   2.306   1.077   3.201  0.9707 -0.7952  1.2422
 6074SOL     OW19041   5.309   5.679   0.300  0.1316 -0.3515 -0.9475
 6074SOL    HW119042   5.215   5.672   0.266 -0.5259  1.4229  0.3861
 6074SOL    HW219043   5.341   5.773   0.289  0.9469 -0.4179  0.6260
 6075SOL     OW19044   1.466   6.648   3.569 -0.1395 -0.5906  0.0195
 6075SOL    HW119045   1.546   6.589   3.558 -0.1648 -0.7611  0.7232
 6075SOL    HW219046   1.481   6.734   3.522  1.2150  0.1277  1.6913
 6076SOL     OW19047   3.306   0.855   0.322 -0.1206  0.5507 -0.8101
 6076SOL    HW119048   3.352   0.767   0.311  0.9653  0.8154  1.3195
 6076SOL    HW219049   3.208   0.840   0.334  0.2070 -0.5066  0.8137
 6077SOL     OW19050   1.521   6.728   1.349  0.5060  0.0882 -0.3451
 6077SOL    HW119051   1.516   6.817   1.306 -2.2167 -0.6901 -1.8727
 6077SOL    HW219052   1.429   6.690   1.360  1.5818 -2.8724 -0.4778
 6078SOL     OW19053   3.613   1.614   6.263  0.0254  0.0178  0.6836
 6078SOL    HW119054   3.685   1.659   6.210 -0.2598  0.0656  0.3281
 6078SOL    HW219055   3.544   1.681   6.289  0.0462 -0.0488  0.9078
 6079SOL     OW19056   5.377   2.520   0.014 -0.4562 -0.1592 -0.1624
 6079SOL    HW119057   5.404   2.444   0.072 -0.1905 -0.5296 -0.7595
 6079SOL    HW219058   5.454   2.583   0.004 -0.7818  0.3670  0.6063
 6080SOL     OW19059   0.101   2.749   0.392  0.2548  0.6297  0.1051
 6080SOL    HW119060   0.188   2.788   0.362  0.6534 -0.5205 -0.3006
 6080SOL    HW219061   0.116   2.655   0.425 -0.5865  0.9595  1.4987
 6081SOL     OW19062   0.878   6.821   3.559  0.6195  0.4473  0.1902
 6081SOL    HW119063   0.871   6.907   3.507 -1.5034 -0.2319 -0.7846
 6081SOL    HW219064   0.799   6.814   3.621  0.4869 -1.0213 -0.1188
 6082SOL     OW19065   6.317   2.972   0.140  0.0831 -0.1858  0.4251
 6082SOL    HW119066   6.386   3.024   0.191  1.3304 -0.4057 -0.9726
 6082SOL    HW219067   6.360   2.894   0.096 -0.9923 -0.1306 -0.7725
 6083SOL     OW19068   5.781   0.891   4.764 -0.1675 -0.3167 -0.3521
 6083SOL    HW119069   5.695   0.892   4.712 -0.1255 -1.7492 -0.4890
 6083SOL    HW219070   5.807   0.797   4.784  0.5208  0.1557  1.1380
 6084SOL     OW19071   7.019   5.047   6.104 -0.3022  0.0789 -0.5491
 6084SOL    HW119072   7.046   5.143   6.103 -0.9728  0.2781 -0.2604
 6084SOL    HW219073   7.072   4.997   6.034 -2.0866  1.2717 -2.8816
 6085SOL     OW19074   0.122   5.180   4.856  0.4115 -0.8460 -0.0784
 6085SOL    HW119075   0.147   5.157   4.762  1.2468 -1.2615  0.2338
 6085SOL    HW219076   0.193   5.238   4.896  0.5723 -1.5185  0.6222
 6086SOL     OW19077   3.948   3.057   1.289 -0.1086  0.1848  0.0015
 6086SOL    HW119078   3.937   3.105   1.202 -1.2888  0.6975  0.4176
 6086SOL    HW219079   4.007   2.977   1.276 -0.8210 -0.1379 -1.4209
 6087SOL     OW19080   2.736   0.201   3.026 -0.3443 -0.0204 -0.1107
 6087SOL    HW119081   2.638   0.207   3.046 -0.1106 -1.4376  1.7497
 6087SOL    HW219082   2.781   0.287   3.053 -1.1049  0.8288 -1.4411
 6088SOL     OW19083   4.517   3.980   0.641 -0.2836  0.4767  0.0011
 6088SOL    HW119084   4.608   3.944   0.658 -0.7550 -0.6728  0.1732
 6088SOL    HW219085   4.480   4.020   0.725  0.5522  2.1597 -0.3803
 6089SOL     OW19086   6.715   1.132   0.796  0.4644 -0.4279  0.1110
 6089SOL    HW119087   6.765   1.139   0.710 -2.6658  1.4504 -1.7247
 6089SOL    HW219088   6.742   1.206   0.857  1.8752 -1.0997  0.3405
 6090SOL     OW19089   2.081   0.387   1.122 -0.0732 -0.1548 -0.1595
 6090SOL    HW119090   2.016   0.450   1.165  0.5523  0.6717 -0.3911
 6090SOL    HW219091   2.173   0.424   1.130  0.2237 -0.6914 -0.9461
 6091SOL     OW19092   1.638   2.232   5.763  0.3979  0.5934  0.4757
 6091SOL    HW119093   1.677   2.308   5.711  0.7599  0.9738  1.2917
 6091SOL    HW219094   1.658   2.244   5.860 -0.0324 -0.2524  0.6779
 6092SOL     OW19095   6.115   5.187   4.029 -0.3662  0.4364  0.4673
 6092SOL    HW119096   6.019   5.158   4.034 -0.8030  1.4440 -1.2797
 6092SOL    HW219097   6.166   5.125   3.970 -0.6106  1.4107 -0.8274
 6093SOL     OW19098   1.059   4.944   4.724 -0.0608  0.1225 -0.2066
 6093SOL    HW119099   1.142   4.995   4.748  1.9471 -1.7223 -2.6551
 6093SOL    HW219100   1.046   4.871   4.791  0.5693  0.1666 -0.0177
 6094SOL     OW19101   3.484   4.027   0.738 -0.5639  0.1379  0.6527
 6094SOL    HW119102   3.388   4.009   0.760 -1.3196  2.3699 -0.5222
 6094SOL    HW219103   3.491   4.110   0.681  2.0848  0.2076  0.9380
 6095SOL     OW19104   5.150   0.113   3.978  0.4701 -0.0501 -0.0082
 6095SOL    HW119105   5.133   0.170   4.058  2.6453  0.6931 -0.0007
 6095SOL    HW219106   5.092   0.142   3.903 -0.9925 -0.2102  1.0080
 6096SOL     OW19107   3.737   5.280   6.588  0.1881 -0.2350  0.2650
 6096SOL    HW119108   3.680   5.332   6.525  0.4657 -1.1428 -0.7792
 6096SOL    HW219109   3.685   5.259   6.671 -0.1261  1.1262  0.4247
 6097SOL     OW19110   2.974   1.881   0.564 -0.5059 -0.0238 -0.3871
 6097SOL    HW119111   3.067   1.893   0.529  0.4232 -1.4707  1.3726
 6097SOL    HW219112   2.927   1.811   0.511  1.4935 -3.4996  2.0314
 6098SOL     OW19113   4.482   0.687   6.243 -0.3851 -0.1066  0.6414
 6098SOL    HW119114   4.575   0.704   6.210 -0.1528  0.8579  1.7318
 6098SOL    HW219115   4.473   0.591   6.270 -0.5152 -0.8972 -1.8940
 6099SOL     OW19116   3.532   3.733   3.928  0.4979 -0.1946 -0.2209
 6099SOL    HW119117   3.482   3.682   3.999 -0.7665 -0.9601 -1.6072
 6099SOL    HW219118   3.494   3.826   3.923 -0.9640 -0.8091 -1.3541
 6100SOL     OW19119   4.639   6.112   0.812 -0.0235 -0.4386 -0.7930
 6100SOL    HW119120   4.672   6.136   0.720  1.1544  2.3540  0.2329
 6100SOL    HW219121   4.540   6.103   0.810 -0.3700  2.5123 -1.8683
 6101SOL     OW19122   3.141   5.868   0.481  0.4205  0.0249  0.3246
 6101SOL    HW119123   3.078   5.872   0.403 -0.0441 -0.3990  0.6751
 6101SOL    HW219124   3.233   5.846   0.448  0.2753  0.0756 -0.1329
 6102SOL     OW19125   0.817   5.822   6.047 -0.0598  0.3086  0.4466
 6102SOL    HW119126   0.841   5.919   6.055  0.0501  0.5538 -2.1013
 6102SOL    HW219127   0.878   5.778   5.980 -1.9719 -0.8068 -0.6309
 6103SOL     OW19128   1.840   6.265   1.551 -0.1883  0.2497 -0.3348
 6103SOL    HW119129   1.773   6.335   1.526 -0.8632 -0.3787 -0.3085
 6103SOL    HW219130   1.928   6.286   1.508  0.0514  1.9218  0.8378
 6104SOL     OW19131   6.815   5.491   4.390  0.1798  0.1527 -0.2459
 6104SOL    HW119132   6.894   5.547   4.365 -0.3638  0.6950 -0.7550
 6104SOL    HW219133   6.757   5.542   4.454 -0.1858  0.0748 -0.5140
 6105SOL     OW19134   1.288   1.479   6.441  0.4636 -0.2966 -0.1342
 6105SOL    HW119135   1.341   1.552   6.485 -0.0141 -0.3741  0.5852
 6105SOL    HW219136   1.203   1.517   6.406  0.0404 -0.5641  0.5696
 6106SOL     OW19137   5.686   4.876   3.094  0.6081  0.2480  0.3850
 6106SOL    HW119138   5.679   4.777   3.080 -0.4196  0.2335  0.8971
 6106SOL    HW219139   5.594   4.916   3.094  1.1143  1.7187 -3.2169
 6107SOL     OW19140   6.004   0.327   5.583  1.0065  0.2571  0.4979
 6107SOL    HW119141   5.967   0.360   5.670  1.9819 -1.2424  1.5405
 6107SOL    HW219142   6.101   0.350   5.577  1.0288  0.0419 -0.0289
 6108SOL     OW19143   3.527   0.219   2.844  0.2693  0.0340 -0.4962
 6108SOL    HW119144   3.570   0.149   2.787 -0.8145 -0.1467 -1.1435
 6108SOL    HW219145   3.511   0.301   2.789 -0.0064  0.1731 -0.2124
 6109SOL     OW19146   5.468   4.121   3.422  0.4412  0.0319  0.3211
 6109SOL    HW119147   5.557   4.146   3.383 -0.0457 -0.6988 -1.3538
 6109SOL    HW219148   5.420   4.203   3.452  0.5335  0.7766 -1.3762
 6110SOL     OW19149   0.668   6.499   0.733 -0.2963  0.0501  0.1514
 6110SOL    HW119150   0.717   6.471   0.651 -0.1671 -1.0959  0.5982
 6110SOL    HW219151   0.587   6.441   0.744  0.4638 -0.7634  1.5948
 6111SOL     OW19152   4.967   1.963   0.606  0.1008 -0.3914  0.0766
 6111SOL    HW119153   5.050   1.992   0.557 -0.0247  0.5259  0.3992
 6111SOL    HW219154   4.892   1.954   0.541 -0.1079  0.9845  0.1077
 6112SOL     OW19155   4.643   6.448   0.338 -0.2139 -0.4023 -0.1425
 6112SOL    HW119156   4.740   6.442   0.359 -0.5708 -1.3276  1.3799
 6112SOL    HW219157   4.608   6.538   0.366  0.4760  0.5374 -2.1016
 6113SOL     OW19158   1.918   1.670   6.369  0.4978  0.5330 -0.3264
 6113SOL    HW119159   1.822   1.656   6.393  0.2139 -0.1466 -1.7316
 6113SOL    HW219160   1.945   1.604   6.299  1.9860  0.7420 -0.0017
 6114SOL     OW19161   5.405   2.299   1.200 -0.0087  0.2163 -0.4958
 6114SOL    HW119162   5.410   2.199   1.199 -0.0190  0.0982  2.5944
 6114SOL    HW219163   5.340   2.328   1.270 -0.4945  2.4239 -1.7864
 6115SOL     OW19164   5.710   4.654   1.163 -0.4924 -0.7665  0.2928
 6115SOL    HW119165   5.808   4.635   1.171 -0.1157  1.0240  0.4020
 6115SOL    HW219166   5.676   4.616   1.077  0.7077  0.0511 -0.5902
 6116SOL     OW19167   6.398   5.327   4.637 -0.0573 -0.0595 -0.0439
 6116SOL    HW119168   6.365   5.414   4.674 -2.8618 -0.2844 -1.7549
 6116SOL    HW219169   6.394   5.257   4.708 -1.5587  0.3384  0.2775
 6117SOL     OW19170   6.745   5.672   2.816  0.3170 -0.4247  0.2506
 6117SOL    HW119171   6.781   5.596   2.870 -0.5598  0.3208  2.0107
 6117SOL    HW219172   6.812   5.747   2.817  0.1430 -0.2667  0.6800
 6118SOL     OW19173   4.102   1.422   6.299 -0.3533 -0.0074  0.3186
 6118SOL    HW119174   4.018   1.368   6.307 -1.1928  1.3057  0.7436
 6118SOL    HW219175   4.091   1.491   6.227  0.1096  0.5897  0.8035
 6119SOL     OW19176   4.792   1.613   3.117  0.5424  0.3676 -0.2061
 6119SOL    HW119177   4.887   1.625   3.087  1.0639 -1.7685  0.4347
 6119SOL    HW219178   4.777   1.518   3.144 -1.4127  0.9777  1.0750
 6120SOL     OW19179   0.677   1.885   2.095 -0.9983 -0.0895  0.5638
 6120SOL    HW119180   0.653   1.870   2.000  1.1923  1.1395 -0.2535
 6120SOL    HW219181   0.696   1.797   2.139  0.1575 -0.5481 -0.7791
 6121SOL     OW19182   4.780   2.964   6.140  0.0905  0.0213 -0.3603
 6121SOL    HW119183   4.690   2.979   6.098  0.9018  2.9664 -1.2650
 6121SOL    HW219184   4.776   2.989   6.237 -0.3625 -1.2688 -0.0160
 6122SOL     OW19185   2.449   3.475   0.182  0.4074 -0.2482  0.2891
 6122SOL    HW119186   2.507   3.396   0.200  0.1923 -1.1299 -2.5215
 6122SOL    HW219187   2.487   3.529   0.107 -1.3025  0.2790 -0.2544
 6123SOL     OW19188   3.247   6.425   5.381  0.3954 -0.3229 -0.1887
 6123SOL    HW119189   3.274   6.418   5.285 -0.4191 -2.1795 -0.3377
 6123SOL    HW219190   3.203   6.514   5.397  1.8521  0.6184 -1.1389
 6124SOL     OW19191   1.997   3.269   5.642  0.2645  0.1174 -0.6605
 6124SOL    HW119192   1.942   3.195   5.680  1.2033  0.1049  0.8053
 6124SOL    HW219193   2.040   3.239   5.557 -0.4002 -0.5531 -0.7666
 6125SOL     OW19194   0.044   6.911   2.919  0.8987  0.3271  0.0406
 6125SOL    HW119195   0.036   7.010   2.934 -0.4069  0.0897  1.0185
 6125SOL    HW219196  -0.012   6.886   2.840  0.3937  0.2218  0.4462
 6126SOL     OW19197   2.023   5.908   3.268  0.0555 -0.0633 -0.1511
 6126SOL    HW119198   2.071   5.888   3.354 -0.8833 -0.8033  0.2156
 6126SOL    HW219199   2.076   5.871   3.191 -0.5286 -2.0570  0.3457
 6127SOL     OW19200   0.656   2.168   2.902 -0.3054  0.3747 -0.2538
 6127SOL    HW119201   0.683   2.172   2.805  0.6074 -1.0908 -0.0884
 6127SOL    HW219202   0.621   2.257   2.930 -0.7644  0.7904 -1.9792
 6128SOL     OW19203   5.487   0.630   6.162  0.2696  0.6574 -0.1165
 6128SOL    HW119204   5.405   0.638   6.105  0.4112 -3.1888 -1.1215
 6128SOL    HW219205   5.558   0.581   6.112  1.4981 -0.2699  2.3604
 6129SOL     OW19206   3.378   1.538   4.066 -0.2020 -0.3012  0.5073
 6129SOL    HW119207   3.440   1.616   4.064 -0.9742  0.3509  1.1198
 6129SOL    HW219208   3.418   1.465   4.122  0.6974 -0.5215 -0.3842
 6130SOL     OW19209   2.973   5.784   1.517  0.0383  0.2297 -0.3412
 6130SOL    HW119210   2.921   5.711   1.561 -0.1621  1.1158  0.9331
 6130SOL    HW219211   2.954   5.871   1.562  0.6154  1.0150 -1.5481
 6131SOL     OW19212   0.198   2.250   6.533  0.3457  0.3083 -0.1788
 6131SOL    HW119213   0.140   2.327   6.504  0.8988  0.8026  0.0047
 6131SOL    HW219214   0.158   2.164   6.501 -0.4686  0.6427 -0.0932
 6132SOL     OW19215   4.623   3.696   0.498  0.6591  0.5827  0.0806
 6132SOL    HW119216   4.590   3.618   0.551  0.9850  0.1579 -0.3390
 6132SOL    HW219217   4.610   3.679   0.400 -0.8913  1.7920  0.0327
 6133SOL     OW19218   5.009   4.136   0.740  0.7225  0.7662  0.2636
 6133SOL    HW119219   4.925   4.091   0.772  0.7217 -0.9949 -1.9426
 6133SOL    HW219220   5.073   4.146   0.817 -0.4098 -0.4485  1.4212
 6134SOL     OW19221   0.537   4.512   1.772 -0.5056 -0.3029  0.2232
 6134SOL    HW119222   0.564   4.581   1.839 -0.5712  0.4304 -0.4999
 6134SOL    HW219223   0.548   4.421   1.813  0.8384  0.0656  0.7466
 6135SOL     OW19224   2.951   4.798   0.995 -0.3891 -0.0072  0.0385
 6135SOL    HW119225   2.911   4.874   1.046 -0.1060  1.5695 -1.9510
 6135SOL    HW219226   2.931   4.712   1.042 -1.2832  1.2068  2.0236
 6136SOL     OW19227   0.736   2.511   2.297  0.2478 -0.2131 -0.3003
 6136SOL    HW119228   0.738   2.432   2.235  0.1011 -0.7089  0.3197
 6136SOL    HW219229   0.830   2.538   2.319  0.2989 -0.3002 -0.4058
 6137SOL     OW19230   6.900   4.440   5.209 -0.2900  0.7006  0.0909
 6137SOL    HW119231   6.957   4.486   5.141 -0.9366 -1.0304 -1.7305
 6137SOL    HW219232   6.804   4.462   5.193 -0.6511 -1.4956 -1.0805
 6138SOL     OW19233   3.812   0.790   2.147 -0.1701  0.0802  0.7755
 6138SOL    HW119234   3.861   0.874   2.124  1.5792 -1.6746 -2.6940
 6138SOL    HW219235   3.759   0.804   2.231  1.2289  4.0867  1.2017
 6139SOL     OW19236   3.675   3.857   0.574 -0.0235 -0.4330 -0.0788
 6139SOL    HW119237   3.603   3.907   0.621 -0.0766 -0.3987 -0.1946
 6139SOL    HW219238   3.663   3.759   0.589  0.0651 -0.4126  0.1298
 6140SOL     OW19239   6.235   4.379   1.314  0.0929 -0.1048 -0.0018
 6140SOL    HW119240   6.258   4.453   1.377 -0.3907  0.8217 -0.9020
 6140SOL    HW219241   6.141   4.348   1.331 -0.3378  0.7225 -0.8097
 6141SOL     OW19242   6.447   0.004   6.314 -0.6060  0.4538 -0.0950
 6141SOL    HW119243   6.436  -0.018   6.217  1.8258  0.6465 -0.4890
 6141SOL    HW219244   6.507   0.083   6.324  1.6962 -1.3821  1.5631
 6142SOL     OW19245   1.987   5.314   2.546 -0.1580  0.5552  0.3120
 6142SOL    HW119246   1.921   5.318   2.471  0.5933  2.0998 -0.3267
 6142SOL    HW219247   2.056   5.244   2.527  0.0867  1.0115 -0.5175
 6143SOL     OW19248   4.768   0.574   6.558  0.1373  0.7103  0.0292
 6143SOL    HW119249   4.823   0.502   6.599  1.8116  0.7662 -1.9171
 6143SOL    HW219250   4.679   0.537   6.529  0.5879 -0.3071 -0.0611
 6144SOL     OW19251   5.822   4.933   3.862  0.0202 -0.6550  0.2996
 6144SOL    HW119252   5.905   4.953   3.809  0.2178 -0.2691  0.7408
 6144SOL    HW219253   5.845   4.875   3.940 -0.4970 -2.3777 -0.7820
 6145SOL     OW19254   1.979   6.005   4.459  0.1502 -0.1273  0.6645
 6145SOL    HW119255   1.948   6.022   4.553 -0.6989  0.6223  0.2781
 6145SOL    HW219256   2.064   6.055   4.442 -0.0364  0.2671  0.8483
 6146SOL     OW19257   6.109   5.614   0.622  0.5605 -0.0530 -0.0833
 6146SOL    HW119258   6.110   5.711   0.647 -2.4657 -0.2218  1.1738
 6146SOL    HW219259   6.158   5.561   0.691  1.3772  0.4999 -0.2424
 6147SOL     OW19260   6.864   2.724   4.196 -0.1423 -0.5705  0.1143
 6147SOL    HW119261   6.795   2.660   4.232  0.2133 -0.6705  0.6225
 6147SOL    HW219262   6.916   2.679   4.124 -1.2328 -0.1956 -0.9635
 6148SOL     OW19263   0.559   4.683   6.690  0.5133 -0.2472  0.3464
 6148SOL    HW119264   0.571   4.742   6.610 -2.6479 -0.6698 -0.5756
 6148SOL    HW219265   0.525   4.737   6.767 -0.0482 -0.4330  0.2370
 6149SOL     OW19266   3.982   2.584   1.716  0.2684 -0.6457  0.0822
 6149SOL    HW119267   3.976   2.625   1.625  0.8505 -0.4730  0.1224
 6149SOL    HW219268   3.890   2.570   1.752  0.0274 -1.0275 -0.6718
 6150SOL     OW19269   2.944   2.688   4.154 -0.2340 -0.3075  0.8258
 6150SOL    HW119270   2.937   2.775   4.104  0.7055 -1.0565 -0.7094
 6150SOL    HW219271   3.006   2.699   4.231  0.4306  0.2172  0.2351
 6151SOL     OW19272   2.260   1.298   6.494 -0.4486  0.0852  0.3628
 6151SOL    HW119273   2.205   1.373   6.530  2.0442  2.0655  0.3327
 6151SOL    HW219274   2.321   1.332   6.422  0.7354 -1.9670  0.3013
 6152SOL     OW19275   2.126   0.771   5.834  0.0795  0.1989 -0.0696
 6152SOL    HW119276   2.211   0.772   5.886 -0.2922  1.1468  0.5499
 6152SOL    HW219277   2.146   0.747   5.739  1.1279  0.9809 -0.0732
 6153SOL     OW19278   1.861   6.409   6.041  0.3017 -0.0895  0.2750
 6153SOL    HW119279   1.765   6.431   6.024  0.0698 -0.5749  0.8956
 6153SOL    HW219280   1.894   6.459   6.121 -0.3631 -2.1768  1.9779
 6154SOL     OW19281   5.041   0.731   3.162 -0.1981  0.0413 -0.1935
 6154SOL    HW119282   5.008   0.638   3.179  0.1716  0.0139  0.4410
 6154SOL    HW219283   5.051   0.778   3.249  0.5762  0.3406 -0.4383
 6155SOL     OW19284   1.443   2.411   6.534  0.9116 -0.1245 -0.1779
 6155SOL    HW119285   1.487   2.321   6.540  0.0795 -0.5619 -0.3192
 6155SOL    HW219286   1.509   2.483   6.554  1.8728 -0.7123 -1.1229
 6156SOL     OW19287   5.567   1.688   5.537 -0.6403  0.0421  0.3368
 6156SOL    HW119288   5.548   1.619   5.467  0.6577 -0.2170  0.2054
 6156SOL    HW219289   5.481   1.732   5.565 -1.2000  0.1581 -1.4355
 6157SOL     OW19290   4.425   0.301   5.882 -0.6977 -0.0457 -0.1672
 6157SOL    HW119291   4.370   0.235   5.831  1.7983 -2.5830  0.1653
 6157SOL    HW219292   4.443   0.266   5.974  1.7334  0.4539 -0.3875
 6158SOL     OW19293   1.841   1.405   6.079  0.3162 -0.4942  0.0354
 6158SOL    HW119294   1.823   1.324   6.023 -1.6032  1.3098 -2.1118
 6158SOL    HW219295   1.754   1.441   6.114  1.2098  0.2310  1.5907
 6159SOL     OW19296   4.667   2.796   0.252 -0.3606 -0.4919  0.1724
 6159SOL    HW119297   4.713   2.740   0.183 -0.7358 -0.7242  0.1105
 6159SOL    HW219298   4.713   2.783   0.340  1.5887  1.5931 -0.4849
 6160SOL     OW19299   2.349   5.221   3.117 -0.0473 -0.0652 -0.2325
 6160SOL    HW119300   2.445   5.233   3.144 -0.3234 -0.9870  1.2548
 6160SOL    HW219301   2.305   5.310   3.109  0.4768  0.3078  0.8433
 6161SOL     OW19302   3.547   5.615   2.730 -0.0025  0.3819 -0.3716
 6161SOL    HW119303   3.571   5.547   2.661 -0.2030  0.5702 -0.6353
 6161SOL    HW219304   3.450   5.639   2.720 -0.2029 -0.0713  0.3994
 6162SOL     OW19305   1.779   6.430   5.710 -0.3445 -0.1780 -0.0171
 6162SOL    HW119306   1.700   6.484   5.742  0.0499 -0.4510  1.4756
 6162SOL    HW219307   1.842   6.490   5.661 -1.6580 -0.0356 -1.6659
 6163SOL     OW19308   1.582   1.359   1.285  0.1204 -0.1485 -0.1935
 6163SOL    HW119309   1.590   1.339   1.383 -0.4923  2.9921  0.5845
 6163SOL    HW219310   1.673   1.368   1.245  0.3986  0.2138  0.4887
 6164SOL     OW19311   2.187   4.406   2.191  0.2073 -0.2654  0.2948
 6164SOL    HW119312   2.168   4.435   2.285  0.1046  0.4072  0.0641
 6164SOL    HW219313   2.212   4.485   2.136 -1.0082 -0.4646 -0.5720
 6165SOL     OW19314   6.636   1.727   5.360 -0.2961  0.1025  0.1730
 6165SOL    HW119315   6.706   1.717   5.432  0.2875  0.2019 -0.3712
 6165SOL    HW219316   6.606   1.636   5.330 -0.6272  0.0606  0.6239
 6166SOL     OW19317   6.198   1.716   0.189 -0.2192 -0.0203 -0.3218
 6166SOL    HW119318   6.244   1.664   0.260  0.5870 -0.0836 -0.8821
 6166SOL    HW219319   6.174   1.807   0.224  0.4177  0.0471 -0.0587
 6167SOL     OW19320   5.062   6.304   6.938 -0.2391  0.0102 -0.1164
 6167SOL    HW119321   5.051   6.397   6.972 -0.5538 -0.1620  0.2671
 6167SOL    HW219322   4.996   6.244   6.984  1.6023 -0.8970  1.5426
 6168SOL     OW19323   6.472   1.485   4.678  0.4235  0.5027 -0.3220
 6168SOL    HW119324   6.463   1.395   4.634  0.5298  0.7123 -0.7748
 6168SOL    HW219325   6.568   1.499   4.705  0.2649  0.1444  0.4870
 6169SOL     OW19326   5.959   3.521   2.394  0.0046 -0.1583 -0.3509
 6169SOL    HW119327   5.964   3.510   2.493  0.2823 -1.3635 -0.4899
 6169SOL    HW219328   5.949   3.619   2.372  3.8051  0.6006  0.7290
 6170SOL     OW19329   5.845   4.898   0.745  0.2710 -0.6088  0.1026
 6170SOL    HW119330   5.831   4.814   0.692 -3.1367 -0.2297  0.2074
 6170SOL    HW219331   5.843   4.977   0.683  1.3346 -0.4300  0.2657
 6171SOL     OW19332   5.506   3.120   5.261 -0.4008  0.1268 -0.0299
 6171SOL    HW119333   5.560   3.047   5.219  0.0160  0.5201 -0.1711
 6171SOL    HW219334   5.563   3.200   5.276 -0.8037  0.3472  0.3424
 6172SOL     OW19335   4.385   4.882   4.893 -0.3911 -0.0436 -0.2590
 6172SOL    HW119336   4.331   4.798   4.907  0.4296 -0.4937  0.2809
 6172SOL    HW219337   4.456   4.865   4.824  0.2942 -0.0398  0.4402
 6173SOL     OW19338   5.234   6.536   3.137 -0.3979  0.2995 -0.3558
 6173SOL    HW119339   5.252   6.442   3.108 -1.0657  0.1600 -0.3185
 6173SOL    HW219340   5.272   6.551   3.228  1.0033  0.5017 -0.9483
 6174SOL     OW19341   1.536   4.256   0.842  0.1780 -0.6002 -0.2927
 6174SOL    HW119342   1.587   4.214   0.917 -1.1983 -0.3910  0.8307
 6174SOL    HW219343   1.595   4.267   0.763  1.3465 -1.9842  0.3364
 6175SOL     OW19344   0.830   1.151   3.093 -0.2219  0.3135 -0.5515
 6175SOL    HW119345   0.853   1.186   3.184 -1.5806  0.5244 -0.2636
 6175SOL    HW219346   0.764   1.213   3.050 -0.3370 -0.3115 -1.2809
 6176SOL     OW19347   5.879   5.522   3.409  0.0504  0.2359 -0.9004
 6176SOL    HW119348   5.803   5.514   3.344 -0.0937 -0.5116 -0.6621
 6176SOL    HW219349   5.857   5.592   3.477  0.0728  0.8211 -1.4874
 6177SOL     OW19350   4.979   5.876   2.204 -0.0577  0.1317  0.2332
 6177SOL    HW119351   4.944   5.927   2.126  0.4237  1.6692  0.9833
 6177SOL    HW219352   4.978   5.778   2.184 -0.9356  0.4305 -1.2752
 6178SOL     OW19353   6.327   2.550   2.157  0.3639 -0.0422 -0.6895
 6178SOL    HW119354   6.412   2.516   2.197  1.1434  1.0749 -1.3466
 6178SOL    HW219355   6.273   2.597   2.227  0.6076 -0.1448 -0.4335
 6179SOL     OW19356   6.962   6.374   3.941  0.1700 -0.4878  0.1684
 6179SOL    HW119357   6.991   6.321   3.861  0.0775 -0.4462  0.1076
 6179SOL    HW219358   6.897   6.320   3.995 -0.0412 -0.3752  0.0266
 6180SOL     OW19359   6.273   1.838   3.345  0.1651 -0.1771 -0.0295
 6180SOL    HW119360   6.306   1.798   3.259  1.6670 -0.5035  0.6590
 6180SOL    HW219361   6.263   1.937   3.334 -1.1666 -0.3998 -1.0199
 6181SOL     OW19362   3.433   6.889   1.503  0.0113  0.1272 -0.7957
 6181SOL    HW119363   3.337   6.916   1.497 -0.0484 -0.3121 -2.1246
 6181SOL    HW219364   3.438   6.796   1.539  0.1232  1.1773  2.0882
 6182SOL     OW19365   6.445   3.601   2.980 -0.1042 -0.2477  0.5909
 6182SOL    HW119366   6.489   3.630   2.895  1.5803 -1.1239  1.1274
 6182SOL    HW219367   6.369   3.539   2.959 -0.1148  0.0498 -0.2895
 6183SOL     OW19368   0.097   3.187   3.906 -0.7497  0.5054  0.1913
 6183SOL    HW119369   0.140   3.123   3.969 -0.2674 -0.0465 -0.6805
 6183SOL    HW219370   0.148   3.189   3.820 -1.6213  0.9351 -0.3333
 6184SOL     OW19371   4.890   3.118   0.102  0.1844 -0.1903  0.6844
 6184SOL    HW119372   4.937   3.150   0.183  0.2783  0.0305  0.5425
 6184SOL    HW219373   4.794   3.100   0.124  0.1146  0.2475  0.7480
 6185SOL     OW19374   0.271   2.738   2.338 -0.3253  0.2989  0.5079
 6185SOL    HW119375   0.182   2.694   2.351 -0.5846  0.6218 -0.1137
 6185SOL    HW219376   0.342   2.668   2.336 -0.8477 -0.2266 -1.6021
 6186SOL     OW19377   6.259   0.550   6.178 -1.2671  0.2468  0.2028
 6186SOL    HW119378   6.250   0.451   6.184 -2.0677  0.2096 -1.0906
 6186SOL    HW219379   6.247   0.590   6.269 -1.6371 -0.7876  0.6332
 6187SOL     OW19380   5.826   6.081   0.125  0.4658  0.1602 -0.4380
 6187SOL    HW119381   5.866   6.042   0.042  0.5944  1.1182 -0.8427
 6187SOL    HW219382   5.778   6.166   0.102  0.8307  0.6447  0.5245
 6188SOL     OW19383   0.707   2.628   5.353 -0.4921 -0.5156 -0.6665
 6188SOL    HW119384   0.619   2.664   5.321 -0.8297 -0.1480  0.6299
 6188SOL    HW219385   0.763   2.703   5.389 -0.1692 -0.9317 -0.2934
 6189SOL     OW19386   6.877   5.521   2.363  0.2818 -0.5062 -0.0540
 6189SOL    HW119387   6.823   5.572   2.429 -0.7869  1.0464 -2.0357
 6189SOL    HW219388   6.968   5.502   2.401 -0.3006  0.2971  1.8265
 6190SOL     OW19389   0.090   4.867   2.577  0.2003  0.8012 -0.0433
 6190SOL    HW119390   0.148   4.873   2.495  0.1207  0.9021 -0.0939
 6190SOL    HW219391   0.045   4.778   2.579  0.6820  0.5586  0.2178
 6191SOL     OW19392   0.190   0.645   5.583  0.3168  0.0485  0.4935
 6191SOL    HW119393   0.198   0.547   5.565  1.3860  0.1571  0.3412
 6191SOL    HW219394   0.118   0.683   5.524 -0.6720 -0.7758  1.1311
 6192SOL     OW19395   4.140   4.811   0.033  0.2403  0.5189  0.5490
 6192SOL    HW119396   4.049   4.838   0.003  0.0273 -1.2215 -0.4313
 6192SOL    HW219397   4.144   4.814   0.133 -1.0642  0.0366  0.6287
 6193SOL     OW19398   1.508   0.905   1.673  0.2613 -0.7184  0.2711
 6193SOL    HW119399   1.474   0.926   1.581  0.1886 -0.2891  0.3878
 6193SOL    HW219400   1.603   0.875   1.667 -0.2759 -2.4385 -0.1162
 6194SOL     OW19401   0.947   5.536   2.491 -0.1267  0.2337 -0.1380
 6194SOL    HW119402   0.910   5.475   2.421  0.1370 -1.0419  0.7903
 6194SOL    HW219403   0.933   5.496   2.581  3.3084 -0.3116  0.3106
 6195SOL     OW19404   6.127   2.797   1.873 -0.5720 -0.3078 -0.1011
 6195SOL    HW119405   6.069   2.803   1.792  1.3439  1.1742 -1.4524
 6195SOL    HW219406   6.177   2.710   1.871  1.0412  0.5927 -1.7140
 6196SOL     OW19407   1.266   6.601   4.637  0.2154 -0.4192 -0.1468
 6196SOL    HW119408   1.334   6.597   4.710 -0.2174 -1.5547  0.2075
 6196SOL    HW219409   1.267   6.515   4.586  0.2298  0.2064 -1.2312
 6197SOL     OW19410   6.761   6.245   1.014 -0.9905  0.1393 -0.0252
 6197SOL    HW119411   6.680   6.209   1.062 -1.4509 -0.3946 -1.1652
 6197SOL    HW219412   6.805   6.314   1.071 -0.2177 -2.0310  2.1485
 6198SOL     OW19413   4.653   5.306   4.852  0.3905  0.1709  0.1530
 6198SOL    HW119414   4.660   5.341   4.945  0.4126  0.5166  0.0233
 6198SOL    HW219415   4.577   5.350   4.805  0.4166  0.0431 -0.0101
 6199SOL     OW19416   2.834   6.477   2.497  0.2932 -0.1629 -0.2553
 6199SOL    HW119417   2.835   6.378   2.485  0.2143 -0.1352 -0.4945
 6199SOL    HW219418   2.912   6.504   2.553  0.4569 -0.3297 -0.4025
 6200SOL     OW19419   6.152   3.086   0.550 -0.4319  0.3982 -0.1027
 6200SOL    HW119420   6.095   3.129   0.481  0.4081 -0.2963 -1.2880
 6200SOL    HW219421   6.111   3.000   0.579  0.3786 -0.4921 -1.5405
 6201SOL     OW19422   4.446   1.247   1.083  0.1144  0.4305  0.3659
 6201SOL    HW119423   4.470   1.172   1.021 -0.4920  1.3583 -1.0451
 6201SOL    HW219424   4.494   1.236   1.169  3.4125  0.7089 -1.2726
 6202SOL     OW19425   0.116   3.776   4.198  0.1446 -0.1303  0.5553
 6202SOL    HW119426   0.148   3.721   4.276  0.5072  0.0590  0.5421
 6202SOL    HW219427   0.037   3.731   4.156 -0.2730 -0.0658  1.2431
 6203SOL     OW19428   3.609   1.064   5.298 -0.3667  0.7423 -0.3843
 6203SOL    HW119429   3.702   1.092   5.274 -0.2594 -1.3145 -2.8017
 6203SOL    HW219430   3.613   0.985   5.358 -0.4490 -0.7381 -2.2551
 6204SOL     OW19431   6.722   3.499   6.129 -0.2437  0.5343 -0.3105
 6204SOL    HW119432   6.722   3.474   6.032  1.2311  0.0507 -0.2085
 6204SOL    HW219433   6.792   3.446   6.177 -1.2576  0.4331  1.1144
 6205SOL     OW19434   6.447   2.386   0.579 -0.6293  0.0640 -0.0288
 6205SOL    HW119435   6.455   2.286   0.581 -0.0167  0.1126 -0.0470
 6205SOL    HW219436   6.480   2.424   0.665 -1.4495  0.2119  0.2230
 6206SOL     OW19437   1.951   0.748   1.067  0.2980 -0.5069  0.1411
 6206SOL    HW119438   1.901   0.729   0.983  0.1151 -0.3249  0.2072
 6206SOL    HW219439   1.923   0.684   1.138  0.0635 -0.3248  0.2158
 6207SOL     OW19440   6.794   5.080   5.194 -0.1070 -0.4347 -0.0396
 6207SOL    HW119441   6.760   5.174   5.190 -0.6181 -0.6216 -0.1486
 6207SOL    HW219442   6.834   5.055   5.106 -0.0258 -0.3393 -0.0321
 6208SOL     OW19443   0.493   5.839   1.758  0.3828 -0.0371 -0.2658
 6208SOL    HW119444   0.530   5.900   1.689 -1.1051  0.5128 -0.6179
 6208SOL    HW219445   0.431   5.774   1.715 -0.8014  0.5078  0.5523
 6209SOL     OW19446   0.372   3.190   1.609  0.1600  0.8214  0.2679
 6209SOL    HW119447   0.329   3.236   1.687  0.2247  1.3803 -0.0120
 6209SOL    HW219448   0.342   3.235   1.524  0.5532  0.6019  0.0125
 6210SOL     OW19449   6.985   1.456   5.046 -0.4471 -0.3898 -0.2441
 6210SOL    HW119450   6.892   1.489   5.063 -0.3903 -0.2136 -0.2658
 6210SOL    HW219451   7.047   1.496   5.115  0.0185  1.4912 -1.6832
 6211SOL     OW19452   3.177   0.944   2.868 -0.2110 -0.0803  0.0559
 6211SOL    HW119453   3.183   0.889   2.784 -0.0689 -2.5367  1.5995
 6211SOL    HW219454   3.146   1.037   2.844 -0.9307 -0.9097 -2.6118
 6212SOL     OW19455   6.330   2.745   3.406  0.2766 -0.8018 -0.1421
 6212SOL    HW119456   6.270   2.683   3.458  0.8864 -0.9548  0.3914
 6212SOL    HW219457   6.275   2.799   3.343 -0.2749 -1.9346 -0.6591
 6213SOL     OW19458   3.607   0.705   0.651 -0.2653  0.0146  0.2913
 6213SOL    HW119459   3.643   0.731   0.741  1.6250 -0.1021 -0.3630
 6213SOL    HW219460   3.554   0.780   0.613  1.1254  1.1028  0.4252
 6214SOL     OW19461   2.045   6.617   6.631 -0.5159 -0.5882  0.2150
 6214SOL    HW119462   1.954   6.611   6.589 -0.8438  2.8046  0.1728
 6214SOL    HW219463   2.109   6.660   6.567  0.8413 -1.7597  0.7223
 6215SOL     OW19464   6.346   4.898   1.689  0.5703 -0.7686  0.9051
 6215SOL    HW119465   6.424   4.848   1.727  0.5562 -2.0207 -0.5864
 6215SOL    HW219466   6.263   4.844   1.702  0.2160 -0.2070  1.0169
 6216SOL     OW19467   4.213   0.494   5.820  0.1988 -0.2373 -0.3324
 6216SOL    HW119468   4.257   0.536   5.899  0.3170 -0.0298 -0.5064
 6216SOL    HW219469   4.251   0.403   5.804  0.4413 -0.1291 -0.3786
 6217SOL     OW19470   6.626   1.333   1.708  0.0124  0.5434  0.1746
 6217SOL    HW119471   6.713   1.294   1.679  0.0442  0.4183  0.4306
 6217SOL    HW219472   6.567   1.261   1.744  0.3049  0.8132  1.2223
 6218SOL     OW19473   1.133   2.049   0.404 -0.0089 -0.6812  0.7542
 6218SOL    HW119474   1.097   2.138   0.379  0.3314 -0.9852 -0.8650
 6218SOL    HW219475   1.059   1.992   0.440 -0.2765  0.1526  1.5521
 6219SOL     OW19476   6.383   4.238   0.032 -0.8195  0.1772  0.6890
 6219SOL    HW119477   6.471   4.256   0.076  0.1021 -1.0159 -0.5858
 6219SOL    HW219478   6.330   4.323   0.028  1.6369  1.7486 -1.4278
 6220SOL     OW19479   1.856   1.478   1.883  0.0750 -0.1333  0.6023
 6220SOL    HW119480   1.914   1.407   1.844  0.2957 -0.6417  1.8282
 6220SOL    HW219481   1.843   1.461   1.981 -1.5356  0.3815  0.5028
 6221SOL     OW19482   5.433   2.946   0.190 -0.5899 -0.5207 -0.2978
 6221SOL    HW119483   5.490   3.027   0.207  0.0986 -0.8292 -1.0851
 6221SOL    HW219484   5.476   2.867   0.233 -0.2171 -0.8275 -1.2285
 6222SOL     OW19485   0.912   4.344   6.141  0.2152 -0.1957  0.2456
 6222SOL    HW119486   0.990   4.284   6.123  1.7033  2.2074 -2.0440
 6222SOL    HW219487   0.829   4.301   6.106  0.8268 -1.8146  0.6596
 6223SOL     OW19488   2.395   5.498   0.886 -0.2416  0.2234  0.1254
 6223SOL    HW119489   2.436   5.409   0.904 -0.7584 -0.0002  0.2345
 6223SOL    HW219490   2.349   5.497   0.797 -1.1923  0.0098  0.5911
 6224SOL     OW19491   0.336   3.784   4.022 -0.1071 -0.0575 -0.7236
 6224SOL    HW119492   0.271   3.771   4.097  1.8450 -3.7465  0.5516
 6224SOL    HW219493   0.285   3.794   3.936 -2.3525  0.6771  0.5862
 6225SOL     OW19494   0.249   6.074   4.100 -0.1046  0.4214 -0.4504
 6225SOL    HW119495   0.156   6.107   4.121 -0.9510 -2.1112  0.1770
 6225SOL    HW219496   0.246   6.019   4.017  0.5719 -0.6360  0.2007
 6226SOL     OW19497   5.987   4.928   5.310 -0.3791  0.1723  0.0986
 6226SOL    HW119498   6.021   4.882   5.229 -1.9199  0.1367 -0.5524
 6226SOL    HW219499   5.894   4.897   5.330  0.2338 -0.4216  2.3486
 6227SOL     OW19500   7.016   1.016   1.404  0.4008  0.0898 -0.3269
 6227SOL    HW119501   6.937   0.954   1.401  0.6121 -0.1698 -1.7190
 6227SOL    HW219502   7.100   0.964   1.387  0.4535  0.8336 -2.5720
 6228SOL     OW19503   4.893   2.783   3.770 -0.2361 -0.0810 -0.3854
 6228SOL    HW119504   4.805   2.825   3.747 -0.3122 -0.2466 -0.4047
 6228SOL    HW219505   4.882   2.727   3.852 -0.3427 -0.7580 -0.8585
 6229SOL     OW19506   4.628   0.270   5.216 -1.0224 -0.4930 -0.1447
 6229SOL    HW119507   4.691   0.242   5.288 -1.5537 -0.8744  0.1822
 6229SOL    HW219508   4.574   0.348   5.247  0.1816  0.7115 -0.9034
 6230SOL     OW19509   4.046   3.646   2.213 -0.0861 -0.4608 -0.2179
 6230SOL    HW119510   4.096   3.682   2.134 -0.0947  0.3750  0.1469
 6230SOL    HW219511   4.066   3.548   2.224 -0.5037 -0.7245 -1.5677
 6231SOL     OW19512   1.629   0.377   1.147 -0.3699 -0.0847 -0.0884
 6231SOL    HW119513   1.575   0.337   1.222 -2.3343 -0.5082 -1.6539
 6231SOL    HW219514   1.568   0.414   1.078  1.3934 -0.0336 -1.6922
 6232SOL     OW19515   1.163   5.685   1.591 -0.1941  0.0166 -0.2606
 6232SOL    HW119516   1.122   5.600   1.625 -1.4570  1.2202  1.4237
 6232SOL    HW219517   1.248   5.665   1.544  0.1088 -2.0898  1.0692
 6233SOL     OW19518   4.631   4.297   2.730 -0.3912  0.0343 -0.5110
 6233SOL    HW119519   4.660   4.227   2.665  0.2671  0.7397 -0.9908
 6233SOL    HW219520   4.534   4.287   2.749 -0.0672 -1.7272  0.3224
 6234SOL     OW19521   2.963   2.901   5.990 -0.1028 -0.4497 -0.3482
 6234SOL    HW119522   2.953   2.851   6.076 -2.1077  0.6952  0.1576
 6234SOL    HW219523   2.970   2.999   6.009 -0.9193 -0.1557 -1.4967
 6235SOL     OW19524   0.537   0.750   1.832  0.5155 -0.0028 -0.0913
 6235SOL    HW119525   0.537   0.650   1.830  0.3566 -0.0151  0.3591
 6235SOL    HW219526   0.452   0.784   1.793 -0.2253 -0.0959  1.3660
 6236SOL     OW19527   6.687   5.816   4.263 -0.1179  0.1412 -0.1438
 6236SOL    HW119528   6.611   5.767   4.306 -0.5999  0.6774 -0.3608
 6236SOL    HW219529   6.673   5.817   4.164  0.5632 -0.3923 -0.2508
 6237SOL     OW19530   3.763   1.330   1.110  0.5513 -0.1623 -0.1717
 6237SOL    HW119531   3.720   1.404   1.162 -1.1176  0.2489 -2.0193
 6237SOL    HW219532   3.737   1.242   1.150  0.2220  0.1661  0.3554
 6238SOL     OW19533   5.309   1.862   5.649 -0.4293  0.3265 -0.5985
 6238SOL    HW119534   5.334   1.882   5.744 -0.4819  0.2772 -0.5732
 6238SOL    HW219535   5.213   1.887   5.635 -0.3050  0.7182 -0.7504
 6239SOL     OW19536   2.919   5.898   0.327 -0.2680 -0.4856  0.2465
 6239SOL    HW119537   2.941   5.980   0.275 -2.4249  0.0005  0.0230
 6239SOL    HW219538   2.850   5.920   0.396 -0.3573 -1.9686  0.6624
 6240SOL     OW19539   3.626   6.264   4.390  0.0174 -0.1417  0.4807
 6240SOL    HW119540   3.620   6.333   4.318  0.8647  1.0216  1.4853
 6240SOL    HW219541   3.721   6.240   4.406 -0.2774 -1.6656  0.0579
 6241SOL     OW19542   6.616   2.694   1.977 -0.9908 -0.5604 -0.1939
 6241SOL    HW119543   6.686   2.722   1.911  0.1256 -2.2961  0.1870
 6241SOL    HW219544   6.547   2.766   1.985  0.7431  1.2281 -0.5714
 6242SOL     OW19545   4.495   6.795   4.060 -0.3376  0.2086 -0.5739
 6242SOL    HW119546   4.469   6.879   4.107 -0.4174  1.1601 -2.2410
 6242SOL    HW219547   4.412   6.743   4.038 -0.2227 -0.9573  1.5233
 6243SOL     OW19548   1.230   0.808   4.503  0.3641 -0.1429  0.4587
 6243SOL    HW119549   1.214   0.906   4.516 -1.6919 -0.0036 -2.2428
 6243SOL    HW219550   1.153   0.757   4.542  0.8374 -0.6210  0.7845
 6244SOL     OW19551   4.708   1.557   2.024  0.3760 -0.0826 -0.3127
 6244SOL    HW119552   4.629   1.608   1.990  1.1064  0.6645 -0.9169
 6244SOL    HW219553   4.730   1.483   1.960 -0.3299 -0.8297  0.2761
 6245SOL     OW19554   7.000   6.782   0.144 -0.0864  0.5916 -0.6740
 6245SOL    HW119555   6.979   6.705   0.084 -1.7262  1.1302 -0.8421
 6245SOL    HW219556   6.934   6.785   0.219  1.0918  0.7594  0.3991
 6246SOL     OW19557   6.273   5.466   0.769 -0.7273 -0.0408  0.2329
 6246SOL    HW119558   6.293   5.422   0.857 -2.3965 -2.0395 -0.2908
 6246SOL    HW219559   6.337   5.431   0.700 -0.4682  0.2687  0.3122
 6247SOL     OW19560   1.924   0.225   3.335  0.2011 -0.2694 -0.3609
 6247SOL    HW119561   1.873   0.222   3.249 -0.4512  4.3832 -0.4096
 6247SOL    HW219562   2.020   0.246   3.317  0.5042 -1.2671  0.0173
 6248SOL     OW19563   0.774   6.535   5.731 -0.2597 -0.1322  0.4278
 6248SOL    HW119564   0.717   6.562   5.653 -1.3933  0.9420  1.5687
 6248SOL    HW219565   0.753   6.440   5.756  0.9818 -0.9038 -1.2687
 6249SOL     OW19566   1.154   1.276   5.971  0.0779 -0.0876  0.1038
 6249SOL    HW119567   1.177   1.318   6.058 -1.5014 -0.3163  0.6715
 6249SOL    HW219568   1.222   1.301   5.902  1.5194 -0.1506  1.4529
 6250SOL     OW19569   0.521   2.727   1.363 -0.3211 -1.1158  0.4359
 6250SOL    HW119570   0.515   2.789   1.441 -3.0530 -1.1563  0.3477
 6250SOL    HW219571   0.511   2.632   1.395 -0.4017 -1.2092  0.1425
 6251SOL     OW19572   2.948   0.144   4.406  0.2747  0.1949  0.1033
 6251SOL    HW119573   2.870   0.194   4.442 -0.1232 -0.5686  0.3185
 6251SOL    HW219574   2.999   0.202   4.343 -1.9592 -0.0634 -2.1406
 6252SOL     OW19575   5.242   5.697   4.075  0.3974  0.0922  0.3994
 6252SOL    HW119576   5.223   5.601   4.058  1.1052 -0.3403  1.8939
 6252SOL    HW219577   5.295   5.734   3.998 -0.5398 -0.4763 -0.5551
 6253SOL     OW19578   0.708   3.984   2.226 -0.1902 -0.4577  0.1171
 6253SOL    HW119579   0.648   3.907   2.251 -0.2797 -0.3128  0.3434
 6253SOL    HW219580   0.791   3.981   2.282  0.0682 -0.7233 -0.2738
 6254SOL     OW19581   4.048   6.816   7.001 -0.5144  0.2612  0.0996
 6254SOL    HW119582   4.096   6.904   6.997 -0.8924  0.4304 -2.0219
 6254SOL    HW219583   3.964   6.822   6.946 -0.3509 -1.5244 -0.4075
 6255SOL     OW19584   2.068   4.544   4.304 -0.2646  0.3404 -0.3855
 6255SOL    HW119585   2.138   4.604   4.267 -0.7509 -0.5219 -2.9767
 6255SOL    HW219586   2.088   4.449   4.278 -0.4653 -0.4317  2.0342
 6256SOL     OW19587   6.216   4.719   6.652 -0.3640  0.5850  0.6700
 6256SOL    HW119588   6.150   4.773   6.600 -0.6136  0.4157  0.8059
 6256SOL    HW219589   6.307   4.758   6.641 -0.7400  1.8811  1.8625
 6257SOL     OW19590   1.158   6.952   4.810  0.1992 -0.1846 -0.3490
 6257SOL    HW119591   1.104   6.871   4.785 -0.8088  0.6505 -0.9635
 6257SOL    HW219592   1.151   6.967   4.909  0.1461 -0.6609 -0.2763
 6258SOL     OW19593   1.884   2.966   2.514 -0.2122 -0.0021 -0.0010
 6258SOL    HW119594   1.862   2.868   2.517 -0.6063  0.0892  0.2355
 6258SOL    HW219595   1.819   3.016   2.572  0.9691  0.2151  1.1806
 6259SOL     OW19596   5.963   3.097   2.610  0.1279 -0.2125 -0.2008
 6259SOL    HW119597   5.882   3.150   2.635 -0.4271  0.0004 -2.2211
 6259SOL    HW219598   5.962   3.080   2.511  0.9685 -2.8610  0.1587
 6260SOL     OW19599   3.560   6.165   3.654  0.1204  0.4877  0.2927
 6260SOL    HW119600   3.547   6.264   3.663 -1.7948  0.3844 -0.7961
 6260SOL    HW219601   3.611   6.131   3.733 -0.7393  2.0894  1.6188
 6261SOL     OW19602   2.675   4.060   1.435 -0.0805 -0.0875  0.0548
 6261SOL    HW119603   2.750   4.068   1.501 -0.0677 -0.3739  0.0795
 6261SOL    HW219604   2.614   4.139   1.443 -1.1228 -0.9883  1.7148
 6262SOL     OW19605   1.533   4.619   1.456  0.7127 -0.8168 -0.4604
 6262SOL    HW119606   1.442   4.645   1.423 -0.7401 -0.4482  3.3015
 6262SOL    HW219607   1.584   4.700   1.483  1.2785 -1.1430 -0.5285
 6263SOL     OW19608   3.919   5.773   2.748  0.5835 -0.0215  0.1776
 6263SOL    HW119609   3.995   5.714   2.775 -0.5810 -1.9497 -0.4333
 6263SOL    HW219610   3.869   5.803   2.829  0.8673 -0.3055  0.4671
 6264SOL     OW19611   5.785   1.792   3.461 -1.0965 -0.1186  0.0767
 6264SOL    HW119612   5.783   1.864   3.392  1.4344  0.8760  0.9346
 6264SOL    HW219613   5.774   1.832   3.552  3.1926 -0.2219  0.8491
 6265SOL     OW19614   3.691   5.737   0.311  0.4839  0.2076  1.0610
 6265SOL    HW119615   3.594   5.712   0.311  1.2292 -3.1087  1.3475
 6265SOL    HW219616   3.708   5.803   0.385 -1.4201  0.4406  1.3562
 6266SOL     OW19617   2.747   6.436   0.976 -0.4407 -0.2221  0.3458
 6266SOL    HW119618   2.719   6.372   1.047  0.7772 -0.3756  0.7184
 6266SOL    HW219619   2.797   6.512   1.017 -0.1112 -0.0808 -0.2951
 6267SOL     OW19620   0.863   0.649   4.127 -0.0733 -0.4678  0.2088
 6267SOL    HW119621   0.869   0.587   4.205  0.2593  1.7711  2.0629
 6267SOL    HW219622   0.833   0.598   4.046 -3.7162 -2.3421  2.4837
 6268SOL     OW19623   1.467   2.200   3.155 -0.6316  0.5718 -0.4296
 6268SOL    HW119624   1.381   2.250   3.171 -1.0449  0.7886 -2.9677
 6268SOL    HW219625   1.536   2.264   3.121 -0.1655 -0.0015 -0.5613
 6269SOL     OW19626   4.557   3.485   0.649  0.2024 -0.6810 -0.1187
 6269SOL    HW119627   4.512   3.403   0.613  0.5537 -1.2043  0.6218
 6269SOL    HW219628   4.643   3.460   0.692  0.2283  0.0566  0.2756
 6270SOL     OW19629   4.640   1.171   4.488  0.2081  0.0089 -0.0973
 6270SOL    HW119630   4.630   1.233   4.566 -1.9445  1.3592 -1.3684
 6270SOL    HW219631   4.563   1.107   4.486  1.7677 -2.0480  0.5001
 6271SOL     OW19632   2.824   5.011   5.732  0.4665  0.1877 -0.7525
 6271SOL    HW119633   2.758   4.982   5.802 -0.4812  1.0691 -1.2563
 6271SOL    HW219634   2.815   4.953   5.651  0.2200  0.3855 -0.8674
 6272SOL     OW19635   4.705   1.905   2.711 -0.6992  0.3027 -0.0858
 6272SOL    HW119636   4.650   1.840   2.657  1.0389 -0.4699 -1.0049
 6272SOL    HW219637   4.716   1.869   2.804 -0.7019 -0.1650 -0.2597
 6273SOL     OW19638   1.830   2.066   1.543  0.5226  0.1263 -0.1181
 6273SOL    HW119639   1.891   1.989   1.561  0.6275 -0.1355 -1.4737
 6273SOL    HW219640   1.780   2.090   1.626  0.3960 -1.4901  0.2956
 6274SOL     OW19641   2.349   2.794   1.528  0.1227  0.0092 -0.3882
 6274SOL    HW119642   2.437   2.840   1.513  0.4560 -0.3037  0.5141
 6274SOL    HW219643   2.363   2.695   1.529  0.0393 -0.0210  1.2465
 6275SOL     OW19644   5.728   3.891   3.849 -0.2836  0.0302  0.2791
 6275SOL    HW119645   5.666   3.813   3.861 -0.6955  0.4018  0.5645
 6275SOL    HW219646   5.714   3.930   3.757  0.5947 -0.8204 -0.2264
 6276SOL     OW19647   6.671   5.829   1.503  0.1733  0.1108  0.0532
 6276SOL    HW119648   6.768   5.852   1.494  0.3182 -0.5864 -0.2641
 6276SOL    HW219649   6.618   5.877   1.433  0.3589  0.0862 -0.1032
 6277SOL     OW19650   2.708   6.724   5.106 -0.4921 -0.3915 -0.3404
 6277SOL    HW119651   2.640   6.756   5.172 -0.5627  1.3340 -1.1837
 6277SOL    HW219652   2.769   6.659   5.149 -0.5171  0.7016  1.4254
 6278SOL     OW19653   4.571   4.311   6.965 -0.2868 -0.0929  0.4437
 6278SOL    HW119654   4.589   4.390   7.023  1.8920  0.2893 -0.6755
 6278SOL    HW219655   4.500   4.333   6.898 -0.7386  0.4353  1.0834
 6279SOL     OW19656   5.519   6.876   4.205 -0.0734 -0.3641 -0.9318
 6279SOL    HW119657   5.562   6.930   4.277 -0.2224 -0.2382 -0.9347
 6279SOL    HW219658   5.498   6.784   4.239 -0.0328 -0.3437 -0.8531
 6280SOL     OW19659   0.844   4.856   5.618  0.1430  0.5891  0.3693
 6280SOL    HW119660   0.896   4.931   5.660 -1.3069  1.2623  1.0155
 6280SOL    HW219661   0.783   4.816   5.686 -1.7903  1.2596 -0.9044
 6281SOL     OW19662   4.234   5.322   1.664  0.3933  0.2807 -0.1224
 6281SOL    HW119663   4.318   5.270   1.673  1.4152  1.9046  0.1813
 6281SOL    HW219664   4.228   5.390   1.738  0.9436  2.9777 -2.3529
 6282SOL     OW19665   4.491   2.821   3.069 -0.3015 -0.1929 -0.2477
 6282SOL    HW119666   4.573   2.807   3.124 -0.8670  0.1195  0.7120
 6282SOL    HW219667   4.410   2.804   3.125 -0.8953 -0.7902 -1.2617
 6283SOL     OW19668   3.929   6.689   6.355  0.1294  0.0325 -0.2010
 6283SOL    HW119669   3.992   6.650   6.421  1.0203  1.8156  0.0666
 6283SOL    HW219670   3.973   6.693   6.265  0.0931  0.5134 -0.1990
 6284SOL     OW19671   0.225   3.226   0.804  0.0268  0.4033  0.1713
 6284SOL    HW119672   0.318   3.212   0.768 -0.0750 -1.0006  0.4251
 6284SOL    HW219673   0.159   3.222   0.729  0.1615  1.5589 -0.0356
 6285SOL     OW19674   1.740   5.604   2.632  1.2961  0.6119  0.5555
 6285SOL    HW119675   1.674   5.581   2.704  2.0509  1.2960  1.5007
 6285SOL    HW219676   1.710   5.686   2.584 -0.1365 -0.8283 -1.1721
 6286SOL     OW19677   4.486   2.768   1.210 -0.0234  0.5079 -0.7925
 6286SOL    HW119678   4.579   2.734   1.220 -0.2982 -0.0597 -0.0395
 6286SOL    HW219679   4.426   2.694   1.180 -0.6243  0.2774  0.8470
 6287SOL     OW19680   0.664   0.927   6.423  0.3308 -0.2360  0.0519
 6287SOL    HW119681   0.750   0.975   6.404  0.5432 -0.8192 -0.4966
 6287SOL    HW219682   0.665   0.893   6.518  1.2252 -1.2657 -0.3060
 6288SOL     OW19683   2.611   6.667   5.993  0.0803 -0.1218  0.6557
 6288SOL    HW119684   2.538   6.729   5.961  0.0408  0.8155  2.4404
 6288SOL    HW219685   2.591   6.574   5.963 -0.5830  0.4908 -0.9268
 6289SOL     OW19686   3.113   0.712   3.438  0.4367 -0.6101 -0.4409
 6289SOL    HW119687   3.164   0.642   3.387  1.1772  1.2776 -2.4435
 6289SOL    HW219688   3.127   0.801   3.396 -1.3232  0.6410  1.4053
 6290SOL     OW19689   2.171   1.372   2.308  0.7163  0.4972 -0.7609
 6290SOL    HW119690   2.216   1.294   2.352 -1.8087 -0.5834  0.0925
 6290SOL    HW219691   2.125   1.428   2.378 -2.4255 -0.6152 -1.7322
 6291SOL     OW19692   0.176   2.177   1.076  0.0014  0.2724  0.1922
 6291SOL    HW119693   0.149   2.266   1.040  0.0430  0.5761  0.9103
 6291SOL    HW219694   0.139   2.166   1.168  1.8149  0.4403  0.9769
 6292SOL     OW19695   4.505   6.675   0.437 -0.6406 -0.0505 -0.3470
 6292SOL    HW119696   4.542   6.768   0.430  0.3710 -0.2383  1.7331
 6292SOL    HW219697   4.512   6.643   0.532  1.6589 -3.3052 -1.4258
 6293SOL     OW19698   4.424   5.869   1.348 -0.1883  0.2243  0.3365
 6293SOL    HW119699   4.461   5.790   1.396  1.5102  1.4725  1.2252
 6293SOL    HW219700   4.351   5.910   1.402 -0.8747 -0.5202  0.0105
 6294SOL     OW19701   2.599   0.554   1.601 -0.1684  0.1382 -0.2656
 6294SOL    HW119702   2.645   0.635   1.637 -1.5475  0.4612  0.8457
 6294SOL    HW219703   2.612   0.477   1.663  1.8384 -0.7963 -1.7155
 6295SOL     OW19704   0.243   1.068   6.065  0.3304 -0.5260  0.3448
 6295SOL    HW119705   0.187   1.119   6.131  1.2643  0.7759  0.1773
 6295SOL    HW219706   0.206   1.081   5.973  1.6708  1.5669  0.0314
 6296SOL     OW19707   3.968   0.813   2.614  0.2556  0.0169  0.0288
 6296SOL    HW119708   4.061   0.786   2.640  0.3755  0.4032 -0.0049
 6296SOL    HW219709   3.912   0.824   2.697  0.1533 -0.5221  0.0358
 6297SOL     OW19710   6.222   4.766   2.707 -0.3508 -0.5847  0.2717
 6297SOL    HW119711   6.180   4.832   2.770  0.3712  1.0248 -0.8620
 6297SOL    HW219712   6.172   4.765   2.621  1.8772  1.5311 -1.1845
 6298SOL     OW19713   4.244   5.482   1.888  0.4154  0.0999  0.0369
 6298SOL    HW119714   4.159   5.495   1.939  0.9207  0.5287  0.8032
 6298SOL    HW219715   4.310   5.434   1.946  1.3581  1.5204  0.1789
 6299SOL     OW19716   3.510   1.600   0.722  0.3777  0.1185 -0.0456
 6299SOL    HW119717   3.490   1.692   0.687 -2.4465  0.3753  1.9364
 6299SOL    HW219718   3.553   1.608   0.812  0.9611 -0.5310 -0.2581
 6300SOL     OW19719   5.679   2.976   6.432 -0.5155 -0.6988 -0.2397
 6300SOL    HW119720   5.625   3.029   6.498  1.0988  2.3939 -1.1836
 6300SOL    HW219721   5.661   3.011   6.340  0.2957 -2.1945 -0.9924
 6301SOL     OW19722   4.261   5.050   5.820  0.1684 -0.2523  0.1817
 6301SOL    HW119723   4.212   4.970   5.855  0.2604  0.5134  2.2056
 6301SOL    HW219724   4.358   5.028   5.810  0.1139 -0.5477  0.2764
 6302SOL     OW19725   2.140   4.398   0.853 -0.0226  0.0171  0.3216
 6302SOL    HW119726   2.128   4.418   0.950  1.6022 -0.5914  0.6773
 6302SOL    HW219727   2.078   4.324   0.826 -0.0379 -0.2435  1.0449
 6303SOL     OW19728   0.509   0.062   6.723 -0.1989  0.2214  0.1637
 6303SOL    HW119729   0.445  -0.011   6.749  0.4086  0.0111  1.1284
 6303SOL    HW219730   0.603   0.028   6.733  0.1135  1.4525  1.6636
 6304SOL     OW19731   0.757   3.529   5.840  0.7019 -0.0960  0.2162
 6304SOL    HW119732   0.775   3.467   5.764  1.3888 -2.0222  1.8802
 6304SOL    HW219733   0.824   3.604   5.838  1.0197 -0.3932 -0.7652
 6305SOL     OW19734   0.027   1.904   3.890 -0.1258  0.2904  0.2089
 6305SOL    HW119735   0.002   1.900   3.987 -1.5769 -0.0203 -0.1679
 6305SOL    HW219736   0.124   1.927   3.882  0.3190 -0.8578  1.7896
 6306SOL     OW19737   3.474   4.970   2.018  0.2972 -0.2889  0.0584
 6306SOL    HW119738   3.379   4.944   2.003  0.1239 -0.7792  1.7519
 6306SOL    HW219739   3.486   5.000   2.113  2.0952 -1.5766  0.3031
 6307SOL     OW19740   0.864   0.584   5.380 -0.0401 -0.2815 -0.1888
 6307SOL    HW119741   0.947   0.543   5.417  1.0705  1.3067 -0.7951
 6307SOL    HW219742   0.837   0.662   5.438 -2.0052 -1.6508  0.8629
 6308SOL     OW19743   2.586   2.937   5.553  0.4475 -0.3941  0.0655
 6308SOL    HW119744   2.541   2.848   5.552 -0.7791  0.1940  0.2578
 6308SOL    HW219745   2.658   2.938   5.623  0.6822 -1.3168 -0.1516
 6309SOL     OW19746   5.208   6.938   5.163 -0.8197  0.4598  0.5623
 6309SOL    HW119747   5.143   6.865   5.139  0.5397 -0.5985 -0.0152
 6309SOL    HW219748   5.300   6.900   5.164 -0.2437  1.8228  1.8676
 6310SOL     OW19749   3.066   5.125   4.127 -0.3047  0.4234  0.7307
 6310SOL    HW119750   3.089   5.028   4.125  0.3533  0.5701  0.9151
 6310SOL    HW219751   3.079   5.165   4.036 -0.4065  0.3827  0.6966
 6311SOL     OW19752   3.398   4.549   0.353  0.2846 -0.0207 -0.1881
 6311SOL    HW119753   3.372   4.604   0.433 -0.1014  0.2617 -0.5086
 6311SOL    HW219754   3.327   4.482   0.333 -0.2277  0.7592 -1.0683
 6312SOL     OW19755   1.279   0.483   6.765 -0.4898  0.1811  0.5401
 6312SOL    HW119756   1.357   0.442   6.811 -1.1942 -0.4998  1.1402
 6312SOL    HW219757   1.300   0.495   6.668  1.4273  2.6752  1.1786
 6313SOL     OW19758   1.912   1.660   1.477  0.0208  0.1984 -0.0391
 6313SOL    HW119759   1.879   1.684   1.568 -0.0033 -2.5663  0.7784
 6313SOL    HW219760   1.834   1.655   1.414  0.0718  2.4056 -0.3517
 6314SOL     OW19761   2.717   5.267   1.406 -0.1036 -0.3725  0.3337
 6314SOL    HW119762   2.636   5.218   1.438 -0.4592  1.1323  1.8729
 6314SOL    HW219763   2.799   5.210   1.421 -0.5159 -0.5790  1.9456
 6315SOL     OW19764   0.381   5.986   4.769  0.1890  0.6483  0.5579
 6315SOL    HW119765   0.425   5.922   4.706  1.8177  1.5264  0.7246
 6315SOL    HW219766   0.305   5.941   4.816  1.4529 -1.2620  0.8670
 6316SOL     OW19767   4.362   2.404   6.260 -0.4526 -0.2595 -0.8091
 6316SOL    HW119768   4.446   2.437   6.303 -0.4753 -0.0431 -0.9264
 6316SOL    HW219769   4.384   2.336   6.190 -0.0395  2.2794 -3.3351
 6317SOL     OW19770   2.062   4.891   4.228 -0.2097  0.2127 -0.6809
 6317SOL    HW119771   2.003   4.938   4.163  1.0486 -0.8021 -2.6677
 6317SOL    HW219772   2.139   4.849   4.179 -0.0559 -1.9550  1.2569
 6318SOL     OW19773   4.446   6.579   2.588  0.5578  0.1895  0.1977
 6318SOL    HW119774   4.362   6.528   2.571  1.4021 -0.7162 -1.4733
 6318SOL    HW219775   4.481   6.557   2.679 -1.3703  1.1597  1.2202
 6319SOL     OW19776   6.653   0.667   1.024  0.4739  0.3891  0.3644
 6319SOL    HW119777   6.683   0.573   1.007 -0.4852  0.2476 -0.6615
 6319SOL    HW219778   6.671   0.691   1.120  1.4684 -0.5502  0.4250
 6320SOL     OW19779   2.253   6.258   1.993  0.2188 -0.0724  0.3351
 6320SOL    HW119780   2.227   6.317   2.069  0.2404 -0.6833  0.8259
 6320SOL    HW219781   2.230   6.303   1.907  0.4173  0.7270  0.6914
 6321SOL     OW19782   2.890   5.159   1.837 -0.5279 -0.1278 -0.6191
 6321SOL    HW119783   2.909   5.173   1.934  1.2806  0.7600 -1.0421
 6321SOL    HW219784   2.856   5.245   1.797 -0.3980 -0.2272 -0.9500
 6322SOL     OW19785   3.547   3.206   0.275  0.3205 -0.6297  0.5555
 6322SOL    HW119786   3.529   3.144   0.199  0.1136 -1.0510  0.9424
 6322SOL    HW219787   3.645   3.204   0.295  0.2367 -1.2892  0.9446
 6323SOL     OW19788   4.156   6.012   6.852 -0.1151  0.9735  0.2149
 6323SOL    HW119789   4.176   6.080   6.923  1.1038  1.0063 -0.1503
 6323SOL    HW219790   4.165   6.055   6.762  0.9499  0.2830 -0.0366
 6324SOL     OW19791   2.487   4.932   4.048  0.1124  0.0190 -0.4485
 6324SOL    HW119792   2.436   4.906   3.966  1.5663 -1.0587 -1.0654
 6324SOL    HW219793   2.584   4.938   4.026  0.4009  0.9669  0.9246
 6325SOL     OW19794   2.252   1.869   0.169 -0.0774  0.2048 -0.5846
 6325SOL    HW119795   2.207   1.815   0.098  1.0808 -0.8870 -0.5290
 6325SOL    HW219796   2.341   1.829   0.190  1.0302  2.4013 -0.8379
 6326SOL     OW19797   6.543   4.861   3.067 -0.2753 -0.2436 -0.2907
 6326SOL    HW119798   6.484   4.806   3.127  0.6057  0.4391  1.2622
 6326SOL    HW219799   6.520   4.958   3.078  1.5146  0.0854  0.7945
 6327SOL     OW19800   0.398   1.117   1.863  0.3341  0.0869  0.1282
 6327SOL    HW119801   0.443   1.065   1.790  1.1331  0.9499 -0.0140
 6327SOL    HW219802   0.344   1.191   1.823 -0.3487 -0.2750  0.3582
 6328SOL     OW19803   1.403   1.433   6.794 -0.5351 -0.2001  0.1935
 6328SOL    HW119804   1.438   1.392   6.710  0.5953 -0.9667  1.0162
 6328SOL    HW219805   1.388   1.361   6.862 -0.3749  0.5521  1.0272
 6329SOL     OW19806   2.865   0.703   2.572  0.3372 -0.0631 -0.3708
 6329SOL    HW119807   2.796   0.642   2.611 -0.4488  0.8937 -0.2192
 6329SOL    HW219808   2.923   0.652   2.509 -0.4291 -0.9171 -0.3973
 6330SOL     OW19809   5.579   7.005   6.054 -0.0435 -0.2332 -0.0726
 6330SOL    HW119810   5.651   7.062   6.094  0.9062 -1.6708  0.2891
 6330SOL    HW219811   5.510   6.986   6.124 -0.1790  0.1554 -0.0954
 6331SOL     OW19812   6.537   3.657   3.412  0.8242  0.2079  0.3167
 6331SOL    HW119813   6.438   3.664   3.403  0.5271 -0.7446  2.2668
 6331SOL    HW219814   6.580   3.681   3.325 -1.0912  0.6882 -0.5636
 6332SOL     OW19815   5.456   1.997   2.193  0.4952 -0.9825 -0.4016
 6332SOL    HW119816   5.419   1.996   2.101  0.8873  0.3850 -0.6042
 6332SOL    HW219817   5.428   1.915   2.242 -0.2022 -1.4400 -1.5449
 6333SOL     OW19818   3.555   1.171   6.672 -0.1021  0.0537 -0.4403
 6333SOL    HW119819   3.535   1.079   6.706 -0.3357  0.1972 -0.1806
 6333SOL    HW219820   3.561   1.234   6.750  1.0067  0.0840 -0.5398
 6334SOL     OW19821   3.749   6.176   6.973  0.6202  0.0849  0.0453
 6334SOL    HW119822   3.797   6.236   6.909 -0.6782  0.6643 -0.4151
 6334SOL    HW219823   3.673   6.226   7.013 -0.6186 -1.3309 -0.5216
 6335SOL     OW19824   1.996   3.078   6.235 -0.0875 -0.0415 -0.1093
 6335SOL    HW119825   1.896   3.077   6.240 -0.0437 -0.2407  1.0732
 6335SOL    HW219826   2.025   3.055   6.142 -1.0860 -2.8585  0.1876
 6336SOL     OW19827   6.612   2.986   2.554 -0.3938  0.2250 -0.1008
 6336SOL    HW119828   6.551   2.997   2.632 -0.2476  1.1480 -0.0967
 6336SOL    HW219829   6.605   2.893   2.518 -2.4825  0.5395 -0.6481
 6337SOL     OW19830   0.228   4.823   2.336 -0.0742 -0.2161 -0.4434
 6337SOL    HW119831   0.316   4.799   2.375 -0.5449 -1.1635  0.0533
 6337SOL    HW219832   0.237   4.834   2.237  1.3293  3.1312 -0.0678
 6338SOL     OW19833   0.425   6.117   3.700 -0.0957  0.1837  0.5359
 6338SOL    HW119834   0.478   6.084   3.622  0.9396  1.7093  0.5544
 6338SOL    HW219835   0.397   6.212   3.684 -1.0216  0.0868  1.4522
 6339SOL     OW19836   3.452   5.898   3.685  0.0397 -0.1379  0.0968
 6339SOL    HW119837   3.458   5.864   3.591 -2.2124  2.3812 -1.0847
 6339SOL    HW219838   3.479   5.995   3.687 -0.8707  0.1267  1.8204
 6340SOL     OW19839   1.709   5.387   6.674  0.0813  0.3099  0.4317
 6340SOL    HW119840   1.720   5.486   6.666  2.4739 -0.0148 -1.3530
 6340SOL    HW219841   1.627   5.359   6.624  1.0251  1.1456 -1.7192
 6341SOL     OW19842   4.637   3.077   3.486  0.1624 -0.1681 -0.3062
 6341SOL    HW119843   4.598   3.168   3.493  0.1940 -0.2267  0.9346
 6341SOL    HW219844   4.715   3.078   3.423  0.7941  0.9030  0.4485
 6342SOL     OW19845   2.224   4.767   6.437  0.4826  0.0431  0.6605
 6342SOL    HW119846   2.159   4.804   6.503  1.2895 -0.0462  1.5407
 6342SOL    HW219847   2.317   4.796   6.462  1.2331 -2.8056  1.6515
 6343SOL     OW19848   3.936   1.266   2.009 -0.1563 -0.1397  0.4687
 6343SOL    HW119849   3.857   1.308   2.055 -0.3619  1.0702 -0.8963
 6343SOL    HW219850   3.905   1.221   1.925  0.4330 -0.9307  0.6630
 6344SOL     OW19851   1.547   1.868   3.859  0.5056 -0.3555 -0.3676
 6344SOL    HW119852   1.467   1.925   3.838  0.4410 -0.6330 -0.8870
 6344SOL    HW219853   1.516   1.777   3.887  0.5906 -0.0736  0.7390
 6345SOL     OW19854   2.908   4.479   3.184 -0.6141 -0.5036 -0.3134
 6345SOL    HW119855   2.840   4.552   3.195 -0.7138 -0.5500 -0.6054
 6345SOL    HW219856   2.967   4.476   3.264 -1.9703 -1.5341  0.7064
 6346SOL     OW19857   4.606   3.437   5.951  1.0010  0.1633 -0.1485
 6346SOL    HW119858   4.529   3.495   5.978  1.0068  0.3441 -0.5155
 6346SOL    HW219859   4.655   3.480   5.876  0.0931 -1.0109 -1.4771
 6347SOL     OW19860   2.131   0.131   2.315  0.5636 -0.3205 -0.1084
 6347SOL    HW119861   2.053   0.178   2.357  2.5162  3.2552 -0.0127
 6347SOL    HW219862   2.111   0.113   2.219 -1.3731 -2.1800  0.5680
 6348SOL     OW19863   1.240   2.118   1.805  0.5094 -0.6201  0.2057
 6348SOL    HW119864   1.320   2.084   1.853  0.6527  0.0015  0.4149
 6348SOL    HW219865   1.167   2.139   1.870 -0.6322 -3.2069 -0.1279
 6349SOL     OW19866   2.645   1.603   6.083  0.2240  0.0626  0.4518
 6349SOL    HW119867   2.598   1.680   6.040  2.0452  0.7317 -0.4407
 6349SOL    HW219868   2.717   1.637   6.143  2.1711 -0.9055 -1.2422
 6350SOL     OW19869   3.938   0.543   0.188  0.7300 -0.5548  0.4591
 6350SOL    HW119870   4.019   0.589   0.153 -0.2971  0.5158 -0.6042
 6350SOL    HW219871   3.875   0.609   0.227 -0.8402 -0.9618 -1.2188
 6351SOL     OW19872   4.385   6.104   0.828  0.2446 -0.7162  0.2307
 6351SOL    HW119873   4.354   6.019   0.785  1.2642 -0.9898 -0.0072
 6351SOL    HW219874   4.350   6.182   0.776 -1.3830 -0.9567  0.9266
 6352SOL     OW19875   1.287   1.354   1.317 -0.4968  0.7448  0.0408
 6352SOL    HW119876   1.385   1.359   1.331 -0.7405 -0.0300  2.3110
 6352SOL    HW219877   1.261   1.260   1.294 -0.6825  1.0489 -1.0826
 6353SOL     OW19878   5.927   2.323   5.858 -0.0611 -0.4647  0.1397
 6353SOL    HW119879   5.873   2.251   5.815 -0.4715 -0.2598  0.3017
 6353SOL    HW219880   5.891   2.412   5.831  0.6766 -0.3105 -0.3552
 6354SOL     OW19881   0.020   5.207   1.896 -0.1479  0.1284 -0.1539
 6354SOL    HW119882   0.095   5.194   1.832  0.2227 -3.4343  0.8338
 6354SOL    HW219883   0.056   5.234   1.985 -0.2640  0.5221 -0.2210
 6355SOL     OW19884   5.443   3.379   5.762  0.1812  0.1804  1.2039
 6355SOL    HW119885   5.483   3.337   5.843  0.6993 -0.3920  0.6633
 6355SOL    HW219886   5.345   3.394   5.776  0.5789  1.8073  2.6319
 6356SOL     OW19887   2.087   0.025   2.052  0.7883  1.0030 -0.2473
 6356SOL    HW119888   2.185   0.004   2.057  0.6911  0.5835 -0.0729
 6356SOL    HW219889   2.040  -0.051   2.007  0.3820  0.7666  0.6011
 6357SOL     OW19890   5.859   0.212   4.048 -0.0550 -0.7129  0.2101
 6357SOL    HW119891   5.915   0.131   4.069 -0.8219 -1.6103 -1.0683
 6357SOL    HW219892   5.915   0.278   3.997  0.2639 -0.8987  0.3127
 6358SOL     OW19893   6.396   1.788   0.646 -0.3013 -0.6542 -0.3554
 6358SOL    HW119894   6.296   1.796   0.652 -0.2150 -0.6938  1.9129
 6358SOL    HW219895   6.434   1.772   0.737  1.7680 -1.0195 -1.2203
 6359SOL     OW19896   2.794   3.756   1.993 -0.4544  0.2405 -0.0077
 6359SOL    HW119897   2.746   3.668   1.999 -1.1996  0.6510  0.1812
 6359SOL    HW219898   2.755   3.820   2.059  0.0725  0.7173 -0.1508
 6360SOL     OW19899   0.798   3.851   2.642 -0.1990  0.2766 -0.5375
 6360SOL    HW119900   0.840   3.902   2.568  0.0211  0.8150 -0.0509
 6360SOL    HW219901   0.855   3.859   2.724  0.2202 -1.3342 -0.6393
 6361SOL     OW19902   5.924   1.830   6.637  0.5319 -0.3519  0.0900
 6361SOL    HW119903   5.882   1.917   6.662  0.1758 -0.6382  0.5017
 6361SOL    HW219904   5.878   1.756   6.685  1.8452 -0.6359  0.9749
 6362SOL     OW19905   0.226   6.371   0.128 -0.3238  0.0731  0.0687
 6362SOL    HW119906   0.236   6.309   0.050  1.9798 -0.7440  0.9349
 6362SOL    HW219907   0.190   6.459   0.096 -1.7507 -0.9948 -1.4893
 6363SOL     OW19908   6.626   4.298   1.440 -0.7408  0.3637  0.1819
 6363SOL    HW119909   6.701   4.232   1.430  1.3136  2.5947 -0.1537
 6363SOL    HW219910   6.654   4.386   1.400 -2.1804  2.3337  3.1362
 6364SOL     OW19911   5.110   3.735   3.611  0.4136 -0.7681 -0.2611
 6364SOL    HW119912   5.183   3.803   3.618  0.0323 -0.4018  0.1152
 6364SOL    HW219913   5.148   3.650   3.573  0.7498 -0.1465 -1.3666
 6365SOL     OW19914   2.713   2.953   3.771  0.1206 -0.2044  0.0183
 6365SOL    HW119915   2.773   2.879   3.742  0.7338  0.1702  0.3192
 6365SOL    HW219916   2.618   2.928   3.753 -0.0329 -2.6351  3.3224
 6366SOL     OW19917   3.435   5.379   0.592 -0.1439 -0.5046  0.3688
 6366SOL    HW119918   3.471   5.414   0.678  0.5491  1.6572 -0.7272
 6366SOL    HW219919   3.510   5.362   0.528 -0.7788  1.7716 -1.1163
 6367SOL     OW19920   1.316   1.101   2.622 -0.1436 -0.2329  0.2305
 6367SOL    HW119921   1.224   1.111   2.661 -0.3785  2.1433 -0.7367
 6367SOL    HW219922   1.384   1.102   2.695 -0.8098 -1.2040  0.9001
 6368SOL     OW19923   0.772   2.748   6.897 -0.1842 -0.0929  0.0713
 6368SOL    HW119924   0.703   2.793   6.954  1.3079  1.8373  0.4704
 6368SOL    HW219925   0.816   2.675   6.950 -0.7201 -0.1873  0.4002
 6369SOL     OW19926   2.192   0.455   6.427  0.5868  0.4352  0.2147
 6369SOL    HW119927   2.181   0.548   6.392  1.1288 -0.1988 -1.8022
 6369SOL    HW219928   2.263   0.454   6.497  0.6462  1.5101  0.1948
 6370SOL     OW19929   1.253   5.037   1.997  0.4703 -0.6248 -0.7759
 6370SOL    HW119930   1.226   4.954   2.045 -0.4706 -0.2905 -0.7163
 6370SOL    HW219931   1.275   5.015   1.902  1.6168 -1.1636 -0.4073
 6371SOL     OW19932   0.820   6.690   6.364  0.2709 -0.4383  0.9201
 6371SOL    HW119933   0.839   6.728   6.274  0.2096  0.4919  1.2906
 6371SOL    HW219934   0.890   6.622   6.387  1.0378  0.2618  0.7210
 6372SOL     OW19935   1.486   2.808   5.568  0.3665 -0.2114  0.5855
 6372SOL    HW119936   1.424   2.732   5.548  0.5843 -0.2005 -0.1689
 6372SOL    HW219937   1.441   2.873   5.630 -0.0837 -0.5909  0.6608
 6373SOL     OW19938   1.264   5.122   4.285  0.0851  0.2761 -0.2826
 6373SOL    HW119939   1.304   5.208   4.253 -0.0811 -0.2232 -1.9677
 6373SOL    HW219940   1.336   5.061   4.318 -0.0921  2.5829  5.2514
 6374SOL     OW19941   5.851   3.301   5.724 -0.0919  0.1531  0.4473
 6374SOL    HW119942   5.924   3.234   5.739 -0.2409 -0.2054 -0.3682
 6374SOL    HW219943   5.874   3.387   5.770 -0.0332 -0.5433  1.7654
 6375SOL     OW19944   3.020   3.726   2.156 -0.3398 -0.4634 -0.2325
 6375SOL    HW119945   3.074   3.658   2.107  2.6610  2.5954 -1.5733
 6375SOL    HW219946   2.941   3.753   2.101  0.0429 -0.8312 -0.9689
 6376SOL     OW19947   0.929   7.005   5.416  0.0795 -0.1753 -0.2265
 6376SOL    HW119948   0.959   7.010   5.321 -2.2662 -0.1156 -1.0250
 6376SOL    HW219949   0.891   6.914   5.434 -1.4274  0.4713 -0.0242
 6377SOL     OW19950   1.589   3.412   6.825  1.0058  0.3677 -0.2744
 6377SOL    HW119951   1.642   3.328   6.835 -1.6294 -1.3616  0.5558
 6377SOL    HW219952   1.600   3.468   6.907  0.3718 -0.7361  0.5917
 6378SOL     OW19953   1.429   6.273   0.097 -0.1137  0.4420  0.2878
 6378SOL    HW119954   1.372   6.292   0.017  0.7431 -1.2109 -0.7957
 6378SOL    HW219955   1.512   6.327   0.093  0.3397 -0.2989 -0.4345
 6379SOL     OW19956   0.598   4.502   4.437  0.0649  0.1858  0.3557
 6379SOL    HW119957   0.588   4.417   4.385  0.1292  0.7622 -0.6191
 6379SOL    HW219958   0.547   4.575   4.391 -1.8180  0.2093  2.3516
 6380SOL     OW19959   2.361   6.589   4.928  0.4956  0.5168 -0.0700
 6380SOL    HW119960   2.403   6.598   4.838  0.9513  0.8919  0.1681
 6380SOL    HW219961   2.341   6.680   4.965  0.4972  0.3796  0.2861
 6381SOL     OW19962   5.873   6.968   3.248  0.1856  0.1694  0.2261
 6381SOL    HW119963   5.844   7.048   3.196 -0.8195 -0.3056  0.0844
 6381SOL    HW219964   5.844   6.979   3.344 -0.0626 -0.0777  0.1800
 6382SOL     OW19965   1.847   6.353   5.125  0.2076  0.2754 -1.3261
 6382SOL    HW119966   1.872   6.429   5.185 -1.2342 -0.9699  1.0088
 6382SOL    HW219967   1.818   6.389   5.037  0.7041  2.3428 -0.6999
 6383SOL     OW19968   1.069   6.123   1.587 -0.2772  0.4423  0.4435
 6383SOL    HW119969   1.096   6.105   1.682 -0.5778 -1.9973  0.1427
 6383SOL    HW219970   1.122   6.064   1.526 -0.3973  1.6464 -0.8776
 6384SOL     OW19971   6.894   0.932   6.286  0.3869 -0.2172  0.5168
 6384SOL    HW119972   6.924   0.968   6.198  0.5832 -2.0451 -0.1952
 6384SOL    HW219973   6.929   0.840   6.298 -1.8868 -1.0300  1.2979
 6385SOL     OW19974   2.175   4.842   2.169 -0.0420  0.5231  0.3570
 6385SOL    HW119975   2.133   4.929   2.196 -0.0284  1.4696 -2.3548
 6385SOL    HW219976   2.267   4.859   2.135 -0.1828 -0.4670 -0.5767
 6386SOL     OW19977   4.536   0.301   4.442 -0.1044 -0.4321  0.7275
 6386SOL    HW119978   4.489   0.256   4.517 -1.0345 -0.6036  0.0784
 6386SOL    HW219979   4.495   0.391   4.427  0.2645 -0.2795  0.6088
 6387SOL     OW19980   3.494   1.183   2.024 -0.2962 -0.5496 -0.1494
 6387SOL    HW119981   3.504   1.273   2.067  1.0925 -0.3945 -0.7359
 6387SOL    HW219982   3.526   1.112   2.086  0.1749 -0.4816 -0.3148
 6388SOL     OW19983   5.184   4.330   0.422  0.0591 -0.2329  0.5503
 6388SOL    HW119984   5.092   4.315   0.388 -0.2064 -0.7609  1.4688
 6388SOL    HW219985   5.240   4.373   0.351 -1.0668  0.6978  0.2086
 6389SOL     OW19986   4.206   4.440   6.355 -0.3814  0.0348 -0.3492
 6389SOL    HW119987   4.212   4.524   6.301  2.1343 -0.6541 -1.2862
 6389SOL    HW219988   4.163   4.461   6.443  0.4529  2.4025 -0.4075
 6390SOL     OW19989   1.227   0.504   5.446 -0.0788 -0.1926  0.0797
 6390SOL    HW119990   1.167   0.533   5.520 -0.5222  0.3942 -0.4990
 6390SOL    HW219991   1.181   0.516   5.358  0.3478 -1.1006 -0.2896
 6391SOL     OW19992   5.950   0.712   3.773  0.3487  0.1072 -0.0446
 6391SOL    HW119993   6.000   0.631   3.804 -1.6696 -1.1905  0.0006
 6391SOL    HW219994   6.014   0.786   3.754  2.6383 -2.3152 -2.7796
 6392SOL     OW19995   6.856   0.465   5.088 -0.4569 -0.2548  0.0992
 6392SOL    HW119996   6.784   0.425   5.144  0.3571 -0.8145  0.7783
 6392SOL    HW219997   6.945   0.449   5.132 -0.1005  2.4487  0.5269
 6393SOL     OW19998   3.595   5.447   5.961 -0.6463 -0.0447  0.7086
 6393SOL    HW119999   3.596   5.353   5.995  1.0776  0.2909  1.7189
 6393SOL    HW220000   3.615   5.448   5.863 -0.0346 -0.6998  0.8260
 6394SOL     OW20001   6.213   2.250   2.572  0.2338 -0.2161  0.5963
 6394SOL    HW120002   6.189   2.338   2.612 -1.3712 -1.1536  1.8144
 6394SOL    HW220003   6.247   2.263   2.479  2.1638  1.8756  1.4860
 6395SOL     OW20004   4.260   6.175   2.797  0.4680 -0.5338 -0.0576
 6395SOL    HW120005   4.342   6.190   2.742  0.5408 -3.0525 -0.7481
 6395SOL    HW220006   4.184   6.151   2.736 -0.5980  0.8571  0.6555
 6396SOL     OW20007   1.660   0.640   4.046 -0.8574  0.0522 -0.4241
 6396SOL    HW120008   1.735   0.576   4.035 -0.7494  0.4187 -1.9889
 6396SOL    HW220009   1.679   0.724   3.995 -2.3787  0.0965 -0.9788
 6397SOL     OW20010   6.114   5.367   5.501 -0.7612 -0.1526  0.6011
 6397SOL    HW120011   6.068   5.364   5.413  0.1825 -0.5257  0.1032
 6397SOL    HW220012   6.136   5.274   5.531 -0.1386  0.0228  0.7120
 6398SOL     OW20013   1.896   2.424   3.190  0.3244  0.2801  0.0321
 6398SOL    HW120014   1.971   2.385   3.244 -0.6997 -1.1670  0.4811
 6398SOL    HW220015   1.889   2.521   3.209  0.7873  0.0347  1.5695
 6399SOL     OW20016   5.272   6.156   3.611  0.6211  0.0625  0.2446
 6399SOL    HW120017   5.356   6.209   3.601 -0.0284  1.0228 -0.2532
 6399SOL    HW220018   5.208   6.204   3.671 -0.0645 -0.0259 -0.3879
 6400SOL     OW20019   6.279   4.011   1.907 -0.1750 -0.6823  0.2095
 6400SOL    HW120020   6.258   3.925   1.861 -0.0090 -1.4671  1.5381
 6400SOL    HW220021   6.291   4.083   1.839  0.6012 -1.8902 -0.9967
 6401SOL     OW20022   0.692   4.274   0.557 -0.2963  0.2120 -0.1973
 6401SOL    HW120023   0.632   4.286   0.636  2.1180 -1.4052  2.0650
 6401SOL    HW220024   0.690   4.179   0.528  2.6176 -0.4722  1.3960
 6402SOL     OW20025   2.765   3.856   6.171 -0.2338  0.2954 -0.0533
 6402SOL    HW120026   2.776   3.849   6.072  1.2630  0.8339  0.0709
 6402SOL    HW220027   2.767   3.952   6.199 -0.1008  0.1181  0.5636
 6403SOL     OW20028   0.601   1.885   3.036  0.7059 -0.3468  0.0178
 6403SOL    HW120029   0.519   1.932   3.070  0.0364 -0.7098 -1.0708
 6403SOL    HW220030   0.652   1.948   2.977 -0.5245 -1.1299 -1.9683
 6404SOL     OW20031   3.492   1.192   5.751  0.4097 -0.0368 -0.0146
 6404SOL    HW120032   3.483   1.246   5.834  1.4272 -0.5513  0.4590
 6404SOL    HW220033   3.560   1.234   5.691 -1.3696  1.1549 -1.3072
 6405SOL     OW20034   3.350   2.489   0.906 -0.3208 -0.5373  0.0904
 6405SOL    HW120035   3.279   2.514   0.972 -0.0544  0.1193  0.1331
 6405SOL    HW220036   3.431   2.547   0.920 -0.2120 -0.4802 -0.7313
 6406SOL     OW20037   1.359   2.820   2.565  0.1167  1.0063 -0.0328
 6406SOL    HW120038   1.432   2.771   2.518 -0.8589  0.8363 -1.4093
 6406SOL    HW220039   1.287   2.756   2.593  0.7246  1.0677  1.8814
 6407SOL     OW20040   1.921   1.834   6.949  0.4399 -0.3662 -0.0222
 6407SOL    HW120041   1.846   1.793   7.002  0.0912 -1.8682 -1.6009
 6407SOL    HW220042   1.929   1.931   6.973 -3.0414  0.3046 -0.8761
 6408SOL     OW20043   3.767   4.367   4.935  0.2079 -0.1816 -0.3087
 6408SOL    HW120044   3.695   4.341   4.999 -0.1773 -2.0218 -1.4400
 6408SOL    HW220045   3.831   4.292   4.924  1.2560  0.7499 -0.7626
 6409SOL     OW20046   1.249   4.138   0.884  0.5145 -0.9180 -0.3868
 6409SOL    HW120047   1.245   4.107   0.979  2.0776  0.3674  0.1381
 6409SOL    HW220048   1.157   4.150   0.849 -0.0855 -1.9504  0.7825
 6410SOL     OW20049   1.040   5.082   6.020  0.2244  0.6142 -0.3590
 6410SOL    HW120050   1.042   5.126   6.109 -0.6070  0.1558 -0.0957
 6410SOL    HW220051   1.022   4.984   6.031 -0.9855  0.7234 -1.0617
 6411SOL     OW20052   4.798   5.191   2.393  0.1604  0.1365  0.3191
 6411SOL    HW120053   4.823   5.152   2.305  1.2025 -0.7997  1.0020
 6411SOL    HW220054   4.699   5.181   2.407  0.0503 -0.0827 -0.5499
 6412SOL     OW20055   6.198   6.281   6.295 -0.2657 -0.3993  0.0128
 6412SOL    HW120056   6.285   6.243   6.266  0.2204 -1.4163  2.5558
 6412SOL    HW220057   6.123   6.232   6.251  0.4265 -1.0353 -0.4595
 6413SOL     OW20058   1.712   2.743   5.256  0.2465 -0.4718  0.1012
 6413SOL    HW120059   1.753   2.775   5.342 -1.4067 -1.9402  1.4930
 6413SOL    HW220060   1.666   2.820   5.211 -0.5682 -0.0679  1.5611
 6414SOL     OW20061   6.523   2.786   4.751  0.1924 -0.1719 -0.1772
 6414SOL    HW120062   6.433   2.760   4.715  0.2737 -0.3222 -0.2707
 6414SOL    HW220063   6.537   2.744   4.840 -0.6415  1.4002  0.7504
 6415SOL     OW20064   0.105   3.850   1.528 -0.0700  0.2612 -0.3234
 6415SOL    HW120065   0.081   3.759   1.493  1.7421 -0.0521 -0.8358
 6415SOL    HW220066   0.180   3.887   1.474  0.7303  1.0928  1.3215
 6416SOL     OW20067   5.464   3.088   4.255 -0.0019  0.6278  0.7375
 6416SOL    HW120068   5.440   3.010   4.313  3.7474 -1.0746  0.2909
 6416SOL    HW220069   5.502   3.162   4.312  2.8065 -0.6824  0.7558
 6417SOL     OW20070   5.862   3.197   0.703 -0.3652  0.5961  0.1868
 6417SOL    HW120071   5.906   3.207   0.792  0.0415  0.4369  0.0073
 6417SOL    HW220072   5.929   3.215   0.631 -0.2272 -1.1328 -0.1217
 6418SOL     OW20073   5.503   5.158   1.807  0.2660  0.7110  0.6489
 6418SOL    HW120074   5.491   5.194   1.714  0.3157  0.7798  0.6679
 6418SOL    HW220075   5.442   5.207   1.870  1.3699  1.7530  0.9293
 6419SOL     OW20076   2.995   4.331   6.594  0.0235 -0.6417  0.1193
 6419SOL    HW120077   3.004   4.239   6.555 -0.7485  0.0494 -1.8017
 6419SOL    HW220078   2.906   4.368   6.571 -0.8826 -0.4914  3.4122
 6420SOL     OW20079   6.160   6.176   6.547 -0.8434  0.2129 -0.3762
 6420SOL    HW120080   6.173   6.223   6.459 -0.5250 -0.8333 -0.9117
 6420SOL    HW220081   6.178   6.078   6.535  0.5937  0.2388  1.1701
 6421SOL     OW20082   1.058   2.370   0.110  0.2842  0.1871 -0.1134
 6421SOL    HW120083   1.112   2.444   0.070  1.1368  0.6576  1.8128
 6421SOL    HW220084   1.086   2.283   0.070  0.8060  0.6691 -0.8263
 6422SOL     OW20085   2.621   3.319   6.427  0.6052  0.7590 -0.2229
 6422SOL    HW120086   2.678   3.265   6.489 -0.3995  0.9870  0.9270
 6422SOL    HW220087   2.641   3.416   6.439  0.9218  0.7635 -0.7772
 6423SOL     OW20088   5.109   6.324   2.248 -0.0120 -0.7297 -0.1109
 6423SOL    HW120089   5.166   6.349   2.326 -0.6808  1.3846 -0.2366
 6423SOL    HW220090   5.164   6.329   2.164  0.6918 -2.9374  0.1782
 6424SOL     OW20091   3.503   2.299   1.957  0.0760  0.1070 -0.1830
 6424SOL    HW120092   3.486   2.255   1.869 -0.0738  1.1898 -0.7115
 6424SOL    HW220093   3.592   2.269   1.993 -0.3233 -1.1389 -0.1815
 6425SOL     OW20094   2.197   0.404   0.684  0.0644  0.2996  0.3580
 6425SOL    HW120095   2.226   0.473   0.750  1.0176  0.6327 -0.3740
 6425SOL    HW220096   2.276   0.374   0.631 -0.6903  0.1480 -0.7230
 6426SOL     OW20097   6.063   0.121   6.268 -0.5226  0.2594  0.0665
 6426SOL    HW120098   6.023   0.133   6.359  0.9050  2.3411  0.4893
 6426SOL    HW220099   6.062   0.024   6.243  0.0664 -0.5240  2.7754
 6427SOL     OW20100   6.457   4.527   6.864  0.2591 -0.2174  0.7341
 6427SOL    HW120101   6.411   4.496   6.780 -0.7573  1.2135  0.7305
 6427SOL    HW220102   6.388   4.562   6.928  1.3044  1.8705  0.7821
 6428SOL     OW20103   4.796   1.089   1.414  0.2061 -0.3465  0.0561
 6428SOL    HW120104   4.767   1.076   1.508  0.4204 -1.8931 -0.0757
 6428SOL    HW220105   4.886   1.133   1.413  0.7677 -1.4583  0.6122
 6429SOL     OW20106   1.038   3.921   0.670  0.0771  0.3724  0.1804
 6429SOL    HW120107   1.018   3.993   0.737 -2.9289 -0.5600  0.4144
 6429SOL    HW220108   1.116   3.866   0.702  1.2550  2.3343  0.8802
 6430SOL     OW20109   2.784   3.131   1.107 -0.0565  0.3476  0.0260
 6430SOL    HW120110   2.868   3.182   1.128 -0.6111  0.5649  1.8200
 6430SOL    HW220111   2.705   3.192   1.115 -0.4026  0.1840 -1.8121
 6431SOL     OW20112   2.638   2.044   4.637 -0.6190 -0.3075  0.1961
 6431SOL    HW120113   2.606   1.954   4.666  0.2086 -0.2112  1.5063
 6431SOL    HW220114   2.700   2.034   4.559  0.3572 -0.9788  1.0540
 6432SOL     OW20115   3.843   1.763   1.417 -0.5178 -0.1261 -0.2920
 6432SOL    HW120116   3.781   1.825   1.465 -3.0068 -1.0448 -2.1320
 6432SOL    HW220117   3.894   1.708   1.483  0.0583  2.2335  1.3170
 6433SOL     OW20118   4.369   0.938   5.271 -0.2897  0.4517  0.0260
 6433SOL    HW120119   4.457   0.943   5.224  1.0747  0.8335  2.4547
 6433SOL    HW220120   4.341   1.029   5.300 -2.0829  0.4965 -1.6071
 6434SOL     OW20121   0.509   5.551   4.732 -0.0165 -0.7250  0.4654
 6434SOL    HW120122   0.422   5.601   4.724  0.1275 -0.4784  0.4251
 6434SOL    HW220123   0.496   5.457   4.698 -0.0590 -0.4460 -0.3275
 6435SOL     OW20124   0.431   3.127   4.588  0.7193  0.6435 -0.0843
 6435SOL    HW120125   0.434   3.163   4.681 -3.2445  1.2188 -0.0053
 6435SOL    HW220126   0.353   3.165   4.540 -0.2854 -3.3026 -1.9879
 6436SOL     OW20127   0.461   2.487   1.509 -0.4818  0.4910  0.2777
 6436SOL    HW120128   0.438   2.549   1.584 -0.1970  0.1400  0.6598
 6436SOL    HW220129   0.524   2.416   1.542  0.6821  1.0830 -0.6068
 6437SOL     OW20130   6.346   3.136   3.365 -0.0017  0.1193  0.0484
 6437SOL    HW120131   6.283   3.068   3.328 -0.4385  0.0417  0.9073
 6437SOL    HW220132   6.338   3.139   3.464 -0.6517  2.0737 -0.0196
 6438SOL     OW20133   0.099   0.632   6.789 -0.0536 -0.3236 -0.1600
 6438SOL    HW120134   0.082   0.575   6.709  0.8413 -0.1126 -0.5008
 6438SOL    HW220135   0.110   0.727   6.762  3.2649 -0.6245 -0.2023
 6439SOL     OW20136   3.677   5.616   6.149  0.0182  0.5049  0.5031
 6439SOL    HW120137   3.625   5.548   6.099 -1.7729  1.3631  1.1363
 6439SOL    HW220138   3.758   5.642   6.096  0.3442 -1.5314 -0.0709
 6440SOL     OW20139   2.474   7.019   1.060 -0.0232 -0.0757 -0.0007
 6440SOL    HW120140   2.475   7.018   1.160  0.1519  2.6318  0.0880
 6440SOL    HW220141   2.429   7.103   1.028  1.8928  0.1908 -2.1815
 6441SOL     OW20142   5.512   5.405   5.495 -0.8228 -0.3155  0.2082
 6441SOL    HW120143   5.522   5.305   5.490  1.4929 -0.1878  0.7181
 6441SOL    HW220144   5.596   5.444   5.534 -1.4980  1.8765 -0.4042
 6442SOL     OW20145   0.147   6.593   1.829 -0.3271  0.4729  0.9840
 6442SOL    HW120146   0.049   6.588   1.845 -0.1651  0.8559  2.2752
 6442SOL    HW220147   0.166   6.654   1.752 -1.0861  0.7355  0.9989
 6443SOL     OW20148   0.517   6.819   4.242 -0.1842 -0.1801  0.7524
 6443SOL    HW120149   0.521   6.719   4.239 -1.5623 -0.2315 -0.1346
 6443SOL    HW220150   0.422   6.849   4.233  0.4708  1.2789 -3.4535
 6444SOL     OW20151   4.674   4.271   0.262  0.1242  0.7782 -0.4375
 6444SOL    HW120152   4.636   4.181   0.283  0.8071  0.4503 -0.6063
 6444SOL    HW220153   4.599   4.332   0.234 -0.5059  0.6147  0.8283
 6445SOL     OW20154   4.663   4.715   2.509 -0.0425 -0.2281  0.2696
 6445SOL    HW120155   4.727   4.790   2.522  2.5314 -2.1471 -0.2379
 6445SOL    HW220156   4.632   4.714   2.414 -1.1046  0.8780  0.5847
 6446SOL     OW20157   4.106   5.120   1.514 -0.5669 -0.2482  0.1726
 6446SOL    HW120158   4.147   5.206   1.543 -0.9231  0.0539 -0.2144
 6446SOL    HW220159   4.009   5.134   1.491 -0.2951 -0.4528 -1.2133
 6447SOL     OW20160   1.167   3.544   5.203 -0.1232  0.0556  0.1151
 6447SOL    HW120161   1.093   3.578   5.145  0.5064 -0.9974 -1.3597
 6447SOL    HW220162   1.219   3.475   5.153  0.9840 -0.2558  1.6465
 6448SOL     OW20163   2.287   5.040   1.671 -0.2677  0.4852  0.3016
 6448SOL    HW120164   2.195   5.041   1.632 -0.2266 -0.0050  0.1901
 6448SOL    HW220165   2.282   5.065   1.767 -0.6233 -0.3471  0.5083
 6449SOL     OW20166   0.939   1.856   0.161 -0.4705  0.2750 -0.2930
 6449SOL    HW120167   0.909   1.947   0.189  1.0085  0.9089 -0.6503
 6449SOL    HW220168   0.950   1.798   0.241 -2.3640  0.0833 -0.1393
 6450SOL     OW20169   4.698   6.000   3.139  0.1048 -0.1772  0.0617
 6450SOL    HW120170   4.687   5.963   3.231  0.2813 -1.9926 -0.5944
 6450SOL    HW220171   4.676   5.929   3.072 -0.7962  1.3304 -1.3128
 6451SOL     OW20172   2.236   2.673   2.492 -0.4853  0.0249 -0.1024
 6451SOL    HW120173   2.224   2.597   2.427 -0.9151  0.4175 -0.4888
 6451SOL    HW220174   2.262   2.755   2.442 -2.2160  0.6938  0.0292
 6452SOL     OW20175   1.187   0.753   6.659  0.4654  0.6280 -0.3550
 6452SOL    HW120176   1.278   0.724   6.630  0.1572 -1.3223  0.4682
 6452SOL    HW220177   1.154   0.692   6.731 -0.8476  2.2681  0.5144
 6453SOL     OW20178   4.532   5.306   5.744  0.1869 -0.7710  0.2732
 6453SOL    HW120179   4.439   5.275   5.726  0.1370 -0.8174  0.5987
 6453SOL    HW220180   4.597   5.253   5.690  0.1772 -2.0057  1.4048
 6454SOL     OW20181   6.076   1.860   3.567  0.3130  0.4363 -0.3086
 6454SOL    HW120182   6.128   1.837   3.485  2.7648  1.7564  0.7916
 6454SOL    HW220183   6.074   1.780   3.628  1.6158  0.5346 -0.1085
 6455SOL     OW20184   3.913   6.463   5.509 -0.0219 -0.2001 -0.1646
 6455SOL    HW120185   3.848   6.472   5.434  1.0736 -1.5183 -1.3374
 6455SOL    HW220186   3.978   6.390   5.489  1.0606  0.2037  1.5430
 6456SOL     OW20187   3.971   3.041   6.099 -0.1652  0.0365 -0.3723
 6456SOL    HW120188   4.047   3.105   6.088 -1.5198  2.3106  2.3063
 6456SOL    HW220189   4.004   2.956   6.142  1.0228  0.6175 -0.1055
 6457SOL     OW20190   3.071   5.215   3.812  0.1630  0.3608  0.4010
 6457SOL    HW120191   3.016   5.142   3.770  1.8246  0.5645 -2.2828
 6457SOL    HW220192   3.032   5.304   3.790 -0.7559  0.4224  2.0659
 6458SOL     OW20193   0.466   4.234   1.875  0.1187  0.1839 -0.3340
 6458SOL    HW120194   0.475   4.269   1.968 -0.2764 -1.4327  0.3329
 6458SOL    HW220195   0.480   4.135   1.874  1.6889  0.3600 -2.2389
 6459SOL     OW20196   4.008   4.859   1.140  0.4581  0.1845  0.0420
 6459SOL    HW120197   3.960   4.923   1.199 -1.3207 -1.8496  0.9376
 6459SOL    HW220198   4.105   4.858   1.164  0.5385  2.4184  0.0266
 6460SOL     OW20199   4.791   5.491   3.931 -0.7400  0.4437 -0.3066
 6460SOL    HW120200   4.842   5.498   3.845 -1.8442  0.1116 -1.0198
 6460SOL    HW220201   4.849   5.450   4.001  0.9859  2.8968 -0.1622
 6461SOL     OW20202   4.442   1.540   5.880  0.1262 -0.1541 -0.4172
 6461SOL    HW120203   4.402   1.469   5.937  1.0369  0.1629  0.6653
 6461SOL    HW220204   4.526   1.506   5.837 -1.0513 -0.7011 -2.3714
 6462SOL     OW20205   3.677   0.580   6.277  0.0106 -0.1079 -0.0567
 6462SOL    HW120206   3.666   0.659   6.217  3.1543  2.0271  1.8895
 6462SOL    HW220207   3.724   0.507   6.227  0.2458  0.6187 -0.9249
 6463SOL     OW20208   6.243   6.186   0.428  0.0494  0.4685 -0.0151
 6463SOL    HW120209   6.199   6.099   0.403  0.9359 -0.1134  0.3964
 6463SOL    HW220210   6.339   6.170   0.450 -0.1097  1.3364  1.4265
 6464SOL     OW20211   5.741   3.348   3.340  0.3753  0.3689  0.3936
 6464SOL    HW120212   5.777   3.369   3.431  0.6879 -1.4386  0.7204
 6464SOL    HW220213   5.664   3.285   3.348  1.5165 -1.2250 -0.6479
 6465SOL     OW20214   0.241   5.314   0.689  0.2806 -0.0672  0.3083
 6465SOL    HW120215   0.251   5.272   0.599 -0.2359 -0.3724  0.3921
 6465SOL    HW220216   0.321   5.370   0.709  0.4117 -0.0218 -0.3308
 6466SOL     OW20217   1.158   6.672   3.516  0.4538  0.0411  0.5289
 6466SOL    HW120218   1.082   6.715   3.564  1.0847  1.9549 -0.0952
 6466SOL    HW220219   1.223   6.742   3.486  0.3603 -1.0722 -2.6475
 6467SOL     OW20220   5.621   6.915   4.714 -0.2442  0.1075 -0.4313
 6467SOL    HW120221   5.716   6.890   4.728 -0.0799  0.0999 -1.4410
 6467SOL    HW220222   5.577   6.932   4.802  0.9872  1.1822  0.0196
 6468SOL     OW20223   3.318   6.611   2.341  0.1832  0.1580  0.6453
 6468SOL    HW120224   3.351   6.657   2.259  1.3517  0.5758  1.3258
 6468SOL    HW220225   3.345   6.514   2.338  0.2616  0.1829  0.5627
 6469SOL     OW20226   7.019   2.710   3.302  0.6453 -0.2629 -0.2765
 6469SOL    HW120227   7.050   2.805   3.298  0.9454 -0.3302  0.4101
 6469SOL    HW220228   7.077   2.660   3.367  0.1312 -0.8078 -0.2644
 6470SOL     OW20229   2.037   3.425   6.406 -0.0391 -0.2042 -0.1198
 6470SOL    HW120230   2.054   3.334   6.443  1.7191 -0.7989 -2.1809
 6470SOL    HW220231   2.124   3.466   6.376 -0.9805  1.4962 -0.6819
 6471SOL     OW20232   5.178   0.805   5.233  0.0431 -0.3727  0.0399
 6471SOL    HW120233   5.277   0.804   5.220  0.2788  1.8279  1.1781
 6471SOL    HW220234   5.139   0.885   5.188 -0.9299 -0.1710  1.1924
 6472SOL     OW20235   4.171   5.152   4.227  0.1753 -0.3239 -0.1533
 6472SOL    HW120236   4.151   5.182   4.134 -0.4893 -0.4409 -0.0457
 6472SOL    HW220237   4.167   5.052   4.232 -0.1124 -0.3041  0.0726
 6473SOL     OW20238   5.651   1.404   2.346 -0.4808  0.3537  0.2015
 6473SOL    HW120239   5.647   1.422   2.445 -0.6070 -2.4405  0.7970
 6473SOL    HW220240   5.560   1.379   2.314  0.0538 -1.6064  0.0673
 6474SOL     OW20241   2.192   4.809   3.124  0.1442 -0.1707  0.9137
 6474SOL    HW120242   2.207   4.763   3.212 -0.7739 -0.4774  0.9217
 6474SOL    HW220243   2.105   4.858   3.128  1.5264  2.4455  1.2805
 6475SOL     OW20244   0.458   1.731   4.923  0.1692 -0.2156 -0.0534
 6475SOL    HW120245   0.422   1.734   5.017  1.7959 -4.3098  0.9027
 6475SOL    HW220246   0.387   1.696   4.862 -0.3013  0.6972 -0.0696
 6476SOL     OW20247   3.111   6.386   6.607  0.7392  0.1595  0.0116
 6476SOL    HW120248   3.178   6.330   6.559  3.4002  3.6492 -0.7950
 6476SOL    HW220249   3.037   6.412   6.545  0.4305 -0.9500 -0.1025
 6477SOL     OW20250   4.236   2.655   3.100  0.5318 -0.0672 -0.4230
 6477SOL    HW120251   4.237   2.582   3.168 -0.7642  0.4750  0.2229
 6477SOL    HW220252   4.158   2.642   3.039  1.4358 -0.3141 -1.5827
 6478SOL     OW20253   2.866   4.780   4.598 -0.2983  0.5429 -0.2913
 6478SOL    HW120254   2.876   4.724   4.681 -0.5514  1.5419  0.4353
 6478SOL    HW220255   2.955   4.819   4.573 -0.4425  1.2649  0.2698
 6479SOL     OW20256   0.740   4.550   5.210 -0.5529  0.6490 -0.3097
 6479SOL    HW120257   0.729   4.598   5.123 -0.2636  1.7355  0.2378
 6479SOL    HW220258   0.798   4.605   5.271 -2.7623  1.1189  1.4830
 6480SOL     OW20259   6.881   2.368   3.308  0.6710  0.3044 -0.0472
 6480SOL    HW120260   6.860   2.364   3.405 -0.3179 -1.0095 -0.2892
 6480SOL    HW220261   6.979   2.380   3.296  1.4179 -3.1643  1.1546
 6481SOL     OW20262   0.527   5.271   2.003  0.2876 -0.6474  0.3311
 6481SOL    HW120263   0.553   5.178   2.027 -1.7033 -1.4733 -0.5447
 6481SOL    HW220264   0.461   5.306   2.069  1.9163  0.6815  1.3803
 6482SOL     OW20265   6.061   4.416   0.575  0.1067 -0.0129  0.2406
 6482SOL    HW120266   6.053   4.516   0.578 -2.3382 -0.1314 -0.2530
 6482SOL    HW220267   5.991   4.376   0.633  1.5808 -1.4916  1.0954
 6483SOL     OW20268   2.996   0.934   0.264 -0.1155 -0.2284  0.2279
 6483SOL    HW120269   3.038   1.017   0.229 -3.4192  0.7027 -2.0431
 6483SOL    HW220270   3.000   0.862   0.195 -0.4628 -0.7737  0.7547
 6484SOL     OW20271   3.995   1.737   6.243 -0.4801 -0.0595  0.3211
 6484SOL    HW120272   3.984   1.671   6.169  0.6964 -1.1208  1.0588
 6484SOL    HW220273   4.086   1.778   6.237 -0.3662 -0.1742  1.1736
 6485SOL     OW20274   4.077   4.144   5.809 -0.4494  0.3061 -0.0214
 6485SOL    HW120275   4.135   4.226   5.809 -0.1292  0.0822  0.1654
 6485SOL    HW220276   4.130   4.065   5.838 -0.4694 -0.1820 -1.2361
 6486SOL     OW20277   1.499   4.004   4.131 -0.1621  0.2350  0.2550
 6486SOL    HW120278   1.477   3.991   4.034  2.9983  0.7856 -0.6322
 6486SOL    HW220279   1.507   3.914   4.175 -1.0535 -0.0380 -0.1051
 6487SOL     OW20280   0.746   0.730   0.918 -0.0268  0.0202  0.2991
 6487SOL    HW120281   0.761   0.665   0.844 -1.2133 -1.0366  0.9423
 6487SOL    HW220282   0.649   0.755   0.921  0.5637  2.8387 -0.7128
 6488SOL     OW20283   0.948   0.310   3.470  0.1671 -0.2568  0.2799
 6488SOL    HW120284   0.929   0.275   3.561  0.4110  0.5442  0.6505
 6488SOL    HW220285   1.046   0.302   3.451  0.0470 -0.8550 -0.1004
 6489SOL     OW20286   2.669   1.891   1.517 -0.3330  0.4462  0.3795
 6489SOL    HW120287   2.738   1.842   1.463 -0.7315 -0.4432  0.6576
 6489SOL    HW220288   2.589   1.908   1.460 -1.9462 -3.0335  1.3477
 6490SOL     OW20289   2.417   5.570   3.991 -0.1861 -0.0133 -0.5101
 6490SOL    HW120290   2.337   5.629   3.999  1.7891  2.7561 -0.0252
 6490SOL    HW220291   2.394   5.479   4.027 -3.6459  0.0116 -2.2787
 6491SOL     OW20292   1.912   5.522   6.243 -0.3787  0.2198 -0.3246
 6491SOL    HW120293   1.925   5.605   6.189  1.2522 -0.3864 -0.9299
 6491SOL    HW220294   1.827   5.476   6.215  0.3921 -0.0568 -2.3918
 6492SOL     OW20295   6.360   2.314   1.028  0.4844 -0.5615 -0.5521
 6492SOL    HW120296   6.360   2.368   0.944 -2.1997  1.9002  0.8570
 6492SOL    HW220297   6.401   2.367   1.102  0.9216 -1.8475  0.1656
 6493SOL     OW20298   1.037   6.167   6.710  0.3591  0.0569 -0.1336
 6493SOL    HW120299   1.036   6.227   6.631 -0.7094  0.6036  0.2750
 6493SOL    HW220300   0.962   6.191   6.772 -0.4231 -1.9732 -0.1784
 6494SOL     OW20301   1.013   1.955   2.178 -0.1489 -0.2814 -0.1844
 6494SOL    HW120302   0.928   1.972   2.227 -0.6123 -2.0540 -0.3193
 6494SOL    HW220303   1.027   2.027   2.109 -0.3745  1.2476  1.3217
 6495SOL     OW20304   4.895   2.762   0.413  0.4702 -0.3261  1.1080
 6495SOL    HW120305   4.977   2.811   0.444  0.1245  0.0924  1.3706
 6495SOL    HW220306   4.862   2.703   0.486 -0.5608  0.9380  1.6987
 6496SOL     OW20307   3.646   5.914   6.912 -0.0574 -0.2431  0.0590
 6496SOL    HW120308   3.552   5.932   6.882  0.3202 -0.7340 -1.5939
 6496SOL    HW220309   3.689   6.000   6.939 -0.9130  0.0199  0.6240
 6497SOL     OW20310   3.257   1.763   6.730  0.1311  0.3307  0.6683
 6497SOL    HW120311   3.216   1.684   6.685  1.0471  0.7016 -0.8888
 6497SOL    HW220312   3.241   1.845   6.674  0.5223  0.9867  1.4843
 6498SOL     OW20313   3.363   2.833   0.182 -0.2223 -0.0323 -0.1317
 6498SOL    HW120314   3.367   2.771   0.261  0.5850 -0.3664 -0.4157
 6498SOL    HW220315   3.338   2.781   0.101 -0.3251  0.1694 -0.2286
 6499SOL     OW20316   5.490   1.699   6.863 -0.3562  0.3159 -0.2653
 6499SOL    HW120317   5.518   1.606   6.837  0.5540  0.7851 -1.0295
 6499SOL    HW220318   5.532   1.765   6.802  1.5064  1.4562  2.1048
 6500SOL     OW20319   5.927   2.202   1.149 -0.4424  0.2435  0.0556
 6500SOL    HW120320   5.918   2.171   1.054  0.1997  1.2966 -0.3817
 6500SOL    HW220321   5.915   2.301   1.152 -0.4583  0.2193  1.0935
 6501SOL     OW20322   0.866   4.106   3.518  1.0154  0.0924 -0.4414
 6501SOL    HW120323   0.838   4.081   3.610  1.7480  1.7863  0.2831
 6501SOL    HW220324   0.933   4.179   3.522  0.3879  0.8496 -2.3595
 6502SOL     OW20325   0.704   4.268   2.693  0.4946 -0.1280 -0.3544
 6502SOL    HW120326   0.622   4.326   2.688  1.2769  1.0953  0.5099
 6502SOL    HW220327   0.781   4.316   2.651  1.4080 -0.0828  1.3418
 6503SOL     OW20328   3.304   4.270   1.018  0.0582  0.6177  0.0895
 6503SOL    HW120329   3.345   4.295   1.106  2.7594 -1.3584 -0.4966
 6503SOL    HW220330   3.230   4.204   1.035  1.8077 -1.2704  0.9064
 6504SOL     OW20331   6.639   3.144   5.879 -0.0340  0.0043  0.0112
 6504SOL    HW120332   6.714   3.210   5.884  0.1710 -0.3242  1.9302
 6504SOL    HW220333   6.573   3.174   5.811  1.0371  1.1472 -0.5591
 6505SOL     OW20334   4.958   3.513   3.424  0.3904 -0.3408  0.5063
 6505SOL    HW120335   4.911   3.477   3.504  1.7982 -1.0369  1.0448
 6505SOL    HW220336   5.055   3.524   3.445  0.4752  1.2170 -0.5158
 6506SOL     OW20337   2.312   0.416   5.129  0.3086  0.4823  0.4399
 6506SOL    HW120338   2.231   0.373   5.169 -0.1059  0.7272 -0.1292
 6506SOL    HW220339   2.288   0.507   5.096  0.6850  0.3399 -0.2377
 6507SOL     OW20340   3.828   4.979   4.413 -0.2300  0.2511  0.3410
 6507SOL    HW120341   3.821   4.986   4.314  0.3776 -0.0491  0.2744
 6507SOL    HW220342   3.736   4.981   4.453 -0.5400 -0.6168 -0.2966
 6508SOL     OW20343   2.243   6.262   3.006  0.3523 -0.3976  0.6019
 6508SOL    HW120344   2.321   6.256   3.068 -0.5813 -1.4523  1.7009
 6508SOL    HW220345   2.159   6.276   3.058 -0.5170 -1.8015 -0.3898
 6509SOL     OW20346   1.491   6.425   1.289 -0.3797  1.0255 -0.0010
 6509SOL    HW120347   1.444   6.336   1.292 -0.6815  1.1936  0.3081
 6509SOL    HW220348   1.562   6.427   1.359  0.9837  0.2884 -1.2809
 6510SOL     OW20349   2.835   2.089   1.800  0.2962 -0.1921 -0.0823
 6510SOL    HW120350   2.747   2.105   1.755  0.6747  3.5028  0.1854
 6510SOL    HW220351   2.833   2.128   1.892  2.3797  0.5078 -0.2864
 6511SOL     OW20352   0.719   3.952   1.454  0.1212 -0.2315  0.0999
 6511SOL    HW120353   0.758   3.861   1.445  1.1057 -0.0620  2.0541
 6511SOL    HW220354   0.626   3.945   1.489  0.5767 -0.4784  1.2961
 6512SOL     OW20355   6.912   1.291   6.622 -0.0290  0.0317  0.7649
 6512SOL    HW120356   6.935   1.200   6.656  0.4762  0.0714  0.5434
 6512SOL    HW220357   6.996   1.337   6.593 -0.4921 -0.2314 -1.1083
 6513SOL     OW20358   3.910   5.561   2.093  0.1556 -0.2138 -0.0923
 6513SOL    HW120359   3.815   5.573   2.119  0.6797  0.5619  1.5671
 6513SOL    HW220360   3.935   5.464   2.100 -0.1152 -0.2212  0.9776
 6514SOL     OW20361   5.222   1.977   6.613  0.0099  0.1149  0.5194
 6514SOL    HW120362   5.229   1.881   6.637 -0.4443  0.0481  0.3999
 6514SOL    HW220363   5.140   2.016   6.656  0.7815  0.7175  1.4760
 6515SOL     OW20364   3.304   4.114   6.133 -0.1740 -0.3661 -0.3561
 6515SOL    HW120365   3.286   4.027   6.086 -0.7128 -0.0211 -0.8177
 6515SOL    HW220366   3.219   4.147   6.176 -0.1818  0.2868 -0.8280
 6516SOL     OW20367   0.125   6.601   2.162 -0.3990  0.1139 -0.4194
 6516SOL    HW120368   0.153   6.643   2.076 -3.4529  0.1915 -1.5309
 6516SOL    HW220369   0.163   6.509   2.169  0.7755  0.5004 -1.2959
 6517SOL     OW20370   3.612   4.234   1.935  0.1672 -0.2323 -0.1604
 6517SOL    HW120371   3.567   4.208   2.021 -1.8325  0.1247 -1.0427
 6517SOL    HW220372   3.708   4.257   1.953  0.1332 -1.3868  1.7500
 6518SOL     OW20373   3.088   6.588   2.898  0.2295 -0.4577  0.5487
 6518SOL    HW120374   3.174   6.538   2.907  1.4239  1.1899 -1.1096
 6518SOL    HW220375   3.082   6.657   2.971  0.6331 -0.1132  0.2558
 6519SOL     OW20376   0.283   3.756   0.035  0.7338  0.3165 -0.0297
 6519SOL    HW120377   0.213   3.808  -0.014 -1.5524 -1.9408  0.6162
 6519SOL    HW220378   0.365   3.749  -0.022  0.1768  2.3864 -1.1408
 6520SOL     OW20379   0.110   5.428   0.898 -0.1886  0.5039  0.4265
 6520SOL    HW120380   0.172   5.484   0.952  1.0226 -1.4581  1.1570
 6520SOL    HW220381   0.163   5.371   0.834 -1.0215 -2.1970  1.9755
 6521SOL     OW20382   4.917   6.110   3.366 -0.6697  0.5671 -0.1933
 6521SOL    HW120383   4.871   6.196   3.389 -1.8875 -0.4571  1.4508
 6521SOL    HW220384   4.942   6.111   3.269 -0.0130  3.0308 -0.0633
 6522SOL     OW20385   1.958   3.799   4.821 -0.2567  0.0014 -0.1231
 6522SOL    HW120386   1.927   3.894   4.812  0.5408  0.2272 -0.5203
 6522SOL    HW220387   1.891   3.748   4.875 -0.0848  1.0719  1.1320
 6523SOL     OW20388   2.463   3.082   0.933  0.0967  0.1532 -0.0548
 6523SOL    HW120389   2.439   2.996   0.889  0.6723  0.0547 -0.1941
 6523SOL    HW220390   2.522   3.065   1.012  1.7649  0.4966 -1.1690
 6524SOL     OW20391   5.679   3.008   5.616 -0.2067 -0.0315  0.3212
 6524SOL    HW120392   5.687   2.945   5.539  1.2783 -0.6817  0.9783
 6524SOL    HW220393   5.713   3.098   5.589 -0.7883  0.0588 -0.1241
 6525SOL     OW20394   4.372   6.115   1.951 -0.5276 -0.2481 -0.7764
 6525SOL    HW120395   4.331   6.196   1.993  2.5863  1.1094  0.0293
 6525SOL    HW220396   4.332   6.033   1.991 -2.6051  0.8865 -0.3791
 6526SOL     OW20397   5.292   0.052   4.891 -0.1369  0.0083  0.4376
 6526SOL    HW120398   5.389   0.055   4.914  0.5003 -0.2636 -1.9643
 6526SOL    HW220399   5.237   0.067   4.973  1.9306  0.7154  1.7380
 6527SOL     OW20400   3.669   5.123   1.293 -0.6984 -0.1516  0.3640
 6527SOL    HW120401   3.627   5.184   1.225 -0.7474 -0.3416  0.2205
 6527SOL    HW220402   3.603   5.052   1.319 -0.1734 -1.0263 -0.5759
 6528SOL     OW20403   6.304   6.501   6.456  0.2653 -0.6964 -0.6018
 6528SOL    HW120404   6.264   6.439   6.387  0.1713  1.4588 -2.5961
 6528SOL    HW220405   6.373   6.451   6.508 -0.3167 -2.6866 -1.6028
 6529SOL     OW20406   6.173   2.731   5.216  0.1802  0.0530  0.0520
 6529SOL    HW120407   6.097   2.665   5.218  0.0391  0.2352  0.7130
 6529SOL    HW220408   6.258   2.682   5.199  0.0905 -0.3196  0.6305
 6530SOL     OW20409   5.609   4.225   1.124 -0.4599 -0.2341 -0.6857
 6530SOL    HW120410   5.606   4.320   1.093 -1.0697 -0.1573 -0.4082
 6530SOL    HW220411   5.608   4.164   1.044  1.4020 -0.0115 -0.9276
 6531SOL     OW20412   2.297   5.414   1.294  0.6459 -0.1220 -0.5786
 6531SOL    HW120413   2.392   5.389   1.275  0.9109  0.5447 -0.1815
 6531SOL    HW220414   2.290   5.453   1.386 -0.3861 -2.0621  0.2246
 6532SOL     OW20415   2.357   2.785   5.506 -0.2493 -0.1131  0.4420
 6532SOL    HW120416   2.388   2.713   5.444 -2.0118  0.4826 -1.2320
 6532SOL    HW220417   2.259   2.774   5.524 -0.5118  1.6872  0.3466
 6533SOL     OW20418   3.920   4.350   5.249 -0.0268  0.1710  0.1191
 6533SOL    HW120419   3.878   4.421   5.305  0.2997 -0.5247  1.3031
 6533SOL    HW220420   3.860   4.270   5.245 -1.1847  1.0813 -2.6492
 6534SOL     OW20421   3.566   3.816   0.174  0.5155  0.1032 -0.4281
 6534SOL    HW120422   3.543   3.763   0.256  1.0783  1.5895  0.7420
 6534SOL    HW220423   3.627   3.762   0.116  2.7264  0.1380  1.6953
 6535SOL     OW20424   0.671   1.800   0.526 -0.4847  0.3654  0.3276
 6535SOL    HW120425   0.703   1.714   0.565 -0.4298  1.3402  2.5712
 6535SOL    HW220426   0.748   1.864   0.517 -0.1609 -0.2621 -2.9446
 6536SOL     OW20427   1.288   2.532   5.150  0.0824  0.2666 -0.4813
 6536SOL    HW120428   1.300   2.509   5.247  0.8885  1.6336 -0.2263
 6536SOL    HW220429   1.206   2.486   5.115  0.1322 -0.7565  0.6706
 6537SOL     OW20430   3.008   6.483   6.260  0.1424 -0.0570  0.2194
 6537SOL    HW120431   3.019   6.487   6.161  1.3796 -0.3464  0.3328
 6537SOL    HW220432   2.953   6.403   6.284 -2.1174  1.2321 -0.3423
 6538SOL     OW20433   1.159   4.703   5.607 -0.1012 -0.4348  0.0854
 6538SOL    HW120434   1.095   4.707   5.683  0.3720 -0.0891  0.4667
 6538SOL    HW220435   1.173   4.794   5.570 -0.3415 -0.6023 -0.4303
 6539SOL     OW20436   0.490   2.523   4.890  0.2264  0.3463  0.2738
 6539SOL    HW120437   0.545   2.530   4.973  1.4300  0.5643 -0.5227
 6539SOL    HW220438   0.401   2.482   4.912  0.4527  0.5736  1.6888
 6540SOL     OW20439   4.370   6.913   2.235  0.4693  0.1931  0.3657
 6540SOL    HW120440   4.403   6.845   2.169 -0.3204  0.7829 -0.6559
 6540SOL    HW220441   4.401   6.887   2.327  1.4687 -0.7199 -0.2000
 6541SOL     OW20442   0.767   0.954   1.090 -0.3543  0.1988 -0.1039
 6541SOL    HW120443   0.763   0.879   1.024  0.7749 -1.1886  1.3340
 6541SOL    HW220444   0.719   0.928   1.173  1.0113  0.5857  0.8460
 6542SOL     OW20445   5.537   3.492   1.892 -0.3119  0.2726  0.3060
 6542SOL    HW120446   5.475   3.536   1.827  0.0140  1.1704  0.5931
 6542SOL    HW220447   5.601   3.560   1.929  1.0981 -0.7182 -0.2710
 6543SOL     OW20448   3.694   5.245   3.987  0.5458  0.5071 -0.0315
 6543SOL    HW120449   3.617   5.288   3.941  0.7858  1.5830  0.5499
 6543SOL    HW220450   3.753   5.315   4.027  4.0864  0.1010 -3.8376
 6544SOL     OW20451   5.953   0.326   2.887  0.4245 -0.0068 -0.0694
 6544SOL    HW120452   5.912   0.298   2.973 -0.7101 -0.6085 -0.7875
 6544SOL    HW220453   6.037   0.377   2.906  0.0494  0.1264  1.3916
 6545SOL     OW20454   5.435   0.829   5.080  0.5165  0.0184 -0.3665
 6545SOL    HW120455   5.526   0.836   5.040  1.4784 -3.4641  0.8870
 6545SOL    HW220456   5.374   0.782   5.016  0.5847 -0.7106  0.0870
 6546SOL     OW20457   5.847   2.136   4.791 -0.0507 -0.4632  0.7678
 6546SOL    HW120458   5.829   2.228   4.827  1.5245  0.1049  0.1533
 6546SOL    HW220459   5.870   2.141   4.694  0.2112 -1.4945  0.7579
 6547SOL     OW20460   6.413   2.052   1.385 -0.2948  0.3118 -0.5143
 6547SOL    HW120461   6.334   2.074   1.328  0.8149  1.3269 -1.7293
 6547SOL    HW220462   6.496   2.054   1.330  0.4867 -2.0814  0.4355
 6548SOL     OW20463   3.473   3.600   1.260 -0.4242  0.2456 -0.0409
 6548SOL    HW120464   3.450   3.682   1.313  1.0336  1.1075 -0.6455
 6548SOL    HW220465   3.549   3.553   1.304  0.8607  1.0123 -1.3447
 6549SOL     OW20466   6.631   5.631   1.675  0.1029 -0.6835  0.0863
 6549SOL    HW120467   6.646   5.703   1.608  1.2191  0.2506  1.2706
 6549SOL    HW220468   6.541   5.643   1.717  1.4548  2.1197  2.5635
 6550SOL     OW20469   1.737   0.817   0.302 -0.0399  0.0708 -0.1411
 6550SOL    HW120470   1.816   0.870   0.274 -0.6810  0.9729 -0.2776
 6550SOL    HW220471   1.687   0.786   0.220 -0.2092  0.1010 -0.0528
 6551SOL     OW20472   1.031   6.283   1.877 -0.0481  0.2318 -0.1114
 6551SOL    HW120473   1.061   6.318   1.966  0.0499 -0.7696  0.2672
 6551SOL    HW220474   0.969   6.206   1.892  1.4491 -1.1651 -0.9150
 6552SOL     OW20475   0.419   6.568   6.942  0.1827  0.0219  0.3169
 6552SOL    HW120476   0.333   6.536   6.901 -0.9665  2.1803  0.8589
 6552SOL    HW220477   0.471   6.621   6.874  1.0977 -1.2016  0.0171
 6553SOL     OW20478   1.284   1.513   4.323  0.5495  0.5309  0.1260
 6553SOL    HW120479   1.241   1.459   4.251  0.1971  2.0823 -0.8705
 6553SOL    HW220480   1.252   1.481   4.412 -0.8233  0.0986 -0.4922
 6554SOL     OW20481   3.393   0.478   3.452  0.0770 -0.5961  0.4043
 6554SOL    HW120482   3.388   0.577   3.443 -1.0523 -0.7757 -1.7967
 6554SOL    HW220483   3.307   0.444   3.488 -0.6547 -0.9319 -1.5300
 6555SOL     OW20484   0.686   0.758   3.819  0.0560 -0.1483 -0.0836
 6555SOL    HW120485   0.675   0.672   3.868 -1.7031 -0.0345 -0.2217
 6555SOL    HW220486   0.601   0.780   3.770  0.7836  1.1988 -0.8087
 6556SOL     OW20487   3.974   1.016   2.108  0.4088 -0.4946  0.0792
 6556SOL    HW120488   3.964   1.097   2.050  0.9730  0.3316  1.0918
 6556SOL    HW220489   4.026   1.040   2.190 -0.9645 -1.4287  1.2949
 6557SOL     OW20490   3.100   1.773   4.690 -0.2649  0.2929 -0.3040
 6557SOL    HW120491   3.033   1.846   4.699 -0.0087  0.5786 -0.6911
 6557SOL    HW220492   3.137   1.750   4.780 -0.0043  0.9667 -0.2371
 6558SOL     OW20493   2.358   3.295   1.939 -0.6710  0.6069 -0.7125
 6558SOL    HW120494   2.348   3.386   1.898  0.8980  0.9043 -0.5031
 6558SOL    HW220495   2.300   3.289   2.021 -1.2072  1.2152 -1.0365
 6559SOL     OW20496   5.308   5.800   5.396  0.4207 -0.3447 -0.6907
 6559SOL    HW120497   5.306   5.764   5.302  1.1727  0.6426 -1.0968
 6559SOL    HW220498   5.393   5.773   5.440  1.9391  2.4749 -1.6672
 6560SOL     OW20499   5.813   0.214   3.107  0.1875  0.6028 -0.2804
 6560SOL    HW120500   5.813   0.310   3.134  0.4841  0.6007 -0.2595
 6560SOL    HW220501   5.731   0.195   3.053 -0.8980  0.3814  1.3647
 6561SOL     OW20502   1.851   3.511   2.173 -0.1070 -0.0318  0.0913
 6561SOL    HW120503   1.929   3.499   2.111 -0.9558 -2.8445 -0.6104
 6561SOL    HW220504   1.842   3.429   2.230 -2.2728  0.4426  0.4990
 6562SOL     OW20505   3.153   6.240   3.590 -0.2279 -0.4501 -0.1619
 6562SOL    HW120506   3.091   6.178   3.543 -1.4572  1.6915 -1.5059
 6562SOL    HW220507   3.235   6.255   3.534 -1.5405  1.8369 -1.6403
 6563SOL     OW20508   0.979   1.109   4.008 -0.6319  0.5849 -0.0778
 6563SOL    HW120509   0.987   1.134   3.911  2.3572 -0.3365 -0.1727
 6563SOL    HW220510   0.989   1.010   4.018 -0.4705  0.7150  1.2259
 6564SOL     OW20511   5.568   3.078   6.175 -0.6304 -0.0837 -0.3772
 6564SOL    HW120512   5.478   3.042   6.149 -0.3800  0.0280 -1.4259
 6564SOL    HW220513   5.611   3.121   6.096 -0.3270  1.2876  0.5062
 6565SOL     OW20514   4.827   2.647   4.009  0.3688  0.8655  0.0839
 6565SOL    HW120515   4.793   2.645   4.103  0.6423  1.5084  0.1988
 6565SOL    HW220516   4.807   2.559   3.965  1.0883  0.1956  1.0462
 6566SOL     OW20517   0.308   0.694   6.969 -0.3655  0.5118  0.2484
 6566SOL    HW120518   0.331   0.639   7.050 -0.7978  2.6158  1.8428
 6566SOL    HW220519   0.238   0.647   6.916  1.4888 -1.9675 -0.1542
 6567SOL     OW20520   6.343   0.689   3.011  0.5409 -0.2894 -0.1784
 6567SOL    HW120521   6.384   0.670   3.100  1.1503  0.8965 -0.1865
 6567SOL    HW220522   6.410   0.672   2.939 -0.1460 -1.8761 -0.4938
 6568SOL     OW20523   1.197   2.314   2.723 -0.2114 -0.0094 -0.9060
 6568SOL    HW120524   1.236   2.241   2.778 -0.7703 -0.2264 -0.7829
 6568SOL    HW220525   1.137   2.371   2.780  1.3199  1.4231 -0.6581
 6569SOL     OW20526   0.892   1.552   3.263 -0.0227 -0.3989 -0.0114
 6569SOL    HW120527   0.894   1.647   3.292  0.4725 -0.2889 -0.3861
 6569SOL    HW220528   0.798   1.524   3.246 -0.2001 -0.0745  0.4085
 6570SOL     OW20529   3.656   1.905   3.650 -0.3493 -0.1698  0.1785
 6570SOL    HW120530   3.570   1.857   3.670  0.7434 -1.6247  1.6262
 6570SOL    HW220531   3.685   1.955   3.732 -0.3938  1.3310 -0.6717
 6571SOL     OW20532   1.513   4.092   3.273 -0.0253 -0.1057 -0.0256
 6571SOL    HW120533   1.478   4.178   3.312 -0.1160 -0.2646  0.2548
 6571SOL    HW220534   1.591   4.112   3.214 -1.8334  0.4946 -2.3584
 6572SOL     OW20535   2.004   1.529   3.529  0.5104  0.0217 -0.1997
 6572SOL    HW120536   1.964   1.592   3.596  3.3100  1.2064  0.4946
 6572SOL    HW220537   2.002   1.436   3.566 -1.8457 -0.0625 -0.3833
 6573SOL     OW20538   4.708   3.591   2.419  0.7248 -0.3190  0.1337
 6573SOL    HW120539   4.757   3.675   2.443  3.4949 -2.5795  3.4308
 6573SOL    HW220540   4.621   3.588   2.469  0.7047  0.4242  0.1647
 6574SOL     OW20541   6.328   0.547   1.209  0.4447 -0.6661 -0.1601
 6574SOL    HW120542   6.328   0.554   1.309 -1.5097 -0.4193 -0.1249
 6574SOL    HW220543   6.323   0.639   1.170 -0.2976 -0.8106 -0.4249
 6575SOL     OW20544   6.900   5.392   1.067  0.1533  0.4738  0.2542
 6575SOL    HW120545   6.982   5.370   1.013 -1.9876 -3.5298 -1.8374
 6575SOL    HW220546   6.916   5.370   1.163  1.4095 -0.6236 -0.1905
 6576SOL     OW20547   3.963   4.602   5.788 -0.8055  0.1630  0.2593
 6576SOL    HW120548   4.007   4.527   5.739 -0.1613  0.4479  0.3861
 6576SOL    HW220549   3.911   4.566   5.865 -2.4020 -0.3612 -1.0073
 6577SOL     OW20550   4.491   2.879   1.812 -1.0011 -0.0299 -0.3153
 6577SOL    HW120551   4.546   2.904   1.892  0.0980  0.2935 -1.1490
 6577SOL    HW220552   4.418   2.946   1.799 -0.6609  0.3914 -0.0765
 6578SOL     OW20553   4.547   5.863   4.485 -0.2430  0.2762  0.6999
 6578SOL    HW120554   4.638   5.822   4.474  0.8153  2.3471  1.1670
 6578SOL    HW220555   4.511   5.888   4.395 -0.9676 -1.7070  0.3940
 6579SOL     OW20556   2.340   4.485   6.921  0.1543  0.1447 -0.0434
 6579SOL    HW120557   2.385   4.558   6.869 -0.3334 -0.4350 -1.3262
 6579SOL    HW220558   2.263   4.449   6.869 -0.1959 -0.6524  0.9782
 6580SOL     OW20559   0.300   3.506   5.631  0.7444 -0.0737 -0.1896
 6580SOL    HW120560   0.219   3.468   5.585  0.9341  1.1109 -1.5966
 6580SOL    HW220561   0.271   3.570   5.702  0.4434 -1.9664  1.4691
 6581SOL     OW20562   6.531   3.452   4.129  0.4075 -0.0635  0.4903
 6581SOL    HW120563   6.550   3.524   4.195  2.6047  0.1728 -0.2821
 6581SOL    HW220564   6.583   3.370   4.153  1.9741  0.3085 -1.3220
 6582SOL     OW20565   6.789   5.005   5.946 -0.3742 -0.1304 -0.1359
 6582SOL    HW120566   6.859   5.026   6.014  0.3057 -1.9702 -0.1996
 6582SOL    HW220567   6.811   5.050   5.860  1.1131 -1.1883 -0.3380
 6583SOL     OW20568   0.638   1.650   1.703 -0.1936  0.4434 -0.2908
 6583SOL    HW120569   0.595   1.711   1.770 -2.3419 -1.5719  0.2917
 6583SOL    HW220570   0.718   1.606   1.745 -0.8515  0.0529  0.5696
 6584SOL     OW20571   6.019   4.043   2.350  0.1641 -0.4551  0.5962
 6584SOL    HW120572   6.056   4.113   2.289  1.4509 -1.6116  0.0016
 6584SOL    HW220573   5.985   4.087   2.433  2.4967  0.8055  1.0062
 6585SOL     OW20574   1.328   0.839   0.820 -0.1071 -0.0049 -0.6057
 6585SOL    HW120575   1.268   0.822   0.742 -0.5519 -0.5840 -0.1503
 6585SOL    HW220576   1.291   0.793   0.901  1.2012 -0.7733 -0.4225
 6586SOL     OW20577   4.841   4.328   3.254  0.0149 -0.2021  0.0693
 6586SOL    HW120578   4.835   4.427   3.260  0.5785 -0.2127  1.0626
 6586SOL    HW220579   4.838   4.299   3.159  3.1747  1.0081 -0.5079
 6587SOL     OW20580   2.950   3.770   1.499 -0.2533 -0.1028 -0.1373
 6587SOL    HW120581   2.860   3.762   1.455 -2.0917  2.2317  2.7786
 6587SOL    HW220582   2.938   3.778   1.598  3.4751 -2.7581  0.7434
 6588SOL     OW20583   2.131   4.125   5.543 -0.0867  0.3520  0.4669
 6588SOL    HW120584   2.058   4.172   5.495  0.0091 -1.4465 -1.6194
 6588SOL    HW220585   2.093   4.052   5.600  0.0046 -1.4682 -1.6429
 6589SOL     OW20586   6.514   6.233   0.155 -0.2747 -0.1759  0.3735
 6589SOL    HW120587   6.581   6.246   0.228  1.6878 -0.0830 -1.3161
 6589SOL    HW220588   6.488   6.322   0.118 -0.8145 -0.2477  0.5743
 6590SOL     OW20589   0.755   6.394   1.964 -0.6627  0.2177  0.2512
 6590SOL    HW120590   0.712   6.474   2.006 -0.5423  0.8467 -0.7937
 6590SOL    HW220591   0.693   6.355   1.895 -1.2538 -1.3589  1.5997
 6591SOL     OW20592   0.729   6.662   2.442  0.4064  0.5337  0.2085
 6591SOL    HW120593   0.736   6.715   2.527  1.2793  0.0158  0.4662
 6591SOL    HW220594   0.639   6.677   2.401  0.2647  1.3984  0.8185
 6592SOL     OW20595   0.656   4.381   0.267 -0.2355 -0.1564  0.7070
 6592SOL    HW120596   0.697   4.330   0.342  0.2958  0.1510  0.6299
 6592SOL    HW220597   0.718   4.380   0.188 -0.8405 -0.5796  0.2320
 6593SOL     OW20598   3.726   1.686   4.256 -0.1765  0.0067 -0.3897
 6593SOL    HW120599   3.726   1.590   4.228 -0.8285  0.3489 -1.6705
 6593SOL    HW220600   3.810   1.730   4.222  0.0692 -0.0726  0.1003
 6594SOL     OW20601   2.794   5.615   1.692 -0.3234 -0.0194 -0.0277
 6594SOL    HW120602   2.778   5.516   1.695  0.7286 -0.2092 -0.1179
 6594SOL    HW220603   2.717   5.663   1.735 -1.1424 -0.8369 -0.5518
 6595SOL     OW20604   2.775   5.095   6.445 -0.6136  0.3290 -0.4753
 6595SOL    HW120605   2.822   5.053   6.523  0.6698  0.0492 -1.3739
 6595SOL    HW220606   2.736   5.183   6.474  0.4272  0.5486  0.3211
 6596SOL     OW20607   5.505   6.009   4.041 -0.0635  0.4924 -0.1806
 6596SOL    HW120608   5.514   6.087   3.979  1.1883  0.0843 -0.5742
 6596SOL    HW220609   5.459   5.934   3.994  0.7356  0.2390 -0.5797
 6597SOL     OW20610   1.758   6.771   4.875 -0.2187 -0.3134  0.3252
 6597SOL    HW120611   1.797   6.679   4.888 -1.0732 -0.4345  2.3178
 6597SOL    HW220612   1.716   6.777   4.784  2.5416 -0.8407 -1.0789
 6598SOL     OW20613   5.821   1.719   1.940 -0.1126  0.2900  0.1917
 6598SOL    HW120614   5.910   1.684   1.910  0.3786  1.3656  0.3328
 6598SOL    HW220615   5.815   1.713   2.039  0.3493  1.4351  0.2981
 6599SOL     OW20616   0.463   4.187   3.661  0.4949 -0.2304 -0.5475
 6599SOL    HW120617   0.534   4.202   3.593  0.8566 -0.5254 -0.2382
 6599SOL    HW220618   0.505   4.167   3.750  0.1204  2.3780  0.3157
 6600SOL     OW20619   6.733   2.187   6.163 -0.3217  0.3439  0.2153
 6600SOL    HW120620   6.798   2.115   6.189  0.2226  1.0896  0.9608
 6600SOL    HW220621   6.649   2.177   6.216 -1.8752 -2.0473 -2.3304
 6601SOL     OW20622   0.662   5.137   6.721 -0.1669 -0.0229  0.0727
 6601SOL    HW120623   0.595   5.105   6.653  0.3443 -1.2743  0.1216
 6601SOL    HW220624   0.619   5.204   6.781 -1.0303  0.0839 -0.6299
 6602SOL     OW20625   6.801   1.863   3.534  0.1596  0.0179 -0.5846
 6602SOL    HW120626   6.705   1.855   3.507  0.0217 -0.3739  0.0068
 6602SOL    HW220627   6.827   1.785   3.590  0.3743  0.8986  0.5711
 6603SOL     OW20628   6.845   4.761   2.317  0.0476  0.5555 -0.0535
 6603SOL    HW120629   6.838   4.808   2.406 -0.4049  0.2917  0.0556
 6603SOL    HW220630   6.796   4.674   2.322  0.6386  0.2031 -0.3428
 6604SOL     OW20631   5.761   2.064   4.250  0.6730  0.4677 -0.1263
 6604SOL    HW120632   5.829   2.099   4.185 -0.8573  2.6238 -0.6894
 6604SOL    HW220633   5.700   2.000   4.202  1.4347 -0.4219  0.0472
 6605SOL     OW20634   5.325   1.923   4.055  0.2589  0.2055 -0.2947
 6605SOL    HW120635   5.332   2.021   4.035  1.3412  1.0875  3.6969
 6605SOL    HW220636   5.231   1.901   4.081 -0.1346 -0.0470 -1.7903
 6606SOL     OW20637   6.920   2.611   6.126 -0.6913  0.1870 -0.4135
 6606SOL    HW120638   6.884   2.700   6.100 -0.7077 -0.1274 -1.5109
 6606SOL    HW220639   6.926   2.553   6.045 -1.3126 -1.0413  0.3913
 6607SOL     OW20640   0.639   6.991   2.930 -0.0838  0.5897  0.8765
 6607SOL    HW120641   0.649   6.897   2.963 -1.0335 -0.4358 -1.5345
 6607SOL    HW220642   0.663   7.054   3.004  0.9672 -1.5370  2.4673
 6608SOL     OW20643   0.889   0.665   1.184  0.0458  0.1679  0.0751
 6608SOL    HW120644   0.948   0.584   1.182  0.2332  0.2979 -0.9040
 6608SOL    HW220645   0.816   0.655   1.117 -0.4672  0.4319  0.5799
 6609SOL     OW20646   5.939   3.355   2.915  0.3786 -0.0897  0.0285
 6609SOL    HW120647   5.972   3.354   2.821  1.1923  1.9145  0.2460
 6609SOL    HW220648   5.882   3.275   2.931  0.9730 -0.9594 -1.8827
 6610SOL     OW20649   2.447   4.743   0.869 -0.0972 -0.4190 -0.0505
 6610SOL    HW120650   2.519   4.810   0.888 -1.0261  0.1225  1.8767
 6610SOL    HW220651   2.472   4.689   0.789  1.2837  1.3704 -0.9117
 6611SOL     OW20652   5.206   6.031   3.922  0.0543  0.6906 -0.0126
 6611SOL    HW120653   5.146   6.073   3.853 -0.5978 -1.6955 -1.0031
 6611SOL    HW220654   5.277   5.979   3.876  0.8396  0.6801  1.1658
 6612SOL     OW20655   5.820   1.274   6.499  0.1458  0.1215 -0.1790
 6612SOL    HW120656   5.766   1.263   6.583  0.6101 -1.6915 -0.0784
 6612SOL    HW220657   5.760   1.264   6.420 -0.4515  2.6672 -0.1267
 6613SOL     OW20658   5.304   1.192   5.853 -0.3011 -0.2591 -0.0205
 6613SOL    HW120659   5.225   1.205   5.794  0.4233  1.3393 -0.6933
 6613SOL    HW220660   5.317   1.272   5.911  0.6768 -0.5943  0.2475
 6614SOL     OW20661   1.582   2.186   6.611 -0.7379 -0.5855 -0.0439
 6614SOL    HW120662   1.595   2.096   6.570 -0.0850 -0.7829  0.5645
 6614SOL    HW220663   1.671   2.222   6.641 -0.9851  0.2891 -0.3371
 6615SOL     OW20664   4.848   1.690   6.194  0.6192  0.0729  0.3964
 6615SOL    HW120665   4.850   1.766   6.258  1.5071 -0.7227  1.3707
 6615SOL    HW220666   4.882   1.720   6.105  0.7495  0.8702  0.7059
 6616SOL     OW20667   2.121   1.209   4.411  0.5707  0.6873 -0.4977
 6616SOL    HW120668   2.107   1.296   4.363 -1.1525  1.0179  0.5261
 6616SOL    HW220669   2.110   1.223   4.509 -0.0934 -0.7329 -0.3486
 6617SOL     OW20670   0.795   5.012   2.964 -0.3844  0.1219 -0.5265
 6617SOL    HW120671   0.779   5.056   3.052 -2.1106  0.2137 -0.8546
 6617SOL    HW220672   0.893   5.012   2.944 -0.0354  0.7432  1.0462
 6618SOL     OW20673   4.900   5.281   6.651  0.0972  0.0213 -0.5006
 6618SOL    HW120674   4.960   5.356   6.677 -0.1672  0.8731 -2.2099
 6618SOL    HW220675   4.948   5.194   6.660  0.8776  0.5087  0.1338
 6619SOL     OW20676   6.985   3.899   6.402  0.7246 -0.5200 -0.0867
 6619SOL    HW120677   6.939   3.960   6.467  2.5810 -0.4494  1.2412
 6619SOL    HW220678   6.929   3.816   6.390 -0.4188  0.1537  0.3603
 6620SOL     OW20679   1.126   1.020   1.868  0.0673 -0.2240  0.5255
 6620SOL    HW120680   1.027   1.029   1.878  0.2064  2.5868  0.0981
 6620SOL    HW220681   1.146   0.985   1.776 -0.5491  2.7396 -0.8671
 6621SOL     OW20682   0.039   2.196   6.068  0.1099 -0.5117  0.1549
 6621SOL    HW120683  -0.035   2.141   6.107 -1.0267 -0.4070 -1.7651
 6621SOL    HW220684   0.124   2.143   6.068 -0.0014 -0.7585  2.0905
 6622SOL     OW20685   5.921   0.827   6.594  0.2422 -0.4705  0.5416
 6622SOL    HW120686   5.901   0.802   6.499 -1.5095  0.5757  0.5827
 6622SOL    HW220687   5.958   0.920   6.596  1.7082 -1.0460  0.7860
 6623SOL     OW20688   1.694   3.221   0.071 -0.2515 -0.2917 -0.0286
 6623SOL    HW120689   1.686   3.186  -0.022 -1.1726  1.7449 -0.7305
 6623SOL    HW220690   1.701   3.144   0.135 -1.8056 -1.7951 -1.5578
 6624SOL     OW20691   3.412   0.772   1.014  0.1265  0.1278 -0.3483
 6624SOL    HW120692   3.493   0.787   0.959 -0.3287 -1.1584 -1.4328
 6624SOL    HW220693   3.372   0.683   0.991 -0.5383 -0.1018  1.4916
 6625SOL     OW20694   4.822   3.254   0.429  0.1023 -0.1482  0.1128
 6625SOL    HW120695   4.917   3.250   0.396  0.6267  0.2180  1.5440
 6625SOL    HW220696   4.813   3.327   0.497 -0.9241 -0.9609  0.8694
 6626SOL     OW20697   5.167   2.812   2.784 -0.1185 -0.5051  0.6591
 6626SOL    HW120698   5.265   2.795   2.796 -0.1376 -0.8280  0.4107
 6626SOL    HW220699   5.127   2.736   2.733 -0.6424 -0.7272  1.3881
 6627SOL     OW20700   4.838   1.574   2.273  0.4238  0.2363  0.5407
 6627SOL    HW120701   4.770   1.517   2.319 -1.7403  0.7988 -1.7169
 6627SOL    HW220702   4.809   1.590   2.179  3.4771  1.0002 -0.3575
 6628SOL     OW20703   2.852   2.719   5.312  0.3517  0.2941  0.1199
 6628SOL    HW120704   2.781   2.710   5.382 -0.6863  0.5473 -0.8661
 6628SOL    HW220705   2.902   2.804   5.326  0.3746  0.1761  0.7525
 6629SOL     OW20706   5.590   0.062   2.492  0.5045  0.1415 -0.2884
 6629SOL    HW120707   5.670   0.094   2.442 -0.2679  0.7052 -1.1862
 6629SOL    HW220708   5.515   0.125   2.479 -0.3291 -0.7771 -0.0974
 6630SOL     OW20709   6.275   0.267   2.520  0.2078  0.0943 -0.1532
 6630SOL    HW120710   6.264   0.211   2.601 -1.4670  0.2736 -0.2164
 6630SOL    HW220711   6.326   0.350   2.543 -0.5845  0.3389  0.8302
 6631SOL     OW20712   0.238   1.010   2.067  0.0261 -0.5864 -0.2170
 6631SOL    HW120713   0.294   0.938   2.107  1.6914  0.6449 -0.2593
 6631SOL    HW220714   0.259   1.018   1.969 -2.8534 -2.4909 -1.1153
 6632SOL     OW20715   6.988   4.673   1.686 -0.1157 -0.9782 -0.3188
 6632SOL    HW120716   7.068   4.732   1.688  0.3509 -1.6573  0.6702
 6632SOL    HW220717   7.017   4.579   1.667 -0.7766 -1.1042 -0.7565
 6633SOL     OW20718   6.871   0.250   5.541 -1.0623  0.2543  0.0348
 6633SOL    HW120719   6.903   0.237   5.447 -0.5948 -0.4085  0.2763
 6633SOL    HW220720   6.937   0.209   5.605 -1.4604  0.5360  0.6428
 6634SOL     OW20721   3.042   2.213   1.440 -0.2212 -0.4601  0.0060
 6634SOL    HW120722   2.973   2.283   1.459  2.1087  1.5941  1.5719
 6634SOL    HW220723   3.096   2.240   1.360  1.2708  0.0998  1.1521
 6635SOL     OW20724   2.392   1.831   1.002  0.2962 -0.6114 -0.3578
 6635SOL    HW120725   2.344   1.837   1.089 -1.0180 -0.0973 -1.0840
 6635SOL    HW220726   2.378   1.916   0.950  1.4350 -0.7221 -0.8995
 6636SOL     OW20727   4.159   2.317   0.583 -0.0878 -0.8585 -0.6477
 6636SOL    HW120728   4.140   2.388   0.515 -0.1906 -0.6447 -0.4028
 6636SOL    HW220729   4.084   2.251   0.585 -0.9689  0.0928  0.4549
 6637SOL     OW20730   6.513   5.009   5.721 -0.3968  0.2005  0.1387
 6637SOL    HW120731   6.607   4.987   5.695 -1.0581 -0.4531 -1.9304
 6637SOL    HW220732   6.495   4.979   5.814  1.4188  0.2841  0.5414
 6638SOL     OW20733   3.113   0.022   0.741 -0.1082 -0.0418  0.1110
 6638SOL    HW120734   3.036   0.070   0.698  0.1165 -0.6802 -1.0462
 6638SOL    HW220735   3.122  -0.069   0.700  0.7235 -0.2814  0.8609
 6639SOL     OW20736   3.752   2.151   5.649  0.6904  0.3696 -0.2103
 6639SOL    HW120737   3.743   2.084   5.576  0.0166 -0.0707  0.2679
 6639SOL    HW220738   3.724   2.241   5.615  4.6023  1.1966 -1.8578
 6640SOL     OW20739   3.357   6.087   0.302  0.4284 -0.1880  0.2433
 6640SOL    HW120740   3.288   6.156   0.282 -0.5498 -1.1386  0.1866
 6640SOL    HW220741   3.362   6.022   0.227 -0.4099 -1.5290  1.2986
 6641SOL     OW20742   1.600   5.833   3.566  0.8251  0.0575  0.1811
 6641SOL    HW120743   1.528   5.784   3.517  0.7485 -1.8765  2.0580
 6641SOL    HW220744   1.669   5.864   3.500 -0.9524  0.6662 -1.4883
 6642SOL     OW20745   0.654   4.167   5.805 -0.6380 -0.6914  0.4811
 6642SOL    HW120746   0.745   4.173   5.847 -0.2035  1.4783 -0.6221
 6642SOL    HW220747   0.654   4.095   5.735 -0.7937 -2.9568  2.6888
 6643SOL     OW20748   3.160   3.900   1.301 -0.9300  0.3981 -0.4021
 6643SOL    HW120749   3.071   3.875   1.339 -0.3859 -0.3100  0.4405
 6643SOL    HW220750   3.181   3.840   1.224 -0.2284 -0.8919  0.7659
 6644SOL     OW20751   0.430   5.079   6.533  0.2166  0.2681 -0.6464
 6644SOL    HW120752   0.340   5.059   6.571  0.2874 -0.2438 -0.7308
 6644SOL    HW220753   0.449   5.016   6.458  1.0576 -0.2876  0.0109
 6645SOL     OW20754   3.014   4.442   5.919  0.3889  0.2243 -0.0873
 6645SOL    HW120755   3.041   4.517   5.979  0.8529  0.7162 -0.8988
 6645SOL    HW220756   2.944   4.473   5.855  0.2589 -0.1605 -0.1374
 6646SOL     OW20757   4.971   3.014   2.790  0.1190 -0.0130 -0.8302
 6646SOL    HW120758   5.059   2.967   2.790  0.2042  0.0723  1.0103
 6646SOL    HW220759   4.906   2.964   2.733  0.3088 -2.1773  0.7630
 6647SOL     OW20760   3.414   5.656   1.019 -0.4836 -0.6128  0.2938
 6647SOL    HW120761   3.482   5.726   1.042  0.3802 -0.7026 -1.7452
 6647SOL    HW220762   3.381   5.613   1.102 -0.7046  1.8943  1.6023
 6648SOL     OW20763   4.117   4.139   5.401 -0.2061 -0.2342  0.1371
 6648SOL    HW120764   4.181   4.215   5.397  1.4640 -1.6117 -0.7037
 6648SOL    HW220765   4.078   4.123   5.311 -1.7699  0.5808  0.6409
 6649SOL     OW20766   2.228   2.271   2.794  0.4987 -0.2012  0.1465
 6649SOL    HW120767   2.286   2.347   2.824 -0.7021  1.4189 -1.3555
 6649SOL    HW220768   2.244   2.254   2.697 -1.5340  0.3403 -0.3241
 6650SOL     OW20769   1.940   2.812   5.769 -0.1791 -0.2335  0.1063
 6650SOL    HW120770   1.910   2.902   5.736 -0.0992  0.3061  1.4634
 6650SOL    HW220771   1.865   2.747   5.764  0.0264 -0.3895 -1.8348
 6651SOL     OW20772   4.069   0.921   1.854  0.4196 -0.4909 -0.1126
 6651SOL    HW120773   4.069   0.915   1.953  1.2371 -1.5831 -0.1619
 6651SOL    HW220774   4.034   1.011   1.825 -1.4752 -0.7973  1.0940
 6652SOL     OW20775   2.476   3.248   6.205  0.2677  0.6525  0.1798
 6652SOL    HW120776   2.380   3.227   6.221 -0.0493  1.3670 -0.7291
 6652SOL    HW220777   2.524   3.256   6.293  0.0808 -2.2465  0.6144
 6653SOL     OW20778   0.477   2.799   2.738  0.0867 -0.4724  0.0355
 6653SOL    HW120779   0.472   2.865   2.813 -0.3218  2.1051 -2.1277
 6653SOL    HW220780   0.566   2.753   2.740 -0.1794 -1.0409  2.4573
 6654SOL     OW20781   5.848   1.343   3.966 -0.2233 -0.0659 -0.4726
 6654SOL    HW120782   5.809   1.324   3.876 -1.1846  0.7823 -0.2564
 6654SOL    HW220783   5.774   1.357   4.032  0.4725 -0.3561  0.3847
 6655SOL     OW20784   3.244   6.608   6.709  0.6430 -0.1049 -0.3203
 6655SOL    HW120785   3.187   6.538   6.665  0.1056 -0.3486  0.7383
 6655SOL    HW220786   3.278   6.671   6.639 -2.4392  1.1634 -0.8539
 6656SOL     OW20787   4.014   1.532   3.286  0.7539  0.0636  0.1560
 6656SOL    HW120788   3.964   1.582   3.356  2.0752  2.6768 -0.6404
 6656SOL    HW220789   4.035   1.440   3.319 -1.3342  0.1476  1.8971
 6657SOL     OW20790   5.123   6.035   5.874 -0.2293 -0.4074 -0.8483
 6657SOL    HW120791   5.084   5.949   5.841  0.4819 -0.3679 -1.8590
 6657SOL    HW220792   5.204   6.016   5.929 -1.6521 -0.5005  1.3652
 6658SOL     OW20793   3.901   1.669   6.491  0.3428  0.0330  0.7239
 6658SOL    HW120794   3.932   1.696   6.400 -0.3459 -0.3137  0.3797
 6658SOL    HW220795   3.847   1.742   6.531  1.7242  0.7212  1.4039
 6659SOL     OW20796   5.902   5.781   6.446 -0.3358  0.2652  0.1148
 6659SOL    HW120797   5.893   5.880   6.440  0.1906  0.5452  2.7857
 6659SOL    HW220798   5.971   5.758   6.514 -1.8058 -1.9495  0.9821
 6660SOL     OW20799   0.641   2.463   6.167 -0.3307 -0.2260 -0.3332
 6660SOL    HW120800   0.731   2.490   6.133 -0.3084 -0.1508 -0.2204
 6660SOL    HW220801   0.574   2.468   6.093 -0.5428  1.1994 -0.0719
 6661SOL     OW20802   5.996   4.501   4.645  0.5298 -0.5523  0.1732
 6661SOL    HW120803   5.906   4.462   4.625 -0.2522  0.3585  1.7723
 6661SOL    HW220804   5.996   4.599   4.623  0.4002 -0.0573  2.1796
 6662SOL     OW20805   5.492   6.204   6.246 -0.2882  0.2932  0.2357
 6662SOL    HW120806   5.396   6.219   6.266 -0.2625 -0.0054  0.5917
 6662SOL    HW220807   5.518   6.255   6.164 -0.7187  0.4669  0.2096
 6663SOL     OW20808   5.639   2.030   2.402  0.5221 -0.5892 -0.0950
 6663SOL    HW120809   5.605   2.039   2.308 -0.6319 -0.8747  0.2620
 6663SOL    HW220810   5.672   1.937   2.416 -1.0751 -1.1318  0.2970
 6664SOL     OW20811   3.110   3.086   1.279  0.7206  0.1260 -0.5130
 6664SOL    HW120812   3.157   3.055   1.362  1.8209  0.5427 -0.9654
 6664SOL    HW220813   3.092   3.184   1.286  1.3600  0.2857 -1.0151
 6665SOL     OW20814   4.465   1.923   4.312  0.7059 -0.5707  0.2709
 6665SOL    HW120815   4.390   1.922   4.378  0.9453 -1.4809  0.5471
 6665SOL    HW220816   4.552   1.935   4.361  1.0889 -3.1589  0.4048
 6666SOL     OW20817   4.375   3.877   0.411 -0.4410  0.1901 -0.8136
 6666SOL    HW120818   4.432   3.865   0.492 -1.2574 -0.7377 -0.3603
 6666SOL    HW220819   4.301   3.809   0.411 -1.3907  1.1809 -1.5231
 6667SOL     OW20820   6.647   0.139   2.378  0.2296 -0.0587  0.0600
 6667SOL    HW120821   6.624   0.189   2.295 -1.5414 -0.2124  0.4236
 6667SOL    HW220822   6.622   0.043   2.368  0.6930 -0.2331  0.5164
 6668SOL     OW20823   1.308   5.510   6.666  0.0593 -0.0438  0.0766
 6668SOL    HW120824   1.391   5.565   6.666 -1.3349  2.1756  0.7687
 6668SOL    HW220825   1.261   5.519   6.754 -1.7389  0.0786 -0.8416
 6669SOL     OW20826   5.172   3.455   2.519 -0.4857  0.6817 -0.1760
 6669SOL    HW120827   5.122   3.448   2.606 -0.9071  0.5004 -0.4237
 6669SOL    HW220828   5.182   3.364   2.479 -0.3713  0.7765 -0.3625
 6670SOL     OW20829   5.139   1.192   2.489 -0.0631 -0.7400  0.8040
 6670SOL    HW120830   5.102   1.214   2.579 -0.4972  0.8040  0.2882
 6670SOL    HW220831   5.114   1.265   2.425  0.0772 -1.8972 -0.6111
 6671SOL     OW20832   7.015   6.130   3.782  0.1520  0.5308 -0.7351
 6671SOL    HW120833   6.948   6.072   3.829  1.0228 -1.1714 -1.5113
 6671SOL    HW220834   6.993   6.134   3.685 -0.0477  1.7459 -0.6486
 6672SOL     OW20835   3.550   5.810   6.279  0.1305  0.7894  0.0530
 6672SOL    HW120836   3.596   5.744   6.220 -1.3452  0.0412 -0.3021
 6672SOL    HW220837   3.612   5.885   6.301  1.6810 -0.4547  0.0516
 6673SOL     OW20838   0.182   0.026   5.036  0.2222 -0.1582  0.4212
 6673SOL    HW120839   0.277   0.027   5.006 -0.0307 -1.4779 -0.5132
 6673SOL    HW220840   0.163  -0.058   5.087  0.3614  1.5943  3.5317
 6674SOL     OW20841   5.814   1.769   5.443 -0.2936 -0.1403  0.3467
 6674SOL    HW120842   5.809   1.866   5.422  0.8045 -0.2978 -0.7060
 6674SOL    HW220843   5.726   1.738   5.480 -1.4584  0.7310 -1.5674
 6675SOL     OW20844   3.635   4.020   5.604 -0.0634 -0.2348  0.1862
 6675SOL    HW120845   3.711   3.988   5.548 -0.9638 -0.5012 -0.9264
 6675SOL    HW220846   3.648   4.117   5.625  0.6011 -0.2872  0.0435
 6676SOL     OW20847   0.794   0.631   0.538 -0.2812 -0.2868 -0.2220
 6676SOL    HW120848   0.859   0.620   0.464 -0.8949 -0.0393 -0.8136
 6676SOL    HW220849   0.701   0.624   0.502 -0.5903 -1.4201  0.7294
 6677SOL     OW20850   0.042   2.644   2.428 -0.1551  0.0943  0.4996
 6677SOL    HW120851  -0.043   2.683   2.395  0.7971 -1.1617 -3.9659
 6677SOL    HW220852   0.036   2.544   2.427  1.3033 -0.0143  0.3074
 6678SOL     OW20853   3.807   3.839   5.298  0.3685 -0.2767 -0.7550
 6678SOL    HW120854   3.762   3.795   5.377  2.4540 -0.8381  0.1863
 6678SOL    HW220855   3.833   3.769   5.231  2.0604 -0.3035 -0.1070
 6679SOL     OW20856   1.718   6.141   3.476 -0.1649  0.0339 -0.5842
 6679SOL    HW120857   1.795   6.118   3.536  0.1512  1.0850 -0.5753
 6679SOL    HW220858   1.737   6.225   3.427 -0.6467 -0.5397 -1.7989
 6680SOL     OW20859   0.699   2.465   5.596  0.2879 -0.1610 -0.2195
 6680SOL    HW120860   0.693   2.493   5.500  0.6743  0.1613 -0.1568
 6680SOL    HW220861   0.770   2.396   5.606 -1.8152 -2.5274 -0.6624
 6681SOL     OW20862   0.485   1.458   6.104  0.0667  0.4671  0.2218
 6681SOL    HW120863   0.394   1.437   6.140 -0.1547  0.8183 -0.1334
 6681SOL    HW220864   0.527   1.374   6.070  0.4602  0.0351  1.7012
 6682SOL     OW20865   4.585   0.149   6.742  0.1550 -0.1396 -0.3879
 6682SOL    HW120866   4.551   0.180   6.830 -2.2640  0.5507 -1.5133
 6682SOL    HW220867   4.671   0.099   6.756 -0.3066 -0.3196  2.3674
 6683SOL     OW20868   2.838   2.752   6.227 -0.3762  0.2565  0.3275
 6683SOL    HW120869   2.795   2.764   6.316  0.1194  1.9121  0.3784
 6683SOL    HW220870   2.925   2.704   6.239  0.0539  1.1305  0.8623
 6684SOL     OW20871   5.083   5.750   4.395  0.8059 -0.1093  0.4799
 6684SOL    HW120872   4.987   5.755   4.422  0.9296  1.1245  0.7339
 6684SOL    HW220873   5.102   5.818   4.325  0.9950 -1.8485 -1.2710
 6685SOL     OW20874   0.917   6.724   6.082 -0.3073  0.1054 -0.1507
 6685SOL    HW120875   0.908   6.627   6.105  1.1995  0.0368  0.1805
 6685SOL    HW220876   0.899   6.737   5.984 -0.8563 -0.4461 -0.1262
 6686SOL     OW20877   1.331   6.388   0.560 -0.1628  0.5124  0.0977
 6686SOL    HW120878   1.405   6.435   0.513 -0.3478  0.4712 -0.2433
 6686SOL    HW220879   1.298   6.313   0.504 -0.0123  0.1066  0.5476
 6687SOL     OW20880   1.407   0.030   5.743  0.1272  0.5895 -0.0107
 6687SOL    HW120881   1.344   0.031   5.821  0.1449  1.2645 -0.0029
 6687SOL    HW220882   1.393   0.112   5.688 -1.0462 -0.6753 -1.6635
 6688SOL     OW20883   3.311   5.455   2.272  0.3998  0.1501  0.6759
 6688SOL    HW120884   3.303   5.364   2.311  0.5717  0.4133  1.3555
 6688SOL    HW220885   3.290   5.452   2.174  1.5772 -0.8107  0.4396
 6689SOL     OW20886   6.985   3.243   0.357  0.2914  0.3153 -0.2105
 6689SOL    HW120887   7.023   3.294   0.280  0.1011  0.8179  0.0367
 6689SOL    HW220888   6.906   3.190   0.326  1.9312 -1.7506 -1.0154
 6690SOL     OW20889   6.969   0.245   3.519  0.1297 -0.0435  0.2878
 6690SOL    HW120890   6.945   0.327   3.571  1.9363  0.4497  0.4097
 6690SOL    HW220891   7.041   0.195   3.566 -0.3550 -1.2340 -0.2396
 6691SOL     OW20892   4.953   1.935   4.609  0.5397  0.1396 -0.1703
 6691SOL    HW120893   5.023   1.964   4.545  0.2125 -0.5617 -0.8535
 6691SOL    HW220894   4.980   1.848   4.651 -0.2474 -0.5372 -1.0040
 6692SOL     OW20895   4.577   4.459   6.284 -0.5521  0.3492  0.0346
 6692SOL    HW120896   4.523   4.543   6.288 -1.5171 -0.1202 -1.7535
 6692SOL    HW220897   4.522   4.382   6.318 -0.5221  0.1071 -0.4338
 6693SOL     OW20898   6.092   6.785   4.958  0.3177 -0.1157  0.1299
 6693SOL    HW120899   6.098   6.717   4.885 -0.3906 -0.9487  0.8078
 6693SOL    HW220900   6.182   6.797   4.999  0.6368  0.0509 -0.6111
 6694SOL     OW20901   3.081   5.862   6.778  0.0340 -1.0054 -0.0076
 6694SOL    HW120902   3.139   5.799   6.830 -0.0543 -1.5143 -0.5115
 6694SOL    HW220903   3.016   5.906   6.840  1.1882 -0.1561  0.6326
 6695SOL     OW20904   0.704   6.975   4.611 -0.1532 -0.2288  0.1024
 6695SOL    HW120905   0.720   6.984   4.513  1.2527 -1.5786  0.1737
 6695SOL    HW220906   0.768   7.033   4.661 -2.1619  2.0228  0.2627
 6696SOL     OW20907   4.610   3.934   2.198  0.6782  0.0047 -0.6343
 6696SOL    HW120908   4.537   3.873   2.231  0.6275  0.1949 -0.3964
 6696SOL    HW220909   4.571   4.001   2.134  0.7522 -0.2927 -0.9984
 6697SOL     OW20910   6.290   4.613   1.474  0.3313 -0.0516 -0.3796
 6697SOL    HW120911   6.221   4.681   1.499 -0.5668 -0.8409 -0.6618
 6697SOL    HW220912   6.376   4.660   1.453  0.7252  0.8061  2.5768
 6698SOL     OW20913   5.106   0.815   5.511  0.5011  0.5682  0.7349
 6698SOL    HW120914   5.136   0.811   5.416  0.2305 -0.1454  0.6690
 6698SOL    HW220915   5.017   0.862   5.516  0.1893  0.0146  0.5410
 6699SOL     OW20916   3.530   6.000   4.590 -0.0690 -0.3610 -0.3721
 6699SOL    HW120917   3.513   5.901   4.590 -1.0981 -0.1975 -0.7146
 6699SOL    HW220918   3.454   6.046   4.544 -0.6738  0.7642  1.6313
 6700SOL     OW20919   6.297   4.379   0.433  0.4501 -0.0351 -0.4592
 6700SOL    HW120920   6.212   4.396   0.484  0.2331 -0.6212 -0.6122
 6700SOL    HW220921   6.349   4.463   0.426 -0.1669  0.3553 -0.4379
 6701SOL     OW20922   6.891   6.200   2.004  0.2022  0.0383 -0.2142
 6701SOL    HW120923   6.973   6.156   2.040  0.3154  0.5028  0.0896
 6701SOL    HW220924   6.893   6.298   2.023 -0.5217  0.0247 -0.0233
 6702SOL     OW20925   1.110   0.724   5.581 -0.0276  0.0054  0.0954
 6702SOL    HW120926   1.126   0.773   5.495 -0.4537 -0.1947 -0.0995
 6702SOL    HW220927   1.012   0.721   5.600  0.1404  1.4830  1.4392
 6703SOL     OW20928   0.787   2.017   6.163  0.5744 -0.2694  0.7844
 6703SOL    HW120929   0.812   1.970   6.248 -0.6819 -1.5651  0.4971
 6703SOL    HW220930   0.868   2.028   6.106  0.8984 -2.5219  0.7055
 6704SOL     OW20931   0.619   4.010   0.521 -0.6365 -0.0260  0.3782
 6704SOL    HW120932   0.644   3.914   0.510 -0.7644 -0.1691  1.3262
 6704SOL    HW220933   0.531   4.017   0.567 -0.2080  0.5593  1.1195
 6705SOL     OW20934   3.514   0.442   5.905  0.8281 -0.5753  0.4657
 6705SOL    HW120935   3.541   0.507   5.834  2.0531 -2.6799 -1.0929
 6705SOL    HW220936   3.417   0.453   5.924  0.3914 -0.1395 -1.7551
 6706SOL     OW20937   2.216   3.861   4.870 -0.0916 -0.2427 -0.3964
 6706SOL    HW120938   2.175   3.902   4.952  0.9406 -2.6515  1.4602
 6706SOL    HW220939   2.149   3.800   4.827 -0.7715  1.3361 -1.6420
 6707SOL     OW20940   2.418   0.123   5.435 -0.1291  0.6199  0.0946
 6707SOL    HW120941   2.498   0.089   5.485  0.7570  0.7526 -1.1859
 6707SOL    HW220942   2.378   0.201   5.484  1.0606  1.1125  0.2967
 6708SOL     OW20943   6.737   3.405   5.861  0.8352 -0.2543  0.5176
 6708SOL    HW120944   6.832   3.434   5.861  0.1576  2.2122  1.9652
 6708SOL    HW220945   6.683   3.466   5.804  0.0395 -1.4740 -0.0856
 6709SOL     OW20946   3.743   1.935   5.489  0.1665  0.0597  0.2890
 6709SOL    HW120947   3.659   1.881   5.502 -0.3219  0.4138 -1.1783
 6709SOL    HW220948   3.823   1.876   5.498 -0.3897 -1.3060 -2.7269
 6710SOL     OW20949   5.844   6.093   2.869  0.3315  0.2869  0.2243
 6710SOL    HW120950   5.904   6.013   2.862  0.2869  0.2839 -0.1904
 6710SOL    HW220951   5.874   6.151   2.944  1.8659  1.1073 -0.9685
 6711SOL     OW20952   5.625   2.096   6.758 -0.3904 -0.3948  0.2253
 6711SOL    HW120953   5.602   2.186   6.796 -3.4231 -1.4127  1.1557
 6711SOL    HW220954   5.636   2.031   6.832  1.3177 -0.9210 -0.4593
 6712SOL     OW20955   4.896   1.950   6.307 -0.0362 -0.4367 -0.8450
 6712SOL    HW120956   4.846   2.016   6.251 -0.3762  0.2428  0.2379
 6712SOL    HW220957   4.991   1.978   6.314  0.4435 -1.4982 -2.5549
 6713SOL     OW20958   2.538   1.593   0.485  0.4400 -0.0485 -0.0994
 6713SOL    HW120959   2.497   1.502   0.478  0.3914 -0.1276  0.9792
 6713SOL    HW220960   2.556   1.613   0.581  3.3198 -0.2157 -0.5331
 6714SOL     OW20961   3.136   5.733   3.406 -0.5748 -0.0863 -0.2423
 6714SOL    HW120962   3.091   5.820   3.423 -1.6283 -0.9180  1.4788
 6714SOL    HW220963   3.095   5.688   3.327  0.3297  1.1535 -1.4788
 6715SOL     OW20964   2.580   0.019   6.817 -0.0577  0.3988 -0.3273
 6715SOL    HW120965   2.616   0.053   6.730 -0.9470 -0.1941 -0.9462
 6715SOL    HW220966   2.488  -0.016   6.804  0.8732 -2.5494  0.1729
 6716SOL     OW20967   5.789   6.502   3.930  0.1495 -0.1200 -0.0727
 6716SOL    HW120968   5.747   6.476   3.843 -1.0882 -1.3163  0.8518
 6716SOL    HW220969   5.717   6.526   3.996  1.0313 -0.0167  0.8778
 6717SOL     OW20970   6.218   2.591   6.907 -0.6814 -0.2228 -0.2139
 6717SOL    HW120971   6.285   2.615   6.837 -0.1477  2.3668  1.0571
 6717SOL    HW220972   6.226   2.494   6.928  1.1188 -0.4625 -1.6859
 6718SOL     OW20973   2.471   6.250   2.214  0.0467  0.6453 -0.5601
 6718SOL    HW120974   2.510   6.251   2.122 -1.2381  2.2621 -1.1312
 6718SOL    HW220975   2.435   6.340   2.236  0.7440  0.4141  1.7502
 6719SOL     OW20976   2.371   1.906   4.423 -0.7077 -0.4999  0.1339
 6719SOL    HW120977   2.326   1.994   4.407 -0.1412 -0.3279 -0.5657
 6719SOL    HW220978   2.359   1.848   4.342  0.0758 -0.5569  0.0515
 6720SOL     OW20979   6.667   0.180   3.118  0.4905  0.7011 -0.0179
 6720SOL    HW120980   6.751   0.148   3.073 -0.8938 -1.1124 -1.4401
 6720SOL    HW220981   6.653   0.277   3.096  0.8142  0.3283 -2.0283
 6721SOL     OW20982   2.935   5.999   1.656 -0.9077  0.1050 -0.0615
 6721SOL    HW120983   2.900   6.069   1.595 -1.5337  0.7683  1.0142
 6721SOL    HW220984   3.012   6.034   1.709 -0.6936 -0.2946 -0.0862
 6722SOL     OW20985   5.208   0.050   6.863 -0.2248 -0.2634 -0.3512
 6722SOL    HW120986   5.171  -0.036   6.898  2.4139 -1.1479  0.4002
 6722SOL    HW220987   5.222   0.114   6.938  1.4742 -0.6637 -0.2916
 6723SOL     OW20988   3.720   6.697   5.466  0.7036  0.1012 -0.2095
 6723SOL    HW120989   3.764   6.785   5.481  0.6914  0.1343 -0.3635
 6723SOL    HW220990   3.753   6.657   5.380 -1.3209  1.2289 -1.5751
 6724SOL     OW20991   5.132   1.058   1.830 -0.4025  0.1489 -0.2058
 6724SOL    HW120992   5.132   1.098   1.921  1.0546 -1.3750  0.5058
 6724SOL    HW220993   5.047   1.009   1.815 -1.1183  1.3237 -0.1136
 6725SOL     OW20994   2.668   6.632   0.786  0.1925 -0.0175  0.0275
 6725SOL    HW120995   2.626   6.681   0.863  0.9865  1.2032 -0.2974
 6725SOL    HW220996   2.719   6.554   0.820 -0.7773 -0.4267  0.5925
 6726SOL     OW20997   4.340   3.248   4.915 -0.2120 -0.0359 -0.1629
 6726SOL    HW120998   4.271   3.281   4.979  0.2453  0.3317  0.1466
 6726SOL    HW220999   4.295   3.216   4.831 -0.6888  1.1015 -0.3539
 6727SOL     OW21000   1.107   1.888   5.552 -0.0894 -0.0422 -0.4027
 6727SOL    HW121001   1.022   1.939   5.549  0.6543  1.4057  1.4727
 6727SOL    HW221002   1.091   1.794   5.520 -1.5783  1.1432 -3.5679
 6728SOL     OW21003   6.131   1.962   3.972  0.2581 -0.1902  0.1160
 6728SOL    HW121004   6.194   1.980   4.047  0.3062  0.0172  0.0284
 6728SOL    HW221005   6.174   1.986   3.885  0.4683 -1.0945 -0.0450
 6729SOL     OW21006   5.837   2.583   3.993 -0.3852 -0.2458  0.2611
 6729SOL    HW121007   5.822   2.492   3.954  0.4127 -0.0558 -0.5145
 6729SOL    HW221008   5.785   2.650   3.942 -1.8252 -0.3702  1.4897
 6730SOL     OW21009   6.886   6.660   6.685 -0.5153 -0.2510 -0.4223
 6730SOL    HW121010   6.847   6.581   6.637  1.6164 -1.2078 -0.7195
 6730SOL    HW221011   6.830   6.740   6.669 -2.7849 -1.6852 -0.0903
 6731SOL     OW21012   2.338   6.895   0.280  0.0282  0.2521 -0.0338
 6731SOL    HW121013   2.319   6.808   0.326  0.5560 -0.0378 -0.3489
 6731SOL    HW221014   2.429   6.927   0.306 -0.9451  1.8152  1.7593
 6732SOL     OW21015   2.082   2.604   4.858  0.2289  0.3231  0.3399
 6732SOL    HW121016   2.163   2.662   4.869 -0.2422  0.8219  1.4078
 6732SOL    HW221017   2.098   2.537   4.786  1.7102  0.2014  0.7447
 6733SOL     OW21018   5.021   5.196   6.189  0.2452  0.2113 -0.2011
 6733SOL    HW121019   5.061   5.164   6.103  1.2197  2.5059 -0.7128
 6733SOL    HW221020   4.922   5.202   6.180  0.3701  0.9785 -1.4461
 6734SOL     OW21021   0.597   0.475   1.840 -0.0949  0.1844 -0.7763
 6734SOL    HW121022   0.565   0.425   1.920 -1.5545  1.5559 -0.4308
 6734SOL    HW221023   0.688   0.511   1.857 -0.6422  0.9907  0.5248
 6735SOL     OW21024   6.349   0.807   1.142 -0.4863  0.3292 -0.3241
 6735SOL    HW121025   6.429   0.863   1.119 -0.6616  0.4415 -0.6624
 6735SOL    HW221026   6.293   0.855   1.209 -1.5799  1.3803 -1.9244
 6736SOL     OW21027   0.197   0.675   4.796  0.0682  0.3338  0.4623
 6736SOL    HW121028   0.135   0.600   4.772  0.0746 -0.4638  2.6903
 6736SOL    HW221029   0.265   0.642   4.862  0.3702  2.1907  1.1362
 6737SOL     OW21030   4.597   1.302   6.226  0.6343 -0.5686 -0.3708
 6737SOL    HW121031   4.604   1.358   6.308 -0.4179  0.1224 -0.7311
 6737SOL    HW221032   4.606   1.206   6.250 -0.1177 -0.4016  0.6236
 6738SOL     OW21033   4.098   0.136   6.877 -0.0555  0.2987  0.1776
 6738SOL    HW121034   4.000   0.127   6.893 -0.4473  0.4637 -1.8720
 6738SOL    HW221035   4.125   0.232   6.887 -0.4447  0.5277 -0.8251
 6739SOL     OW21036   5.099   5.567   2.481 -0.4978  0.2298 -0.3540
 6739SOL    HW121037   5.180   5.557   2.538  0.5902  1.3171 -1.6590
 6739SOL    HW221038   5.046   5.646   2.511 -0.7941 -0.1470  0.1390
 6740SOL     OW21039   6.306   2.502   3.203  0.3730  0.6596 -0.1770
 6740SOL    HW121040   6.214   2.462   3.199  0.5971  0.2705 -1.6208
 6740SOL    HW221041   6.356   2.462   3.280  0.2763 -1.2022 -1.0262
 6741SOL     OW21042   6.588   3.444   6.807  0.0935  0.0003  0.5436
 6741SOL    HW121043   6.571   3.347   6.794 -0.0634  0.0249  0.5401
 6741SOL    HW221044   6.679   3.468   6.773 -0.6144  0.2306 -1.2611
 6742SOL     OW21045   2.475   0.978   1.185  0.3703  0.7100 -0.2254
 6742SOL    HW121046   2.461   0.939   1.276  2.2264 -1.3315 -0.7493
 6742SOL    HW221047   2.400   0.950   1.125 -0.2790  1.1516  0.3496
 6743SOL     OW21048   3.535   1.470   2.704 -0.2041 -0.1077 -0.4302
 6743SOL    HW121049   3.467   1.420   2.651 -2.0412  0.8432  0.8951
 6743SOL    HW221050   3.567   1.549   2.652 -0.7988 -0.0495 -0.7114
 6744SOL     OW21051   0.249   6.632   0.139  0.2487  0.0450  0.1993
 6744SOL    HW121052   0.216   6.716   0.096 -0.4626 -0.5537 -0.4434
 6744SOL    HW221053   0.332   6.601   0.092  1.1237  0.9152  1.0794
 6745SOL     OW21054   2.472   2.744   6.411 -0.2724  0.2236  0.6918
 6745SOL    HW121055   2.464   2.831   6.363 -1.4702 -0.0601  0.3523
 6745SOL    HW221056   2.383   2.716   6.446 -0.0530 -1.2042  0.2152
 6746SOL     OW21057   3.164   3.541   6.681  0.1029 -0.2509 -0.6235
 6746SOL    HW121058   3.225   3.588   6.617  0.5862 -1.0616 -0.7803
 6746SOL    HW221059   3.072   3.579   6.675  0.3422  0.2395 -1.1929
 6747SOL     OW21060   3.203   1.946   6.547 -0.3314  0.3817  0.3246
 6747SOL    HW121061   3.256   2.002   6.484  0.1124  0.3532  0.6677
 6747SOL    HW221062   3.117   1.993   6.569 -0.5961  0.2875 -0.4769
 6748SOL     OW21063   6.004   0.689   1.322 -0.1047  0.0092 -0.4287
 6748SOL    HW121064   6.083   0.631   1.303 -0.1879 -0.6151  1.0108
 6748SOL    HW221065   5.982   0.685   1.419 -1.7524  0.3869 -0.7499
 6749SOL     OW21066   4.595   1.960   6.199  0.0795  0.2875  0.3866
 6749SOL    HW121067   4.564   1.890   6.264 -0.9821 -0.0368 -0.4472
 6749SOL    HW221068   4.611   1.918   6.110 -0.5539  1.1074 -0.1234
 6750SOL     OW21069   3.171   3.426   4.355  0.1379 -0.2275  0.0601
 6750SOL    HW121070   3.089   3.433   4.412  0.1954 -0.8990  0.2428
 6750SOL    HW221071   3.201   3.518   4.329  0.9877  0.2338  2.3753
 6751SOL     OW21072   0.809   4.804   0.868 -0.5518  0.2665 -0.3460
 6751SOL    HW121073   0.882   4.774   0.930 -1.0940 -0.6146 -0.1187
 6751SOL    HW221074   0.817   4.903   0.853 -0.5975  0.5660  1.3960
 6752SOL     OW21075   6.084   0.790   5.091 -0.2632  0.8871  0.0420
 6752SOL    HW121076   5.999   0.777   5.142  0.1796  0.8701  0.7902
 6752SOL    HW221077   6.063   0.814   4.996 -1.1027  0.4271  0.0986
 6753SOL     OW21078   6.383   0.356   0.071  0.2628 -0.5030  0.0734
 6753SOL    HW121079   6.289   0.359   0.036  0.3031 -0.0112  0.0023
 6753SOL    HW221080   6.381   0.342   0.170  0.0104  2.2967  0.5335
 6754SOL     OW21081   5.454   6.509   2.768 -0.0979  0.1283 -0.4012
 6754SOL    HW121082   5.457   6.483   2.671 -0.5931  0.5849 -0.5431
 6754SOL    HW221083   5.525   6.459   2.817  2.7217  2.5700 -1.6700
 6755SOL     OW21084   5.086   5.334   5.372 -0.0571  0.8512  0.2107
 6755SOL    HW121085   5.106   5.255   5.430 -0.4297  0.7450  0.2008
 6755SOL    HW221086   5.148   5.409   5.395 -1.4238  1.4670  2.0944
 6756SOL     OW21087   0.583   4.428   2.235  0.3381  0.6297  0.1478
 6756SOL    HW121088   0.531   4.504   2.197  1.4947  2.0481  1.2935
 6756SOL    HW221089   0.635   4.460   2.315 -0.0887 -1.6478  1.3890
 6757SOL     OW21090   5.635   3.862   1.446 -0.4266 -0.0029  0.2188
 6757SOL    HW121091   5.663   3.843   1.352  2.1933  1.6719  0.5772
 6757SOL    HW221092   5.664   3.787   1.506  0.8727  0.4189  0.1500
 6758SOL     OW21093   1.450   1.414   3.682  0.3514  0.1799 -0.0149
 6758SOL    HW121094   1.435   1.414   3.781 -0.8341  1.1319 -0.1678
 6758SOL    HW221095   1.414   1.330   3.642  0.0542  0.1672  0.2716
 6759SOL     OW21096   1.976   3.043   3.280 -0.0333  0.0422 -0.1505
 6759SOL    HW121097   1.897   3.104   3.276 -1.6630 -1.9969 -0.6071
 6759SOL    HW221098   1.974   2.980   3.202  2.4086  0.3136 -0.5236
 6760SOL     OW21099   4.732   0.503   1.402  0.3453  0.2824  0.1413
 6760SOL    HW121100   4.830   0.525   1.405  0.4286  0.1918 -1.2741
 6760SOL    HW221101   4.690   0.553   1.326 -0.9155  1.0514  1.2980
 6761SOL     OW21102   2.237   6.143   2.584  0.0628 -0.6344  0.1394
 6761SOL    HW121103   2.328   6.134   2.544  0.1349  0.5323 -0.0153
 6761SOL    HW221104   2.227   6.235   2.623 -0.7975 -0.9854  0.7724
 6762SOL     OW21105   6.089   4.299   5.255  1.0259 -0.1373  0.0504
 6762SOL    HW121106   6.184   4.270   5.257  0.8528 -0.6679  1.5256
 6762SOL    HW221107   6.033   4.234   5.305  0.2069  1.2450  1.0113
 6763SOL     OW21108   0.723   1.565   4.469  0.3992  0.1960  0.1027
 6763SOL    HW121109   0.630   1.592   4.494  0.5644  1.9549 -1.0123
 6763SOL    HW221110   0.721   1.518   4.381  0.7317  2.1718 -1.0234
 6764SOL     OW21111   5.166   2.882   6.544  0.1605 -0.2678 -0.7700
 6764SOL    HW121112   5.255   2.839   6.547  0.8626  1.0907 -1.4746
 6764SOL    HW221113   5.156   2.943   6.624 -1.3621 -2.6501  0.9940
 6765SOL     OW21114   3.745   3.299   6.457  0.4793  0.3840  0.7538
 6765SOL    HW121115   3.703   3.337   6.540  0.6743  0.0243  1.0207
 6765SOL    HW221116   3.688   3.225   6.422  0.0682  0.9452  0.1996
 6766SOL     OW21117   6.278   6.787   6.428 -0.6983 -0.3850  0.5609
 6766SOL    HW121118   6.335   6.705   6.426 -2.0373 -1.3929  1.3981
 6766SOL    HW221119   6.335   6.868   6.415  0.5160 -1.4700 -1.3540
 6767SOL     OW21120   3.847   3.766   2.953 -0.1408  0.1908 -0.0743
 6767SOL    HW121121   3.834   3.864   2.967 -0.9729  0.1264 -0.3348
 6767SOL    HW221122   3.902   3.729   3.029 -0.0227  0.8090  0.1536
 6768SOL     OW21123   1.425   6.295   1.670  0.2044  0.2149 -0.1154
 6768SOL    HW121124   1.432   6.272   1.767  1.1615 -1.0372 -0.4559
 6768SOL    HW221125   1.357   6.236   1.627  0.1342  0.4253 -0.2945
 6769SOL     OW21126   1.755   5.811   3.345  0.1413 -0.2510  0.0194
 6769SOL    HW121127   1.701   5.801   3.261 -0.3937  2.1513  0.0131
 6769SOL    HW221128   1.842   5.856   3.323  0.5423 -0.7485  0.5738
 6770SOL     OW21129   1.563   1.557   4.289  0.1566 -0.0016  0.0358
 6770SOL    HW121130   1.603   1.590   4.374  1.6270 -1.2750 -0.1184
 6770SOL    HW221131   1.463   1.557   4.297 -0.0983  4.8598 -0.1644
 6771SOL     OW21132   4.820   4.008   4.921 -0.3653  0.2653 -0.2767
 6771SOL    HW121133   4.792   3.990   4.827  2.1825 -1.3488 -0.8397
 6771SOL    HW221134   4.918   4.027   4.924 -0.4592  0.7013  2.0212
 6772SOL     OW21135   6.506   1.850   4.277 -0.3288 -0.2283  0.3925
 6772SOL    HW121136   6.462   1.767   4.246 -1.6431  0.7464 -0.4375
 6772SOL    HW221137   6.458   1.930   4.240  2.3117  0.9232 -0.9063
 6773SOL     OW21138   4.293   4.790   1.554 -0.5487 -0.5972 -0.2737
 6773SOL    HW121139   4.282   4.704   1.505  0.6189 -0.0339 -1.6237
 6773SOL    HW221140   4.388   4.822   1.544 -1.2012  1.3456 -0.7133
 6774SOL     OW21141   0.992   1.568   5.394  0.7409  0.1928  0.2634
 6774SOL    HW121142   1.074   1.572   5.451 -1.3275  0.7531  3.3967
 6774SOL    HW221143   1.020   1.560   5.298  4.4071 -0.5355  1.2164
 6775SOL     OW21144   4.060   6.302   3.844  0.1739 -0.2356 -0.7815
 6775SOL    HW121145   4.057   6.205   3.868 -0.2341 -0.6928 -2.5215
 6775SOL    HW221146   3.975   6.346   3.871 -0.5725 -0.8970 -1.9569
 6776SOL     OW21147   4.391   1.223   2.359  0.4460  0.6568  0.5507
 6776SOL    HW121148   4.356   1.131   2.341 -0.3854  1.0724 -0.0714
 6776SOL    HW221149   4.428   1.262   2.275 -1.8320  1.9454  0.0245
 6777SOL     OW21150   3.828   6.034   1.727  0.1399 -0.2805 -0.0705
 6777SOL    HW121151   3.925   6.057   1.735 -0.0877  1.3475 -1.3519
 6777SOL    HW221152   3.817   5.957   1.664  0.5958 -0.5046  0.1148
 6778SOL     OW21153   5.083   0.753   2.887  0.6708 -0.3563 -0.2425
 6778SOL    HW121154   5.075   0.730   2.984 -0.3644  0.8013 -0.0339
 6778SOL    HW221155   5.154   0.823   2.875  0.7521 -0.4474 -0.3122
 6779SOL     OW21156   3.034   4.635   0.386  0.7479  0.9735  0.5442
 6779SOL    HW121157   2.953   4.615   0.441  0.3428  1.1116  0.0091
 6779SOL    HW221158   3.065   4.728   0.405  0.0495  1.3649 -0.1225
 6780SOL     OW21159   1.400   6.291   3.299 -0.1636 -0.3072  0.7264
 6780SOL    HW121160   1.377   6.299   3.396  0.4393  0.7620  0.8113
 6780SOL    HW221161   1.478   6.229   3.288 -0.0690 -0.2318  0.9593
 6781SOL     OW21162   2.690   1.499   4.184 -0.1012 -0.1452 -0.0109
 6781SOL    HW121163   2.672   1.433   4.257  1.3115 -0.3682  0.1714
 6781SOL    HW221164   2.693   1.451   4.096 -1.0892  0.0091 -0.1353
 6782SOL     OW21165   4.723   6.735   3.933 -0.2916 -0.2221  0.8517
 6782SOL    HW121166   4.805   6.736   3.990  0.1927  1.2812  0.1714
 6782SOL    HW221167   4.642   6.743   3.990  0.0308 -1.4418  1.5113
 6783SOL     OW21168   6.682   1.125   6.093  0.2522  0.5572 -0.0637
 6783SOL    HW121169   6.757   1.066   6.062  0.0911 -1.1469  2.4298
 6783SOL    HW221170   6.601   1.070   6.109 -0.7013  1.9188 -0.0597
 6784SOL     OW21171   4.116   6.550   5.226 -0.3180  0.3797 -0.6800
 6784SOL    HW121172   4.213   6.536   5.245 -0.5375 -1.3861 -0.6330
 6784SOL    HW221173   4.076   6.464   5.193 -2.1433  0.7122  0.4968
 6785SOL     OW21174   1.825   1.286   5.425  0.4979  0.4470  0.0938
 6785SOL    HW121175   1.819   1.186   5.425  1.3537  0.2930  3.1316
 6785SOL    HW221176   1.733   1.325   5.424  0.0689 -0.4689  1.2182
 6786SOL     OW21177   5.192   5.209   1.653 -0.3154  0.3772  0.5290
 6786SOL    HW121178   5.200   5.138   1.723  1.5962 -0.4809 -0.5075
 6786SOL    HW221179   5.150   5.291   1.693 -2.3359 -1.1817  1.8252
 6787SOL     OW21180   5.408   2.681   2.875  0.1729  0.2078 -0.0611
 6787SOL    HW121181   5.412   2.748   2.949 -0.0666 -0.3514  0.4696
 6787SOL    HW221182   5.434   2.591   2.909  0.4169  0.0051 -0.7465
 6788SOL     OW21183   5.255   0.195   2.673  0.1930 -0.0251  0.4750
 6788SOL    HW121184   5.224   0.272   2.729 -1.0076  0.4801 -0.8454
 6788SOL    HW221185   5.176   0.144   2.639  0.6431  1.4756 -3.2459
 6789SOL     OW21186   5.650   5.246   2.134  0.5639  0.4023 -0.4049
 6789SOL    HW121187   5.620   5.338   2.111 -0.4375  0.1313 -0.2393
 6789SOL    HW221188   5.628   5.226   2.229  0.7381 -0.0162 -0.4480
 6790SOL     OW21189   0.708   0.456   3.657 -0.5677  0.1962 -0.3991
 6790SOL    HW121190   0.694   0.378   3.595 -0.2526  0.0839 -0.3341
 6790SOL    HW221191   0.719   0.539   3.604  2.6102 -0.3149 -0.6525
 6791SOL     OW21192   5.821   2.054   5.376  0.3834  0.2625  0.2126
 6791SOL    HW121193   5.777   2.142   5.358 -0.6626 -0.3735 -0.4736
 6791SOL    HW221194   5.886   2.034   5.303 -0.3741 -0.1272 -0.3861
 6792SOL     OW21195   0.586   3.979   1.833 -0.3867  0.0114  0.0140
 6792SOL    HW121196   0.524   3.919   1.882 -1.6096 -0.4957 -2.0081
 6792SOL    HW221197   0.559   3.983   1.737  1.5371  1.3774 -0.5391
 6793SOL     OW21198   3.289   5.924   2.578 -0.0355  0.7484  0.2893
 6793SOL    HW121199   3.249   6.014   2.594 -0.3924  0.6973 -0.3082
 6793SOL    HW221200   3.266   5.892   2.486 -0.2040 -0.0953  0.6057
 6794SOL     OW21201   1.297   4.574   4.884 -0.8305  0.0178  0.3037
 6794SOL    HW121202   1.354   4.633   4.826  0.3530 -2.3499 -1.0878
 6794SOL    HW221203   1.200   4.598   4.871 -0.4495  0.9509 -1.0004
 6795SOL     OW21204   4.556   6.906   0.113  0.1524  0.3991 -0.0790
 6795SOL    HW121205   4.586   6.998   0.141 -0.5048  0.4408  0.5390
 6795SOL    HW221206   4.464   6.890   0.149 -0.2321 -0.0353 -1.2356
 6796SOL     OW21207   5.339   4.872   6.593  0.2760  0.1027 -0.1285
 6796SOL    HW121208   5.244   4.861   6.619  0.3036  0.8710  0.3406
 6796SOL    HW221209   5.370   4.792   6.542 -0.8637  0.2293 -1.0451
 6797SOL     OW21210   4.769   2.817   3.420 -0.2114 -0.1813 -0.1484
 6797SOL    HW121211   4.773   2.729   3.467  1.1460 -0.7716 -1.3062
 6797SOL    HW221212   4.712   2.880   3.473  1.0397 -0.8599  2.1450
 6798SOL     OW21213   5.099   5.567   0.989 -0.0308 -0.6371  0.0783
 6798SOL    HW121214   5.060   5.634   1.052  0.0155 -1.4449  0.9976
 6798SOL    HW221215   5.191   5.596   0.961  0.3212 -0.6958  1.1200
 6799SOL     OW21216   4.558   5.569   5.790 -0.2733  0.0628  0.0920
 6799SOL    HW121217   4.645   5.606   5.758 -0.6478  0.6452 -0.2671
 6799SOL    HW221218   4.548   5.474   5.757  0.3319 -0.0904  0.3446
 6800SOL     OW21219   1.192   2.740   6.896 -0.4754  0.0177  0.0636
 6800SOL    HW121220   1.165   2.644   6.886 -1.0235  0.1560  0.2375
 6800SOL    HW221221   1.247   2.751   6.979  0.4816 -0.3387 -0.5068
 6801SOL     OW21222   4.707   1.960   3.831  0.1014  0.2354 -0.0104
 6801SOL    HW121223   4.716   1.861   3.829 -0.6450  0.1607 -0.1041
 6801SOL    HW221224   4.709   1.996   3.738  1.7318  0.4549  0.0921
 6802SOL     OW21225   2.024   5.879   2.154  0.0188  0.0380  0.4112
 6802SOL    HW121226   1.971   5.797   2.177 -0.0304  0.0314  0.2742
 6802SOL    HW221227   1.968   5.961   2.168 -0.3390 -0.0143 -0.6001
 6803SOL     OW21228   4.674   3.346   7.014  0.0086 -0.5488 -0.0273
 6803SOL    HW121229   4.665   3.369   7.111 -1.9251  1.9770 -0.7406
 6803SOL    HW221230   4.670   3.247   7.003  1.6505 -0.9858  2.5483
 6804SOL     OW21231   2.530   3.867   5.628 -0.2325  0.3776  0.3059
 6804SOL    HW121232   2.432   3.887   5.621 -0.2888 -0.2375 -0.8374
 6804SOL    HW221233   2.551   3.786   5.574  0.9337  0.5652  0.4703
 6805SOL     OW21234   1.527   1.025   2.373 -0.4955  0.4123 -0.0586
 6805SOL    HW121235   1.565   1.018   2.281 -1.0583 -0.2133 -0.2457
 6805SOL    HW221236   1.526   1.121   2.401  2.4243  0.3562  0.4676
 6806SOL     OW21237   4.443   5.773   4.706  0.0864  0.1577 -0.3550
 6806SOL    HW121238   4.346   5.752   4.692 -0.7863  3.4517  0.0149
 6806SOL    HW221239   4.482   5.808   4.621  0.6181  0.0441 -0.1614
 6807SOL     OW21240   5.459   1.570   0.933  0.3903  0.0667  0.1190
 6807SOL    HW121241   5.514   1.518   0.998 -0.5194 -0.7633  0.2360
 6807SOL    HW221242   5.465   1.667   0.955  2.2329  0.0662 -0.2004
 6808SOL     OW21243   0.025   0.300   2.382  0.4247  0.4476 -0.0078
 6808SOL    HW121244   0.018   0.365   2.306 -0.1533 -0.5837 -0.8485
 6808SOL    HW221245   0.092   0.230   2.359 -1.1288 -0.9516 -0.3899
 6809SOL     OW21246   3.298   6.076   5.535  0.5238  0.0569 -0.0245
 6809SOL    HW121247   3.348   6.019   5.470 -0.9314 -2.9720  1.3555
 6809SOL    HW221248   3.211   6.104   5.496  0.4343 -0.2321 -0.0328
 6810SOL     OW21249   6.050   5.254   2.264 -0.2510  0.6189 -0.0151
 6810SOL    HW121250   6.140   5.278   2.301  1.0293  0.0474 -2.4996
 6810SOL    HW221251   5.996   5.337   2.249  1.1448  1.3118 -1.4427
 6811SOL     OW21252   0.916   2.418   4.283  0.1122 -0.0077 -0.1726
 6811SOL    HW121253   0.947   2.506   4.317  1.5855 -0.8571  0.8199
 6811SOL    HW221254   0.978   2.346   4.314 -2.7538 -1.8883  1.8282
 6812SOL     OW21255   4.298   4.145   6.686  0.4247  0.1730  0.0604
 6812SOL    HW121256   4.315   4.235   6.726  0.8117 -0.0866  0.4988
 6812SOL    HW221257   4.376   4.085   6.705 -0.8674 -1.0147  1.9769
 6813SOL     OW21258   1.252   3.125   5.287  0.0601  0.1645  0.7167
 6813SOL    HW121259   1.179   3.193   5.297 -1.1043 -0.9002 -0.0737
 6813SOL    HW221260   1.218   3.036   5.317  0.1504 -0.8665 -2.0416
 6814SOL     OW21261   0.138   4.824   1.324  0.2622  0.2448  0.7862
 6814SOL    HW121262   0.130   4.923   1.315 -0.2511  0.0234 -1.5752
 6814SOL    HW221263   0.062   4.789   1.380  0.4195  1.1538  1.5893
 6815SOL     OW21264   3.719   4.352   2.372 -0.6174 -0.1528  0.0937
 6815SOL    HW121265   3.692   4.448   2.371 -0.3036  0.0700  3.0416
 6815SOL    HW221266   3.757   4.327   2.283 -0.7393  2.4128 -0.7630
 6816SOL     OW21267   6.743   5.800   5.355  0.5017  0.1628 -0.2480
 6816SOL    HW121268   6.832   5.844   5.365  0.8772 -0.4201 -0.8953
 6816SOL    HW221269   6.692   5.808   5.440  1.4686 -0.1342  0.3827
 6817SOL     OW21270   6.073   5.638   1.761  1.2486  0.3268 -0.3358
 6817SOL    HW121271   6.081   5.640   1.661  0.0817  1.6858 -0.4357
 6817SOL    HW221272   6.099   5.727   1.798 -2.3036  1.2691  0.1820
 6818SOL     OW21273   6.579   2.462   3.833 -0.0251 -0.2135 -0.3601
 6818SOL    HW121274   6.539   2.469   3.742 -0.3371 -1.4338 -0.3197
 6818SOL    HW221275   6.664   2.516   3.836  0.0083 -0.1952 -1.3776
 6819SOL     OW21276   2.455   2.703   2.195  0.3095 -1.4589 -0.3592
 6819SOL    HW121277   2.486   2.757   2.117  0.4944 -0.0221  0.6603
 6819SOL    HW221278   2.359   2.680   2.184 -0.2759  0.6254 -0.0441
 6820SOL     OW21279   6.355   2.433   1.473  0.7262  0.1909 -0.3974
 6820SOL    HW121280   6.356   2.488   1.557  1.5012  3.5091 -2.4190
 6820SOL    HW221281   6.436   2.376   1.470 -1.4647 -3.7091  3.1388
 6821SOL     OW21282   0.937   4.375   0.599  0.0716 -0.0484 -0.3644
 6821SOL    HW121283   0.993   4.335   0.527 -0.1389 -1.1830  0.0928
 6821SOL    HW221284   0.840   4.357   0.580 -0.0745  0.8516 -0.5150
 6822SOL     OW21285   0.157   1.141   3.529 -0.0954  0.4274 -0.6583
 6822SOL    HW121286   0.180   1.216   3.467  1.2813 -0.0382 -0.7514
 6822SOL    HW221287   0.061   1.149   3.557 -0.3955  1.3441 -1.8582
 6823SOL     OW21288   2.633   5.912   5.876 -0.5462 -0.4155  0.2633
 6823SOL    HW121289   2.572   5.945   5.948 -0.6394 -0.7628  0.3407
 6823SOL    HW221290   2.595   5.935   5.786 -0.3879  0.0923  0.3219
 6824SOL     OW21291   3.552   4.937   5.768  0.1009 -0.5354 -0.4294
 6824SOL    HW121292   3.586   5.016   5.717 -0.6271  1.0929  1.4937
 6824SOL    HW221293   3.630   4.887   5.806  0.6021  1.6522  1.7140
 6825SOL     OW21294   1.216   1.242   3.226  0.3709 -0.0259  0.2547
 6825SOL    HW121295   1.175   1.208   3.312  0.6758  0.6356  0.6673
 6825SOL    HW221296   1.311   1.212   3.221 -0.0826 -1.4440 -0.6390
 6826SOL     OW21297   6.117   6.090   3.791  0.1390 -0.2166 -0.9870
 6826SOL    HW121298   6.042   6.049   3.844  1.3287 -1.7401 -0.3882
 6826SOL    HW221299   6.129   6.185   3.820  0.5941 -0.9222  1.3918
 6827SOL     OW21300   7.008   1.511   1.059 -0.5232  0.9522 -0.1316
 6827SOL    HW121301   7.013   1.531   1.156  0.1357  0.9600 -0.1593
 6827SOL    HW221302   6.922   1.465   1.038 -0.2461  0.1393  0.6066
 6828SOL     OW21303   3.910   1.646   4.588 -0.2853 -0.6424  0.2367
 6828SOL    HW121304   3.851   1.697   4.650 -1.4983  0.5696 -1.8133
 6828SOL    HW221305   3.882   1.663   4.494  3.0765 -0.3587 -0.8319
 6829SOL     OW21306   5.149   2.595   0.659 -0.3335 -0.5191 -0.3884
 6829SOL    HW121307   5.065   2.542   0.659 -0.1715 -0.7816 -1.0982
 6829SOL    HW221308   5.144   2.665   0.731 -2.0582  0.9146 -1.8059
 6830SOL     OW21309   1.609   4.661   2.549  0.1746 -0.3214 -0.1881
 6830SOL    HW121310   1.695   4.627   2.587  0.3688 -0.9493 -1.1598
 6830SOL    HW221311   1.553   4.697   2.623  0.6712 -1.2287  0.6618
 6831SOL     OW21312   1.022   0.883   4.139 -0.6637 -0.2363 -0.2736
 6831SOL    HW121313   0.986   0.792   4.119  0.3586 -0.7736  0.2212
 6831SOL    HW221314   1.119   0.886   4.116 -1.0324  1.2568 -1.8117
 6832SOL     OW21315   1.036   4.832   1.669  0.6687 -0.1611  0.3977
 6832SOL    HW121316   1.128   4.863   1.644  0.3353  2.4824  2.0431
 6832SOL    HW221317   0.969   4.878   1.611  0.3090 -2.9665 -1.6185
 6833SOL     OW21318   2.726   1.065   1.899  0.3927 -0.5195  0.2466
 6833SOL    HW121319   2.638   1.040   1.940  0.4263  1.3248  1.5919
 6833SOL    HW221320   2.715   1.147   1.844  0.9585 -1.2788 -1.0299
 6834SOL     OW21321   5.187   1.053   3.429 -0.1590 -0.3063  0.0379
 6834SOL    HW121322   5.155   1.111   3.504 -1.1977 -0.6907 -0.0926
 6834SOL    HW221323   5.233   1.110   3.361  0.5921  0.0794  0.8435
 6835SOL     OW21324   4.250   6.767   0.451 -0.5225 -0.1123  0.2455
 6835SOL    HW121325   4.211   6.693   0.396  0.5297  0.2211 -0.9729
 6835SOL    HW221326   4.348   6.771   0.437 -0.6595  2.0157 -0.3285
 6836SOL     OW21327   3.401   1.174   4.485 -0.3641 -0.0543 -0.7912
 6836SOL    HW121328   3.450   1.113   4.422 -1.5060 -0.5712 -1.2048
 6836SOL    HW221329   3.303   1.164   4.471 -0.5968  1.6279 -0.6154
 6837SOL     OW21330   6.210   2.819   3.182 -0.0816 -0.1671  0.3071
 6837SOL    HW121331   6.121   2.774   3.189  0.4384 -1.0212  1.7130
 6837SOL    HW221332   6.273   2.761   3.129  0.5775 -1.1618  2.0863
 6838SOL     OW21333   1.567   1.156   4.470 -0.8591 -0.5768 -0.2054
 6838SOL    HW121334   1.616   1.135   4.554  0.3222 -0.3009 -0.8007
 6838SOL    HW221335   1.512   1.077   4.442 -1.5540 -0.5372  0.9998
 6839SOL     OW21336   3.513   0.674   6.941  0.7497  0.3803 -0.1926
 6839SOL    HW121337   3.529   0.606   7.013  1.6201  0.1370 -0.5941
 6839SOL    HW221338   3.495   0.627   6.855 -0.8516  0.6663 -0.0339
 6840SOL     OW21339   5.182   6.513   4.979  0.1573 -0.9157  0.2074
 6840SOL    HW121340   5.251   6.479   5.043  0.5862  1.5313  1.1556
 6840SOL    HW221341   5.110   6.560   5.030 -0.6990 -0.8749 -0.9880
 6841SOL     OW21342   6.341   0.207   3.675  0.6966 -0.4909 -0.1475
 6841SOL    HW121343   6.376   0.251   3.758  0.8387 -0.8735  0.0009
 6841SOL    HW221344   6.300   0.276   3.616 -1.9443 -0.5583  1.4934
 6842SOL     OW21345   1.170   2.823   5.501  0.8183  0.9597 -0.2547
 6842SOL    HW121346   1.200   2.848   5.409  2.8785 -0.3014  0.0110
 6842SOL    HW221347   1.200   2.729   5.521 -0.4760  0.8462  1.3445
 6843SOL     OW21348   6.603   1.749   6.625  0.1397  0.8877  0.0399
 6843SOL    HW121349   6.543   1.728   6.702  0.3880  0.7227  0.1923
 6843SOL    HW221350   6.697   1.759   6.658 -0.0647  3.2025  0.1475
 6844SOL     OW21351   5.008   4.045   3.766  0.1490  0.2906  0.5504
 6844SOL    HW121352   4.927   4.006   3.810 -1.2922  1.2210 -1.1748
 6844SOL    HW221353   4.987   4.067   3.671  2.2317  1.2428  0.2582
 6845SOL     OW21354   5.719   0.639   5.500  0.3975 -0.3375 -0.3101
 6845SOL    HW121355   5.677   0.646   5.409  1.4036 -0.8911 -0.8290
 6845SOL    HW221356   5.750   0.730   5.529  0.4243 -0.2270 -0.6839
 6846SOL     OW21357   2.183   3.856   1.330  0.2748  0.7930 -0.3146
 6846SOL    HW121358   2.179   3.869   1.430 -0.4890 -0.9113 -0.0968
 6846SOL    HW221359   2.164   3.761   1.308 -0.3483  1.3101 -2.1605
 6847SOL     OW21360   1.043   6.192   5.939  1.1709 -0.5066 -0.0880
 6847SOL    HW121361   1.124   6.230   5.985 -0.1836  0.4444  1.6427
 6847SOL    HW221362   0.980   6.157   6.008 -0.3138 -0.3658 -1.3400
 6848SOL     OW21363   0.053   2.996   1.294  0.6530 -0.8905  0.2771
 6848SOL    HW121364  -0.015   3.010   1.223  1.4328 -1.9944 -0.7002
 6848SOL    HW221365   0.140   2.968   1.252  1.9076  1.0628  1.4336
 6849SOL     OW21366   0.659   0.690   3.500 -0.3968 -0.2165 -0.4012
 6849SOL    HW121367   0.655   0.788   3.522 -1.2695 -0.4474  0.5824
 6849SOL    HW221368   0.629   0.675   3.406  1.9079  0.6624 -1.3406
 6850SOL     OW21369   6.889   1.860   2.544  0.3149  0.3478 -0.1874
 6850SOL    HW121370   6.958   1.930   2.562 -0.6775  0.8715  1.9285
 6850SOL    HW221371   6.873   1.807   2.628 -0.7070 -0.8033 -1.0860
 6851SOL     OW21372   4.612   2.193   3.920 -0.2796 -0.6374  0.5354
 6851SOL    HW121373   4.513   2.183   3.925 -0.5642  0.8586 -1.1929
 6851SOL    HW221374   4.652   2.108   3.884 -1.1342 -0.6375 -0.4919
 6852SOL     OW21375   1.221   2.645   6.193  0.0561 -0.2976 -0.0260
 6852SOL    HW121376   1.124   2.666   6.181  0.4115  0.1797 -3.0037
 6852SOL    HW221377   1.265   2.719   6.243 -0.7247  0.6645 -0.7257
 6853SOL     OW21378   4.409   4.995   3.075 -0.1675 -0.3917 -0.1582
 6853SOL    HW121379   4.440   5.010   3.169  0.7341  0.2155 -0.5421
 6853SOL    HW221380   4.343   5.066   3.050 -0.3935 -0.5422  0.0018
 6854SOL     OW21381   1.825   2.228   6.690  0.1262 -0.1067 -0.2704
 6854SOL    HW121382   1.909   2.175   6.689 -0.0655 -0.4065 -0.9744
 6854SOL    HW221383   1.821   2.283   6.774  2.1329  1.7274 -1.2943
 6855SOL     OW21384   5.047   5.273   4.527  0.1271 -0.3397  0.4013
 6855SOL    HW121385   5.036   5.340   4.601 -0.3891  0.9249 -0.7723
 6855SOL    HW221386   5.095   5.317   4.451 -1.3014 -0.9166 -0.8755
 6856SOL     OW21387   6.560   1.130   6.415 -0.1838 -0.3770 -0.4496
 6856SOL    HW121388   6.598   1.062   6.352 -2.7271 -1.4187 -0.9846
 6856SOL    HW221389   6.621   1.208   6.420  1.8325 -1.7937 -1.4459
 6857SOL     OW21390   3.559   6.369   5.995  0.3433  0.2648  0.1970
 6857SOL    HW121391   3.636   6.343   5.936 -0.5205 -1.1359 -0.3371
 6857SOL    HW221392   3.568   6.323   6.083 -0.6564 -1.1796 -0.3996
 6858SOL     OW21393   6.160   0.083   6.763  0.1618  0.2295  0.1884
 6858SOL    HW121394   6.063   0.065   6.781  0.2648 -1.3546 -0.6678
 6858SOL    HW221395   6.216   0.039   6.833  0.2917  0.9192  0.5114
 6859SOL     OW21396   0.370   0.581   4.958 -0.0422 -0.5515  0.3434
 6859SOL    HW121397   0.327   0.503   5.003 -1.5892 -0.9238 -1.6744
 6859SOL    HW221398   0.469   0.576   4.970 -0.1208 -2.7197  0.3948
 6860SOL     OW21399   0.826   5.786   1.234  0.1523 -0.7694 -0.4542
 6860SOL    HW121400   0.804   5.868   1.180 -1.3148 -1.2231 -0.5804
 6860SOL    HW221401   0.910   5.745   1.199  0.6413  0.4029 -0.7120
 6861SOL     OW21402   1.558   2.809   0.359  0.4770  0.3426  0.0852
 6861SOL    HW121403   1.547   2.798   0.458  1.0555  1.7050  0.3211
 6861SOL    HW221404   1.564   2.719   0.316  1.7014 -0.2677  1.4555
 6862SOL     OW21405   2.868   6.408   0.114  0.2012  0.6559 -0.3302
 6862SOL    HW121406   2.918   6.356   0.045 -3.7213 -0.2075 -2.8914
 6862SOL    HW221407   2.808   6.474   0.068 -1.3199  1.3301  2.4051
 6863SOL     OW21408   1.946   2.951   2.995  0.0162 -0.0203 -0.4154
 6863SOL    HW121409   1.857   2.911   2.972  0.0190 -0.6746  0.6077
 6863SOL    HW221410   1.958   3.037   2.946 -1.5571  0.5241  0.0629
 6864SOL     OW21411   6.516   6.357   6.570 -0.1165  0.0361  0.1422
 6864SOL    HW121412   6.520   6.263   6.538  3.1427 -0.1802  0.8898
 6864SOL    HW221413   6.521   6.360   6.670 -1.2275  1.0069  0.2037
 6865SOL     OW21414   6.385   5.059   0.067 -0.7314 -0.3159 -0.1997
 6865SOL    HW121415   6.441   5.044   0.149 -1.8037  0.0089  0.6097
 6865SOL    HW221416   6.293   5.086   0.094 -1.0163  0.1055 -1.5323
 6866SOL     OW21417   3.159   6.257   2.598  0.3172  0.4799  0.0770
 6866SOL    HW121418   3.153   6.356   2.606  0.2371  0.5766 -0.9802
 6866SOL    HW221419   3.210   6.220   2.676 -2.6357  0.9473  2.4020
 6867SOL     OW21420   4.245   1.891   3.889 -0.2641  0.0181 -0.0018
 6867SOL    HW121421   4.306   1.923   3.961 -1.5240  1.0642  0.6613
 6867SOL    HW221422   4.283   1.809   3.846  0.4221 -0.7746  1.9932
 6868SOL     OW21423   0.386   0.338   0.631 -0.3755 -0.5986  0.3330
 6868SOL    HW121424   0.455   0.281   0.675  0.5820  0.8657  0.8050
 6868SOL    HW221425   0.295   0.310   0.662  0.0603 -1.9033  0.4897
 6869SOL     OW21426   1.651   0.523   5.732 -0.1315  0.3792 -0.3048
 6869SOL    HW121427   1.619   0.535   5.826 -0.1920 -0.7404 -0.1704
 6869SOL    HW221428   1.584   0.562   5.669 -0.5289  0.3400  0.0859
 6870SOL     OW21429   6.439   1.730   1.302  0.1314 -0.0902  0.3594
 6870SOL    HW121430   6.414   1.782   1.384  1.4017 -0.6981  1.1615
 6870SOL    HW221431   6.457   1.794   1.227  2.9575  0.8294  1.6749
 6871SOL     OW21432   2.424   1.088   6.591 -0.4175  0.1151 -0.6639
 6871SOL    HW121433   2.501   1.120   6.646 -1.8089  0.1347  1.4096
 6871SOL    HW221434   2.361   1.163   6.574 -0.4606 -0.1050 -1.5168
 6872SOL     OW21435   5.447   1.806   2.880 -0.6996  0.7392  0.6503
 6872SOL    HW121436   5.531   1.775   2.924  1.1985  0.9719 -2.5640
 6872SOL    HW221437   5.439   1.905   2.887  0.2941  0.9213 -0.6059
 6873SOL     OW21438   5.933   5.506   2.472  0.1558 -0.0835 -0.7571
 6873SOL    HW121439   5.957   5.499   2.375 -0.5818  1.0270 -1.0492
 6873SOL    HW221440   6.017   5.510   2.526  0.6712  1.8129 -1.5941
 6874SOL     OW21441   0.265   3.282   2.196  0.3107 -0.3242 -0.2023
 6874SOL    HW121442   0.185   3.264   2.137  0.9280 -2.6475 -0.4406
 6874SOL    HW221443   0.248   3.244   2.287  0.9638 -0.4382 -0.1265
 6875SOL     OW21444   4.395   2.776   0.023 -0.1253 -0.0133  0.3130
 6875SOL    HW121445   4.475   2.726  -0.011 -0.2013 -0.2709  0.5236
 6875SOL    HW221446   4.382   2.859  -0.031  0.0517 -0.1488  0.0815
 6876SOL     OW21447   3.743   6.272   2.914  0.1365  0.1425  0.1579
 6876SOL    HW121448   3.761   6.332   2.991 -0.9403  0.2979  0.3131
 6876SOL    HW221449   3.754   6.323   2.828  1.1317  0.0233  0.2097
 6877SOL     OW21450   1.138   4.573   3.287 -0.2720 -0.3741  0.1992
 6877SOL    HW121451   1.152   4.660   3.335 -2.1961  1.0386 -1.6369
 6877SOL    HW221452   1.216   4.513   3.305  1.7543  2.1399  0.6208
 6878SOL     OW21453   3.892   5.024   2.555 -0.4055 -0.3376  0.0509
 6878SOL    HW121454   3.918   4.969   2.475 -0.0001 -1.3597  0.8733
 6878SOL    HW221455   3.971   5.037   2.614 -1.1395 -1.3440  1.3128
 6879SOL     OW21456   2.013   2.112   6.942 -0.7788 -0.2300 -0.4626
 6879SOL    HW121457   1.984   2.208   6.934  0.3867  0.1232 -0.5529
 6879SOL    HW221458   2.046   2.081   6.853 -0.7985 -0.6096 -0.3374
 6880SOL     OW21459   5.460   5.655   4.369 -0.4724 -0.4259  0.3832
 6880SOL    HW121460   5.409   5.571   4.354 -0.4729 -0.4277  0.3937
 6880SOL    HW221461   5.401   5.734   4.352 -0.4604 -0.4267  0.3372
 6881SOL     OW21462   0.472   6.986   3.522 -0.0719 -0.4116 -0.0656
 6881SOL    HW121463   0.397   6.999   3.458  0.5884 -1.5681 -1.1064
 6881SOL    HW221464   0.462   6.898   3.569  0.5163 -0.4679 -0.0377
 6882SOL     OW21465   1.050   5.667   1.147  0.0661  0.2838  0.6052
 6882SOL    HW121466   1.015   5.637   1.058  1.2552 -0.1231  0.2647
 6882SOL    HW221467   1.115   5.742   1.134  1.2055 -0.6065  1.0107
 6883SOL     OW21468   0.463   0.416   3.922 -0.4061  0.2099  0.2202
 6883SOL    HW121469   0.535   0.468   3.969  0.1503  0.6604 -1.1012
 6883SOL    HW221470   0.477   0.318   3.937 -0.1977  0.3420  0.9336
 6884SOL     OW21471   1.654   2.536   4.323 -0.8301 -0.4425  0.1335
 6884SOL    HW121472   1.569   2.527   4.271 -0.4265  1.0029 -0.8289
 6884SOL    HW221473   1.642   2.605   4.395 -0.9617 -1.4521  1.1301
 6885SOL     OW21474   0.437   3.182   3.214 -0.1723  0.0433  0.2034
 6885SOL    HW121475   0.523   3.153   3.258 -1.3662 -0.8331  2.0817
 6885SOL    HW221476   0.395   3.255   3.268 -0.3021  0.9487 -1.0763
 6886SOL     OW21477   5.949   0.764   1.961 -0.6734 -0.6172 -0.4797
 6886SOL    HW121478   5.920   0.671   1.982  0.3934 -0.5977  1.2275
 6886SOL    HW221479   5.935   0.822   2.041 -1.4120  0.7370 -1.5528
 6887SOL     OW21480   6.962   0.564   1.135 -0.3404 -0.4188 -0.7324
 6887SOL    HW121481   6.981   0.662   1.123  0.6469 -0.7624 -2.1379
 6887SOL    HW221482   6.895   0.535   1.067 -1.0730 -0.6278  0.0538
 6888SOL     OW21483   1.096   4.179   6.400  0.4742 -0.2261 -0.1289
 6888SOL    HW121484   1.029   4.127   6.347 -0.6770 -0.0566  1.1055
 6888SOL    HW221485   1.066   4.274   6.407  1.0537 -0.0575  0.1125
 6889SOL     OW21486   3.353   1.119   5.383  0.0090 -0.1087  0.0445
 6889SOL    HW121487   3.446   1.115   5.347 -0.1667 -1.6843 -0.2710
 6889SOL    HW221488   3.318   1.027   5.397 -0.9533  0.4746  1.6592
 6890SOL     OW21489   6.694   6.446   4.881 -0.3456 -0.2723 -0.3432
 6890SOL    HW121490   6.763   6.516   4.904 -0.6748 -0.7384  2.4770
 6890SOL    HW221491   6.650   6.471   4.795  0.5041  2.2488 -0.1567
 6891SOL     OW21492   3.092   1.561   4.512 -0.0124  0.2916 -0.1550
 6891SOL    HW121493   3.086   1.654   4.548  0.9482  0.1659  0.3532
 6891SOL    HW221494   3.132   1.562   4.420  0.2446  0.3591 -0.0429
 6892SOL     OW21495   6.086   5.924   0.453 -0.4527 -0.1448  0.3184
 6892SOL    HW121496   6.026   5.866   0.398 -0.6069 -1.4327  1.7707
 6892SOL    HW221497   6.069   5.908   0.550 -1.4070  3.2833  0.8682
 6893SOL     OW21498   6.167   4.424   0.072  0.1385  0.9978 -0.4957
 6893SOL    HW121499   6.102   4.429   0.148 -0.0777 -0.2571 -0.5822
 6893SOL    HW221500   6.157   4.506   0.015  1.1518  2.6076  1.4442
 6894SOL     OW21501   6.693   5.305   0.275 -0.0602 -0.0972  0.2531
 6894SOL    HW121502   6.603   5.347   0.260 -0.3659 -0.9577 -0.4177
 6894SOL    HW221503   6.764   5.368   0.244 -0.5134 -0.1106 -0.8596
 6895SOL     OW21504   3.849   1.688   1.914  1.0962  0.0468 -0.7539
 6895SOL    HW121505   3.810   1.634   1.839 -0.7145 -0.8290  0.7409
 6895SOL    HW221506   3.902   1.628   1.973 -0.1862  0.0265  0.4225
 6896SOL     OW21507   6.903   3.339   4.245  0.2843  0.3814  0.0172
 6896SOL    HW121508   6.940   3.326   4.337  2.5838 -3.5609 -1.2549
 6896SOL    HW221509   6.810   3.304   4.241 -0.0874  1.2083  0.9389
 6897SOL     OW21510   4.817   2.296   1.281 -0.1914 -0.2560  0.0017
 6897SOL    HW121511   4.896   2.265   1.334 -0.6719  1.7342  2.0034
 6897SOL    HW221512   4.849   2.355   1.207  0.2663 -0.1949  0.2415
 6898SOL     OW21513   3.780   3.824   4.074  1.0608  0.5379 -0.0008
 6898SOL    HW121514   3.713   3.791   4.007  0.3477 -0.5964  1.2126
 6898SOL    HW221515   3.738   3.894   4.132  0.5150 -0.9321  1.4575
 6899SOL     OW21516   0.430   5.128   5.136  0.0816  0.2026  0.6392
 6899SOL    HW121517   0.341   5.094   5.167  0.1221 -0.4342  0.0814
 6899SOL    HW221518   0.501   5.063   5.162  0.1592 -0.1848 -0.4806
 6900SOL     OW21519   1.504   2.561   1.765  0.2857 -0.4643 -0.0233
 6900SOL    HW121520   1.493   2.542   1.862  0.0242  0.8196  0.2235
 6900SOL    HW221521   1.580   2.507   1.728  1.5549  0.3529  1.3077
 6901SOL     OW21522   4.524   3.013   5.595  0.0838 -0.4675  0.4267
 6901SOL    HW121523   4.576   2.965   5.524 -0.0277  1.0543 -0.7336
 6901SOL    HW221524   4.579   3.090   5.629 -0.6675  0.0375  0.5145
 6902SOL     OW21525   1.321   1.298   5.755 -0.2985  0.4627 -0.0324
 6902SOL    HW121526   1.420   1.315   5.748 -0.3555  0.2367 -1.8474
 6902SOL    HW221527   1.282   1.291   5.663 -1.6438 -1.5717  0.6320
 6903SOL     OW21528   6.040   6.691   5.580  0.5081  0.5110 -0.5210
 6903SOL    HW121529   6.083   6.704   5.669 -2.2365 -0.2475  1.0236
 6903SOL    HW221530   6.071   6.605   5.540  1.8879  0.9362 -0.4453
 6904SOL     OW21531   1.486   5.328   6.534  0.4584  0.3673  0.1462
 6904SOL    HW121532   1.425   5.399   6.568 -0.3780  1.5097 -3.3177
 6904SOL    HW221533   1.448   5.288   6.450  2.9237 -1.2213 -0.3271
 6905SOL     OW21534   5.247   1.805   2.397 -0.2176  0.1716 -0.6203
 6905SOL    HW121535   5.237   1.709   2.421 -0.0111 -0.6081 -3.3914
 6905SOL    HW221536   5.159   1.842   2.368 -0.5322  1.1812  1.4587
 6906SOL     OW21537   3.140   0.501   4.030  0.1875  0.5659 -0.5930
 6906SOL    HW121538   3.210   0.480   3.961  0.4492  2.5982 -0.9913
 6906SOL    HW221539   3.170   0.579   4.084 -0.7085 -0.0757  0.8535
 6907SOL     OW21540   0.748   3.061   0.718  0.2380  0.3874 -0.3172
 6907SOL    HW121541   0.800   3.132   0.670  1.8778 -0.0538  0.7509
 6907SOL    HW221542   0.809   2.989   0.748 -0.9027  0.1038  1.4661
 6908SOL     OW21543   4.314   6.276   5.378 -0.4995 -0.5971  0.1776
 6908SOL    HW121544   4.229   6.225   5.370  0.3142 -1.9022 -0.3553
 6908SOL    HW221545   4.303   6.366   5.334 -1.4366 -0.9382 -0.3105
 6909SOL     OW21546   0.009   1.602   1.354 -0.6918 -0.0278 -0.6002
 6909SOL    HW121547  -0.009   1.699   1.338  1.7730  0.5327 -0.2529
 6909SOL    HW221548  -0.066   1.563   1.406 -0.4709  2.3751  1.6869
 6910SOL     OW21549   0.154   0.588   3.242  0.4524  0.0745 -0.5818
 6910SOL    HW121550   0.124   0.580   3.147  1.2327  0.1831 -0.8458
 6910SOL    HW221551   0.250   0.561   3.250  1.4124  3.1315 -0.4150
 6911SOL     OW21552   5.654   5.435   6.509 -0.3247  0.3746 -0.3790
 6911SOL    HW121553   5.568   5.434   6.560 -1.8019  0.3624 -2.7203
 6911SOL    HW221554   5.658   5.355   6.449  1.2537  0.4857 -0.4705
 6912SOL     OW21555   3.250   0.821   6.923 -0.0704  0.2723  0.6380
 6912SOL    HW121556   3.344   0.804   6.952 -0.2135 -1.3097  0.2753
 6912SOL    HW221557   3.194   0.740   6.944 -1.1265  0.7976 -0.0750
 6913SOL     OW21558   4.696   0.254   4.110  0.1209 -0.3840  0.2778
 6913SOL    HW121559   4.697   0.243   4.010  0.6180 -2.4955  0.4720
 6913SOL    HW221560   4.782   0.295   4.139 -1.0696  2.8299 -0.3373
 6914SOL     OW21561   5.689   0.143   1.216  0.0742 -0.2119 -0.2336
 6914SOL    HW121562   5.700   0.242   1.227 -0.6822 -0.2374  0.9104
 6914SOL    HW221563   5.774   0.097   1.243  0.0097  0.0620  0.4806
 6915SOL     OW21564   3.428   1.361   4.822  0.0529 -0.0765 -0.4122
 6915SOL    HW121565   3.416   1.411   4.736 -0.8270 -0.4233 -0.5016
 6915SOL    HW221566   3.352   1.298   4.835  0.6103 -0.6350  0.2192
 6916SOL     OW21567   0.089   2.966   3.294 -0.0670  0.9544  0.3105
 6916SOL    HW121568   0.144   2.963   3.210 -1.5252  0.6754 -0.6647
 6916SOL    HW221569   0.095   3.058   3.334 -0.1732  1.4088 -0.6765
 6917SOL     OW21570   5.267   2.404   1.653 -0.5927  0.2398 -0.2732
 6917SOL    HW121571   5.331   2.415   1.577 -0.2608 -0.0065 -0.0372
 6917SOL    HW221572   5.244   2.307   1.664 -0.1084  0.1809  0.3536
 6918SOL     OW21573   1.788   0.812   0.565  0.0840  0.4244 -0.3130
 6918SOL    HW121574   1.749   0.811   0.473  0.5964 -1.3945 -0.5423
 6918SOL    HW221575   1.726   0.861   0.627 -1.1603  0.0716 -1.2485
 6919SOL     OW21576   0.697   4.468   3.552  0.6727 -0.3288 -0.3850
 6919SOL    HW121577   0.625   4.525   3.512 -0.2593 -1.8656 -0.9870
 6919SOL    HW221578   0.711   4.494   3.648 -0.4185  0.2440 -0.3633
 6920SOL     OW21579   4.055   2.097   3.199 -0.1392  0.1652 -0.3461
 6920SOL    HW121580   4.029   2.101   3.103 -0.7528  0.8885 -0.1602
 6920SOL    HW221581   3.993   2.035   3.248  0.5461 -0.6872 -0.5122
 6921SOL     OW21582   0.093   0.198   0.143  0.0395 -0.0349  0.3830
 6921SOL    HW121583   0.142   0.283   0.120  0.7909 -0.6829 -0.5660
 6921SOL    HW221584   0.074   0.148   0.059  1.0298 -1.5556  1.0255
 6922SOL     OW21585   1.290   1.990   3.763 -0.1113 -0.2602 -0.3799
 6922SOL    HW121586   1.221   2.035   3.820 -0.3700  0.4602 -1.2447
 6922SOL    HW221587   1.253   1.904   3.728 -0.4936  0.0199 -0.6685
 6923SOL     OW21588   2.674   6.576   1.832 -0.5491  0.8622 -0.2242
 6923SOL    HW121589   2.586   6.533   1.810 -1.1148  2.1700 -0.6112
 6923SOL    HW221590   2.726   6.516   1.893 -0.9848 -0.6929 -1.3139
 6924SOL     OW21591   5.430   5.913   0.273 -0.1919 -0.2766 -0.2725
 6924SOL    HW121592   5.509   5.858   0.244 -0.5224 -2.0545  1.8149
 6924SOL    HW221593   5.443   6.008   0.245  1.1053 -1.0919 -2.8459
 6925SOL     OW21594   1.121   2.740   1.754  0.6596  0.5816  0.0117
 6925SOL    HW121595   1.095   2.761   1.660 -2.0342  1.2245  0.8369
 6925SOL    HW221596   1.189   2.806   1.785  0.0100  1.6763 -0.8175
 6926SOL     OW21597   5.150   0.720   4.294  0.2581 -0.0615  0.8530
 6926SOL    HW121598   5.203   0.635   4.288 -0.4400 -0.5574  1.5251
 6926SOL    HW221599   5.058   0.699   4.326  0.2921  1.0334  1.7251
 6927SOL     OW21600   6.568   3.606   5.747  0.1068  0.5098 -0.3241
 6927SOL    HW121601   6.501   3.645   5.809  2.4735  2.5882  1.1004
 6927SOL    HW221602   6.536   3.614   5.652 -1.9496  0.6701  0.3655
 6928SOL     OW21603   1.172   2.028   1.312  0.3301  0.4154  0.5175
 6928SOL    HW121604   1.257   2.040   1.363  0.8339 -1.0103  0.1030
 6928SOL    HW221605   1.106   1.980   1.369  1.3833 -2.4737 -0.5199
 6929SOL     OW21606   3.728   3.405   4.747  1.2829  0.4487  0.2982
 6929SOL    HW121607   3.789   3.443   4.677  1.0308 -1.3104 -0.9705
 6929SOL    HW221608   3.650   3.361   4.702 -1.0697  2.7006  1.8563
 6930SOL     OW21609   0.159   3.717   5.198  0.0645 -0.3162  0.6248
 6930SOL    HW121610   0.224   3.651   5.159  1.2331  1.4864 -0.7003
 6930SOL    HW221611   0.209   3.788   5.247 -1.0883  0.0004  1.3814
 6931SOL     OW21612   1.008   3.251   0.210  0.0374 -0.5171  0.9759
 6931SOL    HW121613   1.061   3.313   0.268 -0.9631 -1.5302  3.0719
 6931SOL    HW221614   1.071   3.203   0.148  1.1074  0.7886  0.9916
 6932SOL     OW21615   1.604   0.658   0.082 -0.3200  0.6428 -0.4625
 6932SOL    HW121616   1.520   0.606   0.098  0.5602 -0.0660  2.1760
 6932SOL    HW221617   1.663   0.607   0.019 -0.4326 -0.4959  0.3177
 6933SOL     OW21618   5.313   2.732   3.614 -0.4884 -0.7225 -0.3117
 6933SOL    HW121619   5.363   2.819   3.622 -1.4360 -0.3217  1.6854
 6933SOL    HW221620   5.221   2.749   3.579 -0.9696 -0.8054  0.8946
 6934SOL     OW21621   3.801   5.537   4.006  0.1151  0.9827 -0.0739
 6934SOL    HW121622   3.722   5.586   4.043 -0.5196  0.3421 -0.5523
 6934SOL    HW221623   3.853   5.496   4.082 -1.2526 -0.4309  0.1695
 6935SOL     OW21624   4.842   6.380   3.458  0.2651 -0.4741 -0.1298
 6935SOL    HW121625   4.748   6.393   3.489 -0.3892 -0.0758 -2.0675
 6935SOL    HW221626   4.860   6.441   3.380  1.9250 -0.9682 -0.1772
 6936SOL     OW21627   5.721   1.719   1.067  0.9131 -0.1906  0.6550
 6936SOL    HW121628   5.703   1.621   1.061  0.3592 -0.0406 -0.4706
 6936SOL    HW221629   5.647   1.763   1.117 -0.2405 -0.0159 -1.1229
 6937SOL     OW21630   5.575   3.413   5.227  0.5448 -0.0861 -0.5504
 6937SOL    HW121631   5.530   3.428   5.315  0.8466  0.6344 -0.5039
 6937SOL    HW221632   5.532   3.471   5.158  3.1331  2.7913  0.0724
 6938SOL     OW21633   1.180   2.589   2.602  0.2586 -0.6095 -0.1901
 6938SOL    HW121634   1.214   2.516   2.661  1.3212  0.0451  0.0422
 6938SOL    HW221635   1.121   2.651   2.654 -2.3892 -2.4113 -0.8692
 6939SOL     OW21636   3.730   0.439   4.149 -0.2481 -0.0574  0.2767
 6939SOL    HW121637   3.780   0.523   4.127  1.4984 -0.8769  0.9541
 6939SOL    HW221638   3.702   0.393   4.064  0.1680  0.4193 -0.1249
 6940SOL     OW21639   0.771   0.891   5.124  0.0415 -0.1779  0.0804
 6940SOL    HW121640   0.776   0.934   5.215  0.5551 -1.2612  0.5937
 6940SOL    HW221641   0.863   0.889   5.084  0.3603 -2.2163  0.7842
 6941SOL     OW21642   3.874   2.276   5.272 -0.0556 -0.0785  0.5797
 6941SOL    HW121643   3.776   2.259   5.282 -0.1688 -0.0432 -0.4188
 6941SOL    HW221644   3.909   2.320   5.355 -1.1294  1.0596  0.4512
 6942SOL     OW21645   2.137   6.948   1.700  0.0649 -0.3454 -0.4305
 6942SOL    HW121646   2.147   6.860   1.746  0.8192 -1.3063 -2.3065
 6942SOL    HW221647   2.045   6.955   1.661  0.0361 -0.3544 -0.3655
 6943SOL     OW21648   2.539   6.789   3.361  0.7504 -0.1498 -0.4794
 6943SOL    HW121649   2.455   6.841   3.375 -0.9590 -2.6389 -0.9019
 6943SOL    HW221650   2.555   6.779   3.263  1.5396  0.2770 -0.3990
 6944SOL     OW21651   6.585   3.660   6.487 -0.3948 -0.5594 -0.6096
 6944SOL    HW121652   6.547   3.730   6.548 -1.1736 -0.3005 -1.3741
 6944SOL    HW221653   6.554   3.676   6.394  1.2084 -0.6402 -1.2021
 6945SOL     OW21654   3.622   1.788   2.205  0.1062  0.0156 -0.1015
 6945SOL    HW121655   3.709   1.758   2.167  0.2633 -0.3960  0.5727
 6945SOL    HW221656   3.620   1.769   2.303 -1.0082 -0.5987 -0.2366
 6946SOL     OW21657   3.510   1.651   4.466  0.3870 -0.4952 -0.1396
 6946SOL    HW121658   3.546   1.569   4.510  1.2332  0.3798  0.8298
 6946SOL    HW221659   3.570   1.678   4.391 -0.0041 -0.8709 -0.5945
 6947SOL     OW21660   0.988   3.496   4.754 -0.6108  0.3212  0.5610
 6947SOL    HW121661   1.046   3.428   4.708 -1.1274 -0.4476  1.0211
 6947SOL    HW221662   0.893   3.481   4.728 -1.2075 -1.4093  3.3256
 6948SOL     OW21663   1.215   1.801   3.255 -0.4215 -0.4477  0.3082
 6948SOL    HW121664   1.253   1.740   3.185 -0.5892 -0.2681  0.0547
 6948SOL    HW221665   1.159   1.748   3.318  0.5628 -0.7782  0.9200
 6949SOL     OW21666   3.255   1.850   2.439 -0.1179  0.4495 -0.1616
 6949SOL    HW121667   3.271   1.814   2.531 -0.7788  0.5727  0.0108
 6949SOL    HW221668   3.156   1.861   2.425 -0.1199 -0.8374 -1.3679
 6950SOL     OW21669   2.510   2.567   6.917  0.3949 -0.6021 -0.2190
 6950SOL    HW121670   2.416   2.538   6.937  0.5826 -1.4172 -0.4623
 6950SOL    HW221671   2.569   2.545   6.994  0.5717 -1.0259 -0.4724
 6951SOL     OW21672   0.224   0.537   2.005  0.0239  0.2443  0.4417
 6951SOL    HW121673   0.153   0.508   2.069 -1.7949  1.1644 -1.0431
 6951SOL    HW221674   0.200   0.626   1.967  0.7522 -0.4824 -1.8898
 6952SOL     OW21675   2.610   5.682   5.517  0.2145  0.4757  0.3901
 6952SOL    HW121676   2.703   5.689   5.483  0.6259 -1.0572  1.1172
 6952SOL    HW221677   2.552   5.749   5.471  0.9945 -0.6337 -2.3445
 6953SOL     OW21678   2.941   2.934   4.045  0.3721 -0.4037 -0.3048
 6953SOL    HW121679   2.944   2.976   4.136 -1.2368 -0.2757 -0.2808
 6953SOL    HW221680   2.942   3.005   3.975 -0.6333 -0.3685 -0.3071
 6954SOL     OW21681   3.908   4.582   0.823 -0.5186  0.0014  0.5856
 6954SOL    HW121682   4.004   4.555   0.829 -0.7824 -0.9651  0.6475
 6954SOL    HW221683   3.851   4.501   0.812 -1.4833  0.3781  2.3868
 6955SOL     OW21684   3.960   6.607   0.133 -0.4921 -0.5279 -0.1315
 6955SOL    HW121685   3.910   6.566   0.057  1.2101 -2.5709 -0.2087
 6955SOL    HW221686   4.013   6.685   0.100 -1.7039  0.1693 -0.5004
 6956SOL     OW21687   4.439   0.935   1.556  0.5830  0.3725  0.5014
 6956SOL    HW121688   4.371   1.002   1.526 -1.2349 -1.0687  1.2416
 6956SOL    HW221689   4.420   0.846   1.514  2.9673  0.2432 -0.4916
 6957SOL     OW21690   4.626   0.941   2.018 -0.3494 -0.6384 -0.3853
 6957SOL    HW121691   4.722   0.966   2.031  0.1271 -1.8130 -1.4276
 6957SOL    HW221692   4.583   1.006   1.955 -0.3793  0.1835  0.4787
 6958SOL     OW21693   3.977   4.281   6.297  0.6976  0.3056  0.1847
 6958SOL    HW121694   4.044   4.351   6.324  0.1960  1.4521 -1.4232
 6958SOL    HW221695   3.903   4.324   6.246 -0.7373 -1.1126  0.9794
 6959SOL     OW21696   6.159   1.584   5.766  0.5764  0.0236 -0.1201
 6959SOL    HW121697   6.225   1.638   5.817  1.4924  0.0577 -1.3024
 6959SOL    HW221698   6.102   1.644   5.710  0.9488 -0.1498 -0.7005
 6960SOL     OW21699   0.185   5.160   3.518  0.3054  0.0813  0.1259
 6960SOL    HW121700   0.234   5.097   3.458  1.4268  2.3057 -1.4230
 6960SOL    HW221701   0.242   5.240   3.536 -1.3272  1.0169  1.4526
 6961SOL     OW21702   0.259   5.702   2.235  0.4364  0.3977 -0.3027
 6961SOL    HW121703   0.217   5.758   2.306  1.1376  0.9711 -0.3258
 6961SOL    HW221704   0.265   5.754   2.150 -1.0391 -0.5126 -1.0142
 6962SOL     OW21705   4.283   0.130   6.315  0.3148 -0.1604  0.3086
 6962SOL    HW121706   4.274   0.198   6.388  1.0200 -0.2924  0.5293
 6962SOL    HW221707   4.193   0.091   6.296 -0.0040  0.4125  0.5839
 6963SOL     OW21708   3.406   2.541   0.325  0.4007 -0.1011  0.6059
 6963SOL    HW121709   3.393   2.486   0.408  0.1714 -0.5544  0.2792
 6963SOL    HW221710   3.473   2.496   0.266 -0.4861 -0.5451 -0.0903
 6964SOL     OW21711   3.663   6.184   5.668  0.1607 -0.2024  0.6795
 6964SOL    HW121712   3.584   6.246   5.660 -0.0453 -0.5429  0.0798
 6964SOL    HW221713   3.722   6.216   5.742 -0.3156  0.3030  0.8553
 6965SOL     OW21714   6.342   3.074   6.309  0.2621 -0.3577  0.2829
 6965SOL    HW121715   6.423   3.066   6.250 -0.3318 -1.8828 -0.3756
 6965SOL    HW221716   6.277   3.003   6.285 -1.2254  0.7536  0.8951
 6966SOL     OW21717   0.103   1.549   5.236 -0.0204  0.1444 -0.2636
 6966SOL    HW121718   0.119   1.634   5.285 -0.6512 -0.1990  0.5709
 6966SOL    HW221719   0.191   1.510   5.207  0.3068  0.7961 -0.1581
 6967SOL     OW21720   0.930   3.085   1.700  0.0446  0.5721  0.4122
 6967SOL    HW121721   0.847   3.084   1.645  0.1400 -1.9321  0.2186
 6967SOL    HW221722   0.956   3.180   1.718 -0.0950  1.6082 -3.6799
 6968SOL     OW21723   3.258   5.048   1.805 -0.3954  0.5106 -0.2077
 6968SOL    HW121724   3.262   4.952   1.832 -1.0757  0.6062  0.2708
 6968SOL    HW221725   3.241   5.055   1.707 -0.4748  0.1474 -0.2224
 6969SOL     OW21726   1.310   5.845   0.838 -0.0733 -0.9319  1.1687
 6969SOL    HW121727   1.251   5.807   0.766  0.3557  1.2966 -0.4522
 6969SOL    HW221728   1.403   5.854   0.803  0.7054 -2.0453  2.8587
 6970SOL     OW21729   3.093   0.602   2.438  0.2760  0.1494 -0.0423
 6970SOL    HW121730   3.113   0.514   2.481  1.0000  1.0736  1.6302
 6970SOL    HW221731   3.160   0.620   2.366  0.2011 -0.6024 -0.3074
 6971SOL     OW21732   1.504   6.534   1.020  0.1830  0.1486  0.2253
 6971SOL    HW121733   1.491   6.490   1.109  0.6928  0.4072  0.4333
 6971SOL    HW221734   1.446   6.489   0.952 -0.3207  0.0389  0.7167
 6972SOL     OW21735   5.141   1.146   2.077 -0.3374 -0.0058  0.7405
 6972SOL    HW121736   5.179   1.097   2.156  0.1022  0.1454  0.6206
 6972SOL    HW221737   5.127   1.242   2.101  1.4322  0.4355  0.0889
 6973SOL     OW21738   0.794   6.983   1.818 -0.4962 -0.0297 -0.0887
 6973SOL    HW121739   0.733   7.059   1.838  1.4233  1.9678 -1.3808
 6973SOL    HW221740   0.798   6.968   1.719 -0.0974 -1.2124  0.0832
 6974SOL     OW21741   3.395   1.750   1.110 -0.7998 -0.2461 -0.5640
 6974SOL    HW121742   3.387   1.689   1.189 -2.0262 -0.5134 -0.8856
 6974SOL    HW221743   3.469   1.718   1.051 -1.2530 -1.2740 -0.5964
 6975SOL     OW21744   1.049   5.812   5.031  0.5826  0.1287 -0.7540
 6975SOL    HW121745   1.003   5.752   5.096  0.6322  0.9868  0.1074
 6975SOL    HW221746   1.147   5.791   5.030  1.1720  2.1330  1.8946
 6976SOL     OW21747   2.438   3.368   6.806 -0.0395  0.2455 -0.6038
 6976SOL    HW121748   2.525   3.416   6.790  0.3592 -0.3835 -0.3794
 6976SOL    HW221749   2.455   3.289   6.865 -0.9960  0.8966  0.5831
 6977SOL     OW21750   0.342   2.072   1.993  0.6653  0.1708 -0.9387
 6977SOL    HW121751   0.268   2.033   1.938  1.3374 -0.0694 -1.6992
 6977SOL    HW221752   0.430   2.041   1.956  1.1645  1.0447 -0.5060
 6978SOL     OW21753   5.809   6.541   1.612 -0.0698  0.4436 -0.2461
 6978SOL    HW121754   5.897   6.571   1.649  0.2287  0.1819 -0.7361
 6978SOL    HW221755   5.821   6.454   1.564 -0.5384  0.5505 -0.5640
 6979SOL     OW21756   1.936   4.404   6.557 -0.0893  0.6306  1.0124
 6979SOL    HW121757   2.016   4.434   6.608  2.1605 -2.8309 -0.1148
 6979SOL    HW221758   1.910   4.473   6.489  0.5255  2.7463  2.8686
 6980SOL     OW21759   0.626   5.636   4.957 -0.4992 -0.1430  0.1476
 6980SOL    HW121760   0.667   5.718   4.917 -0.1157 -0.1124  0.6025
 6980SOL    HW221761   0.574   5.588   4.886 -0.2894  0.2088 -0.2528
 6981SOL     OW21762   3.748   3.640   4.336  0.0854  0.0112  0.1419
 6981SOL    HW121763   3.767   3.560   4.278  0.5665 -0.9678  1.6005
 6981SOL    HW221764   3.809   3.715   4.309  0.2257 -0.3842 -0.6921
 6982SOL     OW21765   4.208   1.321   1.724  0.0390  0.1696 -0.2614
 6982SOL    HW121766   4.247   1.411   1.703  0.9621 -0.1961 -0.1601
 6982SOL    HW221767   4.246   1.287   1.810 -0.6425 -0.1228 -0.0680
 6983SOL     OW21768   5.433   1.149   2.194  0.0285  0.2661  0.1760
 6983SOL    HW121769   5.436   1.084   2.270 -1.0101  0.9625  0.8516
 6983SOL    HW221770   5.383   1.231   2.223 -0.6442  0.4340 -1.3462
 6984SOL     OW21771   3.660   5.151   5.152  0.0380 -0.2248 -0.1363
 6984SOL    HW121772   3.564   5.127   5.137 -0.0451 -1.6150  2.1765
 6984SOL    HW221773   3.712   5.068   5.175  1.0807  0.8998  1.8445
 6985SOL     OW21774   3.358   6.373   6.909 -1.0446  0.5504 -0.1733
 6985SOL    HW121775   3.362   6.288   6.856 -0.3874  0.7256 -0.4323
 6985SOL    HW221776   3.419   6.441   6.868 -1.8085  1.2620 -0.1551
 6986SOL     OW21777   4.120   2.283   6.106  0.2460 -0.1846  0.2781
 6986SOL    HW121778   4.090   2.319   6.195  0.0523 -2.2500  1.0925
 6986SOL    HW221779   4.124   2.183   6.110  1.9183 -0.2494 -1.5024
 6987SOL     OW21780   5.882   1.120   1.544  0.1484  0.0536 -0.1730
 6987SOL    HW121781   5.815   1.172   1.597  0.1863  0.0927 -0.1629
 6987SOL    HW221782   5.940   1.183   1.493  2.2610  0.2572  2.2474
 6988SOL     OW21783   5.844   1.347   4.823  0.4232 -0.4167  0.9942
 6988SOL    HW121784   5.942   1.329   4.821  0.1375 -2.7241  2.8352
 6988SOL    HW221785   5.817   1.376   4.915 -0.8611 -1.9777  1.1771
 6989SOL     OW21786   5.504   2.941   1.607  0.3186 -0.8009 -0.0285
 6989SOL    HW121787   5.425   2.897   1.651 -0.4433  1.1809  0.6700
 6989SOL    HW221788   5.480   2.966   1.513 -0.4868  1.2648  0.6946
 6990SOL     OW21789   4.787   5.539   1.191 -0.1965  0.1777  0.2658
 6990SOL    HW121790   4.795   5.566   1.095  3.2432 -0.3410  0.2819
 6990SOL    HW221791   4.738   5.452   1.197 -0.8758  0.4499 -0.9634
 6991SOL     OW21792   4.290   5.848   4.001 -0.1470  0.2006 -0.0874
 6991SOL    HW121793   4.358   5.903   3.951  1.3917 -1.0839  0.5000
 6991SOL    HW221794   4.318   5.752   3.999 -3.7957 -1.0361 -2.8761
 6992SOL     OW21795   1.177   3.739   4.370  0.1494 -0.1256  0.4549
 6992SOL    HW121796   1.244   3.693   4.310  0.2983 -0.0335  0.5488
 6992SOL    HW221797   1.221   3.761   4.457 -0.0553 -0.2209  0.5826
 6993SOL     OW21798   1.476   6.912   2.030 -0.1760 -0.8382  0.2196
 6993SOL    HW121799   1.506   6.854   1.954  0.3078  0.6313 -0.7361
 6993SOL    HW221800   1.383   6.943   2.012  0.3777  0.5195 -0.4054
 6994SOL     OW21801   0.379   4.706   0.236  0.0306  0.0545 -0.6629
 6994SOL    HW121802   0.389   4.610   0.263 -2.0373 -0.3050 -0.9973
 6994SOL    HW221803   0.469   4.745   0.217  0.9232 -1.7837 -0.4251
 6995SOL     OW21804   2.414   5.942   2.149 -0.1239  0.5097 -0.2538
 6995SOL    HW121805   2.392   5.924   2.053  0.5470  2.3363 -0.7763
 6995SOL    HW221806   2.438   6.038   2.161 -1.3172  0.5917  1.9646
 6996SOL     OW21807   1.272   5.178   0.778 -0.3901  0.1541 -0.2919
 6996SOL    HW121808   1.358   5.162   0.730 -0.3907 -0.2796 -0.1557
 6996SOL    HW221809   1.281   5.257   0.838 -0.6189  1.1859 -1.5720
 6997SOL     OW21810   4.091   6.943   2.236  0.2776 -0.4553 -0.2426
 6997SOL    HW121811   4.069   7.022   2.180 -0.3552 -0.5710 -0.1283
 6997SOL    HW221812   4.181   6.907   2.211 -0.7540 -1.6383 -2.4986
 6998SOL     OW21813   5.750   3.904   6.127 -0.0094  0.1319  0.1196
 6998SOL    HW121814   5.732   3.806   6.119 -0.0101  0.1419 -0.0046
 6998SOL    HW221815   5.844   3.919   6.156 -0.1813  0.0771  0.7262
 6999SOL     OW21816   1.460   0.236   1.903 -0.1638 -0.7647  0.2066
 6999SOL    HW121817   1.508   0.229   1.991  1.0295 -1.1534 -0.4452
 6999SOL    HW221818   1.410   0.151   1.885 -0.0688 -0.8449  0.3158
 7000SOL     OW21819   4.115   2.687   6.585  0.1790 -0.1629 -0.5652
 7000SOL    HW121820   4.024   2.689   6.625  1.1655  2.1830  1.8585
 7000SOL    HW221821   4.122   2.612   6.520 -3.9023  0.4463 -1.9433
 7001SOL     OW21822   1.927   6.075   3.618 -0.1930 -0.1006  0.0442
 7001SOL    HW121823   1.946   5.999   3.680  0.3275  1.2132  1.5963
 7001SOL    HW221824   2.001   6.082   3.550 -0.7086 -1.4941 -0.7101
 7002SOL     OW21825   3.404   6.436   2.948 -0.0684  0.0146  0.0095
 7002SOL    HW121826   3.464   6.486   3.010  0.2101 -1.3939  0.9259
 7002SOL    HW221827   3.430   6.455   2.854  1.1765  0.1714  0.3671
 7003SOL     OW21828   4.206   1.080   1.125  0.0798 -0.1207 -0.2043
 7003SOL    HW121829   4.185   1.032   1.040  0.5417  1.2158 -1.1088
 7003SOL    HW221830   4.263   1.159   1.105  0.6251 -0.0668  1.4323
 7004SOL     OW21831   0.436   6.798   5.561  0.1222 -0.7842  0.9877
 7004SOL    HW121832   0.527   6.772   5.530 -0.0916  1.0117 -1.4707
 7004SOL    HW221833   0.372   6.722   5.546  0.4655 -0.6930 -1.1625
 7005SOL     OW21834   6.087   1.806   0.683 -0.2092  0.0879 -0.1167
 7005SOL    HW121835   5.988   1.817   0.685 -0.2422  1.1571 -3.1716
 7005SOL    HW221836   6.110   1.709   0.678 -1.0223 -0.2116  1.3921
 7006SOL     OW21837   4.430   1.625   5.581  0.5249 -0.0754 -0.4080
 7006SOL    HW121838   4.386   1.649   5.667  0.1232 -0.8360 -0.3852
 7006SOL    HW221839   4.402   1.532   5.554  0.9354  0.0081 -1.1639
 7007SOL     OW21840   0.815   2.526   0.022  0.7275  0.6071  0.0508
 7007SOL    HW121841   0.755   2.531   0.102 -0.3681 -3.5422 -0.3030
 7007SOL    HW221842   0.902   2.483   0.048  1.4963  1.7497 -0.5284
 7008SOL     OW21843   5.603   6.752   5.370 -0.3707 -0.0789 -0.1909
 7008SOL    HW121844   5.672   6.757   5.442  0.8450 -3.1461 -1.0176
 7008SOL    HW221845   5.526   6.697   5.401 -0.6172  0.0021 -0.6580
 7009SOL     OW21846   6.346   0.537   4.234 -0.3794 -0.2456 -0.7077
 7009SOL    HW121847   6.355   0.565   4.330 -0.1282  0.6531 -0.9764
 7009SOL    HW221848   6.257   0.567   4.199  0.2944  1.1290 -1.2843
 7010SOL     OW21849   3.934   3.289   1.439 -0.0343  0.5125  0.1267
 7010SOL    HW121850   3.949   3.287   1.538  0.9239  0.2442 -0.0145
 7010SOL    HW221851   3.961   3.201   1.400 -1.0788  0.3676 -0.2888
 7011SOL     OW21852   4.673   4.453   1.328  0.2209 -0.1012 -0.3794
 7011SOL    HW121853   4.629   4.543   1.323 -0.9930 -0.6465 -0.0087
 7011SOL    HW221854   4.736   4.443   1.252 -0.9174  0.4153 -1.4282
 7012SOL     OW21855   6.107   2.509   6.306  0.1445  0.3260  0.5175
 7012SOL    HW121856   6.082   2.461   6.222  2.7989 -1.1986  0.4639
 7012SOL    HW221857   6.107   2.445   6.382 -0.8559  1.3642  1.4027
 7013SOL     OW21858   2.696   0.543   6.920  0.1392  0.1612  0.3545
 7013SOL    HW121859   2.753   0.622   6.898  0.6828 -0.3396 -0.0734
 7013SOL    HW221860   2.644   0.562   7.003  0.1823  1.0081  0.1981
 7014SOL     OW21861   2.689   0.864   0.482  0.0555  0.6102  0.2772
 7014SOL    HW121862   2.752   0.864   0.404  1.4931 -0.0690  1.3590
 7014SOL    HW221863   2.626   0.786   0.474 -1.7541  2.1563 -1.5896
 7015SOL     OW21864   6.946   1.862   5.107  0.4568  0.0725  0.2531
 7015SOL    HW121865   6.924   1.778   5.058 -1.8122  1.0522 -0.5748
 7015SOL    HW221866   6.874   1.881   5.174  0.7529  1.5030  0.1856
 7016SOL     OW21867   0.716   0.409   5.765 -0.3196 -0.2579 -0.2092
 7016SOL    HW121868   0.685   0.378   5.675 -1.5654  1.2238 -0.3170
 7016SOL    HW221869   0.646   0.389   5.833 -0.3961  0.7234  0.0166
 7017SOL     OW21870   5.980   1.695   4.765 -1.0289  0.0475  0.1231
 7017SOL    HW121871   5.899   1.668   4.818 -0.2011 -2.4459  0.2768
 7017SOL    HW221872   5.971   1.664   4.671 -0.4287  0.0809  0.0419
 7018SOL     OW21873   0.654   5.807   4.113  0.0489  0.4190  0.3755
 7018SOL    HW121874   0.569   5.762   4.141  1.1540 -0.8503  1.7976
 7018SOL    HW221875   0.640   5.906   4.112 -1.1563  0.2970  1.6262
 7019SOL     OW21876   2.548   5.201   2.605  0.1051  0.0980  0.3586
 7019SOL    HW121877   2.507   5.116   2.638 -1.3319  0.2992 -0.7626
 7019SOL    HW221878   2.618   5.180   2.537 -2.1046 -0.2438 -1.9698
 7020SOL     OW21879   6.901   1.950   6.213 -0.4278  0.0362 -0.4475
 7020SOL    HW121880   6.879   1.931   6.309 -0.0863  2.0067  0.0561
 7020SOL    HW221881   6.984   1.899   6.188 -2.3603 -3.2350 -0.8002
 7021SOL     OW21882   3.169   0.259   6.290  0.4637  0.0208  0.4259
 7021SOL    HW121883   3.142   0.176   6.339 -1.8573 -1.1343 -2.5075
 7021SOL    HW221884   3.094   0.325   6.293  1.0931  0.7547  0.1660
 7022SOL     OW21885   0.169   2.912   2.561  0.4899 -0.1354  0.7584
 7022SOL    HW121886   0.141   2.997   2.516 -1.7737 -0.6299  1.0998
 7022SOL    HW221887   0.210   2.851   2.493 -1.6443 -0.3513 -0.4659
 7023SOL     OW21888   0.707   3.693   0.968  0.3933 -0.6860 -0.7299
 7023SOL    HW121889   0.654   3.615   1.000  1.5333 -1.0515  0.3345
 7023SOL    HW221890   0.801   3.666   0.951  0.7373  0.3820 -0.6355
 7024SOL     OW21891   0.537   2.881   4.593 -0.0731 -0.3628 -0.1765
 7024SOL    HW121892   0.493   2.968   4.569  0.9761  0.4160  0.6463
 7024SOL    HW221893   0.498   2.847   4.679  0.4276 -0.0357  0.1832
 7025SOL     OW21894   3.661   6.707   3.926 -0.1420  0.3576  0.2748
 7025SOL    HW121895   3.672   6.608   3.938  0.1700  0.3423 -0.1051
 7025SOL    HW221896   3.592   6.724   3.856  0.5339  0.3890 -0.3956
 7026SOL     OW21897   3.252   1.935   4.513 -0.4733 -0.2026 -0.6650
 7026SOL    HW121898   3.237   1.921   4.416 -0.0681 -0.7966 -0.6486
 7026SOL    HW221899   3.188   1.878   4.565 -0.4592 -0.1546 -0.5886
 7027SOL     OW21900   6.666   6.220   1.396 -0.5679  0.1064 -0.0113
 7027SOL    HW121901   6.622   6.187   1.313 -0.1452  1.6986 -0.9052
 7027SOL    HW221902   6.736   6.155   1.424 -1.8329 -1.2664  0.0675
 7028SOL     OW21903   3.805   2.920   5.877 -0.2073  0.3475  0.0662
 7028SOL    HW121904   3.751   2.966   5.947  0.0769 -1.7208  1.7474
 7028SOL    HW221905   3.839   2.833   5.913 -1.9658 -1.9549 -3.3282
 7029SOL     OW21906   3.324   0.854   2.246 -0.3136 -0.0178 -0.2244
 7029SOL    HW121907   3.242   0.842   2.190 -2.5590  0.4299  2.7061
 7029SOL    HW221908   3.308   0.929   2.311  2.7522  0.5506 -0.0237
 7030SOL     OW21909   6.822   2.400   5.192 -0.2900 -0.3100 -0.1197
 7030SOL    HW121910   6.836   2.456   5.273  1.2664  0.2768 -0.7542
 7030SOL    HW221911   6.754   2.329   5.211  2.0704 -2.0269  2.6530
 7031SOL     OW21912   5.886   4.359   5.092  0.2460 -0.0484  0.5843
 7031SOL    HW121913   5.916   4.420   5.020  0.4073 -0.6497  0.1319
 7031SOL    HW221914   5.965   4.327   5.145  0.5797 -2.2344 -1.0840
 7032SOL     OW21915   6.681   3.910   5.783 -0.3712 -0.2678 -0.2766
 7032SOL    HW121916   6.715   3.829   5.831  0.9870 -0.4704 -1.5226
 7032SOL    HW221917   6.758   3.964   5.751 -1.2747  1.1754 -0.0571
 7033SOL     OW21918   4.753   0.115   3.191  0.1811  0.6074  0.2436
 7033SOL    HW121919   4.817   0.167   3.247  0.2885  1.3755 -0.5810
 7033SOL    HW221920   4.802   0.046   3.138  0.2177  0.6433  0.2278
 7034SOL     OW21921   6.628   5.412   1.365 -0.5359 -0.7400 -0.1134
 7034SOL    HW121922   6.651   5.424   1.462 -1.4055 -1.1400  0.1522
 7034SOL    HW221923   6.609   5.316   1.346  1.4645 -0.9793 -1.1113
 7035SOL     OW21924   3.586   6.433   3.827 -0.2173 -0.1124  0.1946
 7035SOL    HW121925   3.639   6.363   3.874 -0.4278 -0.7286 -0.4622
 7035SOL    HW221926   3.488   6.411   3.832 -0.2913  0.1661  0.0425
 7036SOL     OW21927   0.588   5.640   0.331 -0.1660 -0.2968  0.7958
 7036SOL    HW121928   0.539   5.553   0.327  0.0986 -0.4156 -0.2758
 7036SOL    HW221929   0.542   5.702   0.395 -1.0049 -0.8375  0.7287
 7037SOL     OW21930   2.001   1.258   1.803  0.3327 -0.2830  0.0835
 7037SOL    HW121931   2.036   1.190   1.738  1.0037  2.0047 -2.0858
 7037SOL    HW221932   2.070   1.274   1.874 -0.0076 -2.1070  0.8891
 7038SOL     OW21933   1.486   4.175   6.520 -0.4796 -0.3513  0.2981
 7038SOL    HW121934   1.466   4.210   6.428  1.2020  0.6138  0.2358
 7038SOL    HW221935   1.404   4.180   6.577 -1.1781  0.4247 -0.7293
 7039SOL     OW21936   5.712   3.827   4.800 -0.4351  0.0936  0.7453
 7039SOL    HW121937   5.735   3.823   4.897  2.3141 -1.3756  0.1138
 7039SOL    HW221938   5.792   3.853   4.747 -1.0078 -2.1349 -1.3866
 7040SOL     OW21939   1.668   4.070   1.009 -0.2268  0.0317  0.0982
 7040SOL    HW121940   1.735   3.999   0.989 -1.1197 -0.7172 -0.2621
 7040SOL    HW221941   1.615   4.044   1.090  0.0341  0.7100  0.4963
 7041SOL     OW21942   3.139   4.050   5.876  0.1415 -0.9397  0.2100
 7041SOL    HW121943   3.175   4.118   5.812  1.0555 -1.1654  0.4589
 7041SOL    HW221944   3.070   4.092   5.934  0.9704 -0.0973  0.6244
 7042SOL     OW21945   3.813   1.380   1.495  0.5219  0.0983 -0.0395
 7042SOL    HW121946   3.747   1.311   1.465  0.5283  0.1361 -0.1424
 7042SOL    HW221947   3.900   1.365   1.450  0.0503  1.2316 -1.4292
 7043SOL     OW21948   4.087   6.774   5.059  0.0115  0.0767 -0.8293
 7043SOL    HW121949   4.090   6.685   5.104  0.5761 -2.1983 -4.9195
 7043SOL    HW221950   4.179   6.801   5.031 -0.1088  2.1748  0.5745
 7044SOL     OW21951   6.506   3.576   2.333 -0.1032 -0.6936 -0.0837
 7044SOL    HW121952   6.486   3.666   2.294  0.0787 -0.3381  0.6331
 7044SOL    HW221953   6.489   3.505   2.264  2.8021  0.0917 -1.7809
 7045SOL     OW21954   2.304   6.325   3.741  0.5109 -0.3468 -0.0869
 7045SOL    HW121955   2.327   6.229   3.760  1.0047  0.1953  2.2948
 7045SOL    HW221956   2.385   6.371   3.705  0.1315 -0.8977 -1.7547
 7046SOL     OW21957   6.145   3.863   5.299  0.6816 -0.2372  0.7661
 7046SOL    HW121958   6.088   3.874   5.380  0.4171  0.0019  0.5488
 7046SOL    HW221959   6.087   3.843   5.220  0.7819  1.1326  0.3167
 7047SOL     OW21960   0.332   0.538   0.190  0.0255 -0.2848  0.7524
 7047SOL    HW121961   0.371   0.479   0.261 -2.0044 -0.8165  1.5047
 7047SOL    HW221962   0.299   0.483   0.114  0.5407  0.1260  0.2221
 7048SOL     OW21963   2.362   1.577   5.622 -0.3262 -0.4608 -0.1532
 7048SOL    HW121964   2.452   1.620   5.618 -0.6878  0.7891  2.5483
 7048SOL    HW221965   2.358   1.501   5.558  1.9263  0.6824 -1.7887
 7049SOL     OW21966   4.025   4.999   5.428  0.0519 -0.1405  0.1961
 7049SOL    HW121967   3.934   5.000   5.471 -0.1884 -0.2893 -0.3022
 7049SOL    HW221968   4.056   4.905   5.417 -0.4550 -0.1718 -1.1312
 7050SOL     OW21969   6.683   6.021   2.850  0.6574 -0.0179 -0.0944
 7050SOL    HW121970   6.668   6.120   2.859  0.0831  0.0928 -1.9758
 7050SOL    HW221971   6.597   5.976   2.828  1.2461 -0.6865 -1.0881
 7051SOL     OW21972   2.729   0.030   0.564 -0.7182  1.0238  0.2735
 7051SOL    HW121973   2.710  -0.057   0.609 -1.1051  0.2457 -1.3073
 7051SOL    HW221974   2.653   0.055   0.504  1.2616 -0.0421 -2.9799
 7052SOL     OW21975   3.148   2.558   6.539 -0.0725  0.2429  0.8300
 7052SOL    HW121976   3.229   2.536   6.594 -0.7637  1.2161  2.2703
 7052SOL    HW221977   3.170   2.632   6.475  0.9293 -1.3503 -0.7476
 7053SOL     OW21978   1.017   4.406   1.339  0.1308 -0.1873 -0.3484
 7053SOL    HW121979   1.017   4.454   1.427 -0.9987  1.4489 -1.1693
 7053SOL    HW221980   0.977   4.315   1.351  0.4992 -0.1998  0.9269
 7054SOL     OW21981   0.437   4.952   1.864 -0.2926 -0.0028  0.4202
 7054SOL    HW121982   0.503   4.892   1.820 -0.7276 -0.8292  0.8402
 7054SOL    HW221983   0.415   5.028   1.803  1.6145  0.7494  0.6000
 7055SOL     OW21984   6.057   3.767   5.876  0.5130 -0.4979  0.3749
 7055SOL    HW121985   6.090   3.858   5.899  0.7971 -0.5727  0.2674
 7055SOL    HW221986   6.047   3.713   5.960 -1.0952  0.1067  0.5997
 7056SOL     OW21987   4.149   6.344   6.870 -0.0670 -0.3554  0.3345
 7056SOL    HW121988   4.207   6.282   6.922  1.4446  0.0956 -0.7272
 7056SOL    HW221989   4.146   6.316   6.774  0.6946  1.1928 -0.1864
 7057SOL     OW21990   3.164   3.445   4.691  0.8643  0.0779 -0.3877
 7057SOL    HW121991   3.138   3.350   4.673  0.1798 -0.2910  2.1612
 7057SOL    HW221992   3.245   3.468   4.637  0.9762 -1.9066 -1.1580
 7058SOL     OW21993   1.551   3.687   0.894 -0.1342 -0.2091  0.3375
 7058SOL    HW121994   1.546   3.781   0.860  1.0279 -0.7456 -1.4391
 7058SOL    HW221995   1.612   3.633   0.836 -2.0674 -2.5375  0.3232
 7059SOL     OW21996   1.617   5.053   4.140 -0.1386 -0.1420  0.4055
 7059SOL    HW121997   1.581   5.054   4.233  0.5930  0.7407  0.6833
 7059SOL    HW221998   1.649   5.144   4.115  2.8256 -1.0443  0.5487
 7060SOL     OW21999   6.940   0.024   3.375 -0.5540  0.0767 -0.5028
 7060SOL    HW122000   6.894  -0.040   3.438  1.4829 -1.1554 -0.1888
 7060SOL    HW222001   6.959   0.109   3.423 -1.2580  0.0767 -0.2046
 7061SOL     OW22002   2.503   1.117   2.429 -0.3309  0.0899  0.0897
 7061SOL    HW122003   2.598   1.092   2.409 -0.1812  0.8601 -0.2048
 7061SOL    HW222004   2.501   1.211   2.466 -0.8485 -0.3861  1.3231
 7062SOL     OW22005   2.672   2.391   0.931 -0.0869 -0.5820 -0.6583
 7062SOL    HW122006   2.739   2.439   0.874 -1.4995  0.6724 -1.3011
 7062SOL    HW222007   2.720   2.345   1.006  1.3336  2.0160  0.1631
 7063SOL     OW22008   6.244   1.318   6.814 -0.0975  0.2992 -0.3424
 7063SOL    HW122009   6.202   1.395   6.861  0.8334  0.2928  0.5179
 7063SOL    HW222010   6.281   1.349   6.726  0.3978  0.8783  0.0575
 7064SOL     OW22011   6.218   5.468   4.030 -0.6942  0.7125  0.1855
 7064SOL    HW122012   6.174   5.378   4.033 -0.8796  0.8108  0.4113
 7064SOL    HW222013   6.294   5.470   4.095 -1.4749  1.1307  1.1094
 7065SOL     OW22014   5.093   6.117   3.082 -0.6110 -0.4480 -0.2881
 7065SOL    HW122015   5.039   6.198   3.104  0.9584  0.6338 -0.1719
 7065SOL    HW222016   5.112   6.115   2.984 -0.6445 -0.6802 -0.2914
 7066SOL     OW22017   4.739   2.590   6.536  0.2987 -0.4702 -0.0408
 7066SOL    HW122018   4.808   2.637   6.481  0.2222  1.1116  1.1479
 7066SOL    HW222019   4.784   2.539   6.609  0.2739 -0.2200  0.1537
 7067SOL     OW22020   4.981   1.530   5.846 -0.2091  0.6179  0.2602
 7067SOL    HW122021   5.036   1.559   5.767 -0.0924 -0.6320 -0.1408
 7067SOL    HW222022   5.019   1.569   5.930  0.7710  0.4833 -0.1098
 7068SOL     OW22023   0.749   5.587   2.145 -1.0498 -0.2282  0.0799
 7068SOL    HW122024   0.725   5.565   2.050 -0.3923 -0.1987 -0.1004
 7068SOL    HW222025   0.666   5.597   2.199 -1.4319 -0.2631 -0.4915
 7069SOL     OW22026   0.375   4.892   6.272  0.0570 -0.3178  0.1816
 7069SOL    HW122027   0.341   4.982   6.246  0.6711 -0.0443  0.3239
 7069SOL    HW222028   0.297   4.830   6.283 -0.4773  0.5514  1.4922
 7070SOL     OW22029   0.179   3.718   6.367  0.1800 -0.1693 -0.1710
 7070SOL    HW122030   0.092   3.758   6.393  1.1741  0.3830  2.6034
 7070SOL    HW222031   0.179   3.620   6.389  0.6091  0.0569  0.9002
 7071SOL     OW22032   2.191   1.817   2.007 -0.0206 -0.0877 -0.5324
 7071SOL    HW122033   2.206   1.736   2.063 -1.0922 -0.5128 -0.8424
 7071SOL    HW222034   2.279   1.860   1.987  1.0118 -3.0188 -3.0818
 7072SOL     OW22035   5.753   6.470   3.627  0.2590 -0.4462 -0.0285
 7072SOL    HW122036   5.712   6.561   3.613 -1.0304 -1.2862 -2.3625
 7072SOL    HW222037   5.843   6.467   3.583  0.6834 -0.0675  0.7951
 7073SOL     OW22038   2.662   0.205   1.242  0.6166  0.2005  0.4324
 7073SOL    HW122039   2.738   0.142   1.258 -0.1667 -1.1826 -1.0691
 7073SOL    HW222040   2.580   0.171   1.288  0.2842  0.3377 -0.0496
 7074SOL     OW22041   5.596   1.516   0.645  0.1530  0.5423  0.6319
 7074SOL    HW122042   5.522   1.469   0.597  1.0578  0.0443 -0.3143
 7074SOL    HW222043   5.560   1.598   0.690 -0.8521  0.6558 -0.3476
 7075SOL     OW22044   4.212   6.339   4.915 -0.6322  0.1866 -0.6670
 7075SOL    HW122045   4.282   6.406   4.939  0.3608 -1.6971  2.1548
 7075SOL    HW222046   4.245   6.282   4.840  0.2180  0.3153 -0.4021
 7076SOL     OW22047   1.271   6.210   0.323 -0.0760  0.2459  0.0098
 7076SOL    HW122048   1.314   6.260   0.247  0.2892 -0.6519 -0.3998
 7076SOL    HW222049   1.241   6.121   0.290  0.3075 -0.2549  0.9828
 7077SOL     OW22050   5.487   3.547   3.014  0.1341 -0.2525 -0.5827
 7077SOL    HW122051   5.556   3.582   2.951 -1.1222  1.3465 -1.1412
 7077SOL    HW222052   5.400   3.595   3.000 -0.3968 -0.3134  1.9219
 7078SOL     OW22053   6.458   2.513   2.525 -0.6387  0.1004  0.2752
 7078SOL    HW122054   6.431   2.505   2.620 -0.2782 -0.3026  0.3515
 7078SOL    HW222055   6.523   2.440   2.503 -0.7580  0.1549 -0.2898
 7079SOL     OW22056   3.388   2.466   5.539  0.2714  0.2567  0.1705
 7079SOL    HW122057   3.333   2.401   5.591  0.7702 -0.1512  0.1866
 7079SOL    HW222058   3.327   2.531   5.492 -0.1861  0.8053  1.4604
 7080SOL     OW22059   4.099   5.657   4.940 -0.0408 -0.0582  0.2800
 7080SOL    HW122060   4.115   5.559   4.949  0.2555 -0.0013  0.3988
 7080SOL    HW222061   4.114   5.685   4.845 -0.8646 -0.2568  0.0890
 7081SOL     OW22062   5.563   6.258   3.621 -0.2047 -0.2535  0.1620
 7081SOL    HW122063   5.570   6.204   3.537 -0.1057 -1.9089  1.1868
 7081SOL    HW222064   5.617   6.342   3.612 -0.2620 -0.3543 -1.4329
 7082SOL     OW22065   5.763   4.347   6.891  0.3666 -0.4324 -0.5561
 7082SOL    HW122066   5.690   4.287   6.858 -1.4933  1.5910 -0.3454
 7082SOL    HW222067   5.776   4.423   6.827  2.1471 -0.6063 -0.4510
 7083SOL     OW22068   5.636   4.811   2.089  0.0069  0.1114  0.6574
 7083SOL    HW122069   5.685   4.882   2.038 -1.8812  1.6961  0.9514
 7083SOL    HW222070   5.617   4.734   2.028  1.4272  0.1292  0.1344
 7084SOL     OW22071   0.332   2.840   3.466  0.4114  0.2670 -0.6205
 7084SOL    HW122072   0.429   2.859   3.474  0.4046  0.4111 -0.8722
 7084SOL    HW222073   0.298   2.872   3.377  0.5821 -1.7000 -1.4531
 7085SOL     OW22074   2.563   4.575   4.489  0.0699  0.6908  0.2108
 7085SOL    HW122075   2.636   4.605   4.429  1.1979 -0.0558  1.1589
 7085SOL    HW222076   2.600   4.554   4.579 -1.1097 -0.7822  0.3966
 7086SOL     OW22077   6.651   4.956   1.662  0.4138  0.3250  0.5095
 7086SOL    HW122078   6.626   4.879   1.720  0.6220  0.3156  0.5873
 7086SOL    HW222079   6.750   4.960   1.651  0.3006 -0.7106 -1.2560
 7087SOL     OW22080   4.164   4.941   1.738  0.1233 -0.5017  0.3727
 7087SOL    HW122081   4.215   4.876   1.682  0.3354 -0.6031  0.6780
 7087SOL    HW222082   4.144   5.023   1.684 -0.5382 -0.9961 -0.1532
 7088SOL     OW22083   1.032   4.731   1.356 -0.0015  0.1337  0.4533
 7088SOL    HW122084   0.997   4.824   1.347  0.5119  0.1650 -1.9174
 7088SOL    HW222085   0.956   4.666   1.345 -0.3547  0.2269  2.0825
 7089SOL     OW22086   1.699   1.510   3.831 -0.3431 -0.0209 -0.0239
 7089SOL    HW122087   1.760   1.584   3.801 -1.4260  0.2712 -1.6810
 7089SOL    HW222088   1.630   1.494   3.760 -1.8269 -0.7415  1.5186
 7090SOL     OW22089   2.446   6.779   1.883 -0.0576  0.1605 -0.0375
 7090SOL    HW122090   2.391   6.697   1.866  1.5612 -0.4268 -3.3999
 7090SOL    HW222091   2.543   6.754   1.885  0.5603  2.0130 -2.3660
 7091SOL     OW22092   3.713   4.595   0.156  1.0652  0.5369 -0.0905
 7091SOL    HW122093   3.678   4.554   0.240 -0.2796 -1.0841 -1.3750
 7091SOL    HW222094   3.703   4.694   0.161 -0.9513  0.3288  0.8201
 7092SOL     OW22095   6.515   4.754   1.410  0.3215 -0.1299  0.7141
 7092SOL    HW122096   6.577   4.763   1.488 -0.3234 -1.7384  1.4561
 7092SOL    HW222097   6.558   4.792   1.329  0.5758  2.6565  2.0225
 7093SOL     OW22098   6.987   3.609   3.843  0.0637 -0.3872  0.1428
 7093SOL    HW122099   6.923   3.540   3.810 -1.1360  1.0054 -0.5704
 7093SOL    HW222100   6.962   3.698   3.805  2.1217  0.2956  0.2665
 7094SOL     OW22101   3.431   0.735   3.404 -0.3801 -0.1923 -0.0895
 7094SOL    HW122102   3.375   0.761   3.325 -0.0826 -0.2454 -0.3214
 7094SOL    HW222103   3.525   0.716   3.373 -0.0134  0.7589  0.4151
 7095SOL     OW22104   3.593   3.942   5.013  0.6138  0.3964 -0.0450
 7095SOL    HW122105   3.524   3.878   5.047  0.7861 -0.0297 -0.4724
 7095SOL    HW222106   3.590   3.943   4.913  1.3226  0.2575 -0.0724
 7096SOL     OW22107   5.650   4.095   4.043  0.1867 -0.3389  0.5148
 7096SOL    HW122108   5.701   4.036   3.981  0.9563  0.4378  0.3880
 7096SOL    HW222109   5.563   4.121   4.000  2.2680  3.2901 -2.0559
 7097SOL     OW22110   1.754   6.819   3.663  0.4970  0.1202 -0.1685
 7097SOL    HW122111   1.685   6.852   3.728 -0.0816  0.8466 -1.1237
 7097SOL    HW222112   1.709   6.776   3.585  1.2110 -3.2989  1.1453
 7098SOL     OW22113   4.630   3.917   5.945  0.6468  0.0781  0.3051
 7098SOL    HW122114   4.593   3.899   6.036  0.2886  0.0738  0.1649
 7098SOL    HW222115   4.586   3.997   5.906  0.3556 -0.2737 -0.1037
 7099SOL     OW22116   6.960   5.096   2.640 -0.2716  0.0994  0.6403
 7099SOL    HW122117   7.012   5.142   2.712 -1.0421  1.0502  0.5907
 7099SOL    HW222118   7.008   5.012   2.613  2.3799  1.9296 -0.8182
 7100SOL     OW22119   6.408   2.915   2.757  0.2902 -0.6076 -0.2291
 7100SOL    HW122120   6.347   2.991   2.780  1.0423 -0.4926  1.5055
 7100SOL    HW222121   6.428   2.862   2.839  2.0282 -0.9774 -0.8519
 7101SOL     OW22122   1.396   6.379   5.794 -0.6643  0.4344  0.2150
 7101SOL    HW122123   1.376   6.306   5.728 -0.6545  1.5952 -1.1316
 7101SOL    HW222124   1.343   6.365   5.877 -1.4956 -0.4995 -0.4573
 7102SOL     OW22125   1.613   3.873   2.478 -0.0835  0.3289 -0.0694
 7102SOL    HW122126   1.691   3.821   2.511 -1.5726 -2.4591 -0.6780
 7102SOL    HW222127   1.535   3.858   2.539 -0.8170  1.0728 -0.8081
 7103SOL     OW22128   2.109   4.764   0.550  0.3352  0.4860 -0.4690
 7103SOL    HW122129   2.132   4.718   0.635  0.2930 -0.7500 -1.0912
 7103SOL    HW222130   2.023   4.727   0.514 -0.2719  1.8269 -0.4699
 7104SOL     OW22131   6.173   0.475   0.810 -0.0575  0.6229 -0.4083
 7104SOL    HW122132   6.147   0.433   0.897  0.9093 -0.7586 -0.7426
 7104SOL    HW222133   6.264   0.514   0.818 -0.0987  0.7866 -0.7050
 7105SOL     OW22134   5.452   1.946   0.498 -0.3717 -0.0009  0.3807
 7105SOL    HW122135   5.487   1.909   0.412  0.9530 -1.2848  1.3958
 7105SOL    HW222136   5.502   2.030   0.521  0.7063 -0.7485  0.8530
 7106SOL     OW22137   0.016   4.003   2.938 -0.1985  0.2841 -0.1735
 7106SOL    HW122138   0.018   4.092   2.985 -0.1648  1.4813 -2.3070
 7106SOL    HW222139   0.109   3.975   2.916  0.0191 -1.5812  2.6435
 7107SOL     OW22140   2.491   4.558   6.131 -0.3207  0.0658  0.0118
 7107SOL    HW122141   2.483   4.598   6.039 -2.2460 -0.3970 -0.0530
 7107SOL    HW222142   2.413   4.498   6.148  0.3775 -0.4065  1.7057
 7108SOL     OW22143   6.939   2.959   5.451  0.1599  0.4336  0.1825
 7108SOL    HW122144   7.011   2.899   5.487  1.0647  1.8529  0.8141
 7108SOL    HW222145   6.937   2.952   5.351 -0.0427 -0.9244  0.2498
 7109SOL     OW22146   4.332   2.619   1.051  0.0577 -0.0515 -0.8490
 7109SOL    HW122147   4.307   2.593   0.957 -2.2884 -0.7860 -0.0839
 7109SOL    HW222148   4.348   2.536   1.105  0.5579  0.3484 -0.3782
 7110SOL     OW22149   5.220   2.298   6.246 -0.2264 -0.4459  0.0634
 7110SOL    HW122150   5.183   2.242   6.172 -0.1372 -0.1951 -0.1744
 7110SOL    HW222151   5.195   2.394   6.231  1.6369 -0.0577 -0.8262
 7111SOL     OW22152   1.979   0.880   0.194 -0.4594 -0.2557  0.9361
 7111SOL    HW122153   1.986   0.941   0.115 -1.0238  0.7131  1.6051
 7111SOL    HW222154   2.070   0.846   0.218  0.3463  2.4044  2.1134
 7112SOL     OW22155   1.494   3.201   1.474  0.9176 -0.6102 -0.3997
 7112SOL    HW122156   1.588   3.194   1.443  0.8895  0.9062 -0.8540
 7112SOL    HW222157   1.493   3.205   1.574  1.4852  0.9733 -0.4232
 7113SOL     OW22158   1.855   2.487   1.940 -0.4115  0.0221 -0.5612
 7113SOL    HW122159   1.815   2.453   1.855 -1.9676  0.5491 -0.0739
 7113SOL    HW222160   1.929   2.551   1.919 -0.2523 -0.4532 -1.5036
 7114SOL     OW22161   2.750   4.963   3.982  0.5537  0.3768 -0.2364
 7114SOL    HW122162   2.756   5.057   4.016  1.0325  0.2545  0.0134
 7114SOL    HW222163   2.775   4.961   3.885  0.3493  0.5383 -0.2933
 7115SOL     OW22164   4.995   6.739   3.450  0.4653  0.3527 -0.2414
 7115SOL    HW122165   4.959   6.683   3.375 -0.3247 -0.2832  0.6029
 7115SOL    HW222166   5.063   6.686   3.501 -2.1788 -0.9506  2.2175
 7116SOL     OW22167   1.468   1.947   3.228  0.1596  0.1310  0.0799
 7116SOL    HW122168   1.476   2.028   3.170 -0.1900  0.1207  0.0135
 7116SOL    HW222169   1.389   1.892   3.198 -0.5155  0.5349  1.0532
 7117SOL     OW22170   5.237   1.661   4.731  0.0732 -0.3994  0.1096
 7117SOL    HW122171   5.318   1.713   4.756  0.5931 -0.7058 -0.8758
 7117SOL    HW222172   5.235   1.575   4.782 -0.9501  0.6858  1.9687
 7118SOL     OW22173   3.825   1.005   0.435 -0.4347  0.0535  0.5115
 7118SOL    HW122174   3.896   0.936   0.422 -0.8291 -0.4314  0.8984
 7118SOL    HW222175   3.856   1.072   0.503 -0.4054 -0.2393  0.7910
 7119SOL     OW22176   5.666   4.486   0.948  0.2428 -0.6569  0.2284
 7119SOL    HW122177   5.616   4.488   0.862 -0.8247  1.0134  0.8442
 7119SOL    HW222178   5.754   4.440   0.935  0.9947  1.2448 -2.2307
 7120SOL     OW22179   4.653   6.296   1.713  0.1701 -0.1443 -0.1827
 7120SOL    HW122180   4.747   6.280   1.743  0.8024  2.0619 -0.8300
 7120SOL    HW222181   4.633   6.239   1.633  1.1523 -0.1753 -0.4103
 7121SOL     OW22182   5.703   2.749   1.558 -0.5403 -0.5470  0.5387
 7121SOL    HW122183   5.684   2.677   1.625  0.2016  0.1933  1.5818
 7121SOL    HW222184   5.646   2.829   1.578 -2.2749 -1.2183 -1.3632
 7122SOL     OW22185   5.527   1.900   3.192  0.1168 -0.0702 -0.4545
 7122SOL    HW122186   5.584   1.957   3.133  1.6340  1.5115  2.3387
 7122SOL    HW222187   5.581   1.825   3.230 -0.2989  0.0071  0.3247
 7123SOL     OW22188   2.949   3.575   0.552  0.3095 -0.2691  0.0772
 7123SOL    HW122189   2.992   3.568   0.642 -0.8761 -1.4579  0.5894
 7123SOL    HW222190   2.854   3.544   0.559  0.3293 -0.7707 -1.6843
 7124SOL     OW22191   0.050   5.554   5.340  0.4627 -0.0190  0.0846
 7124SOL    HW122192   0.006   5.568   5.251  0.8603  1.0002  0.0405
 7124SOL    HW222193   0.142   5.515   5.326 -0.4206 -2.3294  0.1836
 7125SOL     OW22194   4.938   0.110   4.594  0.2306  0.6162  0.4583
 7125SOL    HW122195   5.035   0.090   4.611  0.0774 -0.3184  0.3347
 7125SOL    HW222196   4.900   0.039   4.535  0.1630  2.4650 -1.8817
 7126SOL     OW22197   5.638   4.411   5.186  0.4522 -0.2051  0.5191
 7126SOL    HW122198   5.727   4.402   5.142 -0.6782 -1.9920 -1.7343
 7126SOL    HW222199   5.592   4.493   5.152  0.7844  0.0966  0.7935
 7127SOL     OW22200   1.289   2.799   5.228  0.0539 -0.0150 -0.3693
 7127SOL    HW122201   1.368   2.848   5.191 -0.9095  2.6430  0.8246
 7127SOL    HW222202   1.291   2.704   5.198  2.7121  0.4213 -1.8267
 7128SOL     OW22203   0.514   1.029   2.611 -0.3690  0.0315  0.0577
 7128SOL    HW122204   0.543   1.019   2.707  0.3090  1.2068 -0.0071
 7128SOL    HW222205   0.415   1.043   2.608 -0.2566  1.0924  0.6889
 7129SOL     OW22206   6.014   1.953   5.188 -0.0551  0.0276 -0.3684
 7129SOL    HW122207   6.030   1.864   5.231  0.3474 -0.6214 -1.8091
 7129SOL    HW222208   5.992   1.940   5.092  0.4854  1.5283 -0.7170
 7130SOL     OW22209   4.047   6.225   5.431  0.3850 -1.1800 -0.1724
 7130SOL    HW122210   3.957   6.181   5.425  0.8889 -2.1355 -1.0165
 7130SOL    HW222211   4.089   6.204   5.519 -0.8541  0.5569  0.8751
 7131SOL     OW22212   5.962   0.829   5.722  0.2069 -0.3480  0.0594
 7131SOL    HW122213   5.874   0.876   5.709 -0.1705 -1.0600 -0.0186
 7131SOL    HW222214   5.997   0.800   5.633  0.4656 -0.1587  0.1002
 7132SOL     OW22215   2.380   5.420   4.550  0.8725  0.4007  0.1551
 7132SOL    HW122216   2.361   5.469   4.636  1.4126 -0.6648  0.8990
 7132SOL    HW222217   2.368   5.322   4.564 -0.5284  0.3098 -1.4085
 7133SOL     OW22218   4.844   0.010   6.837 -0.1518 -0.9728 -0.0542
 7133SOL    HW122219   4.854   0.029   6.934  1.3660 -0.6166 -0.2618
 7133SOL    HW222220   4.899   0.074   6.784  0.5930 -2.3940 -1.0408
 7134SOL     OW22221   3.227   6.075   4.760  0.3762 -0.3861  0.6218
 7134SOL    HW122222   3.240   6.170   4.787  0.9413 -0.1799 -0.3398
 7134SOL    HW222223   3.202   6.020   4.840 -1.1083  0.7722  0.9984
 7135SOL     OW22224   6.864   4.272   3.773 -0.4230 -0.2683  0.5748
 7135SOL    HW122225   6.828   4.324   3.850 -1.1637  0.4979 -0.2612
 7135SOL    HW222226   6.928   4.330   3.721 -1.3457 -0.1211 -0.4447
 7136SOL     OW22227   6.113   3.484   1.706  0.1184 -0.1195 -0.0006
 7136SOL    HW122228   6.192   3.517   1.654  0.0727 -1.4563 -0.9916
 7136SOL    HW222229   6.039   3.552   1.701  0.8145  0.6633  0.0392
 7137SOL     OW22230   0.673   3.643   0.042  0.1341  0.2362  0.0061
 7137SOL    HW122231   0.749   3.681  -0.010  0.5066  2.4263  2.0006
 7137SOL    HW222232   0.708   3.594   0.121 -0.4149  2.7506  1.9072
 7138SOL     OW22233   4.876   2.785   6.969  0.4889 -0.1836  0.1027
 7138SOL    HW122234   4.894   2.868   6.916 -1.3430  0.6698  0.7179
 7138SOL    HW222235   4.933   2.784   7.050  0.9844  0.1434 -0.2616
 7139SOL     OW22236   0.796   4.223   2.140  0.0303 -0.0113 -0.2297
 7139SOL    HW122237   0.733   4.287   2.183  0.1248 -0.1425  0.1064
 7139SOL    HW222238   0.758   4.131   2.143 -0.6140  0.1813 -1.7033
 7140SOL     OW22239   1.300   4.683   1.316 -0.2585  0.2903  0.2107
 7140SOL    HW122240   1.208   4.695   1.352  0.0211 -0.1200  1.1115
 7140SOL    HW222241   1.328   4.764   1.265 -0.8024  0.7587  0.6523
 7141SOL     OW22242   1.143   0.673   4.944 -0.2158  0.0412 -0.2817
 7141SOL    HW122243   1.104   0.598   4.890  0.7668 -0.4185 -0.3706
 7141SOL    HW222244   1.202   0.729   4.887  0.0561  0.1275  0.0740
 7142SOL     OW22245   4.956   3.768   4.059 -0.2833 -0.3132 -0.2783
 7142SOL    HW122246   4.892   3.808   4.124  0.3718  3.1642 -1.5534
 7142SOL    HW222247   4.906   3.731   3.981 -0.8439 -0.6036  0.2127
 7143SOL     OW22248   3.480   0.151   0.195 -0.1293 -0.7007 -0.2882
 7143SOL    HW122249   3.520   0.177   0.107  0.1005 -1.2431 -0.3506
 7143SOL    HW222250   3.450   0.055   0.190  0.3934 -0.9023  0.3992
 7144SOL     OW22251   5.310   1.666   1.201 -0.3773  0.5561 -0.0247
 7144SOL    HW122252   5.366   1.599   1.251  1.3262  1.6862 -0.3388
 7144SOL    HW222253   5.368   1.721   1.142 -1.6863  2.4712  0.3565
 7145SOL     OW22254   5.134   5.339   0.117 -0.4174 -0.0377 -0.6553
 7145SOL    HW122255   5.146   5.437   0.100  0.2597  0.2966  1.3808
 7145SOL    HW222256   5.093   5.326   0.208  1.5348 -1.6363  0.0851
 7146SOL     OW22257   2.777   6.180   2.527 -1.0380 -0.4274  0.1294
 7146SOL    HW122258   2.851   6.112   2.526 -0.3223  0.3093 -1.2306
 7146SOL    HW222259   2.739   6.187   2.619  0.3589 -1.0765  0.7866
 7147SOL     OW22260   0.880   0.795   6.610 -0.2503 -0.5420  0.1216
 7147SOL    HW122261   0.970   0.833   6.586 -0.0928 -0.9257  0.0914
 7147SOL    HW222262   0.821   0.868   6.642  0.4914 -0.4777  1.4173
 7148SOL     OW22263   1.674   5.950   5.798 -0.5722 -0.1152  0.5216
 7148SOL    HW122264   1.703   5.855   5.783  0.6168 -0.0946  2.2440
 7148SOL    HW222265   1.740   6.012   5.755  0.4997 -0.0938  2.0897
 7149SOL     OW22266   6.968   3.944   6.123 -0.2016 -0.6037 -0.2849
 7149SOL    HW122267   6.932   4.035   6.099 -0.3914 -0.7840 -0.6779
 7149SOL    HW222268   6.974   3.937   6.222 -1.7925 -0.7796 -0.1688
 7150SOL     OW22269   4.527   6.208   2.345 -0.5048 -0.3216  0.1839
 7150SOL    HW122270   4.531   6.259   2.259 -2.1712  1.2475  0.9590
 7150SOL    HW222271   4.602   6.238   2.405 -1.9136  1.9704  0.9434
 7151SOL     OW22272   2.261   6.729   2.993  0.4691 -0.1621  0.7133
 7151SOL    HW122273   2.265   6.827   3.014 -1.8275 -0.0213  0.7961
 7151SOL    HW222274   2.170   6.707   2.958  1.5678 -1.9339 -1.2319
 7152SOL     OW22275   3.739   1.953   0.695 -0.2657  0.3058 -0.4545
 7152SOL    HW122276   3.798   1.888   0.742 -1.0749  0.2613  0.5504
 7152SOL    HW222277   3.729   1.926   0.599 -0.5709 -1.0394 -0.0534
 7153SOL     OW22278   0.522   6.437   2.741 -0.0420  0.2691 -0.3955
 7153SOL    HW122279   0.468   6.508   2.785  0.3462  1.2104 -1.3747
 7153SOL    HW222280   0.618   6.446   2.767 -0.0919 -0.3696  0.0486
 7154SOL     OW22281   3.237   0.964   3.813 -0.1112 -0.2905 -0.4229
 7154SOL    HW122282   3.279   0.940   3.725  0.8677 -0.3390  0.0392
 7154SOL    HW222283   3.159   1.024   3.797 -0.5510 -1.0806 -1.3874
 7155SOL     OW22284   6.839   2.649   5.054  0.2343 -0.7101  0.5193
 7155SOL    HW122285   6.871   2.658   4.960 -0.1045 -1.1967  0.3536
 7155SOL    HW222286   6.851   2.555   5.085 -1.1971 -0.9776  0.3758
 7156SOL     OW22287   2.814   6.741   2.109 -0.0386 -0.0347 -0.3975
 7156SOL    HW122288   2.808   6.775   2.202  0.2628 -0.7755 -0.1023
 7156SOL    HW222289   2.786   6.646   2.106  2.4456 -0.8362 -0.5760
 7157SOL     OW22290   4.679   1.468   0.810  0.4156 -0.0116  0.2921
 7157SOL    HW122291   4.753   1.441   0.749 -0.1438 -0.4408 -0.2042
 7157SOL    HW222292   4.686   1.566   0.829  0.2707  0.2490 -0.9153
 7158SOL     OW22293   3.158   5.944   3.758  0.1686 -0.0455  0.5364
 7158SOL    HW122294   3.248   5.979   3.730 -0.8678  1.4306 -1.0878
 7158SOL    HW222295   3.115   6.008   3.821 -1.1861  1.1212 -1.4489
 7159SOL     OW22296   1.237   5.582   4.881 -0.8517  0.2132  0.0438
 7159SOL    HW122297   1.257   5.601   4.785 -0.5120  0.5784  0.1822
 7159SOL    HW222298   1.275   5.654   4.938 -0.3485 -0.3995  0.5162
 7160SOL     OW22299   1.755   2.674   3.071  0.0545 -0.0401 -0.1293
 7160SOL    HW122300   1.831   2.636   3.019  0.4006 -0.4217  0.6313
 7160SOL    HW222301   1.786   2.698   3.163 -0.5117  0.7497 -0.1361
 7161SOL     OW22302   5.146   2.898   4.289  0.5945  0.3350  0.0773
 7161SOL    HW122303   5.048   2.920   4.283  0.6195  0.3622 -0.2663
 7161SOL    HW222304   5.188   2.912   4.199  0.3020 -2.6623 -0.6126
 7162SOL     OW22305   4.389   3.585   6.029  0.3077 -0.1065 -0.3942
 7162SOL    HW122306   4.315   3.600   6.094  0.0675 -0.0422 -0.6753
 7162SOL    HW222307   4.388   3.657   5.959  0.2889 -0.4099 -0.7150
 7163SOL     OW22308   4.727   3.672   5.819  0.0107  0.4808  0.4672
 7163SOL    HW122309   4.684   3.746   5.872 -0.5954 -0.0690  0.7696
 7163SOL    HW222310   4.808   3.639   5.867  0.8652  1.5904 -0.1512
 7164SOL     OW22311   1.872   4.646   0.887  0.1922  0.2205 -0.0262
 7164SOL    HW122312   1.925   4.714   0.836 -0.8526  0.7344 -0.4804
 7164SOL    HW222313   1.931   4.599   0.952  1.0751  1.1223 -0.1575
 7165SOL     OW22314   6.998   6.195   3.504 -0.3654 -0.1176  0.4215
 7165SOL    HW122315   7.089   6.214   3.468  0.2211 -1.9980  0.8730
 7165SOL    HW222316   6.935   6.266   3.473  1.1899  1.1229 -0.0672
 7166SOL     OW22317   1.240   2.320   1.565 -0.2774 -0.4426 -0.2302
 7166SOL    HW122318   1.232   2.419   1.574 -0.9629 -0.3089 -1.9648
 7166SOL    HW222319   1.234   2.278   1.656 -0.4573  1.0532  0.4861
 7167SOL     OW22320   5.087   4.880   6.836  0.3053  0.4711 -0.4347
 7167SOL    HW122321   5.133   4.792   6.821  0.4401  0.1519  1.6999
 7167SOL    HW222322   5.127   4.927   6.914 -1.5665  1.1626  0.1643
 7168SOL     OW22323   1.033   0.481   2.497  0.2471  0.6911 -0.0210
 7168SOL    HW122324   1.061   0.437   2.412  0.6290  1.3589 -0.2619
 7168SOL    HW222325   0.968   0.555   2.476 -0.2594  0.3657  0.3546
 7169SOL     OW22326   4.984   2.648   4.316 -0.2086 -0.1658  0.1913
 7169SOL    HW122327   5.019   2.638   4.409  0.0358 -0.8149  0.0377
 7169SOL    HW222328   4.963   2.744   4.298  1.3674  0.2249  0.3191
 7170SOL     OW22329   1.331   1.621   3.044 -0.0747 -0.1219 -0.1480
 7170SOL    HW122330   1.261   1.555   3.072 -0.4169  0.0718 -0.5363
 7170SOL    HW222331   1.301   1.668   2.961  0.1116  0.6259  0.2016
 7171SOL     OW22332   6.158   1.438   5.360  0.2266 -0.2411 -0.3564
 7171SOL    HW122333   6.250   1.437   5.398 -0.0952  0.4703  0.4601
 7171SOL    HW222334   6.145   1.356   5.303  0.5914 -1.5941  1.3887
 7172SOL     OW22335   4.302   5.617   2.197  0.2739  0.4120 -0.5145
 7172SOL    HW122336   4.336   5.525   2.181  1.9949  1.0780 -0.8806
 7172SOL    HW222337   4.216   5.612   2.248 -1.4742 -1.4971 -3.3354
 7173SOL     OW22338   6.014   6.213   5.858  0.2568  0.7363  0.3818
 7173SOL    HW122339   5.918   6.189   5.870  0.7605 -0.1259  3.5186
 7173SOL    HW222340   6.030   6.305   5.893  0.7786  0.3706  1.1335
 7174SOL     OW22341   2.714   3.486   6.753 -0.2023  0.3224  0.0267
 7174SOL    HW122342   2.726   3.406   6.695 -0.7532  1.5773 -1.9287
 7174SOL    HW222343   2.721   3.569   6.698  0.0296  1.6299  1.9179
 7175SOL     OW22344   2.444   2.546   6.207 -0.1060  0.2049  0.2000
 7175SOL    HW122345   2.493   2.459   6.213 -0.3401 -0.0906 -1.6244
 7175SOL    HW222346   2.464   2.602   6.288  0.4277 -1.3368  1.1639
 7176SOL     OW22347   0.766   3.179   2.607  0.0845  0.2833  0.1983
 7176SOL    HW122348   0.847   3.224   2.645  0.0037  0.1223  0.5625
 7176SOL    HW222349   0.790   3.088   2.574 -0.5711 -1.1386  3.2979
 7177SOL     OW22350   1.917   4.664   3.716 -0.2739  0.0314 -0.3257
 7177SOL    HW122351   1.839   4.670   3.654 -0.0577 -0.3272 -0.6410
 7177SOL    HW222352   1.892   4.607   3.795 -0.2405 -0.3347 -0.5752
 7178SOL     OW22353   2.508   3.415   5.864  0.1996 -0.1964 -0.4914
 7178SOL    HW122354   2.497   3.432   5.962  0.4060 -1.1737 -0.2900
 7178SOL    HW222355   2.469   3.492   5.813  1.7075  1.1983  0.3586
 7179SOL     OW22356   5.435   5.289   5.164 -0.1791  0.0359  0.4116
 7179SOL    HW122357   5.427   5.265   5.068 -0.8206 -1.2814  0.7840
 7179SOL    HW222358   5.529   5.316   5.184  0.7060 -2.5270  0.0314
 7180SOL     OW22359   1.288   5.896   4.581  0.2206  0.5881 -0.0466
 7180SOL    HW122360   1.266   5.944   4.496  2.9974 -0.0882 -1.2764
 7180SOL    HW222361   1.280   5.960   4.658  0.7683  2.1601 -1.2236
 7181SOL     OW22362   1.413   6.474   3.099  0.2890  0.1484  0.2128
 7181SOL    HW122363   1.462   6.554   3.134  0.5845  0.3229 -0.5789
 7181SOL    HW222364   1.404   6.407   3.172  1.2638  0.3279  0.5212
 7182SOL     OW22365   3.988   0.058   3.592  0.0741 -0.1801  0.5230
 7182SOL    HW122366   3.943   0.018   3.672  0.8384 -0.9444  0.5760
 7182SOL    HW222367   3.937   0.035   3.509 -0.1253 -0.2888  0.6749
 7183SOL     OW22368   0.729   3.992   4.769  0.0360 -0.3784  0.1861
 7183SOL    HW122369   0.685   4.068   4.722 -1.4736  0.7162  3.1483
 7183SOL    HW222370   0.664   3.917   4.780  0.8357 -1.2422 -0.6838
 7184SOL     OW22371   1.827   2.668   2.623  0.0040  0.2628  0.3118
 7184SOL    HW122372   1.918   2.704   2.644  1.0996 -2.6909  1.1336
 7184SOL    HW222373   1.802   2.599   2.690 -1.9385 -0.5077 -1.0988
 7185SOL     OW22374   4.006   4.923   4.633  0.4727  0.3720  0.1812
 7185SOL    HW122375   3.974   4.894   4.723  0.6544 -0.3709  0.0139
 7185SOL    HW222376   3.932   4.917   4.567 -0.4344  3.4545  0.7777
 7186SOL     OW22377   5.602   2.630   6.948 -0.3071 -0.7299  0.3216
 7186SOL    HW122378   5.678   2.614   7.010 -0.4102 -1.8597  0.1892
 7186SOL    HW222379   5.603   2.560   6.876 -1.3143 -0.6148  0.1749
 7187SOL     OW22380   5.479   0.202   3.349 -0.2588  0.3440  0.1092
 7187SOL    HW122381   5.396   0.248   3.317 -1.4831 -1.4961  0.4625
 7187SOL    HW222382   5.477   0.107   3.319  2.2553  0.4868 -0.7396
 7188SOL     OW22383   4.579   2.648   5.354 -0.0486 -0.0351  0.1353
 7188SOL    HW122384   4.611   2.562   5.314 -0.5610 -0.1639 -0.0088
 7188SOL    HW222385   4.610   2.724   5.298  0.0190 -0.1563  0.0060
 7189SOL     OW22386   3.806   6.077   4.173  0.1658 -0.3854 -0.0001
 7189SOL    HW122387   3.838   5.987   4.145 -0.8357 -0.2359 -1.8190
 7189SOL    HW222388   3.864   6.112   4.247  0.9671 -2.2197  0.2961
 7190SOL     OW22389   6.457   2.700   4.048  0.1886  0.0777 -0.1653
 7190SOL    HW122390   6.492   2.768   3.984 -2.4202  0.4712 -1.3314
 7190SOL    HW222391   6.359   2.687   4.032  0.0486 -2.0067  1.8301
 7191SOL     OW22392   0.816   0.557   2.900 -0.3007 -0.2561  0.4966
 7191SOL    HW122393   0.858   0.631   2.848 -0.1298 -1.2992 -0.9201
 7191SOL    HW222394   0.838   0.470   2.856 -0.7166 -1.1279  1.9717
 7192SOL     OW22395   2.774   6.961   3.692  0.1741  0.3473 -0.4318
 7192SOL    HW122396   2.710   7.012   3.748 -2.9864 -0.7376 -2.8081
 7192SOL    HW222397   2.807   7.019   3.617 -1.2879 -0.1909 -1.5354
 7193SOL     OW22398   2.791   4.459   6.471  0.5732  0.0856  0.8622
 7193SOL    HW122399   2.748   4.419   6.390  2.3623 -0.4870  0.1589
 7193SOL    HW222400   2.720   4.490   6.534 -0.9983 -4.0801  1.4524
 7194SOL     OW22401   3.665   0.837   0.896 -0.3506 -0.2753 -0.9431
 7194SOL    HW122402   3.706   0.927   0.886  0.5587 -0.7312 -1.4789
 7194SOL    HW222403   3.736   0.771   0.923 -1.0081 -0.8225 -0.5161
 7195SOL     OW22404   0.123   0.915   0.632  0.5761  0.5387  0.1010
 7195SOL    HW122405   0.127   0.886   0.728  1.2729 -0.9985 -0.3660
 7195SOL    HW222406   0.029   0.908   0.599  0.7403 -1.4925 -0.0518
 7196SOL     OW22407   4.334   4.976   0.992  0.8637  0.3905  0.2961
 7196SOL    HW122408   4.352   4.878   0.998  2.2895  0.6520  0.8350
 7196SOL    HW222409   4.287   5.007   1.074 -2.7962 -0.4006 -1.3340
 7197SOL     OW22410   0.224   0.783   5.858  1.1076 -0.3344  0.1358
 7197SOL    HW122411   0.235   0.881   5.873 -0.8559 -0.0032 -0.3373
 7197SOL    HW222412   0.222   0.764   5.760 -2.0696 -0.3012  0.0950
 7198SOL     OW22413   2.520   2.547   1.384 -0.3145  0.0689  0.3479
 7198SOL    HW122414   2.591   2.562   1.452  0.9289  0.1723 -0.9328
 7198SOL    HW222415   2.474   2.460   1.401  0.8758 -0.5257  0.5625
 7199SOL     OW22416   1.694   5.836   6.297  0.5983 -0.3481  0.1636
 7199SOL    HW122417   1.722   5.864   6.205  2.4924 -0.3201  0.6939
 7199SOL    HW222418   1.702   5.737   6.306 -2.3764 -0.7551 -0.5229
 7200SOL     OW22419   4.245   6.468   1.801  0.2608 -0.4436 -0.0739
 7200SOL    HW122420   4.193   6.548   1.770 -1.0729 -1.9000 -1.8535
 7200SOL    HW222421   4.213   6.440   1.892  1.6279  1.7161  1.1620
 7201SOL     OW22422   4.430   0.828   6.642 -0.1919  0.3808 -0.8193
 7201SOL    HW122423   4.422   0.878   6.728  2.2530  2.9084 -1.9141
 7201SOL    HW222424   4.526   0.809   6.623 -0.8588 -3.7249 -1.1825
 7202SOL     OW22425   2.606   6.193   4.246  0.4689  0.4800  0.1931
 7202SOL    HW122426   2.662   6.156   4.172  0.6907 -0.1345  0.6565
 7202SOL    HW222427   2.655   6.184   4.333 -0.2911  0.0290  0.5930
 7203SOL     OW22428   1.983   5.017   1.562 -0.4231 -0.0519 -0.1140
 7203SOL    HW122429   1.956   4.921   1.556  0.6975 -0.3600 -0.3759
 7203SOL    HW222430   1.915   5.073   1.514 -0.8401 -0.7480 -0.3580
 7204SOL     OW22431   2.161   6.368   2.747  0.4527  0.6917 -0.2813
 7204SOL    HW122432   2.153   6.465   2.727 -0.1504  0.7775  0.3404
 7204SOL    HW222433   2.207   6.355   2.835  0.0080  0.4300 -0.0871
 7205SOL     OW22434   2.748   1.044   2.270  0.0139  0.2923  0.1852
 7205SOL    HW122435   2.778   1.103   2.195 -2.0536  2.4320  0.9077
 7205SOL    HW222436   2.718   0.956   2.232  1.6942  0.2353 -1.1172
 7206SOL     OW22437   5.683   5.650   6.333 -0.4281  0.0748  0.8101
 7206SOL    HW122438   5.652   5.569   6.382  0.5484 -0.2477  0.9091
 7206SOL    HW222439   5.774   5.676   6.364 -0.1048  0.3258 -0.2749
 7207SOL     OW22440   1.109   3.754   1.692  0.2876 -0.2714 -0.1039
 7207SOL    HW122441   1.048   3.811   1.637  1.6071  0.6569 -0.6643
 7207SOL    HW222442   1.186   3.809   1.725  2.0724 -1.8775 -1.3744
 7208SOL     OW22443   5.135   6.992   0.867  0.0102 -0.2361  0.3775
 7208SOL    HW122444   5.052   7.002   0.812 -1.1794 -2.2682  1.6609
 7208SOL    HW222445   5.132   7.057   0.944  0.2045  0.5277 -0.2539
 7209SOL     OW22446   6.125   1.469   6.249  0.2383 -0.2689  0.0472
 7209SOL    HW122447   6.192   1.404   6.284  0.3918 -0.4476 -0.5628
 7209SOL    HW222448   6.059   1.422   6.191 -0.2581 -0.0483  0.4223
 7210SOL     OW22449   4.129   5.552   4.349  0.0023 -0.1648  0.4887
 7210SOL    HW122450   4.117   5.505   4.437  0.7479 -0.3915  0.4760
 7210SOL    HW222451   4.226   5.574   4.337 -0.3121  1.1825  0.3901
 7211SOL     OW22452   2.020   1.398   1.452  0.1558 -0.1020 -0.6122
 7211SOL    HW122453   1.988   1.487   1.485 -0.5726 -1.1957  1.8695
 7211SOL    HW222454   1.986   1.383   1.359 -0.9073  1.5949 -0.5447
 7212SOL     OW22455   2.964   3.815   5.864 -0.5719  0.3102  0.6738
 7212SOL    HW122456   3.046   3.873   5.866  0.0626 -0.5129 -0.4151
 7212SOL    HW222457   2.882   3.872   5.863  0.0108  1.1621  0.6405
 7213SOL     OW22458   1.478   4.717   0.692  0.0425  0.0313  0.7950
 7213SOL    HW122459   1.548   4.648   0.675 -0.7016 -0.9778  1.7051
 7213SOL    HW222460   1.434   4.743   0.606  0.6490 -0.2774  0.3894
 7214SOL     OW22461   2.439   5.719   3.145 -0.4998  0.5861 -0.1988
 7214SOL    HW122462   2.489   5.665   3.077 -1.3589 -0.4458 -0.0549
 7214SOL    HW222463   2.502   5.751   3.216 -0.1825 -1.7250  0.6465
 7215SOL     OW22464   6.901   6.518   0.466  0.6514  0.5187  1.0589
 7215SOL    HW122465   6.859   6.604   0.437  3.0368  1.3830 -0.1122
 7215SOL    HW222466   6.996   6.515   0.435  0.7026 -2.5085  1.1795
 7216SOL     OW22467   3.653   3.847   4.521 -0.4669 -0.9756  0.1832
 7216SOL    HW122468   3.639   3.907   4.442  0.0404 -0.1449  0.6979
 7216SOL    HW222469   3.685   3.758   4.490  0.8142 -0.3127 -0.4890
 7217SOL     OW22470   0.902   0.112   6.905 -0.5432 -0.3247 -0.2140
 7217SOL    HW122471   0.946   0.070   6.985 -0.4043  0.0182 -0.1079
 7217SOL    HW222472   0.951   0.195   6.880 -0.9548 -0.1005 -0.2776
 7218SOL     OW22473   3.890   3.815   0.931 -0.2406 -0.4943 -0.4988
 7218SOL    HW122474   3.940   3.876   0.992 -1.3977 -0.9311  0.9523
 7218SOL    HW222475   3.797   3.851   0.916 -0.0618 -0.5064 -1.8691
 7219SOL     OW22476   6.468   5.261   4.391 -0.6515  0.5102  0.0594
 7219SOL    HW122477   6.426   5.303   4.472 -1.3831 -0.1411  0.0301
 7219SOL    HW222478   6.566   5.250   4.407 -0.7581  0.5548  0.7905
 7220SOL     OW22479   0.456   4.663   3.122 -0.6393 -0.0526 -0.1831
 7220SOL    HW122480   0.396   4.741   3.137 -0.3485 -0.0785  1.1847
 7220SOL    HW222481   0.414   4.601   3.055 -1.3550  0.7407 -0.4817
 7221SOL     OW22482   0.903   1.171   6.007  0.0672 -0.1539  0.0326
 7221SOL    HW122483   0.905   1.072   5.997  1.7159 -0.1829  0.4215
 7221SOL    HW222484   0.994   1.209   5.992 -0.3481  1.2152  0.7649
 7222SOL     OW22485   4.260   4.172   4.755 -0.0119  0.2782 -0.1327
 7222SOL    HW122486   4.344   4.153   4.704 -0.7409  0.5280 -1.4841
 7222SOL    HW222487   4.237   4.094   4.813 -0.0030 -0.6927 -1.3954
 7223SOL     OW22488   2.416   5.140   6.347  0.6568 -0.0790 -0.3094
 7223SOL    HW122489   2.457   5.138   6.256 -0.8217  0.3356 -0.9995
 7223SOL    HW222490   2.411   5.235   6.379  0.9797 -0.2037  0.1056
 7224SOL     OW22491   6.491   0.485   2.328  0.0072  0.3294  0.0155
 7224SOL    HW122492   6.443   0.491   2.416  0.2646  1.3956  0.0962
 7224SOL    HW222493   6.486   0.573   2.281  0.6664  0.0403 -0.6173
 7225SOL     OW22494   3.451   3.869   6.569 -0.3503  0.3022  0.8931
 7225SOL    HW122495   3.418   3.955   6.531 -0.4157 -0.3446 -0.5735
 7225SOL    HW222496   3.551   3.869   6.573 -0.0903 -0.9036 -2.6452
 7226SOL     OW22497   0.432   6.592   4.862  0.1273  0.5960 -0.0495
 7226SOL    HW122498   0.402   6.640   4.945  0.8622 -1.0253  1.2156
 7226SOL    HW222499   0.509   6.641   4.821  0.9666  0.4536  1.2965
 7227SOL     OW22500   1.909   5.049   1.827  0.4029  0.1108  0.5255
 7227SOL    HW122501   1.946   5.054   1.734  0.4113  1.7107  0.5911
 7227SOL    HW222502   1.858   5.132   1.848 -0.5692 -0.7093  1.5703
 7228SOL     OW22503   1.524   0.870   3.364  0.6131  0.1157 -0.1005
 7228SOL    HW122504   1.468   0.787   3.370  2.9409 -1.5794 -0.0378
 7228SOL    HW222505   1.570   0.885   3.452  2.1032  0.0116 -0.8358
 7229SOL     OW22506   2.370   4.986   3.790 -0.2845  0.2144 -0.2212
 7229SOL    HW122507   2.283   5.036   3.798 -0.3407  0.0720  0.0608
 7229SOL    HW222508   2.441   5.049   3.757 -0.2639  0.5863  0.5221
 7230SOL     OW22509   4.856   2.476   6.763  0.6479  0.0124 -0.2914
 7230SOL    HW122510   4.953   2.471   6.784  0.2654 -2.4006  1.3493
 7230SOL    HW222511   4.814   2.549   6.816  1.8783  2.7585 -2.8586
 7231SOL     OW22512   5.332   0.836   4.005 -0.5445 -0.2159  0.1948
 7231SOL    HW122513   5.390   0.915   3.984  0.3289 -1.0570 -0.7111
 7231SOL    HW222514   5.383   0.752   3.987 -1.9837 -0.9992 -0.4203
 7232SOL     OW22515   2.887   4.772   4.900  0.8381  0.0866  0.8102
 7232SOL    HW122516   2.789   4.788   4.892  1.2323  2.5076 -0.1342
 7232SOL    HW222517   2.931   4.854   4.938  2.5521 -0.7631  0.7626
 7233SOL     OW22518   4.426   2.269   2.299 -0.2570  0.0352 -0.5154
 7233SOL    HW122519   4.344   2.305   2.254 -0.9710  1.8009  2.0005
 7233SOL    HW222520   4.464   2.339   2.359  0.9735 -1.9725  1.1875
 7234SOL     OW22521   1.259   0.446   1.861  0.4414  0.4784  0.4914
 7234SOL    HW122522   1.326   0.376   1.886  0.3237  0.4327  0.6869
 7234SOL    HW222523   1.307   0.526   1.825  0.8527  1.5822  3.2355
 7235SOL     OW22524   0.348   1.780   1.118  0.0453  0.0839 -0.1140
 7235SOL    HW122525   0.370   1.693   1.074  0.6630  0.4880 -0.6136
 7235SOL    HW222526   0.316   1.845   1.049 -0.6577  0.1746  0.2947
 7236SOL     OW22527   3.522   5.675   0.002  0.6406 -0.5474 -0.2519
 7236SOL    HW122528   3.593   5.743  -0.016 -0.4921  0.7240 -0.1800
 7236SOL    HW222529   3.528   5.644   0.097 -0.8843  2.1526  0.8284
 7237SOL     OW22530   2.458   4.811   3.033  0.8147 -0.0083 -0.3959
 7237SOL    HW122531   2.365   4.799   3.068  0.1650  3.8064 -0.4120
 7237SOL    HW222532   2.523   4.812   3.109  0.9907 -3.0896 -0.4137
 7238SOL     OW22533   2.930   2.741   2.814 -0.0075 -0.5537 -0.7039
 7238SOL    HW122534   2.853   2.721   2.754 -0.5645 -0.5238 -0.0164
 7238SOL    HW222535   2.960   2.657   2.859 -0.2457 -0.4256 -0.2819
 7239SOL     OW22536   0.948   4.813   6.062 -0.1640  0.1087 -0.4068
 7239SOL    HW122537   0.943   4.762   5.975  1.0915  0.6345 -0.8004
 7239SOL    HW222538   0.997   4.758   6.129  3.2479  1.5746 -1.4862
 7240SOL     OW22539   3.741   5.959   0.578  0.1841 -0.1967 -0.4210
 7240SOL    HW122540   3.704   5.987   0.490  1.6114 -0.8279 -1.2774
 7240SOL    HW222541   3.788   6.037   0.620 -1.4110  0.3992  0.3206
 7241SOL     OW22542   0.999   5.675   0.837 -0.2533 -0.4586  0.1641
 7241SOL    HW122543   0.951   5.761   0.824 -2.4425 -1.6187  0.0706
 7241SOL    HW222544   1.078   5.670   0.776  0.1975  1.6379  0.5171
 7242SOL     OW22545   0.770   5.540   0.784  0.6043 -0.3596 -0.7871
 7242SOL    HW122546   0.780   5.518   0.687 -0.9503  0.7356 -1.2378
 7242SOL    HW222547   0.847   5.597   0.814  0.8596 -0.3145 -1.5056
 7243SOL     OW22548   2.029   3.551   0.442 -0.0381 -0.2775 -0.2680
 7243SOL    HW122549   1.936   3.577   0.415 -0.6854 -0.9299  1.2426
 7243SOL    HW222550   2.092   3.575   0.368 -1.0292  2.4609 -0.3484
 7244SOL     OW22551   2.295   5.190   6.710  0.2179 -0.1372 -0.0945
 7244SOL    HW122552   2.238   5.164   6.633  1.2793 -0.4433 -0.8068
 7244SOL    HW222553   2.247   5.172   6.796 -1.3343  1.0493 -0.6805
 7245SOL     OW22554   5.595   6.931   6.497  0.1445 -0.0940 -0.0934
 7245SOL    HW122555   5.515   6.907   6.552  1.0888 -1.0493  0.9420
 7245SOL    HW222556   5.612   6.859   6.430  1.5750 -1.2198  1.3962
 7246SOL     OW22557   0.064   2.657   1.253 -0.2690 -0.1054 -0.3182
 7246SOL    HW122558   0.072   2.595   1.331 -0.1872 -0.2771 -0.4632
 7246SOL    HW222559   0.151   2.705   1.240  0.4142 -1.5915 -1.5752
 7247SOL     OW22560   2.016   6.388   3.136  0.2202  0.1808 -0.4797
 7247SOL    HW122561   2.023   6.432   3.225 -2.5585  0.5676 -0.3607
 7247SOL    HW222562   1.980   6.295   3.148 -2.3001  0.9826 -1.2561
 7248SOL     OW22563   1.234   3.854   0.173 -0.5085 -0.0761  0.2574
 7248SOL    HW122564   1.238   3.772   0.116 -0.6593  0.6062 -0.7528
 7248SOL    HW222565   1.275   3.835   0.262  2.8163 -0.2585 -1.1461
 7249SOL     OW22566   0.354   1.102   4.304  0.4355 -0.5302  0.2467
 7249SOL    HW122567   0.287   1.104   4.378 -0.3316 -2.0576 -0.3632
 7249SOL    HW222568   0.392   1.009   4.296  0.7692 -0.2965 -1.0499
 7250SOL     OW22569   1.909   3.362   0.152 -0.2501  0.1265 -0.1625
 7250SOL    HW122570   1.981   3.305   0.192 -0.2829 -0.4112 -0.8558
 7250SOL    HW222571   1.827   3.307   0.138 -1.2739  1.0233  1.8110
 7251SOL     OW22572   5.891   5.016   3.571  0.1308  0.2113  0.0753
 7251SOL    HW122573   5.958   4.985   3.639  1.4489  1.3036 -0.6853
 7251SOL    HW222574   5.906   5.112   3.550 -0.2474 -0.0867 -1.7476
 7252SOL     OW22575   4.808   1.469   5.019 -0.5501  0.2425 -0.5107
 7252SOL    HW122576   4.854   1.452   5.106  2.2373  1.8270 -1.5487
 7252SOL    HW222577   4.728   1.409   5.011  0.4150 -1.5716  2.0984
 7253SOL     OW22578   3.418   5.578   6.545  0.2360 -0.2102  0.1828
 7253SOL    HW122579   3.332   5.535   6.518 -1.4233  1.6445  2.1837
 7253SOL    HW222580   3.439   5.556   6.640  1.7859 -0.2741 -0.1427
 7254SOL     OW22581   4.405   1.290   6.028  0.3873  0.3686  0.5424
 7254SOL    HW122582   4.495   1.298   6.070 -0.1461 -0.7562  1.9599
 7254SOL    HW222583   4.340   1.253   6.094 -0.6868 -0.7292 -1.0417
 7255SOL     OW22584   6.032   6.431   0.021 -0.1680 -0.3541 -0.5973
 7255SOL    HW122585   6.087   6.362   0.067  0.7731  0.0030 -1.1434
 7255SOL    HW222586   6.076   6.521   0.030 -0.2377 -0.1902 -1.6999
 7256SOL     OW22587   2.996   1.195   3.482 -0.0610  0.4307  0.5498
 7256SOL    HW122588   3.035   1.287   3.479  0.7211  0.1259  1.1547
 7256SOL    HW222589   2.901   1.201   3.513  0.6805  0.8383  2.9286
 7257SOL     OW22590   3.006   5.018   6.299  0.5696  0.0843 -0.1390
 7257SOL    HW122591   2.923   5.073   6.312  1.7630  2.7821 -2.7737
 7257SOL    HW222592   3.000   4.969   6.213  1.4669 -0.2471 -0.0177
 7258SOL     OW22593   5.073   0.542   3.478 -0.4191  0.1322 -0.1932
 7258SOL    HW122594   5.081   0.635   3.444  0.0604  0.0000 -0.4538
 7258SOL    HW222595   5.023   0.542   3.565 -1.8240  0.4567 -0.9715
 7259SOL     OW22596   4.132   4.082   0.711 -0.0971  0.1572  0.1111
 7259SOL    HW122597   4.189   4.133   0.647  3.7135  0.3239  3.2640
 7259SOL    HW222598   4.080   4.013   0.662  1.3355  1.2689 -3.2442
 7260SOL     OW22599   2.823   0.019   2.064  0.4349 -0.0117  0.3986
 7260SOL    HW122600   2.849  -0.069   2.103  1.8490  0.3832  0.3119
 7260SOL    HW222601   2.826   0.014   1.964 -0.8982 -0.2619  0.3439
 7261SOL     OW22602   0.472   1.666   4.222  0.0019  0.5052 -0.3689
 7261SOL    HW122603   0.548   1.728   4.239 -0.4027  0.9467 -0.1057
 7261SOL    HW222604   0.446   1.669   4.126  0.5352  0.0857 -0.5327
 7262SOL     OW22605   0.406   2.933   1.544  0.1801 -0.5343 -0.5063
 7262SOL    HW122606   0.317   2.894   1.521 -0.1290 -0.6753  0.8566
 7262SOL    HW222607   0.394   3.028   1.572  0.6314 -0.1552 -1.5521
 7263SOL     OW22608   4.323   5.611   0.805  0.0413 -0.0736 -0.0218
 7263SOL    HW122609   4.233   5.627   0.847  0.9657 -1.7717  2.9215
 7263SOL    HW222610   4.312   5.548   0.727 -1.2597 -1.0729  0.9211
 7264SOL     OW22611   4.717   3.928   3.091 -0.7701  0.1473  0.3937
 7264SOL    HW122612   4.686   3.861   3.024  1.3709 -1.6272  1.0666
 7264SOL    HW222613   4.698   4.020   3.057 -0.4545 -0.6974 -2.2813
 7265SOL     OW22614   4.266   5.904   0.694  0.2292 -0.6564  0.2778
 7265SOL    HW122615   4.272   5.863   0.603 -1.3516 -1.1106  0.3379
 7265SOL    HW222616   4.271   5.833   0.763 -0.5818 -0.5640  0.4517
 7266SOL     OW22617   4.875   2.889   4.228 -0.3881  0.3779 -0.4121
 7266SOL    HW122618   4.893   2.967   4.167 -0.1171  0.0978 -0.6991
 7266SOL    HW222619   4.777   2.868   4.226 -0.6249  1.3059  0.4077
 7267SOL     OW22620   5.001   3.086   5.146 -0.0169 -0.2204  0.1765
 7267SOL    HW122621   5.041   3.163   5.196 -0.7375 -0.2461  0.8032
 7267SOL    HW222622   5.067   3.052   5.079 -0.3944  2.3359 -1.6797
 7268SOL     OW22623   1.016   1.925   3.075  0.0731 -0.3567 -0.3406
 7268SOL    HW122624   1.023   1.892   3.169  2.2367  0.0896 -0.2948
 7268SOL    HW222625   0.942   1.991   3.069  0.5935  0.4394  1.3301
 7269SOL     OW22626   5.191   1.130   1.190 -0.1132  0.4681  0.2326
 7269SOL    HW122627   5.197   1.205   1.124 -0.3262  1.3895  1.2415
 7269SOL    HW222628   5.280   1.118   1.234  0.1843 -0.5161 -0.5973
 7270SOL     OW22629   6.399   7.006   5.298 -0.1524 -0.7155 -0.1169
 7270SOL    HW122630   6.300   7.021   5.306  0.0821  0.6989  0.6153
 7270SOL    HW222631   6.447   7.082   5.342  1.2759 -0.5990 -1.7820
 7271SOL     OW22632   6.253   1.151   2.978  0.1821  0.0170  0.6275
 7271SOL    HW122633   6.189   1.199   3.039  0.6840  1.3313  0.1525
 7271SOL    HW222634   6.236   1.180   2.884 -0.0982 -1.4484  0.2047
 7272SOL     OW22635   6.825   3.312   1.210 -0.2912  0.1873 -0.3418
 7272SOL    HW122636   6.745   3.283   1.263  1.0969 -3.1544  0.1832
 7272SOL    HW222637   6.871   3.388   1.257 -1.5596  0.2559  0.8435
 7273SOL     OW22638   1.809   0.098   0.112 -0.4824 -0.4404  0.0869
 7273SOL    HW122639   1.887   0.117   0.171 -1.2770 -1.6131  1.5915
 7273SOL    HW222640   1.841   0.072   0.021  0.7441  2.5602 -0.4427
 7274SOL     OW22641   5.084   4.203   1.922  0.1253 -0.4669  0.0006
 7274SOL    HW122642   5.110   4.107   1.911 -2.2400 -1.1274 -0.3720
 7274SOL    HW222643   5.064   4.242   1.832  0.7730  0.3152  0.1816
 7275SOL     OW22644   4.687   2.038   6.947  0.2479 -0.8125 -0.0715
 7275SOL    HW122645   4.619   2.069   7.013 -0.2632 -1.3590 -0.3455
 7275SOL    HW222646   4.750   2.114   6.927 -0.1743 -0.3563  0.3026
 7276SOL     OW22647   4.068   3.413   6.234 -0.5748 -0.1540  0.3068
 7276SOL    HW122648   4.013   3.429   6.152  0.0522  0.8483  0.0608
 7276SOL    HW222649   4.140   3.482   6.239 -0.4588 -0.3476  1.5832
 7277SOL     OW22650   1.052   4.805   1.953 -0.0389  0.1919  0.0017
 7277SOL    HW122651   1.056   4.788   1.854  0.3022  0.4606 -0.0344
 7277SOL    HW222652   0.958   4.826   1.980 -0.4938 -1.6876  0.0314
 7278SOL     OW22653   4.258   5.136   6.823 -0.0758 -0.1884  0.1144
 7278SOL    HW122654   4.341   5.095   6.862 -0.4857  0.2626  1.5245
 7278SOL    HW222655   4.189   5.065   6.809 -0.5954 -0.1284  2.0498
 7279SOL     OW22656   1.328   3.793   0.421  0.9005 -0.3792 -0.1481
 7279SOL    HW122657   1.355   3.850   0.498  1.8137 -1.1529  0.1220
 7279SOL    HW222658   1.267   3.720   0.452 -0.1224  0.3013 -0.4651
 7280SOL     OW22659   6.049   6.498   5.910 -0.5188 -0.0097  0.7739
 7280SOL    HW122660   5.970   6.554   5.882 -1.0213 -0.7625  0.6490
 7280SOL    HW222661   6.066   6.512   6.007  0.9332  2.2561  0.2495
 7281SOL     OW22662   3.895   4.707   3.811 -0.2139  0.4616  0.2314
 7281SOL    HW122663   3.838   4.724   3.892 -0.2071 -2.5137  0.9955
 7281SOL    HW222664   3.845   4.735   3.729 -1.4408  0.8365  1.0729
 7282SOL     OW22665   0.761   6.960   6.453  0.1136  0.0635  0.3165
 7282SOL    HW122666   0.797   7.046   6.417 -1.9245  1.2337  0.9922
 7282SOL    HW222667   0.808   6.884   6.409  0.1828  1.4853 -2.2377
 7283SOL     OW22668   4.625   6.816   1.413  0.2181 -0.4221  0.5636
 7283SOL    HW122669   4.533   6.850   1.436  0.9830  1.3762  1.1531
 7283SOL    HW222670   4.628   6.718   1.427 -2.1448 -0.8414 -1.2076
 7284SOL     OW22671   2.522   5.421   3.333  0.1308  0.3097  0.6082
 7284SOL    HW122672   2.615   5.407   3.298  0.2939  1.4510  0.5566
 7284SOL    HW222673   2.508   5.518   3.353 -1.2535  0.2462  0.0521
 7285SOL     OW22674   0.442   4.839   6.874  0.0887 -0.4871  0.1252
 7285SOL    HW122675   0.365   4.903   6.878 -0.1838 -0.7885 -0.2618
 7285SOL    HW222676   0.526   4.886   6.903 -0.3297 -0.2993  1.0855
 7286SOL     OW22677   5.814   3.747   4.397  0.3141 -0.8199  0.4135
 7286SOL    HW122678   5.799   3.756   4.496  0.3439  1.3737  0.2674
 7286SOL    HW222679   5.751   3.808   4.349  5.1137  4.0855 -0.5499
 7287SOL     OW22680   2.893   2.952   6.953 -0.3904  0.2394  0.5474
 7287SOL    HW122681   2.932   2.890   7.022 -0.4407 -0.0558  0.3088
 7287SOL    HW222682   2.794   2.943   6.953 -0.3543 -0.1861  0.0309
 7288SOL     OW22683   0.397   4.438   0.274  0.3327  0.2588 -0.3806
 7288SOL    HW122684   0.341   4.372   0.326  1.2825  0.2412  0.6748
 7288SOL    HW222685   0.491   4.404   0.270  0.2979  0.2977 -2.1013
 7289SOL     OW22686   0.779   6.157   3.361 -0.1810 -0.6120  0.1700
 7289SOL    HW122687   0.684   6.128   3.376 -0.7113  1.7823  2.6565
 7289SOL    HW222688   0.835   6.132   3.440 -0.0840  2.3362  1.2112
 7290SOL     OW22689   4.238   5.856   1.611 -0.3725  0.5634  0.6511
 7290SOL    HW122690   4.238   5.763   1.648 -1.5159  0.6163  0.8153
 7290SOL    HW222691   4.308   5.910   1.657 -1.2605  0.4305  2.2271
 7291SOL     OW22692   5.736   1.652   4.901  0.0294  0.3710 -0.0637
 7291SOL    HW122693   5.694   1.576   4.950 -1.6162 -0.1264 -2.0711
 7291SOL    HW222694   5.709   1.739   4.942  0.4037 -0.0525  1.1161
 7292SOL     OW22695   4.771   6.861   4.292 -0.1583 -0.0340  0.4754
 7292SOL    HW122696   4.864   6.896   4.280  0.4606 -0.6684  2.8677
 7292SOL    HW222697   4.706   6.936   4.286  0.7181  0.7857  1.0266
 7293SOL     OW22698   1.805   6.467   1.032 -0.0427  0.7311 -0.1450
 7293SOL    HW122699   1.731   6.521   0.990  0.1046  0.6470 -0.5154
 7293SOL    HW222700   1.878   6.529   1.061 -0.0822  0.7771 -0.1407
 7294SOL     OW22701   1.142   4.175   6.062 -0.2846 -0.4361 -0.1472
 7294SOL    HW122702   1.150   4.111   6.138 -0.8857  1.6280  1.7674
 7294SOL    HW222703   1.230   4.221   6.049 -1.0153  1.6551  1.6822
 7295SOL     OW22704   5.589   3.430   3.782  0.4979 -0.1167 -0.7366
 7295SOL    HW122705   5.531   3.397   3.708  0.2154 -2.0502  0.3022
 7295SOL    HW222706   5.637   3.353   3.824 -0.0636  0.7723  1.6999
 7296SOL     OW22707   0.522   6.293   0.837 -0.5300  0.2335  0.5146
 7296SOL    HW122708   0.505   6.196   0.854  1.0302  0.0321  1.0222
 7296SOL    HW222709   0.584   6.330   0.906 -1.9582  1.9047  1.0107
 7297SOL     OW22710   6.825   3.602   3.327  0.2451 -0.0402  0.0500
 7297SOL    HW122711   6.744   3.627   3.274  0.5474  0.3300 -0.2404
 7297SOL    HW222712   6.851   3.508   3.306  0.9604  0.4301 -1.2297
 7298SOL     OW22713   1.675   2.871   2.910  0.9541  0.0130  0.0492
 7298SOL    HW122714   1.577   2.879   2.891  1.3216 -0.0326 -2.0628
 7298SOL    HW222715   1.689   2.802   2.980 -0.5615  0.5579  0.9452
 7299SOL     OW22716   5.837   1.808   3.948  0.0051 -0.5905 -0.4272
 7299SOL    HW122717   5.795   1.735   4.002  0.1198 -0.3036  0.0579
 7299SOL    HW222718   5.774   1.886   3.943  0.9533  0.3479  1.3891
 7300SOL     OW22719   4.083   6.325   1.300  0.4434  0.1527 -0.7515
 7300SOL    HW122720   4.075   6.234   1.341  0.7636  0.7477  0.7023
 7300SOL    HW222721   3.996   6.373   1.309  1.0741  1.0311  1.1569
 7301SOL     OW22722   1.763   0.826   3.573 -0.5745  0.2127 -0.3797
 7301SOL    HW122723   1.820   0.891   3.524  0.8117 -0.2515  0.5646
 7301SOL    HW222724   1.751   0.743   3.518 -2.6203  1.3257 -1.7303
 7302SOL     OW22725   1.012   1.939   3.954  0.7500  0.0615 -0.2162
 7302SOL    HW122726   1.047   1.898   4.039  1.5887  0.7951 -0.1959
 7302SOL    HW222727   1.013   2.038   3.962  1.0585  0.1450 -1.1737
 7303SOL     OW22728   0.717   3.483   3.668 -0.2646  0.4715  0.5563
 7303SOL    HW122729   0.671   3.448   3.587  0.0820  0.8344  0.1976
 7303SOL    HW222730   0.727   3.583   3.660  2.9996  0.1863 -0.6634
 7304SOL     OW22731   0.973   5.954   6.378  0.1007 -0.1621  0.0725
 7304SOL    HW122732   0.912   5.980   6.453 -0.4899  0.3988 -0.5811
 7304SOL    HW222733   0.950   5.863   6.345 -0.3543  0.0186 -0.1255
 7305SOL     OW22734   3.782   1.287   5.671 -0.1558 -0.3473  0.0308
 7305SOL    HW122735   3.853   1.283   5.600  1.1381 -0.0274  1.2696
 7305SOL    HW222736   3.787   1.204   5.726 -1.4102 -0.7680 -0.4665
 7306SOL     OW22737   1.732   5.171   2.761  0.6021  0.5194  0.2119
 7306SOL    HW122738   1.812   5.208   2.713  0.4057  0.8971  0.1737
 7306SOL    HW222739   1.751   5.077   2.788  0.9864  0.5400  0.0271
 7307SOL     OW22740   2.417   5.419   0.172 -0.5516 -0.2204  0.3762
 7307SOL    HW122741   2.375   5.365   0.245 -1.4900  1.0120  0.7720
 7307SOL    HW222742   2.513   5.435   0.194 -0.0844 -2.1503 -0.0141
 7308SOL     OW22743   6.780   4.726   0.675  0.1490 -0.7710  0.0606
 7308SOL    HW122744   6.682   4.709   0.678 -0.1815  0.6933 -0.8979
 7308SOL    HW222745   6.820   4.680   0.596 -0.4702  1.4188 -1.6525
 7309SOL     OW22746   3.746   2.328   5.883  0.2395  0.0881 -0.3447
 7309SOL    HW122747   3.835   2.337   5.928  0.2398 -0.2709 -0.2688
 7309SOL    HW222748   3.751   2.255   5.814 -0.6466 -1.6256  1.3066
 7310SOL     OW22749   1.186   3.855   5.861  0.0007 -0.2554  0.3205
 7310SOL    HW122750   1.247   3.868   5.939 -1.2158 -1.2991  1.4921
 7310SOL    HW222751   1.091   3.863   5.891 -0.5177 -1.3954 -0.9084
 7311SOL     OW22752   4.312   4.967   5.321  0.0855  0.0803  0.3841
 7311SOL    HW122753   4.248   5.002   5.389  0.9818  0.4124  1.0822
 7311SOL    HW222754   4.277   4.984   5.230 -1.0874 -0.2727  0.7522
 7312SOL     OW22755   3.348   2.113   2.104 -0.5231  0.0274  0.2075
 7312SOL    HW122756   3.401   2.086   2.184 -0.6635 -0.5629  0.1084
 7312SOL    HW222757   3.397   2.184   2.053 -0.7316  0.8772  1.1581
 7313SOL     OW22758   6.082   0.194   5.111  0.6313 -0.1378  0.1776
 7313SOL    HW122759   6.029   0.278   5.101 -0.1194 -0.5953  0.2729
 7313SOL    HW222760   6.106   0.158   5.020  0.5996 -0.0481  0.1320
 7314SOL     OW22761   1.984   5.503   3.812  0.1918 -0.0996  0.3172
 7314SOL    HW122762   2.047   5.455   3.873 -1.2788 -0.8132  1.3228
 7314SOL    HW222763   1.919   5.437   3.773 -1.0176  0.8614  0.6565
 7315SOL     OW22764   5.015   5.702   1.226  0.1121  0.0965  0.7486
 7315SOL    HW122765   5.012   5.780   1.288 -0.8465 -0.6428  1.6662
 7315SOL    HW222766   4.936   5.643   1.242 -1.2791  0.8588 -2.5242
 7316SOL     OW22767   1.384   4.645   1.890  0.4612 -0.0153 -0.2275
 7316SOL    HW122768   1.310   4.614   1.950  1.4708 -1.6321  0.2548
 7316SOL    HW222769   1.471   4.606   1.922  1.4052  1.1833 -1.2545
 7317SOL     OW22770   0.960   5.658   5.817 -0.1996 -0.5447  0.3747
 7317SOL    HW122771   0.919   5.567   5.821 -1.4157 -0.0257  0.2634
 7317SOL    HW222772   1.051   5.652   5.778 -0.5947 -1.6140 -0.4426
 7318SOL     OW22773   5.323   6.397   6.623  0.1072 -0.7049 -0.0088
 7318SOL    HW122774   5.386   6.324   6.598  0.6670 -0.1799 -0.1423
 7318SOL    HW222775   5.232   6.358   6.637 -0.4397 -0.9956 -3.4336
 7319SOL     OW22776   6.177   2.360   4.608 -0.4123  0.4967  0.0857
 7319SOL    HW122777   6.099   2.420   4.626  0.3152  1.3294  0.6149
 7319SOL    HW222778   6.148   2.265   4.610 -1.3327  0.7752  0.8084
 7320SOL     OW22779   0.080   6.656   3.590  0.6431  0.2253 -0.0454
 7320SOL    HW122780  -0.016   6.646   3.565  0.9770 -1.8389 -0.6204
 7320SOL    HW222781   0.095   6.617   3.681  0.8253  1.3100  0.4166
 7321SOL     OW22782   4.341   0.294   3.460 -0.2919 -0.5284  0.2944
 7321SOL    HW122783   4.401   0.243   3.522  0.8494  0.8219  0.3506
 7321SOL    HW222784   4.271   0.342   3.512 -0.5087 -0.8936  0.3505
 7322SOL     OW22785   2.227   0.726   1.067  0.1788  0.3019  0.1100
 7322SOL    HW122786   2.242   0.811   1.015  0.8752 -0.7315 -1.4353
 7322SOL    HW222787   2.129   0.713   1.081 -0.0335  0.5701 -1.0346
 7323SOL     OW22788   0.195   6.172   6.050  0.3155  0.3364 -0.3579
 7323SOL    HW122789   0.228   6.163   6.144 -1.3616 -0.1322  0.2292
 7323SOL    HW222790   0.256   6.232   5.999  0.5105  1.7698  1.4410
 7324SOL     OW22791   4.598   4.836   4.701 -0.0003  0.0268 -0.8675
 7324SOL    HW122792   4.642   4.922   4.727 -2.4815  0.8150  1.1703
 7324SOL    HW222793   4.534   4.853   4.627 -0.6595  0.0067 -0.3112
 7325SOL     OW22794   1.860   4.977   3.396  0.3830  0.6447  0.1961
 7325SOL    HW122795   1.784   4.966   3.461  0.8053  0.6232  0.6879
 7325SOL    HW222796   1.863   5.072   3.364  0.1348  0.6404  0.1554
 7326SOL     OW22797   6.679   5.605   4.593  0.3781  0.1274 -0.0675
 7326SOL    HW122798   6.674   5.552   4.677 -0.0647 -0.7625 -0.6434
 7326SOL    HW222799   6.736   5.686   4.607  2.0323 -1.1064  0.4933
 7327SOL     OW22800   4.283   0.976   6.007  0.3815 -0.0044 -0.3059
 7327SOL    HW122801   4.219   0.955   5.933 -0.3346 -2.1149  0.8353
 7327SOL    HW222802   4.243   0.948   6.095  2.3285 -0.1120  0.5984
 7328SOL     OW22803   4.742   1.455   1.780  0.2623 -0.3517  0.5676
 7328SOL    HW122804   4.818   1.404   1.740 -0.2441  0.6541 -1.8276
 7328SOL    HW222805   4.718   1.532   1.721 -1.3737  0.5094  2.2456
 7329SOL     OW22806   4.975   3.819   1.350 -0.4003  0.5895 -1.0905
 7329SOL    HW122807   4.904   3.771   1.296 -1.0692  0.1285  0.1542
 7329SOL    HW222808   4.937   3.904   1.385 -0.6288 -0.0378  0.2424
 7330SOL     OW22809   6.568   5.011   0.284  0.1619  0.0093  1.0351
 7330SOL    HW122810   6.575   4.926   0.233  0.3603  2.3346 -3.2262
 7330SOL    HW222811   6.593   4.995   0.380  0.1968 -4.6055  0.4470
 7331SOL     OW22812   2.852   6.566   5.608  0.2451  0.6089  0.2558
 7331SOL    HW122813   2.789   6.551   5.532  0.1803  0.7292  0.2867
 7331SOL    HW222814   2.808   6.540   5.694  0.1016  1.0610  0.3199
 7332SOL     OW22815   4.427   5.338   2.008  0.4690  0.1195  0.1906
 7332SOL    HW122816   4.446   5.327   2.106  1.5236 -1.2365 -0.1308
 7332SOL    HW222817   4.420   5.247   1.966 -1.2976  0.6589 -0.7742
 7333SOL     OW22818   4.096   3.235   5.748  0.1007 -0.0631 -0.1675
 7333SOL    HW122819   4.177   3.178   5.737 -0.9318 -1.9422  1.3424
 7333SOL    HW222820   4.122   3.323   5.788  1.3221 -0.9902  1.1779
 7334SOL     OW22821   3.513   4.984   3.318  0.2934  0.2037 -0.0136
 7334SOL    HW122822   3.576   4.911   3.344 -0.6598 -0.5630  0.1931
 7334SOL    HW222823   3.434   4.983   3.379  1.0933  2.6049  1.1974
 7335SOL     OW22824   5.611   0.977   1.939  0.5923  0.0607 -0.2572
 7335SOL    HW122825   5.660   1.060   1.967 -1.1815  1.3611 -0.8077
 7335SOL    HW222826   5.552   0.946   2.013  0.8056 -0.3624 -0.2596
 7336SOL     OW22827   5.402   3.823   4.986 -0.2851  0.3659 -0.1583
 7336SOL    HW122828   5.416   3.862   4.895  2.4444  0.2050  0.1138
 7336SOL    HW222829   5.431   3.889   5.055 -0.8901 -0.0945  0.5554
 7337SOL     OW22830   2.529   1.698   5.225 -0.0507 -0.1666 -0.1483
 7337SOL    HW122831   2.443   1.662   5.259 -0.2529 -0.2346 -0.7300
 7337SOL    HW222832   2.520   1.797   5.210  0.4105  0.0910  1.1551
 7338SOL     OW22833   2.135   1.571   3.907  0.5374 -0.0733 -0.2494
 7338SOL    HW122834   2.135   1.654   3.963 -0.3047  0.6295 -1.2633
 7338SOL    HW222835   2.230   1.546   3.884  1.0803 -1.4150  2.9177
 7339SOL     OW22836   4.368   5.518   0.331 -0.1234  0.3895 -0.3317
 7339SOL    HW122837   4.443   5.452   0.330 -0.4710 -0.0059 -0.3852
 7339SOL    HW222838   4.330   5.526   0.239 -0.6564  0.0023 -0.1532
 7340SOL     OW22839   2.463   5.560   1.813  0.2064 -0.7242 -0.6849
 7340SOL    HW122840   2.506   5.650   1.810 -1.0421 -0.0929 -0.3259
 7340SOL    HW222841   2.428   5.543   1.905 -0.4254 -1.1674 -1.0007
 7341SOL     OW22842   0.313   4.878   3.181  0.0526  0.0975  0.1836
 7341SOL    HW122843   0.346   4.904   3.271  0.5738 -0.4828  0.1745
 7341SOL    HW222844   0.347   4.943   3.113 -0.1540  0.4096  0.3808
 7342SOL     OW22845   3.986   5.765   0.445  0.5500 -0.1109 -0.4030
 7342SOL    HW122846   3.939   5.703   0.507  0.0449 -0.2753 -0.9510
 7342SOL    HW222847   3.935   5.772   0.360  1.1009  0.3243 -0.6996
 7343SOL     OW22848   1.675   4.895   3.575  0.0507  0.6550  0.7141
 7343SOL    HW122849   1.586   4.935   3.593 -0.5708  0.7082 -1.9905
 7343SOL    HW222850   1.671   4.796   3.586  0.0322  0.7728  1.8452
 7344SOL     OW22851   1.000   3.360   1.725 -0.4283  0.2238  0.1249
 7344SOL    HW122852   1.002   3.371   1.825 -0.6504  1.5577  0.0092
 7344SOL    HW222853   1.084   3.398   1.687 -0.4847 -0.0045 -0.2279
 7345SOL     OW22854   1.047   2.393   5.945  0.1910  0.6604  0.4334
 7345SOL    HW122855   0.960   2.431   5.978  0.9002  0.9226  2.0658
 7345SOL    HW222856   1.089   2.338   6.016  0.9984 -0.1379 -0.6297
 7346SOL     OW22857   6.056   5.806   2.064  0.2999 -0.6763 -0.2834
 7346SOL    HW122858   6.101   5.888   2.101 -2.0898  0.5683  0.0332
 7346SOL    HW222859   6.124   5.734   2.051  2.1845  0.7446  1.1274
 7347SOL     OW22860   5.023   1.740   1.639 -0.0494  0.4387  0.5109
 7347SOL    HW122861   5.096   1.724   1.574  0.8169  2.2163  0.9817
 7347SOL    HW222862   4.938   1.698   1.605  0.6790  0.1868 -1.0907
 7348SOL     OW22863   3.144   0.993   3.366 -0.3018 -0.4049 -0.0343
 7348SOL    HW122864   3.153   0.998   3.266  2.3737  0.4283  0.1937
 7348SOL    HW222865   3.091   1.072   3.398  1.5122  1.1146 -0.5838
 7349SOL     OW22866   5.402   6.567   5.515  0.0298 -0.0308 -0.4582
 7349SOL    HW122867   5.432   6.476   5.543  0.3701 -0.0020 -0.7052
 7349SOL    HW222868   5.308   6.582   5.545  0.1598 -0.2524  0.0663
 7350SOL     OW22869   0.701   3.763   4.513 -0.0052 -0.4564  0.1068
 7350SOL    HW122870   0.645   3.826   4.567 -1.1627  0.6933 -2.2529
 7350SOL    HW222871   0.796   3.770   4.542 -0.3355  1.2410  0.9683
 7351SOL     OW22872   4.490   6.309   5.795  0.1895 -0.4117 -0.0903
 7351SOL    HW122873   4.543   6.382   5.754 -0.4460 -0.6276 -1.3309
 7351SOL    HW222874   4.402   6.345   5.825 -0.3653 -0.7672 -1.2446
 7352SOL     OW22875   4.770   2.066   4.801 -0.4719  0.3952 -0.0738
 7352SOL    HW122876   4.829   2.127   4.855  0.3868 -0.4785  0.0014
 7352SOL    HW222877   4.825   2.021   4.731 -0.3197 -2.7096  1.8600
 7353SOL     OW22878   5.733   6.449   0.979 -0.4909  0.6052 -0.7028
 7353SOL    HW122879   5.722   6.510   0.900  0.6056 -1.1051 -2.2529
 7353SOL    HW222880   5.671   6.477   1.052 -0.9361  2.7607 -1.8447
 7354SOL     OW22881   5.441   3.195   6.395 -0.6187  0.9701  0.0139
 7354SOL    HW122882   5.343   3.205   6.381 -0.5135  1.1336 -0.6599
 7354SOL    HW222883   5.480   3.141   6.320 -0.1247  1.2918  0.0330
 7355SOL     OW22884   1.600   5.819   3.109  0.4380 -0.0801 -0.1526
 7355SOL    HW122885   1.621   5.726   3.078  0.4143 -0.5949  1.2639
 7355SOL    HW222886   1.533   5.860   3.047 -1.3335 -1.8966  0.4216
 7356SOL     OW22887   2.000   0.273   5.525  0.0374  0.5124  0.8427
 7356SOL    HW122888   1.925   0.289   5.589  0.2132  2.1242  0.6826
 7356SOL    HW222889   1.963   0.260   5.433 -0.1462 -0.8205  1.0715
 7357SOL     OW22890   6.727   1.560   3.432 -0.2765  0.0207  0.0583
 7357SOL    HW122891   6.646   1.598   3.477 -0.2592  1.3184 -0.9101
 7357SOL    HW222892   6.712   1.558   3.333  0.5053 -0.6377 -0.0664
 7358SOL     OW22893   5.903   5.009   2.981  0.0473  0.3366  0.1016
 7358SOL    HW122894   5.824   4.980   3.035 -0.2556 -2.3776 -1.6461
 7358SOL    HW222895   5.929   5.101   3.008 -2.4514  0.5537  2.1298
 7359SOL     OW22896   6.951   2.307   1.252 -0.4351 -0.0194 -0.1257
 7359SOL    HW122897   7.009   2.242   1.302  2.5087  1.3983 -1.4442
 7359SOL    HW222898   6.872   2.331   1.308  1.3584 -0.3871  2.8101
 7360SOL     OW22899   1.734   4.495   4.745  0.4311 -1.1018 -0.4736
 7360SOL    HW122900   1.722   4.493   4.646  1.4095  0.6425 -0.6679
 7360SOL    HW222901   1.796   4.569   4.770  0.3522 -1.6157  1.4458
 7361SOL     OW22902   1.038   0.994   4.756  0.1393 -0.1551 -0.0589
 7361SOL    HW122903   1.014   1.068   4.819  1.8763 -1.1921  1.9731
 7361SOL    HW222904   1.112   1.024   4.696 -1.3983  0.7801 -1.5737
 7362SOL     OW22905   6.216   6.270   0.161 -0.4290 -0.8531 -0.3451
 7362SOL    HW122906   6.268   6.251   0.244 -0.2518  0.6241 -0.0794
 7362SOL    HW222907   6.234   6.200   0.093 -0.7291 -2.2177  0.9230
 7363SOL     OW22908   6.283   0.033   5.568 -0.1872 -0.1700  0.0912
 7363SOL    HW122909   6.237   0.071   5.648 -0.1583  0.3537 -0.1270
 7363SOL    HW222910   6.221   0.033   5.490  0.6842  2.1884 -0.6711
 7364SOL     OW22911   2.762   1.441   3.528  0.0028 -0.0098 -0.5338
 7364SOL    HW122912   2.753   1.358   3.584  0.4591  2.2211  3.1104
 7364SOL    HW222913   2.859   1.459   3.511 -0.0414  0.2792 -0.4796
 7365SOL     OW22914   0.468   4.952   5.542 -0.3302  0.2299 -0.1943
 7365SOL    HW122915   0.556   4.909   5.558  0.2566  1.9707  1.5338
 7365SOL    HW222916   0.445   4.944   5.445  1.1157 -1.3086 -0.4657
 7366SOL     OW22917   6.489   4.605   5.695 -0.0306  0.2243  0.2270
 7366SOL    HW122918   6.396   4.631   5.669  0.2220 -0.8528 -1.9266
 7366SOL    HW222919   6.553   4.639   5.626  0.8899 -1.2257  0.3482
 7367SOL     OW22920   3.254   1.296   3.063 -0.1160 -0.2089  0.4618
 7367SOL    HW122921   3.173   1.237   3.055  0.3409 -0.9426  1.0294
 7367SOL    HW222922   3.277   1.306   3.160  0.6957 -0.3390  0.2896
 7368SOL     OW22923   1.269   3.849   2.057  0.6689  0.1844  0.3949
 7368SOL    HW122924   1.291   3.860   1.960 -0.6434  2.4715  0.3035
 7368SOL    HW222925   1.331   3.904   2.112  0.1816  0.4275  0.7081
 7369SOL     OW22926   6.767   6.463   6.558  0.2900 -0.0236 -0.1293
 7369SOL    HW122927   6.808   6.430   6.474  0.6262 -1.5438  0.6154
 7369SOL    HW222928   6.694   6.400   6.587  2.3589 -1.3962  2.4407
 7370SOL     OW22929   3.408   0.107   6.851  0.0428 -0.0468 -0.0774
 7370SOL    HW122930   3.332   0.131   6.911  0.7546  1.2293  0.3528
 7370SOL    HW222931   3.492   0.150   6.883  1.0031 -1.5476 -0.4563
 7371SOL     OW22932   1.646   5.464   4.532  0.4393  0.3023 -0.5644
 7371SOL    HW122933   1.564   5.424   4.492  0.8387  1.3942 -2.6019
 7371SOL    HW222934   1.727   5.423   4.490  0.9408  0.0277  0.6288
 7372SOL     OW22935   2.365   1.947   6.643  0.0036 -0.0718  1.0883
 7372SOL    HW122936   2.362   1.852   6.676  0.7961 -0.1388  0.9934
 7372SOL    HW222937   2.460   1.977   6.638 -0.2706  0.9817  1.8073
 7373SOL     OW22938   5.197   6.337   1.780  0.0935 -0.1470  0.2508
 7373SOL    HW122939   5.282   6.327   1.728  0.4604 -2.6566  1.1852
 7373SOL    HW222940   5.160   6.429   1.767  2.7292  0.8864 -0.4843
 7374SOL     OW22941   1.487   3.511   0.600  0.4459 -0.0270  0.2493
 7374SOL    HW122942   1.469   3.447   0.675  2.6144 -0.6859  0.2629
 7374SOL    HW222943   1.469   3.465   0.513 -1.0371  0.3891  0.3222
 7375SOL     OW22944   2.817   4.682   5.378 -0.0259 -0.1078  0.2604
 7375SOL    HW122945   2.835   4.665   5.281  2.0779 -1.1360  0.7784
 7375SOL    HW222946   2.819   4.596   5.428 -0.9754  0.4236  1.2604
 7376SOL     OW22947   0.738   1.638   3.026 -0.0989 -0.0440  0.1743
 7376SOL    HW122948   0.800   1.641   3.104  0.7051 -0.3940 -0.4277
 7376SOL    HW222949   0.659   1.697   3.043  0.9373  1.2805  0.5090
 7377SOL     OW22950   6.505   6.176   0.475  0.8396 -0.2024 -0.0642
 7377SOL    HW122951   6.556   6.094   0.503  1.6686  0.5335  0.5981
 7377SOL    HW222952   6.566   6.255   0.474 -0.0464  0.4889 -0.3200
 7378SOL     OW22953   0.713   2.405   6.788 -0.1514  0.3207  0.2520
 7378SOL    HW122954   0.769   2.421   6.869  1.4436 -0.2297 -0.7100
 7378SOL    HW222955   0.730   2.478   6.721  2.2049 -1.6497 -1.4888
 7379SOL     OW22956   4.799   5.906   2.699 -0.2304  0.1729 -1.2309
 7379SOL    HW122957   4.837   5.818   2.728 -1.8608 -0.6337 -1.4678
 7379SOL    HW222958   4.784   5.905   2.601  0.1128  0.8748 -1.2962
 7380SOL     OW22959   5.952   6.254   3.084  0.1976  0.0100  0.3625
 7380SOL    HW122960   5.866   6.241   3.134 -0.3877 -1.7109 -1.0004
 7380SOL    HW222961   5.979   6.350   3.089 -2.7236  0.9785 -0.6100
 7381SOL     OW22962   4.560   2.210   3.111  0.1150 -0.0672  0.2461
 7381SOL    HW122963   4.542   2.288   3.051  0.6087 -0.6131 -0.6329
 7381SOL    HW222964   4.516   2.226   3.199 -1.2513  0.4396 -0.4834
 7382SOL     OW22965   1.575   1.896   1.094  0.3409 -0.1375  0.1724
 7382SOL    HW122966   1.551   1.991   1.117  0.2639 -0.2350  0.4994
 7382SOL    HW222967   1.522   1.867   1.014 -1.3277 -0.6439  1.3940
 7383SOL     OW22968   4.714   1.446   5.765  0.0592  0.0387 -0.5230
 7383SOL    HW122969   4.698   1.354   5.801  1.1176 -0.8617 -2.2551
 7383SOL    HW222970   4.808   1.474   5.788  0.2008  0.1139 -1.1734
 7384SOL     OW22971   2.438   6.098   1.899  0.3614  0.5824 -0.0590
 7384SOL    HW122972   2.376   6.164   1.940  0.4181  1.1153 -0.8068
 7384SOL    HW222973   2.524   6.096   1.951 -0.9270 -1.5803  2.1822
 7385SOL     OW22974   0.427   0.183   2.263  0.2870 -0.5306 -0.3942
 7385SOL    HW122975   0.507   0.149   2.313 -0.4780 -1.1429  0.4519
 7385SOL    HW222976   0.348   0.125   2.284 -0.4421  0.2209 -1.0096
 7386SOL     OW22977   0.561   5.788   5.566  0.3457  1.0603 -0.4978
 7386SOL    HW122978   0.626   5.835   5.625 -0.8694  0.5813  1.3106
 7386SOL    HW222979   0.597   5.698   5.541 -0.5384 -0.2885  2.5826
 7387SOL     OW22980   2.197   3.604   1.192  0.1444 -0.2302  0.0289
 7387SOL    HW122981   2.242   3.544   1.258  2.3200  1.8242  0.5992
 7387SOL    HW222982   2.207   3.567   1.100 -1.4771 -2.3033  0.6039
 7388SOL     OW22983   5.500   3.470   2.278 -0.2364 -0.3016 -0.4255
 7388SOL    HW122984   5.595   3.475   2.246 -0.0715  1.3130  0.2258
 7388SOL    HW222985   5.443   3.428   2.207  0.4435  1.5139 -2.1423
 7389SOL     OW22986   6.407   3.220   3.976 -0.2673 -0.1716  0.2620
 7389SOL    HW122987   6.467   3.193   3.900 -1.3296  1.2671 -1.1392
 7389SOL    HW222988   6.461   3.269   4.044  0.5851 -0.9536  0.1797
 7390SOL     OW22989   5.539   5.904   0.772  0.2062 -0.2210  0.3236
 7390SOL    HW122990   5.539   5.994   0.814  0.4138 -0.0735  0.0103
 7390SOL    HW222991   5.632   5.879   0.747 -0.0482  0.1879 -1.0929
 7391SOL     OW22992   0.202   3.653   5.855  0.7660 -0.3104 -0.3592
 7391SOL    HW122993   0.135   3.726   5.840  0.8471 -0.3457 -0.9233
 7391SOL    HW222994   0.231   3.654   5.951  1.7335  1.2365 -0.6263
 7392SOL     OW22995   0.988   2.138   5.104 -0.6029  0.1830  0.0567
 7392SOL    HW122996   1.082   2.148   5.074 -0.3217 -0.7464  0.5968
 7392SOL    HW222997   0.931   2.207   5.058  0.1904  0.2633 -0.8398
 7393SOL     OW22998   5.750   2.609   0.266 -0.0457 -0.3804 -0.5556
 7393SOL    HW122999   5.651   2.620   0.276 -0.2771 -2.6204  0.2646
 7393SOL    HW223000   5.794   2.698   0.277 -1.9409  0.6607 -0.8126
 7394SOL     OW23001   4.438   1.390   0.665  0.3393 -0.0948 -0.1017
 7394SOL    HW123002   4.483   1.415   0.751 -0.5083  1.6099 -0.1180
 7394SOL    HW223003   4.473   1.448   0.591  0.6680 -1.1852 -0.8181
 7395SOL     OW23004   5.514   6.270   5.930  0.1837  0.0129 -0.0998
 7395SOL    HW123005   5.486   6.259   5.835  0.1051 -1.1919  0.0470
 7395SOL    HW223006   5.467   6.349   5.970 -0.2136  0.1863 -0.8946
 7396SOL     OW23007   5.441   3.103   4.758 -0.8023  0.3379 -0.5125
 7396SOL    HW123008   5.418   3.125   4.852  1.0801  0.8421 -0.1257
 7396SOL    HW223009   5.447   3.187   4.704  2.5117  0.5990  0.0360
 7397SOL     OW23010   2.702   5.311   2.929  0.0419 -0.4631 -0.2929
 7397SOL    HW123011   2.763   5.271   2.998  0.4486 -2.1145 -1.5507
 7397SOL    HW223012   2.715   5.264   2.842 -1.0360  1.0494 -1.3106
 7398SOL     OW23013   6.748   1.968   2.969 -0.4198 -0.4501 -0.0630
 7398SOL    HW123014   6.792   1.902   3.030 -0.5035  0.3578  0.8902
 7398SOL    HW223015   6.720   2.048   3.021  1.6948  1.3581 -1.5541
 7399SOL     OW23016   5.977   4.340   1.368  0.2397 -0.4246 -0.0794
 7399SOL    HW123017   5.924   4.425   1.372  1.3462  0.2961 -0.0912
 7399SOL    HW223018   5.917   4.264   1.343 -0.8778  0.2556  0.4220
 7400SOL     OW23019   6.533   5.540   5.798 -0.3725 -0.2465 -0.1371
 7400SOL    HW123020   6.457   5.591   5.758 -0.7116  0.3496  1.1850
 7400SOL    HW223021   6.531   5.445   5.766 -1.0243  0.0335 -0.9491
 7401SOL     OW23022   6.974   5.074   0.383 -0.0315 -0.0019  0.3328
 7401SOL    HW123023   6.895   5.109   0.434 -0.0060  1.4914 -0.6016
 7401SOL    HW223024   6.949   4.989   0.338 -1.2098  0.6013 -0.1968
 7402SOL     OW23025   0.263   2.842   3.890  0.3260 -0.5778  0.4590
 7402SOL    HW123026   0.255   2.912   3.962 -0.2492 -0.3241  0.1502
 7402SOL    HW223027   0.198   2.861   3.817 -2.1191 -3.1779  1.7934
 7403SOL     OW23028   1.767   2.825   6.420  0.2385 -0.3170 -0.4197
 7403SOL    HW123029   1.863   2.801   6.407 -0.3639 -2.2573 -1.6401
 7403SOL    HW223030   1.724   2.840   6.331 -0.4458  1.2807  0.1358
 7404SOL     OW23031   5.268   5.332   2.924  0.0173  0.1982 -0.2656
 7404SOL    HW123032   5.357   5.328   2.968 -0.3035  1.2429  0.4985
 7404SOL    HW223033   5.225   5.242   2.929  0.0472  0.2418  1.4143
 7405SOL     OW23034   5.279   0.165   3.064 -0.1724  0.8037 -0.4325
 7405SOL    HW123035   5.222   0.246   3.049 -1.6922 -0.0627  0.3881
 7405SOL    HW223036   5.229   0.099   3.120  0.8927 -0.8452 -1.3143
 7406SOL     OW23037   2.540   4.503   0.711 -0.6337 -0.2810  0.1065
 7406SOL    HW123038   2.591   4.440   0.771  0.4990  0.2575 -0.2695
 7406SOL    HW223039   2.473   4.451   0.659  1.3938 -1.5093 -1.4177
 7407SOL     OW23040   5.578   3.185   0.258 -0.1212  0.2507  0.3338
 7407SOL    HW123041   5.640   3.237   0.200 -1.0287  1.7231  0.6600
 7407SOL    HW223042   5.623   3.164   0.345 -0.0876  1.3588  0.5963
 7408SOL     OW23043   6.053   0.598   0.391  0.0089  0.1549  0.1218
 7408SOL    HW123044   5.962   0.561   0.371 -0.0404 -0.0914  0.7736
 7408SOL    HW223045   6.103   0.612   0.306 -0.2723 -0.6602 -0.1870
 7409SOL     OW23046   6.380   0.544   4.541 -0.2415 -0.0188  0.0864
 7409SOL    HW123047   6.411   0.492   4.620  1.6138  3.2122  1.6769
 7409SOL    HW223048   6.282   0.560   4.548 -0.2244 -0.3883  1.4110
 7410SOL     OW23049   2.883   6.768   0.381 -0.0212  0.8017 -0.2245
 7410SOL    HW123050   2.888   6.669   0.376 -0.0299  0.8288 -0.8441
 7410SOL    HW223051   2.824   6.795   0.457 -0.6581  0.3162 -0.5345
 7411SOL     OW23052   2.287   3.419   3.242 -0.3743  0.4521 -0.2023
 7411SOL    HW123053   2.231   3.367   3.177  0.2655 -0.6380  0.0864
 7411SOL    HW223054   2.230   3.453   3.316 -0.7313 -0.3325 -0.1065
 7412SOL     OW23055   5.475   2.448   1.456 -0.1380 -0.4186  0.2069
 7412SOL    HW123056   5.542   2.474   1.387 -1.2323  1.4647 -0.2273
 7412SOL    HW223057   5.518   2.449   1.546  0.6466 -0.1756 -0.1608
 7413SOL     OW23058   5.939   1.352   6.093  0.4680 -0.2795  0.5152
 7413SOL    HW123059   5.916   1.256   6.109 -0.4211 -0.0935  0.3952
 7413SOL    HW223060   5.922   1.376   5.997  1.5139 -0.2149  0.3253
 7414SOL     OW23061   2.745   0.664   6.459 -0.1199 -0.2398 -0.3392
 7414SOL    HW123062   2.757   0.581   6.405 -1.2473  0.3396 -1.4976
 7414SOL    HW223063   2.773   0.743   6.406 -1.7206  0.3817 -0.2817
 7415SOL     OW23064   4.137   0.173   0.210  0.0193  0.6078  0.0604
 7415SOL    HW123065   4.197   0.238   0.163 -0.7741  0.5723 -1.0343
 7415SOL    HW223066   4.055   0.222   0.243 -0.5256  0.2089 -0.6574
 7416SOL     OW23067   4.520   6.456   1.881  0.0710 -0.1580  0.0720
 7416SOL    HW123068   4.573   6.390   1.827 -0.2215 -1.5322  1.3900
 7416SOL    HW223069   4.429   6.467   1.840  0.6387  0.6496 -1.0342
 7417SOL     OW23070   0.006   5.753   5.511 -0.3117  0.0916 -0.4448
 7417SOL    HW123071  -0.012   5.830   5.450  2.8218  2.6573  1.5415
 7417SOL    HW223072   0.051   5.680   5.460 -1.7763  0.2647 -2.0554
 7418SOL     OW23073   1.239   3.763   0.708 -0.4255 -0.3699 -0.1171
 7418SOL    HW123074   1.325   3.761   0.759 -0.1685  1.5748 -0.3871
 7418SOL    HW223075   1.225   3.675   0.663  2.0861 -0.3495 -1.1218
 7419SOL     OW23076   2.394   3.559   0.434  0.0548  0.2955 -0.0677
 7419SOL    HW123077   2.416   3.540   0.339 -0.1855 -0.6082  0.0421
 7419SOL    HW223078   2.330   3.490   0.468  0.1422  0.5972  0.7524
 7420SOL     OW23079   3.305   0.405   6.905 -0.1621 -0.2853  0.0874
 7420SOL    HW123080   3.335   0.419   6.999 -1.2645  0.1937  0.3778
 7420SOL    HW223081   3.257   0.317   6.898  1.4347 -1.1539 -0.4216
 7421SOL     OW23082   3.031   0.325   0.198 -0.2292  0.0829  0.0487
 7421SOL    HW123083   2.972   0.346   0.121 -1.5141  1.0693  1.2523
 7421SOL    HW223084   3.013   0.390   0.272  1.8697 -0.0284  0.7106
 7422SOL     OW23085   4.186   3.657   2.751 -0.1029 -0.0065  0.0265
 7422SOL    HW123086   4.157   3.623   2.662 -0.1757  0.1400 -0.0060
 7422SOL    HW223087   4.207   3.755   2.745  2.7176 -0.5545 -0.5177
 7423SOL     OW23088   5.687   6.941   1.592  0.4239 -0.5418 -0.2509
 7423SOL    HW123089   5.724   6.878   1.524 -1.1475 -2.3604  0.4834
 7423SOL    HW223090   5.683   7.034   1.554 -1.2453 -1.6640 -3.0580
 7424SOL     OW23091   5.552   0.913   0.046  0.3649 -0.2370 -0.1355
 7424SOL    HW123092   5.644   0.916   0.085  0.7907  0.6830 -1.1717
 7424SOL    HW223093   5.529   1.002   0.009 -0.4068 -0.8291 -1.1183
 7425SOL     OW23094   4.899   4.284   2.107  0.3148 -0.3239 -0.0880
 7425SOL    HW123095   4.895   4.380   2.081 -1.0629  0.2728  2.0198
 7425SOL    HW223096   4.963   4.236   2.047  0.3957  1.6902 -1.7478
 7426SOL     OW23097   0.412   5.709   6.400 -0.1610  0.0521  0.6559
 7426SOL    HW123098   0.503   5.733   6.433 -0.6224  1.2232  1.1506
 7426SOL    HW223099   0.417   5.627   6.343  1.5057  1.1793 -0.9144
 7427SOL     OW23100   3.274   1.657   3.143 -0.4774  0.2619 -0.1956
 7427SOL    HW123101   3.315   1.739   3.104  2.1353  0.1862  1.9799
 7427SOL    HW223102   3.310   1.576   3.097 -0.4808  0.2776 -0.2257
 7428SOL     OW23103   6.613   3.102   6.538 -0.4917 -0.0247  0.1606
 7428SOL    HW123104   6.662   3.041   6.476  0.3051  0.0098  0.7229
 7428SOL    HW223105   6.591   3.187   6.491  3.1392  1.4325  0.7699
 7429SOL     OW23106   6.548   5.424   6.582  0.2276 -0.2416 -0.1907
 7429SOL    HW123107   6.555   5.478   6.498 -1.1498 -0.9973 -0.8299
 7429SOL    HW223108   6.454   5.391   6.593  0.2496  0.2663  1.9401
 7430SOL     OW23109   6.218   5.917   4.938  0.3294  0.2160  0.0150
 7430SOL    HW123110   6.170   5.881   5.018  0.3993  0.5671  0.2152
 7430SOL    HW223111   6.193   6.013   4.924  0.5152  0.2290 -0.2321
 7431SOL     OW23112   6.036   4.795   0.242 -0.0352 -0.2914 -0.1901
 7431SOL    HW123113   6.012   4.780   0.146 -0.0325 -0.8092 -0.1159
 7431SOL    HW223114   5.954   4.819   0.294 -0.0489 -0.0722 -0.3113
 7432SOL     OW23115   5.957   4.436   0.265  0.1036 -0.3539  0.7648
 7432SOL    HW123116   6.009   4.417   0.348  1.1659 -0.2942  0.1174
 7432SOL    HW223117   5.902   4.519   0.278  2.0041  0.9849  0.6532
 7433SOL     OW23118   5.384   1.927   0.120  0.5390 -0.2665 -0.0309
 7433SOL    HW123119   5.453   1.945   0.049 -0.2380 -0.8137 -0.9543
 7433SOL    HW223120   5.324   2.006   0.129  1.0948  0.0987  0.5603
 7434SOL     OW23121   4.275   4.516   1.421 -0.1530  0.7024  0.0016
 7434SOL    HW123122   4.184   4.533   1.384 -0.5444 -0.3402  0.4461
 7434SOL    HW223123   4.267   4.466   1.507  0.8260  0.9559  0.2484
 7435SOL     OW23124   5.206   3.182   2.388 -0.4672  0.4074  0.5293
 7435SOL    HW123125   5.133   3.162   2.323 -0.9329  0.0244  1.1461
 7435SOL    HW223126   5.219   3.103   2.448  0.5265  0.4418  0.3670
 7436SOL     OW23127   0.667   3.018   6.064  0.1643  0.6529  0.1870
 7436SOL    HW123128   0.765   3.011   6.045  0.1152 -2.8642  0.6214
 7436SOL    HW223129   0.653   3.077   6.144  2.0824  0.0354  1.0423
 7437SOL     OW23130   5.322   2.872   5.065  0.0973 -0.4560  0.7521
 7437SOL    HW123131   5.412   2.829   5.060 -0.4439 -1.4857 -0.2240
 7437SOL    HW223132   5.297   2.886   5.161  1.9418  1.2553  1.0522
 7438SOL     OW23133   4.915   5.855   0.877 -0.3212  0.4749  0.0655
 7438SOL    HW123134   4.917   5.758   0.855  0.3984 -0.0088  2.0375
 7438SOL    HW223135   4.919   5.909   0.793 -0.1047 -1.2006 -1.0307
 7439SOL     OW23136   4.205   0.363   5.192  0.3619 -0.8654 -0.4189
 7439SOL    HW123137   4.117   0.342   5.149 -0.0510 -0.7854  0.3594
 7439SOL    HW223138   4.228   0.460   5.176  1.2101 -1.3077 -2.1645
 7440SOL     OW23139   5.114   0.479   4.736  0.0836  0.0644 -0.5023
 7440SOL    HW123140   5.039   0.521   4.684 -1.2572 -0.3425  1.0199
 7440SOL    HW223141   5.079   0.445   4.823  1.8697 -1.0217 -0.1624
 7441SOL     OW23142   6.157   6.289   1.607 -0.0331  0.1422 -0.6745
 7441SOL    HW123143   6.238   6.233   1.591  1.2582  1.2703  1.3663
 7441SOL    HW223144   6.131   6.282   1.704 -1.8982  0.4427 -1.1266
 7442SOL     OW23145   1.460   5.941   2.704  0.3417  0.9826  0.3640
 7442SOL    HW123146   1.389   5.998   2.662  0.3790  1.1057  0.4586
 7442SOL    HW223147   1.550   5.981   2.686  0.4229  0.5919 -0.1259
 7443SOL     OW23148   6.553   2.609   3.589 -0.1990 -0.9138 -0.2627
 7443SOL    HW123149   6.555   2.700   3.548 -0.6726 -0.6293  0.3053
 7443SOL    HW223150   6.461   2.570   3.580 -0.2504 -0.9342  0.3269
 7444SOL     OW23151   3.139   3.547   1.977 -0.9390 -0.0503 -0.2521
 7444SOL    HW123152   3.091   3.531   1.891  0.6268 -1.7513 -0.8800
 7444SOL    HW223153   3.229   3.586   1.959 -1.8557  2.8297  0.8906
 7445SOL     OW23154   3.979   1.938   1.946  0.1079  0.1230 -0.2756
 7445SOL    HW123155   4.047   1.915   1.876 -0.4233  0.9444 -1.1018
 7445SOL    HW223156   3.911   1.865   1.951 -0.7218  0.7356 -1.7665
 7446SOL     OW23157   6.202   0.563   1.468 -0.0521 -0.2280 -0.0820
 7446SOL    HW123158   6.203   0.467   1.495 -0.9023 -0.3350 -0.3971
 7446SOL    HW223159   6.192   0.620   1.549  0.0394 -0.4244  0.0680
 7447SOL     OW23160   4.594   4.514   0.999 -0.5442  0.0496 -0.2500
 7447SOL    HW123161   4.548   4.495   0.912  2.4917 -0.7385 -1.8086
 7447SOL    HW223162   4.536   4.486   1.075 -3.2949  0.7289 -1.9617
 7448SOL     OW23163   5.934   0.529   5.813  0.3697 -0.5088 -0.4336
 7448SOL    HW123164   5.981   0.617   5.818  2.2634 -1.5225  0.5759
 7448SOL    HW223165   5.844   0.542   5.771 -0.1952  2.1949  1.3438
 7449SOL     OW23166   3.204   0.789   5.700  0.0070 -0.3231 -0.2455
 7449SOL    HW123167   3.137   0.724   5.735  0.2672  0.1969  1.2958
 7449SOL    HW223168   3.261   0.822   5.776 -0.6310  2.3105 -0.8227
 7450SOL     OW23169   5.153   0.514   0.084  0.9222 -0.6971 -0.0342
 7450SOL    HW123170   5.233   0.573   0.096 -1.5480  2.8284  0.7281
 7450SOL    HW223171   5.080   0.567   0.041 -0.8015 -4.0346 -1.5263
 7451SOL     OW23172   0.483   0.918   0.341 -0.4574 -0.4457  0.1595
 7451SOL    HW123173   0.480   0.828   0.384 -0.3660 -0.8418 -0.6361
 7451SOL    HW223174   0.494   0.988   0.411  0.4212 -1.1228  0.7247
 7452SOL     OW23175   5.763   3.642   5.298  0.1814 -0.0969  0.3149
 7452SOL    HW123176   5.806   3.607   5.381  0.3284  1.3719  0.8957
 7452SOL    HW223177   5.706   3.571   5.257  1.5691 -1.4356  0.6323
 7453SOL     OW23178   0.937   0.006   0.738 -0.0762  0.3267 -0.0170
 7453SOL    HW123179   0.864  -0.036   0.792 -2.2202  2.7997 -0.8054
 7453SOL    HW223180   0.946  -0.042   0.651  0.3901 -0.9343  0.7233
 7454SOL     OW23181   1.780   6.698   1.446  0.0013 -0.6076  0.2530
 7454SOL    HW123182   1.782   6.670   1.542  0.1401  1.4334  0.8998
 7454SOL    HW223183   1.687   6.726   1.422  0.3097  0.6357  0.3915
 7455SOL     OW23184   5.794   3.834   0.635  0.2136  0.0029  0.2555
 7455SOL    HW123185   5.842   3.748   0.647  0.8124  0.3861  0.6893
 7455SOL    HW223186   5.850   3.896   0.579  0.5169  0.6609  1.2532
 7456SOL     OW23187   1.969   2.110   5.402  0.4318 -0.1911  0.0031
 7456SOL    HW123188   1.900   2.048   5.438 -0.9535 -0.6052 -3.0115
 7456SOL    HW223189   2.044   2.056   5.362  0.3927  0.1360 -0.5188
 7457SOL     OW23190   2.073   5.237   0.189 -0.1597  0.0309 -0.4442
 7457SOL    HW123191   1.974   5.248   0.186 -0.1432  1.5352  1.9598
 7457SOL    HW223192   2.097   5.158   0.246  0.0286 -0.1114 -0.7173
 7458SOL     OW23193   3.822   1.331   0.362 -0.4066 -0.2099  0.7636
 7458SOL    HW123194   3.836   1.276   0.444 -0.0150 -0.4154  0.5646
 7458SOL    HW223195   3.852   1.280   0.281  1.6081  0.9141  0.7328
 7459SOL     OW23196   4.520   5.899   4.955  0.0892 -0.5662 -0.6760
 7459SOL    HW123197   4.547   5.832   4.885  1.6704 -0.5833 -0.0895
 7459SOL    HW223198   4.440   5.864   5.005  0.0990 -1.4079 -1.2323
 7460SOL     OW23199   3.127   0.826   4.194 -0.1485  0.4543 -0.7918
 7460SOL    HW123200   3.199   0.770   4.234  1.3617  3.1411  0.5959
 7460SOL    HW223201   3.062   0.853   4.265  0.6745  2.5425 -0.7469
 7461SOL     OW23202   5.334   1.043   3.760 -0.9416  0.5771  0.6143
 7461SOL    HW123203   5.349   1.101   3.681  1.0321 -0.1767  0.3649
 7461SOL    HW223204   5.283   1.093   3.830  0.4219  2.5114  0.2915
 7462SOL     OW23205   3.563   0.813   5.457  0.0133  0.1071 -0.6666
 7462SOL    HW123206   3.464   0.826   5.453 -0.0762 -0.6671 -1.3867
 7462SOL    HW223207   3.585   0.719   5.428  0.9840  0.3947 -0.9053
 7463SOL     OW23208   5.485   3.677   6.853  0.2631  0.3062  0.0140
 7463SOL    HW123209   5.517   3.621   6.929  2.0008 -0.8448 -1.4824
 7463SOL    HW223210   5.549   3.670   6.776 -1.2352  1.6834 -1.4581
 7464SOL     OW23211   1.871   3.843   1.746  0.2268  0.5766 -0.0059
 7464SOL    HW123212   1.954   3.791   1.763 -0.1806  0.4554  1.8156
 7464SOL    HW223213   1.861   3.914   1.816 -0.5266  1.4638 -0.9712
 7465SOL     OW23214   0.903   2.788   5.000  0.0818 -0.2115  0.4373
 7465SOL    HW123215   0.940   2.695   5.000  0.4144 -0.0990 -0.6961
 7465SOL    HW223216   0.955   2.845   5.065  0.0329 -0.7371  0.9539
 7466SOL     OW23217   5.765   5.885   0.584 -0.2727  0.5202 -0.4393
 7466SOL    HW123218   5.691   5.840   0.535  0.7726 -2.8125  0.7669
 7466SOL    HW223219   5.852   5.844   0.557  0.5991  0.7104  1.9118
 7467SOL     OW23220   3.572   0.395   1.897 -0.1935  0.3179 -0.3342
 7467SOL    HW123221   3.492   0.407   1.955 -0.3039 -1.0951 -0.1624
 7467SOL    HW223222   3.554   0.325   1.828  0.8206  0.1139 -0.4169
 7468SOL     OW23223   1.808   1.020   6.424 -0.2469  0.0121  0.2536
 7468SOL    HW123224   1.852   1.011   6.514 -2.2219 -0.7227  1.2228
 7468SOL    HW223225   1.710   1.037   6.437 -0.5132  0.3054 -1.7931
 7469SOL     OW23226   4.759   1.967   1.992 -0.6084 -0.4444  0.1667
 7469SOL    HW123227   4.784   1.881   1.947 -2.2665 -0.3027 -1.1050
 7469SOL    HW223228   4.708   2.024   1.927  0.0852  1.3330  1.1203
 7470SOL     OW23229   1.995   4.657   1.979 -0.0353 -0.4234 -0.0701
 7470SOL    HW123230   2.059   4.693   2.047 -1.5345  0.3383  0.9975
 7470SOL    HW223231   2.041   4.646   1.891  1.3967  0.6704  0.5239
 7471SOL     OW23232   5.721   6.376   2.298  0.9433 -0.5884 -0.3396
 7471SOL    HW123233   5.799   6.398   2.240  0.0592  2.1397 -0.6820
 7471SOL    HW223234   5.752   6.331   2.382  2.8239  0.1799 -0.5836
 7472SOL     OW23235   2.423   5.554   3.697 -0.2157 -0.2449 -0.1943
 7472SOL    HW123236   2.396   5.464   3.664 -1.3896 -0.1929  0.5702
 7472SOL    HW223237   2.440   5.550   3.796  1.6784 -0.0523 -0.4681
 7473SOL     OW23238   0.146   0.358   6.045 -0.2854 -0.1304 -0.1973
 7473SOL    HW123239   0.214   0.411   6.095  1.5920 -0.7893 -1.9570
 7473SOL    HW223240   0.123   0.406   5.960  0.6458 -1.5735 -1.2936
 7474SOL     OW23241   5.876   5.661   3.068  0.2481  0.4602  0.6206
 7474SOL    HW123242   5.789   5.625   3.102 -0.6290  1.5105 -0.4586
 7474SOL    HW223243   5.909   5.603   2.993  0.4497  0.1187  0.9661
 7475SOL     OW23244   5.760   5.166   0.522  0.0784  0.1603  0.4423
 7475SOL    HW123245   5.663   5.168   0.498  0.2339 -2.3679 -0.7370
 7475SOL    HW223246   5.777   5.228   0.599 -2.2260  1.5045 -0.0492
 7476SOL     OW23247   3.046   3.079   6.460  0.4948  0.4741  0.3051
 7476SOL    HW123248   3.112   3.056   6.388  0.7031  0.2167  0.5740
 7476SOL    HW223249   3.052   3.177   6.481  0.3710  0.5678 -0.0878
 7477SOL     OW23250   2.168   2.506   3.070 -0.4393 -0.2439  0.5557
 7477SOL    HW123251   2.221   2.431   3.110 -0.6006 -0.5860  0.1411
 7477SOL    HW223252   2.079   2.472   3.040 -0.6755  0.2068  0.7381
 7478SOL     OW23253   5.363   0.025   0.682 -0.3172 -0.0731  0.0545
 7478SOL    HW123254   5.347   0.115   0.642 -0.7032 -0.3197 -0.3518
 7478SOL    HW223255   5.296   0.009   0.755 -0.7077 -0.3156 -0.3495
 7479SOL     OW23256   5.314   1.893   5.302  0.1576  0.5028  0.3516
 7479SOL    HW123257   5.334   1.929   5.393  0.5752  0.1008  0.4204
 7479SOL    HW223258   5.397   1.853   5.264 -0.0881  0.4138 -0.0913
 7480SOL     OW23259   6.933   6.872   4.450 -0.0825  0.0268  0.1896
 7480SOL    HW123260   7.001   6.903   4.516  1.6300 -1.9967 -0.5247
 7480SOL    HW223261   6.910   6.776   4.468  0.3699 -0.5480 -2.0862
 7481SOL     OW23262   2.093   6.742   4.804 -0.4741  0.0956 -0.0492
 7481SOL    HW123263   2.167   6.803   4.775 -1.3777  1.0389 -0.4140
 7481SOL    HW223264   2.066   6.765   4.898  0.3028 -0.8716  0.4387
 7482SOL     OW23265   6.965   4.954   1.108  0.3664  0.4362  0.0097
 7482SOL    HW123266   7.054   4.911   1.087  1.1271  1.3547  1.3645
 7482SOL    HW223267   6.945   5.023   1.038  2.0505  2.1188  1.0882
 7483SOL     OW23268   1.065   4.629   5.855  0.3754  0.0725 -0.2273
 7483SOL    HW123269   1.126   4.549   5.850 -0.8887 -0.9161 -0.5358
 7483SOL    HW223270   0.970   4.598   5.858 -0.1666  1.5923 -0.6495
 7484SOL     OW23271   6.158   3.429   0.667 -0.0497 -0.0686  0.0921
 7484SOL    HW123272   6.184   3.352   0.725  0.7670  1.3005  1.6558
 7484SOL    HW223273   6.213   3.428   0.584 -0.4622 -1.4683 -0.1898
 7485SOL     OW23274   3.316   5.407   2.796 -0.0114 -0.2065 -0.0502
 7485SOL    HW123275   3.222   5.428   2.768  0.0201 -0.8736 -0.7234
 7485SOL    HW223276   3.315   5.333   2.863  0.0711 -0.9728 -0.8718
 7486SOL     OW23277   5.797   6.157   1.275 -0.1587  0.0334  0.1040
 7486SOL    HW123278   5.739   6.076   1.284  2.1031 -1.5505  1.6454
 7486SOL    HW223279   5.871   6.138   1.210 -0.1020  1.2362 -0.2187
 7487SOL     OW23280   6.995   6.328   1.687  0.0802  0.6915  0.2399
 7487SOL    HW123281   6.907   6.305   1.729  0.6663  0.2423  1.2452
 7487SOL    HW223282   7.061   6.255   1.705  1.1379  1.8168  1.0122
 7488SOL     OW23283   3.384   5.921   1.261 -0.1462 -0.2904 -0.0991
 7488SOL    HW123284   3.332   5.959   1.185  0.0678 -0.5766 -0.3916
 7488SOL    HW223285   3.466   5.876   1.227 -0.6331 -1.4240  0.1859
 7489SOL     OW23286   5.935   2.449   0.417  0.0997  0.0882  0.2109
 7489SOL    HW123287   5.871   2.514   0.376  0.1542 -0.3595 -0.5912
 7489SOL    HW223288   5.889   2.361   0.430  0.0421  0.2508  1.2293
 7490SOL     OW23289   1.039   0.377   6.823 -0.5652  0.3945  0.2331
 7490SOL    HW123290   1.002   0.449   6.882 -0.7215 -0.1224  0.7748
 7490SOL    HW223291   1.135   0.397   6.802 -0.2579  0.1607  1.3453
 7491SOL     OW23292   0.699   3.639   2.447  0.3645 -0.1678 -0.6369
 7491SOL    HW123293   0.767   3.572   2.416  1.8948  1.6494 -1.4156
 7491SOL    HW223294   0.738   3.695   2.520 -0.0462  1.2351 -1.4365
 7492SOL     OW23295   4.233   2.631   6.162 -0.3037 -0.2722  0.7977
 7492SOL    HW123296   4.268   2.538   6.173 -1.5768 -0.8069  0.5446
 7492SOL    HW223297   4.262   2.667   6.074 -1.0423 -1.0157  0.2366
 7493SOL     OW23298   4.380   3.078   2.672 -0.3142 -0.6620  0.7088
 7493SOL    HW123299   4.416   3.097   2.764  0.6901 -0.4019  0.2713
 7493SOL    HW223300   4.320   2.998   2.676 -3.6435  1.6655  2.3737
 7494SOL     OW23301   2.217   5.517   2.854  0.4554  0.1097  0.0265
 7494SOL    HW123302   2.130   5.484   2.817 -0.0332 -1.5193  2.4467
 7494SOL    HW223303   2.230   5.612   2.828 -1.5396  0.0946 -1.2344
 7495SOL     OW23304   0.835   2.819   1.827 -0.3265  0.2430  0.8263
 7495SOL    HW123305   0.873   2.908   1.801 -0.5447 -0.4215 -2.1167
 7495SOL    HW223306   0.909   2.753   1.836 -0.4010  0.0425 -0.0262
 7496SOL     OW23307   3.620   2.119   0.897 -0.1246 -0.2984 -0.4778
 7496SOL    HW123308   3.623   2.047   0.828  0.9896 -0.6712 -0.0577
 7496SOL    HW223309   3.657   2.204   0.858 -0.4308 -0.2321 -0.6349
 7497SOL     OW23310   4.371   3.423   0.249  0.1533 -0.1953  0.1325
 7497SOL    HW123311   4.352   3.379   0.338  2.0719  1.6233  1.5169
 7497SOL    HW223312   4.324   3.511   0.246  0.8319  0.1497 -0.2905
 7498SOL     OW23313   4.945   0.990   3.077  0.0296  0.3339  0.1550
 7498SOL    HW123314   4.949   0.892   3.095  1.1257  0.4740  0.8206
 7498SOL    HW223315   5.027   1.019   3.027  1.3059  1.3792  2.6656
 7499SOL     OW23316   3.233   1.958   5.957  0.5442 -0.2977  0.0148
 7499SOL    HW123317   3.219   2.056   5.947 -1.9652 -0.8037 -3.4296
 7499SOL    HW223318   3.195   1.928   6.045 -1.0237  1.4986  0.0186
 7500SOL     OW23319   2.653   5.338   6.528 -0.0096  0.4684 -0.2651
 7500SOL    HW123320   2.555   5.356   6.522  0.3222  1.8463 -2.6823
 7500SOL    HW223321   2.703   5.425   6.530  1.1929 -0.1909  1.4881
 7501SOL     OW23322   0.598   5.285   3.922  0.0779 -0.1368 -0.0992
 7501SOL    HW123323   0.592   5.383   3.903 -0.0373 -0.2758 -0.8384
 7501SOL    HW223324   0.674   5.267   3.985  0.4384  0.3744 -0.3755
 7502SOL     OW23325   4.765   1.678   1.581 -0.2499  0.1658 -0.3030
 7502SOL    HW123326   4.713   1.614   1.526  1.2212 -1.2970 -0.0826
 7502SOL    HW223327   4.741   1.772   1.556 -2.7398 -0.4292 -0.3542
 7503SOL     OW23328   2.859   1.875   1.021 -0.4742  0.1703  0.4608
 7503SOL    HW123329   2.784   1.866   1.087 -2.2794 -0.6451 -1.5597
 7503SOL    HW223330   2.832   1.833   0.934  1.2812  2.2821 -1.2326
 7504SOL     OW23331   4.347   3.792   6.580  0.3646  0.3367  0.0276
 7504SOL    HW123332   4.322   3.843   6.498  0.0699  2.2652  1.2553
 7504SOL    HW223333   4.399   3.850   6.641  0.3629 -0.9826  1.3463
 7505SOL     OW23334   1.268   4.157   1.190 -0.2404  0.4291 -0.5733
 7505SOL    HW123335   1.279   4.255   1.204  2.1699  0.2029 -0.4943
 7505SOL    HW223336   1.348   4.109   1.226 -1.6969 -1.6540  0.0444
 7506SOL     OW23337   2.993   3.643   4.626 -0.0352 -0.8393 -0.6227
 7506SOL    HW123338   3.016   3.728   4.673 -3.0870 -0.2234 -0.0508
 7506SOL    HW223339   3.045   3.568   4.667  0.7696  0.3591  0.6671
 7507SOL     OW23340   0.368   3.533   1.319 -0.3083  0.4282 -0.0008
 7507SOL    HW123341   0.419   3.447   1.327 -0.3688  0.3399 -0.5614
 7507SOL    HW223342   0.432   3.608   1.303 -0.3761  0.2637 -1.1038
 7508SOL     OW23343   4.968   6.720   4.053  0.0896 -0.2391 -0.5685
 7508SOL    HW123344   5.049   6.753   4.005  2.5537 -1.7861  2.1707
 7508SOL    HW223345   4.960   6.767   4.141 -1.9172 -0.2988 -0.6670
 7509SOL     OW23346   2.571   1.304   4.375  0.0289  0.2283 -0.5812
 7509SOL    HW123347   2.626   1.282   4.456  1.2155  0.8911 -1.1638
 7509SOL    HW223348   2.524   1.223   4.343 -0.7358  0.0308  0.9692
 7510SOL     OW23349   5.198   6.041   2.630 -0.3572 -0.2524  0.0788
 7510SOL    HW123350   5.185   6.048   2.532  1.7110  0.1986 -0.2165
 7510SOL    HW223351   5.113   6.064   2.677 -0.6504  2.4667 -1.5447
 7511SOL     OW23352   5.018   5.044   6.647  0.1404  0.3481 -0.1524
 7511SOL    HW123353   5.033   4.974   6.717 -0.0199 -0.8340 -1.2597
 7511SOL    HW223354   5.016   5.000   6.557 -3.9617  1.1546 -0.6262
 7512SOL     OW23355   5.448   3.151   3.371  0.4141 -0.3754  0.1536
 7512SOL    HW123356   5.450   3.200   3.284 -0.3720 -1.2537 -0.3837
 7512SOL    HW223357   5.362   3.100   3.378  1.5051 -2.2625  0.3470
 7513SOL     OW23358   2.274   2.652   6.558  0.6245  0.9650  0.3573
 7513SOL    HW123359   2.188   2.699   6.579 -0.0342  0.1030 -0.3415
 7513SOL    HW223360   2.255   2.562   6.519  1.8123 -0.6489  3.1614
 7514SOL     OW23361   6.633   2.421   2.081 -0.3886  0.3854 -0.3237
 7514SOL    HW123362   6.640   2.507   2.030 -0.7094  1.6233  1.6337
 7514SOL    HW223363   6.717   2.368   2.068 -0.3900  0.7323 -1.9593
 7515SOL     OW23364   5.668   4.736   0.577 -0.2424 -0.0978  0.1948
 7515SOL    HW123365   5.598   4.794   0.619  0.6471 -0.1248  1.7778
 7515SOL    HW223366   5.640   4.640   0.584 -1.1586  0.0291 -1.3592
 7516SOL     OW23367   5.135   4.818   1.292  0.1465 -0.7630  0.3186
 7516SOL    HW123368   5.223   4.863   1.304  0.5454 -1.6277  0.8261
 7516SOL    HW223369   5.121   4.752   1.366 -0.0532 -2.0014 -0.7822
 7517SOL     OW23370   5.226   3.162   4.467 -0.1525 -0.0550 -0.4526
 7517SOL    HW123371   5.216   3.115   4.380  1.8830  1.5458 -1.6346
 7517SOL    HW223372   5.218   3.261   4.453 -0.6054  0.2104  1.3305
 7518SOL     OW23373   5.663   2.028   5.812 -0.2472  0.1022 -0.1162
 7518SOL    HW123374   5.593   1.969   5.850  2.0677 -1.7464  1.5866
 7518SOL    HW223375   5.714   2.072   5.887  0.3861  1.4420 -1.2795
 7519SOL     OW23376   0.141   6.920   4.644 -0.3945  0.3862  0.2293
 7519SOL    HW123377   0.185   6.970   4.570  1.8552 -1.2878  0.3666
 7519SOL    HW223378   0.142   6.975   4.727 -2.7859  2.2087 -0.8252
 7520SOL     OW23379   5.731   4.899   5.406  0.2844 -0.3076 -0.0190
 7520SOL    HW123380   5.745   4.938   5.497  0.6718 -1.1916  0.3107
 7520SOL    HW223381   5.690   4.808   5.414  0.0758 -0.2852 -0.7419
 7521SOL     OW23382   1.193   6.713   6.442 -0.3153  0.0663 -0.3786
 7521SOL    HW123383   1.167   6.726   6.538 -2.4925 -0.3193 -0.8849
 7521SOL    HW223384   1.193   6.801   6.395 -0.4542  0.0910 -0.3300
 7522SOL     OW23385   3.868   6.596   5.265 -0.4299  0.5901 -0.4542
 7522SOL    HW123386   3.966   6.584   5.247 -0.5553  0.0228 -0.7590
 7522SOL    HW223387   3.815   6.546   5.198 -0.9007 -2.4878  2.0152
 7523SOL     OW23388   3.919   2.969   2.630  0.6934  0.2510  0.4128
 7523SOL    HW123389   3.963   2.972   2.719  2.0296 -0.2162 -0.2112
 7523SOL    HW223390   3.918   2.874   2.596 -0.9306  0.2145  0.4531
 7524SOL     OW23391   0.737   5.986   5.271 -0.4610  0.0286 -0.2356
 7524SOL    HW123392   0.756   6.045   5.192 -1.1249 -2.0913 -2.0593
 7524SOL    HW223393   0.822   5.964   5.318  0.3522 -1.0188 -2.1105
 7525SOL     OW23394   4.933   6.330   3.097 -0.3936  0.2608 -0.1014
 7525SOL    HW123395   4.839   6.313   3.069 -0.7969  0.4506  1.0596
 7525SOL    HW223396   4.954   6.427   3.087 -0.8136  0.4839  0.9590
 7526SOL     OW23397   1.232   4.758   3.693 -0.0117  0.4073 -0.2286
 7526SOL    HW123398   1.305   4.802   3.747  0.0571 -1.0668  0.9557
 7526SOL    HW223399   1.193   4.683   3.746 -1.2277  0.0797 -1.5450
 7527SOL     OW23400   5.077   0.978   6.698  0.2892 -0.0250  0.4017
 7527SOL    HW123401   5.051   0.921   6.777  2.2461 -1.6398 -0.0140
 7527SOL    HW223402   5.001   0.982   6.633 -0.4707 -0.8517  1.1890
 7528SOL     OW23403   3.788   6.531   0.345 -0.1665  0.1472 -0.3314
 7528SOL    HW123404   3.758   6.610   0.399 -0.7145  0.0180 -0.4416
 7528SOL    HW223405   3.847   6.562   0.271 -0.7171  0.5019 -0.6293
 7529SOL     OW23406   5.899   2.793   2.393  0.0185  0.4094  0.2890
 7529SOL    HW123407   5.934   2.823   2.304 -0.7661 -1.6281 -0.7618
 7529SOL    HW223408   5.825   2.727   2.379 -1.3752  1.3807  2.4500
 7530SOL     OW23409   4.921   4.743   5.386  0.3978 -0.0449  0.1522
 7530SOL    HW123410   4.829   4.707   5.370 -0.1895  1.3475  0.2172
 7530SOL    HW223411   4.965   4.764   5.299 -0.2013  1.2777  0.1377
 7531SOL     OW23412   1.904   1.996   2.842  0.7244 -0.3682 -0.8128
 7531SOL    HW123413   1.887   1.913   2.790  2.2853 -2.0632  1.2022
 7531SOL    HW223414   1.934   2.069   2.780  3.0144 -2.4031 -2.2558
 7532SOL     OW23415   1.555   1.362   5.409 -0.4255  0.2034  0.4898
 7532SOL    HW123416   1.534   1.401   5.319  1.6619  0.4363  0.0316
 7532SOL    HW223417   1.537   1.430   5.480 -1.2725  0.3211  0.1721
 7533SOL     OW23418   2.206   0.566   2.151 -0.1100  0.4038 -0.2100
 7533SOL    HW123419   2.267   0.505   2.100  0.3066  0.8916 -0.3001
 7533SOL    HW223420   2.231   0.566   2.247  0.0684  0.6242 -0.2486
 7534SOL     OW23421   5.536   0.445   4.899  0.2623  0.2685 -0.6058
 7534SOL    HW123422   5.467   0.411   4.963  0.2978  1.0872 -0.1124
 7534SOL    HW223423   5.492   0.482   4.818  0.1102  0.8385 -0.2688
 7535SOL     OW23424   3.423   6.316   4.105  0.1575  0.1686 -0.5394
 7535SOL    HW123425   3.473   6.394   4.142  1.3614 -1.0609  0.5134
 7535SOL    HW223426   3.337   6.348   4.065 -0.9233  1.6886  2.6955
 7536SOL     OW23427   4.144   2.030   1.710 -0.8160 -0.5579  0.0727
 7536SOL    HW123428   4.189   2.026   1.621 -0.7796 -0.8082  0.0996
 7536SOL    HW223429   4.087   2.112   1.715 -0.2211 -0.1432  0.1036
 7537SOL     OW23430   6.311   6.509   3.701  0.2002 -0.5151  1.0307
 7537SOL    HW123431   6.217   6.495   3.670  1.1540 -2.6491 -1.1923
 7537SOL    HW223432   6.336   6.605   3.689 -0.7251 -0.5090 -1.3615
 7538SOL     OW23433   6.239   0.416   2.065  0.1551  0.5382 -0.3839
 7538SOL    HW123434   6.247   0.490   2.131  0.9507  0.5591 -0.4917
 7538SOL    HW223435   6.169   0.439   1.997 -0.0270  0.9167 -0.0722
 7539SOL     OW23436   0.749   4.348   3.930 -0.4582 -0.4575  0.8568
 7539SOL    HW123437   0.702   4.416   3.874  0.7387  1.5717  2.1455
 7539SOL    HW223438   0.751   4.379   4.025  0.5684 -2.0677  1.4097
 7540SOL     OW23439   1.106   2.170   6.939  0.1331 -0.3494 -0.7387
 7540SOL    HW123440   1.006   2.173   6.936  0.1605 -0.0096 -1.7916
 7540SOL    HW223441   1.136   2.079   6.967 -0.4684 -0.8993 -1.8313
 7541SOL     OW23442   3.254   2.796   1.969  0.1452  0.6752  0.7606
 7541SOL    HW123443   3.300   2.843   2.045  0.1019  1.1274  0.5178
 7541SOL    HW223444   3.176   2.745   2.004  1.5070 -1.1160  1.3798
 7542SOL     OW23445   1.045   2.584   4.750 -0.1587 -0.0753  0.2212
 7542SOL    HW123446   1.130   2.635   4.758  0.3661 -0.9201  0.2137
 7542SOL    HW223447   1.021   2.544   4.839 -0.9433  0.7574  0.3969
 7543SOL     OW23448   2.087   3.950   0.953  0.2819  0.2604 -0.1778
 7543SOL    HW123449   1.999   3.906   0.974 -0.3049  1.4530 -0.0602
 7543SOL    HW223450   2.111   4.013   1.027  0.9414  0.4051 -0.5072
 7544SOL     OW23451   5.137   2.808   1.532 -0.0492 -0.3695  0.3400
 7544SOL    HW123452   5.185   2.804   1.620 -1.4618 -1.1389  1.0986
 7544SOL    HW223453   5.188   2.756   1.464  1.7894  1.3386  0.3025
 7545SOL     OW23454   4.518   6.316   5.095  0.1736 -0.3661  0.0821
 7545SOL    HW123455   4.495   6.252   5.022 -1.1130  0.1242  0.0256
 7545SOL    HW223456   4.475   6.404   5.077  1.3907  0.3339  0.4886
 7546SOL     OW23457   6.386   0.809   2.730  0.3784 -0.0625  0.5143
 7546SOL    HW123458   6.296   0.795   2.772  0.1456  0.4048  0.1839
 7546SOL    HW223459   6.376   0.808   2.630  0.5794  1.0213  0.4835
 7547SOL     OW23460   3.512   3.827   2.741 -0.0789  0.3328  0.1650
 7547SOL    HW123461   3.469   3.917   2.739  3.1827  2.0058  0.1210
 7547SOL    HW223462   3.520   3.796   2.836 -1.7937 -0.2882  0.1422
 7548SOL     OW23463   4.075   0.699   3.217 -0.3034  0.2852  0.4566
 7548SOL    HW123464   4.044   0.683   3.311  1.4848  1.5247  1.3159
 7548SOL    HW223465   4.174   0.713   3.217 -0.1983 -0.1796 -1.7014
 7549SOL     OW23466   6.857   2.051   1.851 -0.2794 -0.5874 -0.1285
 7549SOL    HW123467   6.836   2.070   1.947  1.3067 -1.0937  0.3421
 7549SOL    HW223468   6.861   1.952   1.837 -0.5123 -0.5134 -0.7287
 7550SOL     OW23469   2.807   3.724   0.350 -0.0488  0.4024 -0.0321
 7550SOL    HW123470   2.826   3.652   0.417  3.6196  0.7069 -0.5410
 7550SOL    HW223471   2.790   3.810   0.399  1.5251  0.3961  0.6033
 7551SOL     OW23472   2.817   6.845   5.517 -0.1382  0.2073 -0.0981
 7551SOL    HW123473   2.846   6.761   5.562 -0.1776 -0.3108 -1.0381
 7551SOL    HW223474   2.896   6.904   5.501 -0.0965  0.3075  0.4498
 7552SOL     OW23475   6.135   0.308   1.606 -0.1571  0.2957  0.1202
 7552SOL    HW123476   6.187   0.223   1.602 -0.5159  0.0886 -0.2841
 7552SOL    HW223477   6.076   0.314   1.526  0.7672  1.5190 -0.4832
 7553SOL     OW23478   4.809   6.864   4.854  0.5574 -0.5293  0.0160
 7553SOL    HW123479   4.872   6.806   4.803  1.6798  1.2033 -0.6589
 7553SOL    HW223480   4.734   6.893   4.793  0.5321 -0.4845  0.0670
 7554SOL     OW23481   2.683   5.735   4.754 -1.3895  0.0643 -0.8272
 7554SOL    HW123482   2.598   5.770   4.792 -0.7063  1.2735 -0.3742
 7554SOL    HW223483   2.690   5.637   4.773 -1.1740  0.5547  2.0343
 7555SOL     OW23484   1.730   4.957   2.983  0.1238 -0.7304  0.6697
 7555SOL    HW123485   1.728   5.053   3.010 -0.3222  0.5168 -3.2388
 7555SOL    HW223486   1.636   4.921   2.981  0.1653 -0.8552  0.8775
 7556SOL     OW23487   0.824   5.898   0.803 -0.2152 -0.3107  0.0201
 7556SOL    HW123488   0.871   5.986   0.803  0.5221 -0.6754 -1.0213
 7556SOL    HW223489   0.741   5.904   0.858  0.0992  0.8764  0.3900
 7557SOL     OW23490   5.015   4.464   2.407  0.1235  0.2536 -0.0850
 7557SOL    HW123491   5.060   4.408   2.477  1.1454  0.8198 -0.2621
 7557SOL    HW223492   4.917   4.469   2.427 -0.1167 -2.0148 -0.3619
 7558SOL     OW23493   1.787   1.551   0.318 -0.5789  0.1627 -0.0497
 7558SOL    HW123494   1.803   1.625   0.383 -1.4616  1.4374 -1.2082
 7558SOL    HW223495   1.830   1.467   0.351  0.6764  1.2379  1.1896
 7559SOL     OW23496   0.497   5.312   1.317 -0.1011  0.6481  0.1213
 7559SOL    HW123497   0.595   5.311   1.298 -0.1068 -2.3997 -0.1930
 7559SOL    HW223498   0.446   5.299   1.231 -0.6767  0.0902  0.5359
 7560SOL     OW23499   4.690   6.835   6.325  0.1423  0.7347  0.1807
 7560SOL    HW123500   4.619   6.830   6.396  0.6928  1.4146  0.7945
 7560SOL    HW223501   4.780   6.843   6.368  0.6717 -0.7602 -0.5854
 7561SOL     OW23502   5.018   4.745   2.384  0.8051  0.4010  0.6548
 7561SOL    HW123503   5.114   4.774   2.386  0.9514  0.6280 -2.7088
 7561SOL    HW223504   5.013   4.646   2.376  0.7315  0.3595  1.1668
 7562SOL     OW23505   3.807   1.990   3.899  0.1408  0.2717 -0.2364
 7562SOL    HW123506   3.878   2.057   3.921 -0.6420  1.1783 -0.4080
 7562SOL    HW223507   3.771   1.951   3.984  1.0149 -0.3972 -0.1573
 7563SOL     OW23508   0.752   2.809   6.419 -0.5137  0.1847  0.0839
 7563SOL    HW123509   0.658   2.789   6.391 -0.9117  1.2508  0.6035
 7563SOL    HW223510   0.756   2.899   6.462  0.8344  0.3592 -0.3389
 7564SOL     OW23511   5.888   4.706   7.020  0.1661  0.1521 -0.0447
 7564SOL    HW123512   5.816   4.665   7.076 -0.0005 -0.4410 -0.6740
 7564SOL    HW223513   5.849   4.739   6.934  0.6219 -0.0583 -0.3078
 7565SOL     OW23514   3.734   3.925   6.184  0.4144 -0.5214  0.2684
 7565SOL    HW123515   3.703   3.996   6.121  1.5264 -0.7352 -0.5475
 7565SOL    HW223516   3.658   3.864   6.206  0.1130 -0.7295 -1.2655
 7566SOL     OW23517   1.903   0.418   2.243  0.1636 -0.0450 -0.2798
 7566SOL    HW123518   1.927   0.337   2.295  0.5212  0.4949  0.4044
 7566SOL    HW223519   1.943   0.499   2.286 -2.2211  0.8171  0.5217
 7567SOL     OW23520   6.780   1.963   5.300  0.0831 -0.1019 -0.7949
 7567SOL    HW123521   6.722   1.884   5.320  0.2883 -0.2919 -0.9511
 7567SOL    HW223522   6.722   2.044   5.289  0.0890  0.5047  2.8346
 7568SOL     OW23523   1.847   6.666   2.279  0.2253 -0.1757  0.4302
 7568SOL    HW123524   1.833   6.591   2.344  0.8240  0.8311  1.7740
 7568SOL    HW223525   1.820   6.752   2.321  0.9468  0.5526 -0.5469
 7569SOL     OW23526   5.796   0.127   0.142  0.2172 -0.2320  0.3646
 7569SOL    HW123527   5.859   0.086   0.208 -1.2018 -1.0766  1.2557
 7569SOL    HW223528   5.791   0.070   0.060  0.7511 -0.0649  0.2164
 7570SOL     OW23529   2.795   0.387   3.533  0.3305  0.2951 -0.1441
 7570SOL    HW123530   2.786   0.481   3.568 -1.0223 -0.2717  1.1049
 7570SOL    HW223531   2.735   0.375   3.454  0.1987  0.3746 -0.0579
 7571SOL     OW23532   5.646   2.482   6.036  0.1479 -0.5813 -0.0600
 7571SOL    HW123533   5.664   2.505   5.941  3.2177 -2.7970 -0.1593
 7571SOL    HW223534   5.554   2.514   6.062 -0.1082  1.5741 -3.1775
 7572SOL     OW23535   2.261   6.203   0.494 -0.0826 -0.3081  0.6053
 7572SOL    HW123536   2.253   6.212   0.593  0.2048 -0.2077  0.6214
 7572SOL    HW223537   2.338   6.143   0.472 -1.3308 -1.8971  0.4753
 7573SOL     OW23538   3.024   1.165   2.874 -0.2771  0.4221 -0.6620
 7573SOL    HW123539   3.052   1.245   2.821  0.7676  0.2879 -0.3322
 7573SOL    HW223540   2.935   1.133   2.842 -0.7938  1.8237 -0.6788
 7574SOL     OW23541   3.490   6.472   5.134  0.0573  0.1744  0.4263
 7574SOL    HW123542   3.522   6.561   5.168 -0.3677  0.9583 -1.1173
 7574SOL    HW223543   3.491   6.474   5.034  1.9170 -2.2567  0.3175
 7575SOL     OW23544   6.884   5.863   1.222 -0.1394  0.0138  0.2413
 7575SOL    HW123545   6.871   5.930   1.296 -1.5271  0.0458 -0.0148
 7575SOL    HW223546   6.817   5.790   1.230  0.1544 -0.3635 -0.5816
 7576SOL     OW23547   3.727   6.699   0.861 -0.0986 -0.8101 -0.4350
 7576SOL    HW123548   3.791   6.713   0.936  0.2804 -0.7655 -0.7622
 7576SOL    HW223549   3.753   6.618   0.809 -1.8828 -2.4138  1.0266
 7577SOL     OW23550   3.449   3.932   6.962  0.3686 -0.4159  0.2814
 7577SOL    HW123551   3.387   3.877   6.906  3.1432 -1.4883 -2.0247
 7577SOL    HW223552   3.483   3.877   7.038 -0.9361 -0.0186  1.1645
 7578SOL     OW23553   1.290   2.455   3.163  0.3426  0.3319 -0.5668
 7578SOL    HW123554   1.364   2.497   3.111  0.2652  1.5693  0.2783
 7578SOL    HW223555   1.242   2.526   3.216  0.0025 -0.7861  0.6661
 7579SOL     OW23556   4.238   0.364   2.684  0.3613  0.0416 -0.3330
 7579SOL    HW123557   4.204   0.330   2.772  0.9820 -1.3070 -0.5882
 7579SOL    HW223558   4.329   0.326   2.666 -0.2332 -0.6706 -2.0793
 7580SOL     OW23559   0.356   4.257   5.463 -0.0261 -0.2813 -0.4415
 7580SOL    HW123560   0.413   4.305   5.529  1.2194 -3.0833  0.6817
 7580SOL    HW223561   0.406   4.245   5.378 -0.0705 -0.1415 -0.4869
 7581SOL     OW23562   5.500   6.180   3.014  0.2179  0.7884 -0.1144
 7581SOL    HW123563   5.413   6.201   2.968 -0.1477  1.4038  0.8296
 7581SOL    HW223564   5.574   6.232   2.972 -0.0408  1.0314 -0.2718
 7582SOL     OW23565   2.889   4.470   5.528  0.4309 -0.0246 -0.2881
 7582SOL    HW123566   2.834   4.434   5.603 -0.6636 -0.6112 -1.3236
 7582SOL    HW223567   2.952   4.399   5.496  0.7238  0.1453 -0.0980
 7583SOL     OW23568   5.002   6.571   1.061  0.3948  0.2877  0.0918
 7583SOL    HW123569   5.041   6.479   1.069 -2.0471 -0.6317  3.7103
 7583SOL    HW223570   5.072   6.638   1.085  1.5579 -0.8189 -0.0727
 7584SOL     OW23571   0.977   6.515   4.512  0.9806 -0.1395 -0.2268
 7584SOL    HW123572   1.001   6.484   4.604 -2.1537 -0.4435  0.6148
 7584SOL    HW223573   0.957   6.436   4.454 -0.7122  0.0579  0.0142
 7585SOL     OW23574   2.799   2.303   0.487 -0.3570 -0.1603  0.1980
 7585SOL    HW123575   2.858   2.277   0.563 -1.2188 -1.9596  0.2926
 7585SOL    HW223576   2.833   2.263   0.402 -0.8575 -0.3304  0.0700
 7586SOL     OW23577   6.611   3.179   1.310  0.5544  0.1425  0.7293
 7586SOL    HW123578   6.549   3.137   1.244  0.7868  1.0626 -0.1052
 7586SOL    HW223579   6.586   3.152   1.402 -0.2839 -0.5188  0.3169
 7587SOL     OW23580   3.083   0.509   4.518  0.0560  0.3522 -0.4694
 7587SOL    HW123581   3.155   0.545   4.458 -0.2817  0.5696 -0.7547
 7587SOL    HW223582   3.114   0.425   4.561  1.5550  1.8477  1.5788
 7588SOL     OW23583   4.249   3.049   2.032  0.2740  0.5225 -0.7217
 7588SOL    HW123584   4.264   3.061   1.934 -1.8330  1.6746 -0.9564
 7588SOL    HW223585   4.190   3.123   2.066  0.2179 -0.3651  1.2414
 7589SOL     OW23586   0.639   6.179   5.472  0.3489  0.8892 -0.2546
 7589SOL    HW123587   0.655   6.126   5.389  0.7461 -1.0878  1.0289
 7589SOL    HW223588   0.655   6.122   5.552 -0.9380  2.4761  1.2074
 7590SOL     OW23589   1.575   5.134   1.017  0.1780  0.3153  0.0855
 7590SOL    HW123590   1.616   5.053   0.975  1.6174  0.5706  0.9271
 7590SOL    HW223591   1.516   5.106   1.093 -0.5392  0.0013 -0.5598
 7591SOL     OW23592   2.586   0.068   2.192  0.1627  1.0330 -0.2890
 7591SOL    HW123593   2.665   0.029   2.144 -0.8095  0.7336 -1.7136
 7591SOL    HW223594   2.616   0.148   2.244  1.3716  1.0957 -1.0252
 7592SOL     OW23595   4.888   2.087   3.364  0.1116 -0.3982 -0.1372
 7592SOL    HW123596   4.845   2.066   3.276  1.6822 -2.3072 -0.5254
 7592SOL    HW223597   4.827   2.061   3.439 -0.9096  0.4811 -0.6577
 7593SOL     OW23598   6.610   3.373   0.954 -0.1697 -0.6823  0.3420
 7593SOL    HW123599   6.642   3.359   1.048  0.9508  0.9815  0.2464
 7593SOL    HW223600   6.689   3.383   0.894 -0.7259  2.7396 -0.0267
 7594SOL     OW23601   6.495   5.821   2.819 -0.3377 -0.1386 -0.5068
 7594SOL    HW123602   6.429   5.797   2.891 -1.0756  0.2036 -1.0623
 7594SOL    HW223603   6.584   5.782   2.841 -0.6242 -0.2664  0.4629
 7595SOL     OW23604   0.271   5.678   4.705 -0.0398 -0.2834  0.3679
 7595SOL    HW123605   0.198   5.616   4.676 -1.0997  0.7100  0.7913
 7595SOL    HW223606   0.236   5.741   4.774 -0.1394  3.0554 -2.3865
 7596SOL     OW23607   5.146   4.168   1.048 -0.0567 -0.2879 -0.2716
 7596SOL    HW123608   5.152   4.267   1.038  0.4683 -0.1169  1.4482
 7596SOL    HW223609   5.234   4.131   1.076 -0.4614 -1.1397 -0.0652
 7597SOL     OW23610   4.303   1.187   3.519 -0.0910 -0.6491 -0.0726
 7597SOL    HW123611   4.370   1.135   3.467 -0.5636 -1.5712  0.2135
 7597SOL    HW223612   4.279   1.270   3.468  0.6170 -0.7432 -0.5731
 7598SOL     OW23613   6.373   2.853   6.518 -0.0974 -0.1710 -0.1077
 7598SOL    HW123614   6.385   2.777   6.453  0.4083 -1.9422  1.9046
 7598SOL    HW223615   6.429   2.930   6.489  1.8880 -1.7117 -0.6673
 7599SOL     OW23616   2.593   6.849   6.462  0.1007 -0.3997  0.6482
 7599SOL    HW123617   2.534   6.783   6.416 -0.6959  0.9135 -0.2661
 7599SOL    HW223618   2.685   6.842   6.424  0.6938 -2.6369  2.2617
 7600SOL     OW23619   1.794   5.045   6.596 -0.2203 -0.4108  0.4644
 7600SOL    HW123620   1.740   5.097   6.662 -1.5858 -0.2036 -0.7819
 7600SOL    HW223621   1.818   5.103   6.519  0.6656 -0.8697  0.3799
 7601SOL     OW23622   1.859   3.298   2.361  0.0634  0.2129  0.6925
 7601SOL    HW123623   1.938   3.314   2.421  1.1306 -2.1218  0.0088
 7601SOL    HW223624   1.799   3.230   2.401 -0.7745  0.7652  0.4215
 7602SOL     OW23625   1.901   6.162   6.286  0.7424 -0.2518 -0.5848
 7602SOL    HW123626   1.931   6.150   6.380  0.2902  3.6190  0.2294
 7602SOL    HW223627   1.802   6.171   6.283  0.8457  1.0760 -1.1660
 7603SOL     OW23628   3.815   0.693   2.436  0.4070  0.3493 -0.1639
 7603SOL    HW123629   3.868   0.754   2.494  0.2830  1.5186 -1.2365
 7603SOL    HW223630   3.875   0.626   2.393  0.4343 -0.8776  1.6595
 7604SOL     OW23631   4.258   3.519   6.584  0.0346  0.7240  0.7616
 7604SOL    HW123632   4.273   3.614   6.555 -0.8166  0.8266  0.6110
 7604SOL    HW223633   4.240   3.462   6.503  0.2646  0.4860  0.8769
 7605SOL     OW23634   3.593   3.138   4.361 -0.0644 -0.0037 -0.1662
 7605SOL    HW123635   3.668   3.096   4.311  0.3424  0.8818 -0.3130
 7605SOL    HW223636   3.522   3.167   4.297  0.7942  1.8236 -0.3471
 7606SOL     OW23637   0.496   0.115   1.628 -0.4315 -0.3481  0.2236
 7606SOL    HW123638   0.433   0.081   1.558 -0.8574 -1.0963  0.9540
 7606SOL    HW223639   0.464   0.087   1.718  0.0881  0.6411  0.7355
 7607SOL     OW23640   1.771   0.606   3.441  0.6782 -0.0753  0.7585
 7607SOL    HW123641   1.800   0.517   3.478 -0.8394 -1.4933 -1.2386
 7607SOL    HW223642   1.724   0.592   3.354 -0.3581  2.6473  0.7911
 7608SOL     OW23643   1.616   1.595   3.380 -0.2818 -0.0710 -0.6717
 7608SOL    HW123644   1.517   1.585   3.365 -0.4356 -1.5479  0.9288
 7608SOL    HW223645   1.631   1.651   3.462  0.2355  0.6654 -1.2661
 7609SOL     OW23646   4.236   2.436   3.609  0.1899  0.2053  0.3985
 7609SOL    HW123647   4.160   2.374   3.629  0.0235  0.1215 -0.4310
 7609SOL    HW223648   4.292   2.448   3.690  0.7118 -1.7049  0.3635
 7610SOL     OW23649   1.445   0.631   5.594  0.0355  0.0364  0.2057
 7610SOL    HW123650   1.400   0.612   5.507 -0.3689 -1.9540  0.7923
 7610SOL    HW223651   1.387   0.691   5.649 -0.1650  0.4848 -0.4736
 7611SOL     OW23652   2.058   0.577   2.857  0.3493 -0.3596  0.1853
 7611SOL    HW123653   1.986   0.552   2.921  0.7694 -0.8032  0.4999
 7611SOL    HW223654   2.056   0.676   2.840 -0.4040 -0.3837  0.0944
 7612SOL     OW23655   5.984   4.613   1.164  0.0323  0.2250 -0.5703
 7612SOL    HW123656   6.003   4.534   1.105  1.7798 -2.1554  2.8651
 7612SOL    HW223657   6.062   4.675   1.163  1.5254 -1.4720  1.4966
 7613SOL     OW23658   0.382   1.262   2.449  0.1202  0.7030  0.1792
 7613SOL    HW123659   0.410   1.183   2.396  0.9396  0.5337  0.8499
 7613SOL    HW223660   0.399   1.245   2.546 -1.9253  0.7515  0.5999
 7614SOL     OW23661   3.013   2.973   2.912  0.3709 -0.7910  0.1362
 7614SOL    HW123662   3.075   2.977   2.990 -1.6275  0.0601  1.7761
 7614SOL    HW223663   2.966   2.885   2.911 -0.7042 -0.2333  0.8067
 7615SOL     OW23664   3.166   4.942   3.328  0.2188  0.3047 -0.1788
 7615SOL    HW123665   3.230   4.943   3.404 -0.2584 -0.2930  0.2414
 7615SOL    HW223666   3.074   4.962   3.362  0.2278  1.5429 -0.8306
 7616SOL     OW23667   0.962   0.754   2.760 -0.2718 -0.8649  0.1374
 7616SOL    HW123668   1.002   0.845   2.770 -0.1898 -1.1107  2.9688
 7616SOL    HW223669   1.010   0.703   2.690  0.6921  0.7554 -0.4178
 7617SOL     OW23670   5.427   6.280   5.526  0.3369  0.5578 -0.2987
 7617SOL    HW123671   5.524   6.278   5.501  0.6330 -2.0315  0.7805
 7617SOL    HW223672   5.376   6.222   5.463 -0.3807  1.0921 -0.2188
 7618SOL     OW23673   0.492   0.937   6.028 -0.0817  0.0194  0.2886
 7618SOL    HW123674   0.392   0.946   6.036 -0.0640  1.0079 -0.3848
 7618SOL    HW223675   0.524   0.864   6.088 -1.2562 -0.5858  0.2037
 7619SOL     OW23676   5.342   3.341   0.317  0.0266 -0.0323 -0.0463
 7619SOL    HW123677   5.396   3.258   0.304 -1.1329 -1.2129  2.0768
 7619SOL    HW223678   5.396   3.407   0.369  0.5785  0.1456 -0.8214
 7620SOL     OW23679   6.670   2.492   1.033 -0.2041  0.8220  0.3526
 7620SOL    HW123680   6.654   2.516   1.129  1.8875  0.0905  0.9223
 7620SOL    HW223681   6.768   2.489   1.015 -0.5519  1.8998 -2.0904
 7621SOL     OW23682   3.239   0.510   6.003  0.0371  0.0584 -0.0862
 7621SOL    HW123683   3.167   0.547   5.944  0.3769 -1.7049 -1.7089
 7621SOL    HW223684   3.269   0.580   6.068 -3.7497  0.6112  1.3357
 7622SOL     OW23685   2.919   4.063   0.058  0.3039 -0.0540  0.8371
 7622SOL    HW123686   2.998   4.074   0.117  0.2202  2.2143  0.6163
 7622SOL    HW223687   2.907   4.145   0.002  0.0177 -1.8372 -1.8714
 7623SOL     OW23688   2.992   5.721   6.075  0.7669 -0.0016 -0.2722
 7623SOL    HW123689   2.999   5.681   5.984  1.4629 -0.9670  0.1848
 7623SOL    HW223690   3.027   5.815   6.073  0.1911  0.2164 -1.1172
 7624SOL     OW23691   2.478   2.015   2.758 -0.5784  0.7876  0.3509
 7624SOL    HW123692   2.397   2.009   2.815 -2.4303  0.4094 -2.1480
 7624SOL    HW223693   2.518   2.106   2.765 -0.1871  0.4797  2.8527
 7625SOL     OW23694   3.646   6.052   0.334  0.5067  0.3926  0.1897
 7625SOL    HW123695   3.559   6.078   0.291  0.0277 -1.1413  0.1775
 7625SOL    HW223696   3.722   6.092   0.283 -0.1577  1.0126 -0.3283
 7626SOL     OW23697   2.421   5.790   1.533 -0.0409 -0.3199 -0.6502
 7626SOL    HW123698   2.459   5.819   1.621  1.5723 -2.9276 -0.3757
 7626SOL    HW223699   2.361   5.712   1.547 -0.2730 -0.3598 -1.8065
 7627SOL     OW23700   2.225   6.363   0.249 -0.8658 -0.4252 -0.2486
 7627SOL    HW123701   2.257   6.297   0.317  2.2012 -0.1869 -1.3156
 7627SOL    HW223702   2.204   6.316   0.164 -1.9943 -0.3832 -0.0113
 7628SOL     OW23703   4.155   2.161   4.494  0.3270  0.3453 -0.4576
 7628SOL    HW123704   4.169   2.241   4.551  0.2564 -0.0066  0.0601
 7628SOL    HW223705   4.236   2.101   4.500  0.3252  0.3160 -0.7351
 7629SOL     OW23706   6.444   6.345   0.891  0.1483 -0.4248 -0.3527
 7629SOL    HW123707   6.460   6.293   0.975 -1.8648 -0.8297 -0.1603
 7629SOL    HW223708   6.402   6.285   0.822 -1.5393  0.7000 -0.3852
 7630SOL     OW23709   1.188   6.573   5.461  0.2986 -0.1195  0.7169
 7630SOL    HW123710   1.156   6.504   5.397  1.4507 -0.1052  0.0985
 7630SOL    HW223711   1.179   6.538   5.555 -0.9219 -0.3368  0.5371
 7631SOL     OW23712   3.749   5.885   3.246 -0.5590  0.0740  0.1118
 7631SOL    HW123713   3.831   5.867   3.192 -1.4851  0.8593 -1.6416
 7631SOL    HW223714   3.773   5.933   3.330  0.8422 -0.4535  0.0370
 7632SOL     OW23715   4.956   5.185   0.563 -0.2986 -0.3821  0.0522
 7632SOL    HW123716   4.906   5.248   0.622 -0.6793  0.1709 -0.8437
 7632SOL    HW223717   4.980   5.102   0.615  0.9702  0.8333  1.5073
 7633SOL     OW23718   4.767   1.617   1.154 -0.0625  0.1820 -0.7268
 7633SOL    HW123719   4.673   1.584   1.159 -0.7361  1.9113 -1.1753
 7633SOL    HW223720   4.826   1.558   1.209 -1.6525 -0.1423  0.7107
 7634SOL     OW23721   5.714   0.214   5.238  0.1714  0.6069 -0.3280
 7634SOL    HW123722   5.783   0.176   5.300 -0.9223 -0.8808  0.0135
 7634SOL    HW223723   5.630   0.160   5.244 -1.0755  2.4334 -0.6858
 7635SOL     OW23724   3.875   5.504   0.889 -0.3630 -0.2232  0.2971
 7635SOL    HW123725   3.805   5.515   0.959 -1.9506 -0.4688 -1.1598
 7635SOL    HW223726   3.935   5.427   0.913 -0.9527 -0.3843  1.2960
 7636SOL     OW23727   6.472   2.775   0.012 -0.1451 -0.2906 -0.0862
 7636SOL    HW123728   6.553   2.834   0.011  0.2555 -0.7842  1.2131
 7636SOL    HW223729   6.446   2.753  -0.082  0.7122  0.5726 -0.5186
 7637SOL     OW23730   5.894   2.744   0.719 -0.1361  0.2640 -0.9837
 7637SOL    HW123731   5.939   2.768   0.632  0.5610  1.3656 -0.3436
 7637SOL    HW223732   5.910   2.817   0.785 -2.9664  0.7525 -0.7433
 7638SOL     OW23733   6.939   1.611   4.594  0.2294 -0.5915 -0.2179
 7638SOL    HW123734   6.989   1.682   4.545  2.0494 -1.5046  0.2398
 7638SOL    HW223735   6.936   1.528   4.538  0.1595 -0.8844  0.2133
 7639SOL     OW23736   6.890   1.108   5.243  0.5225  0.2093  0.4552
 7639SOL    HW123737   6.971   1.162   5.220  2.1814 -1.2516  2.4556
 7639SOL    HW223738   6.855   1.063   5.161  2.0435  0.4760 -0.3729
 7640SOL     OW23739   5.807   4.172   3.324 -0.2011 -0.5683  0.5636
 7640SOL    HW123740   5.822   4.177   3.225 -0.5117  0.2930  0.5550
 7640SOL    HW223741   5.832   4.081   3.356  0.0009 -0.8262 -0.2907
 7641SOL     OW23742   1.917   0.316   6.905  0.2935 -0.1310 -0.4977
 7641SOL    HW123743   1.959   0.346   6.819  0.5144  1.1217  0.0396
 7641SOL    HW223744   1.917   0.216   6.908 -0.3849 -0.2168 -2.2810
 7642SOL     OW23745   0.577   2.480   4.617 -0.1165 -0.0813  0.6156
 7642SOL    HW123746   0.546   2.497   4.711 -1.1602  3.2798 -0.1921
 7642SOL    HW223747   0.659   2.535   4.598  0.4522 -1.1876 -0.3048
 7643SOL     OW23748   0.045   6.906   5.455  0.0306 -0.1130  0.0594
 7643SOL    HW123749   0.078   6.930   5.546 -2.2664 -1.2195  1.2550
 7643SOL    HW223750  -0.042   6.857   5.462 -0.4870  0.2649 -2.7742
 7644SOL     OW23751   6.028   2.005   2.585 -0.2402 -0.6323 -0.3503
 7644SOL    HW123752   5.970   2.078   2.549 -1.0380 -0.2154  1.6342
 7644SOL    HW223753   6.120   2.039   2.599 -0.8311  0.3648  1.4689
 7645SOL     OW23754   6.709   6.825   4.651 -0.0141  0.6177 -0.5692
 7645SOL    HW123755   6.644   6.807   4.725  0.2480  3.1388  0.3548
 7645SOL    HW223756   6.769   6.746   4.639 -0.7387 -0.2490  1.1660
 7646SOL     OW23757   4.804   0.506   2.901  0.2528 -0.5937 -0.2811
 7646SOL    HW123758   4.721   0.552   2.870 -1.1910 -2.2308  0.9703
 7646SOL    HW223759   4.828   0.434   2.837  0.4565 -0.4247 -0.3983
 7647SOL     OW23760   5.013   1.246   1.362  0.2574  0.1555 -0.4636
 7647SOL    HW123761   5.061   1.198   1.289 -0.0237  0.0924 -0.6118
 7647SOL    HW223762   5.013   1.344   1.343  1.5477  0.3158  0.2559
 7648SOL     OW23763   4.065   1.524   0.220 -0.5010 -0.3190 -0.4719
 7648SOL    HW123764   4.041   1.498   0.314 -0.2023  0.5523 -0.1403
 7648SOL    HW223765   4.026   1.614   0.200 -0.6811 -0.5666 -1.2349
 7649SOL     OW23766   3.557   1.412   4.230 -0.4757  0.1909 -0.1267
 7649SOL    HW123767   3.504   1.332   4.202 -2.7563  1.6541 -0.2115
 7649SOL    HW223768   3.551   1.423   4.329  0.3777 -0.0981 -0.0386
 7650SOL     OW23769   1.629   0.271   2.146 -0.2371  0.3882  0.4336
 7650SOL    HW123770   1.714   0.308   2.183  0.4505  1.2536 -1.8362
 7650SOL    HW223771   1.644   0.175   2.119  0.4631  0.8680 -1.0555
 7651SOL     OW23772   6.104   2.792   0.256 -0.0645 -0.0129  0.3058
 7651SOL    HW123773   6.155   2.873   0.283 -2.3446  2.2271 -1.6206
 7651SOL    HW223774   6.167   2.723   0.220  1.7768  1.9922 -0.5856
 7652SOL     OW23775   2.615   1.828   1.167  0.5376  0.5917  0.2533
 7652SOL    HW123776   2.561   1.752   1.130 -0.9561  1.4267  0.6708
 7652SOL    HW223777   2.588   1.913   1.122  2.8843  0.8233 -0.9341
 7653SOL     OW23778   3.450   1.762   4.752  0.0603 -0.0407 -0.5077
 7653SOL    HW123779   3.537   1.810   4.745  1.9869 -3.2993 -0.9478
 7653SOL    HW223780   3.430   1.715   4.666 -0.1542 -2.3699  0.7405
 7654SOL     OW23781   6.789   3.856   2.963  0.0822 -0.2662 -1.0446
 7654SOL    HW123782   6.870   3.914   2.955 -0.6958  0.9371 -0.4547
 7654SOL    HW223783   6.724   3.879   2.891  1.0192 -2.5679 -2.7461
 7655SOL     OW23784   4.312   3.909   6.326  0.1557  0.1045  0.3119
 7655SOL    HW123785   4.404   3.940   6.302 -0.2021  1.3488  0.4562
 7655SOL    HW223786   4.245   3.955   6.267 -0.5264  1.0318  1.7589
 7656SOL     OW23787   1.932   5.890   5.383 -0.1840 -0.0270  0.9975
 7656SOL    HW123788   1.836   5.869   5.363  0.4549 -0.5115 -2.0142
 7656SOL    HW223789   1.939   5.982   5.423 -1.7870  0.7293 -0.3318
 7657SOL     OW23790   2.691   1.301   0.702  0.5510 -0.2118 -0.3415
 7657SOL    HW123791   2.730   1.314   0.793 -0.1612  0.8192 -0.1516
 7657SOL    HW223792   2.609   1.244   0.708 -0.0512  0.6564 -0.1839
 7658SOL     OW23793   0.157   0.063   2.288  0.1390  0.2121 -0.2994
 7658SOL    HW123794   0.139   0.001   2.364  2.8493  1.0351  1.1265
 7658SOL    HW223795   0.190   0.011   2.210 -0.2513 -0.3833 -0.0732
 7659SOL     OW23796   3.822   5.559   0.151 -0.1528 -0.4467  0.9003
 7659SOL    HW123797   3.779   5.639   0.193  1.6346  1.3966 -0.5187
 7659SOL    HW223798   3.883   5.589   0.077  0.0523 -3.2194 -0.1913
 7660SOL     OW23799   2.716   0.291   4.529 -0.2337  0.5370 -0.0502
 7660SOL    HW123800   2.746   0.226   4.599 -0.5729 -1.1187 -1.3821
 7660SOL    HW223801   2.749   0.382   4.553  0.1569 -0.0704  1.9503
 7661SOL     OW23802   3.737   6.000   6.450  0.4229 -0.0211  0.2803
 7661SOL    HW123803   3.782   5.945   6.522  0.9538  0.2693  0.1814
 7661SOL    HW223804   3.669   6.060   6.492  0.9070  0.3318  0.5718
 7662SOL     OW23805   5.647   5.153   6.662  0.1121 -0.0389 -0.2226
 7662SOL    HW123806   5.565   5.138   6.606 -1.4540 -2.4420  2.4789
 7662SOL    HW223807   5.621   5.161   6.758  2.8919  1.6605  0.5000
 7663SOL     OW23808   5.963   4.550   4.918  0.0125  0.0651  0.0650
 7663SOL    HW123809   5.999   4.531   4.826 -0.1780  1.4316 -0.3087
 7663SOL    HW223810   5.882   4.608   4.910 -1.6743 -2.0369  0.9567
 7664SOL     OW23811   4.456   5.367   6.200 -0.4891 -0.3742 -0.1100
 7664SOL    HW123812   4.446   5.445   6.138 -0.7338 -1.2950 -1.2625
 7664SOL    HW223813   4.474   5.284   6.146  0.0147 -1.0761  1.1053
 7665SOL     OW23814   2.502   3.519   6.125  0.0714  0.4979 -0.4827
 7665SOL    HW123815   2.440   3.595   6.140 -0.3667  0.1105 -0.3229
 7665SOL    HW223816   2.469   3.438   6.174 -0.0141 -0.0767 -1.4534
 7666SOL     OW23817   0.043   5.487   0.472  0.1517  0.6793 -0.1569
 7666SOL    HW123818   0.115   5.554   0.488 -0.8286  1.8085 -0.3236
 7666SOL    HW223819  -0.046   5.533   0.470 -0.6868 -0.8501  1.2341
 7667SOL     OW23820   3.763   2.654   0.808  0.4507 -0.7273  0.0971
 7667SOL    HW123821   3.711   2.657   0.723  2.2077 -0.2604 -1.0207
 7667SOL    HW223822   3.702   2.678   0.884 -0.6315  1.5235 -1.3347
 7668SOL     OW23823   2.882   6.696   4.223  0.3361  1.0050 -0.7381
 7668SOL    HW123824   2.795   6.709   4.271 -0.1153  0.6796 -1.4477
 7668SOL    HW223825   2.864   6.676   4.126  1.1544  0.0091 -0.7101
 7669SOL     OW23826   0.150   0.189   1.972  0.2059  0.6542  0.3794
 7669SOL    HW123827   0.080   0.224   2.035 -1.6922 -2.2508  0.0348
 7669SOL    HW223828   0.153   0.248   1.891 -1.2478  1.3495  0.7784
 7670SOL     OW23829   0.024   6.093   4.917 -0.0259  0.5314 -0.2579
 7670SOL    HW123830   0.083   6.126   4.991  1.2064  1.7074 -1.7184
 7670SOL    HW223831  -0.058   6.151   4.912  0.5488  1.2899 -0.6468
 7671SOL     OW23832   1.429   5.119   3.103  0.2326  0.3248 -0.1423
 7671SOL    HW123833   1.515   5.170   3.110  0.7776 -0.6449  0.2786
 7671SOL    HW223834   1.437   5.050   3.032 -0.2468  0.3061 -0.1820
 7672SOL     OW23835   5.433   3.561   4.245  0.4793  0.3684  0.0106
 7672SOL    HW123836   5.434   3.463   4.268 -0.2491  0.1552 -0.8204
 7672SOL    HW223837   5.441   3.571   4.146 -0.1723  1.1317  0.0354
 7673SOL     OW23838   6.619   0.699   4.038 -0.2922 -0.2605 -0.1230
 7673SOL    HW123839   6.561   0.779   4.053 -1.1705 -0.4462 -2.2325
 7673SOL    HW223840   6.575   0.638   3.972  1.9970 -0.7750 -1.2376
 7674SOL     OW23841   6.858   5.135   3.193 -0.6624 -0.6526  0.1809
 7674SOL    HW123842   6.927   5.074   3.155 -0.5234 -1.8162  2.1965
 7674SOL    HW223843   6.901   5.220   3.223 -0.3423 -0.7729  0.0732
 7675SOL     OW23844   2.205   6.251   0.003 -0.3493  0.2600 -0.0849
 7675SOL    HW123845   2.168   6.317  -0.063 -1.2281  0.5812  0.7211
 7675SOL    HW223846   2.225   6.165  -0.044 -0.8808  0.4992 -0.7839
 7676SOL     OW23847   0.443   6.261   0.229  0.0689  0.0229  0.0194
 7676SOL    HW123848   0.464   6.266   0.326  0.4921  1.3793 -0.1243
 7676SOL    HW223849   0.354   6.304   0.211 -0.2291 -0.6452 -0.1355
 7677SOL     OW23850   0.401   4.318   0.965 -0.7794 -0.3913  0.8801
 7677SOL    HW123851   0.499   4.333   0.976 -0.8707  0.8764  0.1123
 7677SOL    HW223852   0.352   4.358   1.043 -0.7517 -0.2086  0.8038
 7678SOL     OW23853   4.888   5.520   5.031 -0.1557  0.5788  0.4535
 7678SOL    HW123854   4.931   5.588   5.089  0.4435  1.1864 -0.6526
 7678SOL    HW223855   4.940   5.435   5.034  2.3202  1.8290 -2.2259
 7679SOL     OW23856   5.039   5.284   2.472 -0.0410  0.1572  0.1474
 7679SOL    HW123857   5.057   5.380   2.451 -1.5540  0.6946  1.1100
 7679SOL    HW223858   4.955   5.255   2.427 -0.1732 -0.3944  0.7240
 7680SOL     OW23859   3.648   3.996   0.359  0.3307 -0.4148  0.2238
 7680SOL    HW123860   3.609   3.948   0.280  0.1246  1.2425 -0.7206
 7680SOL    HW223861   3.663   3.930   0.433  0.0851 -1.9322 -1.0088
 7681SOL     OW23862   6.653   0.357   5.255  0.0596 -0.3868  0.4664
 7681SOL    HW123863   6.620   0.326   5.344 -1.7048 -0.1663 -0.0744
 7681SOL    HW223864   6.579   0.403   5.206  0.3502 -2.2669 -1.9366
 7682SOL     OW23865   0.204   2.522   4.821  1.1638  0.1249 -0.2717
 7682SOL    HW123866   0.132   2.591   4.829  1.3749  0.3184 -0.0093
 7682SOL    HW223867   0.253   2.535   4.735  1.2574  0.3607 -0.1857
 7683SOL     OW23868   4.019   5.034   0.208  0.3088 -0.1165 -0.0615
 7683SOL    HW123869   4.088   4.988   0.263  2.9627  0.3134 -2.8230
 7683SOL    HW223870   4.042   5.131   0.200  0.1925 -0.2273 -2.1449
 7684SOL     OW23871   5.209   4.360   5.619 -0.1661 -0.0603 -0.1948
 7684SOL    HW123872   5.241   4.361   5.714  0.6438  0.1794 -0.4628
 7684SOL    HW223873   5.147   4.438   5.605 -0.4425 -0.2037  0.1804
 7685SOL     OW23874   1.956   4.513   3.427  0.0578  0.3072  0.2897
 7685SOL    HW123875   1.883   4.445   3.426 -0.0339  0.4033 -0.0534
 7685SOL    HW223876   2.044   4.467   3.411  0.3939 -0.1362  3.0531
 7686SOL     OW23877   1.285   2.160   0.945  0.8025  0.3359 -0.3289
 7686SOL    HW123878   1.214   2.097   0.978  2.1528 -0.2381  1.6148
 7686SOL    HW223879   1.342   2.114   0.878  0.3395  0.3024 -0.7161
 7687SOL     OW23880   1.780   3.527   6.996  0.1854 -0.0740  0.7452
 7687SOL    HW123881   1.825   3.453   7.046  1.3974  1.2747  1.7150
 7687SOL    HW223882   1.848   3.580   6.945 -0.4015  1.2589  1.2830
 7688SOL     OW23883   1.439   1.977   2.758  0.0091 -0.4850  0.1005
 7688SOL    HW123884   1.504   2.044   2.795 -0.9587  0.5600 -0.0619
 7688SOL    HW223885   1.448   1.891   2.808 -0.6818  0.6197  2.2373
 7689SOL     OW23886   5.609   2.971   2.281  0.6397  0.0003 -0.2933
 7689SOL    HW123887   5.708   2.984   2.274  0.4971  1.3751 -0.1924
 7689SOL    HW223888   5.574   2.932   2.196  1.4167 -1.7365  0.1468
 7690SOL     OW23889   1.032   3.114   2.286 -0.4531 -0.2450  0.2405
 7690SOL    HW123890   0.945   3.160   2.267 -0.6644 -0.2869  1.0681
 7690SOL    HW223891   1.103   3.154   2.229 -1.1708 -0.8181 -1.1318
 7691SOL     OW23892   3.850   4.026   0.062  0.2456 -0.1912  0.3182
 7691SOL    HW123893   3.805   3.999  -0.023 -1.0753 -3.1871  1.8187
 7691SOL    HW223894   3.949   4.030   0.046  0.0650 -0.9546 -1.2581
 7692SOL     OW23895   0.130   1.851   2.004  0.0973 -0.2196  0.0854
 7692SOL    HW123896   0.104   1.757   1.980  0.0747  0.1145 -1.2685
 7692SOL    HW223897   0.117   1.910   1.925  0.3315  0.8983  0.8551
 7693SOL     OW23898   2.586   5.067   5.352 -0.3671 -0.1002 -0.2207
 7693SOL    HW123899   2.591   5.166   5.362  0.9150 -0.1518 -0.2240
 7693SOL    HW223900   2.613   5.041   5.259 -0.7915 -0.4600 -0.2555
 7694SOL     OW23901   2.556   5.392   1.205 -0.3945 -0.3460  0.5114
 7694SOL    HW123902   2.619   5.346   1.267 -0.4477  1.2434  1.8234
 7694SOL    HW223903   2.593   5.482   1.180 -2.0549  0.5938  1.2379
 7695SOL     OW23904   2.155   5.103   3.269  1.1037 -0.2657 -0.1051
 7695SOL    HW123905   2.233   5.145   3.222  1.8930 -1.8951 -0.3419
 7695SOL    HW223906   2.170   5.004   3.276 -0.3582 -0.4413  1.0145
 7696SOL     OW23907   4.112   6.262   3.573 -0.5011  0.4275 -0.7299
 7696SOL    HW123908   4.128   6.165   3.595  0.1456  0.5705 -0.5619
 7696SOL    HW223909   4.089   6.312   3.656  1.8714  0.9562 -0.3032
 7697SOL     OW23910   6.747   0.698   3.664 -0.0665  0.5418 -0.8925
 7697SOL    HW123911   6.707   0.775   3.714 -0.5317  0.9799 -1.9011
 7697SOL    HW223912   6.676   0.631   3.642  0.4323 -0.4592  0.4537
 7698SOL     OW23913   6.496   1.923   5.973  0.1049  0.1276 -0.2719
 7698SOL    HW123914   6.562   1.856   5.938  0.9173 -0.6056  2.4396
 7698SOL    HW223915   6.538   2.014   5.973  1.0840 -0.2844  1.1467
 7699SOL     OW23916   5.846   2.866   0.242  0.3252 -0.0066  0.0823
 7699SOL    HW123917   5.832   2.894   0.147 -1.4014  1.2106  0.6333
 7699SOL    HW223918   5.942   2.844   0.256  0.5010 -0.9123 -2.1076
 7700SOL     OW23919   0.755   0.916   1.761 -0.1341  0.1738 -0.5139
 7700SOL    HW123920   0.686   0.858   1.805 -0.3237  0.8259  0.0671
 7700SOL    HW223921   0.789   0.984   1.826 -0.9934  1.6773 -1.5675
 7701SOL     OW23922   0.338   6.331   0.537  0.5338  0.0746  0.3072
 7701SOL    HW123923   0.326   6.357   0.632  2.4401 -0.0203  0.6089
 7701SOL    HW223924   0.434   6.310   0.520 -0.3190 -3.5424 -0.7571
 7702SOL     OW23925   4.415   3.305   5.322 -0.5545  0.0909  0.2731
 7702SOL    HW123926   4.463   3.349   5.398 -1.2680 -0.2811  0.9470
 7702SOL    HW223927   4.478   3.246   5.273  0.0442  0.7306  0.2455
 7703SOL     OW23928   5.125   4.198   0.032  0.0147 -0.1756 -0.2155
 7703SOL    HW123929   5.051   4.212   0.098 -0.3490 -2.7029 -0.0091
 7703SOL    HW223930   5.192   4.135   0.070  1.7281  1.1868 -0.8610
 7704SOL     OW23931   1.163   0.206   2.530 -0.8740 -0.4428  0.1128
 7704SOL    HW123932   1.179   0.303   2.508 -1.0319 -0.4341  0.0315
 7704SOL    HW223933   1.208   0.184   2.617 -1.0102 -0.2428  0.2370
 7705SOL     OW23934   1.330   4.526   6.171  0.4913  0.1776  0.4781
 7705SOL    HW123935   1.345   4.606   6.113  1.0953 -0.7534 -0.6848
 7705SOL    HW223936   1.385   4.534   6.254  1.0281  0.6691  0.0827
 7706SOL     OW23937   4.912   2.361   4.633  0.1553 -0.3702  0.6584
 7706SOL    HW123938   4.858   2.287   4.593 -1.3586  1.1473 -0.2367
 7706SOL    HW223939   4.853   2.418   4.690  1.4453 -0.2154  1.8897
 7707SOL     OW23940   1.598   1.711   2.858  0.5013 -0.0915  0.2839
 7707SOL    HW123941   1.616   1.732   2.954 -0.2810 -2.1555  0.9211
 7707SOL    HW223942   1.594   1.612   2.846 -0.0746  0.1543 -1.7663
 7708SOL     OW23943   3.281   5.368   4.077  0.4230  0.4186  0.0098
 7708SOL    HW123944   3.284   5.289   4.137 -0.7453 -0.4368 -1.0013
 7708SOL    HW223945   3.215   5.435   4.112 -1.4667 -0.7899 -1.0813
 7709SOL     OW23946   4.234   4.539   2.978  0.5386 -0.2882 -0.5517
 7709SOL    HW123947   4.297   4.589   2.919  0.5559  0.8653  0.4123
 7709SOL    HW223948   4.267   4.445   2.990  2.0050  0.2575 -0.1776
 7710SOL     OW23949   6.459   5.990   2.319  0.0120 -0.1185  0.6029
 7710SOL    HW123950   6.500   5.899   2.309  0.1853  0.0379 -0.1963
 7710SOL    HW223951   6.364   5.980   2.348 -0.7744 -0.6981 -1.9098
 7711SOL     OW23952   5.863   3.496   0.285  0.7377 -0.3851 -0.4499
 7711SOL    HW123953   5.827   3.504   0.378  0.2691  0.2203 -0.6853
 7711SOL    HW223954   5.937   3.562   0.272 -0.0818  0.4572 -0.9271
 7712SOL     OW23955   4.746   5.409   2.591 -0.2204  0.1823  0.8161
 7712SOL    HW123956   4.683   5.465   2.538 -0.2165 -1.0722 -0.5835
 7712SOL    HW223957   4.776   5.331   2.536 -1.0688 -1.8446  3.0348
 7713SOL     OW23958   6.951   1.135   4.061 -0.0819  0.1945 -0.3482
 7713SOL    HW123959   7.021   1.160   3.995  0.1459  2.1944  0.5989
 7713SOL    HW223960   6.940   1.036   4.062 -0.0712  0.0758 -3.3217
 7714SOL     OW23961   0.876   1.731   2.345  0.2635  0.0409 -0.3101
 7714SOL    HW123962   0.808   1.698   2.279 -0.1137  2.9499 -1.5464
 7714SOL    HW223963   0.836   1.729   2.437  0.0595 -2.1412 -0.3849
 7715SOL     OW23964   6.262   2.083   3.245 -0.3216  0.1716 -0.0253
 7715SOL    HW123965   6.339   2.139   3.215  1.0628 -2.1279 -1.0624
 7715SOL    HW223966   6.189   2.087   3.176  0.2303 -0.1258 -0.6473
 7716SOL     OW23967   1.124   5.212   0.292  0.0484  0.1171 -0.4163
 7716SOL    HW123968   1.044   5.272   0.286  0.2685  0.2946 -4.1065
 7716SOL    HW223969   1.099   5.121   0.260  0.9113 -0.3735  0.2666
 7717SOL     OW23970   4.963   4.208   5.374 -0.1866  0.6851 -0.0423
 7717SOL    HW123971   5.007   4.291   5.341  0.3914  0.8166  1.0157
 7717SOL    HW223972   5.024   4.161   5.438 -0.7533 -0.2272 -0.1625
 7718SOL     OW23973   4.807   1.424   6.527  0.0940  0.0100 -0.0330
 7718SOL    HW123974   4.881   1.491   6.534 -0.7316  0.9173  0.3689
 7718SOL    HW223975   4.810   1.363   6.606  1.3497 -0.9876 -0.8035
 7719SOL     OW23976   0.186   4.687   6.303  0.0236 -0.2347  0.2201
 7719SOL    HW123977   0.114   4.668   6.237 -0.3312 -0.6761  0.7244
 7719SOL    HW223978   0.162   4.646   6.391  0.9072 -0.4144  0.3845
 7720SOL     OW23979   3.635   3.551   5.247 -0.4674 -0.5897 -0.2043
 7720SOL    HW123980   3.620   3.581   5.341  1.1251  2.2089 -0.7494
 7720SOL    HW223981   3.652   3.452   5.246 -1.7977 -0.9132  2.2482
 7721SOL     OW23982   2.358   1.019   0.225 -0.1665  0.2131  0.0779
 7721SOL    HW123983   2.346   0.923   0.250  0.9356 -0.3492 -1.3785
 7721SOL    HW223984   2.269   1.063   0.215 -0.8073 -1.3697 -1.7143
 7722SOL     OW23985   4.593   1.524   1.396  0.6430  0.1664  0.4332
 7722SOL    HW123986   4.542   1.581   1.331 -0.8330  0.4896  1.8111
 7722SOL    HW223987   4.593   1.429   1.364 -0.8288  0.1644  0.3774
 7723SOL     OW23988   2.886   5.687   0.166 -0.0723  0.5027  0.0632
 7723SOL    HW123989   2.980   5.653   0.166  0.2240  1.2879  0.4579
 7723SOL    HW223990   2.883   5.776   0.212 -0.9161  0.7448 -0.4330
 7724SOL     OW23991   2.083   6.399   1.521 -0.0076 -0.0139 -0.5344
 7724SOL    HW123992   2.062   6.496   1.508  0.6664 -0.0268 -1.8572
 7724SOL    HW223993   2.181   6.384   1.505 -0.1089 -0.9134 -0.3416
 7725SOL     OW23994   3.626   4.508   6.928 -0.3764 -1.0245 -0.0713
 7725SOL    HW123995   3.666   4.529   7.018  1.3264  0.8116 -1.2153
 7725SOL    HW223996   3.660   4.419   6.897  2.1289 -0.0214 -0.4764
 7726SOL     OW23997   0.606   0.528   6.823  0.1547 -0.2327  0.7189
 7726SOL    HW123998   0.665   0.466   6.771  1.4833 -0.5898  2.5494
 7726SOL    HW223999   0.521   0.481   6.847 -0.6609  0.0607 -1.3509
 7727SOL     OW24000   1.712   2.964   5.489  0.1830 -0.5233 -0.5775
 7727SOL    HW124001   1.640   2.895   5.497  0.3903 -0.5798  1.2615
 7727SOL    HW224002   1.677   3.042   5.437 -0.4778 -1.4342 -1.5768
 7728SOL     OW24003   6.916   3.294   2.341 -0.6150  0.0588 -0.4117
 7728SOL    HW124004   6.847   3.307   2.270 -1.7299  0.6669  0.7520
 7728SOL    HW224005   6.916   3.374   2.402  0.2286 -0.5101  0.3476
 7729SOL     OW24006   4.108   1.651   3.058  0.2351 -0.1708 -0.3534
 7729SOL    HW124007   4.070   1.742   3.045  1.4383  0.1132 -2.3729
 7729SOL    HW224008   4.063   1.607   3.135 -1.3256  1.5922 -0.1742
 7730SOL     OW24009   3.872   5.313   5.278 -0.6075 -0.5267 -0.6993
 7730SOL    HW124010   3.803   5.265   5.224 -1.4033 -0.0443 -0.1447
 7730SOL    HW224011   3.961   5.309   5.232 -1.3127  0.0954 -2.1744
 7731SOL     OW24012   4.260   0.188   4.624  0.1734  0.0421  0.2172
 7731SOL    HW124013   4.189   0.122   4.599 -0.1566  0.2886  0.4847
 7731SOL    HW224014   4.221   0.280   4.622  0.5195  0.1879  0.2509
 7732SOL     OW24015   5.095   5.455   1.757 -0.3758  0.0884  0.4624
 7732SOL    HW124016   5.012   5.497   1.794  0.5589  2.3672  0.1189
 7732SOL    HW224017   5.175   5.505   1.790  0.6938 -0.1817 -1.6049
 7733SOL     OW24018   2.128   4.193   0.491  0.2274 -0.2424 -0.4210
 7733SOL    HW124019   2.114   4.096   0.470 -1.9647  0.3122 -1.8438
 7733SOL    HW224020   2.082   4.249   0.422  0.0557  1.8093  1.2690
 7734SOL     OW24021   3.146   0.691   4.740 -0.9981 -0.1416  0.4814
 7734SOL    HW124022   3.166   0.783   4.706  0.0562 -0.4762  0.1515
 7734SOL    HW224023   3.104   0.637   4.667 -1.8543  0.1455  0.7528
 7735SOL     OW24024   1.066   5.331   0.566 -0.3849  0.2694  0.5060
 7735SOL    HW124025   1.060   5.413   0.508  1.7243  1.5992  2.0447
 7735SOL    HW224026   1.162   5.305   0.576 -0.7498 -0.3443  2.8144
 7736SOL     OW24027   2.246   1.091   4.757  0.0392  0.1449 -0.0078
 7736SOL    HW124028   2.333   1.114   4.715  0.4198  0.1524  0.7813
 7736SOL    HW224029   2.176   1.155   4.726  0.9549  2.0663  1.6941
 7737SOL     OW24030   0.080   0.197   4.558 -0.6371 -0.9193 -0.0034
 7737SOL    HW124031  -0.004   0.223   4.511 -0.8124 -1.1240  0.1901
 7737SOL    HW224032   0.057   0.158   4.648 -0.3055 -0.3993  0.3134
 7738SOL     OW24033   0.763   6.522   3.331 -0.0412 -0.2513  0.4177
 7738SOL    HW124034   0.764   6.465   3.249 -2.6692 -1.2917  1.0210
 7738SOL    HW224035   0.689   6.492   3.392  0.3108  2.0052  2.0829
 7739SOL     OW24036   4.848   4.426   1.103 -0.6547 -0.2659  0.5085
 7739SOL    HW124037   4.779   4.468   1.044 -0.3114  1.5016  1.3048
 7739SOL    HW224038   4.939   4.452   1.072 -0.1182 -3.9543 -1.5955
 7740SOL     OW24039   5.550   3.580   4.982  0.4148 -0.3589 -0.0426
 7740SOL    HW124040   5.637   3.598   4.936 -0.2611  1.3479 -0.7416
 7740SOL    HW224041   5.488   3.657   4.967 -0.9073 -1.1314  1.2081
 7741SOL     OW24042   6.410   5.824   1.057 -0.3915 -0.3671  0.2909
 7741SOL    HW124043   6.352   5.873   0.992  2.4267  0.9564 -1.3875
 7741SOL    HW224044   6.475   5.766   1.008  2.3694  1.2663  1.7732
 7742SOL     OW24045   1.099   4.148   0.501  0.2875 -0.3314  0.0816
 7742SOL    HW124046   1.089   4.054   0.533  1.1511 -1.1239 -1.8170
 7742SOL    HW224047   1.176   4.191   0.549  2.0846 -1.7659 -1.3345
 7743SOL     OW24048   6.107   5.961   5.986  0.4602  0.4228  0.3898
 7743SOL    HW124049   6.179   5.945   5.918  0.9713  1.3846  0.7061
 7743SOL    HW224050   6.074   6.055   5.978 -1.1806 -0.1600 -0.1513
 7744SOL     OW24051   1.006   5.038   5.262 -0.2123  0.2001  0.6998
 7744SOL    HW124052   1.001   4.949   5.217  1.0925  0.3159  0.2797
 7744SOL    HW224053   1.015   5.110   5.194  1.5272  0.4070  1.0855
 7745SOL     OW24054   3.971   2.621   0.059 -0.0244  0.1894  0.0219
 7745SOL    HW124055   4.015   2.556  -0.004 -0.3828  1.0102 -1.1004
 7745SOL    HW224056   4.018   2.709   0.053 -1.2448  0.8171 -0.5187
 7746SOL     OW24057   3.075   1.188   6.036 -0.0581 -0.3707  0.1457
 7746SOL    HW124058   3.045   1.236   5.953  1.5329  0.4574  0.0093
 7746SOL    HW224059   3.175   1.179   6.034 -0.2618 -3.5456  0.2672
 7747SOL     OW24060   0.113   5.877   0.158 -0.1010 -0.3158  0.5265
 7747SOL    HW124061   0.195   5.933   0.156  0.1264 -0.6131  1.0687
 7747SOL    HW224062   0.063   5.886   0.072  0.1039  0.4526  0.4869
 7748SOL     OW24063   6.388   4.225   6.759  0.2762 -0.4043 -0.6249
 7748SOL    HW124064   6.375   4.223   6.859 -0.2406 -1.2015 -0.7015
 7748SOL    HW224065   6.316   4.172   6.715  2.7553 -3.6651 -1.1757
 7749SOL     OW24066   0.042   1.520   3.730 -0.2458 -0.0636  0.5251
 7749SOL    HW124067   0.112   1.519   3.802 -0.9762 -0.1209  1.2500
 7749SOL    HW224068  -0.035   1.462   3.758 -1.6946  1.9860  0.9109
 7750SOL     OW24069   4.485   1.877   3.270 -0.1187 -0.3555  0.2267
 7750SOL    HW124070   4.456   1.906   3.361  2.7330 -0.0929  1.1578
 7750SOL    HW224071   4.582   1.853   3.272  0.5443  1.4274 -3.1341
 7751SOL     OW24072   3.460   5.568   0.259  0.1330 -0.0564 -0.3031
 7751SOL    HW124073   3.393   5.628   0.302  1.2961 -0.1394  1.7761
 7751SOL    HW224074   3.413   5.489   0.219 -1.0727  0.1182  0.6966
 7752SOL     OW24075   3.921   4.147   0.322 -0.4229  0.2909  0.2253
 7752SOL    HW124076   4.013   4.117   0.349 -0.4444 -1.0474 -1.0857
 7752SOL    HW224077   3.875   4.074   0.271 -2.2189  0.9462  0.8137
 7753SOL     OW24078   2.271   3.524   5.736  0.1253  0.3012 -0.1452
 7753SOL    HW124079   2.251   3.435   5.779 -0.4319  0.5141  0.0493
 7753SOL    HW224080   2.225   3.596   5.788 -0.8592  0.5292 -1.2959
 7754SOL     OW24081   2.789   1.001   4.220  0.2511  0.7851  0.0636
 7754SOL    HW124082   2.869   1.006   4.281 -1.1612 -1.5143  2.3445
 7754SOL    HW224083   2.804   0.930   4.152  0.2435  0.5069  0.3498
 7755SOL     OW24084   0.972   0.271   0.794 -0.3471  0.2091 -0.2451
 7755SOL    HW124085   0.976   0.269   0.894  0.1221  1.2958 -0.2300
 7755SOL    HW224086   0.934   0.185   0.761 -0.7960 -0.0485  0.8831
 7756SOL     OW24087   1.669   4.399   1.551 -0.1483  0.2486  0.0667
 7756SOL    HW124088   1.607   4.477   1.540 -0.1543  0.1207 -0.8437
 7756SOL    HW224089   1.626   4.330   1.609 -0.0197  1.0526  1.1419
 7757SOL     OW24090   2.880   3.678   4.390 -0.2793 -0.6978  0.0142
 7757SOL    HW124091   2.870   3.586   4.351  0.6328 -1.2146  0.9268
 7757SOL    HW224092   2.908   3.670   4.486 -3.0780  0.4925  1.0387
 7758SOL     OW24093   4.952   0.983   6.076 -0.1563 -0.3025 -0.1538
 7758SOL    HW124094   5.044   0.956   6.103 -0.6882 -2.0093  0.0598
 7758SOL    HW224095   4.957   1.060   6.013  1.3063  0.9958  1.4369
 7759SOL     OW24096   1.958   6.077   6.044 -0.0969 -0.1909  0.0739
 7759SOL    HW124097   1.944   6.153   5.980  0.8188  0.2571  0.3955
 7759SOL    HW224098   1.940   6.108   6.137 -0.3156 -0.5383  0.1497
 7760SOL     OW24099   1.042   3.948   6.813  0.1690  0.0638  0.5977
 7760SOL    HW124100   1.136   3.924   6.791 -0.0916  1.9192 -3.1157
 7760SOL    HW224101   1.040   4.027   6.875  0.9686 -0.9633  1.9903
 7761SOL     OW24102   6.216   3.598   5.230 -0.2985  0.3013  0.2196
 7761SOL    HW124103   6.233   3.680   5.285 -0.0558 -0.9222  2.0658
 7761SOL    HW224104   6.302   3.557   5.204 -0.4150 -0.0316  0.3540
 7762SOL     OW24105   5.106   2.555   2.687  0.0245 -0.1766 -0.3434
 7762SOL    HW124106   5.021   2.556   2.635 -0.9167  0.0142  1.1204
 7762SOL    HW224107   5.148   2.464   2.682 -0.9019 -0.6247 -0.1304
 7763SOL     OW24108   6.171   6.917   0.468  0.4608 -0.0952 -0.0939
 7763SOL    HW124109   6.263   6.908   0.432  0.4971  2.3112 -0.8117
 7763SOL    HW224110   6.163   7.005   0.517 -1.6756  0.2236 -0.9033
 7764SOL     OW24111   5.485   0.144   6.365  0.1354  1.2648  0.0824
 7764SOL    HW124112   5.540   0.069   6.403  0.8511  1.1410 -1.1682
 7764SOL    HW224113   5.544   0.224   6.353 -0.7026  2.1918  1.7623
 7765SOL     OW24114   5.647   5.127   3.236 -0.0549  0.1701 -0.4431
 7765SOL    HW124115   5.615   5.118   3.330  0.2791  0.1154 -0.3318
 7765SOL    HW224116   5.739   5.088   3.228 -0.7919 -1.5386 -1.1914
 7766SOL     OW24117   3.502   6.387   1.348  0.3007 -0.2271 -0.0952
 7766SOL    HW124118   3.438   6.372   1.423 -1.5449  0.9647 -1.3255
 7766SOL    HW224119   3.552   6.303   1.329 -0.6925 -1.1376  1.1285
 7767SOL     OW24120   1.637   0.586   4.573  0.1804  0.3569  0.2015
 7767SOL    HW124121   1.736   0.599   4.562  0.0811  2.6998  1.5269
 7767SOL    HW224122   1.614   0.590   4.670 -1.2410 -0.1325 -0.1037
 7768SOL     OW24123   1.509   1.151   1.817 -0.3586 -0.1430 -0.4688
 7768SOL    HW124124   1.490   1.064   1.772 -2.5355  0.5425 -1.0259
 7768SOL    HW224125   1.478   1.226   1.758 -0.2707  0.9202  0.7925
 7769SOL     OW24126   6.006   2.137   1.993 -0.1069  0.4921  0.0596
 7769SOL    HW124127   5.941   2.188   1.937 -0.1348  0.0966 -0.2746
 7769SOL    HW224128   6.049   2.198   2.059 -2.0709  0.4465  1.4564
 7770SOL     OW24129   1.748   0.786   1.705 -0.0688  0.4442  1.0812
 7770SOL    HW124130   1.740   0.742   1.615 -0.6770  0.1384  1.2830
 7770SOL    HW224131   1.718   0.723   1.776 -0.7759  1.1066  1.3928
 7771SOL     OW24132   3.581   1.960   6.304  0.1284 -0.4059  0.3426
 7771SOL    HW124133   3.548   1.885   6.247  0.6164  0.2249 -0.8036
 7771SOL    HW224134   3.671   1.990   6.271 -0.6840  1.6356 -0.1591
 7772SOL     OW24135   5.471   0.558   6.447  0.5083  0.2078 -0.4223
 7772SOL    HW124136   5.553   0.516   6.485 -0.3507  0.4340  1.8228
 7772SOL    HW224137   5.483   0.570   6.348  2.1783 -1.9974 -0.5640
 7773SOL     OW24138   6.553   6.544   3.033 -0.3387  0.0046  0.5719
 7773SOL    HW124139   6.505   6.553   3.120 -0.0963  0.7216  0.6405
 7773SOL    HW224140   6.487   6.551   2.958 -0.9092 -2.9630  0.6948
 7774SOL     OW24141   0.580   3.181   4.167  0.5722 -0.0296 -0.8093
 7774SOL    HW124142   0.642   3.219   4.236  0.3259  0.5324 -0.8888
 7774SOL    HW224143   0.573   3.245   4.091 -2.4335  1.4050  0.5088
 7775SOL     OW24144   4.708   0.784   6.091 -0.3324  0.1335  0.1036
 7775SOL    HW124145   4.649   0.815   6.017  1.5534 -1.8381 -2.4717
 7775SOL    HW224146   4.777   0.854   6.110  0.0546  0.1126 -1.0926
 7776SOL     OW24147   6.916   1.723   6.542 -0.1607  0.0194  0.1472
 7776SOL    HW124148   7.004   1.732   6.590 -0.8036  0.2828  1.3270
 7776SOL    HW224149   6.879   1.814   6.524 -0.3525 -0.0940 -0.0275
 7777SOL     OW24150   1.701   6.561   4.576  0.4482  0.5757 -0.3294
 7777SOL    HW124151   1.766   6.634   4.596  1.2629 -0.1994 -0.0883
 7777SOL    HW224152   1.670   6.570   4.481  1.7546  0.3315 -0.8065
 7778SOL     OW24153   0.920   2.266   1.088 -0.6262  0.3444 -0.7642
 7778SOL    HW124154   0.968   2.280   1.001  1.8214 -1.1943  0.2236
 7778SOL    HW224155   0.978   2.299   1.163 -1.2255 -1.3424  0.4923
 7779SOL     OW24156   1.591   3.623   6.370 -0.3177 -0.4260  0.1978
 7779SOL    HW124157   1.660   3.553   6.349 -0.3374 -0.7151  1.0852
 7779SOL    HW224158   1.625   3.712   6.342  0.6427 -0.4949  1.0827
 7780SOL     OW24159   1.000   6.849   0.543  0.1578 -0.3528 -0.6002
 7780SOL    HW124160   1.092   6.819   0.515 -0.4952 -0.4829 -2.8273
 7780SOL    HW224161   0.944   6.863   0.461 -1.5053  0.7528  0.6714
 7781SOL     OW24162   0.778   1.327   6.380  0.5568  0.1121  0.3620
 7781SOL    HW124163   0.707   1.256   6.381  0.5809 -0.0567 -2.3735
 7781SOL    HW224164   0.784   1.369   6.471 -0.6852 -2.1529  1.5916
 7782SOL     OW24165   3.377   3.223   6.204 -0.2620  0.4493  0.1570
 7782SOL    HW124166   3.306   3.294   6.206  0.3572  1.1193 -0.8104
 7782SOL    HW224167   3.423   3.220   6.293 -1.2454  0.2584  0.6744
 7783SOL     OW24168   3.553   6.851   3.034  0.4743 -0.7384  0.1389
 7783SOL    HW124169   3.522   6.831   2.941  0.6995 -0.4713  0.0023
 7783SOL    HW224170   3.595   6.942   3.035  1.8594 -1.3290  0.1551
 7784SOL     OW24171   2.813   6.029   0.827  0.3525 -0.2035 -0.0713
 7784SOL    HW124172   2.818   5.936   0.792  0.6072  0.0100 -0.6212
 7784SOL    HW224173   2.773   6.089   0.757  0.7765  0.2157  0.0410
 7785SOL     OW24174   1.634   4.951   0.777 -0.1204 -0.4840  0.1416
 7785SOL    HW124175   1.604   5.031   0.725 -0.9277 -0.8947 -0.0405
 7785SOL    HW224176   1.572   4.875   0.760 -0.0819 -0.7863  1.2751
 7786SOL     OW24177   0.445   2.254   1.093  0.3719 -0.1990  0.0340
 7786SOL    HW124178   0.353   2.226   1.065 -0.5388 -0.0742  2.6397
 7786SOL    HW224179   0.439   2.340   1.144  1.6176 -1.3066  2.1526
 7787SOL     OW24180   1.534   3.912   2.852 -0.2766  0.1663  0.7547
 7787SOL    HW124181   1.487   3.863   2.778 -1.5701  0.7762  1.1438
 7787SOL    HW224182   1.509   4.009   2.850  0.0201  0.2817  1.7153
 7788SOL     OW24183   3.887   0.371   4.367  0.0334 -0.2542 -0.0141
 7788SOL    HW124184   3.829   0.389   4.288  0.3885  0.2117 -0.1672
 7788SOL    HW224185   3.852   0.290   4.416 -0.5082 -0.2150 -0.3297
 7789SOL     OW24186   3.865   1.827   2.802  0.8403 -0.0609 -0.2615
 7789SOL    HW124187   3.895   1.733   2.784 -0.3257 -0.4295 -0.3923
 7789SOL    HW224188   3.766   1.828   2.815  0.9966  0.9748  0.9947
 7790SOL     OW24189   1.050   2.506   6.732  0.1945  0.4221 -0.4248
 7790SOL    HW124190   0.979   2.557   6.685 -2.3907 -1.6423  0.9500
 7790SOL    HW224191   1.047   2.410   6.702  1.2135 -0.0903  0.9809
 7791SOL     OW24192   0.551   5.250   0.845 -1.0985  0.3186 -0.1106
 7791SOL    HW124193   0.645   5.263   0.877  1.1029  0.2097 -5.3541
 7791SOL    HW224194   0.500   5.195   0.910  3.4088 -2.0814  1.7606
 7792SOL     OW24195   2.857   3.597   3.193  0.1086 -0.4599 -0.1641
 7792SOL    HW124196   2.940   3.587   3.248  0.0676  1.7424  0.3753
 7792SOL    HW224197   2.796   3.665   3.236 -1.4710 -1.1987 -1.1458
 7793SOL     OW24198   4.230   5.245   0.263 -0.0243  0.0461  0.4910
 7793SOL    HW124199   4.171   5.326   0.266  0.2483  0.2137  1.4665
 7793SOL    HW224200   4.296   5.256   0.189 -1.0391 -0.0279 -0.4544
 7794SOL     OW24201   1.100   5.923   2.887  0.2122  0.2592  0.0173
 7794SOL    HW124202   1.053   5.888   2.968  1.6609  1.8842  1.6374
 7794SOL    HW224203   1.053   6.005   2.854  0.9900  1.0539  0.7815
 7795SOL     OW24204   6.070   6.873   6.197 -0.2448 -0.3932  0.1197
 7795SOL    HW124205   6.058   6.829   6.286  0.3132  0.3782  0.5775
 7795SOL    HW224206   5.984   6.865   6.145 -0.7676 -0.3331  0.9496
 7796SOL     OW24207   3.042   6.502   2.279 -0.6390  0.0047  0.1161
 7796SOL    HW124208   3.117   6.568   2.283 -0.2792 -0.4168  0.4580
 7796SOL    HW224209   2.956   6.548   2.302 -0.3275  0.2581  0.7973
 7797SOL     OW24210   2.016   2.204   4.749 -0.3918 -0.0068  0.9409
 7797SOL    HW124211   2.043   2.285   4.697 -0.6504  0.1821  1.0960
 7797SOL    HW224212   2.025   2.223   4.847  0.1791 -0.3877  0.9642
 7798SOL     OW24213   6.851   3.680   6.356  0.0447 -0.2684 -0.2719
 7798SOL    HW124214   6.892   3.592   6.380  1.6324  0.3531 -0.6084
 7798SOL    HW224215   6.753   3.668   6.341 -0.1803 -1.5722  1.7965
 7799SOL     OW24216   5.821   3.332   1.481 -0.5389 -0.4717 -0.2063
 7799SOL    HW124217   5.743   3.394   1.469 -1.8086 -1.6148  1.6897
 7799SOL    HW224218   5.820   3.296   1.574  2.1637 -0.6935 -0.1866
 7800SOL     OW24219   0.502   2.742   3.903  0.5185  0.1397 -0.1742
 7800SOL    HW124220   0.409   2.770   3.882  0.3377  2.0845  2.5890
 7800SOL    HW224221   0.561   2.822   3.907  1.6728 -0.7158  0.8495
 7801SOL     OW24222   0.423   3.851   6.364 -0.4540 -0.1656 -0.3670
 7801SOL    HW124223   0.331   3.811   6.362 -0.0220 -1.1739 -0.5616
 7801SOL    HW224224   0.420   3.937   6.415 -1.3136 -0.6899  0.5196
 7802SOL     OW24225   2.793   1.094   7.005  0.1528  0.7863 -0.1269
 7802SOL    HW124226   2.703   1.052   7.019 -0.1554  1.1664 -0.9306
 7802SOL    HW224227   2.820   1.143   7.088 -0.9355  1.7189 -0.3340
 7803SOL     OW24228   6.441   1.923   5.633 -0.3213  0.1724 -0.1936
 7803SOL    HW124229   6.394   1.917   5.545  0.1988  2.3072 -0.6664
 7803SOL    HW224230   6.374   1.922   5.707 -0.8130 -0.9324 -0.6289
 7804SOL     OW24231   5.420   0.280   2.477  0.4308  0.2316 -0.5092
 7804SOL    HW124232   5.330   0.249   2.507 -0.1838  1.8668 -0.5380
 7804SOL    HW224233   5.423   0.285   2.377  1.0338 -1.0842 -0.5868
 7805SOL     OW24234   2.323   4.557   2.008  0.1701  0.2894 -0.0632
 7805SOL    HW124235   2.339   4.464   1.975  2.3561  0.2770  0.8128
 7805SOL    HW224236   2.319   4.620   1.931 -0.7339 -0.4394 -0.6343
 7806SOL     OW24237   5.575   6.570   1.168  0.4298  0.3148 -0.0253
 7806SOL    HW124238   5.589   6.512   1.248 -1.8395 -1.0226 -0.5101
 7806SOL    HW224239   5.500   6.634   1.185  0.7370  0.8559 -0.6597
 7807SOL     OW24240   5.773   3.970   5.660  0.5350  0.2959 -0.2924
 7807SOL    HW124241   5.700   3.944   5.722  1.0919  0.1660  0.3102
 7807SOL    HW224242   5.822   4.049   5.697  0.6587  0.4230 -0.7235
 7808SOL     OW24243   6.052   1.072   3.240  0.3170 -0.8212  0.1226
 7808SOL    HW124244   5.983   1.041   3.306  0.7991 -1.0981  0.5086
 7808SOL    HW224245   6.099   0.992   3.202 -0.1976 -0.6867 -0.8391
 7809SOL     OW24246   6.569   1.204   2.398  0.1541 -0.1486  0.4265
 7809SOL    HW124247   6.541   1.207   2.303 -0.0042  1.0929  0.5009
 7809SOL    HW224248   6.605   1.113   2.419  2.8821  0.2947 -1.6038
 7810SOL     OW24249   3.198   3.960   2.142  0.6087 -0.5042 -0.2129
 7810SOL    HW124250   3.155   3.870   2.143  0.4475 -0.4774  2.4279
 7810SOL    HW224251   3.273   3.962   2.208 -2.0397  2.4251  3.0332
 7811SOL     OW24252   6.096   5.716   4.021 -0.1386 -0.0538 -0.1974
 7811SOL    HW124253   6.102   5.627   4.066 -2.4206  0.1893  0.6721
 7811SOL    HW224254   6.162   5.719   3.946 -1.3618 -3.2567 -1.5695
 7812SOL     OW24255   6.220   4.810   1.142 -0.6658  0.5863 -0.3010
 7812SOL    HW124256   6.184   4.850   1.057  1.5941  3.0560 -0.2168
 7812SOL    HW224257   6.305   4.762   1.122 -0.0558  1.2899  0.5330
 7813SOL     OW24258   2.843   1.227   0.927 -0.3838  0.2931 -0.2624
 7813SOL    HW124259   2.906   1.167   0.878 -0.9521  0.8170 -1.7257
 7813SOL    HW224260   2.792   1.175   0.995 -0.6362 -0.8216 -1.2806
 7814SOL     OW24261   1.639   6.613   4.336  0.3040  0.2300 -0.2586
 7814SOL    HW124262   1.587   6.697   4.352  0.7875  0.2152  1.5077
 7814SOL    HW224263   1.580   6.547   4.287 -0.8053  0.7931  0.2847
 7815SOL     OW24264   6.966   2.691   4.815  0.1638 -0.7159 -0.4886
 7815SOL    HW124265   7.026   2.768   4.793 -0.9959  1.0715  2.1721
 7815SOL    HW224266   6.888   2.691   4.753  0.1862  0.2719 -0.5276
 7816SOL     OW24267   4.394   4.416   6.778 -0.0212 -0.2835  0.1039
 7816SOL    HW124268   4.338   4.467   6.843  0.6686  1.4084 -0.5686
 7816SOL    HW224269   4.420   4.476   6.702  0.9661 -1.6182 -0.6611
 7817SOL     OW24270   3.740   1.770   6.078 -0.4833  0.0676  0.7373
 7817SOL    HW124271   3.820   1.758   6.019 -1.1507  0.7976 -0.3437
 7817SOL    HW224272   3.677   1.835   6.036 -1.9162 -0.9051  1.3098
 7818SOL     OW24273   0.671   6.402   4.658  0.1103 -0.0244 -0.2205
 7818SOL    HW124274   0.600   6.374   4.593  1.1187 -1.2611 -0.8222
 7818SOL    HW224275   0.750   6.342   4.649 -0.0984 -0.9372  2.8708
 7819SOL     OW24276   4.400   0.516   4.367 -0.0801  0.1806 -0.5315
 7819SOL    HW124277   4.426   0.479   4.277 -0.9130  0.4533 -0.8889
 7819SOL    HW224278   4.303   0.499   4.383 -0.2333  1.2675 -0.2398
 7820SOL     OW24279   1.237   5.841   2.337 -0.2493 -0.2589  0.4480
 7820SOL    HW124280   1.237   5.827   2.436 -0.2463  1.8133  0.7971
 7820SOL    HW224281   1.157   5.896   2.312  0.4888  0.4277 -0.4835
 7821SOL     OW24282   0.663   2.491   2.568 -0.1383 -0.3531  0.5301
 7821SOL    HW124283   0.578   2.445   2.595 -1.1291  0.6010 -0.8145
 7821SOL    HW224284   0.662   2.507   2.470  1.8813 -0.8202  0.3833
 7822SOL     OW24285   5.643   4.310   5.886 -0.2398 -0.1477  0.4702
 7822SOL    HW124286   5.725   4.267   5.849  0.0236  1.7429 -1.4051
 7822SOL    HW224287   5.563   4.284   5.832 -0.3810  0.2736  0.4708
 7823SOL     OW24288   6.721   6.622   1.135 -0.3162 -0.8242  0.0129
 7823SOL    HW124289   6.676   6.606   1.047 -0.4791 -1.5901  0.2227
 7823SOL    HW224290   6.673   6.570   1.206 -0.8885  0.6845  0.7622
 7824SOL     OW24291   0.933   1.797   4.306  0.3610 -0.1488 -0.5257
 7824SOL    HW124292   0.838   1.792   4.275  0.0515 -1.0373  0.4996
 7824SOL    HW224293   0.954   1.716   4.361  1.1856  0.8812  0.7109
 7825SOL     OW24294   5.119   0.084   5.802 -0.0369 -0.0574  0.1025
 7825SOL    HW124295   5.097   0.138   5.884  0.9440  1.7214 -0.7525
 7825SOL    HW224296   5.217   0.064   5.801 -0.2355 -1.1085 -0.0771
 7826SOL     OW24297   2.305   2.914   5.905  0.0537  0.4282  0.2945
 7826SOL    HW124298   2.326   2.829   5.857 -2.1976  0.1857 -0.4173
 7826SOL    HW224299   2.377   2.981   5.887  1.2239 -0.9204 -0.1980
 7827SOL     OW24300   6.132   5.371   3.783 -0.3599 -0.0317  0.6630
 7827SOL    HW124301   6.123   5.421   3.869 -1.1731  0.0980  0.5099
 7827SOL    HW224302   6.164   5.434   3.712 -0.4993  0.0653  0.6803
 7828SOL     OW24303   2.890   0.896   1.150 -0.5012 -0.4780  0.2488
 7828SOL    HW124304   2.837   0.857   1.074 -0.0610  1.4729 -1.1123
 7828SOL    HW224305   2.843   0.977   1.185  0.4898  0.0020  0.4911
 7829SOL     OW24306   6.806   1.959   6.863 -0.1284  0.3583  0.1444
 7829SOL    HW124307   6.799   1.998   6.955 -2.0023  0.3879  0.0336
 7829SOL    HW224308   6.763   2.021   6.797 -0.1821 -0.3772 -0.5343
 7830SOL     OW24309   4.482   5.960   6.866 -0.4547 -0.4766  0.1026
 7830SOL    HW124310   4.511   6.025   6.936  0.0132  0.0328 -0.5491
 7830SOL    HW224311   4.382   5.951   6.868 -0.7023  1.4480 -0.7737
 7831SOL     OW24312   3.888   4.690   0.511  0.2588  0.1318  0.2180
 7831SOL    HW124313   3.801   4.645   0.489  0.5996  0.1314 -1.2162
 7831SOL    HW224314   3.915   4.665   0.604 -1.1090 -0.1217  0.5815
 7832SOL     OW24315   0.625   4.482   4.878  0.0527  0.1003  0.4798
 7832SOL    HW124316   0.659   4.514   4.789 -0.1636 -0.6865  0.0997
 7832SOL    HW224317   0.534   4.518   4.894 -0.2144 -0.3480  0.0285
 7833SOL     OW24318   1.946   5.998   0.292  0.6921 -0.1734  0.3867
 7833SOL    HW124319   1.925   6.048   0.209  1.8791  0.9424  0.7166
 7833SOL    HW224320   1.933   6.058   0.371  0.8824 -0.7841  0.8910
 7834SOL     OW24321   4.057   5.199   4.743  0.3631  0.3180  0.5631
 7834SOL    HW124322   4.009   5.145   4.812  1.3007  0.6774  1.5066
 7834SOL    HW224323   4.067   5.145   4.659 -0.2824 -0.3198  0.8880
 7835SOL     OW24324   1.474   1.135   2.848  0.1287  0.1937 -0.0751
 7835SOL    HW124325   1.476   1.234   2.855 -1.2966  0.4712 -2.6288
 7835SOL    HW224326   1.440   1.096   2.934  1.1414  1.8173  1.1184
 7836SOL     OW24327   5.679   6.566   3.150 -0.2268 -0.3743  0.1540
 7836SOL    HW124328   5.698   6.650   3.099  0.2226  0.1068  1.0757
 7836SOL    HW224329   5.612   6.585   3.222  0.4328 -0.6238  0.8500
 7837SOL     OW24330   5.485   0.842   1.265 -0.4081  0.3110 -0.4227
 7837SOL    HW124331   5.563   0.881   1.313 -0.4325 -0.1684  0.0006
 7837SOL    HW224332   5.454   0.907   1.195  1.0757  0.0326 -1.3904
 7838SOL     OW24333   3.892   1.151   6.065  0.3394 -0.6375 -0.4196
 7838SOL    HW124334   3.956   1.118   6.134  0.4806 -1.3748 -0.8848
 7838SOL    HW224335   3.867   1.246   6.084  0.3848 -0.8226  0.6323
 7839SOL     OW24336   2.744   2.229   5.528 -0.3022  0.4044  0.1278
 7839SOL    HW124337   2.791   2.208   5.614 -0.2827 -0.1879 -0.0215
 7839SOL    HW224338   2.776   2.317   5.494 -1.7150  1.5743  1.6867
 7840SOL     OW24339   5.220   6.066   4.536 -0.3087  0.0715 -0.0008
 7840SOL    HW124340   5.272   6.149   4.554 -1.1236  0.4605  0.6230
 7840SOL    HW224341   5.253   6.023   4.452  2.5401 -0.9399  1.5313
 7841SOL     OW24342   6.135   4.138   6.667  0.7041  0.3597 -0.3285
 7841SOL    HW124343   6.102   4.231   6.680  0.4159  0.1346  0.6091
 7841SOL    HW224344   6.086   4.076   6.728  2.9549  0.0183  1.2776
 7842SOL     OW24345   6.530   3.710   6.200 -0.5507  0.6201 -0.7231
 7842SOL    HW124346   6.568   3.799   6.174  0.3485  0.4955  0.1057
 7842SOL    HW224347   6.587   3.637   6.162 -0.1682  0.4232  0.2051
 7843SOL     OW24348   6.332   5.897   0.193  0.0640 -0.2249 -0.5082
 7843SOL    HW124349   6.264   5.824   0.191 -2.3169  1.8083  0.1618
 7843SOL    HW224350   6.404   5.874   0.258 -1.3273 -1.3957  0.6858
 7844SOL     OW24351   1.238   5.161   4.784  0.7187 -0.0080  0.1275
 7844SOL    HW124352   1.217   5.214   4.701  0.6020  1.7932  1.2561
 7844SOL    HW224353   1.223   5.218   4.865  2.1157 -1.2761  1.3462
 7845SOL     OW24354   0.131   5.743   6.429 -0.5726 -0.6072 -0.4850
 7845SOL    HW124355   0.230   5.739   6.414 -0.2276  0.3183  1.3229
 7845SOL    HW224356   0.085   5.752   6.341  1.0367  0.4376 -1.2871
 7846SOL     OW24357   2.283   2.342   5.289 -0.1228 -0.5206 -0.3591
 7846SOL    HW124358   2.230   2.270   5.333  0.6357 -0.3030  0.9739
 7846SOL    HW224359   2.296   2.320   5.192  0.6956 -2.5501  0.1615
 7847SOL     OW24360   2.284   6.782   4.431  0.7100 -0.8665 -0.2362
 7847SOL    HW124361   2.346   6.799   4.354  0.6880  0.1256 -0.0528
 7847SOL    HW224362   2.261   6.869   4.474  0.2312 -1.3576  0.5163
 7848SOL     OW24363   1.519   4.048   5.377 -0.1423 -0.5121 -0.2073
 7848SOL    HW124364   1.527   3.949   5.394 -1.1247 -0.3111  1.5869
 7848SOL    HW224365   1.611   4.087   5.366  0.3054 -1.4539  0.0656
 7849SOL     OW24366   0.485   5.871   5.306  0.2233  0.6443  1.0523
 7849SOL    HW124367   0.574   5.908   5.280  0.1739  1.8566  2.4292
 7849SOL    HW224368   0.490   5.836   5.399 -0.4722 -0.3155  0.7445
 7850SOL     OW24369   1.998   4.165   0.754  0.2072  0.2515  0.0805
 7850SOL    HW124370   2.037   4.163   0.662  2.0563  1.3041  0.7586
 7850SOL    HW224371   2.047   4.100   0.812  0.5576  1.1313  0.8065
 7851SOL     OW24372   2.295   0.980   0.958  0.1313  0.2174  0.3434
 7851SOL    HW124373   2.374   1.007   0.903  0.7316 -1.1533  0.4870
 7851SOL    HW224374   2.212   1.021   0.921  0.5489 -0.4919 -1.4625
 7852SOL     OW24375   0.270   4.098   6.493  0.1378  0.4341  0.3550
 7852SOL    HW124376   0.170   4.096   6.487  0.1791 -1.2475 -0.3720
 7852SOL    HW224377   0.298   4.103   6.589 -0.6559  0.7488  0.5706
 7853SOL     OW24378   3.599   1.362   3.225 -0.6895  0.0151 -0.3351
 7853SOL    HW124379   3.656   1.285   3.196 -3.4180 -1.3684 -2.4902
 7853SOL    HW224380   3.637   1.447   3.189  0.1408 -0.8374 -1.5521
 7854SOL     OW24381   0.129   3.467   4.038  0.1667  0.7535 -0.4806
 7854SOL    HW124382   0.088   3.534   3.976 -1.2554  1.0256  0.6920
 7854SOL    HW224383   0.096   3.375   4.015  0.9801  0.6195 -1.1721
 7855SOL     OW24384   6.571   6.827   6.103 -0.3443 -0.1456 -0.2466
 7855SOL    HW124385   6.535   6.737   6.077  0.2415 -0.5642  0.3291
 7855SOL    HW224386   6.667   6.817   6.130 -0.6601  0.4048  1.1963
 7856SOL     OW24387   0.974   2.510   1.864  0.1888 -0.0486  0.0071
 7856SOL    HW124388   0.975   2.545   1.957  1.9753 -0.6612  0.2630
 7856SOL    HW224389   1.052   2.546   1.814 -0.7288  0.2522 -1.2767
 7857SOL     OW24390   1.327   5.880   6.654  0.0373 -0.1569  0.4462
 7857SOL    HW124391   1.340   5.938   6.574  0.4800 -0.3978  0.3463
 7857SOL    HW224392   1.259   5.809   6.633 -0.5607  0.3601  0.5921
 7858SOL     OW24393   6.886   5.319   5.599 -0.0196  0.5979  0.8831
 7858SOL    HW124394   6.968   5.282   5.554 -0.9388 -1.0379  0.5155
 7858SOL    HW224395   6.844   5.389   5.540  0.9421  1.2625  0.9577
 7859SOL     OW24396   4.194   6.170   6.622  0.0074  0.4928  0.0573
 7859SOL    HW124397   4.293   6.164   6.621  0.2264  3.0780 -0.2352
 7859SOL    HW224398   4.156   6.115   6.548  1.1535 -0.9838  0.5250
 7860SOL     OW24399   3.866   1.985   6.285 -0.2945  0.0428  0.1111
 7860SOL    HW124400   3.946   1.990   6.344 -0.5514  0.5161  0.4240
 7860SOL    HW224401   3.853   1.891   6.254  0.5439  0.0173 -0.1691
 7861SOL     OW24402   5.544   0.632   0.579  0.2928  0.1899 -0.2005
 7861SOL    HW124403   5.453   0.622   0.618  0.6276  1.5535  1.0198
 7861SOL    HW224404   5.601   0.554   0.606 -0.7649 -1.2760 -1.9215
 7862SOL     OW24405   6.722   2.099   4.213 -0.1304 -0.1046 -0.0180
 7862SOL    HW124406   6.686   2.132   4.126 -2.5226 -1.9623  0.1710
 7862SOL    HW224407   6.731   2.174   4.278 -1.5790  0.8004 -0.8294
 7863SOL     OW24408   1.123   4.950   0.806  0.1694  0.0597 -0.0526
 7863SOL    HW124409   1.173   4.882   0.858 -0.9101  0.0015  0.9489
 7863SOL    HW224410   1.178   5.032   0.795  1.2220 -0.7068 -0.6826
 7864SOL     OW24411   2.059   6.334   6.705 -0.0417  0.4047  0.3147
 7864SOL    HW124412   2.003   6.324   6.787  1.3941  0.7707  1.3747
 7864SOL    HW224413   2.034   6.419   6.657 -0.5004  0.4765  0.6765
 7865SOL     OW24414   0.913   3.985   1.219  0.1830  0.3169  0.6870
 7865SOL    HW124415   0.829   3.965   1.167 -0.2688 -1.3502  1.9516
 7865SOL    HW224416   0.991   3.941   1.174  0.2333  1.0215  0.0609
 7866SOL     OW24417   1.779   5.963   2.965 -0.1260  0.1825  0.0859
 7866SOL    HW124418   1.717   5.945   3.041 -1.7825  1.2893 -0.9298
 7866SOL    HW224419   1.803   5.877   2.920 -0.8731 -0.2900  0.5626
 7867SOL     OW24420   4.374   3.781   0.089  0.2853  0.2549 -0.8277
 7867SOL    HW124421   4.428   3.710   0.044 -0.0426 -0.4020 -0.2059
 7867SOL    HW224422   4.434   3.840   0.143  0.6734  1.0102 -2.0641
 7868SOL     OW24423   1.997   3.274   5.227 -0.6310 -0.0979  0.5768
 7868SOL    HW124424   2.048   3.234   5.303 -0.1798  0.4551  0.5717
 7868SOL    HW224425   2.031   3.366   5.208 -0.0918 -0.5851 -0.9236
 7869SOL     OW24426   2.820   4.955   2.972 -0.4516 -0.6264  0.5164
 7869SOL    HW124427   2.872   4.870   2.962  0.8726 -0.0220  1.9425
 7869SOL    HW224428   2.882   5.033   2.966 -1.1696  0.1204  2.2033
 7870SOL     OW24429   1.048   6.999   6.100  0.2029 -0.4568 -0.3111
 7870SOL    HW124430   0.996   7.073   6.057 -1.3585  0.2044  2.5080
 7870SOL    HW224431   0.994   6.915   6.097 -1.0266  0.1448  2.1842
 7871SOL     OW24432   5.917   0.183   6.897  0.3526  0.3631 -0.1670
 7871SOL    HW124433   5.837   0.242   6.913  0.5449  0.7692 -0.6852
 7871SOL    HW224434   5.984   0.199   6.969  0.2092  0.4415 -0.0477
 7872SOL     OW24435   1.550   5.968   0.385  0.0200  0.2747  0.5947
 7872SOL    HW124436   1.592   6.036   0.444 -1.1271  0.6456  0.9994
 7872SOL    HW224437   1.461   6.001   0.353 -0.6945 -1.1502  1.0410
 7873SOL     OW24438   4.432   5.644   3.603 -0.3955  0.3588 -0.3176
 7873SOL    HW124439   4.479   5.701   3.670 -0.7433  0.2329  0.0386
 7873SOL    HW224440   4.411   5.555   3.643  0.4670 -0.1687 -0.9851
 7874SOL     OW24441   5.519   3.788   0.572  0.2907  0.5968 -0.1443
 7874SOL    HW124442   5.615   3.811   0.591 -0.0080 -0.3169  3.0325
 7874SOL    HW224443   5.464   3.807   0.653 -2.0105 -0.1990 -1.4482
 7875SOL     OW24444   0.470   2.558   2.351  0.2859 -0.3323  0.2782
 7875SOL    HW124445   0.547   2.524   2.297 -0.4245 -0.6265 -0.5890
 7875SOL    HW224446   0.428   2.482   2.400  0.3494 -0.2359  0.4807
 7876SOL     OW24447   0.978   5.237   6.459  0.1283  0.1063 -0.6546
 7876SOL    HW124448   1.007   5.167   6.524 -0.0250  0.0619 -0.6332
 7876SOL    HW224449   0.941   5.316   6.508 -0.5790 -0.1884 -0.7033
 7877SOL     OW24450   2.444   2.705   3.250  0.2152  0.3230  0.0412
 7877SOL    HW124451   2.529   2.742   3.214  0.2180 -1.0455 -1.4478
 7877SOL    HW224452   2.375   2.701   3.177 -1.0919  1.2725  1.1736
 7878SOL     OW24453   1.203   4.790   2.966 -0.2106 -0.4428 -0.4164
 7878SOL    HW124454   1.181   4.883   2.998  0.3249 -0.3172 -0.4061
 7878SOL    HW224455   1.132   4.727   2.998  0.2163 -0.2852  0.8755
 7879SOL     OW24456   6.156   3.798   6.386  0.5997  0.4838  0.0806
 7879SOL    HW124457   6.145   3.789   6.485  0.2562  0.6828  0.0610
 7879SOL    HW224458   6.244   3.841   6.367 -0.1480  2.1952  0.3756
 7880SOL     OW24459   1.822   1.668   5.840  0.0037 -0.2133 -0.4402
 7880SOL    HW124460   1.773   1.695   5.757  1.5633  0.1006 -1.3060
 7880SOL    HW224461   1.915   1.638   5.815  0.9697  1.1578  1.3047
 7881SOL     OW24462   2.934   6.450   0.715  0.4229  0.2366  0.3980
 7881SOL    HW124463   2.926   6.370   0.774  0.5041  1.1276  1.6648
 7881SOL    HW224464   2.988   6.521   0.761  1.1229  0.6978 -1.0525
 7882SOL     OW24465   3.557   1.478   3.821  0.0007 -0.6170  0.8651
 7882SOL    HW124466   3.496   1.445   3.893 -0.8861 -0.0293  0.4060
 7882SOL    HW224467   3.646   1.499   3.860 -0.8418  0.9004  2.0512
 7883SOL     OW24468   4.984   0.275   3.802  0.5152  0.0960 -0.0941
 7883SOL    HW124469   4.954   0.215   3.728 -0.4163 -1.1453  1.2074
 7883SOL    HW224470   4.909   0.336   3.827  0.8535  0.5723 -0.2137
 7884SOL     OW24471   4.561   3.851   4.707 -0.6455 -0.3351 -0.1225
 7884SOL    HW124472   4.604   3.767   4.737  0.5204 -0.3105 -1.5986
 7884SOL    HW224473   4.464   3.835   4.689 -0.6499 -1.0988  0.5668
 7885SOL     OW24474   3.455   3.272   1.291 -0.1921 -0.6027 -0.1364
 7885SOL    HW124475   3.531   3.312   1.342  0.3820 -0.7998 -0.8319
 7885SOL    HW224476   3.439   3.179   1.322  1.6529 -1.5598 -1.8240
 7886SOL     OW24477   6.254   4.672   2.401  0.1810 -0.3132 -0.2473
 7886SOL    HW124478   6.203   4.758   2.407 -0.3625 -0.5903 -0.7384
 7886SOL    HW224479   6.337   4.686   2.348 -1.1080 -0.6039 -2.4671
 7887SOL     OW24480   1.963   4.506   0.381  0.0634  0.2959  0.5341
 7887SOL    HW124481   2.059   4.505   0.352  0.7411  3.9408  2.0202
 7887SOL    HW224482   1.905   4.528   0.303  0.7949  0.9299  0.1521
 7888SOL     OW24483   3.360   2.467   6.138 -0.3170 -0.2101 -0.0945
 7888SOL    HW124484   3.311   2.547   6.101 -0.0002 -1.4956 -3.7275
 7888SOL    HW224485   3.458   2.479   6.123 -0.1034 -0.5424  0.9883
 7889SOL     OW24486   0.898   4.070   4.180  0.0188 -0.0533  0.3107
 7889SOL    HW124487   0.874   3.976   4.205  0.8559  0.1219  1.9363
 7889SOL    HW224488   0.961   4.107   4.248 -0.3162  1.7018 -0.2885
 7890SOL     OW24489   4.945   2.280   0.270  0.2399  0.2419 -0.0315
 7890SOL    HW124490   4.865   2.329   0.305  1.9631  1.9212  1.8519
 7890SOL    HW224491   4.988   2.229   0.344 -0.4505 -2.7697 -1.5677
 7891SOL     OW24492   4.847   3.104   0.975 -0.5153 -0.5450  0.2738
 7891SOL    HW124493   4.752   3.076   0.990 -1.0560 -0.3296 -2.3420
 7891SOL    HW224494   4.884   3.055   0.896  1.8636 -1.2208  1.7042
 7892SOL     OW24495   3.710   3.416   6.715 -0.1821  0.4104  0.2888
 7892SOL    HW124496   3.797   3.461   6.735  1.3026 -1.5136 -1.6156
 7892SOL    HW224497   3.656   3.474   6.654  0.2773  1.0343  0.4596
 7893SOL     OW24498   1.980   4.175   2.820  0.7227  0.7358  0.1505
 7893SOL    HW124499   2.011   4.234   2.894  0.7378  1.6974 -0.5798
 7893SOL    HW224500   1.962   4.083   2.854  1.8222  0.8534  1.1053
 7894SOL     OW24501   6.804   2.640   1.297  0.9841 -0.0532  0.1840
 7894SOL    HW124502   6.900   2.651   1.269  1.5580 -0.8778  1.7100
 7894SOL    HW224503   6.770   2.727   1.331  1.2938  0.1695 -0.0571
 7895SOL     OW24504   3.375   2.518   2.080  0.1605 -0.1831  0.3141
 7895SOL    HW124505   3.418   2.432   2.051 -0.2957 -1.1510  2.2666
 7895SOL    HW224506   3.339   2.566   2.001  1.8525 -0.9811 -1.0136
 7896SOL     OW24507   5.174   1.998   0.938  0.1930 -0.8211  0.0268
 7896SOL    HW124508   5.201   1.906   0.909 -0.7708 -0.1954 -3.2265
 7896SOL    HW224509   5.255   2.056   0.945  0.5662 -1.2566 -0.6145
 7897SOL     OW24510   5.092   6.177   0.743  0.3817  0.4229  0.4896
 7897SOL    HW124511   5.114   6.123   0.825  3.2391 -0.3142 -0.6469
 7897SOL    HW224512   5.037   6.122   0.681  3.0815 -1.3151 -0.5612
 7898SOL     OW24513   2.785   4.577   1.078  0.2571  0.1094 -0.0013
 7898SOL    HW124514   2.768   4.497   1.136  0.4460 -0.3613 -0.5938
 7898SOL    HW224515   2.733   4.569   0.993  0.9019  0.2233 -0.4117
 7899SOL     OW24516   6.727   5.725   0.736 -0.0128  0.2383  0.1937
 7899SOL    HW124517   6.764   5.674   0.659  0.8834 -0.1508  0.8632
 7899SOL    HW224518   6.789   5.716   0.815 -0.5675  1.1752  0.7547
 7900SOL     OW24519   2.338   6.944   4.771 -0.7254  0.1033 -0.7310
 7900SOL    HW124520   2.314   7.031   4.815 -0.8709 -0.6502  0.6702
 7900SOL    HW224521   2.406   6.897   4.826 -1.6892 -1.3265 -0.7114
 7901SOL     OW24522   5.890   1.823   6.991 -0.5857 -0.3208 -0.2871
 7901SOL    HW124523   5.908   1.776   7.077  1.6567  0.2595 -0.4046
 7901SOL    HW224524   5.879   1.756   6.918  1.3201 -0.8222 -0.1852
 7902SOL     OW24525   1.290   3.626   0.035 -0.6840 -0.6663 -0.1699
 7902SOL    HW124526   1.241   3.617  -0.051  0.1376 -1.3724 -0.5508
 7902SOL    HW224527   1.381   3.587   0.026  0.2555  1.2803  0.3632
 7903SOL     OW24528   5.881   6.075   6.474  0.1035  0.8996  0.1374
 7903SOL    HW124529   5.802   6.136   6.485 -0.9146 -0.4521  0.7064
 7903SOL    HW224530   5.953   6.101   6.538  0.2580  2.3083 -0.5587
 7904SOL     OW24531   3.315   2.964   4.412  0.1108 -0.1273  0.4124
 7904SOL    HW124532   3.308   2.968   4.512  0.5463 -0.3927  0.4612
 7904SOL    HW224533   3.401   2.919   4.387 -1.0793 -2.2545 -0.0805
 7905SOL     OW24534   5.431   4.533   6.023 -0.4160  0.2031  0.0017
 7905SOL    HW124535   5.478   4.580   5.949  2.3418 -2.3951 -0.0970
 7905SOL    HW224536   5.365   4.468   5.985 -0.0856 -0.0580 -0.1325
 7906SOL     OW24537   0.113   5.305   6.049  0.5809  0.1372 -0.5598
 7906SOL    HW124538   0.157   5.390   6.079 -0.1965 -0.4232  2.4752
 7906SOL    HW224539   0.065   5.322   5.963  1.2646  2.4671 -0.5871
 7907SOL     OW24540   6.413   5.894   3.960  0.4227  0.0441 -0.7692
 7907SOL    HW124541   6.364   5.883   3.874  2.0271  1.2327 -1.8957
 7907SOL    HW224542   6.422   5.992   3.981  1.6581 -0.1585 -0.2323
 7908SOL     OW24543   1.751   4.770   1.587 -0.0179  0.2282 -0.3702
 7908SOL    HW124544   1.749   4.802   1.682 -0.9201  1.8999 -0.9087
 7908SOL    HW224545   1.811   4.691   1.580 -1.2300 -1.0211  1.9273
 7909SOL     OW24546   4.672   0.216   1.429 -0.5419  0.2057  0.2236
 7909SOL    HW124547   4.745   0.180   1.370 -0.2455  0.3627  0.4850
 7909SOL    HW224548   4.681   0.315   1.437 -0.8683  0.2449  0.1488
 7910SOL     OW24549   5.076   1.880   4.180 -0.0158 -0.0019  0.2819
 7910SOL    HW124550   5.036   1.852   4.092 -1.8258 -0.0827  1.0892
 7910SOL    HW224551   5.045   1.973   4.202  2.6239  1.1084 -0.4261
 7911SOL     OW24552   2.573   2.445   0.593 -0.0856  0.5111  0.2113
 7911SOL    HW124553   2.663   2.416   0.561  0.2271  1.7980 -0.1257
 7911SOL    HW224554   2.514   2.365   0.603  1.0994 -0.3535  0.5023
 7912SOL     OW24555   4.093   3.176   2.501 -0.0026  0.0204  0.3913
 7912SOL    HW124556   4.171   3.138   2.452  0.3249  1.3617 -0.1527
 7912SOL    HW224557   4.040   3.101   2.541  1.1065 -0.9581  0.1058
 7913SOL     OW24558   2.854   1.222   2.115  0.3781  0.0557 -0.0865
 7913SOL    HW124559   2.875   1.317   2.091 -0.2235  0.2142 -0.0110
 7913SOL    HW224560   2.819   1.174   2.034  1.4065 -0.3202 -0.3134
 7914SOL     OW24561   1.304   6.816   2.652  0.0946 -0.2860  0.0083
 7914SOL    HW124562   1.392   6.856   2.628 -0.0708  0.1058  0.0349
 7914SOL    HW224563   1.308   6.776   2.743  0.3869 -0.7242 -0.1889
 7915SOL     OW24564   2.714   4.648   6.858  0.8672  0.1379 -0.3461
 7915SOL    HW124565   2.790   4.711   6.844  1.0346 -0.2937 -1.5610
 7915SOL    HW224566   2.734   4.588   6.935  1.0986  0.9739  0.2603
 7916SOL     OW24567   1.586   2.463   0.054 -0.3673  0.6004  0.2506
 7916SOL    HW124568   1.613   2.528  -0.017  0.3422 -1.4944 -1.4598
 7916SOL    HW224569   1.537   2.386   0.013 -0.3619 -0.4439  2.1228
 7917SOL     OW24570   1.280   6.092   2.561 -0.1301 -0.3341 -0.4079
 7917SOL    HW124571   1.183   6.084   2.539  0.3322 -1.6479 -2.2364
 7917SOL    HW224572   1.303   6.188   2.576 -1.6803  0.0111 -0.0794
 7918SOL     OW24573   1.185   5.710   5.669 -0.0903 -0.4422 -0.4932
 7918SOL    HW124574   1.238   5.786   5.707  0.6274  0.7759 -3.6322
 7918SOL    HW224575   1.248   5.639   5.638 -0.5790 -0.8749 -0.5014
 7919SOL     OW24576   3.825   5.925   2.273  0.2119 -0.3449 -0.0030
 7919SOL    HW124577   3.797   5.861   2.344 -0.1639 -0.8342 -0.5786
 7919SOL    HW224578   3.875   5.876   2.201  1.0478  0.2285  0.1716
 7920SOL     OW24579   6.499   5.298   5.385  0.1316 -0.4870  0.6327
 7920SOL    HW124580   6.410   5.265   5.353 -0.8844  1.2017  1.5929
 7920SOL    HW224581   6.571   5.263   5.324 -1.2265 -1.4141 -0.5080
 7921SOL     OW24582   6.745   0.821   5.804  0.1274  0.3131 -0.1035
 7921SOL    HW124583   6.728   0.907   5.757 -0.0469 -0.1869 -0.9686
 7921SOL    HW224584   6.827   0.777   5.766  0.6413  0.4343  0.8180
 7922SOL     OW24585   2.755   4.802   1.882  0.0524  0.0371  0.4485
 7922SOL    HW124586   2.703   4.882   1.851  0.1959 -0.6123 -1.6084
 7922SOL    HW224587   2.693   4.740   1.931 -0.8781 -0.1421 -0.8876
 7923SOL     OW24588   3.726   3.266   5.241  0.2492 -0.3940 -0.2661
 7923SOL    HW124589   3.775   3.214   5.171  1.2979  0.2676 -0.0290
 7923SOL    HW224590   3.760   3.241   5.331  2.1361  2.0283 -0.2179
 7924SOL     OW24591   6.896   2.780   3.576 -0.9028  0.3256  0.8717
 7924SOL    HW124592   6.833   2.854   3.598 -1.2028 -0.0323  1.2254
 7924SOL    HW224593   6.891   2.760   3.478 -0.8596  0.7342  0.7819
 7925SOL     OW24594   1.647   1.731   2.141  0.2450  0.3965  0.0401
 7925SOL    HW124595   1.558   1.728   2.094  0.9384 -0.8407 -1.3093
 7925SOL    HW224596   1.692   1.642   2.132  2.8355  1.7354 -1.7806
 7926SOL     OW24597   2.461   4.300   5.983 -0.0883  0.7262 -0.1864
 7926SOL    HW124598   2.540   4.241   5.995 -1.2058 -0.5103  1.5881
 7926SOL    HW224599   2.410   4.273   5.902  0.5768  0.6748 -0.5889
 7927SOL     OW24600   2.557   3.611   5.473  0.0319  0.0382 -0.1704
 7927SOL    HW124601   2.580   3.660   5.388 -0.8188 -0.3605 -0.6318
 7927SOL    HW224602   2.469   3.566   5.463  0.4788 -1.0129  0.5089
 7928SOL     OW24603   6.220   2.097   6.470 -0.3537  0.5189 -0.0613
 7928SOL    HW124604   6.239   2.017   6.527 -0.5925 -0.4586 -1.2937
 7928SOL    HW224605   6.146   2.076   6.407 -1.0318  2.0412  0.1952
 7929SOL     OW24606   2.018   2.322   0.553  1.0050  0.0905 -0.2197
 7929SOL    HW124607   2.085   2.370   0.610  1.2668 -0.6111  0.0731
 7929SOL    HW224608   1.931   2.371   0.557  1.4767  0.9713 -0.5476
 7930SOL     OW24609   6.656   6.800   3.902  0.0707  0.1441  0.7050
 7930SOL    HW124610   6.718   6.862   3.949  1.2588 -0.1311 -0.4357
 7930SOL    HW224611   6.685   6.705   3.917  0.2030  0.0328 -0.1945
 7931SOL     OW24612   4.269   3.935   2.325 -0.0323  0.5049  0.2325
 7931SOL    HW124613   4.315   3.846   2.315 -1.2845 -0.0965 -0.4086
 7931SOL    HW224614   4.291   3.993   2.248 -0.4738  0.1475 -0.1710
 7932SOL     OW24615   3.634   0.891   0.068 -0.1216  0.5069  0.6131
 7932SOL    HW124616   3.650   0.797   0.035 -1.9762 -0.2738  1.7538
 7932SOL    HW224617   3.628   0.953  -0.010  2.4487 -0.0019 -0.1016
 7933SOL     OW24618   0.647   3.163   5.102 -0.2214  0.1344  0.2783
 7933SOL    HW124619   0.637   3.067   5.075 -1.6501  0.4549 -0.4103
 7933SOL    HW224620   0.565   3.193   5.150  0.6204  0.7542  1.3803
 7934SOL     OW24621   2.813   3.761   4.121  0.7126 -0.0177 -0.3865
 7934SOL    HW124622   2.723   3.726   4.097 -0.1125  1.4633  0.4141
 7934SOL    HW224623   2.835   3.733   4.215  2.7203 -3.4341 -1.6793
 7935SOL     OW24624   4.877   4.694   3.690  0.4521 -0.4417  0.8880
 7935SOL    HW124625   4.954   4.758   3.686  2.6961 -2.9548  0.8366
 7935SOL    HW224626   4.903   4.614   3.745 -1.9020 -1.7023  0.3098
 7936SOL     OW24627   6.868   1.763   1.887  0.6196  0.5023  0.4288
 7936SOL    HW124628   6.848   1.760   1.985 -0.1155 -3.2430  0.2872
 7936SOL    HW224629   6.946   1.704   1.867 -1.1340 -1.3185 -1.5485
 7937SOL     OW24630   1.975   2.699   4.562  0.0746 -0.5581 -0.0883
 7937SOL    HW124631   2.039   2.770   4.592  2.0898 -0.9599 -3.0254
 7937SOL    HW224632   1.905   2.741   4.503 -1.3296 -0.4360  1.5723
 7938SOL     OW24633   6.031   4.685   5.807  0.1683 -0.6156 -0.1324
 7938SOL    HW124634   5.976   4.731   5.877  0.8444 -0.8687  0.5780
 7938SOL    HW224635   5.971   4.652   5.735 -0.5648 -0.4814  0.3953
 7939SOL     OW24636   1.741   5.121   5.487 -0.3954 -0.2063  0.0716
 7939SOL    HW124637   1.727   5.199   5.427 -0.5729 -0.7092 -0.5476
 7939SOL    HW224638   1.714   5.145   5.580 -1.0571  0.2691 -0.2323
 7940SOL     OW24639   4.273   6.269   1.593 -0.1360  0.1436  0.6156
 7940SOL    HW124640   4.276   6.342   1.661 -1.4739 -0.6546  1.5769
 7940SOL    HW224641   4.277   6.309   1.502 -0.3713  1.3908  1.1234
 7941SOL     OW24642   0.739   0.168   1.007  0.0101 -0.1060 -0.4909
 7941SOL    HW124643   0.826   0.178   1.055  0.1646 -0.3315 -0.7128
 7941SOL    HW224644   0.728   0.073   0.978 -0.0250  0.0425 -0.9960
 7942SOL     OW24645   5.527   5.862   6.794 -0.6466  0.0178  0.8503
 7942SOL    HW124646   5.603   5.808   6.829  0.7930  0.6108 -1.1843
 7942SOL    HW224647   5.535   5.956   6.827  0.3424  0.4164 -0.4156
 7943SOL     OW24648   4.013   2.989   2.882  0.1098  0.1687 -0.4803
 7943SOL    HW124649   4.063   2.950   2.959 -1.9525  1.3107  1.5432
 7943SOL    HW224650   3.994   3.085   2.900 -0.6794  0.3954 -2.3216
 7944SOL     OW24651   4.158   0.832   1.602 -0.6333 -0.5147 -0.2671
 7944SOL    HW124652   4.139   0.891   1.680  0.7236 -1.5441  0.9119
 7944SOL    HW224653   4.168   0.737   1.634  0.9515 -0.8139 -1.5385
 7945SOL     OW24654   5.781   4.223   3.749  0.3137 -0.7152 -0.4126
 7945SOL    HW124655   5.704   4.281   3.779  0.0833 -0.9946 -0.4535
 7945SOL    HW224656   5.748   4.130   3.734  0.8079 -1.0004  0.2548
 7946SOL     OW24657   4.097   5.436   3.493 -0.3664 -0.4752  0.0434
 7946SOL    HW124658   4.075   5.510   3.557 -0.0406 -1.3231  1.1701
 7946SOL    HW224659   4.018   5.416   3.437 -0.1625  1.3851 -0.9721
 7947SOL     OW24660   5.603   3.886   5.862 -0.2447  0.6410  0.2360
 7947SOL    HW124661   5.674   3.899   5.932 -0.2031  1.4820  0.0504
 7947SOL    HW224662   5.551   3.803   5.882  1.2415 -0.3780 -0.0150
 7948SOL     OW24663   1.640   5.067   0.272  0.0715  0.5975 -0.4356
 7948SOL    HW124664   1.562   5.056   0.334 -0.2119 -0.1562 -0.9044
 7948SOL    HW224665   1.628   5.007   0.193 -0.0390  2.1826 -1.6920
 7949SOL     OW24666   4.786   3.273   5.098  0.4010 -0.3791  0.3076
 7949SOL    HW124667   4.863   3.210   5.104  0.5103 -0.5565 -2.0250
 7949SOL    HW224668   4.703   3.222   5.074  0.4743  0.3155 -1.5249
 7950SOL     OW24669   1.388   6.711   1.789 -0.0414 -0.0179 -0.1527
 7950SOL    HW124670   1.358   6.621   1.756 -0.4912  0.7460 -1.9635
 7950SOL    HW224671   1.309   6.764   1.819 -0.0871  0.5867 -1.2791
 7951SOL     OW24672   4.145   4.069   6.164 -0.0828 -0.0478 -0.2941
 7951SOL    HW124673   4.085   4.135   6.209 -0.8002 -0.8210 -0.0981
 7951SOL    HW224674   4.226   4.116   6.128 -0.3726  0.8583  0.2311
 7952SOL     OW24675   6.858   3.286   5.334  0.3337 -0.1452 -0.2511
 7952SOL    HW124676   6.796   3.209   5.347 -0.8042  0.6161 -1.0273
 7952SOL    HW224677   6.884   3.292   5.238  2.0427 -0.7495  0.1363
 7953SOL     OW24678   0.363   4.981   3.428  1.0137  1.0767 -0.2820
 7953SOL    HW124679   0.446   5.034   3.411 -0.0972  3.0180  0.1088
 7953SOL    HW224680   0.360   4.951   3.523  2.1069 -0.5675 -0.7395
 7954SOL     OW24681   4.811   4.933   4.186  0.6105 -0.2833 -0.1515
 7954SOL    HW124682   4.908   4.944   4.209  1.1919 -0.2370 -2.3885
 7954SOL    HW224683   4.770   5.023   4.171  0.9090 -0.3681 -1.6525
 7955SOL     OW24684   1.782   6.108   4.108 -0.7020 -0.2098 -0.0553
 7955SOL    HW124685   1.770   6.146   4.200 -0.4698 -1.6438  0.5997
 7955SOL    HW224686   1.763   6.178   4.040 -0.0531  1.1233  1.0930
 7956SOL     OW24687   0.316   5.507   3.457  0.5222 -0.4599  0.0562
 7956SOL    HW124688   0.222   5.537   3.470 -1.1096 -3.3156 -3.3575
 7956SOL    HW224689   0.346   5.456   3.538 -0.8986  0.3847  1.1722
 7957SOL     OW24690   4.496   2.138   0.109 -0.7642  0.5246  0.1316
 7957SOL    HW124691   4.502   2.223   0.058 -0.9730 -0.5180 -1.7178
 7957SOL    HW224692   4.537   2.150   0.199 -0.0942  2.3459 -0.3748
 7958SOL     OW24693   0.913   1.042   6.349 -0.3019  0.0730 -0.1341
 7958SOL    HW124694   0.916   1.135   6.314  1.5158  0.5640  1.2075
 7958SOL    HW224695   0.998   1.021   6.398 -0.4574 -2.4589 -0.8027
 7959SOL     OW24696   5.047   6.327   6.651  0.5111 -0.5685  0.2634
 7959SOL    HW124697   4.984   6.261   6.610  1.8032 -1.6923 -0.0146
 7959SOL    HW224698   5.040   6.322   6.751 -0.3130 -0.1870  0.2326
 7960SOL     OW24699   0.289   1.684   4.725 -0.3421  0.1846  0.4069
 7960SOL    HW124700   0.212   1.621   4.740 -1.5464  1.1090 -1.4467
 7960SOL    HW224701   0.254   1.776   4.709  1.0087  0.3725 -1.9616
 7961SOL     OW24702   3.841   0.347   0.573  0.0492  0.4519 -0.0009
 7961SOL    HW124703   3.777   0.291   0.624 -0.7969  1.5942  0.2586
 7961SOL    HW224704   3.829   0.332   0.475 -1.0985  1.1250  0.0191
 7962SOL     OW24705   3.277   6.487   1.135 -0.2739  0.4220 -0.0324
 7962SOL    HW124706   3.356   6.478   1.074  0.4855 -0.1989  1.0357
 7962SOL    HW224707   3.213   6.411   1.119  0.4390 -0.3460  0.6786
 7963SOL     OW24708   6.088   3.133   3.790  0.4238  0.3782 -0.0949
 7963SOL    HW124709   6.071   3.195   3.867  0.9002 -0.9041  1.0694
 7963SOL    HW224710   6.026   3.156   3.714 -1.4842  0.4410  1.3901
 7964SOL     OW24711   3.748   0.912   1.535  0.1033  0.1869  0.6494
 7964SOL    HW124712   3.704   0.822   1.535  1.8759 -1.0115 -4.4429
 7964SOL    HW224713   3.816   0.915   1.608 -0.4796 -2.3634  1.4110
 7965SOL     OW24714   5.386   1.302   3.948  0.2808 -0.1916  0.0015
 7965SOL    HW124715   5.446   1.365   3.997 -1.1099  1.3327 -0.1850
 7965SOL    HW224716   5.366   1.223   4.006  0.4026  0.5367  1.0542
 7966SOL     OW24717   4.404   1.387   6.744 -0.0031 -0.4009 -0.2978
 7966SOL    HW124718   4.352   1.365   6.662  0.8174 -1.8994 -0.4559
 7966SOL    HW224719   4.426   1.485   6.745 -1.1696 -0.1089 -1.1608
 7967SOL     OW24720   1.395   4.235   3.792  0.1540  0.0590 -1.2990
 7967SOL    HW124721   1.391   4.252   3.890  0.3071 -0.6706 -1.1647
 7967SOL    HW224722   1.316   4.278   3.748  0.3688  0.8544 -0.9418
 7968SOL     OW24723   4.894   2.276   4.951  0.3058  0.0414 -0.6879
 7968SOL    HW124724   4.840   2.358   4.933  0.7363  0.4008 -0.3788
 7968SOL    HW224725   4.987   2.303   4.977  0.2344 -0.5156  0.1711
 7969SOL     OW24726   1.008   0.089   2.342  0.1110  0.6062  0.3344
 7969SOL    HW124727   1.061   0.106   2.259  0.8168 -2.7560 -0.0321
 7969SOL    HW224728   1.063   0.114   2.422  1.6327 -1.0600 -0.1035
 7970SOL     OW24729   3.633   0.279   6.357 -0.2205  0.2787  0.2060
 7970SOL    HW124730   3.719   0.308   6.315  0.3871  0.3821  1.4930
 7970SOL    HW224731   3.570   0.248   6.286  1.0278 -0.1984 -0.7118
 7971SOL     OW24732   1.440   4.162   4.384 -0.2508 -0.4603  0.7937
 7971SOL    HW124733   1.537   4.173   4.366 -0.2743 -0.8388  0.4139
 7971SOL    HW224734   1.399   4.106   4.312 -1.0008  0.7455  0.2457
 7972SOL     OW24735   2.409   1.100   4.379 -0.0381  0.4843  0.0741
 7972SOL    HW124736   2.330   1.159   4.394 -0.2863  0.5257 -1.2351
 7972SOL    HW224737   2.379   1.007   4.359  0.2980  0.2242  0.7472
 7973SOL     OW24738   1.627   4.987   1.429 -0.3340 -0.4297  0.5434
 7973SOL    HW124739   1.670   5.077   1.434 -2.0600  0.5033 -0.3687
 7973SOL    HW224740   1.663   4.928   1.501 -0.3203  1.4958  2.2054
 7974SOL     OW24741   5.405   6.734   5.151 -0.2654 -0.1476 -0.0792
 7974SOL    HW124742   5.388   6.636   5.157  0.6198 -0.2818  0.4892
 7974SOL    HW224743   5.496   6.754   5.188  0.6468  0.5613 -2.5298
 7975SOL     OW24744   0.906   4.746   0.266  0.8821 -0.4028 -0.2363
 7975SOL    HW124745   0.908   4.747   0.366 -2.1100 -1.2771 -0.0478
 7975SOL    HW224746   0.953   4.664   0.233  1.3214 -0.4458  0.4637
 7976SOL     OW24747   1.493   2.950   4.517  0.5626 -0.2344  0.3775
 7976SOL    HW124748   1.530   2.857   4.513  0.5641 -0.2212  0.0062
 7976SOL    HW224749   1.560   3.014   4.479  0.1644 -0.2112 -0.3149
 7977SOL     OW24750   2.499   0.665   0.408 -0.2708 -0.1054  0.1576
 7977SOL    HW124751   2.417   0.720   0.421 -0.4698 -0.2536 -0.4183
 7977SOL    HW224752   2.511   0.603   0.486  0.8572  1.8643  1.6180
 7978SOL     OW24753   1.269   3.547   2.813  0.1551  0.5354  0.1849
 7978SOL    HW124754   1.301   3.475   2.874  2.2926 -1.4915 -3.0321
 7978SOL    HW224755   1.182   3.520   2.771 -0.4890  1.1867  1.0677
 7979SOL     OW24756   2.365   1.408   3.193  0.6771 -0.1605  0.1131
 7979SOL    HW124757   2.269   1.408   3.219  0.7834  0.6195  0.5104
 7979SOL    HW224758   2.381   1.478   3.124  1.1127  0.2554  0.6239
 7980SOL     OW24759   6.616   2.033   3.785 -0.2127  0.2512  1.1079
 7980SOL    HW124760   6.611   2.116   3.842 -3.4900  0.9524  0.0612
 7980SOL    HW224761   6.612   1.953   3.844  0.2797  0.8811  2.0330
 7981SOL     OW24762   3.748   0.249   2.227  0.8689 -0.2000  0.1018
 7981SOL    HW124763   3.781   0.332   2.183  0.6751  1.4884  2.9226
 7981SOL    HW224764   3.702   0.191   2.159  0.9049  2.0114 -1.9248
 7982SOL     OW24765   4.720   2.417   0.406 -0.3326  0.0250  0.4558
 7982SOL    HW124766   4.655   2.489   0.381  1.8536  1.5154 -1.2842
 7982SOL    HW224767   4.766   2.442   0.492 -1.1138 -0.3944  1.0075
 7983SOL     OW24768   2.598   0.469   2.049 -0.1362 -0.1054  0.2139
 7983SOL    HW124769   2.560   0.559   2.030  2.1979  0.9312  0.1974
 7983SOL    HW224770   2.636   0.429   1.966  2.3865  0.6973  0.8899
 7984SOL     OW24771   6.804   2.632   2.861 -0.1809  0.1657 -0.4012
 7984SOL    HW124772   6.848   2.693   2.795 -1.4679  1.6139  0.0115
 7984SOL    HW224773   6.817   2.668   2.953 -1.7747  0.3858 -0.2275
 7985SOL     OW24774   0.419   2.593   3.687 -0.2081 -0.5270 -0.1737
 7985SOL    HW124775   0.443   2.627   3.777  0.1923 -1.9530  0.2829
 7985SOL    HW224776   0.413   2.669   3.623 -1.8113  0.6736  1.3173
 7986SOL     OW24777   1.789   1.086   4.643  0.5163 -0.6471 -0.1050
 7986SOL    HW124778   1.802   0.995   4.604 -0.8920 -0.8568 -0.1609
 7986SOL    HW224779   1.760   1.077   4.738  1.6140 -0.2090  0.2767
 7987SOL     OW24780   5.983   3.566   5.467  0.3183 -0.0080  0.5821
 7987SOL    HW124781   6.054   3.604   5.525  1.0172 -2.1420  1.1655
 7987SOL    HW224782   6.015   3.481   5.425 -1.0862  0.1574 -0.9241
 7988SOL     OW24783   1.973   0.036   2.801  0.9534  0.6784 -0.4170
 7988SOL    HW124784   1.997   0.082   2.887 -0.5058  0.0530  0.3741
 7988SOL    HW224785   2.036   0.063   2.729  2.5199  0.8454  0.9695
 7989SOL     OW24786   2.807   6.578   1.404 -0.0386 -0.3159  0.2205
 7989SOL    HW124787   2.802   6.619   1.313  1.1021  1.1196  0.7461
 7989SOL    HW224788   2.867   6.498   1.402  1.4139  0.7225 -0.0133
 7990SOL     OW24789   4.258   3.177   2.999 -0.3272 -0.2729 -0.3445
 7990SOL    HW124790   4.350   3.213   2.990  0.0404 -0.9373  0.6227
 7990SOL    HW224791   4.253   3.085   2.960  0.2058 -1.4393  2.1410
 7991SOL     OW24792   6.269   6.967   1.803 -0.7561 -0.5280 -0.2628
 7991SOL    HW124793   6.207   6.895   1.832  0.5179 -0.9197  1.7247
 7991SOL    HW224794   6.284   7.031   1.879  0.4963  0.0645 -0.9830
 7992SOL     OW24795   2.075   2.839   1.625  1.0340 -0.3833  0.3558
 7992SOL    HW124796   2.041   2.929   1.597  2.4584 -0.2746 -1.2626
 7992SOL    HW224797   2.171   2.847   1.653  1.0447 -1.3230  0.6211
 7993SOL     OW24798   1.076   6.477   0.516  0.2668 -0.3079  0.1441
 7993SOL    HW124799   1.115   6.566   0.541  3.5157 -1.8965  1.1659
 7993SOL    HW224800   1.149   6.409   0.509 -2.1090 -2.9618 -0.5791
 7994SOL     OW24801   4.776   4.640   4.078  0.7219 -0.1250 -0.3210
 7994SOL    HW124802   4.677   4.640   4.092  0.5260  0.5813 -1.6272
 7994SOL    HW224803   4.810   4.734   4.076  1.6158 -0.3710  1.2793
 7995SOL     OW24804   1.395   0.879   0.505  0.1203  0.1078  0.1849
 7995SOL    HW124805   1.433   0.919   0.589 -1.7000 -0.4996  1.3542
 7995SOL    HW224806   1.338   0.800   0.529  1.1184 -1.3030 -1.8059
 7996SOL     OW24807   3.889   0.413   2.730  0.0979 -0.4295  0.4678
 7996SOL    HW124808   3.978   0.402   2.685 -0.0190  0.9195 -0.1257
 7996SOL    HW224809   3.897   0.480   2.803 -0.3514 -0.5993  0.6801
 7997SOL     OW24810   5.746   6.364   0.167 -0.2653  0.0723  0.0105
 7997SOL    HW124811   5.652   6.390   0.186  0.0982  0.5292  1.2693
 7997SOL    HW224812   5.770   6.392   0.074 -1.3535 -0.0431 -0.3171
 7998SOL     OW24813   0.576   4.039   5.586 -0.5744 -0.0733  0.0289
 7998SOL    HW124814   0.653   4.040   5.523 -0.3631 -0.0868  0.2835
 7998SOL    HW224815   0.496   4.080   5.542 -0.1680  0.8021  0.0872
 7999SOL     OW24816   2.789   1.854   0.755  0.2616 -0.2309 -0.1335
 7999SOL    HW124817   2.748   1.763   0.751  0.9664 -0.5015 -2.0171
 7999SOL    HW224818   2.855   1.864   0.681  2.7245  0.6079  2.0196
 8000SOL     OW24819   1.334   2.012   3.472 -0.1915  0.9115  0.2014
 8000SOL    HW124820   1.339   1.944   3.545  1.5883  0.9548  0.1584
 8000SOL    HW224821   1.388   1.981   3.394 -3.2770  0.1066 -1.8247
 8001SOL     OW24822   5.136   5.038   4.668  0.0526 -0.5111  0.3203
 8001SOL    HW124823   5.233   5.018   4.660 -0.0860 -1.0489 -0.0210
 8001SOL    HW224824   5.114   5.121   4.616  0.3821 -0.2076  0.6576
 8002SOL     OW24825   5.441   4.373   4.314 -0.0053  0.2505  0.5527
 8002SOL    HW124826   5.530   4.328   4.309  0.4805  1.3290 -2.0076
 8002SOL    HW224827   5.446   4.452   4.376  0.6408 -0.0246  0.8578
 8003SOL     OW24828   2.464   5.908   5.462 -0.1098 -0.0696 -0.1751
 8003SOL    HW124829   2.480   5.957   5.548 -0.8218 -1.2061  0.6385
 8003SOL    HW224830   2.368   5.918   5.436  0.0384  0.0295 -0.6865
 8004SOL     OW24831   4.062   1.119   2.798  0.1456  0.3070 -0.0361
 8004SOL    HW124832   4.060   1.141   2.701  0.7402  0.6103  0.0198
 8004SOL    HW224833   4.093   1.198   2.850 -0.3872  0.2183  0.4245
 8005SOL     OW24834   3.355   1.846   1.947 -0.0799  0.1233 -0.1899
 8005SOL    HW124835   3.334   1.846   1.849 -0.4089 -1.6243 -0.1572
 8005SOL    HW224836   3.346   1.938   1.983  1.9203  1.2128 -2.1946
 8006SOL     OW24837   3.757   4.344   1.245  0.2458 -0.0393 -0.2756
 8006SOL    HW124838   3.756   4.343   1.345 -1.7266 -1.5936 -0.2436
 8006SOL    HW224839   3.689   4.410   1.212  1.5410  1.1657 -0.6500
 8007SOL     OW24840   1.137   5.865   1.983 -0.6927 -0.3556  0.1130
 8007SOL    HW124841   1.071   5.829   1.916 -1.1406 -0.0590  0.3839
 8007SOL    HW224842   1.091   5.931   2.042 -0.0676  0.0820  0.1163
 8008SOL     OW24843   4.927   4.467   4.406  0.4425 -0.2936 -0.0036
 8008SOL    HW124844   4.906   4.546   4.463  2.6390  2.5004 -2.7457
 8008SOL    HW224845   5.012   4.483   4.356  1.3656 -4.7294 -0.2857
 8009SOL     OW24846   0.278   3.952   4.511 -0.0218  0.0104 -0.1599
 8009SOL    HW124847   0.203   3.961   4.446 -0.3901 -1.1628  0.0881
 8009SOL    HW224848   0.245   3.975   4.603 -0.2101 -0.9172  0.0173
 8010SOL     OW24849   1.145   1.001   0.376  0.2670  0.1724 -0.0818
 8010SOL    HW124850   1.225   1.012   0.435 -0.5208  0.9248  0.9017
 8010SOL    HW224851   1.106   1.091   0.356 -0.9197 -0.2202  0.3283
 8011SOL     OW24852   6.930   3.355   6.252 -0.1353 -0.1806  0.1647
 8011SOL    HW124853   6.924   3.261   6.284 -0.2520  0.3487  1.7921
 8011SOL    HW224854   7.024   3.387   6.261 -0.0151 -0.2430 -0.7498
 8012SOL     OW24855   0.084   0.673   5.312  0.1797 -0.2447 -0.1067
 8012SOL    HW124856   0.095   0.585   5.266  1.0334 -1.0077  1.4807
 8012SOL    HW224857   0.136   0.743   5.264 -0.6658 -0.5424 -1.5063
 8013SOL     OW24858   2.856   3.442   3.693  0.5774  0.3701 -0.2240
 8013SOL    HW124859   2.808   3.354   3.697  0.8071  0.2399 -0.3581
 8013SOL    HW224860   2.931   3.442   3.759  0.9131  0.2693 -0.6112
 8014SOL     OW24861   4.733   0.655   4.880  0.1997 -0.5542 -0.6754
 8014SOL    HW124862   4.803   0.708   4.928 -0.2514 -0.2902 -0.3054
 8014SOL    HW224863   4.643   0.692   4.900 -0.0313 -0.7237 -1.3724
 8015SOL     OW24864   0.218   1.986   6.931 -0.1489  0.5118 -0.5801
 8015SOL    HW124865   0.199   1.997   7.029 -0.0684  1.1474 -0.6601
 8015SOL    HW224866   0.212   2.076   6.886 -0.9991  0.1122 -1.2971
 8016SOL     OW24867   1.644   4.687   4.087  0.1524 -0.9647 -0.0679
 8016SOL    HW124868   1.565   4.630   4.108 -0.3431 -0.6304 -0.9348
 8016SOL    HW224869   1.612   4.778   4.059  0.9077 -0.3271  1.0440
 8017SOL     OW24870   0.539   6.204   6.026 -0.4766  0.3124  0.0917
 8017SOL    HW124871   0.559   6.252   6.112 -0.5049  0.2387  0.1415
 8017SOL    HW224872   0.483   6.263   5.968  0.1819  0.6659 -0.2001
 8018SOL     OW24873   1.442   3.488   1.455  0.3861  0.1197  0.0559
 8018SOL    HW124874   1.534   3.525   1.467  1.0278 -2.0614  2.7281
 8018SOL    HW224875   1.448   3.395   1.419 -0.8851  0.4168 -0.9991
 8019SOL     OW24876   0.697   4.580   3.789  0.6938 -0.2374 -1.2000
 8019SOL    HW124877   0.769   4.649   3.794  1.8010 -1.4696  0.6995
 8019SOL    HW224878   0.619   4.608   3.846  0.9364 -0.2850 -0.8352
 8020SOL     OW24879   5.692   2.928   0.937 -0.0887 -0.1138 -0.0739
 8020SOL    HW124880   5.604   2.974   0.929  0.0803  0.4550  1.0807
 8020SOL    HW224881   5.766   2.993   0.917  0.1149 -0.1060  0.6245
 8021SOL     OW24882   3.318   5.410   6.008 -0.2632  0.4784  0.2638
 8021SOL    HW124883   3.302   5.506   5.982  0.9795  0.3126 -1.2588
 8021SOL    HW224884   3.413   5.386   5.988 -0.8010 -1.3315 -0.3096
 8022SOL     OW24885   4.041   0.763   4.560 -0.1373  0.3071  0.7249
 8022SOL    HW124886   4.061   0.667   4.540 -1.7524 -0.1546  1.1389
 8022SOL    HW224887   4.067   0.784   4.654  2.3959  0.9767 -0.0338
 8023SOL     OW24888   5.531   4.716   2.338 -0.1334 -0.0015 -0.8025
 8023SOL    HW124889   5.504   4.620   2.335  0.6257 -0.3041  1.0418
 8023SOL    HW224890   5.579   4.740   2.254 -1.6185 -0.7964 -1.9416
 8024SOL     OW24891   6.970   4.014   2.657 -0.1108 -0.3088  0.5632
 8024SOL    HW124892   7.011   4.004   2.748  3.8462 -1.7763 -1.0992
 8024SOL    HW224893   6.908   3.937   2.640  1.2241 -1.5606  1.1122
 8025SOL     OW24894   3.113   6.822   3.114  1.0673  0.5334 -0.5335
 8025SOL    HW124895   3.183   6.888   3.139 -0.0039  1.7296 -0.5654
 8025SOL    HW224896   3.028   6.870   3.092 -0.1139 -0.9152  0.6461
 8026SOL     OW24897   5.484   4.082   5.484 -0.1917  0.0672 -0.0145
 8026SOL    HW124898   5.510   3.986   5.490  0.5811  0.3563  3.2327
 8026SOL    HW224899   5.564   4.138   5.462 -0.5240  0.0230 -1.3575
 8027SOL     OW24900   5.128   5.104   2.961  0.6333 -0.4858 -0.1233
 8027SOL    HW124901   5.118   5.100   2.861 -0.6988  0.5836 -0.0654
 8027SOL    HW224902   5.104   5.015   3.000 -0.7407 -0.3785 -0.6562
 8028SOL     OW24903   1.543   5.262   2.412 -0.1962 -0.3949  0.1900
 8028SOL    HW124904   1.557   5.178   2.465  0.0683  0.8937  2.2459
 8028SOL    HW224905   1.449   5.265   2.379 -0.3699 -1.2259  0.5644
 8029SOL     OW24906   4.077   2.075   6.427 -0.0412 -0.5056  0.2037
 8029SOL    HW124907   4.066   2.032   6.516 -1.5437 -0.5139  0.0318
 8029SOL    HW224908   4.166   2.049   6.389 -0.0932 -1.8751  0.9490
 8030SOL     OW24909   6.021   0.501   5.345  0.2031 -0.7607  0.2466
 8030SOL    HW124910   6.008   0.424   5.407 -0.3192 -1.5627 -0.8175
 8030SOL    HW224911   5.996   0.474   5.252  0.2658  0.6188 -0.2054
 8031SOL     OW24912   2.775   3.055   0.598  0.2034 -0.2612 -0.4198
 8031SOL    HW124913   2.697   2.995   0.576  0.6208 -0.9255 -0.1201
 8031SOL    HW224914   2.794   3.050   0.696 -0.9645  1.8531 -0.0262
 8032SOL     OW24915   6.220   3.993   2.921  0.3942  1.1186  0.2869
 8032SOL    HW124916   6.232   4.045   3.006  0.5207  0.5513  0.6181
 8032SOL    HW224917   6.307   3.985   2.874  0.5959  0.2127  0.8148
 8033SOL     OW24918   6.322   6.479   0.472 -0.2563  0.3425 -0.2291
 8033SOL    HW124919   6.293   6.389   0.441 -1.6465  0.9845 -0.8940
 8033SOL    HW224920   6.252   6.546   0.449 -0.0272  1.3299  1.7713
 8034SOL     OW24921   2.962   3.054   3.634 -1.2899  0.2079 -0.5002
 8034SOL    HW124922   2.893   3.056   3.562 -1.0369 -0.2595 -0.7654
 8034SOL    HW224923   2.948   2.973   3.692 -0.1554 -0.6728 -1.3917
 8035SOL     OW24924   5.184   4.681   3.618  0.4890 -0.0942 -0.5815
 8035SOL    HW124925   5.222   4.765   3.656  1.8447 -1.2850  0.8039
 8035SOL    HW224926   5.255   4.632   3.566 -0.9518  0.8418 -3.7366
 8036SOL     OW24927   4.012   1.481   3.952  0.3546  1.3207 -0.1892
 8036SOL    HW124928   3.999   1.416   4.026 -0.6185  0.0486 -1.4026
 8036SOL    HW224929   4.100   1.463   3.907  0.6686  1.6910  0.2710
 8037SOL     OW24930   4.525   2.356   4.870  0.0148  0.1128  0.0491
 8037SOL    HW124931   4.501   2.325   4.962  1.2880 -0.1515  0.3036
 8037SOL    HW224932   4.532   2.277   4.809  2.5176 -0.0999  0.5215
 8038SOL     OW24933   0.101   3.979   5.432  0.1618  0.2705 -0.4271
 8038SOL    HW124934   0.176   3.919   5.403 -1.3645 -2.1378  0.2706
 8038SOL    HW224935   0.130   4.035   5.509  1.4620 -0.0055 -0.6916
 8039SOL     OW24936   1.356   3.277   6.296 -0.0598 -0.5961 -0.1544
 8039SOL    HW124937   1.314   3.344   6.236 -0.1351  0.0956  0.6371
 8039SOL    HW224938   1.378   3.320   6.384 -0.8252 -1.7939  0.6607
 8040SOL     OW24939   5.208   1.284   5.068 -0.2657 -0.1058 -0.3382
 8040SOL    HW124940   5.225   1.289   4.970  1.9501  0.7028  0.0208
 8040SOL    HW224941   5.287   1.241   5.113  0.7123  3.2718  1.4945
 8041SOL     OW24942   4.498   2.700   2.805  0.3132  0.2133 -0.2805
 8041SOL    HW124943   4.585   2.731   2.766 -0.7910  2.4460 -1.1304
 8041SOL    HW224944   4.494   2.727   2.902  0.2870  0.7251 -0.4229
 8042SOL     OW24945   0.593   6.655   4.536  0.4217 -0.0561 -0.3242
 8042SOL    HW124946   0.573   6.746   4.574  0.8106  0.1271 -0.5531
 8042SOL    HW224947   0.602   6.589   4.610 -0.7680 -0.0936 -0.1973
 8043SOL     OW24948   6.593   4.047   1.777  0.2447  0.2235  0.0108
 8043SOL    HW124949   6.666   4.109   1.748 -0.5852 -0.3891 -3.9184
 8043SOL    HW224950   6.507   4.097   1.786  0.1817  0.1398 -0.1102
 8044SOL     OW24951   6.198   3.111   2.758 -0.2540  0.5295 -0.4543
 8044SOL    HW124952   6.174   3.139   2.851  0.4123 -2.0468  0.5930
 8044SOL    HW224953   6.115   3.092   2.705 -0.7005 -1.2439  0.7701
 8045SOL     OW24954   2.665   5.156   6.212 -0.0088 -0.1926  0.2579
 8045SOL    HW124955   2.696   5.140   6.306 -0.5909 -0.4525  0.4128
 8045SOL    HW224956   2.685   5.250   6.186 -0.1181 -0.0341  0.7447
 8046SOL     OW24957   2.196   6.653   6.021 -0.1844 -0.2700  0.0738
 8046SOL    HW124958   2.117   6.678   5.966 -0.7994  0.2838  1.1534
 8046SOL    HW224959   2.198   6.554   6.034 -1.0789 -0.2455  0.5296
 8047SOL     OW24960   0.883   0.203   1.462 -0.2169  0.2719 -0.5900
 8047SOL    HW124961   0.858   0.265   1.388  1.3492 -1.1224 -2.4008
 8047SOL    HW224962   0.828   0.224   1.543 -2.1788  1.7029 -2.1776
 8048SOL     OW24963   3.790   0.918   5.582 -0.5354 -0.6531  0.1392
 8048SOL    HW124964   3.797   0.980   5.659  0.9771 -0.3000 -0.2543
 8048SOL    HW224965   3.694   0.888   5.571 -0.9745  0.2463  1.3649
 8049SOL     OW24966   1.634   4.983   2.445  0.2173  0.6642 -0.3393
 8049SOL    HW124967   1.711   4.950   2.499  0.3673  0.0659 -0.8930
 8049SOL    HW224968   1.581   4.904   2.412 -1.5773  1.0876  1.3508
 8050SOL     OW24969   2.794   2.941   3.413  0.0710  0.1061  0.2394
 8050SOL    HW124970   2.783   2.841   3.410  0.7832  0.0202  0.4419
 8050SOL    HW224971   2.714   2.984   3.372 -1.2003 -0.4983  1.9294
 8051SOL     OW24972   2.137   0.859   4.166 -0.1581 -0.2152  0.3137
 8051SOL    HW124973   2.042   0.856   4.197  0.1122 -0.0632  1.1889
 8051SOL    HW224974   2.198   0.850   4.245  0.5923  2.7211  0.1906
 8052SOL     OW24975   0.412   6.667   2.885 -0.0278  0.0475  0.2219
 8052SOL    HW124976   0.342   6.685   2.954  1.3568 -0.1984  1.7260
 8052SOL    HW224977   0.502   6.672   2.927  0.7761 -1.9501 -1.1454
 8053SOL     OW24978   1.800   3.632   5.498  0.4591 -0.3590 -0.5327
 8053SOL    HW124979   1.795   3.567   5.422  0.6366  0.3003 -1.1104
 8053SOL    HW224980   1.805   3.582   5.584 -3.4952 -1.2276 -0.6076
 8054SOL     OW24981   1.070   5.682   0.083 -0.0194  0.4268 -1.0089
 8054SOL    HW124982   1.143   5.683   0.151 -0.2049  0.9218 -0.8083
 8054SOL    HW224983   1.032   5.774   0.074 -0.8399  0.1097 -0.8617
 8055SOL     OW24984   5.342   2.613   4.668  0.2333 -0.2798 -0.3055
 8055SOL    HW124985   5.379   2.522   4.647 -0.7156 -0.2209 -2.3688
 8055SOL    HW224986   5.417   2.673   4.694  1.1016 -1.1781 -0.6633
 8056SOL     OW24987   4.519   2.518   5.976  0.0079 -0.6437 -0.0073
 8056SOL    HW124988   4.504   2.422   5.998 -1.2180 -0.0886  1.8126
 8056SOL    HW224989   4.616   2.534   5.958  0.3453 -2.0570  0.4634
 8057SOL     OW24990   1.682   6.687   6.978 -0.1046 -0.0183 -0.5536
 8057SOL    HW124991   1.771   6.729   6.963 -0.3030  0.6466  0.0807
 8057SOL    HW224992   1.613   6.758   6.991 -0.4408 -0.5215  0.5501
 8058SOL     OW24993   6.185   2.739   5.889 -0.0320  0.5242  0.0621
 8058SOL    HW124994   6.108   2.727   5.950  0.5846 -1.6631  0.5036
 8058SOL    HW224995   6.240   2.655   5.887  0.0111  0.4776 -3.4299
 8059SOL     OW24996   3.951   3.884   0.636 -0.0049  0.2724 -0.7009
 8059SOL    HW124997   3.857   3.882   0.603 -0.3307  1.1022  0.1572
 8059SOL    HW224998   3.954   3.855   0.732  0.5952  0.3936 -0.6802
 8060SOL     OW24999   6.431   5.470   4.208 -0.1507 -0.3171 -0.0138
 8060SOL    HW125000   6.467   5.551   4.256 -0.7828 -1.0840  1.8765
 8060SOL    HW225001   6.422   5.395   4.274 -1.5148 -1.3046 -1.2825
 8061SOL     OW25002   0.925   4.201   5.888  0.8591 -1.0063 -0.9972
 8061SOL    HW125003   0.999   4.168   5.947  0.5709  1.4672  0.9165
 8061SOL    HW225004   0.946   4.293   5.856 -1.0214 -0.5513 -1.0610
 8062SOL     OW25005   2.149   0.128   1.213 -0.1508  0.4023 -0.2956
 8062SOL    HW125006   2.094   0.124   1.296 -0.5833 -1.7039 -0.6418
 8062SOL    HW225007   2.139   0.218   1.171 -2.1342  0.5752  0.4522
 8063SOL     OW25008   6.154   3.343   2.280  0.3271  0.0256 -0.0851
 8063SOL    HW125009   6.075   3.396   2.311  2.0524  2.3311  0.7000
 8063SOL    HW225010   6.207   3.312   2.359  0.2065 -1.5282 -0.5916
 8064SOL     OW25011   2.757   0.114   5.910 -0.4436  0.2292  0.2251
 8064SOL    HW125012   2.786   0.030   5.956  0.9714  1.2319  1.1617
 8064SOL    HW225013   2.783   0.109   5.814  2.1433  0.6619  0.8217
 8065SOL     OW25014   6.975   2.059   3.644  0.0316 -0.3073 -0.0705
 8065SOL    HW125015   7.009   2.024   3.731 -1.9624  0.8175  1.2196
 8065SOL    HW225016   6.901   2.000   3.610  0.5904 -0.5707 -0.8645
 8066SOL     OW25017   6.077   2.806   0.524  0.4225  0.0457  0.2638
 8066SOL    HW125018   6.091   2.810   0.425  0.3582  0.0346  0.2536
 8066SOL    HW225019   6.161   2.778   0.570  0.2891 -0.5425  0.1671
 8067SOL     OW25020   0.231   0.902   5.258  0.3846 -0.3449  0.1883
 8067SOL    HW125021   0.236   0.968   5.183 -1.0747  1.3710  1.4922
 8067SOL    HW225022   0.212   0.950   5.344 -3.2162 -2.5264  0.8692
 8068SOL     OW25023   0.109   5.796   0.830  0.1528  0.0644  0.6815
 8068SOL    HW125024   0.150   5.850   0.903 -1.8527  0.2798  1.6960
 8068SOL    HW225025   0.058   5.719   0.868 -2.0018  0.8896 -0.3350
 8069SOL     OW25026   4.452   3.596   4.577 -0.5529 -0.0253  0.2795
 8069SOL    HW125027   4.384   3.658   4.538 -0.7738  0.6724  1.6987
 8069SOL    HW225028   4.513   3.563   4.505 -0.0314  2.3429 -0.4506
 8070SOL     OW25029   2.447   6.142   0.160 -0.5594  0.0228 -0.2084
 8070SOL    HW125030   2.504   6.224   0.149 -1.2511  0.5878  0.3157
 8070SOL    HW225031   2.372   6.146   0.094 -0.2453 -0.5029 -0.6003
 8071SOL     OW25032   6.279   1.343   2.099  0.2322  0.2413  0.4965
 8071SOL    HW125033   6.259   1.364   2.004  0.9372  0.5828  0.4161
 8071SOL    HW225034   6.318   1.423   2.144  0.5832 -0.1377  0.8736
 8072SOL     OW25035   6.229   1.225   0.557  0.1807 -0.5203  0.2771
 8072SOL    HW125036   6.191   1.277   0.481 -0.3513 -0.8732  0.2993
 8072SOL    HW225037   6.155   1.200   0.620  0.7709  0.9014  1.6027
 8073SOL     OW25038   2.095   2.721   2.717 -0.3893 -0.2234  0.3347
 8073SOL    HW125039   2.175   2.748   2.771 -0.6144  1.5711 -0.1554
 8073SOL    HW225040   2.124   2.684   2.629 -0.0588  0.8746 -0.0455
 8074SOL     OW25041   4.798   3.351   6.159 -0.3170  0.1755 -0.2901
 8074SOL    HW125042   4.751   3.376   6.075 -2.6345 -1.5719  0.3739
 8074SOL    HW225043   4.785   3.423   6.227  0.0485  0.7917 -0.8643
 8075SOL     OW25044   6.088   0.757   0.589 -0.4210  0.1680 -0.9929
 8075SOL    HW125045   6.064   0.695   0.514  1.1937 -1.6219 -0.1145
 8075SOL    HW225046   6.187   0.753   0.605 -0.6224  1.0826  0.7361
 8076SOL     OW25047   0.649   1.904   4.588 -0.1390  0.0217  0.0948
 8076SOL    HW125048   0.630   1.833   4.521 -1.4558  0.0304  0.4317
 8076SOL    HW225049   0.629   1.994   4.548 -2.1955 -0.0413  0.8632
 8077SOL     OW25050   2.965   6.770   1.869  0.3630  0.0920  0.4214
 8077SOL    HW125051   2.915   6.773   1.782 -0.4908 -3.3382  0.6442
 8077SOL    HW225052   2.900   6.773   1.945  0.7907 -0.5217  0.8221
 8078SOL     OW25053   1.554   5.645   0.044 -0.7871  0.4604  0.2235
 8078SOL    HW125054   1.532   5.712  -0.026 -0.3291  3.1476  2.5208
 8078SOL    HW225055   1.653   5.643   0.059 -0.9186  0.4244  1.2229
 8079SOL     OW25056   6.459   5.441   0.214 -0.1324  0.0710 -0.1837
 8079SOL    HW125057   6.502   5.526   0.183 -0.3709  0.3435  0.2184
 8079SOL    HW225058   6.390   5.412   0.148 -0.0202  0.1679 -0.3456
 8080SOL     OW25059   5.291   3.055   5.453  0.3163 -0.5814  0.0956
 8080SOL    HW125060   5.369   3.056   5.390  0.2389  1.1297 -0.0322
 8080SOL    HW225061   5.227   3.128   5.427 -1.5843 -2.2484 -0.1053
 8081SOL     OW25062   4.440   0.783   1.028  0.2820  0.4108 -0.0378
 8081SOL    HW125063   4.430   0.883   1.027 -1.6866  0.2779  0.9096
 8081SOL    HW225064   4.351   0.741   1.014  1.4708 -1.3304 -3.6775
 8082SOL     OW25065   1.828   0.289   5.776  0.0345 -0.2444 -0.1083
 8082SOL    HW125066   1.774   0.371   5.759 -1.5508 -0.9389  1.2881
 8082SOL    HW225067   1.887   0.304   5.855 -1.8570 -1.0688  1.5624
 8083SOL     OW25068   6.572   5.604   6.361  1.1085  0.2730  0.0880
 8083SOL    HW125069   6.507   5.673   6.329  0.6903 -0.9091 -1.7289
 8083SOL    HW225070   6.608   5.553   6.283  2.4441 -0.6681  1.2718
 8084SOL     OW25071   1.060   2.381   6.330 -0.0793  0.1906  0.0035
 8084SOL    HW125072   0.967   2.383   6.367 -0.0440  0.5194  0.0723
 8084SOL    HW225073   1.118   2.444   6.382 -0.0403  0.7056 -0.6461
 8085SOL     OW25074   1.112   1.993   4.555 -0.4195 -0.0376 -0.0286
 8085SOL    HW125075   1.047   1.926   4.591 -1.2572  1.3422  1.1807
 8085SOL    HW225076   1.199   1.948   4.535 -0.8812 -1.4416  0.9601
 8086SOL     OW25077   5.486   1.167   3.551 -0.2233 -0.5044 -0.2664
 8086SOL    HW125078   5.464   1.255   3.594 -1.0428 -0.8158 -0.0451
 8086SOL    HW225079   5.451   1.168   3.457 -0.1096 -0.5386 -0.3084
 8087SOL     OW25080   5.773   5.757   5.983 -0.1255  0.3125  0.2731
 8087SOL    HW125081   5.689   5.712   5.952 -0.7417  1.2584  0.5367
 8087SOL    HW225082   5.835   5.769   5.905 -0.4163  0.0032 -0.0094
 8088SOL     OW25083   4.661   1.587   6.359  0.1167 -0.1140  0.1171
 8088SOL    HW125084   4.709   1.538   6.432  1.1513 -0.2360 -0.6242
 8088SOL    HW225085   4.727   1.616   6.290 -0.9418 -0.6731 -1.1638
 8089SOL     OW25086   3.564   4.547   1.108  0.3116 -0.2425 -0.3426
 8089SOL    HW125087   3.632   4.617   1.129 -1.3529  1.6080 -0.8068
 8089SOL    HW225088   3.523   4.565   1.019 -1.9333 -0.2853  0.6059
 8090SOL     OW25089   4.426   6.794   3.761  0.0303  0.0013 -0.1594
 8090SOL    HW125090   4.517   6.777   3.799  0.2820 -0.4177 -0.9105
 8090SOL    HW225091   4.372   6.849   3.824  0.0351 -1.6035  1.3209
 8091SOL     OW25092   6.983   3.870   0.148  0.2214  0.4391  0.0186
 8091SOL    HW125093   7.012   3.784   0.191  1.4294  1.0333  0.4131
 8091SOL    HW225094   7.019   3.875   0.055 -1.5131 -0.3333 -0.7511
 8092SOL     OW25095   1.737   6.026   2.547 -0.0497  0.2577 -0.6860
 8092SOL    HW125096   1.722   6.038   2.449  0.8507  0.1454 -0.8469
 8092SOL    HW225097   1.835   6.016   2.565 -0.1648  0.7874  0.2878
 8093SOL     OW25098   4.963   1.343   4.308 -0.3712 -0.1826  0.2329
 8093SOL    HW125099   4.924   1.325   4.398  0.8434  0.4745  0.9092
 8093SOL    HW225100   4.901   1.403   4.257 -1.5599 -1.3900  0.2112
 8094SOL     OW25101   1.020   4.304   3.892 -0.0530 -0.0355  0.5190
 8094SOL    HW125102   0.923   4.313   3.915  0.3065  0.5638  1.8734
 8094SOL    HW225103   1.069   4.266   3.970  1.5197  3.6810  1.5698
 8095SOL     OW25104   1.384   5.152   5.547  0.0203 -0.2306  0.0474
 8095SOL    HW125105   1.379   5.206   5.463  0.5627  0.6434  0.5609
 8095SOL    HW225106   1.320   5.076   5.541  0.7060 -0.7419 -1.5641
 8096SOL     OW25107   0.003   2.015   2.165  0.0206  0.4809  0.4480
 8096SOL    HW125108   0.043   2.056   2.248 -0.0045 -0.7210  1.0701
 8096SOL    HW225109   0.073   1.962   2.117  0.3413  2.0813 -0.9469
 8097SOL     OW25110   2.383   1.151   5.694  0.2181 -0.3384  0.4788
 8097SOL    HW125111   2.390   1.053   5.676 -2.9229 -0.4956 -0.5862
 8097SOL    HW225112   2.339   1.165   5.783 -2.6975 -0.1082 -0.8828
 8098SOL     OW25113   1.494   0.306   6.882 -0.4437 -0.5246 -0.3539
 8098SOL    HW125114   1.498   0.244   6.805 -1.9520 -0.7762 -0.2782
 8098SOL    HW225115   1.511   0.256   6.967  0.1809 -0.4619 -0.4412
 8099SOL     OW25116   0.462   3.831   3.540  0.6120  0.0927 -0.3959
 8099SOL    HW125117   0.460   3.889   3.458 -0.2205  0.9676  0.2314
 8099SOL    HW225118   0.408   3.873   3.612 -0.4558 -1.7223 -0.0819
 8100SOL     OW25119   1.264   4.036   5.248  0.3901  0.4091  0.1269
 8100SOL    HW125120   1.263   3.979   5.166 -0.3538 -1.1465  1.1734
 8100SOL    HW225121   1.359   4.051   5.277  0.5865 -0.7531  0.1265
 8101SOL     OW25122   3.040   1.504   2.255 -0.4900  0.5094 -0.2350
 8101SOL    HW125123   3.112   1.572   2.239 -0.7325  0.6345 -0.8045
 8101SOL    HW225124   3.003   1.473   2.168 -0.4179 -0.3193  0.0207
 8102SOL     OW25125   6.698   2.916   3.285  0.2835  0.0129  0.1476
 8102SOL    HW125126   6.662   2.974   3.213 -1.2263  0.3045  1.0809
 8102SOL    HW225127   6.790   2.946   3.310 -0.8459  2.8097  1.3794
 8103SOL     OW25128   2.135   0.286   1.875  0.7081 -0.0004 -0.0518
 8103SOL    HW125129   2.096   0.194   1.884  1.9905 -0.7537 -1.5705
 8103SOL    HW225130   2.212   0.296   1.938  1.1450 -0.3243 -0.5205
 8104SOL     OW25131   5.896   6.834   4.723  0.0639  0.5835  0.3278
 8104SOL    HW125132   5.882   6.737   4.745  0.6340  0.1366 -1.2019
 8104SOL    HW225133   5.947   6.842   4.638 -0.9800  2.2483 -0.1841
 8105SOL     OW25134   2.316   4.188   2.229 -0.5597 -0.2696 -1.2757
 8105SOL    HW125135   2.272   4.270   2.192  1.6299  1.4325 -0.2899
 8105SOL    HW225136   2.279   4.168   2.320  0.1809  0.7585 -0.7310
 8106SOL     OW25137   3.903   5.681   6.541  0.0114 -0.0558 -0.6538
 8106SOL    HW125138   3.950   5.713   6.458  0.3296  1.9977  0.2534
 8106SOL    HW225139   3.885   5.759   6.601 -0.4077 -1.4545  1.1264
 8107SOL     OW25140   4.404   4.664   0.515  0.0302  0.4081 -0.0165
 8107SOL    HW125141   4.340   4.600   0.472  0.4080  1.3012 -2.0290
 8107SOL    HW225142   4.353   4.742   0.551 -0.1150  0.6852 -0.8015
 8108SOL     OW25143   6.327   1.118   2.529 -0.6734  0.2927  0.3290
 8108SOL    HW125144   6.295   1.038   2.479 -0.0764 -0.4139  1.0521
 8108SOL    HW225145   6.414   1.149   2.490 -0.9281  0.6184  0.0188
 8109SOL     OW25146   1.300   0.892   2.448 -0.0873 -0.2006  0.3319
 8109SOL    HW125147   1.391   0.885   2.406  0.2395  0.5000  0.9065
 8109SOL    HW225148   1.297   0.972   2.508 -1.0015 -0.3716  0.5229
 8110SOL     OW25149   5.930   5.458   0.188 -0.6062  0.0151 -0.1039
 8110SOL    HW125150   6.024   5.423   0.196 -0.6010  0.0986  0.2085
 8110SOL    HW225151   5.894   5.475   0.279 -0.5283  1.0550 -0.2565
 8111SOL     OW25152   4.618   6.979   2.160  0.0276 -0.7012  0.0605
 8111SOL    HW125153   4.527   6.960   2.197  0.0526 -2.7889 -0.8155
 8111SOL    HW225154   4.611   7.004   2.063  0.2253  1.7235  0.5982
 8112SOL     OW25155   3.095   6.134   3.930 -0.1819 -0.5975 -0.0087
 8112SOL    HW125156   3.155   6.208   3.898  0.3324 -1.3092 -0.7182
 8112SOL    HW225157   3.103   6.126   4.029  0.2643 -0.1330  0.0023
 8113SOL     OW25158   0.568   4.215   4.925 -0.2835  0.3319 -0.0334
 8113SOL    HW125159   0.602   4.309   4.922 -0.7460  0.6190  2.1855
 8113SOL    HW225160   0.639   4.155   4.960 -0.3996  0.0750 -0.2405
 8114SOL     OW25161   4.863   1.055   2.694 -1.0157 -0.0683  0.3928
 8114SOL    HW125162   4.905   0.965   2.691 -0.4128  0.2224 -0.2454
 8114SOL    HW225163   4.793   1.062   2.622 -1.6514 -0.3018  0.9771
 8115SOL     OW25164   3.512   1.980   5.984 -1.0530 -0.6844 -0.3724
 8115SOL    HW125165   3.543   1.944   5.896 -0.9273 -2.6051  0.4090
 8115SOL    HW225166   3.422   1.942   6.005 -0.8399 -0.6974  0.5747
 8116SOL     OW25167   3.528   6.737   5.214 -0.3514  0.5080  0.3018
 8116SOL    HW125168   3.493   6.788   5.292 -0.0653  0.5710  0.3903
 8116SOL    HW225169   3.513   6.790   5.130 -1.4335  0.0688  0.2024
 8117SOL     OW25170   4.702   6.519   6.505 -0.4673 -0.0144 -0.1686
 8117SOL    HW125171   4.776   6.557   6.561 -1.9614 -0.8576  2.5175
 8117SOL    HW225172   4.741   6.455   6.438  1.4380  1.5253 -0.6215
 8118SOL     OW25173   4.114   4.874   4.166 -0.2459 -0.4441 -0.1906
 8118SOL    HW125174   4.022   4.891   4.201 -0.3570 -1.2375 -0.0502
 8118SOL    HW225175   4.120   4.908   4.072  0.0132  1.5885  0.5338
 8119SOL     OW25176   3.471   6.654   3.652 -0.2460  0.1339  0.0959
 8119SOL    HW125177   3.511   6.575   3.699 -0.0059  0.4408  0.4060
 8119SOL    HW225178   3.420   6.622   3.572 -0.5763 -0.3850  0.4992
 8120SOL     OW25179   1.176   5.428   6.189 -0.2015 -0.1043 -0.7071
 8120SOL    HW125180   1.212   5.367   6.260 -1.0751 -0.5833 -0.6618
 8120SOL    HW225181   1.225   5.413   6.104  2.4208  2.0349  0.2810
 8121SOL     OW25182   3.594   5.005   2.272 -0.3704 -0.5135  0.2326
 8121SOL    HW125183   3.640   5.076   2.325 -2.2695 -0.2219  1.6181
 8121SOL    HW225184   3.536   4.951   2.333 -0.5035 -1.9842 -1.1306
 8122SOL     OW25185   4.505   5.512   3.230 -0.5666  0.3889 -0.1456
 8122SOL    HW125186   4.452   5.581   3.279  1.0723  2.5739 -1.2277
 8122SOL    HW225187   4.517   5.431   3.288 -0.1387  2.1527  2.4115
 8123SOL     OW25188   0.003   2.531   0.710 -0.4236 -0.2427  0.0174
 8123SOL    HW125189  -0.080   2.481   0.733 -1.3628  1.2875  0.0530
 8123SOL    HW225190   0.034   2.504   0.619 -1.4039 -0.3065 -0.3159
 8124SOL     OW25191   1.892   6.938   1.628  0.2824  0.3692  0.4476
 8124SOL    HW125192   1.825   6.905   1.562  0.4518  1.7557 -0.4547
 8124SOL    HW225193   1.845   6.960   1.714 -0.3698  0.9898 -0.0571
 8125SOL     OW25194   5.150   2.603   5.431  0.1535 -0.4436 -0.3333
 8125SOL    HW125195   5.120   2.591   5.525 -1.3082  0.6018 -0.6396
 8125SOL    HW225196   5.083   2.656   5.380  1.3165 -0.2533 -1.7579
 8126SOL     OW25197   4.317   2.709   0.270  0.5463 -0.5883  0.6622
 8126SOL    HW125198   4.369   2.768   0.332  0.0192 -0.4768  1.0028
 8126SOL    HW225199   4.343   2.729   0.175  1.1018 -0.5156  0.8330
 8127SOL     OW25200   3.213   5.238   4.331 -0.0079  0.3329 -0.7809
 8127SOL    HW125201   3.137   5.225   4.267  0.1575  0.2667 -0.9687
 8127SOL    HW225202   3.277   5.162   4.322  0.0580  0.3647 -0.5912
 8128SOL     OW25203   4.978   1.397   1.604 -0.1143 -0.4101  0.1004
 8128SOL    HW125204   5.042   1.326   1.575 -1.2041 -1.0497 -0.8695
 8128SOL    HW225205   5.011   1.440   1.688  2.0185 -0.0969 -0.8066
 8129SOL     OW25206   2.947   5.929   4.666 -0.0465  0.6516 -0.6483
 8129SOL    HW125207   3.005   5.931   4.584 -0.8406  1.4276 -1.2108
 8129SOL    HW225208   2.945   5.836   4.703 -0.7535 -0.0306 -2.3071
 8130SOL     OW25209   4.356   5.101   0.458 -0.4290 -0.2990  0.0264
 8130SOL    HW125210   4.384   5.176   0.519 -0.7930  0.0790 -0.2603
 8130SOL    HW225211   4.312   5.140   0.377 -1.3494 -0.8628  0.2460
 8131SOL     OW25212   3.558   1.110   1.529  0.9209 -0.2840 -0.1527
 8131SOL    HW125213   3.480   1.058   1.563  0.9767 -0.6120 -0.5126
 8131SOL    HW225214   3.633   1.048   1.509  0.0134 -0.5572 -3.4891
 8132SOL     OW25215   1.563   2.770   1.358  0.4196 -0.0445  0.1666
 8132SOL    HW125216   1.619   2.822   1.293  0.2433 -1.3031 -1.0481
 8132SOL    HW225217   1.517   2.833   1.420  2.2635  1.0949  0.4652
 8133SOL     OW25218   6.405   4.741   3.787  0.1858 -0.4356  0.1279
 8133SOL    HW125219   6.465   4.811   3.750  0.5136 -1.0281 -0.4938
 8133SOL    HW225220   6.437   4.651   3.756 -0.4199 -0.8288  0.6366
 8134SOL     OW25221   3.258   0.166   4.904 -0.1414 -0.5132  0.5743
 8134SOL    HW125222   3.268   0.069   4.922  2.1574  0.1310  3.6919
 8134SOL    HW225223   3.217   0.211   4.984  0.8223  1.3437  0.0980
 8135SOL     OW25224   1.089   4.104   0.218  0.2951 -0.8229  0.0523
 8135SOL    HW125225   1.133   4.017   0.197  1.6512 -0.3285  0.7220
 8135SOL    HW225226   1.129   4.143   0.301  0.2923  0.8299 -0.6717
 8136SOL     OW25227   6.173   2.104   5.605 -0.0440 -0.9023 -0.2089
 8136SOL    HW125228   6.089   2.158   5.598  0.9857  0.6333 -1.1462
 8136SOL    HW225229   6.225   2.135   5.685 -0.6323 -2.2990  0.7627
 8137SOL     OW25230   5.498   1.488   1.384  0.0437 -0.0372 -0.1853
 8137SOL    HW125231   5.454   1.500   1.473 -1.7618 -0.8469 -0.9037
 8137SOL    HW225232   5.526   1.393   1.374 -0.4668 -0.1356 -0.7607
 8138SOL     OW25233   5.095   4.479   6.458 -0.0210  0.1195 -0.2741
 8138SOL    HW125234   5.035   4.407   6.491  1.0083 -0.5493  0.1526
 8138SOL    HW225235   5.163   4.440   6.396  0.8669  0.6415  0.3698
 8139SOL     OW25236   6.067   2.373   3.235  0.4378  0.3519  0.2827
 8139SOL    HW125237   6.004   2.390   3.311 -0.2028  0.1605 -0.1997
 8139SOL    HW225238   6.050   2.282   3.197  1.0716  0.2562  0.2021
 8140SOL     OW25239   4.834   6.559   2.557 -0.3527 -0.1963 -0.1900
 8140SOL    HW125240   4.827   6.647   2.510 -1.4730 -0.5374 -0.6990
 8140SOL    HW225241   4.929   6.543   2.583 -0.0779  1.0056 -0.3815
 8141SOL     OW25242   2.061   6.539   0.376  0.1271  0.2580 -0.4026
 8141SOL    HW125243   2.109   6.617   0.417  0.9838 -2.0797  3.3722
 8141SOL    HW225244   2.127   6.476   0.335 -0.5036  0.9007 -2.5744
 8142SOL     OW25245   0.009   3.779   4.649 -0.0202 -0.4231 -0.0210
 8142SOL    HW125246  -0.059   3.730   4.703 -0.0271 -0.6320 -0.2516
 8142SOL    HW225247   0.042   3.858   4.700 -1.8644  0.8377 -0.6273
 8143SOL     OW25248   4.533   1.101   3.804 -0.2975  0.1967  0.1843
 8143SOL    HW125249   4.586   1.022   3.776 -1.7554 -0.6306 -0.3710
 8143SOL    HW225250   4.438   1.091   3.772 -0.3227  2.6036 -0.7192
 8144SOL     OW25251   1.324   6.426   0.820 -0.2844 -0.0592  0.0507
 8144SOL    HW125252   1.316   6.408   0.722 -1.0046  0.0561  0.0838
 8144SOL    HW225253   1.322   6.339   0.870  3.4937 -0.4629 -0.2009
 8145SOL     OW25254   6.933   4.306   2.618  0.5697 -0.4010  0.0591
 8145SOL    HW125255   6.891   4.324   2.529  3.0631  1.3609 -0.8932
 8145SOL    HW225256   6.951   4.208   2.626 -1.2699 -0.8341 -0.5641
 8146SOL     OW25257   0.082   6.814   5.190  0.3711  0.0185 -0.5389
 8146SOL    HW125258   0.160   6.751   5.183  0.6674  0.1902  0.9108
 8146SOL    HW225259   0.061   6.829   5.286  0.6208  2.5545 -0.8345
 8147SOL     OW25260   4.110   5.244   5.162 -0.4207  0.5469 -0.1168
 8147SOL    HW125261   4.152   5.162   5.124  0.5743  0.7793  0.4279
 8147SOL    HW225262   4.153   5.325   5.123  1.1323  0.8008  1.9141
 8148SOL     OW25263   0.453   1.399   2.227  0.8761  0.5011  0.2255
 8148SOL    HW125264   0.446   1.360   2.319 -0.2924  0.3432  0.0815
 8148SOL    HW225265   0.489   1.329   2.164 -1.8827 -0.7008 -0.1780
 8149SOL     OW25266   2.181   2.322   6.080  0.2772  0.1709  0.0131
 8149SOL    HW125267   2.150   2.242   6.029 -2.0139 -0.1643  1.7630
 8149SOL    HW225268   2.212   2.293   6.171  0.0951  1.2059  0.4200
 8150SOL     OW25269   3.941   4.821   4.897 -0.3891  0.1734  0.6269
 8150SOL    HW125270   3.908   4.754   4.963  0.5794 -0.6270  0.3301
 8150SOL    HW225271   3.943   4.912   4.940 -3.0972  0.3453  0.5873
 8151SOL     OW25272   3.129   6.250   1.084  0.2330 -0.2571 -0.1108
 8151SOL    HW125273   3.058   6.235   1.153 -0.2473  1.6890 -0.1086
 8151SOL    HW225274   3.091   6.235   0.993  0.3677 -1.0610 -0.0439
 8152SOL     OW25275   5.256   1.727   6.738  0.5510 -0.0565  0.0095
 8152SOL    HW125276   5.177   1.683   6.780  2.2801 -3.4507 -0.0046
 8152SOL    HW225277   5.336   1.716   6.797  1.6773  0.6152 -1.3126
 8153SOL     OW25278   5.637   3.466   2.795 -0.0333  0.0837 -0.1539
 8153SOL    HW125279   5.711   3.531   2.778  1.2996 -1.4394 -0.4297
 8153SOL    HW225280   5.571   3.470   2.720  0.1311  0.9556 -0.2637
 8154SOL     OW25281   0.189   6.455   4.832 -0.1632  0.2593  0.4500
 8154SOL    HW125282   0.136   6.515   4.772 -1.8995  0.5460  2.1409
 8154SOL    HW225283   0.276   6.499   4.854 -0.3263  1.0025 -0.3207
 8155SOL     OW25284   4.916   5.538   0.036  0.1229 -0.1107 -0.5699
 8155SOL    HW125285   4.975   5.617   0.051 -0.3307  0.3050 -0.9180
 8155SOL    HW225286   4.963   5.455   0.065  0.2939  0.3735  0.5702
 8156SOL     OW25287   2.840   1.804   1.838 -0.1724 -0.1411  0.1086
 8156SOL    HW125288   2.879   1.774   1.751  1.2066  1.2269  0.2287
 8156SOL    HW225289   2.820   1.902   1.834 -1.4199 -0.3354  0.8760
 8157SOL     OW25290   1.454   4.521   6.410 -0.3875 -0.1105  0.3392
 8157SOL    HW125291   1.516   4.593   6.441 -0.1431 -0.0643 -0.2282
 8157SOL    HW225292   1.426   4.464   6.487 -1.2729  1.1061  0.9517
 8158SOL     OW25293   1.469   4.234   0.014 -0.5358 -0.5737 -0.6984
 8158SOL    HW125294   1.430   4.245   0.106  2.5160 -0.5088  0.7300
 8158SOL    HW225295   1.490   4.138  -0.002 -0.9326 -0.5647 -1.3189
 8159SOL     OW25296   5.271   4.697   0.375 -0.1477 -0.1916 -0.4327
 8159SOL    HW125297   5.179   4.706   0.413 -0.4407  0.3661 -1.2483
 8159SOL    HW225298   5.283   4.606   0.336  0.1555 -0.7732  0.9646
 8160SOL     OW25299   3.073   0.679   0.383 -0.1932  0.3105 -0.0778
 8160SOL    HW125300   3.041   0.722   0.467 -0.7022 -1.2376  0.5745
 8160SOL    HW225301   3.000   0.682   0.314 -0.8347 -0.8930  0.5169
 8161SOL     OW25302   4.439   4.612   2.794  0.0235  0.0005 -0.7529
 8161SOL    HW125303   4.506   4.540   2.812  0.0713 -0.4737 -2.6144
 8161SOL    HW225304   4.466   4.695   2.842  1.7902 -0.2850 -1.1825
 8162SOL     OW25305   3.280   6.512   4.309 -0.0532  0.3750 -0.8172
 8162SOL    HW125306   3.210   6.485   4.244 -0.6200  2.0500 -0.9555
 8162SOL    HW225307   3.269   6.461   4.394 -0.7790 -0.1197 -1.2018
 8163SOL     OW25308   2.398   0.309   0.518 -0.1942 -0.6577 -0.2318
 8163SOL    HW125309   2.470   0.363   0.563  0.1291 -1.1553 -0.1522
 8163SOL    HW225310   2.426   0.289   0.424 -0.9175  0.4835 -0.7171
 8164SOL     OW25311   0.177   2.145   2.407  0.5483 -0.0732  0.2820
 8164SOL    HW125312   0.152   2.104   2.495  1.5690 -0.0189  0.6053
 8164SOL    HW225313   0.271   2.121   2.384  1.3013  2.2727  0.6189
 8165SOL     OW25314   4.405   0.558   2.446 -0.5558  0.6225 -0.2701
 8165SOL    HW125315   4.348   0.476   2.439 -0.6530  0.6616  0.0018
 8165SOL    HW225316   4.422   0.596   2.355  1.4598 -1.0478 -0.6602
 8166SOL     OW25317   6.907   0.711   6.590  0.2719  0.0472 -0.2079
 8166SOL    HW125318   6.810   0.699   6.613  0.1415  2.1747  0.5111
 8166SOL    HW225319   6.949   0.621   6.575 -1.2173 -1.1008  1.9678
 8167SOL     OW25320   6.787   6.727   0.343  0.1793 -0.3743 -0.2230
 8167SOL    HW125321   6.776   6.807   0.401  1.5132 -0.1735 -0.2325
 8167SOL    HW225322   6.721   6.732   0.268 -0.3617  0.2429  0.2790
 8168SOL     OW25323   5.464   4.559   4.500  0.0305 -0.2321  0.0160
 8168SOL    HW125324   5.505   4.650   4.496 -0.4518  0.0624  1.3250
 8168SOL    HW225325   5.506   4.507   4.574 -0.8638 -0.4752  0.3586
 8169SOL     OW25326   0.229   6.097   6.675 -0.2786 -0.7507 -0.3527
 8169SOL    HW125327   0.159   6.026   6.667 -2.4212  1.2286 -0.1046
 8169SOL    HW225328   0.214   6.150   6.759  0.3411  0.9304 -1.2607
 8170SOL     OW25329   5.055   1.698   5.600 -0.7469  0.3559  0.6167
 8170SOL    HW125330   5.049   1.798   5.599 -0.3612  0.3922 -0.2803
 8170SOL    HW225331   5.020   1.662   5.513 -0.4600 -0.2551  0.7483
 8171SOL     OW25332   5.086   1.775   2.895  0.5173  0.2384  0.2055
 8171SOL    HW125333   5.149   1.759   2.971  0.2336  1.9931  0.8457
 8171SOL    HW225334   5.124   1.843   2.833  0.0861 -0.0816 -0.4243
 8172SOL     OW25335   0.640   5.125   1.655 -0.0207  0.3092  0.3689
 8172SOL    HW125336   0.739   5.118   1.670  0.3123 -0.3354 -1.7390
 8172SOL    HW225337   0.618   5.093   1.563 -1.8483  2.9204 -0.2426
 8173SOL     OW25338   3.258   4.811   1.945 -0.1767 -0.0439  0.4486
 8173SOL    HW125339   3.235   4.793   2.041 -2.7214 -2.1627 -0.4190
 8173SOL    HW225340   3.320   4.741   1.911 -1.8714 -1.2796 -0.2423
 8174SOL     OW25341   7.016   6.437   5.056  0.1905 -0.1238 -0.0254
 8174SOL    HW125342   7.100   6.428   5.002 -0.7863 -0.5088 -1.4939
 8174SOL    HW225343   6.957   6.506   5.014 -1.0447 -1.2125 -0.1046
 8175SOL     OW25344   6.878   3.670   2.798 -0.4063 -0.0983  0.2713
 8175SOL    HW125345   6.830   3.733   2.860 -0.7572 -0.0193 -0.0781
 8175SOL    HW225346   6.974   3.664   2.825 -0.5082  0.0980  0.6972
 8176SOL     OW25347   3.253   1.336   1.652 -0.0620 -0.3540 -0.2944
 8176SOL    HW125348   3.272   1.419   1.704 -0.6048 -1.2455  1.4027
 8176SOL    HW225349   3.275   1.256   1.708 -2.0693 -1.3687 -0.8739
 8177SOL     OW25350   5.584   1.809   1.819  0.1757  0.0233 -0.0654
 8177SOL    HW125351   5.660   1.773   1.873  1.3664 -0.0727 -1.7257
 8177SOL    HW225352   5.558   1.899   1.854  1.6642  0.4437  0.0130
 8178SOL     OW25353   6.835   3.733   2.356 -0.2017 -0.0834 -0.3076
 8178SOL    HW125354   6.821   3.699   2.263  0.4415 -0.4993 -0.2621
 8178SOL    HW225355   6.836   3.833   2.355 -0.6762 -0.0776 -0.6701
 8179SOL     OW25356   6.332   0.735   3.871  0.0788 -0.2343 -0.1778
 8179SOL    HW125357   6.369   0.801   3.806 -1.4381 -0.5134 -1.3626
 8179SOL    HW225358   6.387   0.651   3.867  0.9748  0.3228  0.0995
 8180SOL     OW25359   4.293   4.769   5.634  0.0094  0.8214 -0.3533
 8180SOL    HW125360   4.244   4.770   5.721 -1.1550 -0.0618 -0.9660
 8180SOL    HW225361   4.364   4.840   5.635  1.1524 -0.2621  1.9320
 8181SOL     OW25362   5.517   2.246   4.287 -0.1253  0.0700  0.4512
 8181SOL    HW125363   5.583   2.171   4.291  1.8297  1.7050  0.4965
 8181SOL    HW225364   5.563   2.329   4.256 -2.3254  1.1689 -0.0346
 8182SOL     OW25365   3.625   4.643   2.380 -0.4396  0.3548 -0.1856
 8182SOL    HW125366   3.690   4.670   2.309  0.0841  1.6839  0.7717
 8182SOL    HW225367   3.662   4.665   2.470 -1.1207 -1.2577  0.5286
 8183SOL     OW25368   1.188   5.505   2.369  0.4568 -0.5317  0.0874
 8183SOL    HW125369   1.270   5.547   2.409  0.7354 -0.7256 -0.2709
 8183SOL    HW225370   1.108   5.529   2.424  0.5071  0.9682 -0.4457
 8184SOL     OW25371   6.977   6.763   1.497  0.3503  0.1237  0.0818
 8184SOL    HW125372   7.023   6.677   1.516  1.3837  1.1525  2.6035
 8184SOL    HW225373   6.892   6.768   1.550  1.0053  1.1853  1.0878
 8185SOL     OW25374   1.354   3.694   4.855  0.3192  0.0125 -0.6088
 8185SOL    HW125375   1.425   3.730   4.915  0.6150 -2.4618  0.6012
 8185SOL    HW225376   1.340   3.597   4.872 -1.8557 -0.0747 -2.3350
 8186SOL     OW25377   2.763   6.755   3.540 -0.2809  0.0045  0.1221
 8186SOL    HW125378   2.760   6.827   3.610  0.6755  1.1020 -0.9306
 8186SOL    HW225379   2.686   6.767   3.477 -1.7855 -1.6315  1.5408
 8187SOL     OW25380   5.311   1.564   6.475 -0.1829 -0.0564 -0.1442
 8187SOL    HW125381   5.309   1.598   6.569  1.3796 -0.8636  0.2207
 8187SOL    HW225382   5.369   1.624   6.420 -2.2463  1.2556 -0.9952
 8188SOL     OW25383   4.902   5.280   4.125  0.1893 -0.7454 -0.0039
 8188SOL    HW125384   4.822   5.260   4.181  0.0636  0.8849  0.4387
 8188SOL    HW225385   4.959   5.347   4.171  1.1609 -0.9356 -0.8943
 8189SOL     OW25386   5.687   3.987   3.575  0.1227 -0.2342  0.0272
 8189SOL    HW125387   5.766   3.954   3.523  1.0849  0.2939  1.0875
 8189SOL    HW225388   5.604   3.977   3.521  1.0123 -0.1723 -1.3871
 8190SOL     OW25389   6.043   0.718   4.192 -0.2886 -0.0703  0.5087
 8190SOL    HW125390   5.955   0.698   4.149  0.2796 -0.6039 -0.4206
 8190SOL    HW225391   6.090   0.790   4.141 -0.4497  0.6764  1.3756
 8191SOL     OW25392   6.546   0.045   6.705 -0.1234 -0.5499 -0.6160
 8191SOL    HW125393   6.480   0.069   6.634  0.8309  1.3552 -0.9083
 8191SOL    HW225394   6.505   0.058   6.795 -0.9170 -1.7637 -0.7742
 8192SOL     OW25395   3.710   2.158   6.556 -0.0612 -0.4667 -0.0862
 8192SOL    HW125396   3.680   2.163   6.460 -2.0198 -0.7417  0.4804
 8192SOL    HW225397   3.764   2.239   6.578 -0.8779  0.3487 -1.0105
 8193SOL     OW25398   2.784   1.348   2.652 -0.5562 -0.1794  0.3208
 8193SOL    HW125399   2.767   1.258   2.692  0.3988 -1.6134 -2.3156
 8193SOL    HW225400   2.787   1.341   2.553  0.0543  2.7077  0.0429
 8194SOL     OW25401   2.913   4.657   2.378 -1.1998 -0.2714  0.1374
 8194SOL    HW125402   2.870   4.737   2.420  0.1766 -0.0100  1.1569
 8194SOL    HW225403   2.984   4.622   2.439  0.6078 -0.1724 -1.7650
 8195SOL     OW25404   6.229   6.951   5.988 -0.2904  0.0046  0.1787
 8195SOL    HW125405   6.251   6.871   5.931  1.1740  1.2778 -1.1246
 8195SOL    HW225406   6.172   6.922   6.065  1.6401 -2.6268  0.7841
 8196SOL     OW25407   4.353   3.167   6.234  0.3333  0.2324  1.0562
 8196SOL    HW125408   4.265   3.174   6.281 -0.2809 -0.7076  0.0615
 8196SOL    HW225409   4.397   3.081   6.259  0.1353 -0.1403  0.1479
 8197SOL     OW25410   5.446   0.717   1.014 -0.2371  0.2723  0.5996
 8197SOL    HW125411   5.435   0.798   0.956 -2.2663  0.2545  0.8582
 8197SOL    HW225412   5.466   0.746   1.108 -1.0439  0.4843  0.7143
 8198SOL     OW25413   5.152   5.551   2.803  0.6051  0.3352  0.3078
 8198SOL    HW125414   5.228   5.583   2.747  1.9845  0.8992  2.3445
 8198SOL    HW225415   5.184   5.479   2.864 -0.9948 -0.7304 -0.0411
 8199SOL     OW25416   2.078   0.214   5.987 -0.2104 -0.0628  0.2711
 8199SOL    HW125417   2.140   0.245   5.915 -0.3847  1.0039  0.5600
 8199SOL    HW225418   2.019   0.289   6.015 -1.4589 -0.9828  0.2089
 8200SOL     OW25419   4.733   1.120   2.966  0.4219  0.2063 -0.2779
 8200SOL    HW125420   4.808   1.060   2.995  0.7634  0.1221 -1.3086
 8200SOL    HW225421   4.730   1.124   2.867 -0.7769  0.4336 -0.2468
 8201SOL     OW25422   3.363   4.853   3.991  0.2821 -0.8258  0.0744
 8201SOL    HW125423   3.307   4.836   4.072  1.4499 -0.5864  0.9732
 8201SOL    HW225424   3.365   4.951   3.971 -1.1198 -1.0061 -1.1082
 8202SOL     OW25425   2.569   4.840   0.455  0.0874  0.1533 -0.1063
 8202SOL    HW125426   2.596   4.770   0.388 -1.4061 -0.1877 -0.3890
 8202SOL    HW225427   2.645   4.858   0.517  1.0986 -0.4003 -1.1550
 8203SOL     OW25428   0.896   4.016   6.284 -0.2804  0.1243 -0.6234
 8203SOL    HW125429   0.812   4.063   6.257 -0.8785 -1.2710 -1.2964
 8203SOL    HW225430   0.879   3.918   6.292  1.4187 -0.2883 -1.3872
 8204SOL     OW25431   4.340   2.403   6.874 -0.0754  0.0647 -0.3122
 8204SOL    HW125432   4.377   2.405   6.782 -1.7547  2.1964 -1.0524
 8204SOL    HW225433   4.413   2.385   6.940  1.3688 -0.2874 -1.9648
 8205SOL     OW25434   6.620   4.307   5.841 -0.5250  0.7944 -0.2810
 8205SOL    HW125435   6.635   4.294   5.743  0.3677  0.2098 -0.0735
 8205SOL    HW225436   6.612   4.405   5.861  2.3804  1.1517 -0.5254
 8206SOL     OW25437   2.126   1.148   0.302  0.0636  0.2119 -0.1259
 8206SOL    HW125438   2.081   1.167   0.389  0.6778  1.0825  0.0079
 8206SOL    HW225439   2.087   1.205   0.231  1.2048  1.2980  0.0719
 8207SOL     OW25440   2.795   4.902   2.454  0.3083  0.1216  0.4280
 8207SOL    HW125441   2.713   4.863   2.496 -0.2003 -2.3173 -2.4939
 8207SOL    HW225442   2.786   5.002   2.451 -2.4581 -0.0236  0.4427
 8208SOL     OW25443   3.833   4.589   3.265 -0.3520  0.2819  0.1689
 8208SOL    HW125444   3.890   4.578   3.183 -0.9209  0.3377 -0.2406
 8208SOL    HW225445   3.770   4.512   3.272 -2.4866  1.7715 -1.2153
 8209SOL     OW25446   5.419   3.321   3.594 -0.9637  0.1392 -0.6373
 8209SOL    HW125447   5.422   3.250   3.523 -1.3081  0.8721 -1.3926
 8209SOL    HW225448   5.353   3.295   3.665 -0.1355 -0.9143 -0.2203
 8210SOL     OW25449   4.041   5.434   0.226 -0.4794 -0.0408 -0.2568
 8210SOL    HW125450   3.949   5.472   0.211  0.1564  1.1417 -1.3299
 8210SOL    HW225451   4.109   5.494   0.183  0.9084 -0.2401  1.5831
 8211SOL     OW25452   4.512   2.489   4.100  0.6293  0.1133 -0.1216
 8211SOL    HW125453   4.596   2.529   4.137  1.2295 -1.3530  0.1766
 8211SOL    HW225454   4.458   2.450   4.175  1.0851 -1.4686 -0.5637
 8212SOL     OW25455   2.579   2.584   3.900 -0.0759 -0.2533 -0.0691
 8212SOL    HW125456   2.586   2.651   3.973  1.6143  0.4313 -0.7982
 8212SOL    HW225457   2.649   2.513   3.912  0.4541  0.0587 -1.1989
 8213SOL     OW25458   4.171   6.691   0.982  0.1089  0.2452 -0.0352
 8213SOL    HW125459   4.139   6.597   0.994  0.7496  0.0830  0.4245
 8213SOL    HW225460   4.138   6.727   0.895 -0.9408 -0.0756  0.2199
 8214SOL     OW25461   5.808   0.461   6.932 -0.1431 -0.2050 -0.6675
 8214SOL    HW125462   5.858   0.539   6.894 -1.0419 -0.1442 -1.7748
 8214SOL    HW225463   5.727   0.444   6.877 -0.7169 -1.0449  0.4055
 8215SOL     OW25464   5.474   4.414   6.988  0.3174 -0.5613 -0.5679
 8215SOL    HW125465   5.512   4.485   6.929  1.9702 -1.5056 -0.6922
 8215SOL    HW225466   5.451   4.334   6.933  0.9498 -1.0818 -0.1033
 8216SOL     OW25467   4.391   5.392   3.709  0.1352 -0.1120 -0.0176
 8216SOL    HW125468   4.412   5.349   3.797  0.5712  0.4559  0.1646
 8216SOL    HW225469   4.344   5.326   3.650 -0.3588 -0.4321  0.7158
 8217SOL     OW25470   5.203   6.984   0.322 -0.3857 -0.2158 -0.0879
 8217SOL    HW125471   5.171   7.010   0.414 -1.4631 -0.7063 -0.3186
 8217SOL    HW225472   5.301   7.002   0.315 -0.5361  1.1504  0.7046
 8218SOL     OW25473   0.797   4.531   5.842  0.3304 -0.2751 -0.2612
 8218SOL    HW125474   0.763   4.506   5.751  0.0212  0.0937 -0.2524
 8218SOL    HW225475   0.745   4.482   5.912  0.8811 -0.9187 -0.2979
 8219SOL     OW25476   3.185   4.471   6.773  0.5729  0.3781 -0.0170
 8219SOL    HW125477   3.183   4.392   6.834 -0.5082  1.7389  1.8307
 8219SOL    HW225478   3.126   4.454   6.694  0.8933 -0.8817 -0.0049
 8220SOL     OW25479   5.065   5.100   5.550 -0.0548 -0.4805  0.1829
 8220SOL    HW125480   5.134   5.097   5.623 -1.0104  0.3091  1.1442
 8220SOL    HW225481   4.974   5.095   5.590 -0.6330  0.8774 -0.8612
 8221SOL     OW25482   2.388   0.770   2.645 -0.1705 -0.5826 -0.0022
 8221SOL    HW125483   2.367   0.849   2.703 -0.4687 -0.8635  0.2815
 8221SOL    HW225484   2.398   0.689   2.703 -1.1542 -1.0001 -0.3970
 8222SOL     OW25485   0.521   3.374   2.239 -0.7844  0.4304 -0.3130
 8222SOL    HW125486   0.433   3.341   2.204 -0.7244 -0.3247  0.2218
 8222SOL    HW225487   0.555   3.447   2.179 -1.4908  0.3239 -0.8582
 8223SOL     OW25488   4.257   6.160   0.057  0.2126  0.6003 -0.7218
 8223SOL    HW125489   4.280   6.071   0.096 -3.3316  0.2230  1.0938
 8223SOL    HW225490   4.304   6.232   0.108 -0.4952 -0.1043  1.0015
 8224SOL     OW25491   0.391   6.260   6.547  0.8658  0.1167  0.5941
 8224SOL    HW125492   0.467   6.264   6.612 -0.6856  0.4902  2.4823
 8224SOL    HW225493   0.325   6.191   6.578 -1.0671  1.9381  0.7950
 8225SOL     OW25494   4.895   5.639   2.725  0.0485 -0.4203  0.1406
 8225SOL    HW125495   4.976   5.596   2.765  0.8261  0.1116 -0.8664
 8225SOL    HW225496   4.827   5.568   2.705  0.8152 -1.0366 -0.3223
 8226SOL     OW25497   3.919   4.833   6.598  0.2528  0.0613  0.4494
 8226SOL    HW125498   3.896   4.921   6.557 -3.2064 -1.2856 -0.9208
 8226SOL    HW225499   3.850   4.809   6.667  0.7516 -1.8279  0.3425
 8227SOL     OW25500   4.188   0.498   4.687  0.1841 -0.5808  0.1634
 8227SOL    HW125501   4.093   0.493   4.717 -0.3980  1.2466 -1.2030
 8227SOL    HW225502   4.241   0.550   4.754 -0.6793  1.7615 -0.8435
 8228SOL     OW25503   0.119   6.317   0.386  0.4551 -0.7245 -0.0627
 8228SOL    HW125504   0.145   6.365   0.301 -0.6715 -1.7546 -1.0260
 8228SOL    HW225505   0.189   6.333   0.455  0.2820  2.1241 -0.3817
 8229SOL     OW25506   6.814   2.647   3.813 -0.1016 -0.2988 -0.0774
 8229SOL    HW125507   6.844   2.656   3.718 -0.3746  0.2034 -0.1178
 8229SOL    HW225508   6.891   2.664   3.874 -0.2996  1.1519 -0.1777
 8230SOL     OW25509   4.989   5.829   4.780 -0.2794 -0.2946  0.2015
 8230SOL    HW125510   5.079   5.803   4.743  0.8318  0.4610  2.1837
 8230SOL    HW225511   4.987   5.928   4.794 -0.2490 -0.6036  2.9144
 8231SOL     OW25512   2.784   1.927   5.482 -0.4264  0.4048 -0.7290
 8231SOL    HW125513   2.789   2.027   5.482  1.1610  0.3568 -0.9526
 8231SOL    HW225514   2.778   1.894   5.388 -0.2387  0.2839 -0.7008
 8232SOL     OW25515   4.107   4.928   6.125  0.4105 -0.5992  0.4175
 8232SOL    HW125516   4.078   5.024   6.121  0.6225 -0.5600 -0.5158
 8232SOL    HW225517   4.105   4.897   6.219 -1.3901 -0.2096  0.5391
 8233SOL     OW25518   0.487   6.909   6.403 -0.8433  0.3240 -0.1280
 8233SOL    HW125519   0.413   6.972   6.428 -0.9568  0.3829 -0.6010
 8233SOL    HW225520   0.574   6.945   6.435 -0.9817  0.4063  0.1651
 8234SOL     OW25521   5.752   5.638   4.393  0.0061 -0.8697 -0.1072
 8234SOL    HW125522   5.784   5.546   4.415 -0.7090 -0.7840  1.3575
 8234SOL    HW225523   5.653   5.637   4.384  0.1349 -0.5728 -1.8276
 8235SOL     OW25524   1.839   3.937   4.211  0.0039  0.3077  0.3273
 8235SOL    HW125525   1.786   3.874   4.268 -1.0578  2.2988  1.6639
 8235SOL    HW225526   1.830   3.910   4.115 -1.9954 -0.4812  0.6639
 8236SOL     OW25527   4.709   6.990   1.217  0.3431 -0.2584  0.6767
 8236SOL    HW125528   4.709   6.934   1.299  0.3876 -1.2077  0.0343
 8236SOL    HW225529   4.714   6.932   1.136  0.6243  0.6766  0.0025
 8237SOL     OW25530   0.661   5.344   5.211  0.3607 -0.1715 -0.2069
 8237SOL    HW125531   0.702   5.303   5.292  1.3433  1.7766  0.3232
 8237SOL    HW225532   0.584   5.401   5.238 -1.0344 -1.6220 -0.9469
 8238SOL     OW25533   6.228   1.174   5.530  0.2285 -0.0566 -0.2168
 8238SOL    HW125534   6.324   1.147   5.538  0.1338 -0.3034  0.1299
 8238SOL    HW225535   6.181   1.156   5.616 -0.4320 -1.1645 -0.7821
 8239SOL     OW25536   0.499   5.939   6.633 -0.2023 -0.0135  0.3289
 8239SOL    HW125537   0.412   5.986   6.645  0.2472  1.1155 -0.6302
 8239SOL    HW225538   0.488   5.864   6.569 -0.4154  0.3237 -0.0353
 8240SOL     OW25539   4.014   4.223   4.641 -0.2898  0.1840 -0.0507
 8240SOL    HW125540   4.010   4.321   4.626  1.5703  0.3454  0.3866
 8240SOL    HW225541   4.100   4.198   4.684  0.1110 -1.8539 -1.8036
 8241SOL     OW25542   4.514   2.234   6.100 -0.5264 -0.1200 -0.0161
 8241SOL    HW125543   4.523   2.143   6.140 -0.8960 -0.1332  0.0499
 8241SOL    HW225544   4.498   2.226   6.001  0.7205 -0.0780 -0.2355
 8242SOL     OW25545   6.529   2.108   1.643  0.2742  0.7214 -0.6438
 8242SOL    HW125546   6.501   2.131   1.550  0.9961  0.9062 -0.8246
 8242SOL    HW225547   6.472   2.160   1.708  1.1412  2.2002 -1.0240
 8243SOL     OW25548   2.111   4.070   4.493 -0.2501 -0.1591 -0.0235
 8243SOL    HW125549   2.012   4.087   4.489 -0.3175 -0.6573 -0.5557
 8243SOL    HW225550   2.155   4.114   4.415  0.1621  1.4177  1.0543
 8244SOL     OW25551   6.455   6.931   4.373  0.1428  0.2672  0.8981
 8244SOL    HW125552   6.458   6.921   4.274  1.0551  2.7591  0.5947
 8244SOL    HW225553   6.544   6.965   4.405 -1.0473  2.4635  2.1062
 8245SOL     OW25554   2.001   0.045   6.931  0.3458 -0.0351 -0.0091
 8245SOL    HW125555   2.089   0.072   6.971  0.3513  0.3634 -0.2695
 8245SOL    HW225556   1.994  -0.055   6.930  1.7929 -0.1465 -1.9953
 8246SOL     OW25557   1.337   2.634   1.552 -0.3651  0.6581  0.5905
 8246SOL    HW125558   1.290   2.722   1.559  1.1581  1.4707  1.0460
 8246SOL    HW225559   1.406   2.627   1.625  1.0245  0.0026 -0.7346
 8247SOL     OW25560   6.336   5.281   2.757  0.4688 -0.5932  0.4501
 8247SOL    HW125561   6.399   5.357   2.741 -1.0850  0.9883  1.4232
 8247SOL    HW225562   6.285   5.263   2.673 -0.4625  0.7524  0.6824
 8248SOL     OW25563   4.687   4.051   1.693 -0.0574 -0.7040  0.1926
 8248SOL    HW125564   4.683   3.960   1.734  1.8909 -1.3732 -0.9729
 8248SOL    HW225565   4.707   4.118   1.765  1.1544 -1.5629  0.7085
 8249SOL     OW25566   3.950   6.159   2.085 -0.2795 -0.0605  0.1923
 8249SOL    HW125567   3.968   6.063   2.060 -0.2476 -0.2502  0.9084
 8249SOL    HW225568   3.939   6.213   2.002  1.9988 -0.2337 -0.3104
 8250SOL     OW25569   2.886   5.645   5.501  0.1502  0.0953 -0.0249
 8250SOL    HW125570   2.894   5.617   5.596 -0.8907 -1.3602 -0.3275
 8250SOL    HW225571   2.968   5.617   5.451  0.0693 -0.4590  0.1426
 8251SOL     OW25572   1.724   4.344   3.440  0.0463  1.0504  0.3934
 8251SOL    HW125573   1.625   4.339   3.425  0.1937  2.3296 -1.2227
 8251SOL    HW225574   1.771   4.293   3.369  0.5866  1.2107  0.6339
 8252SOL     OW25575   4.831   5.969   6.217  0.2365 -0.2421 -0.3092
 8252SOL    HW125576   4.922   5.930   6.200  0.6418 -0.3102  1.7315
 8252SOL    HW225577   4.763   5.920   6.163  1.2844 -0.8198 -1.1565
 8253SOL     OW25578   0.508   5.864   1.327  0.1645  0.1971  0.2007
 8253SOL    HW125579   0.552   5.856   1.417  1.6376  0.5885 -0.4573
 8253SOL    HW225580   0.503   5.774   1.285 -0.8844 -0.0473  0.8259
 8254SOL     OW25581   4.407   4.251   6.387 -0.3133  0.2926  0.0170
 8254SOL    HW125582   4.330   4.313   6.370  0.3318  0.8982 -0.7343
 8254SOL    HW225583   4.371   4.162   6.416 -1.4507 -0.1928 -2.5286
 8255SOL     OW25584   2.622   2.225   5.934 -0.6966  0.1237  0.3226
 8255SOL    HW125585   2.614   2.318   5.970 -2.3203 -0.6865  2.2720
 8255SOL    HW225586   2.551   2.211   5.864 -0.3721  0.3671 -0.0627
 8256SOL     OW25587   6.833   2.905   2.692  0.0796 -0.9517  0.1193
 8256SOL    HW125588   6.751   2.917   2.636  0.2201 -0.7250 -0.0397
 8256SOL    HW225589   6.907   2.868   2.636  0.5364  0.2579 -0.1062
 8257SOL     OW25590   2.276   6.672   1.022  0.3312  0.1574 -0.3415
 8257SOL    HW125591   2.226   6.741   1.074 -0.4325 -0.9587  0.4317
 8257SOL    HW225592   2.229   6.584   1.029  1.5597 -0.5603 -0.8808
 8258SOL     OW25593   4.710   5.337   0.015  0.3938 -0.2734 -0.6166
 8258SOL    HW125594   4.744   5.274   0.085 -0.2508 -2.0746 -1.8320
 8258SOL    HW225595   4.777   5.409  -0.000  0.1647  0.7367  2.4491
 8259SOL     OW25596   3.202   4.653   1.481 -0.1478 -0.2329  0.0215
 8259SOL    HW125597   3.276   4.612   1.427 -0.9508 -0.1085 -1.2155
 8259SOL    HW225598   3.122   4.593   1.480 -0.5897  0.3444  0.0395
 8260SOL     OW25599   4.806   0.123   2.850 -0.5084  0.2526 -0.0667
 8260SOL    HW125600   4.852   0.190   2.791 -2.0510  1.5584  0.1527
 8260SOL    HW225601   4.717   0.158   2.878 -2.1450 -2.5510 -1.2472
 8261SOL     OW25602   3.973   1.528   6.064 -0.1757 -0.1310 -0.1368
 8261SOL    HW125603   3.877   1.502   6.070 -0.4009  0.3870 -1.3766
 8261SOL    HW225604   4.010   1.501   5.975  0.2399  1.5775 -0.5133
 8262SOL     OW25605   3.806   4.749   6.859  0.1193  0.4600  0.2434
 8262SOL    HW125606   3.754   4.832   6.880 -2.9335 -1.5213  1.2314
 8262SOL    HW225607   3.742   4.672   6.847  2.7884 -1.7714 -0.6444
 8263SOL     OW25608   3.203   5.681   7.000 -0.1052  0.5196  0.2151
 8263SOL    HW125609   3.201   5.652   7.096 -0.5238  0.9558  0.3158
 8263SOL    HW225610   3.185   5.603   6.941 -0.9209  0.4488  0.5416
 8264SOL     OW25611   5.181   6.266   6.262  0.6258 -0.0164  0.9344
 8264SOL    HW125612   5.140   6.352   6.291  0.1767 -0.1798  0.8029
 8264SOL    HW225613   5.138   6.190   6.311 -0.3673 -0.3214 -0.3421
 8265SOL     OW25614   0.940   2.082   1.629  0.8391 -0.1098 -0.1862
 8265SOL    HW125615   1.024   2.029   1.619  0.5538 -0.6832  0.4210
 8265SOL    HW225616   0.892   2.085   1.541  0.4800 -1.5049 -0.0564
 8266SOL     OW25617   1.287   0.933   5.954  0.2766  0.4007 -0.0516
 8266SOL    HW125618   1.287   0.863   5.882 -0.9153  0.8467 -0.5128
 8266SOL    HW225619   1.307   0.890   6.042  0.4475 -0.3633 -0.4553
 8267SOL     OW25620   3.945   2.398   1.344  0.4011 -0.1857  0.3611
 8267SOL    HW125621   3.856   2.419   1.304  1.0191  0.9511 -0.5004
 8267SOL    HW225622   3.982   2.314   1.303 -1.1869 -1.9723  2.3205
 8268SOL     OW25623   5.381   0.826   3.407  0.1159 -0.3557  0.1397
 8268SOL    HW125624   5.420   0.807   3.498  1.0788  1.4991  0.1745
 8268SOL    HW225625   5.296   0.879   3.418 -0.0341 -0.5546 -0.0470
 8269SOL     OW25626   1.708   2.507   2.415 -0.1245 -0.1422 -0.1842
 8269SOL    HW125627   1.702   2.580   2.483  0.8265 -0.5279  0.3459
 8269SOL    HW225628   1.718   2.547   2.324 -1.4024  0.3872 -0.1312
 8270SOL     OW25629   5.691   6.359   5.534 -0.1692 -1.0495  0.9883
 8270SOL    HW125630   5.714   6.452   5.562  0.4575 -1.1905  0.9682
 8270SOL    HW225631   5.775   6.305   5.526 -0.4694 -1.4357  0.3434
 8271SOL     OW25632   3.173   3.957   1.849  0.3080 -0.3124 -0.2931
 8271SOL    HW125633   3.164   4.044   1.803 -2.2808  0.3689  1.2624
 8271SOL    HW225634   3.185   3.972   1.948 -0.9946 -1.6715  0.1136
 8272SOL     OW25635   1.930   0.800   4.933  0.2409  0.3593 -0.4139
 8272SOL    HW125636   1.938   0.735   4.858 -0.0206 -0.0561 -0.0888
 8272SOL    HW225637   2.018   0.845   4.947  1.2569 -1.8434  1.0588
 8273SOL     OW25638   3.046   1.070   3.120  0.4682 -0.1772 -0.1728
 8273SOL    HW125639   2.966   1.120   3.152  1.1487  0.1492  1.1250
 8273SOL    HW225640   3.056   1.083   3.021 -2.0701 -1.7386 -0.7065
 8274SOL     OW25641   2.317   4.919   6.931  0.5574  0.1502 -0.0707
 8274SOL    HW125642   2.317   4.869   7.017 -0.1747 -3.2096 -1.8330
 8274SOL    HW225643   2.277   5.010   6.945 -0.4824 -0.6491  2.9098
 8275SOL     OW25644   2.502   3.078   1.831  0.2953  0.2616 -0.3821
 8275SOL    HW125645   2.464   3.064   1.739 -0.2493 -2.1452  0.1047
 8275SOL    HW225646   2.456   3.156   1.874  0.1633  1.0861 -1.9196
 8276SOL     OW25647   3.315   2.964   1.764 -0.0879 -0.0883 -0.2436
 8276SOL    HW125648   3.414   2.953   1.750  0.3552  2.0173  0.9237
 8276SOL    HW225649   3.288   2.912   1.846  0.5954  1.4133  0.9836
 8277SOL     OW25650   2.597   5.165   3.757  0.2361  0.1048  0.0780
 8277SOL    HW125651   2.645   5.232   3.700 -1.0129  1.4469  0.5400
 8277SOL    HW225652   2.589   5.201   3.850  0.0953 -0.9880  0.5096
 8278SOL     OW25653   4.578   3.386   3.018 -0.8705 -0.2649 -0.1065
 8278SOL    HW125654   4.662   3.439   3.008 -0.5298 -0.9988 -1.2335
 8278SOL    HW225655   4.509   3.420   2.955 -0.2088 -1.9714 -1.8631
 8279SOL     OW25656   5.446   6.849   5.654  0.0223 -0.5012 -0.3340
 8279SOL    HW125657   5.494   6.778   5.603  0.9103 -0.4651  0.4265
 8279SOL    HW225658   5.374   6.808   5.710  0.1694 -0.7347 -0.3144
 8280SOL     OW25659   4.087   4.082   1.901  0.4487  0.2155 -0.0531
 8280SOL    HW125660   3.999   4.040   1.881  0.2635  0.5121  0.1392
 8280SOL    HW225661   4.160   4.015   1.887  0.1262 -0.2903  0.6318
 8281SOL     OW25662   6.119   5.595   3.310 -0.2912 -0.7503 -0.7273
 8281SOL    HW125663   6.022   5.578   3.328 -0.3238  1.4437  1.9863
 8281SOL    HW225664   6.132   5.691   3.284  1.1446 -1.0033 -1.0391
 8282SOL     OW25665   0.957   5.688   4.400 -0.1779 -0.1210 -0.1216
 8282SOL    HW125666   0.941   5.780   4.366 -2.1277 -0.8680 -1.3969
 8282SOL    HW225667   0.963   5.690   4.500 -0.7451  1.3160 -0.0945
 8283SOL     OW25668   2.409   3.948   2.084 -1.0937  0.2620  0.3886
 8283SOL    HW125669   2.374   4.029   2.132 -1.8098  0.4782 -0.4647
 8283SOL    HW225670   2.483   3.907   2.137  1.1170  2.9685 -0.2972
 8284SOL     OW25671   6.572   2.855   3.884  0.4282  0.5733 -0.0451
 8284SOL    HW125672   6.629   2.929   3.849  3.1296 -0.8295  1.1495
 8284SOL    HW225673   6.617   2.767   3.868 -0.2967 -0.4267  2.8785
 8285SOL     OW25674   2.833   6.850   6.922  0.3883 -0.3985  0.3597
 8285SOL    HW125675   2.798   6.774   6.867 -0.9009 -0.7869  1.6378
 8285SOL    HW225676   2.769   6.926   6.919 -0.6770 -1.0733  2.6376
 8286SOL     OW25677   5.341   2.856   0.858 -0.1960 -0.0186 -0.5131
 8286SOL    HW125678   5.263   2.793   0.857  1.0604 -1.6410 -0.7462
 8286SOL    HW225679   5.338   2.911   0.941 -0.3595 -1.6999  0.6562
 8287SOL     OW25680   5.252   3.386   2.113 -0.3659  0.1724  0.0995
 8287SOL    HW125681   5.234   3.399   2.016  0.5790  0.0901 -0.0981
 8287SOL    HW225682   5.277   3.291   2.130  0.2462  0.3612  0.2867
 8288SOL     OW25683   6.733   3.185   1.830 -0.5279 -1.2437 -0.8975
 8288SOL    HW125684   6.737   3.118   1.905  0.2391  0.2273  0.4284
 8288SOL    HW225685   6.644   3.231   1.832  0.3049  0.4525  0.6885
 8289SOL     OW25686   1.153   1.096   2.271  0.0231  0.0613 -0.3474
 8289SOL    HW125687   1.209   1.113   2.190  0.3661 -1.1199 -0.3682
 8289SOL    HW225688   1.187   1.016   2.320 -1.9112 -1.0120 -0.6415
 8290SOL     OW25689   2.605   1.551   1.358 -0.0580 -0.3849  0.1713
 8290SOL    HW125690   2.569   1.543   1.265 -0.1067  1.0316  0.0324
 8290SOL    HW225691   2.680   1.618   1.359 -0.3048 -0.1010  1.2179
 8291SOL     OW25692   5.605   5.466   6.958 -0.8205  0.0311  0.0818
 8291SOL    HW125693   5.535   5.420   6.903  0.7416 -0.5799 -1.5005
 8291SOL    HW225694   5.694   5.454   6.914  0.4984 -0.2865  2.6694
 8292SOL     OW25695   3.913   3.052   5.098  0.1454 -0.1371 -0.1633
 8292SOL    HW125696   3.916   2.973   5.158  0.7511  0.0731  0.0811
 8292SOL    HW225697   3.822   3.058   5.056  1.0531 -2.9168 -2.8494
 8293SOL     OW25698   2.261   4.890   6.091 -0.5934 -0.1441  0.3029
 8293SOL    HW125699   2.208   4.810   6.118  1.0943 -0.8896  1.5963
 8293SOL    HW225700   2.359   4.869   6.100 -0.0137  1.0479 -2.2955
 8294SOL     OW25701   1.111   0.360   0.188  0.1839 -0.7368  0.0141
 8294SOL    HW125702   1.040   0.381   0.255  1.9627 -0.8554  2.0613
 8294SOL    HW225703   1.146   0.268   0.204  1.0532 -0.5470 -0.6930
 8295SOL     OW25704   3.536   1.684   2.512  0.2632 -0.6114  0.2074
 8295SOL    HW125705   3.440   1.655   2.507  0.1651 -0.9538  2.8747
 8295SOL    HW225706   3.542   1.769   2.564  1.3128  0.1884 -1.1459
 8296SOL     OW25707   1.906   0.136   6.216  0.0589 -0.2991 -0.1847
 8296SOL    HW125708   1.989   0.122   6.270 -0.0247 -0.0142  0.0260
 8296SOL    HW225709   1.927   0.194   6.137 -0.2331  1.0395  0.6813
 8297SOL     OW25710   4.538   6.284   3.823 -0.1534 -0.2616  0.1180
 8297SOL    HW125711   4.626   6.326   3.845 -0.3795  0.3290 -0.0848
 8297SOL    HW225712   4.475   6.295   3.901  0.2892 -1.6825  0.7246
 8298SOL     OW25713   6.395   2.529   2.781 -0.3245 -0.5819 -0.1097
 8298SOL    HW125714   6.382   2.466   2.858  0.4281 -0.4107  0.1656
 8298SOL    HW225715   6.463   2.598   2.805 -0.6191 -0.0800 -0.6687
 8299SOL     OW25716   1.749   4.471   5.252 -0.3266  0.2676 -0.0998
 8299SOL    HW125717   1.833   4.431   5.216  0.5908  0.5273  1.6101
 8299SOL    HW225718   1.725   4.553   5.200 -0.7020 -0.9442 -1.9001
 8300SOL     OW25719   6.291   6.712   6.858 -0.1245 -0.1571 -0.3144
 8300SOL    HW125720   6.265   6.641   6.792  0.2471  0.8650 -1.6122
 8300SOL    HW225721   6.229   6.709   6.937 -1.8282 -0.1779 -1.5996
 8301SOL     OW25722   2.286   1.527   3.606 -0.1642 -0.4664  0.2414
 8301SOL    HW125723   2.200   1.563   3.568 -0.5470 -1.7683 -0.1810
 8301SOL    HW225724   2.342   1.492   3.531 -0.3298 -1.8331  0.7403
 8302SOL     OW25725   4.573   4.420   3.585  1.0044  0.1477 -0.3318
 8302SOL    HW125726   4.647   4.366   3.623 -1.2056 -2.1460  0.9670
 8302SOL    HW225727   4.526   4.469   3.658 -0.0829 -0.1214 -0.8343
 8303SOL     OW25728   0.260   1.134   1.075 -0.0898 -0.1316  0.1218
 8303SOL    HW125729   0.281   1.147   0.978 -0.2184 -2.0666 -0.2003
 8303SOL    HW225730   0.315   1.058   1.111  1.5403  1.9162  2.1497
 8304SOL     OW25731   1.516   4.588   2.853 -0.0294 -0.9690  0.4832
 8304SOL    HW125732   1.605   4.578   2.896  0.4402 -2.0407 -0.6950
 8304SOL    HW225733   1.491   4.685   2.850  0.2566 -0.8023  2.4344
 8305SOL     OW25734   0.676   1.614   2.184 -0.2681  0.1649 -0.4381
 8305SOL    HW125735   0.583   1.582   2.202 -0.6473  1.3524 -0.2147
 8305SOL    HW225736   0.724   1.546   2.129 -1.0129 -0.8160  0.0843
 8306SOL     OW25737   3.818   6.263   0.692 -0.7287 -0.2457 -0.4122
 8306SOL    HW125738   3.887   6.219   0.750 -0.0366  1.1577 -0.1236
 8306SOL    HW225739   3.854   6.271   0.599 -0.6576  0.1137 -0.3557
 8307SOL     OW25740   5.210   6.831   1.055  0.2187  0.5607 -0.2015
 8307SOL    HW125741   5.215   6.900   0.982  0.3397  0.8726  0.0989
 8307SOL    HW225742   5.262   6.863   1.134  1.0878 -0.3025 -0.4030
 8308SOL     OW25743   1.242   5.785   4.269 -0.1082  0.1297 -0.0437
 8308SOL    HW125744   1.341   5.778   4.273  0.0021  0.2076 -1.8185
 8308SOL    HW225745   1.200   5.701   4.303  0.5857 -0.1293  0.1716
 8309SOL     OW25746   3.613   5.554   2.469 -0.0013  0.2457  0.3005
 8309SOL    HW125747   3.700   5.504   2.471 -0.8537 -1.2638  2.0839
 8309SOL    HW225748   3.537   5.489   2.472 -1.2758  1.5044 -1.8405
 8310SOL     OW25749   0.891   3.392   0.502 -0.1927  0.5445  0.0468
 8310SOL    HW125750   0.873   3.389   0.403  0.6705 -3.7044 -0.1442
 8310SOL    HW225751   0.975   3.341   0.522 -0.1896  1.5328  2.9824
 8311SOL     OW25752   5.068   0.920   3.766 -0.9044 -0.4954  0.5613
 8311SOL    HW125753   5.076   0.823   3.789  0.9962 -1.0766 -2.0567
 8311SOL    HW225754   5.154   0.967   3.786 -0.5712 -0.1813 -1.4354
 8312SOL     OW25755   4.293   0.997   5.613 -0.2215 -0.2476  0.1659
 8312SOL    HW125756   4.247   1.025   5.529  0.7345 -0.5341 -0.4746
 8312SOL    HW225757   4.390   1.018   5.607 -0.3986  1.4333  1.9593
 8313SOL     OW25758   1.794   2.152   4.156  0.5139 -0.0346  0.0744
 8313SOL    HW125759   1.696   2.163   4.172  0.3906 -1.1829  0.1463
 8313SOL    HW225760   1.809   2.124   4.061  0.7787  0.1460  0.0584
 8314SOL     OW25761   0.720   5.341   0.256  0.5440 -0.4842 -0.2440
 8314SOL    HW125762   0.746   5.309   0.165  0.5831 -1.7124  0.1774
 8314SOL    HW225763   0.622   5.357   0.259  0.2266 -2.2465 -0.0134
 8315SOL     OW25764   3.145   6.982   3.695 -0.6142  0.8507  0.3451
 8315SOL    HW125765   3.124   6.989   3.598 -0.4864 -0.9118  0.1495
 8315SOL    HW225766   3.199   7.062   3.723 -0.6775  1.3733 -1.0138
 8316SOL     OW25767   2.744   4.720   4.362  0.0652  0.7039 -0.5876
 8316SOL    HW125768   2.777   4.718   4.268  2.3425 -0.8922  0.1542
 8316SOL    HW225769   2.818   4.748   4.423 -0.7119 -0.4144  0.9475
 8317SOL     OW25770   4.685   6.447   5.646 -0.0310  0.2169 -0.2204
 8317SOL    HW125771   4.661   6.493   5.560  1.1073  0.1792 -0.5877
 8317SOL    HW225772   4.745   6.370   5.627 -0.5972 -0.4305  0.5376
 8318SOL     OW25773   3.083   0.313   5.703 -0.5711 -0.2803  0.0666
 8318SOL    HW125774   3.171   0.342   5.665 -1.5327 -1.1552 -3.0846
 8318SOL    HW225775   3.096   0.280   5.797  2.3883 -0.2339 -0.2538
 8319SOL     OW25776   5.779   6.503   6.110 -0.4992 -0.2966 -0.3846
 8319SOL    HW125777   5.819   6.487   6.200 -0.6662  0.2314 -0.2178
 8319SOL    HW225778   5.681   6.483   6.113 -0.2051 -1.9756 -0.8890
 8320SOL     OW25779   0.646   3.777   3.247 -0.1282  0.3127 -0.0242
 8320SOL    HW125780   0.726   3.802   3.301  0.2096  1.3060 -0.9526
 8320SOL    HW225781   0.568   3.834   3.273 -0.5813 -0.7015  0.9310
 8321SOL     OW25782   2.997   4.746   5.598  0.1622 -0.0327 -0.3215
 8321SOL    HW125783   2.963   4.657   5.565  1.2763 -0.4102 -0.4884
 8321SOL    HW225784   2.969   4.818   5.534 -0.5053 -0.2928 -0.3395
 8322SOL     OW25785   5.357   3.020   0.656 -0.4845  0.0057  0.1194
 8322SOL    HW125786   5.440   3.077   0.660 -0.4126  0.0315 -1.2413
 8322SOL    HW225787   5.355   2.958   0.735  1.0140 -0.2616 -0.0377
 8323SOL     OW25788   0.063   0.845   3.289  0.0104  0.6448  0.3079
 8323SOL    HW125789  -0.011   0.846   3.357  1.2806 -0.6769  1.7577
 8323SOL    HW225790   0.083   0.750   3.263  0.9001  1.0105 -0.3931
 8324SOL     OW25791   0.690   4.870   4.686  0.2453 -0.1521 -0.5448
 8324SOL    HW125792   0.603   4.895   4.727  0.6256  0.1660  0.0801
 8324SOL    HW225793   0.694   4.770   4.674  0.5616 -0.3674  1.2032
 8325SOL     OW25794   1.364   6.313   2.176 -0.1086 -0.2622  0.2864
 8325SOL    HW125795   1.267   6.313   2.150 -0.2152 -1.1355  0.6379
 8325SOL    HW225796   1.420   6.295   2.095 -0.2245  0.3657  0.0551
 8326SOL     OW25797   4.683   3.947   1.084  0.2032 -0.4323  0.0124
 8326SOL    HW125798   4.745   3.871   1.105 -0.4340 -0.8559  0.4304
 8326SOL    HW225799   4.691   3.971   0.987 -0.5264 -1.9224 -0.4401
 8327SOL     OW25800   0.410   6.414   5.164 -0.0066  0.1954 -0.3408
 8327SOL    HW125801   0.455   6.386   5.079 -0.2639  0.8710 -0.7008
 8327SOL    HW225802   0.383   6.332   5.215  1.4288 -0.2266 -0.2129
 8328SOL     OW25803   4.804   3.118   3.228  0.0823 -0.3687 -0.2986
 8328SOL    HW125804   4.857   3.195   3.194  0.8477 -0.4259  0.7103
 8328SOL    HW225805   4.831   3.034   3.180  1.0788 -0.4342  0.3326
 8329SOL     OW25806   1.093   3.485   6.830  0.4047  0.0923 -0.3128
 8329SOL    HW125807   1.027   3.449   6.763  0.1546  0.6238 -0.3558
 8329SOL    HW225808   1.157   3.412   6.855  1.5855  0.3460 -2.4409
 8330SOL     OW25809   3.022   5.513   2.730 -0.2573  0.0921 -0.8310
 8330SOL    HW125810   2.965   5.530   2.811 -0.5208  0.1266 -1.0205
 8330SOL    HW225811   2.976   5.447   2.671 -0.5828  0.8817 -1.4887
 8331SOL     OW25812   0.738   6.486   1.361 -0.9246 -0.2885  0.1970
 8331SOL    HW125813   0.769   6.527   1.275 -2.1572 -1.1852 -0.7049
 8331SOL    HW225814   0.817   6.458   1.415 -0.1310  0.1861 -0.6907
 8332SOL     OW25815   3.787   5.087   5.776  0.1258 -0.0166  0.1294
 8332SOL    HW125816   3.796   5.074   5.677  1.0373 -1.0232  0.3176
 8332SOL    HW225817   3.811   5.002   5.823  0.2650  0.6120  1.2363
 8333SOL     OW25818   0.968   2.975   4.802  0.4460 -0.6562 -0.5902
 8333SOL    HW125819   0.948   2.894   4.857 -1.3022  0.8127  1.0431
 8333SOL    HW225820   0.892   2.993   4.739  0.5292  0.0879 -0.4853
 8334SOL     OW25821   5.974   0.463   5.075  0.0462  0.4139 -0.7818
 8334SOL    HW125822   5.876   0.459   5.092  0.1658 -0.5594 -0.1885
 8334SOL    HW225823   5.992   0.498   4.983 -0.8148  1.3240 -0.6159
 8335SOL     OW25824   0.862   6.407   2.429  0.0827 -0.2448 -0.5304
 8335SOL    HW125825   0.831   6.361   2.345 -0.1731 -0.3139 -0.3986
 8335SOL    HW225826   0.804   6.487   2.446  0.4302  0.0408 -0.6741
 8336SOL     OW25827   0.931   5.335   4.573 -0.2225 -0.1192  0.0891
 8336SOL    HW125828   0.874   5.258   4.601 -1.8415  0.9813 -0.1078
 8336SOL    HW225829   0.884   5.421   4.594  0.9292  0.8118 -0.9953
 8337SOL     OW25830   3.555   5.263   6.815 -0.3538 -0.3765  0.5095
 8337SOL    HW125831   3.485   5.320   6.772 -1.4506 -0.9923  1.4086
 8337SOL    HW225832   3.582   5.303   6.903 -0.2263 -0.5867  0.5687
 8338SOL     OW25833   2.717   0.416   3.812  0.5157  0.0696 -0.1414
 8338SOL    HW125834   2.704   0.416   3.713  0.2447  4.0818 -0.2414
 8338SOL    HW225835   2.806   0.375   3.833  0.8358 -0.3238 -2.0606
 8339SOL     OW25836   1.934   0.997   1.192  0.3740 -0.7037  0.6118
 8339SOL    HW125837   1.939   0.905   1.153  0.2467 -0.2789 -0.4451
 8339SOL    HW225838   1.853   1.004   1.250 -0.5272 -0.7887 -0.6031
 8340SOL     OW25839   1.031   4.260   5.057  0.0564 -0.2471  0.3366
 8340SOL    HW125840   1.054   4.269   4.960 -2.3882 -0.1638 -0.3031
 8340SOL    HW225841   1.073   4.177   5.093  2.2388  0.4914 -0.3471
 8341SOL     OW25842   1.402   2.446   6.257 -0.2521 -0.5972  0.0175
 8341SOL    HW125843   1.327   2.509   6.235  0.5002  1.5225  2.9934
 8341SOL    HW225844   1.396   2.419   6.353  1.5256 -2.2036 -0.2760
 8342SOL     OW25845   5.155   6.344   1.062  0.0731  0.5171  0.0035
 8342SOL    HW125846   5.119   6.250   1.064  1.5488 -0.0770  1.4279
 8342SOL    HW225847   5.151   6.380   0.969 -2.6498 -0.0753 -0.1822
 8343SOL     OW25848   6.466   5.134   1.578 -0.2517  0.5700 -0.0642
 8343SOL    HW125849   6.477   5.043   1.618  1.3553  0.7641  0.0332
 8343SOL    HW225850   6.519   5.140   1.494  0.6061  1.7482  0.5275
 8344SOL     OW25851   5.901   6.297   1.488  0.2539 -0.2431  0.0304
 8344SOL    HW125852   5.859   6.222   1.436 -2.2043  0.1999  1.2216
 8344SOL    HW225853   5.999   6.280   1.499 -0.0802 -2.8676 -0.3881
 8345SOL     OW25854   6.748   6.247   4.062 -0.3744 -0.3258  0.2394
 8345SOL    HW125855   6.740   6.318   4.132  1.3002 -0.9409  1.0895
 8345SOL    HW225856   6.657   6.209   4.042 -0.6649 -1.7140  3.7159
 8346SOL     OW25857   5.505   6.170   4.426 -0.2116 -0.4431  0.5776
 8346SOL    HW125858   5.572   6.097   4.444  0.5980  0.1634  0.1297
 8346SOL    HW225859   5.487   6.220   4.510 -1.5802 -1.7846  1.1406
 8347SOL     OW25860   5.938   4.869   3.333 -0.9002 -0.0950  0.4683
 8347SOL    HW125861   5.934   4.894   3.430 -1.5279 -1.0241  0.6976
 8347SOL    HW225862   5.854   4.820   3.308 -0.6484 -0.0508 -0.4937
 8348SOL     OW25863   2.400   4.648   5.885  0.2727  0.5176  0.2766
 8348SOL    HW125864   2.302   4.661   5.905  0.2272  0.4086  0.1260
 8348SOL    HW225865   2.439   4.735   5.854 -0.0021  0.3386 -0.6107
 8349SOL     OW25866   4.519   0.267   1.646 -0.1491  0.0978 -0.0428
 8349SOL    HW125867   4.568   0.225   1.570  0.5369 -0.1753  0.5497
 8349SOL    HW225868   4.548   0.362   1.657 -1.6300  0.7301 -1.3236
 8350SOL     OW25869   4.147   0.912   3.979 -0.2165  0.2867  0.2645
 8350SOL    HW125870   4.050   0.907   4.003 -0.4068  1.9921 -0.0413
 8350SOL    HW225871   4.161   0.874   3.888 -0.6132  0.0564  0.2986
 8351SOL     OW25872   6.483   1.802   4.744  0.1404 -0.1474 -0.0217
 8351SOL    HW125873   6.460   1.826   4.838 -1.5205 -0.5464 -0.2993
 8351SOL    HW225874   6.425   1.726   4.713 -0.0890  0.6647 -1.7174
 8352SOL     OW25875   2.316   2.208   6.730 -0.5753 -0.5810  0.2112
 8352SOL    HW125876   2.346   2.124   6.683 -0.3600  0.0211 -0.7561
 8352SOL    HW225877   2.366   2.217   6.816  0.9371 -0.3956 -0.6485
 8353SOL     OW25878   4.869   6.907   5.294 -0.2849 -0.7495 -0.3224
 8353SOL    HW125879   4.935   6.906   5.219  1.2114 -2.1279  0.9357
 8353SOL    HW225880   4.893   6.836   5.360 -4.0161 -2.4811 -0.6065
 8354SOL     OW25881   5.191   4.328   3.106 -0.1054  0.4789 -0.5702
 8354SOL    HW125882   5.155   4.238   3.130  0.6306 -0.0267 -1.3153
 8354SOL    HW225883   5.115   4.390   3.086 -0.5980 -0.5312 -2.0056
 8355SOL     OW25884   4.412   1.273   0.163 -0.0439  0.5786  0.1909
 8355SOL    HW125885   4.354   1.275   0.081 -1.5721  1.3966  1.2362
 8355SOL    HW225886   4.393   1.189   0.214  0.9978  0.0103 -0.3201
 8356SOL     OW25887   3.144   4.614   2.529 -0.2561  0.0232  0.1568
 8356SOL    HW125888   3.216   4.669   2.571 -0.7954  0.6063  0.3432
 8356SOL    HW225889   3.166   4.517   2.536  1.0454  0.2197 -0.7538
 8357SOL     OW25890   0.375   3.842   1.932 -0.7357 -0.5427 -0.6729
 8357SOL    HW125891   0.379   3.788   1.848  0.8978 -2.2481  0.3979
 8357SOL    HW225892   0.347   3.783   2.008  2.8005 -0.4517  0.8760
 8358SOL     OW25893   2.050   0.528   0.004  0.3761 -0.2669  0.7435
 8358SOL    HW125894   1.989   0.473  -0.052 -1.4517  1.2851  1.1202
 8358SOL    HW225895   2.096   0.596  -0.054  0.2819 -0.1844  0.7918
 8359SOL     OW25896   5.037   6.616   2.263  0.3758 -0.1769 -0.7068
 8359SOL    HW125897   5.125   6.613   2.215  0.4549 -0.6090 -0.5401
 8359SOL    HW225898   5.018   6.526   2.303 -1.2939 -0.8074 -2.8072
 8360SOL     OW25899   0.501   4.335   5.211  0.2052  0.7905 -0.6323
 8360SOL    HW125900   0.588   4.329   5.162  0.0779 -1.8144 -0.7033
 8360SOL    HW225901   0.428   4.357   5.146  0.1541 -1.8859 -1.6090
 8361SOL     OW25902   4.602   0.280   0.388 -0.6042 -0.8117 -0.0622
 8361SOL    HW125903   4.620   0.303   0.483  0.6540  0.8270 -0.6608
 8361SOL    HW225904   4.506   0.299   0.366 -0.7926 -0.7956  0.7588
 8362SOL     OW25905   6.572   4.941   3.651  0.7291 -1.0003 -0.6566
 8362SOL    HW125906   6.629   4.967   3.573  0.3211  0.2843 -0.5542
 8362SOL    HW225907   6.624   4.952   3.736  0.5631 -0.5329 -0.6143
 8363SOL     OW25908   2.373   1.649   6.309 -0.0954 -0.3542 -0.6370
 8363SOL    HW125909   2.335   1.623   6.220 -1.9108 -0.3522  0.1011
 8363SOL    HW225910   2.472   1.632   6.309 -0.1455 -0.8513 -2.4605
 8364SOL     OW25911   4.431   5.135   1.784 -0.8071 -0.7426 -0.0506
 8364SOL    HW125912   4.501   5.106   1.718 -0.4983 -0.6618  0.2385
 8364SOL    HW225913   4.376   5.057   1.811 -0.9963 -0.7599 -0.4774
 8365SOL     OW25914   6.545   0.714   5.437 -0.0538  0.2773 -0.6113
 8365SOL    HW125915   6.633   0.704   5.484 -0.7070 -1.5301  0.3299
 8365SOL    HW225916   6.553   0.783   5.365  1.6329  1.4665  0.6182
 8366SOL     OW25917   3.333   5.165   0.384  0.7984 -0.0269  0.2501
 8366SOL    HW125918   3.305   5.228   0.457  2.5105  0.8022  0.2551
 8366SOL    HW225919   3.376   5.217   0.310  1.2921 -1.0820 -0.2360
 8367SOL     OW25920   1.139   3.760   5.418 -0.5289  0.4456  0.2432
 8367SOL    HW125921   1.093   3.848   5.416 -2.1428 -0.3433  0.9145
 8367SOL    HW225922   1.141   3.720   5.326  0.4301  1.2510 -0.1092
 8368SOL     OW25923   0.085   6.910   2.478 -0.2831  0.3219  0.1219
 8368SOL    HW125924   0.096   6.814   2.507 -1.1366 -0.2891 -1.4225
 8368SOL    HW225925   0.008   6.951   2.527 -1.1222 -0.3942 -0.5634
 8369SOL     OW25926   3.657   2.022   2.098  0.1127 -0.0414  0.3760
 8369SOL    HW125927   3.636   1.987   2.007 -0.2423  0.7365  0.1476
 8369SOL    HW225928   3.628   1.956   2.167 -1.2347  0.1048 -0.0092
 8370SOL     OW25929   0.884   6.053   1.885  0.0442 -0.3081  0.2328
 8370SOL    HW125930   0.784   6.062   1.882 -0.0366 -0.9839  0.6495
 8370SOL    HW225931   0.909   5.957   1.875  0.5700 -0.3766  1.8593
 8371SOL     OW25932   1.554   2.514   2.032  0.2285  0.0094 -0.0391
 8371SOL    HW125933   1.494   2.494   2.110  2.8854 -0.8710  1.9550
 8371SOL    HW225934   1.608   2.432   2.010  1.4285  1.0289 -1.0276
 8372SOL     OW25935   0.641   6.117   4.330 -0.3989 -0.0369 -0.0189
 8372SOL    HW125936   0.565   6.059   4.300  0.0634 -1.1655  0.8676
 8372SOL    HW225937   0.606   6.195   4.381 -1.0251  0.3097 -0.9631
 8373SOL     OW25938   5.244   0.460   4.289  0.3131 -0.1885 -0.3748
 8373SOL    HW125939   5.262   0.396   4.364 -0.0018  1.3641  1.0945
 8373SOL    HW225940   5.319   0.527   4.285 -0.3918  0.6077 -0.4791
 8374SOL     OW25941   5.687   0.165   0.463 -0.1270 -0.1148 -0.1283
 8374SOL    HW125942   5.783   0.139   0.455 -0.5339 -1.4522 -1.2855
 8374SOL    HW225943   5.680   0.263   0.480  1.4244  0.2736 -1.4863
 8375SOL     OW25944   5.460   4.902   0.409 -0.2982 -0.1396  0.0818
 8375SOL    HW125945   5.401   4.822   0.412 -0.8686  0.2786  0.1978
 8375SOL    HW225946   5.464   4.944   0.500 -1.3942  0.9509 -0.3493
 8376SOL     OW25947   3.191   5.775   3.994 -0.1460  0.3111 -0.5594
 8376SOL    HW125948   3.281   5.807   4.022 -1.3786  4.7438 -0.8496
 8376SOL    HW225949   3.182   5.781   3.894 -0.4559 -1.3289 -0.6745
 8377SOL     OW25950   6.441   3.990   6.989 -0.7984 -0.3595  0.9719
 8377SOL    HW125951   6.407   4.082   7.005  0.0302 -0.3500  3.1692
 8377SOL    HW225952   6.381   3.924   7.035 -0.7327 -0.8360  0.4084
 8378SOL     OW25953   5.044   5.095   0.838 -0.1110  0.0383 -0.2280
 8378SOL    HW125954   5.042   5.186   0.879 -0.5829 -0.7735  1.6194
 8378SOL    HW225955   5.086   5.030   0.902 -1.9171 -1.4964 -0.5219
 8379SOL     OW25956   5.874   1.221   5.641  0.5600 -0.1396  0.2647
 8379SOL    HW125957   5.901   1.139   5.590 -0.1692 -0.4800  0.4229
 8379SOL    HW225958   5.777   1.216   5.665  0.6538  0.4812  0.8218
 8380SOL     OW25959   1.766   6.192   1.109 -0.0512 -0.1857 -0.1661
 8380SOL    HW125960   1.705   6.140   1.050 -2.3190  0.3935  1.4945
 8380SOL    HW225961   1.773   6.286   1.076  1.1733 -0.5971 -1.1664
 8381SOL     OW25962   4.001   0.913   0.077  0.0852 -0.6841 -0.0378
 8381SOL    HW125963   4.094   0.888   0.052  0.6232  0.6479  0.5251
 8381SOL    HW225964   3.982   0.882   0.171 -0.4318 -1.9053 -0.5259
 8382SOL     OW25965   2.649   0.821   3.387  0.1649 -0.1086  0.0445
 8382SOL    HW125966   2.646   0.919   3.365 -1.5818  0.5008  2.5967
 8382SOL    HW225967   2.705   0.807   3.468 -0.0171 -1.1420 -0.0006
 8383SOL     OW25968   4.035   0.406   1.978 -0.0825 -0.0054  0.0307
 8383SOL    HW125969   4.054   0.503   1.962 -1.9806 -0.0943 -4.0018
 8383SOL    HW225970   3.959   0.397   2.043  0.0376  1.1885  0.3580
 8384SOL     OW25971   4.249   5.494   6.623 -0.7043  0.1066  0.7694
 8384SOL    HW125972   4.163   5.444   6.613 -0.4098 -0.1403 -0.9413
 8384SOL    HW225973   4.232   5.592   6.620 -0.9506  0.0601  0.6421
 8385SOL     OW25974   6.765   3.409   3.763  0.1175  0.5810  0.1016
 8385SOL    HW125975   6.807   3.321   3.785 -1.8258 -0.6730 -0.8982
 8385SOL    HW225976   6.742   3.412   3.666 -2.5126  0.9400  0.6467
 8386SOL     OW25977   6.196   6.005   2.179 -0.0932 -0.7287  0.0825
 8386SOL    HW125978   6.141   6.077   2.136 -0.4714 -0.7087  0.5977
 8386SOL    HW225979   6.281   5.994   2.127  0.5495  0.9590  0.7241
 8387SOL     OW25980   6.639   1.773   5.765  0.2145  0.0028 -0.0995
 8387SOL    HW125981   6.691   1.709   5.708 -0.7490  0.3688 -1.4361
 8387SOL    HW225982   6.576   1.825   5.708 -1.3957 -0.1864  1.4187
 8388SOL     OW25983   2.739   6.481   2.146 -0.2363 -0.2181 -0.2833
 8388SOL    HW125984   2.750   6.383   2.163 -0.4322 -0.2224 -0.1735
 8388SOL    HW225985   2.644   6.507   2.162  0.1178  0.2802  1.1191
 8389SOL     OW25986   6.602   2.980   0.585  0.2662  0.3954 -0.6316
 8389SOL    HW125987   6.546   3.063   0.583  1.1575  1.0073 -0.8221
 8389SOL    HW225988   6.585   2.926   0.502  0.3436  0.8464 -0.9505
 8390SOL     OW25989   0.094   0.277   0.633 -0.5347  0.0785 -0.2514
 8390SOL    HW125990   0.114   0.206   0.701  0.1483 -1.3076 -1.8207
 8390SOL    HW225991   0.065   0.360   0.680 -2.5134 -1.5333  1.6745
 8391SOL     OW25992   5.112   5.869   3.144  0.0773  0.1002  0.3614
 8391SOL    HW125993   5.109   5.967   3.126  1.6352  0.3924  1.4695
 8391SOL    HW225994   5.059   5.820   3.075  0.4017  1.6087 -1.0008
 8392SOL     OW25995   3.972   0.415   5.940  0.1120 -0.2992  0.5846
 8392SOL    HW125996   3.901   0.472   5.899 -0.0461 -0.4663  0.6208
 8392SOL    HW225997   4.062   0.449   5.914  0.0725 -2.2711 -2.7143
 8393SOL     OW25998   2.803   4.608   5.109  0.6437 -0.3242 -0.6163
 8393SOL    HW125999   2.852   4.621   5.023  1.0636 -0.0306 -0.3371
 8393SOL    HW226000   2.752   4.522   5.106  1.7774 -1.0179 -0.6277
 8394SOL     OW26001   2.497   3.932   1.041  0.0436 -0.3794 -0.0563
 8394SOL    HW126002   2.439   3.866   0.993 -0.9416  0.4433 -0.0298
 8394SOL    HW226003   2.587   3.936   0.998 -0.4142 -0.5668 -1.0412
 8395SOL     OW26004   5.908   3.673   1.691 -0.0121  0.5532  0.3580
 8395SOL    HW126005   5.816   3.659   1.653  0.9057  0.4943 -2.0054
 8395SOL    HW226006   5.936   3.768   1.676  0.7467  0.2817 -0.0299
 8396SOL     OW26007   3.071   4.642   6.402  0.1940 -0.0612 -0.2967
 8396SOL    HW126008   3.109   4.572   6.342 -2.0981 -0.1034 -1.7783
 8396SOL    HW226009   2.980   4.614   6.433  0.2350  1.1848  1.0907
 8397SOL     OW26010   1.104   0.460   1.166 -0.8380 -0.5218  0.1189
 8397SOL    HW126011   1.168   0.483   1.239 -0.9121  0.9110 -0.2303
 8397SOL    HW226012   1.145   0.480   1.077 -1.0495 -1.4676 -0.2017
 8398SOL     OW26013   2.202   4.399   3.448  0.3091  0.0498 -0.2695
 8398SOL    HW126014   2.298   4.421   3.432  0.4951  0.7745  1.5946
 8398SOL    HW226015   2.195   4.334   3.524 -0.7110  1.6375  1.1020
 8399SOL     OW26016   3.203   5.334   3.100 -0.3480  0.4644  0.0990
 8399SOL    HW126017   3.171   5.428   3.088 -0.2130  0.5966  0.6984
 8399SOL    HW226018   3.215   5.315   3.198 -0.7975 -0.3171  0.0174
 8400SOL     OW26019   0.231   1.705   6.913  0.3250 -0.9614 -0.2670
 8400SOL    HW126020   0.232   1.805   6.925 -2.3446 -0.8213 -0.6650
 8400SOL    HW226021   0.308   1.678   6.856  1.3441  0.8101  0.1772
 8401SOL     OW26022   6.647   0.217   6.387 -0.1988  0.3808 -0.3372
 8401SOL    HW126023   6.712   0.149   6.353 -0.6130  0.4483 -1.2703
 8401SOL    HW226024   6.672   0.242   6.481  1.2525  0.5522 -0.7355
 8402SOL     OW26025   0.438   2.037   2.346 -0.2053  0.1245  0.0506
 8402SOL    HW126026   0.434   1.981   2.263  0.9550  1.5057 -0.9914
 8402SOL    HW226027   0.534   2.057   2.367 -0.5974  1.9921  0.1877
 8403SOL     OW26028   3.021   0.200   1.161  0.3621 -0.3111  0.1503
 8403SOL    HW126029   3.080   0.126   1.130  0.9953 -0.1884  1.0231
 8403SOL    HW226030   2.934   0.161   1.193  0.8539 -0.7418  1.0105
 8404SOL     OW26031   2.072   0.149   0.265 -0.2784 -0.4287  0.3489
 8404SOL    HW126032   2.098   0.112   0.354  1.5847  2.1316  1.0007
 8404SOL    HW226033   2.053   0.247   0.274  1.1075  0.1599 -2.2194
 8405SOL     OW26034   5.931   2.084   3.624 -0.1569 -0.2855  0.8838
 8405SOL    HW126035   5.972   2.123   3.706  0.9089 -1.3099  0.8634
 8405SOL    HW226036   5.984   2.005   3.594  0.6198  1.1765 -1.9258
 8406SOL     OW26037   6.418   2.589   1.718 -0.4443 -0.6394  0.1274
 8406SOL    HW126038   6.435   2.687   1.717  1.7236 -0.9614 -0.3902
 8406SOL    HW226039   6.345   2.568   1.783 -0.6553  1.2496  0.5512
 8407SOL     OW26040   6.333   1.396   4.946 -0.2129  0.3363 -0.4027
 8407SOL    HW126041   6.270   1.465   4.982 -0.3184 -0.0973  0.2610
 8407SOL    HW226042   6.380   1.432   4.866  0.1669  1.3966  0.2862
 8408SOL     OW26043   2.029   5.878   6.659 -0.1965  0.0871  0.2492
 8408SOL    HW126044   1.939   5.884   6.701  0.3768  0.1120  1.5089
 8408SOL    HW226045   2.067   5.786   6.674  0.6022  0.5286  1.0583
 8409SOL     OW26046   0.514   6.448   3.453 -0.4845 -0.7973 -0.1469
 8409SOL    HW126047   0.440   6.467   3.389 -1.4234 -0.9496  0.8635
 8409SOL    HW226048   0.479   6.394   3.530  0.8541 -1.5915 -0.0612
 8410SOL     OW26049   6.406   4.998   4.539 -0.1457  0.2685  0.6230
 8410SOL    HW126050   6.314   5.029   4.564 -0.2158  0.8227 -0.2740
 8410SOL    HW226051   6.455   5.073   4.495  0.5146 -0.2155  0.5252
 8411SOL     OW26052   2.592   4.877   3.291  0.3177  0.4004  0.7946
 8411SOL    HW126053   2.510   4.874   3.348 -0.6075  1.6565 -0.4240
 8411SOL    HW226054   2.614   4.971   3.268  1.6278  0.0200  0.3931
 8412SOL     OW26055   1.450   0.036   4.259  0.1320  0.4520 -0.1950
 8412SOL    HW126056   1.463   0.028   4.160 -1.0682 -0.9110 -0.2760
 8412SOL    HW226057   1.357   0.068   4.277 -0.1855 -0.8017  0.4976
 8413SOL     OW26058   4.678   3.208   1.938 -0.1776 -0.9167 -0.0627
 8413SOL    HW126059   4.763   3.260   1.948 -1.4532  1.5669 -1.3019
 8413SOL    HW226060   4.674   3.169   1.846  0.0700 -2.0185  0.3668
 8414SOL     OW26061   5.812   4.088   1.841  0.0649 -0.3933 -0.0418
 8414SOL    HW126062   5.823   4.053   1.748 -0.5149 -0.7331  0.0121
 8414SOL    HW226063   5.836   4.185   1.843  0.6685 -0.5219 -0.4149
 8415SOL     OW26064   3.326   3.943   5.117 -0.7352  0.0370  0.3715
 8415SOL    HW126065   3.360   3.850   5.126 -1.2084 -0.1152  0.5753
 8415SOL    HW226066   3.253   3.947   5.049 -1.5967  0.0147  1.2607
 8416SOL     OW26067   4.088   4.974   3.545  0.0408  0.0019  0.2448
 8416SOL    HW126068   4.064   4.968   3.448 -0.8652  1.7615  0.3312
 8416SOL    HW226069   4.144   4.895   3.571 -0.9872 -1.2958 -1.3299
 8417SOL     OW26070   1.672   4.481   4.490 -0.3139  0.4625  0.7224
 8417SOL    HW126071   1.577   4.470   4.459 -0.1447 -1.2878  0.7215
 8417SOL    HW226072   1.716   4.553   4.436 -1.8130  1.7933  1.1934
 8418SOL     OW26073   5.575   4.075   0.920 -0.4398 -0.2347 -0.2365
 8418SOL    HW126074   5.658   4.019   0.918 -0.8730 -0.9006  0.5181
 8418SOL    HW226075   5.513   4.045   0.848 -1.1307 -1.4519  0.8309
 8419SOL     OW26076   1.694   7.020   2.141 -0.0252 -0.3799 -0.0329
 8419SOL    HW126077   1.727   6.988   2.230  0.9787  1.6194  0.3569
 8419SOL    HW226078   1.620   6.961   2.110 -1.9093  0.1014  3.1262
 8420SOL     OW26079   2.311   1.249   1.193 -0.0239  0.2549 -0.0699
 8420SOL    HW126080   2.326   1.309   1.272 -0.8952 -0.1435  0.4138
 8420SOL    HW226081   2.394   1.246   1.137  0.9911 -0.3421  1.4313
 8421SOL     OW26082   6.723   1.311   5.316 -0.4826  0.5319  0.1479
 8421SOL    HW126083   6.672   1.309   5.230 -0.8037 -0.1676  0.3427
 8421SOL    HW226084   6.791   1.238   5.316 -0.3587  0.6461  0.4128
 8422SOL     OW26085   1.068   3.485   3.060 -0.2635 -0.1120 -0.0660
 8422SOL    HW126086   1.104   3.578   3.050  1.1599 -0.6570 -0.2616
 8422SOL    HW226087   0.971   3.484   3.037 -0.7291  1.6358  1.5898
 8423SOL     OW26088   6.952   3.860   3.259  0.3727 -0.0604  0.1753
 8423SOL    HW126089   6.896   3.789   3.301 -0.1941  0.6157  0.6057
 8423SOL    HW226090   6.892   3.925   3.212  0.5039  2.0595  2.7288
 8424SOL     OW26091   4.563   5.516   6.849 -0.1192  0.5774  0.1427
 8424SOL    HW126092   4.594   5.466   6.930  0.1430  0.7664  0.1588
 8424SOL    HW226093   4.555   5.453   6.772 -1.0608  0.2490  0.4912
 8425SOL     OW26094   3.303   5.293   1.498  0.2841  0.1217 -0.0309
 8425SOL    HW126095   3.286   5.284   1.400  1.7679 -0.9995 -0.2290
 8425SOL    HW226096   3.291   5.388   1.526  0.3281  0.5474 -1.3949
 8426SOL     OW26097   4.340   5.897   6.071  0.5747 -0.4307 -0.0734
 8426SOL    HW126098   4.356   5.982   6.122 -1.5804 -0.8940  1.5302
 8426SOL    HW226099   4.309   5.919   5.979  0.5054  0.5261  0.1662
 8427SOL     OW26100   4.116   5.309   1.094  0.1402 -0.3268  0.1023
 8427SOL    HW126101   4.211   5.296   1.123  0.0544 -0.3905  0.3584
 8427SOL    HW226102   4.114   5.352   1.004  0.4156 -0.5166  0.0048
 8428SOL     OW26103   5.413   2.620   5.754  0.1105 -0.5645 -0.0355
 8428SOL    HW126104   5.447   2.706   5.793 -0.5815 -0.4443  0.3092
 8428SOL    HW226105   5.317   2.607   5.778  0.3395 -1.7005  0.3611
 8429SOL     OW26106   2.814   0.242   5.621  0.9541  0.2971  0.1358
 8429SOL    HW126107   2.738   0.306   5.614  1.6496  1.0685 -0.5449
 8429SOL    HW226108   2.896   0.291   5.653  1.7126 -0.0459 -1.2051
 8430SOL     OW26109   5.064   0.940   1.012 -0.1917 -0.3651 -0.1818
 8430SOL    HW126110   4.965   0.929   1.011 -0.3285  0.7452 -1.2520
 8430SOL    HW226111   5.088   1.014   1.076 -0.1173 -0.1381 -0.4729
 8431SOL     OW26112   5.355   6.181   0.004 -0.2753  0.3471 -0.3378
 8431SOL    HW126113   5.281   6.217  -0.053 -2.5264 -0.1389  2.0640
 8431SOL    HW226114   5.363   6.236   0.087 -0.0218 -1.4200  0.8349
 8432SOL     OW26115   6.323   1.233   4.190  0.1870  0.0071  0.2609
 8432SOL    HW126116   6.349   1.217   4.095 -0.0907 -0.8512  0.3124
 8432SOL    HW226117   6.345   1.152   4.245  0.3958  0.5136  0.9416
 8433SOL     OW26118   1.445   0.334   6.371 -0.3774 -0.7003  0.4879
 8433SOL    HW126119   1.526   0.281   6.395 -0.3581 -0.6737  0.4830
 8433SOL    HW226120   1.367   0.273   6.357  0.5734 -1.2726 -3.8564
 8434SOL     OW26121   0.130   0.920   6.739  0.2021 -0.1603  0.2324
 8434SOL    HW126122   0.128   0.998   6.801  1.3305  0.4506 -0.4918
 8434SOL    HW226123   0.205   0.929   6.674 -1.3616 -0.4051 -1.7322
 8435SOL     OW26124   1.570   0.752   0.966  0.5733  0.5991  0.1617
 8435SOL    HW126125   1.662   0.741   0.929  0.3691  0.8505 -0.4478
 8435SOL    HW226126   1.510   0.789   0.895  0.1353  0.9956  0.7278
 8436SOL     OW26127   1.245   6.041   4.334  0.3728 -0.5721  0.3040
 8436SOL    HW126128   1.295   6.103   4.273  0.7229  0.6112  1.7283
 8436SOL    HW226129   1.233   5.952   4.289  0.6074  0.2508 -1.4609
 8437SOL     OW26130   4.834   3.355   2.540 -0.1579  0.2919 -0.8173
 8437SOL    HW126131   4.755   3.300   2.568  0.6206 -0.7399 -0.6292
 8437SOL    HW226132   4.802   3.432   2.485 -1.3787  0.3576 -0.0490
 8438SOL     OW26133   4.946   6.625   6.691  0.0966 -0.1415  0.1236
 8438SOL    HW126134   4.883   6.681   6.744 -0.7899 -0.0505 -1.0025
 8438SOL    HW226135   5.039   6.637   6.727 -0.1117  1.8060  0.1313
 8439SOL     OW26136   4.946   1.403   3.323 -0.4738  0.4949  0.3573
 8439SOL    HW126137   4.977   1.480   3.379  0.1194 -1.1025  2.3019
 8439SOL    HW226138   5.015   1.382   3.254 -0.4651  1.4122  0.0677
 8440SOL     OW26139   5.477   0.305   5.756  0.6107  0.0430 -0.4088
 8440SOL    HW126140   5.469   0.205   5.759  1.6359 -0.0245  1.7137
 8440SOL    HW226141   5.386   0.346   5.749  0.1470 -1.0081 -0.7638
 8441SOL     OW26142   0.895   1.884   4.691  0.6939  0.0420  0.2000
 8441SOL    HW126143   0.897   1.800   4.745  0.9739 -0.1320 -0.0803
 8441SOL    HW226144   0.809   1.889   4.641  1.0691 -0.5497 -0.5230
 8442SOL     OW26145   0.654   6.355   6.220  0.6597 -0.1258  0.3506
 8442SOL    HW126146   0.620   6.408   6.298 -1.3504 -0.1295 -0.4639
 8442SOL    HW226147   0.740   6.395   6.188 -0.7543  2.7169 -0.2204
 8443SOL     OW26148   5.089   4.467   3.754  0.1612  0.7715  0.4430
 8443SOL    HW126149   5.138   4.547   3.719  0.2719  0.6650  0.3525
 8443SOL    HW226150   5.056   4.411   3.677 -2.2409  2.1015  0.4138
 8444SOL     OW26151   4.923   0.677   0.026  0.0685  0.3692  0.3473
 8444SOL    HW126152   4.912   0.704  -0.069 -0.9599  0.4144  0.4905
 8444SOL    HW226153   4.842   0.626   0.056  0.9353 -0.7861  0.8223
 8445SOL     OW26154   5.334   4.942   2.645 -0.1130  0.4621 -0.4903
 8445SOL    HW126155   5.330   4.870   2.714  1.1471  1.6064  0.8509
 8445SOL    HW226156   5.427   4.947   2.608 -0.5815  0.3803 -1.7450
 8446SOL     OW26157   4.832   5.020   1.793 -0.6379 -0.4268 -0.1494
 8446SOL    HW126158   4.842   5.118   1.775  0.2291 -0.7158 -1.3508
 8446SOL    HW226159   4.871   4.968   1.718  0.3880 -1.7077  1.1993
 8447SOL     OW26160   4.155   0.448   6.880  0.9064 -0.1854  0.4262
 8447SOL    HW126161   4.056   0.442   6.863  1.0333  0.4176 -0.6039
 8447SOL    HW226162   4.197   0.506   6.810  1.7841  0.7323  1.6670
 8448SOL     OW26163   6.710   6.722   3.326 -0.0307 -0.0848 -0.1874
 8448SOL    HW126164   6.636   6.668   3.286  0.6027 -0.5268 -0.7843
 8448SOL    HW226165   6.683   6.818   3.331 -0.4172 -0.1467 -0.9557
 8449SOL     OW26166   5.595   3.288   2.043  0.2770 -0.1704 -0.0498
 8449SOL    HW126167   5.566   3.370   1.993  0.9873 -0.7513 -1.5037
 8449SOL    HW226168   5.681   3.306   2.090  0.2003  0.0428  0.0138
 8450SOL     OW26169   2.835   1.263   5.210 -0.3162  0.2793  0.2842
 8450SOL    HW126170   2.795   1.289   5.122 -0.8193  0.5605  0.5915
 8450SOL    HW226171   2.933   1.282   5.208 -0.3626  0.5071 -0.1387
 8451SOL     OW26172   6.105   2.346   1.532 -0.2468 -0.3095 -0.1356
 8451SOL    HW126173   6.201   2.358   1.506  0.2468 -0.5918  1.4787
 8451SOL    HW226174   6.080   2.249   1.525  0.4049 -0.6869  1.9806
 8452SOL     OW26175   6.173   2.513   4.065  0.2028  0.7375 -0.3795
 8452SOL    HW126176   6.125   2.556   4.141  0.2987  1.1394 -0.5489
 8452SOL    HW226177   6.165   2.569   3.983 -1.0389 -0.3467 -1.0263
 8453SOL     OW26178   2.702   4.213   0.458  0.2526  0.5542 -0.2700
 8453SOL    HW126179   2.659   4.208   0.548 -1.3469  1.5592 -0.9444
 8453SOL    HW226180   2.655   4.151   0.395  0.0392  1.3486 -0.9138
 8454SOL     OW26181   4.103   4.416   2.616  0.7220 -0.8019 -0.4994
 8454SOL    HW126182   4.128   4.369   2.532  0.9327  0.9632 -1.4789
 8454SOL    HW226183   4.098   4.515   2.599 -1.6370 -0.5878  0.9694
 8455SOL     OW26184   3.247   5.048   6.680 -1.0151 -0.1797 -0.1814
 8455SOL    HW126185   3.199   5.021   6.597  1.2981  0.4555 -1.8179
 8455SOL    HW226186   3.262   4.967   6.737 -0.1876 -1.1861 -1.7490
 8456SOL     OW26187   1.793   5.476   5.532 -0.5270 -0.0110  0.1136
 8456SOL    HW126188   1.871   5.425   5.568  1.2298  1.7542 -0.9420
 8456SOL    HW226189   1.756   5.429   5.452 -1.1812 -1.3400  1.1585
 8457SOL     OW26190   4.878   5.918   1.410 -0.1868  0.1450  0.6044
 8457SOL    HW126191   4.862   5.936   1.314 -0.6014  0.3314  0.7092
 8457SOL    HW226192   4.895   6.004   1.458  0.2287  0.0370  0.6643
 8458SOL     OW26193   0.090   2.509   4.323  0.4407  0.0621 -0.1884
 8458SOL    HW126194   0.089   2.416   4.359  1.4917  1.0221  2.6790
 8458SOL    HW226195  -0.001   2.549   4.329  0.4465 -0.1058  0.6143
 8459SOL     OW26196   5.393   4.273   4.048 -0.0081 -0.2233 -0.2950
 8459SOL    HW126197   5.409   4.294   4.144 -0.3959 -0.3683 -0.1961
 8459SOL    HW226198   5.462   4.318   3.992 -1.0068  1.5985 -0.1219
 8460SOL     OW26199   1.891   4.054   4.756  0.3265 -0.0812  0.1163
 8460SOL    HW126200   1.831   4.078   4.680  1.2059  0.4843 -0.4157
 8460SOL    HW226201   1.919   4.137   4.804 -1.0638 -0.4987  1.7385
 8461SOL     OW26202   4.174   1.949   5.628 -0.2290 -0.2837  0.1545
 8461SOL    HW126203   4.237   1.896   5.684 -1.2236 -1.9842 -0.2320
 8461SOL    HW226204   4.175   2.044   5.657  1.8789 -0.4028  0.6847
 8462SOL     OW26205   4.221   3.707   1.064 -0.4232  0.4159 -0.3183
 8462SOL    HW126206   4.128   3.670   1.061 -0.8900  1.3832  1.2764
 8462SOL    HW226207   4.287   3.632   1.052 -1.3724 -0.3409 -1.0393
 8463SOL     OW26208   6.823   1.700   6.940  0.5922  0.4213 -0.5161
 8463SOL    HW126209   6.828   1.784   6.885  1.3720  0.0400 -1.0455
 8463SOL    HW226210   6.815   1.621   6.880  1.3259  0.0008 -0.0930
 8464SOL     OW26211   2.533   1.822   5.616  0.4146 -0.3769 -0.3419
 8464SOL    HW126212   2.462   1.883   5.581  0.6100  0.0985  0.0761
 8464SOL    HW226213   2.621   1.846   5.574  0.6519  0.2022  0.4539
 8465SOL     OW26214   6.651   1.047   6.949  0.1940 -0.7806 -0.2501
 8465SOL    HW126215   6.670   0.984   6.874 -1.4974  1.4377 -2.7034
 8465SOL    HW226216   6.566   1.096   6.931 -0.7156 -0.6373  3.5306
 8466SOL     OW26217   6.513   0.851   5.920  0.2703 -0.1261 -0.7157
 8466SOL    HW126218   6.610   0.838   5.899  0.3508  0.6275 -0.8641
 8466SOL    HW226219   6.467   0.891   5.840 -0.0456  0.0142 -0.4680
 8467SOL     OW26220   3.543   0.188   4.505 -0.3191  0.3596 -0.0945
 8467SOL    HW126221   3.499   0.250   4.440 -0.1291  2.0457  1.3389
 8467SOL    HW226222   3.635   0.166   4.472 -1.5715 -2.0624 -2.3843
 8468SOL     OW26223   5.324   1.585   2.140 -0.2710 -0.0345  0.0239
 8468SOL    HW126224   5.396   1.646   2.174  0.6593 -1.8554  1.4773
 8468SOL    HW226225   5.235   1.630   2.150  0.4274  1.3167  0.4709
 8469SOL     OW26226   1.262   3.988   1.522  0.3363 -0.3389  0.0541
 8469SOL    HW126227   1.316   3.913   1.483 -1.2212 -0.7409 -1.4760
 8469SOL    HW226228   1.287   4.074   1.477 -0.3324 -0.5481 -0.7622
 8470SOL     OW26229   0.903   4.794   6.971  0.5491 -0.5657  0.4220
 8470SOL    HW126230   0.963   4.748   6.905 -0.5017 -1.2045 -0.1044
 8470SOL    HW226231   0.914   4.750   7.061  2.4756  0.7291  0.8683
 8471SOL     OW26232   0.531   1.249   6.625 -0.3345 -0.2776 -0.0943
 8471SOL    HW126233   0.558   1.162   6.665  0.2601  0.3389  0.8909
 8471SOL    HW226234   0.460   1.234   6.556 -0.9539 -1.4485  0.7637
 8472SOL     OW26235   4.974   0.735   1.310  0.1095  0.2492 -0.0630
 8472SOL    HW126236   5.012   0.642   1.307  3.3444  1.4300 -2.3298
 8472SOL    HW226237   5.010   0.784   1.390  1.6860  0.6628 -0.9769
 8473SOL     OW26238   2.891   5.375   2.063  0.0784  0.4516  0.2060
 8473SOL    HW126239   2.910   5.312   2.138 -0.1064 -0.5948 -0.6208
 8473SOL    HW226240   2.839   5.453   2.098 -1.5625 -0.8884  0.8559
 8474SOL     OW26241   3.571   3.300   3.565  0.1186  0.1988 -0.2829
 8474SOL    HW126242   3.559   3.322   3.469 -3.3017  1.0433  0.1977
 8474SOL    HW226243   3.560   3.383   3.620 -0.3863 -0.6286  0.9198
 8475SOL     OW26244   3.421   5.240   3.612  0.1970 -0.6227  0.0526
 8475SOL    HW126245   3.403   5.320   3.668 -0.4681  0.2000 -1.2724
 8475SOL    HW226246   3.512   5.247   3.571 -0.3799  0.2026 -1.1781
 8476SOL     OW26247   4.732   5.172   4.539 -0.3686  0.2066  0.3863
 8476SOL    HW126248   4.713   5.246   4.603  0.5100  1.1148 -0.3985
 8476SOL    HW226249   4.817   5.127   4.563 -1.3627 -1.1993  1.4333
 8477SOL     OW26250   4.943   3.094   5.670 -0.0622  0.8133  0.2676
 8477SOL    HW126251   4.996   3.176   5.648 -0.5448  1.1316  0.2519
 8477SOL    HW226252   4.971   3.059   5.759  1.0133  0.2698 -0.2593
 8478SOL     OW26253   0.709   2.859   4.269  0.6084  0.1260  0.0885
 8478SOL    HW126254   0.637   2.886   4.333  1.7584  2.6195  0.4081
 8478SOL    HW226255   0.671   2.859   4.176 -0.2349 -0.3134  0.4170
 8479SOL     OW26256   1.780   4.009   1.521  0.4101 -0.1468  0.6744
 8479SOL    HW126257   1.720   4.071   1.572  1.5857  1.1854  0.4749
 8479SOL    HW226258   1.797   3.928   1.577 -1.6617 -0.6298  0.6800
 8480SOL     OW26259   0.648   2.335   4.396  0.0450 -0.3649 -0.3759
 8480SOL    HW126260   0.693   2.404   4.339  0.0958  0.6936  0.8942
 8480SOL    HW226261   0.575   2.378   4.449 -1.0315 -1.6357 -0.7616
 8481SOL     OW26262   6.839   6.471   5.512 -0.1746 -0.7750  0.8411
 8481SOL    HW126263   6.764   6.521   5.468  0.2516  0.3296  1.3135
 8481SOL    HW226264   6.926   6.496   5.469  0.0202 -1.3301  0.9065
 8482SOL     OW26265   0.046   0.577   5.901  0.1281  0.5332 -0.4790
 8482SOL    HW126266  -0.001   0.595   5.988 -0.5356 -1.3392 -0.4208
 8482SOL    HW226267   0.114   0.648   5.885  2.6836 -0.7998  3.2712
 8483SOL     OW26268   0.228   4.226   0.645 -0.1981  0.0927  0.1262
 8483SOL    HW126269   0.303   4.288   0.670 -1.0915  0.7938  1.1468
 8483SOL    HW226270   0.210   4.234   0.547 -0.6224  1.8747  0.3081
 8484SOL     OW26271   1.882   3.004   0.664  0.3853  0.2005 -0.6186
 8484SOL    HW126272   1.830   3.083   0.633  0.2991 -0.2206 -1.5608
 8484SOL    HW226273   1.880   2.932   0.595  1.1484 -0.3191 -0.1254
 8485SOL     OW26274   2.677   2.486   6.696 -0.2290  0.2284  0.4518
 8485SOL    HW126275   2.635   2.494   6.786  0.9797  1.9657  0.9117
 8485SOL    HW226276   2.774   2.511   6.702  0.2757 -1.1795 -1.0414
 8486SOL     OW26277   0.448   0.799   0.865  0.6591 -0.1674  0.1501
 8486SOL    HW126278   0.467   0.708   0.829  0.0993 -0.2061 -0.0710
 8486SOL    HW226279   0.409   0.856   0.792 -3.2061 -1.0759  1.3093
 8487SOL     OW26280   6.887   6.333   4.623 -0.3482 -0.3377  0.4588
 8487SOL    HW126281   6.810   6.283   4.582  0.1539  1.0139 -2.4404
 8487SOL    HW226282   6.970   6.314   4.570 -0.1523  3.5069 -0.9239
 8488SOL     OW26283   3.906   5.706   6.026  0.4536  0.2101  0.2976
 8488SOL    HW126284   3.966   5.648   5.971 -0.2410 -0.2371  0.0069
 8488SOL    HW226285   3.843   5.755   5.966  0.2931  0.4107  0.6297
 8489SOL     OW26286   5.590   1.477   2.630  0.7824 -0.6202 -0.1929
 8489SOL    HW126287   5.530   1.452   2.706  1.1000 -1.6403 -0.2657
 8489SOL    HW226288   5.683   1.446   2.650  0.8776 -0.8412 -0.9721
 8490SOL     OW26289   1.634   5.743   2.423 -0.5209 -0.3353 -0.2786
 8490SOL    HW126290   1.609   5.838   2.439 -0.0417 -0.4409  1.2319
 8490SOL    HW226291   1.661   5.731   2.327 -0.3290  1.0979 -0.4253
 8491SOL     OW26292   0.956   6.971   4.209  0.3013 -0.0032  0.2405
 8491SOL    HW126293   0.956   6.931   4.117 -1.1556 -1.5812  0.8685
 8491SOL    HW226294   0.861   6.982   4.240  0.7486  1.7334  1.0504
 8492SOL     OW26295   0.776   0.110   5.124 -0.7261 -0.2220 -0.0980
 8492SOL    HW126296   0.759   0.091   5.221  0.3432 -0.2264  0.1118
 8492SOL    HW226297   0.715   0.183   5.094 -1.1976 -0.3438  0.5275
 8493SOL     OW26298   1.031   2.464   2.869  1.0600  0.1272 -0.1808
 8493SOL    HW126299   1.028   2.420   2.959  1.8222 -1.2510 -0.7847
 8493SOL    HW226300   0.959   2.532   2.862 -0.5530 -1.4126  0.6390
 8494SOL     OW26301   3.228   4.404   3.073 -0.2112  0.1681  0.2292
 8494SOL    HW126302   3.267   4.450   3.152  0.8102  1.0349 -0.7567
 8494SOL    HW226303   3.135   4.373   3.095  0.9851 -2.0747  2.6691
 8495SOL     OW26304   3.049   6.139   3.072 -0.2402 -0.2841  0.0849
 8495SOL    HW126305   3.130   6.092   3.106 -1.2964 -1.4793  1.0732
 8495SOL    HW226306   3.013   6.090   2.992 -0.9177 -0.7709  0.6652
 8496SOL     OW26307   0.362   6.421   5.923 -0.4537 -0.1405  0.5453
 8496SOL    HW126308   0.293   6.433   5.852  0.6975 -0.0238 -0.5683
 8496SOL    HW226309   0.438   6.484   5.907  0.3284 -0.8771  1.2515
 8497SOL     OW26310   6.742   2.033   3.328  0.1666 -0.2777  0.0742
 8497SOL    HW126311   6.801   2.039   3.248 -0.2973  0.7614 -0.2049
 8497SOL    HW226312   6.770   1.955   3.384  1.7016  0.0993 -0.1112
 8498SOL     OW26313   2.804   0.238   6.608  0.1802 -0.3142 -0.1832
 8498SOL    HW126314   2.792   0.184   6.524 -0.3133 -0.0335 -0.2988
 8498SOL    HW226315   2.897   0.273   6.612 -0.2683  1.1787 -1.5403
 8499SOL     OW26316   1.458   5.998   4.980 -0.4614  0.3165 -0.1686
 8499SOL    HW126317   1.428   6.026   5.071 -0.5582 -1.3039  0.3234
 8499SOL    HW226318   1.542   5.945   4.987  0.5919  1.7343 -1.2239
 8500SOL     OW26319   3.628   0.172   1.236  0.0973  0.1528 -0.1647
 8500SOL    HW126320   3.697   0.143   1.170 -0.0170 -0.1090 -0.1715
 8500SOL    HW226321   3.655   0.259   1.277  0.9370 -0.4352  0.5679
 8501SOL     OW26322   0.916   3.805   4.249 -0.2137 -0.3666 -0.4543
 8501SOL    HW126323   0.853   3.728   4.255 -0.1526 -0.3613  0.3198
 8501SOL    HW226324   1.005   3.778   4.286  0.0200 -0.1427 -0.8448
 8502SOL     OW26325   0.193   3.433   6.403  0.3078 -0.1196 -0.0536
 8502SOL    HW126326   0.112   3.379   6.427  0.4518 -0.5579 -0.5199
 8502SOL    HW226327   0.275   3.385   6.432  0.4245  0.0158 -0.1546
 8503SOL     OW26328   3.592   5.825   1.114  0.4199 -0.7185 -0.1126
 8503SOL    HW126329   3.653   5.807   1.191 -1.0086  1.8342  1.7918
 8503SOL    HW226330   3.634   5.892   1.053 -0.1351  0.6211  0.9033
 8504SOL     OW26331   4.674   2.860   5.210  0.1500  0.0001  0.0668
 8504SOL    HW126332   4.686   2.936   5.274 -0.8424 -0.7064  1.1255
 8504SOL    HW226333   4.741   2.868   5.136 -1.0085  2.8470 -0.8074
 8505SOL     OW26334   0.250   5.939   5.206 -0.3532 -0.3822 -0.1615
 8505SOL    HW126335   0.286   6.019   5.157  2.5429 -2.1415 -1.1365
 8505SOL    HW226336   0.325   5.888   5.245 -2.1566 -2.4982  0.7063
 8506SOL     OW26337   0.625   2.865   5.060 -0.0824  0.2833 -0.2278
 8506SOL    HW126338   0.720   2.836   5.071  0.6462  2.6120  0.2290
 8506SOL    HW226339   0.568   2.820   5.129  1.2048  0.9296  1.3115
 8507SOL     OW26340   1.230   6.275   3.927  0.2028 -0.0953 -0.6652
 8507SOL    HW126341   1.164   6.348   3.945  1.3703  1.1092 -1.1254
 8507SOL    HW226342   1.181   6.195   3.891 -1.1417  0.3090  0.1410
 8508SOL     OW26343   3.749   6.301   1.684  0.9255 -0.3655  0.0338
 8508SOL    HW126344   3.778   6.206   1.680 -2.3733 -1.4732 -1.9832
 8508SOL    HW226345   3.670   6.310   1.744  1.8714  1.3991  1.1197
 8509SOL     OW26346   4.900   3.333   1.198 -0.5402  0.3238 -0.2866
 8509SOL    HW126347   4.951   3.247   1.190 -0.0400  0.4589  1.0798
 8509SOL    HW226348   4.803   3.313   1.215 -0.7200  0.0529 -1.5583
 8510SOL     OW26349   2.705   4.778   6.369  0.5598  0.0219 -0.2687
 8510SOL    HW126350   2.765   4.840   6.420  1.0250 -0.3814 -0.3240
 8510SOL    HW226351   2.612   4.786   6.404  1.0200 -0.8252  1.1853
 8511SOL     OW26352   4.567   5.158   6.027  0.3987 -0.5840  0.5674
 8511SOL    HW126353   4.502   5.082   6.033  2.1369 -2.2419 -0.3170
 8511SOL    HW226354   4.557   5.204   5.938 -2.0617  1.6973  1.8663
 8512SOL     OW26355   3.217   5.391   6.870 -0.0549  0.2440 -0.3568
 8512SOL    HW126356   3.171   5.350   6.792  1.6434  0.2033 -1.3808
 8512SOL    HW226357   3.254   5.320   6.930  0.2685  0.2742 -0.5194
 8513SOL     OW26358   0.649   0.180   3.546  0.3341  0.3428  0.5210
 8513SOL    HW126359   0.576   0.112   3.543  0.3688  0.3187  0.0449
 8513SOL    HW226360   0.730   0.144   3.500  0.0264  1.0795 -0.6610
 8514SOL     OW26361   0.680   4.969   6.954 -0.1684  0.2567 -0.5223
 8514SOL    HW126362   0.664   4.985   6.857 -1.0053 -0.8411 -0.5916
 8514SOL    HW226363   0.747   4.896   6.966  0.5515  0.9446 -0.2529
 8515SOL     OW26364   4.147   2.488   6.424 -0.2672  0.1123  0.0478
 8515SOL    HW126365   4.221   2.475   6.358  0.3686  1.0200  0.5632
 8515SOL    HW226366   4.065   2.441   6.391  0.0047  0.6057 -1.4521
 8516SOL     OW26367   2.927   1.072   2.484  0.5933 -0.0907 -0.4473
 8516SOL    HW126368   2.893   1.078   2.577  1.6698 -0.0982 -0.0408
 8516SOL    HW226369   2.851   1.052   2.422  0.1456 -2.2646  0.6671
 8517SOL     OW26370   0.237   0.004   4.048 -0.3918 -0.3428  0.0437
 8517SOL    HW126371   0.195   0.095   4.045 -1.8492 -1.0178 -2.1486
 8517SOL    HW226372   0.197  -0.049   4.122 -0.2166  0.4835  0.7320
 8518SOL     OW26373   0.802   5.188   4.099 -0.6487 -0.2756  0.4682
 8518SOL    HW126374   0.873   5.125   4.068 -0.5212  0.0750  0.0385
 8518SOL    HW226375   0.843   5.264   4.149 -0.8509 -0.8444  1.5767
 8519SOL     OW26376   6.538   5.286   5.680 -0.5047 -0.4461 -0.0781
 8519SOL    HW126377   6.534   5.293   5.581  0.6165 -0.9653 -0.1803
 8519SOL    HW226378   6.525   5.190   5.707  0.0161 -0.4438  0.2045
 8520SOL     OW26379   2.187   4.705   4.832 -0.2510 -0.3344 -0.2827
 8520SOL    HW126380   2.266   4.753   4.795  1.6480 -3.5483 -0.7678
 8520SOL    HW226381   2.211   4.665   4.921 -1.0879 -1.8476 -0.6971
 8521SOL     OW26382   6.714   1.356   6.393 -0.5426  0.0332 -0.5942
 8521SOL    HW126383   6.758   1.371   6.482 -0.6070  0.9423 -0.7092
 8521SOL    HW226384   6.784   1.341   6.323 -0.4323  0.7435 -0.6429
 8522SOL     OW26385   0.662   2.909   1.108 -0.1041 -0.1562  0.3735
 8522SOL    HW126386   0.738   2.920   1.172  1.1860  0.7704 -1.2448
 8522SOL    HW226387   0.651   2.812   1.085  0.3457 -0.3397  0.9236
 8523SOL     OW26388   3.461   5.412   3.859 -0.1206 -0.1234  0.6040
 8523SOL    HW126389   3.460   5.512   3.847  2.2236 -0.1611 -0.4936
 8523SOL    HW226390   3.413   5.388   3.943  1.1164  2.1221  2.0528
 8524SOL     OW26391   3.919   1.197   0.148 -0.8139  0.2125  0.0904
 8524SOL    HW126392   3.949   1.260   0.076  0.3571  3.1342  2.8886
 8524SOL    HW226393   3.953   1.105   0.128  1.8155  1.4542 -1.7142
 8525SOL     OW26394   4.974   6.102   2.777 -0.2974  0.5962  0.0455
 8525SOL    HW126395   4.923   6.185   2.801  0.3523  1.4833 -1.4817
 8525SOL    HW226396   4.914   6.039   2.727 -0.6247  0.3844  0.6843
 8526SOL     OW26397   6.624   1.881   4.978  0.0305  0.0975 -0.0598
 8526SOL    HW126398   6.577   1.889   5.066  0.9480 -0.6666  0.5145
 8526SOL    HW226399   6.615   1.967   4.928 -0.3294  0.6112  0.8686
 8527SOL     OW26400   2.344   0.173   4.249  0.2614  0.0960 -0.1738
 8527SOL    HW126401   2.397   0.175   4.165 -1.6036 -0.7021 -1.4437
 8527SOL    HW226402   2.314   0.079   4.267 -3.2143  0.8864 -1.2087
 8528SOL     OW26403   6.234   3.074   5.127  0.0705 -0.1136 -0.3302
 8528SOL    HW126404   6.138   3.046   5.127 -0.2166  0.8548 -0.6658
 8528SOL    HW226405   6.287   3.009   5.072 -0.2217 -1.1709  0.6041
 8529SOL     OW26406   6.155   0.644   5.951 -0.2897  0.0374  0.2962
 8529SOL    HW126407   6.198   0.636   6.041  1.0560 -0.0405 -0.3286
 8529SOL    HW226408   6.225   0.648   5.880 -1.3294 -1.0428 -0.8620
 8530SOL     OW26409   4.854   0.942   5.523 -0.4870  0.1015 -0.0396
 8530SOL    HW126410   4.784   0.879   5.557 -2.2327  1.6397 -0.5502
 8530SOL    HW226411   4.870   1.014   5.591 -1.1035  1.0049 -0.8213
 8531SOL     OW26412   6.642   4.450   5.146  0.1952 -0.2192 -0.3698
 8531SOL    HW126413   6.620   4.452   5.048 -0.2290  0.4026 -0.2646
 8531SOL    HW226414   6.558   4.430   5.197 -0.2721  2.5381  0.0707
 8532SOL     OW26415   2.030   0.388   4.781 -0.9096  0.9737 -0.3131
 8532SOL    HW126416   2.125   0.372   4.754 -0.9130  1.9010 -0.9241
 8532SOL    HW226417   1.972   0.315   4.743 -0.3825  0.0767  0.5508
 8533SOL     OW26418   6.043   4.014   0.756  0.0912  0.2535  0.0039
 8533SOL    HW126419   6.060   3.984   0.849 -0.3677 -1.1745 -0.3426
 8533SOL    HW226420   5.968   4.080   0.756 -0.1354  0.0039  0.6004
 8534SOL     OW26421   0.789   4.239   4.537  0.1722  0.2059  0.4993
 8534SOL    HW126422   0.697   4.210   4.511  0.8099 -1.9306  0.3721
 8534SOL    HW226423   0.822   4.308   4.472  0.1516 -1.9504 -2.0029
 8535SOL     OW26424   3.941   6.542   2.891  0.4387 -0.2902  0.0630
 8535SOL    HW126425   3.996   6.624   2.872 -0.1334  0.4165  1.4298
 8535SOL    HW226426   3.921   6.496   2.804  0.3689  1.2597 -0.7788
 8536SOL     OW26427   4.585   0.535   1.637 -0.3469 -0.1110  0.2437
 8536SOL    HW126428   4.522   0.601   1.596  0.8786  1.1151  0.2812
 8536SOL    HW226429   4.659   0.517   1.573  0.5782  0.3693  1.1696
 8537SOL     OW26430   1.147   1.655   3.916 -0.3489 -0.0132 -0.3340
 8537SOL    HW126431   1.147   1.710   3.999 -0.6338  0.2805 -0.5262
 8537SOL    HW226432   1.060   1.667   3.868 -0.8152 -1.3867  0.1293
 8538SOL     OW26433   6.323   6.591   5.202 -0.5863  0.2579 -0.0508
 8538SOL    HW126434   6.248   6.530   5.225 -0.2133 -0.5635 -0.9419
 8538SOL    HW226435   6.395   6.539   5.156  0.4442  1.0707  0.6042
 8539SOL     OW26436   4.442   1.557   1.622  0.0042 -0.1078  0.3787
 8539SOL    HW126437   4.509   1.557   1.548 -1.6206  1.5670 -1.2046
 8539SOL    HW226438   4.350   1.551   1.584 -0.8725  0.0388  2.3301
 8540SOL     OW26439   2.236   0.699   5.589  0.1734 -0.1944 -0.4253
 8540SOL    HW126440   2.249   0.784   5.539 -0.1744 -1.1977 -2.3183
 8540SOL    HW226441   2.188   0.633   5.531  0.0009 -1.5272  1.1538
 8541SOL     OW26442   1.351   5.342   3.787  0.3804  0.2138 -0.1918
 8541SOL    HW126443   1.354   5.360   3.688  0.4611 -2.0683 -0.6580
 8541SOL    HW226444   1.433   5.290   3.813 -0.2802 -0.3398  0.8258
 8542SOL     OW26445   0.616   2.182   5.864  0.1313 -0.3518  0.1787
 8542SOL    HW126446   0.576   2.183   5.956 -0.9314  0.1243 -0.2627
 8542SOL    HW226447   0.561   2.123   5.805  0.7307 -0.5590 -0.1818
 8543SOL     OW26448   6.155   0.375   1.083  0.3019 -0.1690 -0.2740
 8543SOL    HW126449   6.159   0.289   1.134 -0.6556  0.5445  1.0373
 8543SOL    HW226450   6.229   0.435   1.115 -0.8611  0.6448  1.0216
 8544SOL     OW26451   4.081   3.534   5.799 -0.8554  0.0711  0.1081
 8544SOL    HW126452   4.177   3.516   5.777 -0.4189  0.2007  1.7791
 8544SOL    HW226453   4.058   3.627   5.771 -0.0367  0.5783  1.0400
 8545SOL     OW26454   1.271   0.612   3.161  0.6220 -0.1472 -0.5784
 8545SOL    HW126455   1.302   0.580   3.251 -0.2354  0.5814  0.0031
 8545SOL    HW226456   1.179   0.577   3.144  0.8823 -0.4956 -1.3061
 8546SOL     OW26457   4.261   6.945   3.604 -0.5058  0.4991 -0.2785
 8546SOL    HW126458   4.300   6.873   3.661  1.0564  0.7045 -1.0205
 8546SOL    HW226459   4.161   6.939   3.607 -0.4859 -2.6806 -1.5484
 8547SOL     OW26460   4.534   5.131   5.141  0.2088  0.2590 -0.2797
 8547SOL    HW126461   4.558   5.227   5.126  0.0717  0.1820 -0.9817
 8547SOL    HW226462   4.615   5.080   5.170  0.2714  0.5893  0.1448
 8548SOL     OW26463   0.060   1.576   6.374 -0.2136 -0.0888 -0.4788
 8548SOL    HW126464   0.098   1.509   6.438  0.6275  0.0808 -0.7813
 8548SOL    HW226465  -0.011   1.629   6.419  1.0952  0.7359  0.6475
 8549SOL     OW26466   5.154   4.269   1.429 -0.5433  0.3703 -0.5748
 8549SOL    HW126467   5.080   4.280   1.362 -0.4894 -0.7339 -0.8297
 8549SOL    HW226468   5.198   4.181   1.416 -0.4600  0.1772  0.8506
 8550SOL     OW26469   5.282   4.736   4.183 -0.1229  0.0029 -0.2519
 8550SOL    HW126470   5.281   4.686   4.097  0.0306  1.2715 -1.0169
 8550SOL    HW226471   5.241   4.827   4.170 -1.4378 -0.3083  1.3488
 8551SOL     OW26472   3.119   1.166   2.239  0.3175 -1.1931 -0.0457
 8551SOL    HW126473   3.153   1.076   2.212  0.9307 -1.0263  0.1352
 8551SOL    HW226474   3.034   1.186   2.190  0.7560 -1.4166 -0.9197
 8552SOL     OW26475   0.850   3.919   1.915 -0.2831  0.0625 -0.1649
 8552SOL    HW126476   0.906   3.985   1.865  0.7271 -1.0030 -0.4987
 8552SOL    HW226477   0.755   3.949   1.915  0.3000  2.0014  0.5524
 8553SOL     OW26478   0.030   1.511   6.978 -0.3394  0.3403 -0.8024
 8553SOL    HW126479   0.101   1.574   6.948 -0.5950  0.5342 -1.0039
 8553SOL    HW226480   0.023   1.513   7.078  1.5672 -1.4208 -0.6097
 8554SOL     OW26481   2.627   6.869   1.473 -0.5322 -0.0566 -0.1134
 8554SOL    HW126482   2.593   6.781   1.506  2.2827 -1.4607 -0.6542
 8554SOL    HW226483   2.616   6.938   1.544 -0.6996 -1.4055  1.2223
 8555SOL     OW26484   3.919   0.500   4.758 -0.1207 -0.7868  0.0067
 8555SOL    HW126485   3.882   0.585   4.794  0.2652 -0.1151 -1.1417
 8555SOL    HW226486   3.853   0.426   4.773 -1.6211  0.2177 -1.2405
 8556SOL     OW26487   0.620   1.370   1.052 -0.3740  0.0673 -0.1611
 8556SOL    HW126488   0.540   1.406   1.003 -0.7909  0.2494  0.6338
 8556SOL    HW226489   0.660   1.295   1.000 -2.8660 -2.0793  0.7482
 8557SOL     OW26490   6.521   6.089   4.795  0.2229  0.3412 -0.2136
 8557SOL    HW126491   6.504   5.993   4.820  1.1706 -0.1476 -1.2986
 8557SOL    HW226492   6.435   6.132   4.767 -0.5547  0.4071  2.0512
 8558SOL     OW26493   5.877   2.192   2.377  0.1393  1.0614 -0.3565
 8558SOL    HW126494   5.916   2.108   2.339 -0.1883  1.0024 -0.5624
 8558SOL    HW226495   5.789   2.172   2.420  0.6416  1.0735  0.6950
 8559SOL     OW26496   5.322   2.995   6.211  0.3919 -0.1223  0.5830
 8559SOL    HW126497   5.236   3.000   6.261 -0.5938 -2.6129 -0.7449
 8559SOL    HW226498   5.372   2.912   6.237 -0.1792 -1.5599 -2.4370
 8560SOL     OW26499   5.428   3.079   5.693  0.1967  0.2394  0.2347
 8560SOL    HW126500   5.360   3.087   5.620  0.2513  3.4077  0.3791
 8560SOL    HW226501   5.516   3.053   5.654  0.2893  2.1506 -0.9513
 8561SOL     OW26502   4.221   6.039   5.094  0.0125 -0.1807 -0.4228
 8561SOL    HW126503   4.246   6.128   5.055  0.3484  1.0647  2.3590
 8561SOL    HW226504   4.122   6.034   5.105 -0.1081 -0.6507 -1.6187
 8562SOL     OW26505   1.973   6.596   1.228  0.1794  0.0711  0.1918
 8562SOL    HW126506   1.898   6.587   1.294 -0.2037  2.7159  0.2118
 8562SOL    HW226507   1.983   6.692   1.202  3.6061 -0.1860  0.1971
 8563SOL     OW26508   5.107   0.050   2.408 -0.1882 -0.1900  0.2095
 8563SOL    HW126509   5.176   0.002   2.463 -0.3255  1.1282  1.5896
 8563SOL    HW226510   5.081  -0.007   2.330  2.0922 -0.9398 -0.0784
 8564SOL     OW26511   0.928   2.722   4.346 -0.4826  0.0886 -0.4720
 8564SOL    HW126512   1.016   2.765   4.328 -0.0333 -0.3839  0.5308
 8564SOL    HW226513   0.856   2.774   4.300  0.3686  0.0862 -1.8787
 8565SOL     OW26514   5.110   1.739   1.380  0.0781 -0.3992  0.0147
 8565SOL    HW126515   5.067   1.822   1.343  0.0170  0.3937  1.7662
 8565SOL    HW226516   5.193   1.718   1.328  0.1904  0.8673 -0.3496
 8566SOL     OW26517   5.837   5.796   1.896 -0.3692  0.0582 -0.4403
 8566SOL    HW126518   5.873   5.719   1.844  0.5712  0.3991 -0.3075
 8566SOL    HW226519   5.888   5.805   1.982 -0.7027  0.6176 -0.2947
 8567SOL     OW26520   6.198   2.183   2.834 -0.4638  0.2714  0.2720
 8567SOL    HW126521   6.282   2.217   2.877 -0.3451  0.1352  0.1493
 8567SOL    HW226522   6.205   2.194   2.735 -0.2786 -0.4399  0.2047
 8568SOL     OW26523   2.278   1.617   6.045 -0.3442 -0.4683 -0.4478
 8568SOL    HW126524   2.341   1.580   5.977 -0.2532  1.1507 -1.2831
 8568SOL    HW226525   2.267   1.715   6.031 -1.7488 -0.4185  0.7485
 8569SOL     OW26526   3.100   6.669   5.361 -0.4081  0.1198  0.2089
 8569SOL    HW126527   3.122   6.747   5.304 -0.9440  0.2256  0.1505
 8569SOL    HW226528   3.114   6.693   5.457  0.2695  0.0135  0.1519
 8570SOL     OW26529   5.577   0.009   5.382  0.5041 -0.3997 -0.4018
 8570SOL    HW126530   5.643   0.014   5.457 -1.2541 -0.1583  1.2464
 8570SOL    HW226531   5.571  -0.086   5.350  1.8704 -0.3242 -0.8867
 8571SOL     OW26532   1.692   1.382   3.022  0.2730 -0.1172  0.3466
 8571SOL    HW126533   1.613   1.381   2.961 -0.0212 -2.4507  0.6555
 8571SOL    HW226534   1.692   1.299   3.077  2.7117  0.0077  0.6640
 8572SOL     OW26535   5.998   4.691   3.692  1.0858 -0.0149  0.3037
 8572SOL    HW126536   6.022   4.597   3.667  0.4543 -0.1404  0.1618
 8572SOL    HW226537   5.904   4.710   3.667  1.3556  0.8275 -0.1262
 8573SOL     OW26538   6.148   2.451   0.639  0.1949 -0.1554 -0.7047
 8573SOL    HW126539   6.217   2.393   0.597  0.7426  0.8433 -1.2085
 8573SOL    HW226540   6.073   2.468   0.575 -0.3066 -0.8610 -0.3192
 8574SOL     OW26541   1.597   0.570   4.853 -0.0450 -0.1684  0.0453
 8574SOL    HW126542   1.532   0.522   4.911  0.0862  0.7445  0.9769
 8574SOL    HW226543   1.686   0.575   4.898  0.1737  0.1780 -0.4052
 8575SOL     OW26544   3.085   4.770   1.714  0.4718  0.2565  0.5435
 8575SOL    HW126545   3.125   4.728   1.632 -0.0531 -0.4736  0.6458
 8575SOL    HW226546   3.125   4.728   1.795 -1.5383 -1.6193  0.6719
 8576SOL     OW26547   1.025   2.974   4.000  0.0002  0.2034  0.5127
 8576SOL    HW126548   1.119   2.987   3.969  0.6997 -0.1446  2.3797
 8576SOL    HW226549   0.964   3.031   3.944  0.9567 -1.4132 -2.3705
 8577SOL     OW26550   1.027   0.807   0.898  0.2020 -0.0431  0.3982
 8577SOL    HW126551   0.932   0.778   0.894 -0.7666  2.7605  1.1425
 8577SOL    HW226552   1.053   0.829   0.992  1.4352 -0.2436  0.1321
 8578SOL     OW26553   6.268   5.212   1.801  0.5907 -0.2798  0.5562
 8578SOL    HW126554   6.347   5.201   1.740 -0.5909 -0.5329 -1.0159
 8578SOL    HW226555   6.221   5.298   1.780  0.0918 -0.4314  1.0270
 8579SOL     OW26556   0.936   0.881   6.991  0.2102 -0.3165  0.0080
 8579SOL    HW126557   0.883   0.964   6.977 -2.6869 -2.0027  0.2108
 8579SOL    HW226558   0.940   0.829   6.905  0.2124 -0.9119  0.3582
 8580SOL     OW26559   3.568   5.010   4.499  0.3915  0.1005 -0.1590
 8580SOL    HW126560   3.476   4.996   4.537  0.3114 -0.1158 -0.4286
 8580SOL    HW226561   3.566   5.086   4.435  0.3522 -0.0398 -0.3263
 8581SOL     OW26562   3.332   0.443   2.030  0.2363  0.1651  0.1134
 8581SOL    HW126563   3.263   0.469   1.962  0.6520 -0.2610 -0.4745
 8581SOL    HW226564   3.376   0.526   2.065 -1.3627  0.5448  1.3487
 8582SOL     OW26565   1.489   4.506   4.192 -0.2090 -0.2807 -0.6470
 8582SOL    HW126566   1.505   4.417   4.150  0.4905 -0.5795  0.2063
 8582SOL    HW226567   1.442   4.495   4.279 -0.7120  0.2467 -0.8419
 8583SOL     OW26568   3.980   3.529   6.617  0.3740 -0.1200  0.0033
 8583SOL    HW126569   4.044   3.568   6.682  2.1617 -0.4329 -1.4564
 8583SOL    HW226570   4.017   3.444   6.580  0.8875  1.4360 -3.4587
 8584SOL     OW26571   6.180   3.325   5.918  0.2709  0.2328  0.3572
 8584SOL    HW126572   6.136   3.415   5.913  2.5369  1.5465  2.1755
 8584SOL    HW226573   6.246   3.324   5.993 -1.0760 -3.6347  1.7428
 8585SOL     OW26574   3.289   3.647   6.408 -0.1441  0.1444 -0.1333
 8585SOL    HW126575   3.386   3.630   6.423  0.3851 -0.1923 -3.2174
 8585SOL    HW226576   3.253   3.580   6.343 -2.2529  0.7633  0.3039
 8586SOL     OW26577   5.784   4.992   5.693 -0.3118 -0.1022  0.0200
 8586SOL    HW126578   5.717   4.957   5.758 -1.2703  2.9506  0.8059
 8586SOL    HW226579   5.868   5.017   5.742  0.4750 -1.4234 -0.5744
 8587SOL     OW26580   4.737   1.424   5.475 -0.4476 -0.8186  0.0739
 8587SOL    HW126581   4.738   1.424   5.575  0.4804 -1.1266  0.0837
 8587SOL    HW226582   4.831   1.420   5.442 -0.7052  0.1929 -0.8248
 8588SOL     OW26583   4.519   5.127   5.486  0.9218  0.0064 -0.0909
 8588SOL    HW126584   4.463   5.063   5.434  3.1369 -0.9714 -1.3473
 8588SOL    HW226585   4.521   5.215   5.440  1.1426 -0.2279 -0.5310
 8589SOL     OW26586   0.051   6.903   0.979 -0.4161  0.1305  0.0793
 8589SOL    HW126587   0.086   6.820   1.021 -2.4093 -0.3713  0.8426
 8589SOL    HW226588  -0.027   6.882   0.920  0.1650  1.2710 -1.1451
 8590SOL     OW26589   4.430   2.705   2.253  0.2005  0.1363 -0.0220
 8590SOL    HW126590   4.350   2.757   2.286 -1.5125 -1.3419 -1.5757
 8590SOL    HW226591   4.507   2.719   2.315 -0.8882  2.5633  0.9214
 8591SOL     OW26592   5.629   1.481   6.773  0.4633  0.1030  0.1047
 8591SOL    HW126593   5.617   1.499   6.675 -0.6535  0.0000  0.2139
 8591SOL    HW226594   5.644   1.383   6.786  0.2318  0.0594  0.0622
 8592SOL     OW26595   5.972   4.098   4.451  0.2242 -0.2228 -0.0339
 8592SOL    HW126596   5.896   4.161   4.466  1.0370  0.6737  0.4672
 8592SOL    HW226597   6.012   4.114   4.361  0.2383 -0.2291 -0.0292
 8593SOL     OW26598   5.350   5.334   2.345 -0.0474 -0.1113 -0.1897
 8593SOL    HW126599   5.369   5.306   2.439 -2.8076  1.5426  0.9821
 8593SOL    HW226600   5.300   5.261   2.298 -3.3298  0.8549  1.4431
 8594SOL     OW26601   3.733   1.271   2.567 -0.0100  0.3404 -0.2128
 8594SOL    HW126602   3.662   1.202   2.553 -0.5048  0.5066  1.3540
 8594SOL    HW226603   3.697   1.362   2.548 -0.1599  0.3988  0.3186
 8595SOL     OW26604   1.091   2.869   1.511 -0.6336 -0.7110  0.5462
 8595SOL    HW126605   1.032   2.938   1.554  0.3673 -1.1394  2.7847
 8595SOL    HW226606   1.107   2.893   1.416  1.7393  3.6669  1.7849
 8596SOL     OW26607   0.603   5.208   5.457  0.0187 -0.2869 -0.2937
 8596SOL    HW126608   0.631   5.221   5.552  0.0048 -1.1441 -0.1622
 8596SOL    HW226609   0.507   5.234   5.446 -0.3488 -1.3392  0.2265
 8597SOL     OW26610   4.762   5.945   3.532 -0.1307 -0.4113 -0.2153
 8597SOL    HW126611   4.787   5.957   3.629 -0.3492  0.8962 -0.3048
 8597SOL    HW226612   4.810   6.012   3.477  1.9019 -2.6817 -1.3893
 8598SOL     OW26613   1.873   1.689   3.746 -0.0105  0.1628  0.7222
 8598SOL    HW126614   1.845   1.766   3.688 -1.6767 -0.1522  1.0276
 8598SOL    HW226615   1.931   1.723   3.820  1.4174  0.7063 -0.5736
 8599SOL     OW26616   6.358   0.165   0.740  0.4109 -0.0391  0.1102
 8599SOL    HW126617   6.264   0.181   0.710  0.9518  1.1056 -1.1052
 8599SOL    HW226618   6.420   0.224   0.688  1.7163 -0.0495  1.5584
 8600SOL     OW26619   5.048   5.275   5.094  0.3839  0.1836  0.2502
 8600SOL    HW126620   5.021   5.179   5.081  3.0234 -0.3225 -2.7116
 8600SOL    HW226621   5.048   5.296   5.191 -1.0566 -2.5391  0.9575
 8601SOL     OW26622   1.683   6.763   1.048 -0.1139 -0.0227  0.5248
 8601SOL    HW126623   1.663   6.753   1.145 -0.8318 -0.1250  0.3723
 8601SOL    HW226624   1.634   6.693   0.996 -1.3683  1.2759 -0.1042
 8602SOL     OW26625   5.951   0.538   4.390 -0.0783  0.3601 -0.1553
 8602SOL    HW126626   5.950   0.617   4.329 -2.8155 -0.0158 -0.7095
 8602SOL    HW226627   6.002   0.463   4.346 -2.1039  0.0419 -2.1689
 8603SOL     OW26628   4.164   6.619   6.832 -0.4531 -0.0269 -0.2576
 8603SOL    HW126629   4.130   6.685   6.899 -2.2271 -0.5731 -0.5517
 8603SOL    HW226630   4.151   6.526   6.867 -1.3922 -0.3196 -1.3387
 8604SOL     OW26631   4.212   5.743   1.167 -0.3343 -0.1850 -0.5481
 8604SOL    HW126632   4.302   5.752   1.126  0.2577  0.2177  0.7975
 8604SOL    HW226633   4.221   5.735   1.266 -1.7609 -0.4301 -0.4227
 8605SOL     OW26634   3.311   1.140   1.834 -0.1739 -0.6298  0.5954
 8605SOL    HW126635   3.357   1.188   1.909 -0.1739  0.6636 -0.1870
 8605SOL    HW226636   3.348   1.048   1.825  0.8983 -0.2708  1.2013
 8606SOL     OW26637   0.110   5.909   6.010 -0.0508 -0.2561 -0.2438
 8606SOL    HW126638   0.079   5.899   5.915 -1.1332 -0.2705  0.0992
 8606SOL    HW226639   0.146   6.001   6.023 -0.1726 -0.1555 -0.5837
 8607SOL     OW26640   0.150   4.204   1.176  0.2512 -0.1630 -0.2112
 8607SOL    HW126641   0.091   4.255   1.239  0.3658  0.8695 -0.9041
 8607SOL    HW226642   0.096   4.168   1.100  0.1012 -1.4640  0.4883
 8608SOL     OW26643   1.471   2.052   2.241  0.4814 -0.5615  0.4447
 8608SOL    HW126644   1.399   1.986   2.218 -0.2191  0.0585  0.8076
 8608SOL    HW226645   1.498   2.041   2.336  1.5257 -1.3871  0.0797
 8609SOL     OW26646   4.619   3.290   1.299 -0.0514  0.1933  0.2844
 8609SOL    HW126647   4.645   3.197   1.324 -0.3304  0.4018  1.4114
 8609SOL    HW226648   4.522   3.292   1.275 -0.6463  0.5636  2.4937
 8610SOL     OW26649   0.628   4.332   1.161  0.5664  0.4974  0.0056
 8610SOL    HW126650   0.682   4.272   1.221 -0.9802  0.6411  1.6253
 8610SOL    HW226651   0.540   4.352   1.204  0.9839  3.9338 -0.4546
 8611SOL     OW26652   6.952   1.367   4.482  0.0925 -0.5773  0.3169
 8611SOL    HW126653   6.930   1.313   4.401 -0.9566 -2.1405  1.5844
 8611SOL    HW226654   7.049   1.355   4.504 -0.4929 -3.6373  1.6556
 8612SOL     OW26655   3.221   2.674   6.019 -0.1359  0.1540  0.0995
 8612SOL    HW126656   3.242   2.744   5.951 -0.5605 -1.6519 -2.0470
 8612SOL    HW226657   3.167   2.602   5.975 -0.2639 -1.2118  2.3631
 8613SOL     OW26658   3.880   1.632   3.530  0.1005  0.2784  0.4201
 8613SOL    HW126659   3.897   1.695   3.606 -2.5455  0.7140  0.7617
 8613SOL    HW226660   3.791   1.589   3.541 -0.3681  0.2718 -2.3884
 8614SOL     OW26661   5.715   2.311   2.868  0.5895 -0.3014 -0.3911
 8614SOL    HW126662   5.810   2.341   2.860 -0.0599  1.5349 -2.0236
 8614SOL    HW226663   5.687   2.267   2.784 -0.7811  1.7851 -1.1193
 8615SOL     OW26664   4.133   1.641   2.545 -0.2416  0.3315 -0.2334
 8615SOL    HW126665   4.153   1.739   2.536 -0.3411  0.2217 -2.0457
 8615SOL    HW226666   4.072   1.626   2.623 -0.1007  1.6840  0.1637
 8616SOL     OW26667   4.153   0.389   0.980  0.7763 -0.3028 -0.6275
 8616SOL    HW126668   4.117   0.373   0.889  0.1440 -1.4233 -0.2057
 8616SOL    HW226669   4.105   0.331   1.046  0.6699  1.0329  0.5372
 8617SOL     OW26670   6.340   6.618   2.861  0.3008  0.4798 -0.2066
 8617SOL    HW126671   6.319   6.704   2.908 -2.3797  0.9699 -2.0502
 8617SOL    HW226672   6.370   6.639   2.768  1.9582 -0.5689  0.0607
 8618SOL     OW26673   3.226   6.517   0.098 -0.1561 -0.4627  0.2796
 8618SOL    HW126674   3.251   6.469   0.014 -1.1275 -1.4484  0.5357
 8618SOL    HW226675   3.162   6.591   0.076  0.8262  0.3337 -0.0265
 8619SOL     OW26676   5.878   4.382   3.480  0.2562 -0.5311  0.0737
 8619SOL    HW126677   5.931   4.340   3.554  4.0310 -0.7719 -2.4660
 8619SOL    HW226678   5.854   4.313   3.412 -1.6397 -0.0196  0.1641
 8620SOL     OW26679   1.050   6.641   5.148  0.1137  0.5068  0.1978
 8620SOL    HW126680   1.132   6.680   5.104  0.1864  0.4271  0.2596
 8620SOL    HW226681   1.057   6.542   5.148 -1.9156  0.1924 -3.6302
 8621SOL     OW26682   4.206   0.117   4.912  0.0348 -0.3077 -0.1484
 8621SOL    HW126683   4.224   0.173   4.831  2.3097  1.2649  1.3460
 8621SOL    HW226684   4.271   0.140   4.984 -0.1545 -3.5900  1.2406
 8622SOL     OW26685   6.325   2.617   0.201  0.1239  0.5792 -0.2109
 8622SOL    HW126686   6.367   2.644   0.115  2.4429 -1.6191  0.1232
 8622SOL    HW226687   6.396   2.603   0.270 -1.6335  1.7919  1.9632
 8623SOL     OW26688   6.644   3.220   4.214 -0.5425 -0.4960  0.1088
 8623SOL    HW126689   6.565   3.189   4.267 -0.1637 -1.7326 -0.0423
 8623SOL    HW226690   6.686   3.142   4.168 -0.2969  0.4094 -1.2601
 8624SOL     OW26691   0.830   6.750   2.664  0.0715 -0.5273 -0.4538
 8624SOL    HW126692   0.908   6.797   2.623 -0.7945  1.4588  0.0609
 8624SOL    HW226693   0.754   6.814   2.675 -1.9869 -2.5557 -1.7167
 8625SOL     OW26694   5.530   0.044   4.984 -1.3017  0.6178  0.8944
 8625SOL    HW126695   5.629   0.033   4.986 -1.2663  0.2306 -1.1696
 8625SOL    HW226696   5.498   0.070   5.075  0.4677 -1.1779  2.1431
 8626SOL     OW26697   5.998   4.234   6.938  0.4358  0.0726 -0.2542
 8626SOL    HW126698   6.058   4.311   6.960  0.2172 -0.1408  1.1574
 8626SOL    HW226699   5.905   4.267   6.923  1.0084  0.5552 -3.5428
 8627SOL     OW26700   0.919   6.152   1.317 -0.6543 -0.6931 -1.2317
 8627SOL    HW126701   0.967   6.105   1.390 -1.6307 -0.4623 -0.4225
 8627SOL    HW226702   0.970   6.234   1.291 -1.2882  0.3769  0.6463
 8628SOL     OW26703   2.409   0.395   6.263  0.0407 -0.3845  0.4074
 8628SOL    HW126704   2.325   0.437   6.297  0.2220  0.3758 -0.0606
 8628SOL    HW226705   2.447   0.334   6.333 -0.1774  0.3026  1.1412
 8629SOL     OW26706   2.208   5.146   5.108  0.2045 -0.6955  0.3610
 8629SOL    HW126707   2.238   5.095   5.028 -2.9549 -4.2977  1.1745
 8629SOL    HW226708   2.230   5.094   5.191 -1.6570  0.0671  1.3947
 8630SOL     OW26709   5.011   2.230   2.329  0.0203 -0.6837  0.0144
 8630SOL    HW126710   5.099   2.202   2.291 -0.4462 -0.3366 -1.3830
 8630SOL    HW226711   4.938   2.174   2.290 -0.6592  0.8042 -0.9552
 8631SOL     OW26712   6.766   6.565   5.782 -0.2589 -0.4234 -0.2594
 8631SOL    HW126713   6.791   6.527   5.692  0.7738  0.2209 -0.2639
 8631SOL    HW226714   6.839   6.545   5.847  0.6494  2.0405 -0.4154
 8632SOL     OW26715   3.419   3.540   1.797 -0.1128  0.8234 -0.4808
 8632SOL    HW126716   3.506   3.531   1.846  0.0769  0.3511 -0.9032
 8632SOL    HW226717   3.376   3.450   1.789 -1.1014  1.1561  0.5518
 8633SOL     OW26718   3.235   5.978   3.207  0.0413  0.1372 -0.4510
 8633SOL    HW126719   3.211   5.905   3.143  0.8566 -1.1164  0.6244
 8633SOL    HW226720   3.334   5.983   3.217 -0.0880 -0.4699  1.5562
 8634SOL     OW26721   5.784   0.601   4.792  0.1214  0.0501 -0.0180
 8634SOL    HW126722   5.706   0.541   4.814  1.2657 -0.5953  2.6922
 8634SOL    HW226723   5.864   0.544   4.772  0.5413  0.6594 -0.0870
 8635SOL     OW26724   5.246   3.994   6.522 -0.2330  0.4534  0.5777
 8635SOL    HW126725   5.329   3.947   6.553  0.5519  1.7794  0.5697
 8635SOL    HW226726   5.256   4.017   6.425 -0.9616 -0.0708  0.3673
 8636SOL     OW26727   0.890   3.847   3.358  0.1158 -0.4215 -0.0955
 8636SOL    HW126728   0.923   3.916   3.423  1.0420  0.2339 -1.2104
 8636SOL    HW226729   0.967   3.795   3.322 -0.3757 -0.7497 -0.6991
 8637SOL     OW26730   2.234   4.456   0.412 -0.1809 -0.3945  0.1248
 8637SOL    HW126731   2.199   4.440   0.505 -1.7483 -0.5443 -0.4643
 8637SOL    HW226732   2.270   4.371   0.375 -0.5338 -0.5908  0.2177
 8638SOL     OW26733   4.870   4.878   1.566  0.1125  0.6324 -0.0162
 8638SOL    HW126734   4.836   4.940   1.495 -1.9818  0.0552  0.3975
 8638SOL    HW226735   4.939   4.817   1.527  0.6190  1.7945 -0.9696
 8639SOL     OW26736   2.555   6.121   6.644 -0.7360  0.4630  0.1116
 8639SOL    HW126737   2.540   6.214   6.608 -2.2562  0.1574 -0.1159
 8639SOL    HW226738   2.467   6.081   6.670 -0.1212 -1.0044  0.0194
 8640SOL     OW26739   6.276   1.563   3.606 -0.1322 -0.2486  0.4453
 8640SOL    HW126740   6.176   1.565   3.611 -0.1572 -0.9394  0.3734
 8640SOL    HW226741   6.313   1.649   3.640 -0.7968  0.5605 -0.8005
 8641SOL     OW26742   0.713   5.230   5.736 -0.4300 -0.4594 -0.4421
 8641SOL    HW126743   0.631   5.188   5.775 -0.2482 -0.0969  0.3588
 8641SOL    HW226744   0.787   5.163   5.734 -0.0658 -0.1400  1.0729
 8642SOL     OW26745   2.538   6.261   0.734  0.5296 -0.1944  0.0063
 8642SOL    HW126746   2.572   6.266   0.640  3.1036  0.9765  0.9007
 8642SOL    HW226747   2.549   6.350   0.778 -1.5494 -0.4441  1.1627
 8643SOL     OW26748   2.370   4.440   4.092  0.0929 -0.3950  0.2008
 8643SOL    HW126749   2.460   4.484   4.090 -0.7672  1.4118 -0.8495
 8643SOL    HW226750   2.343   4.416   3.999 -0.4257 -1.1287  0.5348
 8644SOL     OW26751   6.183   2.114   1.198 -0.2832 -0.1797  0.4398
 8644SOL    HW126752   6.083   2.111   1.194 -0.2489 -1.9415  0.3545
 8644SOL    HW226753   6.216   2.191   1.143 -1.6107  0.8493  1.0364
 8645SOL     OW26754   0.106   2.145   1.361  0.1845 -0.4214  0.2645
 8645SOL    HW126755   0.198   2.175   1.386  0.0793  2.2267 -2.0237
 8645SOL    HW226756   0.053   2.127   1.444  1.6527  1.6577  1.7436
 8646SOL     OW26757   2.987   3.173   0.477 -0.5348 -0.3979 -0.3831
 8646SOL    HW126758   2.914   3.123   0.524 -0.9021  0.4779  0.0129
 8646SOL    HW226759   2.968   3.178   0.379 -1.1619  0.0627 -0.2421
 8647SOL     OW26760   4.054   2.102   3.878 -0.3310 -0.2318  0.5899
 8647SOL    HW126761   4.102   2.015   3.867 -0.2915 -0.1859  0.3856
 8647SOL    HW226762   4.121   2.175   3.894 -0.2927 -0.0642 -0.3262
 8648SOL     OW26763   1.006   1.568   1.599 -0.0635 -0.0921 -0.3378
 8648SOL    HW126764   0.952   1.630   1.656  1.3979  0.2536  0.7417
 8648SOL    HW226765   1.005   1.477   1.640  2.3043  0.5150  1.2313
 8649SOL     OW26766   3.327   3.140   3.727 -0.5844 -0.0235 -0.2840
 8649SOL    HW126767   3.411   3.111   3.682 -0.5149  0.3374 -0.3945
 8649SOL    HW226768   3.309   3.081   3.806  0.0227  0.2023  0.0282
 8650SOL     OW26769   1.209   1.313   0.897 -0.0300  0.3103  0.5467
 8650SOL    HW126770   1.233   1.405   0.927  1.5919 -0.2955  1.2218
 8650SOL    HW226771   1.132   1.279   0.951  0.4162  0.6547  1.4307
 8651SOL     OW26772   0.037   4.579   2.632 -0.0059 -0.3142 -0.4047
 8651SOL    HW126773   0.006   4.495   2.675  1.0594 -0.1201  0.7658
 8651SOL    HW226774   0.089   4.556   2.549 -0.9485 -0.7434 -0.9020
 8652SOL     OW26775   4.689   3.793   3.620 -0.1899  0.5910  0.5946
 8652SOL    HW126776   4.766   3.831   3.569  0.3349  0.3954  1.2208
 8652SOL    HW226777   4.682   3.838   3.709  0.9914 -1.2858  1.7313
 8653SOL     OW26778   3.756   0.120   4.348 -0.9390 -0.3269  0.6544
 8653SOL    HW126779   3.759   0.137   4.249  2.1872 -1.0102  0.5153
 8653SOL    HW226780   3.763   0.022   4.365 -1.1690 -0.1918  1.5552
 8654SOL     OW26781   3.623   1.118   0.735 -0.0605  0.2303  0.2189
 8654SOL    HW126782   3.646   1.089   0.642 -1.0301  0.2327 -0.0351
 8654SOL    HW226783   3.704   1.112   0.792  0.1709 -1.4516 -0.2075
 8655SOL     OW26784   3.835   4.744   2.204  0.4151  0.0415  0.3480
 8655SOL    HW126785   3.860   4.700   2.119 -1.2286 -0.0678 -0.1122
 8655SOL    HW226786   3.861   4.841   2.201  2.3153 -0.4343  0.6134
 8656SOL     OW26787   6.972   4.170   4.906 -0.8516  0.2669  0.2751
 8656SOL    HW126788   6.925   4.082   4.898  0.0138 -0.1598 -0.3233
 8656SOL    HW226789   6.985   4.192   5.003  1.6054 -1.8003  0.5556
 8657SOL     OW26790   2.854   0.633   4.401 -0.0376 -0.0490  0.4549
 8657SOL    HW126791   2.860   0.633   4.301 -1.0708  0.5136  0.3770
 8657SOL    HW226792   2.923   0.571   4.439  0.5216 -0.0883 -0.5911
 8658SOL     OW26793   5.456   6.314   1.086  0.8093  0.1836 -0.1077
 8658SOL    HW126794   5.472   6.406   1.124 -0.8685  0.1187  0.8623
 8658SOL    HW226795   5.362   6.309   1.052  1.9576 -0.0435 -3.6269
 8659SOL     OW26796   5.203   3.264   3.753 -0.4021 -0.6913  0.1997
 8659SOL    HW126797   5.166   3.178   3.786  2.5152 -1.7049  1.1262
 8659SOL    HW226798   5.179   3.338   3.816 -2.9414 -0.7207 -0.6112
 8660SOL     OW26799   5.558   1.057   2.493  0.6231 -0.3210 -0.0511
 8660SOL    HW126800   5.565   0.958   2.478 -0.2871 -0.2188 -1.2298
 8660SOL    HW226801   5.476   1.077   2.546  0.3396 -0.1205 -0.5676
 8661SOL     OW26802   3.673   6.128   3.914 -0.1295 -0.7585  0.6113
 8661SOL    HW126803   3.599   6.107   3.978 -0.9648  1.2129  0.3877
 8661SOL    HW226804   3.759   6.136   3.964 -0.6435  0.0363  1.3995
 8662SOL     OW26805   3.834   5.599   5.496 -0.1339  0.4536 -0.3379
 8662SOL    HW126806   3.886   5.684   5.487 -0.2270  0.5249 -0.2016
 8662SOL    HW226807   3.896   5.521   5.492 -0.0972  0.5108 -0.9160
 8663SOL     OW26808   0.795   4.595   1.349 -0.2709  0.0125 -0.2429
 8663SOL    HW126809   0.738   4.567   1.426  0.5134 -1.3147 -0.0931
 8663SOL    HW226810   0.848   4.516   1.317  3.8048  1.7299  1.5857
 8664SOL     OW26811   4.404   1.438   4.126  0.3638  0.2026 -0.5895
 8664SOL    HW126812   4.317   1.419   4.172  0.8160 -0.1993  0.1225
 8664SOL    HW226813   4.436   1.528   4.153 -0.6274  1.0679 -2.1441
 8665SOL     OW26814   1.798   5.914   1.783  0.4485 -0.5049 -0.2534
 8665SOL    HW126815   1.860   5.912   1.705  0.8991  1.9568 -0.0539
 8665SOL    HW226816   1.703   5.923   1.751  0.4799 -1.1925 -0.5355
 8666SOL     OW26817   1.685   5.238   1.896 -0.0651  0.1865  0.2418
 8666SOL    HW126818   1.625   5.167   1.933  0.3169  0.6460  1.8181
 8666SOL    HW226819   1.643   5.279   1.815  1.2088 -4.2363 -3.0681
 8667SOL     OW26820   0.061   4.410   4.540 -0.3878  0.1588  0.2021
 8667SOL    HW126821  -0.016   4.379   4.596  0.3254 -2.3928 -0.1362
 8667SOL    HW226822   0.138   4.432   4.599 -0.2545 -0.6657  0.3450
 8668SOL     OW26823   4.411   2.402   1.894  0.3702 -0.3386  0.2868
 8668SOL    HW126824   4.371   2.487   1.927 -1.2529 -1.3247  0.9411
 8668SOL    HW226825   4.506   2.396   1.925  0.2834  0.8872  0.8438
 8669SOL     OW26826   3.056   5.988   2.266  0.2334 -0.2698 -0.1915
 8669SOL    HW126827   3.136   5.971   2.210  0.4758  1.0174 -0.2775
 8669SOL    HW226828   3.056   6.084   2.296 -0.7434 -0.5086  0.6428
 8670SOL     OW26829   5.370   6.017   6.012  0.0647  0.0818  0.1257
 8670SOL    HW126830   5.379   5.947   6.083  0.5763 -1.0817 -1.0325
 8670SOL    HW226831   5.441   6.087   6.024 -0.5477  0.5119  1.3875
 8671SOL     OW26832   3.160   5.880   4.991 -0.1626 -0.1409 -0.0366
 8671SOL    HW126833   3.096   5.805   4.971 -0.8266  0.8477 -1.7782
 8671SOL    HW226834   3.122   5.936   5.065 -1.1521  0.1854 -0.7578
 8672SOL     OW26835   6.760   3.008   2.017  0.6615  0.2826  0.4605
 8672SOL    HW126836   6.799   2.917   1.998 -0.2561  0.1806 -1.1477
 8672SOL    HW226837   6.709   3.005   2.103 -0.5076 -1.1481 -0.2289
 8673SOL     OW26838   2.573   1.949   7.011  0.1766  0.7407 -0.1681
 8673SOL    HW126839   2.554   1.852   7.023 -2.7118  0.9342 -2.2436
 8673SOL    HW226840   2.495   2.003   7.044  1.1785  2.3107 -0.2661
 8674SOL     OW26841   6.011   5.265   6.307  0.6213  0.6216  0.4021
 8674SOL    HW126842   5.923   5.279   6.353 -0.6443 -1.2516 -1.3146
 8674SOL    HW226843   6.020   5.329   6.231  0.3882  0.3196  0.1144
 8675SOL     OW26844   4.083   7.006   0.450  0.2988  0.6919 -0.0753
 8675SOL    HW126845   4.154   6.937   0.461 -0.2745  0.1077  0.0315
 8675SOL    HW226846   4.103   7.062   0.369  0.3329 -0.1675 -0.6555
 8676SOL     OW26847   6.280   5.333   2.412  0.4337  0.2796  0.2743
 8676SOL    HW126848   6.374   5.359   2.387  0.5521  0.5715  1.0099
 8676SOL    HW226849   6.243   5.400   2.476 -0.0562 -0.1693  0.4638
 8677SOL     OW26850   1.381   2.617   1.238 -0.1425 -0.0109  0.0501
 8677SOL    HW126851   1.451   2.678   1.273 -1.2027  1.4440 -0.2624
 8677SOL    HW226852   1.308   2.607   1.306  0.1383 -1.1366  0.1987
 8678SOL     OW26853   6.233   6.430   1.100  0.1662  0.1219  0.3571
 8678SOL    HW126854   6.316   6.482   1.119  0.2435  0.4550 -0.7969
 8678SOL    HW226855   6.156   6.492   1.088 -0.3907 -0.2178  1.9877
 8679SOL     OW26856   1.174   5.798   2.585 -0.1081 -0.3308 -0.5136
 8679SOL    HW126857   1.180   5.898   2.592 -2.8343  0.0144 -1.8896
 8679SOL    HW226858   1.113   5.764   2.656  1.0815 -1.1150  0.1704
 8680SOL     OW26859   0.153   5.780   0.558 -0.6595 -0.2157 -0.5214
 8680SOL    HW126860   0.129   5.781   0.656 -0.6966 -0.6156 -0.5221
 8680SOL    HW226861   0.165   5.873   0.526  0.8446 -0.1123  0.2322
 8681SOL     OW26862   5.392   4.294   5.221 -0.6853 -0.0577 -0.0434
 8681SOL    HW126863   5.345   4.367   5.271 -0.0505  0.4805 -0.2164
 8681SOL    HW226864   5.483   4.326   5.194 -0.3317 -0.9819  0.0377
 8682SOL     OW26865   0.607   4.962   6.010  0.2645 -0.1407  0.5767
 8682SOL    HW126866   0.582   5.018   5.930 -1.2266 -1.4982  0.0315
 8682SOL    HW226867   0.586   5.013   6.094  3.6692  2.1159  0.2590
 8683SOL     OW26868   4.426   0.973   2.756 -0.2904 -0.0656 -0.3269
 8683SOL    HW126869   4.418   1.063   2.714 -1.8564 -1.0282 -2.2559
 8683SOL    HW226870   4.393   0.903   2.693 -0.3901 -1.8823  1.6113
 8684SOL     OW26871   0.200   4.926   2.071  1.2362  0.3032  0.1758
 8684SOL    HW126872   0.130   4.856   2.052  0.3211  1.3616 -0.5440
 8684SOL    HW226873   0.241   4.956   1.986  1.0333  1.2231  0.3926
 8685SOL     OW26874   1.242   3.345   2.566 -0.0406 -0.4503  0.2118
 8685SOL    HW126875   1.338   3.345   2.538  0.6618  1.2665  2.3615
 8685SOL    HW226876   1.185   3.376   2.490  1.3152  0.3228 -0.5408
 8686SOL     OW26877   2.596   4.696   0.218  0.5447  0.1963 -0.0687
 8686SOL    HW126878   2.547   4.612   0.198  1.1211 -0.3504  0.7379
 8686SOL    HW226879   2.545   4.774   0.183 -1.1858 -0.2938  1.2686
 8687SOL     OW26880   5.049   5.318   1.010 -0.6233 -0.2574  0.5335
 8687SOL    HW126881   5.075   5.415   1.002  1.9355 -0.7745  1.4924
 8687SOL    HW226882   5.000   5.304   1.096  0.0250  0.0321  0.9627
 8688SOL     OW26883   4.554   4.171   3.841  0.1664  0.7165 -0.1992
 8688SOL    HW126884   4.535   4.222   3.925 -0.2223  1.6516 -0.8289
 8688SOL    HW226885   4.468   4.155   3.793  0.5055  1.2667 -1.0165
 8689SOL     OW26886   1.174   3.580   3.876  0.5508 -0.0057 -0.5333
 8689SOL    HW126887   1.104   3.583   3.805 -1.7568 -0.0581  1.6014
 8689SOL    HW226888   1.135   3.544   3.961  2.6948  1.5681  1.2681
 8690SOL     OW26889   2.854   5.065   0.858 -0.5349  0.3462 -0.3889
 8690SOL    HW126890   2.841   5.163   0.851  2.9382  1.0056  0.4464
 8690SOL    HW226891   2.868   5.039   0.954 -0.7758 -0.8802 -0.6622
 8691SOL     OW26892   6.182   6.739   3.950  0.4515  0.1200  0.4177
 8691SOL    HW126893   6.108   6.698   3.896  0.2971  0.8562  0.0499
 8691SOL    HW226894   6.204   6.829   3.913  1.1163  0.1716  0.9083
 8692SOL     OW26895   5.560   4.482   0.677 -0.0107  0.1441 -0.0488
 8692SOL    HW126896   5.463   4.484   0.651  0.3575  0.2263 -1.5275
 8692SOL    HW226897   5.606   4.408   0.628  1.3851  2.2863 -2.2348
 8693SOL     OW26898   6.642   1.457   2.340 -0.7537 -0.5187  0.0473
 8693SOL    HW126899   6.640   1.357   2.344  0.0029 -0.5113  1.3428
 8693SOL    HW226900   6.709   1.492   2.406 -2.3534  0.9095  1.0317
 8694SOL     OW26901   0.086   2.324   5.147  1.2266  0.0428 -0.5829
 8694SOL    HW126902   0.130   2.280   5.226  0.8075 -0.7571 -0.7781
 8694SOL    HW226903  -0.009   2.347   5.171  0.4615 -2.0465 -1.4429
 8695SOL     OW26904   1.985   5.356   5.920  0.0997 -0.2652 -0.0409
 8695SOL    HW126905   1.898   5.325   5.958 -0.0403  0.2922  0.1051
 8695SOL    HW226906   2.060   5.313   5.970 -0.0782  0.5278  0.9238
 8696SOL     OW26907   0.574   1.673   5.656 -0.3008 -0.0114 -0.1992
 8696SOL    HW126908   0.634   1.737   5.608 -1.6805  0.6398 -1.1395
 8696SOL    HW226909   0.529   1.614   5.589  0.5747 -1.6436  0.6203
 8697SOL     OW26910   3.077   4.208   6.265  0.0605 -0.3566 -0.1205
 8697SOL    HW126911   3.037   4.194   6.355 -0.3823  1.1668 -0.0567
 8697SOL    HW226912   3.142   4.283   6.268  1.7703 -1.7784 -0.5906
 8698SOL     OW26913   3.152   6.426   4.048 -0.0975 -0.4094 -0.2007
 8698SOL    HW126914   3.119   6.462   3.961 -0.2161 -2.3156 -0.9887
 8698SOL    HW226915   3.075   6.405   4.107 -0.0423  0.1455  0.0818
 8699SOL     OW26916   3.749   4.849   6.178  0.2111 -0.4526  0.4278
 8699SOL    HW126917   3.666   4.829   6.230 -0.9251  1.4611 -0.5122
 8699SOL    HW226918   3.790   4.934   6.213  1.5741 -1.1787  0.6395
 8700SOL     OW26919   3.416   6.509   0.543 -0.3217  0.2317  0.0909
 8700SOL    HW126920   3.489   6.467   0.598  0.3800  0.7718 -0.4019
 8700SOL    HW226921   3.396   6.600   0.580 -1.7706 -0.4623  1.1002
 8701SOL     OW26922   6.128   0.540   1.799  0.1886 -0.2328  0.4936
 8701SOL    HW126923   6.135   0.467   1.731 -0.0009 -0.6106  0.8732
 8701SOL    HW226924   6.036   0.578   1.797  0.8282  1.3400 -1.0637
 8702SOL     OW26925   0.409   4.677   2.751 -0.3170 -0.2280  0.2542
 8702SOL    HW126926   0.493   4.726   2.773 -0.2514  0.6556 -1.7903
 8702SOL    HW226927   0.330   4.735   2.773 -0.2329  1.1321 -2.6300
 8703SOL     OW26928   5.161   0.520   5.272 -0.3830  0.4273  0.2858
 8703SOL    HW126929   5.242   0.507   5.329  1.3432  1.9819 -1.6215
 8703SOL    HW226930   5.149   0.618   5.254 -0.6300  0.0210 -2.1424
 8704SOL     OW26931   5.924   2.831   6.044 -0.2526 -0.4388  0.1367
 8704SOL    HW126932   5.850   2.828   5.977  1.0673 -3.5389 -1.3842
 8704SOL    HW226933   5.901   2.774   6.122 -0.5616  0.8165  0.9928
 8705SOL     OW26934   3.516   1.756   4.049  0.0392 -0.2496 -0.5091
 8705SOL    HW126935   3.462   1.785   4.129 -0.2424 -2.2041  0.0720
 8705SOL    HW226936   3.610   1.738   4.078  0.2052  0.0641 -0.8506
 8706SOL     OW26937   3.185   0.374   3.607 -0.1999 -0.2184 -0.2679
 8706SOL    HW126938   3.161   0.325   3.524  0.5237 -2.2367  0.6501
 8706SOL    HW226939   3.108   0.431   3.636 -0.8169 -0.2550 -1.7451
 8707SOL     OW26940   6.793   6.639   5.238 -0.2802  0.0724  0.3217
 8707SOL    HW126941   6.803   6.724   5.186  0.4175 -0.9335 -1.2486
 8707SOL    HW226942   6.711   6.645   5.296 -1.2555  1.1278 -1.1012
 8708SOL     OW26943   5.401   5.927   6.563 -0.6076  0.1482 -0.0090
 8708SOL    HW126944   5.435   6.016   6.533  1.4272 -0.4246  0.4136
 8708SOL    HW226945   5.447   5.901   6.648 -1.1905 -1.2836 -0.1031
 8709SOL     OW26946   0.415   0.894   1.129 -0.0004  0.9466 -0.5853
 8709SOL    HW126947   0.502   0.855   1.158 -0.2329 -0.0602 -1.1796
 8709SOL    HW226948   0.397   0.867   1.034 -0.8052  1.4002 -0.5700
 8710SOL     OW26949   3.615   5.459   1.851  0.9096 -0.5707 -0.0327
 8710SOL    HW126950   3.534   5.517   1.859  1.8030  0.4762  2.1089
 8710SOL    HW226951   3.588   5.363   1.850 -0.3586 -0.2367  0.6541
 8711SOL     OW26952   3.509   5.715   4.619 -0.7417  0.0972  0.0271
 8711SOL    HW126953   3.460   5.667   4.692 -1.7180 -0.8970 -1.2540
 8711SOL    HW226954   3.532   5.651   4.546  3.2294  0.2777  0.8541
 8712SOL     OW26955   1.376   4.861   6.479 -1.0891  0.0285 -0.7322
 8712SOL    HW126956   1.331   4.836   6.565 -1.2080 -1.4414 -1.2026
 8712SOL    HW226957   1.472   4.836   6.483 -0.1734  3.2561  0.3054
 8713SOL     OW26958   4.644   6.273   1.399 -0.4064  0.0238  0.7842
 8713SOL    HW126959   4.698   6.312   1.325 -0.7222 -0.0215  0.5273
 8713SOL    HW226960   4.617   6.180   1.376 -0.2727 -0.0922  1.0790
 8714SOL     OW26961   0.531   6.992   6.066 -0.4363  0.1264  0.9104
 8714SOL    HW126962   0.521   6.894   6.084 -1.3219  0.1298  0.5354
 8714SOL    HW226963   0.441   7.035   6.071  0.0665  1.0787  1.9080
 8715SOL     OW26964   6.133   6.358   5.229 -0.0278  0.0952  0.3157
 8715SOL    HW126965   6.188   6.283   5.192  0.1307 -1.4887  3.4741
 8715SOL    HW226966   6.037   6.346   5.204  0.0918 -0.8152  0.3020
 8716SOL     OW26967   5.267   4.428   0.669  0.1756 -0.3197 -0.0855
 8716SOL    HW126968   5.250   4.402   0.574  0.6838  0.1021 -0.2983
 8716SOL    HW226969   5.295   4.347   0.721  0.9829 -0.3574 -0.5579
 8717SOL     OW26970   6.617   4.425   4.876 -0.6203  0.3401  0.2542
 8717SOL    HW126971   6.551   4.499   4.864  0.1208  0.8019 -1.2262
 8717SOL    HW226972   6.591   4.347   4.818 -1.4879 -0.6695  1.9209
 8718SOL     OW26973   4.011   6.878   2.723  0.3068  0.4971 -0.1859
 8718SOL    HW126974   4.006   6.805   2.655 -0.0676  1.4226 -1.1835
 8718SOL    HW226975   3.980   6.964   2.682  2.8483  1.7324  0.2706
 8719SOL     OW26976   4.990   6.900   3.776  0.1556  0.0833  0.0824
 8719SOL    HW126977   4.941   6.832   3.832  0.8361 -0.3721  0.1325
 8719SOL    HW226978   4.923   6.960   3.731 -0.4219  0.0750  0.9002
 8720SOL     OW26979   5.417   0.092   1.505  0.1444  0.4023 -0.4475
 8720SOL    HW126980   5.410   0.053   1.597 -0.9303 -1.8708 -1.3844
 8720SOL    HW226981   5.509   0.129   1.491  0.9002 -0.8388  0.9465
 8721SOL     OW26982   1.068   5.265   5.106  0.0027  0.1757  0.7166
 8721SOL    HW126983   1.159   5.265   5.062 -0.2539 -0.8820  0.1365
 8721SOL    HW226984   1.002   5.307   5.044  0.4291  2.9484  1.9964
 8722SOL     OW26985   5.930   6.778   5.882 -0.2487 -0.0732 -0.3576
 8722SOL    HW126986   5.872   6.796   5.961  1.3679 -1.4238  1.2366
 8722SOL    HW226987   5.916   6.849   5.813 -0.1767  2.4204  2.0341
 8723SOL     OW26988   6.504   6.238   1.152 -0.4865  0.0841  0.1352
 8723SOL    HW126989   6.432   6.169   1.147  1.0014 -1.5519  0.3332
 8723SOL    HW226990   6.492   6.294   1.234 -1.5847 -0.0814  0.1004
 8724SOL     OW26991   3.645   4.298   5.627 -0.3416 -0.0446 -0.2835
 8724SOL    HW126992   3.628   4.390   5.663  0.6551  0.5060 -1.1666
 8724SOL    HW226993   3.741   4.289   5.602 -0.0493 -1.8924  1.3087
 8725SOL     OW26994   3.441   5.545   6.796 -0.5091  0.2685 -0.0163
 8725SOL    HW126995   3.461   5.612   6.867  0.2415  1.6948 -1.5289
 8725SOL    HW226996   3.364   5.487   6.825  0.1258  0.4482  2.1599
 8726SOL     OW26997   3.388   6.348   1.575  0.1206 -0.2207  0.3075
 8726SOL    HW126998   3.291   6.342   1.599  0.2051 -0.6176  0.5609
 8726SOL    HW226999   3.444   6.303   1.644  0.4431 -0.5066 -0.1335
 8727SOL     OW27000   6.446   5.128   4.843  0.4425  0.0172 -0.6095
 8727SOL    HW127001   6.355   5.142   4.883  1.0838 -1.8944  1.7473
 8727SOL    HW227002   6.467   5.031   4.840  2.4000  0.4129 -1.1738
 8728SOL     OW27003   0.659   3.280   1.831  0.6006 -0.0599  0.5906
 8728SOL    HW127004   0.697   3.360   1.878 -1.2854  0.4725  1.3183
 8728SOL    HW227005   0.675   3.289   1.732 -1.6521  2.5321  0.3466
 8729SOL     OW27006   5.620   1.301   0.401 -0.0462 -0.1920 -0.3098
 8729SOL    HW127007   5.590   1.364   0.330  0.5597 -0.6970 -1.0316
 8729SOL    HW227008   5.709   1.262   0.376  1.1601  1.1319  1.6605
 8730SOL     OW27009   1.475   4.484   1.012  0.1982  0.1571  0.1193
 8730SOL    HW127010   1.492   4.403   0.957  1.8727 -0.2272  1.1345
 8730SOL    HW227011   1.404   4.540   0.969 -0.5129 -1.4981 -0.9289
 8731SOL     OW27012   2.327   6.127   0.812  0.4689  0.1264  0.1110
 8731SOL    HW127013   2.406   6.182   0.787 -0.4119  1.1960 -0.4237
 8731SOL    HW227014   2.340   6.090   0.904  1.6474  0.1190 -0.0356
 8732SOL     OW27015   5.043   1.250   4.730  0.3276 -0.3442  0.1875
 8732SOL    HW127016   5.042   1.158   4.691  1.0250  0.4586 -1.8740
 8732SOL    HW227017   5.008   1.316   4.664  0.7583  1.0068  1.2355
 8733SOL     OW27018   1.422   1.695   0.133  0.3536  0.1547 -0.0365
 8733SOL    HW127019   1.366   1.701   0.216  1.1450 -0.7108  0.5847
 8733SOL    HW227020   1.418   1.602   0.096  1.2542  0.1140 -0.0647
 8734SOL     OW27021   2.756   0.005   3.223  0.4177 -0.3569 -1.1005
 8734SOL    HW127022   2.748   0.078   3.155 -0.1773 -0.0543 -0.7164
 8734SOL    HW227023   2.768   0.044   3.314  2.1687 -0.7736 -1.1266
 8735SOL     OW27024   1.864   6.312   3.704 -0.1457  0.2595  0.0462
 8735SOL    HW127025   1.885   6.216   3.684 -1.2553  0.1261 -0.6041
 8735SOL    HW227026   1.935   6.350   3.763  0.8643 -0.6659 -0.5117
 8736SOL     OW27027   4.914   6.408   4.680 -0.1612 -0.1935 -0.1156
 8736SOL    HW127028   4.855   6.364   4.611  0.5189  0.8471 -1.4218
 8736SOL    HW227029   4.877   6.391   4.771 -2.1963 -0.0373 -0.8490
 8737SOL     OW27030   1.589   0.796   2.870 -0.4634 -0.3274  0.1309
 8737SOL    HW127031   1.618   0.843   2.786  1.2494 -1.8525 -0.1801
 8737SOL    HW227032   1.642   0.830   2.947 -1.7608  0.7956  0.5861
 8738SOL     OW27033   2.570   0.842   4.796  0.5698 -0.0377  0.2781
 8738SOL    HW127034   2.574   0.868   4.893  0.9416  0.1925  0.2009
 8738SOL    HW227035   2.566   0.924   4.739  2.3514 -0.1122  0.0051
 8739SOL     OW27036   0.976   0.617   0.340 -0.2567  0.1657  0.2353
 8739SOL    HW127037   1.054   0.568   0.380 -1.3828 -0.8425  1.2695
 8739SOL    HW227038   1.009   0.679   0.268  1.2670 -2.0825 -1.1553
 8740SOL     OW27039   3.291   1.244   6.615 -0.7890 -0.5288  0.6759
 8740SOL    HW127040   3.389   1.235   6.628 -0.7454 -0.3005  0.5197
 8740SOL    HW227041   3.253   1.300   6.688 -0.8260 -0.7334  0.8138
 8741SOL     OW27042   6.477   3.429   1.434 -0.2394  0.0700 -0.1433
 8741SOL    HW127043   6.522   3.339   1.440 -1.8917 -0.7062  1.7877
 8741SOL    HW227044   6.542   3.496   1.398  2.4264 -1.0485  2.1942
 8742SOL     OW27045   3.714   2.398   0.550 -0.4205 -0.2399  0.1381
 8742SOL    HW127046   3.695   2.336   0.474 -1.1065  0.9201 -0.6633
 8742SOL    HW227047   3.707   2.493   0.519  1.2392  0.2752  1.1752
 8743SOL     OW27048   5.648   0.175   3.791 -0.7236  0.3427  0.1930
 8743SOL    HW127049   5.704   0.107   3.839 -0.2876  0.4747 -0.1131
 8743SOL    HW227050   5.658   0.161   3.692 -0.2882  1.1049  0.1142
 8744SOL     OW27051   5.775   2.174   0.528  0.1316 -0.3330 -0.2836
 8744SOL    HW127052   5.839   2.227   0.583 -0.4631  1.1166 -0.9416
 8744SOL    HW227053   5.681   2.198   0.552 -0.1475 -0.6631 -0.9933
 8745SOL     OW27054   4.033   4.559   0.315 -0.0488 -0.0542 -0.1065
 8745SOL    HW127055   3.962   4.582   0.381  0.2132 -0.5888  0.3666
 8745SOL    HW227056   3.992   4.518   0.234 -0.1556 -2.4746  1.0718
 8746SOL     OW27057   1.315   2.890   0.074  0.6773 -0.2536 -0.1584
 8746SOL    HW127058   1.250   2.960   0.046  0.5694  0.1160  0.9813
 8746SOL    HW227059   1.409   2.922   0.058  0.6157 -0.9694 -2.2406
 8747SOL     OW27060   6.917   6.517   0.791  0.2635  1.1586  0.3673
 8747SOL    HW127061   6.916   6.445   0.722 -2.7554  1.1252  0.3015
 8747SOL    HW227062   6.959   6.482   0.875 -3.9937 -2.1266  1.5361
 8748SOL     OW27063   6.435   3.476   5.126 -0.4013 -0.0202  0.3316
 8748SOL    HW127064   6.458   3.405   5.060 -0.7719 -0.2798  0.4806
 8748SOL    HW227065   6.470   3.564   5.094 -1.6608  0.0802 -0.8479
 8749SOL     OW27066   0.478   2.851   2.464  0.0285 -0.2263 -0.3182
 8749SOL    HW127067   0.481   2.813   2.556  0.6766 -0.0416 -0.2611
 8749SOL    HW227068   0.389   2.829   2.422  0.0809 -1.1172  0.0025
 8750SOL     OW27069   1.155   1.823   1.101 -0.1237 -0.2276 -0.8347
 8750SOL    HW127070   1.056   1.815   1.101 -0.3041  1.4923 -1.3450
 8750SOL    HW227071   1.182   1.909   1.146  1.0162  0.1872 -2.2306
 8751SOL     OW27072   3.609   0.664   1.524 -0.0864 -0.4521 -0.6409
 8751SOL    HW127073   3.512   0.653   1.545  0.1897 -0.0023  1.0260
 8751SOL    HW227074   3.663   0.603   1.582  0.8420  2.2401  1.5251
 8752SOL     OW27075   6.587   1.942   1.179  0.0515  0.1244  0.5081
 8752SOL    HW127076   6.675   1.913   1.142  0.5328  1.2013  0.7514
 8752SOL    HW227077   6.534   1.986   1.107 -0.6272 -1.1993  0.1676
 8753SOL     OW27078   2.290   5.480   2.363 -0.1695 -0.0159  0.8075
 8753SOL    HW127079   2.250   5.468   2.454 -0.6501 -0.9224  0.4939
 8753SOL    HW227080   2.258   5.566   2.324  0.0031  0.3566  1.4756
 8754SOL     OW27081   5.437   0.793   3.681 -0.4131 -0.1924 -0.0697
 8754SOL    HW127082   5.414   0.877   3.729  0.0779  0.9237 -1.7146
 8754SOL    HW227083   5.501   0.739   3.736  0.8839  1.4948  0.1552
 8755SOL     OW27084   4.000   0.661   1.187 -0.4980  0.3193  0.6934
 8755SOL    HW127085   4.011   0.565   1.214  0.6111  0.2612  0.0978
 8755SOL    HW227086   4.053   0.719   1.250  0.1440  0.3918  0.0964
 8756SOL     OW27087   3.746   2.612   1.857 -0.2348 -0.0057  0.1618
 8756SOL    HW127088   3.766   2.593   1.954  0.1717  0.2569  0.1326
 8756SOL    HW227089   3.649   2.599   1.840 -0.5098  0.9827  0.8521
 8757SOL     OW27090   3.070   5.097   2.510  0.3772  0.2961 -0.7377
 8757SOL    HW127091   3.029   5.056   2.428 -0.1936  1.5544 -1.1016
 8757SOL    HW227092   3.077   5.028   2.582  1.4942 -1.0215 -2.0330
 8758SOL     OW27093   0.184   2.835   4.282  0.1534 -0.5396 -0.7173
 8758SOL    HW127094   0.257   2.775   4.312 -1.2780 -1.5021  0.9931
 8758SOL    HW227095   0.099   2.783   4.272 -1.0923  1.1105  0.6057
 8759SOL     OW27096   2.985   5.667   4.854  0.1679  0.5590  0.2100
 8759SOL    HW127097   2.899   5.632   4.816  0.0391 -0.5149  1.4556
 8759SOL    HW227098   3.035   5.593   4.899  2.2376  0.9547 -1.3119
 8760SOL     OW27099   5.511   4.653   5.063 -0.1064  0.3867  0.4601
 8760SOL    HW127100   5.443   4.712   5.107  1.1668  1.7371  0.6923
 8760SOL    HW227101   5.464   4.577   5.017 -1.7381  1.1225  0.8278
 8761SOL     OW27102   2.377   0.287   2.105 -0.2151 -0.0390 -0.0047
 8761SOL    HW127103   2.457   0.334   2.068 -2.2594  1.8934 -2.3863
 8761SOL    HW227104   2.376   0.192   2.074  0.4474  0.3139 -1.1480
 8762SOL     OW27105   4.486   2.280   3.361  0.1882  0.3478 -0.6547
 8762SOL    HW127106   4.520   2.287   3.455  0.2515  2.2332 -0.7822
 8762SOL    HW227107   4.397   2.236   3.361  0.5600 -0.4323  0.2020
 8763SOL     OW27108   1.475   3.353   2.409  0.5345  0.2109  0.4355
 8763SOL    HW127109   1.544   3.281   2.399 -1.8412 -2.1555 -0.1050
 8763SOL    HW227110   1.512   3.439   2.375  3.5439 -0.6885  1.1636
 8764SOL     OW27111   5.927   3.137   2.342  0.0276  0.3021 -0.8543
 8764SOL    HW127112   5.956   3.230   2.364 -3.3027  1.7339 -1.7833
 8764SOL    HW227113   5.963   3.111   2.253 -0.9469  1.7371 -1.7029
 8765SOL     OW27114   2.223   5.518   3.142 -0.2210 -0.0891  0.0895
 8765SOL    HW127115   2.251   5.605   3.184 -1.1866 -0.0568  0.6781
 8765SOL    HW227116   2.237   5.523   3.043  2.0166 -0.1341  0.3561
 8766SOL     OW27117   6.077   5.142   1.027 -0.2404  1.0958 -0.1747
 8766SOL    HW127118   6.047   5.124   1.121  1.6258  0.5185  0.3587
 8766SOL    HW227119   6.067   5.060   0.972  1.4249  0.5123  0.3335
 8767SOL     OW27120   5.341   3.997   2.719  0.6207 -0.2098  0.1409
 8767SOL    HW127121   5.365   4.092   2.698  2.7854 -0.5396  0.8015
 8767SOL    HW227122   5.419   3.937   2.697  0.0043 -1.5793  1.4879
 8768SOL     OW27123   5.234   6.621   2.876  0.5871  0.5695  0.3967
 8768SOL    HW127124   5.243   6.596   2.973  0.6798  1.2885  0.5821
 8768SOL    HW227125   5.313   6.586   2.825 -1.0984 -2.9042 -0.1219
 8769SOL     OW27126   5.551   1.724   2.277 -0.2909 -0.7163  1.1345
 8769SOL    HW127127   5.633   1.697   2.226 -0.8606 -1.3313  0.5119
 8769SOL    HW227128   5.571   1.728   2.374  1.1959  1.8138  0.7919
 8770SOL     OW27129   2.301   4.750   2.602 -0.6459  0.3565  0.2193
 8770SOL    HW127130   2.203   4.742   2.581 -0.3099 -2.3505 -0.7162
 8770SOL    HW227131   2.318   4.708   2.691 -0.2333  0.2064  0.0681
 8771SOL     OW27132   6.319   4.608   4.562 -0.0405  0.2749  0.1721
 8771SOL    HW127133   6.246   4.654   4.513 -0.2251  0.8546  0.9708
 8771SOL    HW227134   6.324   4.512   4.532  0.0240  0.6680 -1.1330
 8772SOL     OW27135   5.335   1.406   6.013  0.2857  0.6165  0.7216
 8772SOL    HW127136   5.273   1.484   6.009  1.0459  1.2840  1.4520
 8772SOL    HW227137   5.429   1.439   6.025  0.7025 -0.3888  0.3632
 8773SOL     OW27138   5.656   3.163   5.928 -0.3606 -0.0037 -0.1368
 8773SOL    HW127139   5.620   3.112   5.849  0.1732 -0.0486 -0.3616
 8773SOL    HW227140   5.718   3.234   5.895 -0.0217 -0.1185  0.2468
 8774SOL     OW27141   0.486   4.064   5.275  0.7737 -0.7737 -0.7158
 8774SOL    HW127142   0.566   4.032   5.224  1.8401  1.7083 -0.7749
 8774SOL    HW227143   0.472   4.162   5.257 -2.6032 -1.1932 -1.0801
 8775SOL     OW27144   7.017   1.741   5.773  0.0995 -0.5599  0.1182
 8775SOL    HW127145   6.999   1.735   5.871 -1.0570  0.5869  0.0052
 8775SOL    HW227146   7.045   1.834   5.749 -0.0580 -0.7184 -0.7011
 8776SOL     OW27147   6.313   5.027   6.830 -0.4266 -0.2240 -0.1854
 8776SOL    HW127148   6.345   5.047   6.923 -1.7694  1.3535 -0.0114
 8776SOL    HW227149   6.214   5.013   6.832 -0.6640  0.9820 -1.5109
 8777SOL     OW27150   0.771   3.192   2.215  0.6989  0.3481 -0.7706
 8777SOL    HW127151   0.750   3.097   2.191 -2.0232  0.5880  0.2565
 8777SOL    HW227152   0.686   3.245   2.217  2.0627  2.6668 -0.5789
 8778SOL     OW27153   5.868   2.172   4.497  0.5763  0.2540  0.4259
 8778SOL    HW127154   5.876   2.272   4.494  2.6521  0.1417  0.7039
 8778SOL    HW227155   5.817   2.141   4.417 -1.5224  1.6042  1.1483
 8779SOL     OW27156   6.008   3.586   1.368 -0.4033  0.7923  0.0558
 8779SOL    HW127157   6.085   3.643   1.397  0.2337  0.5238 -1.0616
 8779SOL    HW227158   6.020   3.493   1.404 -1.1730  1.2007  1.4374
 8780SOL     OW27159   4.322   4.511   5.946  0.3274  0.2481  0.2535
 8780SOL    HW127160   4.405   4.464   5.979  0.9351  0.6898 -0.6070
 8780SOL    HW227161   4.347   4.582   5.881 -0.8563 -1.6308 -2.4899
 8781SOL     OW27162   5.579   1.770   2.535 -0.1958 -0.0439  0.6953
 8781SOL    HW127163   5.535   1.823   2.607 -1.3500 -0.2415  0.1628
 8781SOL    HW227164   5.578   1.673   2.559  1.4770  0.0945  1.4459
 8782SOL     OW27165   2.377   0.675   1.619 -0.2711 -0.2910  0.4685
 8782SOL    HW127166   2.299   0.617   1.645 -0.1036 -0.1720  1.2677
 8782SOL    HW227167   2.460   0.619   1.615  0.2620  0.1702  3.1185
 8783SOL     OW27168   5.274   0.409   3.302  0.3662  0.1801  0.3796
 8783SOL    HW127169   5.345   0.471   3.270 -1.0042  1.4523 -0.3791
 8783SOL    HW227170   5.258   0.423   3.399  0.0954  1.0221  0.2243
 8784SOL     OW27171   6.124   2.668   2.908 -0.1477  0.7556  0.2027
 8784SOL    HW127172   6.166   2.627   2.827  1.7861  1.0302  1.0063
 8784SOL    HW227173   6.060   2.739   2.880 -0.5075 -0.0636 -1.1076
 8785SOL     OW27174   1.691   0.841   3.138  0.1281 -0.0531  0.2411
 8785SOL    HW127175   1.718   0.745   3.146 -2.2826 -0.9013 -0.8021
 8785SOL    HW227176   1.613   0.859   3.198 -0.5679  0.7654 -0.8784
 8786SOL     OW27177   3.579   5.574   1.307 -0.5218  0.1405  0.6704
 8786SOL    HW127178   3.637   5.506   1.350 -0.0617 -0.2171 -0.4598
 8786SOL    HW227179   3.483   5.546   1.314 -0.5404  0.4703  2.0738
 8787SOL     OW27180   4.937   3.375   3.185  0.2354 -0.4786 -0.3536
 8787SOL    HW127181   5.030   3.348   3.160  0.4938 -0.3461  0.4337
 8787SOL    HW227182   4.935   3.400   3.281 -0.6359 -0.5429 -0.3474
 8788SOL     OW27183   3.563   0.939   2.770 -0.4689  0.1198 -0.3756
 8788SOL    HW127184   3.550   0.979   2.680 -1.8219 -1.0069 -0.7174
 8788SOL    HW227185   3.525   1.000   2.840 -0.9036  0.2529 -0.7232
 8789SOL     OW27186   1.610   2.620   4.982  0.0536  0.8674 -0.3430
 8789SOL    HW127187   1.538   2.664   5.036  0.8887  2.8119 -0.7546
 8789SOL    HW227188   1.631   2.676   4.901  1.8626  0.2219 -0.3607
 8790SOL     OW27189   0.916   3.701   6.844  0.6315  0.0740  0.1274
 8790SOL    HW127190   0.957   3.792   6.838 -0.6596  1.0168  3.1758
 8790SOL    HW227191   0.987   3.633   6.862  1.5115  0.6133 -1.2331
 8791SOL     OW27192   5.248   4.826   4.440  0.3981  0.2604 -0.3786
 8791SOL    HW127193   5.270   4.774   4.357  2.5468  0.4086  0.0441
 8791SOL    HW227194   5.332   4.845   4.490 -0.7602  1.0090  1.3594
 8792SOL     OW27195   3.508   5.762   3.436  0.3500  0.4800  0.4123
 8792SOL    HW127196   3.430   5.702   3.452  0.7617 -0.2164 -0.1252
 8792SOL    HW227197   3.486   5.826   3.362  0.1736  0.5152  0.4929
 8793SOL     OW27198   3.185   5.694   5.641  0.0944 -0.2026  0.6227
 8793SOL    HW127199   3.171   5.774   5.584 -0.6363  0.5081  1.7626
 8793SOL    HW227200   3.277   5.657   5.626 -0.1100 -0.1037 -1.0561
 8794SOL     OW27201   5.641   0.360   2.634  0.6756 -1.0312  0.1258
 8794SOL    HW127202   5.711   0.301   2.596  0.4811 -1.5891  0.6157
 8794SOL    HW227203   5.553   0.339   2.593  1.3479  2.7189 -3.9934
 8795SOL     OW27204   2.100   6.720   1.878 -0.4792  0.3073 -0.1914
 8795SOL    HW127205   2.004   6.719   1.905 -0.5999  0.2317 -0.6188
 8795SOL    HW227206   2.158   6.703   1.958 -0.7698  1.5288  0.2992
 8796SOL     OW27207   0.152   3.747   3.558 -0.2103  0.1132 -0.6328
 8796SOL    HW127208   0.193   3.837   3.540  0.6693  0.0278  0.7761
 8796SOL    HW227209   0.053   3.754   3.554 -0.2247  1.5422  0.9656
 8797SOL     OW27210   6.367   4.203   1.728  0.1492  0.7929 -0.7300
 8797SOL    HW127211   6.381   4.155   1.642 -2.2462 -0.6521 -0.4198
 8797SOL    HW227212   6.303   4.279   1.714 -1.5269 -0.4284 -0.0085
 8798SOL     OW27213   3.961   1.376   0.926  0.3582 -0.3668 -0.4128
 8798SOL    HW127214   3.903   1.354   1.004 -0.9913 -1.1831 -1.6275
 8798SOL    HW227215   4.057   1.359   0.950  0.1039  0.5261  1.4423
 8799SOL     OW27216   3.875   3.002   2.291 -0.4341 -1.0347 -0.1757
 8799SOL    HW127217   3.795   3.019   2.349 -0.6323 -0.6827 -0.5554
 8799SOL    HW227218   3.888   2.903   2.281 -1.0331 -1.0900 -0.4131
 8800SOL     OW27219   4.789   3.849   2.397 -0.2613  0.0750  0.0190
 8800SOL    HW127220   4.729   3.856   2.318  0.1768  0.9628 -0.2361
 8800SOL    HW227221   4.885   3.852   2.368 -0.0894 -0.4835  0.4998
 8801SOL     OW27222   3.083   3.246   1.841 -0.3711 -0.2760 -0.2125
 8801SOL    HW127223   3.036   3.334   1.849  0.7301  0.2934  0.1453
 8801SOL    HW227224   3.130   3.226   1.927  0.7201 -0.4302 -0.8305
 8802SOL     OW27225   1.402   2.990   4.898  0.2276 -0.0709  0.2494
 8802SOL    HW127226   1.316   3.021   4.937  0.9044 -0.3726  2.0919
 8802SOL    HW227227   1.455   3.069   4.865  0.2259  0.3764  1.2642
 8803SOL     OW27228   3.565   1.978   4.576 -0.4300 -0.1550  0.6988
 8803SOL    HW127229   3.471   1.983   4.544 -0.3691  0.3114  0.5872
 8803SOL    HW227230   3.580   2.046   4.648  0.0026  0.2288  0.2526
 8804SOL     OW27231   5.367   4.137   0.496  0.4166  0.2840  0.4957
 8804SOL    HW127232   5.373   4.047   0.454 -0.9223  0.0897  0.6685
 8804SOL    HW227233   5.289   4.186   0.458  1.2874  1.4994  0.1931
 8805SOL     OW27234   4.189   1.746   1.906 -0.8967 -0.1004 -0.0478
 8805SOL    HW127235   4.231   1.786   1.987 -0.2953 -1.3991  0.3154
 8805SOL    HW227236   4.129   1.671   1.933 -2.5885  0.9542 -0.6462
 8806SOL     OW27237   5.587   4.918   2.527 -0.0811 -0.2314 -0.7108
 8806SOL    HW127238   5.669   4.903   2.582  0.7009  0.6456 -1.6087
 8806SOL    HW227239   5.577   4.843   2.462 -0.1007 -0.4292 -0.4842
 8807SOL     OW27240   0.973   4.338   6.779 -0.2424  0.2940  0.2779
 8807SOL    HW127241   0.992   4.255   6.832 -1.0862 -0.0596  0.0443
 8807SOL    HW227242   0.884   4.329   6.735  0.9763 -0.0272 -2.3292
 8808SOL     OW27243   2.704   3.149   3.949  0.1252 -0.3488  0.1857
 8808SOL    HW127244   2.787   3.201   3.927  0.8537 -0.8920  1.5518
 8808SOL    HW227245   2.709   3.060   3.904  1.1983 -1.1132  1.7320
 8809SOL     OW27246   2.025   4.663   6.769  0.0291 -0.0407  0.1706
 8809SOL    HW127247   1.978   4.705   6.847  1.0382 -0.6736  1.1706
 8809SOL    HW227248   2.009   4.717   6.687 -1.8206  0.1563  0.6076
 8810SOL     OW27249   6.419   1.078   1.396 -0.1740 -0.1216  0.5873
 8810SOL    HW127250   6.355   1.018   1.444  0.4331 -0.7130  0.6773
 8810SOL    HW227251   6.381   1.170   1.391 -0.4967 -0.1778  1.7188
 8811SOL     OW27252   3.839   5.858   3.932 -0.4952 -0.4489  0.5751
 8811SOL    HW127253   3.852   5.761   3.911  1.9643  0.1895 -1.1179
 8811SOL    HW227254   3.752   5.888   3.892 -1.1455 -1.8246  0.8527
 8812SOL     OW27255   2.015   1.442   5.312  0.1151  0.0798  0.0560
 8812SOL    HW127256   1.948   1.390   5.365  0.5619  0.1832  0.7284
 8812SOL    HW227257   1.978   1.459   5.220 -0.2976 -0.8704  0.0333
 8813SOL     OW27258   3.999   2.263   1.715 -0.2524 -0.6909 -0.7962
 8813SOL    HW127259   3.984   2.306   1.804 -2.2702 -0.3475 -1.2699
 8813SOL    HW227260   4.007   2.333   1.644 -0.1329 -1.0059 -1.0978
 8814SOL     OW27261   6.513   0.441   6.426 -0.0743  0.7749  0.4324
 8814SOL    HW127262   6.423   0.418   6.462  0.2741  0.1068  0.8970
 8814SOL    HW227263   6.556   0.359   6.388 -0.6917  1.5553 -2.1224
 8815SOL     OW27264   4.056   2.186   3.622 -0.4182  0.2502  0.3097
 8815SOL    HW127265   4.070   2.128   3.702  1.0322 -0.9171 -0.7487
 8815SOL    HW227266   3.996   2.140   3.557 -0.0403  0.3274 -0.1071
 8816SOL     OW27267   1.393   0.997   5.637 -0.1269  0.3005 -0.6043
 8816SOL    HW127268   1.470   0.955   5.685  1.9051  3.0711 -1.2366
 8816SOL    HW227269   1.317   1.010   5.700  0.3519 -1.3193  0.3580
 8817SOL     OW27270   0.584   6.779   5.197  0.3483 -0.2000  0.4441
 8817SOL    HW127271   0.624   6.762   5.287  1.9339  0.8120 -0.0283
 8817SOL    HW227272   0.654   6.818   5.136 -1.1151  0.7063 -0.7259
 8818SOL     OW27273   6.001   1.748   3.134  0.7090  0.0661  0.2988
 8818SOL    HW127274   5.956   1.672   3.180  1.4521 -0.7710 -0.3232
 8818SOL    HW227275   6.079   1.779   3.188  1.0261 -0.2928  0.0474
 8819SOL     OW27276   6.753   6.423   6.990  0.2845  0.0387 -0.2863
 8819SOL    HW127277   6.657   6.448   6.999  0.3426 -0.2128  1.5084
 8819SOL    HW227278   6.787   6.388   7.077  2.0836  0.3351 -0.8316
 8820SOL     OW27279   4.078   3.730   6.797 -0.0807  0.0375  0.2629
 8820SOL    HW127280   4.097   3.802   6.864  1.3207 -0.4180  0.4125
 8820SOL    HW227281   4.150   3.730   6.727 -0.9206 -0.2036 -0.6269
 8821SOL     OW27282   5.223   5.849   5.103 -0.1354  0.8687  0.2657
 8821SOL    HW127283   5.134   5.885   5.078  0.0213  1.8448  1.0613
 8821SOL    HW227284   5.253   5.783   5.033 -1.0450  1.2266 -0.4870
 8822SOL     OW27285   6.483   6.423   3.878  0.2388  0.0462 -0.1191
 8822SOL    HW127286   6.570   6.395   3.837 -0.7744  0.4058 -2.6860
 8822SOL    HW227287   6.418   6.447   3.806 -2.4041 -1.3468  1.6247
 8823SOL     OW27288   5.890   2.492   1.616 -0.1273 -0.1061  0.5693
 8823SOL    HW127289   5.950   2.420   1.582 -1.0219 -0.2796 -0.6886
 8823SOL    HW227290   5.800   2.484   1.573 -0.3791  1.4877  0.7402
 8824SOL     OW27291   5.302   2.695   2.083 -0.4844 -0.1265  0.4597
 8824SOL    HW127292   5.220   2.736   2.122 -1.0438 -0.1414 -0.6546
 8824SOL    HW227293   5.277   2.645   2.000  0.7885  0.7731 -0.5166
 8825SOL     OW27294   1.177   3.896   1.145 -0.4548  0.0940 -0.1401
 8825SOL    HW127295   1.213   3.988   1.158 -0.4892  0.0359  0.3989
 8825SOL    HW227296   1.252   3.830   1.149 -0.4270  0.1023 -0.5048
 8826SOL     OW27297   5.479   1.156   6.940  0.5645  0.0700 -0.0150
 8826SOL    HW127298   5.561   1.211   6.927  1.9807 -1.9967 -0.2682
 8826SOL    HW227299   5.417   1.170   6.863  0.8538  1.3326 -0.0375
 8827SOL     OW27300   3.738   5.893   5.130  0.3338  0.2174 -0.3216
 8827SOL    HW127301   3.679   5.898   5.050  0.5458 -0.7173 -0.5382
 8827SOL    HW227302   3.709   5.816   5.188  0.8018  0.2865  0.0078
 8828SOL     OW27303   6.585   6.032   6.994  0.0903 -0.0917  0.3011
 8828SOL    HW127304   6.662   5.988   7.041 -0.4786  0.1197  1.4437
 8828SOL    HW227305   6.520   6.066   7.062 -0.1491  1.3717 -0.6313
 8829SOL     OW27306   1.307   0.724   0.026  0.9669  0.0965 -0.0256
 8829SOL    HW127307   1.338   0.631   0.047 -0.2802  0.2340  2.8366
 8829SOL    HW227308   1.257   0.761   0.104  0.8445  2.9617 -1.3443
 8830SOL     OW27309   5.176   2.373   6.521  0.1374  0.4003 -0.1333
 8830SOL    HW127310   5.206   2.364   6.426  0.9434  0.5387  0.1050
 8830SOL    HW227311   5.088   2.327   6.532 -0.4018  1.1530 -1.1534
 8831SOL     OW27312   2.840   5.173   4.267  0.3404 -0.1025  0.3355
 8831SOL    HW127313   2.922   5.148   4.217  0.7003 -1.4878  1.5858
 8831SOL    HW227314   2.824   5.272   4.257  2.6839  0.3735  0.8535
 8832SOL     OW27315   2.822   5.218   0.086  0.1237  0.3378 -0.1214
 8832SOL    HW127316   2.729   5.221   0.048  0.5177 -1.5296 -1.3007
 8832SOL    HW227317   2.880   5.159   0.030  2.2290  1.9704  0.2303
 8833SOL     OW27318   1.720   5.599   3.041 -0.0494  0.4842  0.0443
 8833SOL    HW127319   1.809   5.639   3.019 -0.9469  1.8125 -1.4070
 8833SOL    HW227320   1.691   5.539   2.967  0.4655 -1.5549  1.4040
 8834SOL     OW27321   1.931   6.312   1.972 -0.2122  0.5807  0.3013
 8834SOL    HW127322   1.969   6.280   1.885 -1.3336 -0.3890  0.1317
 8834SOL    HW227323   2.001   6.362   2.023  1.1228 -0.7017 -0.1997
 8835SOL     OW27324   4.744   4.343   4.254  0.3456  0.5609  0.4434
 8835SOL    HW127325   4.750   4.374   4.159  2.9141  1.4680  0.8231
 8835SOL    HW227326   4.799   4.403   4.312  0.5398 -1.2056  2.1923
 8836SOL     OW27327   0.801   2.969   4.595  0.2595 -0.0842  0.3732
 8836SOL    HW127328   0.713   2.922   4.584 -0.4414  0.9515  1.2011
 8836SOL    HW227329   0.856   2.958   4.513 -0.0052 -2.0368  0.4341
 8837SOL     OW27330   5.311   0.671   5.969  0.3114 -0.1450  0.0541
 8837SOL    HW127331   5.321   0.765   5.934 -0.2107 -0.1595 -0.1524
 8837SOL    HW227332   5.295   0.609   5.892 -2.2291  0.0114  0.3508
 8838SOL     OW27333   3.819   0.041   6.855  0.4316 -0.0927  0.0975
 8838SOL    HW127334   3.746   0.044   6.786  1.4987 -0.7331 -1.1026
 8838SOL    HW227335   3.794  -0.023   6.928  0.7130 -2.0607 -1.4577
 8839SOL     OW27336   6.528   2.734   2.937 -0.2001  0.1788  0.0474
 8839SOL    HW127337   6.529   2.731   3.037  0.5108  0.6599  0.0542
 8839SOL    HW227338   6.616   2.703   2.902 -0.1775  0.7462 -0.4064
 8840SOL     OW27339   1.683   4.684   5.121 -0.2577  0.4498  0.0896
 8840SOL    HW127340   1.716   4.757   5.061  1.4080  0.3806  0.8679
 8840SOL    HW227341   1.586   4.666   5.102  0.0477  0.8609 -2.1259
 8841SOL     OW27342   0.402   1.987   2.788 -0.2233 -0.2039  0.3699
 8841SOL    HW127343   0.482   2.001   2.729  0.3062 -0.3889  1.0290
 8841SOL    HW227344   0.407   2.052   2.865 -1.2793  0.5373 -0.1673
 8842SOL     OW27345   3.061   1.167   1.474 -0.3186 -0.3597 -0.6261
 8842SOL    HW127346   3.133   1.157   1.542 -0.5988 -0.1156 -0.2909
 8842SOL    HW227347   3.085   1.115   1.392 -0.5384 -1.6169  0.0890
 8843SOL     OW27348   6.188   2.688   2.333 -0.5911 -0.6537  0.0020
 8843SOL    HW127349   6.245   2.707   2.413 -0.3640 -1.4262  0.0337
 8843SOL    HW227350   6.092   2.705   2.356 -0.4428  0.0400  0.1451
 8844SOL     OW27351   5.785   6.771   1.407 -0.1452 -0.0562 -0.3196
 8844SOL    HW127352   5.742   6.752   1.319 -2.9472 -1.2220  1.1986
 8844SOL    HW227353   5.817   6.686   1.448  1.6000  0.5387 -0.3665
 8845SOL     OW27354   4.994   0.003   0.086 -0.2547 -0.0940  0.2682
 8845SOL    HW127355   5.014   0.075   0.152 -1.5180  0.5379 -0.0051
 8845SOL    HW227356   5.046  -0.079   0.109  1.2479  0.9308  0.5637
 8846SOL     OW27357   1.902   2.133   1.300 -0.0713  0.1765 -0.3305
 8846SOL    HW127358   1.873   2.107   1.392  1.0531  0.9390  0.2680
 8846SOL    HW227359   1.944   2.224   1.303 -0.1025  0.2460 -1.6153
 8847SOL     OW27360   4.562   3.740   2.968 -0.0035 -0.4148  0.4593
 8847SOL    HW127361   4.560   3.642   2.988  1.1090 -0.8643 -1.4084
 8847SOL    HW227362   4.543   3.755   2.871  1.3669  1.0729  0.3770
 8848SOL     OW27363   2.643   2.472   5.737 -0.0970  0.3100  0.1008
 8848SOL    HW127364   2.582   2.393   5.738 -0.7226  0.7857  1.4001
 8848SOL    HW227365   2.659   2.504   5.830  1.4330  0.7580 -0.2813
 8849SOL     OW27366   5.147   0.764   0.410  0.1057 -0.0982 -0.0139
 8849SOL    HW127367   5.241   0.728   0.416 -0.0634 -0.4819  0.4147
 8849SOL    HW227368   5.082   0.688   0.409 -0.1642  0.1332 -1.2810
 8850SOL     OW27369   3.424   0.724   2.680 -0.1806  0.1099 -0.2399
 8850SOL    HW127370   3.441   0.806   2.735 -1.1582 -0.6570  1.2965
 8850SOL    HW227371   3.506   0.666   2.678  0.1622  0.5978 -0.4164
 8851SOL     OW27372   6.576   4.893   5.306 -0.0505 -0.2867 -0.2505
 8851SOL    HW127373   6.650   4.954   5.278  0.2373 -0.4915  0.0456
 8851SOL    HW227374   6.498   4.905   5.245 -1.8766  3.9163  2.4963
 8852SOL     OW27375   2.487   3.129   2.310 -0.9237  0.4816 -0.5402
 8852SOL    HW127376   2.534   3.156   2.226 -0.7798 -0.9861 -0.9697
 8852SOL    HW227377   2.388   3.140   2.299 -0.7741  3.4271  0.2994
 8853SOL     OW27378   6.686   7.004   1.147 -0.0942  0.4231 -0.2924
 8853SOL    HW127379   6.687   6.992   1.048 -1.2373  0.8491 -0.3676
 8853SOL    HW227380   6.752   6.942   1.189  0.5319  0.3663 -1.3284
 8854SOL     OW27381   4.271   2.230   3.995 -0.2330 -0.0182 -0.1794
 8854SOL    HW127382   4.209   2.257   4.069 -1.1451  0.2291 -1.0116
 8854SOL    HW227383   4.335   2.161   4.029  0.2763  1.0866  1.2193
 8855SOL     OW27384   6.714   1.747   0.873  0.0994  0.3172 -0.2829
 8855SOL    HW127385   6.616   1.765   0.881  0.2420  0.2739  2.3761
 8855SOL    HW227386   6.752   1.802   0.798 -1.6392  1.6717 -0.2380
 8856SOL     OW27387   1.944   2.555   2.888  0.0432  0.6444  0.0506
 8856SOL    HW127388   2.013   2.610   2.840  2.5942 -1.2463  1.2833
 8856SOL    HW227389   1.904   2.490   2.824  1.6851 -0.2598 -0.1291
 8857SOL     OW27390   6.548   5.666   3.752  1.0142  0.8169  0.2781
 8857SOL    HW127391   6.559   5.632   3.658  1.9725  0.9882  0.3127
 8857SOL    HW227392   6.476   5.735   3.754  1.5015  1.3719 -0.4938
 8858SOL     OW27393   2.721   6.045   5.432 -0.3999  0.0296  0.2908
 8858SOL    HW127394   2.795   5.983   5.407  0.5176  0.0919  2.5984
 8858SOL    HW227395   2.633   6.004   5.408  0.2236 -1.7536  0.8885
 8859SOL     OW27396   4.498   0.986   3.005 -0.2649  0.7335 -0.2078
 8859SOL    HW127397   4.481   0.961   2.910  1.1226  0.5304 -0.4324
 8859SOL    HW227398   4.581   1.041   3.011  0.7815 -0.8569  1.0687
 8860SOL     OW27399   6.683   5.299   5.957  0.0890  0.8348  0.4958
 8860SOL    HW127400   6.721   5.206   5.963  0.6832  1.1527  2.7556
 8860SOL    HW227401   6.643   5.312   5.867  0.8467 -1.2797 -0.2355
 8861SOL     OW27402   4.559   5.862   0.535  0.0627  0.5444 -0.0854
 8861SOL    HW127403   4.534   5.820   0.447 -2.4140 -0.2203  0.9141
 8861SOL    HW227404   4.528   5.957   0.537  2.5360  1.4823 -0.9778
 8862SOL     OW27405   0.174   1.555   4.355  0.2198 -0.2079 -0.1917
 8862SOL    HW127406   0.173   1.626   4.425  0.6540 -1.7053  1.3817
 8862SOL    HW227407   0.092   1.563   4.298 -0.2930  0.8628  0.6660
 8863SOL     OW27408   4.689   4.636   3.492 -0.6674  0.3122  0.0131
 8863SOL    HW127409   4.665   4.543   3.520  0.4273  0.1443  0.4414
 8863SOL    HW227410   4.755   4.674   3.556  0.2725  0.7095 -1.1585
 8864SOL     OW27411   5.044   5.518   6.740  0.5937 -0.1072 -0.1555
 8864SOL    HW127412   4.997   5.606   6.739 -0.0645 -0.4383  0.2183
 8864SOL    HW227413   5.106   5.515   6.819 -0.0896 -0.3271  0.3833
 8865SOL     OW27414   5.236   2.636   6.844 -0.3123  0.1116  0.2618
 8865SOL    HW127415   5.160   2.670   6.898 -0.3745 -0.2212  0.3850
 8865SOL    HW227416   5.295   2.579   6.901  0.4030  0.9041  0.3519
 8866SOL     OW27417   0.011   0.460   2.165 -0.0700 -0.0346  0.3722
 8866SOL    HW127418   0.005   0.538   2.227 -0.3333 -1.0178  1.6515
 8866SOL    HW227419  -0.055   0.472   2.091  1.6444  2.0943 -0.9045
 8867SOL     OW27420   5.827   0.938   3.377 -0.9067 -0.2497  0.4906
 8867SOL    HW127421   5.785   0.862   3.429 -1.9572  0.5397  0.8437
 8867SOL    HW227422   5.792   0.937   3.284  0.9136 -1.6162 -0.2470
 8868SOL     OW27423   0.671   5.955   0.573 -0.0208  0.0909  0.0374
 8868SOL    HW127424   0.597   5.895   0.543 -0.0851 -0.0018  0.3706
 8868SOL    HW227425   0.734   5.904   0.631  0.7879 -0.0574 -0.9376
 8869SOL     OW27426   4.214   2.398   2.204 -0.3557  0.4586  0.0608
 8869SOL    HW127427   4.118   2.414   2.224 -0.4461  1.7163 -1.2151
 8869SOL    HW227428   4.251   2.475   2.153  1.4820  0.2366  0.9793
 8870SOL     OW27429   0.592   5.576   3.900  0.0615 -0.3491 -0.3859
 8870SOL    HW127430   0.606   5.647   3.969 -2.2841  1.2726 -1.3885
 8870SOL    HW227431   0.669   5.574   3.837  0.7862  0.3809  0.4505
 8871SOL     OW27432   6.842   5.861   2.178  0.2657 -0.1830  0.0603
 8871SOL    HW127433   6.859   5.775   2.130 -1.4495 -2.1316  2.6913
 8871SOL    HW227434   6.880   5.856   2.271 -2.2936  0.7193  1.2461
 8872SOL     OW27435   3.258   0.771   6.167 -0.0809 -0.2008  0.2653
 8872SOL    HW127436   3.325   0.812   6.229 -0.0307  0.4860 -0.2225
 8872SOL    HW227437   3.280   0.796   6.073 -0.0226 -1.4191 -0.0548
 8873SOL     OW27438   4.525   1.062   5.081  0.4957 -0.5986 -0.6901
 8873SOL    HW127439   4.470   1.002   5.023 -1.7557  1.2625 -0.6364
 8873SOL    HW227440   4.577   1.126   5.023  3.0897 -2.5927 -0.7673
 8874SOL     OW27441   1.961   1.004   3.437  0.2323  0.3081 -0.3094
 8874SOL    HW127442   2.030   0.955   3.491 -0.7962 -0.1565  0.6331
 8874SOL    HW227443   1.903   1.058   3.497 -2.1305 -1.6875 -0.6500
 8875SOL     OW27444   5.007   4.739   0.499 -0.5136  0.5109 -0.1915
 8875SOL    HW127445   4.956   4.745   0.413 -1.1746 -0.1944  0.1450
 8875SOL    HW227446   4.963   4.796   0.568 -1.8518 -1.3665  0.5734
 8876SOL     OW27447   3.276   3.682   2.319 -0.6300  0.4001  0.0535
 8876SOL    HW127448   3.318   3.621   2.252 -1.3239  1.4433 -1.3920
 8876SOL    HW227449   3.177   3.667   2.321 -0.5203 -0.3228  1.6297
 8877SOL     OW27450   5.330   1.950   6.159 -0.0403  0.3248  0.0024
 8877SOL    HW127451   5.239   1.978   6.131 -0.3713 -0.5174  0.2025
 8877SOL    HW227452   5.381   2.029   6.192 -0.9544  0.6912  0.5853
 8878SOL     OW27453   6.383   3.945   6.321 -0.3123 -0.6400 -0.1847
 8878SOL    HW127454   6.478   3.951   6.291 -0.6848 -0.2610 -1.3468
 8878SOL    HW227455   6.358   4.030   6.367 -0.3477 -0.3698 -0.6932
 8879SOL     OW27456   4.520   1.677   4.166 -0.1148  0.3406 -0.0392
 8879SOL    HW127457   4.592   1.702   4.102 -0.4712  1.2153 -0.1041
 8879SOL    HW227458   4.496   1.756   4.222 -0.0877 -0.3039  0.9168
 8880SOL     OW27459   6.708   0.199   4.055  0.3276 -0.0071  0.1899
 8880SOL    HW127460   6.783   0.254   4.018  0.4795 -0.6456 -0.4754
 8880SOL    HW227461   6.666   0.247   4.132  2.5642 -0.3702  1.7510
 8881SOL     OW27462   2.660   0.836   4.008 -0.5002 -0.4526 -0.0784
 8881SOL    HW127463   2.608   0.901   4.063  0.7264  0.9778 -0.5145
 8881SOL    HW227464   2.635   0.846   3.912  2.2489  2.1589 -0.6961
 8882SOL     OW27465   1.598   0.083   1.569  0.1464  0.5771 -0.8987
 8882SOL    HW127466   1.569   0.077   1.473  1.4253  1.1621 -1.3420
 8882SOL    HW227467   1.670   0.151   1.577  0.6798 -0.1168  0.3386
 8883SOL     OW27468   5.031   4.605   0.156 -0.0507  0.2035  0.1101
 8883SOL    HW127469   4.943   4.571   0.189 -0.1532 -2.1543 -2.2590
 8883SOL    HW227470   5.031   4.606   0.056  2.1159  1.6210  0.0557
 8884SOL     OW27471   0.173   2.575   1.503 -0.8937 -0.3192  0.0872
 8884SOL    HW127472   0.249   2.514   1.481 -2.1987 -2.0381  0.0245
 8884SOL    HW227473   0.119   2.535   1.578 -2.6168 -0.0055 -0.9222
 8885SOL     OW27474   6.686   0.866   6.739 -0.1356  0.2872 -0.0221
 8885SOL    HW127475   6.646   0.791   6.686 -0.0467  1.0063 -1.1493
 8885SOL    HW227476   6.753   0.915   6.683  1.3525 -0.0409  1.3654
 8886SOL     OW27477   0.213   4.253   2.372 -0.7672  0.3639  0.1309
 8886SOL    HW127478   0.294   4.206   2.335 -0.9515 -0.0130  0.1999
 8886SOL    HW227479   0.211   4.347   2.338 -0.3305  0.3615  0.0741
 8887SOL     OW27480   1.775   6.919   2.423 -0.1515 -0.1343 -0.6389
 8887SOL    HW127481   1.815   7.010   2.433 -0.6972  0.2316 -1.6634
 8887SOL    HW227482   1.700   6.908   2.488 -0.3993  0.3306 -0.8420
 8888SOL     OW27483   1.235   1.376   3.892  0.2709  0.2807  0.0926
 8888SOL    HW127484   1.210   1.473   3.888 -0.8801  0.0824  1.8363
 8888SOL    HW227485   1.172   1.323   3.835 -2.2581  0.0429  2.8479
 8889SOL     OW27486   5.696   2.771   3.592 -0.1665 -1.0984 -0.3786
 8889SOL    HW127487   5.772   2.745   3.533 -0.2154 -2.0814 -0.0292
 8889SOL    HW227488   5.724   2.763   3.688  0.9007  3.2436 -0.1137
 8890SOL     OW27489   4.519   2.124   1.135 -0.2547 -0.5989  0.3356
 8890SOL    HW127490   4.580   2.172   1.198 -0.7252  1.4748 -0.6935
 8890SOL    HW227491   4.543   2.027   1.133  1.9481 -0.1455  1.1733
 8891SOL     OW27492   5.678   2.292   0.841 -0.6686 -0.0459 -0.0446
 8891SOL    HW127493   5.751   2.225   0.849 -0.5590  0.2284  1.8141
 8891SOL    HW227494   5.717   2.384   0.835 -0.8156 -0.0943 -2.6079
 8892SOL     OW27495   6.932   2.173   1.585 -0.3344  0.3401  0.0776
 8892SOL    HW127496   6.891   2.120   1.660  1.5153  0.3504  1.1793
 8892SOL    HW227497   6.899   2.267   1.589  0.4040  0.5811  1.5145
 8893SOL     OW27498   3.089   6.520   2.621 -0.4313 -0.2712 -0.7077
 8893SOL    HW127499   3.184   6.533   2.594 -0.4825 -0.1241 -0.8203
 8893SOL    HW227500   3.072   6.564   2.709 -0.9169  1.5371 -1.6718
 8894SOL     OW27501   5.188   5.418   4.912  0.5780 -0.5360  0.0560
 8894SOL    HW127502   5.252   5.472   4.968 -0.5136  0.2831  0.5523
 8894SOL    HW227503   5.137   5.356   4.971  0.2070 -0.4721 -0.1964
 8895SOL     OW27504   1.605   1.846   5.131 -0.5160  0.2210  0.0451
 8895SOL    HW127505   1.510   1.845   5.102 -0.4950  2.6537 -0.2976
 8895SOL    HW227506   1.626   1.934   5.173  1.5513 -0.3054  0.2192
 8896SOL     OW27507   5.140   4.262   4.138  0.0789 -0.9532 -0.4136
 8896SOL    HW127508   5.132   4.337   4.204  0.2952 -0.8490 -0.5039
 8896SOL    HW227509   5.230   4.265   4.095  0.0106 -1.1276 -0.5783
 8897SOL     OW27510   0.740   1.903   3.965  0.0402  0.1600 -0.0273
 8897SOL    HW127511   0.835   1.936   3.965  0.1538 -0.1641  0.0516
 8897SOL    HW227512   0.737   1.807   3.937 -0.2585  0.1454  0.0440
 8898SOL     OW27513   3.375   4.102   6.446  0.1632  0.1976  0.5164
 8898SOL    HW127514   3.375   4.185   6.501  1.6887  0.4781  0.1507
 8898SOL    HW227515   3.385   4.126   6.349 -2.5621 -0.2815  0.0385
 8899SOL     OW27516   3.739   6.166   1.340 -0.5710 -0.4473  0.3163
 8899SOL    HW127517   3.780   6.220   1.414  1.3827 -0.1522 -0.8926
 8899SOL    HW227518   3.771   6.071   1.347  1.1039 -0.0288 -1.1410
 8900SOL     OW27519   1.417   4.840   1.094  0.4327 -0.7099 -0.1784
 8900SOL    HW127520   1.503   4.788   1.089  1.2049  0.5840 -1.8975
 8900SOL    HW227521   1.353   4.805   1.026 -1.5069 -3.2993  2.7085
 8901SOL     OW27522   1.245   6.986   6.927 -0.7253  0.3491  0.1047
 8901SOL    HW127523   1.220   7.014   7.020 -1.1497  1.2730 -0.2799
 8901SOL    HW227524   1.214   6.893   6.911  0.1241 -0.1354  1.1897
 8902SOL     OW27525   6.972   0.538   0.475 -0.2585 -0.5820  0.7514
 8902SOL    HW127526   6.909   0.487   0.416  0.1315 -0.7313  0.4536
 8902SOL    HW227527   7.024   0.603   0.421 -1.3938  0.8149  1.2662
 8903SOL     OW27528   6.200   0.465   2.914 -0.1537  0.6391 -0.8664
 8903SOL    HW127529   6.284   0.414   2.896 -1.0296 -0.9360 -0.6844
 8903SOL    HW227530   6.220   0.563   2.922  1.9029  0.1512  0.7722
 8904SOL     OW27531   2.830   1.892   6.026  0.0089 -0.1153  0.5198
 8904SOL    HW127532   2.882   1.859   5.947 -0.1785  0.9103 -0.0581
 8904SOL    HW227533   2.838   1.827   6.101  2.2126  0.0411  0.4986
 8905SOL     OW27534   1.062   6.230   5.499 -0.4989 -0.0836 -0.1474
 8905SOL    HW127535   1.049   6.284   5.416  1.4409  0.1554 -0.3777
 8905SOL    HW227536   1.044   6.134   5.479 -0.9524  0.0842 -0.5825
 8906SOL     OW27537   6.470   4.405   1.172 -0.0269 -0.0243  0.4675
 8906SOL    HW127538   6.387   4.372   1.217 -0.0310  1.1600  1.3609
 8906SOL    HW227539   6.547   4.348   1.200 -0.4204 -0.7499  0.1113
 8907SOL     OW27540   2.187   1.556   4.975  0.6612 -1.1170 -0.5135
 8907SOL    HW127541   2.235   1.526   5.057  0.4316  0.9292  0.4360
 8907SOL    HW227542   2.253   1.587   4.907  0.8357  1.3949  0.6699
 8908SOL     OW27543   2.554   6.760   1.005 -0.2582  0.5146 -0.6278
 8908SOL    HW127544   2.467   6.712   1.019 -0.2941  0.5150 -0.8455
 8908SOL    HW227545   2.538   6.859   1.008 -0.4286  0.5232 -1.6495
 8909SOL     OW27546   1.929   5.134   6.132 -0.2160  0.3758  0.5811
 8909SOL    HW127547   1.898   5.041   6.110  1.6663 -0.3453  0.8220
 8909SOL    HW227548   1.853   5.185   6.172 -1.3354 -1.0222  0.3180
 8910SOL     OW27549   6.997   6.544   5.953  0.0428 -0.0443 -1.0326
 8910SOL    HW127550   7.069   6.559   5.885  0.3125 -1.3816 -1.0426
 8910SOL    HW227551   7.006   6.611   6.027  0.4551  0.6597 -1.7101
 8911SOL     OW27552   0.172   5.097   1.299  0.1276 -0.2873 -0.2325
 8911SOL    HW127553   0.096   5.155   1.329 -0.6669 -1.1831 -0.4497
 8911SOL    HW227554   0.240   5.153   1.252 -0.7893  0.4307 -0.7500
 8912SOL     OW27555   1.396   5.928   5.734 -0.3264  0.4385 -0.4134
 8912SOL    HW127556   1.476   5.964   5.781 -1.3171 -0.1357  1.8300
 8912SOL    HW227557   1.334   6.003   5.711 -0.5165  0.5961  0.5730
 8913SOL     OW27558   4.654   1.527   2.795  0.4992 -0.2578 -0.4302
 8913SOL    HW127559   4.691   1.448   2.745  0.5179 -0.3547 -0.2636
 8913SOL    HW227560   4.571   1.499   2.843  0.7223 -0.2695 -0.0548
 8914SOL     OW27561   0.487   2.153   3.156  0.0496  0.5104  0.2402
 8914SOL    HW127562   0.402   2.101   3.154  0.1085  0.4058  0.3933
 8914SOL    HW227563   0.478   2.235   3.099 -0.2761  0.6954  0.5534
 8915SOL     OW27564   1.383   6.727   2.215  0.1987 -0.0038 -0.6398
 8915SOL    HW127565   1.430   6.814   2.203  1.4392 -0.6742 -0.8162
 8915SOL    HW227566   1.450   6.653   2.213 -0.4676 -0.7995  2.1291
 8916SOL     OW27567   3.888   1.979   4.224  0.4869  0.1458 -0.6556
 8916SOL    HW127568   3.947   1.898   4.224  0.3902  0.0404  0.9287
 8916SOL    HW227569   3.847   1.990   4.315 -0.5447  1.2303 -1.2294
 8917SOL     OW27570   5.581   4.126   6.852  0.0144  0.1499 -0.3866
 8917SOL    HW127571   5.492   4.082   6.858 -0.6922  1.6881  2.3698
 8917SOL    HW227572   5.648   4.075   6.906  0.3876 -0.0024 -0.9662
 8918SOL     OW27573   5.448   1.236   3.292  0.6681 -0.1050 -0.2550
 8918SOL    HW127574   5.423   1.330   3.271  4.2750  1.1362  0.2781
 8918SOL    HW227575   5.499   1.197   3.215  0.8548 -0.9380  0.2723
 8919SOL     OW27576   2.174   6.422   5.648 -0.0122  0.5694  0.0061
 8919SOL    HW127577   2.142   6.404   5.741 -0.3634 -2.4623 -0.6092
 8919SOL    HW227578   2.114   6.489   5.605 -1.3926  0.1151  1.1363
 8920SOL     OW27579   6.508   1.231   2.944 -0.2295 -0.0176 -0.2527
 8920SOL    HW127580   6.574   1.173   2.897 -0.0929  0.7749 -1.0480
 8920SOL    HW227581   6.419   1.187   2.944 -0.2231 -0.0448 -1.2271
 8921SOL     OW27582   1.357   5.200   6.288 -0.8580  0.6120 -0.5069
 8921SOL    HW127583   1.295   5.122   6.295  0.0640 -0.0609  0.4177
 8921SOL    HW227584   1.431   5.177   6.225 -1.0099  1.0425 -0.8446
 8922SOL     OW27585   3.686   6.799   5.872  0.1227  0.1839  0.0249
 8922SOL    HW127586   3.642   6.733   5.934 -1.4357  1.7869  0.7107
 8922SOL    HW227587   3.623   6.874   5.854  1.0757  0.4756 -2.4136
 8923SOL     OW27588   2.280   0.419   4.625  0.1223  0.5125  0.6059
 8923SOL    HW127589   2.370   0.409   4.582  0.6861  1.3860  1.5181
 8923SOL    HW227590   2.213   0.446   4.557  0.3307 -1.0809 -0.2750
 8924SOL     OW27591   4.806   6.198   5.619 -0.4794 -0.3022  0.6517
 8924SOL    HW127592   4.867   6.119   5.610 -0.7552 -0.6357  1.5388
 8924SOL    HW227593   4.713   6.172   5.593 -0.4853 -0.1525  0.5238
 8925SOL     OW27594   5.028   3.531   0.438 -0.2373  0.2138 -0.4909
 8925SOL    HW127595   5.106   3.502   0.494 -1.8340  1.8509  2.8960
 8925SOL    HW227596   5.045   3.510   0.342  3.1419 -1.9353  0.4411
 8926SOL     OW27597   4.230   6.173   4.696 -0.7887  0.3514  0.1826
 8926SOL    HW127598   4.322   6.150   4.727 -1.0800  1.8535  2.3317
 8926SOL    HW227599   4.180   6.089   4.676  0.7334 -0.5121 -0.1475
 8927SOL     OW27600   6.701   1.075   2.807 -0.0850 -0.2052 -0.4321
 8927SOL    HW127601   6.744   0.994   2.848 -1.0557 -0.0047  1.0300
 8927SOL    HW227602   6.683   1.057   2.710 -1.1130 -2.0975  0.0612
 8928SOL     OW27603   2.120   3.548   4.908 -1.2690 -0.1320 -0.7019
 8928SOL    HW127604   2.156   3.494   4.832 -0.1508  2.1184 -1.8760
 8928SOL    HW227605   2.043   3.603   4.876 -1.0553  0.5261 -0.1060
 8929SOL     OW27606   5.862   3.314   5.252  0.2018  0.2971 -0.1852
 8929SOL    HW127607   5.820   3.317   5.343  0.5257  0.4857 -0.0424
 8929SOL    HW227608   5.960   3.333   5.260  0.0724  1.1657 -0.6799
 8930SOL     OW27609   2.562   5.610   2.349  0.2460  0.6915  0.0285
 8930SOL    HW127610   2.471   5.570   2.345  0.5883 -0.0859 -0.2362
 8930SOL    HW227611   2.603   5.589   2.438  0.5406  0.1889 -0.2214
 8931SOL     OW27612   5.254   3.855   0.487 -0.6838  0.0585 -0.0593
 8931SOL    HW127613   5.329   3.803   0.528 -0.6253 -0.8269 -1.2594
 8931SOL    HW227614   5.188   3.880   0.559  0.7929  0.9706  1.0317
 8932SOL     OW27615   3.766   6.401   2.637 -0.0302 -0.0997 -0.4818
 8932SOL    HW127616   3.859   6.365   2.625  0.1147  0.6845 -1.9025
 8932SOL    HW227617   3.763   6.496   2.609 -1.4668 -0.3533 -1.2465
 8933SOL     OW27618   4.421   0.996   6.844 -0.2290  0.1262  0.1154
 8933SOL    HW127619   4.507   1.044   6.823 -1.1507  1.0650 -1.6489
 8933SOL    HW227620   4.361   1.056   6.896 -0.9489  0.5358 -1.1509
 8934SOL     OW27621   4.380   1.840   2.434  0.7159 -0.3265 -0.1655
 8934SOL    HW127622   4.454   1.824   2.499 -1.8833 -1.7402  2.6747
 8934SOL    HW227623   4.313   1.902   2.475  0.1599  0.7883 -2.5906
 8935SOL     OW27624   6.994   3.457   4.921  0.2418  0.4226 -0.3208
 8935SOL    HW127625   6.950   3.529   4.975  0.8344  1.4177 -1.1014
 8935SOL    HW227626   7.088   3.484   4.899  1.7720 -2.1844  2.3827
 8936SOL     OW27627   4.273   1.882   1.220 -0.4359 -0.4168 -0.0070
 8936SOL    HW127628   4.243   1.966   1.176  0.5249 -0.5080 -0.8932
 8936SOL    HW227629   4.353   1.846   1.171  1.4210  0.0750  2.4587
 8937SOL     OW27630   3.835   1.054   5.797 -0.3476 -0.9168  0.0226
 8937SOL    HW127631   3.844   1.094   5.888  1.3286  1.4212 -1.0502
 8937SOL    HW227632   3.923   1.020   5.766 -0.2362  0.6970 -1.6573
 8938SOL     OW27633   3.037   1.051   6.286 -0.1424  0.9240 -0.0490
 8938SOL    HW127634   3.029   1.098   6.198  0.2272 -1.5884 -1.5268
 8938SOL    HW227635   3.133   1.029   6.303 -0.4033 -0.1983  0.0508
 8939SOL     OW27636   4.073   2.433   6.912  0.3100 -0.0557  0.2544
 8939SOL    HW127637   4.172   2.428   6.917  0.6743  3.7153  0.2078
 8939SOL    HW227638   4.041   2.398   6.824  1.9625  1.2354 -0.9297
 8940SOL     OW27639   4.222   5.071   2.585  0.3094 -0.9436  0.4888
 8940SOL    HW127640   4.178   5.108   2.667  1.2493  2.5547 -0.4214
 8940SOL    HW227641   4.313   5.036   2.609  0.9561  0.8914  0.8826
 8941SOL     OW27642   2.528   4.821   6.155  0.5759 -0.7297  0.2742
 8941SOL    HW127643   2.555   4.872   6.236  0.8966 -0.5777  0.0779
 8941SOL    HW227644   2.520   4.724   6.177 -0.5830 -0.5239  0.7821
 8942SOL     OW27645   1.457   2.778   1.980 -0.1439 -0.0458 -0.0174
 8942SOL    HW127646   1.377   2.734   2.022  0.4131  0.2998  1.4633
 8942SOL    HW227647   1.524   2.708   1.955 -0.4524 -0.2518 -0.2809
 8943SOL     OW27648   4.690   3.668   0.204  0.2880 -0.6023 -0.2839
 8943SOL    HW127649   4.710   3.760   0.237 -0.3077 -0.4223 -0.3965
 8943SOL    HW227650   4.718   3.660   0.108 -2.6988  0.5721 -1.3520
 8944SOL     OW27651   3.019   0.225   2.910  0.1908 -0.5136  0.1415
 8944SOL    HW127652   3.037   0.322   2.922 -2.5190  0.2995 -1.6377
 8944SOL    HW227653   2.923   0.206   2.932  0.4408 -2.6383 -0.3981
 8945SOL     OW27654   6.347   2.309   4.149  0.1628 -0.3712  0.0293
 8945SOL    HW127655   6.363   2.358   4.234  0.9533  1.4903 -1.1076
 8945SOL    HW227656   6.295   2.367   4.086  2.2655 -0.3862 -1.8585
 8946SOL     OW27657   4.424   7.013   0.635 -0.2862 -0.2137 -0.1064
 8946SOL    HW127658   4.361   7.079   0.592  0.0344 -0.7338 -1.3855
 8946SOL    HW227659   4.437   7.038   0.731  0.4260  2.0343 -0.7197
 8947SOL     OW27660   2.087   0.208   6.446  0.0961  0.2817 -0.2970
 8947SOL    HW127661   2.110   0.305   6.434  0.0844  0.3551  0.2225
 8947SOL    HW227662   2.139   0.154   6.380 -0.9612  0.7633 -1.5640
 8948SOL     OW27663   5.657   6.252   1.699 -0.0656 -0.1570  0.1423
 8948SOL    HW127664   5.607   6.166   1.706  1.3500 -0.9993  0.0402
 8948SOL    HW227665   5.681   6.269   1.604  0.9250 -0.3844  0.3473
 8949SOL     OW27666   1.929   2.266   2.077  0.0523 -0.1483  0.0528
 8949SOL    HW127667   1.897   2.345   2.026 -0.9589 -0.8912 -0.4848
 8949SOL    HW227668   1.991   2.211   2.020  0.5148  0.0858  0.3218
 8950SOL     OW27669   3.522   2.548   2.317  0.3684  0.3823 -0.1583
 8950SOL    HW127670   3.524   2.645   2.344 -2.8324  0.6492 -0.4045
 8950SOL    HW227671   3.457   2.536   2.242 -0.8861 -2.2103  1.1896
 8951SOL     OW27672   4.200   1.294   4.686  0.3858 -0.5482  0.3012
 8951SOL    HW127673   4.180   1.245   4.601  1.8410  1.7234 -1.4695
 8951SOL    HW227674   4.123   1.354   4.709  0.0643 -1.0354  0.5127
 8952SOL     OW27675   2.434   0.680   1.988 -0.6220  0.4148  0.3140
 8952SOL    HW127676   2.373   0.732   2.047  0.5511  2.0739  0.1268
 8952SOL    HW227677   2.390   0.663   1.900 -1.6190 -0.3182  0.9326
 8953SOL     OW27678   0.146   2.603   6.286  0.1898  0.2300  0.3266
 8953SOL    HW127679   0.189   2.523   6.244  1.5093  0.2816  1.5119
 8953SOL    HW227680   0.066   2.630   6.232 -0.0743 -1.6580 -0.2860
 8954SOL     OW27681   6.807   3.553   2.129 -0.2655 -0.3364  0.0022
 8954SOL    HW127682   6.729   3.593   2.081 -0.4432 -0.3657  0.2614
 8954SOL    HW227683   6.774   3.479   2.188 -0.1756  0.3132  0.8814
 8955SOL     OW27684   5.336   3.820   5.383 -0.3757 -0.6364 -0.1004
 8955SOL    HW127685   5.375   3.729   5.401  0.0423 -0.1723  1.5111
 8955SOL    HW227686   5.242   3.809   5.350 -0.3293 -1.6490  0.0467
 8956SOL     OW27687   4.077   0.887   3.695 -0.0838  0.6814  0.0872
 8956SOL    HW127688   3.991   0.841   3.715  0.9329 -1.9696 -1.1559
 8956SOL    HW227689   4.060   0.965   3.635 -1.5381 -0.5898 -1.2546
 8957SOL     OW27690   5.663   1.442   1.106  0.3103 -0.3727 -0.3988
 8957SOL    HW127691   5.652   1.350   1.069 -1.6322  0.2219 -1.3989
 8957SOL    HW227692   5.677   1.436   1.205  1.8400 -1.7961 -0.6712
 8958SOL     OW27693   5.369   3.838   4.204  0.1934 -0.0080  0.0192
 8958SOL    HW127694   5.328   3.863   4.116 -2.4170  1.4256  1.5266
 8958SOL    HW227695   5.357   3.741   4.220 -0.3485 -0.0706 -0.7040
 8959SOL     OW27696   1.297   4.962   1.590 -0.1205 -0.1575  0.6140
 8959SOL    HW127697   1.341   4.972   1.501 -1.2878 -0.2911  0.0022
 8959SOL    HW227698   1.364   4.931   1.658  0.6631 -0.5565 -0.3268
 8960SOL     OW27699   6.098   6.570   1.727  0.3689  0.1209  0.0113
 8960SOL    HW127700   6.094   6.663   1.691 -1.0674  0.3080  0.6164
 8960SOL    HW227701   6.121   6.507   1.653 -0.7403  0.7194 -0.8872
 8961SOL     OW27702   4.658   5.385   2.833  0.3675 -0.6343 -0.1288
 8961SOL    HW127703   4.724   5.325   2.880  1.6665  0.4762 -0.4856
 8961SOL    HW227704   4.681   5.390   2.736  0.1465  0.2420 -0.1464
 8962SOL     OW27705   2.575   5.563   2.942  0.3264  0.0944 -0.0371
 8962SOL    HW127706   2.591   5.465   2.930 -0.0247  0.0699 -0.3418
 8962SOL    HW227707   2.535   5.601   2.859  0.9729  0.6090 -0.1191
 8963SOL     OW27708   1.649   2.132   2.847 -0.1554  0.2957  0.8907
 8963SOL    HW127709   1.675   2.225   2.872  0.3974  0.6711 -0.9234
 8963SOL    HW227710   1.727   2.071   2.860  0.1604  0.5077  0.1177
 8964SOL     OW27711   0.315   5.276   1.106 -0.3274 -0.4739  0.0312
 8964SOL    HW127712   0.337   5.370   1.081  1.2061 -0.9172 -0.3885
 8964SOL    HW227713   0.299   5.222   1.024  0.4046 -0.9415  0.1868
 8965SOL     OW27714   2.905   2.543   3.881 -0.6811 -0.5994  0.2626
 8965SOL    HW127715   2.904   2.590   3.970 -1.9518  0.8377 -0.4775
 8965SOL    HW227716   2.999   2.516   3.859 -0.1084  0.4835  1.2996
 8966SOL     OW27717   1.423   3.080   6.006  0.0090 -0.4254 -0.5619
 8966SOL    HW127718   1.385   3.121   5.923  0.4920 -0.5736 -0.8622
 8966SOL    HW227719   1.358   3.015   6.044  0.1094 -0.9673 -1.2847
 8967SOL     OW27720   5.268   1.054   0.636 -0.4272 -0.2173 -0.1228
 8967SOL    HW127721   5.314   1.076   0.550 -1.6380 -1.6328 -1.1664
 8967SOL    HW227722   5.214   1.132   0.667  0.4838  0.5021 -0.3143
 8968SOL     OW27723   1.309   3.871   6.764 -0.4924 -0.8298 -0.1166
 8968SOL    HW127724   1.287   3.953   6.712  0.8211  0.1723  0.8500
 8968SOL    HW227725   1.364   3.809   6.708 -0.2038 -0.3467 -0.3767
 8969SOL     OW27726   4.056   6.508   5.982 -0.2559 -0.5348 -0.6172
 8969SOL    HW127727   3.996   6.536   5.907 -0.7084  2.0063  0.5974
 8969SOL    HW227728   4.142   6.472   5.944 -0.2431  1.2063 -2.4225
 8970SOL     OW27729   2.771   5.318   0.852 -0.5054  0.1391 -0.3572
 8970SOL    HW127730   2.781   5.395   0.916  0.0134 -1.3872  1.4852
 8970SOL    HW227731   2.675   5.294   0.842 -0.4586 -0.9460  1.5430
 8971SOL     OW27732   2.907   4.305   0.914 -0.0565  0.5131 -0.1492
 8971SOL    HW127733   2.977   4.271   0.976  0.3843 -1.6269 -1.7074
 8971SOL    HW227734   2.937   4.391   0.874  2.3091 -0.9036 -1.6623
 8972SOL     OW27735   6.959   4.588   6.943  0.2590  0.1988 -0.1103
 8972SOL    HW127736   6.943   4.492   6.919  2.3449 -0.1796 -0.1616
 8972SOL    HW227737   7.057   4.606   6.944 -0.1241  2.3720 -0.1552
 8973SOL     OW27738   3.883   4.702   5.532 -0.3173 -0.3153  0.1274
 8973SOL    HW127739   3.906   4.668   5.623 -0.6478 -0.2474  0.2378
 8973SOL    HW227740   3.967   4.718   5.480 -0.0697  0.6893  0.8003
 8974SOL     OW27741   1.650   6.414   2.970  0.1530  0.0525  0.1923
 8974SOL    HW127742   1.660   6.322   2.931 -0.1793 -0.5839  1.5473
 8974SOL    HW227743   1.557   6.425   3.005  1.0427 -0.2563  2.8312
 8975SOL     OW27744   3.055   4.108   1.074 -0.6684  0.1921  0.5932
 8975SOL    HW127745   2.979   4.076   1.130 -1.6128  1.3003 -0.0317
 8975SOL    HW227746   3.069   4.046   0.997 -1.3881  0.3297  0.3397
 8976SOL     OW27747   6.137   1.513   3.242 -0.3894 -0.7098  0.4648
 8976SOL    HW127748   6.204   1.584   3.221 -0.0447 -1.2800 -0.4268
 8976SOL    HW227749   6.095   1.532   3.331 -0.9743  1.1017 -0.1540
 8977SOL     OW27750   0.620   4.659   0.736  0.2969  0.6655  0.1164
 8977SOL    HW127751   0.632   4.657   0.637  0.9797  1.1764  0.1785
 8977SOL    HW227752   0.692   4.715   0.777 -0.5608  1.2949  0.8065
 8978SOL     OW27753   1.808   6.804   0.422  0.3784 -0.8105 -0.1839
 8978SOL    HW127754   1.788   6.731   0.488 -2.4896 -1.7191 -1.8922
 8978SOL    HW227755   1.843   6.884   0.471 -2.5446 -1.0590  2.6460
 8979SOL     OW27756   5.261   0.407   6.213  0.1473 -0.0885  0.1933
 8979SOL    HW127757   5.358   0.385   6.210  0.2652  0.4514 -0.0980
 8979SOL    HW227758   5.217   0.375   6.129 -0.1715 -1.4091  0.8339
 8980SOL     OW27759   1.100   5.111   2.493 -0.1677 -0.5004  0.1865
 8980SOL    HW127760   1.084   5.119   2.592  1.1945 -2.1169  0.5964
 8980SOL    HW227761   1.014   5.090   2.446 -0.6496 -0.8813  1.1981
 8981SOL     OW27762   2.669   2.755   2.681  0.3671  0.1624  0.0276
 8981SOL    HW127763   2.646   2.838   2.630 -0.1561  0.3182  0.5110
 8981SOL    HW227764   2.612   2.749   2.763  0.7049 -0.4520  0.2248
 8982SOL     OW27765   4.359   6.578   5.349 -0.5219 -0.8903  0.0022
 8982SOL    HW127766   4.452   6.581   5.385 -1.3574 -0.6064  2.2806
 8982SOL    HW227767   4.318   6.669   5.354 -0.5900 -0.7353 -2.0990
 8983SOL     OW27768   3.604   6.989   5.068 -0.3496  0.6312 -0.3314
 8983SOL    HW127769   3.631   7.075   5.111  1.2223 -0.7354  1.5606
 8983SOL    HW227770   3.684   6.946   5.026 -0.6918 -0.7546  0.3766
 8984SOL     OW27771   0.859   0.908   0.529  0.5451 -0.0167 -0.2193
 8984SOL    HW127772   0.827   0.814   0.528  0.4634  0.0127 -0.5569
 8984SOL    HW227773   0.948   0.914   0.483  0.5816  0.0604 -0.1416
 8985SOL     OW27774   2.031   2.438   4.557 -0.2093  0.0957  0.1485
 8985SOL    HW127775   1.996   2.410   4.468  1.6814 -0.6312 -0.4115
 8985SOL    HW227776   2.037   2.537   4.561 -1.4066  0.1945 -0.0681
 8986SOL     OW27777   4.636   5.295   3.368 -0.1238 -0.0134 -0.0331
 8986SOL    HW127778   4.704   5.340   3.310 -1.8441  1.5101 -0.9423
 8986SOL    HW227779   4.647   5.326   3.462 -0.6194  1.5564 -0.4703
 8987SOL     OW27780   4.185   1.138   5.394  0.7101  0.4379  0.6076
 8987SOL    HW127781   4.205   1.209   5.327 -0.2012 -1.3106 -1.6306
 8987SOL    HW227782   4.086   1.132   5.408  0.7904 -0.2815  0.9045
 8988SOL     OW27783   0.640   1.216   5.234 -0.3765 -0.3372  0.7456
 8988SOL    HW127784   0.625   1.313   5.217 -1.3354 -0.6083 -0.0689
 8988SOL    HW227785   0.738   1.196   5.238 -0.1734  0.5081  0.0669
 8989SOL     OW27786   0.936   0.634   3.420 -0.0705  0.1351 -0.4787
 8989SOL    HW127787   0.846   0.660   3.456 -0.3885 -0.5356 -0.7722
 8989SOL    HW227788   0.952   0.537   3.437 -0.3338 -0.2793 -2.2925
 8990SOL     OW27789   0.833   1.190   0.516 -0.8602 -0.1073 -0.2160
 8990SOL    HW127790   0.856   1.093   0.520  0.0903  0.0763 -0.8933
 8990SOL    HW227791   0.901   1.238   0.461  1.2035  1.7417  3.5847
 8991SOL     OW27792   4.102   6.882   5.742 -0.5684  0.2365  0.2926
 8991SOL    HW127793   4.106   6.794   5.694  0.7194  1.4901 -2.0563
 8991SOL    HW227794   4.027   6.881   5.808 -2.1256 -1.7399 -1.4126
 8992SOL     OW27795   1.044   4.458   5.548  0.2119 -0.3219  0.6627
 8992SOL    HW127796   1.111   4.403   5.500  0.0577  0.0362  0.0239
 8992SOL    HW227797   1.083   4.548   5.569 -0.0279 -0.1431  0.3705
 8993SOL     OW27798   3.577   6.583   3.081 -0.2846  0.2114  0.7930
 8993SOL    HW127799   3.664   6.535   3.090 -0.5599 -0.4896 -0.1109
 8993SOL    HW227800   3.594   6.678   3.055  0.2177  0.0193  0.3760
 8994SOL     OW27801   4.020   4.945   3.281  0.1149 -0.3813 -0.5233
 8994SOL    HW127802   3.994   5.011   3.212 -0.3621 -1.4248 -1.3801
 8994SOL    HW227803   4.090   4.883   3.244  0.3538 -0.5282  0.1508
 8995SOL     OW27804   0.732   0.417   1.300 -0.8334 -0.4955 -0.1847
 8995SOL    HW127805   0.728   0.449   1.205 -2.3065  0.2693  0.1017
 8995SOL    HW227806   0.718   0.494   1.362 -1.8272 -1.2566  0.5982
 8996SOL     OW27807   1.918   4.880   3.155 -0.2605  0.7202 -0.1526
 8996SOL    HW127808   1.855   4.923   3.090 -0.2402  1.4598  0.2958
 8996SOL    HW227809   1.910   4.926   3.243  1.0654  0.9624 -0.1392
 8997SOL     OW27810   0.141   3.940   0.820  0.4883  0.0761  0.2840
 8997SOL    HW127811   0.195   3.962   0.739  0.0889 -0.9252 -0.2646
 8997SOL    HW227812   0.068   4.007   0.831  2.0274  1.6663  1.2395
 8998SOL     OW27813   5.064   1.642   2.093  0.6066  0.1036  0.4168
 8998SOL    HW127814   5.005   1.620   2.170 -0.2876  0.9850  0.0047
 8998SOL    HW227815   5.035   1.728   2.052  1.3215 -0.1455 -0.6590
 8999SOL     OW27816   3.752   0.617   5.114  0.4991  0.1837  0.5990
 8999SOL    HW127817   3.774   0.628   5.211  1.0239 -0.1598  0.5257
 8999SOL    HW227818   3.675   0.554   5.105  0.7163 -0.1210  0.7833
 9000SOL     OW27819   5.956   0.638   6.807 -0.8295 -0.4349  0.6771
 9000SOL    HW127820   6.036   0.678   6.852  0.3259 -0.6657 -1.0664
 9000SOL    HW227821   5.933   0.692   6.726 -1.1626 -1.5320  0.0189
 9001SOL     OW27822   0.429   3.321   6.508  0.3563 -0.0744  0.2312
 9001SOL    HW127823   0.424   3.223   6.526  0.3852 -0.3701 -1.2208
 9001SOL    HW227824   0.443   3.370   6.594  0.2762 -1.3312  0.9879
 9002SOL     OW27825   1.507   4.327   5.253  0.2600  0.2274  0.4444
 9002SOL    HW127826   1.594   4.366   5.282  0.8047 -0.5289 -0.0848
 9002SOL    HW227827   1.514   4.227   5.254 -1.3970  0.0667  2.7136
 9003SOL     OW27828   4.333   4.112   2.121  1.3472  0.0424  0.2857
 9003SOL    HW127829   4.243   4.134   2.083  0.6834 -1.2418  1.0297
 9003SOL    HW227830   4.374   4.195   2.160  0.5747  0.6776 -0.2222
 9004SOL     OW27831   6.820   6.506   3.673  0.2477  0.4117  0.3183
 9004SOL    HW127832   6.816   6.423   3.729  0.8288  0.0545 -0.1635
 9004SOL    HW227833   6.826   6.481   3.577 -0.2057  1.0243  0.1269
 9005SOL     OW27834   1.756   2.937   1.157  0.1636  0.5477  0.1160
 9005SOL    HW127835   1.819   2.859   1.151  0.6114  0.8913  0.3105
 9005SOL    HW227836   1.753   2.983   1.068 -1.5710 -0.8063 -0.5892
 9006SOL     OW27837   6.781   3.678   4.762 -0.1903 -0.1773 -0.8069
 9006SOL    HW127838   6.812   3.630   4.844 -1.2951 -0.8892 -0.7806
 9006SOL    HW227839   6.720   3.619   4.709 -3.4915  1.8753  0.4011
 9007SOL     OW27840   6.132   3.356   5.373 -0.0465  0.2474  0.3985
 9007SOL    HW127841   6.167   3.285   5.434  1.4235 -0.0430 -0.7138
 9007SOL    HW227842   6.205   3.423   5.355 -1.7442  2.8603  2.4754
 9008SOL     OW27843   6.179   6.100   3.167  0.4470 -0.3115  0.2172
 9008SOL    HW127844   6.105   6.149   3.121 -0.8831 -1.1166  1.4594
 9008SOL    HW227845   6.266   6.123   3.122 -0.3165  1.9533 -0.2371
 9009SOL     OW27846   5.873   1.774   5.921  0.2169  0.1641 -0.1160
 9009SOL    HW127847   5.836   1.855   5.966  0.6851 -0.1335  0.8137
 9009SOL    HW227848   5.959   1.749   5.963 -0.6734 -1.7589  0.6647
 9010SOL     OW27849   5.812   1.367   2.870  0.4817  0.3094 -0.7066
 9010SOL    HW127850   5.835   1.460   2.840  1.6574  0.7196  1.2681
 9010SOL    HW227851   5.879   1.336   2.937 -0.3668 -1.6560 -0.7013
 9011SOL     OW27852   6.362   6.165   6.760  0.1341 -0.3791 -0.4212
 9011SOL    HW127853   6.335   6.133   6.850 -0.6069  0.0337 -0.4923
 9011SOL    HW227854   6.280   6.182   6.704  0.5817 -0.6284 -1.1648
 9012SOL     OW27855   1.624   3.160   4.386 -0.3993  0.2826  0.2419
 9012SOL    HW127856   1.602   3.246   4.432 -1.0772  0.4764 -0.4120
 9012SOL    HW227857   1.606   3.169   4.288  0.0807 -0.4270  0.0781
 9013SOL     OW27858   1.992   4.491   1.077  0.5236 -0.1704 -0.0114
 9013SOL    HW127859   1.950   4.413   1.124  0.7376  0.0226  0.5108
 9013SOL    HW227860   1.998   4.568   1.140  1.0256  0.0225 -0.2913
 9014SOL     OW27861   3.254   5.559   1.572  0.3985 -0.1278 -0.0284
 9014SOL    HW127862   3.279   5.654   1.555 -0.6076  0.1416 -0.0785
 9014SOL    HW227863   3.163   5.555   1.614  1.3539 -0.9403  2.1209
 9015SOL     OW27864   1.489   6.830   6.622  0.0054  0.2549 -0.0334
 9015SOL    HW127865   1.524   6.859   6.532  0.0236  1.0162  0.2124
 9015SOL    HW227866   1.450   6.738   6.614  0.9503 -0.1164 -0.5944
 9016SOL     OW27867   6.936   5.874   2.848  0.0486 -0.6131  0.2384
 9016SOL    HW127868   6.862   5.941   2.836  0.2889 -0.5289 -0.9376
 9016SOL    HW227869   7.020   5.911   2.810  0.7038 -0.7363  1.4983
 9017SOL     OW27870   5.717   6.634   4.159 -0.0291  0.9575  0.2152
 9017SOL    HW127871   5.620   6.629   4.182 -0.1102  1.5098  0.0129
 9017SOL    HW227872   5.763   6.701   4.219  0.0175  1.4596 -0.3661
 9018SOL     OW27873   5.353   5.316   1.984  0.7197  0.1817 -0.8104
 9018SOL    HW127874   5.319   5.405   1.955  3.0938  0.7532 -2.1686
 9018SOL    HW227875   5.412   5.328   2.064 -0.4142 -0.4857  0.1664
 9019SOL     OW27876   6.547   3.670   0.932  0.2292 -0.7155  0.0213
 9019SOL    HW127877   6.490   3.676   0.850 -1.4984 -1.1200  1.1497
 9019SOL    HW227878   6.581   3.576   0.942  0.0196 -0.7910  0.0359
 9020SOL     OW27879   4.874   6.191   0.065 -0.0289 -0.3661  0.4904
 9020SOL    HW127880   4.877   6.285   0.098  0.4923  0.4419 -1.7080
 9020SOL    HW227881   4.786   6.175   0.018  0.4226 -0.5463 -0.3078
 9021SOL     OW27882   3.689   6.750   3.493 -0.2314  0.6874  0.3317
 9021SOL    HW127883   3.620   6.775   3.425 -1.3246  0.0273  1.1632
 9021SOL    HW227884   3.644   6.728   3.580  0.9413 -0.6724  0.6395
 9022SOL     OW27885   0.777   3.309   1.578 -0.5401 -0.1653 -0.4927
 9022SOL    HW127886   0.854   3.328   1.639 -2.3829  1.7270  1.3905
 9022SOL    HW227887   0.810   3.260   1.497  2.0835 -2.3717  1.7097
 9023SOL     OW27888   4.110   3.217   0.297  0.3235  0.3608 -0.5494
 9023SOL    HW127889   4.074   3.311   0.298 -0.7839 -0.0480 -0.0141
 9023SOL    HW227890   4.130   3.189   0.203 -0.0237  0.8752 -0.7788
 9024SOL     OW27891   5.531   6.452   0.545  0.3493 -0.8124 -0.8628
 9024SOL    HW127892   5.454   6.391   0.562 -0.7179  0.8511  0.5969
 9024SOL    HW227893   5.534   6.523   0.616  1.5018  0.8765 -2.4928
 9025SOL     OW27894   6.790   5.190   2.423  0.7987  0.7366 -0.3679
 9025SOL    HW127895   6.746   5.111   2.381 -2.4515  2.3314 -0.2767
 9025SOL    HW227896   6.840   5.162   2.504 -0.3491 -1.2295 -0.2813
 9026SOL     OW27897   6.438   2.631   6.076 -0.0065 -0.3037 -0.4670
 9026SOL    HW127898   6.419   2.716   6.028  2.4950  0.3442 -0.4277
 9026SOL    HW227899   6.501   2.575   6.022 -0.1245 -1.2620  0.3643
 9027SOL     OW27900   3.677   5.335   0.023 -0.2336  0.1499 -0.0773
 9027SOL    HW127901   3.723   5.421   0.047 -2.0446  0.5917  2.1799
 9027SOL    HW227902   3.746   5.266   0.002  1.3582  1.4473  0.5861
 9028SOL     OW27903   0.999   1.060   0.794  0.4511  0.5340 -0.3791
 9028SOL    HW127904   1.023   0.963   0.793  1.1131  0.6971 -1.3284
 9028SOL    HW227905   0.913   1.074   0.744  0.6204  0.5039 -0.6816
 9029SOL     OW27906   5.533   0.133   0.194 -0.3727  0.0993  0.4841
 9029SOL    HW127907   5.622   0.131   0.150 -0.2241  0.5793  0.7570
 9029SOL    HW227908   5.544   0.136   0.293 -0.6209  2.8658  0.5050
 9030SOL     OW27909   6.762   0.239   1.896  1.3054 -0.0921  0.0432
 9030SOL    HW127910   6.843   0.268   1.845  0.8592 -2.0178 -1.9959
 9030SOL    HW227911   6.695   0.202   1.831 -0.4258 -0.2929  1.8608
 9031SOL     OW27912   3.501   0.249   1.669  0.0183 -0.5094  0.4448
 9031SOL    HW127913   3.439   0.308   1.618  1.5408  2.1327  1.4698
 9031SOL    HW227914   3.546   0.185   1.605 -0.0658  0.9121 -1.1259
 9032SOL     OW27915   4.244   1.959   0.366  0.1890 -0.0713 -0.1933
 9032SOL    HW127916   4.248   1.871   0.412  1.7250 -0.1200 -0.3502
 9032SOL    HW227917   4.308   1.959   0.289 -0.9951  0.6340 -1.2192
 9033SOL     OW27918   6.711   1.467   3.869  0.3237 -0.2974 -0.0928
 9033SOL    HW127919   6.768   1.532   3.820  0.6728 -0.9226 -0.5216
 9033SOL    HW227920   6.616   1.495   3.864  0.5934  0.8528  0.7636
 9034SOL     OW27921   4.753   4.295   6.129 -0.4307  0.3916  0.1216
 9034SOL    HW127922   4.700   4.349   6.194  1.5274  1.7404  0.7223
 9034SOL    HW227923   4.707   4.295   6.040 -2.7560 -0.8086  1.2509
 9035SOL     OW27924   0.271   6.549   5.438  0.1055 -0.3189  0.0867
 9035SOL    HW127925   0.192   6.560   5.378  0.2663  0.4765 -0.0001
 9035SOL    HW227926   0.292   6.452   5.449 -1.4556 -0.6017  0.8623
 9036SOL     OW27927   6.216   5.090   3.542 -0.8085  0.0768 -0.2494
 9036SOL    HW127928   6.160   5.057   3.618  0.9930 -0.0904  1.0571
 9036SOL    HW227929   6.290   5.148   3.577  0.4262 -0.4853 -1.7971
 9037SOL     OW27930   6.645   6.280   6.059 -0.0680 -0.5190 -1.0043
 9037SOL    HW127931   6.739   6.247   6.060 -0.4347 -1.6265 -1.1549
 9037SOL    HW227932   6.601   6.251   5.974 -0.0725  1.4110 -1.7025
 9038SOL     OW27933   5.334   3.962   3.606 -0.3845 -0.0040 -0.0546
 9038SOL    HW127934   5.302   4.032   3.670  0.4803 -0.5548  1.0212
 9038SOL    HW227935   5.380   4.006   3.528 -0.6389  0.6426  0.1540
 9039SOL     OW27936   2.020   2.645   6.728  0.5051  0.0648  0.6251
 9039SOL    HW127937   1.952   2.648   6.802 -0.2957 -0.5640 -0.0696
 9039SOL    HW227938   1.979   2.604   6.647  1.7909 -0.5466  0.2581
 9040SOL     OW27939   2.160   0.737   3.478 -0.1808 -0.0527  0.1361
 9040SOL    HW127940   2.236   0.716   3.417  0.9964  0.5234  1.3642
 9040SOL    HW227941   2.117   0.652   3.510  2.1871 -0.5930  2.1580
 9041SOL     OW27942   4.255   4.092   2.964 -0.0020  0.7618 -0.2097
 9041SOL    HW127943   4.231   4.019   2.900  1.0575  1.3271 -1.3005
 9041SOL    HW227944   4.172   4.125   3.009 -0.5118 -1.1325  0.3779
 9042SOL     OW27945   5.666   3.703   1.991 -0.3049 -0.0809 -0.3686
 9042SOL    HW127946   5.743   3.760   2.020  0.5480 -1.4966  0.2599
 9042SOL    HW227947   5.582   3.739   2.030  0.1813  0.8960 -0.1897
 9043SOL     OW27948   4.553   6.383   2.159 -0.5181 -0.0331  0.2104
 9043SOL    HW127949   4.550   6.410   2.063  1.8180 -0.8475 -0.1508
 9043SOL    HW227950   4.562   6.465   2.216  1.1545  0.3078 -0.4940
 9044SOL     OW27951   1.016   1.541   5.119 -0.1862  0.0144  0.0929
 9044SOL    HW127952   1.007   1.638   5.096 -3.4266  0.0021  0.8935
 9044SOL    HW227953   1.050   1.492   5.039 -1.0561  1.4543 -1.2401
 9045SOL     OW27954   6.789   4.478   5.479 -0.2051  0.5608 -0.1904
 9045SOL    HW127955   6.860   4.471   5.410 -1.0381 -0.2268 -0.9941
 9045SOL    HW227956   6.732   4.559   5.460  1.0623  1.7914  1.0491
 9046SOL     OW27957   6.327   2.205   0.194 -0.7023 -0.2942 -0.1066
 9046SOL    HW127958   6.248   2.261   0.219 -0.7023 -0.5520  0.5000
 9046SOL    HW227959   6.349   2.219   0.098 -0.7930  0.6391 -0.0076
 9047SOL     OW27960   5.782   4.544   1.416  0.5610  0.0339 -0.1517
 9047SOL    HW127961   5.757   4.581   1.327 -0.6552  0.8865  0.5147
 9047SOL    HW227962   5.756   4.609   1.488 -0.6426 -1.5901  0.9858
 9048SOL     OW27963   3.219   2.251   5.999  0.0421 -0.0466  0.8247
 9048SOL    HW127964   3.131   2.268   6.044 -1.2770 -0.8725 -1.3097
 9048SOL    HW227965   3.290   2.305   6.045 -1.5871  0.8047  2.4960
 9049SOL     OW27966   1.122   1.810   3.613  0.3241 -0.0273 -1.0411
 9049SOL    HW127967   1.064   1.747   3.664  0.4855  1.5460  1.2951
 9049SOL    HW227968   1.067   1.862   3.548 -0.8403  0.8687  0.5637
 9050SOL     OW27969   3.620   0.103   0.639 -0.0978  0.5395  0.3126
 9050SOL    HW127970   3.527   0.105   0.677 -0.4878  2.0058 -0.6386
 9050SOL    HW227971   3.623   0.041   0.561  0.0985 -0.6037  1.2061
 9051SOL     OW27972   3.307   4.803   2.646  0.1748 -0.2530  0.3088
 9051SOL    HW127973   3.229   4.847   2.690  0.4193  0.3380  0.1659
 9051SOL    HW227974   3.382   4.794   2.712  0.4717  0.4444  0.0696
 9052SOL     OW27975   3.047   3.319   6.547 -0.5567 -0.7581 -0.2919
 9052SOL    HW127976   2.954   3.353   6.531 -0.2240  0.2841 -0.1090
 9052SOL    HW227977   3.099   3.387   6.599  0.5587 -0.9388 -1.1047
 9053SOL     OW27978   5.571   6.888   0.819 -0.2287 -0.6648  0.1486
 9053SOL    HW127979   5.517   6.940   0.753  1.0224 -0.1015 -0.4468
 9053SOL    HW227980   5.551   6.921   0.912  1.5382  1.9208 -0.2821
 9054SOL     OW27981   2.297   6.525   5.400  0.4019  0.1694  0.0650
 9054SOL    HW127982   2.226   6.575   5.350  0.2131  0.4107  0.5686
 9054SOL    HW227983   2.282   6.427   5.391  1.0688  0.1788 -1.3688
 9055SOL     OW27984   6.507   1.104   0.365  0.4601  0.1379  0.2749
 9055SOL    HW127985   6.488   1.078   0.460  0.0095  3.9229  1.3778
 9055SOL    HW227986   6.421   1.110   0.314  0.3854  1.0725  0.5030
 9056SOL     OW27987   0.741   5.237   7.018 -0.3615 -0.2837 -0.0469
 9056SOL    HW127988   0.661   5.260   6.963  0.4752  1.3600 -0.6565
 9056SOL    HW227989   0.757   5.138   7.016 -2.5993 -0.7024  0.4183
 9057SOL     OW27990   7.012   4.372   5.973 -0.4540  0.3543 -0.0935
 9057SOL    HW127991   7.053   4.369   5.882 -0.8492 -2.9707 -0.2974
 9057SOL    HW227992   7.079   4.342   6.041 -1.1718 -0.6500  0.1799
 9058SOL     OW27993   5.641   6.285   4.169  0.1565  0.8691  0.6984
 9058SOL    HW127994   5.589   6.299   4.085  2.5476 -0.6485 -1.1913
 9058SOL    HW227995   5.585   6.236   4.236 -0.7721 -1.1893 -1.4378
 9059SOL     OW27996   6.618   2.420   3.196 -0.2187 -0.3868 -0.4643
 9059SOL    HW127997   6.603   2.516   3.170 -0.7545 -0.4338 -0.3560
 9059SOL    HW227998   6.713   2.407   3.223 -0.2038  0.1779 -0.2237
 9060SOL     OW27999   4.838   1.498   0.053  0.4454  0.3139 -0.1343
 9060SOL    HW128000   4.928   1.457   0.072  0.0331 -1.1934 -1.2328
 9060SOL    HW228001   4.767   1.443   0.097 -0.0245  0.7638 -0.3286
 9061SOL     OW28002   4.021   6.009   0.631 -0.3265 -0.6638  0.0244
 9061SOL    HW128003   3.968   5.943   0.578 -1.1550  0.2728 -0.3573
 9061SOL    HW228004   4.109   5.969   0.655  0.1381 -1.0979 -2.1552
 9062SOL     OW28005   3.213   3.681   4.262 -0.1702  0.0179  0.2563
 9062SOL    HW128006   3.163   3.768   4.257  0.7538  0.6779  1.6428
 9062SOL    HW228007   3.301   3.696   4.307  0.0519 -1.6386  0.4391
 9063SOL     OW28008   6.456   2.596   5.254 -0.0239 -0.2063 -0.2992
 9063SOL    HW128009   6.504   2.662   5.311  1.9875 -0.8079 -1.1969
 9063SOL    HW228010   6.483   2.609   5.158 -2.7663  0.3291 -1.0939
 9064SOL     OW28011   0.150   3.016   6.140 -0.3389  0.1556  0.1837
 9064SOL    HW128012   0.220   3.027   6.210  1.4226 -2.3318 -1.0602
 9064SOL    HW228013   0.171   3.076   6.062 -0.3811  0.4032  0.3585
 9065SOL     OW28014   6.969   3.527   1.025  0.9748  0.7426  0.5457
 9065SOL    HW128015   7.017   3.447   1.061  0.8293  0.0024 -0.8536
 9065SOL    HW228016   7.031   3.581   0.968 -0.0557 -0.7570 -2.0941
 9066SOL     OW28017   0.562   0.998   4.772 -0.6424 -0.0816  0.2196
 9066SOL    HW128018   0.592   1.093   4.763  0.9708 -0.5479  0.4962
 9066SOL    HW228019   0.537   0.980   4.867  2.7353 -0.9148  1.0765
 9067SOL     OW28020   1.738   3.781   4.449  0.5746  0.1177 -0.1230
 9067SOL    HW128021   1.813   3.721   4.476  2.3343  1.1228 -2.4609
 9067SOL    HW228022   1.697   3.822   4.531  1.9026 -1.2168  1.2708
 9068SOL     OW28023   0.944   1.311   1.007 -0.7198 -0.0093  0.7183
 9068SOL    HW128024   0.893   1.247   0.949 -1.8564  1.7965 -0.4271
 9068SOL    HW228025   0.972   1.264   1.090 -1.1176 -2.0746 -0.2199
 9069SOL     OW28026   6.182   3.819   0.625 -0.0091  0.5409 -0.0661
 9069SOL    HW128027   6.134   3.845   0.541 -0.3692 -0.9100 -0.3447
 9069SOL    HW228028   6.135   3.859   0.704 -1.8762 -1.0030 -0.3129
 9070SOL     OW28029   2.541   3.775   5.263 -0.0601  0.3547  0.0845
 9070SOL    HW128030   2.511   3.745   5.172  0.1095  0.2866  0.0483
 9070SOL    HW228031   2.530   3.875   5.270  0.4301  0.4303 -0.2022
 9071SOL     OW28032   2.208   1.854   1.223  0.0168  0.2169  0.6153
 9071SOL    HW128033   2.153   1.785   1.175 -0.6536  0.0906  1.5514
 9071SOL    HW228034   2.176   1.945   1.197  1.5876  0.2579 -1.4455
 9072SOL     OW28035   0.987   4.156   7.004  0.3500  0.1942  0.0911
 9072SOL    HW128036   0.928   4.235   7.018  0.0980 -0.0967  0.7079
 9072SOL    HW228037   1.038   4.137   7.088  0.6864 -0.0767 -0.1974
 9073SOL     OW28038   5.569   1.653   3.407 -0.0305 -0.4113 -0.5331
 9073SOL    HW128039   5.501   1.726   3.411 -0.5539 -0.9143  0.0785
 9073SOL    HW228040   5.657   1.687   3.440 -0.0389  0.1812 -1.1073
 9074SOL     OW28041   2.492   6.193   1.645  0.0043 -0.4063 -0.0750
 9074SOL    HW128042   2.579   6.162   1.606  2.8045  3.4219  2.3819
 9074SOL    HW228043   2.484   6.159   1.739  0.2529  1.3700  0.6289
 9075SOL     OW28044   3.926   6.552   4.232 -0.0112 -0.3429  0.6007
 9075SOL    HW128045   3.947   6.524   4.326 -0.8323  0.1878  0.9550
 9075SOL    HW228046   4.008   6.590   4.190  0.9779 -2.5573  0.3348
 9076SOL     OW28047   5.067   6.889   2.179  0.0713 -0.3893  0.2199
 9076SOL    HW128048   5.079   6.805   2.232 -1.3225 -1.6660 -1.3610
 9076SOL    HW228049   5.003   6.872   2.104  2.8778  0.8463 -2.7384
 9077SOL     OW28050   6.115   4.858   0.867 -0.2601 -0.4372  0.2162
 9077SOL    HW128051   6.037   4.886   0.812 -0.9084  0.3520  1.5135
 9077SOL    HW228052   6.141   4.764   0.841 -1.7698 -0.8101 -0.0710
 9078SOL     OW28053   3.409   2.781   6.702 -0.1457  0.4599 -0.7747
 9078SOL    HW128054   3.334   2.846   6.698  0.3731  1.1381  0.1334
 9078SOL    HW228055   3.495   2.829   6.719 -0.1324 -0.6380  3.0809
 9079SOL     OW28056   1.166   5.701   6.557 -0.0695 -0.0410  0.1829
 9079SOL    HW128057   1.216   5.620   6.588 -0.6262 -0.3014  0.4116
 9079SOL    HW228058   1.155   5.697   6.458 -0.6189 -0.5532  0.2572
 9080SOL     OW28059   1.250   1.411   2.157 -0.2009  0.3305 -0.3198
 9080SOL    HW128060   1.151   1.399   2.162 -0.5249  1.2037 -3.0458
 9080SOL    HW228061   1.292   1.328   2.120 -0.3455  1.0830 -2.2645
 9081SOL     OW28062   4.470   4.137   0.886  0.8664  0.3599  0.0363
 9081SOL    HW128063   4.386   4.082   0.889 -0.2093  1.9211  0.0368
 9081SOL    HW228064   4.496   4.163   0.978  1.7784 -0.7298  0.0918
 9082SOL     OW28065   3.613   2.747   1.408 -0.2549 -0.1154  0.3825
 9082SOL    HW128066   3.577   2.709   1.493 -2.3526 -1.3692 -0.9619
 9082SOL    HW228067   3.577   2.840   1.396 -1.6031 -0.6624 -0.0361
 9083SOL     OW28068   4.406   0.592   4.853  0.1513 -0.4957 -0.2422
 9083SOL    HW128069   4.434   0.498   4.831 -0.8365 -0.8739  0.0739
 9083SOL    HW228070   4.409   0.605   4.952 -0.0829 -0.3083 -0.2602
 9084SOL     OW28071   1.925   1.122   4.248  0.2368  0.0733 -0.0021
 9084SOL    HW128072   1.866   1.202   4.239  0.5525  0.2668 -0.3620
 9084SOL    HW228073   1.980   1.129   4.332  1.8928  1.3159 -1.1477
 9085SOL     OW28074   1.786   5.277   0.158  0.7982  0.9071  0.1647
 9085SOL    HW128075   1.761   5.297   0.063  0.2490  1.5178  0.4236
 9085SOL    HW228076   1.722   5.210   0.196  0.2324  1.6136  0.4812
 9086SOL     OW28077   3.942   6.947   2.980  0.2362  0.0122  0.0652
 9086SOL    HW128078   3.925   7.044   2.963  2.2298  0.3483 -0.1141
 9086SOL    HW228079   3.995   6.909   2.904 -2.4583 -1.8619 -1.0195
 9087SOL     OW28080   1.236   0.773   1.093 -0.1899  0.2395 -0.0200
 9087SOL    HW128081   1.306   0.718   1.138  0.1159  0.1659 -0.5672
 9087SOL    HW228082   1.180   0.820   1.161  0.5241  0.4592  0.4337
 9088SOL     OW28083   4.560   6.645   4.800  0.4271 -0.0482 -0.1174
 9088SOL    HW128084   4.630   6.583   4.835  0.3271 -0.4111 -0.5449
 9088SOL    HW228085   4.602   6.711   4.737  0.1938 -1.0879 -1.3945
 9089SOL     OW28086   3.205   4.635   3.624  0.2345 -0.1533 -0.0697
 9089SOL    HW128087   3.125   4.649   3.682  0.4562 -0.7241  0.3816
 9089SOL    HW228088   3.287   4.669   3.670  0.5337 -1.3574  0.3228
 9090SOL     OW28089   0.012   0.506   4.725  0.4072 -0.5332  0.0010
 9090SOL    HW128090  -0.021   0.515   4.631 -1.0890  1.0958  0.6363
 9090SOL    HW228091  -0.060   0.467   4.782  0.8875 -0.4160  0.7019
 9091SOL     OW28092   3.275   3.189   4.268  0.0604 -0.0315 -0.4062
 9091SOL    HW128093   3.281   3.108   4.327  0.6191 -1.3107 -2.1019
 9091SOL    HW228094   3.240   3.267   4.320 -2.2244 -1.7909  0.8837
 9092SOL     OW28095   6.499   5.368   5.028  0.0904 -0.1777  0.2723
 9092SOL    HW128096   6.449   5.445   5.067  0.7656 -0.4259  1.6814
 9092SOL    HW228097   6.435   5.304   4.985 -0.7196 -0.0574  1.2721
 9093SOL     OW28098   6.759   2.646   0.416  0.2818 -0.4355 -0.2850
 9093SOL    HW128099   6.834   2.668   0.478 -0.8690 -1.6223  1.6335
 9093SOL    HW228100   6.793   2.646   0.321  2.1416  1.2412  0.3044
 9094SOL     OW28101   1.041   0.156   5.604  0.1069  0.1511 -0.2799
 9094SOL    HW128102   1.015   0.086   5.537 -1.4434 -0.1495  0.5955
 9094SOL    HW228103   1.007   0.130   5.694 -2.4999  3.0679 -0.2821
 9095SOL     OW28104   3.653   0.571   2.623  0.4301  0.5186  0.5138
 9095SOL    HW128105   3.710   0.496   2.656  0.4232 -0.3426 -1.2892
 9095SOL    HW228106   3.696   0.613   2.543 -0.2773  1.4990  0.6306
 9096SOL     OW28107   3.416   5.843   6.571  0.3720 -0.2347 -0.5261
 9096SOL    HW128108   3.349   5.879   6.506 -0.5876  0.0250  0.5930
 9096SOL    HW228109   3.430   5.745   6.554 -0.7226 -0.4274 -0.4122
 9097SOL     OW28110   1.458   3.962   3.813 -0.1931 -0.3349  0.6875
 9097SOL    HW128111   1.508   3.904   3.749  1.2715  1.1019  0.4699
 9097SOL    HW228112   1.477   4.058   3.793 -1.6776  0.2086  1.7301
 9098SOL     OW28113   2.852   5.288   5.709 -0.2329 -0.5532  0.2358
 9098SOL    HW128114   2.835   5.190   5.719 -1.9571 -0.4244 -0.9855
 9098SOL    HW228115   2.769   5.333   5.676  0.6029  1.2970  0.5422
 9099SOL     OW28116   6.786   5.640   6.497  0.1219 -0.1799 -0.4157
 9099SOL    HW128117   6.692   5.643   6.462  0.2389  1.6843 -0.6473
 9099SOL    HW228118   6.830   5.557   6.464 -1.3628 -0.9702 -0.4991
 9100SOL     OW28119   4.698   2.672   3.200 -0.4540  0.3201 -0.4238
 9100SOL    HW128120   4.760   2.720   3.262 -0.9341  0.5792 -0.1425
 9100SOL    HW228121   4.616   2.643   3.250 -0.3798 -0.3843 -0.6974
 9101SOL     OW28122   6.803   3.747   6.022  0.2012 -0.2381 -0.5164
 9101SOL    HW128123   6.863   3.814   6.065  1.9631 -1.2123 -1.3709
 9101SOL    HW228124   6.803   3.663   6.077 -2.0894  0.4043  0.6174
 9102SOL     OW28125   1.728   6.258   4.338 -0.1306  0.0663  0.4094
 9102SOL    HW128126   1.809   6.256   4.396 -1.1998  1.1493  2.0424
 9102SOL    HW228127   1.647   6.273   4.396 -1.2679  1.0116 -1.3756
 9103SOL     OW28128   3.494   5.776   2.018 -0.5021 -0.6300  0.1986
 9103SOL    HW128129   3.538   5.711   2.079 -0.4335  0.3566  1.2374
 9103SOL    HW228130   3.443   5.726   1.947  0.8500 -1.7901 -0.0153
 9104SOL     OW28131   1.247   6.509   1.676 -0.6514 -0.4049 -0.1030
 9104SOL    HW128132   1.156   6.478   1.704 -0.1023 -1.3368  0.6534
 9104SOL    HW228133   1.315   6.440   1.698  0.2419  0.2276 -0.7911
 9105SOL     OW28134   1.158   1.755   2.867 -0.0428 -0.1382 -0.1156
 9105SOL    HW128135   1.089   1.802   2.922  0.2947  1.5877 -1.1047
 9105SOL    HW228136   1.135   1.763   2.770  0.1369 -1.8986 -0.3449
 9106SOL     OW28137   4.539   6.198   5.543 -0.2120  0.2736 -0.1316
 9106SOL    HW128138   4.518   6.254   5.623 -0.7797 -0.4558  0.2422
 9106SOL    HW228139   4.478   6.222   5.468 -1.9392 -1.2482  0.6825
 9107SOL     OW28140   1.752   2.675   2.178 -0.1395  0.7021 -0.2177
 9107SOL    HW128141   1.711   2.620   2.106  1.4245  0.3061 -0.8624
 9107SOL    HW228142   1.841   2.710   2.147  1.6405 -1.2728  2.2037
 9108SOL     OW28143   3.795   5.043   0.725 -0.5438 -0.2750 -0.0330
 9108SOL    HW128144   3.839   4.972   0.779 -0.3735  0.0325  0.2431
 9108SOL    HW228145   3.816   5.030   0.629 -3.2582 -2.5864 -0.4485
 9109SOL     OW28146   3.036   5.178   5.873 -0.1287  0.6332 -0.4740
 9109SOL    HW128147   2.980   5.163   5.791  1.2327  0.2106 -1.3773
 9109SOL    HW228148   3.003   5.120   5.947  0.0789 -0.8235 -1.4701
 9110SOL     OW28149   5.398   6.642   1.374  0.1188 -0.5767  0.2290
 9110SOL    HW128150   5.460   6.655   1.451 -0.3347 -1.5677  0.7842
 9110SOL    HW228151   5.344   6.559   1.388 -1.8153  0.5887  0.0898
 9111SOL     OW28152   6.985   4.367   1.351 -0.2431 -0.0026  0.8430
 9111SOL    HW128153   6.928   4.285   1.344 -0.3332  0.1546 -0.4755
 9111SOL    HW228154   6.927   4.448   1.361 -0.1773 -0.0081  1.3454
 9112SOL     OW28155   6.844   4.122   6.561  0.3318 -0.0653  0.4672
 9112SOL    HW128156   6.752   4.138   6.526  1.2540 -0.0307 -2.1315
 9112SOL    HW228157   6.901   4.202   6.543  0.9758 -0.2465  1.6638
 9113SOL     OW28158   6.244   1.491   4.434  0.2622 -0.0389  0.3868
 9113SOL    HW128159   6.340   1.491   4.405  0.8124 -0.9221  2.0566
 9113SOL    HW228160   6.229   1.414   4.496 -1.8903 -0.7767 -0.9179
 9114SOL     OW28161   4.356   1.521   0.249 -0.5472  0.0075 -0.2637
 9114SOL    HW128162   4.383   1.429   0.223 -2.3555 -0.3064 -1.1951
 9114SOL    HW228163   4.259   1.536   0.225 -0.8520  1.4870  1.6289
 9115SOL     OW28164   2.354   1.788   4.147 -0.4358  0.0418  0.2023
 9115SOL    HW128165   2.275   1.829   4.101 -1.3313  0.7598  2.2483
 9115SOL    HW228166   2.432   1.789   4.085 -1.1280  2.4673 -0.7842
 9116SOL     OW28167   3.848   0.338   5.466 -0.3912  0.4762  0.2382
 9116SOL    HW128168   3.895   0.284   5.396 -0.7874 -1.0165  1.0711
 9116SOL    HW228169   3.915   0.387   5.521 -0.0476  1.2369 -0.8237
 9117SOL     OW28170   3.740   1.462   2.893  0.2655 -0.0177  0.4201
 9117SOL    HW128171   3.766   1.366   2.895 -1.6699 -0.6180 -0.6894
 9117SOL    HW228172   3.668   1.476   2.824  0.4532  2.2099  0.5945
 9118SOL     OW28173   6.188   4.127   4.842 -0.1849  0.7012 -0.5062
 9118SOL    HW128174   6.108   4.184   4.864 -1.4994 -0.9545 -0.7493
 9118SOL    HW228175   6.254   4.133   4.917  0.3865  3.5178 -1.0851
 9119SOL     OW28176   0.466   0.368   0.365  0.8120 -0.0177  0.1157
 9119SOL    HW128177   0.541   0.319   0.321 -1.3247 -1.0901 -2.6209
 9119SOL    HW228178   0.451   0.330   0.457  3.5961  0.3140  0.7836
 9120SOL     OW28179   1.087   2.289   3.089  0.7326 -0.4902 -0.1310
 9120SOL    HW128180   1.157   2.359   3.098  0.5618 -0.3176 -0.1203
 9120SOL    HW228181   1.120   2.215   3.031  0.6482 -0.0519 -0.7516
 9121SOL     OW28182   4.776   1.663   4.823 -0.7922  0.5127 -0.2864
 9121SOL    HW128183   4.840   1.658   4.747 -0.2338  1.4375  0.1038
 9121SOL    HW228184   4.793   1.588   4.887 -0.8373  0.1139 -0.7376
 9122SOL     OW28185   0.946   5.815   3.087  0.1951  0.0441 -0.4826
 9122SOL    HW128186   0.988   5.855   3.168  0.6388  1.2720 -1.2918
 9122SOL    HW228187   0.850   5.840   3.083 -0.6927 -2.5479  1.2299
 9123SOL     OW28188   5.074   3.045   3.873 -0.2661 -0.5448 -0.0964
 9123SOL    HW128189   5.154   3.007   3.920  0.3030  1.5185  0.7258
 9123SOL    HW228190   5.022   2.972   3.831  1.0635 -2.1377  0.9138
 9124SOL     OW28191   0.004   1.120   2.386  0.2387  0.0812 -0.1309
 9124SOL    HW128192  -0.095   1.122   2.375  0.2969  0.3121 -0.6165
 9124SOL    HW228193   0.032   1.187   2.455  0.0700  0.1035 -0.0850
 9125SOL     OW28194   3.494   4.244   2.493  0.1569  0.8685  0.3469
 9125SOL    HW128195   3.583   4.270   2.457  1.0426 -0.3901  1.5458
 9125SOL    HW228196   3.427   4.242   2.419  1.1734  1.5625 -0.6151
 9126SOL     OW28197   6.898   1.147   3.559 -0.1253 -0.3101  0.3747
 9126SOL    HW128198   6.868   1.051   3.564 -1.3211 -0.1988 -2.4625
 9126SOL    HW228199   6.821   1.205   3.533  1.1768  1.0070 -0.7336
 9127SOL     OW28200   5.660   0.381   0.662 -0.1409  0.2002 -0.1184
 9127SOL    HW128201   5.755   0.398   0.688 -0.0416  1.0751 -0.9856
 9127SOL    HW228202   5.612   0.337   0.739  0.7338  0.5242  0.6396
 9128SOL     OW28203   1.799   1.554   0.945  0.6234  0.1548 -0.0604
 9128SOL    HW128204   1.701   1.547   0.927  0.3966  0.1947  1.1224
 9128SOL    HW228205   1.849   1.536   0.861 -0.4067  0.7027 -0.8209
 9129SOL     OW28206   0.527   3.208   6.242  0.2899  0.5337 -0.0376
 9129SOL    HW128207   0.527   3.277   6.314  1.6709  0.2211  0.2815
 9129SOL    HW228208   0.462   3.136   6.264  0.7829  0.3836  0.9559
 9130SOL     OW28209   3.870   3.480   4.517  0.5304  0.4538  0.1285
 9130SOL    HW128210   3.933   3.546   4.558  0.5514 -0.0990  1.0029
 9130SOL    HW228211   3.813   3.526   4.449  0.7382  1.3110  0.5194
 9131SOL     OW28212   2.918   1.395   1.544  0.2740  0.0453  0.6712
 9131SOL    HW128213   2.977   1.321   1.513 -0.5761 -0.1428 -0.5902
 9131SOL    HW228214   2.826   1.360   1.559 -0.6321  1.1614 -1.8300
 9132SOL     OW28215   4.780   0.940   3.782  0.1696  0.7659 -0.4225
 9132SOL    HW128216   4.880   0.940   3.779  0.1804  1.4705 -0.2165
 9132SOL    HW228217   4.744   0.945   3.689  0.3488  2.6244 -0.4215
 9133SOL     OW28218   4.051   3.614   5.488 -0.2046  0.2528 -0.3821
 9133SOL    HW128219   4.117   3.607   5.562 -1.0072  0.0094  0.3222
 9133SOL    HW228220   4.045   3.708   5.456 -1.9978  1.0144  1.8953
 9134SOL     OW28221   2.986   2.340   6.146 -0.1892 -0.1969  0.1899
 9134SOL    HW128222   2.969   2.394   6.228  1.8081  0.3965  0.2562
 9134SOL    HW228223   2.936   2.253   6.152 -0.8376  0.2490  1.5601
 9135SOL     OW28224   0.701   6.264   5.815  0.6552  0.5396  0.3749
 9135SOL    HW128225   0.758   6.195   5.770 -1.5855 -1.5121  0.4787
 9135SOL    HW228226   0.645   6.221   5.885 -1.8949  2.1949 -0.5131
 9136SOL     OW28227   2.077   0.423   0.372  0.0123 -0.1513  0.0761
 9136SOL    HW128228   2.008   0.486   0.335 -0.6605 -0.3921  0.8814
 9136SOL    HW228229   2.111   0.458   0.459 -0.4887 -0.9675  0.6164
 9137SOL     OW28230   2.280   0.349   5.536  0.1042  0.3604 -0.4173
 9137SOL    HW128231   2.182   0.337   5.522  0.0652  0.1724  0.0042
 9137SOL    HW228232   2.311   0.430   5.486  0.4879 -1.6699 -3.7737
 9138SOL     OW28233   5.995   1.302   3.057  0.1338  0.1266  0.2027
 9138SOL    HW128234   5.999   1.366   3.133 -1.6479 -0.0255  0.4662
 9138SOL    HW228235   5.966   1.212   3.090  2.7405 -0.9491 -0.1252
 9139SOL     OW28236   4.937   1.820   2.601  0.6361 -0.3073 -0.0202
 9139SOL    HW128237   5.007   1.887   2.625  0.1703  0.7998 -1.6067
 9139SOL    HW228238   4.850   1.847   2.643  0.5625 -0.2189 -0.2311
 9140SOL     OW28239   1.939   6.175   5.419 -0.0135  0.8692  0.3025
 9140SOL    HW128240   1.909   6.220   5.335  0.2187  2.2504  0.9456
 9140SOL    HW228241   2.037   6.187   5.431  0.9118 -3.2497 -1.5646
 9141SOL     OW28242   4.096   0.633   6.283 -0.3854 -0.0914  0.0923
 9141SOL    HW128243   4.050   0.587   6.358 -0.6391  0.9253  0.5794
 9141SOL    HW228244   4.170   0.691   6.318 -0.2996  0.1575 -0.4717
 9142SOL     OW28245   2.285   6.002   6.737  0.1207  0.3676  0.3634
 9142SOL    HW128246   2.284   6.003   6.837  1.2809 -1.5732  0.4337
 9142SOL    HW228247   2.209   5.947   6.703  0.0323  0.6017  0.1674
 9143SOL     OW28248   3.082   3.545   3.338  0.2541 -0.1801  0.7853
 9143SOL    HW128249   3.154   3.477   3.327  1.0392  0.7113  0.2383
 9143SOL    HW228250   3.109   3.612   3.407 -1.5918 -1.7546  3.1866
 9144SOL     OW28251   3.182   0.379   5.359  0.5036  0.5880 -0.2790
 9144SOL    HW128252   3.235   0.393   5.443  0.2667 -1.1007  0.1924
 9144SOL    HW228253   3.100   0.435   5.361  0.0066 -0.1529  1.0917
 9145SOL     OW28254   2.545   5.848   2.643  0.1725  0.1991  0.0952
 9145SOL    HW128255   2.528   5.877   2.549 -1.8261 -0.5688  0.1632
 9145SOL    HW228256   2.622   5.784   2.645  0.9179  1.0329 -0.8446
 9146SOL     OW28257   7.019   0.137   1.126 -0.3640 -0.2082 -0.0505
 9146SOL    HW128258   6.935   0.090   1.153  1.0682 -1.7385  2.0285
 9146SOL    HW228259   7.079   0.074   1.078  0.1616  0.4794 -0.3127
 9147SOL     OW28260   3.563   2.430   0.116 -0.0400  0.1348  0.1991
 9147SOL    HW128261   3.657   2.401   0.135  0.1243 -0.6644 -1.5429
 9147SOL    HW228262   3.507   2.349   0.098 -0.2326  0.6830 -2.0528
 9148SOL     OW28263   3.020   3.257   2.940  0.0420  0.3212  0.5961
 9148SOL    HW128264   3.035   3.158   2.935 -0.4598  0.3102 -2.1021
 9148SOL    HW228265   3.089   3.304   2.884  0.1987  1.5144  1.7348
 9149SOL     OW28266   6.820   6.599   4.008 -0.3977  0.1726  0.3879
 9149SOL    HW128267   6.863   6.520   3.964 -1.1727 -0.0272 -0.0437
 9149SOL    HW228268   6.890   6.657   4.050  0.7050  1.5350 -2.9482
 9150SOL     OW28269   6.873   4.640   5.720  0.6520  0.2225  0.1609
 9150SOL    HW128270   6.815   4.650   5.801  0.9312 -0.1088  0.4045
 9150SOL    HW228271   6.843   4.559   5.668  0.2752  0.6097 -0.2324
 9151SOL     OW28272   2.291   5.209   2.362 -0.3012  0.3945  0.2220
 9151SOL    HW128273   2.304   5.174   2.454  0.5880 -0.2961 -0.1426
 9151SOL    HW228274   2.307   5.308   2.361 -0.4549  0.4273  0.8289
 9152SOL     OW28275   4.783   3.577   2.136 -0.4980 -0.1293 -0.5387
 9152SOL    HW128276   4.764   3.566   2.233  1.2739  0.8318 -0.0407
 9152SOL    HW228277   4.789   3.674   2.113  0.8214 -0.3441 -1.2083
 9153SOL     OW28278   2.976   0.029   4.994 -0.1620 -1.0353 -0.1097
 9153SOL    HW128279   2.984   0.076   5.083  1.4037 -0.1818 -0.6568
 9153SOL    HW228280   2.964   0.097   4.922  2.2959 -1.4268 -0.9457
 9154SOL     OW28281   1.976   0.636   4.723  0.0611  0.5942  0.2484
 9154SOL    HW128282   2.019   0.553   4.758  0.6503  1.3347  1.3587
 9154SOL    HW228283   1.950   0.623   4.628 -0.4523 -1.0887  0.5864
 9155SOL     OW28284   4.798   5.566   0.905  0.0650 -0.5149  0.3116
 9155SOL    HW128285   4.717   5.612   0.869  0.1799 -0.5328  0.0110
 9155SOL    HW228286   4.867   5.558   0.833  0.2713 -0.6429  0.5175
 9156SOL     OW28287   6.511   4.768   4.467  0.7266  0.0665  0.0141
 9156SOL    HW128288   6.451   4.708   4.521  0.4098 -0.0454 -0.4595
 9156SOL    HW228289   6.487   4.863   4.485  1.7643  0.1095  1.3969
 9157SOL     OW28290   0.681   4.544   2.477 -0.2270 -0.2872 -0.0408
 9157SOL    HW128291   0.761   4.490   2.451  0.9521  1.7968 -1.0040
 9157SOL    HW228292   0.711   4.625   2.528 -1.9933 -0.8491  2.0340
 9158SOL     OW28293   2.920   5.870   5.320 -0.3484  0.0764  0.4441
 9158SOL    HW128294   2.898   5.790   5.376  2.0841 -2.7604 -2.2596
 9158SOL    HW228295   3.010   5.904   5.346  1.6549 -2.4114 -2.5553
 9159SOL     OW28296   1.889   2.270   2.373  0.2587  0.0682  0.0054
 9159SOL    HW128297   1.892   2.278   2.273 -0.0346  1.1829  0.0692
 9159SOL    HW228298   1.839   2.348   2.411  0.5724 -0.2179  1.0397
 9160SOL     OW28299   3.196   3.021   0.343 -0.7104 -0.2806 -0.1362
 9160SOL    HW128300   3.247   2.941   0.312  2.1589  1.0119  0.9784
 9160SOL    HW228301   3.129   2.993   0.412 -1.6283 -2.0244 -1.6479
 9161SOL     OW28302   2.948   5.881   4.115 -0.1387  0.0320  0.1431
 9161SOL    HW128303   2.891   5.822   4.173 -1.3169  0.0546 -0.9470
 9161SOL    HW228304   3.036   5.837   4.098 -0.7944 -1.2001 -0.2054
 9162SOL     OW28305   1.880   2.491   5.023 -0.0368  0.1695 -0.2021
 9162SOL    HW128306   1.786   2.509   4.996  0.3373 -1.3447 -2.8911
 9162SOL    HW228307   1.940   2.561   4.983  0.1347  0.2938  0.2668
 9163SOL     OW28308   3.579   6.304   6.288  0.5226  0.8687 -0.0401
 9163SOL    HW128309   3.490   6.339   6.258  0.4191  0.3204 -0.3792
 9163SOL    HW228310   3.642   6.381   6.302  0.2632  1.1991 -0.6705
 9164SOL     OW28311   3.143   4.397   0.318 -0.4486  0.3569 -0.3499
 9164SOL    HW128312   3.092   4.482   0.329 -2.0435 -0.3540 -1.8112
 9164SOL    HW228313   3.105   4.344   0.242  1.1927 -1.1764 -0.1893
 9165SOL     OW28314   6.788   1.347   0.960 -0.5207 -0.2629 -0.4020
 9165SOL    HW128315   6.731   1.382   1.034 -1.3556 -2.1332 -0.0990
 9165SOL    HW228316   6.752   1.379   0.872 -0.4383  0.6925 -0.1072
 9166SOL     OW28317   4.685   0.143   6.398  0.5049  0.1644  0.6847
 9166SOL    HW128318   4.616   0.079   6.432  0.2765  0.3341  0.5424
 9166SOL    HW228319   4.688   0.138   6.298 -0.4284  1.3242  0.5907
 9167SOL     OW28320   1.345   0.544   6.507 -0.4985  0.6995  0.2719
 9167SOL    HW128321   1.397   0.621   6.472 -0.5940  0.5141 -0.2764
 9167SOL    HW228322   1.385   0.458   6.473 -0.1701  0.4889  1.1696
 9168SOL     OW28323   2.724   4.962   6.024  0.4012 -0.0114  0.7001
 9168SOL    HW128324   2.710   5.032   6.094 -1.0325  0.1430  0.2999
 9168SOL    HW228325   2.654   4.891   6.034  0.5107 -0.2565 -0.2431
 9169SOL     OW28326   0.696   0.642   3.173  0.2687  0.1967  0.1475
 9169SOL    HW128327   0.602   0.638   3.140  0.1214  0.4611  0.5431
 9169SOL    HW228328   0.741   0.724   3.137  0.1310  0.4454  0.5410
 9170SOL     OW28329   5.632   5.379   3.518 -0.2504  0.3176 -0.0894
 9170SOL    HW128330   5.590   5.470   3.526  0.3369  0.4730  1.9723
 9170SOL    HW228331   5.730   5.389   3.499 -0.2216  0.0983 -0.0643
 9171SOL     OW28332   0.027   3.087   0.050  0.1789  0.3954  0.7008
 9171SOL    HW128333  -0.034   3.117  -0.024  1.3303  0.2006 -0.3027
 9171SOL    HW228334   0.105   3.149   0.056  0.3909  0.0743  1.3370
 9172SOL     OW28335   4.819   4.407   4.757  0.3366 -0.0185 -0.2480
 9172SOL    HW128336   4.767   4.448   4.833 -2.7728 -1.6324 -1.3443
 9172SOL    HW228337   4.913   4.442   4.759 -0.0874  1.3631  3.2291
 9173SOL     OW28338   4.922   0.163   0.765  0.1968  0.3060 -0.1356
 9173SOL    HW128339   4.924   0.246   0.821  0.1703  0.9258 -1.0265
 9173SOL    HW228340   4.843   0.107   0.792  1.1561 -0.2881  1.6160
 9174SOL     OW28341   2.259   0.415   0.166  0.4804 -0.4077 -0.3984
 9174SOL    HW128342   2.188   0.416   0.096  0.9381  1.7351 -0.8803
 9174SOL    HW228343   2.217   0.431   0.256  0.2176 -0.3449 -0.5313
 9175SOL     OW28344   4.846   0.666   0.774  0.3770  0.7271  0.3996
 9175SOL    HW128345   4.906   0.743   0.752 -2.0286  2.4224 -0.7186
 9175SOL    HW228346   4.784   0.692   0.848  0.1194 -0.4698  0.6236
 9176SOL     OW28347   3.945   1.803   3.770  0.5063  0.2149 -0.3477
 9176SOL    HW128348   4.038   1.787   3.802  0.0234 -1.3992  0.3243
 9176SOL    HW228349   3.908   1.886   3.813  1.3099  0.3526  0.0897
 9177SOL     OW28350   5.545   5.661   1.269  0.4285  0.1286 -0.0803
 9177SOL    HW128351   5.496   5.657   1.356  0.1871  1.1510 -0.1476
 9177SOL    HW228352   5.511   5.590   1.207 -0.2995  0.2194  0.2126
 9178SOL     OW28353   4.966   6.560   5.174  0.0871  0.6313 -0.2145
 9178SOL    HW128354   4.884   6.505   5.192 -0.3330  0.6129 -1.9938
 9178SOL    HW228355   4.992   6.608   5.257 -0.8593 -0.5048  0.7859
 9179SOL     OW28356   1.343   3.642   2.260  0.0220 -0.1690  0.2077
 9179SOL    HW128357   1.437   3.610   2.271 -0.1944 -0.5859  0.9014
 9179SOL    HW228358   1.343   3.725   2.203  0.7320 -0.5381 -0.3529
 9180SOL     OW28359   0.181   6.723   3.075 -0.1612 -0.1326  0.4230
 9180SOL    HW128360   0.104   6.695   3.133 -0.1298  1.5159  1.3178
 9180SOL    HW228361   0.149   6.788   3.006  0.4787  0.8628  1.0459
 9181SOL     OW28362   1.450   0.782   6.404 -0.2295  0.5988  0.1842
 9181SOL    HW128363   1.533   0.728   6.421 -0.2450  0.2355 -0.8446
 9181SOL    HW228364   1.455   0.868   6.455  0.4194  0.2336  0.7622
 9182SOL     OW28365   1.034   4.081   2.712  0.4284 -0.5671  0.0364
 9182SOL    HW128366   1.022   4.014   2.785  0.0374 -0.5083  0.0320
 9182SOL    HW228367   0.995   4.169   2.741  1.6099 -0.1283  0.3408
 9183SOL     OW28368   0.325   6.685   5.153 -0.3482 -0.4051 -0.9663
 9183SOL    HW128369   0.338   6.586   5.158 -0.2741 -0.4215 -1.3665
 9183SOL    HW228370   0.413   6.731   5.168 -0.5634 -0.3468  0.3118
 9184SOL     OW28371   5.818   1.659   0.634 -0.3226 -0.0272  0.3439
 9184SOL    HW128372   5.845   1.676   0.539  0.2279 -0.8777  0.3337
 9184SOL    HW228373   5.736   1.602   0.636 -0.6805  0.4820  0.3844
 9185SOL     OW28374   1.909   2.367   6.905 -0.3396  0.4692 -0.0605
 9185SOL    HW128375   1.849   2.442   6.934 -1.3545 -0.5841  0.6818
 9185SOL    HW228376   1.997   2.404   6.876 -0.9222  1.9691 -0.0454
 9186SOL     OW28377   5.394   6.954   3.279 -0.1239  0.4528  0.3163
 9186SOL    HW128378   5.302   6.947   3.240 -0.4283 -1.7855  1.2818
 9186SOL    HW228379   5.462   6.931   3.209 -0.6303 -2.9569  0.7690
 9187SOL     OW28380   6.448   0.026   1.249  0.4677  0.0775  0.0295
 9187SOL    HW128381   6.525   0.013   1.186  0.0606  2.4049 -1.0556
 9187SOL    HW228382   6.461  -0.033   1.329  2.2298 -1.1780 -1.0967
 9188SOL     OW28383   1.590   2.669   4.534  0.1870 -0.6110  0.6266
 9188SOL    HW128384   1.518   2.611   4.572  0.4042 -1.3277 -0.0327
 9188SOL    HW228385   1.643   2.709   4.608 -1.0019  0.0861  1.1399
 9189SOL     OW28386   6.105   4.901   2.472 -0.0798  0.1563  0.1823
 9189SOL    HW128387   6.143   4.993   2.473 -0.0712  0.1789 -1.2354
 9189SOL    HW228388   6.017   4.901   2.425  0.6558 -0.8164 -1.2803
 9190SOL     OW28389   7.005   4.837   2.850 -0.3251 -0.6220  0.1039
 9190SOL    HW128390   7.002   4.899   2.771  0.3075  0.3834  0.8357
 9190SOL    HW228391   6.913   4.801   2.868 -0.6515 -0.1442 -0.5606
 9191SOL     OW28392   5.664   0.177   0.913  0.1646 -0.1433  0.1519
 9191SOL    HW128393   5.589   0.116   0.940  0.3256 -0.5582 -0.3045
 9191SOL    HW228394   5.710   0.212   0.994 -2.0298  2.0885  0.5589
 9192SOL     OW28395   0.952   0.926   4.436  0.0366 -0.0318 -0.6874
 9192SOL    HW128396   1.015   0.867   4.386 -0.4665 -1.3926  0.2305
 9192SOL    HW228397   0.940   0.891   4.529 -0.7920  1.1566 -0.3201
 9193SOL     OW28398   6.925   3.376   0.000  0.0400  0.6793  0.3641
 9193SOL    HW128399   6.909   3.308  -0.072  0.1665  1.5051 -0.4532
 9193SOL    HW228400   7.016   3.362   0.039 -0.1151  0.0868  0.5029
 9194SOL     OW28401   1.188   4.203   4.103  0.1528 -0.2506 -0.1808
 9194SOL    HW128402   1.180   4.156   4.191  1.2454 -0.3862 -0.1444
 9194SOL    HW228403   1.279   4.243   4.093 -1.2998  3.7799  0.7056
 9195SOL     OW28404   4.330   5.713   3.353  0.5280  0.6174  0.6386
 9195SOL    HW128405   4.333   5.691   3.450  0.3950  1.0196  0.7343
 9195SOL    HW228406   4.236   5.704   3.320  0.6874 -0.2273  0.3780
 9196SOL     OW28407   2.928   6.610   6.661  0.7377 -0.3527 -0.0219
 9196SOL    HW128408   2.977   6.569   6.738  0.7362 -0.5148 -0.1023
 9196SOL    HW228409   2.843   6.652   6.694  0.2327 -1.2979 -0.0788
 9197SOL     OW28410   2.328   3.861   0.409 -0.1672  0.3746 -0.1845
 9197SOL    HW128411   2.416   3.907   0.422 -0.2094  0.1716  0.9722
 9197SOL    HW228412   2.335   3.766   0.440 -1.5145  1.1030  2.7261
 9198SOL     OW28413   6.889   2.389   5.630  0.5921 -0.8196  0.0219
 9198SOL    HW128414   6.868   2.487   5.623 -0.3371 -0.8661  1.7007
 9198SOL    HW228415   6.929   2.358   5.544  0.3420  0.8989 -0.7633
 9199SOL     OW28416   5.960   3.285   1.827 -0.8135  0.4317 -0.5086
 9199SOL    HW128417   5.938   3.210   1.766  0.8637 -0.0127 -0.6190
 9199SOL    HW228418   6.014   3.354   1.778  2.5879 -1.0051  0.8787
 9200SOL     OW28419   0.144   4.582   1.111 -0.4517 -1.1295 -0.4922
 9200SOL    HW128420   0.170   4.555   1.204  1.3090 -2.0636 -1.2122
 9200SOL    HW228421   0.148   4.681   1.103 -1.5653 -0.9583  0.6633
 9201SOL     OW28422   6.804   6.096   2.431  0.6573  0.1473 -0.3376
 9201SOL    HW128423   6.867   6.150   2.487  0.0852 -0.9878  1.4779
 9201SOL    HW228424   6.788   6.143   2.344  2.7886  1.2195 -0.2261
 9202SOL     OW28425   0.703   1.073   7.008  0.0003  0.2914  0.0435
 9202SOL    HW128426   0.690   0.990   7.064 -2.0483 -0.3278 -1.2547
 9202SOL    HW228427   0.687   1.153   7.065 -2.0916 -0.3208  0.4024
 9203SOL     OW28428   6.843   1.816   2.163 -0.3445 -0.6764 -0.5328
 9203SOL    HW128429   6.910   1.891   2.162  0.5731 -1.4403  0.4092
 9203SOL    HW228430   6.755   1.850   2.196  0.0344  0.0193 -0.1891
 9204SOL     OW28431   0.594   3.332   3.488 -0.7453 -0.0512  0.1699
 9204SOL    HW128432   0.504   3.349   3.447 -0.5859 -0.0642 -0.1809
 9204SOL    HW228433   0.625   3.240   3.465 -0.0814  0.3964 -0.7453
 9205SOL     OW28434   5.294   3.543   5.399 -0.1259 -0.4519  0.0877
 9205SOL    HW128435   5.282   3.511   5.305  0.6850 -1.1148  0.1962
 9205SOL    HW228436   5.205   3.570   5.437 -0.5516 -0.7704 -0.6598
 9206SOL     OW28437   3.801   3.617   6.441  0.3639  0.5874 -0.6048
 9206SOL    HW128438   3.859   3.569   6.507 -0.3590 -1.6850 -1.5321
 9206SOL    HW228439   3.853   3.636   6.358  0.1404 -0.3458 -0.9681
 9207SOL     OW28440   0.727   6.636   3.756 -0.5610 -0.1708 -0.2171
 9207SOL    HW128441   0.746   6.611   3.851 -2.6967 -1.4729 -0.0492
 9207SOL    HW228442   0.788   6.584   3.695 -1.1357 -1.5967  0.3669
 9208SOL     OW28443   2.707   0.955   3.054 -0.1088  0.9553 -0.1138
 9208SOL    HW128444   2.712   0.976   3.152 -1.2187 -1.5784  0.5560
 9208SOL    HW228445   2.626   0.998   3.015 -0.9157  0.1468  0.6260
 9209SOL     OW28446   6.634   5.723   5.116 -0.2172  0.1732  0.1556
 9209SOL    HW128447   6.683   5.651   5.069  0.4116  1.0416 -0.5522
 9209SOL    HW228448   6.682   5.748   5.200 -0.1598  0.1054  0.1429
 9210SOL     OW28449   2.730   7.011   2.764 -0.3497 -0.1426  0.0111
 9210SOL    HW128450   2.723   7.109   2.782  0.4504 -0.3982  1.6627
 9210SOL    HW228451   2.713   6.994   2.667 -1.9597  1.4295 -0.0341
 9211SOL     OW28452   5.735   2.817   3.881  0.1585  0.1007 -0.1613
 9211SOL    HW128453   5.830   2.844   3.897  0.7448 -1.3096 -1.0113
 9211SOL    HW228454   5.675   2.866   3.944  1.4520  0.9548  0.4529
 9212SOL     OW28455   0.300   6.148   6.310 -0.3733  0.5255  0.0288
 9212SOL    HW128456   0.385   6.118   6.265 -0.5709 -0.3087  0.1912
 9212SOL    HW228457   0.319   6.172   6.405  0.2471  3.2608 -0.6912
 9213SOL     OW28458   5.077   5.481   4.260  0.3808  0.1610  0.3287
 9213SOL    HW128459   5.162   5.431   4.246  0.8591  0.7744  0.9413
 9213SOL    HW228460   5.097   5.576   4.285 -0.4096 -0.1132  2.2948
 9214SOL     OW28461   0.222   1.776   5.367 -0.2566  0.0442  0.4726
 9214SOL    HW128462   0.250   1.828   5.287 -0.4195  1.0271  1.0325
 9214SOL    HW228463   0.260   1.819   5.450  0.2728 -1.1944  0.9080
 9215SOL     OW28464   6.568   6.101   5.485 -0.5555 -0.3527  0.0758
 9215SOL    HW128465   6.666   6.117   5.483 -0.4973 -0.7860 -0.9330
 9215SOL    HW228466   6.550   6.007   5.515 -0.6993 -0.0712  0.9055
 9216SOL     OW28467   1.200   3.513   1.589 -0.2364 -0.1417  0.4030
 9216SOL    HW128468   1.293   3.509   1.553  0.1199  0.4592  1.2274
 9216SOL    HW228469   1.185   3.601   1.635 -0.5108 -1.0771  2.1682
 9217SOL     OW28470   1.617   4.017   5.950 -0.3267 -0.3174  0.2771
 9217SOL    HW128471   1.575   3.971   5.872 -0.5789  0.1980  0.1043
 9217SOL    HW228472   1.561   4.004   6.032 -0.3585 -0.3792  0.2475
 9218SOL     OW28473   5.174   3.071   6.744  0.1030 -0.0837  0.1395
 9218SOL    HW128474   5.190   3.154   6.691  0.0379 -0.3346 -0.2861
 9218SOL    HW228475   5.243   3.062   6.815 -0.3852  0.7795  0.7425
 9219SOL     OW28476   5.246   4.681   5.784 -0.5044  0.0781  0.5170
 9219SOL    HW128477   5.185   4.650   5.711  0.4179 -1.5108  0.3490
 9219SOL    HW228478   5.341   4.679   5.751 -0.2708  1.8589  0.9675
 9220SOL     OW28479   2.681   6.434   0.518 -0.7150  0.1760  0.3917
 9220SOL    HW128480   2.718   6.484   0.596 -1.6636  0.4035  0.7024
 9220SOL    HW228481   2.751   6.427   0.447 -0.2870  1.1608  0.7033
 9221SOL     OW28482   0.681   5.938   1.544  0.5308 -0.4192 -0.1967
 9221SOL    HW128483   0.699   6.036   1.550  0.9185 -0.5468  1.1422
 9221SOL    HW228484   0.768   5.888   1.542  0.3341 -0.7448 -0.7609
 9222SOL     OW28485   2.839   1.584   2.437  0.0193  0.1636 -0.5643
 9222SOL    HW128486   2.899   1.540   2.370  1.6911 -0.4290  1.2136
 9222SOL    HW228487   2.772   1.518   2.470  1.6240 -0.7501  1.0610
 9223SOL     OW28488   1.610   6.844   5.320 -0.2495  0.5828 -0.1848
 9223SOL    HW128489   1.514   6.853   5.346 -0.3367 -2.3535  0.8780
 9223SOL    HW228490   1.668   6.879   5.394 -0.5284 -0.7134  0.6792
 9224SOL     OW28491   6.619   3.369   3.092  0.1988  0.3742 -0.2858
 9224SOL    HW128492   6.549   3.324   3.037 -0.4595  0.9093  0.1042
 9224SOL    HW228493   6.602   3.468   3.093  0.7064  0.4621  0.1712
 9225SOL     OW28494   2.887   4.102   0.723 -0.0383  0.4591 -0.1107
 9225SOL    HW128495   2.920   4.136   0.634 -0.0081 -0.6496 -0.5409
 9225SOL    HW228496   2.855   4.178   0.778  1.0528  1.3018 -0.6191
 9226SOL     OW28497   5.005   4.514   3.047 -0.0738 -0.0723  0.2862
 9226SOL    HW128498   4.990   4.496   2.950  0.1610  0.3171  0.1785
 9226SOL    HW228499   4.933   4.574   3.081 -0.0524 -0.0605  0.3134
 9227SOL     OW28500   1.542   1.471   4.990 -0.3827 -0.4443  0.0783
 9227SOL    HW128501   1.622   1.510   5.036 -0.3589 -0.9704  0.4744
 9227SOL    HW228502   1.460   1.492   5.042 -0.5248  0.1839 -0.3808
 9228SOL     OW28503   4.007   0.128   2.060 -0.0919 -0.5359 -0.4366
 9228SOL    HW128504   3.993   0.101   1.964 -1.5059 -3.0093  0.3784
 9228SOL    HW228505   4.017   0.227   2.065  0.3217 -0.3422 -3.1553
 9229SOL     OW28506   0.271   1.613   3.581  0.1233 -0.1992 -0.2162
 9229SOL    HW128507   0.266   1.578   3.487 -0.0348 -0.3901 -0.1365
 9229SOL    HW228508   0.193   1.578   3.634 -0.4291  0.8247 -0.3244
 9230SOL     OW28509   6.085   3.804   4.360  0.0740 -0.1403  0.3975
 9230SOL    HW128510   5.986   3.787   4.362 -0.0071  0.3307  0.4234
 9230SOL    HW228511   6.129   3.750   4.432 -0.0509 -1.0304 -0.1728
 9231SOL     OW28512   3.372   2.206   0.981 -0.3021  0.2018  0.7109
 9231SOL    HW128513   3.358   2.288   0.927 -1.2971 -1.9081 -2.5345
 9231SOL    HW228514   3.454   2.158   0.948 -0.9213 -1.1439  1.0411
 9232SOL     OW28515   2.630   0.283   3.325 -0.0520 -0.6378  0.5552
 9232SOL    HW128516   2.546   0.260   3.374 -0.5511  0.4786  0.2596
 9232SOL    HW228517   2.607   0.326   3.238  0.8165 -0.1152  0.5602
 9233SOL     OW28518   3.704   5.004   3.791 -0.0362 -0.1210  0.1704
 9233SOL    HW128519   3.725   5.086   3.844  1.0861  0.0230 -0.4598
 9233SOL    HW228520   3.733   5.017   3.697 -0.4135 -1.0243 -0.0824
 9234SOL     OW28521   3.368   6.123   4.389  0.1900 -0.4276 -0.5420
 9234SOL    HW128522   3.297   6.112   4.319 -0.0283 -0.8875 -0.2485
 9234SOL    HW228523   3.427   6.200   4.364 -1.7886  1.5108  0.3566
 9235SOL     OW28524   2.038   2.069   2.456  0.6978 -0.3546 -0.0042
 9235SOL    HW128525   2.063   2.024   2.370  0.5861  0.1195 -0.2923
 9235SOL    HW228526   1.973   2.144   2.437  2.3502  1.1968  0.2057
 9236SOL     OW28527   6.920   4.931   5.442 -0.1263 -0.4047  0.3310
 9236SOL    HW128528   6.898   4.957   5.349  0.5860 -0.7215  0.0676
 9236SOL    HW228529   6.950   4.835   5.444  1.5616  0.0861  0.5956
 9237SOL     OW28530   6.168   2.200   3.520 -0.0879  0.0913 -0.1331
 9237SOL    HW128531   6.183   2.193   3.421 -0.9907  0.8750 -0.3405
 9237SOL    HW228532   6.073   2.177   3.540  0.6576 -2.4916  0.8622
 9238SOL     OW28533   4.334   4.686   4.089 -0.5491 -0.1926  0.7259
 9238SOL    HW128534   4.279   4.636   4.022 -0.4067  0.6072 -0.0084
 9238SOL    HW228535   4.273   4.740   4.148 -0.5550  1.3647 -0.6340
 9239SOL     OW28536   4.983   2.748   5.297 -0.1130 -0.3636  0.1636
 9239SOL    HW128537   4.910   2.783   5.357 -0.5880  0.6743 -0.9992
 9239SOL    HW228538   5.029   2.825   5.252  2.1825 -0.9201  1.3646
 9240SOL     OW28539   1.593   3.409   5.104 -0.1537 -0.9654 -0.0480
 9240SOL    HW128540   1.499   3.376   5.102 -0.0863 -1.1830  0.3630
 9240SOL    HW228541   1.639   3.384   5.019 -0.2082 -1.6076  0.1101
 9241SOL     OW28542   6.798   0.877   0.848  0.0138  0.0047  0.0785
 9241SOL    HW128543   6.740   0.956   0.867  0.6586  0.5071 -0.0031
 9241SOL    HW228544   6.785   0.808   0.919 -0.3515  0.3037  0.3017
 9242SOL     OW28545   6.619   3.674   3.145 -0.6274 -0.2094  0.2889
 9242SOL    HW128546   6.671   3.743   3.095  0.7650  1.4914  3.8497
 9242SOL    HW228547   6.533   3.656   3.097 -0.2264  2.6519 -1.6927
 9243SOL     OW28548   3.075   1.187   3.771  1.2462  1.0730  0.1181
 9243SOL    HW128549   3.086   1.178   3.672  0.3160  1.0051  0.0173
 9243SOL    HW228550   2.989   1.145   3.799  1.7333  0.6422  1.0288
 9244SOL     OW28551   2.672   3.490   0.593 -0.7228 -0.3229 -0.0144
 9244SOL    HW128552   2.610   3.470   0.668  0.2789  2.7000  1.8500
 9244SOL    HW228553   2.626   3.548   0.525 -0.4488  0.5595  0.5333
 9245SOL     OW28554   1.351   4.251   6.282  0.0779 -0.9151 -0.6864
 9245SOL    HW128555   1.266   4.214   6.318  0.1771 -0.4361  0.0523
 9245SOL    HW228556   1.338   4.348   6.258  0.8620 -0.3399  1.0608
 9246SOL     OW28557   5.621   6.759   3.651  0.0307 -0.4410 -0.0008
 9246SOL    HW128558   5.588   6.794   3.739 -1.5966 -1.4992 -0.1533
 9246SOL    HW228559   5.545   6.756   3.586  0.3544 -3.1045 -0.3438
 9247SOL     OW28560   2.450   6.659   5.247  0.3889 -0.0482  0.3694
 9247SOL    HW128561   2.406   6.597   5.311 -1.6421  0.1281 -0.7915
 9247SOL    HW228562   2.385   6.685   5.175  2.1021  1.0284 -0.8616
 9248SOL     OW28563   5.834   2.688   6.678 -0.1647 -0.1401  0.2482
 9248SOL    HW128564   5.872   2.740   6.602  0.6024  1.2151  1.4858
 9248SOL    HW228565   5.739   2.717   6.694  0.5122  1.5668  1.4538
 9249SOL     OW28566   3.889   5.121   4.937  0.3030 -0.1871  0.0487
 9249SOL    HW128567   3.800   5.084   4.910 -1.3824  1.7146  2.4973
 9249SOL    HW228568   3.904   5.102   5.034  1.5310  1.4041  0.2204
 9250SOL     OW28569   1.932   6.401   6.963 -0.2960  0.3413  0.4741
 9250SOL    HW128570   1.848   6.445   6.929 -0.7968 -0.1470  1.0521
 9250SOL    HW228571   1.985   6.467   7.016 -0.4920  0.5649  0.3941
 9251SOL     OW28572   4.026   6.491   4.473 -0.2597  0.1746 -0.2291
 9251SOL    HW128573   4.010   6.497   4.572 -1.0214  2.3454 -0.4188
 9251SOL    HW228574   4.104   6.431   4.455 -2.2381 -3.1334  1.4091
 9252SOL     OW28575   2.807   5.336   3.228  0.2220  0.2639  0.8821
 9252SOL    HW128576   2.857   5.329   3.314  0.8821  2.8959  0.7922
 9252SOL    HW228577   2.798   5.433   3.202 -1.4137 -0.3620 -1.1667
 9253SOL     OW28578   0.649   4.469   1.516  0.8070  0.0177  0.1759
 9253SOL    HW128579   0.615   4.490   1.608  2.4662  1.8411  0.4259
 9253SOL    HW228580   0.585   4.407   1.471 -1.1566  0.7719  1.7660
 9254SOL     OW28581   0.401   5.337   3.662 -0.1894  0.1299  0.2286
 9254SOL    HW128582   0.478   5.275   3.667  1.9116  2.5630  0.0489
 9254SOL    HW228583   0.394   5.390   3.746 -3.1424 -1.5153  1.1954
 9255SOL     OW28584   6.243   5.600   2.006  0.0844  0.0829 -0.0791
 9255SOL    HW128585   6.306   5.561   2.074 -1.4897 -0.7521  0.9370
 9255SOL    HW228586   6.189   5.527   1.965  0.2712  0.7157 -1.5010
 9256SOL     OW28587   3.497   3.814   6.182  0.5423  0.3175 -0.2667
 9256SOL    HW128588   3.491   3.719   6.210 -1.5593  0.7866  1.1009
 9256SOL    HW228589   3.416   3.838   6.127  1.9552  0.8642 -2.2533
 9257SOL     OW28590   0.106   5.378   1.575  0.0582 -0.2817  0.3646
 9257SOL    HW128591   0.149   5.417   1.657  0.1046 -1.8688  1.1467
 9257SOL    HW228592   0.041   5.307   1.602 -0.2426 -0.5474 -0.9674
 9258SOL     OW28593   5.350   0.922   5.844  0.8110  0.4294 -0.4597
 9258SOL    HW128594   5.298   1.007   5.833 -0.7792 -0.5318 -0.5556
 9258SOL    HW228595   5.353   0.873   5.757 -0.5366 -0.8610  0.1902
 9259SOL     OW28596   0.831   0.268   2.462  0.0260  0.5316  0.3879
 9259SOL    HW128597   0.919   0.244   2.421  0.2194  1.1664  0.4314
 9259SOL    HW228598   0.844   0.293   2.558  0.0903  2.5133 -0.1009
 9260SOL     OW28599   5.700   1.202   6.757 -0.1273  0.0067  0.9165
 9260SOL    HW128600   5.797   1.187   6.778  0.2576 -0.3085 -0.8866
 9260SOL    HW228601   5.666   1.127   6.701 -1.0690  0.7225  0.4928
 9261SOL     OW28602   0.215   6.042   0.471  0.0471 -0.0832 -0.7014
 9261SOL    HW128603   0.198   6.114   0.403 -0.2736  1.7727  1.2481
 9261SOL    HW228604   0.245   6.084   0.557  0.0356 -2.3242  0.4552
 9262SOL     OW28605   2.017   5.895   1.623 -0.2148 -0.1711 -0.2799
 9262SOL    HW128606   2.057   5.829   1.685  0.4270  0.9912  0.5781
 9262SOL    HW228607   2.072   5.901   1.539  0.7117  0.4724  0.3454
 9263SOL     OW28608   5.481   3.962   4.734  0.2361 -0.3427 -0.2815
 9263SOL    HW128609   5.483   3.973   4.635 -0.0429  1.1952 -0.1352
 9263SOL    HW228610   5.567   3.921   4.765 -0.5486 -2.9498 -1.3474
 9264SOL     OW28611   4.759   3.524   1.746  0.0483 -0.2793 -0.0599
 9264SOL    HW128612   4.779   3.474   1.830  3.1579  2.1356  0.8590
 9264SOL    HW228613   4.771   3.464   1.667 -1.2680 -2.1736  1.1212
 9265SOL     OW28614   1.492   3.786   4.327  0.2606 -0.2756 -0.0122
 9265SOL    HW128615   1.511   3.714   4.261  0.1120  0.5305 -0.9752
 9265SOL    HW228616   1.570   3.797   4.389  1.8266  1.0447 -2.0522
 9266SOL     OW28617   0.648   6.789   4.817  0.0778  0.0258  0.1397
 9266SOL    HW128618   0.692   6.847   4.749 -0.3716  0.1795 -0.0223
 9266SOL    HW228619   0.703   6.788   4.900  1.6158 -1.6361 -0.8193
 9267SOL     OW28620   3.443   3.691   5.116 -0.0505 -0.5327  0.4350
 9267SOL    HW128621   3.521   3.643   5.157 -0.2110 -0.6865  0.5605
 9267SOL    HW228622   3.400   3.632   5.048  0.3547 -0.1963 -0.1277
 9268SOL     OW28623   5.639   6.975   4.424  0.5120 -0.0008  0.7298
 9268SOL    HW128624   5.642   7.075   4.429 -0.5009  0.0836 -0.4167
 9268SOL    HW228625   5.658   6.936   4.515  0.7482  1.2326  1.2214
 9269SOL     OW28626   0.441   3.954   5.991 -0.2669 -0.2691  0.1001
 9269SOL    HW128627   0.380   3.904   6.053  0.0478 -2.4065 -1.1698
 9269SOL    HW228628   0.503   4.011   6.044 -1.7431  0.0699  1.5592
 9270SOL     OW28629   6.473   6.515   0.699  0.0801  0.3596 -0.7923
 9270SOL    HW128630   6.463   6.452   0.775 -1.3763  1.6874  0.1830
 9270SOL    HW228631   6.412   6.488   0.625 -0.2264  0.3742 -0.5485
 9271SOL     OW28632   0.376   2.214   1.432 -0.1249 -0.0916 -0.7535
 9271SOL    HW128633   0.424   2.152   1.370  2.3116 -0.2188  1.1076
 9271SOL    HW228634   0.423   2.303   1.433 -2.2380  1.1313 -1.6750
 9272SOL     OW28635   5.080   3.692   2.753  0.3592  0.0824 -0.2209
 9272SOL    HW128636   5.016   3.616   2.743 -1.4941  1.3669  1.0390
 9272SOL    HW228637   5.133   3.703   2.669 -1.2830 -0.8547 -1.4466
 9273SOL     OW28638   1.379   2.959   1.472 -0.5269 -0.8162  0.5111
 9273SOL    HW128639   1.290   2.963   1.517 -0.1086  1.8673  1.2587
 9273SOL    HW228640   1.407   3.051   1.446  2.1372 -1.5707  0.4705
 9274SOL     OW28641   3.241   5.292   3.394 -0.0515 -0.2277  0.2622
 9274SOL    HW128642   3.299   5.365   3.358  0.8154 -2.3444 -3.0537
 9274SOL    HW228643   3.292   5.239   3.461 -0.1144  1.0789  1.4012
 9275SOL     OW28644   5.668   4.653   1.845  0.7612 -0.1813  0.1201
 9275SOL    HW128645   5.758   4.625   1.813  0.5541 -1.8339  0.8651
 9275SOL    HW228646   5.614   4.686   1.768  1.6240 -0.2139 -0.5082
 9276SOL     OW28647   6.084   3.940   1.003  0.1027  0.1198 -0.1189
 9276SOL    HW128648   6.114   3.998   1.079  0.2141 -0.6029  0.3976
 9276SOL    HW228649   6.079   3.845   1.034  1.7026 -0.4252 -1.4507
 9277SOL     OW28650   3.386   1.164   6.073 -0.0766  0.0503  0.3869
 9277SOL    HW128651   3.471   1.127   6.109 -0.0103 -0.0160  0.1685
 9277SOL    HW228652   3.360   1.246   6.124  0.9202  0.9384 -0.4965
 9278SOL     OW28653   1.238   1.757   0.328  0.0620  0.4235 -0.1386
 9278SOL    HW128654   1.163   1.700   0.363  1.0252  0.3885  2.0269
 9278SOL    HW228655   1.200   1.841   0.290 -1.2090 -0.5879 -1.2141
 9279SOL     OW28656   1.601   5.503   5.717 -0.0115 -0.3875 -0.1001
 9279SOL    HW128657   1.535   5.430   5.734  0.0239 -0.4502 -0.2362
 9279SOL    HW228658   1.654   5.483   5.635 -0.8009  0.3515 -0.8268
 9280SOL     OW28659   1.982   1.239   0.536 -0.6091  0.6236 -0.4775
 9280SOL    HW128660   1.993   1.314   0.471  1.4528  0.1512 -0.7246
 9280SOL    HW228661   2.057   1.239   0.602  0.1798 -1.9209 -1.2434
 9281SOL     OW28662   0.080   3.446   1.691  0.2106 -0.5817 -0.2580
 9281SOL    HW128663  -0.001   3.414   1.740  0.4462 -1.1014 -0.2547
 9281SOL    HW228664   0.086   3.400   1.602 -0.6252  0.9529 -1.1501
 9282SOL     OW28665   4.697   0.832   6.547  0.3805  0.1104  0.3628
 9282SOL    HW128666   4.728   0.737   6.544  1.5953  0.4662  0.9534
 9282SOL    HW228667   4.772   0.892   6.519 -0.5538  0.8761 -0.5658
 9283SOL     OW28668   6.401   1.791   2.052 -0.3860  0.4627 -0.2257
 9283SOL    HW128669   6.404   1.784   1.952  1.3120  0.1781 -0.1866
 9283SOL    HW228670   6.400   1.699   2.091 -0.7132  0.5756  0.0328
 9284SOL     OW28671   5.709   2.742   2.745  0.3740  0.2528 -0.4442
 9284SOL    HW128672   5.681   2.819   2.689  0.1146 -0.7722 -1.7661
 9284SOL    HW228673   5.712   2.659   2.689 -0.4279 -0.9124  1.1815
 9285SOL     OW28674   4.450   1.959   4.046  0.3983 -0.5174 -0.1707
 9285SOL    HW128675   4.547   1.949   4.023  0.7993 -0.1732  1.2396
 9285SOL    HW228676   4.438   1.945   4.144 -1.0650 -1.0029 -0.4012
 9286SOL     OW28677   1.023   0.479   4.779  0.1153  0.0373  0.5891
 9286SOL    HW128678   0.998   0.402   4.837 -0.2528 -1.4053 -1.3800
 9286SOL    HW228679   1.114   0.463   4.740  1.7759  2.4746  3.1066
 9287SOL     OW28680   3.688   5.447   5.715  0.7354  0.2881  0.0395
 9287SOL    HW128681   3.746   5.497   5.651  1.8144 -1.5639 -0.4897
 9287SOL    HW228682   3.732   5.360   5.740 -1.7765 -1.1771 -0.3554
 9288SOL     OW28683   6.134   4.874   2.974 -0.7546 -0.2132  0.3382
 9288SOL    HW128684   6.126   4.784   3.016 -0.8522  0.3268  1.5050
 9288SOL    HW228685   6.043   4.916   2.968 -0.6571 -0.0163  0.1869
 9289SOL     OW28686   3.839   1.979   0.216  0.1036 -0.1789  0.1839
 9289SOL    HW128687   3.837   1.999   0.118 -2.8338  2.3168  0.6374
 9289SOL    HW228688   3.887   2.052   0.265  0.8010 -0.9720  0.7075
 9290SOL     OW28689   2.507   0.134   2.570  0.8146  0.0979  0.4445
 9290SOL    HW128690   2.448   0.169   2.497  0.2661 -0.1817  0.7500
 9290SOL    HW228691   2.597   0.113   2.532  0.9889  1.3054  0.1362
 9291SOL     OW28692   2.020   6.667   4.001 -0.2003  0.0712  0.6217
 9291SOL    HW128693   1.986   6.584   4.045  0.9122 -0.8313 -0.1756
 9291SOL    HW228694   2.120   6.661   3.992 -0.0282  1.7964  1.1688
 9292SOL     OW28695   3.154   0.352   2.575  0.3248 -0.3314  0.2318
 9292SOL    HW128696   3.190   0.388   2.661  2.0633  0.5112 -0.7904
 9292SOL    HW228697   3.230   0.333   2.512 -0.8633 -1.3987 -0.9544
 9293SOL     OW28698   6.393   1.017   6.098  0.1473  0.4539 -0.6045
 9293SOL    HW128699   6.428   0.972   6.016 -0.1402 -2.0645  0.5246
 9293SOL    HW228700   6.294   1.030   6.089  0.0478 -0.1884 -0.5484
 9294SOL     OW28701   2.717   2.623   6.451 -0.2711  0.4672  0.1492
 9294SOL    HW128702   2.712   2.576   6.539 -1.8269  1.0796  0.4171
 9294SOL    HW228703   2.626   2.655   6.425  0.6168  2.7831 -0.3317
 9295SOL     OW28704   2.932   1.607   0.932 -0.3145 -0.1917 -0.0157
 9295SOL    HW128705   2.979   1.691   0.960 -0.2706 -0.1074 -0.3411
 9295SOL    HW228706   2.953   1.534   0.997  0.1231 -0.1112 -0.0690
 9296SOL     OW28707   1.269   2.129   5.467 -0.1026 -0.2606  0.3578
 9296SOL    HW128708   1.304   2.172   5.551 -0.2412  0.8812 -0.1447
 9296SOL    HW228709   1.225   2.043   5.489  1.0187 -0.6159  1.2943
 9297SOL     OW28710   2.386   3.085   0.617 -0.4466  0.6864 -0.4590
 9297SOL    HW128711   2.422   3.152   0.552  1.3768 -0.0144 -0.2246
 9297SOL    HW228712   2.411   3.111   0.710 -0.8705  0.3763 -0.2553
 9298SOL     OW28713   5.687   3.172   3.843  0.2510  0.8969 -0.1151
 9298SOL    HW128714   5.667   3.119   3.926 -1.8985  0.9753 -0.5184
 9298SOL    HW228715   5.773   3.221   3.855  1.5889 -1.4900  0.8378
 9299SOL     OW28716   3.037   4.796   0.732 -0.1406 -0.4348 -0.5385
 9299SOL    HW128717   3.030   4.776   0.830 -0.4847 -1.6207 -0.7745
 9299SOL    HW228718   3.132   4.817   0.709 -0.1162  0.1735  0.0991
 9300SOL     OW28719   4.840   3.711   1.138 -0.2010 -0.1786 -0.0223
 9300SOL    HW128720   4.922   3.672   1.095 -0.8553 -1.4482 -0.1583
 9300SOL    HW228721   4.787   3.638   1.180 -0.6088  0.7934  1.2239
 9301SOL     OW28722   0.082   6.301   4.451  0.2175  0.3440 -0.5992
 9301SOL    HW128723   0.072   6.229   4.382 -1.1949 -1.2782  1.1740
 9301SOL    HW228724   0.151   6.273   4.519 -0.5359  0.5100  0.2531
 9302SOL     OW28725   5.514   0.008   6.828  0.6879 -0.4001  0.0340
 9302SOL    HW128726   5.475  -0.015   6.738  0.9668 -0.3556 -0.0972
 9302SOL    HW228727   5.448   0.061   6.881  1.0987  0.9865 -0.7778
 9303SOL     OW28728   3.030   1.188   6.863  0.4321  0.4188 -0.3285
 9303SOL    HW128729   3.073   1.101   6.841  2.7800  0.3432  3.5579
 9303SOL    HW228730   2.945   1.172   6.914  0.2650  0.4372 -0.5967
 9304SOL     OW28731   5.263   5.653   3.683  0.5202 -0.1522  0.6760
 9304SOL    HW128732   5.216   5.677   3.598  0.1009 -0.2840  0.8701
 9304SOL    HW228733   5.316   5.569   3.669  0.1044 -0.4161  0.6661
 9305SOL     OW28734   2.042   4.429   4.535 -0.8673  0.2217 -0.1118
 9305SOL    HW128735   2.121   4.467   4.582 -2.3628  1.9864  1.0782
 9305SOL    HW228736   2.035   4.468   4.443  1.8163 -2.9219 -1.8819
 9306SOL     OW28737   1.645   2.270   2.118 -0.0792  0.0684  0.1777
 9306SOL    HW128738   1.597   2.195   2.165  0.1624 -0.3408 -0.2228
 9306SOL    HW228739   1.743   2.252   2.119 -0.0480  0.2315 -0.1897
 9307SOL     OW28740   6.980   5.931   5.304  0.0802  0.0013  0.1639
 9307SOL    HW128741   6.912   5.995   5.269  1.0674  1.7036  1.2624
 9307SOL    HW228742   7.044   5.908   5.231 -0.1494  0.4535 -0.1613
 9308SOL     OW28743   1.725   1.331   4.305  0.4017 -0.3447  0.5292
 9308SOL    HW128744   1.673   1.415   4.289  0.5783 -0.1912  0.7554
 9308SOL    HW228745   1.663   1.259   4.338 -0.0111 -0.7252 -0.9946
 9309SOL     OW28746   5.070   4.323   1.684 -0.1249 -0.6539 -0.2234
 9309SOL    HW128747   4.985   4.355   1.642  0.2858  0.8446  0.0478
 9309SOL    HW228748   5.135   4.298   1.612 -0.1295 -0.0153 -0.4522
 9310SOL     OW28749   3.679   0.553   5.439 -0.1793  0.2330 -0.3925
 9310SOL    HW128750   3.779   0.555   5.432 -0.1912  0.8381 -0.4846
 9310SOL    HW228751   3.647   0.460   5.426  0.3912 -0.0249 -0.0467
 9311SOL     OW28752   6.430   2.361   5.551  0.5924  0.1307 -0.1135
 9311SOL    HW128753   6.414   2.345   5.454  2.0221  1.9035 -0.6926
 9311SOL    HW228754   6.493   2.291   5.586 -0.1773 -0.7013 -0.3531
 9312SOL     OW28755   2.086   5.363   1.688  0.4845  0.7201 -0.3821
 9312SOL    HW128756   2.071   5.297   1.614  1.8963  1.1011 -1.0330
 9312SOL    HW228757   2.153   5.431   1.659  1.5237  0.5389  1.4430
 9313SOL     OW28758   5.982   2.358   2.865  0.3009  0.7012 -0.2794
 9313SOL    HW128759   6.057   2.292   2.870  0.3564  0.6222 -1.6301
 9313SOL    HW228760   5.998   2.419   2.787 -2.5340 -1.2625 -2.5743
 9314SOL     OW28761   0.403   4.036   1.001  0.6121 -0.1715 -0.1676
 9314SOL    HW128762   0.358   4.124   0.985 -2.9045 -0.6758  4.6143
 9314SOL    HW228763   0.365   3.967   0.938 -1.9687  0.4485  0.5751
 9315SOL     OW28764   1.887   4.945   4.762  0.0653 -0.1494  0.4007
 9315SOL    HW128765   1.918   4.924   4.670  0.2155  0.0492  0.4031
 9315SOL    HW228766   1.886   5.044   4.775 -1.4468 -0.0891  0.1040
 9316SOL     OW28767   6.080   1.555   0.461 -0.4018 -0.7509  0.2218
 9316SOL    HW128768   6.017   1.622   0.423 -1.2660 -2.0411 -0.7554
 9316SOL    HW228769   6.174   1.580   0.437 -0.7526 -0.1711 -0.6121
 9317SOL     OW28770   3.933   5.847   5.475  0.1251 -0.4096  0.5415
 9317SOL    HW128771   4.024   5.871   5.442  0.1048 -0.4434  0.4589
 9317SOL    HW228772   3.883   5.931   5.496 -0.3625 -0.3210 -0.8517
 9318SOL     OW28773   5.122   5.922   4.166 -0.6163  0.8038  0.1021
 9318SOL    HW128774   5.165   5.836   4.140  0.3398  0.2927  3.0730
 9318SOL    HW228775   5.156   5.995   4.107 -0.7086 -0.6616 -1.8372
 9319SOL     OW28776   6.776   2.677   5.665 -0.1517 -0.2400 -0.3196
 9319SOL    HW128777   6.804   2.773   5.672  0.1085 -0.3198 -0.2565
 9319SOL    HW228778   6.677   2.670   5.677 -0.1970  0.0435 -0.5141
 9320SOL     OW28779   4.181   5.506   1.480 -0.3801  0.2839  0.0656
 9320SOL    HW128780   4.212   5.427   1.533 -0.1193 -0.1085 -0.6523
 9320SOL    HW228781   4.255   5.574   1.476 -0.2391  0.1126 -0.1891
 9321SOL     OW28782   1.703   3.817   6.734 -0.1356 -0.4583  0.0808
 9321SOL    HW128783   1.711   3.884   6.660 -1.4530 -1.6740 -1.2189
 9321SOL    HW228784   1.618   3.766   6.723 -0.4688 -0.5392  2.5808
 9322SOL     OW28785   0.348   2.605   6.486  0.5928 -0.7177  0.0287
 9322SOL    HW128786   0.272   2.606   6.421 -1.2963 -0.4311  2.1451
 9322SOL    HW228787   0.379   2.511   6.501 -0.4247 -1.0078  0.3321
 9323SOL     OW28788   3.327   6.391   6.227  0.1922 -0.0584  0.6039
 9323SOL    HW128789   3.230   6.379   6.248 -0.0608  1.2387  0.2813
 9323SOL    HW228790   3.341   6.483   6.189  1.5233 -0.2896  0.5099
 9324SOL     OW28791   4.215   1.558   1.485  0.8092  0.2458  0.0955
 9324SOL    HW128792   4.169   1.638   1.525 -0.4421 -1.0174  1.2730
 9324SOL    HW228793   4.177   1.541   1.394 -1.4321 -0.9653  1.1584
 9325SOL     OW28794   0.766   3.155   1.065 -0.0067  0.1528 -0.1228
 9325SOL    HW128795   0.772   3.201   1.154  0.1399 -0.1225  0.0135
 9325SOL    HW228796   0.707   3.076   1.073  0.0145  0.1228 -0.2700
 9326SOL     OW28797   0.657   2.685   1.662 -0.1447  0.2663  0.4946
 9326SOL    HW128798   0.565   2.679   1.701  0.5261  0.3748  2.2200
 9326SOL    HW228799   0.721   2.717   1.733  1.2196  0.2032 -0.6573
 9327SOL     OW28800   1.866   2.379   6.323  0.0848 -0.1659  0.6693
 9327SOL    HW128801   1.864   2.279   6.329  0.8490 -0.2443 -0.2031
 9327SOL    HW228802   1.876   2.406   6.227  2.7100  0.6752  1.0995
 9328SOL     OW28803   0.261   0.889   6.272  0.1113 -0.7788 -0.3732
 9328SOL    HW128804   0.185   0.824   6.272 -0.6192  0.0292  0.4618
 9328SOL    HW228805   0.257   0.946   6.190 -1.4655  0.6378  0.6183
 9329SOL     OW28806   5.059   6.342   3.635  0.0322  0.5532  0.1636
 9329SOL    HW128807   5.037   6.410   3.705 -0.3295  2.1683 -1.4426
 9329SOL    HW228808   4.990   6.345   3.563  0.8604 -0.4732 -0.7191
 9330SOL     OW28809   0.983   3.013   6.006 -0.1222  0.3084 -0.2949
 9330SOL    HW128810   1.043   3.015   6.086 -0.3381 -1.3996 -0.0585
 9330SOL    HW228811   0.959   3.107   5.980  0.3891  0.9102  1.2965
 9331SOL     OW28812   2.050   6.648   3.313 -0.0471 -0.0107  0.0311
 9331SOL    HW128813   2.023   6.583   3.385 -0.3651 -0.9341 -0.8935
 9331SOL    HW228814   2.145   6.630   3.286 -0.3536 -0.5751 -0.7100
 9332SOL     OW28815   3.563   3.552   6.361 -0.2384  0.1494  0.8608
 9332SOL    HW128816   3.653   3.581   6.393 -0.4876  2.0582 -0.0160
 9332SOL    HW228817   3.521   3.492   6.430  0.6266  1.3754  2.5419
 9333SOL     OW28818   4.940   1.519   2.900  0.3840  0.7244 -0.4019
 9333SOL    HW128819   4.981   1.610   2.905 -1.0247  1.2913  4.0184
 9333SOL    HW228820   4.853   1.524   2.850  1.0715  1.4172 -1.5631
 9334SOL     OW28821   6.120   0.353   4.266  0.1095  0.5185 -0.5745
 9334SOL    HW128822   6.205   0.327   4.311 -0.8343  0.6783  1.4563
 9334SOL    HW228823   6.123   0.327   4.170  2.6362  1.0198 -0.6953
 9335SOL     OW28824   3.161   0.203   2.114 -0.4098  0.1548  0.5226
 9335SOL    HW128825   3.114   0.188   2.027  0.6949 -1.3092  0.1312
 9335SOL    HW228826   3.227   0.277   2.104  0.2611 -0.5157 -0.1324
 9336SOL     OW28827   1.393   2.037   6.732 -0.0602  0.1014  0.5887
 9336SOL    HW128828   1.424   1.954   6.777  0.2710  0.0684  0.3044
 9336SOL    HW228829   1.471   2.098   6.718 -0.2464  0.3236  0.5147
 9337SOL     OW28830   1.943   1.979   4.346 -0.4903  0.0699 -0.3726
 9337SOL    HW128831   1.882   2.043   4.299 -0.7301 -0.2199 -0.4561
 9337SOL    HW228832   1.919   1.976   4.443  0.8082  1.6228  0.0374
 9338SOL     OW28833   1.880   4.711   2.342  0.1274  0.6225  0.6999
 9338SOL    HW128834   1.879   4.613   2.363 -0.9307  0.4106 -0.2061
 9338SOL    HW228835   1.812   4.730   2.272  1.4646  1.7393 -0.3709
 9339SOL     OW28836   6.916   5.240   1.678  0.1824  0.6604  0.5857
 9339SOL    HW128837   6.944   5.235   1.774 -0.9321 -2.6756  0.8829
 9339SOL    HW228838   6.821   5.272   1.673  0.8564  2.8247  0.3297
 9340SOL     OW28839   2.721   2.685   3.098  0.6186 -0.6814  0.2123
 9340SOL    HW128840   2.769   2.618   3.041  1.8515 -0.3243  0.7881
 9340SOL    HW228841   2.731   2.661   3.194  1.0618  0.2922  0.4298
 9341SOL     OW28842   3.596   0.980   3.239  0.7112 -0.2084  0.3533
 9341SOL    HW128843   3.605   1.029   3.325 -2.1090 -0.6829  1.0111
 9341SOL    HW228844   3.642   0.891   3.246 -0.1808 -0.6019  1.6916
 9342SOL     OW28845   1.572   6.004   0.989  0.7530  0.4637 -0.3109
 9342SOL    HW128846   1.582   5.959   0.901 -1.9615 -0.6196 -0.1746
 9342SOL    HW228847   1.576   5.935   1.062 -0.5436  0.8184  0.1272
 9343SOL     OW28848   3.059   0.787   5.257  0.3838  0.0470 -0.2100
 9343SOL    HW128849   2.993   0.861   5.245  2.6545  2.1264 -0.6642
 9343SOL    HW228850   3.083   0.749   5.168  0.4158 -0.1225 -0.1310
 9344SOL     OW28851   4.386   0.228   1.050 -0.0533 -0.2024  0.2345
 9344SOL    HW128852   4.330   0.306   1.025 -0.5978 -0.8973 -0.7913
 9344SOL    HW228853   4.347   0.183   1.130 -0.7037 -0.4023 -0.1857
 9345SOL     OW28854   0.534   2.810   0.674 -0.5274  0.1471 -0.1343
 9345SOL    HW128855   0.527   2.831   0.772  1.0196  0.6027 -0.0924
 9345SOL    HW228856   0.445   2.821   0.631 -1.0136  0.9538  1.0373
 9346SOL     OW28857   2.478   0.044   3.616 -0.2092  0.5153 -0.4254
 9346SOL    HW128858   2.417   0.015   3.690  0.4306  1.1103  0.3431
 9346SOL    HW228859   2.562  -0.009   3.619  0.6419  1.8498  0.4984
 9347SOL     OW28860   4.463   3.395   6.340 -0.1226 -0.2775 -0.0146
 9347SOL    HW128861   4.441   3.309   6.294  1.8845 -0.3191 -1.0362
 9347SOL    HW228862   4.485   3.465   6.272 -2.3577  1.2907  0.7634
 9348SOL     OW28863   3.070   5.428   1.733  0.2001  0.5375  0.2218
 9348SOL    HW128864   3.092   5.333   1.712  1.0581  0.5186  1.0895
 9348SOL    HW228865   2.971   5.440   1.737  0.0696 -0.0401 -1.0782
 9349SOL     OW28866   6.783   6.090   6.596  0.1863  0.1631  0.5398
 9349SOL    HW128867   6.877   6.061   6.581  0.2774  0.3125  0.8133
 9349SOL    HW228868   6.773   6.130   6.687 -0.3997 -0.9454  0.9897
 9350SOL     OW28869   6.065   4.476   2.479  0.4073 -0.0514 -0.2574
 9350SOL    HW128870   6.092   4.562   2.436 -1.0470  1.2225  1.2097
 9350SOL    HW228871   6.094   4.477   2.575 -1.9807  0.0589  0.5336
 9351SOL     OW28872   6.290   1.997   4.193 -0.4258  0.0550 -0.2730
 9351SOL    HW128873   6.215   2.002   4.258  0.7779 -0.1662  1.1820
 9351SOL    HW228874   6.323   2.089   4.173  0.1361  0.0455  0.5694
 9352SOL     OW28875   5.470   1.815   4.772  0.2595 -0.0607  0.1577
 9352SOL    HW128876   5.480   1.913   4.754 -1.5395  0.2503  0.6512
 9352SOL    HW228877   5.548   1.767   4.734  0.7011  1.4597 -0.9920
 9353SOL     OW28878   5.441   2.026   1.920 -0.0622  0.1904  0.4748
 9353SOL    HW128879   5.464   2.122   1.930 -1.4113  0.7400 -1.1219
 9353SOL    HW228880   5.380   2.014   1.841  1.9764 -2.2827 -0.8921
 9354SOL     OW28881   1.280   4.748   0.228 -0.5731 -0.1494  0.0592
 9354SOL    HW128882   1.333   4.745   0.313 -0.4783 -0.6183 -0.0101
 9354SOL    HW228883   1.248   4.841   0.211  1.6009  0.5326 -0.7377
 9355SOL     OW28884   2.312   7.020   6.779 -0.0540  0.4541  0.4299
 9355SOL    HW128885   2.334   7.013   6.681  1.4025  0.3059  0.7374
 9355SOL    HW228886   2.300   7.117   6.803 -1.1636  0.4151 -0.0399
 9356SOL     OW28887   4.897   0.813   5.829 -0.0019 -0.7808  0.4082
 9356SOL    HW128888   4.802   0.815   5.859 -0.1573 -3.5060  0.3106
 9356SOL    HW228889   4.927   0.906   5.807 -2.6835  0.1245  0.2447
 9357SOL     OW28890   0.610   4.974   1.435 -0.6784 -0.2051  0.1611
 9357SOL    HW128891   0.538   4.930   1.382 -0.5419 -1.6489  1.1348
 9357SOL    HW228892   0.700   4.939   1.406 -0.4044  0.9173 -0.4175
 9358SOL     OW28893   3.027   0.593   6.294  0.0538 -0.3724 -0.1710
 9358SOL    HW128894   3.091   0.635   6.230 -0.6284  0.7696 -0.1245
 9358SOL    HW228895   3.076   0.561   6.375  0.9688 -2.0633 -1.3391
 9359SOL     OW28896   3.665   0.769   1.915 -0.3611 -0.2189 -0.0744
 9359SOL    HW128897   3.724   0.744   1.838  0.3384 -0.2590  0.4606
 9359SOL    HW228898   3.720   0.778   1.998 -0.9570  0.8099  0.2323
 9360SOL     OW28899   1.664   0.423   0.270 -0.0251  0.1168  0.1378
 9360SOL    HW128900   1.743   0.482   0.282  1.3934 -1.3627 -1.3738
 9360SOL    HW228901   1.581   0.472   0.295  1.1060  2.6080 -0.7200
 9361SOL     OW28902   4.268   1.689   6.492 -0.2866 -0.0079 -0.1245
 9361SOL    HW128903   4.248   1.591   6.492  0.3763 -0.1644  1.0309
 9361SOL    HW228904   4.187   1.739   6.524 -0.6601 -0.1598 -0.8102
 9362SOL     OW28905   0.328   4.128   7.003  0.9325  0.6430  0.3023
 9362SOL    HW128906   0.322   4.228   7.007 -1.2473  0.5264  3.8006
 9362SOL    HW228907   0.404   4.097   7.059  1.2837  0.2946 -0.3815
 9363SOL     OW28908   6.234   5.857   4.228 -0.3521 -0.9204 -0.5244
 9363SOL    HW128909   6.320   5.869   4.177 -0.8626  2.1490 -0.8496
 9363SOL    HW228910   6.162   5.828   4.166 -0.2965 -0.0900 -1.0021
 9364SOL     OW28911   1.885   3.805   2.172 -0.8540 -0.4348 -0.2377
 9364SOL    HW128912   1.866   3.709   2.149 -1.9645 -0.1971 -0.3846
 9364SOL    HW228913   1.947   3.844   2.103  0.1894 -1.2366  0.2148
 9365SOL     OW28914   0.940   1.196   6.691 -0.2254  0.1575  0.1754
 9365SOL    HW128915   1.019   1.134   6.686  0.5070  1.0973 -0.2945
 9365SOL    HW228916   0.966   1.286   6.656 -0.6059  1.4026  2.7922
 9366SOL     OW28917   3.650   2.599   6.047 -0.1501 -0.3035  0.6361
 9366SOL    HW128918   3.603   2.563   5.966  0.4139 -0.5139  0.3933
 9366SOL    HW228919   3.740   2.635   6.020  0.5883 -1.5260  1.3443
 9367SOL     OW28920   2.985   0.505   2.875  0.5542 -0.0213  0.5371
 9367SOL    HW128921   2.966   0.601   2.894  0.8039  0.3125 -0.8167
 9367SOL    HW228922   3.064   0.498   2.814 -1.5518 -0.8744 -2.3159
 9368SOL     OW28923   1.095   4.182   4.383  0.0892 -0.3815 -0.3756
 9368SOL    HW128924   1.062   4.124   4.458  0.8140 -0.9088 -0.4509
 9368SOL    HW228925   1.104   4.276   4.416 -1.4248 -0.2212 -0.3439
 9369SOL     OW28926   5.304   2.963   4.025 -0.0396  0.3486  0.0345
 9369SOL    HW128927   5.349   2.874   4.031  0.4336  0.5471 -0.5227
 9369SOL    HW228928   5.345   3.025   4.092 -1.1331 -0.1643  1.2281
 9370SOL     OW28929   6.261   4.360   5.615  0.1588 -0.0887 -0.5387
 9370SOL    HW128930   6.352   4.397   5.635 -0.2800  0.2940  0.9520
 9370SOL    HW228931   6.259   4.263   5.638  0.2589 -0.1472 -0.7808
 9371SOL     OW28932   5.353   4.826   3.773  0.4127  0.2868 -0.5776
 9371SOL    HW128933   5.343   4.755   3.842 -1.3575  1.3656  0.3342
 9371SOL    HW228934   5.442   4.872   3.785  0.2205  0.3130  0.8646
 9372SOL     OW28935   4.212   5.851   5.464 -0.3748 -0.2066 -0.4426
 9372SOL    HW128936   4.223   5.775   5.527 -0.3354 -0.2040 -0.4466
 9372SOL    HW228937   4.301   5.893   5.446 -0.5875  0.8319  0.7858
 9373SOL     OW28938   6.677   0.636   1.291  0.3195  0.2190  0.3109
 9373SOL    HW128939   6.651   0.551   1.246  0.4737  0.3801 -0.0916
 9373SOL    HW228940   6.626   0.646   1.376  0.0034 -0.0791  0.1592
 9374SOL     OW28941   5.437   5.083   3.051 -0.5277 -0.3942  0.1658
 9374SOL    HW128942   5.520   5.114   3.097 -0.3223 -2.0323  1.0199
 9374SOL    HW228943   5.360   5.089   3.114 -1.2814  1.8502 -0.8637
 9375SOL     OW28944   4.534   0.377   6.600  0.1690 -0.2057 -0.2092
 9375SOL    HW128945   4.442   0.373   6.562  0.1949  1.7469 -0.5749
 9375SOL    HW228946   4.555   0.291   6.646 -1.8332 -0.6701 -0.0849
 9376SOL     OW28947   1.090   4.540   2.771 -0.3570 -0.4104 -0.1198
 9376SOL    HW128948   1.066   4.603   2.845  0.2429  1.8171 -1.6968
 9376SOL    HW228949   1.185   4.511   2.781 -0.3103 -0.1973  0.0673
 9377SOL     OW28950   1.673   5.585   0.871 -0.3581 -0.5233  0.3139
 9377SOL    HW128951   1.765   5.598   0.834  0.1856 -0.5597  1.5504
 9377SOL    HW228952   1.673   5.508   0.935 -1.2659 -0.5657  0.2794
 9378SOL     OW28953   1.220   0.538   0.437 -0.0751  0.6393  1.0446
 9378SOL    HW128954   1.234   0.454   0.489 -2.6170  0.4345  1.5324
 9378SOL    HW228955   1.299   0.554   0.377  0.8428 -1.6295  1.5486
 9379SOL     OW28956   4.395   4.186   0.498 -0.8124 -0.3987 -0.1610
 9379SOL    HW128957   4.450   4.267   0.518 -1.1415 -0.0919 -0.4855
 9379SOL    HW228958   4.437   4.106   0.541  0.6584 -0.4322 -1.5678
 9380SOL     OW28959   5.576   2.709   6.456 -0.4463 -0.1780 -1.2491
 9380SOL    HW128960   5.619   2.798   6.439 -0.4835 -0.2785 -1.9089
 9380SOL    HW228961   5.500   2.721   6.520 -0.4100  0.2632 -1.2794
 9381SOL     OW28962   4.724   6.152   0.548  0.0222 -0.0512  0.3101
 9381SOL    HW128963   4.699   6.120   0.457 -0.3758 -0.5192  0.5824
 9381SOL    HW228964   4.747   6.249   0.544  0.8634 -0.2655 -0.4512
 9382SOL     OW28965   3.381   0.642   2.392  0.4388  0.0321 -0.3272
 9382SOL    HW128966   3.355   0.715   2.329  2.1281  1.3378  0.4346
 9382SOL    HW228967   3.402   0.681   2.482  2.2028 -1.2320 -0.1384
 9383SOL     OW28968   4.197   4.687   4.902 -0.5996 -0.2888  0.3656
 9383SOL    HW128969   4.111   4.719   4.861  0.3727 -0.6561 -2.1470
 9383SOL    HW228970   4.197   4.588   4.908 -0.0206 -0.3436 -0.4493
 9384SOL     OW28971   3.977   1.201   2.484 -0.0653  0.1567 -0.6503
 9384SOL    HW128972   4.023   1.287   2.460 -1.5079  1.4005  0.8145
 9384SOL    HW228973   3.881   1.219   2.503 -0.6692 -2.0047 -1.3903
 9385SOL     OW28974   0.670   0.159   3.127  0.4846 -0.2198  0.0300
 9385SOL    HW128975   0.704   0.251   3.149 -0.8925  0.2761  0.1495
 9385SOL    HW228976   0.570   0.159   3.129  0.4768 -1.8558  0.5318
 9386SOL     OW28977   3.249   4.924   2.221  0.2020  0.0662 -0.3759
 9386SOL    HW128978   3.308   4.907   2.300  1.8422  0.4960 -1.4710
 9386SOL    HW228979   3.162   4.876   2.234  1.0836 -1.2681  0.9134
 9387SOL     OW28980   1.277   3.825   4.621  0.4867 -0.0041  0.0497
 9387SOL    HW128981   1.313   3.765   4.693  1.9068 -0.0413 -0.6755
 9387SOL    HW228982   1.311   3.918   4.635 -0.1509  0.2299  0.0648
 9388SOL     OW28983   3.263   5.082   2.877  0.6317 -0.8451  0.4601
 9388SOL    HW128984   3.346   5.098   2.823 -0.4510  3.5899 -0.2625
 9388SOL    HW228985   3.284   5.092   2.974  1.1965 -1.4647  0.4161
 9389SOL     OW28986   1.502   6.308   1.935 -0.1792  0.2717  0.1537
 9389SOL    HW128987   1.565   6.232   1.954  0.0855  0.4526  0.0183
 9389SOL    HW228988   1.550   6.395   1.949 -0.9873  0.4548  2.2057
 9390SOL     OW28989   1.123   3.738   2.355 -0.5129  0.0359  0.4974
 9390SOL    HW128990   1.067   3.744   2.272 -2.0510 -0.2787  1.4653
 9390SOL    HW228991   1.209   3.693   2.333 -0.4057  0.9287 -1.1420
 9391SOL     OW28992   6.573   4.266   3.194  0.3595 -0.4880 -0.3100
 9391SOL    HW128993   6.639   4.208   3.241  0.9425 -0.6111 -1.2521
 9391SOL    HW228994   6.594   4.362   3.211 -0.1127 -0.5396  0.5898
 9392SOL     OW28995   6.014   1.093   3.947 -0.4753  0.1172  0.1975
 9392SOL    HW128996   5.987   1.178   3.903 -1.3191 -1.0823 -1.7666
 9392SOL    HW228997   6.019   1.106   4.046 -1.4659  2.1798  0.0183
 9393SOL     OW28998   2.812   5.614   6.277  0.1358  1.1576 -0.2099
 9393SOL    HW128999   2.884   5.641   6.213  0.1235 -0.6431 -1.0640
 9393SOL    HW229000   2.749   5.551   6.232  0.4362 -0.6432  1.7023
 9394SOL     OW29001   0.754   1.686   5.898 -0.1218  0.2620 -0.2395
 9394SOL    HW129002   0.794   1.595   5.895  2.1321  1.1402  0.9198
 9394SOL    HW229003   0.676   1.691   5.835 -0.9449 -2.7142  0.3936
 9395SOL     OW29004   1.661   2.545   1.111 -0.1256  0.5622 -0.2464
 9395SOL    HW129005   1.666   2.448   1.131 -0.6435  0.3624 -1.0425
 9395SOL    HW229006   1.567   2.571   1.092  0.1938  0.9150 -1.4408
 9396SOL     OW29007   3.057   6.245   2.331  0.1057 -0.3498  0.1839
 9396SOL    HW129008   3.059   6.344   2.315  1.6035 -0.4278 -0.2483
 9396SOL    HW229009   3.083   6.226   2.426 -0.1327 -0.3473  0.2528
 9397SOL     OW29010   1.977   1.615   0.704  0.1369 -0.1063  0.6726
 9397SOL    HW129011   2.005   1.682   0.773  0.0972 -1.7691  2.4019
 9397SOL    HW229012   2.058   1.576   0.661  0.2007  0.3331  0.3922
 9398SOL     OW29013   4.951   6.832   6.459  0.9070 -0.0813  0.4284
 9398SOL    HW129014   4.959   6.766   6.533 -1.0062 -1.6787 -0.6830
 9398SOL    HW229015   5.018   6.811   6.388  0.1510 -1.1366 -0.0454
 9399SOL     OW29016   1.557   4.881   5.569 -0.1983  0.2778 -0.1103
 9399SOL    HW129017   1.563   4.980   5.558 -0.7810  0.1916 -1.4018
 9399SOL    HW229018   1.646   4.839   5.549 -0.7266  0.3072 -2.8683
 9400SOL     OW29019   6.365   1.780   2.493  0.5227  0.3203  0.2716
 9400SOL    HW129020   6.461   1.807   2.481  0.9922 -0.4275  1.9830
 9400SOL    HW229021   6.345   1.770   2.591  0.0471 -3.9957 -0.0620
 9401SOL     OW29022   4.874   6.391   2.073 -0.3329 -0.1242  0.0418
 9401SOL    HW129023   4.783   6.379   2.114 -0.3545 -0.4472 -0.1040
 9401SOL    HW229024   4.943   6.354   2.134 -0.2723  0.4140  0.2998
 9402SOL     OW29025   0.048   2.461   2.020 -0.2317 -0.4642 -0.1159
 9402SOL    HW129026   0.131   2.418   2.056 -0.3602 -2.4174 -1.9275
 9402SOL    HW229027   0.042   2.555   2.051  1.7203 -0.8240  1.5165
 9403SOL     OW29028   6.107   1.552   4.982  0.6323 -0.2343 -0.0634
 9403SOL    HW129029   6.025   1.524   5.032  0.6623  0.1238  0.1876
 9403SOL    HW229030   6.080   1.609   4.904  0.6816  0.3964  0.3760
 9404SOL     OW29031   2.914   0.630   1.842  0.4131  0.1631 -0.1374
 9404SOL    HW129032   2.922   0.654   1.939  2.2780  0.7278 -0.3928
 9404SOL    HW229033   2.862   0.701   1.794  2.5850  1.8309 -0.1715
 9405SOL     OW29034   4.097   2.826   2.019  0.1593  0.5356  0.0875
 9405SOL    HW129035   4.037   2.827   1.939 -0.1539  0.4289  0.3166
 9405SOL    HW229036   4.157   2.906   2.016  0.3109  0.4068 -0.3740
 9406SOL     OW29037   6.641   5.976   0.613  0.0904 -0.1646  0.3063
 9406SOL    HW129038   6.675   6.052   0.669  0.3886  0.2751 -0.4496
 9406SOL    HW229039   6.644   5.891   0.666 -1.5021  0.5577  1.6162
 9407SOL     OW29040   4.768   2.345   2.776 -0.6692 -0.0065  0.4237
 9407SOL    HW129041   4.682   2.303   2.803  0.1078 -1.2102  1.1082
 9407SOL    HW229042   4.808   2.293   2.700  0.7260 -1.1180  1.8487
 9408SOL     OW29043   3.118   6.825   0.564 -0.2906  0.3157  0.3943
 9408SOL    HW129044   3.111   6.868   0.474  0.5642  1.3182  0.7957
 9408SOL    HW229045   3.026   6.811   0.602 -0.6302  0.3793 -0.3997
 9409SOL     OW29046   0.293   2.259   1.718 -0.2946 -0.1323 -0.0468
 9409SOL    HW129047   0.360   2.214   1.776  1.0867  1.5137 -0.2900
 9409SOL    HW229048   0.324   2.259   1.623 -0.9528  0.0748 -0.2711
 9410SOL     OW29049   2.585   1.465   2.201  0.9601  0.1002 -0.6341
 9410SOL    HW129050   2.636   1.508   2.126 -0.1947 -0.3135 -1.6876
 9410SOL    HW229051   2.487   1.477   2.185  0.6842 -0.5405  0.4997
 9411SOL     OW29052   3.768   6.557   1.593  0.2494 -0.4924  0.0854
 9411SOL    HW129053   3.760   6.468   1.637  0.9878 -0.6871 -0.1587
 9411SOL    HW229054   3.811   6.622   1.656 -0.1812 -0.3342  0.2229
 9412SOL     OW29055   6.728   5.207   4.490 -0.3876 -0.1751 -0.1682
 9412SOL    HW129056   6.777   5.136   4.440  0.5887  0.1486  0.3025
 9412SOL    HW229057   6.781   5.292   4.487 -2.5953  1.2947 -2.7598
 9413SOL     OW29058   1.861   6.725   6.197 -0.5622 -0.3108  0.4191
 9413SOL    HW129059   1.811   6.812   6.202 -0.0870  0.0734 -1.0961
 9413SOL    HW229060   1.946   6.733   6.249 -0.3156  0.2898 -0.0564
 9414SOL     OW29061   6.497   2.455   5.793 -0.4798 -0.2078  0.3075
 9414SOL    HW129062   6.461   2.424   5.705  1.1850  1.2260 -0.9480
 9414SOL    HW229063   6.565   2.390   5.826  2.3615  1.4206 -1.8776
 9415SOL     OW29064   3.406   6.974   2.396 -0.1991 -0.7137  0.4159
 9415SOL    HW129065   3.458   7.055   2.425  1.3014 -1.2213 -0.7804
 9415SOL    HW229066   3.375   6.924   2.477  0.4148  0.1121  1.1902
 9416SOL     OW29067   4.952   5.129   2.151 -0.5846  0.0246  0.1395
 9416SOL    HW129068   4.954   5.029   2.161 -0.7152 -0.3357 -2.6941
 9416SOL    HW229069   5.045   5.165   2.156 -0.4614 -0.3320  0.4816
 9417SOL     OW29070   5.564   4.411   3.892  0.1263 -0.1688 -0.8863
 9417SOL    HW129071   5.632   4.474   3.929  0.0535 -0.8231  0.3999
 9417SOL    HW229072   5.552   4.430   3.794  0.6483  1.3015 -0.6986
 9418SOL     OW29073   2.949   6.218   6.237 -0.0046  0.8198  0.2769
 9418SOL    HW129074   2.988   6.136   6.278 -2.8679  0.6829  3.0993
 9418SOL    HW229075   2.914   6.197   6.145  2.4994 -0.0606 -0.5495
 9419SOL     OW29076   6.587   5.491   3.985  0.0213  0.2038  0.3851
 9419SOL    HW129077   6.520   5.487   4.059 -0.0765  2.2934  0.4782
 9419SOL    HW229078   6.555   5.555   3.914  2.4105  2.2886  1.0241
 9420SOL     OW29079   6.296   4.208   3.140  0.4903  0.3960 -0.6491
 9420SOL    HW129080   6.304   4.121   3.190 -1.2087  0.6458  0.1091
 9420SOL    HW229081   6.388   4.242   3.120  1.1959 -1.5401 -0.9225
 9421SOL     OW29082   3.152   4.895   6.476 -0.3509 -0.0353  0.3567
 9421SOL    HW129083   3.098   4.948   6.411 -0.6964 -1.2650 -0.3707
 9421SOL    HW229084   3.131   4.798   6.467  0.8306 -0.3897  1.1546
 9422SOL     OW29085   5.334   4.679   6.366 -0.7060  0.4656 -0.6359
 9422SOL    HW129086   5.348   4.597   6.310 -2.5978 -0.4024  0.1163
 9422SOL    HW229087   5.285   4.748   6.312 -1.4224  0.1024 -0.4610
 9423SOL     OW29088   3.257   4.124   1.420  0.6784  0.4704  0.0919
 9423SOL    HW129089   3.342   4.143   1.371  0.6153 -0.5319 -0.4328
 9423SOL    HW229090   3.204   4.056   1.369  0.0753  0.2638  0.9756
 9424SOL     OW29091   0.602   1.628   6.865 -0.2391 -0.5402  0.3156
 9424SOL    HW129092   0.548   1.545   6.872 -1.8500  0.4968  0.8493
 9424SOL    HW229093   0.592   1.682   6.949 -0.3608  0.8507 -0.5643
 9425SOL     OW29094   6.522   0.163   2.699  0.3419 -0.2066 -0.1026
 9425SOL    HW129095   6.602   0.176   2.640  1.4187 -0.5872  1.2186
 9425SOL    HW229096   6.456   0.103   2.654  0.7150  0.2189 -1.2737
 9426SOL     OW29097   0.501   6.602   1.284 -0.2507 -0.6738 -0.1561
 9426SOL    HW129098   0.424   6.632   1.340  0.8689  1.6227  0.2536
 9426SOL    HW229099   0.576   6.574   1.343  0.0286 -0.7178 -0.5282
 9427SOL     OW29100   6.315   1.756   4.971  0.5384  0.7294  0.4739
 9427SOL    HW129101   6.240   1.692   4.987  0.4537  0.9162  0.8141
 9427SOL    HW229102   6.368   1.767   5.055  0.8037  0.7870  0.3022
 9428SOL     OW29103   6.990   1.488   0.513 -0.0939 -0.1997 -0.3714
 9428SOL    HW129104   6.910   1.530   0.470  0.2029  1.3980  0.5615
 9428SOL    HW229105   7.052   1.560   0.545  0.9352 -1.3897  0.3440
 9429SOL     OW29106   6.692   4.263   4.429  0.0888  0.0700 -0.0807
 9429SOL    HW129107   6.662   4.329   4.360 -0.2702 -0.1030 -0.0917
 9429SOL    HW229108   6.779   4.293   4.467 -0.3092  0.8138  0.2642
 9430SOL     OW29109   4.680   1.629   3.691  0.4958 -0.0603 -0.4543
 9430SOL    HW129110   4.760   1.599   3.743 -0.7912  1.5324  2.7388
 9430SOL    HW229111   4.633   1.550   3.653  0.6670 -1.5384  2.1998
 9431SOL     OW29112   5.671   4.268   4.294  0.2477  0.2561 -0.0955
 9431SOL    HW129113   5.670   4.212   4.211  0.6348  1.9245 -1.2782
 9431SOL    HW229114   5.762   4.307   4.307  0.3664 -0.4606  1.4891
 9432SOL     OW29115   6.390   0.783   0.654  0.0954  0.2856  0.1089
 9432SOL    HW129116   6.439   0.868   0.636  1.3561 -0.0577  1.5863
 9432SOL    HW229117   6.376   0.774   0.753  1.2072 -1.8216  0.1178
 9433SOL     OW29118   5.164   3.169   6.059 -0.5353 -0.3227  0.4035
 9433SOL    HW129119   5.242   3.129   6.106  0.0502 -1.6675 -1.5597
 9433SOL    HW229120   5.121   3.238   6.117  0.9452 -0.8974  2.2805
 9434SOL     OW29121   2.320   2.903   2.357 -0.7812 -0.1769 -0.3927
 9434SOL    HW129122   2.385   2.972   2.388 -1.2026 -0.3174  0.8689
 9434SOL    HW229123   2.369   2.830   2.309 -0.0919  0.0483 -0.0456
 9435SOL     OW29124   0.746   4.999   2.558 -0.5798 -0.0937 -0.2670
 9435SOL    HW129125   0.768   5.027   2.465  1.8916  0.0186  0.2939
 9435SOL    HW229126   0.733   5.080   2.615 -0.0820 -0.1415 -0.0816
 9436SOL     OW29127   1.520   5.741   5.557 -0.7676  0.3129  0.8185
 9436SOL    HW129128   1.554   5.658   5.601 -0.4038 -0.0449 -0.1153
 9436SOL    HW229129   1.487   5.805   5.627  0.1317 -0.0853  1.6422
 9437SOL     OW29130   2.176   3.279   5.856 -0.7319 -0.3441  0.4503
 9437SOL    HW129131   2.120   3.289   5.773  2.6506  1.2322 -1.8409
 9437SOL    HW229132   2.153   3.193   5.901 -3.4753 -0.7535 -1.4820
 9438SOL     OW29133   4.009   2.269   5.512  0.2788  0.4487 -0.3271
 9438SOL    HW129134   4.042   2.332   5.582  0.1766 -0.9594  1.0569
 9438SOL    HW229135   3.991   2.180   5.554  2.2350 -1.0844 -2.5060
 9439SOL     OW29136   4.817   3.517   2.995  0.1947 -0.2373  0.3362
 9439SOL    HW129137   4.868   3.484   3.074  0.5940 -2.7120 -0.8612
 9439SOL    HW229138   4.865   3.492   2.911 -1.3998  0.2015 -0.7706
 9440SOL     OW29139   6.239   2.183   6.179  0.3125  0.0415 -0.3028
 9440SOL    HW129140   6.338   2.192   6.191  0.7003 -3.0208 -0.3855
 9440SOL    HW229141   6.205   2.107   6.234 -1.9740  0.9053 -0.4175
 9441SOL     OW29142   4.941   3.044   5.939  0.5940  0.1961 -0.1012
 9441SOL    HW129143   5.020   3.100   5.962  0.2416  0.3615  0.7764
 9441SOL    HW229144   4.891   3.021   6.023 -0.6317  0.6260 -0.6918
 9442SOL     OW29145   3.324   2.922   3.348  0.2282  0.1641 -0.2116
 9442SOL    HW129146   3.281   2.900   3.436  1.5776 -0.2885  0.3600
 9442SOL    HW229147   3.412   2.966   3.364  0.1446  0.7714 -1.3468
 9443SOL     OW29148   5.496   6.561   2.332 -0.5320 -0.4303  0.1719
 9443SOL    HW129149   5.509   6.651   2.374 -0.4321 -0.4514  0.1874
 9443SOL    HW229150   5.582   6.511   2.333 -0.0039  0.3423 -1.8561
 9444SOL     OW29151   2.087   1.416   3.234 -0.1316 -0.0159  0.4038
 9444SOL    HW129152   2.041   1.439   3.148  0.3416  1.3891  0.5023
 9444SOL    HW229153   2.047   1.469   3.308  0.5101 -0.0488  0.7796
 9445SOL     OW29154   0.232   1.934   0.909  0.0616 -0.3202 -0.2488
 9445SOL    HW129155   0.158   1.868   0.893 -1.6971  1.4689  0.0882
 9445SOL    HW229156   0.200   2.005   0.973  2.3530  0.1117  0.5227
 9446SOL     OW29157   1.913   6.150   3.159  0.4676  0.0255 -0.2426
 9446SOL    HW129158   1.956   6.072   3.205  0.6633  1.0312  1.3626
 9446SOL    HW229159   1.888   6.124   3.066  2.7450 -1.2053 -0.5862
 9447SOL     OW29160   5.258   6.899   3.674  0.3102 -0.6369 -0.5273
 9447SOL    HW129161   5.311   6.975   3.712 -0.6535  0.4305 -1.2520
 9447SOL    HW229162   5.161   6.914   3.693 -0.0862 -0.6680 -2.3483
 9448SOL     OW29163   2.723   2.550   2.507 -0.6150  0.0124  0.0937
 9448SOL    HW129164   2.647   2.501   2.464 -0.4742 -1.3083  1.2781
 9448SOL    HW229165   2.688   2.633   2.550 -1.0951  0.2951 -0.8129
 9449SOL     OW29166   6.990   5.897   6.966  0.1147 -0.1744 -0.2002
 9449SOL    HW129167   7.018   5.969   6.903 -0.9227 -0.9463 -1.5938
 9449SOL    HW229168   6.979   5.811   6.915 -1.1074 -0.7342  0.9642
 9450SOL     OW29169   1.089   5.417   3.487 -0.3958 -0.2673 -0.4638
 9450SOL    HW129170   1.187   5.401   3.477 -0.1697  1.0413 -0.5106
 9450SOL    HW229171   1.042   5.331   3.506  0.6468 -1.0501 -1.3309
 9451SOL     OW29172   3.851   3.557   4.034  0.5729 -0.1618 -0.2461
 9451SOL    HW129173   3.756   3.533   4.053  0.7823 -1.4274 -0.7134
 9451SOL    HW229174   3.857   3.656   4.015 -0.7088 -0.1294 -0.6338
 9452SOL     OW29175   2.298   5.752   2.794  0.0212  0.3521 -0.3136
 9452SOL    HW129176   2.266   5.828   2.851  0.4804 -0.6631  1.3642
 9452SOL    HW229177   2.385   5.778   2.751  1.0508  0.2023  1.5954
 9453SOL     OW29178   3.949   4.131   2.441 -0.8053 -0.1097 -0.9027
 9453SOL    HW129179   3.879   4.196   2.413 -1.2802  0.2655  1.0455
 9453SOL    HW229180   3.930   4.099   2.534  3.3947  2.6610  1.2737
 9454SOL     OW29181   5.942   1.437   0.892  0.1122 -0.3439 -0.4824
 9454SOL    HW129182   6.039   1.438   0.865 -0.2531 -2.0446 -2.0433
 9454SOL    HW229183   5.933   1.477   0.983  2.0667  1.2928 -0.9125
 9455SOL     OW29184   1.157   1.788   4.161 -0.7978 -0.3019 -0.7634
 9455SOL    HW129185   1.085   1.797   4.230 -0.0569 -1.9060  0.2842
 9455SOL    HW229186   1.216   1.710   4.184  1.3391  1.0066 -1.5767
 9456SOL     OW29187   0.310   1.188   6.444 -0.2283  0.1455 -0.3208
 9456SOL    HW129188   0.321   1.108   6.503 -0.8964 -0.3052 -0.7944
 9456SOL    HW229189   0.374   1.183   6.368 -0.2140  0.1168 -0.3082
 9457SOL     OW29190   2.626   2.914   6.904 -0.2371 -0.0218  0.6251
 9457SOL    HW129191   2.576   2.893   6.988 -1.6695  0.4686 -0.0649
 9457SOL    HW229192   2.595   2.853   6.830  0.7044 -0.1710  0.3274
 9458SOL     OW29193   1.930   4.011   1.983 -0.2172  0.4949 -0.0505
 9458SOL    HW129194   1.874   4.094   1.981 -0.6124  0.2336 -1.7770
 9458SOL    HW229195   2.021   4.031   1.947  0.0465  0.4044  0.5501
 9459SOL     OW29196   1.465   4.127   0.331 -0.0118 -0.1332 -0.4500
 9459SOL    HW129197   1.476   4.069   0.251  0.3851 -1.5463  0.5949
 9459SOL    HW229198   1.489   4.076   0.413 -3.3634  0.2678  0.9215
 9460SOL     OW29199   5.507   6.576   4.824 -0.4197 -0.5281 -0.5797
 9460SOL    HW129200   5.457   6.655   4.859 -0.5543 -1.3327  1.1478
 9460SOL    HW229201   5.583   6.555   4.885 -0.8986 -2.2333 -0.5121
 9461SOL     OW29202   1.726   6.960   6.167  0.4917  0.6760  0.4507
 9461SOL    HW129203   1.788   7.037   6.185 -0.8094  1.2912  2.6223
 9461SOL    HW229204   1.722   6.944   6.069  2.7470  1.7168  0.1153
 9462SOL     OW29205   6.718   6.793   2.933 -0.1373  0.3260 -0.6260
 9462SOL    HW129206   6.756   6.852   3.005 -4.7195  1.5618  1.1513
 9462SOL    HW229207   6.656   6.726   2.974 -2.6943  0.8600 -3.2815
 9463SOL     OW29208   6.215   0.025   1.556 -0.4798  0.0358  0.1081
 9463SOL    HW129209   6.234   0.002   1.651  0.0450 -1.2210 -0.2910
 9463SOL    HW229210   6.300   0.028   1.504 -0.8722 -0.4977 -0.5881
 9464SOL     OW29211   5.490   0.816   4.695  0.3015 -0.3689  0.5219
 9464SOL    HW129212   5.486   0.851   4.602 -0.6272 -0.6344  0.4418
 9464SOL    HW229213   5.465   0.719   4.695  2.3202 -0.9466  0.7967
 9465SOL     OW29214   3.644   3.032   2.008  0.1597 -0.3168  0.0026
 9465SOL    HW129215   3.721   3.007   2.067 -1.0438 -2.4217  0.7588
 9465SOL    HW229216   3.624   3.129   2.019  3.0148  0.4329 -0.6222
 9466SOL     OW29217   7.016   6.853   1.927 -0.0112  0.4683  0.0418
 9466SOL    HW129218   6.966   6.768   1.909  1.3273 -0.4769  0.6705
 9466SOL    HW229219   7.077   6.872   1.850 -0.8208  1.2473 -0.4212
 9467SOL     OW29220   0.619   4.802   1.706  0.5134 -0.1276 -0.4940
 9467SOL    HW129221   0.703   4.747   1.709  0.6246  0.0600  0.2054
 9467SOL    HW229222   0.632   4.878   1.643  1.7245  1.2005  1.2403
 9468SOL     OW29223   3.411   3.256   1.797  0.0095  0.3431  0.0230
 9468SOL    HW129224   3.504   3.222   1.784  0.3060  1.0826  0.2000
 9468SOL    HW229225   3.353   3.222   1.723 -0.5474 -3.4803  1.9249
 9469SOL     OW29226   6.410   1.423   5.466  0.7264 -0.0643 -0.1422
 9469SOL    HW129227   6.410   1.440   5.565 -1.0445 -2.8827  0.4653
 9469SOL    HW229228   6.497   1.453   5.427  0.8703  2.6099  1.9267
 9470SOL     OW29229   4.504   0.660   3.783  0.6642 -0.0859  0.2565
 9470SOL    HW129230   4.472   0.667   3.878 -0.6527 -0.8711 -0.1058
 9470SOL    HW229231   4.481   0.743   3.734  1.3801  0.3392  0.6210
 9471SOL     OW29232   1.117   6.308   3.505  0.1143 -0.1727 -0.0475
 9471SOL    HW129233   1.204   6.324   3.552  1.6510 -1.4260 -2.2838
 9471SOL    HW229234   1.113   6.365   3.422 -0.3124 -1.4634 -0.9572
 9472SOL     OW29235   0.230   4.058   2.016 -0.2840 -0.2545 -0.3607
 9472SOL    HW129236   0.267   4.132   2.072 -0.2093  0.8799 -1.8335
 9472SOL    HW229237   0.303   3.992   1.995 -0.0597 -0.1228  0.0007
 9473SOL     OW29238   1.740   3.996   5.663 -0.0318  0.2844 -0.3509
 9473SOL    HW129239   1.651   3.956   5.641 -0.2209  0.9396 -0.8022
 9473SOL    HW229240   1.734   4.096   5.655  0.7879  0.3199 -0.5389
 9474SOL     OW29241   1.459   4.183   2.899  0.4424  0.0304  0.1951
 9474SOL    HW129242   1.403   4.242   2.841 -1.2148 -0.9433  0.7250
 9474SOL    HW229243   1.434   4.196   2.995  0.0189 -1.4980  0.3267
 9475SOL     OW29244   4.673   3.942   5.617 -0.2201  1.0497  0.0087
 9475SOL    HW129245   4.595   3.997   5.584 -1.1222 -0.0824  0.1672
 9475SOL    HW229246   4.639   3.866   5.672  0.9276 -0.0520 -0.7370
 9476SOL     OW29247   0.546   4.697   4.210  0.6204 -0.2546 -0.8947
 9476SOL    HW129248   0.504   4.788   4.205 -1.2422 -0.8551  1.7530
 9476SOL    HW229249   0.530   4.648   4.124 -0.5397  1.0291 -1.4501
 9477SOL     OW29250   2.158   5.143   6.949 -0.5351  0.2817 -0.1954
 9477SOL    HW129251   2.121   5.189   7.030  0.7859  2.3728 -0.7341
 9477SOL    HW229252   2.088   5.142   6.877 -0.9694  0.4741  0.2161
 9478SOL     OW29253   0.370   4.246   6.705  0.1051  0.3185 -0.0837
 9478SOL    HW129254   0.437   4.299   6.653 -1.3465  2.4191  0.0787
 9478SOL    HW229255   0.279   4.285   6.691 -1.0596 -2.1617  0.0633
 9479SOL     OW29256   1.690   0.069   5.876 -0.1411  0.4517  0.5465
 9479SOL    HW129257   1.590   0.070   5.863 -0.0573  0.0018 -0.1544
 9479SOL    HW229258   1.727   0.157   5.845 -0.2461  0.3542  0.1235
 9480SOL     OW29259   5.236   1.088   4.019 -0.0140  0.1942 -0.1076
 9480SOL    HW129260   5.147   1.130   4.039  0.8734  0.9886  2.6262
 9480SOL    HW229261   5.237   0.995   4.055  0.2080  0.1246 -0.2922
 9481SOL     OW29262   0.807   3.286   4.314  1.0217 -0.4324 -0.2528
 9481SOL    HW129263   0.869   3.363   4.303  1.7691 -1.1075 -0.9520
 9481SOL    HW229264   0.848   3.205   4.271 -1.8057 -0.1483 -3.9008
 9482SOL     OW29265   1.851   4.262   0.394  0.2697 -0.0117 -0.0525
 9482SOL    HW129266   1.838   4.361   0.403  0.4236  0.0516 -0.5383
 9482SOL    HW229267   1.898   4.242   0.309  0.7881 -0.4617  0.3365
 9483SOL     OW29268   6.481   2.034   2.885  0.8957  0.5629 -0.5486
 9483SOL    HW129269   6.569   1.999   2.917  0.5711  0.9761  0.8682
 9483SOL    HW229270   6.483   2.043   2.785  1.3146 -2.5413 -0.9117
 9484SOL     OW29271   2.089   4.789   3.445 -0.0702 -0.3352  0.7380
 9484SOL    HW129272   2.048   4.698   3.454 -0.5927 -0.1911 -0.0441
 9484SOL    HW229273   2.018   4.858   3.459  0.2621 -0.0514  1.0236
 9485SOL     OW29274   0.153   2.376   0.171 -0.5913 -0.3946 -0.4328
 9485SOL    HW129275   0.202   2.296   0.204 -2.3133 -2.0572 -1.6575
 9485SOL    HW229276   0.081   2.348   0.108 -0.9014  2.1890 -1.3880
 9486SOL     OW29277   3.026   3.324   0.088  0.3446  0.2579  0.1463
 9486SOL    HW129278   3.119   3.291   0.108  0.0997 -1.9266 -1.8273
 9486SOL    HW229279   3.032   3.405   0.030  1.0277  0.1400  0.0341
 9487SOL     OW29280   3.841   4.626   5.092  0.5266 -0.0533 -0.2158
 9487SOL    HW129281   3.797   4.612   5.181  0.4220  1.6429  0.0256
 9487SOL    HW229282   3.834   4.543   5.038  2.0444 -1.7119  1.9799
 9488SOL     OW29283   3.052   1.401   2.765 -0.6173 -0.1773 -0.1549
 9488SOL    HW129284   3.115   1.477   2.778  1.0554 -1.6490  0.6847
 9488SOL    HW229285   3.019   1.400   2.671  0.3900  0.7936 -0.5329
 9489SOL     OW29286   4.814   0.450   0.208 -0.0411 -1.1049  0.0909
 9489SOL    HW129287   4.750   0.510   0.256 -0.1027 -0.6592 -0.5505
 9489SOL    HW229288   4.768   0.363   0.188 -0.8180 -0.3844 -1.3557
 9490SOL     OW29289   5.670   4.250   5.407 -0.3572 -0.3801 -0.1108
 9490SOL    HW129290   5.660   4.297   5.319  1.3681  0.1224 -0.0906
 9490SOL    HW229291   5.654   4.315   5.481 -0.8471 -0.5638 -0.0517
 9491SOL     OW29292   5.348   1.140   2.660 -0.1969 -0.6079  0.2886
 9491SOL    HW129293   5.370   1.208   2.729 -0.0371 -1.2019  0.8299
 9491SOL    HW229294   5.283   1.179   2.595  0.5799  0.3507  0.0726
 9492SOL     OW29295   5.573   5.185   0.828 -0.4895 -0.2964  0.2398
 9492SOL    HW129296   5.597   5.244   0.751  0.8570 -2.5755 -1.2525
 9492SOL    HW229297   5.475   5.189   0.845 -0.3750  2.6915  0.5992
 9493SOL     OW29298   4.534   2.462   3.012  0.3842 -0.3822  0.5466
 9493SOL    HW129299   4.477   2.499   3.085 -0.7489 -0.1969 -0.3819
 9493SOL    HW229300   4.575   2.537   2.960  0.2883 -0.4854  0.3188
 9494SOL     OW29301   1.227   3.657   5.670  0.1865 -1.0995  0.0464
 9494SOL    HW129302   1.177   3.698   5.594 -0.3702  0.0996  1.0117
 9494SOL    HW229303   1.218   3.716   5.751  1.9759 -1.6048  0.6463
 9495SOL     OW29304   1.151   6.054   5.122  0.1687  0.2208 -0.3673
 9495SOL    HW129305   1.105   5.970   5.093  0.2572 -0.2520  0.8362
 9495SOL    HW229306   1.248   6.036   5.136  0.2069  0.5538 -0.1906
 9496SOL     OW29307   2.777   6.549   3.706 -0.0694 -0.2971  0.2341
 9496SOL    HW129308   2.687   6.513   3.731  0.0844 -0.1028  1.1026
 9496SOL    HW229309   2.766   6.623   3.640 -0.8833  2.3042  3.0629
 9497SOL     OW29310   1.309   4.395   0.370 -0.0213  0.4347  0.0637
 9497SOL    HW129311   1.261   4.401   0.458 -0.2531  0.4090 -0.0577
 9497SOL    HW229312   1.344   4.302   0.358 -1.9196 -0.2250 -0.8441
 9498SOL     OW29313   6.373   6.760   2.320  0.1208  0.0490 -0.2078
 9498SOL    HW129314   6.393   6.736   2.225 -1.0853 -1.7886 -0.0292
 9498SOL    HW229315   6.458   6.758   2.373  0.7488  0.7432 -1.1480
 9499SOL     OW29316   4.411   0.908   4.857  0.4357 -0.1387 -0.1277
 9499SOL    HW129317   4.495   0.920   4.804  1.6317 -1.7758  1.2993
 9499SOL    HW229318   4.379   0.814   4.847 -1.4548  0.5259 -0.8776
 9500SOL     OW29319   4.488   4.764   6.869  0.5999 -0.1070 -0.0377
 9500SOL    HW129320   4.547   4.713   6.932  1.8347  1.6923  0.3615
 9500SOL    HW229321   4.402   4.716   6.858  0.6886 -0.9541  2.3555
 9501SOL     OW29322   4.718   6.569   6.007 -0.6278  0.3718 -0.7192
 9501SOL    HW129323   4.645   6.619   6.053  0.4083 -0.2257  1.7377
 9501SOL    HW229324   4.693   6.472   6.001  0.7667 -0.3072  2.2839
 9502SOL     OW29325   5.785   6.987   1.831  0.1369 -0.0814 -0.0012
 9502SOL    HW129326   5.869   6.941   1.859  1.0722  1.2228 -0.6084
 9502SOL    HW229327   5.760   6.958   1.738  0.0162 -0.3137  0.1014
 9503SOL     OW29328   2.246   1.168   4.088  0.2086  0.1201 -0.0543
 9503SOL    HW129329   2.236   1.263   4.119  0.5095  0.0966  0.1219
 9503SOL    HW229330   2.157   1.124   4.087 -0.0396  0.6252 -0.8599
 9504SOL     OW29331   3.816   4.053   2.989 -0.2854  0.4274  0.0025
 9504SOL    HW129332   3.843   4.084   2.897  0.1799 -2.7204 -1.0467
 9504SOL    HW229333   3.740   4.109   3.022 -0.7472  1.4032 -2.4709
 9505SOL     OW29334   0.767   4.794   5.356  0.1155 -0.2831  0.2550
 9505SOL    HW129335   0.844   4.803   5.293 -0.7312  0.7042 -0.6867
 9505SOL    HW229336   0.793   4.831   5.445  1.4544 -2.0482  0.6495
 9506SOL     OW29337   6.188   5.875   6.625  0.2300 -0.3029  0.1068
 9506SOL    HW129338   6.200   5.802   6.558 -1.8727 -0.5800 -0.0369
 9506SOL    HW229339   6.145   5.838   6.707 -2.4863  0.9845 -0.6207
 9507SOL     OW29340   6.114   0.984   3.697 -0.1555  0.3070 -0.7063
 9507SOL    HW129341   6.108   1.029   3.786 -2.0707 -2.6415  0.8323
 9507SOL    HW229342   6.068   1.039   3.628 -1.4230  1.2408  0.8229
 9508SOL     OW29343   6.824   3.750   0.582 -0.0005 -0.0414 -0.2475
 9508SOL    HW129344   6.921   3.740   0.562 -0.2318 -2.3947 -0.3630
 9508SOL    HW229345   6.812   3.789   0.674  0.9996  4.0190 -1.6226
 9509SOL     OW29346   4.143   3.162   0.038  0.0509  0.0308 -0.1974
 9509SOL    HW129347   4.230   3.202   0.012  0.3029 -0.2572  0.2075
 9509SOL    HW229348   4.077   3.174  -0.037 -0.0353  1.6483  0.1462
 9510SOL     OW29349   5.726   1.088   2.917 -0.3981 -0.0637 -0.1119
 9510SOL    HW129350   5.788   1.158   2.881 -1.1379 -0.0806 -1.5212
 9510SOL    HW229351   5.721   1.012   2.852 -3.3134  0.7975 -1.0756
 9511SOL     OW29352   4.839   0.201   1.186  0.1765  0.0957 -0.2537
 9511SOL    HW129353   4.898   0.194   1.105 -2.2053 -0.0438 -2.0897
 9511SOL    HW229354   4.796   0.113   1.204  0.5237  0.1727  1.0940
 9512SOL     OW29355   1.792   0.287   0.928 -0.2253 -0.3836  0.4554
 9512SOL    HW129356   1.819   0.191   0.928 -2.6571 -1.1103  0.1540
 9512SOL    HW229357   1.776   0.317   1.022  0.3132 -0.3190  0.5316
 9513SOL     OW29358   1.843   3.851   0.931  0.1546  0.6633  0.0626
 9513SOL    HW129359   1.853   3.862   0.832  5.4325  1.1590  0.3339
 9513SOL    HW229360   1.848   3.753   0.954  2.7883  0.6751 -0.1334
 9514SOL     OW29361   3.051   3.484   6.039  0.2795  0.0144 -0.1099
 9514SOL    HW129362   2.958   3.473   6.075  0.3435  0.9644  0.3669
 9514SOL    HW229363   3.048   3.533   5.953  0.4305  1.2529  0.5710
 9515SOL     OW29364   6.339   5.946   3.621 -0.4411  0.2436  0.2643
 9515SOL    HW129365   6.429   5.974   3.586 -0.2340  1.1324  1.4013
 9515SOL    HW229366   6.291   6.026   3.656 -0.8356 -0.4888  1.4661
 9516SOL     OW29367   0.309   1.559   5.496  0.5289 -0.0258 -0.0601
 9516SOL    HW129368   0.269   1.614   5.422  3.0004  2.9433  0.6041
 9516SOL    HW229369   0.386   1.506   5.459  0.8597  0.3428  0.0921
 9517SOL     OW29370   0.712   6.522   6.712  0.3560  0.3612 -0.3964
 9517SOL    HW129371   0.651   6.591   6.674 -1.0745 -0.0065  1.0949
 9517SOL    HW229372   0.722   6.537   6.811  3.8807  1.2467 -0.7760
 9518SOL     OW29373   1.331   3.693   6.364  0.5342 -0.2171 -0.1620
 9518SOL    HW129374   1.285   3.660   6.447  2.4029 -1.2196  0.5208
 9518SOL    HW229375   1.430   3.685   6.376  0.9151  1.7468 -1.6357
 9519SOL     OW29376   0.590   2.575   4.191 -0.3266 -0.4280  0.1935
 9519SOL    HW129377   0.502   2.564   4.144 -0.0237  0.1076 -0.5109
 9519SOL    HW229378   0.660   2.601   4.125 -0.2295  2.1024  1.1645
 9520SOL     OW29379   1.800   1.174   5.953 -0.3856  0.0637 -0.1036
 9520SOL    HW129380   1.740   1.100   5.985 -0.3349  0.3699  0.7246
 9520SOL    HW229381   1.824   1.158   5.857  1.3071 -2.1700  0.5976
 9521SOL     OW29382   3.614   6.037   5.993  0.0390  0.2286  0.1074
 9521SOL    HW129383   3.633   5.945   5.959 -3.6749 -0.8512  0.4947
 9521SOL    HW229384   3.525   6.068   5.958 -0.8775  1.7979  3.4792
 9522SOL     OW29385   3.184   0.084   4.497  0.3890 -0.0611 -0.0991
 9522SOL    HW129386   3.213  -0.011   4.508  1.1386  0.2326  0.3214
 9522SOL    HW229387   3.091   0.087   4.461  0.8452 -0.9523 -1.4319
 9523SOL     OW29388   1.857   3.925   0.202 -0.6901  0.4610  0.1572
 9523SOL    HW129389   1.768   3.924   0.157 -0.2807  2.3842 -0.8601
 9523SOL    HW229390   1.891   4.019   0.207  1.3160 -0.2060  0.4476
 9524SOL     OW29391   4.316   0.358   0.057 -0.2132 -0.1558 -0.1682
 9524SOL    HW129392   4.275   0.391  -0.028  0.3273 -1.4032 -0.9052
 9524SOL    HW229393   4.396   0.302   0.037  1.2058  1.2561  1.2590
 9525SOL     OW29394   5.931   3.868   2.006 -0.3326  0.1359 -0.1447
 9525SOL    HW129395   6.027   3.855   1.980 -0.5085 -1.3455 -0.0842
 9525SOL    HW229396   5.895   3.948   1.958  0.4992 -0.1756 -1.3346
 9526SOL     OW29397   4.247   5.671   6.243  0.0212  0.3314  0.0029
 9526SOL    HW129398   4.264   5.742   6.175 -0.8800  0.2508 -0.3328
 9526SOL    HW229399   4.333   5.639   6.282  0.6282 -0.1697 -1.6707
 9527SOL     OW29400   5.701   3.000   0.435 -0.0715 -0.9635 -0.2338
 9527SOL    HW129401   5.728   2.938   0.361 -1.4694 -1.5110 -0.3056
 9527SOL    HW229402   5.679   2.947   0.516  0.1041 -0.4484  0.1582
 9528SOL     OW29403   4.145   4.546   2.204  0.4270 -0.6544 -0.0923
 9528SOL    HW129404   4.240   4.562   2.231  0.1974 -3.0442  2.6153
 9528SOL    HW229405   4.087   4.543   2.285 -1.9870  0.6417 -1.6774
 9529SOL     OW29406   2.146   2.923   6.939  0.0655  0.3247 -0.6127
 9529SOL    HW129407   2.171   3.017   6.965  1.2188 -0.4252  1.1947
 9529SOL    HW229408   2.162   2.911   6.841  2.1345  1.3745 -0.4814
 9530SOL     OW29409   0.332   4.089   4.035 -0.3956 -0.1869  0.2059
 9530SOL    HW129410   0.266   4.115   3.965 -2.1940 -0.9270  1.5221
 9530SOL    HW229411   0.342   3.990   4.037 -0.9047 -0.2445  1.3740
 9531SOL     OW29412   4.573   1.705   4.624  0.6853 -0.2119  0.1256
 9531SOL    HW129413   4.626   1.624   4.598 -0.1743 -0.3716 -1.2556
 9531SOL    HW229414   4.554   1.702   4.722 -0.6277 -2.5005 -0.1213
 9532SOL     OW29415   4.930   0.264   2.435 -0.8262  0.1096 -0.1843
 9532SOL    HW129416   4.999   0.192   2.434  0.9393  1.6706 -2.4455
 9532SOL    HW229417   4.856   0.241   2.372 -0.4493  0.0849 -0.6259
 9533SOL     OW29418   6.931   1.910   4.155 -0.4523  0.0451 -0.1483
 9533SOL    HW129419   7.017   1.926   4.203  0.7427 -0.8460 -1.9426
 9533SOL    HW229420   6.865   1.981   4.181  1.0006  1.1055  0.8193
 9534SOL     OW29421   2.409   0.512   3.573  0.1397  0.8086  0.1238
 9534SOL    HW129422   2.427   0.577   3.646 -2.2383  1.3287  0.3260
 9534SOL    HW229423   2.412   0.558   3.485 -1.3906  1.2094  0.2547
 9535SOL     OW29424   0.488   3.120   0.097  0.2575  0.2093  0.5425
 9535SOL    HW129425   0.508   3.025   0.121 -0.5804 -0.1550 -0.1232
 9535SOL    HW229426   0.534   3.143   0.011 -1.7635 -0.5021 -0.7794
 9536SOL     OW29427   5.326   6.900   2.308 -0.3100  0.1261 -1.0630
 9536SOL    HW129428   5.311   6.814   2.259  0.4964  0.2463 -1.5376
 9536SOL    HW229429   5.388   6.958   2.256 -1.6539  1.4431 -1.2469
 9537SOL     OW29430   0.565   2.308   3.749  0.3553  0.7005  0.1143
 9537SOL    HW129431   0.550   2.233   3.814  0.6967  0.9103  0.4370
 9537SOL    HW229432   0.570   2.395   3.799 -0.1251  0.9500 -0.2661
 9538SOL     OW29433   6.423   0.934   1.909 -0.8576 -0.4788  0.1219
 9538SOL    HW129434   6.488   0.876   1.859  1.5008  0.9620  1.3547
 9538SOL    HW229435   6.440   1.030   1.886 -2.9905 -0.0860  0.0460
 9539SOL     OW29436   5.717   2.178   1.327  0.7094 -0.1703  0.1624
 9539SOL    HW129437   5.648   2.250   1.323  1.3224  0.4562  1.0123
 9539SOL    HW229438   5.782   2.190   1.252  0.9403  0.2857  0.4362
 9540SOL     OW29439   0.399   2.711   4.388  0.1013  0.2427  0.1379
 9540SOL    HW129440   0.474   2.657   4.351 -1.3568 -0.7947 -1.4244
 9540SOL    HW229441   0.434   2.770   4.461  2.5132  0.1656 -0.8510
 9541SOL     OW29442   0.434   4.913   4.484  0.6948 -0.0556 -0.3475
 9541SOL    HW129443   0.524   4.929   4.524  0.1260  0.0062  0.9610
 9541SOL    HW229444   0.436   4.936   4.387  2.1888 -0.4503 -0.4309
 9542SOL     OW29445   5.756   2.403   4.829 -0.8793 -0.6067  0.1077
 9542SOL    HW129446   5.670   2.384   4.782 -1.6236  1.2446  0.6476
 9542SOL    HW229447   5.746   2.483   4.888  1.2813 -0.1708 -0.0097
 9543SOL     OW29448   1.478   4.255   4.058 -0.0044  0.7711  0.6532
 9543SOL    HW129449   1.559   4.302   4.025  0.7768  0.5496  2.1694
 9543SOL    HW229450   1.503   4.165   4.093 -1.0683  0.2808  0.2056
 9544SOL     OW29451   6.184   6.418   2.733 -0.3614  0.4092 -0.8701
 9544SOL    HW129452   6.246   6.492   2.759 -1.0284  1.7474 -2.8548
 9544SOL    HW229453   6.237   6.335   2.716  0.8864  1.4108 -2.1065
 9545SOL     OW29454   3.933   2.342   6.293 -0.1239 -0.4193 -0.3108
 9545SOL    HW129455   3.863   2.413   6.290 -0.4817 -0.6491  1.3176
 9545SOL    HW229456   3.889   2.253   6.306  0.4361 -0.4108  2.7813
 9546SOL     OW29457   4.883   4.045   1.446  0.7412  0.3601  0.2608
 9546SOL    HW129458   4.894   4.116   1.377 -0.2683 -0.0923 -0.3904
 9546SOL    HW229459   4.799   4.061   1.498  1.3497  0.5389  1.2036
 9547SOL     OW29460   5.269   6.292   4.155  0.0707  0.1269 -0.5692
 9547SOL    HW129461   5.250   6.231   4.078 -0.4761  0.5375 -0.7615
 9547SOL    HW229462   5.201   6.277   4.227  1.2679 -1.1364  0.3865
 9548SOL     OW29463   1.918   5.228   3.294  0.1240 -0.1123 -0.4671
 9548SOL    HW129464   1.999   5.171   3.284 -0.3104 -0.7564 -0.4370
 9548SOL    HW229465   1.946   5.323   3.308  0.8559 -0.2384 -0.9798
 9549SOL     OW29466   6.122   4.430   6.611  0.3159 -0.9770 -0.5058
 9549SOL    HW129467   6.164   4.427   6.520 -1.1400 -0.7363 -1.2034
 9549SOL    HW229468   6.124   4.524   6.645 -1.2031 -0.6515 -1.2884
 9550SOL     OW29469   5.420   5.563   6.619  0.3954 -0.1422  0.2177
 9550SOL    HW129470   5.405   5.653   6.661 -2.5006 -1.3606  2.1059
 9550SOL    HW229471   5.376   5.560   6.530  1.6416  0.6829 -0.4471
 9551SOL     OW29472   5.929   3.939   3.416  0.8140 -0.1315 -0.4345
 9551SOL    HW129473   6.006   3.941   3.480  0.4510 -2.3260  0.1492
 9551SOL    HW229474   5.908   3.844   3.391 -1.4258  0.4283 -0.9280
 9552SOL     OW29475   3.943   3.025   5.681  0.5203  0.0293  0.3259
 9552SOL    HW129476   3.920   2.971   5.762 -2.0268  0.2061 -0.1921
 9552SOL    HW229477   3.988   3.110   5.710  1.1274 -0.6296  1.3988
 9553SOL     OW29478   2.604   3.602   3.069  0.2030 -0.0393  0.8490
 9553SOL    HW129479   2.567   3.681   3.118 -0.6472  1.5125 -2.0516
 9553SOL    HW229480   2.700   3.589   3.093  0.8765  2.9733  0.2216
 9554SOL     OW29481   5.620   3.529   0.012  0.2992  0.0074  0.1225
 9554SOL    HW129482   5.603   3.603   0.076 -0.2044  1.0778 -1.2116
 9554SOL    HW229483   5.700   3.476   0.042  1.6631  2.0396  0.2819
 9555SOL     OW29484   0.944   0.914   5.927 -0.2854 -0.3474  0.4938
 9555SOL    HW129485   0.870   0.847   5.932 -1.3000  0.7637  0.6048
 9555SOL    HW229486   1.031   0.870   5.950 -1.0785 -1.3798  1.5527
 9556SOL     OW29487   5.673   2.182   6.061  0.0752  0.2980 -0.5687
 9556SOL    HW129488   5.617   2.159   6.140  1.1553  0.9168  0.4353
 9556SOL    HW229489   5.702   2.278   6.067  0.3989  0.2788 -1.5688
 9557SOL     OW29490   1.621   1.643   4.528 -0.2276  0.0107  0.2731
 9557SOL    HW129491   1.631   1.575   4.601  0.3196 -0.7750 -0.4992
 9557SOL    HW229492   1.698   1.706   4.530  0.6906 -1.0460 -0.6512
 9558SOL     OW29493   2.944   5.338   2.570 -0.7928  0.0632 -0.4437
 9558SOL    HW129494   2.974   5.393   2.492  0.1921  0.1351 -0.0240
 9558SOL    HW229495   2.983   5.247   2.563 -1.5053 -0.2418 -0.5411
 9559SOL     OW29496   1.318   1.063   0.993 -0.0186  0.0522 -0.9027
 9559SOL    HW129497   1.327   0.971   0.954 -1.1337 -0.6977  0.5394
 9559SOL    HW229498   1.259   1.118   0.934 -1.5556 -1.0158 -0.4245
 9560SOL     OW29499   1.420   4.776   4.724 -0.3352  0.2792  0.0133
 9560SOL    HW129500   1.449   4.870   4.743  1.1226 -0.0301 -0.5259
 9560SOL    HW229501   1.384   4.770   4.632  0.9761  0.0531 -0.5156
 9561SOL     OW29502   0.645   1.512   4.944  0.0297  0.2890 -0.8143
 9561SOL    HW129503   0.584   1.588   4.926 -0.8105 -0.4010 -0.9256
 9561SOL    HW229504   0.668   1.508   5.041 -0.4989  0.2631 -0.6887
 9562SOL     OW29505   5.948   2.822   5.056  0.1072 -0.4077 -0.0545
 9562SOL    HW129506   5.907   2.904   5.097 -0.7924  0.1977 -1.9956
 9562SOL    HW229507   6.025   2.792   5.111 -0.9907  0.3397  1.9970
 9563SOL     OW29508   3.684   0.108   4.077  0.3068  0.1813 -0.1051
 9563SOL    HW129509   3.741   0.125   3.997  0.3687 -1.2574 -0.3889
 9563SOL    HW229510   3.592   0.144   4.061  0.2863 -0.2056 -0.8771
 9564SOL     OW29511   1.950   1.907   6.196 -0.1923  0.3712  0.4953
 9564SOL    HW129512   2.036   1.956   6.209  0.2587 -0.3199  0.1944
 9564SOL    HW229513   1.952   1.820   6.246 -1.2197  0.9235  1.5310
 9565SOL     OW29514   0.937   3.935   4.967  0.1839 -0.2692 -0.4519
 9565SOL    HW129515   1.023   3.980   4.945  1.3617 -1.2573  1.7682
 9565SOL    HW229516   0.871   3.951   4.894  2.3893  0.0866 -2.4982
 9566SOL     OW29517   0.342   2.540   2.786 -0.1196 -0.1686  0.1885
 9566SOL    HW129518   0.370   2.635   2.780  1.8565 -0.5210  2.3000
 9566SOL    HW229519   0.264   2.531   2.849  0.0784 -0.0085  0.4558
 9567SOL     OW29520   4.404   3.329   1.737 -0.6706  0.5438 -0.5812
 9567SOL    HW129521   4.417   3.360   1.831 -0.3388  0.5759 -0.6373
 9567SOL    HW229522   4.400   3.408   1.675  2.0319  0.4483 -0.9655
 9568SOL     OW29523   1.198   3.463   0.252 -0.2515  0.0335 -0.6544
 9568SOL    HW129524   1.204   3.501   0.159  2.9378  0.1916 -0.5091
 9568SOL    HW229525   1.146   3.526   0.310 -3.0685 -0.4805 -2.4141
 9569SOL     OW29526   6.845   2.741   3.095  0.4968 -1.1022  0.1936
 9569SOL    HW129527   6.884   2.719   3.184 -0.2638 -0.5495  0.6815
 9569SOL    HW229528   6.816   2.836   3.094  1.1682 -0.8890 -0.9138
 9570SOL     OW29529   1.234   2.117   2.931 -0.7028 -0.3662  0.5423
 9570SOL    HW129530   1.170   2.046   2.958 -1.0745 -0.1198  0.3144
 9570SOL    HW229531   1.306   2.077   2.874 -1.5328 -0.3772 -0.5324
 9571SOL     OW29532   4.122   5.185   3.962 -0.2234  0.3539 -0.6246
 9571SOL    HW129533   4.090   5.268   3.916  0.7467  0.1201 -1.7617
 9571SOL    HW229534   4.106   5.106   3.904  1.1378  0.0672 -0.6405
 9572SOL     OW29535   0.120   2.044   0.512  0.4142  0.2614  0.0939
 9572SOL    HW129536   0.203   2.076   0.557  0.0396 -1.4192  2.1384
 9572SOL    HW229537   0.124   1.944   0.503 -1.1896  0.1897 -0.1608
 9573SOL     OW29538   6.697   4.893   6.596 -0.0857  0.4107  0.3239
 9573SOL    HW129539   6.742   4.946   6.668  0.6371  0.3913 -0.1135
 9573SOL    HW229540   6.687   4.949   6.514  0.7432 -0.1282 -0.1634
 9574SOL     OW29541   5.031   4.086   4.554 -0.0439 -0.5692  0.1474
 9574SOL    HW129542   5.113   4.141   4.538 -1.0787  1.0197  0.0918
 9574SOL    HW229543   4.970   4.093   4.475 -1.2010  0.0718  1.0566
 9575SOL     OW29544   0.833   2.147   3.105 -0.1691  0.1787  0.5269
 9575SOL    HW129545   0.912   2.207   3.092 -0.3575  0.8661  2.3358
 9575SOL    HW229546   0.765   2.165   3.034  0.7004  0.5500 -0.2276
 9576SOL     OW29547   4.261   0.848   0.024 -0.0557  0.6181  0.1670
 9576SOL    HW129548   4.293   0.871  -0.068 -0.6358  0.3500 -0.0834
 9576SOL    HW229549   4.314   0.771   0.060 -0.4800  0.0560 -0.3656
 9577SOL     OW29550   1.215   0.158   4.619  0.3021 -0.4802  0.6242
 9577SOL    HW129551   1.204   0.130   4.524 -1.0493  1.2068  0.2267
 9577SOL    HW229552   1.173   0.090   4.679  1.2200 -1.5908  0.0517
 9578SOL     OW29553   4.089   2.897   0.078  0.3905  0.4735  0.4008
 9578SOL    HW129554   4.113   2.994   0.071 -1.8208  1.2766  2.2880
 9578SOL    HW229555   4.170   2.844   0.105  1.7118  1.7004 -0.9701
 9579SOL     OW29556   0.366   5.297   2.657 -0.0429 -0.2063  0.5329
 9579SOL    HW129557   0.321   5.239   2.589 -1.0094 -0.3088  1.2362
 9579SOL    HW229558   0.299   5.324   2.727  0.9681 -0.2928  1.5736
 9580SOL     OW29559   2.496   6.453   5.892 -0.1073  0.0698  0.1188
 9580SOL    HW129560   2.410   6.423   5.933 -0.3314  2.8269  1.9016
 9580SOL    HW229561   2.478   6.503   5.808 -0.0440 -0.9771 -0.5434
 9581SOL     OW29562   0.008   0.865   4.381 -0.1801 -0.5971 -0.1887
 9581SOL    HW129563  -0.014   0.809   4.460 -1.2796  0.0246 -0.0383
 9581SOL    HW229564   0.067   0.814   4.318 -0.1066 -1.4493  0.5690
 9582SOL     OW29565   5.268   1.966   4.919 -0.8058  0.1569 -0.4136
 9582SOL    HW129566   5.195   1.899   4.927 -0.9018  0.2950 -0.1114
 9582SOL    HW229567   5.347   1.925   4.875 -0.3613 -0.5499  1.0071
 9583SOL     OW29568   6.499   4.865   4.810 -0.3004  0.1151  0.1900
 9583SOL    HW129569   6.482   4.890   4.715  0.2728 -1.4228 -0.3500
 9583SOL    HW229570   6.597   4.863   4.827 -0.2760 -1.6652  0.1597
 9584SOL     OW29571   2.841   4.099   1.667  0.4169  0.1652  0.6414
 9584SOL    HW129572   2.929   4.139   1.644 -0.3904  1.6002 -0.0960
 9584SOL    HW229573   2.854   4.003   1.693  1.9709 -0.1519 -1.1212
 9585SOL     OW29574   2.807   0.559   4.985  0.2505 -0.3395  0.4591
 9585SOL    HW129575   2.758   0.504   4.916  0.3733 -0.1447  0.2113
 9585SOL    HW229576   2.740   0.605   5.043  0.1362 -0.3263  0.3224
 9586SOL     OW29577   3.704   3.668   1.505 -0.4298  0.0472  0.5401
 9586SOL    HW129578   3.667   3.727   1.577 -1.5094  0.6201 -0.4519
 9586SOL    HW229579   3.787   3.709   1.467 -0.8815  0.6921  0.2178
 9587SOL     OW29580   5.883   3.269   4.947  0.0997 -0.1940  0.4435
 9587SOL    HW129581   5.862   3.289   5.043  1.5733 -0.8061  0.9345
 9587SOL    HW229582   5.835   3.187   4.918 -0.0292 -0.2422  0.7853
 9588SOL     OW29583   5.720   6.993   5.630  0.4538  0.5412 -0.4526
 9588SOL    HW129584   5.651   6.922   5.647 -0.0439  0.7502 -1.4354
 9588SOL    HW229585   5.753   7.029   5.717  0.6767 -0.8385  0.0703
 9589SOL     OW29586   6.515   1.389   1.092 -0.4620  0.5020 -0.4140
 9589SOL    HW129587   6.427   1.433   1.109 -1.2873 -1.0977 -0.4040
 9589SOL    HW229588   6.570   1.392   1.175 -1.3416 -0.3000  0.2187
 9590SOL     OW29589   3.603   4.278   4.684 -0.3460  0.4183  0.5003
 9590SOL    HW129590   3.664   4.339   4.734 -1.3909  1.0320  1.0472
 9590SOL    HW229591   3.517   4.324   4.664 -0.0829  0.1042 -1.6610
 9591SOL     OW29592   6.182   1.236   1.598  0.2636 -1.0953 -0.1928
 9591SOL    HW129593   6.238   1.272   1.524  1.8087  0.1327  1.4815
 9591SOL    HW229594   6.101   1.294   1.609  0.2414 -1.0376 -0.6246
 9592SOL     OW29595   4.447   0.983   4.435  0.2062  0.2046 -0.1016
 9592SOL    HW129596   4.420   0.983   4.339 -0.2335 -1.3433 -0.0128
 9592SOL    HW229597   4.432   0.891   4.473 -0.2108  0.9424  1.6031
 9593SOL     OW29598   1.407   2.778   4.032 -0.2275 -0.1520  0.1719
 9593SOL    HW129599   1.362   2.848   3.977 -0.7329  0.0930  0.8888
 9593SOL    HW229600   1.380   2.688   3.999  0.4582 -0.0211 -0.7777
 9594SOL     OW29601   5.039   0.502   0.403 -0.5118  0.2302  0.1044
 9594SOL    HW129602   5.135   0.476   0.392 -0.8235 -0.8397 -0.2228
 9594SOL    HW229603   4.990   0.485   0.317 -1.0855  0.3387  0.4090
 9595SOL     OW29604   4.817   4.615   3.228 -0.1828  0.4917 -0.5009
 9595SOL    HW129605   4.790   4.694   3.173  1.9478  1.7784  0.2382
 9595SOL    HW229606   4.748   4.599   3.299 -0.2929  2.1440 -0.2057
 9596SOL     OW29607   2.578   3.257   0.444 -0.2002  0.3218  0.3935
 9596SOL    HW129608   2.606   3.346   0.480  0.7331  0.1473  0.1237
 9596SOL    HW229609   2.648   3.189   0.464 -1.7247 -0.7888  2.2164
 9597SOL     OW29610   6.449   2.405   4.780  0.0467 -0.2835 -0.6745
 9597SOL    HW129611   6.536   2.435   4.740 -0.0934  0.1471 -0.6569
 9597SOL    HW229612   6.383   2.390   4.707  0.3643 -1.3815 -0.7581
 9598SOL     OW29613   2.353   2.329   5.020  0.7056 -0.7010  0.0255
 9598SOL    HW129614   2.379   2.268   4.946  0.0163 -0.7660 -0.1661
 9598SOL    HW229615   2.389   2.421   5.002 -1.4137 -0.1121 -1.6012
 9599SOL     OW29616   1.175   4.973   6.320 -0.6240  0.5920  0.3211
 9599SOL    HW129617   1.227   4.929   6.394 -0.2206  0.2755 -0.1405
 9599SOL    HW229618   1.083   4.935   6.317 -0.5335  0.3575  0.4433
 9600SOL     OW29619   2.218   3.375   0.536  0.2400 -0.8677  0.1515
 9600SOL    HW129620   2.142   3.435   0.510  0.5559 -0.7567 -0.5447
 9600SOL    HW229621   2.183   3.297   0.588 -0.1252  0.1172  1.4110
 9601SOL     OW29622   0.994   1.846   1.406  0.0374 -0.2333 -0.1270
 9601SOL    HW129623   1.046   1.826   1.489  1.8621 -0.6271 -1.3048
 9601SOL    HW229624   0.917   1.782   1.399 -1.1184  0.7900  1.9990
 9602SOL     OW29625   2.902   2.325   6.917 -0.3141 -0.3134 -0.2300
 9602SOL    HW129626   2.946   2.406   6.878  0.7807  1.6508  4.4916
 9602SOL    HW229627   2.965   2.247   6.912  1.1263  0.7569  0.6141
 9603SOL     OW29628   3.619   0.062   1.506 -0.0526  0.1322  0.1535
 9603SOL    HW129629   3.605   0.091   1.412 -1.3437  3.1956  1.1482
 9603SOL    HW229630   3.547  -0.002   1.533 -0.4233  0.2689 -0.5638
 9604SOL     OW29631   2.362   3.398   5.073 -0.2540  0.0044 -0.7560
 9604SOL    HW129632   2.297   3.450   5.129  1.7800  2.2118 -0.2900
 9604SOL    HW229633   2.408   3.329   5.129  0.5569  1.0704 -0.0438
 9605SOL     OW29634   0.108   1.220   2.769 -0.1974 -0.1569 -0.0859
 9605SOL    HW129635   0.031   1.189   2.825 -0.1074 -0.8096 -0.3194
 9605SOL    HW229636   0.074   1.281   2.697 -0.6758 -1.3681 -0.9270
 9606SOL     OW29637   4.861   1.069   4.882  0.7618  0.6524 -0.1768
 9606SOL    HW129638   4.875   1.162   4.848  0.3934  1.1284  0.9316
 9606SOL    HW229639   4.930   1.048   4.952 -0.0504  0.6242  0.6184
 9607SOL     OW29640   1.429   4.809   2.264  0.3424  0.1809 -0.2961
 9607SOL    HW129641   1.421   4.712   2.286  1.0881  0.3907  0.9764
 9607SOL    HW229642   1.498   4.821   2.192  0.5201 -0.1904 -0.1888
 9608SOL     OW29643   2.980   5.181   2.961  0.1793  0.1030 -0.0620
 9608SOL    HW129644   3.048   5.169   2.889  0.2505  0.2723 -0.0249
 9608SOL    HW229645   3.021   5.232   3.037  0.0472  0.0986  0.0128
 9609SOL     OW29646   3.439   4.065   5.329  0.4836  0.4626  0.2750
 9609SOL    HW129647   3.388   4.011   5.261  0.5426  1.8640 -0.9347
 9609SOL    HW229648   3.494   4.004   5.386  0.5937 -0.7567 -1.0783
 9610SOL     OW29649   4.510   0.321   2.740  0.2252 -0.2520  0.2365
 9610SOL    HW129650   4.526   0.334   2.838 -0.4131 -0.2543  0.3483
 9610SOL    HW229651   4.504   0.224   2.719  0.9413 -0.2692  0.0925
 9611SOL     OW29652   0.392   2.116   4.559  0.5881  0.0322  0.5742
 9611SOL    HW129653   0.378   2.071   4.471  1.6374  0.6440  0.0795
 9611SOL    HW229654   0.482   2.160   4.560 -0.1046  1.5103  1.2946
 9612SOL     OW29655   4.546   0.436   6.320  0.2855 -0.1129 -0.1343
 9612SOL    HW129656   4.636   0.470   6.292 -0.4546  2.3085  0.2972
 9612SOL    HW229657   4.549   0.412   6.417  1.0285 -2.1955 -0.6214
 9613SOL     OW29658   1.422   5.738   0.477 -0.1248 -0.4398  0.5320
 9613SOL    HW129659   1.437   5.683   0.559 -0.8869 -1.6898 -0.1168
 9613SOL    HW229660   1.483   5.817   0.477 -0.5831 -0.0280  2.6238
 9614SOL     OW29661   6.366   5.746   2.575 -0.0495 -0.5227 -0.2566
 9614SOL    HW129662   6.383   5.790   2.662  0.3813 -1.1889  0.0076
 9614SOL    HW229663   6.297   5.797   2.524 -0.9120 -0.5790  0.8279
 9615SOL     OW29664   6.427   4.091   1.498  0.0625  0.1165  0.1726
 9615SOL    HW129665   6.386   4.081   1.408 -1.4315 -0.2473  0.8668
 9615SOL    HW229666   6.495   4.165   1.496 -1.4663  1.5363 -0.7294
 9616SOL     OW29667   3.381   6.262   3.422 -0.3739 -0.0781 -0.7619
 9616SOL    HW129668   3.445   6.218   3.486  0.5286  1.6303 -0.4232
 9616SOL    HW229669   3.400   6.229   3.330  0.6414 -0.0380 -0.5936
 9617SOL     OW29670   4.003   2.117   0.383 -0.1282 -0.0362 -0.2050
 9617SOL    HW129671   4.076   2.053   0.362 -0.4784  0.1016 -2.0130
 9617SOL    HW229672   3.982   2.113   0.481  2.7534  0.4585  0.5327
 9618SOL     OW29673   4.767   1.739   5.743  0.0734  0.8991  0.2827
 9618SOL    HW129674   4.738   1.775   5.654  0.7977  3.1377  0.8851
 9618SOL    HW229675   4.744   1.642   5.749 -2.1390  1.2434 -1.4150
 9619SOL     OW29676   2.858   6.748   3.866  0.6469 -0.1007 -0.3345
 9619SOL    HW129677   2.830   6.832   3.821 -1.3322 -0.7716 -0.4159
 9619SOL    HW229678   2.833   6.669   3.810  2.1642 -0.8018 -0.1077
 9620SOL     OW29679   1.970   3.047   4.552  1.0111  0.0124 -0.1022
 9620SOL    HW129680   1.914   2.988   4.495  0.8493 -0.2718  0.3405
 9620SOL    HW229681   2.014   2.993   4.624 -0.8141  0.6904  1.6153
 9621SOL     OW29682   5.898   5.913   3.154 -0.0223  0.5154  0.8735
 9621SOL    HW129683   5.913   5.816   3.139  2.3214  0.7033  1.6448
 9621SOL    HW229684   5.810   5.939   3.115  0.9024 -1.1425 -2.8191
 9622SOL     OW29685   3.772   1.874   4.441 -0.0476  0.0371 -0.1618
 9622SOL    HW129686   3.701   1.909   4.502  0.5542  1.2890 -0.1567
 9622SOL    HW229687   3.731   1.806   4.379 -1.5416  1.5955 -0.9719
 9623SOL     OW29688   3.262   5.172   2.067  0.3170  0.4850  0.3396
 9623SOL    HW129689   3.266   5.153   1.969  0.1609  0.9037  0.2508
 9623SOL    HW229690   3.278   5.088   2.118  2.3865  0.6114 -0.0287
 9624SOL     OW29691   0.188   2.297   3.290  0.0325 -0.1644  0.2696
 9624SOL    HW129692   0.142   2.229   3.348 -0.2628  1.3715  1.9124
 9624SOL    HW229693   0.214   2.376   3.345 -0.6343  1.5672 -1.7644
 9625SOL     OW29694   3.963   3.846   4.296  0.0058 -0.1488 -0.1008
 9625SOL    HW129695   3.960   3.911   4.220 -2.9500 -1.5126 -1.2961
 9625SOL    HW229696   3.994   3.757   4.262  2.1707  0.0989  1.1166
 9626SOL     OW29697   1.421   1.371   4.593 -0.6839 -0.0884 -0.4020
 9626SOL    HW129698   1.470   1.392   4.678 -1.6619  1.7694 -0.2502
 9626SOL    HW229699   1.482   1.322   4.531 -0.2208 -2.3935  1.6918
 9627SOL     OW29700   6.773   5.591   5.912 -0.3464  0.8008  0.3323
 9627SOL    HW129701   6.686   5.592   5.863  0.1726  0.2804 -0.6257
 9627SOL    HW229702   6.759   5.552   6.003 -1.2096  1.2284  0.3962
 9628SOL     OW29703   0.811   2.641   6.641 -0.2442 -0.0780  0.5276
 9628SOL    HW129704   0.785   2.681   6.729 -2.0773  0.7818 -0.3527
 9628SOL    HW229705   0.817   2.713   6.572 -1.2703 -0.9940 -0.5790
 9629SOL     OW29706   3.483   3.685   4.674  0.6408 -0.1514 -0.3293
 9629SOL    HW129707   3.535   3.765   4.644 -1.8158  2.3152  1.3852
 9629SOL    HW229708   3.458   3.630   4.595  0.7268  1.9292 -1.8848
 9630SOL     OW29709   0.267   5.196   1.798 -0.1503  0.5437 -0.4279
 9630SOL    HW129710   0.261   5.149   1.710 -2.0902 -1.2373  0.5774
 9630SOL    HW229711   0.331   5.272   1.790  1.8746 -1.2355 -2.5986
 9631SOL     OW29712   5.356   3.022   6.949  0.5384 -0.5443 -0.6519
 9631SOL    HW129713   5.431   2.964   6.914  0.6957 -0.4096 -0.5397
 9631SOL    HW229714   5.356   3.019   7.049  0.1153 -0.8960 -0.6898
 9632SOL     OW29715   4.238   3.392   4.516  0.4019  0.0078  0.3447
 9632SOL    HW129716   4.319   3.449   4.532  0.3869 -0.3184  1.7430
 9632SOL    HW229717   4.247   3.307   4.568  0.1484 -1.0311 -1.2414
 9633SOL     OW29718   5.101   2.070   1.926 -0.1368  0.3299 -0.7262
 9633SOL    HW129719   5.135   1.977   1.916  1.8321  1.0500 -1.3350
 9633SOL    HW229720   5.164   2.123   1.983 -0.2652  1.7339 -1.8380
 9634SOL     OW29721   5.168   3.679   4.965  0.6753 -0.2716 -0.0637
 9634SOL    HW129722   5.249   3.728   4.996  0.1088  1.0137 -0.5136
 9634SOL    HW229723   5.126   3.729   4.889 -1.5894  0.1299  1.3322
 9635SOL     OW29724   5.993   2.954   0.904  0.1715  0.0507 -0.0329
 9635SOL    HW129725   5.992   3.048   0.941  1.7203 -0.3836  1.2465
 9635SOL    HW229726   6.083   2.934   0.868  0.2759 -1.3443  0.9044
 9636SOL     OW29727   6.973   0.015   3.769 -0.1972 -0.0087 -0.0314
 9636SOL    HW129728   6.987   0.110   3.796 -1.4675  0.5460 -1.2318
 9636SOL    HW229729   7.061  -0.025   3.741  0.5563  0.3806  1.7614
 9637SOL     OW29730   6.464   2.104   6.970 -0.6529 -0.0535  0.0520
 9637SOL    HW129731   6.414   2.063   6.893 -0.6667  1.2856 -0.6867
 9637SOL    HW229732   6.500   2.032   7.029 -0.6290 -1.1279 -1.2246
 9638SOL     OW29733   5.296   4.590   3.926  1.1340  0.3055  0.2868
 9638SOL    HW129734   5.215   4.546   3.886  1.0194  0.1665  0.6607
 9638SOL    HW229735   5.366   4.520   3.944  1.2998  0.4109  0.0538
 9639SOL     OW29736   4.337   6.966   5.664 -0.3329  0.0681  0.4708
 9639SOL    HW129737   4.250   6.920   5.686  0.5277 -1.2248  1.3193
 9639SOL    HW229738   4.411   6.924   5.717  0.6231  2.0231  0.7744
 9640SOL     OW29739   3.134   3.813   4.770  0.4882 -0.4032 -0.5525
 9640SOL    HW129740   3.186   3.731   4.794  0.0616 -0.9593 -1.4506
 9640SOL    HW229741   3.187   3.894   4.794 -0.0655 -0.8226  2.6815
 9641SOL     OW29742   2.700   3.949   5.857  0.8062  0.0237  0.0309
 9641SOL    HW129743   2.617   3.920   5.809  1.0488 -1.4807  0.4647
 9641SOL    HW229744   2.695   4.047   5.876 -0.6638  0.0444 -0.3470
 9642SOL     OW29745   1.440   5.008   3.684 -0.3893  0.0025 -0.4665
 9642SOL    HW129746   1.483   5.084   3.732 -2.2877 -0.5531  2.3461
 9642SOL    HW229747   1.354   5.037   3.644 -1.1870 -0.6324  0.7288
 9643SOL     OW29748   1.837   4.223   2.565  0.1433  0.4569 -0.6243
 9643SOL    HW129749   1.890   4.221   2.649 -0.2472  1.0345 -0.3577
 9643SOL    HW229750   1.740   4.236   2.586  0.2053  2.1329 -1.2005
 9644SOL     OW29751   4.996   3.207   1.708  0.6374 -0.4566 -0.0596
 9644SOL    HW129752   4.960   3.138   1.772  0.7545 -1.3737 -0.9575
 9644SOL    HW229753   5.031   3.161   1.627 -2.4556  0.8170 -2.3311
 9645SOL     OW29754   3.800   2.638   0.431  0.0952  0.5575  0.2959
 9645SOL    HW129755   3.822   2.554   0.382 -1.0906 -0.5565  1.5925
 9645SOL    HW229756   3.872   2.706   0.416  1.3946 -0.8910 -0.2347
 9646SOL     OW29757   6.760   2.405   1.434 -0.3923  0.1272 -0.2940
 9646SOL    HW129758   6.699   2.408   1.514 -1.4302 -0.0183 -1.0464
 9646SOL    HW229759   6.771   2.498   1.398  0.4254  0.2604  0.2752
 9647SOL     OW29760   1.185   5.983   6.997  0.2918 -0.6719 -0.5830
 9647SOL    HW129761   1.233   5.905   7.038  2.8299  1.2819  0.3739
 9647SOL    HW229762   1.086   5.972   7.010  0.7395 -1.8346  3.1539
 9648SOL     OW29763   1.426   4.708   5.735  0.1238  0.4726  0.3616
 9648SOL    HW129764   1.475   4.774   5.677  0.9412  0.4541  1.0106
 9648SOL    HW229765   1.347   4.673   5.685 -0.4085  2.0231  0.0480
 9649SOL     OW29766   0.389   1.900   5.152  0.1227 -0.0922 -0.0758
 9649SOL    HW129767   0.473   1.937   5.192 -1.2760  2.4284  0.7237
 9649SOL    HW229768   0.347   1.968   5.092  0.0825 -2.3662 -2.7914
 9650SOL     OW29769   1.291   6.697   0.842  0.4162  0.1680 -0.0965
 9650SOL    HW129770   1.232   6.696   0.922  2.4104 -0.0656  1.4648
 9650SOL    HW229771   1.319   6.603   0.820  0.1159  0.2584 -0.9126
 9651SOL     OW29772   5.766   0.792   2.720 -0.0364  0.5884 -0.3282
 9651SOL    HW129773   5.814   0.717   2.765  0.1818  1.8023  1.5692
 9651SOL    HW229774   5.825   0.834   2.651  0.1649 -0.3829 -0.7620
 9652SOL     OW29775   6.496   2.716   5.717 -0.7205 -0.1274  0.6003
 9652SOL    HW129776   6.505   2.767   5.802  1.3755 -0.1113  0.4221
 9652SOL    HW229777   6.499   2.618   5.736  1.0465 -0.1395  0.5167
 9653SOL     OW29778   0.509   4.860   5.264 -0.0323  0.0921  0.4794
 9653SOL    HW129779   0.607   4.866   5.285  0.4219 -0.5457 -1.2885
 9653SOL    HW229780   0.475   4.770   5.290  0.0256  0.0250  0.3314
 9654SOL     OW29781   3.630   4.853   0.182 -0.0162  0.1696 -0.8317
 9654SOL    HW129782   3.657   4.942   0.218  0.3427  0.2880 -1.3764
 9654SOL    HW229783   3.534   4.855   0.154  0.0618  0.4688 -1.0878
 9655SOL     OW29784   3.757   5.049   1.970  0.3504 -0.2385 -0.1476
 9655SOL    HW129785   3.701   5.109   1.913 -0.5232 -0.2398  0.6857
 9655SOL    HW229786   3.698   4.980   2.014  1.2512 -1.3434 -0.6217
 9656SOL     OW29787   0.119   2.879   3.666  0.1184 -0.2698 -0.3623
 9656SOL    HW129788   0.182   2.858   3.592 -0.7320  0.0857 -1.2070
 9656SOL    HW229789   0.034   2.828   3.654 -0.9776  1.6179 -1.0283
 9657SOL     OW29790   3.755   2.514   2.124  0.4214  0.4444  0.5638
 9657SOL    HW129791   3.685   2.539   2.191  0.3809  0.6166  0.4602
 9657SOL    HW229792   3.762   2.415   2.119  1.8662  0.4010  2.3105
 9658SOL     OW29793   2.466   5.408   5.813  0.0514 -0.1610  0.2914
 9658SOL    HW129794   2.427   5.395   5.904  0.2737 -1.3750  0.2389
 9658SOL    HW229795   2.450   5.502   5.783 -0.5869  0.0805  1.3101
 9659SOL     OW29796   1.457   2.017   1.943 -0.1758 -0.2750 -0.3834
 9659SOL    HW129797   1.470   2.019   2.042 -0.7455  0.5733 -0.3141
 9659SOL    HW229798   1.410   1.933   1.917 -2.2262  0.5871  0.3677
 9660SOL     OW29799   2.874   2.511   2.933 -0.1765 -0.8120  0.1231
 9660SOL    HW129800   2.845   2.472   2.846  0.9142 -1.0498 -0.1433
 9660SOL    HW229801   2.859   2.445   3.007  1.8387 -1.8882 -0.3493
 9661SOL     OW29802   4.493   2.042   4.778 -0.2562  0.3198  0.0912
 9661SOL    HW129803   4.479   2.011   4.872 -0.1940  2.6489  0.9375
 9661SOL    HW229804   4.591   2.047   4.759 -0.1545  2.3816  0.8885
 9662SOL     OW29805   6.409   6.703   2.069  0.1993 -0.6339 -0.4301
 9662SOL    HW129806   6.492   6.751   2.042  0.3810  0.2948  1.6472
 9662SOL    HW229807   6.390   6.629   2.003  1.4365  0.5048 -2.1266
 9663SOL     OW29808   0.983   6.191   2.885 -0.5345  0.1240 -0.0293
 9663SOL    HW129809   0.925   6.230   2.814 -0.5240 -1.6226 -1.0476
 9663SOL    HW229810   1.070   6.240   2.889 -1.3905  1.6659  0.3516
 9664SOL     OW29811   1.350   6.515   6.979  0.0433 -0.0919  0.1553
 9664SOL    HW129812   1.256   6.523   7.013  0.1864  0.1015  0.5172
 9664SOL    HW229813   1.414   6.537   7.053  0.3686  0.1185 -0.2133
 9665SOL     OW29814   0.517   5.960   0.872  1.0310  0.4778 -0.1659
 9665SOL    HW129815   0.486   5.941   0.779  1.7592 -0.1973 -0.2898
 9665SOL    HW229816   0.533   5.874   0.920  2.0929  0.7957  0.0843
 9666SOL     OW29817   1.317   4.759   4.468 -0.0351 -0.4828 -0.2237
 9666SOL    HW129818   1.342   4.663   4.460 -1.6328 -0.8659 -1.0919
 9666SOL    HW229819   1.219   4.766   4.490 -0.1446  0.9271 -1.0420
 9667SOL     OW29820   5.670   0.654   3.102  0.2841  0.5438 -0.4776
 9667SOL    HW129821   5.620   0.619   3.022 -1.9795  0.1778  1.0002
 9667SOL    HW229822   5.691   0.750   3.089 -0.0064  0.4850 -1.5321
 9668SOL     OW29823   1.505   3.841   5.752 -0.3414  0.3279 -0.0835
 9668SOL    HW129824   1.518   3.744   5.734 -0.2371  0.2594  0.3387
 9668SOL    HW229825   1.415   3.870   5.719  0.0575  0.3404 -1.1958
 9669SOL     OW29826   3.508   6.455   0.980  0.1186  0.0049 -0.1509
 9669SOL    HW129827   3.558   6.530   1.023  0.7372 -0.0364 -0.7857
 9669SOL    HW229828   3.547   6.368   1.011 -0.3816 -0.0501  0.3277
 9670SOL     OW29829   5.494   2.128   5.036  0.7526  0.0491 -0.3042
 9670SOL    HW129830   5.436   2.046   5.032  1.5880 -0.5631 -0.2292
 9670SOL    HW229831   5.456   2.193   5.102 -1.1565  0.7126 -1.8999
 9671SOL     OW29832   0.057   4.698   5.415  0.3849 -0.6371  0.1330
 9671SOL    HW129833   0.137   4.705   5.474  1.2550  0.2704 -1.0993
 9671SOL    HW229834   0.076   4.635   5.339  0.8914  1.3646 -1.5066
 9672SOL     OW29835   3.610   5.457   6.392  0.5042 -0.3478  0.3104
 9672SOL    HW129836   3.651   5.542   6.358 -0.4213 -0.6510 -1.6964
 9672SOL    HW229837   3.524   5.478   6.439 -0.0646 -0.2150 -0.7715
 9673SOL     OW29838   0.324   6.679   1.504 -0.3635 -0.4909 -0.1177
 9673SOL    HW129839   0.301   6.756   1.562 -1.6507  0.2411 -1.5263
 9673SOL    HW229840   0.250   6.612   1.506 -1.2577  0.3376 -2.1478
 9674SOL     OW29841   0.538   4.171   4.503 -0.1119 -0.0813  0.4594
 9674SOL    HW129842   0.545   4.166   4.404  0.5995  0.5517  0.4643
 9674SOL    HW229843   0.454   4.127   4.534 -1.7951  2.1769 -0.6433
 9675SOL     OW29844   6.869   4.626   3.353  0.4035  0.2705 -0.3543
 9675SOL    HW129845   6.897   4.659   3.442 -0.6394 -0.1105  0.1384
 9675SOL    HW229846   6.804   4.690   3.312  1.4888  0.8677 -1.2316
 9676SOL     OW29847   5.990   5.299   3.530 -0.2494 -0.5471  0.6320
 9676SOL    HW129848   5.965   5.390   3.497 -3.0682 -0.7007  2.1011
 9676SOL    HW229849   6.025   5.307   3.624 -0.4625 -0.9999  0.7468
 9677SOL     OW29850   4.583   1.785   0.608  0.2955  0.2604 -0.1726
 9677SOL    HW129851   4.558   1.714   0.542 -1.1431  1.8742 -1.4540
 9677SOL    HW229852   4.659   1.839   0.571  0.3383  0.3843  0.0962
 9678SOL     OW29853   4.300   4.676   2.571 -0.1335 -0.3061  0.8989
 9678SOL    HW129854   4.345   4.625   2.645 -0.3761  0.1313  1.3474
 9678SOL    HW229855   4.222   4.727   2.607  0.3127  0.6661  0.5136
 9679SOL     OW29856   1.635   4.829   2.096 -0.1832  0.2608  0.6878
 9679SOL    HW129857   1.683   4.911   2.129  0.8682 -0.3571  0.7422
 9679SOL    HW229858   1.653   4.816   1.999  0.8318 -0.6851  0.9778
 9680SOL     OW29859   5.998   6.330   3.916 -0.5188  0.0018  0.3556
 9680SOL    HW129860   6.068   6.352   3.984 -0.1438 -1.8972  0.6420
 9680SOL    HW229861   5.914   6.381   3.937  0.1182  0.7191  1.2425
 9681SOL     OW29862   3.492   1.318   6.917  0.2506  0.3746  0.4389
 9681SOL    HW129863   3.479   1.337   7.015  2.2880  2.0775  0.4515
 9681SOL    HW229864   3.423   1.367   6.864  0.6314  1.5143  0.9377
 9682SOL     OW29865   6.868   6.611   1.923  0.4208 -1.4173 -0.8154
 9682SOL    HW129866   6.874   6.564   2.011 -0.7613 -1.4806 -0.7425
 9682SOL    HW229867   6.793   6.571   1.870 -1.5865  1.1686 -0.1950
 9683SOL     OW29868   3.283   5.908   6.277 -0.1447 -0.4198 -0.4084
 9683SOL    HW129869   3.243   5.921   6.186  0.9715 -0.2857 -0.9025
 9683SOL    HW229870   3.379   5.881   6.267  0.0700 -0.1270  0.7405
 9684SOL     OW29871   1.643   3.310   5.608  0.4136  0.8791 -0.3052
 9684SOL    HW129872   1.726   3.258   5.630 -1.8630 -3.0081  0.0026
 9684SOL    HW229873   1.628   3.309   5.509 -1.1592 -1.9914 -0.1516
 9685SOL     OW29874   5.753   3.841   5.062 -0.1911 -0.3837 -0.4772
 9685SOL    HW129875   5.785   3.934   5.077 -2.6715  0.4649  0.0997
 9685SOL    HW229876   5.732   3.798   5.150 -1.6556 -0.4575 -0.8308
 9686SOL     OW29877   5.172   2.302   3.741  0.1073  0.4885  0.5239
 9686SOL    HW129878   5.145   2.281   3.647 -0.2328  1.8455  0.3046
 9686SOL    HW229879   5.218   2.391   3.744  1.1479 -0.0577  1.4779
 9687SOL     OW29880   6.311   1.488   2.933 -0.0901 -0.5363 -0.1249
 9687SOL    HW129881   6.221   1.484   2.975 -0.5175 -0.5503 -1.0200
 9687SOL    HW229882   6.327   1.406   2.878  0.2930 -0.3491 -0.3018
 9688SOL     OW29883   3.360   5.579   1.858  0.4693 -0.0173 -0.5983
 9688SOL    HW129884   3.301   5.531   1.922  1.7947 -0.1226  0.5912
 9688SOL    HW229885   3.338   5.551   1.764 -0.3963 -1.0944 -0.0877
 9689SOL     OW29886   6.330   3.333   6.137  0.2045  1.3168 -0.8439
 9689SOL    HW129887   6.263   3.383   6.192 -2.9234 -1.7086 -1.5301
 9689SOL    HW229888   6.400   3.294   6.197 -1.5404  0.3705  0.6864
 9690SOL     OW29889   1.416   2.185   4.461 -0.1969  0.2941  0.2339
 9690SOL    HW129890   1.413   2.147   4.553 -0.0577  2.1900  1.0622
 9690SOL    HW229891   1.339   2.248   4.449  0.0200  0.3713 -0.8222
 9691SOL     OW29892   0.338   3.362   3.373  0.1983  0.6120  0.3095
 9691SOL    HW129893   0.341   3.462   3.373  0.4695  0.6387  2.0265
 9691SOL    HW229894   0.243   3.332   3.382  0.3330  0.8206  3.2904
 9692SOL     OW29895   5.989   1.902   1.616 -0.4972 -0.0081 -0.3765
 9692SOL    HW129896   6.047   1.844   1.558 -1.9925 -0.2735 -1.6442
 9692SOL    HW229897   6.039   1.923   1.701  0.4962 -2.2813 -0.3187
 9693SOL     OW29898   5.279   3.572   1.153  0.1181  0.2924  0.0663
 9693SOL    HW129899   5.184   3.557   1.126  0.0577 -0.0965  0.4671
 9693SOL    HW229900   5.282   3.618   1.242  0.3004  0.0033  0.2159
 9694SOL     OW29901   2.954   2.828   3.787  0.8391 -0.2681  0.4958
 9694SOL    HW129902   2.999   2.841   3.876 -0.5643  2.2145  0.9117
 9694SOL    HW229903   2.927   2.732   3.778  0.6322 -0.5086  2.9492
 9695SOL     OW29904   2.990   1.038   0.520 -0.3594 -0.0449  0.4007
 9695SOL    HW129905   2.984   0.988   0.433 -0.4022 -0.5629  0.7002
 9695SOL    HW229906   3.054   1.115   0.509 -1.9055  1.1353 -0.6727
 9696SOL     OW29907   0.068   3.848   4.977  0.1385 -0.0423 -0.0334
 9696SOL    HW129908  -0.024   3.884   4.961 -0.7027 -2.4839 -1.0512
 9696SOL    HW229909   0.071   3.804   5.067  0.2121 -0.1910 -0.1073
 9697SOL     OW29910   2.868   0.365   2.479  0.1163  0.0331  0.7609
 9697SOL    HW129911   2.888   0.305   2.402  1.1322  1.4181 -0.0939
 9697SOL    HW229912   2.949   0.372   2.537 -0.9841 -1.9562  2.7112
 9698SOL     OW29913   2.724   2.671   3.396 -0.2664 -0.0582  0.3419
 9698SOL    HW129914   2.682   2.586   3.363 -1.5155  1.4963 -2.3106
 9698SOL    HW229915   2.681   2.697   3.483 -0.9184 -1.3241  0.4326
 9699SOL     OW29916   5.086   1.479   1.843 -0.3210  0.1018 -0.0522
 9699SOL    HW129917   5.170   1.429   1.866 -1.2207 -0.8330  1.3322
 9699SOL    HW229918   5.065   1.544   1.915 -0.6851  0.4687 -0.4859
 9700SOL     OW29919   1.252   0.084   1.698 -0.0906 -0.5018  0.6362
 9700SOL    HW129920   1.318   0.154   1.672 -0.0903 -0.8324 -0.3165
 9700SOL    HW229921   1.252   0.011   1.629 -1.9564 -0.1593  0.1979
 9701SOL     OW29922   3.217   1.405   6.854 -0.5722 -0.0494 -0.5790
 9701SOL    HW129923   3.159   1.325   6.875 -0.3805  0.1275  0.7270
 9701SOL    HW229924   3.204   1.474   6.925  2.6379 -0.7700  0.9509
 9702SOL     OW29925   6.614   5.252   3.868  0.6520 -0.0296 -0.3168
 9702SOL    HW129926   6.612   5.341   3.914  1.0160 -0.7441  1.1257
 9702SOL    HW229927   6.701   5.207   3.887  0.4637 -0.7106 -1.0182
 9703SOL     OW29928   5.368   2.517   6.028 -0.3709  0.6670  0.4296
 9703SOL    HW129929   5.373   2.419   6.014 -1.7642  0.6363  0.0727
 9703SOL    HW229930   5.352   2.563   5.941 -2.7388  0.9474  0.9298
 9704SOL     OW29931   3.661   0.072   5.792  0.0092  0.3235  0.3050
 9704SOL    HW129932   3.755   0.101   5.810  0.4199 -0.8481  0.1446
 9704SOL    HW229933   3.599   0.113   5.859  0.5257  1.6693 -0.0260
 9705SOL     OW29934   2.172   3.306   2.481 -0.0823 -0.2069  0.2103
 9705SOL    HW129935   2.170   3.375   2.553  0.7513  0.5655 -0.4786
 9705SOL    HW229936   2.176   3.215   2.522 -1.5306  0.1099  1.1310
 9706SOL     OW29937   3.660   1.105   3.473  0.1702 -0.3036 -0.2837
 9706SOL    HW129938   3.589   1.144   3.532  0.8218 -1.0460  1.0614
 9706SOL    HW229939   3.749   1.142   3.500  1.0715 -3.8618  2.2722
 9707SOL     OW29940   1.107   1.129   3.462 -0.2830  0.2063  0.1050
 9707SOL    HW129941   1.074   1.035   3.453 -0.5263  0.2823  0.1941
 9707SOL    HW229942   1.029   1.192   3.458 -0.3257  0.3057  1.7897
 9708SOL     OW29943   2.320   0.157   4.923 -0.3194 -0.3162 -0.0544
 9708SOL    HW129944   2.367   0.120   5.002  1.2820  1.3733 -0.1461
 9708SOL    HW229945   2.257   0.229   4.952  0.4372  0.4629 -0.3097
 9709SOL     OW29946   5.756   4.758   3.600 -0.4110  0.5122 -0.1066
 9709SOL    HW129947   5.759   4.855   3.576  1.0217  1.3581  2.9622
 9709SOL    HW229948   5.691   4.744   3.674  1.6310 -0.2132  1.6629
 9710SOL     OW29949   0.303   1.734   2.913  0.1333 -0.0457  0.1323
 9710SOL    HW129950   0.356   1.811   2.948 -0.5830  0.9208 -0.8097
 9710SOL    HW229951   0.324   1.721   2.816 -0.2450 -0.6289  0.1245
 9711SOL     OW29952   3.189   5.433   2.017 -0.0273  0.0634  0.2939
 9711SOL    HW129953   3.222   5.343   2.047 -0.4370  0.4002  1.8035
 9711SOL    HW229954   3.111   5.420   1.955  1.5686 -0.6661 -1.6589
 9712SOL     OW29955   4.931   4.285   6.558  0.5077  0.1369 -0.3058
 9712SOL    HW129956   4.837   4.277   6.526  1.0300  0.6186 -2.0543
 9712SOL    HW229957   4.959   4.200   6.602 -0.2501 -0.5672 -1.1576
 9713SOL     OW29958   6.443   1.721   6.230 -0.2306  0.1023  0.4628
 9713SOL    HW129959   6.497   1.759   6.155 -0.2209 -1.7701 -0.5481
 9713SOL    HW229960   6.494   1.646   6.273 -1.9679 -1.8156 -0.5976
 9714SOL     OW29961   3.234   0.593   1.414 -0.4648  0.5514 -0.3134
 9714SOL    HW129962   3.145   0.575   1.458  0.7067 -0.6739  1.6921
 9714SOL    HW229963   3.283   0.507   1.400  1.9997  1.4047  2.2322
 9715SOL     OW29964   3.224   4.239   6.885  0.0492 -0.2097 -0.0212
 9715SOL    HW129965   3.171   4.159   6.858 -1.3682 -0.2443  2.4690
 9715SOL    HW229966   3.289   4.213   6.957  0.9377  0.5154 -0.5496
 9716SOL     OW29967   2.947   2.497   0.778  0.4305 -0.3178  0.9734
 9716SOL    HW129968   2.868   2.557   0.767 -0.6410 -1.7225  0.6665
 9716SOL    HW229969   3.015   2.520   0.709 -1.2044 -1.2930 -1.1061
 9717SOL     OW29970   0.802   1.836   3.343 -0.3226 -0.0388  0.0142
 9717SOL    HW129971   0.746   1.915   3.318  1.0491  1.3306  1.1454
 9717SOL    HW229972   0.896   1.865   3.356  0.0323 -1.7024  1.4027
 9718SOL     OW29973   2.359   3.488   2.972 -0.7786  0.3504 -0.6900
 9718SOL    HW129974   2.454   3.519   2.975 -0.4982 -0.2292 -2.3849
 9718SOL    HW229975   2.318   3.496   3.063  0.3767  2.1854 -0.2763
 9719SOL     OW29976   6.696   3.467   2.739 -0.0017 -0.2423 -0.2109
 9719SOL    HW129977   6.761   3.538   2.765 -0.9601  0.1975  1.0345
 9719SOL    HW229978   6.733   3.378   2.766 -0.4982  0.1136  1.8050
 9720SOL     OW29979   6.093   6.462   4.545 -0.0455 -0.9286 -0.0065
 9720SOL    HW129980   6.051   6.371   4.541  0.9487 -1.3940 -0.3583
 9720SOL    HW229981   6.166   6.467   4.477 -0.9287  0.5830 -0.8922
 9721SOL     OW29982   6.780   2.359   0.639  0.4473 -0.0930  0.2496
 9721SOL    HW129983   6.722   2.408   0.573 -1.3532  0.2482  2.0135
 9721SOL    HW229984   6.817   2.278   0.595 -0.9723 -0.0572 -1.1034
 9722SOL     OW29985   0.365   0.354   5.787  0.0483 -0.2817  0.0062
 9722SOL    HW129986   0.413   0.432   5.747 -0.1931  0.0324  0.3190
 9722SOL    HW229987   0.412   0.324   5.869 -1.2279  1.1763  1.3559
 9723SOL     OW29988   2.817   3.684   0.811  0.0413  0.0819  0.5463
 9723SOL    HW129989   2.793   3.587   0.814 -0.1925  0.1398  0.5978
 9723SOL    HW229990   2.846   3.714   0.902 -1.2599  0.4032  0.8841
 9724SOL     OW29991   5.056   6.980   4.271 -0.4738  0.2623 -0.3773
 9724SOL    HW129992   5.071   7.078   4.259 -0.4832  0.4427  1.0737
 9724SOL    HW229993   5.133   6.940   4.322 -1.0595 -0.2091  0.1641
 9725SOL     OW29994   0.488   4.008   3.336 -0.8134 -0.1639  0.2601
 9725SOL    HW129995   0.407   4.039   3.287 -1.9644 -1.6424  1.1166
 9725SOL    HW229996   0.544   4.087   3.362 -2.0797  0.9163 -0.1862
 9726SOL     OW29997   2.785   5.594   2.182  0.3195 -0.7370  0.2476
 9726SOL    HW129998   2.819   5.682   2.150  0.8325 -0.9833  0.0876
 9726SOL    HW229999   2.698   5.607   2.230  0.0006 -0.2378 -0.4166
 9727SOL     OW30000   4.591   4.381   0.557 -0.6362 -0.0407  0.8353
 9727SOL    HW130001   4.567   4.462   0.504 -2.6575 -0.1636  1.4580
 9727SOL    HW230002   4.689   4.379   0.575 -0.1708  0.9526 -1.3059
 9728SOL     OW30003   2.060   2.914   6.654 -0.3247 -0.2189 -0.3326
 9728SOL    HW130004   2.023   2.838   6.708  1.4283 -0.0382  1.2178
 9728SOL    HW230005   2.061   2.888   6.557 -0.0391 -2.0871  0.1243
 9729SOL     OW30006   6.097   0.277   3.917  0.5678  0.2426  0.1083
 9729SOL    HW130007   6.119   0.361   3.867  0.4205 -0.5171 -1.2735
 9729SOL    HW230008   6.056   0.211   3.855 -2.0851  0.1918  1.7672
 9730SOL     OW30009   2.832   0.371   0.788  0.2474  0.4237 -0.0654
 9730SOL    HW130010   2.878   0.456   0.815  2.3650 -0.9040  0.7916
 9730SOL    HW230011   2.760   0.351   0.854  1.6659  0.1225  1.5047
 9731SOL     OW30012   3.278   0.553   0.927 -0.2572 -0.6871  0.3263
 9731SOL    HW130013   3.319   0.486   0.865  1.3804 -0.8211  1.4857
 9731SOL    HW230014   3.208   0.508   0.983  0.1358 -1.2048  0.4118
 9732SOL     OW30015   3.386   0.080   0.767  0.2068 -0.4990  0.1548
 9732SOL    HW130016   3.300   0.030   0.759  1.3139 -2.4052 -0.6329
 9732SOL    HW230017   3.444   0.035   0.835  0.8105  0.3959  0.2479
 9733SOL     OW30018   6.608   3.021   3.031  0.7424 -0.0313 -0.3816
 9733SOL    HW130019   6.548   3.100   3.020  1.7656  0.7318 -0.5605
 9733SOL    HW230020   6.587   2.954   2.960 -0.5651 -0.2277  0.1525
 9734SOL     OW30021   2.255   2.184   2.231  0.2526  0.2189 -0.0926
 9734SOL    HW130022   2.336   2.154   2.281  0.4183 -0.0084 -0.4808
 9734SOL    HW230023   2.183   2.114   2.238 -0.0072  0.5202  0.4549
 9735SOL     OW30024   2.321   0.470   6.658  0.3313 -0.3072 -0.2138
 9735SOL    HW130025   2.374   0.554   6.642  0.0840  0.2052  1.4070
 9735SOL    HW230026   2.367   0.416   6.729 -1.0535 -0.0595  0.9110
 9736SOL     OW30027   2.603   4.389   2.694 -0.1154 -0.1222 -0.0027
 9736SOL    HW130028   2.692   4.428   2.715  0.6343 -0.7876 -1.7759
 9736SOL    HW230029   2.557   4.446   2.625  0.0817 -1.1896 -1.0432
 9737SOL     OW30030   6.570   4.737   0.139  0.0197 -0.1780 -0.4294
 9737SOL    HW130031   6.649   4.762   0.083  0.3547 -0.8325 -0.2540
 9737SOL    HW230032   6.486   4.763   0.092  0.3094 -0.2863 -1.0109
 9738SOL     OW30033   4.903   4.000   5.981 -0.6208 -0.2841  0.0087
 9738SOL    HW130034   4.810   3.995   5.944  0.2566  3.8196 -3.6538
 9738SOL    HW230035   4.968   3.975   5.909  1.1726  0.5178  1.2919
 9739SOL     OW30036   4.334   1.591   4.430 -0.0104  0.8582  0.0368
 9739SOL    HW130037   4.293   1.640   4.507  1.8425  0.8676  1.0835
 9739SOL    HW230038   4.434   1.599   4.435  0.3483 -2.2237 -0.2730
 9740SOL     OW30039   3.504   6.385   4.649  0.2327 -0.3063  0.1518
 9740SOL    HW130040   3.550   6.360   4.564  1.9490  0.8876  0.6639
 9740SOL    HW230041   3.414   6.425   4.629 -0.8144 -2.9613 -0.8657
 9741SOL     OW30042   2.628   2.065   1.058  0.3202 -0.1839 -0.2642
 9741SOL    HW130043   2.577   2.083   0.973 -0.3862 -1.4330 -0.1311
 9741SOL    HW230044   2.701   2.133   1.068 -1.2200  1.5958 -0.5301
 9742SOL     OW30045   5.570   3.296   4.375  0.6803 -0.4542  0.3113
 9742SOL    HW130046   5.548   3.308   4.472  0.3122  0.5464  0.1096
 9742SOL    HW230047   5.659   3.338   4.356 -0.4321  1.8104 -0.3117
 9743SOL     OW30048   0.114   0.850   2.392  0.1327 -0.3768  0.7799
 9743SOL    HW130049   0.082   0.937   2.353 -0.4760 -0.2600  1.5363
 9743SOL    HW230050   0.037   0.788   2.403 -0.0619  0.2093  3.3911
 9744SOL     OW30051   5.994   0.232   3.496  0.2774 -0.5344 -0.5284
 9744SOL    HW130052   6.061   0.171   3.455  0.4701 -0.4730 -0.3052
 9744SOL    HW230053   5.997   0.224   3.595  1.0103  0.5666 -0.4461
 9745SOL     OW30054   3.765   5.125   1.568 -0.3072 -0.2635 -0.3853
 9745SOL    HW130055   3.757   5.029   1.595 -2.1595  0.0854  0.4529
 9745SOL    HW230056   3.703   5.144   1.492 -1.4690  0.7033  0.7658
 9746SOL     OW30057   0.999   5.742   4.681 -0.1083  0.1103  0.0359
 9746SOL    HW130058   1.078   5.686   4.703 -0.2306 -0.1422 -0.1478
 9746SOL    HW230059   1.027   5.837   4.671  0.1448  0.0470  0.1147
 9747SOL     OW30060   5.236   4.521   5.309  0.3615  0.2335 -0.2222
 9747SOL    HW130061   5.144   4.512   5.271  0.3533 -0.9720  0.0380
 9747SOL    HW230062   5.273   4.611   5.287 -0.0189 -0.0650 -2.2051
 9748SOL     OW30063   6.744   6.859   2.659  0.2166 -0.0296 -0.2399
 9748SOL    HW130064   6.825   6.918   2.662  0.3199 -0.1490 -0.5502
 9748SOL    HW230065   6.726   6.823   2.750  0.0063  0.6773  0.0018
 9749SOL     OW30066   4.562   4.440   5.423  0.2708 -0.0787  0.2817
 9749SOL    HW130067   4.556   4.508   5.351 -2.0528  0.6091  1.0227
 9749SOL    HW230068   4.606   4.357   5.388 -0.5717  0.3111 -1.8738
 9750SOL     OW30069   5.531   6.641   1.597 -0.0412 -0.4407 -0.1493
 9750SOL    HW130070   5.509   6.668   1.691 -1.1876  1.7151 -0.9743
 9750SOL    HW230071   5.628   6.617   1.591  0.1814 -0.0357  1.4405
 9751SOL     OW30072   6.414   4.501   3.668  0.5329 -0.0571  0.1202
 9751SOL    HW130073   6.432   4.452   3.583  0.5660  1.6738 -0.9353
 9751SOL    HW230074   6.315   4.515   3.679  0.6331  1.9214 -1.0161
 9752SOL     OW30075   4.947   5.358   5.800  0.2048 -0.1388 -0.3730
 9752SOL    HW130076   4.896   5.299   5.737  0.3644  0.3220 -0.9497
 9752SOL    HW230077   4.987   5.302   5.872 -0.9578 -0.5409 -0.0069
 9753SOL     OW30078   2.015   5.996   2.537  0.0574 -0.2524 -0.1659
 9753SOL    HW130079   2.044   5.901   2.520  1.5495  0.1566 -0.0608
 9753SOL    HW230080   2.094   6.057   2.527 -0.5196  0.8005  1.3831
 9754SOL     OW30081   2.402   2.419   0.302 -0.3001 -0.2085  0.2578
 9754SOL    HW130082   2.411   2.337   0.358  1.5067 -0.4966 -0.3811
 9754SOL    HW230083   2.383   2.393   0.208  3.0699 -0.1755 -0.5729
 9755SOL     OW30084   0.344   2.560   0.064 -0.6641 -0.1987 -0.2835
 9755SOL    HW130085   0.285   2.515   0.131 -1.0523  2.0970  1.0652
 9755SOL    HW230086   0.334   2.516  -0.025 -2.3860 -1.5182  0.5195
 9756SOL     OW30087   3.145   3.264   3.566  0.0690  0.7094 -0.0958
 9756SOL    HW130088   3.073   3.196   3.579 -1.8146  2.2443 -2.0117
 9756SOL    HW230089   3.228   3.233   3.613 -1.3095 -1.8876  0.8177
 9757SOL     OW30090   2.001   6.108   6.532 -0.3987 -0.7465 -0.1923
 9757SOL    HW130091   2.031   6.184   6.590 -0.6890  0.1279 -1.1579
 9757SOL    HW230092   2.029   6.022   6.574  1.1340 -0.0653  0.2749
 9758SOL     OW30093   2.001   4.814   5.825  0.0508  0.8127  0.2597
 9758SOL    HW130094   2.066   4.884   5.854 -0.4115  1.5047 -0.3499
 9758SOL    HW230095   2.050   4.731   5.798  0.5578  0.5522  1.8670
 9759SOL     OW30096   5.772   3.940   6.598  0.0049  0.5867 -0.4750
 9759SOL    HW130097   5.815   4.024   6.565  0.1029  0.5981 -0.3206
 9759SOL    HW230098   5.674   3.954   6.609  0.1012  0.8690  0.1243
 9760SOL     OW30099   4.013   0.258   5.048 -0.3133  0.0575 -0.3108
 9760SOL    HW130100   4.067   0.190   4.998 -0.9917  0.5750 -1.7941
 9760SOL    HW230101   3.940   0.293   4.989 -2.7703 -1.1526  1.8224
 9761SOL     OW30102   4.638   4.322   6.559  0.1899 -0.5392 -0.0699
 9761SOL    HW130103   4.642   4.421   6.543 -1.8530 -0.2176  1.0761
 9761SOL    HW230104   4.569   4.281   6.499 -0.9167 -0.7881  1.3101
 9762SOL     OW30105   6.359   4.247   4.294 -0.8560 -0.1279 -0.1155
 9762SOL    HW130106   6.317   4.303   4.365  1.6893  1.7982 -0.0329
 9762SOL    HW230107   6.397   4.164   4.335 -0.3570  0.4438  0.5875
 9763SOL     OW30108   6.926   2.598   0.007 -0.2545 -0.1814 -0.1252
 9763SOL    HW130109   6.989   2.663   0.049 -0.2989  0.1331 -0.5387
 9763SOL    HW230110   6.842   2.593   0.061  0.3448 -1.0483  0.7636
 9764SOL     OW30111   1.582   5.053   5.159  0.4838  0.2323  0.2350
 9764SOL    HW130112   1.634   5.005   5.088  1.4393  2.2126 -0.4652
 9764SOL    HW230113   1.530   4.986   5.213  0.6473 -1.4295 -1.5647
 9765SOL     OW30114   2.667   0.884   2.693 -0.1013 -0.7888  0.0728
 9765SOL    HW130115   2.578   0.842   2.676 -0.3902 -1.2426  2.3889
 9765SOL    HW230116   2.739   0.818   2.676 -0.2834 -0.8459 -0.4927
 9766SOL     OW30117   4.704   5.401   3.636  0.2667 -0.4420  0.3580
 9766SOL    HW130118   4.779   5.427   3.696 -0.3338 -1.2572  1.4844
 9766SOL    HW230119   4.617   5.420   3.681 -0.1935 -2.3669  0.3316
 9767SOL     OW30120   1.377   4.417   1.268  0.0103 -0.6427 -0.2010
 9767SOL    HW130121   1.412   4.419   1.175  0.4743 -1.5580 -0.0535
 9767SOL    HW230122   1.333   4.504   1.288 -1.8562 -1.0972 -1.9486
 9768SOL     OW30123   0.054   4.323   2.088 -0.3410  0.5687 -0.8075
 9768SOL    HW130124   0.095   4.404   2.046  1.1181 -0.1204 -0.7259
 9768SOL    HW230125   0.037   4.254   2.019  0.3315  0.1561 -0.5777
 9769SOL     OW30126   6.101   1.993   4.387 -0.1443 -0.0736 -0.0942
 9769SOL    HW130127   6.084   2.019   4.482 -0.5773 -0.9312  0.0750
 9769SOL    HW230128   6.064   1.901   4.371  0.4423 -0.1673 -0.9368
 9770SOL     OW30129   1.930   0.588   0.245  0.4801 -0.2941 -0.4949
 9770SOL    HW130130   1.966   0.565   0.155 -2.7849 -1.3766 -1.6559
 9770SOL    HW230131   1.875   0.671   0.238  0.7284 -0.0170  0.6670
 9771SOL     OW30132   5.402   2.181   0.904 -0.6916  0.0867 -0.0126
 9771SOL    HW130133   5.378   2.251   0.971 -0.0025 -2.3178  2.9458
 9771SOL    HW230134   5.500   2.185   0.884 -0.5591 -0.3205  0.5391
 9772SOL     OW30135   2.373   4.759   4.416 -0.0822 -0.2349 -0.0681
 9772SOL    HW130136   2.426   4.679   4.442 -1.2224 -1.3936 -1.1520
 9772SOL    HW230137   2.312   4.735   4.340 -0.5256  1.6363 -0.3453
 9773SOL     OW30138   6.640   6.840   2.403  0.6293  0.2535 -0.3937
 9773SOL    HW130139   6.711   6.820   2.335  0.6237 -1.7427  0.1145
 9773SOL    HW230140   6.681   6.849   2.493  0.4823  1.4835 -0.4417
 9774SOL     OW30141   2.930   0.609   6.673  0.4769  0.0483 -0.0660
 9774SOL    HW130142   2.851   0.643   6.622  0.7737  3.2688  1.4308
 9774SOL    HW230143   3.014   0.632   6.624  0.6749  1.4189  0.8641
 9775SOL     OW30144   5.167   0.492   2.794 -0.6658  0.7273 -0.1669
 9775SOL    HW130145   5.163   0.438   2.878 -1.9423  0.0393 -0.6341
 9775SOL    HW230146   5.133   0.584   2.812  1.1146  1.2941  0.5386
 9776SOL     OW30147   6.605   0.989   4.157  0.1477 -0.0347 -0.1901
 9776SOL    HW130148   6.574   1.060   4.094 -0.3169 -0.4837 -0.4785
 9776SOL    HW230149   6.705   0.986   4.158  0.1688  0.5580 -0.2457
 9777SOL     OW30150   1.132   6.896   3.816 -0.2399 -0.3589 -0.0298
 9777SOL    HW130151   1.107   6.927   3.724  0.4313  0.4811  0.0665
 9777SOL    HW230152   1.198   6.821   3.809 -0.0992 -0.2160 -0.2234
 9778SOL     OW30153   1.389   2.070   4.730 -0.3357 -0.0125 -0.1583
 9778SOL    HW130154   1.436   2.096   4.814 -0.9794  0.3323  0.1068
 9778SOL    HW230155   1.301   2.027   4.754 -0.2509 -0.4478 -0.6386
 9779SOL     OW30156   1.524   6.895   6.897  0.2052  0.3019  0.3712
 9779SOL    HW130157   1.527   6.898   6.797  1.1051 -0.7797  0.3429
 9779SOL    HW230158   1.437   6.931   6.929 -0.3769  0.0204 -0.8347
 9780SOL     OW30159   6.734   6.537   2.424 -0.0672  0.9700 -0.4231
 9780SOL    HW130160   6.655   6.493   2.467  0.5944  1.2773  1.1973
 9780SOL    HW230161   6.703   6.613   2.367 -1.0868 -0.3603 -1.7196
 9781SOL     OW30162   5.857   5.439   6.883  0.1510  0.3563 -0.5328
 9781SOL    HW130163   5.937   5.448   6.942  0.2384  0.0365 -0.6010
 9781SOL    HW230164   5.886   5.437   6.787  0.2256 -1.3880 -0.5133
 9782SOL     OW30165   4.638   4.817   5.315  0.2789 -0.1473  0.2137
 9782SOL    HW130166   4.614   4.746   5.249  1.5055  1.1692 -1.7412
 9782SOL    HW230167   4.555   4.854   5.357 -0.6505 -0.3230 -1.3814
 9783SOL     OW30168   3.688   3.054   2.493 -0.3547  0.4197 -0.6377
 9783SOL    HW130169   3.667   3.145   2.528  1.4445  0.9209 -0.7806
 9783SOL    HW230170   3.777   3.024   2.530  0.7282  0.1789 -3.2596
 9784SOL     OW30171   0.658   5.891   4.838 -0.4898 -0.2439  0.4820
 9784SOL    HW130172   0.636   5.897   4.741 -0.9637 -2.7048  0.3700
 9784SOL    HW230173   0.588   5.938   4.891 -1.4657 -0.8114 -0.2708
 9785SOL     OW30174   2.067   6.663   1.510 -0.3978 -0.0335 -0.4084
 9785SOL    HW130175   2.136   6.716   1.462 -0.4900 -0.9652 -1.6340
 9785SOL    HW230176   1.976   6.691   1.480 -0.4603 -0.6318 -0.7956
 9786SOL     OW30177   5.408   4.830   7.019 -0.4699 -0.2699  0.4609
 9786SOL    HW130178   5.341   4.835   7.094  0.3781 -0.6878  1.2304
 9786SOL    HW230179   5.381   4.757   6.956  0.5709 -2.2116  2.1482
 9787SOL     OW30180   0.185   1.083   5.801  0.4040  0.2894  0.1222
 9787SOL    HW130181   0.112   1.149   5.782 -0.3346 -0.4117  0.4483
 9787SOL    HW230182   0.254   1.087   5.730  0.2860  1.3028  0.0567
 9788SOL     OW30183   3.385   4.681   6.181  0.3529 -0.0715 -0.8698
 9788SOL    HW130184   3.446   4.646   6.110  1.9457  0.9462 -0.0482
 9788SOL    HW230185   3.435   4.742   6.242 -1.1278 -0.4093  0.7798
 9789SOL     OW30186   0.106   6.103   2.500 -0.1435  0.5767  0.1316
 9789SOL    HW130187   0.101   6.072   2.405 -0.0287  0.7723  0.0610
 9789SOL    HW230188   0.053   6.187   2.510 -2.9971 -1.1813  0.9777
 9790SOL     OW30189   2.615   6.143   3.112 -0.2768  0.3128 -0.3640
 9790SOL    HW130190   2.618   6.126   3.014 -1.1216  1.9215 -0.6992
 9790SOL    HW230191   2.707   6.165   3.145  0.0482 -0.4703 -0.7391
 9791SOL     OW30192   1.838   0.858   4.220 -0.0799  0.6116 -0.5644
 9791SOL    HW130193   1.774   0.836   4.147  1.4651  1.7091 -2.3372
 9791SOL    HW230194   1.856   0.957   4.220  1.1289  0.4153  0.2999
 9792SOL     OW30195   5.466   2.201   5.683  0.7525 -0.3692  0.1986
 9792SOL    HW130196   5.521   2.119   5.694 -1.4991 -1.9182  0.5848
 9792SOL    HW230197   5.526   2.281   5.673  3.0090 -1.7612  1.8451
 9793SOL     OW30198   6.813   6.094   5.223 -1.0177 -0.2301  0.3316
 9793SOL    HW130199   6.846   6.146   5.301  0.1947 -1.0530  0.4007
 9793SOL    HW230200   6.763   6.154   5.161  2.9099  1.8149 -1.1776
 9794SOL     OW30201   5.495   3.519   0.496 -0.2140  0.2691  0.2049
 9794SOL    HW130202   5.508   3.612   0.463 -2.3210  1.1779  1.6830
 9794SOL    HW230203   5.584   3.474   0.506  0.7610  1.5608 -1.9267
 9795SOL     OW30204   2.611   4.956   0.933 -0.2312 -0.2947 -0.3959
 9795SOL    HW130205   2.542   5.016   0.974  0.3950  0.2950 -0.1766
 9795SOL    HW230206   2.695   5.008   0.917  0.8912 -1.5042  1.3435
 9796SOL     OW30207   6.606   3.836   2.500  0.2077  0.1117  0.3989
 9796SOL    HW130208   6.595   3.925   2.455  2.8973  0.8493  1.0932
 9796SOL    HW230209   6.629   3.767   2.432  1.3937  0.6391  0.2464
 9797SOL     OW30210   2.868   3.195   5.513  0.1666  0.4028 -0.0909
 9797SOL    HW130211   2.823   3.185   5.602  2.4260  0.6448  1.1634
 9797SOL    HW230212   2.874   3.291   5.489 -0.1515  0.3598 -0.3432
 9798SOL     OW30213   0.177   5.702   4.210 -0.1547  0.3441 -0.2793
 9798SOL    HW130214   0.190   5.771   4.282 -0.2724  0.2984 -0.2146
 9798SOL    HW230215   0.083   5.705   4.177 -0.5050 -0.6088  0.5773
 9799SOL     OW30216   6.167   4.650   5.339 -0.3558  0.2118 -0.6613
 9799SOL    HW130217   6.177   4.551   5.328  0.2421  0.2505 -0.5448
 9799SOL    HW230218   6.139   4.690   5.252  0.7843  0.0945 -1.1012
 9800SOL     OW30219   0.757   3.998   3.762 -0.6434 -0.3353  0.3782
 9800SOL    HW130220   0.846   4.002   3.809  0.4458 -0.7654 -1.5341
 9800SOL    HW230221   0.690   4.051   3.813  0.8562  0.4649  1.6067
 9801SOL     OW30222   4.337   0.168   2.017 -0.1113 -0.5612 -0.1798
 9801SOL    HW130223   4.245   0.129   2.008 -0.0479 -1.7355  2.9942
 9801SOL    HW230224   4.401   0.118   1.960 -1.0275 -1.3435 -0.5414
 9802SOL     OW30225   1.748   5.743   2.187 -0.3244 -0.3646 -0.5604
 9802SOL    HW130226   1.815   5.720   2.257  0.0411  1.7390 -0.1590
 9802SOL    HW230227   1.779   5.708   2.098  0.2349 -1.2316 -0.0376
 9803SOL     OW30228   0.257   0.498   6.454 -0.1097 -0.1998  0.0569
 9803SOL    HW130229   0.158   0.505   6.467 -0.1614 -0.4344 -0.2106
 9803SOL    HW230230   0.289   0.410   6.488 -0.0210 -0.2007 -0.0280
 9804SOL     OW30231   1.275   5.895   1.730 -0.1309 -0.1690  0.0265
 9804SOL    HW130232   1.238   5.832   1.663  0.6490 -1.4242  0.7449
 9804SOL    HW230233   1.235   5.877   1.820  0.6053 -0.1091  0.3765
 9805SOL     OW30234   1.540   2.499   0.747 -0.7293 -0.0668  0.0160
 9805SOL    HW130235   1.492   2.515   0.660 -0.7812 -1.0277 -0.1475
 9805SOL    HW230236   1.597   2.579   0.768 -2.2156  1.0230  0.1144
 9806SOL     OW30237   5.409   2.327   3.939 -0.2075  0.1801  0.6277
 9806SOL    HW130238   5.377   2.334   4.034 -0.6989 -1.0972  0.5771
 9806SOL    HW230239   5.363   2.395   3.883 -2.4580 -1.2301  0.6741
 9807SOL     OW30240   4.151   3.192   4.711  0.0477 -1.0532 -0.1570
 9807SOL    HW130241   4.067   3.209   4.659 -0.2294 -0.7281  0.4033
 9807SOL    HW230242   4.135   3.119   4.777 -0.0331 -0.4393  0.5140
 9808SOL     OW30243   0.025   0.054   6.921 -0.2214  0.2285  0.4768
 9808SOL    HW130244   0.067  -0.028   6.960  1.6114  0.9993  0.2157
 9808SOL    HW230245  -0.015   0.033   6.833  1.0123 -0.2429  0.0004
 9809SOL     OW30246   6.481   6.448   6.964 -0.1120 -0.1822 -0.0062
 9809SOL    HW130247   6.438   6.383   6.902  2.1839  0.2464 -2.1924
 9809SOL    HW230248   6.411   6.504   7.008 -1.8578 -0.9175 -1.7505
 9810SOL     OW30249   1.710   5.544   3.343  0.1700  0.2178 -0.1820
 9810SOL    HW130250   1.722   5.546   3.243  0.0002  0.3204 -0.2038
 9810SOL    HW230251   1.735   5.633   3.381  0.2557  0.1752 -0.1300
 9811SOL     OW30252   1.688   1.216   4.036  0.0785 -0.2081  0.8151
 9811SOL    HW130253   1.714   1.239   4.130 -1.5692 -1.2904  1.5861
 9811SOL    HW230254   1.626   1.286   4.000 -0.5287 -0.5764  1.1250
 9812SOL     OW30255   2.145   3.443   6.798 -1.0823  0.0577 -0.1404
 9812SOL    HW130256   2.094   3.370   6.753  0.4902 -0.4366 -1.1933
 9812SOL    HW230257   2.235   3.410   6.824 -0.4186  1.5456 -0.4577
 9813SOL     OW30258   6.856   4.359   2.873  0.6004 -0.2493  0.2154
 9813SOL    HW130259   6.769   4.406   2.889  0.7375 -0.2928  1.1916
 9813SOL    HW230260   6.870   4.345   2.775  0.6094  1.8311 -0.1027
 9814SOL     OW30261   2.840   0.099   3.485 -0.0282  0.4684 -0.0400
 9814SOL    HW130262   2.835   0.195   3.510 -2.0057  0.6458 -0.9466
 9814SOL    HW230263   2.928   0.081   3.441  0.7243  1.6309  0.9002
 9815SOL     OW30264   0.249   2.470   5.552  0.1139  0.2830  0.1733
 9815SOL    HW130265   0.200   2.392   5.515  1.4014 -0.9799  0.9895
 9815SOL    HW230266   0.195   2.511   5.626  0.6226 -1.7142  1.7645
 9816SOL     OW30267   5.082   1.004   5.030  0.1950 -0.8642 -0.2542
 9816SOL    HW130268   5.166   0.980   4.981  1.1283 -1.8174  1.6598
 9816SOL    HW230269   5.087   1.099   5.061 -0.4859 -0.1997 -2.0929
 9817SOL     OW30270   3.248   5.403   5.699  0.1421 -0.3642  0.0192
 9817SOL    HW130271   3.276   5.476   5.762 -0.5068 -0.8206  0.8495
 9817SOL    HW230272   3.282   5.315   5.733  0.9478 -0.4773 -0.9875
 9818SOL     OW30273   1.445   0.254   1.324  0.0854  0.2497  1.0224
 9818SOL    HW130274   1.347   0.258   1.344  0.0092 -0.6391  0.8612
 9818SOL    HW230275   1.466   0.168   1.278  0.9817  0.3367  1.2570
 9819SOL     OW30276   5.489   5.593   2.335  0.0158 -0.3554  0.5355
 9819SOL    HW130277   5.426   5.670   2.329  1.3737  0.7063 -1.9458
 9819SOL    HW230278   5.441   5.508   2.315 -0.6842  0.4117 -1.1695
 9820SOL     OW30279   0.713   6.216   1.572  0.1496  0.0784 -0.8121
 9820SOL    HW130280   0.655   6.268   1.509  2.2698  1.2844 -1.8944
 9820SOL    HW230281   0.799   6.266   1.587 -0.6260  0.4414  3.9896
 9821SOL     OW30282   6.725   6.281   1.784  0.5725 -0.1445 -0.2964
 9821SOL    HW130283   6.730   6.236   1.874  0.7595 -0.0110 -0.2392
 9821SOL    HW230284   6.698   6.213   1.715  3.1826 -0.9475 -0.6313
 9822SOL     OW30285   5.610   2.723   4.281  0.0864 -0.5738  0.2678
 9822SOL    HW130286   5.615   2.733   4.181 -1.2573 -0.4570  0.1890
 9822SOL    HW230287   5.534   2.778   4.316  0.3314 -0.8812  1.3233
 9823SOL     OW30288   2.057   4.584   1.456  0.1384 -0.4261  0.0789
 9823SOL    HW130289   2.141   4.533   1.473 -0.0382 -0.9179 -0.5016
 9823SOL    HW230290   2.062   4.631   1.368  0.6722  1.3550  0.9962
 9824SOL     OW30291   0.744   5.319   3.528  0.3232  0.0125 -0.1474
 9824SOL    HW130292   0.762   5.390   3.595 -0.1863 -0.5308  0.5841
 9824SOL    HW230293   0.828   5.269   3.509  0.6719  0.7518 -0.5989
 9825SOL     OW30294   3.030   1.461   3.482  0.1450 -0.0895 -0.1056
 9825SOL    HW130295   3.036   1.461   3.382  0.1415 -1.9132 -0.1428
 9825SOL    HW230296   3.103   1.517   3.520  1.4452 -1.0408 -1.1110
 9826SOL     OW30297   6.967   2.396   2.429 -0.2310 -0.0424  0.1429
 9826SOL    HW130298   6.930   2.348   2.349 -0.2384 -0.6477  0.5005
 9826SOL    HW230299   6.907   2.380   2.507 -0.9000  1.5539  0.0021
 9827SOL     OW30300   1.496   4.052   1.290  0.4045  0.3340  0.0426
 9827SOL    HW130301   1.573   4.113   1.309 -0.4522  0.4653  4.1366
 9827SOL    HW230302   1.487   3.985   1.365 -3.0336 -0.0791 -0.5613
 9828SOL     OW30303   4.301   6.838   6.308  0.2994 -0.1904 -0.2185
 9828SOL    HW130304   4.347   6.926   6.293  1.8039 -1.0638 -0.9610
 9828SOL    HW230305   4.346   6.789   6.382 -0.4221 -0.4322  0.0672
 9829SOL     OW30306   4.813   2.836   5.528 -0.1000  0.8444 -0.2239
 9829SOL    HW130307   4.783   2.758   5.583 -2.5433  2.7297  1.3201
 9829SOL    HW230308   4.885   2.886   5.577  0.0830  0.6480 -0.2908
 9830SOL     OW30309   2.488   2.761   1.217  0.0802  0.6629 -0.6781
 9830SOL    HW130310   2.495   2.857   1.245 -0.2098  0.6161 -0.4407
 9830SOL    HW230311   2.506   2.701   1.295 -0.4294  0.5320 -0.6572
 9831SOL     OW30312   3.901   1.964   6.950  0.3175  0.3998  0.2610
 9831SOL    HW130313   3.995   1.994   6.966  0.6728 -0.6153  0.1704
 9831SOL    HW230314   3.901   1.868   6.922 -0.6296  0.8201 -1.2746
 9832SOL     OW30315   0.453   0.813   4.339  0.1764  0.5676  0.1673
 9832SOL    HW130316   0.444   0.789   4.436  0.4852 -3.9820 -0.6955
 9832SOL    HW230317   0.550   0.819   4.315  0.1008  1.7307  0.1121
 9833SOL     OW30318   6.043   4.360   5.985  0.1545 -0.1688  0.3034
 9833SOL    HW130319   6.103   4.281   5.980  1.8915  1.1316 -0.3670
 9833SOL    HW230320   6.097   4.442   6.004 -1.4081  1.0599 -0.3181
 9834SOL     OW30321   5.285   0.446   0.344 -0.3443  0.3527 -0.5211
 9834SOL    HW130322   5.384   0.453   0.333 -0.2573  0.5183  0.3601
 9834SOL    HW230323   5.242   0.449   0.254  0.5272 -1.0742 -1.0199
 9835SOL     OW30324   5.389   2.847   3.081 -0.0568 -0.0257  0.1443
 9835SOL    HW130325   5.375   2.943   3.055  1.6294 -0.0040 -0.8723
 9835SOL    HW230326   5.476   2.839   3.129  0.0024 -1.1065 -0.1125
 9836SOL     OW30327   4.956   2.983   0.742  0.1105 -0.0388 -0.2072
 9836SOL    HW130328   4.865   2.970   0.703  0.3098 -0.0644 -0.6742
 9836SOL    HW230329   5.022   2.929   0.691  0.4928  0.5204 -0.3191
 9837SOL     OW30330   0.407   3.929   1.309  0.0052  0.2029 -0.0885
 9837SOL    HW130331   0.465   3.856   1.273 -0.6269 -0.5386  0.3728
 9837SOL    HW230332   0.366   3.980   1.233  0.0447 -0.2444 -0.4086
 9838SOL     OW30333   5.989   6.793   1.156 -0.2450 -0.1832 -0.2838
 9838SOL    HW130334   6.005   6.715   1.096  0.3106  0.1088 -0.5280
 9838SOL    HW230335   5.971   6.874   1.101 -2.1486 -0.3854 -0.0336
 9839SOL     OW30336   4.639   6.254   6.166  0.3694 -0.1223  0.3313
 9839SOL    HW130337   4.642   6.164   6.210  0.5653  0.2038  1.0057
 9839SOL    HW230338   4.670   6.246   6.071 -1.0917 -1.0232 -0.0868
 9840SOL     OW30339   5.933   4.766   4.050 -0.2125 -0.8280  0.1142
 9840SOL    HW130340   6.026   4.761   4.013 -0.4598 -2.3422 -0.3652
 9840SOL    HW230341   5.937   4.762   4.150  0.2870  0.3108  0.1558
 9841SOL     OW30342   3.699   4.010   6.841  0.4925 -0.1210 -0.1088
 9841SOL    HW130343   3.709   3.974   6.749 -0.1026  0.5477 -0.4400
 9841SOL    HW230344   3.605   3.997   6.873  0.9167 -1.1513  0.7508
 9842SOL     OW30345   5.409   6.146   4.887  0.1482  0.2618  0.2610
 9842SOL    HW130346   5.314   6.137   4.914 -0.1864 -0.0648 -0.9536
 9842SOL    HW230347   5.458   6.204   4.952 -1.1720  1.4635  0.2081
 9843SOL     OW30348   5.717   5.618   3.842 -0.2352 -0.7234 -0.5741
 9843SOL    HW130349   5.746   5.640   3.935 -0.3898 -0.9138 -0.4805
 9843SOL    HW230350   5.681   5.700   3.798 -1.2697 -0.8922 -0.0652
 9844SOL     OW30351   0.733   1.783   6.394  0.0981 -0.6064  0.6000
 9844SOL    HW130352   0.714   1.740   6.306  0.7998 -0.2495  0.2680
 9844SOL    HW230353   0.651   1.779   6.451 -0.2184 -1.2735  0.1155
 9845SOL     OW30354   2.733   4.675   3.197 -0.0106  0.4140 -0.2988
 9845SOL    HW130355   2.771   4.723   3.117  0.5631  2.4075  1.1116
 9845SOL    HW230356   2.677   4.738   3.250 -0.9693 -1.0877  0.5182
 9846SOL     OW30357   1.545   2.669   5.970 -0.3508  0.2128  0.0447
 9846SOL    HW130358   1.528   2.570   5.974  0.7012  0.0421  1.1963
 9846SOL    HW230359   1.470   2.714   5.924 -0.0131 -1.3215 -2.1335
 9847SOL     OW30360   1.179   4.938   5.484 -0.5337  0.2171 -0.5169
 9847SOL    HW130361   1.088   4.926   5.444  0.4684 -1.7137 -2.4079
 9847SOL    HW230362   1.248   4.934   5.412  1.1251  0.4226  1.0112
 9848SOL     OW30363   6.988   3.086   6.349 -0.2730  0.0858  0.3240
 9848SOL    HW130364   7.031   3.046   6.268 -0.0851  0.8693  0.0472
 9848SOL    HW230365   7.008   3.029   6.429  0.5343 -0.0363  0.0425
 9849SOL     OW30366   5.047   5.119   5.933  0.3194 -0.4866 -0.9354
 9849SOL    HW130367   5.128   5.085   5.885  1.0469 -0.3359  0.1552
 9849SOL    HW230368   4.979   5.047   5.940  0.7914 -0.9345 -0.9277
 9850SOL     OW30369   3.362   1.325   2.253 -0.3096  0.2873  0.3434
 9850SOL    HW130370   3.368   1.425   2.248  1.3544  0.2063  0.1748
 9850SOL    HW230371   3.269   1.296   2.232 -0.2013  1.6369 -2.3259
 9851SOL     OW30372   0.206   5.818   2.471  0.3202 -0.3365 -0.2438
 9851SOL    HW130373   0.117   5.864   2.465  0.3800 -0.3055 -1.0172
 9851SOL    HW230374   0.201   5.743   2.537 -0.3399 -0.4681 -0.4419
 9852SOL     OW30375   2.084   1.075   6.575 -0.2868 -0.2015  0.4302
 9852SOL    HW130376   2.106   0.987   6.534  0.9978 -0.0351  0.7290
 9852SOL    HW230377   2.137   1.147   6.531  0.1796  0.1506  1.5278
 9853SOL     OW30378   2.074   1.462   6.697  0.0372 -0.5695  0.1214
 9853SOL    HW130379   2.105   1.522   6.623  1.4121 -0.7256  0.5435
 9853SOL    HW230380   1.981   1.432   6.679 -0.4208  1.0935 -0.4849
 9854SOL     OW30381   0.787   4.021   6.673  0.0257  0.3075  0.0690
 9854SOL    HW130382   0.878   3.990   6.700  0.2002  0.5694 -0.2269
 9854SOL    HW230383   0.742   3.949   6.620  0.7441  0.8438 -1.3269
 9855SOL     OW30384   0.855   1.078   2.220  0.1241  0.4503 -0.1244
 9855SOL    HW130385   0.797   1.086   2.301 -0.6797 -0.4557 -0.5899
 9855SOL    HW230386   0.951   1.073   2.248 -0.1162  0.5475  0.7471
 9856SOL     OW30387   6.615   6.464   1.326  0.4095  0.2519 -0.0559
 9856SOL    HW130388   6.521   6.470   1.360 -0.3508  0.4190 -2.0732
 9856SOL    HW230389   6.663   6.391   1.374 -0.5045  0.6112  1.5024
 9857SOL     OW30390   1.682   4.289   1.300 -0.5204 -0.2563 -0.5996
 9857SOL    HW130391   1.685   4.329   1.392 -1.8520 -1.3747 -0.0393
 9857SOL    HW230392   1.594   4.312   1.257 -1.0252 -1.9363 -0.5296
 9858SOL     OW30393   2.458   2.693   5.786  0.0374  0.9213 -0.1074
 9858SOL    HW130394   2.424   2.727   5.698 -1.3055 -0.8199 -0.3200
 9858SOL    HW230395   2.525   2.620   5.769 -1.5874 -0.7368  0.2103
 9859SOL     OW30396   3.630   3.852   1.689  0.6514 -0.2797 -0.4259
 9859SOL    HW130397   3.641   3.951   1.677  0.3472 -0.2922 -0.8258
 9859SOL    HW230398   3.534   3.828   1.680  0.8299 -0.7270 -1.2286
 9860SOL     OW30399   6.373   5.249   3.717  0.1056 -0.2127 -0.1158
 9860SOL    HW130400   6.299   5.304   3.757  1.5019  1.6067  0.0610
 9860SOL    HW230401   6.455   5.258   3.773  0.2933 -2.8616  0.1412
 9861SOL     OW30402   4.480   1.130   3.318  0.1304  0.0940  0.9356
 9861SOL    HW130403   4.566   1.174   3.290 -0.1133  0.9346  1.4818
 9861SOL    HW230404   4.461   1.053   3.257  0.8906  0.3666  0.3398
 9862SOL     OW30405   4.396   4.152   5.558  0.0439 -0.3918  0.1836
 9862SOL    HW130406   4.389   4.101   5.472  2.9192  0.8819 -0.9447
 9862SOL    HW230407   4.384   4.250   5.540 -2.4138 -0.3134  1.8203
 9863SOL     OW30408   2.525   2.183   0.465 -0.2952  0.1143  0.0171
 9863SOL    HW130409   2.584   2.159   0.542  0.0183  1.2849  0.1624
 9863SOL    HW230410   2.433   2.146   0.479 -0.1816  0.1448  0.8575
 9864SOL     OW30411   5.102   2.557   5.728 -0.2896  0.0630  0.1947
 9864SOL    HW130412   5.104   2.461   5.757 -0.1557 -0.2963 -0.9459
 9864SOL    HW230413   5.093   2.616   5.808 -0.2141 -0.8959  0.9292
 9865SOL     OW30414   1.359   4.393   2.758 -0.1784 -0.2977  0.0942
 9865SOL    HW130415   1.426   4.441   2.814  0.6813 -1.3083 -0.0321
 9865SOL    HW230416   1.398   4.372   2.669 -0.8000 -0.5612 -0.1246
 9866SOL     OW30417   4.082   6.672   5.562  0.0460  0.0089 -0.8298
 9866SOL    HW130418   4.111   6.731   5.487  1.7238 -1.7234 -1.6253
 9866SOL    HW230419   4.021   6.601   5.528 -1.7085  0.9968  0.0707
 9867SOL     OW30420   5.462   1.861   5.916 -0.3085  0.0337 -0.5081
 9867SOL    HW130421   5.406   1.882   5.996  0.4710  0.8202 -0.1500
 9867SOL    HW230422   5.508   1.773   5.930 -0.6405 -0.1186 -0.3523
 9868SOL     OW30423   2.606   5.359   5.339 -0.1905 -0.0043  0.0591
 9868SOL    HW130424   2.531   5.424   5.327  0.6861  1.1499  0.5986
 9868SOL    HW230425   2.639   5.364   5.434 -0.3522 -1.5320  0.2156
 9869SOL     OW30426   3.562   4.024   4.741 -0.1632 -0.2754 -0.8823
 9869SOL    HW130427   3.579   4.122   4.743 -2.1308  0.1172  0.6116
 9869SOL    HW230428   3.610   3.983   4.664  1.4124  1.6975 -1.0258
 9870SOL     OW30429   2.629   6.744   4.318 -1.1684  0.8367  0.1095
 9870SOL    HW130430   2.593   6.653   4.336 -1.1345  0.8923  0.4536
 9870SOL    HW230431   2.627   6.799   4.402 -2.4081  1.5812 -0.3754
 9871SOL     OW30432   6.251   4.983   4.249 -0.4229  0.4097  0.1146
 9871SOL    HW130433   6.297   4.896   4.231  0.7597  1.0798 -0.1990
 9871SOL    HW230434   6.319   5.055   4.265 -1.3471  1.5043 -0.7154
 9872SOL     OW30435   5.201   2.110   2.974 -0.2272 -0.6475  0.5333
 9872SOL    HW130436   5.117   2.163   2.974  1.1213  1.6841 -0.7734
 9872SOL    HW230437   5.233   2.098   3.068 -0.2461  1.5293  0.8683
 9873SOL     OW30438   4.680   5.654   4.144  0.7008 -0.4958  0.3433
 9873SOL    HW130439   4.717   5.603   4.067 -0.0236  0.1571 -0.4570
 9873SOL    HW230440   4.584   5.630   4.156  0.5772  0.0554  0.4810
 9874SOL     OW30441   3.374   4.928   4.331 -0.2850 -0.6160  0.1036
 9874SOL    HW130442   3.461   4.927   4.381 -0.8584  0.3129  1.1531
 9874SOL    HW230443   3.386   4.974   4.243 -0.0523  0.9417  0.9222
 9875SOL     OW30444   1.577   6.666   3.220 -0.2094  0.1638  0.0012
 9875SOL    HW130445   1.657   6.611   3.244 -1.3015 -1.2917  0.4036
 9875SOL    HW230446   1.559   6.732   3.293 -1.4764 -1.9432  1.7181
 9876SOL     OW30447   6.702   2.243   0.894 -0.1384  0.3286 -0.2204
 9876SOL    HW130448   6.741   2.280   0.810  2.9558 -0.4186  0.7565
 9876SOL    HW230449   6.711   2.310   0.967 -2.1353  0.6882 -0.2544
 9877SOL     OW30450   4.178   3.152   1.008 -0.0896  0.5325  0.1202
 9877SOL    HW130451   4.096   3.169   1.063 -0.4497 -0.6247 -0.0326
 9877SOL    HW230452   4.203   3.056   1.015  1.2332  0.8629  0.1128
 9878SOL     OW30453   2.392   4.225   5.045  0.1893  0.0816 -0.3839
 9878SOL    HW130454   2.330   4.302   5.034 -0.0466  0.0115  0.4454
 9878SOL    HW230455   2.350   4.142   5.008 -0.8088 -0.2521  1.3777
 9879SOL     OW30456   6.707   0.014   4.409 -0.0444 -0.2134 -0.1500
 9879SOL    HW130457   6.713   0.094   4.468  0.3583 -0.1454 -0.2736
 9879SOL    HW230458   6.786  -0.046   4.427 -0.2082 -0.4287 -0.2354
 9880SOL     OW30459   5.171   6.802   0.682 -0.0364 -0.3918 -0.2489
 9880SOL    HW130460   5.199   6.722   0.734 -0.0156 -0.0955  0.2114
 9880SOL    HW230461   5.195   6.885   0.734 -1.5060 -0.1131  0.0503
 9881SOL     OW30462   0.460   0.052   4.712 -0.0423 -0.3832  0.4932
 9881SOL    HW130463   0.551   0.031   4.675  0.8150  0.1771  2.1345
 9881SOL    HW230464   0.457   0.026   4.808 -1.3100  0.4735  0.7065
 9882SOL     OW30465   2.965   5.460   3.721  0.6297 -0.2584 -0.4017
 9882SOL    HW130466   2.870   5.492   3.731  1.0180  0.5995  0.8784
 9882SOL    HW230467   3.025   5.539   3.711  1.2960 -0.7599 -0.3868
 9883SOL     OW30468   5.526   6.984   1.084  0.0801 -0.5140  0.6708
 9883SOL    HW130469   5.465   6.947   1.154  0.0634 -0.0600  0.9040
 9883SOL    HW230470   5.601   7.034   1.129  1.1612 -1.8873  0.4256
 9884SOL     OW30471   4.281   2.619   2.026 -0.7277 -0.0762 -0.0410
 9884SOL    HW130472   4.358   2.641   2.086 -0.0764  0.1662 -0.9462
 9884SOL    HW230473   4.214   2.693   2.030 -0.6724 -0.0412  0.3451
 9885SOL     OW30474   4.644   1.427   2.414 -0.2712 -0.4357  0.6883
 9885SOL    HW130475   4.584   1.359   2.372  0.0134 -0.9968  1.1568
 9885SOL    HW230476   4.678   1.391   2.501 -1.1022  0.8119  1.5678
 9886SOL     OW30477   4.885   6.388   0.460 -0.3652 -0.8084  0.5112
 9886SOL    HW130478   4.966   6.368   0.405 -0.9894 -2.0567  0.0047
 9886SOL    HW230479   4.911   6.445   0.538  0.8355 -0.4417 -0.1245
 9887SOL     OW30480   5.625   2.818   0.612 -0.5131 -0.5221  0.1886
 9887SOL    HW130481   5.543   2.805   0.667 -1.6386  0.2252 -1.2327
 9887SOL    HW230482   5.704   2.780   0.660 -1.3326  0.4637  2.4952
 9888SOL     OW30483   2.570   2.882   0.551  0.3978  0.3036 -0.2268
 9888SOL    HW130484   2.504   2.934   0.607 -0.6204  0.7086 -1.7485
 9888SOL    HW230485   2.521   2.815   0.496  1.4399 -0.4303 -0.2745
 9889SOL     OW30486   5.153   3.272   5.293 -0.2724 -0.2101  0.1160
 9889SOL    HW130487   5.181   3.349   5.236 -1.9466  0.3954  0.0545
 9889SOL    HW230488   5.119   3.306   5.381  0.9899 -1.0400  0.9592
 9890SOL     OW30489   3.517   1.375   0.164 -0.3104 -0.3950 -0.5750
 9890SOL    HW130490   3.578   1.454   0.178 -0.4364 -0.5024  0.6559
 9890SOL    HW230491   3.546   1.300   0.222 -0.3417 -1.1906 -1.5579
 9891SOL     OW30492   3.059   6.920   6.692  0.2377  0.3393  0.0305
 9891SOL    HW130493   3.021   6.829   6.677 -0.7588  0.5118  1.3625
 9891SOL    HW230494   3.072   6.935   6.790  2.3079  0.8874 -0.2707
 9892SOL     OW30495   3.962   6.050   5.179 -0.3957  0.2621  0.0314
 9892SOL    HW130496   3.885   5.987   5.173  0.7870 -1.2419 -0.0435
 9892SOL    HW230497   3.970   6.084   5.273 -1.8217  1.3678 -0.2128
 9893SOL     OW30498   4.433   4.295   3.093 -0.3403  0.5816  0.2868
 9893SOL    HW130499   4.350   4.252   3.059  0.2540  0.7834 -1.5423
 9893SOL    HW230500   4.421   4.320   3.189 -3.1783  2.5820 -0.4467
 9894SOL     OW30501   3.295   5.903   2.153  0.1825  0.1167 -0.0178
 9894SOL    HW130502   3.359   5.861   2.090 -1.2412 -2.6357  0.1988
 9894SOL    HW230503   3.317   6.001   2.163  2.9458 -0.2353 -1.5191
 9895SOL     OW30504   0.004   0.879   4.718  0.3772 -0.0350 -0.0039
 9895SOL    HW130505   0.065   0.957   4.732  0.0395 -0.3376  4.2155
 9895SOL    HW230506   0.050   0.795   4.747  0.0835 -1.2511 -2.7673
 9896SOL     OW30507   4.145   2.822   1.342 -0.4377 -0.6359 -0.0884
 9896SOL    HW130508   4.173   2.859   1.254 -1.7999  0.2887 -0.1536
 9896SOL    HW230509   4.219   2.765   1.379  0.6449 -0.0134 -1.2243
 9897SOL     OW30510   2.232   5.556   6.316  0.3763  0.0386  0.2107
 9897SOL    HW130511   2.134   5.558   6.296  0.5856  1.6753 -0.8035
 9897SOL    HW230512   2.253   5.624   6.386  1.2085  1.9962 -1.8479
 9898SOL     OW30513   0.963   5.322   6.857 -0.2592 -0.0273 -0.3623
 9898SOL    HW130514   0.927   5.288   6.770  0.8283 -1.3835 -0.3364
 9898SOL    HW230515   0.893   5.314   6.928 -0.5960 -0.5480 -0.7459
 9899SOL     OW30516   6.678   6.780   2.052  0.1775  0.3067  0.0152
 9899SOL    HW130517   6.745   6.853   2.063  0.2740  0.5003 -1.6585
 9899SOL    HW230518   6.724   6.698   2.016 -0.1848 -0.1224  0.5154
 9900SOL     OW30519   5.654   0.521   5.741 -0.8632  0.3479  0.0018
 9900SOL    HW130520   5.644   0.531   5.642 -1.8481  0.9290  0.1416
 9900SOL    HW230521   5.600   0.442   5.772 -0.2312 -0.0795  0.0323
 9901SOL     OW30522   3.766   4.351   0.775 -0.0575 -0.3252 -0.1135
 9901SOL    HW130523   3.790   4.280   0.841 -0.2731  1.2902  1.7812
 9901SOL    HW230524   3.759   4.310   0.684 -0.2282 -2.7169  0.9007
 9902SOL     OW30525   5.469   3.726   1.028  0.3532  0.2946  0.5996
 9902SOL    HW130526   5.420   3.649   1.070 -0.4986  0.1793 -0.5360
 9902SOL    HW230527   5.566   3.721   1.053  0.1923 -0.7685  1.0857
 9903SOL     OW30528   6.956   5.233   6.749  0.6424 -0.1065 -0.5619
 9903SOL    HW130529   6.915   5.308   6.802 -0.5206 -1.3171  0.3506
 9903SOL    HW230530   7.054   5.228   6.769  0.6943  1.0719 -0.5467
 9904SOL     OW30531   0.782   3.076   5.596 -0.3484 -0.0589  0.3710
 9904SOL    HW130532   0.875   3.095   5.627 -1.0384  0.4318  2.2465
 9904SOL    HW230533   0.741   3.160   5.561 -0.9282  0.3616  1.9543
 9905SOL     OW30534   1.913   3.435   1.045 -0.3577 -0.2334 -0.3262
 9905SOL    HW130535   2.006   3.400   1.037 -0.1870  0.3659 -1.0404
 9905SOL    HW230536   1.912   3.516   1.104 -0.4766 -0.4268 -0.0619
 9906SOL     OW30537   2.272   5.052   1.940 -0.8741 -0.1383 -0.2277
 9906SOL    HW130538   2.184   5.050   1.989 -0.3252 -0.3527  0.7724
 9906SOL    HW230539   2.340   5.100   1.996 -0.1251 -0.7386 -0.6112
 9907SOL     OW30540   4.122   0.955   0.883 -0.3361  0.3229  0.3759
 9907SOL    HW130541   4.118   0.862   0.919 -2.7062  0.0896 -0.3479
 9907SOL    HW230542   4.196   0.961   0.816  0.3446 -0.8255  0.9962
 9908SOL     OW30543   1.209   1.741   6.618  0.6751 -0.8627 -0.5252
 9908SOL    HW130544   1.241   1.715   6.710  0.1026  0.5042  0.0830
 9908SOL    HW230545   1.112   1.720   6.609  0.1298  1.1686  0.0732
 9909SOL     OW30546   6.721   1.592   0.370 -0.7028  0.0669  0.1294
 9909SOL    HW130547   6.678   1.671   0.413  0.8280  0.7597  0.4733
 9909SOL    HW230548   6.701   1.592   0.272 -1.6859  0.1986  0.3168
 9910SOL     OW30549   1.746   5.479   0.378 -0.0118  0.0525 -0.1852
 9910SOL    HW130550   1.756   5.425   0.295  0.0461  1.1642 -0.9114
 9910SOL    HW230551   1.796   5.564   0.369 -0.1751  0.2815  0.9193
 9911SOL     OW30552   2.465   5.175   4.858  0.4162 -0.4852  0.0839
 9911SOL    HW130553   2.390   5.115   4.831 -0.8632  1.6895 -1.6184
 9911SOL    HW230554   2.428   5.251   4.913  0.9968  1.4725 -2.0803
 9912SOL     OW30555   2.054   3.801   4.534 -0.9077  0.0112 -0.5992
 9912SOL    HW130556   2.023   3.785   4.627 -0.0407 -2.8674 -0.6964
 9912SOL    HW230557   2.091   3.894   4.526  0.5212 -0.1998  2.3901
 9913SOL     OW30558   5.704   1.182   2.098  0.1488 -0.0973 -0.3303
 9913SOL    HW130559   5.608   1.178   2.125  0.1939  0.0882 -0.1406
 9913SOL    HW230560   5.761   1.168   2.179  0.3008  1.7425 -0.0822
 9914SOL     OW30561   1.828   6.791   5.159 -0.0754 -0.1294  0.0760
 9914SOL    HW130562   1.790   6.774   5.067 -0.3448 -1.7568  0.4649
 9914SOL    HW230563   1.756   6.830   5.217  0.5845  2.7124 -0.8622
 9915SOL     OW30564   1.673   1.450   4.742 -0.4782 -0.5370 -0.0286
 9915SOL    HW130565   1.765   1.473   4.774 -1.0748  0.2323  1.1934
 9915SOL    HW230566   1.612   1.438   4.820 -1.4441 -0.9779 -0.8236
 9916SOL     OW30567   6.250   5.975   0.898  0.0821  0.8787 -0.0349
 9916SOL    HW130568   6.280   6.033   0.822  0.6075  1.4888  0.6264
 9916SOL    HW230569   6.259   6.026   0.984  0.2402 -0.0776  0.5219
 9917SOL     OW30570   4.552   1.447   3.549  0.1802  0.4068 -0.4739
 9917SOL    HW130571   4.589   1.355   3.564 -2.1289 -0.7047 -1.1795
 9917SOL    HW230572   4.517   1.454   3.456 -0.1195  1.8495 -0.2733
 9918SOL     OW30573   1.063   6.488   3.839  0.1389  0.4692  0.7743
 9918SOL    HW130574   1.006   6.522   3.913 -0.6761 -1.8903  1.3048
 9918SOL    HW230575   1.006   6.465   3.760  0.7185  0.7648  0.2611
 9919SOL     OW30576   6.077   0.018   4.857  0.4987  0.4893 -0.1222
 9919SOL    HW130577   6.027  -0.037   4.790  2.4528 -0.9777 -0.4466
 9919SOL    HW230578   6.124  -0.042   4.922  1.4558  1.8382  0.4640
 9920SOL     OW30579   5.818   3.578   5.822  0.6791 -0.1735 -0.0172
 9920SOL    HW130580   5.749   3.592   5.752  1.5253  0.4596 -0.7486
 9920SOL    HW230581   5.865   3.665   5.841 -0.2941 -0.0471  2.1836
 9921SOL     OW30582   1.379   2.800   4.309 -0.1240 -0.2038  0.8186
 9921SOL    HW130583   1.418   2.881   4.352  0.4172  0.2802 -0.5427
 9921SOL    HW230584   1.401   2.800   4.212 -2.2067 -0.7224  0.2971
 9922SOL     OW30585   6.851   3.175   3.910 -0.9511 -0.2409  0.3721
 9922SOL    HW130586   6.834   3.101   3.975  0.9336 -1.8797 -0.8862
 9922SOL    HW230587   6.946   3.205   3.917 -1.3787  1.3032  0.0466
 9923SOL     OW30588   3.164   0.910   1.663 -0.1404 -0.2516 -0.3998
 9923SOL    HW130589   3.222   0.864   1.597  1.7307 -0.6988  1.4075
 9923SOL    HW230590   3.222   0.951   1.735 -2.0723 -1.6301  2.1082
 9924SOL     OW30591   0.124   1.993   6.440  0.2408  0.3920  0.3720
 9924SOL    HW130592   0.132   1.926   6.514 -0.5057 -0.4748 -0.3008
 9924SOL    HW230593   0.131   1.946   6.352 -1.0578  1.0672 -0.1285
 9925SOL     OW30594   2.722   3.131   6.074 -0.3994 -0.1669  0.4046
 9925SOL    HW130595   2.631   3.155   6.107 -0.3265  0.6948  0.0288
 9925SOL    HW230596   2.739   3.034   6.089 -1.6212 -0.4764 -0.0953
 9926SOL     OW30597   0.325   2.180   0.304 -0.0601  0.2475 -0.2638
 9926SOL    HW130598   0.269   2.100   0.285  0.7439 -0.0550 -1.4733
 9926SOL    HW230599   0.421   2.159   0.281  0.9147  0.1441  3.2821
 9927SOL     OW30600   0.347   3.631   3.394 -0.2857 -0.0521 -0.2941
 9927SOL    HW130601   0.259   3.643   3.440  0.0122 -0.1166  0.3071
 9927SOL    HW230602   0.411   3.701   3.425  0.1708 -0.5942  0.0123
 9928SOL     OW30603   2.488   4.445   5.320  0.0019 -0.6780 -0.1389
 9928SOL    HW130604   2.492   4.361   5.374  1.4694 -1.3748 -1.2471
 9928SOL    HW230605   2.467   4.523   5.380  0.9883 -1.4959  1.3175
 9929SOL     OW30606   0.110   5.513   2.093 -0.8573 -0.3584  0.1984
 9929SOL    HW130607   0.116   5.415   2.115  1.9419 -0.7437 -1.7653
 9929SOL    HW230608   0.169   5.564   2.155 -0.3998 -0.2377 -0.3362
 9930SOL     OW30609   1.063   3.349   1.059 -0.1937  0.0904 -0.5914
 9930SOL    HW130610   1.050   3.251   1.044 -1.6826  0.3703 -1.2749
 9930SOL    HW230611   1.022   3.376   1.146 -0.5525  0.2525 -0.8086
 9931SOL     OW30612   5.885   5.750   0.367 -0.6626 -0.0817  0.3375
 9931SOL    HW130613   5.816   5.769   0.297 -2.6000 -2.6414  1.3495
 9931SOL    HW230614   5.864   5.662   0.410  2.1847 -0.0197  2.0811
 9932SOL     OW30615   5.251   5.641   6.062 -0.2684 -0.0168  0.1914
 9932SOL    HW130616   5.280   5.546   6.075  0.5616 -0.0152 -1.3443
 9932SOL    HW230617   5.316   5.702   6.107 -0.9856 -0.1660  1.4708
 9933SOL     OW30618   0.680   3.924   5.125 -0.0878 -0.1504 -0.0794
 9933SOL    HW130619   0.769   3.928   5.079 -0.0084  1.0638  0.1403
 9933SOL    HW230620   0.690   3.875   5.212  0.0094 -1.4133 -0.7724
 9934SOL     OW30621   3.118   1.827   6.988  0.1322 -0.1921  0.1869
 9934SOL    HW130622   3.147   1.738   7.024  0.6368  0.1206  0.5784
 9934SOL    HW230623   3.112   1.823   6.889 -0.0564 -0.7190  0.2162
 9935SOL     OW30624   1.511   6.209   6.685  0.0574 -0.7945  0.0162
 9935SOL    HW130625   1.433   6.218   6.748  0.5706 -0.3539  0.5965
 9935SOL    HW230626   1.506   6.120   6.639 -0.9860 -0.6283 -0.2298
 9936SOL     OW30627   5.584   3.029   1.868 -0.1055 -0.4976  0.6714
 9936SOL    HW130628   5.530   3.050   1.787 -0.4871 -0.1649  1.0088
 9936SOL    HW230629   5.630   3.111   1.900 -0.5784 -0.4539  1.2487
 9937SOL     OW30630   3.369   4.745   5.772 -0.4936 -0.3010  0.5199
 9937SOL    HW130631   3.429   4.823   5.753  0.5180 -1.4482 -1.2616
 9937SOL    HW230632   3.409   4.688   5.843 -0.8049  0.3208  1.2059
 9938SOL     OW30633   4.507   5.785   5.295  0.1567 -0.1120 -1.1091
 9938SOL    HW130634   4.581   5.731   5.255  0.3447  0.7953 -2.0178
 9938SOL    HW230635   4.426   5.779   5.237 -0.0110  0.1058 -0.9002
 9939SOL     OW30636   6.449   0.385   2.847 -0.4997 -0.6906 -0.7815
 9939SOL    HW130637   6.512   0.424   2.915 -0.8611 -2.4075  0.6256
 9939SOL    HW230638   6.479   0.293   2.822 -3.6533 -2.6983  1.9217
 9940SOL     OW30639   2.598   6.377   0.203  0.5400 -0.1191  0.8490
 9940SOL    HW130640   2.692   6.355   0.176  0.6305  0.6381  0.5157
 9940SOL    HW230641   2.572   6.465   0.165  0.9733  1.4007  3.8482
 9941SOL     OW30642   3.588   3.712   5.826 -0.4622  0.1647  0.1541
 9941SOL    HW130643   3.524   3.723   5.903 -3.7435 -0.4595 -2.2305
 9941SOL    HW230644   3.615   3.616   5.820  0.2478  0.3144  0.8179
 9942SOL     OW30645   4.483   0.218   6.153  0.5795  0.1355  0.3885
 9942SOL    HW130646   4.410   0.182   6.211 -0.9297  1.9711 -0.1953
 9942SOL    HW230647   4.526   0.296   6.198  2.6352 -1.2725  0.9629
 9943SOL     OW30648   4.220   3.929   2.753  0.6778 -0.0669 -0.3326
 9943SOL    HW130649   4.122   3.920   2.735  0.2097  2.0562  0.8479
 9943SOL    HW230650   4.262   3.981   2.679  0.5341  0.6244  0.0574
 9944SOL     OW30651   4.310   5.868   2.122 -0.1890  1.1737  0.1796
 9944SOL    HW130652   4.306   5.777   2.163  1.1996  0.4789 -1.1604
 9944SOL    HW230653   4.334   5.935   2.192 -0.9973  0.5039  1.1388
 9945SOL     OW30654   6.334   1.600   0.405  0.1465  0.7738 -0.3431
 9945SOL    HW130655   6.372   1.508   0.396  0.1037  0.7530 -0.3125
 9945SOL    HW230656   6.383   1.648   0.478  0.9743  1.1897 -1.1416
 9946SOL     OW30657   0.217   5.999   3.840 -0.0260 -0.0021 -0.0037
 9946SOL    HW130658   0.125   6.036   3.826 -0.1279  0.0357  0.7407
 9946SOL    HW230659   0.284   6.056   3.791 -0.2136  0.9657  0.8495
 9947SOL     OW30660   6.983   6.537   1.085  0.2110  0.3158  0.0668
 9947SOL    HW130661   7.036   6.613   1.120 -1.0853  0.2584  2.3076
 9947SOL    HW230662   6.886   6.552   1.105 -0.5700  0.0122 -3.0958
 9948SOL     OW30663   2.366   1.211   1.787 -0.7562  0.1191 -0.0652
 9948SOL    HW130664   2.312   1.283   1.832 -1.4665 -0.4568  0.0250
 9948SOL    HW230665   2.308   1.164   1.720  0.2750  0.9504 -1.5961
 9949SOL     OW30666   2.804   3.360   3.046 -0.0639 -0.3679  0.1344
 9949SOL    HW130667   2.883   3.298   3.039 -1.9041 -2.9808  0.8688
 9949SOL    HW230668   2.817   3.423   3.122  2.1843  0.7169 -1.0546
 9950SOL     OW30669   2.486   3.125   5.833 -0.0803  0.3369  0.3701
 9950SOL    HW130670   2.581   3.104   5.808 -0.6238 -1.6157 -0.2170
 9950SOL    HW230671   2.475   3.224   5.839  1.8800  0.6310 -0.0023
 9951SOL     OW30672   3.912   5.317   5.842  0.2306  0.1698 -0.0279
 9951SOL    HW130673   3.898   5.222   5.812  1.5568 -0.2028  0.3877
 9951SOL    HW230674   3.965   5.316   5.927  2.1563  1.2937 -1.1327
 9952SOL     OW30675   1.238   3.374   4.363  0.0318 -0.0204  0.6990
 9952SOL    HW130676   1.262   3.459   4.317 -3.5890  0.9894  0.4288
 9952SOL    HW230677   1.188   3.314   4.300 -3.8666  0.8343  2.6526
 9953SOL     OW30678   6.514   0.636   1.511  0.3704 -0.0147 -0.0088
 9953SOL    HW130679   6.415   0.646   1.502  0.4137  0.5447  0.0433
 9953SOL    HW230680   6.536   0.545   1.545 -0.1801  0.1899  0.9257
 9954SOL     OW30681   3.298   1.977   5.196  0.6559 -0.0369  0.0664
 9954SOL    HW130682   3.203   1.958   5.218  0.2300 -0.1921 -1.7582
 9954SOL    HW230683   3.319   2.072   5.219  0.0388  0.0232  0.4024
 9955SOL     OW30684   5.497   3.297   6.912 -0.6298 -0.3110 -0.3406
 9955SOL    HW130685   5.556   3.373   6.936 -1.4056  0.4867 -0.8952
 9955SOL    HW230686   5.491   3.234   6.990 -0.8852  0.7918  0.5672
 9956SOL     OW30687   4.246   0.056   5.256  0.0491 -0.0340  0.6331
 9956SOL    HW130688   4.189   0.117   5.310  0.0390 -0.5643  1.2372
 9956SOL    HW230689   4.342   0.078   5.271  0.2954 -2.6446  4.0412
 9957SOL     OW30690   5.797   3.737   2.696  0.3443 -0.6193 -0.0736
 9957SOL    HW130691   5.820   3.735   2.793  1.0587 -1.4745 -0.2562
 9957SOL    HW230692   5.875   3.772   2.644 -0.3495  0.7224 -0.2617
 9958SOL     OW30693   2.145   5.524   5.082 -0.2391  0.3503  0.0868
 9958SOL    HW130694   2.068   5.461   5.069 -0.6238  0.8307 -0.0591
 9958SOL    HW230695   2.115   5.602   5.137  0.6367 -0.3227  1.5514
 9959SOL     OW30696   3.054   1.902   5.286 -0.1270 -0.1655  0.7516
 9959SOL    HW130697   3.037   1.805   5.270  1.5154 -0.3232 -0.1866
 9959SOL    HW230698   2.975   1.955   5.253 -0.1345 -1.0485 -0.7823
 9960SOL     OW30699   4.705   0.434   3.354  0.6042  0.7278 -0.3697
 9960SOL    HW130700   4.778   0.368   3.374 -0.4852  0.0474  1.5708
 9960SOL    HW230701   4.690   0.493   3.433 -1.1460  0.6739 -0.6277
 9961SOL     OW30702   0.306   2.872   5.407  0.1852 -0.7452  0.2652
 9961SOL    HW130703   0.352   2.944   5.458  0.3616 -1.1320  0.6590
 9961SOL    HW230704   0.243   2.823   5.467 -1.1967  0.1554 -0.3876
 9962SOL     OW30705   1.760   2.401   2.733  0.3390  0.2129  0.8008
 9962SOL    HW130706   1.803   2.312   2.717  0.5459  0.7156 -1.8994
 9962SOL    HW230707   1.661   2.393   2.723  0.3190  0.2103  0.9819
 9963SOL     OW30708   2.902   5.566   5.165 -0.1169  0.1722 -0.1503
 9963SOL    HW130709   2.988   5.574   5.214 -0.3281  1.8621  0.0070
 9963SOL    HW230710   2.904   5.625   5.084  0.1188 -2.3446 -2.1186
 9964SOL     OW30711   3.529   4.146   2.175 -0.0195 -0.0136  0.4427
 9964SOL    HW130712   3.524   4.054   2.212 -0.4403 -0.7403 -1.3187
 9964SOL    HW230713   3.438   4.188   2.176 -0.0388 -0.0467  0.2259
 9965SOL     OW30714   2.904   4.876   2.119  0.6325 -0.3331 -0.1890
 9965SOL    HW130715   2.849   4.860   2.037  2.5795  0.4060 -1.7177
 9965SOL    HW230716   2.965   4.799   2.134  1.0646  0.0238 -0.0899
 9966SOL     OW30717   4.770   6.683   5.768 -0.0849  0.4109 -0.0528
 9966SOL    HW130718   4.758   6.672   5.866  1.1849 -0.8702  0.0033
 9966SOL    HW230719   4.742   6.599   5.721 -0.6882  1.0104 -0.8017
 9967SOL     OW30720   0.081   2.422   1.742 -0.1753  0.2099  0.0451
 9967SOL    HW130721   0.168   2.373   1.736 -0.2970  0.0001 -0.0191
 9967SOL    HW230722   0.056   2.435   1.839 -1.2727 -1.8837  0.0867
 9968SOL     OW30723   6.975   5.852   0.360 -0.1386  0.0522  0.0461
 9968SOL    HW130724   7.025   5.858   0.446 -0.6546  1.9654  0.2481
 9968SOL    HW230725   7.040   5.858   0.283  0.0260  1.6737  0.3057
 9969SOL     OW30726   5.472   2.821   5.937  0.4098  0.1109 -0.0665
 9969SOL    HW130727   5.459   2.795   6.033 -1.4352 -1.8580 -0.7808
 9969SOL    HW230728   5.393   2.874   5.906  1.4635  1.6297 -0.2736
 9970SOL     OW30729   5.793   0.805   1.133  0.1606  0.0258 -0.1340
 9970SOL    HW130730   5.857   0.769   1.201 -0.7818  1.0119  1.3085
 9970SOL    HW230731   5.800   0.749   1.050  1.7903 -0.8221  0.5065
 9971SOL     OW30732   3.375   0.139   1.171 -0.0578  0.1967  0.3511
 9971SOL    HW130733   3.345   0.219   1.223  1.3184  0.3188  1.0222
 9971SOL    HW230734   3.474   0.127   1.183  0.3356  0.2365 -2.2920
 9972SOL     OW30735   4.245   0.631   6.706 -0.4080 -0.0353  0.3746
 9972SOL    HW130736   4.170   0.694   6.682  0.7379  0.3827 -2.5188
 9972SOL    HW230737   4.332   0.677   6.693  0.4433 -1.8321 -0.6491
 9973SOL     OW30738   1.473   6.868   3.400 -0.8126  0.1215 -0.5234
 9973SOL    HW130739   1.478   6.948   3.460  2.3066  0.2833 -0.8161
 9973SOL    HW230740   1.424   6.891   3.317  1.0788  2.2244 -1.1617
 9974SOL     OW30741   3.479   2.998   5.944  0.0498  0.0307  0.1299
 9974SOL    HW130742   3.530   3.037   6.021 -0.8830 -0.4214  1.0021
 9974SOL    HW230743   3.504   3.047   5.860  1.4869  0.1950  0.6039
 9975SOL     OW30744   2.828   2.138   5.763 -0.4206  0.2928 -0.1164
 9975SOL    HW130745   2.766   2.163   5.837  1.2231  0.6536  1.1867
 9975SOL    HW230746   2.848   2.040   5.769 -1.9929 -0.1716 -1.4667
 9976SOL     OW30747   4.823   5.432   3.218 -0.2075  0.0663  0.4908
 9976SOL    HW130748   4.778   5.505   3.165  0.0948 -0.6421 -0.8049
 9976SOL    HW230749   4.922   5.442   3.211 -0.1532 -0.8394 -0.2740
 9977SOL     OW30750   5.943   2.486   1.112  0.3174 -0.3612 -0.1321
 9977SOL    HW130751   5.889   2.497   1.028  1.0760  0.2804 -0.5448
 9977SOL    HW230752   6.039   2.503   1.092  0.6049 -0.9256  0.7246
 9978SOL     OW30753   4.840   6.316   2.797 -0.7247 -0.2052 -0.0175
 9978SOL    HW130754   4.790   6.302   2.883  1.7535  2.4333  2.0254
 9978SOL    HW230755   4.877   6.409   2.794  2.4224 -1.3387 -2.1927
 9979SOL     OW30756   0.180   0.011   6.562  0.3508  0.4505 -0.3930
 9979SOL    HW130757   0.087   0.019   6.596  0.0960 -1.1531 -0.6090
 9979SOL    HW230758   0.225  -0.067   6.606  0.5423 -0.6759 -2.4839
 9980SOL     OW30759   6.208   1.738   6.364  0.3337  0.2254  0.2498
 9980SOL    HW130760   6.164   1.653   6.335 -0.0526  0.9470 -1.3865
 9980SOL    HW230761   6.300   1.744   6.324  1.1153 -0.2515  1.8701
 9981SOL     OW30762   3.198   5.520   0.485 -0.3238  0.2110 -0.1153
 9981SOL    HW130763   3.286   5.502   0.527  0.5263  0.0666 -1.8687
 9981SOL    HW230764   3.140   5.571   0.549  1.1865  0.7428  0.8846
 9982SOL     OW30765   2.991   0.890   4.414  0.0672 -0.0232  0.0075
 9982SOL    HW130766   2.906   0.841   4.436 -0.7780  0.3281 -2.2970
 9982SOL    HW230767   3.010   0.956   4.487 -1.8578  0.1902  0.3880
 9983SOL     OW30768   6.447   4.880   2.595 -0.3660  0.1873  0.1686
 9983SOL    HW130769   6.431   4.927   2.508  0.5753  0.5125  0.1587
 9983SOL    HW230770   6.360   4.872   2.645 -0.3744  3.6350  1.0279
 9984SOL     OW30771   5.091   4.997   5.285  0.3826  0.2872 -0.1998
 9984SOL    HW130772   5.001   5.010   5.245  0.5015  0.2130 -0.4991
 9984SOL    HW230773   5.087   5.016   5.383 -0.3379 -1.3990  0.1277
 9985SOL     OW30774   4.780   3.372   0.770 -0.1542 -0.6347  0.0546
 9985SOL    HW130775   4.859   3.312   0.758  0.1817 -0.1494 -0.1678
 9985SOL    HW230776   4.723   3.337   0.844  0.3185 -0.9339  0.2808
 9986SOL     OW30777   2.403   4.193   0.298 -0.3338  0.1471 -0.3462
 9986SOL    HW130778   2.325   4.136   0.272 -1.9710  1.4383  1.4781
 9986SOL    HW230779   2.443   4.158   0.383 -1.0302  1.3700  0.5092
 9987SOL     OW30780   4.775   2.953   2.337 -0.0267  0.1541 -0.1281
 9987SOL    HW130781   4.730   2.871   2.372 -0.0713  0.8011  1.3996
 9987SOL    HW230782   4.731   3.035   2.375  0.6226  0.8694 -0.8726
 9988SOL     OW30783   4.048   0.533   2.334  0.3209  0.0714 -0.6716
 9988SOL    HW130784   4.128   0.589   2.357 -1.8885  2.4089  2.1020
 9988SOL    HW230785   4.034   0.534   2.235  2.9513  0.6131 -1.1062
 9989SOL     OW30786   1.427   0.937   1.402 -0.2361 -0.4750 -0.0893
 9989SOL    HW130787   1.442   0.859   1.342 -3.1334 -1.6719  0.5678
 9989SOL    HW230788   1.352   0.993   1.367  0.5389  0.9860  0.4571
 9990SOL     OW30789   5.994   3.233   0.933 -0.5748  0.5254 -0.4629
 9990SOL    HW130790   6.069   3.298   0.919 -0.8667  0.8461 -0.5278
 9990SOL    HW230791   5.932   3.269   1.003 -1.0282  0.5688 -0.8860
 9991SOL     OW30792   5.069   3.219   0.307 -0.0181  0.4835  0.1202
 9991SOL    HW130793   5.098   3.124   0.299 -1.4732 -0.0058  0.4453
 9991SOL    HW230794   5.146   3.279   0.285  0.3894 -0.7485 -2.0993
 9992SOL     OW30795   0.021   1.271   5.674  0.0475  0.1018 -0.2268
 9992SOL    HW130796   0.076   1.352   5.657  0.0048  0.3140  0.6370
 9992SOL    HW230797  -0.076   1.294   5.665  0.0890 -0.1733 -1.3151
 9993SOL     OW30798   5.217   4.427   5.896 -0.1368  0.5080 -0.0148
 9993SOL    HW130799   5.193   4.520   5.867  1.6227  0.5955 -1.3779
 9993SOL    HW230800   5.152   4.395   5.965 -1.6678  2.1705 -0.6194
 9994SOL     OW30801   4.624   4.843   0.916  1.0840  0.0862 -0.2248
 9994SOL    HW130802   4.680   4.919   0.947  1.5120  0.3726 -1.6049
 9994SOL    HW230803   4.599   4.857   0.820 -0.6627 -0.4540  0.1167
 9995SOL     OW30804   5.499   5.181   0.352 -0.3703  0.4266  0.1168
 9995SOL    HW130805   5.562   5.192   0.275  1.9182  1.4625  2.0551
 9995SOL    HW230806   5.477   5.084   0.363 -1.0110  0.2832 -1.9855
 9996SOL     OW30807   4.066   0.836   6.665  0.5025 -0.2921 -0.3786
 9996SOL    HW130808   4.115   0.898   6.605 -0.6039  2.1044  1.0408
 9996SOL    HW230809   3.969   0.862   6.668  0.2384 -1.2870  1.2337
 9997SOL     OW30810   1.838   5.685   4.562 -0.0761 -0.7413  0.4249
 9997SOL    HW130811   1.872   5.748   4.492 -1.4916  0.7453  0.9992
 9997SOL    HW230812   1.757   5.638   4.528 -1.2261  0.5493  1.2614
 9998SOL     OW30813   3.896   2.695   5.989  0.2053 -0.1693 -0.6875
 9998SOL    HW130814   3.957   2.624   5.954  0.2519  0.0736 -1.1044
 9998SOL    HW230815   3.938   2.738   6.068  0.2882 -0.4392 -0.5826
 9999SOL     OW30816   4.437   0.428   4.068  0.5019 -0.1431  0.3998
 9999SOL    HW130817   4.430   0.525   4.042 -0.0606 -0.9722 -3.0841
 9999SOL    HW230818   4.532   0.398   4.062  0.4102 -0.2665 -0.5911
10000SOL     OW30819   3.254   4.688   3.214  0.1997 -0.1761 -0.6148
10000SOL    HW130820   3.281   4.707   3.120  3.1273 -1.6422 -0.1649
10000SOL    HW230821   3.232   4.774   3.261  2.2484  0.9796 -1.6542
10001SOL     OW30822   1.609   3.582   2.276  0.2815  0.2979 -0.1936
10001SOL    HW130823   1.634   3.678   2.292 -1.6770  0.4562  2.5802
10001SOL    HW230824   1.693   3.527   2.269  1.5022  1.5826  2.7546
10002SOL     OW30825   0.154   2.058   2.667  0.0196 -0.0187  0.1613
10002SOL    HW130826   0.242   2.030   2.706 -0.5889  1.8897  3.2016
10002SOL    HW230827   0.082   2.047   2.736 -1.8177  0.3177 -1.6007
10003SOL     OW30828   5.178   2.985   0.226  0.4310  0.4918 -0.3747
10003SOL    HW130829   5.104   2.919   0.211  0.0460  1.1181 -1.3030
10003SOL    HW230830   5.266   2.943   0.204  0.3930 -0.3047  0.8690
10004SOL     OW30831   6.705   5.742   2.519  0.6726 -0.1566 -0.1015
10004SOL    HW130832   6.656   5.703   2.597  0.5520 -1.4114 -0.7636
10004SOL    HW230833   6.644   5.743   2.439  2.0527 -3.2094 -1.3790
10005SOL     OW30834   4.471   5.004   4.495 -0.3889 -0.2613  0.2842
10005SOL    HW130835   4.552   5.061   4.511  0.3281 -1.2314  0.2090
10005SOL    HW230836   4.477   4.964   4.404 -1.8495  1.0574 -0.4257
10006SOL     OW30837   1.040   0.902   5.103  0.7071 -0.6921  0.3238
10006SOL    HW130838   1.086   0.832   5.049 -0.8615 -1.2250 -0.3804
10006SOL    HW230839   1.063   0.992   5.067  0.1069 -1.0113 -0.9515
10007SOL     OW30840   6.399   1.601   6.836  0.3469 -0.6644  0.1855
10007SOL    HW130841   6.458   1.554   6.902  1.5012  0.7124  0.1997
10007SOL    HW230842   6.307   1.612   6.874  1.0120  0.1992  1.6598
10008SOL     OW30843   4.724   5.657   5.240 -0.1883  0.2497  0.9419
10008SOL    HW130844   4.737   5.576   5.184 -1.1928 -0.5643  1.8402
10008SOL    HW230845   4.812   5.692   5.271  0.3448  0.3961 -0.6867
10009SOL     OW30846   2.114   1.625   5.703 -0.0015 -0.0649 -0.0508
10009SOL    HW130847   2.043   1.640   5.634  1.1777  1.1045 -1.0460
10009SOL    HW230848   2.200   1.602   5.659  0.2236 -1.7323  1.1528
10010SOL     OW30849   0.858   0.700   5.652 -0.5807 -0.0339 -0.4788
10010SOL    HW130850   0.847   0.690   5.751 -0.3223 -3.3272 -0.6869
10010SOL    HW230851   0.771   0.730   5.612 -1.4362 -1.0181  0.5400
10011SOL     OW30852   1.888   4.257   5.467 -0.9160  0.1588  0.6526
10011SOL    HW130853   1.856   4.343   5.427  2.1810  1.9183  1.5764
10011SOL    HW230854   1.899   4.269   5.566  0.1988 -1.0788  0.6989
10012SOL     OW30855   4.152   1.654   5.282 -0.3345 -0.0275  0.0667
10012SOL    HW130856   4.082   1.653   5.210 -0.0306  1.4383 -0.2692
10012SOL    HW230857   4.115   1.609   5.364 -1.1917 -0.4517 -0.5310
10013SOL     OW30858   6.822   4.349   1.813  0.4108 -0.6338  0.2538
10013SOL    HW130859   6.914   4.365   1.776  0.5862  0.6411  1.1589
10013SOL    HW230860   6.829   4.297   1.897  0.3461 -0.2163  0.5205
10014SOL     OW30861   6.043   3.208   0.134 -0.6253  0.0597  0.0544
10014SOL    HW130862   5.999   3.147   0.200 -0.6398 -0.1387 -0.1342
10014SOL    HW230863   6.103   3.155   0.074  1.5579  0.5934  1.6455
10015SOL     OW30864   4.186   6.518   0.297 -0.1210  0.3491  0.2818
10015SOL    HW130865   4.267   6.471   0.261 -0.6818  0.3310 -1.0321
10015SOL    HW230866   4.120   6.532   0.223 -0.0574  3.0575  0.6155
10016SOL     OW30867   2.494   0.319   2.790  0.5215  0.5717  0.1039
10016SOL    HW130868   2.476   0.259   2.867 -2.8309  0.5570 -0.5205
10016SOL    HW230869   2.500   0.265   2.706  0.7152  0.8441 -0.0577
10017SOL     OW30870   0.981   2.508   5.328 -0.5274  0.2522 -0.6044
10017SOL    HW130871   0.936   2.428   5.368  0.6686  1.0508  2.7157
10017SOL    HW230872   0.930   2.591   5.352  0.6000  0.8446 -0.1697
10018SOL     OW30873   4.109   5.694   0.913  0.5362 -0.1107  0.2207
10018SOL    HW130874   4.010   5.683   0.899  0.0614  2.6580  0.8517
10018SOL    HW230875   4.129   5.696   1.011  0.9068  1.4243  0.1281
10019SOL     OW30876   3.615   3.443   4.128 -0.4284  0.2472 -0.5168
10019SOL    HW130877   3.628   3.378   4.054 -0.7738  1.3457 -1.5797
10019SOL    HW230878   3.519   3.447   4.154  0.0759 -2.4471  2.2292
10020SOL     OW30879   1.966   1.476   4.795 -0.1143  0.2494  0.3273
10020SOL    HW130880   1.932   1.552   4.740  0.1081 -0.2401 -0.4956
10020SOL    HW230881   2.057   1.497   4.829  0.3030  0.0040 -0.6161
10021SOL     OW30882   2.733   0.828   4.571  0.1175 -0.8522 -0.2127
10021SOL    HW130883   2.656   0.823   4.635  0.3801  1.1007  0.3077
10021SOL    HW230884   2.750   0.737   4.533 -1.8590 -1.5127  0.3405
10022SOL     OW30885   2.265   0.898   2.176 -0.1068  0.3662 -0.1773
10022SOL    HW130886   2.178   0.851   2.180 -0.2385  0.6622  0.5090
10022SOL    HW230887   2.321   0.874   2.255  0.3491  0.3395 -0.5022
10023SOL     OW30888   2.266   3.442   1.405  0.0322  0.3159 -0.3095
10023SOL    HW130889   2.226   3.493   1.481  0.0541  1.6454 -1.1618
10023SOL    HW230890   2.256   3.344   1.422 -0.6810  0.5936  1.0138
10024SOL     OW30891   5.592   1.863   4.147 -0.2239  0.0389  1.2220
10024SOL    HW130892   5.610   1.766   4.134  0.1443  0.3403 -1.1847
10024SOL    HW230893   5.512   1.889   4.093 -0.1556  1.1024  1.6121
10025SOL     OW30894   1.374   5.350   5.337  0.6286  0.4617  0.0445
10025SOL    HW130895   1.302   5.306   5.283  0.6973 -1.2666  1.2954
10025SOL    HW230896   1.463   5.329   5.297  0.6916 -0.9538  0.8417
10026SOL     OW30897   1.645   6.461   6.791  0.4156 -0.0788 -0.1321
10026SOL    HW130898   1.624   6.539   6.849  0.9523  0.7238 -1.0047
10026SOL    HW230899   1.565   6.400   6.788  0.7429 -0.7410  2.3308
10027SOL     OW30900   1.069   4.209   2.044  0.0969 -0.5574  0.1658
10027SOL    HW130901   1.051   4.164   1.957  0.4968 -0.7280  0.1697
10027SOL    HW230902   1.013   4.166   2.115 -0.8210  0.0989 -0.1424
10028SOL     OW30903   3.746   3.355   3.817  0.0069 -0.0458 -0.0122
10028SOL    HW130904   3.811   3.302   3.871 -0.0591 -1.3045 -1.1326
10028SOL    HW230905   3.765   3.342   3.720 -1.3460  0.2981 -0.3437
10029SOL     OW30906   2.305   3.179   3.671 -0.0855  0.3198  0.2892
10029SOL    HW130907   2.352   3.110   3.726 -2.5046  0.0352  2.1594
10029SOL    HW230908   2.325   3.270   3.707 -1.1154  0.1791  1.2679
10030SOL     OW30909   6.303   3.377   1.227 -0.0808 -0.1015  0.5733
10030SOL    HW130910   6.365   3.412   1.298 -0.5001 -0.9042  1.3538
10030SOL    HW230911   6.228   3.328   1.271 -0.3470 -0.6037 -0.4361
10031SOL     OW30912   1.527   6.107   4.615 -0.1886  0.5556  0.0295
10031SOL    HW130913   1.525   6.195   4.567  1.2230  0.9471  0.6304
10031SOL    HW230914   1.437   6.090   4.656 -1.1113  0.6978 -1.8031
10032SOL     OW30915   4.038   2.789   6.223  0.5847 -1.1544 -0.4373
10032SOL    HW130916   4.120   2.732   6.221  1.7175  0.4142 -0.7209
10032SOL    HW230917   4.010   2.804   6.318  0.8321 -1.4101 -0.3222
10033SOL     OW30918   4.061   1.463   0.550  0.0101  0.1652 -0.4554
10033SOL    HW130919   4.099   1.388   0.604 -0.4973 -0.0506 -0.3821
10033SOL    HW230920   4.005   1.521   0.609  2.1379  1.8913 -0.0242
10034SOL     OW30921   1.259   1.082   5.010 -0.1403  0.0931  0.3235
10034SOL    HW130922   1.334   1.091   5.075  1.0656  1.1924 -1.1345
10034SOL    HW230923   1.296   1.076   4.917 -1.8267 -0.5599 -0.3544
10035SOL     OW30924   0.596   5.213   2.756 -0.5218  0.0115 -0.4944
10035SOL    HW130925   0.661   5.285   2.776 -1.0816  0.3763  0.0634
10035SOL    HW230926   0.517   5.251   2.708 -1.6271  0.1239  1.3040
10036SOL     OW30927   2.410   0.118   1.344  0.2504 -0.8498 -0.5702
10036SOL    HW130928   2.327   0.111   1.289 -0.2544 -0.9302  0.1813
10036SOL    HW230929   2.389   0.092   1.438  0.4621  1.7569  0.2664
10037SOL     OW30930   4.794   5.901   2.431  0.5156  0.8484 -1.2524
10037SOL    HW130931   4.869   5.886   2.366 -0.0084 -2.2393 -1.3161
10037SOL    HW230932   4.707   5.901   2.382  0.2736  1.4868 -0.8378
10038SOL     OW30933   5.944   2.893   5.449 -0.1466 -0.2813  0.8639
10038SOL    HW130934   5.854   2.850   5.445 -0.7619  0.8594  1.8674
10038SOL    HW230935   6.003   2.841   5.511 -0.4896 -0.3998  1.1001
10039SOL     OW30936   5.716   2.402   3.192 -0.0169 -0.1214  0.6532
10039SOL    HW130937   5.699   2.424   3.096 -1.6029  0.7382  1.1026
10039SOL    HW230938   5.800   2.446   3.222 -0.9753  1.9851  0.4085
10040SOL     OW30939   3.255   2.240   1.251  0.2285 -0.1940 -0.3112
10040SOL    HW130940   3.349   2.218   1.278  0.1956  0.2264  0.1672
10040SOL    HW230941   3.242   2.220   1.154  0.3954 -1.6046 -0.0610
10041SOL     OW30942   6.002   2.311   6.504 -0.3597  0.0008 -0.2022
10041SOL    HW130943   5.945   2.371   6.559  1.9499  1.4179  0.7702
10041SOL    HW230944   6.034   2.234   6.560  0.7901  0.6432  0.0493
10042SOL     OW30945   5.131   1.986   2.716 -0.6065 -0.2631 -0.1364
10042SOL    HW130946   5.139   2.058   2.647 -1.6577 -0.0999 -0.1044
10042SOL    HW230947   5.164   2.020   2.804 -0.0896 -0.1837 -0.3566
10043SOL     OW30948   3.518   6.404   6.668 -0.4466 -0.0504  0.1114
10043SOL    HW130949   3.466   6.350   6.602  0.1226  0.5961 -0.8975
10043SOL    HW230950   3.524   6.499   6.637  1.5338 -0.1551  0.0395
10044SOL     OW30951   1.197   3.888   6.224 -0.1126 -0.4738 -0.7034
10044SOL    HW130952   1.100   3.865   6.229 -0.5578  1.3792  0.2857
10044SOL    HW230953   1.252   3.810   6.255 -1.3468 -1.1797 -0.2567
10045SOL     OW30954   3.347   6.003   5.789  0.6374  0.2020  0.3242
10045SOL    HW130955   3.362   5.905   5.797  3.3397  0.4658 -0.5739
10045SOL    HW230956   3.327   6.026   5.694  2.3669  0.7238  0.0458
10046SOL     OW30957   0.028   6.040   4.624  0.0836  0.2864 -0.1492
10046SOL    HW130958   0.026   6.082   4.715  0.1590  1.4049 -0.6522
10046SOL    HW230959  -0.057   6.063   4.575  1.3706  2.2993 -1.4927
10047SOL     OW30960   3.359   4.943   3.541 -0.3609  0.1912 -0.1879
10047SOL    HW130961   3.350   4.858   3.593 -1.6621  0.1828 -0.4042
10047SOL    HW230962   3.399   5.014   3.599  1.0953 -0.6469 -0.1128
10048SOL     OW30963   1.989   6.880   3.189  0.1040  0.1996  0.1472
10048SOL    HW130964   2.018   6.791   3.223  0.7315  0.9575  1.6683
10048SOL    HW230965   1.895   6.874   3.155  1.1586 -1.8172 -2.9264
10049SOL     OW30966   3.180   5.832   5.404  0.1718 -0.1880 -0.5733
10049SOL    HW130967   3.167   5.733   5.402 -0.7572 -0.0706 -1.1286
10049SOL    HW230968   3.254   5.858   5.343 -0.0866 -0.4705 -1.0071
10050SOL     OW30969   5.346   5.747   3.054 -0.0407  0.0077  0.1996
10050SOL    HW130970   5.264   5.797   3.080 -1.3622 -1.9407  0.0440
10050SOL    HW230971   5.368   5.765   2.958 -0.1032  0.7542  0.3208
10051SOL     OW30972   4.685   5.907   0.993  0.2995  0.2635 -0.3603
10051SOL    HW130973   4.657   5.973   0.923 -0.4408 -0.7122 -1.0165
10051SOL    HW230974   4.775   5.871   0.971 -0.2688 -0.6404 -1.2851
10052SOL     OW30975   4.963   2.649   1.884 -0.0898  0.2989  0.2384
10052SOL    HW130976   4.933   2.717   1.817 -2.8707 -2.8609 -2.0311
10052SOL    HW230977   4.886   2.590   1.909  2.4076 -3.1247  0.6230
10053SOL     OW30978   5.345   5.223   3.314 -0.2055 -0.5149 -0.0642
10053SOL    HW130979   5.269   5.222   3.379  0.7994 -1.3573  1.1223
10053SOL    HW230980   5.380   5.317   3.305 -1.6019 -0.0165 -0.9544
10054SOL     OW30981   4.618   0.323   0.658 -0.0687  0.0912 -0.4328
10054SOL    HW130982   4.704   0.375   0.656 -0.2889  0.4357 -1.1392
10054SOL    HW230983   4.568   0.345   0.742  0.0084  0.7359 -0.5480
10055SOL     OW30984   2.548   6.174   0.439 -0.3777  0.0945 -0.2412
10055SOL    HW130985   2.493   6.161   0.357 -0.7349 -1.2341  0.1841
10055SOL    HW230986   2.633   6.220   0.415 -0.7932  0.3846 -1.2223
10056SOL     OW30987   6.581   0.493   3.599 -0.5848  0.3057  0.5193
10056SOL    HW130988   6.641   0.433   3.546  1.2159  1.7501  0.7976
10056SOL    HW230989   6.495   0.507   3.549  0.4584  0.4772 -1.3127
10057SOL     OW30990   2.822   1.563   4.581 -0.3247 -0.3875  0.4845
10057SOL    HW130991   2.920   1.562   4.562 -0.5386 -0.9166 -0.7293
10057SOL    HW230992   2.780   1.643   4.536 -0.1205  1.2931  3.0627
10058SOL     OW30993   4.521   6.995   6.537  0.1232 -0.1591 -0.0844
10058SOL    HW130994   4.555   7.058   6.606 -0.5795 -1.5244  1.5621
10058SOL    HW230995   4.429   6.964   6.562  0.6515 -2.2508 -0.5096
10059SOL     OW30996   4.287   6.928   0.168  0.4025  0.3358 -0.5903
10059SOL    HW130997   4.234   7.012   0.183 -0.5063 -0.2195 -0.6561
10059SOL    HW230998   4.239   6.851   0.210  1.3909 -0.1053 -0.2565
10060SOL     OW30999   6.847   2.778   2.287  0.1606  0.4091  0.4026
10060SOL    HW131000   6.878   2.870   2.312 -0.1327  0.1372  1.8459
10060SOL    HW231001   6.848   2.769   2.188  1.5812  1.4851  0.2807
10061SOL     OW31002   6.230   6.731   5.815  0.0937 -0.1726 -0.5569
10061SOL    HW131003   6.153   6.721   5.877  0.1333  0.8340 -0.3352
10061SOL    HW231004   6.307   6.676   5.848 -0.4478 -1.0184 -0.6732
10062SOL     OW31005   4.928   5.963   5.544  0.2052  0.8955  0.1374
10062SOL    HW131006   4.997   5.905   5.588  0.5906  1.5418  0.3958
10062SOL    HW231007   4.839   5.918   5.550  0.7564 -0.5091 -1.2242
10063SOL     OW31008   5.919   7.012   1.364 -0.2317 -0.2075  0.3663
10063SOL    HW131009   5.864   6.931   1.385 -2.5316  1.1273 -0.2718
10063SOL    HW231010   5.947   7.056   1.450  0.7761 -1.4503  0.7199
10064SOL     OW31011   3.886   5.151   6.987  0.1208 -0.5467 -0.4058
10064SOL    HW131012   3.923   5.088   7.055  0.6901 -2.0732 -2.0869
10064SOL    HW231013   3.959   5.208   6.950 -0.1824  0.2578  0.2034
10065SOL     OW31014   2.491   4.886   6.499  0.6281  0.0818  0.1327
10065SOL    HW131015   2.484   4.969   6.443 -1.0545 -0.6779 -0.9013
10065SOL    HW231016   2.518   4.910   6.592 -0.0062  1.8080 -0.0892
10066SOL     OW31017   2.237   2.915   1.324 -0.5878  0.3507  0.7050
10066SOL    HW131018   2.269   2.864   1.404  0.9892  0.9933  0.5102
10066SOL    HW231019   2.197   2.851   1.258 -0.8894 -0.3156  1.5027
10067SOL     OW31020   5.914   5.454   6.613  0.4622  0.0855 -0.7168
10067SOL    HW131021   5.940   5.358   6.608  1.3066  0.3699 -3.2912
10067SOL    HW231022   5.821   5.466   6.578  0.0807  0.1686  0.2578
10068SOL     OW31023   2.476   6.681   3.803  0.4712 -0.1548  0.5192
10068SOL    HW131024   2.442   6.763   3.758  0.2998 -0.5102  0.0004
10068SOL    HW231025   2.497   6.611   3.735 -1.3565 -1.2978  1.0699
10069SOL     OW31026   1.425   0.598   3.393 -0.0652 -0.1531  0.6152
10069SOL    HW131027   1.472   0.533   3.452 -2.1781 -0.9674  1.4716
10069SOL    HW231028   1.368   0.658   3.449  0.9374  1.6980 -0.2657
10070SOL     OW31029   6.623   4.944   4.212 -0.1770 -0.1779 -0.1943
10070SOL    HW131030   6.702   4.981   4.261 -0.2745  0.3441 -0.4159
10070SOL    HW231031   6.587   4.865   4.261  1.7394 -1.7385 -1.1650
10071SOL     OW31032   0.179   3.227   4.510  0.5730 -0.1528  0.1766
10071SOL    HW131033   0.202   3.286   4.433 -1.7883 -0.1500 -0.6089
10071SOL    HW231034   0.123   3.279   4.575 -1.8101 -1.5414 -0.6840
10072SOL     OW31035   0.220   5.136   4.578 -0.0436 -0.0387  0.3846
10072SOL    HW131036   0.180   5.146   4.487 -0.7808 -0.8008  0.6095
10072SOL    HW231037   0.260   5.045   4.587  2.6112  0.9895 -0.1440
10073SOL     OW31038   6.426   1.588   2.220  0.7192  1.1331 -0.0249
10073SOL    HW131039   6.443   1.593   2.318  1.8334  1.8460 -0.2413
10073SOL    HW231040   6.496   1.531   2.177 -0.9340 -0.9144 -0.1567
10074SOL     OW31041   0.541   5.330   6.491  0.1484 -0.0033  0.1557
10074SOL    HW131042   0.479   5.257   6.460 -0.5444  1.1545 -1.3049
10074SOL    HW231043   0.631   5.290   6.512 -0.6565 -1.4932  0.9081
10075SOL     OW31044   6.532   0.607   6.074  0.6684  0.2078 -0.3105
10075SOL    HW131045   6.445   0.561   6.094  0.2972  1.7992  2.3335
10075SOL    HW231046   6.516   0.685   6.014  0.4367 -0.1467 -0.7110
10076SOL     OW31047   4.325   5.368   2.790  0.3595  0.5055 -0.6442
10076SOL    HW131048   4.403   5.305   2.796 -0.5428 -0.5354  0.7205
10076SOL    HW231049   4.306   5.389   2.694  2.6320  1.2169 -0.9985
10077SOL     OW31050   0.208   6.288   3.392  0.2414  0.5113 -0.3426
10077SOL    HW131051   0.234   6.370   3.340  1.8279  1.8699  2.3346
10077SOL    HW231052   0.242   6.207   3.345  2.0413  1.6918 -1.2034
10078SOL     OW31053   2.078   1.813   4.043  0.3552  0.1967 -0.0171
10078SOL    HW131054   2.021   1.788   4.121  0.7976  2.5509  1.1557
10078SOL    HW231055   2.035   1.887   3.992  1.4273  0.6560 -0.2806
10079SOL     OW31056   3.323   6.642   0.890  0.6606  0.1404  0.2906
10079SOL    HW131057   3.347   6.694   0.808  0.7033  0.0164  0.2242
10079SOL    HW231058   3.398   6.579   0.912  0.5015 -0.0762  0.2247
10080SOL     OW31059   3.470   1.074   3.029  0.0558 -0.4506  0.2976
10080SOL    HW131060   3.517   1.058   3.115 -0.2071 -1.3318  0.2946
10080SOL    HW231061   3.375   1.101   3.047 -0.2601 -1.4922  0.2960
10081SOL     OW31062   1.543   0.368   1.566 -0.0892 -0.5722 -0.1408
10081SOL    HW131063   1.528   0.304   1.641 -0.3906  1.3540  1.5101
10081SOL    HW231064   1.535   0.319   1.479  0.1312 -2.8417  1.0362
10082SOL     OW31065   3.643   0.035   2.058  0.3546  0.0095 -0.8179
10082SOL    HW131066   3.689  -0.030   1.997  1.7881 -0.6761  0.9203
10082SOL    HW231067   3.564  -0.008   2.100  1.2664 -0.6240  0.2859
10083SOL     OW31068   5.518   0.298   3.101 -0.2245 -0.1549  0.0712
10083SOL    HW131069   5.431   0.276   3.055  0.3589 -0.1250 -1.0941
10083SOL    HW231070   5.515   0.265   3.195 -1.9906  0.9978  0.4609
10084SOL     OW31071   4.477   6.574   1.114 -0.2153 -0.4162  0.3561
10084SOL    HW131072   4.453   6.578   1.211 -1.4055 -1.9584  0.1599
10084SOL    HW231073   4.443   6.488   1.075  1.8180 -0.6681 -1.0186
10085SOL     OW31074   0.268   4.670   3.558 -0.2877 -0.1399 -0.3276
10085SOL    HW131075   0.326   4.727   3.616 -1.2137  1.1643 -0.6390
10085SOL    HW231076   0.172   4.690   3.578 -0.6169 -0.9829 -1.0475
10086SOL     OW31077   4.647   4.179   3.000 -0.2460  0.3657 -0.9281
10086SOL    HW131078   4.573   4.228   3.046  0.2791  1.5653 -1.3140
10086SOL    HW231079   4.680   4.234   2.923  1.4005  0.1050 -0.4482
10087SOL     OW31080   6.808   6.976   4.013  0.7273 -0.1889 -0.0191
10087SOL    HW131081   6.761   7.062   4.036 -1.3627 -1.7152  1.7439
10087SOL    HW231082   6.872   6.993   3.938  0.6830  2.9613  0.4776
10088SOL     OW31083   5.826   5.223   5.437 -0.2458 -0.2865 -0.4889
10088SOL    HW131084   5.748   5.175   5.477  0.5022 -0.9523  0.2087
10088SOL    HW231085   5.895   5.239   5.508 -0.8403  2.6240 -0.4951
10089SOL     OW31086   6.544   3.790   1.721 -0.2479  0.4820  0.1797
10089SOL    HW131087   6.459   3.797   1.668 -0.7503  0.6688  0.9776
10089SOL    HW231088   6.559   3.876   1.771  0.8187  0.7299 -0.5196
10090SOL     OW31089   6.210   0.915   0.112  0.2775  0.2706 -0.2005
10090SOL    HW131090   6.136   0.928   0.046 -0.0228 -0.2649  0.0255
10090SOL    HW231091   6.271   0.843   0.079  0.5376  0.5126 -0.2484
10091SOL     OW31092   5.367   5.238   4.518  0.6476  0.4624 -0.0292
10091SOL    HW131093   5.318   5.303   4.576 -0.2545 -0.0760 -0.1796
10091SOL    HW231094   5.411   5.169   4.576 -0.8721 -0.5114  0.0185
10092SOL     OW31095   3.415   5.407   5.432 -0.4017  0.5583  0.1969
10092SOL    HW131096   3.393   5.464   5.511  0.9685  0.8940  0.3639
10092SOL    HW231097   3.426   5.464   5.351 -2.3273  0.1664 -0.4001
10093SOL     OW31098   0.634   0.777   5.535 -0.2387 -0.3499 -0.4342
10093SOL    HW131099   0.578   0.787   5.453 -1.0056 -2.0629 -0.1655
10093SOL    HW231100   0.580   0.802   5.615 -0.4945 -1.4811 -0.2244
10094SOL     OW31101   2.530   0.601   4.350 -0.6476  0.5340  0.2675
10094SOL    HW131102   2.629   0.605   4.359 -0.6529  1.4066  0.0757
10094SOL    HW231103   2.497   0.511   4.378  0.3578 -0.3335 -1.2095
10095SOL     OW31104   6.759   1.465   4.141 -0.1683 -0.0652 -0.4379
10095SOL    HW131105   6.671   1.476   4.185  0.2748 -0.3869  0.5700
10095SOL    HW231106   6.749   1.476   4.042 -1.1976  0.6054 -0.2710
10096SOL     OW31107   5.739   4.704   4.930  0.2338  0.3586  0.1654
10096SOL    HW131108   5.696   4.748   4.852 -0.4628 -1.5281 -0.5696
10096SOL    HW231109   5.671   4.687   5.001  0.4407  0.2047  0.3302
10097SOL     OW31110   1.982   0.150   1.455 -0.8221  0.1025 -0.5773
10097SOL    HW131111   1.994   0.098   1.540  0.7750  0.0270 -0.8187
10097SOL    HW231112   1.966   0.246   1.477  0.1096  0.1810 -0.1678
10098SOL     OW31113   0.778   2.657   5.772 -0.2017 -0.4043 -0.2797
10098SOL    HW131114   0.719   2.736   5.755 -2.3996 -1.3215  2.2984
10098SOL    HW231115   0.750   2.582   5.713  0.3383  0.0087 -1.0807
10099SOL     OW31116   5.228   5.120   3.740  0.1464 -0.2722 -0.0515
10099SOL    HW131117   5.311   5.065   3.753 -0.9445 -1.7530  0.8453
10099SOL    HW231118   5.183   5.134   3.828  0.8504  2.9399 -0.0497
10100SOL     OW31119   2.862   1.033   3.825 -0.3191 -0.0379 -0.4011
10100SOL    HW131120   2.890   0.944   3.860  0.2176 -0.7588 -2.5393
10100SOL    HW231121   2.774   1.058   3.865 -0.3236 -1.3703  0.4821
10101SOL     OW31122   3.132   6.388   0.532 -0.4595 -0.5705 -0.6350
10101SOL    HW131123   3.071   6.414   0.607  0.3696 -1.3293  0.3180
10101SOL    HW231124   3.219   6.436   0.541 -0.5737 -0.1723 -1.4911
10102SOL     OW31125   4.473   0.025   0.887 -0.5401  0.1593  0.0084
10102SOL    HW131126   4.431  -0.059   0.921 -1.6728  0.4594 -0.6808
10102SOL    HW231127   4.435   0.103   0.936 -0.3154  0.3612 -0.1373
10103SOL     OW31128   6.238   3.786   1.787  0.1858 -0.2004 -0.2082
10103SOL    HW131129   6.257   3.721   1.713  0.2068  1.2166 -1.5068
10103SOL    HW231130   6.218   3.736   1.871  0.8423 -1.8574 -0.9882
10104SOL     OW31131   3.514   2.804   6.155 -0.2815  0.0897 -0.5413
10104SOL    HW131132   3.568   2.724   6.126 -2.3296 -1.5576  0.0186
10104SOL    HW231133   3.499   2.864   6.076 -1.4304 -1.7415 -1.7852
10105SOL     OW31134   5.414   6.016   5.185 -0.3780  0.0898 -0.5428
10105SOL    HW131135   5.358   5.946   5.141  0.4603 -0.6512 -0.4666
10105SOL    HW231136   5.378   6.033   5.277 -1.4583  0.8299 -1.0758
10106SOL     OW31137   0.149   0.623   3.577  0.4358  0.5227  0.1825
10106SOL    HW131138   0.173   0.717   3.603 -1.3947  0.7235  1.2442
10106SOL    HW231139   0.146   0.616   3.477  1.5464  1.3204  0.0701
10107SOL     OW31140   6.707   5.503   4.885  0.8630 -0.1675  0.0909
10107SOL    HW131141   6.662   5.421   4.920  1.9109 -0.4075  0.9517
10107SOL    HW231142   6.807   5.492   4.891  1.0330  0.8979 -0.3973
10108SOL     OW31143   6.771   2.735   4.602 -0.3752 -0.7381  0.0459
10108SOL    HW131144   6.762   2.695   4.511 -0.6977 -0.1984 -0.1679
10108SOL    HW231145   6.692   2.794   4.621  0.8331  1.0902 -0.3157
10109SOL     OW31146   4.228   4.639   6.158  0.5264 -0.3523  0.1638
10109SOL    HW131147   4.137   4.681   6.153  0.8017  0.1442 -1.0719
10109SOL    HW231148   4.245   4.587   6.075  0.4254 -2.5029  1.4326
10110SOL     OW31149   0.191   1.481   3.958  0.2113  0.0636  0.1343
10110SOL    HW131150   0.168   1.575   3.983 -1.9867 -0.7136  1.4108
10110SOL    HW231151   0.188   1.423   4.039  1.9327 -1.0748 -0.5472
10111SOL     OW31152   0.879   6.447   6.156 -0.4181 -0.3889  0.8760
10111SOL    HW131153   0.937   6.411   6.083 -0.1738  0.3733  0.6804
10111SOL    HW231154   0.933   6.455   6.240 -0.6533 -1.1064  1.1051
10112SOL     OW31155   2.971   1.924   0.157 -0.5067 -0.0809 -0.1540
10112SOL    HW131156   3.024   1.882   0.083 -0.1101 -1.9862  1.1067
10112SOL    HW231157   2.889   1.869   0.174  0.3030 -0.7171  1.9245
10113SOL     OW31158   0.619   6.927   2.663  0.4095 -0.2686 -0.2169
10113SOL    HW131159   0.616   6.975   2.751 -0.4699  0.1343 -0.4505
10113SOL    HW231160   0.532   6.879   2.649  0.0211  0.7372 -1.4516
10114SOL     OW31161   2.186   0.943   4.969  0.1765  0.3496  0.1737
10114SOL    HW131162   2.207   0.995   4.886  1.1182 -0.5243 -0.1598
10114SOL    HW231163   2.188   1.003   5.048  1.3091  0.8096 -0.1964
10115SOL     OW31164   3.496   0.517   4.653  0.6788  0.1790  0.3151
10115SOL    HW131165   3.535   0.582   4.718 -0.6540 -0.5242  1.9203
10115SOL    HW231166   3.445   0.447   4.703  0.1045 -0.7693 -1.4807
10116SOL     OW31167   2.881   0.698   2.111 -0.3512  0.0056 -0.5239
10116SOL    HW131168   2.901   0.641   2.190 -0.7838 -0.4638 -0.7446
10116SOL    HW231169   2.795   0.747   2.126  0.5610  1.4792  0.1334
10117SOL     OW31170   0.599   0.992   2.881  0.3656  0.3920  0.1795
10117SOL    HW131171   0.505   1.005   2.913 -0.6246 -2.0094 -1.3322
10117SOL    HW231172   0.643   0.922   2.937 -0.3496 -1.6494 -1.6341
10118SOL     OW31173   3.540   5.378   4.723 -0.4351 -0.2736 -0.3005
10118SOL    HW131174   3.539   5.341   4.630 -1.0338 -1.1136  0.0355
10118SOL    HW231175   3.634   5.375   4.759 -0.0983  0.5704 -1.0676
10119SOL     OW31176   4.590   1.909   6.709 -0.3232  0.3280 -0.2689
10119SOL    HW131177   4.604   1.968   6.788 -1.6896  1.8211 -1.0745
10119SOL    HW231178   4.557   1.820   6.740 -0.5662  0.7964  0.8859
10120SOL     OW31179   0.318   5.307   0.107 -0.3539 -0.2675 -0.0574
10120SOL    HW131180   0.343   5.211   0.120 -0.9840 -0.1886  2.2606
10120SOL    HW231181   0.219   5.314   0.093 -0.4560  0.0610  0.7089
10121SOL     OW31182   2.729   2.338   1.563  0.0491  0.3557 -0.6235
10121SOL    HW131183   2.670   2.268   1.603  0.1079  0.2981 -0.6286
10121SOL    HW231184   2.780   2.383   1.636  0.3199  0.1054 -0.6519
10122SOL     OW31185   3.294   0.516   4.917  0.4678 -0.1250 -0.0316
10122SOL    HW131186   3.233   0.442   4.948  0.0796  0.3771  0.4217
10122SOL    HW231187   3.267   0.545   4.825 -0.0110  0.1183  0.1774
10123SOL     OW31188   6.397   4.305   2.169  0.4062  0.1406  0.0663
10123SOL    HW131189   6.461   4.380   2.150  0.0530  0.8484  1.5098
10123SOL    HW231190   6.354   4.320   2.259  0.1694 -1.6887  0.2922
10124SOL     OW31191   4.493   5.042   2.133 -0.2528  0.9286 -0.2881
10124SOL    HW131192   4.450   4.993   2.057 -0.4939  0.1523  0.3388
10124SOL    HW231193   4.571   5.095   2.099  1.2982 -1.4503 -0.7153
10125SOL     OW31194   4.905   0.973   6.455  0.3305  0.2974  0.6983
10125SOL    HW131195   4.937   1.058   6.413  1.5252 -0.8452 -0.8291
10125SOL    HW231196   4.896   0.903   6.385 -3.6596 -0.0980  1.3197
10126SOL     OW31197   1.673   3.624   1.461  0.5511 -0.4273  0.4409
10126SOL    HW131198   1.665   3.669   1.372  0.1428  1.4307  1.3499
10126SOL    HW231199   1.768   3.596   1.476  0.4799 -1.4970 -0.8690
10127SOL     OW31200   3.276   5.216   2.402 -0.0460 -0.0962 -0.2879
10127SOL    HW131201   3.320   5.126   2.395  0.0246 -0.4156  2.9335
10127SOL    HW231202   3.188   5.207   2.448  0.0584  1.4987  0.3023
10128SOL     OW31203   0.146   6.564   3.837  0.2760 -0.0915 -0.0793
10128SOL    HW131204   0.237   6.579   3.876 -0.3134  0.7699  1.0395
10128SOL    HW231205   0.082   6.539   3.909 -0.4161 -0.5617 -0.8275
10129SOL     OW31206   5.552   1.867   0.751  0.0378  0.1948 -0.5630
10129SOL    HW131207   5.523   1.902   0.662 -0.3447 -0.3923 -0.6773
10129SOL    HW231208   5.651   1.876   0.760 -0.0022  0.9118 -0.7621
10130SOL     OW31209   4.572   6.180   0.009 -0.3976 -0.0256 -0.3562
10130SOL    HW131210   4.540   6.273  -0.010 -0.2368  0.8129  2.8846
10130SOL    HW231211   4.595   6.172   0.106  0.7771 -3.1420 -0.7843
10131SOL     OW31212   6.252   2.180   2.306 -0.1017  0.4820 -0.3121
10131SOL    HW131213   6.340   2.212   2.272 -0.4106  1.2104 -0.4254
10131SOL    HW231214   6.245   2.081   2.292  1.2437  0.1864  0.8877
10132SOL     OW31215   2.151   4.081   6.756  0.5899 -0.0460  0.5945
10132SOL    HW131216   2.221   4.143   6.792  0.3077  0.6989 -0.1143
10132SOL    HW231217   2.092   4.050   6.830 -0.1195  1.6331  0.7597
10133SOL     OW31218   3.922   1.782   5.846  0.9756 -0.0081 -0.3865
10133SOL    HW131219   4.018   1.782   5.818  0.8462  0.3181 -0.8525
10133SOL    HW231220   3.873   1.713   5.793  1.2275 -1.1776  0.8644
10134SOL     OW31221   3.971   1.147   6.448 -0.3369 -0.1309  0.1681
10134SOL    HW131222   3.958   1.116   6.542  0.9974 -1.5091 -0.0700
10134SOL    HW231223   3.911   1.226   6.431  1.9459  2.5529  3.2654
10135SOL     OW31224   3.575   1.954   2.639 -0.7025  1.0202  0.0120
10135SOL    HW131225   3.555   1.939   2.736  1.9024 -0.8674  0.3776
10135SOL    HW231226   3.646   2.024   2.631  1.8131 -1.3781 -0.1174
10136SOL     OW31227   4.983   1.201   4.072 -0.4823  0.3285 -0.6240
10136SOL    HW131228   4.890   1.167   4.060 -0.7489  0.3748  1.0026
10136SOL    HW231229   4.991   1.243   4.162  1.6858 -1.7085  0.2311
10137SOL     OW31230   6.554   3.181   1.574 -0.5037  0.3927  0.0148
10137SOL    HW131231   6.520   3.221   1.659 -1.0869  2.8319 -1.2891
10137SOL    HW231232   6.649   3.151   1.587 -0.4928  0.9946  1.4415
10138SOL     OW31233   1.054   6.748   6.966  0.0197 -0.3795  0.8803
10138SOL    HW131234   1.070   6.777   7.060 -1.5799 -0.3157  1.1293
10138SOL    HW231235   0.980   6.680   6.963 -2.5225  2.2259 -0.6041
10139SOL     OW31236   4.438   4.886   1.916 -0.4257  0.0083 -0.4658
10139SOL    HW131237   4.375   4.812   1.942 -1.0789  0.8463  0.4010
10139SOL    HW231238   4.532   4.856   1.929 -0.6623 -0.8920 -0.7538
10140SOL     OW31239   1.710   3.368   6.057 -0.6977  0.6528  0.4213
10140SOL    HW131240   1.781   3.418   6.006 -0.4910  1.4062  1.4050
10140SOL    HW231241   1.621   3.409   6.039 -0.3810  2.3042  2.2311
10141SOL     OW31242   5.989   2.493   3.729  0.3711 -0.7227  0.3159
10141SOL    HW131243   6.031   2.550   3.799 -2.2384 -0.1167  1.5125
10141SOL    HW231244   5.923   2.430   3.771 -2.5389  0.8042 -1.6137
10142SOL     OW31245   4.919   4.867   2.173 -0.1641  0.2868 -0.0207
10142SOL    HW131246   4.940   4.813   2.255  0.1313  1.2794  0.5811
10142SOL    HW231247   4.869   4.811   2.108  2.0969 -1.4368 -0.4080
10143SOL     OW31248   4.096   0.951   5.778 -0.3076  0.1547 -0.1938
10143SOL    HW131249   4.168   0.957   5.709  0.2157 -0.0397  0.3239
10143SOL    HW231250   4.047   0.865   5.768 -0.6324  0.3870 -0.6959
10144SOL     OW31251   0.051   4.235   6.344 -0.4447  0.0126 -0.0676
10144SOL    HW131252  -0.041   4.225   6.305 -0.0095  0.7141 -1.2832
10144SOL    HW231253   0.119   4.229   6.270  0.5206 -0.9175  0.8619
10145SOL     OW31254   2.192   4.262   2.674  0.2193 -0.4074  0.3289
10145SOL    HW131255   2.202   4.194   2.601 -1.4089  0.0108 -0.3082
10145SOL    HW231256   2.126   4.229   2.741  0.8085 -0.2480  1.0116
10146SOL     OW31257   6.171   2.668   1.460  0.0512  0.2739  0.0745
10146SOL    HW131258   6.189   2.647   1.364 -1.1577 -0.4759 -0.0215
10146SOL    HW231259   6.174   2.583   1.514 -0.6558  0.4755  0.4480
10147SOL     OW31260   4.018   7.011   0.717  0.3778 -0.0399  0.9292
10147SOL    HW131261   4.062   6.926   0.746  0.3500 -0.2353  0.3414
10147SOL    HW231262   4.044   7.030   0.622 -0.8152 -0.2019  0.5463
10148SOL     OW31263   6.120   6.417   5.504 -0.3364  0.6728 -0.5381
10148SOL    HW131264   6.195   6.401   5.567 -0.4534 -2.7487 -1.0811
10148SOL    HW231265   6.152   6.408   5.410 -1.2268  0.0561 -0.7967
10149SOL     OW31266   0.617   1.288   4.812  0.7347  0.3918 -0.0350
10149SOL    HW131267   0.629   1.371   4.867 -1.1796  0.2650  0.6461
10149SOL    HW231268   0.548   1.304   4.742 -1.2651 -1.1442  1.4330
10150SOL     OW31269   1.789   5.364   6.922  0.0189  0.2778 -0.0912
10150SOL    HW131270   1.766   5.383   6.827  0.2135  0.5299 -0.0892
10150SOL    HW231271   1.815   5.449   6.968  0.9826  0.0147 -0.1094
10151SOL     OW31272   1.913   2.428   6.054 -0.2618  0.2234 -0.1084
10151SOL    HW131273   1.890   2.522   6.028 -2.4260 -0.7647 -2.1842
10151SOL    HW231274   2.008   2.408   6.030 -0.0640  1.5853 -0.5591
10152SOL     OW31275   1.419   5.628   3.391 -0.1975  0.3817  0.2194
10152SOL    HW131276   1.370   5.703   3.349  0.7504 -0.3425 -2.3757
10152SOL    HW231277   1.511   5.621   3.351  0.2869 -1.1958  1.4685
10153SOL     OW31278   5.755   0.642   4.126 -0.1241  0.0967 -0.2405
10153SOL    HW131279   5.726   0.557   4.169 -1.4208  1.4076  1.6282
10153SOL    HW231280   5.705   0.656   4.041 -2.2559  0.4766  1.0283
10154SOL     OW31281   1.937   4.275   5.721 -0.1168 -0.4154  0.5520
10154SOL    HW131282   2.034   4.289   5.743 -0.3877  0.1644  1.4409
10154SOL    HW231283   1.884   4.271   5.805 -0.8068 -1.3119  0.0896
10155SOL     OW31284   0.384   4.862   1.246 -0.2283  0.0633 -0.1437
10155SOL    HW131285   0.294   4.834   1.278 -0.0481  0.8732  1.1221
10155SOL    HW231286   0.375   4.910   1.159 -1.0627  0.4886  0.1702
10156SOL     OW31287   4.428   5.266   0.089  0.1426  0.5173  0.0408
10156SOL    HW131288   4.516   5.311   0.084  0.3385  0.2651  1.0890
10156SOL    HW231289   4.433   5.177   0.042  0.7973 -0.0333  1.1107
10157SOL     OW31290   1.374   5.464   4.436  0.4953 -0.1173  0.5591
10157SOL    HW131291   1.375   5.461   4.336  0.0660  1.0724  0.4902
10157SOL    HW231292   1.295   5.414   4.471  0.3960 -0.1556  0.2779
10158SOL     OW31293   0.973   0.537   3.144  0.0953 -0.6812  0.2735
10158SOL    HW131294   0.943   0.572   3.232 -1.8928  0.1743 -0.6904
10158SOL    HW231295   0.913   0.572   3.072  1.3520 -1.7716 -1.3685
10159SOL     OW31296   3.107   2.848   5.742 -0.3613 -0.2673  0.4697
10159SOL    HW131297   3.046   2.833   5.820  0.1383 -1.6054  0.6361
10159SOL    HW231298   3.200   2.821   5.767  0.2579  1.3936  0.1038
10160SOL     OW31299   2.391   5.808   4.600 -0.2125 -0.1878 -0.3693
10160SOL    HW131300   2.334   5.821   4.519 -1.9404  0.9777  0.9496
10160SOL    HW231301   2.359   5.729   4.651 -0.6650  0.4454  0.3572
10161SOL     OW31302   1.830   6.588   3.088 -0.0664  0.2961  0.4238
10161SOL    HW131303   1.762   6.521   3.060  1.2702 -0.9202 -0.0203
10161SOL    HW231304   1.917   6.543   3.104  0.4474  1.6922  1.8098
10162SOL     OW31305   5.226   1.520   0.756  0.1703  0.1947 -0.3802
10162SOL    HW131306   5.160   1.595   0.759 -1.1128 -0.9286  0.5410
10162SOL    HW231307   5.312   1.550   0.795 -0.1646  1.3388 -0.4811
10163SOL     OW31308   3.617   1.934   1.225 -0.9067 -0.1329 -0.2540
10163SOL    HW131309   3.674   1.877   1.284 -1.2487  1.2146  1.4562
10163SOL    HW231310   3.534   1.884   1.199 -1.3774 -0.3393  1.5101
10164SOL     OW31311   6.920   6.743   2.294 -0.1650 -0.0818  0.1682
10164SOL    HW131312   6.994   6.689   2.253 -1.4414  0.1453 -2.7069
10164SOL    HW231313   6.947   6.840   2.297  0.1818 -0.1872  0.4712
10165SOL     OW31314   6.466   1.440   4.274  0.2012  0.6862  0.0698
10165SOL    HW131315   6.538   1.420   4.341 -0.9137  1.0415  1.4021
10165SOL    HW231316   6.416   1.357   4.253  0.0374  0.7317  0.2827
10166SOL     OW31317   3.690   2.174   6.867 -0.0606  0.3487  0.4583
10166SOL    HW131318   3.760   2.103   6.867 -0.1009  0.2916  1.3469
10166SOL    HW231319   3.655   2.186   6.775  0.3211 -0.4122  0.2023
10167SOL     OW31320   4.682   7.004   1.659  0.0772  0.1031  0.1783
10167SOL    HW131321   4.685   6.948   1.576 -1.5507  0.3232 -0.0669
10167SOL    HW231322   4.774   7.034   1.682  0.4667  0.9190 -2.1990
10168SOL     OW31323   2.370   5.356   6.472 -0.3263 -0.1607  0.1138
10168SOL    HW131324   2.317   5.404   6.402 -1.0858 -1.6903 -0.3979
10168SOL    HW231325   2.324   5.364   6.560  0.5271  1.6000  0.4470
10169SOL     OW31326   5.998   0.073   3.732  0.2062 -0.2880 -0.2204
10169SOL    HW131327   6.087   0.033   3.752  0.5248  0.1109 -0.7881
10169SOL    HW231328   5.926   0.018   3.774  0.6445 -1.3151 -0.7667
10170SOL     OW31329   2.651   5.122   3.170 -0.3433  0.5421 -0.2728
10170SOL    HW131330   2.690   5.079   3.089 -1.3681  1.7351 -1.4524
10170SOL    HW231331   2.711   5.196   3.201 -0.5984  0.9495 -0.7512
10171SOL     OW31332   5.457   4.260   3.005  0.1284  0.4530  0.2823
10171SOL    HW131333   5.373   4.288   3.053  0.1563  0.5124  0.2962
10171SOL    HW231334   5.474   4.163   3.023 -0.0755  0.3758  0.0765
10172SOL     OW31335   6.158   3.520   4.055  0.5125 -0.3071  0.2447
10172SOL    HW131336   6.191   3.461   4.129 -1.6203 -0.9377  0.7509
10172SOL    HW231337   6.202   3.492   3.969  0.8780 -1.4752  0.7857
10173SOL     OW31338   5.249   0.305   4.551  0.1731  0.3189 -0.0132
10173SOL    HW131339   5.234   0.217   4.595 -0.4438  1.8906  3.2198
10173SOL    HW231340   5.214   0.378   4.610  1.0865  2.7955 -2.3273
10174SOL     OW31341   6.525   0.342   4.240 -0.2568  0.2057 -0.5962
10174SOL    HW131342   6.456   0.412   4.222  0.8193  0.8573 -2.5028
10174SOL    HW231343   6.480   0.260   4.277 -1.5887  1.6881  1.2631
10175SOL     OW31344   5.876   4.983   2.236 -0.7943  0.6903  0.3249
10175SOL    HW131345   5.792   5.007   2.188 -1.0148  2.8852  1.6555
10175SOL    HW231346   5.941   5.059   2.230  1.0016 -0.8417 -0.4156
10176SOL     OW31347   0.536   3.398   4.531 -0.0395 -0.3991  0.4425
10176SOL    HW131348   0.523   3.300   4.544 -2.0256 -0.5775 -2.0262
10176SOL    HW231349   0.571   3.416   4.439  5.1208  1.0727  2.3796
10177SOL     OW31350   0.788   2.804   3.750  0.3696  0.1667 -0.1760
10177SOL    HW131351   0.837   2.875   3.699  0.1648  0.1829 -0.3518
10177SOL    HW231352   0.833   2.716   3.735  1.7009  0.5257  1.4570
10178SOL     OW31353   4.140   4.823   0.330 -0.0494 -0.3637  0.0312
10178SOL    HW131354   4.078   4.744   0.330  0.6203 -0.9624  1.8630
10178SOL    HW231355   4.177   4.835   0.422  0.9327  1.2583 -0.5395
10179SOL     OW31356   0.810   3.757   6.296  0.2247  0.0663 -0.2801
10179SOL    HW131357   0.735   3.750   6.230  0.4449 -0.0102 -0.5251
10179SOL    HW231358   0.868   3.676   6.289 -1.1069 -1.1670  1.6829
10180SOL     OW31359   0.115   6.158   1.381 -0.1156 -0.0298 -0.6289
10180SOL    HW131360   0.185   6.175   1.451 -0.1509  1.5289 -0.9382
10180SOL    HW231361   0.113   6.235   1.317 -2.3537  0.1122 -0.4382
10181SOL     OW31362   5.552   0.341   2.221  0.0254  0.3213  0.6306
10181SOL    HW131363   5.639   0.314   2.262 -0.1962 -1.3255  0.0888
10181SOL    HW231364   5.567   0.370   2.127 -0.2607 -2.7327 -0.4839
10182SOL     OW31365   1.131   2.846   2.330  0.3711  0.5332  0.4550
10182SOL    HW131366   1.082   2.932   2.316  1.2942  0.9606 -0.3497
10182SOL    HW231367   1.206   2.860   2.394  1.2361  0.6444 -0.5390
10183SOL     OW31368   6.258   1.266   3.278 -0.9472  0.9953 -0.1951
10183SOL    HW131369   6.222   1.348   3.235 -0.6591 -1.0455 -4.8888
10183SOL    HW231370   6.187   1.195   3.279 -0.0694  0.0988  0.0582
10184SOL     OW31371   0.745   0.618   6.445  0.2605 -0.8493  0.1528
10184SOL    HW131372   0.647   0.617   6.463  0.1084  1.5737 -0.1028
10184SOL    HW231373   0.792   0.669   6.516  1.1983 -0.9975 -0.3400
10185SOL     OW31374   5.123   2.930   0.507  0.5528  0.4846  0.0765
10185SOL    HW131375   5.196   2.969   0.563 -0.2749  1.7296  0.3341
10185SOL    HW231376   5.145   2.942   0.411  0.9918  0.2695  0.1452
10186SOL     OW31377   2.494   5.793   0.065 -0.0105  0.1510 -0.4339
10186SOL    HW131378   2.568   5.827   0.007  0.6733 -0.3020  0.1563
10186SOL    HW231379   2.529   5.777   0.157 -0.9043  0.1532 -0.0894
10187SOL     OW31380   1.919   0.680   6.521 -0.6060 -0.1879 -0.2555
10187SOL    HW131381   1.839   0.687   6.581 -0.9317  0.1440 -0.7174
10187SOL    HW231382   1.892   0.699   6.427  0.5898  3.5406 -0.0333
10188SOL     OW31383   3.895   0.990   1.319  0.2231 -0.1480  0.2574
10188SOL    HW131384   3.833   0.939   1.380  0.5108 -1.5402 -0.5579
10188SOL    HW231385   3.976   0.935   1.302  0.1756  0.2515 -1.3344
10189SOL     OW31386   2.266   1.024   6.178 -0.2786  0.5192  0.1131
10189SOL    HW131387   2.172   1.033   6.210  0.0219  1.3404  0.7998
10189SOL    HW231388   2.286   1.097   6.112 -0.3452 -0.0959 -0.6037
10190SOL     OW31389   4.004   6.790   1.468  0.4298  0.1796 -0.3778
10190SOL    HW131390   4.020   6.886   1.446 -1.9679  0.8561  0.5746
10190SOL    HW231391   3.920   6.759   1.424  0.3280 -1.0349  0.5997
10191SOL     OW31392   6.582   6.263   3.489  0.3075  0.0614 -0.5306
10191SOL    HW131393   6.595   6.171   3.454 -1.5109 -0.2715 -0.4188
10191SOL    HW231394   6.485   6.287   3.485  0.2812  0.7733  2.3468
10192SOL     OW31395   0.543   5.998   6.314  0.1380  0.1096  0.4348
10192SOL    HW131396   0.573   6.053   6.236 -1.0250 -0.0310 -0.1375
10192SOL    HW231397   0.622   5.971   6.368  1.0658 -0.3555 -1.0784
10193SOL     OW31398   6.715   4.837   3.289  0.3421 -0.5850  0.8384
10193SOL    HW131399   6.733   4.928   3.328  0.4182 -0.6817  1.0319
10193SOL    HW231400   6.648   4.845   3.216  0.7916 -0.2868  0.4553
10194SOL     OW31401   2.142   4.103   1.194  0.1085  0.4385 -0.0739
10194SOL    HW131402   2.147   4.025   1.256 -0.9600 -0.3381 -0.9253
10194SOL    HW231403   2.095   4.178   1.240 -0.3385  0.0076  0.1929
10195SOL     OW31404   5.826   5.499   0.450 -0.3331 -0.5887 -0.1551
10195SOL    HW131405   5.753   5.443   0.489  0.8296 -0.7700  1.9566
10195SOL    HW231406   5.905   5.497   0.511  0.5704  1.5897 -1.1359
10196SOL     OW31407   6.214   2.521   3.520  0.6692 -0.3192 -0.2887
10196SOL    HW131408   6.266   2.435   3.515 -0.0671 -0.7030 -2.7945
10196SOL    HW231409   6.136   2.509   3.582  0.5694 -1.4913 -0.6024
10197SOL     OW31410   4.586   4.300   4.972 -0.4739  0.2295  0.0470
10197SOL    HW131411   4.588   4.242   4.891  0.7132 -0.5445  0.5967
10197SOL    HW231412   4.676   4.300   5.016 -1.0110  0.8546  1.2168
10198SOL     OW31413   1.627   0.150   2.494 -0.5110 -0.0571  0.0860
10198SOL    HW131414   1.620   0.103   2.582  0.0149  2.4524  1.5932
10198SOL    HW231415   1.535   0.165   2.457 -0.8675  0.4099  1.1177
10199SOL     OW31416   1.758   3.341   4.898  0.8217  0.1202 -0.1259
10199SOL    HW131417   1.729   3.357   4.804  0.3210 -0.1777 -0.0263
10199SOL    HW231418   1.815   3.259   4.903  0.3145 -0.2251 -0.0668
10200SOL     OW31419   1.424   6.028   2.266  0.6133 -0.6442 -0.3526
10200SOL    HW131420   1.384   6.111   2.227  0.1132 -0.6124  0.2242
10200SOL    HW231421   1.352   5.966   2.294  0.9840 -1.0887 -0.3825
10201SOL     OW31422   4.917   1.838   5.977 -0.0282  0.1508  0.7001
10201SOL    HW131423   4.886   1.931   5.998 -0.5384 -0.0770  0.9821
10201SOL    HW231424   4.905   1.819   5.880  2.6561  1.3342  0.0565
10202SOL     OW31425   0.062   5.418   2.779 -0.0541  0.2274  0.2211
10202SOL    HW131426  -0.007   5.447   2.845 -0.6108  0.2496 -0.3695
10202SOL    HW231427   0.058   5.319   2.768 -0.2279  0.2678 -0.0802
10203SOL     OW31428   3.948   3.981   1.629  0.1910 -0.7487 -0.0003
10203SOL    HW131429   3.871   4.026   1.674 -0.5954  0.0162 -1.9918
10203SOL    HW231430   4.022   4.047   1.615  0.5247 -1.0381  0.3690
10204SOL     OW31431   0.946   0.075   3.144  0.3552  0.1278 -0.3187
10204SOL    HW131432   0.876   0.075   3.072 -0.0717  0.4754  0.0881
10204SOL    HW231433   0.997   0.161   3.141 -0.1310  0.4381  0.2420
10205SOL     OW31434   5.055   4.682   3.340 -0.6203  0.5425  0.4248
10205SOL    HW131435   5.055   4.689   3.439  1.1418  2.0039  0.3909
10205SOL    HW231436   4.976   4.630   3.309 -1.4663  0.4983  2.5528
10206SOL     OW31437   1.284   6.245   2.870 -0.4997  0.2393 -0.0714
10206SOL    HW131438   1.271   6.179   2.796  2.5663 -0.0166 -0.4713
10206SOL    HW231439   1.308   6.334   2.832  2.6535 -0.2627  0.5451
10207SOL     OW31440   4.186   5.382   4.921  0.0718 -0.2049  0.3564
10207SOL    HW131441   4.262   5.421   4.869  0.7330  0.3433  1.6985
10207SOL    HW231442   4.139   5.315   4.864 -1.2563  2.5914 -2.1943
10208SOL     OW31443   5.663   5.667   5.069  0.2195  0.1332 -0.4532
10208SOL    HW131444   5.670   5.766   5.075 -1.9714  0.3009  0.6695
10208SOL    HW231445   5.693   5.626   5.155 -1.8034  0.1038  0.2891
10209SOL     OW31446   0.113   2.045   1.793  0.0813  0.3855 -0.9635
10209SOL    HW131447   0.014   2.057   1.801 -0.0258 -0.7883 -0.4239
10209SOL    HW231448   0.153   2.129   1.755 -1.0518  1.0545 -0.7391
10210SOL     OW31449   5.761   4.282   0.147  0.2359 -0.0484 -0.4086
10210SOL    HW131450   5.750   4.306   0.050  2.4317 -0.6440 -0.8621
10210SOL    HW231451   5.823   4.348   0.190  0.6607 -0.7957  0.1423
10211SOL     OW31452   5.885   6.306   5.081  0.0168 -0.2110  0.2929
10211SOL    HW131453   5.796   6.330   5.120  0.2015 -0.3887  0.8192
10211SOL    HW231454   5.871   6.271   4.988 -0.3399  1.0337 -0.1441
10212SOL     OW31455   6.437   1.983   4.529 -0.0544 -0.0184 -0.0516
10212SOL    HW131456   6.456   1.936   4.616  1.3511  0.1054 -0.2654
10212SOL    HW231457   6.444   1.918   4.454  0.6519  0.2653 -0.2376
10213SOL     OW31458   1.391   0.671   5.278 -0.1506  0.3689  0.1871
10213SOL    HW131459   1.301   0.629   5.293 -0.6860  0.8394 -1.5026
10213SOL    HW231460   1.387   0.731   5.198  1.5967  0.6482  0.2740
10214SOL     OW31461   6.042   5.297   3.084  0.4481  0.3812  0.4609
10214SOL    HW131462   6.016   5.239   3.161 -0.2791 -1.4086 -1.0646
10214SOL    HW231463   6.134   5.273   3.053 -0.5264 -1.4265 -1.3460
10215SOL     OW31464   0.415   6.107   1.079 -0.4995  0.5941 -0.1460
10215SOL    HW131465   0.336   6.047   1.069  0.2779 -0.1739 -2.2356
10215SOL    HW231466   0.497   6.060   1.049  0.6372  1.7157  1.0519
10216SOL     OW31467   4.493   1.792   6.374  0.2336  0.2660 -0.2513
10216SOL    HW131468   4.409   1.769   6.424 -0.2776  1.5180 -0.4931
10216SOL    HW231469   4.550   1.711   6.367  0.0373 -0.1159  1.8160
10217SOL     OW31470   6.225   1.267   3.754  0.4414  0.2480  0.7747
10217SOL    HW131471   6.302   1.244   3.693 -0.7184 -1.8794 -0.0217
10217SOL    HW231472   6.143   1.280   3.699  0.1232  2.2727  1.6404
10218SOL     OW31473   2.358   3.063   2.773 -0.4077  0.2246 -0.5450
10218SOL    HW131474   2.438   3.100   2.726 -2.0093  1.7859 -2.1713
10218SOL    HW231475   2.344   3.114   2.858 -1.3987  2.0951 -1.7613
10219SOL     OW31476   5.807   5.063   6.122 -0.1785 -0.1646 -0.6508
10219SOL    HW131477   5.901   5.047   6.151  0.3663  0.1252 -2.1834
10219SOL    HW231478   5.752   4.981   6.139 -0.0673  0.2002  1.7274
10220SOL     OW31479   1.597   2.948   4.124 -0.1792 -0.3931 -0.2184
10220SOL    HW131480   1.606   3.009   4.045  0.8822 -0.5735 -0.2420
10220SOL    HW231481   1.550   2.865   4.096 -1.0935  0.1464 -0.3264
10221SOL     OW31482   5.048   1.627   3.446  0.1568  0.3952  0.1948
10221SOL    HW131483   5.063   1.724   3.425 -1.0294  0.4554 -0.4546
10221SOL    HW231484   5.057   1.613   3.545 -1.2664  1.5039  0.5191
10222SOL     OW31485   6.164   2.191   5.179  0.1340  0.1241  0.0249
10222SOL    HW131486   6.098   2.243   5.233 -1.9948 -0.2357 -2.0782
10222SOL    HW231487   6.150   2.093   5.193 -0.3840  0.0290 -1.0824
10223SOL     OW31488   4.427   2.907   0.463 -0.1028  1.0114 -0.3841
10223SOL    HW131489   4.361   2.964   0.512  1.0441  2.5889 -0.5553
10223SOL    HW231490   4.507   2.963   0.439 -0.3469  0.1715 -3.5508
10224SOL     OW31491   0.533   1.417   5.498 -0.8571 -0.4624  0.1420
10224SOL    HW131492   0.491   1.326   5.498 -1.9340  0.0201  0.1563
10224SOL    HW231493   0.617   1.415   5.552  0.4522 -2.0090 -1.8029
10225SOL     OW31494   0.637   3.715   4.002 -0.5809  0.2582 -0.1591
10225SOL    HW131495   0.540   3.738   4.008 -0.6143  0.1563 -0.2126
10225SOL    HW231496   0.692   3.797   4.014 -0.6666  0.2361  0.4060
10226SOL     OW31497   5.320   6.652   0.861  0.1680  0.3629  0.1106
10226SOL    HW131498   5.265   6.569   0.868  0.0436  0.4793  0.5919
10226SOL    HW231499   5.297   6.713   0.937  0.1961  0.8734 -0.2797
10227SOL     OW31500   4.890   0.726   1.625  0.6822 -0.6882 -0.0122
10227SOL    HW131501   4.968   0.770   1.581  0.0514  0.2799 -0.1761
10227SOL    HW231502   4.824   0.795   1.655 -0.8226 -1.5242 -1.2034
10228SOL     OW31503   5.096   5.753   0.094  0.6919  0.0292 -0.5055
10228SOL    HW131504   5.160   5.752   0.017  1.0126  1.6924 -0.2909
10228SOL    HW231505   5.074   5.848   0.118 -1.3271 -0.4904 -0.1397
10229SOL     OW31506   2.421   4.668   1.357 -0.0925  0.2274  0.1009
10229SOL    HW131507   2.397   4.764   1.363  0.6552  0.4360 -0.0884
10229SOL    HW231508   2.394   4.631   1.268 -0.3340  0.2785  0.1532
10230SOL     OW31509   2.738   4.641   5.905 -0.2008  0.2277 -0.5671
10230SOL    HW131510   2.669   4.706   5.875  0.4488  1.2306  0.0915
10230SOL    HW231511   2.760   4.657   6.001  1.6564  0.5905 -1.0133
10231SOL     OW31512   2.689   5.879   4.510 -0.4716  0.3347  0.9879
10231SOL    HW131513   2.613   5.838   4.459 -0.4217  0.7659  0.5580
10231SOL    HW231514   2.695   5.838   4.601 -0.9055 -0.0560  0.8400
10232SOL     OW31515   3.084   2.488   3.144 -1.0319  0.4844  0.3247
10232SOL    HW131516   3.040   2.504   3.056  0.7950 -0.6517 -0.8563
10232SOL    HW231517   3.135   2.570   3.172  0.4724  0.0473 -0.9871
10233SOL     OW31518   2.383   5.374   5.028  0.1605 -0.0154 -0.2227
10233SOL    HW131519   2.304   5.322   5.059 -0.0055  0.1539 -0.3536
10233SOL    HW231520   2.358   5.471   5.019  0.4176  0.0597 -0.1416
10234SOL     OW31521   5.472   6.630   4.304 -0.2523 -0.7847 -0.2175
10234SOL    HW131522   5.390   6.573   4.296 -0.6883 -0.3738  1.0228
10234SOL    HW231523   5.491   6.647   4.400 -0.5427  1.6869 -0.5160
10235SOL     OW31524   1.907   2.540   0.165  0.7437 -0.3283  0.3451
10235SOL    HW131525   1.839   2.494   0.221 -0.5640  0.5587 -0.4590
10235SOL    HW231526   1.992   2.550   0.217  0.2158 -1.2742  1.4445
10236SOL     OW31527   1.805   4.212   3.206 -0.5829  0.1329  0.3716
10236SOL    HW131528   1.784   4.137   3.144 -1.3555  1.3902 -0.9765
10236SOL    HW231529   1.860   4.281   3.158  0.3308  0.3323  1.6440
10237SOL     OW31530   5.448   2.724   4.044  1.0563  0.2950 -0.1939
10237SOL    HW131531   5.462   2.693   3.950 -3.2805  1.1336 -1.3533
10237SOL    HW231532   5.389   2.660   4.093  0.7753  1.3744  0.9371
10238SOL     OW31533   0.320   0.849   2.856 -0.2397  0.2353  0.0245
10238SOL    HW131534   0.313   0.913   2.779 -1.0541 -0.2494 -0.3179
10238SOL    HW231535   0.253   0.875   2.926 -0.5184 -0.1910 -0.0788
10239SOL     OW31536   0.054   2.928   0.834  0.0377  0.0568 -0.3980
10239SOL    HW131537   0.024   2.886   0.748  2.2736 -0.0349 -1.2173
10239SOL    HW231538   0.027   3.024   0.835  0.2470  0.1331 -1.3606
10240SOL     OW31539   4.900   6.040   1.996  0.3302 -0.1521  0.5489
10240SOL    HW131540   4.911   6.104   1.920  0.2962 -0.4429  0.2920
10240SOL    HW231541   4.807   6.044   2.030 -0.2182 -1.3895 -0.6881
10241SOL     OW31542   1.335   1.898   5.072 -0.2784 -0.3312  0.2053
10241SOL    HW131543   1.280   1.908   4.990  0.3273  0.5923 -0.1041
10241SOL    HW231544   1.277   1.870   5.148 -1.5372  2.3242  0.3095
10242SOL     OW31545   0.287   6.057   3.271  0.5986 -0.7177  0.1167
10242SOL    HW131546   0.300   6.072   3.174 -1.6204  1.5745  0.0615
10242SOL    HW231547   0.225   5.979   3.285 -1.4617  0.6979 -0.5561
10243SOL     OW31548   3.954   2.485   2.284 -1.1653 -0.0333 -0.6110
10243SOL    HW131549   3.876   2.490   2.222 -1.3091 -2.0813 -0.6481
10243SOL    HW231550   3.948   2.402   2.339  0.3649  0.3876  0.2591
10244SOL     OW31551   5.904   1.652   4.507  0.4886 -0.6454 -0.0163
10244SOL    HW131552   5.970   1.684   4.439 -0.6466  1.6374 -0.1350
10244SOL    HW231553   5.862   1.567   4.475  0.5806 -0.0782 -1.7596
10245SOL     OW31554   2.298   2.785   4.893 -0.3807  0.0941  0.3929
10245SOL    HW131555   2.393   2.758   4.905 -0.5649 -1.2085 -0.7115
10245SOL    HW231556   2.245   2.759   4.974  0.0517  0.0686  0.6682
10246SOL     OW31557   5.556   5.524   1.730 -0.0527 -0.9270 -0.4664
10246SOL    HW131558   5.635   5.562   1.682  1.2732 -3.0205 -0.0654
10246SOL    HW231559   5.538   5.432   1.696 -0.3684 -1.6830  1.5701
10247SOL     OW31560   6.479   6.687   2.632 -0.6795  0.4293  0.8011
10247SOL    HW131561   6.488   6.598   2.589 -0.6038  0.6243  0.4045
10247SOL    HW231562   6.569   6.722   2.656 -0.7914 -0.3331  2.5001
10248SOL     OW31563   0.353   3.490   0.869 -0.0870  0.2095  0.1972
10248SOL    HW131564   0.346   3.405   0.922 -1.0281  0.3532  0.3367
10248SOL    HW231565   0.304   3.563   0.917  1.0345  0.9321  0.2693
10249SOL     OW31566   2.677   2.251   5.203  0.7923  0.1976  0.6050
10249SOL    HW131567   2.589   2.232   5.247  1.8957  0.8632  3.3421
10249SOL    HW231568   2.730   2.314   5.260  2.3348  1.2947 -1.8810
10250SOL     OW31569   2.185   0.810   4.587 -0.4274  0.7025 -0.6826
10250SOL    HW131570   2.091   0.777   4.597 -0.6546  1.8083  1.3489
10250SOL    HW231571   2.200   0.886   4.650  1.4680  1.3899 -1.8904
10251SOL     OW31572   6.467   1.214   0.899 -0.0819  0.0826 -0.4725
10251SOL    HW131573   6.487   1.283   0.969 -1.1909  0.3849 -0.4474
10251SOL    HW231574   6.546   1.152   0.891  0.5555  0.7892  0.1541
10252SOL     OW31575   0.184   4.248   4.335  0.1491  0.2872  0.1182
10252SOL    HW131576   0.145   4.290   4.418 -1.1401  0.3179 -0.4803
10252SOL    HW231577   0.125   4.174   4.304 -0.0307  1.0864 -1.4856
10253SOL     OW31578   1.280   1.594   1.656  0.6215 -0.2929  0.1056
10253SOL    HW131579   1.192   1.595   1.608  0.6080 -1.2407  0.0847
10253SOL    HW231580   1.271   1.542   1.741  0.8354  0.7313  0.7658
10254SOL     OW31581   1.587   2.874   0.001 -0.4915 -0.1198 -0.3797
10254SOL    HW131582   1.569   2.824  -0.083 -0.6480 -4.1101  1.8223
10254SOL    HW231583   1.683   2.861   0.027 -0.5258  0.7935  0.2470
10255SOL     OW31584   4.651   0.346   1.003 -0.4097 -0.2889  0.3601
10255SOL    HW131585   4.736   0.315   1.045 -0.7202 -2.7874 -0.6759
10255SOL    HW231586   4.573   0.307   1.051 -0.8553 -0.5598 -0.5524
10256SOL     OW31587   3.761   1.588   3.120 -0.1962 -0.0733 -0.5677
10256SOL    HW131588   3.749   1.546   3.031  1.0365 -1.2428 -0.2136
10256SOL    HW231589   3.846   1.556   3.161 -1.5979 -1.0360  1.8403
10257SOL     OW31590   2.012   0.423   5.094  0.2377 -0.3567 -0.1772
10257SOL    HW131591   2.043   0.427   4.999  2.0466 -0.3118  0.3778
10257SOL    HW231592   1.912   0.424   5.096  0.1518  0.0033 -2.0617
10258SOL     OW31593   0.568   6.406   2.235 -0.1002 -0.6279 -0.2993
10258SOL    HW131594   0.647   6.346   2.224  1.3895  0.5239  2.9250
10258SOL    HW231595   0.588   6.496   2.198 -0.3011 -0.6207 -0.3944
10259SOL     OW31596   2.457   2.380   6.571  0.0967 -0.1987  0.2509
10259SOL    HW131597   2.399   2.316   6.623  0.5721 -0.6041  0.2866
10259SOL    HW231598   2.543   2.394   6.620 -0.4648  1.4278  0.8733
10260SOL     OW31599   1.068   5.083   4.078  0.2148  0.1218 -0.5789
10260SOL    HW131600   1.100   5.169   4.039  3.3328 -1.4822 -1.9076
10260SOL    HW231601   1.120   5.062   4.161 -0.9713 -0.2528  0.1150
10261SOL     OW31602   1.968   6.593   5.561  0.3560  0.4364  0.1332
10261SOL    HW131603   1.905   6.577   5.485  0.5376  0.2310  0.0233
10261SOL    HW231604   1.997   6.688   5.561  2.1082 -0.0519 -1.3905
10262SOL     OW31605   0.992   4.531   0.139  0.4625  0.2414 -0.5269
10262SOL    HW131606   1.089   4.532   0.115  0.8476  1.2581  1.0052
10262SOL    HW231607   0.956   4.438   0.126  1.9880 -0.4827  0.2331
10263SOL     OW31608   4.506   6.852   2.511 -0.4476  0.5359 -0.2601
10263SOL    HW131609   4.601   6.854   2.480 -0.4711  1.8522 -0.3243
10263SOL    HW231610   4.491   6.772   2.569  0.6210  0.1741 -0.4642
10264SOL     OW31611   2.049   6.863   5.027 -0.0078  0.2919  0.3563
10264SOL    HW131612   1.988   6.832   5.101  0.5634 -1.3917  0.1722
10264SOL    HW231613   1.999   6.925   4.967 -2.3073 -2.6279 -0.9864
10265SOL     OW31614   5.146   2.208   0.536 -0.4217  0.0806  0.3118
10265SOL    HW131615   5.220   2.155   0.495  0.5542 -1.8321  4.1156
10265SOL    HW231616   5.183   2.279   0.596 -1.7713  1.3351 -0.2416
10266SOL     OW31617   6.916   3.724   3.555  0.3077 -0.1567  0.2147
10266SOL    HW131618   6.888   3.672   3.474  2.5263  0.7147 -1.1987
10266SOL    HW231619   6.840   3.728   3.620 -0.9951 -2.3148 -1.0528
10267SOL     OW31620   0.144   5.241   2.150 -0.1020 -0.1584  0.0415
10267SOL    HW131621   0.241   5.257   2.167 -0.4041  0.0832  1.7183
10267SOL    HW231622   0.116   5.154   2.192 -0.3717 -0.8765 -1.5095
10268SOL     OW31623   2.542   6.470   4.241 -0.4509 -0.2644  0.3358
10268SOL    HW131624   2.561   6.372   4.234  1.2393  0.1286 -1.9685
10268SOL    HW231625   2.443   6.486   4.233 -0.5607 -1.6780 -2.4355
10269SOL     OW31626   6.256   1.849   5.860  0.6510 -0.1851 -0.3810
10269SOL    HW131627   6.195   1.928   5.855  1.2313  0.2996  0.0830
10269SOL    HW231628   6.338   1.874   5.910  0.1331 -1.5309  1.2196
10270SOL     OW31629   0.476   1.346   1.577 -0.6134 -0.1111  0.0540
10270SOL    HW131630   0.493   1.444   1.569  1.7034 -0.5028 -0.7075
10270SOL    HW231631   0.468   1.306   1.486 -2.6048 -0.4999  0.3674
10271SOL     OW31632   3.119   2.411   5.401 -0.2653 -0.5155 -0.9295
10271SOL    HW131633   3.063   2.363   5.469 -1.7116 -0.6440 -2.1476
10271SOL    HW231634   3.124   2.508   5.425 -2.8357 -0.0807 -1.8568
10272SOL     OW31635   3.080   0.457   1.067  0.2009  0.6982  0.3303
10272SOL    HW131636   3.020   0.514   1.124 -1.8570  0.0482 -1.0894
10272SOL    HW231637   3.068   0.361   1.093 -0.1709  0.4682 -0.6940
10273SOL     OW31638   4.568   1.372   4.658 -0.9767 -0.5408  0.5812
10273SOL    HW131639   4.518   1.379   4.745 -2.0323  0.4447 -0.0694
10273SOL    HW231640   4.519   1.426   4.588  1.0574  0.5193 -0.0683
10274SOL     OW31641   2.038   5.615   5.884  0.2633  0.1630  0.0273
10274SOL    HW131642   2.032   5.516   5.885  1.0997  0.1120  0.0293
10274SOL    HW231643   2.043   5.649   5.978 -1.9096  0.3465  0.1460
10275SOL     OW31644   1.377   5.955   6.149 -0.2744 -0.1932  0.1083
10275SOL    HW131645   1.342   5.884   6.088 -0.6248  0.2531 -0.2172
10275SOL    HW231646   1.428   6.022   6.095 -2.7881  1.6597 -0.1537
10276SOL     OW31647   0.504   6.260   1.365 -0.3075  0.1904  0.4912
10276SOL    HW131648   0.524   6.337   1.305 -2.8924  2.2349  2.0567
10276SOL    HW231649   0.456   6.189   1.313 -1.1870  1.2659 -0.2178
10277SOL     OW31650   2.551   2.275   2.795 -0.3509  0.2327 -0.2294
10277SOL    HW131651   2.647   2.297   2.777  0.1160 -0.5282  1.1548
10277SOL    HW231652   2.497   2.359   2.790  0.6045  0.9092  0.2220
10278SOL     OW31653   5.652   4.566   6.270 -0.0501  0.1834  0.4345
10278SOL    HW131654   5.671   4.519   6.184  0.1187  0.0911  0.5197
10278SOL    HW231655   5.618   4.500   6.337 -0.2375  0.2663  0.4198
10279SOL     OW31656   1.862   5.227   4.840 -0.3462  0.3668 -0.5985
10279SOL    HW131657   1.918   5.292   4.789 -0.9847  0.7520 -0.8315
10279SOL    HW231658   1.901   5.213   4.931 -0.0562  0.8770 -0.6412
10280SOL     OW31659   4.221   0.193   5.734  0.1478  0.6018  0.1018
10280SOL    HW131660   4.247   0.101   5.704  0.5969  1.2438 -1.5947
10280SOL    HW231661   4.122   0.197   5.748  0.0410  0.0149 -0.4090
10281SOL     OW31662   3.236   5.720   2.346 -0.0352 -0.5953  0.0675
10281SOL    HW131663   3.268   5.782   2.274 -0.3685  0.1983  0.5868
10281SOL    HW231664   3.248   5.625   2.316  0.8981 -0.2929 -0.5660
10282SOL     OW31665   3.457   5.261   0.168 -0.6009 -0.3555 -0.3837
10282SOL    HW131666   3.516   5.188   0.204  0.2113 -0.2911 -1.5172
10282SOL    HW231667   3.508   5.314   0.100 -0.8127  2.0391  1.2482
10283SOL     OW31668   6.464   0.499   3.839  0.0910  0.1795  0.3459
10283SOL    HW131669   6.448   0.424   3.904 -2.6490 -1.6577 -2.1682
10283SOL    HW231670   6.541   0.477   3.780  0.1697  0.0153  0.5091
10284SOL     OW31671   0.992   6.688   2.965  0.8080 -0.3534  0.4395
10284SOL    HW131672   0.931   6.658   2.891  1.9299 -0.0038 -0.6715
10284SOL    HW231673   1.016   6.610   3.022 -1.5231 -0.3183  1.5842
10285SOL     OW31674   4.299   3.278   3.274  0.6169  0.3922  0.4985
10285SOL    HW131675   4.391   3.243   3.256  0.6501  0.3200  0.8090
10285SOL    HW231676   4.236   3.245   3.203  0.7172 -0.0200  0.6017
10286SOL     OW31677   5.265   1.001   4.831  0.0710 -0.6753  0.2272
10286SOL    HW131678   5.357   0.970   4.807  0.7577  1.0143  0.5603
10286SOL    HW231679   5.215   1.025   4.748  0.6033  0.1756  0.1370
10287SOL     OW31680   2.807   2.397   2.712  0.1422 -0.2329  0.0804
10287SOL    HW131681   2.896   2.355   2.691  0.6551  0.6358  0.4677
10287SOL    HW231682   2.783   2.460   2.638 -0.2824 -0.6658 -0.1554
10288SOL     OW31683   5.309   0.933   0.883 -0.8819 -1.0286 -0.1348
10288SOL    HW131684   5.228   0.949   0.939 -0.5658  1.4533 -0.2698
10288SOL    HW231685   5.297   0.977   0.794  1.2775  1.0508  0.5064
10289SOL     OW31686   3.310   0.569   0.361 -0.1142 -0.4497  0.6902
10289SOL    HW131687   3.300   0.494   0.296  0.8336  1.0946 -1.3596
10289SOL    HW231688   3.220   0.610   0.378 -0.2308  0.0842 -0.9455
10290SOL     OW31689   3.254   3.149   5.941 -0.3740 -0.1953 -1.1374
10290SOL    HW131690   3.187   3.131   5.869 -1.6635  1.1458 -0.3341
10290SOL    HW231691   3.321   3.074   5.945 -1.8366 -1.6041 -1.9422
10291SOL     OW31692   0.457   0.370   2.044 -0.2731  0.0455 -0.4295
10291SOL    HW131693   0.385   0.429   2.008 -0.3270  0.0886 -0.2558
10291SOL    HW231694   0.420   0.313   2.118 -0.3401 -0.5442 -0.9121
10292SOL     OW31695   0.777   5.539   4.692  0.0929 -0.5622  0.2315
10292SOL    HW131696   0.831   5.620   4.717 -0.9297  0.4055 -0.5846
10292SOL    HW231697   0.685   5.548   4.730 -1.6894  1.2058 -3.9867
10293SOL     OW31698   6.157   4.156   2.132  0.0014  0.0487  0.7112
10293SOL    HW131699   6.233   4.220   2.138 -1.6592  2.1434  0.8784
10293SOL    HW231700   6.183   4.078   2.075  2.7874 -0.2290  2.1476
10294SOL     OW31701   1.063   5.977   3.283 -0.1136 -0.1003 -0.2039
10294SOL    HW131702   1.105   6.054   3.234  1.9902 -0.2169  1.2990
10294SOL    HW231703   1.027   6.009   3.371 -0.2384 -0.6353 -0.0574
10295SOL     OW31704   3.040   4.395   0.036 -0.3097  0.2941 -0.7411
10295SOL    HW131705   2.949   4.365   0.010 -0.0721  1.0705 -2.6893
10295SOL    HW231706   3.107   4.325   0.011 -0.3440 -0.4476  1.0644
10296SOL     OW31707   4.473   2.102   1.491  0.1640 -0.4176  0.0492
10296SOL    HW131708   4.444   2.155   1.570  0.1920  1.2393 -1.0056
10296SOL    HW231709   4.430   2.012   1.494 -1.8202  0.4812  0.6875
10297SOL     OW31710   6.525   2.870   5.471  0.0731 -0.1742 -0.3834
10297SOL    HW131711   6.430   2.883   5.444  0.1607 -1.0251 -1.1218
10297SOL    HW231712   6.530   2.811   5.552 -0.0641  0.6345  0.2348
10298SOL     OW31713   5.214   3.969   1.867 -0.2798 -0.1122  0.4573
10298SOL    HW131714   5.310   3.958   1.843 -0.0825  0.0683  1.1271
10298SOL    HW231715   5.185   3.893   1.925 -0.8160 -0.6891 -0.5597
10299SOL     OW31716   6.025   5.193   0.415 -0.3352  0.1360 -0.2927
10299SOL    HW131717   6.055   5.249   0.492  0.4633 -0.7578  0.0593
10299SOL    HW231718   5.928   5.172   0.425 -1.1363  2.9046 -1.3530
10300SOL     OW31719   4.947   0.143   1.682 -0.2248  0.0896 -0.1411
10300SOL    HW131720   4.967   0.139   1.584 -0.9666  1.2705 -0.3625
10300SOL    HW231721   5.029   0.117   1.734 -0.2378 -1.9918 -1.0653
10301SOL     OW31722   6.992   3.179   2.095  0.7374 -0.2822  0.1927
10301SOL    HW131723   6.982   3.201   2.193  0.0616  0.1908  0.0250
10301SOL    HW231724   6.907   3.140   2.061  0.7120  0.2645 -0.3864
10302SOL     OW31725   3.807   1.207   2.837 -0.1555 -0.2316 -0.1113
10302SOL    HW131726   3.888   1.151   2.817  0.0651  0.0286  0.0357
10302SOL    HW231727   3.768   1.240   2.751  0.2750  0.1632 -0.1701
10303SOL     OW31728   4.456   2.200   5.845 -0.1125  0.1063  0.4370
10303SOL    HW131729   4.444   2.278   5.782  0.2768  1.2228  1.6978
10303SOL    HW231730   4.490   2.121   5.794 -0.3227  0.8070 -0.8484
10304SOL     OW31731   2.261   2.162   0.557  0.2784 -0.1516  0.7952
10304SOL    HW131732   2.268   2.250   0.604  1.2000  1.4683 -2.1274
10304SOL    HW231733   2.167   2.128   0.563 -0.3183  1.4811  1.2972
10305SOL     OW31734   4.093   6.002   1.419  0.4992  0.8866  0.3943
10305SOL    HW131735   4.139   5.964   1.499 -0.7181  1.2748  1.3113
10305SOL    HW231736   4.001   5.964   1.413  0.9774 -0.0693 -1.5460
10306SOL     OW31737   1.779   5.435   2.084  0.2543  0.7006  0.0515
10306SOL    HW131738   1.759   5.349   2.036  0.7587 -0.3718  1.6946
10306SOL    HW231739   1.798   5.506   2.017  0.7926 -0.6920 -1.3440
10307SOL     OW31740   6.148   4.458   3.673 -0.0621  0.4257 -0.0951
10307SOL    HW131741   6.153   4.415   3.582 -0.7790  0.2423 -0.0547
10307SOL    HW231742   6.097   4.399   3.735  0.1579  0.6968  0.3467
10308SOL     OW31743   6.383   0.653   0.891 -0.4250 -0.4696  0.5906
10308SOL    HW131744   6.363   0.705   0.974  0.6272 -0.6662  0.9740
10308SOL    HW231745   6.472   0.609   0.899 -1.0680 -1.9346  0.0606
10309SOL     OW31746   0.036   5.556   4.641 -0.1774 -0.3663 -0.1530
10309SOL    HW131747  -0.028   5.633   4.641 -0.9478 -1.0179  0.1492
10309SOL    HW231748   0.050   5.524   4.547 -0.0698 -0.0360 -0.2533
10310SOL     OW31749   0.783   0.851   4.759 -0.3600  0.1825 -0.6350
10310SOL    HW131750   0.706   0.900   4.798  1.3714  1.4728  1.4147
10310SOL    HW231751   0.858   0.915   4.740  1.0317 -1.2781 -0.3657
10311SOL     OW31752   2.268   2.194   6.354 -0.4163 -0.1006 -0.2117
10311SOL    HW131753   2.249   2.098   6.372 -0.4620  0.3755  2.8012
10311SOL    HW231754   2.366   2.207   6.344 -0.3351 -0.3620  0.2143
10312SOL     OW31755   4.971   3.112   2.217  0.0481  0.3414  0.2987
10312SOL    HW131756   4.931   3.139   2.129  0.0470  0.9295  0.4768
10312SOL    HW231757   4.906   3.055   2.267  1.0628 -2.3175 -1.2242
10313SOL     OW31758   3.663   4.811   3.982  0.7236 -0.0214 -0.1175
10313SOL    HW131759   3.660   4.868   3.900 -0.3057  1.1378  0.7080
10313SOL    HW231760   3.573   4.772   3.999  1.1373 -0.9631 -0.0075
10314SOL     OW31761   1.858   3.467   5.759 -0.2311 -0.9760 -0.0073
10314SOL    HW131762   1.908   3.385   5.729  1.3444  0.0956 -0.4664
10314SOL    HW231763   1.908   3.510   5.834 -0.4644  0.1356 -0.4698
10315SOL     OW31764   4.887   0.109   6.552 -0.0632  0.2015 -0.1941
10315SOL    HW131765   4.919   0.015   6.541  2.0931  0.9238 -0.3746
10315SOL    HW231766   4.818   0.129   6.482  0.7149 -0.7307 -1.2623
10316SOL     OW31767   5.911   2.707   3.408 -1.1615 -0.2508 -0.2257
10316SOL    HW131768   5.934   2.617   3.447  0.6409  0.9795  1.7267
10316SOL    HW231769   5.855   2.694   3.326 -0.5577 -3.1578 -0.2873
10317SOL     OW31770   3.473   2.186   0.030  0.5663 -0.1132 -0.7906
10317SOL    HW131771   3.468   2.102   0.083  1.7874  0.7714  0.8497
10317SOL    HW231772   3.543   2.176  -0.041  0.7081 -0.5065 -0.5749
10318SOL     OW31773   0.500   0.586   1.131 -0.4327  0.3022 -0.5949
10318SOL    HW131774   0.416   0.565   1.080 -0.4287 -1.6927  0.1432
10318SOL    HW231775   0.570   0.517   1.111  0.8754  1.6324 -0.7756
10319SOL     OW31776   0.066   7.013   6.249  0.4142  0.3139  0.8376
10319SOL    HW131777   0.118   6.955   6.313  2.0111  0.4681 -0.2529
10319SOL    HW231778  -0.026   7.028   6.285  0.9411 -0.4820  2.5684
10320SOL     OW31779   4.751   6.310   4.441  0.4878  0.4067  0.1690
10320SOL    HW131780   4.773   6.396   4.395 -0.5335 -0.3045 -1.8044
10320SOL    HW231781   4.768   6.234   4.378 -1.2337 -0.6094  0.8717
10321SOL     OW31782   4.915   6.559   0.680 -0.2997 -0.2017  0.1429
10321SOL    HW131783   4.969   6.636   0.645 -0.5356 -0.2153 -0.2501
10321SOL    HW231784   4.831   6.594   0.722  0.0334 -0.1745  0.8028
10322SOL     OW31785   6.810   5.438   2.953 -0.2579  0.1710  0.7275
10322SOL    HW131786   6.771   5.361   2.903 -0.9650  0.4248  0.8766
10322SOL    HW231787   6.803   5.420   3.052 -1.4012  0.8805  0.7964
10323SOL     OW31788   2.183   6.068   3.498  0.0895  0.7223  0.0604
10323SOL    HW131789   2.242   6.027   3.568  0.6731  0.2830 -0.6724
10323SOL    HW231790   2.234   6.140   3.451 -0.2693  0.9450  0.0047
10324SOL     OW31791   3.640   2.913   6.836  0.1618  0.0601  0.4432
10324SOL    HW131792   3.601   2.840   6.893  0.8207 -0.1294  0.6591
10324SOL    HW231793   3.717   2.954   6.883 -0.2666  0.9767  0.3626
10325SOL     OW31794   3.431   4.847   2.407  0.7901 -0.3763 -0.5692
10325SOL    HW131795   3.389   4.836   2.497  0.4811  0.0451 -0.6540
10325SOL    HW231796   3.491   4.770   2.388 -0.0178 -1.0373 -0.4840
10326SOL     OW31797   6.728   2.820   1.038 -0.7756  0.0840 -0.2399
10326SOL    HW131798   6.821   2.783   1.042 -1.1662 -1.0791 -1.0601
10326SOL    HW231799   6.700   2.826   0.942 -1.2186  1.2956 -0.0419
10327SOL     OW31800   1.300   3.342   5.081  1.1033 -0.4830  0.1148
10327SOL    HW131801   1.329   3.349   4.986 -1.8480  0.7642 -0.7886
10327SOL    HW231802   1.276   3.247   5.102 -1.0404 -0.3066 -1.3444
10328SOL     OW31803   5.739   6.556   4.968 -0.0569 -0.4053 -0.3377
10328SOL    HW131804   5.736   6.649   5.004 -0.6485 -0.2807 -0.6911
10328SOL    HW231805   5.791   6.497   5.031  0.8046  0.2750 -0.3830
10329SOL     OW31806   3.915   4.287   5.572 -0.1936  0.7236 -0.0638
10329SOL    HW131807   3.987   4.277   5.641 -1.1775 -0.0499  0.8711
10329SOL    HW231808   3.950   4.258   5.483  1.6910  3.3884 -0.3513
10330SOL     OW31809   2.211   6.097   4.135 -0.0724  0.4349  0.2443
10330SOL    HW131810   2.155   6.157   4.192  0.1089 -0.8802  1.8668
10330SOL    HW231811   2.281   6.053   4.192  1.6731  0.8918 -1.4488
10331SOL     OW31812   0.236   2.089   5.017 -0.5909 -0.4711 -0.2167
10331SOL    HW131813   0.170   2.026   4.976 -0.6282 -0.6530  0.1144
10331SOL    HW231814   0.191   2.176   5.037 -0.2629  0.0980 -1.7439
10332SOL     OW31815   6.417   3.848   5.318 -0.2034  0.1616  0.4284
10332SOL    HW131816   6.436   3.832   5.415 -1.3066 -0.3538  0.5824
10332SOL    HW231817   6.320   3.873   5.307 -0.0765  0.2787 -0.5340
10333SOL     OW31818   5.691   0.548   4.469  0.3176  0.3000  0.1739
10333SOL    HW131819   5.777   0.512   4.432 -0.9281 -0.8548 -1.7385
10333SOL    HW231820   5.697   0.553   4.569  2.6145  0.3195  0.0850
10334SOL     OW31821   5.706   4.954   1.847 -0.3211 -0.1120 -0.5115
10334SOL    HW131822   5.740   4.921   1.759  0.5573  1.0604 -0.6316
10334SOL    HW231823   5.643   5.030   1.831  1.6965  1.7720 -0.1084
10335SOL     OW31824   4.004   2.683   2.905  0.3024  1.0012 -0.0462
10335SOL    HW131825   3.997   2.781   2.887 -1.5493  0.5693 -2.2220
10335SOL    HW231826   3.923   2.637   2.868 -1.0030 -0.9359  4.5281
10336SOL     OW31827   1.387   0.249   2.268 -0.2721  0.1888 -0.3508
10336SOL    HW131828   1.480   0.271   2.240 -0.3170  0.1236 -0.5484
10336SOL    HW231829   1.368   0.293   2.356  0.5642 -1.2703  0.5973
10337SOL     OW31830   0.172   5.859   4.882 -0.0436  0.3941 -0.4469
10337SOL    HW131831   0.104   5.932   4.874 -0.5173 -0.0785 -0.7852
10337SOL    HW231832   0.183   5.835   4.979 -0.5410  0.3084 -0.4067
10338SOL     OW31833   5.698   3.882   7.013  0.0461  0.2412  0.4856
10338SOL    HW131834   5.729   3.929   7.096 -1.7043  2.2984  0.0668
10338SOL    HW231835   5.646   3.800   7.038 -0.1053  0.6091  1.4006
10339SOL     OW31836   5.100   3.956   2.856  0.0350 -0.3410 -0.2249
10339SOL    HW131837   5.178   3.990   2.804 -0.3853 -0.2672 -0.8114
10339SOL    HW231838   5.100   3.856   2.855  0.6941 -0.3771  0.6364
10340SOL     OW31839   3.825   3.502   1.691 -0.0734  0.3664  0.0419
10340SOL    HW131840   3.802   3.563   1.615  2.1241  0.1269 -0.8854
10340SOL    HW231841   3.922   3.514   1.715  0.4381 -2.6746 -0.1409
10341SOL     OW31842   4.879   6.096   4.252 -0.3193 -0.9149  0.1822
10341SOL    HW131843   4.811   6.041   4.203 -0.0090 -0.1728 -1.1836
10341SOL    HW231844   4.962   6.041   4.266  0.3203 -0.6077 -1.9575
10342SOL     OW31845   0.217   3.190   2.446 -0.2314  0.8143 -0.0085
10342SOL    HW131846   0.147   3.248   2.487  0.4302  1.3604  0.3846
10342SOL    HW231847   0.304   3.206   2.492  0.0446 -0.2502 -0.1204
10343SOL     OW31848   5.964   3.319   4.346  0.6443 -0.1688  0.0897
10343SOL    HW131849   5.915   3.394   4.303 -0.7144 -1.2788 -0.3529
10343SOL    HW231850   6.058   3.317   4.312  0.1066  0.0634 -1.4953
10344SOL     OW31851   3.478   3.003   1.380  0.3539  0.1024 -0.2077
10344SOL    HW131852   3.409   2.988   1.451 -0.6948  1.8708 -0.7983
10344SOL    HW231853   3.443   2.971   1.292  0.3663  0.7744 -0.4658
10345SOL     OW31854   4.341   6.785   6.690  0.6060  0.2268  0.2561
10345SOL    HW131855   4.281   6.706   6.700  1.1960 -0.4661 -1.3339
10345SOL    HW231856   4.288   6.865   6.662  0.1378  0.1716  0.9638
10346SOL     OW31857   0.943   2.713   4.039  0.1171  0.1045  0.3561
10346SOL    HW131858   0.954   2.682   4.133  1.9753 -0.5038 -0.0112
10346SOL    HW231859   0.958   2.811   4.034  1.6528 -0.0869  0.5188
10347SOL     OW31860   4.417   6.723   3.012  0.4422 -0.2811 -0.5860
10347SOL    HW131861   4.383   6.664   3.085  1.2849 -0.6670 -0.4828
10347SOL    HW231862   4.419   6.818   3.043  0.4149 -0.3906 -0.2506
10348SOL     OW31863   0.507   5.896   4.570 -0.4685  0.2444 -0.4675
10348SOL    HW131864   0.524   5.800   4.548  0.0514  0.2061  0.1065
10348SOL    HW231865   0.485   5.945   4.485  1.1643  0.0240 -1.0622
10349SOL     OW31866   0.405   6.144   2.385  0.3206  0.3367 -0.0268
10349SOL    HW131867   0.307   6.126   2.373  0.7128 -1.3627 -0.9254
10349SOL    HW231868   0.417   6.236   2.423 -1.5863  0.7956 -0.4217
10350SOL     OW31869   4.761   3.445   4.891  0.1790  0.3306 -0.0110
10350SOL    HW131870   4.769   3.373   4.961  1.6097 -0.0730 -0.5561
10350SOL    HW231871   4.673   3.435   4.844  0.3163 -1.0241 -0.0304
10351SOL     OW31872   6.352   4.242   3.812 -0.4064  0.0153  0.0448
10351SOL    HW131873   6.415   4.180   3.766 -3.2528 -2.3545 -1.0408
10351SOL    HW231874   6.332   4.320   3.753  1.4855  0.8498  0.4487
10352SOL     OW31875   4.957   5.555   0.680 -0.0173  0.1559 -0.2236
10352SOL    HW131876   4.970   5.576   0.583  2.6389 -2.5872 -0.6108
10352SOL    HW231877   5.044   5.564   0.728 -1.2204  1.0997  1.9073
10353SOL     OW31878   4.710   1.983   3.561 -0.1488  0.3661 -0.7878
10353SOL    HW131879   4.750   1.891   3.562 -1.7745 -0.3847  0.9036
10353SOL    HW231880   4.617   1.978   3.525 -0.6376  1.1488  0.3139
10354SOL     OW31881   2.157   3.129   1.787 -0.3096  0.6218  0.3152
10354SOL    HW131882   2.196   3.063   1.851 -0.1955  0.8044  0.4366
10354SOL    HW231883   2.222   3.146   1.713 -1.4196 -1.4465 -1.1957
10355SOL     OW31884   2.904   3.191   6.848  0.2567 -0.4029 -0.3255
10355SOL    HW131885   2.995   3.233   6.854 -0.0375  0.3201 -0.8612
10355SOL    HW231886   2.905   3.103   6.896  0.7794  0.3799  1.1630
10356SOL     OW31887   1.236   0.253   3.580  0.1137  0.2621 -0.2160
10356SOL    HW131888   1.292   0.274   3.500 -1.0699  2.0894 -0.6260
10356SOL    HW231889   1.247   0.324   3.649 -0.5911 -0.1075  0.3056
10357SOL     OW31890   5.706   0.188   3.508 -0.4450  0.3238  0.1985
10357SOL    HW131891   5.629   0.189   3.444  0.3503 -3.1092 -1.0346
10357SOL    HW231892   5.791   0.203   3.457  0.1438 -1.7442  0.5169
10358SOL     OW31893   4.961   6.713   4.700 -0.4231 -0.3814  0.6175
10358SOL    HW131894   4.955   6.614   4.684  0.3904 -0.4359  0.5935
10358SOL    HW231895   5.044   6.749   4.657 -2.0167  0.7810 -1.6555
10359SOL     OW31896   3.339   4.031   2.705 -0.6344  0.1838 -0.2396
10359SOL    HW131897   3.348   4.080   2.792 -0.1263 -0.4119  0.0584
10359SOL    HW231898   3.349   4.095   2.629 -1.6182  0.8064  0.1378
10360SOL     OW31899   2.216   5.720   3.405  0.1009 -0.2232  0.0654
10360SOL    HW131900   2.294   5.783   3.408 -0.6592  0.6943  2.3560
10360SOL    HW231901   2.206   5.676   3.494 -2.4097  0.2178  0.0454
10361SOL     OW31902   5.758   2.811   1.302  0.2659  0.2951  0.2854
10361SOL    HW131903   5.709   2.778   1.222  1.7520  1.6170 -1.2565
10361SOL    HW231904   5.735   2.756   1.382 -3.7403  0.8791 -0.2888
10362SOL     OW31905   5.791   2.328   3.869 -0.1160  0.2908 -0.8157
10362SOL    HW131906   5.768   2.261   3.939 -0.9715  2.7163  1.4539
10362SOL    HW231907   5.744   2.307   3.784 -0.7385 -1.6456 -0.0407
10363SOL     OW31908   4.391   6.983   4.268  0.0591  0.4090 -0.3238
10363SOL    HW131909   4.367   6.923   4.345 -0.6000 -0.0371 -0.8667
10363SOL    HW231910   4.482   7.022   4.284 -0.0001  0.1867  0.6111
10364SOL     OW31911   2.163   1.335   2.957 -0.4246 -0.5942 -0.2388
10364SOL    HW131912   2.163   1.269   3.033  2.2528  0.3973  0.7105
10364SOL    HW231913   2.074   1.381   2.953 -0.9127 -1.2761  1.7404
10365SOL     OW31914   5.903   3.912   6.827 -0.5430  0.2392 -0.3697
10365SOL    HW131915   5.854   3.928   6.741 -0.1587 -0.6122 -0.7666
10365SOL    HW231916   5.838   3.905   6.902 -0.8687  1.2007 -0.5468
10366SOL     OW31917   3.301   5.567   3.527  0.2779 -0.0890 -0.4167
10366SOL    HW131918   3.222   5.614   3.488 -1.2296 -2.3626 -0.2876
10366SOL    HW231919   3.345   5.512   3.457 -0.5144 -1.6790  0.2724
10367SOL     OW31920   4.651   4.516   5.696 -0.5856 -0.1105 -0.0464
10367SOL    HW131921   4.632   4.501   5.599  0.5150 -0.3173 -0.2407
10367SOL    HW231922   4.602   4.598   5.727 -2.7039 -1.2364 -0.1929
10368SOL     OW31923   6.283   6.390   5.756 -0.0115  0.2630 -0.7482
10368SOL    HW131924   6.364   6.422   5.805 -0.0043 -2.3198  1.1704
10368SOL    HW231925   6.203   6.396   5.816 -0.2323 -1.8890 -0.7295
10369SOL     OW31926   6.064   3.086   5.736  0.2358  0.0384  0.4536
10369SOL    HW131927   6.086   3.096   5.833 -0.5047  0.7763  0.5620
10369SOL    HW231928   6.047   2.990   5.716  0.0365 -0.0786  1.1450
10370SOL     OW31929   4.933   4.134   4.279  1.0940  0.0312  0.1722
10370SOL    HW131930   4.876   4.217   4.280 -0.5421 -1.0585  0.0760
10370SOL    HW231931   5.016   4.152   4.227  0.3612  1.3765 -0.5992
10371SOL     OW31932   6.280   4.288   0.841  0.0759 -0.3598  0.8520
10371SOL    HW131933   6.376   4.260   0.853 -0.1880 -1.5071  0.4515
10371SOL    HW231934   6.245   4.249   0.756 -0.1297  1.8472 -0.1330
10372SOL     OW31935   5.939   0.971   2.161 -0.4070 -0.1474 -0.5156
10372SOL    HW131936   6.035   0.997   2.168 -0.8447  2.1322 -2.0456
10372SOL    HW231937   5.883   1.036   2.211 -1.1647 -1.7648  0.8176
10373SOL     OW31938   2.041   7.001   5.593  0.3950 -0.5574 -0.6494
10373SOL    HW131939   2.029   7.096   5.565 -1.3294 -1.2027 -2.3556
10373SOL    HW231940   2.006   6.990   5.686 -2.3394 -0.0440 -1.5373
10374SOL     OW31941   5.987   2.639   4.235  0.0481  0.4975 -0.5538
10374SOL    HW131942   5.930   2.630   4.153 -1.4378  1.2167  0.3667
10374SOL    HW231943   5.929   2.648   4.316  1.4787 -0.6851  0.6586
10375SOL     OW31944   3.194   6.101   6.713  0.0699 -0.6398  0.0832
10375SOL    HW131945   3.138   6.183   6.705  0.5737 -0.3692 -0.9263
10375SOL    HW231946   3.135   6.022   6.733 -0.6906 -0.3714 -0.9782
10376SOL     OW31947   0.762   2.242   3.574 -0.1500  0.5006  0.0230
10376SOL    HW131948   0.724   2.196   3.493  0.3661  1.1936 -0.6209
10376SOL    HW231949   0.698   2.233   3.650 -0.8268  0.1858 -0.5710
10377SOL     OW31950   6.069   2.790   6.827  0.8139  0.0519 -0.2504
10377SOL    HW131951   6.123   2.712   6.858 -0.7181 -0.5408  0.9856
10377SOL    HW231952   5.998   2.758   6.764  0.3171  0.4700  0.0943
10378SOL     OW31953   3.344   6.211   5.048  0.5276  0.1335  0.3554
10378SOL    HW131954   3.377   6.211   5.143 -1.7040 -0.2172  1.2174
10378SOL    HW231955   3.418   6.183   4.987  2.0087  0.2759  1.9853
10379SOL     OW31956   3.261   2.283   5.722 -0.8782 -0.0774 -0.2020
10379SOL    HW131957   3.247   2.252   5.816 -1.5104  0.2948 -0.1627
10379SOL    HW231958   3.172   2.304   5.681 -0.5707  0.2520 -0.7138
10380SOL     OW31959   0.957   3.142   1.398  0.1746 -0.3628 -0.1409
10380SOL    HW131960   0.919   3.050   1.392 -1.3300  0.0645  1.8573
10380SOL    HW231961   1.055   3.136   1.420  0.3916 -1.4705 -1.2945
10381SOL     OW31962   2.949   5.966   2.517  0.0922 -0.1516 -0.6305
10381SOL    HW131963   2.922   5.871   2.528  0.0912 -0.1206 -0.3609
10381SOL    HW231964   2.999   5.977   2.431  0.4816 -0.4815 -0.4467
10382SOL     OW31965   5.262   0.661   6.804 -0.0637 -0.0966  0.2842
10382SOL    HW131966   5.356   0.686   6.828 -0.3722  0.5090  0.9241
10382SOL    HW231967   5.262   0.574   6.754  0.9506  0.5916 -0.9729
10383SOL     OW31968   2.459   2.563   5.341  0.1398 -0.0238 -0.1309
10383SOL    HW131969   2.510   2.601   5.264 -0.4667 -0.2834 -0.6629
10383SOL    HW231970   2.404   2.486   5.311 -0.6336  0.2968  0.4244
10384SOL     OW31971   3.825   3.943   1.927 -0.0559  0.1516  0.2835
10384SOL    HW131972   3.803   3.894   2.012  0.1096  0.2740  0.3987
10384SOL    HW231973   3.775   3.902   1.851  1.0607 -1.0193  0.1509
10385SOL     OW31974   0.834   2.080   1.333 -0.1583 -0.3936 -0.4380
10385SOL    HW131975   0.873   1.988   1.332  0.1388 -0.2874  0.3707
10385SOL    HW231976   0.858   2.127   1.248  1.1729 -0.4668 -0.1283
10386SOL     OW31977   3.633   0.883   4.462 -0.2429 -0.3034  0.0107
10386SOL    HW131978   3.632   0.783   4.458  1.0874 -0.2927 -1.7440
10386SOL    HW231979   3.560   0.919   4.404  1.5451 -0.3129 -2.4272
10387SOL     OW31980   5.903   0.764   6.034  0.1020  0.1646  0.0870
10387SOL    HW131981   5.850   0.763   5.950  0.7915  1.0845 -0.3917
10387SOL    HW231982   5.995   0.729   6.016  0.6595  1.5291  0.1596
10388SOL     OW31983   1.554   4.148   2.521 -0.3345  0.6400  0.5433
10388SOL    HW131984   1.614   4.068   2.518 -0.4913  0.5517 -0.4661
10388SOL    HW231985   1.465   4.122   2.558 -0.1688  0.4893  0.8365
10389SOL     OW31986   6.432   6.487   4.968 -0.2160 -0.0561  0.0440
10389SOL    HW131987   6.510   6.465   4.910  0.2241 -1.2547  1.0695
10389SOL    HW231988   6.372   6.551   4.919  0.5535 -0.3969 -1.4005
10390SOL     OW31989   3.808   4.187   5.879 -0.3634 -0.1458  0.2745
10390SOL    HW131990   3.891   4.150   5.839  0.6037  3.1452 -1.0795
10390SOL    HW231991   3.729   4.135   5.846  0.7875 -0.4458 -2.2472
10391SOL     OW31992   5.609   5.476   2.015 -0.4141  0.2743 -0.2832
10391SOL    HW131993   5.650   5.539   2.081  2.8878 -0.3578 -1.5342
10391SOL    HW231994   5.620   5.512   1.922 -1.9077 -0.4317 -0.7794
10392SOL     OW31995   6.448   2.385   3.404  0.1500 -0.0152 -0.3216
10392SOL    HW131996   6.464   2.301   3.455  0.0133  1.0581  1.5773
10392SOL    HW231997   6.535   2.419   3.368  0.3181 -0.5374 -0.4240
10393SOL     OW31998   1.826   1.506   2.130  0.2878 -0.1161 -0.8180
10393SOL    HW131999   1.842   1.424   2.185 -1.8176  0.0186  0.0798
10393SOL    HW232000   1.876   1.583   2.171  1.1865 -0.6459 -0.8914
10394SOL     OW32001   2.824   2.284   1.133  0.4998 -0.0380  0.3283
10394SOL    HW132002   2.906   2.230   1.112  1.4220  1.3751  0.1044
10394SOL    HW232003   2.851   2.375   1.161 -1.0480  0.9663 -1.2146
10395SOL     OW32004   3.693   0.091   5.333  0.0005  0.0991  0.1876
10395SOL    HW132005   3.785   0.128   5.340 -0.2653  1.1975 -1.6141
10395SOL    HW232006   3.697  -0.001   5.294  0.4187 -0.5429  1.7144
10396SOL     OW32007   0.760   1.403   1.993 -0.0277 -0.5707 -0.1355
10396SOL    HW132008   0.679   1.347   2.013  0.9375 -1.4463  1.5694
10396SOL    HW232009   0.780   1.398   1.895 -1.6190 -0.9093 -0.4734
10397SOL     OW32010   5.437   4.444   2.259 -0.2002 -0.2043  0.2037
10397SOL    HW132011   5.498   4.443   2.180  0.0155 -2.0112  0.3404
10397SOL    HW232012   5.345   4.417   2.232 -0.3291 -0.0079  0.4328
10398SOL     OW32013   4.851   1.102   5.257  0.2198 -0.1401 -0.8883
10398SOL    HW132014   4.847   1.031   5.186  1.6227 -2.5285  1.2343
10398SOL    HW232015   4.811   1.066   5.341 -1.2687  2.5462 -0.3363
10399SOL     OW32016   2.164   2.440   6.857  0.5272  0.2905  0.4583
10399SOL    HW132017   2.196   2.364   6.800 -2.2417  1.0295 -2.3942
10399SOL    HW232018   2.171   2.525   6.806 -0.9682  1.1902  1.6861
10400SOL     OW32019   0.286   0.125   6.136  0.2567 -0.3437 -0.0622
10400SOL    HW132020   0.261   0.213   6.097  0.7387 -0.0736  0.2133
10400SOL    HW232021   0.203   0.078   6.167  0.0229  0.1476  0.0697
10401SOL     OW32022   2.536   3.544   1.571  0.3420  0.0084  0.2186
10401SOL    HW132023   2.598   3.602   1.518  0.3981  1.5475  1.8555
10401SOL    HW232024   2.443   3.579   1.563  0.2927  0.0270  0.8267
10402SOL     OW32025   2.421   1.205   5.040 -0.4759  0.3591 -0.1039
10402SOL    HW132026   2.329   1.198   5.001 -0.4960 -0.9026  0.1454
10402SOL    HW232027   2.450   1.301   5.036 -1.1219  0.5368 -1.7203
10403SOL     OW32028   2.894   1.855   5.755  0.4162  0.4023  0.1813
10403SOL    HW132029   2.957   1.777   5.759  0.6782  0.4738 -1.7331
10403SOL    HW232030   2.857   1.864   5.662 -1.3159  1.2455  0.9006
10404SOL     OW32031   6.102   5.650   1.464 -0.2007  0.3811 -0.2300
10404SOL    HW132032   6.103   5.745   1.435 -1.4428  0.6806  0.6253
10404SOL    HW232033   6.028   5.601   1.416  0.6422 -0.2725 -0.9274
10405SOL     OW32034   3.867   4.338   2.770 -0.2866 -0.3309 -0.3640
10405SOL    HW132035   3.960   4.334   2.734  0.4554 -0.4003  1.4538
10405SOL    HW232036   3.814   4.262   2.732  0.4317 -0.3941 -1.2838
10406SOL     OW32037   4.425   4.413   1.849  0.0653  0.6868  0.4815
10406SOL    HW132038   4.349   4.415   1.915  2.2595 -1.7379  3.3724
10406SOL    HW232039   4.509   4.443   1.895  1.5121 -0.0598 -1.5791
10407SOL     OW32040   6.839   1.766   2.800  0.0966 -0.3197 -0.0200
10407SOL    HW132041   6.776   1.689   2.813 -2.0042  1.4716  1.1544
10407SOL    HW232042   6.808   1.843   2.855  1.5114  1.7429 -1.9524
10408SOL     OW32043   3.318   3.577   4.873  0.5333  0.1106 -0.2170
10408SOL    HW132044   3.365   3.605   4.790 -0.5056  0.1588 -0.8136
10408SOL    HW232045   3.255   3.501   4.853 -0.5079  0.8053  0.2779
10409SOL     OW32046   3.336   4.995   4.642 -0.5082 -0.6312  0.3916
10409SOL    HW132047   3.376   4.941   4.715 -0.1728  1.0626  1.5242
10409SOL    HW232048   3.249   5.035   4.673 -0.6914 -0.4279 -0.3541
10410SOL     OW32049   2.848   1.243   3.223 -0.1621 -0.0938  0.3449
10410SOL    HW132050   2.885   1.298   3.299  1.4243 -1.3266  0.5356
10410SOL    HW232051   2.838   1.301   3.142 -1.6469  1.1888  1.4064
10411SOL     OW32052   6.428   2.117   0.529  0.6220 -0.8809  0.3116
10411SOL    HW132053   6.330   2.096   0.536  0.1124  1.6895  2.9744
10411SOL    HW232054   6.481   2.034   0.543 -1.1257 -2.3495 -1.2784
10412SOL     OW32055   5.306   4.486   0.181 -0.5604 -0.2473  0.0069
10412SOL    HW132056   5.237   4.544   0.138  0.4825 -0.3889 -1.9920
10412SOL    HW232057   5.371   4.455   0.112  0.5273 -1.5232  1.5221
10413SOL     OW32058   4.042   5.050   2.801  0.2939  0.1511 -0.4187
10413SOL    HW132059   3.954   5.033   2.844  0.8250 -2.9873 -0.3170
10413SOL    HW232060   4.108   5.080   2.870 -0.3710  1.3747 -0.2871
10414SOL     OW32061   4.400   2.990   1.326  0.0415  0.0675  0.7330
10414SOL    HW132062   4.351   2.957   1.407  0.3078  0.2843  0.9834
10414SOL    HW232063   4.408   2.916   1.260 -2.2750  0.4897 -0.1147
10415SOL     OW32064   2.682   1.296   6.215  1.0186  0.3770 -0.0168
10415SOL    HW132065   2.689   1.206   6.173 -1.0821  0.0122  0.3387
10415SOL    HW232066   2.608   1.348   6.172  1.4809  1.5320  0.5235
10416SOL     OW32067   0.123   0.411   2.975  0.4682  0.1859 -0.2003
10416SOL    HW132068   0.191   0.406   3.048  4.0795  0.6664 -3.2357
10416SOL    HW232069   0.103   0.507   2.955 -2.6021  0.0798  1.7303
10417SOL     OW32070   3.245   5.696   2.722 -0.1141 -0.5529  0.3169
10417SOL    HW132071   3.161   5.644   2.704 -0.5341  0.2727 -0.1346
10417SOL    HW232072   3.248   5.776   2.663  0.8470 -0.4035  0.5545
10418SOL     OW32073   5.607   4.253   0.531  0.1360  0.2108 -0.2390
10418SOL    HW132074   5.515   4.214   0.533  0.3198 -0.2391 -0.2417
10418SOL    HW232075   5.622   4.298   0.443 -0.0296  0.1510 -0.2982
10419SOL     OW32076   0.201   3.306   2.885  0.2509 -0.7044  0.5606
10419SOL    HW132077   0.279   3.368   2.889  0.6276 -1.0317 -0.9926
10419SOL    HW232078   0.139   3.335   2.811 -0.3942 -1.2314  0.8895
10420SOL     OW32079   0.460   0.074   5.717  0.3329 -0.2254  0.1237
10420SOL    HW132080   0.421   0.161   5.747 -0.1177  0.2813 -1.7971
10420SOL    HW232081   0.403  -0.001   5.751 -0.1241  0.3178  0.5443
10421SOL     OW32082   5.767   3.493   4.301 -0.0473  0.2002  0.1039
10421SOL    HW132083   5.747   3.504   4.204 -1.0562 -0.9781  0.1558
10421SOL    HW232084   5.787   3.582   4.341 -0.3765  0.7979 -1.0123
10422SOL     OW32085   2.259   5.079   2.628 -0.1362  0.4230  1.0195
10422SOL    HW132086   2.264   5.062   2.726  0.5569  0.4367  0.9887
10422SOL    HW232087   2.211   5.003   2.583 -1.1518  0.7939  1.4629
10423SOL     OW32088   5.685   2.829   5.418 -0.4929  0.3666  0.3231
10423SOL    HW132089   5.593   2.799   5.444 -0.3343 -0.4838 -0.0791
10423SOL    HW232090   5.689   2.842   5.319  0.9030 -3.6936 -0.3605
10424SOL     OW32091   3.004   1.587   1.694  0.7102  0.1463  0.0516
10424SOL    HW132092   2.980   1.503   1.645  0.9977 -1.0100  1.8066
10424SOL    HW232093   3.090   1.575   1.743  1.2165  1.7885 -0.3541
10425SOL     OW32094   3.652   1.077   6.139 -0.3042 -0.2337 -0.2445
10425SOL    HW132095   3.638   1.063   6.237 -0.4554 -1.4987 -0.4193
10425SOL    HW232096   3.750   1.091   6.122 -0.4658  1.7696  0.2571
10426SOL     OW32097   0.506   0.597   5.934 -0.0990 -0.2818 -0.2503
10426SOL    HW132098   0.454   0.603   6.018  0.5527 -0.0868  0.1543
10426SOL    HW232099   0.459   0.646   5.861  0.1125  0.9647  0.4175
10427SOL     OW32100   0.744   1.045   2.477  0.2030 -0.2677 -0.1562
10427SOL    HW132101   0.800   1.108   2.530 -0.1026  0.0735 -0.2353
10427SOL    HW232102   0.659   1.026   2.527 -0.3438  0.4962 -0.7714
10428SOL     OW32103   4.221   6.281   4.457 -0.0914 -0.4492 -0.2880
10428SOL    HW132104   4.315   6.280   4.422  0.6344  0.6667  1.5056
10428SOL    HW232105   4.218   6.240   4.548 -1.4015 -0.6941 -0.4251
10429SOL     OW32106   6.451   6.528   3.288  0.2269  0.0596 -0.1793
10429SOL    HW132107   6.406   6.443   3.317  1.2117 -0.9606 -1.5164
10429SOL    HW232108   6.444   6.595   3.362 -1.3113 -0.8847  0.5928
10430SOL     OW32109   5.181   2.230   4.611 -0.3497 -0.4530  0.1278
10430SOL    HW132110   5.193   2.164   4.536 -0.6299  1.1316 -1.3546
10430SOL    HW232111   5.086   2.261   4.613 -0.3039 -0.3264  1.0451
10431SOL     OW32112   4.110   0.822   5.302  0.5655 -0.5011 -0.5548
10431SOL    HW132113   4.109   0.746   5.237 -0.4892  0.4671 -1.7084
10431SOL    HW232114   4.199   0.868   5.298  0.1597  0.1983 -2.1158
10432SOL     OW32115   6.898   2.103   0.083 -0.0152  0.0267 -0.5122
10432SOL    HW132116   6.850   2.146   0.159 -1.4979 -0.8659 -0.8961
10432SOL    HW232117   6.936   2.174   0.023  0.2220  0.7421  0.4673
10433SOL     OW32118   1.554   1.019   6.564  0.0988 -0.6504  0.2733
10433SOL    HW132119   1.525   1.115   6.570  1.4654 -0.0712 -1.4033
10433SOL    HW232120   1.601   0.993   6.648 -3.2919 -1.0154  2.2540
10434SOL     OW32121   5.085   2.605   4.581  0.7695 -1.0964  0.6781
10434SOL    HW132122   5.029   2.533   4.622  0.2494 -1.2711 -0.2953
10434SOL    HW232123   5.174   2.608   4.626  0.9877 -2.6851  0.4234
10435SOL     OW32124   0.457   5.398   0.322  0.9888 -0.2504  0.0840
10435SOL    HW132125   0.385   5.368   0.259 -0.5002  2.9657  0.0510
10435SOL    HW232126   0.448   5.348   0.408 -0.9727 -0.3309 -0.1206
10436SOL     OW32127   2.105   1.123   3.250  0.3666 -0.6304 -0.3883
10436SOL    HW132128   2.041   1.073   3.308  1.5306 -1.2139  0.4291
10436SOL    HW232129   2.105   1.219   3.276  0.6464 -0.8292  0.3745
10437SOL     OW32130   2.786   1.341   3.974 -0.0792 -0.7310 -0.2354
10437SOL    HW132131   2.813   1.394   3.893 -1.2898 -0.6618 -0.6201
10437SOL    HW232132   2.730   1.264   3.946 -0.7879 -0.5242  0.5605
10438SOL     OW32133   0.618   2.875   5.734 -0.9816  0.2370  0.2704
10438SOL    HW132134   0.695   2.934   5.712 -1.3194  0.7612  0.4673
10438SOL    HW232135   0.534   2.929   5.735 -1.3670 -0.3436 -0.0385
10439SOL     OW32136   0.379   2.409   5.301 -0.2822 -0.1979 -0.4557
10439SOL    HW132137   0.349   2.439   5.392 -1.0446 -2.0056 -0.0559
10439SOL    HW232138   0.335   2.465   5.231  0.2892  1.1982  0.2676
10440SOL     OW32139   6.350   5.719   5.745  0.6428 -0.6052 -0.2959
10440SOL    HW132140   6.388   5.811   5.735  0.0959 -0.3390 -0.0113
10440SOL    HW232141   6.277   5.706   5.678  0.9653 -0.9616 -0.5797
10441SOL     OW32142   1.867   3.957   1.266 -0.1002 -0.4354 -0.6539
10441SOL    HW132143   1.920   4.035   1.233 -1.3307  0.7547  0.0838
10441SOL    HW232144   1.848   3.968   1.363  1.6383 -2.8342  0.0371
10442SOL     OW32145   1.142   1.351   1.779  0.4473  0.4814 -0.1003
10442SOL    HW132146   1.170   1.318   1.869 -1.3100 -1.8019 -0.3022
10442SOL    HW232147   1.177   1.291   1.708 -1.3935 -0.0591 -0.6204
10443SOL     OW32148   3.687   2.759   4.527  0.5991  0.1303 -0.0758
10443SOL    HW132149   3.725   2.682   4.578  1.6802  0.1172 -0.8724
10443SOL    HW232150   3.744   2.839   4.542 -0.3092  0.7058  0.4426
10444SOL     OW32151   0.368   0.024   0.322  0.3843  0.5773 -0.3049
10444SOL    HW132152   0.284   0.042   0.372 -0.0486  0.7676 -1.0898
10444SOL    HW232153   0.430  -0.030   0.379 -0.7769 -0.6396 -0.1494
10445SOL     OW32154   5.749   3.502   2.201 -0.5968 -0.3682  0.0734
10445SOL    HW132155   5.837   3.504   2.248 -1.1919  2.1886  1.2939
10445SOL    HW232156   5.751   3.566   2.124 -1.1331 -0.9328 -0.4211
10446SOL     OW32157   4.795   2.456   1.702 -0.0584 -0.1838  0.0120
10446SOL    HW132158   4.861   2.440   1.629 -0.6731 -0.5844 -0.4738
10446SOL    HW232159   4.819   2.402   1.782  1.2551  1.0894  0.5410
10447SOL     OW32160   2.717   2.565   0.322  0.4328 -0.4081 -0.5257
10447SOL    HW132161   2.752   2.490   0.379  1.5084 -0.0325 -0.6716
10447SOL    HW232162   2.683   2.528   0.236  1.6590 -0.6867 -0.9229
10448SOL     OW32163   4.729   0.871   0.515  0.2498 -0.1958 -0.2835
10448SOL    HW132164   4.675   0.797   0.555  0.6319 -0.2434  0.1513
10448SOL    HW232165   4.816   0.880   0.564 -0.5662  1.7814  0.9262
10449SOL     OW32166   3.014   1.379   1.100 -0.1718 -0.0764  0.2167
10449SOL    HW132167   3.103   1.337   1.115 -0.5655 -0.8575  0.4021
10449SOL    HW232168   2.959   1.320   1.041 -2.1481 -1.8678  3.5344
10450SOL     OW32169   4.573   3.954   5.042  0.3181  0.0918 -0.6517
10450SOL    HW132170   4.659   3.977   4.995  1.0579 -1.4849 -0.1351
10450SOL    HW232171   4.511   3.909   4.978  0.3664  0.1005 -0.7040
10451SOL     OW32172   6.309   0.913   5.736  0.7621 -0.2416  0.0874
10451SOL    HW132173   6.243   0.987   5.752  0.1311 -0.8653  0.4675
10451SOL    HW232174   6.363   0.934   5.655 -0.2765  0.0507 -0.5636
10452SOL     OW32175   2.209   3.257   2.192  0.4214 -0.3328 -0.3766
10452SOL    HW132176   2.156   3.175   2.168  0.3802 -0.8488  1.3616
10452SOL    HW232177   2.194   3.280   2.288  0.1841  1.9403 -0.9157
10453SOL     OW32178   5.306   4.160   0.758  0.6307  0.1136 -0.5831
10453SOL    HW132179   5.270   4.073   0.792  0.5278  0.2536 -0.3269
10453SOL    HW232180   5.320   4.154   0.659  1.4099 -0.4605 -0.4385
10454SOL     OW32181   0.461   5.526   6.692  0.3170 -0.0517  0.4048
10454SOL    HW132182   0.375   5.573   6.669  0.2825  0.3785  1.3777
10454SOL    HW232183   0.484   5.462   6.619  0.2530  1.3354 -0.8850
10455SOL     OW32184   0.669   5.767   2.641  0.1125  0.5053  0.2407
10455SOL    HW132185   0.760   5.768   2.599  0.4603  0.6681  0.9753
10455SOL    HW232186   0.610   5.833   2.594 -0.2514 -1.0252 -1.5368
10456SOL     OW32187   0.542   3.260   2.985 -0.1877 -0.2615 -0.5225
10456SOL    HW132188   0.492   3.234   3.068 -0.0854  0.4694 -0.2259
10456SOL    HW232189   0.505   3.345   2.949 -0.3316 -0.6482 -1.3305
10457SOL     OW32190   5.094   4.187   6.095 -0.6055  0.1056  0.0315
10457SOL    HW132191   5.001   4.156   6.076  0.5451 -2.8068 -1.5298
10457SOL    HW232192   5.149   4.179   6.011  1.6503 -0.8241  1.4915
10458SOL     OW32193   4.448   3.039   6.638  0.4353 -0.1411  0.2094
10458SOL    HW132194   4.389   2.986   6.577 -1.3390  1.5604  0.3249
10458SOL    HW232195   4.539   2.999   6.639 -0.6960 -2.9636  0.0712
10459SOL     OW32196   6.075   1.691   6.053 -0.2009  0.1120  0.6796
10459SOL    HW132197   6.151   1.739   6.009  0.8037 -0.9730  1.1746
10459SOL    HW232198   6.102   1.596   6.071 -1.7987 -0.3800  0.5681
10460SOL     OW32199   0.885   1.644   4.801  0.3358  0.7100  0.0629
10460SOL    HW132200   0.919   1.573   4.740  1.0352  1.3964 -0.3709
10460SOL    HW232201   0.812   1.607   4.858  1.7743 -0.8484  0.9993
10461SOL     OW32202   0.860   2.543   6.046 -0.2548  0.1063  0.3718
10461SOL    HW132203   0.902   2.625   6.087 -0.1851  0.8717 -1.1667
10461SOL    HW232204   0.831   2.563   5.953  0.8824 -1.9775 -0.5059
10462SOL     OW32205   2.819   5.563   1.031  0.1909 -0.0633 -0.3382
10462SOL    HW132206   2.737   5.572   1.087 -1.0441 -0.8192 -1.9309
10462SOL    HW232207   2.815   5.628   0.955  1.9965  1.1855  0.5647
10463SOL     OW32208   6.391   4.712   3.220  0.0219  0.3752  0.0923
10463SOL    HW132209   6.376   4.757   3.309 -2.8313 -1.6385  0.7725
10463SOL    HW232210   6.303   4.686   3.181  1.3768 -3.0863 -1.0159
10464SOL     OW32211   5.463   3.767   3.759  0.5648 -0.0509 -0.1170
10464SOL    HW132212   5.493   3.703   3.687  1.1683  0.6936 -0.5437
10464SOL    HW232213   5.414   3.843   3.717  0.9196  0.3890  0.2554
10465SOL     OW32214   5.684   3.663   6.654  0.5864  0.1739 -0.0681
10465SOL    HW132215   5.749   3.738   6.642  2.3347 -1.1873  0.5166
10465SOL    HW232216   5.732   3.575   6.646 -1.0438 -0.8925  1.1727
10466SOL     OW32217   1.474   3.648   6.713  0.2626 -0.3698 -0.3704
10466SOL    HW132218   1.400   3.611   6.656 -0.9302 -0.7009  1.2989
10466SOL    HW232219   1.525   3.573   6.754 -0.4393 -0.1923  0.8840
10467SOL     OW32220   0.639   3.412   0.660  0.1914 -0.5183  0.0223
10467SOL    HW132221   0.648   3.422   0.759  0.3284  2.3198 -0.2009
10467SOL    HW232222   0.726   3.435   0.616 -0.5492  0.6544 -0.8676
10468SOL     OW32223   0.174   4.288   0.364 -0.3523 -0.0759 -0.0113
10468SOL    HW132224   0.126   4.337   0.291  1.3489 -0.0332 -1.1520
10468SOL    HW232225   0.183   4.191   0.339 -0.7920 -0.3035  0.6967
10469SOL     OW32226   1.340   1.414   5.207 -0.0872 -0.4189 -0.3910
10469SOL    HW132227   1.280   1.384   5.133 -1.5298 -0.5089  0.7482
10469SOL    HW232228   1.312   1.368   5.292  0.9271  0.3594  0.3838
10470SOL     OW32229   1.389   5.329   4.169 -0.6063 -0.0759 -0.4367
10470SOL    HW132230   1.318   5.334   4.098  0.5472  2.3498 -1.5709
10470SOL    HW232231   1.478   5.321   4.125 -0.0750 -2.9046  0.9732
10471SOL     OW32232   4.940   0.612   3.695 -0.3359  1.1314 -0.1439
10471SOL    HW132233   5.021   0.637   3.749  0.5653  1.2121 -1.4875
10471SOL    HW232234   4.870   0.576   3.756  1.2896 -0.4569  0.8936
10472SOL     OW32235   5.773   5.640   1.563  0.0399  0.1456  0.2156
10472SOL    HW132236   5.778   5.632   1.463  0.0562  1.4709  0.0837
10472SOL    HW232237   5.828   5.569   1.605 -0.7110 -1.0153 -0.6993
10473SOL     OW32238   1.352   5.739   5.328 -0.5268 -0.4994 -0.1108
10473SOL    HW132239   1.420   5.735   5.401 -0.2213 -0.5036 -0.3933
10473SOL    HW232240   1.260   5.742   5.368 -0.4335 -1.9867  0.2467
10474SOL     OW32241   2.860   3.318   3.362  0.2629 -0.1803 -0.2077
10474SOL    HW132242   2.767   3.353   3.350 -0.4227 -1.7376  0.2344
10474SOL    HW232243   2.910   3.377   3.425 -1.0034 -0.2435  0.9039
10475SOL     OW32244   5.782   4.667   6.477  0.0913 -0.0064  0.3310
10475SOL    HW132245   5.773   4.767   6.480  1.1893  0.0926  1.9287
10475SOL    HW232246   5.740   4.632   6.394 -2.7027  1.5251  0.9634
10476SOL     OW32247   6.483   2.598   0.422 -0.3508  0.2085  0.1928
10476SOL    HW132248   6.475   2.514   0.475 -1.1680 -0.1959 -0.5653
10476SOL    HW232249   6.580   2.624   0.415 -0.1392 -0.3677  0.8709
10477SOL     OW32250   0.107   2.482   0.461  0.2344  0.6809  0.4401
10477SOL    HW132251   0.198   2.448   0.485 -0.0745  0.4425  1.3146
10477SOL    HW232252   0.086   2.457   0.366  1.2738  1.1732  0.0610
10478SOL     OW32253   4.558   3.630   0.965 -0.5691 -0.3640  0.3943
10478SOL    HW132254   4.488   3.567   0.930  0.0344 -1.2106  0.6734
10478SOL    HW232255   4.571   3.615   1.063 -0.3822  0.1687  0.4557
10479SOL     OW32256   4.285   3.872   1.730 -1.3069 -0.2546 -0.4143
10479SOL    HW132257   4.254   3.922   1.650 -0.9033  0.3941 -0.1712
10479SOL    HW232258   4.348   3.929   1.783  1.1076 -1.8246 -1.4235
10480SOL     OW32259   2.049   0.905   0.533  0.5428 -0.2524 -0.0098
10480SOL    HW132260   2.057   0.942   0.441 -0.2392  1.4026  0.5418
10480SOL    HW232261   1.956   0.868   0.547  0.0265  1.2472  0.6902
10481SOL     OW32262   4.876   4.845   1.170 -0.8205 -0.3176  0.3759
10481SOL    HW132263   4.974   4.828   1.181 -1.0168 -1.2511  0.7285
10481SOL    HW232264   4.862   4.907   1.093  0.1540  1.1907  1.3437
10482SOL     OW32265   5.458   6.730   4.598 -0.4974  0.1637 -0.1478
10482SOL    HW132266   5.516   6.804   4.632 -0.8368 -0.1876  1.2605
10482SOL    HW232267   5.475   6.647   4.652 -0.8648 -0.4971 -1.0264
10483SOL     OW32268   1.005   3.861   2.131 -0.0341 -0.1816  0.0299
10483SOL    HW132269   1.101   3.873   2.106  0.2425 -2.5934 -0.3188
10483SOL    HW232270   0.947   3.884   2.053  0.3348 -0.1179 -0.2292
10484SOL     OW32271   6.695   5.063   6.393  1.0767  0.3800  0.4147
10484SOL    HW132272   6.718   5.156   6.424  1.2218  1.3501 -2.3211
10484SOL    HW232273   6.619   5.068   6.328  2.3436 -1.1396 -1.2729
10485SOL     OW32274   3.435   2.046   1.515 -0.4483  0.5758 -0.0786
10485SOL    HW132275   3.366   2.010   1.452 -0.8639  2.1018 -0.5315
10485SOL    HW232276   3.480   2.126   1.474  1.3945 -0.1910  0.3273
10486SOL     OW32277   6.160   3.082   3.060  0.2922 -0.5843 -0.0974
10486SOL    HW132278   6.188   2.991   3.092  1.1979 -0.0885  0.5822
10486SOL    HW232279   6.073   3.106   3.102  0.3422 -0.8998  0.1983
10487SOL     OW32280   4.789   4.084   6.312  0.0594 -0.6503 -0.1789
10487SOL    HW132281   4.775   4.157   6.245 -1.6443 -1.1140 -0.3619
10487SOL    HW232282   4.864   4.110   6.373 -0.6459  1.3624 -0.0964
10488SOL     OW32283   2.769   1.089   2.803 -0.0608  0.4828  0.4812
10488SOL    HW132284   2.718   1.012   2.763 -0.2041 -0.1380  1.7910
10488SOL    HW232285   2.725   1.117   2.888  0.2703  1.7253  0.2516
10489SOL     OW32286   0.108   3.868   1.807  0.5293 -0.1536  0.1793
10489SOL    HW132287   0.116   3.860   1.708  2.2475 -0.9642  0.3418
10489SOL    HW232288   0.177   3.931   1.842 -0.0800  0.1534  0.8530
10490SOL     OW32289   5.102   1.623   3.710 -0.0516 -0.8470 -0.0928
10490SOL    HW132290   5.082   1.556   3.781  1.6501 -0.3849  0.8692
10490SOL    HW232291   5.201   1.636   3.703 -0.2410 -0.1335 -1.8616
10491SOL     OW32292   3.952   5.553   1.616  0.1092  0.4246 -0.8124
10491SOL    HW132293   4.037   5.533   1.568 -1.6292 -1.1179 -3.4845
10491SOL    HW232294   3.929   5.476   1.676  0.1214  0.4305 -0.7987
10492SOL     OW32295   3.805   5.383   4.821 -0.0543 -0.0484 -0.1839
10492SOL    HW132296   3.811   5.438   4.904 -0.3432 -0.6650  0.2523
10492SOL    HW232297   3.815   5.286   4.844  3.4179 -0.0800 -1.2473
10493SOL     OW32298   3.793   2.261   2.108 -0.2301 -0.2613  1.0104
10493SOL    HW132299   3.886   2.227   2.098  0.8321  2.1873  1.8033
10493SOL    HW232300   3.729   2.184   2.107  1.5134 -1.8722 -1.9333
10494SOL     OW32301   5.730   6.106   5.928  0.0322  0.1213  0.5171
10494SOL    HW132302   5.647   6.159   5.943  1.4861  2.5834  0.4055
10494SOL    HW232303   5.760   6.065   6.014 -0.8992 -0.1520  0.7118
10495SOL     OW32304   6.514   6.194   5.205  0.1024 -0.3866  0.3717
10495SOL    HW132305   6.545   6.141   5.283 -0.1905 -1.7151 -0.3803
10495SOL    HW232306   6.581   6.266   5.184  1.9320 -2.1511 -0.2123
10496SOL     OW32307   4.745   6.817   2.398  0.1434  0.2312  0.1270
10496SOL    HW132308   4.835   6.835   2.438 -1.0106  0.8417  2.6506
10496SOL    HW232309   4.735   6.870   2.313  1.2764  2.1446  1.1007
10497SOL     OW32310   1.939   1.714   4.672  0.6714 -0.0954  0.2529
10497SOL    HW132311   1.924   1.807   4.639  1.0124  0.3505  1.3039
10497SOL    HW232312   2.027   1.680   4.641 -0.3623 -0.9309 -1.9803
10498SOL     OW32313   4.014   1.925   2.346  0.3915  0.4155  0.2227
10498SOL    HW132314   4.048   2.008   2.301  0.1875  0.1433 -0.4474
10498SOL    HW232315   4.047   1.923   2.440 -0.6538  1.8861  0.6581
10499SOL     OW32316   4.713   2.598   4.254  0.4030  0.3374 -0.4526
10499SOL    HW132317   4.662   2.651   4.322  0.4427 -0.2206  0.0289
10499SOL    HW232318   4.798   2.565   4.295 -1.4223 -3.5117  0.6797
10500SOL     OW32319   1.273   6.954   5.538  0.4469  0.1021  0.0129
10500SOL    HW132320   1.202   6.907   5.590  0.9195  0.2888  0.8608
10500SOL    HW232321   1.345   6.985   5.601  1.0337  0.3493 -0.7577
10501SOL     OW32322   6.605   3.990   6.176  0.0379  0.2880 -0.8358
10501SOL    HW132323   6.534   4.025   6.115  0.6701  1.6213 -0.8594
10501SOL    HW232324   6.690   4.040   6.159  0.6961 -0.5390 -0.0660
10502SOL     OW32325   6.224   0.657   2.232 -0.1366  0.0338 -0.4134
10502SOL    HW132326   6.244   0.750   2.201  0.7385  0.0331  0.0731
10502SOL    HW232327   6.194   0.660   2.327 -1.6860 -0.0524 -0.8800
10503SOL     OW32328   5.219   5.874   1.671 -0.1196 -0.2924  0.0461
10503SOL    HW132329   5.200   5.819   1.589  0.7152 -1.0090  0.3237
10503SOL    HW232330   5.141   5.867   1.734 -1.1133  0.8918 -0.9976
10504SOL     OW32331   4.262   3.562   3.220 -0.2507 -0.0841  0.4996
10504SOL    HW132332   4.359   3.588   3.221 -0.1045 -0.5065 -1.4230
10504SOL    HW232333   4.254   3.465   3.241 -0.1808 -0.2589 -0.2727
10505SOL     OW32334   5.408   4.531   1.591  0.1761  0.9426 -0.1483
10505SOL    HW132335   5.344   4.570   1.657 -0.8574  0.2886 -0.7411
10505SOL    HW232336   5.394   4.432   1.585  0.1714  1.0056 -1.4062
10506SOL     OW32337   3.440   5.806   4.083  1.0528 -0.2447  0.0858
10506SOL    HW132338   3.476   5.894   4.113  0.3570  0.5321 -1.2815
10506SOL    HW232339   3.484   5.733   4.135  0.1437  0.9630  2.7831
10507SOL     OW32340   1.311   3.225   6.663  0.1407  0.5173 -0.7151
10507SOL    HW132341   1.351   3.140   6.629  0.9408  0.6071 -0.0509
10507SOL    HW232342   1.354   3.303   6.617  1.6487  0.6675  0.8273
10508SOL     OW32343   3.995   0.265   6.505 -0.3330 -0.4273  0.0007
10508SOL    HW132344   3.986   0.166   6.514 -0.0334 -0.3333  1.6087
10508SOL    HW232345   3.929   0.310   6.566  0.0101  0.3492 -0.1835
10509SOL     OW32346   5.553   4.139   4.929  0.1158  0.0758  0.3254
10509SOL    HW132347   5.531   4.087   4.847  1.7607 -1.5835  0.8497
10509SOL    HW232348   5.506   4.099   5.007  1.4712 -0.8052  0.7504
10510SOL     OW32349   3.827   3.333   2.310  0.2147 -0.3866 -0.6578
10510SOL    HW132350   3.767   3.311   2.387  1.6008  0.4682  0.7254
10510SOL    HW232351   3.905   3.270   2.309  0.2977 -0.2830 -1.2467
10511SOL     OW32352   2.114   3.997   5.110  0.4774  0.5715 -0.1250
10511SOL    HW132353   2.023   3.962   5.131  0.2153  0.1640 -1.7918
10511SOL    HW232354   2.166   4.006   5.194 -0.8791  0.1917  0.7942
10512SOL     OW32355   5.701   0.449   5.112 -0.0021 -0.2818  0.2138
10512SOL    HW132356   5.691   0.357   5.151 -1.2787 -0.6826 -0.9947
10512SOL    HW232357   5.643   0.458   5.031  1.9694  0.7825 -1.1638
10513SOL     OW32358   2.779   5.597   3.238  0.5928  0.4760 -0.0244
10513SOL    HW132359   2.779   5.684   3.189  1.3660  0.4557 -0.0794
10513SOL    HW232360   2.792   5.614   3.336 -1.5954  0.5618  0.3050
10514SOL     OW32361   3.884   6.470   3.958 -0.1115  0.4884  0.2588
10514SOL    HW132362   3.880   6.487   4.057  0.1365  0.2688  0.3080
10514SOL    HW232363   3.836   6.544   3.910  1.4562  1.6951  0.4510
10515SOL     OW32364   5.501   2.737   0.346 -0.2637 -0.2404 -0.2477
10515SOL    HW132365   5.534   2.757   0.438 -1.9892 -0.2356  0.3948
10515SOL    HW232366   5.405   2.710   0.350 -1.2879  2.5361 -2.2807
10516SOL     OW32367   5.956   1.154   6.880  0.4711 -0.5272 -0.5177
10516SOL    HW132368   6.039   1.147   6.826  0.9551 -0.8080  0.2486
10516SOL    HW232369   5.943   1.070   6.932 -0.5166 -0.6491 -0.9371
10517SOL     OW32370   0.654   1.950   4.868  0.4298  0.2055  0.4411
10517SOL    HW132371   0.583   1.880   4.864  0.7467 -0.1091  0.3431
10517SOL    HW232372   0.689   1.968   4.776 -0.4877  1.3506  0.3016
10518SOL     OW32373   6.093   1.464   3.904 -0.4636  0.1239 -0.3394
10518SOL    HW132374   6.010   1.422   3.940  0.1955  0.5995  1.8657
10518SOL    HW232375   6.164   1.394   3.892  0.3157  0.2790  2.4093
10519SOL     OW32376   0.261   1.495   2.478  0.4058  0.3531 -0.7212
10519SOL    HW132377   0.317   1.577   2.462  0.9246  0.4147  1.1530
10519SOL    HW232378   0.320   1.414   2.477  0.0666  0.1057 -1.4792
10520SOL     OW32379   6.074   5.296   0.664 -0.1529 -0.2254 -0.3924
10520SOL    HW132380   6.117   5.212   0.698  0.5629  0.2575 -0.0805
10520SOL    HW232381   6.128   5.375   0.693 -1.0091  0.3714 -0.3788
10521SOL     OW32382   6.186   2.530   6.590 -0.0348  0.0102 -0.2901
10521SOL    HW132383   6.104   2.475   6.606 -0.1781  0.3098  0.0098
10521SOL    HW232384   6.164   2.604   6.526 -0.1007  0.3258  0.0932
10522SOL     OW32385   6.766   6.171   0.758 -0.3186 -0.7053  0.2664
10522SOL    HW132386   6.749   6.208   0.850 -2.9833 -2.3926  0.5557
10522SOL    HW232387   6.769   6.245   0.692  0.6874  0.4651  1.5668
10523SOL     OW32388   4.188   3.147   5.419  0.1495 -0.0875  0.0559
10523SOL    HW132389   4.228   3.111   5.503  0.4794  0.6988  0.2430
10523SOL    HW232390   4.249   3.216   5.380 -0.7275  0.6744  0.0027
10524SOL     OW32391   5.824   1.581   6.266  0.1458 -0.3766 -0.2270
10524SOL    HW132392   5.904   1.554   6.213  0.0396 -0.8011 -0.1762
10524SOL    HW232393   5.839   1.671   6.306  0.3144 -0.1442 -0.8037
10525SOL     OW32394   5.626   1.221   1.642 -0.0872 -0.1130 -0.0619
10525SOL    HW132395   5.544   1.167   1.660 -1.6304  1.5717 -1.6676
10525SOL    HW232396   5.619   1.309   1.689  1.2568 -0.2984  0.5318
10526SOL     OW32397   4.385   6.929   1.504  0.2817 -0.4917 -0.3705
10526SOL    HW132398   4.349   6.937   1.411  0.8341 -1.5893 -0.7052
10526SOL    HW232399   4.355   7.008   1.558 -1.9077 -0.9346 -0.8400
10527SOL     OW32400   4.557   3.402   5.548 -0.1980  0.1025 -0.1341
10527SOL    HW132401   4.621   3.460   5.497 -0.4409  0.0039 -0.5632
10527SOL    HW232402   4.608   3.339   5.606  0.1509 -0.6599 -1.2211
10528SOL     OW32403   6.114   4.728   5.080  0.0069 -0.3723 -0.5570
10528SOL    HW132404   6.080   4.780   5.002  0.9613  0.2158 -0.5955
10528SOL    HW232405   6.107   4.630   5.061 -0.2831 -0.2360 -1.1481
10529SOL     OW32406   1.186   5.270   4.531  0.1940 -0.0238  0.5110
10529SOL    HW132407   1.205   5.197   4.465 -0.8368  0.2027 -0.0571
10529SOL    HW232408   1.089   5.292   4.530  0.4046  1.0027  1.0454
10530SOL     OW32409   0.923   5.036   6.639  0.1842  0.1581  0.3567
10530SOL    HW132410   0.838   5.072   6.677  0.4084  1.1397 -0.0609
10530SOL    HW232411   0.919   4.936   6.639 -1.2329  0.1947 -0.2304
10531SOL     OW32412   5.664   1.128   5.134  0.2264  0.2245 -0.2180
10531SOL    HW132413   5.571   1.126   5.173  1.1483 -1.4207  2.2023
10531SOL    HW232414   5.673   1.054   5.068  0.1806 -0.6613  0.7172
10532SOL     OW32415   6.986   5.335   1.330  0.4976  0.2149 -0.3074
10532SOL    HW132416   7.024   5.356   1.420  1.6715 -1.4345 -0.3778
10532SOL    HW232417   6.888   5.314   1.339  0.4026  0.9234  0.4603
10533SOL     OW32418   1.572   0.230   0.107 -0.7756 -0.1450 -0.2638
10533SOL    HW132419   1.652   0.177   0.079 -0.5631  1.0423 -2.0187
10533SOL    HW232420   1.599   0.298   0.175 -0.2813  0.1570 -0.7428
10534SOL     OW32421   3.957   1.165   1.755  0.9629 -0.1179  0.1900
10534SOL    HW132422   4.039   1.221   1.741  1.1426 -0.1331  1.1034
10534SOL    HW232423   3.881   1.205   1.705  1.4709  0.0303 -0.4803
10535SOL     OW32424   4.957   5.691   3.307  0.1076  0.3564 -0.3020
10535SOL    HW132425   5.028   5.760   3.291 -0.1231  0.5661 -0.4395
10535SOL    HW232426   4.868   5.729   3.284 -0.1528  0.3856  0.6946
10536SOL     OW32427   3.587   1.229   5.013  0.1286  0.1689 -0.1429
10536SOL    HW132428   3.524   1.281   4.955  1.3853 -0.0606 -1.7601
10536SOL    HW232429   3.540   1.148   5.048 -0.9170  0.7756 -0.1002
10537SOL     OW32430   5.771   6.978   6.948 -0.7331  0.2989  0.6564
10537SOL    HW132431   5.678   6.994   6.916 -0.3624 -0.0766 -0.6417
10537SOL    HW232432   5.834   6.976   6.871  0.1396 -1.0236  1.3660
10538SOL     OW32433   0.034   1.660   2.964  0.5509  0.0153 -0.3203
10538SOL    HW132434  -0.034   1.708   2.908 -0.2213 -0.0050  0.6103
10538SOL    HW232435   0.126   1.692   2.940  0.0056  2.6191  0.8018
10539SOL     OW32436   2.410   2.934   3.818  0.1925  0.0478  0.5529
10539SOL    HW132437   2.349   2.876   3.763  0.7839  0.6719 -0.8310
10539SOL    HW232438   2.389   2.923   3.915 -1.2300 -0.7380  0.1845
10540SOL     OW32439   0.604   5.660   6.023  0.5132 -0.1782  0.1508
10540SOL    HW132440   0.684   5.718   6.031 -0.2711  1.2240 -1.5985
10540SOL    HW232441   0.522   5.712   6.049  0.0774 -1.3818  1.2926
10541SOL     OW32442   4.829   1.341   1.008 -0.2523 -0.2907  0.2287
10541SOL    HW132443   4.763   1.388   0.949  0.2495 -2.0099 -1.7856
10541SOL    HW232444   4.922   1.365   0.981 -0.0198 -0.6895  0.6571
10542SOL     OW32445   1.691   2.687   5.743 -0.1782  0.0826  0.4589
10542SOL    HW132446   1.633   2.723   5.670 -0.3707 -0.4542  0.3399
10542SOL    HW232447   1.634   2.663   5.821 -0.3936 -2.1642 -0.3150
10543SOL     OW32448   3.331   3.594   0.836  0.2535  0.0492  0.6124
10543SOL    HW132449   3.253   3.548   0.794  0.1947  0.5824  0.1250
10543SOL    HW232450   3.368   3.537   0.909 -0.0208 -0.6168  0.2407
10544SOL     OW32451   5.015   3.665   5.393  0.2143  0.3170  0.2066
10544SOL    HW132452   4.982   3.756   5.420 -0.9003  0.7875 -2.4093
10544SOL    HW232453   4.973   3.639   5.306  3.0965 -1.2389 -0.8564
10545SOL     OW32454   6.806   4.149   1.998  0.4635  0.0599 -0.1793
10545SOL    HW132455   6.863   4.071   2.023  0.0533  0.1739  1.1922
10545SOL    HW232456   6.713   4.117   1.977 -0.0741  0.2633  1.6871
10546SOL     OW32457   3.061   3.473   0.779 -0.0280  0.6366 -0.3340
10546SOL    HW132458   2.968   3.465   0.813  0.3571 -0.1137  0.6033
10546SOL    HW232459   3.089   3.386   0.738  1.3224 -0.2174  2.2382
10547SOL     OW32460   5.963   6.713   3.532  0.1010 -0.7303  0.4839
10547SOL    HW132461   6.054   6.744   3.507 -1.0239 -0.4325 -4.1334
10547SOL    HW232462   5.896   6.784   3.511 -1.3563 -1.1282  3.2736
10548SOL     OW32463   5.220   1.261   1.512 -0.5171  0.5287  0.1968
10548SOL    HW132464   5.292   1.192   1.508  0.0249  0.9079  2.2309
10548SOL    HW232465   5.141   1.229   1.458  0.7559 -0.3539 -1.2174
10549SOL     OW32466   4.648   5.893   5.507  0.1572  0.3424 -0.1735
10549SOL    HW132467   4.591   5.973   5.520 -0.5470 -0.2100  0.2041
10549SOL    HW232468   4.619   5.843   5.426  1.4538  1.1716 -1.1879
10550SOL     OW32469   5.657   3.664   3.380  0.4107  0.0956  0.4845
10550SOL    HW132470   5.650   3.646   3.478  0.8856 -1.0649  0.3304
10550SOL    HW232471   5.706   3.589   3.336 -0.5395  0.1674 -0.7683
10551SOL     OW32472   0.966   1.424   2.180 -0.8055 -0.1680  0.0381
10551SOL    HW132473   0.970   1.363   2.259  0.9715 -3.4546 -2.3575
10551SOL    HW232474   0.885   1.403   2.125 -0.1772 -0.4336 -0.8073
10552SOL     OW32475   6.490   2.086   0.981 -0.2196 -0.2606  0.4595
10552SOL    HW132476   6.582   2.124   0.974  0.0022 -1.1050 -2.1968
10552SOL    HW232477   6.429   2.153   1.023  1.0942  1.2624 -0.0036
10553SOL     OW32478   1.355   1.809   1.787 -0.1590  0.1177 -0.1489
10553SOL    HW132479   1.312   1.744   1.724 -0.1317 -2.0509  1.9184
10553SOL    HW232480   1.381   1.762   1.871 -1.6106  3.1730  2.2072
10554SOL     OW32481   1.297   4.708   6.707 -0.0258  0.6147 -0.3894
10554SOL    HW132482   1.351   4.714   6.791 -0.8599  1.4577  0.1126
10554SOL    HW232483   1.301   4.615   6.672 -2.3420 -0.7022  2.4430
10555SOL     OW32484   3.691   2.367   1.165  0.3769 -0.1464 -0.7082
10555SOL    HW132485   3.646   2.324   1.087  0.3450  0.3951 -1.0006
10555SOL    HW232486   3.694   2.466   1.151 -0.1985  0.0211  0.2852
10556SOL     OW32487   3.615   0.256   7.008  0.4330 -0.1841 -0.1197
10556SOL    HW132488   3.639   0.353   7.006 -0.2633  0.0318  0.9633
10556SOL    HW232489   3.698   0.201   7.000  0.7531  0.4580 -1.7890
10557SOL     OW32490   4.705   2.536   2.111  0.4214 -0.7030 -0.4202
10557SOL    HW132491   4.682   2.573   2.021  0.3171 -0.5225 -0.3219
10557SOL    HW232492   4.679   2.440   2.116  0.7908 -0.8228 -0.7154
10558SOL     OW32493   3.676   4.716   3.624  0.3417  0.1129  0.5514
10558SOL    HW132494   3.695   4.747   3.531 -0.5547  1.4284  0.7885
10558SOL    HW232495   3.717   4.626   3.637  0.5643 -0.0598 -1.0821
10559SOL     OW32496   2.509   5.074   1.480 -0.1418 -0.1582 -0.2347
10559SOL    HW132497   2.425   5.060   1.532  0.0799  1.1070  0.4980
10559SOL    HW232498   2.577   5.005   1.505 -1.1875 -1.6951 -1.4072
10560SOL     OW32499   1.158   3.073   4.971 -0.4676  0.4449 -0.6410
10560SOL    HW132500   1.121   3.050   5.061 -0.1766  0.1767 -0.5868
10560SOL    HW232501   1.084   3.073   4.904 -0.5404 -0.2809 -0.5692
10561SOL     OW32502   3.199   6.427   4.546  0.0625  0.4598  0.5316
10561SOL    HW132503   3.212   6.378   4.632  0.0271  0.3390  0.4690
10561SOL    HW232504   3.131   6.499   4.559  0.6898  1.0042  0.8320
10562SOL     OW32505   1.428   5.059   1.255  0.0583  0.5642 -0.0493
10562SOL    HW132506   1.513   5.036   1.303  0.9030  1.8817 -0.8536
10562SOL    HW232507   1.407   4.989   1.188  2.2090  1.6713 -1.9803
10563SOL     OW32508   5.779   6.943   3.516 -0.3206 -0.0607  0.0189
10563SOL    HW132509   5.729   6.879   3.574 -1.1905 -0.0501 -0.7026
10563SOL    HW232510   5.756   7.037   3.542  0.8048 -0.0617  0.9486
10564SOL     OW32511   0.906   4.384   4.732  0.1712  0.1269 -0.0566
10564SOL    HW132512   0.996   4.345   4.752 -0.0767  0.0923  1.0157
10564SOL    HW232513   0.847   4.313   4.693  0.0432 -0.3173  0.9274
10565SOL     OW32514   0.345   0.220   6.540 -0.0545  0.1597 -0.2173
10565SOL    HW132515   0.273   0.156   6.514 -1.5227  1.2962  0.8351
10565SOL    HW232516   0.403   0.180   6.610 -0.2423 -0.4314 -0.3949
10566SOL     OW32517   6.282   5.338   1.018 -0.2048 -0.0109  0.1538
10566SOL    HW132518   6.230   5.255   1.037  0.2793 -0.2314  0.5456
10566SOL    HW232519   6.295   5.389   1.103 -1.6500  1.1556 -0.2941
10567SOL     OW32520   6.593   3.227   3.340  0.4489  0.4273  0.4314
10567SOL    HW132521   6.500   3.194   3.353  0.7892 -0.2212  1.3046
10567SOL    HW232522   6.600   3.273   3.252 -1.1209  1.9636  1.0242
10568SOL     OW32523   4.893   3.552   5.171  0.2943  0.4141  0.0434
10568SOL    HW132524   4.869   3.456   5.179  0.1417  0.5989  2.3653
10568SOL    HW232525   4.910   3.574   5.075 -0.5769 -1.6821 -0.6404
10569SOL     OW32526   1.678   0.605   1.490  0.1607 -0.1945  0.1562
10569SOL    HW132527   1.628   0.526   1.524 -0.8547 -0.8552 -2.5962
10569SOL    HW232528   1.772   0.579   1.469 -0.3232 -0.9039 -1.2836
10570SOL     OW32529   0.522   2.766   6.241  0.1189 -0.0812  0.2075
10570SOL    HW132530   0.488   2.673   6.255  2.0721 -0.9077 -0.1880
10570SOL    HW232531   0.546   2.778   6.145 -1.2340  1.2778 -0.0051
10571SOL     OW32532   0.712   1.316   1.746 -0.4846  0.1396  0.0989
10571SOL    HW132533   0.774   1.299   1.669 -1.8532 -0.9596 -0.7919
10571SOL    HW232534   0.620   1.332   1.712 -1.2912 -1.2078  1.5048
10572SOL     OW32535   1.440   4.890   2.943  0.1443 -0.1104  0.6545
10572SOL    HW132536   1.357   4.837   2.962  0.9831 -0.9475  2.1899
10572SOL    HW232537   1.443   4.914   2.846 -1.0913 -1.4476  0.2452
10573SOL     OW32538   4.619   6.143   4.639 -0.6861 -0.4762 -0.2064
10573SOL    HW132539   4.673   6.196   4.573  0.4927 -1.6781 -0.2485
10573SOL    HW232540   4.574   6.067   4.593 -1.1209 -0.4210  0.1145
10574SOL     OW32541   3.184   5.789   0.872  0.0812 -0.1992 -0.4031
10574SOL    HW132542   3.180   5.888   0.867  1.0684 -0.1729 -2.2899
10574SOL    HW232543   3.273   5.761   0.908 -0.1284 -0.3738 -0.0254
10575SOL     OW32544   2.083   1.459   0.425  0.5754 -0.5934  0.2439
10575SOL    HW132545   2.144   1.414   0.359  1.0040 -1.0519  0.9307
10575SOL    HW232546   2.118   1.550   0.446  0.1774 -0.2575 -0.5064
10576SOL     OW32547   5.735   4.563   4.414 -0.3736  0.7843 -0.1202
10576SOL    HW132548   5.794   4.491   4.377 -1.5659  0.7778 -2.2262
10576SOL    HW232549   5.640   4.545   4.386 -1.5169  0.6027  3.3940
10577SOL     OW32550   0.697   3.741   5.328  0.4529 -0.4655  0.5425
10577SOL    HW132551   0.716   3.668   5.263  0.6432 -0.8381  1.0140
10577SOL    HW232552   0.613   3.721   5.378 -0.4672  0.5058 -0.5740
10578SOL     OW32553   0.282   1.970   3.819 -0.0317 -0.0536 -0.0245
10578SOL    HW132554   0.292   1.962   3.720  1.2626 -0.2397  0.0981
10578SOL    HW232555   0.323   2.056   3.849  0.3882 -0.4224  0.4635
10579SOL     OW32556   1.783   2.903   4.391 -0.1525 -0.0641  0.0327
10579SOL    HW132557   1.745   2.840   4.324  1.2948  1.8608 -2.8314
10579SOL    HW232558   1.732   2.989   4.387  1.2399  0.7801 -0.1900
10580SOL     OW32559   5.317   1.151   6.712  0.4013 -0.3054  0.9522
10580SOL    HW132560   5.286   1.216   6.642  1.2252  0.0460  0.9017
10580SOL    HW232561   5.259   1.069   6.709  0.0008 -0.0098  0.3207
10581SOL     OW32562   1.082   1.384   4.133  0.0942 -0.7049  0.1635
10581SOL    HW132563   1.115   1.354   4.043 -0.8320 -0.9341 -0.1147
10581SOL    HW232564   1.058   1.304   4.187  0.2667 -0.5523  0.4750
10582SOL     OW32565   6.947   1.313   2.017  0.0884  0.4280 -0.4057
10582SOL    HW132566   7.035   1.286   2.057 -0.3149 -1.0338 -0.4944
10582SOL    HW232567   6.913   1.394   2.064  1.6727  1.2819 -0.6483
10583SOL     OW32568   6.328   2.682   6.321  0.3850  0.6720  0.3726
10583SOL    HW132569   6.254   2.615   6.314 -1.3719  2.6105 -1.0844
10583SOL    HW232570   6.388   2.675   6.241  0.3531  0.6969  0.3458
10584SOL     OW32571   6.603   0.664   0.059  0.7088  0.0572 -0.5684
10584SOL    HW132572   6.696   0.641   0.088  0.5628 -1.5854 -1.2733
10584SOL    HW232573   6.572   0.746   0.107  1.3230 -1.2147  2.2025
10585SOL     OW32574   1.921   1.676   2.313 -0.0124  0.2820 -0.8317
10585SOL    HW132575   1.903   1.775   2.315  0.4658  0.3821 -1.3918
10585SOL    HW232576   1.927   1.642   2.407 -1.3568  0.5647 -0.6185
10586SOL     OW32577   3.596   5.909   5.638  0.4818 -0.3781 -0.8051
10586SOL    HW132578   3.653   5.886   5.559 -1.3754 -0.1801 -2.2862
10586SOL    HW232579   3.588   6.008   5.646  0.3107 -0.4025 -0.6508
10587SOL     OW32580   5.558   4.469   2.015 -0.0857  0.3031  0.0603
10587SOL    HW132581   5.484   4.416   1.974  0.0655  0.0442  0.1135
10587SOL    HW232582   5.606   4.520   1.945  2.7310 -3.1779 -0.8492
10588SOL     OW32583   1.266   1.648   6.091  0.0926  0.0771 -0.1941
10588SOL    HW132584   1.174   1.684   6.098 -0.7834 -1.1981 -3.3284
10588SOL    HW232585   1.332   1.722   6.106 -1.2841  0.8234  3.0506
10589SOL     OW32586   6.017   2.344   6.113  0.8976  0.2864 -0.1147
10589SOL    HW132587   5.985   2.339   6.019 -0.0807  0.7552  0.1798
10589SOL    HW232588   6.095   2.283   6.125 -0.4200 -1.6214 -0.6575
10590SOL     OW32589   6.143   1.557   6.962  0.0973  0.1730 -0.0449
10590SOL    HW132590   6.043   1.565   6.957  0.0840  0.3858  0.6127
10590SOL    HW232591   6.177   1.605   7.042  0.6766 -0.4252  0.0473
10591SOL     OW32592   1.412   1.767   6.435 -0.6542  0.0557 -0.5326
10591SOL    HW132593   1.329   1.761   6.491 -1.2960 -0.7413 -1.5310
10591SOL    HW232594   1.387   1.794   6.342  0.2823  0.3345 -0.7178
10592SOL     OW32595   6.496   1.362   6.007 -0.1094 -0.2349  0.5880
10592SOL    HW132596   6.480   1.352   6.105  2.2540  0.0333  1.0482
10592SOL    HW232597   6.531   1.277   5.970  0.6083  0.1754  0.3179
10593SOL     OW32598   5.088   5.628   1.522 -0.0591 -0.5244  0.0999
10593SOL    HW132599   5.012   5.680   1.559  0.9498  0.5266  0.7734
10593SOL    HW232600   5.054   5.545   1.477 -1.7166  0.7039 -1.0073
10594SOL     OW32601   1.741   5.699   1.382  0.1276 -0.2760  0.7457
10594SOL    HW132602   1.717   5.787   1.423 -0.0456 -0.4748  1.0755
10594SOL    HW232603   1.839   5.697   1.362  0.1717 -0.0919  0.9443
10595SOL     OW32604   3.951   3.359   2.668 -0.4897  0.3173 -0.0443
10595SOL    HW132605   3.982   3.279   2.617 -0.9140  0.1683 -0.0703
10595SOL    HW232606   3.955   3.340   2.766 -2.1519 -0.3419 -0.0691
10596SOL     OW32607   5.592   2.499   5.365  0.2051 -0.7320 -0.6223
10596SOL    HW132608   5.523   2.561   5.402 -0.7024 -0.6538 -2.3538
10596SOL    HW232609   5.651   2.466   5.439  0.5430  1.9448  0.4004
10597SOL     OW32610   5.559   0.455   2.893  0.0690  0.0165  0.3101
10597SOL    HW132611   5.599   0.426   2.805  0.9495 -1.2754  1.0938
10597SOL    HW232612   5.568   0.380   2.959 -1.1070  0.7603  1.3479
10598SOL     OW32613   0.246   2.361   6.216 -0.1871  0.7993 -0.0911
10598SOL    HW132614   0.267   2.320   6.305  0.3912  1.0451 -0.1044
10598SOL    HW232615   0.172   2.311   6.172 -0.5132  0.6996  0.5531
10599SOL     OW32616   5.734   5.428   1.044  0.0660  0.4401 -0.2526
10599SOL    HW132617   5.735   5.334   1.080  0.0924  0.8867  0.9601
10599SOL    HW232618   5.828   5.460   1.033  0.1668 -0.6683 -3.4656
10600SOL     OW32619   4.526   1.039   6.461  0.1730 -0.1508  0.0947
10600SOL    HW132620   4.537   1.039   6.362  1.6234 -0.0918  0.2378
10600SOL    HW232621   4.579   0.964   6.501 -2.8619 -2.2024  0.6262
10601SOL     OW32622   0.249   7.001   3.325 -0.4571 -0.0828 -0.2565
10601SOL    HW132623   0.245   6.906   3.356  0.6166  0.1148  0.5307
10601SOL    HW232624   0.162   7.046   3.346 -0.9743 -0.8842 -0.6405
10602SOL     OW32625   6.282   6.548   0.176  0.3697 -0.6890  0.3601
10602SOL    HW132626   6.238   6.459   0.162 -0.7357 -0.1617  0.3715
10602SOL    HW232627   6.231   6.600   0.244 -0.5559  0.9901 -1.4961
10603SOL     OW32628   1.005   3.495   1.377 -0.2608  0.2523  0.3553
10603SOL    HW132629   1.079   3.491   1.445  1.0267 -0.1940 -1.0243
10603SOL    HW232630   1.030   3.557   1.303 -1.0252 -0.3325 -0.4143
10604SOL     OW32631   2.599   4.615   2.068  0.1252 -0.7623  0.0004
10604SOL    HW132632   2.605   4.693   2.130  2.0914 -0.3583 -0.6107
10604SOL    HW232633   2.504   4.590   2.055 -0.5252  1.2228  0.5913
10605SOL     OW32634   1.770   2.435   5.640  0.5252  1.0449  0.1364
10605SOL    HW132635   1.753   2.521   5.688 -0.5665  0.4183  0.9288
10605SOL    HW232636   1.769   2.451   5.542 -1.6223  1.6282  0.2156
10606SOL     OW32637   0.367   0.467   3.113  0.0452  0.7335 -0.3646
10606SOL    HW132638   0.424   0.432   3.187 -0.2973 -2.2270 -1.3551
10606SOL    HW232639   0.409   0.445   3.025 -1.7965 -0.1647 -1.0863
10607SOL     OW32640   5.232   5.348   6.292 -0.0061  0.1136  0.4334
10607SOL    HW132641   5.208   5.430   6.344 -0.3024  0.9288 -0.9531
10607SOL    HW232642   5.151   5.291   6.280  0.1412 -0.2584  1.1704
10608SOL     OW32643   2.024   0.249   3.706 -0.6721 -0.6466  0.3876
10608SOL    HW132644   2.053   0.279   3.797  1.6852  0.0215 -0.5135
10608SOL    HW232645   2.055   0.155   3.690 -3.0227 -1.6117  1.0316
10609SOL     OW32646   0.493   0.140   4.017  0.2049  0.7639  0.0766
10609SOL    HW132647   0.515   0.165   4.112  1.4864  0.3469 -0.0920
10609SOL    HW232648   0.420   0.072   4.017  1.8016 -1.0777  0.9492
10610SOL     OW32649   3.583   6.362   0.711 -0.5721 -0.5347 -0.0363
10610SOL    HW132650   3.575   6.383   0.808  0.7290  0.7061 -0.1569
10610SOL    HW232651   3.675   6.328   0.691 -1.2367 -2.0501 -0.6329
10611SOL     OW32652   0.049   0.989   0.175  0.0552 -0.6703  0.0759
10611SOL    HW132653   0.099   1.026   0.253  1.4338 -0.6649 -0.7741
10611SOL    HW232654  -0.034   1.044   0.160  0.0808 -0.3472  1.1985
10612SOL     OW32655   6.594   4.511   4.324 -0.0120 -0.0066 -0.0863
10612SOL    HW132656   6.591   4.545   4.230 -2.2510 -1.4103 -0.5884
10612SOL    HW232657   6.588   4.589   4.387 -0.4794  0.8383 -1.1263
10613SOL     OW32658   6.958   5.771   5.771 -0.1124  0.6597 -0.7333
10613SOL    HW132659   6.975   5.762   5.673 -2.3091 -0.0921 -1.1054
10613SOL    HW232660   6.927   5.684   5.808  1.3508  0.7452  0.8196
10614SOL     OW32661   4.347   2.736   5.929  0.4363  0.2830  0.3072
10614SOL    HW132662   4.424   2.675   5.912  1.4782  2.1350 -2.2980
10614SOL    HW232663   4.293   2.747   5.845 -0.8196  1.4537  1.2202
10615SOL     OW32664   6.859   5.164   3.937  0.3445  0.1348 -0.0582
10615SOL    HW132665   6.949   5.165   3.894 -0.3869  2.6415 -1.6871
10615SOL    HW232666   6.862   5.218   4.021 -0.2428  2.7996 -1.6525
10616SOL     OW32667   5.444   2.089   2.858 -0.6759 -0.2468 -0.4707
10616SOL    HW132668   5.352   2.103   2.893 -1.3381 -2.5362 -1.0772
10616SOL    HW232669   5.510   2.098   2.933 -1.5834 -0.4751  0.3771
10617SOL     OW32670   3.156   1.914   6.220 -0.1978  0.4476 -0.8406
10617SOL    HW132671   3.225   1.972   6.265 -1.2060  0.3849  0.8702
10617SOL    HW232672   3.100   1.870   6.290 -1.6505  0.0913 -2.1944
10618SOL     OW32673   0.813   3.237   4.618 -0.5674 -0.5797 -0.1452
10618SOL    HW132674   0.832   3.258   4.522  0.0970 -1.4705 -0.2258
10618SOL    HW232675   0.809   3.138   4.630 -1.0010 -0.4694  0.6925
10619SOL     OW32676   6.401   1.335   3.512  0.5906 -0.1895  0.2455
10619SOL    HW132677   6.347   1.414   3.542  0.5514 -0.0173 -0.2552
10619SOL    HW232678   6.362   1.299   3.427  1.2456 -0.0711 -0.1140
10620SOL     OW32679   5.521   6.872   3.053  0.1593  0.3543 -0.0152
10620SOL    HW132680   5.470   6.897   2.971  0.2655 -1.1364 -0.5758
10620SOL    HW232681   5.608   6.829   3.026 -0.7164 -2.0688  0.8028
10621SOL     OW32682   1.218   2.040   6.520  0.5119  0.1775 -0.3606
10621SOL    HW132683   1.266   2.024   6.606  0.9441  2.0170 -0.2262
10621SOL    HW232684   1.139   1.978   6.514  1.4329 -1.1336  0.5635
10622SOL     OW32685   6.784   4.594   1.921 -0.7145 -0.5998  0.7589
10622SOL    HW132686   6.813   4.534   1.846  0.4827  1.4098 -0.5019
10622SOL    HW232687   6.862   4.610   1.982 -0.3755  1.2040 -0.0695
10623SOL     OW32688   6.706   1.492   3.133 -0.3381  0.3576  0.2118
10623SOL    HW132689   6.796   1.455   3.109 -0.9156  0.5445 -2.5985
10623SOL    HW232690   6.641   1.416   3.142 -0.5746  0.3777 -1.1063
10624SOL     OW32691   4.614   1.821   5.501 -0.0510  0.3252 -0.6453
10624SOL    HW132692   4.520   1.795   5.524  1.2572 -1.5053  3.6603
10624SOL    HW232693   4.646   1.767   5.423 -1.3626 -2.0083  0.3479
10625SOL     OW32694   1.451   4.009   6.172 -0.1721 -0.0592  0.2747
10625SOL    HW132695   1.363   3.962   6.160  0.1036 -0.6147  0.3622
10625SOL    HW232696   1.440   4.082   6.240 -1.0795  1.3043 -1.2529
10626SOL     OW32697   4.321   0.520   0.650  0.2557 -0.2856  0.6764
10626SOL    HW132698   4.363   0.531   0.740 -1.2154 -0.6307  1.4396
10626SOL    HW232699   4.242   0.458   0.658 -2.1395  2.4717 -0.1217
10627SOL     OW32700   0.065   0.679   2.946 -0.1967  0.6470 -0.2306
10627SOL    HW132701  -0.024   0.703   2.984 -0.2001  0.9225 -0.4094
10627SOL    HW232702   0.134   0.743   2.979  0.0954 -0.0783  0.5873
10628SOL     OW32703   5.311   1.588   2.790  0.0806  0.0512 -0.0763
10628SOL    HW132704   5.368   1.669   2.801 -0.4744  0.4484 -0.1455
10628SOL    HW232705   5.215   1.612   2.803 -0.0695 -0.6346  0.1203
10629SOL     OW32706   1.944   0.849   2.176  0.0677  0.5068 -0.5395
10629SOL    HW132707   1.921   0.838   2.079  3.0400  0.3045 -1.3088
10629SOL    HW232708   1.910   0.937   2.209 -0.4146  0.8828 -1.9764
10630SOL     OW32709   6.848   5.637   0.449 -0.1940  0.3394  0.2313
10630SOL    HW132710   6.877   5.728   0.418  0.1620  0.4056  0.7364
10630SOL    HW232711   6.749   5.628   0.439  0.0051  0.0229 -1.7519
10631SOL     OW32712   3.860   5.558   0.594 -0.3799  0.1442  0.0607
10631SOL    HW132713   3.902   5.480   0.548 -1.9618 -0.3366 -0.6599
10631SOL    HW232714   3.875   5.551   0.692 -0.4573 -1.0526  0.0018
10632SOL     OW32715   4.024   1.234   4.121 -0.0937 -0.1602  0.0572
10632SOL    HW132716   4.111   1.193   4.148  0.4506  1.1700  0.4145
10632SOL    HW232717   3.965   1.242   4.201 -0.5022 -0.9263 -0.1570
10633SOL     OW32718   3.886   0.504   3.560  0.0135  0.2896 -0.0256
10633SOL    HW132719   3.909   0.597   3.532  0.7264  0.5020  1.2083
10633SOL    HW232720   3.855   0.505   3.655  0.2886 -0.7707  0.0790
10634SOL     OW32721   4.859   0.688   2.135  0.1398  0.5919 -0.8518
10634SOL    HW132722   4.788   0.661   2.070  0.1495 -0.3866 -0.4677
10634SOL    HW232723   4.822   0.686   2.228  0.2646  1.5166 -0.7631
10635SOL     OW32724   6.286   1.165   0.187 -0.2323  0.1607  1.0907
10635SOL    HW132725   6.206   1.210   0.225 -0.5075  1.2468 -0.7365
10635SOL    HW232726   6.260   1.075   0.151 -0.4322  0.1270  1.3163
10636SOL     OW32727   0.164   2.183   3.031  0.1839 -0.0568 -0.0875
10636SOL    HW132728   0.172   2.256   3.098 -0.7742 -0.3915  0.4057
10636SOL    HW232729   0.109   2.215   2.953 -0.1574 -0.2146  0.0854
10637SOL     OW32730   5.930   4.425   6.294  0.0485  0.0478  0.3472
10637SOL    HW132731   5.878   4.439   6.209  2.1945  2.1540 -0.7498
10637SOL    HW232732   5.874   4.374   6.359 -2.7929  0.8575 -1.2824
10638SOL     OW32733   5.791   1.422   4.462  0.2179 -0.2434 -0.3711
10638SOL    HW132734   5.732   1.381   4.392 -0.7051  0.3995  0.0135
10638SOL    HW232735   5.827   1.349   4.521  1.0215 -0.7989 -1.4998
10639SOL     OW32736   3.159   7.016   6.043 -0.0751  0.1000 -0.4466
10639SOL    HW132737   3.145   6.982   5.950  1.7980 -0.6758 -0.4902
10639SOL    HW232738   3.175   6.938   6.104 -2.9751  0.4534  0.9208
10640SOL     OW32739   0.005   6.312   2.878  0.1342  0.5377  0.4031
10640SOL    HW132740   0.027   6.217   2.854  1.3950  1.4813 -2.6510
10640SOL    HW232741   0.088   6.360   2.905 -0.0727  1.3193 -0.3079
10641SOL     OW32742   6.859   1.105   1.086  0.0253  0.2561  0.0793
10641SOL    HW132743   6.920   1.126   1.162  0.0082  1.1484 -0.1485
10641SOL    HW232744   6.848   1.185   1.028  0.1410 -0.4555 -0.9554
10642SOL     OW32745   2.325   1.986   5.538 -0.3654 -0.1478 -0.3446
10642SOL    HW132746   2.261   1.969   5.463 -1.0250 -0.1818  0.2176
10642SOL    HW232747   2.277   1.981   5.625  0.3991 -0.1347  0.0905
10643SOL     OW32748   6.637   2.198   5.288 -0.5152  0.1706 -0.3540
10643SOL    HW132749   6.544   2.231   5.275 -0.6329 -0.4235 -1.0725
10643SOL    HW232750   6.650   2.171   5.384 -1.5282 -1.0507 -0.5242
10644SOL     OW32751   1.354   0.525   1.310  0.3059 -0.0169  0.2063
10644SOL    HW132752   1.388   0.431   1.316  0.1880 -0.0038  1.9588
10644SOL    HW232753   1.431   0.588   1.308  0.3944 -0.1126  0.4861
10645SOL     OW32754   6.577   4.027   4.894  0.2862 -0.2699  0.6989
10645SOL    HW132755   6.501   3.962   4.888  1.8823 -2.2585  1.0530
10645SOL    HW232756   6.562   4.102   4.830 -2.6304  0.1684  1.7270
10646SOL     OW32757   4.594   4.788   3.751  0.1197 -0.1487 -0.1941
10646SOL    HW132758   4.537   4.709   3.773 -0.1609  0.2544  0.5820
10646SOL    HW232759   4.689   4.759   3.743 -0.3329 -1.1662 -3.3228
10647SOL     OW32760   2.630   4.298   1.700  0.1853  0.3693 -0.3332
10647SOL    HW132761   2.669   4.386   1.725  1.1998  0.5438 -2.3571
10647SOL    HW232762   2.701   4.238   1.663 -1.0853  0.0722 -2.5108
10648SOL     OW32763   2.675   5.960   1.051 -0.0682 -0.0503 -0.8605
10648SOL    HW132764   2.711   5.887   1.109 -1.0507 -0.1472 -0.3486
10648SOL    HW232765   2.740   5.979   0.977  0.6141 -0.8119 -0.4784
10649SOL     OW32766   0.975   3.650   5.008  0.3811  0.0900  0.5171
10649SOL    HW132767   0.978   3.749   4.993  1.7909 -0.0407 -0.3872
10649SOL    HW232768   0.979   3.603   4.919  1.0097 -0.7742  0.9785
10650SOL     OW32769   4.497   5.349   1.462  0.5687 -0.4935 -0.2662
10650SOL    HW132770   4.579   5.342   1.405  0.2132 -1.1312 -0.7070
10650SOL    HW232771   4.507   5.290   1.542  0.5486 -0.5522 -0.3069
10651SOL     OW32772   0.681   2.132   3.333 -0.1872  0.0885 -0.8913
10651SOL    HW132773   0.595   2.117   3.284 -0.0461 -1.5847 -0.7074
10651SOL    HW232774   0.753   2.154   3.268 -0.3350 -0.5259 -1.2698
10652SOL     OW32775   1.258   6.750   0.548 -0.0093 -0.4882 -0.6931
10652SOL    HW132776   1.348   6.770   0.508  1.7462 -1.5731  2.3551
10652SOL    HW232777   1.268   6.736   0.647 -3.6920  0.0202 -0.0999
10653SOL     OW32778   3.316   2.247   1.768  0.7296 -0.2374 -0.4462
10653SOL    HW132779   3.232   2.214   1.725  0.9253  0.0187 -1.0319
10653SOL    HW232780   3.377   2.282   1.698  1.3275 -0.4226 -0.0207
10654SOL     OW32781   5.394   3.669   1.740  0.4969 -0.3158 -0.0689
10654SOL    HW132782   5.294   3.660   1.740  0.6214 -2.1812 -0.2812
10654SOL    HW232783   5.420   3.760   1.773 -1.3178  1.1137 -2.3187
10655SOL     OW32784   4.175   3.441   1.385 -0.3825  0.3244 -0.3923
10655SOL    HW132785   4.208   3.478   1.472 -1.0507 -0.0181  0.0129
10655SOL    HW232786   4.077   3.422   1.391 -0.3178 -0.2356 -1.0364
10656SOL     OW32787   5.142   5.474   5.651  0.0141  0.3273  0.1993
10656SOL    HW132788   5.070   5.438   5.711  0.0763 -1.0585 -0.5125
10656SOL    HW232789   5.121   5.568   5.627 -0.6948  0.4775  1.3330
10657SOL     OW32790   5.465   3.524   2.579  0.2476  0.3172 -0.0227
10657SOL    HW132791   5.367   3.504   2.565  0.1634  0.0336  0.9224
10657SOL    HW232792   5.512   3.519   2.491 -0.6086  0.5658 -0.5103
10658SOL     OW32793   2.639   0.820   2.168 -0.0976 -0.0179  0.7229
10658SOL    HW132794   2.568   0.804   2.099  0.0920 -1.0600  0.7605
10658SOL    HW232795   2.599   0.815   2.259 -0.3034  1.1409  0.7232
10659SOL     OW32796   3.359   0.830   1.482 -0.6860 -0.0729 -0.3515
10659SOL    HW132797   3.340   0.732   1.470  0.3820 -0.3167 -0.1539
10659SOL    HW232798   3.386   0.869   1.394  0.9775 -0.4521 -0.0511
10660SOL     OW32799   2.727   1.029   6.151  0.3341  0.3810  0.7232
10660SOL    HW132800   2.799   0.960   6.157  0.5581  0.5619  0.1394
10660SOL    HW232801   2.637   0.985   6.158  0.4842  0.0993  0.9219
10661SOL     OW32802   0.902   2.330   4.026  0.3788 -0.1900  0.1131
10661SOL    HW132803   0.830   2.379   3.975 -0.9214 -0.9297  1.1760
10661SOL    HW232804   0.906   2.365   4.120 -0.1342 -1.6535  0.7044
10662SOL     OW32805   0.078   2.738   2.745 -0.2807  0.3020  0.1110
10662SOL    HW132806   0.067   2.689   2.659 -1.3176 -0.0541  0.4262
10662SOL    HW232807   0.108   2.832   2.727 -1.4241  0.5322 -0.7106
10663SOL     OW32808   4.592   2.624   5.631 -0.6921 -0.2145  0.5004
10663SOL    HW132809   4.598   2.701   5.694 -0.6444 -0.6514  1.0585
10663SOL    HW232810   4.592   2.656   5.537  0.8701  0.3649  0.6674
10664SOL     OW32811   6.127   1.043   6.352  0.0382 -0.4721  0.0667
10664SOL    HW132812   6.205   0.981   6.352 -0.8272 -1.6288 -1.1705
10664SOL    HW232813   6.130   1.100   6.270 -1.2356 -1.6847 -0.8825
10665SOL     OW32814   0.305   6.367   3.640 -1.3425 -0.0010 -0.0642
10665SOL    HW132815   0.250   6.348   3.558 -0.4059 -1.8499 -0.3136
10665SOL    HW232816   0.251   6.421   3.705 -2.5732  0.3427 -1.3279
10666SOL     OW32817   1.254   2.199   5.005 -0.3146  0.4339  0.0178
10666SOL    HW132818   1.333   2.258   4.984 -0.6640  2.0440  2.7135
10666SOL    HW232819   1.198   2.188   4.923  1.8817  0.4944 -1.5927
10667SOL     OW32820   2.673   0.074   5.087  0.5599 -0.1087 -0.3220
10667SOL    HW132821   2.697   0.015   5.010 -0.1794 -0.3732 -0.3288
10667SOL    HW232822   2.744   0.065   5.158  1.1765  0.0616 -0.8988
10668SOL     OW32823   6.361   0.869   4.797 -0.0544  0.1727  0.1319
10668SOL    HW132824   6.451   0.828   4.783 -0.2199 -0.5995  1.1889
10668SOL    HW232825   6.319   0.889   4.709  0.2266 -1.4974 -0.4061
10669SOL     OW32826   5.272   2.187   2.137 -0.3241 -0.6472 -0.0832
10669SOL    HW132827   5.333   2.248   2.087  1.0005  0.3024  2.4980
10669SOL    HW232828   5.325   2.126   2.195 -1.7633 -0.0592  1.9765
10670SOL     OW32829   0.752   1.465   0.481 -0.0660 -0.6915  0.3082
10670SOL    HW132830   0.773   1.503   0.571  1.5987  0.2643 -0.4534
10670SOL    HW232831   0.760   1.365   0.485 -0.2670 -0.6826  1.2608
10671SOL     OW32832   3.691   1.146   6.954 -0.2587 -0.3306  0.0052
10671SOL    HW132833   3.607   1.198   6.940 -0.6046 -0.8363  0.1694
10671SOL    HW232834   3.732   1.172   7.041 -1.2751 -1.4495  0.8306
10672SOL     OW32835   3.464   2.018   2.335 -0.7265  0.5792  0.2768
10672SOL    HW132836   3.518   2.017   2.419 -0.8596 -1.3973  0.3817
10672SOL    HW232837   3.397   1.943   2.337  1.0847 -1.2967 -2.6823
10673SOL     OW32838   0.931   1.651   3.740  0.2997 -0.5496  0.1807
10673SOL    HW132839   0.855   1.685   3.796 -0.2468 -1.0983 -0.2124
10673SOL    HW232840   0.910   1.560   3.707  0.1332  0.1617 -1.7873
10674SOL     OW32841   6.854   6.474   2.764 -0.2735  0.1062  0.8225
10674SOL    HW132842   6.901   6.553   2.724 -1.5936  1.3023  1.5310
10674SOL    HW232843   6.921   6.417   2.812  1.0842 -0.4630 -1.5269
10675SOL     OW32844   3.296   1.485   0.795  0.9134  0.1304 -0.1304
10675SOL    HW132845   3.232   1.543   0.845  2.0409  1.2335  0.0580
10675SOL    HW232846   3.373   1.539   0.761  0.5297 -0.6770 -2.5489
10676SOL     OW32847   5.113   1.802   5.117  0.5159  0.7535  0.0688
10676SOL    HW132848   5.071   1.725   5.166  0.8153  0.5207 -0.0365
10676SOL    HW232849   5.179   1.847   5.176  1.3307  0.0888 -0.3262
10677SOL     OW32850   2.825   2.250   2.069  0.3558 -0.0746 -0.2334
10677SOL    HW132851   2.924   2.240   2.063  0.5804  0.4814  1.6773
10677SOL    HW232852   2.802   2.347   2.064 -0.0086 -0.1434  0.0600
10678SOL     OW32853   5.054   1.643   6.920  1.0431  0.4293  0.0210
10678SOL    HW132854   5.046   1.547   6.945  1.2334 -0.2375 -2.2683
10678SOL    HW232855   4.963   1.685   6.919  0.6334 -0.4274 -1.4012
10679SOL     OW32856   5.497   6.563   3.339  0.0418  0.0391  0.3099
10679SOL    HW132857   5.493   6.644   3.398 -2.4624 -0.2166  0.6361
10679SOL    HW232858   5.447   6.488   3.383  2.1139 -1.6623 -0.0865
10680SOL     OW32859   6.915   4.099   0.845 -0.5576 -0.5229 -0.2721
10680SOL    HW132860   6.910   4.179   0.785 -0.0250 -0.1396  0.1763
10680SOL    HW232861   6.880   4.019   0.797 -0.0533 -0.2470 -1.1320
10681SOL     OW32862   0.984   3.707   4.571 -0.2593  0.1947 -0.1279
10681SOL    HW132863   1.055   3.722   4.502 -0.2561  0.5185 -0.0560
10681SOL    HW232864   1.003   3.623   4.622 -0.6018 -0.4027 -0.9555
10682SOL     OW32865   4.381   1.713   3.725 -0.4323 -0.2596 -0.5962
10682SOL    HW132866   4.477   1.725   3.700 -0.3016 -1.5247 -0.7353
10682SOL    HW232867   4.334   1.663   3.652 -0.7207 -1.4288  0.3660
10683SOL     OW32868   3.534   4.492   2.716 -0.5188 -0.4690  0.3638
10683SOL    HW132869   3.446   4.508   2.761 -1.1919 -2.0589 -0.3040
10683SOL    HW232870   3.525   4.416   2.652  1.4504 -0.9081  0.5528
10684SOL     OW32871   1.690   1.142   3.137  0.0886  0.1179 -0.0531
10684SOL    HW132872   1.695   1.194   3.222 -0.2066 -0.2193  0.1734
10684SOL    HW232873   1.719   1.047   3.154 -1.5828 -0.3906  0.0483
10685SOL     OW32874   4.948   4.222   0.228  0.1790  0.4375  0.5381
10685SOL    HW132875   4.963   4.166   0.310 -1.3460 -1.1399 -0.2003
10685SOL    HW232876   4.852   4.247   0.222 -0.2205 -1.3866 -1.9133
10686SOL     OW32877   5.801   4.956   6.472 -0.2037 -0.2254  0.7343
10686SOL    HW132878   5.755   4.955   6.383  0.4913 -0.0030  0.3628
10686SOL    HW232879   5.736   4.986   6.543 -0.4958  0.5917  0.1417
10687SOL     OW32880   4.952   4.757   5.099 -0.2177 -0.8666  0.2687
10687SOL    HW132881   4.894   4.716   5.028 -1.2168  0.8403  0.0182
10687SOL    HW232882   5.001   4.836   5.060  0.9280 -1.2141  0.9464
10688SOL     OW32883   0.917   6.619   0.311 -0.1178 -0.1186 -0.0150
10688SOL    HW132884   0.976   6.547   0.349  0.5462  0.8797  0.8984
10688SOL    HW232885   0.903   6.602   0.214  1.6275 -0.4450 -0.2605
10689SOL     OW32886   6.715   6.006   1.972 -0.1157  0.8040 -0.3407
10689SOL    HW132887   6.785   6.077   1.963  0.8909 -0.3137 -1.5561
10689SOL    HW232888   6.739   5.944   2.047  0.3603  0.2512 -0.9449
10690SOL     OW32889   6.991   6.593   6.964 -0.1655  0.6420  0.2166
10690SOL    HW132890   6.922   6.521   6.962  0.0372  0.4514  0.0557
10690SOL    HW232891   6.986   6.646   6.880  0.4928  0.0589 -0.1907
10691SOL     OW32892   6.411   3.191   1.058  0.3573  0.2869  0.7193
10691SOL    HW132893   6.481   3.228   0.997 -1.4373  1.0880 -0.9863
10691SOL    HW232894   6.367   3.266   1.107 -2.0493  0.4048 -1.3694
10692SOL     OW32895   6.321   5.675   2.990 -0.4035 -0.0557 -0.1496
10692SOL    HW132896   6.280   5.724   3.068  0.9139 -0.1353  0.6192
10692SOL    HW232897   6.379   5.601   3.024  1.1651  0.6621 -1.1401
10693SOL     OW32898   5.234   4.699   4.891  0.2322  0.2708 -0.3024
10693SOL    HW132899   5.275   4.609   4.907 -0.1116  0.1264 -0.2151
10693SOL    HW232900   5.162   4.691   4.822  0.8655  0.6632 -1.0172
10694SOL     OW32901   6.816   4.800   7.020 -0.0775 -0.1750 -0.3264
10694SOL    HW132902   6.878   4.727   6.990  1.0515  0.7358 -0.3003
10694SOL    HW232903   6.824   4.878   6.956 -3.1720 -0.9438 -1.8352
10695SOL     OW32904   0.463   1.867   6.398 -0.1251 -0.1881  0.2449
10695SOL    HW132905   0.401   1.905   6.467 -1.7220 -0.9393 -0.7328
10695SOL    HW232906   0.512   1.942   6.353 -2.0632  0.6603 -0.5558
10696SOL     OW32907   4.913   3.030   6.853 -0.8420  0.4705 -0.0759
10696SOL    HW132908   4.907   3.075   6.942 -1.5380 -1.8326  1.1476
10696SOL    HW232909   5.000   3.052   6.810  0.0469  0.7515  1.7301
10697SOL     OW32910   5.906   0.767   6.312  1.1925  0.7626  0.1146
10697SOL    HW132911   5.920   0.785   6.215  0.3864  1.0327  0.0396
10697SOL    HW232912   5.809   0.777   6.334  1.3181  0.3897  0.8821
10698SOL     OW32913   4.174   4.881   6.783 -0.2940  0.0139  0.2398
10698SOL    HW132914   4.171   4.847   6.877 -2.1809  3.3320  1.5369
10698SOL    HW232915   4.105   4.833   6.728 -1.1506 -0.0662  1.3399
10699SOL     OW32916   4.559   5.840   2.306  0.2780  0.1761 -0.2007
10699SOL    HW132917   4.583   5.751   2.345  0.5437 -1.0287 -2.9435
10699SOL    HW232918   4.484   5.880   2.359  0.5341 -1.3648  1.4350
10700SOL     OW32919   0.832   5.415   4.286  0.3191 -0.2111 -0.0462
10700SOL    HW132920   0.833   5.490   4.219 -1.3897  1.3824  1.5699
10700SOL    HW232921   0.894   5.437   4.361 -1.7937  0.7699  1.5226
10701SOL     OW32922   1.094   5.743   5.420 -0.3461  0.6744 -0.2486
10701SOL    HW132923   1.061   5.657   5.382  1.8770  0.0820 -1.0354
10701SOL    HW232924   1.107   5.733   5.519 -0.7921  0.3515 -0.2238
10702SOL     OW32925   4.437   5.500   1.062 -0.2172 -0.4243 -0.3508
10702SOL    HW132926   4.447   5.597   1.085  1.2346 -0.6994  0.2894
10702SOL    HW232927   4.414   5.491   0.965 -0.6970  0.5669 -0.3452
10703SOL     OW32928   4.249   1.438   0.971 -0.1847 -1.1150  0.0684
10703SOL    HW132929   4.274   1.491   0.890 -0.1658  0.7704  1.2463
10703SOL    HW232930   4.324   1.376   0.994  0.8906  0.1788  0.1137
10704SOL     OW32931   4.937   0.786   2.660 -0.0979  0.0899  0.7426
10704SOL    HW132932   5.001   0.767   2.586  0.4798  0.3819  1.1560
10704SOL    HW232933   4.984   0.776   2.748 -1.1724 -1.7661  1.1424
10705SOL     OW32934   6.945   3.215   5.033  0.5499  0.5176 -0.7630
10705SOL    HW132935   6.943   3.294   4.971  0.1856  0.5293 -0.7449
10705SOL    HW232936   7.036   3.206   5.072  0.3075  1.6061  0.1026
10706SOL     OW32937   5.564   4.049   4.502 -0.0531  0.1586 -0.2104
10706SOL    HW132938   5.599   4.011   4.416 -0.3580  2.6951 -1.5406
10706SOL    HW232939   5.618   4.129   4.528  0.5967 -1.0604  2.4996
10707SOL     OW32940   0.907   1.480   6.162 -0.0010  0.8976  0.4530
10707SOL    HW132941   0.855   1.453   6.081 -0.0573 -0.0625  0.7923
10707SOL    HW232942   0.880   1.422   6.239  1.8842  0.0262  0.5238
10708SOL     OW32943   0.075   7.001   1.536 -0.3850  0.2100  0.2420
10708SOL    HW132944   0.019   6.917   1.540  0.3112 -0.2906 -0.2271
10708SOL    HW232945   0.015   7.080   1.525 -1.1802 -0.0881  2.1410
10709SOL     OW32946   0.028   3.339   2.658 -0.4028 -0.4688  0.0827
10709SOL    HW132947  -0.047   3.296   2.709 -0.1523 -0.3260  0.5354
10709SOL    HW232948  -0.008   3.416   2.606 -0.5267 -0.2461  0.4958
10710SOL     OW32949   2.366   5.503   2.066  0.1504 -0.1117 -0.4077
10710SOL    HW132950   2.283   5.448   2.073 -0.2747  0.4537 -0.9869
10710SOL    HW232951   2.360   5.580   2.130  0.5891 -0.5297  0.1448
10711SOL     OW32952   2.141   3.069   0.969 -0.3823 -0.5005  0.1302
10711SOL    HW132953   2.238   3.091   0.976 -0.5376  0.0728  0.6221
10711SOL    HW232954   2.126   2.974   0.995  0.1281 -0.7814 -0.6031
10712SOL     OW32955   4.282   5.035   1.270  0.3934  0.1435  0.4305
10712SOL    HW132956   4.293   5.134   1.259 -2.1299  0.6492  1.6261
10712SOL    HW232957   4.235   5.017   1.357 -0.4654 -1.9992 -0.4249
10713SOL     OW32958   5.119   4.309   2.612 -0.0465  0.1288 -0.2156
10713SOL    HW132959   5.215   4.289   2.632  0.6489  1.6165 -1.8178
10713SOL    HW232960   5.068   4.223   2.602  0.9667 -0.6704  1.2134
10714SOL     OW32961   6.269   6.032   6.994  0.3207 -0.3000  0.5031
10714SOL    HW132962   6.242   5.952   6.941 -0.6321 -0.9418  1.9216
10714SOL    HW232963   6.311   6.004   7.080  0.9562  0.7233  0.5228
10715SOL     OW32964   4.379   3.882   3.096 -0.5281  0.0664 -0.2179
10715SOL    HW132965   4.369   3.967   3.045  1.3962 -0.0247 -0.8390
10715SOL    HW232966   4.475   3.853   3.095 -1.2062 -2.4754 -0.6051
10716SOL     OW32967   6.327   0.975   6.812 -0.0619 -0.0750 -0.0316
10716SOL    HW132968   6.319   0.998   6.715 -1.8916 -0.3122  0.0247
10716SOL    HW232969   6.338   1.059   6.866  0.2583  0.1093 -0.3831
10717SOL     OW32970   5.969   6.310   0.349  0.4071  0.2550 -0.2339
10717SOL    HW132971   6.065   6.285   0.338  0.3079 -0.5844  0.6387
10717SOL    HW232972   5.916   6.272   0.274  0.4071 -1.4380  0.5602
10718SOL     OW32973   1.031   1.292   2.416  0.1564  0.2966  0.5750
10718SOL    HW132974   1.087   1.375   2.427  2.0202 -0.5352 -1.7358
10718SOL    HW232975   1.091   1.215   2.394 -1.8727 -0.6894 -1.9475
10719SOL     OW32976   6.435   0.255   3.939  0.2693 -0.5614  0.0305
10719SOL    HW132977   6.528   0.221   3.957  0.3815 -0.1524  0.2352
10719SOL    HW232978   6.369   0.199   3.989  0.5513  0.3692  1.5164
10720SOL     OW32979   2.934   0.866   1.492  0.3915  0.1912 -0.1457
10720SOL    HW132980   3.009   0.916   1.536 -1.1170  1.7190  0.8392
10720SOL    HW232981   2.887   0.927   1.428  1.1911 -1.3689 -2.3392
10721SOL     OW32982   1.965   2.371   0.900 -0.3102  0.4447  0.1999
10721SOL    HW132983   1.997   2.444   0.839  0.4550  1.4403  1.7389
10721SOL    HW232984   1.869   2.350   0.879 -1.3818  3.6636  1.2866
10722SOL     OW32985   6.926   2.148   2.860  0.3982 -0.2386 -0.0800
10722SOL    HW132986   6.888   2.057   2.876  1.2030 -0.9185 -1.8496
10722SOL    HW232987   6.897   2.209   2.934 -3.5912 -0.8199 -0.9588
10723SOL     OW32988   0.872   6.196   0.784  0.0941  0.1986  0.3072
10723SOL    HW132989   0.918   6.262   0.843  3.2426  0.5025 -2.2269
10723SOL    HW232990   0.789   6.237   0.747  0.8448  1.9433  0.4710
10724SOL     OW32991   1.022   0.210   1.076 -0.1038 -0.1603  0.5208
10724SOL    HW132992   1.062   0.130   1.123 -0.3376  0.0026  1.0037
10724SOL    HW232993   1.057   0.294   1.118  1.2780  0.0260 -0.9327
10725SOL     OW32994   2.884   2.549   1.191 -0.3870  0.0175 -0.5447
10725SOL    HW132995   2.805   2.597   1.152 -1.0877 -0.0879  0.6765
10725SOL    HW232996   2.965   2.569   1.137 -1.0947  0.7988 -1.3561
10726SOL     OW32997   6.812   6.423   3.144  0.3947 -0.1295  0.5086
10726SOL    HW132998   6.763   6.506   3.119 -0.2226 -0.5216  0.4031
10726SOL    HW232999   6.838   6.373   3.061  0.0499 -0.4550  0.5951
10727SOL     OW33000   6.636   5.824   6.634  0.9847  0.1227 -0.2565
10727SOL    HW133001   6.692   5.754   6.590  0.7816 -0.0315 -0.2733
10727SOL    HW233002   6.694   5.901   6.660  1.2273 -0.0870 -0.1672
10728SOL     OW33003   1.608   6.341   0.769  0.0827 -0.1759  0.6530
10728SOL    HW133004   1.552   6.315   0.847 -1.3095  1.9407  0.4321
10728SOL    HW233005   1.624   6.440   0.771  0.8551 -0.2220 -1.2072
10729SOL     OW33006   4.395   1.981   3.549 -0.2736 -0.2282 -0.6731
10729SOL    HW133007   4.335   2.030   3.486  0.5655  1.1032 -0.4712
10729SOL    HW233008   4.339   1.926   3.611 -1.1687 -0.6469 -1.8051
10730SOL     OW33009   3.053   1.554   0.625  0.2832 -0.1352 -0.3426
10730SOL    HW133010   3.088   1.627   0.684 -1.1775  0.1109  0.2686
10730SOL    HW233011   3.065   1.466   0.671 -2.9199  0.2115  1.5600
10731SOL     OW33012   6.935   5.681   4.191  0.0631 -0.0338  0.3429
10731SOL    HW133013   6.853   5.721   4.231  0.8226  0.8290  1.0881
10731SOL    HW233014   6.910   5.623   4.114 -1.1797  0.8359  0.0646
10732SOL     OW33015   5.268   3.704   2.952 -0.1011 -0.6035 -1.3911
10732SOL    HW133016   5.223   3.705   3.041 -0.2503  0.2703 -1.4713
10732SOL    HW233017   5.199   3.695   2.880 -0.2371  1.1991 -1.5411
10733SOL     OW33018   4.823   6.283   0.943 -0.5254  0.1233  0.5732
10733SOL    HW133019   4.764   6.221   0.892  1.4049 -1.2272 -0.1640
10733SOL    HW233020   4.904   6.234   0.974 -0.8017  1.3469  3.5392
10734SOL     OW33021   2.184   5.593   1.525  0.5101  0.2343 -0.1309
10734SOL    HW133022   2.109   5.618   1.464  1.5319  0.6469 -1.2777
10734SOL    HW233023   2.165   5.628   1.617 -2.1884 -2.4665  0.4721
10735SOL     OW33024   2.916   3.834   1.741 -0.3560 -0.1343 -0.3571
10735SOL    HW133025   2.882   3.803   1.830 -1.4119 -3.0814 -1.6615
10735SOL    HW233026   3.008   3.872   1.752 -1.1929  1.4201  2.2279
10736SOL     OW33027   6.835   1.474   6.781  0.0643 -0.2848  0.2940
10736SOL    HW133028   6.914   1.492   6.840 -1.3230  2.1537  1.5970
10736SOL    HW233029   6.860   1.407   6.711  3.9001  1.8259 -0.6436
10737SOL     OW33030   0.356   6.845   3.886 -0.5151  0.0235 -1.3898
10737SOL    HW133031   0.371   6.761   3.937  0.6446 -1.4547 -3.9770
10737SOL    HW233032   0.302   6.909   3.941  0.2126 -1.6136  1.3863
10738SOL     OW33033   4.972   6.859   2.581 -0.2128  0.3843 -0.4556
10738SOL    HW133034   5.014   6.785   2.635  0.2148  1.2347  0.4050
10738SOL    HW233035   5.043   6.915   2.541 -0.5020 -0.8160 -2.8161
10739SOL     OW33036   2.657   4.047   0.165  1.0063  0.4942  0.0573
10739SOL    HW133037   2.749   4.058   0.129 -0.1898  3.5785 -2.5422
10739SOL    HW233038   2.593   4.102   0.111 -2.8440 -3.4532  0.0215
10740SOL     OW33039   0.548   0.304   5.980 -0.7057  0.1689 -0.7505
10740SOL    HW133040   0.556   0.223   6.037 -2.1355  0.5878  0.0998
10740SOL    HW233041   0.551   0.386   6.037  1.0309  0.7656 -1.6168
10741SOL     OW33042   0.912   6.670   0.764  0.1451 -0.8404  0.9887
10741SOL    HW133043   0.941   6.726   0.686 -0.7077  0.7331  1.7396
10741SOL    HW233044   0.823   6.629   0.744 -0.8714  0.8887  1.6746
10742SOL     OW33045   4.371   1.444   4.831 -0.2972 -0.3731 -0.0439
10742SOL    HW133046   4.324   1.525   4.867 -0.3335 -0.9764  1.3318
10742SOL    HW233047   4.311   1.397   4.767 -1.1599 -0.5361  0.8570
10743SOL     OW33048   0.583   3.750   6.147 -0.3211  0.1232  0.4873
10743SOL    HW133049   0.502   3.764   6.204 -0.8565  2.2589 -0.6991
10743SOL    HW233050   0.556   3.740   6.051  0.7276 -1.0632  0.2777
10744SOL     OW33051   1.674   4.531   0.684  0.4862  0.0536 -0.0996
10744SOL    HW133052   1.697   4.434   0.688 -1.4558 -0.3984  2.7547
10744SOL    HW233053   1.739   4.584   0.738 -0.9781 -0.3228  2.1404
10745SOL     OW33054   3.794   6.875   4.092  0.5517 -0.1381 -0.2274
10745SOL    HW133055   3.755   6.967   4.092  3.4617  1.2511 -2.5361
10745SOL    HW233056   3.746   6.818   4.026 -0.6391 -0.0536  0.5185
10746SOL     OW33057   0.745   2.640   2.769 -0.0647 -0.1457 -0.0563
10746SOL    HW133058   0.813   2.710   2.749  0.1780 -0.3660 -0.0154
10746SOL    HW233059   0.734   2.580   2.690 -0.6896  0.2791 -0.2941
10747SOL     OW33060   0.647   2.970   4.012  1.0882  0.1109 -0.1981
10747SOL    HW133061   0.612   3.035   4.080  0.3475 -0.3364 -0.1310
10747SOL    HW233062   0.647   3.014   3.922 -3.2604 -0.9039 -0.9332
10748SOL     OW33063   2.024   5.545   1.294 -0.3822  0.2926 -0.2277
10748SOL    HW133064   2.090   5.480   1.257  1.0596  0.5774  1.6262
10748SOL    HW233065   1.931   5.514   1.276  0.2626 -1.2357 -1.0861
10749SOL     OW33066   1.979   6.768   2.879 -0.0932  0.5207 -0.2808
10749SOL    HW133067   1.964   6.864   2.854  1.6660  1.5611  2.1287
10749SOL    HW233068   1.911   6.741   2.947  0.2710  0.5492  0.0989
10750SOL     OW33069   2.711   2.638   0.702 -0.0049 -0.4111  0.4176
10750SOL    HW133070   2.647   2.582   0.650  1.4511 -0.6614 -1.1488
10750SOL    HW233071   2.679   2.733   0.703  0.5112 -0.1803 -1.9180
10751SOL     OW33072   2.720   4.404   6.218 -0.0033 -0.0428  0.0526
10751SOL    HW133073   2.794   4.458   6.178 -0.7745  0.6082 -0.5641
10751SOL    HW233074   2.632   4.442   6.188 -0.5913 -1.9681 -0.8354
10752SOL     OW33075   0.300   5.157   6.220 -0.1533 -0.3424  0.0375
10752SOL    HW133076   0.238   5.182   6.145 -0.8124 -1.5516  0.1519
10752SOL    HW233077   0.261   5.187   6.307  0.2667  0.4217 -0.0266
10753SOL     OW33078   0.458   3.258   0.498 -0.4379 -0.0766  0.1040
10753SOL    HW133079   0.499   3.167   0.492  0.8345  0.5763 -2.5354
10753SOL    HW233080   0.514   3.315   0.558  0.7362 -0.1362 -0.8769
10754SOL     OW33081   0.016   4.469   4.945  0.1348  0.3447  0.0169
10754SOL    HW133082   0.084   4.397   4.958  0.0082  0.5465  2.0111
10754SOL    HW233083  -0.039   4.449   4.864  1.1966 -0.9281 -0.3961
10755SOL     OW33084   5.983   1.372   1.425  0.0445  0.2458  0.0398
10755SOL    HW133085   6.027   1.322   1.349  0.4552 -2.5819  1.9851
10755SOL    HW233086   5.901   1.418   1.392  1.9728  1.9725 -2.7832
10756SOL     OW33087   3.891   1.600   0.797 -0.1978 -0.1975  0.2605
10756SOL    HW133088   3.939   1.516   0.823  0.3867 -0.5764 -1.8914
10756SOL    HW233089   3.817   1.578   0.733 -0.7725  0.8318  0.5419
10757SOL     OW33090   4.312   2.011   6.030  0.0009 -0.1578  0.4848
10757SOL    HW133091   4.329   2.079   5.958 -0.0729  0.3702  0.9619
10757SOL    HW233092   4.218   2.019   6.061 -0.3977 -1.3565 -0.3563
10758SOL     OW33093   3.680   4.806   2.614  0.2657  0.2640 -0.0928
10758SOL    HW133094   3.757   4.759   2.656  1.5943 -0.6045 -3.2115
10758SOL    HW233095   3.700   4.904   2.607 -0.0172  0.4417  1.2364
10759SOL     OW33096   2.031   0.114   3.076 -0.1093  0.2815  0.5881
10759SOL    HW133097   2.094   0.174   3.124 -0.0470  0.9526 -0.3018
10759SOL    HW233098   2.050   0.019   3.099  0.2317  0.5679  1.5073
10760SOL     OW33099   3.367   5.616   2.989  0.3618 -0.1842  0.2310
10760SOL    HW133100   3.347   5.594   2.894 -0.0751 -1.3522  0.5813
10760SOL    HW233101   3.455   5.663   2.994 -0.8245  2.3891 -1.0221
10761SOL     OW33102   2.597   6.292   5.347  0.3304  0.1391 -0.4688
10761SOL    HW133103   2.541   6.294   5.264  0.6936  0.5283 -0.7102
10761SOL    HW233104   2.647   6.206   5.351  1.9122  0.9356 -1.7476
10762SOL     OW33105   5.391   1.988   1.217 -0.0366  0.4269 -0.7073
10762SOL    HW133106   5.478   1.958   1.256  0.7023  0.2915 -2.3740
10762SOL    HW233107   5.325   2.004   1.291  1.5378  1.0270  0.6327
10763SOL     OW33108   4.060   1.467   5.792 -0.2581  0.0413  0.2596
10763SOL    HW133109   4.110   1.381   5.799 -1.1741 -0.6857 -1.4448
10763SOL    HW233110   4.043   1.487   5.695  0.8765  2.7277  0.5370
10764SOL     OW33111   4.276   5.062   5.069  0.0619 -0.1207  0.6892
10764SOL    HW133112   4.273   5.019   4.979 -0.3955 -0.1891  0.7355
10764SOL    HW233113   4.371   5.078   5.095  0.3219 -2.0442  1.1126
10765SOL     OW33114   1.522   0.552   0.655  0.7833 -0.0061  0.0380
10765SOL    HW133115   1.464   0.487   0.704  0.7326 -1.3968 -1.7921
10765SOL    HW233116   1.618   0.536   0.679  0.7655 -0.7355 -0.3592
10766SOL     OW33117   5.972   5.379   1.367 -0.3159 -0.7316  0.5568
10766SOL    HW133118   5.932   5.316   1.433  1.3189 -0.0920  2.2523
10766SOL    HW233119   6.063   5.345   1.340  0.2805  0.4861  0.9513
10767SOL     OW33120   0.714   0.072   3.791 -0.1604  0.2554  0.2583
10767SOL    HW133121   0.657   0.065   3.873 -1.4331 -0.2888 -0.6345
10767SOL    HW233122   0.658   0.102   3.714  0.6984 -0.5524 -0.7141
10768SOL     OW33123   2.393   0.484   5.984 -0.2935  0.2646 -0.3568
10768SOL    HW133124   2.401   0.455   6.079  1.7336  1.8731  0.0490
10768SOL    HW233125   2.333   0.421   5.935 -1.3956 -0.6159  1.9506
10769SOL     OW33126   6.157   0.521   3.801 -0.9770  0.2780  0.6769
10769SOL    HW133127   6.197   0.599   3.849  0.5553 -0.3582  0.5099
10769SOL    HW233128   6.170   0.532   3.702 -1.7613  0.3278  0.5689
10770SOL     OW33129   6.226   2.204   5.852  0.6047  0.1367  0.5629
10770SOL    HW133130   6.271   2.259   5.923  0.9169  3.1622 -1.7513
10770SOL    HW233131   6.129   2.227   5.848  0.3172 -0.9626  0.7880
10771SOL     OW33132   5.818   1.554   3.228 -0.2112  0.0923  0.0639
10771SOL    HW133133   5.871   1.551   3.313 -0.5266 -0.6376  0.2520
10771SOL    HW233134   5.720   1.555   3.251 -0.3029 -0.5297 -0.2944
10772SOL     OW33135   3.129   0.320   5.102 -0.1504 -0.7763 -0.0679
10772SOL    HW133136   3.160   0.329   5.197 -1.7489 -1.4690  0.5649
10772SOL    HW233137   3.033   0.346   5.096  0.6923  2.2474 -2.1488
10773SOL     OW33138   2.208   4.665   0.791  0.3102  0.4574  0.0107
10773SOL    HW133139   2.302   4.688   0.817  0.2415  0.5071  0.2154
10773SOL    HW233140   2.189   4.570   0.813  0.2940  0.4639  0.0248
10774SOL     OW33141   0.132   3.512   6.875 -0.1977  0.6682 -0.1859
10774SOL    HW133142   0.035   3.516   6.851  0.1539 -0.5873 -2.0035
10774SOL    HW233143   0.180   3.591   6.836 -0.2858  0.6999 -0.2300
10775SOL     OW33144   1.459   0.130   4.727 -0.1845 -0.3966  0.6922
10775SOL    HW133145   1.363   0.147   4.707  0.3163 -1.6060 -3.7579
10775SOL    HW233146   1.515   0.198   4.681  1.1569 -0.6398  1.8993
10776SOL     OW33147   6.961   0.517   4.097  0.5017  0.1145 -0.6204
10776SOL    HW133148   6.890   0.503   4.166 -2.3915 -0.0440 -3.4278
10776SOL    HW233149   7.014   0.599   4.120 -1.8411  1.3430  0.6559
10777SOL     OW33150   5.064   3.408   6.123 -0.1052  0.0982 -0.4052
10777SOL    HW133151   5.078   3.471   6.200 -1.0182  0.8243 -0.8114
10777SOL    HW233152   4.968   3.410   6.096  0.2604  0.0661 -1.7593
10778SOL     OW33153   2.528   5.134   4.219  0.0949 -0.7285  0.2905
10778SOL    HW133154   2.509   5.060   4.155  0.2449  0.3053 -0.9811
10778SOL    HW233155   2.623   5.128   4.251  0.0586 -1.1612  0.3273
10779SOL     OW33156   3.429   6.566   2.697  0.0561  0.3719  0.0310
10779SOL    HW133157   3.483   6.511   2.634 -0.9165  0.7604 -1.1869
10779SOL    HW233158   3.468   6.658   2.703  0.0292  0.3960 -0.1563
10780SOL     OW33159   1.149   0.939   1.616  0.1253  0.2494 -0.3642
10780SOL    HW133160   1.055   0.944   1.584  0.9374 -0.0660 -3.0890
10780SOL    HW233161   1.192   0.856   1.580  1.6854  0.8368  0.0657
10781SOL     OW33162   3.739   4.202   0.995 -0.0006 -0.6446 -0.3370
10781SOL    HW133163   3.760   4.266   1.068 -0.9618 -0.9463  0.2140
10781SOL    HW233164   3.647   4.164   1.008  0.0680 -1.2042 -1.3318
10782SOL     OW33165   2.097   0.471   3.577  0.0743 -0.0161  0.2241
10782SOL    HW133166   2.073   0.387   3.625 -2.7535 -0.8385 -2.3649
10782SOL    HW233167   2.155   0.449   3.498 -0.0456  0.5539 -0.0336
10783SOL     OW33168   6.056   5.014   6.820 -0.2268 -0.3742 -0.0203
10783SOL    HW133169   6.034   4.921   6.790  0.6000 -0.4595 -0.3975
10783SOL    HW233170   5.992   5.042   6.892  0.6090 -1.9061  1.3667
10784SOL     OW33171   6.871   3.729   6.788 -0.0139  0.1708 -0.1445
10784SOL    HW133172   6.906   3.818   6.760 -0.9675  0.7108  0.3029
10784SOL    HW233173   6.824   3.738   6.876  2.8178 -1.4409  1.6975
10785SOL     OW33174   4.397   3.221   5.964  0.5250 -0.1089 -0.7020
10785SOL    HW133175   4.476   3.282   5.964  0.4660  0.0273  1.0675
10785SOL    HW233176   4.374   3.196   6.058 -0.8626 -1.0397 -1.2495
10786SOL     OW33177   4.168   4.438   1.696  0.1400 -0.3838  0.2755
10786SOL    HW133178   4.246   4.413   1.754 -0.0936  1.4475  1.4428
10786SOL    HW233179   4.089   4.382   1.720 -0.0022  0.4331  1.8875
10787SOL     OW33180   0.378   2.553   3.184 -0.1837  0.3352  0.5565
10787SOL    HW133181   0.285   2.586   3.168 -0.0685  0.6844  0.5979
10787SOL    HW233182   0.393   2.540   3.282  0.0745  1.0695  0.6202
10788SOL     OW33183   3.827   5.334   3.385 -0.9320  0.4698 -0.5472
10788SOL    HW133184   3.793   5.331   3.291 -1.5547 -4.2384 -0.3813
10788SOL    HW233185   3.759   5.379   3.444 -3.8125 -2.2959 -1.4386
10789SOL     OW33186   4.854   1.866   6.581 -0.0030 -0.3066 -0.1886
10789SOL    HW133187   4.760   1.866   6.615 -0.4214 -1.1280 -1.3245
10789SOL    HW233188   4.854   1.881   6.482  1.1136  0.5237 -0.0757
10790SOL     OW33189   6.193   4.662   1.780 -0.3845 -0.7559  0.1780
10790SOL    HW133190   6.148   4.701   1.860 -1.9454 -3.2477  0.6180
10790SOL    HW233191   6.262   4.595   1.808  1.5495  0.7771 -0.5816
10791SOL     OW33192   1.834   5.555   4.931 -0.1377 -0.1409 -0.9519
10791SOL    HW133193   1.905   5.591   4.870 -0.0984 -1.6886 -1.8867
10791SOL    HW233194   1.749   5.544   4.880 -0.0347 -1.7011 -0.8304
10792SOL     OW33195   3.077   1.841   4.304  0.6442 -0.0538 -0.8334
10792SOL    HW133196   3.009   1.785   4.257  1.0794 -0.5907 -0.8372
10792SOL    HW233197   3.035   1.926   4.334 -0.3594 -0.8801  0.2179
10793SOL     OW33198   2.696   3.366   4.320  0.1569  0.3380 -0.8384
10793SOL    HW133199   2.603   3.401   4.316  0.0493 -0.1155 -2.8968
10793SOL    HW233200   2.748   3.397   4.240  1.5348 -0.1034 -0.1564
10794SOL     OW33201   6.453   2.890   5.938 -1.1079 -0.0240  0.1554
10794SOL    HW133202   6.528   2.956   5.939 -1.2775  0.1647  0.9170
10794SOL    HW233203   6.371   2.934   5.900 -0.7876 -0.2893 -0.8677
10795SOL     OW33204   4.948   3.882   0.104 -0.4913 -0.1130 -0.0752
10795SOL    HW133205   4.935   3.974   0.140 -1.6537 -0.9188  1.6614
10795SOL    HW233206   4.992   3.825   0.174 -0.8984 -1.1848 -0.6705
10796SOL     OW33207   1.814   3.627   0.272  0.4034 -0.1922 -0.1936
10796SOL    HW133208   1.811   3.724   0.247  0.2373 -0.4024 -0.9983
10796SOL    HW233209   1.829   3.572   0.191 -2.2101 -1.0385 -0.1894
10797SOL     OW33210   6.227   5.814   5.363  0.4102  0.3388  0.0817
10797SOL    HW133211   6.285   5.840   5.287 -0.8160  0.7256 -0.7555
10797SOL    HW233212   6.186   5.896   5.403 -2.0703 -0.0714 -1.4180
10798SOL     OW33213   0.936   0.152   5.891  0.3340 -0.6190 -0.2136
10798SOL    HW133214   0.921   0.249   5.906  0.3940 -0.6037 -0.2539
10798SOL    HW233215   0.848   0.107   5.871  0.4611 -0.3645 -1.4052
10799SOL     OW33216   2.496   6.538   2.236 -0.1402  0.1059 -0.3833
10799SOL    HW133217   2.437   6.604   2.190  0.0373  0.5164 -0.0238
10799SOL    HW233218   2.497   6.556   2.334  0.4459 -0.0083 -0.3638
10800SOL     OW33219   0.118   6.419   1.279  0.5973 -0.8322 -0.0195
10800SOL    HW133220   0.210   6.439   1.245  0.1735  1.7867  0.1009
10800SOL    HW233221   0.051   6.440   1.207  0.0191 -1.3743  0.3514
10801SOL     OW33222   1.659   3.716   0.525  0.3405  0.7267  0.2233
10801SOL    HW133223   1.607   3.646   0.573  1.2255  1.3279  2.1761
10801SOL    HW233224   1.711   3.674   0.451  0.4924 -0.6316  1.0603
10802SOL     OW33225   1.788   0.811   3.870 -0.1341 -0.3786  0.2035
10802SOL    HW133226   1.779   0.850   3.778  1.1940  0.7907  0.5290
10802SOL    HW233227   1.873   0.843   3.911  0.0609 -2.1112  1.2717
10803SOL     OW33228   4.874   2.376   3.670  0.0898 -0.4815  0.2510
10803SOL    HW133229   4.932   2.317   3.613  0.9691  1.1870 -0.6610
10803SOL    HW233230   4.852   2.459   3.620  0.2471  0.7079  2.0445
10804SOL     OW33231   6.657   1.549   0.119 -0.5692 -0.3012 -0.2652
10804SOL    HW133232   6.710   1.603   0.053  0.4477 -1.7975 -0.7109
10804SOL    HW233233   6.609   1.476   0.072 -0.7946 -0.6509  0.5005
10805SOL     OW33234   2.057   4.070   1.651 -0.2048 -0.1469  0.0035
10805SOL    HW133235   1.960   4.095   1.654 -0.0001  0.7427 -0.3762
10805SOL    HW233236   2.113   4.153   1.646  0.6132 -0.6241  0.9302
10806SOL     OW33237   4.074   4.214   1.321  0.7918 -0.3371  0.1671
10806SOL    HW133238   4.068   4.130   1.267 -2.2488  0.6485 -1.2347
10806SOL    HW233239   4.114   4.286   1.264  0.5467 -0.0718  0.3302
10807SOL     OW33240   5.904   4.142   4.786  0.1256  0.1553  0.0695
10807SOL    HW133241   5.955   4.072   4.736  2.0179  1.0945  0.5472
10807SOL    HW233242   5.879   4.108   4.876  1.1961  0.1224  0.3714
10808SOL     OW33243   0.243   1.007   2.617  0.2164  0.8107 -0.1374
10808SOL    HW133244   0.209   0.962   2.535 -2.8188 -0.9726  1.9123
10808SOL    HW233245   0.173   1.068   2.653  1.8591  2.3129  0.6857
10809SOL     OW33246   4.173   4.485   0.839  0.7538  0.1791  0.3624
10809SOL    HW133247   4.259   4.520   0.802 -0.6484  2.4202 -0.9924
10809SOL    HW233248   4.179   4.478   0.939  2.1872  1.2210  0.3779
10810SOL     OW33249   1.549   2.037   2.489 -0.2748 -1.2384  0.1892
10810SOL    HW133250   1.547   2.136   2.506 -2.4754 -1.3137  0.6919
10810SOL    HW233251   1.564   1.989   2.576  0.2253 -1.3707  0.0350
10811SOL     OW33252   3.917   6.891   5.241 -0.1746 -0.2734  0.2563
10811SOL    HW133253   3.891   6.820   5.307 -0.5371  0.9018  1.4347
10811SOL    HW233254   3.975   6.851   5.170  0.9348 -1.4481  1.7492
10812SOL     OW33255   1.464   5.452   1.259 -0.0938  0.4054  0.0036
10812SOL    HW133256   1.386   5.392   1.278 -0.7268  0.7896 -1.3026
10812SOL    HW233257   1.508   5.425   1.173  0.0348  1.3687 -0.2524
10813SOL     OW33258   3.651   4.225   0.165  0.0019 -0.1609  0.2214
10813SOL    HW133259   3.717   4.187   0.100 -1.7975 -0.0659 -1.7461
10813SOL    HW233260   3.644   4.165   0.244  1.7205 -0.6651  0.0334
10814SOL     OW33261   5.124   1.336   2.754  0.5084 -0.2487 -0.2562
10814SOL    HW133262   5.211   1.373   2.785  1.0351 -0.0360 -1.8829
10814SOL    HW233263   5.050   1.398   2.779  1.2986  1.7536 -2.4210
10815SOL     OW33264   6.691   4.995   2.277  0.9957  0.1227  0.1174
10815SOL    HW133265   6.732   4.904   2.274  0.5114 -0.0978  0.1323
10815SOL    HW233266   6.620   5.001   2.207  1.2578  0.6046 -0.1134
10816SOL     OW33267   6.105   5.053   1.660  0.2057 -0.5070 -0.2420
10816SOL    HW133268   6.170   5.007   1.599  0.9763 -1.6027  1.3309
10816SOL    HW233269   6.155   5.114   1.722 -0.1358 -1.7969  1.3749
10817SOL     OW33270   4.892   3.363   2.004 -0.5958  0.5753 -0.0021
10817SOL    HW133271   4.988   3.383   1.989 -0.4187  0.0193  0.3535
10817SOL    HW233272   4.851   3.435   2.060  0.5522 -1.0046  3.0727
10818SOL     OW33273   1.185   5.696   6.274  0.3971 -0.2515  0.2194
10818SOL    HW133274   1.273   5.732   6.242 -0.0055  2.0832  1.5262
10818SOL    HW233275   1.170   5.606   6.235  2.6038 -0.0125 -1.3755
10819SOL     OW33276   5.371   5.964   0.557  0.3644  0.2641  0.4312
10819SOL    HW133277   5.412   5.968   0.466  1.9367 -0.0590  1.1065
10819SOL    HW233278   5.442   5.944   0.625 -0.6221  1.4316  1.8423
10820SOL     OW33279   0.464   2.223   4.217  0.2167 -0.2819  0.2856
10820SOL    HW133280   0.402   2.297   4.189 -1.0233 -0.5506  2.1378
10820SOL    HW233281   0.539   2.261   4.271 -0.0424 -0.2702  0.6473
10821SOL     OW33282   5.364   2.535   3.390  0.1031  0.2557 -0.3376
10821SOL    HW133283   5.310   2.570   3.314 -2.2596 -1.3486  0.4958
10821SOL    HW233284   5.350   2.592   3.471  0.3643  0.3629 -0.3678
10822SOL     OW33285   5.046   2.302   3.476  0.4504  0.1697 -0.1640
10822SOL    HW133286   5.005   2.226   3.424 -1.8851  1.2104  0.0178
10822SOL    HW233287   5.038   2.386   3.423 -0.2937  0.9194  1.1002
10823SOL     OW33288   4.103   5.522   5.813  0.2784  0.0851 -0.2155
10823SOL    HW133289   4.026   5.461   5.796  1.5510 -1.3854 -1.0090
10823SOL    HW233290   4.144   5.501   5.902 -0.2386  0.8860  0.2212
10824SOL     OW33291   1.033   6.229   4.392  0.5263 -0.1005 -0.1560
10824SOL    HW133292   0.971   6.234   4.314  0.7702  2.1025 -0.2750
10824SOL    HW233293   1.092   6.148   4.383 -0.2021 -0.5000 -1.6529
10825SOL     OW33294   5.660   5.222   6.317 -0.1761 -0.1386  0.9144
10825SOL    HW133295   5.720   5.171   6.255  0.5910  0.3195  1.2753
10825SOL    HW233296   5.566   5.216   6.283  0.3120  0.7046 -0.7356
10826SOL     OW33297   6.903   2.400   3.037 -0.6320  0.4398  0.0415
10826SOL    HW133298   6.832   2.457   2.996 -1.8411 -1.8086 -1.1225
10826SOL    HW233299   6.875   2.374   3.129 -1.7801 -1.0873 -0.6888
10827SOL     OW33300   3.928   3.199   1.057 -0.0032 -1.0519 -0.2512
10827SOL    HW133301   3.889   3.178   0.967 -0.6773  0.9212 -0.4707
10827SOL    HW233302   3.908   3.294   1.080 -0.4655 -1.6965  2.3294
10828SOL     OW33303   1.583   6.514   0.432  0.1227  0.0046  0.1810
10828SOL    HW133304   1.660   6.478   0.379 -0.4210 -1.7419  0.5147
10828SOL    HW233305   1.618   6.559   0.515  0.8028 -0.9203  0.4184
10829SOL     OW33306   2.247   5.902   0.298  0.0726  0.3515  0.5217
10829SOL    HW133307   2.278   5.815   0.336  0.3771 -0.2982 -1.1297
10829SOL    HW233308   2.156   5.924   0.334  0.0052 -0.6164  0.9834
10830SOL     OW33309   5.780   2.668   2.057 -0.2185 -0.1490 -0.2057
10830SOL    HW133310   5.699   2.725   2.066  0.0533  0.1609  0.2732
10830SOL    HW233311   5.859   2.715   2.097  0.1700 -0.5064 -0.5474
10831SOL     OW33312   6.884   5.633   2.069  0.4369  0.0539  0.1001
10831SOL    HW133313   6.980   5.607   2.063  0.2753 -0.3083 -1.1753
10831SOL    HW233314   6.829   5.554   2.094  0.4052  0.1539  0.3606
10832SOL     OW33315   3.521   6.377   0.342 -0.1256  0.3236  0.1792
10832SOL    HW133316   3.462   6.413   0.415 -2.1970 -1.7112 -0.3851
10832SOL    HW233317   3.615   6.408   0.358 -0.6433  0.7081  3.2169
10833SOL     OW33318   3.637   1.638   0.971  0.0294 -0.2394 -0.5025
10833SOL    HW133319   3.727   1.629   0.928 -0.6176 -1.8303 -1.6124
10833SOL    HW233320   3.641   1.605   1.065  0.1694 -2.4041 -1.2028
10834SOL     OW33321   0.016   1.798   0.406  0.2530  0.0845 -0.4068
10834SOL    HW133322   0.091   1.738   0.377  0.2939  0.1156 -0.2967
10834SOL    HW233323  -0.048   1.810   0.331 -0.4238 -1.1284 -0.0584
10835SOL     OW33324   3.486   6.820   1.838 -0.3173  0.1821  0.4372
10835SOL    HW133325   3.576   6.807   1.880  0.2413 -0.3084 -0.8393
10835SOL    HW233326   3.489   6.786   1.744 -2.4729 -1.8791  1.0417
10836SOL     OW33327   0.110   5.585   0.171  0.4372  0.3225 -0.3415
10836SOL    HW133328   0.121   5.682   0.148  1.2443  0.0980 -1.0030
10836SOL    HW233329   0.137   5.570   0.265 -2.3216  1.1754  0.6949
10837SOL     OW33330   6.633   0.848   6.348  0.0671 -0.6225 -0.3770
10837SOL    HW133331   6.642   0.748   6.346 -0.3852 -0.7162  1.0889
10837SOL    HW233332   6.719   0.890   6.319  0.3133 -1.4385 -0.8600
10838SOL     OW33333   5.514   5.257   1.307  0.6845 -0.1931  0.1059
10838SOL    HW133334   5.595   5.216   1.267 -1.2691 -4.5287 -0.0175
10838SOL    HW233335   5.486   5.337   1.254  3.2340 -0.2512 -1.4719
10839SOL     OW33336   3.870   1.715   0.154 -0.3578 -0.4032 -0.3056
10839SOL    HW133337   3.872   1.812   0.181 -2.0809 -0.8928  1.8261
10839SOL    HW233338   3.874   1.708   0.055  2.0286  1.7252 -0.4552
10840SOL     OW33339   0.862   6.801   5.829 -0.3674 -0.7405 -0.0435
10840SOL    HW133340   0.789   6.868   5.832  0.0875 -0.2827  1.2059
10840SOL    HW233341   0.834   6.724   5.771 -1.9495 -0.7083  0.6365
10841SOL     OW33342   1.095   1.375   2.836 -0.3794  0.4370 -0.6760
10841SOL    HW133343   1.111   1.292   2.889 -0.3680  1.4477  0.9744
10841SOL    HW233344   1.060   1.447   2.896 -0.2430  1.6841 -2.0264
10842SOL     OW33345   1.011   4.232   3.024  0.0454  0.4208 -0.0406
10842SOL    HW133346   0.923   4.221   2.979  0.2343  1.1432 -0.6064
10842SOL    HW233347   1.025   4.158   3.090 -0.5339 -0.2686 -0.6826
10843SOL     OW33348   3.128   5.952   6.012  0.0801  0.2429 -0.1860
10843SOL    HW133349   3.037   5.968   5.974  0.6405  0.8261 -1.3394
10843SOL    HW233350   3.198   5.980   5.946  1.1062  0.2773  0.8633
10844SOL     OW33351   6.953   1.429   3.334 -0.2732 -0.7661  0.3853
10844SOL    HW133352   6.888   1.356   3.313 -1.2907  0.5639 -1.3779
10844SOL    HW233353   6.922   1.478   3.416 -2.9348  1.2744 -1.6401
10845SOL     OW33354   4.333   1.920   0.101 -0.2291  0.3815 -0.0241
10845SOL    HW133355   4.417   1.975   0.101 -0.0464  0.1261 -0.9354
10845SOL    HW233356   4.258   1.974   0.064 -0.1049  0.0984 -0.6953
10846SOL     OW33357   0.257   5.621   3.966  0.3693  0.0226  0.3118
10846SOL    HW133358   0.223   5.672   4.045 -1.0715 -0.1672 -0.1498
10846SOL    HW233359   0.355   5.604   3.976  0.6671  1.8637  1.0325
10847SOL     OW33360   1.651   6.892   0.223 -0.0307  0.0621  0.3745
10847SOL    HW133361   1.698   6.968   0.178 -0.2413  0.6430  1.1286
10847SOL    HW233362   1.714   6.847   0.286 -0.1175  0.0541  0.4558
10848SOL     OW33363   3.744   6.193   4.978  0.7554 -0.0513  0.3727
10848SOL    HW133364   3.826   6.142   4.954  0.7137  1.3752 -3.2982
10848SOL    HW233365   3.666   6.158   4.927 -0.2340  0.7825  1.2507
10849SOL     OW33366   6.024   6.890   1.939 -0.1222  0.0078  0.3184
10849SOL    HW133367   5.974   6.803   1.948  0.8290 -0.5953 -0.0073
10849SOL    HW233368   6.082   6.904   2.019  0.2685 -0.0251  0.0470
10850SOL     OW33369   0.739   6.047   6.525 -0.2035  0.3232  0.1815
10850SOL    HW133370   0.740   6.135   6.573 -0.1969  0.7222 -0.5372
10850SOL    HW233371   0.662   5.992   6.558 -2.2043  1.8781 -1.6166
10851SOL     OW33372   1.125   0.557   5.188 -0.1013  0.0880 -0.0867
10851SOL    HW133373   1.122   0.618   5.109 -2.1015  1.4784  0.9769
10851SOL    HW233374   1.085   0.468   5.162 -0.2335  0.3396 -0.7779
10852SOL     OW33375   4.516   4.901   4.237 -0.2208  0.3987 -0.2312
10852SOL    HW133376   4.607   4.931   4.207  0.7394 -1.1136  1.0421
10852SOL    HW233377   4.478   4.836   4.171 -0.0313  0.4178 -0.3598
10853SOL     OW33378   0.398   5.204   4.128 -0.5937 -0.1975 -0.0063
10853SOL    HW133379   0.454   5.239   4.203 -1.6116  2.2545 -0.3020
10853SOL    HW233380   0.443   5.222   4.041 -0.9494 -0.0231 -0.1536
10854SOL     OW33381   2.015   4.303   4.807  0.3078 -0.1023 -0.6515
10854SOL    HW133382   2.103   4.258   4.797 -0.1863 -0.9054 -1.6597
10854SOL    HW233383   1.979   4.327   4.717 -0.5943  0.0339 -0.2698
10855SOL     OW33384   3.361   0.747   5.058 -1.0120  0.0064 -0.4223
10855SOL    HW133385   3.343   0.706   5.148  0.2847 -0.4952 -0.3715
10855SOL    HW233386   3.319   0.692   4.987 -1.5901  0.1059 -0.1591
10856SOL     OW33387   2.111   4.412   6.779 -0.3227 -0.1189 -0.2817
10856SOL    HW133388   2.054   4.340   6.821 -0.7378 -0.1821 -0.9348
10856SOL    HW233389   2.067   4.501   6.793 -1.0165 -0.2571 -1.4991
10857SOL     OW33390   0.527   3.841   6.903  0.3324  0.1900  0.5519
10857SOL    HW133391   0.577   3.757   6.881  2.5051  1.5940 -0.2780
10857SOL    HW233392   0.546   3.867   6.998  1.5378  0.8901  0.1461
10858SOL     OW33393   2.650   1.735   4.460  0.5964 -0.4549  0.1865
10858SOL    HW133394   2.567   1.769   4.504  1.2438  1.3646  0.0832
10858SOL    HW233395   2.625   1.684   4.377 -0.3845  2.0453 -1.1657
10859SOL     OW33396   1.776   4.645   3.247  0.0050 -0.4453 -0.2324
10859SOL    HW133397   1.827   4.605   3.322 -1.4269 -0.4285  0.7964
10859SOL    HW233398   1.824   4.727   3.214 -0.6833  1.2318  2.5780
10860SOL     OW33399   4.686   5.931   4.109 -0.1003 -0.2120  0.5051
10860SOL    HW133400   4.706   5.965   4.017 -1.2526  3.1947  1.3481
10860SOL    HW233401   4.692   5.831   4.110 -1.1288 -0.4985 -3.5178
10861SOL     OW33402   0.868   2.369   1.555 -0.3041  0.0605 -0.0470
10861SOL    HW133403   0.936   2.331   1.493 -0.3151 -0.1035  0.0389
10861SOL    HW233404   0.867   2.469   1.547  0.7144  0.1543  0.7344
10862SOL     OW33405   1.276   2.720   4.807 -0.0838 -0.3137  0.2878
10862SOL    HW133406   1.335   2.643   4.784  1.8813  0.9883  0.8409
10862SOL    HW233407   1.330   2.793   4.847 -1.9431  1.2758  0.0140
10863SOL     OW33408   5.584   0.438   3.806  0.0189 -0.0621 -0.7988
10863SOL    HW133409   5.628   0.348   3.806  0.2083  0.0275 -1.2990
10863SOL    HW233410   5.503   0.435   3.747 -3.0978 -1.3895  3.1064
10864SOL     OW33411   4.511   0.039   5.440  0.1164 -0.1255  0.1635
10864SOL    HW133412   4.469   0.063   5.528 -0.3276  1.4645 -0.4478
10864SOL    HW233413   4.607   0.067   5.441 -0.3800  1.7017 -0.5221
10865SOL     OW33414   5.211   4.886   2.072  0.4961 -0.2234  0.5912
10865SOL    HW133415   5.294   4.912   2.121  1.2279 -0.5260 -0.4482
10865SOL    HW233416   5.135   4.881   2.136  1.0769  0.9618  1.4235
10866SOL     OW33417   0.409   1.759   3.957 -0.4376  0.4929 -0.2055
10866SOL    HW133418   0.356   1.841   3.937  0.4517  1.3226  0.6940
10866SOL    HW233419   0.494   1.761   3.905  0.3862  1.0376  1.1132
10867SOL     OW33420   0.570   3.581   4.939 -0.1854  0.0508 -0.1637
10867SOL    HW133421   0.503   3.652   4.916  1.1740  1.2168 -0.6424
10867SOL    HW233422   0.607   3.542   4.855 -1.5696 -1.9221  0.0758
10868SOL     OW33423   2.871   6.814   0.709  0.3240  0.4276  0.0377
10868SOL    HW133424   2.928   6.800   0.790 -0.7065  2.7096  1.2301
10868SOL    HW233425   2.783   6.769   0.722  0.1092  0.9058  0.2541
10869SOL     OW33426   2.685   1.398   5.885  0.5712 -0.0998 -0.4719
10869SOL    HW133427   2.697   1.463   5.960 -0.4500  0.7679 -1.0315
10869SOL    HW233428   2.730   1.434   5.803 -1.2367  0.6613 -1.1808
10870SOL     OW33429   5.446   0.634   4.336 -0.2474 -0.6631  0.2820
10870SOL    HW133430   5.526   0.599   4.384 -0.1541 -1.1009 -0.1950
10870SOL    HW233431   5.451   0.734   4.332  0.0204 -0.6563  0.6938
10871SOL     OW33432   5.200   1.088   0.089 -0.0661 -0.5192 -0.8155
10871SOL    HW133433   5.177   1.007   0.034 -1.6026 -0.3995 -0.4044
10871SOL    HW233434   5.299   1.096   0.097  0.1360 -2.8916 -0.1042
10872SOL     OW33435   6.138   6.545   3.373 -0.6053  0.0645  0.2632
10872SOL    HW133436   6.061   6.555   3.310 -1.0119 -0.6084  0.6451
10872SOL    HW233437   6.105   6.555   3.467 -0.2907 -0.5871  0.4429
10873SOL     OW33438   2.220   3.983   0.214  0.2262 -0.2821 -0.2408
10873SOL    HW133439   2.233   3.950   0.121  0.7412  0.7754 -0.5563
10873SOL    HW233440   2.284   3.935   0.275  1.0995  0.2587 -0.7174
10874SOL     OW33441   2.459   6.027   5.707  0.2624  0.0466 -0.0155
10874SOL    HW133442   2.433   6.123   5.700  0.9054  0.1853 -0.6073
10874SOL    HW233443   2.386   5.976   5.753 -0.3038  0.7272 -0.1446
10875SOL     OW33444   6.137   5.652   5.571  0.4562  0.4992  0.3677
10875SOL    HW133445   6.157   5.706   5.489  1.0750  1.2400  0.9895
10875SOL    HW233446   6.139   5.555   5.549  4.2042  0.4912  0.2266
10876SOL     OW33447   1.496   3.575   4.542  0.1878  0.4015 -0.0969
10876SOL    HW133448   1.519   3.663   4.585 -1.4449  1.0583 -0.4805
10876SOL    HW233449   1.397   3.561   4.546  0.3398 -1.1271 -0.6678
10877SOL     OW33450   4.405   2.428   6.621 -0.2083 -0.7178 -0.1375
10877SOL    HW133451   4.340   2.452   6.549 -0.3285 -0.8162 -0.0625
10877SOL    HW233452   4.442   2.336   6.602 -0.4190 -0.8437  0.0562
10878SOL     OW33453   2.667   6.105   2.032  0.1245  0.3545  0.3448
10878SOL    HW133454   2.731   6.029   2.018  0.3909  0.7440 -0.6594
10878SOL    HW233455   2.702   6.165   2.103  0.4661  0.1203  0.3769
10879SOL     OW33456   6.714   2.921   6.345 -0.3707 -0.5391  0.0102
10879SOL    HW133457   6.705   2.832   6.390  1.3691 -0.2452  1.0351
10879SOL    HW233458   6.810   2.948   6.345 -0.7741  0.9835 -1.0110
10880SOL     OW33459   5.280   0.489   5.737  0.0890  0.1078  0.1496
10880SOL    HW133460   5.327   0.504   5.650  0.9638 -0.2209  0.5453
10880SOL    HW233461   5.187   0.526   5.731  0.8412  2.0703 -0.1818
10881SOL     OW33462   0.518   5.615   2.283 -0.2657 -0.6218  0.6302
10881SOL    HW133463   0.554   5.605   2.376  0.4502  0.2277  0.4519
10881SOL    HW233464   0.426   5.655   2.288  0.1669  0.3935  0.9543
10882SOL     OW33465   1.547   0.951   3.675  0.3438  0.0758  0.6907
10882SOL    HW133466   1.618   0.887   3.647  0.4226  1.2969 -2.3371
10882SOL    HW233467   1.485   0.907   3.740  1.6465 -2.2667  0.4536
10883SOL     OW33468   0.455   4.412   2.747  0.4702 -0.4306 -0.0024
10883SOL    HW133469   0.451   4.512   2.735 -0.9978 -0.5001 -0.2633
10883SOL    HW233470   0.405   4.387   2.830  0.1351 -1.0169 -0.3773
10884SOL     OW33471   5.131   2.120   6.052  0.3943  0.0470 -0.5445
10884SOL    HW133472   5.042   2.074   6.046 -0.4808  1.3435  1.5102
10884SOL    HW233473   5.153   2.163   5.965 -0.7294 -0.7450 -1.2311
10885SOL     OW33474   0.425   5.057   0.112  0.1259  0.2105  0.9303
10885SOL    HW133475   0.507   5.000   0.122  0.2288 -0.4585 -2.5046
10885SOL    HW233476   0.343   4.999   0.117 -0.0616  0.5459  2.1164
10886SOL     OW33477   2.406   3.136   0.295  0.3709 -0.4272  0.1189
10886SOL    HW133478   2.483   3.181   0.340  0.2900 -1.4214  1.2921
10886SOL    HW233479   2.352   3.205   0.246  0.5333  0.6895  1.4504
10887SOL     OW33480   0.338   5.888   2.876  0.0092  0.6400  0.2783
10887SOL    HW133481   0.342   5.802   2.926 -0.9169  1.1054  1.1579
10887SOL    HW233482   0.358   5.870   2.779  1.1671 -0.3524  0.6762
10888SOL     OW33483   3.166   5.558   0.220 -0.1385  0.3136  0.1800
10888SOL    HW133484   3.182   5.563   0.319  0.4835  0.2873  0.0874
10888SOL    HW233485   3.116   5.474   0.199 -0.2572  0.3096  0.4667
10889SOL     OW33486   5.346   6.213   1.454  0.0369  0.3726 -0.1165
10889SOL    HW133487   5.355   6.159   1.538 -3.5963  0.1458  0.2702
10889SOL    HW233488   5.378   6.159   1.377  1.8336 -0.0724  0.8841
10890SOL     OW33489   3.196   3.259   0.647  0.6107 -0.4853  0.0576
10890SOL    HW133490   3.277   3.231   0.596  0.0995 -1.2011 -0.4046
10890SOL    HW233491   3.114   3.225   0.600  0.1363 -1.6679  1.6127
10891SOL     OW33492   6.099   4.010   3.596  0.3169  0.1268  0.2033
10891SOL    HW133493   6.044   3.968   3.668  0.0110 -0.9034 -0.6052
10891SOL    HW233494   6.189   3.966   3.592  1.7555  2.5977  2.3287
10892SOL     OW33495   3.786   0.471   2.069  0.0630  0.0643  0.0029
10892SOL    HW133496   3.789   0.567   2.096  0.6197  0.1545 -0.3641
10892SOL    HW233497   3.704   0.455   2.013 -0.9125 -0.0501  1.4159
10893SOL     OW33498   2.824   4.431   0.390 -0.2505  0.4665 -0.1929
10893SOL    HW133499   2.762   4.354   0.404  1.4817 -0.6949  1.7210
10893SOL    HW233500   2.817   4.494   0.467 -0.2804  1.2357 -0.8116
10894SOL     OW33501   2.921   1.465   2.009  0.0615  0.0961  0.0853
10894SOL    HW133502   2.957   1.407   1.936 -2.3205 -0.9270 -0.3825
10894SOL    HW233503   2.853   1.528   1.971 -1.2442 -0.4774  1.3438
10895SOL     OW33504   2.577   1.426   5.054 -0.5515 -0.2414 -0.5799
10895SOL    HW133505   2.618   1.356   4.996 -1.3727 -0.8439 -0.4484
10895SOL    HW233506   2.648   1.467   5.112 -0.3491 -2.2512  0.6730
10896SOL     OW33507   0.348   3.338   1.870 -0.4105 -0.5032  0.1814
10896SOL    HW133508   0.443   3.329   1.900 -0.3922 -0.5708  0.1015
10896SOL    HW233509   0.327   3.435   1.855 -0.2192 -0.5277 -0.2586
10897SOL     OW33510   1.875   1.137   6.755  0.2911 -0.0773  0.0973
10897SOL    HW133511   1.950   1.131   6.688 -0.9176 -1.3547 -1.2136
10897SOL    HW233512   1.829   1.225   6.746 -0.7509 -0.7454 -1.8372
10898SOL     OW33513   1.651   5.438   1.459  0.3002  0.2909  0.2517
10898SOL    HW133514   1.597   5.443   1.376  0.1521  1.0425  0.3856
10898SOL    HW233515   1.719   5.512   1.459 -1.4762  2.0668  2.0151
10899SOL     OW33516   2.113   0.778   5.224  0.2426 -0.1041 -0.4066
10899SOL    HW133517   2.089   0.692   5.270  1.5225 -0.2870 -0.0398
10899SOL    HW233518   2.031   0.834   5.213 -0.9712 -2.0665 -2.1697
10900SOL     OW33519   6.790   5.489   5.429  0.4481  0.4566  0.0290
10900SOL    HW133520   6.874   5.543   5.432 -0.5972  2.1366  0.7564
10900SOL    HW233521   6.712   5.550   5.415 -0.7502 -0.9670  0.2287
10901SOL     OW33522   0.225   6.425   0.802  0.2695  0.1408 -0.1171
10901SOL    HW133523   0.150   6.374   0.760  1.3017  0.6272 -2.7398
10901SOL    HW233524   0.247   6.386   0.892 -3.6105  0.5294  1.1514
10902SOL     OW33525   2.567   1.807   5.900  0.4381  0.1089 -0.2322
10902SOL    HW133526   2.549   1.803   5.802  0.3236 -1.3104 -0.1747
10902SOL    HW233527   2.656   1.849   5.916 -0.1656  1.6915 -0.8426
10903SOL     OW33528   2.438   0.463   3.147 -0.0213 -0.1628  0.3788
10903SOL    HW133529   2.439   0.520   3.230 -0.4238 -0.5734  0.6716
10903SOL    HW233530   2.490   0.508   3.075 -1.9046  1.5370 -0.0214
10904SOL     OW33531   0.010   6.245   0.672 -0.1376 -0.4281  0.0555
10904SOL    HW133532   0.015   6.279   0.578  1.6936 -0.8293 -0.0257
10904SOL    HW233533   0.011   6.145   0.671  2.0407 -0.4444  0.5510
10905SOL     OW33534   1.436   1.932   1.543  0.0629 -0.3405  0.0562
10905SOL    HW133535   1.405   1.880   1.622 -1.1387  2.2794  1.4170
10905SOL    HW233536   1.522   1.893   1.509  0.5709 -1.6106  2.5959
10906SOL     OW33537   5.424   2.417   0.435  0.3498 -0.4988  0.0258
10906SOL    HW133538   5.419   2.373   0.345 -2.1106 -3.6771  1.5027
10906SOL    HW233539   5.371   2.502   0.433 -0.5109 -1.0326 -1.3231
10907SOL     OW33540   4.840   2.141   6.096 -0.0690 -0.0393 -0.4464
10907SOL    HW133541   4.839   2.240   6.107 -0.5647 -0.1615  0.7592
10907SOL    HW233542   4.784   2.115   6.017  0.8422  0.6799 -1.3648
10908SOL     OW33543   6.856   5.133   0.941  0.5063  1.0638  0.6070
10908SOL    HW133544   6.858   5.227   0.977  2.7162  1.3699 -0.1363
10908SOL    HW233545   6.892   5.132   0.848  0.8935 -0.5727  0.7404
10909SOL     OW33546   6.403   6.231   3.031 -0.3030 -0.7491  0.2855
10909SOL    HW133547   6.489   6.203   3.074  2.2963  3.4204 -1.6266
10909SOL    HW233548   6.362   6.306   3.083 -1.3276 -0.8399 -0.3564
10910SOL     OW33549   6.058   4.910   4.407  0.3889 -0.0295  0.5379
10910SOL    HW133550   6.124   4.948   4.343  0.0861  0.6186  0.5969
10910SOL    HW233551   5.976   4.882   4.358 -0.4095  1.7554  0.7909
10911SOL     OW33552   2.946   0.916   5.911  0.0246  0.4193 -0.0674
10911SOL    HW133553   3.043   0.922   5.888  0.4192  0.1658  1.4450
10911SOL    HW233554   2.899   0.996   5.874  0.9090  0.8338 -0.3381
10912SOL     OW33555   0.681   6.627   2.094  0.0211  0.5232 -0.0229
10912SOL    HW133556   0.608   6.687   2.062 -3.1790 -0.8415  3.9538
10912SOL    HW233557   0.752   6.682   2.139 -0.4079  1.6252 -0.6402
10913SOL     OW33558   1.391   5.375   3.510  0.2318 -0.2511 -0.0762
10913SOL    HW133559   1.481   5.334   3.499 -0.2301 -1.2132 -0.5227
10913SOL    HW233560   1.391   5.468   3.474  0.3993 -1.1402 -2.5683
10914SOL     OW33561   6.981   5.376   5.841 -0.1442  0.3034 -0.0970
10914SOL    HW133562   6.950   5.350   5.750  0.3154  0.7681 -0.3889
10914SOL    HW233563   6.929   5.456   5.873 -0.5760 -0.0918  0.2176
10915SOL     OW33564   2.228   1.282   0.729 -0.2344 -0.2990  0.0965
10915SOL    HW133565   2.220   1.345   0.807 -1.0817 -0.6563  0.3098
10915SOL    HW233566   2.220   1.188   0.761 -0.0726 -0.4707 -0.3606
10916SOL     OW33567   2.358   6.569   4.623  0.2578  0.5057 -0.6235
10916SOL    HW133568   2.352   6.633   4.547 -0.8651 -0.5842 -1.5020
10916SOL    HW233569   2.266   6.544   4.653  0.6205  1.8303  1.9526
10917SOL     OW33570   3.090   3.571   3.884  0.1543  0.7458  0.2335
10917SOL    HW133571   3.020   3.640   3.865  1.0996  2.0852  1.3684
10917SOL    HW233572   3.163   3.578   3.815 -0.4596 -0.1565 -0.5245
10918SOL     OW33573   0.324   6.679   0.832  0.0249  0.9044 -0.1311
10918SOL    HW133574   0.394   6.685   0.903  0.3252  1.5604 -0.4585
10918SOL    HW233575   0.290   6.586   0.826 -1.1119  1.1323  1.8961
10919SOL     OW33576   0.280   1.189   0.809 -0.1385  0.4090  0.2877
10919SOL    HW133577   0.223   1.239   0.744 -2.4973 -0.3744  1.6224
10919SOL    HW233578   0.307   1.101   0.770 -0.4624  0.4892 -0.1158
10920SOL     OW33579   0.952   2.876   0.782 -0.2246 -0.2838  0.3525
10920SOL    HW133580   1.018   2.859   0.709  1.0830  1.1784  1.1279
10920SOL    HW233581   0.931   2.790   0.828 -0.3762 -1.0816 -1.1458
10921SOL     OW33582   4.389   0.711   4.028  0.3501 -0.3110  1.1848
10921SOL    HW133583   4.298   0.736   4.061  0.8337  0.3778  2.0550
10921SOL    HW233584   4.453   0.712   4.105  1.1500 -0.4768  0.5297
10922SOL     OW33585   5.982   5.669   4.579 -0.1043  0.4702  0.4599
10922SOL    HW133586   5.901   5.640   4.528  0.5288 -0.6758  0.0585
10922SOL    HW233587   5.960   5.677   4.676 -0.8533  0.8444  0.2679
10923SOL     OW33588   2.002   5.473   0.543 -0.1142  0.4270  0.0201
10923SOL    HW133589   2.059   5.529   0.484  0.8596 -2.2286 -1.7043
10923SOL    HW233590   1.906   5.484   0.516 -0.1745  2.4231  0.8119
10924SOL     OW33591   2.664   2.653   1.837 -0.5206 -0.1549 -0.1219
10924SOL    HW133592   2.731   2.582   1.813 -1.3190 -1.0457  0.2653
10924SOL    HW233593   2.693   2.740   1.797  0.6984 -0.5984 -0.2398
10925SOL     OW33594   0.050   1.992   5.706 -0.4545 -0.5990 -0.7421
10925SOL    HW133595   0.024   1.988   5.609  0.1478  0.5319 -0.9655
10925SOL    HW233596   0.129   2.052   5.717 -0.5522 -0.6713  0.4690
10926SOL     OW33597   4.295   1.083   6.606  0.4792  0.4946  0.0210
10926SOL    HW133598   4.379   1.081   6.551 -0.0525  1.9097 -0.8931
10926SOL    HW233599   4.310   1.033   6.691  2.5208  1.4026  0.2513
10927SOL     OW33600   0.524   0.956   3.537 -0.1650  0.1324 -0.5648
10927SOL    HW133601   0.470   0.923   3.460  0.0176 -2.4304  0.3112
10927SOL    HW233602   0.468   1.018   3.593 -1.3470 -0.4543 -1.0601
10928SOL     OW33603   2.703   4.836   1.533 -0.2940 -0.0988  0.3502
10928SOL    HW133604   2.707   4.763   1.602  0.1768  0.5868  1.0755
10928SOL    HW233605   2.785   4.893   1.542 -1.4907  1.5944  1.0418
10929SOL     OW33606   2.164   5.666   3.676 -0.3867 -0.4855  0.3012
10929SOL    HW133607   2.098   5.601   3.715  0.6323 -1.4128  0.5222
10929SOL    HW233608   2.255   5.626   3.678 -0.0347  0.1525 -1.4355
10930SOL     OW33609   4.995   0.137   5.567 -0.1040 -0.3688 -0.0741
10930SOL    HW133610   5.068   0.150   5.500  0.6621  0.2497  0.8536
10930SOL    HW233611   5.031   0.085   5.645 -0.1923  1.2268  1.0847
10931SOL     OW33612   5.459   3.664   5.975  0.3042 -0.5798 -0.1827
10931SOL    HW133613   5.554   3.638   5.990  1.9491  3.7776 -1.6282
10931SOL    HW233614   5.417   3.688   6.062  1.5224  0.2824  0.1966
10932SOL     OW33615   3.248   5.815   1.498  0.1423 -0.6636 -0.3252
10932SOL    HW133616   3.148   5.812   1.497  0.0245  0.4836  1.9558
10932SOL    HW233617   3.281   5.840   1.406 -1.8767  2.4595 -0.3699
10933SOL     OW33618   5.641   6.884   2.034 -0.1637 -0.6123 -0.0552
10933SOL    HW133619   5.699   6.905   1.955  0.2134 -0.2962  0.3043
10933SOL    HW233620   5.604   6.969   2.071  0.7816 -0.6375  0.9667
10934SOL     OW33621   3.270   3.237   2.047  0.1544 -0.2492  0.0179
10934SOL    HW133622   3.308   3.257   1.957  1.6279 -1.3760  0.3640
10934SOL    HW233623   3.280   3.317   2.107 -0.1445  0.2433 -0.5880
10935SOL     OW33624   6.384   4.705   2.137 -0.4546 -0.6384 -0.2595
10935SOL    HW133625   6.300   4.698   2.084  0.3158 -3.3201 -1.3347
10935SOL    HW233626   6.444   4.627   2.115  1.8593  0.5758  1.2537
10936SOL     OW33627   0.778   4.100   0.278  0.2434  0.4907  0.2580
10936SOL    HW133628   0.768   4.034   0.352  0.1779  0.7736  0.5053
10936SOL    HW233629   0.873   4.103   0.248  0.3618  0.7259  0.6548
10937SOL     OW33630   0.270   0.808   1.696  0.1109 -0.1465  0.9148
10937SOL    HW133631   0.304   0.897   1.664 -0.2702  0.3453  1.8602
10937SOL    HW233632   0.236   0.756   1.617  2.0699 -0.2448  0.0797
   7.02167   7.02167   7.02167
