CNT in water
33632
    1C        C    1   1.936   3.728   2.882  0.8715 -0.5918 -0.3716
    1C        C    2   1.907   3.728   2.743 -0.7481  0.9967 -0.0559
    1C        C    3   1.793   3.655   2.704  0.3842 -0.7625 -0.1710
    1C        C    4   2.212   3.897   3.245  0.5118 -0.5562  0.4266
    1C        C    5   2.188   3.885   3.107 -0.3886 -0.0173  0.5400
    1C        C    6   2.082   3.802   3.062  0.0244 -0.2194 -0.0535
    1C        C    7   2.148   3.845   2.833  0.3415  0.3277 -0.0685
    1C        C    8   2.053   3.795   2.925  0.5059 -0.1133 -0.1535
    1C        C    9   2.134   3.794   2.702  0.1340 -0.7395  0.3731
    1C        C   10   2.009   3.758   2.647  0.2385 -0.9905  0.3241
    1C        C   11   2.105   3.674   2.452 -0.3374 -0.0511 -0.5570
    1C        C   12   1.996   3.743   2.506  0.1880  0.1804  0.2037
    1C        C   13   2.490   4.066   3.612 -0.0974  0.2785  0.2876
    1C        C   14   2.464   4.052   3.474  0.1590  0.3014  0.2493
    1C        C   15   2.348   3.988   3.427 -0.2261  1.1342  0.0838
    1C        C   16   2.428   4.000   3.199 -0.0527 -0.1947 -0.3207
    1C        C   17   2.322   3.973   3.289  0.2853 -0.0606  0.1104
    1C        C   18   2.416   3.959   3.064 -0.0416 -0.5843 -0.2005
    1C        C   19   2.296   3.901   3.018 -0.4376 -0.2814  0.4408
    1C        C   20   2.391   3.853   2.803  0.4352  0.5963  0.2712
    1C        C   21   2.276   3.881   2.880  0.2993 -0.0283  0.2951
    1C        C   22   2.375   3.796   2.675 -0.2259 -0.1102  0.6585
    1C        C   23   2.248   3.766   2.622  0.0364 -0.0371  0.0042
    1C        C   24   2.352   3.716   2.413 -0.2584  0.1263  0.3887
    1C        C   25   2.236   3.706   2.495 -0.5748  0.2311 -0.0573
    1C        C   26   2.347   3.659   2.284 -0.0899 -0.0771  0.4777
    1C        C   27   2.774   4.212   3.982  0.2514 -0.8691 -0.2632
    1C        C   28   2.749   4.196   3.844  0.3246 -0.1414 -0.3537
    1C        C   29   2.629   4.136   3.800  0.0840  0.0662  0.0444
    1C        C   30   2.713   4.142   3.567 -0.4718  0.8771 -0.3086
    1C        C   31   2.611   4.119   3.661  0.0262  0.1884  0.0473
    1C        C   32   2.696   4.113   3.430  0.0993 -0.7305 -0.0415
    1C        C   33   2.569   4.077   3.382 -0.0778 -0.0197 -0.0991
    1C        C   34   2.667   4.023   3.166 -0.4804 -0.1915 -0.0589
    1C        C   35   2.553   4.046   3.246 -0.4273  0.7690 -0.2391
    1C        C   36   2.659   3.962   3.040  0.3538  0.0457 -0.2385
    1C        C   37   2.531   3.947   2.983  0.2186  0.0155  0.0678
    1C        C   38   2.632   3.843   2.788  0.2007 -0.5583 -0.1725
    1C        C   39   2.517   3.887   2.856  0.6205  1.0706 -0.4794
    1C        C   40   2.617   3.776   2.666  0.2012 -0.4424 -0.2386
    1C        C   41   2.490   3.741   2.614 -0.1843  0.9739 -0.2632
    1C        C   42   2.587   3.636   2.420 -0.6651 -0.8385 -0.1823
    1C        C   43   2.475   3.698   2.481  0.1447  0.6661 -0.1961
    1C        C   44   2.578   3.575   2.292  0.3343  0.2428 -0.7782
    1C        C   45   2.453   3.587   2.228 -0.1861  0.0093  0.1943
    1C        C   46   3.051   4.364   4.348  0.5216 -0.7014  0.0756
    1C        C   47   3.033   4.340   4.210 -0.2481  0.1588  0.0163
    1C        C   48   2.918   4.270   4.167 -0.0241 -0.3608  0.2559
    1C        C   49   2.998   4.291   3.935 -0.3610  0.8488  0.3974
    1C        C   50   2.894   4.268   4.028 -0.2083 -0.3293  0.2864
    1C        C   51   2.979   4.263   3.799  0.2393 -0.5896  0.5965
    1C        C   52   2.850   4.230   3.751  0.2179  0.5973 -0.2021
    1C        C   53   2.952   4.172   3.536 -0.4630 -0.2420 -0.0461
    1C        C   54   2.838   4.181   3.619 -0.2202 -0.7577  0.3291
    1C        C   55   2.938   4.122   3.405  0.0974 -0.8197  0.1230
    1C        C   56   2.810   4.103   3.348  0.1426 -0.8077  0.0393
    1C        C   57   2.910   3.981   3.163  0.0928  0.0260  0.5743
    1C        C   58   2.794   4.028   3.229 -0.4935 -0.6091  0.0042
    1C        C   59   2.900   3.922   3.036 -0.0625 -0.2937  0.7328
    1C        C   60   2.773   3.911   2.974  0.3974  0.2688 -0.3460
    1C        C   61   2.867   3.775   2.798  0.0125 -0.4123  0.1170
    1C        C   62   2.761   3.855   2.845  0.1714  0.0035 -0.2149
    1C        C   63   2.844   3.688   2.689 -0.1226 -0.6814  0.3583
    1C        C   64   2.725   3.701   2.614  0.4753  0.1089 -0.4665
    1C        C   65   2.793   3.519   2.472 -0.2400  0.1995 -0.0053
    1C        C   66   2.707   3.629   2.494 -0.5866 -0.0284 -0.2330
    1C        C   67   2.774   3.439   2.358 -0.1272 -0.3837  0.3874
    1C        C   68   2.668   3.466   2.267  0.0577 -0.2126  0.2355
    1C        C   69   2.763   3.296   2.127  0.1998 -0.2524 -0.0134
    1C        C   70   2.694   3.417   2.137  1.1593  0.2766  0.2708
    1C        C   71   3.313   4.565   4.700  0.0104 -0.3378  0.0051
    1C        C   72   3.307   4.519   4.567  0.1722 -0.3270  0.0076
    1C        C   73   3.180   4.476   4.523  0.1493 -0.0571 -0.1707
    1C        C   74   3.268   4.460   4.298  0.0326  0.8421 -0.2663
    1C        C   75   3.159   4.445   4.387  0.2718 -0.2578 -0.1418
    1C        C   76   3.252   4.439   4.159 -0.0940  0.2802 -0.1731
    1C        C   77   3.135   4.372   4.118  0.1348 -0.3968  0.2379
    1C        C   78   3.233   4.317   3.909  0.3726 -0.0719 -0.0249
    1C        C   79   3.116   4.355   3.979  0.3968 -0.3999  0.1996
    1C        C   80   3.221   4.274   3.776  0.2661 -0.5804  0.1481
    1C        C   81   3.094   4.248   3.719  0.1146 -0.2939  0.3676
    1C        C   82   3.194   4.135   3.528 -0.4473  1.3365 -0.2585
    1C        C   83   3.079   4.180   3.597 -0.6471  0.0266  0.2864
    1C        C   84   3.180   4.072   3.403  0.1310  0.5668  0.0658
    1C        C   85   3.053   4.074   3.340  0.2900  0.1579 -0.2481
    1C        C   86   3.146   3.932   3.162 -0.0476 -0.0372 -0.7478
    1C        C   87   3.035   3.992   3.226  0.1938 -0.9525  0.5544
    1C        C   88   3.134   3.858   3.043  0.1987 -0.9870 -0.1881
    1C        C   89   3.008   3.853   2.979 -0.1279 -0.0944  0.3634
    1C        C   90   3.097   3.692   2.817 -0.1104  0.1913 -0.1675
    1C        C   91   2.991   3.771   2.865  0.0316  0.2028  0.1263
    1C        C   92   3.071   3.607   2.707  0.3664 -0.2289  0.0405
    1C        C   93   2.947   3.606   2.640  0.0672 -0.5799  0.5826
    1C        C   94   3.008   3.408   2.518 -0.1988  0.2963 -0.1411
    1C        C   95   2.920   3.517   2.534 -0.1737  0.3191 -0.1343
    1C        C   96   2.986   3.320   2.410  0.2922 -0.0587  0.0447
    1C        C   97   2.868   3.336   2.334  0.0538 -0.2079  0.3901
    1C        C   98   2.893   3.112   2.248  0.0984 -0.1289 -0.1900
    1C        C   99   2.852   3.247   2.226 -0.1556 -0.1244  0.3638
    1C        C  100   2.841   3.005   2.172  0.1004 -0.3139  0.0822
    1C        C  101   3.413   4.702   4.870  0.1691 -0.4046 -0.2538
    1C        C  102   3.540   4.646   4.662 -0.0392  0.7577 -0.2374
    1C        C  103   3.418   4.654   4.736 -0.1681  0.0122 -0.4028
    1C        C  104   3.530   4.601   4.528  0.0454  1.0777 -0.3359
    1C        C  105   3.410   4.548   4.476  0.1992  0.2018  0.2186
    1C        C  106   3.510   4.501   4.264  0.1681 -0.6441  0.4005
    1C        C  107   3.393   4.507   4.342  0.0967  0.2134  0.2333
    1C        C  108   3.494   4.449   4.134 -0.1180  0.2970  0.0506
    1C        C  109   3.367   4.417   4.081  0.0192 -0.5664  0.2057
    1C        C  110   3.475   4.309   3.887  0.5924  0.4171 -0.2391
    1C        C  111   3.360   4.359   3.952  0.4306 -0.3279  0.0679
    1C        C  112   3.461   4.239   3.765 -0.1130 -0.3215  0.2580
    1C        C  113   3.334   4.228   3.704  0.2397  0.5834 -0.6593
    1C        C  114   3.433   4.100   3.518  0.0702  0.3369  0.1310
    1C        C  115   3.321   4.151   3.587 -0.2887  0.0104 -0.2240
    1C        C  116   3.418   4.022   3.401  0.3374  0.5792 -0.0505
    1C        C  117   3.293   4.021   3.336  0.1564  0.3155  0.3237
    1C        C  118   3.379   3.859   3.176 -0.3710  0.2610  0.9039
    1C        C  119   3.274   3.941   3.221 -0.7549 -0.1995  0.8381
    1C        C  120   3.360   3.766   3.071  0.3681  0.7028  0.3884
    1C        C  121   3.237   3.770   3.004  0.4439 -0.8375  0.1353
    1C        C  122   3.299   3.572   2.872  0.1051 -0.1326  0.1087
    1C        C  123   3.214   3.683   2.895 -0.0409 -0.1599 -0.3166
    1C        C  124   3.263   3.474   2.778  0.8049  0.2567 -0.5758
    1C        C  125   3.153   3.493   2.693 -0.1231 -0.6305  0.3879
    1C        C  126   3.193   3.272   2.592  0.3328  0.0072  0.5836
    1C        C  127   3.127   3.397   2.593 -0.5375 -0.4355  0.2965
    1C        C  128   3.160   3.172   2.498 -0.1080  0.0526  0.6818
    1C        C  129   3.051   3.194   2.412  0.1009 -0.1510  0.3623
    1C        C  130   3.064   2.960   2.337 -0.2368  0.1427 -0.0083
    1C        C  131   3.010   3.091   2.325  0.1515  0.2804 -0.1745
    1C        C  132   3.004   2.848   2.273  0.6056 -0.0963 -0.3806
    1C        C  133   2.884   2.877   2.204  0.3929 -0.2469 -0.0588
    1C        C  134   3.781   4.654   4.637 -0.0156 -0.1794  0.5122
    1C        C  135   3.668   4.669   4.717 -0.1376 -0.0538  0.3064
    1C        C  136   3.776   4.599   4.507  0.0916 -0.0292  0.4548
    1C        C  137   3.648   4.574   4.453  0.1964 -0.5476  0.4731
    1C        C  138   3.750   4.462   4.260  0.0723 -0.2171  0.2929
    1C        C  139   3.637   4.515   4.325  0.2525  0.5804 -0.0506
    1C        C  140   3.737   4.399   4.135  0.7462  0.6213 -0.1994
    1C        C  141   3.609   4.391   4.076  0.3982  0.8432  0.5145
    1C        C  142   3.707   4.252   3.898  0.0156  1.0023 -0.4708
    1C        C  143   3.599   4.324   3.952 -0.0064 -0.1221  1.0587
    1C        C  144   3.690   4.176   3.780  0.2253 -0.5962  0.5034
    1C        C  145   3.569   4.168   3.708  0.2449  0.1167  0.3953
    1C        C  146   3.662   4.018   3.544 -0.0868  0.3326 -0.3703
    1C        C  147   3.557   4.103   3.584 -0.1917 -0.2720  0.6440
    1C        C  148   3.643   3.932   3.433  0.3121 -0.2735  0.0338
    1C        C  149   3.523   3.937   3.360  0.2662  0.4012  0.1656
    1C        C  150   3.578   3.733   3.241 -0.4318  0.0832 -0.1837
    1C        C  151   3.494   3.845   3.257  0.5279  0.8245 -0.2781
    1C        C  152   3.559   3.642   3.135 -0.3402 -0.3976  0.2110
    1C        C  153   3.449   3.659   3.048 -0.5107 -0.0454  0.4943
    1C        C  154   3.486   3.438   2.948  0.0293  0.0310  0.0314
    1C        C  155   3.413   3.559   2.955  0.0776  0.0499  0.1711
    1C        C  156   3.442   3.335   2.863 -0.0945  0.1697 -0.0715
    1C        C  157   3.330   3.350   2.778 -0.1435 -0.2707 -0.0861
    1C        C  158   3.358   3.126   2.696  0.0478 -0.8672 -0.0526
    1C        C  159   3.304   3.255   2.677  0.7388 -0.5677 -0.0461
    1C        C  160   3.308   3.022   2.616 -0.6514 -0.2035 -0.4888
    1C        C  161   3.222   3.045   2.506  0.2658  0.0910 -1.1511
    1C        C  162   3.181   2.807   2.485 -0.3445 -0.3143 -0.2909
    1C        C  163   3.154   2.939   2.444 -0.0739 -0.2403 -0.2270
    1C        C  164   3.134   2.699   2.408 -1.1103 -0.3034  0.1666
    1C        C  165   3.060   2.717   2.288 -0.6370 -0.6090 -0.1656
    1C        C  166   3.043   2.485   2.266  0.5042 -0.2610  0.1413
    1C        C  167   3.040   2.608   2.200  0.0239 -0.5526 -0.3753
    1C        C  168   4.024   4.563   4.494 -0.5446 -0.8427  0.5142
    1C        C  169   3.895   4.562   4.436 -0.2782 -0.1379 -0.0848
    1C        C  170   3.984   4.407   4.267  0.5187  0.3055 -0.2268
    1C        C  171   3.876   4.482   4.322  0.2960 -0.0201 -0.2489
    1C        C  172   3.962   4.312   4.166 -0.5201  0.3163 -0.0148
    1C        C  173   3.841   4.314   4.093  0.1192  0.2799 -1.0926
    1C        C  174   3.921   4.144   3.941 -0.1880 -0.7840  0.3931
    1C        C  175   3.828   4.246   3.970  0.3328  0.1565 -1.0472
    1C        C  176   3.895   4.063   3.829  0.0009 -0.2439 -0.0556
    1C        C  177   3.790   4.086   3.738  0.2581 -0.1690 -0.3397
    1C        C  178   3.843   3.874   3.627  0.2285  0.1944 -0.5059
    1C        C  179   3.768   3.993   3.634 -0.3732 -0.1981 -0.1821
    1C        C  180   3.823   3.789   3.516  0.4871  0.1345 -0.5100
    1C        C  181   3.717   3.812   3.426  0.4940 -0.1239 -0.5853
    1C        C  182   3.757   3.592   3.324  0.2070  0.1954  0.3806
    1C        C  183   3.681   3.710   3.334 -0.3620 -0.0935 -0.2998
    1C        C  184   3.722   3.490   3.232 -0.1867  0.2039  0.5070
    1C        C  185   3.631   3.521   3.129  0.4546  0.0865 -0.1087
    1C        C  186   3.630   3.286   3.069  0.4905  0.2806 -0.2624
    1C        C  187   3.580   3.416   3.050  0.1004  0.1727 -0.0015
    1C        C  188   3.581   3.181   2.988 -0.0080  0.3246 -0.0204
    1C        C  189   3.503   3.208   2.874 -0.4119  0.0414  0.1880
    1C        C  190   3.475   2.967   2.839 -0.2926 -0.0945  0.3147
    1C        C  191   3.451   3.101   2.800  0.4199 -0.1080 -0.1903
    1C        C  192   3.406   2.863   2.773 -0.1659 -0.2051  0.3555
    1C        C  193   3.336   2.889   2.654  0.2321  0.1608  0.1910
    1C        C  194   3.274   2.654   2.655 -0.2196  0.7133  0.2344
    1C        C  195   3.260   2.783   2.600  0.4421  0.4235 -0.6567
    1C        C  196   3.200   2.550   2.593 -0.1346  0.3660  0.7022
    1C        C  197   3.148   2.569   2.464  0.9719 -0.1087  0.1689
    1C        C  198   3.066   2.335   2.464 -0.5314  0.3575  0.4210
    1C        C  199   3.089   2.459   2.397 -0.0525  0.2742  0.4384
    1C        C  200   2.965   2.243   2.429  0.4598 -0.5086 -0.2052
    1C        C  201   4.133   4.505   4.429 -0.2259 -0.0540  0.3472
    1C        C  202   4.205   4.301   4.304  0.0177 -0.1131 -0.1293
    1C        C  203   4.112   4.408   4.327  0.4137  0.1989 -0.0171
    1C        C  204   4.180   4.211   4.197 -0.1480 -0.1069 -0.0921
    1C        C  205   4.061   4.221   4.123 -0.3427  0.3727  0.2853
    1C        C  206   4.122   4.017   3.997  0.0126  0.3866 -0.5349
    1C        C  207   4.036   4.127   4.021 -0.0028  0.1936  0.3648
    1C        C  208   4.082   3.922   3.901 -0.1297 -0.1520  0.0469
    1C        C  209   3.975   3.947   3.813 -0.1115 -0.3305 -0.0375
    1C        C  210   4.043   3.745   3.690  1.0499  0.7102 -0.2985
    1C        C  211   3.956   3.854   3.709  0.0350 -0.0794 -0.2999
    1C        C  212   4.013   3.654   3.586  0.1374  0.0212  0.5511
    1C        C  213   3.907   3.678   3.495 -0.4085 -0.8466  0.9415
    1C        C  214   3.924   3.449   3.426 -0.5686 -0.5062  0.9335
    1C        C  215   3.874   3.579   3.401  0.3557 -0.3039  0.0846
    1C        C  216   3.886   3.346   3.338  0.2314  0.1201 -0.1762
    1C        C  217   3.796   3.370   3.232 -0.7353 -0.1456  0.5612
    1C        C  218   3.762   3.130   3.197  0.9460 -0.3646 -0.8052
    1C        C  219   3.737   3.264   3.159  0.2019 -0.2754 -0.0428
    1C        C  220   3.705   3.024   3.124 -0.6219 -0.3764  0.3674
    1C        C  221   3.630   3.050   3.008 -0.4523  0.2205  0.3939
    1C        C  222   3.574   2.810   2.993 -0.1008  0.1168  0.3526
    1C        C  223   3.560   2.943   2.949  0.3671 -0.0072 -0.1730
    1C        C  224   3.494   2.706   2.942  0.4286  0.0080 -0.2762
    1C        C  225   3.423   2.732   2.823  0.5495 -0.4400 -0.4523
    1C        C  226   3.347   2.500   2.826  0.0812  0.0308 -0.0918
    1C        C  227   3.365   2.622   2.757  0.3982 -0.2852 -0.5955
    1C        C  228   3.263   2.398   2.774 -0.2314 -0.1370  0.7077
    1C        C  229   3.192   2.423   2.655  0.3639  0.1861  0.4121
    1C        C  230   3.100   2.198   2.667  0.5143  0.0338 -0.5859
    1C        C  231   3.122   2.317   2.594  0.9701  0.1576 -0.2403
    1C        C  232   3.023   2.093   2.610  0.3290  0.0753 -0.3979
    1C        C  233   2.960   2.116   2.486 -0.5889 -0.3898 -0.0217
    1C        C  234   4.395   4.166   4.372  0.0060 -0.6280  0.5813
    1C        C  235   4.301   4.265   4.400  0.2451 -0.1230 -0.3630
    1C        C  236   4.388   4.089   4.254 -0.3011  0.2538  0.0143
    1C        C  237   4.277   4.111   4.168 -0.2582 -0.1913 -0.1512
    1C        C  238   4.329   3.906   4.045 -0.2331 -0.4370  0.7476
    1C        C  239   4.241   4.013   4.073 -0.1640 -0.1020 -0.2773
    1C        C  240   4.284   3.796   3.970  0.2365  0.0777 -0.3028
    1C        C  241   4.167   3.810   3.891 -0.3712 -0.3843  0.5002
    1C        C  242   4.224   3.606   3.767  0.0348 -0.3754  0.4220
    1C        C  243   4.141   3.718   3.787 -0.1565 -0.5589  0.6015
    1C        C  244   4.192   3.504   3.675  0.4732  0.0914 -0.2350
    1C        C  245   4.079   3.530   3.594 -1.1140 -0.5877  1.7201
    1C        C  246   4.061   3.291   3.548  0.0020  0.1780  0.3942
    1C        C  247   4.031   3.424   3.514  0.7715  0.1306 -0.4663
    1C        C  248   3.998   3.184   3.479  0.3261  0.1595  0.1454
    1C        C  249   3.919   3.212   3.366 -0.9047  0.0475  0.9567
    1C        C  250   3.860   2.973   3.353  0.2763 -0.1418 -0.2571
    1C        C  251   3.851   3.105   3.303  0.0879 -0.0556  0.0069
    1C        C  252   3.781   2.869   3.299  0.4921 -0.4935  0.1057
    1C        C  253   3.713   2.893   3.178  0.5044 -0.4199  0.1165
    1C        C  254   3.638   2.666   3.182 -0.4268  0.0918  0.5705
    1C        C  255   3.646   2.788   3.112  0.2287 -0.2233  0.0896
    1C        C  256   3.560   2.561   3.130  0.4457 -0.1577 -0.2477
    1C        C  257   3.493   2.581   3.007 -0.1493  0.2150  0.1327
    1C        C  258   3.379   2.368   3.027  0.3516 -0.1939 -0.5007
    1C        C  259   3.413   2.480   2.949  0.2637  0.0616 -0.1789
    1C        C  260   3.295   2.265   2.979 -0.0789 -0.2545  0.3738
    1C        C  261   3.244   2.280   2.849  0.6297 -0.7188  0.0379
    1C        C  262   3.113   2.078   2.878 -0.1871 -0.2505 -0.1406
    1C        C  263   3.158   2.182   2.794 -1.4622  0.8049  0.4543
    1C        C  264   3.024   1.979   2.831 -0.5825 -0.0930  0.3092
    1C        C  265   2.981   1.987   2.696  0.5123  0.3284 -0.0121
    1C        C  266   2.816   1.811   2.741 -0.2724  0.0361 -0.5306
    1C        C  267   2.909   1.872   2.654  0.1152  0.5076  0.2074
    1C        C  268   4.614   3.979   4.272  0.2992 -0.3423 -1.1788
    1C        C  269   4.486   3.993   4.214 -0.4077 -0.0134  0.3956
    1C        C  270   4.509   3.766   4.123  0.0191 -0.1532  0.1455
    1C        C  271   4.445   3.893   4.124  0.2031 -0.0641  0.1732
    1C        C  272   4.471   3.657   4.042 -0.3020 -0.0310  0.1409
    1C        C  273   4.364   3.681   3.954 -0.3604 -0.3970  0.1225
    1C        C  274   4.347   3.449   3.905  0.0372 -0.5791  0.1204
    1C        C  275   4.327   3.582   3.861  0.3133 -0.5731  0.0520
    1C        C  276   4.293   3.342   3.831  0.2013 -0.4616 -0.1419
    1C        C  277   4.216   3.372   3.717 -0.0476  0.1529  0.2070
    1C        C  278   4.179   3.130   3.688  0.3057  0.0923  0.0370
    1C        C  279   4.155   3.264   3.650  0.5305  0.0635 -0.1436
    1C        C  280   4.105   3.025   3.630  0.1188  0.2090  0.0924
    1C        C  281   4.019   3.052   3.522  0.4317  0.0753 -0.1830
    1C        C  282   3.931   2.827   3.533  0.4561  0.0899 -0.0615
    1C        C  283   3.949   2.947   3.459  0.0079  0.2229  0.0528
    1C        C  284   3.858   2.720   3.477 -0.2700  0.3697  0.3525
    1C        C  285   3.785   2.741   3.358 -0.6504 -0.3762  0.4537
    1C        C  286   3.697   2.513   3.368 -0.9909 -0.2479  0.8517
    1C        C  287   3.708   2.637   3.302  0.5036 -0.9018 -0.1889
    1C        C  288   3.605   2.419   3.318 -0.2143 -0.3838 -0.3726
    1C        C  289   3.542   2.436   3.193 -0.6619  0.0741 -0.0882
    1C        C  290   3.413   2.236   3.233  0.1672  0.0685  0.4439
    1C        C  291   3.444   2.345   3.149 -0.0147 -0.4937 -0.3592
    1C        C  292   3.319   2.142   3.187  0.2165  0.1575  0.1762
    1C        C  293   3.266   2.150   3.056  0.1983 -0.4740  0.1464
    1C        C  294   3.095   1.985   3.102  0.5026 -0.4843 -0.4832
    1C        C  295   3.153   2.078   3.013 -0.0669  0.1501 -0.1879
    1C        C  296   2.995   1.896   3.059  0.3245 -0.5712  0.1570
    1C        C  297   2.958   1.893   2.923 -0.1576 -0.4093  0.2986
    1C        C  298   2.770   1.746   2.978  0.3877  0.0536 -0.1864
    1C        C  299   2.847   1.815   2.879 -0.2979  0.2859 -0.5426
    1C        C  300   2.669   1.651   2.953  0.4550 -0.2382  0.6602
    1C        C  301   4.685   3.859   4.266  0.3015 -0.4151 -0.0079
    1C        C  302   4.658   3.613   4.249  0.2734 -0.1929  0.1689
    1C        C  303   4.619   3.745   4.212  0.5490 -0.3075 -0.5373
    1C        C  304   4.579   3.507   4.196 -0.1904  0.1212  0.2363
    1C        C  305   4.511   3.526   4.074  0.2579  0.1034 -0.0126
    1C        C  306   4.475   3.292   4.044  0.3629  0.1893  0.3301
    1C        C  307   4.445   3.423   4.002  0.2837  0.0673  0.0319
    1C        C  308   4.394   3.190   3.989  0.7039  0.1590 -0.0877
    1C        C  309   4.319   3.209   3.871  0.0442 -0.3526  0.2671
    1C        C  310   4.239   2.984   3.880 -0.1027 -0.3204 -0.1561
    1C        C  311   4.254   3.103   3.804  0.1672 -0.2555  0.0243
    1C        C  312   4.148   2.891   3.828  0.2740 -0.4392 -0.5802
    1C        C  313   4.077   2.910   3.707 -0.5744  0.3516  0.0378
    1C        C  314   3.980   2.689   3.729  0.8113 -0.3632  0.2121
    1C        C  315   4.006   2.802   3.649 -0.1927 -0.0488  0.3251
    1C        C  316   3.885   2.596   3.682  0.2444  0.2540  0.1421
    1C        C  317   3.834   2.603   3.551 -0.1539  0.3181  0.3017
    1C        C  318   3.699   2.406   3.588  0.0486  0.0580  0.2036
    1C        C  319   3.750   2.502   3.498  0.8257 -0.4211  0.1278
    1C        C  320   3.605   2.314   3.538 -0.3929  0.4164  0.3847
    1C        C  321   3.556   2.320   3.406 -0.1201  0.1440  0.2766
    1C        C  322   3.397   2.139   3.455 -0.1028 -0.4086  0.0957
    1C        C  323   3.444   2.242   3.371  0.0318 -0.1605  0.4803
    1C        C  324   3.282   2.068   3.416 -0.6176  0.4733 -0.0041
    1C        C  325   3.245   2.065   3.280  0.1121 -0.1698 -0.1883
    1C        C  326   3.050   1.930   3.333 -0.2510  0.7715 -0.3766
    1C        C  327   3.137   1.985   3.236  0.4218 -0.4262 -0.4700
    1C        C  328   2.930   1.868   3.293  0.1364 -0.2827  0.0899
    1C        C  329   2.903   1.848   3.156 -0.3729  0.5795  0.0675
    1C        C  330   2.686   1.761   3.208  0.0646  0.2925  0.2826
    1C        C  331   2.794   1.769   3.116 -0.3499  0.6827 -0.1703
    1C        C  332   2.559   1.715   3.162  0.2022  0.1870  0.0140
    1C        C  333   2.563   1.638   3.043 -0.1261  0.1367  0.0389
    1C        C  334   4.754   3.454   4.405  0.1361 -0.0390  0.2147
    1C        C  335   4.734   3.585   4.365  0.4388 -0.0281  0.0978
    1C        C  336   4.676   3.349   4.352  0.8930 -0.2523 -0.5051
    1C        C  337   4.595   3.373   4.238  0.9292  0.0275 -0.4722
    1C        C  338   4.525   3.144   4.237  0.2479 -0.4785  0.0368
    1C        C  339   4.544   3.264   4.164 -0.0530 -0.1634  0.4799
    1C        C  340   4.446   3.043   4.179 -0.0569 -0.0823 -0.2387
    1C        C  341   4.385   3.065   4.053  0.1283  0.1053 -0.2863
    1C        C  342   4.284   2.842   4.073  0.3665  0.2739 -0.4801
    1C        C  343   4.296   2.966   4.008 -1.4390  1.0632  0.6482
    1C        C  344   4.183   2.753   4.030  1.3367 -0.8686 -0.4249
    1C        C  345   4.123   2.774   3.904 -0.4835  0.5048  0.6393
    1C        C  346   3.988   2.571   3.941 -0.1592 -0.0349  0.3781
    1C        C  347   4.034   2.675   3.858 -0.1768  0.2132  0.6889
    1C        C  348   3.877   2.495   3.896  0.0194 -0.0477 -0.0300
    1C        C  349   3.849   2.483   3.759 -0.5226  0.4307  0.0420
    1C        C  350   3.667   2.329   3.812 -0.2612  0.5220 -0.1300
    1C        C  351   3.752   2.389   3.717  0.5801 -0.6400 -0.1100
    1C        C  352   3.562   2.246   3.768 -0.0266 -0.0988  0.4881
    1C        C  353   3.521   2.250   3.633  0.0713 -0.0698  0.4660
    1C        C  354   3.334   2.109   3.690  0.3519  0.0279  0.1291
    1C        C  355   3.425   2.155   3.593  0.1931  0.0179 -0.0180
    1C        C  356   3.219   2.038   3.651  0.2423  0.1914  0.1664
    1C        C  357   3.194   2.018   3.514 -0.1871  0.2101  0.2451
    1C        C  358   2.967   1.952   3.560 -0.2385  0.3274 -0.5532
    1C        C  359   3.069   1.975   3.465 -0.0761  0.5337 -0.3251
    1C        C  360   2.841   1.904   3.519 -0.4635  0.2279  0.2363
    1C        C  361   2.833   1.842   3.392  0.0928  0.2606  0.1852
    1C        C  362   2.594   1.828   3.418 -0.4547  0.4382 -0.6447
    1C        C  363   2.709   1.798   3.342  0.1065  0.0493  0.3404
    1C        C  364   2.463   1.813   3.366 -0.6238 -0.1981 -0.0473
    1C        C  365   2.445   1.759   3.236  0.0006  0.1754 -0.2926
    1C        C  366   2.222   1.846   3.225  0.5669  0.8486  0.1177
    1C        C  367   2.327   1.779   3.162 -0.1619 -0.0984 -0.1071
    1C        C  368   4.766   3.185   4.514  0.4227  0.3743  0.0034
    1C        C  369   4.682   3.217   4.406  0.0178 -0.0163  0.2036
    1C        C  370   4.586   2.991   4.419 -0.4048 -0.2100 -0.0727
    1C        C  371   4.603   3.114   4.350  0.0518 -0.0805  0.2800
    1C        C  372   4.477   2.909   4.381 -0.2043 -0.2432 -0.5763
    1C        C  373   4.424   2.924   4.251 -0.8789  0.0458 -0.2704
    1C        C  374   4.280   2.735   4.297 -0.6672 -0.0020  0.1496
    1C        C  375   4.324   2.835   4.208 -0.3444 -0.5454 -0.3073
    1C        C  376   4.179   2.647   4.252  0.4895 -1.0118 -0.5246
    1C        C  377   4.133   2.655   4.118 -0.1879  0.0488 -0.2421
    1C        C  378   3.964   2.486   4.167  0.0852 -0.6656  0.1266
    1C        C  379   4.036   2.563   4.073  0.0428 -0.4503  0.2766
    1C        C  380   3.849   2.416   4.125 -0.0101 -0.3655 -0.0955
    1C        C  381   3.805   2.421   3.991 -0.1535  0.1430 -0.0224
    1C        C  382   3.618   2.275   4.045 -0.0519 -0.1778 -0.3271
    1C        C  383   3.691   2.349   3.949 -0.1127  0.1471 -0.1102
    1C        C  384   3.500   2.209   4.003 -0.5235  0.4438  0.0196
    1C        C  385   3.474   2.194   3.866 -0.2777 -0.4559  0.0692
    1C        C  386   3.254   2.105   3.917 -0.6352  0.3139  0.2027
    1C        C  387   3.363   2.116   3.828 -0.4749 -0.2898  0.3182
    1C        C  388   3.128   2.059   3.876 -0.1989 -0.4890 -0.2609
    1C        C  389   3.114   2.014   3.743 -0.2717  0.0852 -0.4481
    1C        C  390   2.875   1.984   3.784 -0.2079  0.7445 -0.5056
    1C        C  391   2.984   1.986   3.696 -0.3899  1.0551 -0.7173
    1C        C  392   2.746   1.954   3.734 -0.2560 -0.5635  0.3807
    1C        C  393   2.728   1.906   3.603 -0.3988 -0.3633  0.3349
    1C        C  394   2.492   1.938   3.618  0.6774  0.9376 -0.1325
    1C        C  395   2.600   1.882   3.548 -0.1110 -0.3530 -0.3308
    1C        C  396   2.364   1.919   3.562  0.3875  0.2327  0.7830
    1C        C  397   2.347   1.856   3.437  0.1116  1.1464  0.3647
    1C        C  398   2.111   1.906   3.442  0.1138 -0.4606  0.5727
    1C        C  399   2.225   1.867   3.364  0.1529  0.4153  0.1892
    1C        C  400   1.980   1.860   3.416 -0.0237  0.1587  0.1744
    1C        C  401   4.758   3.059   4.575 -0.3560  0.5819  0.3239
    1C        C  402   4.573   2.900   4.641  0.1895 -0.4389 -0.5354
    1C        C  403   4.649   2.973   4.544 -0.1445  0.4765 -0.1064
    1C        C  404   4.469   2.812   4.601 -0.0686 -0.1024 -0.5725
    1C        C  405   4.409   2.827   4.474 -0.4237  0.1674 -0.3730
    1C        C  406   4.237   2.664   4.529 -0.3152  0.1654  0.1263
    1C        C  407   4.317   2.729   4.433 -0.1340 -0.2590 -0.0078
    1C        C  408   4.122   2.598   4.481 -0.2224  0.2235 -0.1768
    1C        C  409   4.107   2.569   4.344  0.3394 -0.3929 -0.1155
    1C        C  410   3.910   2.433   4.399 -0.5457  0.5902 -0.0069
    1C        C  411   3.999   2.487   4.304  0.0421 -0.1221  0.1317
    1C        C  412   3.787   2.379   4.356 -0.0067 -0.3463 -0.3810
    1C        C  413   3.758   2.363   4.219  0.0674 -0.8901 -0.3279
    1C        C  414   3.544   2.268   4.279 -0.0580  0.1150  0.0701
    1C        C  415   3.645   2.286   4.183 -0.3008 -0.3632 -0.2716
    1C        C  416   3.416   2.230   4.232 -0.0799  0.2032  0.0786
    1C        C  417   3.398   2.188   4.098 -0.1044 -0.4397  0.2852
    1C        C  418   3.164   2.167   4.137 -0.3317 -0.3569  0.5907
    1C        C  419   3.274   2.138   4.053 -0.4485  0.5550  0.1164
    1C        C  420   3.036   2.145   4.082  0.0173  0.9307 -0.8159
    1C        C  421   3.017   2.076   3.961  0.0119 -0.6331  0.0434
    1C        C  422   2.778   2.097   3.982  0.0347 -0.2205  0.0632
    1C        C  423   2.888   2.050   3.909 -0.0529 -0.6566  0.2264
    1C        C  424   2.650   2.075   3.927  0.0169 -0.2863  0.1666
    1C        C  425   2.636   2.012   3.801 -0.1352  0.0186  0.0492
    1C        C  426   2.400   2.075   3.796 -0.2202  0.0986  0.6183
    1C        C  427   2.512   2.013   3.735 -0.1298  0.8074  0.0763
    1C        C  428   2.273   2.070   3.734 -0.0581  0.0681  0.3140
    1C        C  429   2.255   1.985   3.623  0.1062  0.5321 -0.0537
    1C        C  430   2.017   2.053   3.612  0.1039  0.5215  0.0239
    1C        C  431   2.128   1.980   3.562  0.1954  0.8666 -0.2456
    1C        C  432   1.893   2.054   3.542  0.2726  0.2243 -0.2631
    1C        C  433   1.877   1.944   3.456 -0.0495  0.4178 -0.4383
    1C        C  434   4.555   2.807   4.867 -0.0625  0.2220 -0.0034
    1C        C  435   4.623   2.882   4.772 -0.2301 -0.0463 -0.3255
    1C        C  436   4.432   2.746   4.837  0.2040 -0.3287  0.0481
    1C        C  437   4.398   2.737   4.699 -0.1231  0.7871  0.0619
    1C        C  438   4.193   2.612   4.758  0.1111  0.1821 -0.2193
    1C        C  439   4.281   2.668   4.663  0.2049  0.3005 -0.0509
    1C        C  440   4.065   2.569   4.715  0.1049  0.1893 -0.1822
    1C        C  441   4.047   2.531   4.580 -0.1880  0.2294 -0.1498
    1C        C  442   3.834   2.438   4.632 -0.1133 -0.1536 -0.0890
    1C        C  443   3.934   2.460   4.535  0.0637 -0.3055  0.0682
    1C        C  444   3.706   2.400   4.585 -0.0736  0.3207 -0.5644
    1C        C  445   3.687   2.355   4.452  0.2726 -0.8368 -0.2222
    1C        C  446   3.447   2.329   4.496 -0.0170  0.3053  0.3907
    1C        C  447   3.559   2.313   4.412 -0.3551  0.9907 -0.1908
    1C        C  448   3.319   2.305   4.441  0.3423  0.4327 -0.5060
    1C        C  449   3.302   2.258   4.309 -0.3643  0.9062 -0.5858
    1C        C  450   3.066   2.278   4.332 -0.6392  0.5368  0.1747
    1C        C  451   3.174   2.213   4.270 -0.5349  0.6167  0.2702
    1C        C  452   2.939   2.268   4.271 -0.4620 -0.4042 -0.0478
    1C        C  453   2.923   2.197   4.149 -0.1312 -0.0020 -0.3253
    1C        C  454   2.683   2.251   4.146  0.0133  0.2525  0.1253
    1C        C  455   2.795   2.183   4.093 -0.3119 -0.3094  0.1723
    1C        C  456   2.555   2.232   4.090  0.0946 -0.1841  0.1073
    1C        C  457   2.540   2.146   3.979  0.0735 -0.2307  0.1640
    1C        C  458   2.311   2.237   3.954 -0.2116  0.1768  0.2146
    1C        C  459   2.416   2.153   3.912 -0.0013  0.3694  0.3928
    1C        C  460   2.181   2.228   3.899 -0.2178  0.1605  0.2524
    1C        C  461   2.164   2.140   3.790  0.0987  0.8189 -0.3311
    1C        C  462   1.951   2.247   3.740 -0.2723  0.1934  0.5419
    1C        C  463   2.043   2.143   3.718 -0.4546  0.0429  0.5645
    1C        C  464   1.840   2.261   3.654  0.5703  0.3395 -0.5214
    1C        C  465   1.799   2.159   3.565 -0.1442 -0.3414  0.5926
    1C        C  466   1.585   2.281   3.530  0.3832  0.6985 -0.2011
    1C        C  467   1.666   2.168   3.517  0.3922  0.7698 -0.7325
    1C        C  468   4.373   2.678   5.074 -0.1532 -0.2711 -0.1104
    1C        C  469   4.342   2.697   4.938 -0.2315  0.4033  0.0040
    1C        C  470   4.118   2.606   4.984  0.4029 -0.8010 -0.0152
    1C        C  471   4.222   2.639   4.893 -0.2775  0.7226 -0.2500
    1C        C  472   3.994   2.551   4.946  0.1697  0.1559 -0.6375
    1C        C  473   3.974   2.519   4.810  0.3414 -0.7342 -0.4470
    1C        C  474   3.739   2.487   4.852  0.3969 -0.4135  0.3021
    1C        C  475   3.851   2.463   4.769  0.1050 -0.4689 -0.0658
    1C        C  476   3.610   2.472   4.796  0.6046  0.3946 -0.3848
    1C        C  477   3.593   2.427   4.664  0.1292  0.3312 -0.2912
    1C        C  478   3.351   2.430   4.693  0.0390  0.4047  0.2491
    1C        C  479   3.465   2.382   4.626  0.0119  0.0093  0.4998
    1C        C  480   3.223   2.418   4.634  0.3477  0.7316 -0.4741
    1C        C  481   3.206   2.354   4.509  0.3979  0.0111 -0.1142
    1C        C  482   2.968   2.415   4.508 -0.1601  0.0843 -0.4122
    1C        C  483   3.075   2.338   4.459  0.2204  0.1506  0.3020
    1C        C  484   2.841   2.404   4.447 -0.5081  0.0815  0.2958
    1C        C  485   2.828   2.335   4.325 -0.0487  0.0423  0.2631
    1C        C  486   2.603   2.425   4.294  0.2673  0.2616 -0.2328
    1C        C  487   2.709   2.343   4.249  0.7073  1.1413 -0.8339
    1C        C  488   2.474   2.413   4.238  0.4131  0.1465 -0.5434
    1C        C  489   2.457   2.325   4.129 -0.1381 -0.3766 -0.0411
    1C        C  490   2.245   2.435   4.081 -0.5275 -0.0655  0.4019
    1C        C  491   2.337   2.331   4.056 -0.0779  0.4440 -0.0754
    1C        C  492   2.122   2.436   4.012 -0.1893  0.3027 -0.1983
    1C        C  493   2.091   2.335   3.919  0.0699  0.5506 -0.5386
    1C        C  494   1.907   2.470   3.836 -0.2373  0.6651  0.1725
    1C        C  495   1.979   2.349   3.834 -0.6432  0.4291  0.3800
    1C        C  496   1.800   2.487   3.745  0.4339  0.4065 -0.6567
    1C        C  497   1.761   2.379   3.664  0.1404 -0.0043  0.0433
    1C        C  498   1.608   2.530   3.546 -0.3096  0.3755 -0.3509
    1C        C  499   1.645   2.398   3.585  0.2902  0.6476 -0.0101
    1C        C  500   1.526   2.560   3.435 -0.6232  0.1417 -0.1767
    1C        C  501   4.276   2.634   5.165 -0.1709 -0.6395 -0.3177
    1C        C  502   4.027   2.659   5.204 -0.1597  0.3045  0.1194
    1C        C  503   4.141   2.629   5.122 -0.2780  0.5733 -0.1275
    1C        C  504   3.896   2.626   5.160  0.0551 -0.3935  0.0305
    1C        C  505   3.882   2.584   5.026  0.4308 -0.7751  0.1196
    1C        C  506   3.641   2.587   5.050  0.2704 -0.3896  0.1151
    1C        C  507   3.755   2.561   4.971  0.3215 -0.1179  0.1146
    1C        C  508   3.513   2.568   4.995  0.2849 -0.5712  0.1658
    1C        C  509   3.495   2.502   4.872  0.5865  0.6139 -0.5201
    1C        C  510   3.255   2.566   4.871  0.1862 -0.0797  0.5071
    1C        C  511   3.365   2.497   4.816  0.2328  0.1383  0.3594
    1C        C  512   3.130   2.567   4.805  0.7260  0.5840 -0.4986
    1C        C  513   3.119   2.499   4.682  0.3634  0.8011 -0.5763
    1C        C  514   2.884   2.579   4.662  0.5752  0.2692 -0.2701
    1C        C  515   2.992   2.498   4.619  0.2377 -0.1580 -0.3161
    1C        C  516   2.763   2.587   4.590  0.4068  0.3630  0.0265
    1C        C  517   2.737   2.485   4.496 -0.3735  0.1706  0.4471
    1C        C  518   2.535   2.605   4.433  0.0498 -0.2866  0.1485
    1C        C  519   2.621   2.494   4.416 -0.4437 -0.7175  0.4382
    1C        C  520   2.411   2.610   4.368  0.1829  0.2379 -0.0607
    1C        C  521   2.387   2.522   4.260  0.4838  0.0917  0.0010
    1C        C  522   2.200   2.653   4.184  0.2832 -0.1619  0.5632
    1C        C  523   2.281   2.538   4.170  0.0645 -0.2941  0.4252
    1C        C  524   2.092   2.667   4.094  0.2233 -0.2502  0.6327
    1C        C  525   2.049   2.557   4.018 -0.8836 -0.1644  1.1326
    1C        C  526   1.888   2.701   3.905  0.5028  0.6371 -0.0095
    1C        C  527   1.948   2.574   3.921  0.0674  0.4734  0.2429
    1C        C  528   1.806   2.724   3.793 -0.2385  0.2694  0.4637
    1C        C  529   1.751   2.617   3.719 -0.0376  0.3853  0.1600
    1C        C  530   1.629   2.773   3.572 -0.6516  0.1264  0.5618
    1C        C  531   1.654   2.642   3.620  0.1715  0.0251 -0.1286
    1C        C  532   1.528   2.797   3.475 -0.4244 -0.0584  0.2919
    1C        C  533   1.468   2.685   3.414 -0.8494  0.1273  0.3847
    1C        C  534   3.927   2.748   5.411 -0.3419  0.7011 -0.1320
    1C        C  535   4.037   2.704   5.337 -0.1529  1.3253 -0.2230
    1C        C  536   3.798   2.737   5.356 -0.5491 -0.6225  0.5895
    1C        C  537   3.782   2.664   5.235  0.2250  0.3580 -0.1071
    1C        C  538   3.548   2.733   5.221  0.3318  0.4171 -0.6209
    1C        C  539   3.657   2.660   5.170  0.0274 -0.7209  0.3405
    1C        C  540   3.431   2.743   5.142 -0.0151 -0.0536 -0.1620
    1C        C  541   3.409   2.655   5.035  0.4048 -0.3722  0.0184
    1C        C  542   3.184   2.752   5.014  0.0494 -0.0253  0.1805
    1C        C  543   3.281   2.656   4.975  0.4712  0.5229 -0.0930
    1C        C  544   3.062   2.757   4.942  0.5096 -0.0093 -0.5920
    1C        C  545   3.033   2.662   4.842  0.0033 -0.2940 -0.1606
    1C        C  546   2.822   2.770   4.797  0.5248  0.4180 -0.4413
    1C        C  547   2.910   2.662   4.773 -0.4763 -0.6722  0.6978
    1C        C  548   2.709   2.783   4.714  0.6714 -0.2063 -0.7257
    1C        C  549   2.664   2.680   4.629 -0.2195 -0.1652 -0.3040
    1C        C  550   2.499   2.825   4.527 -0.2442  0.0658  0.3569
    1C        C  551   2.573   2.705   4.525 -0.0477  0.2043 -0.3548
    1C        C  552   2.389   2.841   4.440 -0.5906 -0.1590  0.7628
    1C        C  553   2.364   2.741   4.344  0.3177  0.3016  0.0393
    1C        C  554   2.193   2.886   4.238 -0.1184 -0.0590  0.1129
    1C        C  555   2.248   2.759   4.264  0.0456  0.0750  0.3873
    1C        C  556   2.089   2.909   4.146 -0.4161  0.3455  0.5637
    1C        C  557   2.034   2.795   4.084  0.7383 -0.0499  0.2601
    1C        C  558   1.921   2.940   3.928  0.4291 -0.0963 -0.3688
    1C        C  559   1.943   2.810   3.977  0.2860  0.2786  0.6961
    1C        C  560   1.852   2.961   3.807  0.5694  0.3528 -0.3668
    1C        C  561   1.781   2.855   3.748 -0.6948  0.3836  1.0489
    1C        C  562   1.703   3.002   3.567  0.3305 -0.5012 -0.2677
    1C        C  563   1.701   2.878   3.633  0.6779 -0.3988 -0.0821
    1C        C  564   1.621   3.023   3.453  0.0878 -0.1162 -0.0094
    1C        C  565   1.536   2.921   3.406  0.1001 -0.1827  0.1472
    1C        C  566   1.432   3.091   3.262 -0.1171  0.1399 -0.4376
    1C        C  567   1.445   2.958   3.305  0.0311  0.4398  0.4457
    1C        C  568   3.684   2.876   5.532  0.3115 -0.4577  1.0029
    1C        C  569   3.686   2.810   5.407  0.2865  0.9037  0.2736
    1C        C  570   3.476   2.926   5.352 -0.2527 -0.8827  0.1399
    1C        C  571   3.571   2.823   5.327  0.2769 -0.3727  0.0631
    1C        C  572   3.367   2.946   5.265  0.6819  0.2735 -0.7790
    1C        C  573   3.347   2.855   5.159 -0.5333 -0.4833  0.0898
    1C        C  574   3.128   2.963   5.124 -1.0420 -0.1287 -0.1020
    1C        C  575   3.216   2.855   5.105 -0.4851  0.3156 -0.0280
    1C        C  576   3.018   2.977   5.037 -0.8853  0.0738 -0.2599
    1C        C  577   2.975   2.866   4.961  0.2467 -0.2677 -0.3928
    1C        C  578   2.788   2.998   4.876 -0.5112 -0.1110 -0.1695
    1C        C  579   2.857   2.875   4.884  0.0851  0.2381 -0.0649
    1C        C  580   2.676   3.011   4.792 -0.4441 -0.4828 -0.3030
    1C        C  581   2.638   2.905   4.707  0.3446 -0.4083 -0.7403
    1C        C  582   2.481   3.058   4.595 -0.4795  0.0638  0.2043
    1C        C  583   2.545   2.933   4.605  0.3624  0.4348 -0.5157
    1C        C  584   2.385   3.079   4.493 -0.6175  0.3535  0.3998
    1C        C  585   2.331   2.968   4.425  0.1914  0.1249  0.1157
    1C        C  586   2.218   3.123   4.273 -0.2755 -0.3485 -0.1556
    1C        C  587   2.245   2.991   4.316  0.2175 -0.1785  0.0406
    1C        C  588   2.116   3.146   4.179 -0.7943  0.2059  0.5441
    1C        C  589   2.061   3.041   4.103  0.3374  0.2230 -0.3108
    1C        C  590   1.956   3.187   3.948  0.1081 -0.0238 -0.2763
    1C        C  591   1.972   3.054   3.994  0.7053 -0.0738 -0.6365
    1C        C  592   1.900   3.201   3.820  0.0879  0.1020 -0.2469
    1C        C  593   1.835   3.093   3.757  0.6974  0.1448 -0.9613
    1C        C  594   1.755   3.238   3.586  0.2570  0.1167 -0.6875
    1C        C  595   1.774   3.106   3.631 -0.4213  0.1108 -0.4280
    1C        C  596   1.686   3.262   3.465  0.0656 -0.5978 -0.7123
    1C        C  597   1.610   3.157   3.409 -0.2616 -0.3711 -0.6595
    1C        C  598   1.587   3.279   3.202 -0.2387  0.5168  0.0444
    1C        C  599   1.529   3.189   3.296 -0.5563  0.4798 -0.2029
    1C        C  600   1.553   3.281   3.065  0.7864 -0.6446 -0.2371
    1C        C  601   3.589   2.973   5.565 -0.0191 -0.3854 -0.1203
    1C        C  602   3.422   3.132   5.467 -0.0428 -0.4771  0.3991
    1C        C  603   3.493   3.008   5.467  0.2227 -0.3251 -0.3316
    1C        C  604   3.322   3.163   5.372  0.0648 -1.0159  0.1121
    1C        C  605   3.290   3.063   5.277 -0.4123 -0.4875 -0.2896
    1C        C  606   3.086   3.183   5.221  0.1254  0.1868  0.7371
    1C        C  607   3.164   3.065   5.214 -0.3016 -0.0391 -0.4956
    1C        C  608   2.972   3.197   5.139  0.6218  0.0703  0.0106
    1C        C  609   2.938   3.092   5.051 -0.0804  0.6474 -0.4141
    1C        C  610   2.775   3.231   4.940  0.1120  0.0355 -0.1803
    1C        C  611   2.830   3.103   4.961 -0.3712 -0.1765 -0.1657
    1C        C  612   2.687   3.253   4.832 -0.1686 -0.1872 -0.0069
    1C        C  613   2.633   3.142   4.764 -0.0005 -0.2745 -0.0013
    1C        C  614   2.488   3.294   4.630 -0.5414 -0.1458  0.3055
    1C        C  615   2.529   3.166   4.672 -0.0281 -0.0543  0.0860
    1C        C  616   2.399   3.322   4.524  0.4508  0.4091 -0.3972
    1C        C  617   2.362   3.210   4.446 -0.3938  0.2990  0.1476
    1C        C  618   2.259   3.364   4.285 -0.5819 -0.3730  0.2107
    1C        C  619   2.284   3.233   4.331 -0.2700 -0.4057 -0.0760
    1C        C  620   2.189   3.378   4.164 -0.0989 -0.0678 -0.0242
    1C        C  621   2.108   3.272   4.116 -0.0253 -0.0744 -0.0978
    1C        C  622   2.023   3.422   3.943 -0.7346  0.3095  0.5103
    1C        C  623   2.024   3.296   4.006  0.3114 -0.1216 -0.3529
    1C        C  624   1.973   3.432   3.811 -0.1333 -0.2295  0.2442
    1C        C  625   1.907   3.323   3.750 -0.8997  0.3372  0.0567
    1C        C  626   1.876   3.454   3.551  0.2643  0.3093 -0.1193
    1C        C  627   1.837   3.344   3.629 -0.2594  0.3611 -0.3078
    1C        C  628   1.824   3.459   3.420 -0.5224  0.8555  0.2169
    1C        C  629   1.729   3.363   3.377  0.6901 -0.2586 -0.0038
    1C        C  630   1.744   3.462   3.151  0.2476 -0.2373 -0.0407
    1C        C  631   1.677   3.379   3.246  0.4133 -0.1312  0.1389
    1C        C  632   1.690   3.478   3.021  0.1335  0.1511  0.0720
    1C        C  633   1.606   3.374   2.976 -0.4835  0.5777  0.2599
    1C        C  634   3.374   3.349   5.565  0.1894  0.2141 -0.6450
    1C        C  635   3.450   3.232   5.563 -0.2339 -0.0753  0.0390
    1C        C  636   3.276   3.382   5.470 -0.5023 -0.3846 -0.1514
    1C        C  637   3.255   3.289   5.365  0.0794 -1.0023  0.2774
    1C        C  638   3.065   3.415   5.288 -0.3815  0.1133  0.5439
    1C        C  639   3.129   3.290   5.302 -0.2003  0.2401  0.8356
    1C        C  640   2.955   3.431   5.201  0.0811 -0.4505 -0.1638
    1C        C  641   2.913   3.324   5.120 -0.0313 -0.2789 -0.3361
    1C        C  642   2.774   3.471   4.985  0.3702  0.1921 -0.2582
    1C        C  643   2.816   3.340   5.018 -0.7522 -0.0219  0.3794
    1C        C  644   2.683   3.490   4.879 -0.6457 -0.2853  0.5072
    1C        C  645   2.645   3.383   4.796 -0.3245 -0.1707  0.2016
    1C        C  646   2.538   3.537   4.649  0.1033 -0.1296  0.1543
    1C        C  647   2.553   3.403   4.691  0.0801 -0.2399 -0.1776
    1C        C  648   2.450   3.559   4.541  0.4001 -0.0419 -0.0698
    1C        C  649   2.381   3.454   4.477  0.1071  0.3580 -0.4138
    1C        C  650   2.308   3.600   4.295 -0.3043 -0.0130 -0.0504
    1C        C  651   2.327   3.471   4.348 -0.6866 -0.1039 -0.1453
    1C        C  652   2.251   3.613   4.167  0.1600  0.1460 -0.2374
    1C        C  653   2.175   3.508   4.112  0.0938  0.0075  0.1379
    1C        C  654   2.124   3.647   3.921 -0.1886 -0.0028  0.3444
    1C        C  655   2.099   3.529   3.995 -0.1938  0.0012  0.3339
    1C        C  656   2.082   3.650   3.786 -0.6309  0.3061  0.4938
    1C        C  657   1.994   3.551   3.738  0.2918 -0.3609  0.1572
    1C        C  658   2.008   3.650   3.511  0.4455  0.2930  0.3202
    1C        C  659   1.950   3.561   3.604  0.5768 -0.0211  0.0947
    1C        C  660   1.968   3.650   3.376  0.2297 -0.1808  0.3898
    1C        C  661   1.880   3.550   3.329 -0.6639  0.7720  0.0665
    1C        C  662   1.905   3.642   3.105 -0.0872 -0.2046 -0.4781
    1C        C  663   1.832   3.562   3.196 -0.0146  0.0520 -0.2191
    1C        C  664   1.856   3.651   2.973 -0.0282  0.2638 -0.4512
    1C        C  665   1.758   3.561   2.926 -0.2577  0.3193 -0.0400
    1C        C  666   1.713   3.588   2.795 -0.2819  0.2035 -0.0456
    1C        C  667   3.291   3.624   5.489 -0.0687 -0.4571  0.5331
    1C        C  668   3.218   3.511   5.448  0.1763 -0.1734 -0.7299
    1C        C  669   3.047   3.655   5.352  0.1424  0.4703 -0.4874
    1C        C  670   3.101   3.524   5.369 -0.5014  0.3050  0.3330
    1C        C  671   2.958   3.671   5.245 -0.9345 -0.3398  0.2794
    1C        C  672   2.906   3.560   5.173 -0.1770 -0.5111 -0.0009
    1C        C  673   2.786   3.711   5.027  0.0424  0.1333 -0.4097
    1C        C  674   2.824   3.579   5.060 -0.3237  0.1856  0.2193
    1C        C  675   2.708   3.732   4.911 -0.1478 -0.5351 -0.4035
    1C        C  676   2.655   3.623   4.839  0.2838 -0.4670 -0.8212
    1C        C  677   2.578   3.775   4.661  1.1386  0.5741  0.0063
    1C        C  678   2.576   3.649   4.726  0.0592  0.3286 -0.4844
    1C        C  679   2.500   3.797   4.546  0.7342 -0.2881  0.1108
    1C        C  680   2.441   3.687   4.481 -0.3214  0.1159  0.3640
    1C        C  681   2.385   3.827   4.283  0.3018 -0.6260 -0.4375
    1C        C  682   2.377   3.706   4.357  0.5665 -0.4911 -0.1972
    1C        C  683   2.332   3.842   4.154 -0.5276  0.5023  0.0307
    1C        C  684   2.245   3.741   4.107  0.2225  0.0641 -0.4054
    1C        C  685   2.264   3.840   3.881  0.3072  0.2573 -0.0656
    1C        C  686   2.215   3.742   3.970  0.0252  0.1439 -0.3553
    1C        C  687   2.235   3.835   3.743 -0.0495 -0.1894  0.0319
    1C        C  688   2.132   3.749   3.699  0.4437 -0.7236 -0.0893
    1C        C  689   2.162   3.837   3.476  0.7224 -0.0587 -0.4418
    1C        C  690   2.096   3.748   3.563  0.1372  0.7628 -0.0390
    1C        C  691   2.127   3.834   3.339 -0.5496  0.0351 -0.1321
    1C        C  692   2.041   3.735   3.290 -0.6297  0.0834 -0.0711
    1C        C  693   2.004   3.730   3.154  0.1819 -0.6414 -0.2662
    1C        C  694   3.239   3.751   5.466  0.3691 -0.4088 -0.2507
    1C        C  695   3.056   3.895   5.383  0.0728 -0.5295  0.1099
    1C        C  696   3.107   3.766   5.419 -0.1157 -0.3246  1.0950
    1C        C  697   2.970   3.916   5.273  0.0082  0.2113  0.3157
    1C        C  698   2.920   3.801   5.207  0.1591  0.0423  0.5217
    1C        C  699   2.833   3.951   5.033  0.1988 -0.6095  0.0061
    1C        C  700   2.846   3.822   5.090  0.2422 -0.4256  0.3945
    1C        C  701   2.761   3.973   4.914  0.3447  0.2582  0.0815
    1C        C  702   2.699   3.861   4.854  0.6910 -0.1062  0.4198
    1C        C  703   2.649   4.004   4.657 -0.2361  0.3836  0.2260
    1C        C  704   2.642   3.882   4.727  0.4332  0.5958  0.6587
    1C        C  705   2.595   4.020   4.528 -0.5134 -0.0856  0.2952
    1C        C  706   2.516   3.917   4.472 -0.4680 -0.0629  0.2138
    1C        C  707   2.516   4.026   4.258  0.1934 -0.1112  0.4435
    1C        C  708   2.458   3.931   4.345  0.3050 -0.7715 -0.2105
    1C        C  709   2.492   4.019   4.119 -0.3052  0.4994  0.5051
    1C        C  710   2.395   3.933   4.066  0.7499 -0.3952  0.0079
    1C        C  711   2.414   4.029   3.842  0.5898 -0.1316  0.0389
    1C        C  712   2.356   3.935   3.930  0.6294 -0.1260  0.0553
    1C        C  713   2.400   4.008   3.704 -0.1067  0.0116  0.0937
    1C        C  714   2.296   3.926   3.654 -0.1889  0.0631  0.2075
    1C        C  715   2.257   3.931   3.519  0.4093  0.0331  0.0417
    1C        C  716   3.060   4.139   5.416  1.1503 -0.0725 -0.1437
    1C        C  717   3.097   4.009   5.454 -0.7249 -0.4570  0.4415
    1C        C  718   3.004   4.161   5.288 -0.3004 -0.1472  0.4575
    1C        C  719   2.952   4.047   5.221  0.0984  0.0293 -0.1363
    1C        C  720   2.923   4.173   5.020  0.2187 -0.2889 -0.1592
    1C        C  721   2.881   4.065   5.100  0.3790 -0.4831 -0.3640
    1C        C  722   2.883   4.174   4.885 -0.7261  0.7712  0.1326
    1C        C  723   2.784   4.087   4.834  0.2043 -0.0117 -0.3338
    1C        C  724   2.787   4.206   4.621 -1.1374  1.0932  0.2110
    1C        C  725   2.730   4.109   4.706 -0.5734  0.6807  0.1172
    1C        C  726   2.745   4.205   4.486  0.1575 -0.3607 -0.2064
    1C        C  727   2.634   4.127   4.446 -0.2886 -0.0627  0.4512
    1C        C  728   2.696   4.177   4.210 -0.1526 -0.1395  0.1632
    1C        C  729   2.612   4.117   4.307 -0.1159  0.2229  0.4091
    1C        C  730   2.672   4.172   4.071  0.3609 -0.3586  0.0850
    1C        C  731   2.555   4.106   4.027 -0.4127  0.6561  0.5926
    1C        C  732   2.527   4.099   3.889  0.6169 -0.4557  0.4294
    1C        C  733   3.161   4.354   5.243  0.0703 -0.0853 -0.5343
    1C        C  734   3.064   4.259   5.203 -0.1841 -0.2368  0.4565
    1C        C  735   3.072   4.364   4.982 -0.4698 -0.1437  0.4300
    1C        C  736   3.016   4.267   5.069 -0.1678 -0.2573  0.4661
    1C        C  737   3.030   4.369   4.847 -0.0529 -0.2964  0.3113
    1C        C  738   2.925   4.284   4.806  0.2873 -0.2124 -0.7054
    1C        C  739   2.981   4.341   4.576 -0.1966  0.8872 -0.2881
    1C        C  740   2.889   4.290   4.670 -0.1729  0.3797 -0.5510
    1C        C  741   2.950   4.328   4.439 -0.4336  1.0675 -0.2463
    1C        C  742   2.841   4.251   4.394  0.3624 -0.2540  0.0666
    1C        C  743   2.813   4.240   4.256 -0.1566 -0.1459  0.1685
    1C        C  744   3.218   4.444   5.154  0.1973 -0.0382 -0.3940
    1C        C  745   3.240   4.538   4.933  0.3501 -0.4132 -0.0003
    1C        C  746   3.160   4.465   5.027 -0.1554 -0.1388 -0.2385
    1C        C  747   3.232   4.501   4.798 -0.6283  0.3059 -0.1257
    1C        C  748   3.120   4.426   4.755 -0.3846 -0.1529  0.0979
    1C        C  749   3.095   4.414   4.617  0.0911  0.2711 -0.0169
    1C        C  750   3.330   4.642   4.965  0.1677 -0.2236 -0.1564
    1C        O  751   4.318   2.593   5.292  0.0888 -0.2646 -0.2861
    1C        H  752   4.415   2.610   5.315  0.7042 -3.3209 -0.1764
    1C        O  753   3.569   2.971   5.704  0.0080  0.3126 -0.1063
    1C        H  754   3.649   2.940   5.757  0.0380 -1.6800 -1.2606
    1C        O  755   4.858   3.028   4.668  0.0031  0.5980 -0.0589
    1C        H  756   4.938   3.089   4.674  0.3536  0.3427 -1.7354
    1C        O  757   3.026   4.229   5.518 -0.1325 -0.3983 -0.2688
    1C        H  758   3.083   4.224   5.601  2.4619  1.1683 -1.8415
    1C        O  759   3.432   4.839   4.891 -0.2821 -0.4385  0.3503
    1C        H  760   3.404   4.866   4.984  0.7884 -3.3070  1.6422
    1C        O  761   4.820   3.883   4.240  0.1383  0.5884  0.0579
    1C        H  762   4.841   3.980   4.259  0.0292  0.8850 -1.1851
    1C        O  763   4.257   4.562   4.461  0.0310 -0.2118 -0.3600
    1C        H  764   4.254   4.639   4.526  0.0203 -1.0742  0.6921
    1C        O  765   2.504   1.512   3.064 -0.1675  0.2835  0.8338
    1C        H  766   2.519   1.451   2.985 -1.8700 -0.8105  1.3210
    1C        O  767   2.958   1.802   2.544 -0.0072  0.2799  0.3023
    1C        H  768   2.915   1.715   2.518 -1.2506  1.1048 -0.4920
    1C        O  769   1.451   2.254   3.562  0.7431 -0.1302  0.6363
    1C        H  770   1.414   2.161   3.549 -2.5032  0.8005  2.3805
    1C        O  771   3.075   2.617   2.064 -0.2018  0.4797 -0.3734
    1C        H  772   3.063   2.533   2.008  0.6771  1.8315 -2.7084
    1C        O  773   2.700   3.506   2.028  0.0705  0.2743  0.2055
    1C        H  774   2.704   3.467   1.935  1.1844  1.2902 -0.1867
    1C        O  775   1.919   3.839   2.439  0.5505 -0.1333 -0.6635
    1C        H  776   1.918   3.817   2.341  0.9572 -0.6282 -0.5647
    1C        O  777   1.313   3.128   3.198 -0.2039  0.0856 -0.2969
    1C        H  778   1.247   3.052   3.190 -1.6867  1.4038 -0.9931
    1C        H  779   4.123   2.694   5.401  1.0627  1.5834 -1.7649
    1C        H  780   3.954   2.806   5.498  1.3872  1.4525 -1.1196
    1C        H  781   3.773   2.878   5.593  0.0551 -0.1711  1.3654
    1C        H  782   3.488   3.205   5.660 -0.6141  1.7925  0.7440
    1C        H  783   3.388   3.412   5.652 -0.0114  0.8348 -1.0569
    1C        H  784   4.466   2.718   5.112 -1.1951 -0.0141  2.3699
    1C        H  785   4.623   2.745   4.924 -0.7010 -0.8979 -0.4368
    1C        H  786   4.696   2.949   4.814 -1.3686  0.8852  0.2194
    1C        H  787   4.865   3.226   4.524 -0.0892  1.2340  1.9548
    1C        H  788   4.849   3.425   4.448  1.6279  2.0339 -1.4438
    1C        H  789   4.818   3.650   4.385  0.9797 -0.5946 -0.3329
    1C        H  790   4.648   4.039   4.355  1.8913 -0.7240 -1.5465
    1C        H  791   4.490   4.167   4.423 -1.0043 -0.7292  2.5751
    1C        H  792   4.304   4.299   4.502  0.5561  1.2458 -0.8092
    1C        H  793   4.057   4.630   4.572 -0.1058  0.1207 -0.4740
    1C        H  794   3.853   4.728   4.669 -1.3350  0.4971  2.0773
    1C        H  795   3.683   4.741   4.796 -1.9921  1.4266 -0.6016
    1C        H  796   3.326   4.692   5.061 -3.5068  1.0407 -0.8385
    1C        H  797   3.326   4.437   5.157  0.1618 -0.6115 -0.4975
    1C        H  798   3.205   4.361   5.341  1.0699 -2.2393 -0.7760
    1C        H  799   3.163   4.002   5.540  2.2159  0.5267 -1.6019
    1C        H  800   3.284   3.828   5.526  2.3271 -0.7288 -1.2603
    1C        H  801   3.399   3.617   5.493  0.0864 -0.3841 -2.0592
    1C        H  802   1.619   2.083   3.471  0.6187  0.8045 -1.0297
    1C        H  803   1.779   1.904   3.439  0.6392 -0.9092 -1.5681
    1C        H  804   1.944   1.787   3.345 -2.3367  1.0570  0.3521
    1C        H  805   2.158   1.903   3.159 -2.0072 -2.7577 -0.8191
    1C        H  806   2.315   1.756   3.057 -1.0665 -0.4931  0.0745
    1C        H  807   2.667   1.590   2.864  2.6008 -0.0900  0.4500
    1C        H  808   2.721   1.774   2.707 -3.1832  1.8477  4.4718
    1C        H  809   2.920   2.037   2.424 -3.4063  2.5029 -2.2610
    1C        H  810   2.874   2.277   2.382 -0.2446  1.3492  2.2558
    1C        H  811   3.077   2.405   2.201  1.6019 -2.5338  3.2242
    1C        H  812   2.809   2.801   2.190 -0.1087  0.2783 -0.2349
    1C        H  813   2.807   3.016   2.070  0.3002  1.3711  0.1784
    1C        H  814   2.755   3.244   2.033  1.1724  2.1358 -1.5146
    1C        H  815   2.460   3.610   2.123  1.3836  2.3424  0.7402
    1C        H  816   2.094   3.575   2.410 -0.5549  0.4467 -1.6903
    1C        H  817   2.300   3.715   2.204  1.8260 -0.7865 -1.2350
    1C        H  818   1.800   3.598   2.612 -1.4487 -1.6674  0.2227
    1C        H  819   1.613   3.627   2.782 -0.6878  0.2002  2.6213
    1C        H  820   1.563   3.369   2.878 -2.4651 -1.9030  1.1445
    1C        H  821   1.505   3.205   3.006  0.6157  1.2735 -2.7728
    1C        H  822   1.387   2.887   3.248 -0.9351  1.0525  0.6436
    1C        H  823   1.362   2.687   3.392 -0.9734 -0.6029  0.8817
    1C        H  824   1.479   2.477   3.385 -0.0449 -1.5657  1.9792
    2SOL     OW  825   1.192   6.856   1.445  0.5632 -0.4026  0.4944
    2SOL    HW1  826   1.125   6.837   1.516  1.9256  0.2046  2.0214
    2SOL    HW2  827   1.256   6.780   1.438  1.5857  0.3566  1.3216
    3SOL     OW  828   4.708   1.885   4.465  0.4831 -0.7330 -0.4099
    3SOL    HW1  829   4.647   1.851   4.536  1.0476  3.3360  2.3771
    3SOL    HW2  830   4.798   1.843   4.477  0.4760 -0.3821  1.1426
    4SOL     OW  831   5.651   5.880   1.562 -0.7611 -0.5779 -0.1582
    4SOL    HW1  832   5.698   5.793   1.576  2.2358  0.8895 -0.2092
    4SOL    HW2  833   5.654   5.934   1.647 -1.0681  0.1306 -0.5801
    5SOL     OW  834   5.656   1.667   5.825 -0.0129 -0.3721 -0.5843
    5SOL    HW1  835   5.748   1.690   5.858 -1.0231  2.6251  0.4840
    5SOL    HW2  836   5.659   1.654   5.726  1.8604 -2.4388 -0.3370
    6SOL     OW  837   0.160   1.814   3.290  0.4593 -0.1397  0.1104
    6SOL    HW1  838   0.071   1.768   3.287 -0.1733  1.0494  0.0548
    6SOL    HW2  839   0.232   1.747   3.308 -0.6313 -0.8924  1.8315
    7SOL     OW  840   3.826   5.573   5.011 -0.1933  0.0313 -0.3238
    7SOL    HW1  841   3.921   5.580   4.982 -0.9818  1.6812 -2.7710
    7SOL    HW2  842   3.814   5.619   5.099  1.3689 -0.9468  0.4598
    8SOL     OW  843   5.673   0.404   1.276  0.0041  0.3621  0.5696
    8SOL    HW1  844   5.720   0.437   1.194 -0.0213  2.0313  1.1663
    8SOL    HW2  845   5.612   0.476   1.310 -0.6766 -0.6364  1.5449
    9SOL     OW  846   0.351   6.590   4.007  0.1318 -0.4405 -0.0677
    9SOL    HW1  847   0.302   6.556   4.087 -1.4001  0.4598 -0.5812
    9SOL    HW2  848   0.444   6.555   4.008 -0.1409 -1.2197  1.5951
   10SOL     OW  849   1.987   6.166   0.475 -0.2674  0.0721  0.4819
   10SOL    HW1  850   2.081   6.185   0.505 -0.4763  1.2865  0.4289
   10SOL    HW2  851   1.927   6.159   0.555 -0.2672  0.0868  0.4836
   11SOL     OW  852   2.783   4.961   0.620  0.0281  0.0281  0.7090
   11SOL    HW1  853   2.852   4.925   0.557 -1.0454 -0.1832 -0.4071
   11SOL    HW2  854   2.823   4.972   0.711  1.5028 -0.1135  0.1106
   12SOL     OW  855   6.588   4.498   2.119 -0.6835  0.3603  0.1953
   12SOL    HW1  856   6.643   4.521   2.038 -1.2053 -1.7943 -0.8331
   12SOL    HW2  857   6.646   4.503   2.201  0.1485  1.4048 -0.4137
   13SOL     OW  858   4.934   0.197   2.053  0.4274  0.2820 -0.1965
   13SOL    HW1  859   4.859   0.192   2.119  1.1817  1.1515  0.7666
   13SOL    HW2  860   4.918   0.131   1.979 -2.3058  1.8482 -1.1372
   14SOL     OW  861   1.695   6.462   1.983  0.1021 -0.1693 -0.3581
   14SOL    HW1  862   1.653   6.463   2.074  0.0716 -0.6400 -0.3688
   14SOL    HW2  863   1.781   6.411   1.986  0.5560  0.5699 -0.3919
   15SOL     OW  864   5.023   3.069   1.174 -0.2594  0.4750  0.0505
   15SOL    HW1  865   4.985   3.074   1.082  0.7894  0.0110 -0.4210
   15SOL    HW2  866   4.979   2.993   1.223  1.0366 -1.0130 -0.9890
   16SOL     OW  867   1.377   0.781   4.770  0.3090 -0.3509 -0.0141
   16SOL    HW1  868   1.322   0.790   4.687 -0.1455 -0.9217  0.2218
   16SOL    HW2  869   1.452   0.717   4.753  0.5591 -0.0276 -0.1544
   17SOL     OW  870   3.430   6.851   2.768 -0.1497  0.2241  0.2447
   17SOL    HW1  871   3.488   6.930   2.747  0.3180 -0.0446  0.5054
   17SOL    HW2  872   3.358   6.842   2.699  1.9275 -1.2237 -1.8713
   18SOL     OW  873   1.503   5.148   2.068 -0.0938  0.3958 -0.1078
   18SOL    HW1  874   1.415   5.100   2.062  0.2191  0.0136 -3.8653
   18SOL    HW2  875   1.487   5.243   2.093 -0.9438 -0.7893  4.8277
   19SOL     OW  876   0.947   3.871   6.021 -0.3125  0.0564  0.2016
   19SOL    HW1  877   0.893   3.826   5.950 -1.0246 -0.1256  0.8533
   19SOL    HW2  878   0.887   3.928   6.077  0.7769  3.2008 -1.6113
   20SOL     OW  879   0.691   6.736   0.487  0.5663 -0.3956 -0.2055
   20SOL    HW1  880   0.726   6.712   0.396  2.8775  0.8842  0.2687
   20SOL    HW2  881   0.689   6.655   0.545  0.8759 -0.8626 -0.8444
   21SOL     OW  882   5.661   3.046   4.033  0.1841 -0.0815  0.3424
   21SOL    HW1  883   5.734   3.018   4.095  0.6810  0.2774 -0.0799
   21SOL    HW2  884   5.582   3.076   4.086  0.6551  0.3507  0.8048
   22SOL     OW  885   5.055   4.046   6.651  0.0663  0.4193 -0.1254
   22SOL    HW1  886   5.140   4.027   6.602 -1.1787 -0.2554 -2.1404
   22SOL    HW2  887   5.046   3.983   6.728 -1.5069 -4.0787 -3.5833
   23SOL     OW  888   0.421   5.952   4.309 -0.0124 -0.4933 -0.3361
   23SOL    HW1  889   0.404   5.983   4.215  3.0408 -1.5699 -1.3530
   23SOL    HW2  890   0.342   5.901   4.342 -1.2793  0.1477 -2.1909
   24SOL     OW  891   3.700   5.941   0.924 -0.1097 -0.0660  0.7995
   24SOL    HW1  892   3.779   5.919   0.867  0.9283  0.3968  2.0249
   24SOL    HW2  893   3.616   5.918   0.874  0.8031 -2.3277  0.1873
   25SOL     OW  894   1.163   0.279   1.431  0.4221 -0.2119  0.4648
   25SOL    HW1  895   1.157   0.339   1.511  1.6153  1.1363 -0.4085
   25SOL    HW2  896   1.073   0.237   1.414  0.0186 -0.0933  2.1632
   26SOL     OW  897   4.751   2.557   2.669 -0.0323  0.0940 -0.1493
   26SOL    HW1  898   4.804   2.504   2.603  1.1594  0.9986  0.0361
   26SOL    HW2  899   4.751   2.510   2.757 -1.6517 -1.1328 -0.7382
   27SOL     OW  900   5.687   1.561   1.376  0.0715 -0.0632 -0.3220
   27SOL    HW1  901   5.592   1.544   1.402 -0.0985 -0.1045 -0.9392
   27SOL    HW2  902   5.725   1.633   1.433 -0.0776 -0.5866  0.4655
   28SOL     OW  903   0.436   4.213   2.135  0.0820 -0.2995  0.4531
   28SOL    HW1  904   0.484   4.290   2.177 -0.5698 -1.1652  2.9208
   28SOL    HW2  905   0.465   4.128   2.179 -0.5179 -1.2951 -1.0172
   29SOL     OW  906   4.452   1.632   6.763 -0.0743 -0.3890  0.1018
   29SOL    HW1  907   4.411   1.649   6.853  0.8631 -1.5073  0.7666
   29SOL    HW2  908   4.396   1.675   6.692 -1.7874 -0.9011  1.0754
   30SOL     OW  909   3.246   1.938   0.995  0.2378 -0.0932  0.5589
   30SOL    HW1  910   3.290   1.879   1.063  1.8188 -1.2210 -1.3300
   30SOL    HW2  911   3.276   2.032   1.010  1.3648 -0.4793  0.8227
   31SOL     OW  912   1.364   0.030   0.222  0.2133  0.0634 -0.3780
   31SOL    HW1  913   1.396   0.098   0.157  2.4860  2.1254  2.6296
   31SOL    HW2  914   1.440  -0.032   0.245 -0.5801 -0.6873  0.2041
   32SOL     OW  915   1.683   6.145   2.808  0.4185 -0.3037 -0.0193
   32SOL    HW1  916   1.668   6.105   2.718 -1.5161 -0.9596  0.5403
   32SOL    HW2  917   1.731   6.078   2.866  0.8681 -0.2193 -0.2840
   33SOL     OW  918   2.571   0.790   6.189  0.4785 -0.2480  0.8860
   33SOL    HW1  919   2.642   0.720   6.186  0.7520 -0.0149  1.6692
   33SOL    HW2  920   2.572   0.835   6.279 -0.9517 -0.5470  1.0693
   34SOL     OW  921   2.088   3.659   6.929  0.6751  0.0969  0.7534
   34SOL    HW1  922   2.178   3.700   6.916 -0.3078  2.4077  0.7900
   34SOL    HW2  923   2.082   3.575   6.875  2.0985  1.0765 -1.0492
   35SOL     OW  924   5.601   5.490   6.121  0.2346 -0.5105 -0.1130
   35SOL    HW1  925   5.667   5.427   6.078  1.1721 -0.4961  1.2465
   35SOL    HW2  926   5.646   5.541   6.194 -1.6551 -1.6179  1.9419
   36SOL     OW  927   3.173   5.641   4.452 -0.3527  0.2045 -0.0524
   36SOL    HW1  928   3.162   5.738   4.474 -1.2080 -0.0119  0.5321
   36SOL    HW2  929   3.126   5.585   4.520  0.0507 -0.6284 -0.4266
   37SOL     OW  930   1.604   3.744   4.927  0.4038 -0.2457  0.5787
   37SOL    HW1  931   1.609   3.837   4.963 -0.4615 -0.3988  1.1618
   37SOL    HW2  932   1.678   3.689   4.966 -0.2508 -0.2899  1.8227
   38SOL     OW  933   1.095   5.103   2.773 -0.4984  0.2911  0.4934
   38SOL    HW1  934   1.121   5.110   2.869 -0.4688 -1.8408  0.7017
   38SOL    HW2  935   1.079   5.006   2.751 -1.0413  0.8078 -1.5026
   39SOL     OW  936   0.033   3.441   0.603 -0.0784 -0.2359 -0.0115
   39SOL    HW1  937   0.127   3.467   0.625  0.5442 -0.6800 -1.9791
   39SOL    HW2  938   0.031   3.391   0.516 -1.9913 -1.3293  0.5918
   40SOL     OW  939   0.330   3.626   2.166  0.2287 -0.4774  0.1778
   40SOL    HW1  940   0.277   3.560   2.113 -1.2758  2.6157 -2.5605
   40SOL    HW2  941   0.276   3.656   2.245 -0.3227 -0.4916 -0.1800
   41SOL     OW  942   2.330   5.516   4.311 -0.2963 -0.4522 -0.1881
   41SOL    HW1  943   2.352   5.477   4.400  1.0301  0.4771 -0.0766
   41SOL    HW2  944   2.293   5.608   4.323  1.1469  0.1933 -0.6580
   42SOL     OW  945   2.257   6.669   0.437 -0.2061 -0.4169  0.0409
   42SOL    HW1  946   2.249   6.724   0.520  0.5778  0.4697 -0.4429
   42SOL    HW2  947   2.308   6.585   0.457  0.5148  0.0817  0.3295
   43SOL     OW  948   0.235   6.579   2.426  0.0044 -0.1711  0.5251
   43SOL    HW1  949   0.195   6.592   2.335 -0.9527 -1.1790  0.7733
   43SOL    HW2  950   0.294   6.498   2.425 -0.0304 -0.2012  0.8070
   44SOL     OW  951   2.812   1.148   5.922  0.1928 -0.2328  0.8670
   44SOL    HW1  952   2.771   1.113   6.006 -0.3857  0.3282  0.8256
   44SOL    HW2  953   2.784   1.243   5.909  1.5288  0.1891  0.8692
   45SOL     OW  954   1.533   1.481   0.551  0.0264  0.4595 -0.1991
   45SOL    HW1  955   1.583   1.567   0.539 -1.2597  1.1938 -0.4773
   45SOL    HW2  956   1.489   1.481   0.641 -0.2047  0.2139 -0.3104
   46SOL     OW  957   5.740   3.065   4.833 -0.2161 -0.2046  0.1774
   46SOL    HW1  958   5.798   2.987   4.808  0.6292  0.7876 -1.1406
   46SOL    HW2  959   5.649   3.052   4.794  0.0671 -0.3181 -0.4695
   47SOL     OW  960   1.314   0.550   2.218 -0.1171 -0.2742  0.1703
   47SOL    HW1  961   1.248   0.625   2.218 -0.3221 -0.4356 -1.1073
   47SOL    HW2  962   1.266   0.463   2.215  0.1221 -0.3808 -1.8173
   48SOL     OW  963   4.040   5.731   3.231  0.2860 -0.4563  0.5132
   48SOL    HW1  964   3.947   5.698   3.221 -1.1656  3.0337  0.9503
   48SOL    HW2  965   4.050   5.818   3.182  3.7425 -1.3049 -0.5747
   49SOL     OW  966   3.897   2.167   0.611  0.0259 -0.4386  0.3572
   49SOL    HW1  967   3.839   2.240   0.575 -0.2115 -0.3886  0.8301
   49SOL    HW2  968   3.840   2.096   0.653  0.2898 -0.5595  0.5128
   50SOL     OW  969   5.872   1.642   2.759 -0.3405  0.2990 -0.5278
   50SOL    HW1  970   5.933   1.664   2.682 -0.2750  0.1608 -0.5154
   50SOL    HW2  971   5.857   1.725   2.814 -0.6569  0.4778 -0.8813
   51SOL     OW  972   1.097   0.738   2.148 -0.1740 -0.3676 -0.8706
   51SOL    HW1  973   1.152   0.788   2.082  0.1627  0.5966  0.1205
   51SOL    HW2  974   1.009   0.783   2.160 -0.7537 -1.2737 -1.6140
   52SOL     OW  975   5.940   2.469   4.633 -0.1101 -0.0543 -0.4274
   52SOL    HW1  976   5.903   2.534   4.566 -0.0030  1.8867  1.2943
   52SOL    HW2  977   5.865   2.432   4.688 -0.3283 -2.4506 -2.1947
   53SOL     OW  978   3.713   4.112   2.607  0.4198 -0.0412 -0.6890
   53SOL    HW1  979   3.652   4.187   2.582  0.1814 -0.6539 -1.9980
   53SOL    HW2  980   3.670   4.024   2.585  0.1858 -0.6753  1.9109
   54SOL     OW  981   6.116   4.025   0.113 -0.6801  0.6876 -0.5184
   54SOL    HW1  982   6.078   4.046   0.023 -1.2373 -0.3936 -0.5555
   54SOL    HW2  983   6.132   3.926   0.120  0.6477  0.9234  0.0849
   55SOL     OW  984   0.767   0.290   6.739 -0.6858 -0.7357 -0.2933
   55SOL    HW1  985   0.743   0.245   6.824  0.9432 -0.0520  0.5680
   55SOL    HW2  986   0.863   0.315   6.739 -0.2629 -1.8683 -2.9002
   56SOL     OW  987   3.720   2.525   2.559 -0.1194 -0.5567 -0.1882
   56SOL    HW1  988   3.711   2.433   2.521 -0.5369 -0.8029  0.5009
   56SOL    HW2  989   3.629   2.565   2.573  0.0686  0.2841 -1.2381
   57SOL     OW  990   6.582   1.387   6.921  0.5784  0.3580 -0.0520
   57SOL    HW1  991   6.520   1.309   6.908 -0.0910  0.6337  1.2683
   57SOL    HW2  992   6.666   1.372   6.869  0.8651 -1.6992  0.9071
   58SOL     OW  993   2.404   2.376   0.975 -0.6149 -0.3276  0.3616
   58SOL    HW1  994   2.501   2.397   0.962 -0.5312 -0.9699 -0.0732
   58SOL    HW2  995   2.391   2.330   1.063 -0.7157  0.9706  1.0525
   59SOL     OW  996   2.224   1.513   0.910 -0.0582  0.0787 -0.0197
   59SOL    HW1  997   2.168   1.521   0.992 -0.3945 -0.1740 -0.2229
   59SOL    HW2  998   2.305   1.571   0.919  0.8538 -1.3056  1.2613
   60SOL     OW  999   0.435   3.763   2.665 -0.2429  0.1708  0.2910
   60SOL    HW1 1000   0.423   3.837   2.599 -1.2958 -0.3382 -0.1109
   60SOL    HW2 1001   0.420   3.675   2.619  1.8053 -0.3805  0.5508
   61SOL     OW 1002   1.025   5.842   6.745  0.0785 -0.6065  0.0586
   61SOL    HW1 1003   1.072   5.930   6.754  0.8533 -1.0984  0.9518
   61SOL    HW2 1004   1.061   5.793   6.666  0.7545 -0.7767  0.4613
   62SOL     OW 1005   1.654   5.336   4.090  0.3071  0.0234 -0.3230
   62SOL    HW1 1006   1.748   5.338   4.124  1.0916 -1.7865 -2.2350
   62SOL    HW2 1007   1.628   5.428   4.061  1.4824  0.5466  0.1994
   63SOL     OW 1008   4.268   4.811   4.528 -0.2057  0.2061  0.1043
   63SOL    HW1 1009   4.198   4.864   4.575 -0.0080  0.9643 -0.4325
   63SOL    HW2 1010   4.347   4.870   4.509 -0.8373  0.3664 -2.4540
   64SOL     OW 1011   5.008   6.867   1.260  0.0608  0.1118 -0.0001
   64SOL    HW1 1012   4.919   6.866   1.214  0.1397 -0.4593 -0.1468
   64SOL    HW2 1013   5.079   6.839   1.196  0.4410  1.1356 -0.0531
   65SOL     OW 1014   4.594   1.821   5.977 -0.0072 -0.0757  0.0346
   65SOL    HW1 1015   4.542   1.736   5.963  0.3163 -0.8890  2.8227
   65SOL    HW2 1016   4.691   1.799   5.984  0.0495  0.4415  1.1166
   66SOL     OW 1017   4.800   1.521   4.183  0.1684  0.0846 -0.5933
   66SOL    HW1 1018   4.745   1.445   4.217  1.0887 -1.9200 -3.2963
   66SOL    HW2 1019   4.743   1.603   4.178 -1.4598 -0.9421  0.3634
   67SOL     OW 1020   4.652   3.433   0.236  0.1328  0.5377 -0.3378
   67SOL    HW1 1021   4.556   3.433   0.264 -0.7562 -0.2110 -3.1227
   67SOL    HW2 1022   4.678   3.525   0.206 -0.5469  0.2296 -1.9942
   68SOL     OW 1023   0.245   1.089   0.360  0.3960  0.4316 -0.0390
   68SOL    HW1 1024   0.323   1.029   0.341  1.8091  2.7152 -2.1910
   68SOL    HW2 1025   0.272   1.160   0.425 -0.0656  0.8233 -0.2627
   69SOL     OW 1026   1.893   2.009   4.596 -0.0035 -0.1712 -0.0456
   69SOL    HW1 1027   1.795   2.004   4.617  0.0189  0.1416  0.1565
   69SOL    HW2 1028   1.930   2.095   4.632 -0.0140  0.5228 -1.6248
   70SOL     OW 1029   1.227   5.630   3.837  0.2256 -0.2215 -0.0523
   70SOL    HW1 1030   1.263   5.694   3.904  0.8454 -0.6581  0.0358
   70SOL    HW2 1031   1.301   5.572   3.802 -0.2369 -0.5616 -0.4879
   71SOL     OW 1032   0.067   1.252   1.217  0.8451  0.5239 -0.1993
   71SOL    HW1 1033   0.136   1.207   1.159  0.6655 -0.2522  0.1782
   71SOL    HW2 1034   0.036   1.188   1.287  1.3820  1.5933  1.0469
   72SOL     OW 1035   6.378   2.268   5.237 -0.0287 -0.4223  0.2308
   72SOL    HW1 1036   6.357   2.363   5.213  1.7030 -0.2935 -0.9656
   72SOL    HW2 1037   6.302   2.210   5.207 -0.0204  0.3030 -1.3366
   73SOL     OW 1038   5.913   2.862   6.466  0.0447  0.7976  0.8303
   73SOL    HW1 1039   5.990   2.923   6.484  0.4673  1.0069 -1.4176
   73SOL    HW2 1040   5.837   2.915   6.429 -0.1436  0.1869  0.3283
   74SOL     OW 1041   1.868   0.383   6.031 -0.4518 -0.3404  0.5446
   74SOL    HW1 1042   1.925   0.461   6.057  0.3565 -1.5728  2.6582
   74SOL    HW2 1043   1.772   0.405   6.050 -0.2879  0.2951  0.6761
   75SOL     OW 1044   5.352   1.248   6.203 -1.0266 -0.9218 -0.7047
   75SOL    HW1 1045   5.372   1.157   6.167  1.0400 -0.4965 -0.7690
   75SOL    HW2 1046   5.337   1.311   6.127  0.1785 -0.6863 -0.7702
   76SOL     OW 1047   1.328   4.427   4.411 -0.4898 -0.3091  0.6595
   76SOL    HW1 1048   1.347   4.334   4.442 -0.1450  0.0580  1.6445
   76SOL    HW2 1049   1.230   4.447   4.423 -0.9060 -1.1063 -1.2037
   77SOL     OW 1050   6.431   4.636   1.058 -0.0479 -0.1670  0.4296
   77SOL    HW1 1051   6.470   4.556   1.102 -0.4831 -1.4621 -1.4503
   77SOL    HW2 1052   6.504   4.702   1.038  1.0674 -1.9176 -1.7404
   78SOL     OW 1053   5.755   6.214   4.864 -0.1151 -0.2720  0.3638
   78SOL    HW1 1054   5.756   6.293   4.802  0.5906 -0.4472  0.1334
   78SOL    HW2 1055   5.663   6.175   4.867 -0.3339  0.1931  0.0094
   79SOL     OW 1056   0.814   5.609   0.069  0.0071 -0.2023 -0.0244
   79SOL    HW1 1057   0.910   5.627   0.089  0.4552 -0.8408 -1.4770
   79SOL    HW2 1058   0.775   5.553   0.142  0.3215  1.2203  1.2843
   80SOL     OW 1059   1.790   3.338   1.711  0.0285 -0.3706 -0.1519
   80SOL    HW1 1060   1.796   3.248   1.754  2.4682 -0.3643 -0.3057
   80SOL    HW2 1061   1.715   3.390   1.752 -2.2540 -2.8562 -0.9400
   81SOL     OW 1062   4.691   0.953   1.681 -0.1537  0.2338  0.1056
   81SOL    HW1 1063   4.595   0.951   1.654 -0.2589 -0.9537  0.5217
   81SOL    HW2 1064   4.702   1.009   1.763 -0.1553  2.1059 -1.1321
   82SOL     OW 1065   0.407   4.909   4.153 -0.4325 -0.1373  0.4103
   82SOL    HW1 1066   0.409   5.006   4.176 -1.5731 -0.1204  0.5010
   82SOL    HW2 1067   0.354   4.896   4.069 -1.1607 -0.7799  0.9571
   83SOL     OW 1068   5.656   1.456   6.015  0.0722 -0.7844 -0.4989
   83SOL    HW1 1069   5.739   1.490   6.060 -1.5549  1.8695  0.7237
   83SOL    HW2 1070   5.632   1.517   5.940 -2.2763  0.3255  0.9941
   84SOL     OW 1071   4.618   5.509   1.968 -0.3602 -0.1019  0.1990
   84SOL    HW1 1072   4.556   5.578   1.930 -0.6569 -0.4641  0.0128
   84SOL    HW2 1073   4.570   5.421   1.972  0.4475 -0.6189 -0.8838
   85SOL     OW 1074   3.971   4.595   1.352  0.1017 -0.1902  0.1796
   85SOL    HW1 1075   3.953   4.691   1.374 -2.1892 -0.3990 -0.5516
   85SOL    HW2 1076   3.946   4.577   1.257  0.8827 -1.4289  0.1864
   86SOL     OW 1077   1.780   5.355   3.674  0.1660 -0.2607 -0.0994
   86SOL    HW1 1078   1.715   5.427   3.697  0.1999 -0.5787  1.0448
   86SOL    HW2 1079   1.754   5.314   3.586 -0.6328  0.2421 -0.1109
   87SOL     OW 1080   4.648   1.156   5.871 -0.1974  0.2519  0.1794
   87SOL    HW1 1081   4.612   1.122   5.784  1.6169 -1.7176  0.1205
   87SOL    HW2 1082   4.616   1.096   5.945  1.7657 -0.7574  0.2728
   88SOL     OW 1083   0.531   6.646   0.988  0.3794  0.0790  0.4029
   88SOL    HW1 1084   0.585   6.595   0.921  0.2012 -0.6508  0.7919
   88SOL    HW2 1085   0.554   6.613   1.080  0.0025  0.4623  0.6396
   89SOL     OW 1086   2.870   4.430   2.708 -1.1619 -0.4646 -0.1100
   89SOL    HW1 1087   2.893   4.392   2.797 -1.5953 -0.7905 -0.1330
   89SOL    HW2 1088   2.926   4.387   2.637 -2.1677 -1.6202 -0.2432
   90SOL     OW 1089   0.298   3.678   6.661  0.6037  0.6979  0.1519
   90SOL    HW1 1090   0.249   3.683   6.574  0.0299  1.7908  0.5098
   90SOL    HW2 1091   0.308   3.770   6.699  1.6440  0.3291  0.8143
   91SOL     OW 1092   0.216   5.595   6.035 -0.1947  0.0762 -0.0201
   91SOL    HW1 1093   0.230   5.631   5.943  1.0456 -0.9243 -0.2569
   91SOL    HW2 1094   0.289   5.628   6.095 -1.3079  1.1837  0.7721
   92SOL     OW 1095   5.560   0.520   0.334 -0.0763  0.1699 -0.6517
   92SOL    HW1 1096   5.568   0.551   0.428  0.7872  2.2255 -1.3473
   92SOL    HW2 1097   5.645   0.474   0.307  0.5856  1.5885 -1.0746
   93SOL     OW 1098   2.070   2.670   0.507 -0.1092 -0.2640  0.1739
   93SOL    HW1 1099   2.017   2.754   0.495  0.3614  0.2420  1.4285
   93SOL    HW2 1100   2.085   2.627   0.418  0.1475  1.3120 -0.5777
   94SOL     OW 1101   2.470   0.779   6.792  0.5511  0.0325 -0.1838
   94SOL    HW1 1102   2.449   0.705   6.728  2.0800 -2.1517  1.6152
   94SOL    HW2 1103   2.569   0.781   6.807  0.5709  2.6553 -0.3119
   95SOL     OW 1104   4.530   6.601   2.341  0.2573 -0.2215 -0.3517
   95SOL    HW1 1105   4.486   6.587   2.430  0.4236 -1.5145 -0.4577
   95SOL    HW2 1106   4.624   6.633   2.356  0.1560 -0.0432 -0.0755
   96SOL     OW 1107   1.427   1.611   2.024  0.5295 -0.4540  0.1407
   96SOL    HW1 1108   1.361   1.545   2.059  0.3148  0.0306  0.6659
   96SOL    HW2 1109   1.491   1.565   1.962  1.3669 -1.5059  1.7185
   97SOL     OW 1110   4.534   4.865   6.622 -0.0298  0.0489  0.3265
   97SOL    HW1 1111   4.506   4.826   6.710 -0.1699  0.1783  0.3400
   97SOL    HW2 1112   4.628   4.836   6.602  1.1974  2.4460  2.0138
   98SOL     OW 1113   3.469   5.919   5.323 -0.0741 -0.5514  0.0879
   98SOL    HW1 1114   3.435   5.890   5.234 -2.1981  1.0991  0.2766
   98SOL    HW2 1115   3.554   5.969   5.312  0.4900 -1.6647 -0.8182
   99SOL     OW 1116   1.367   3.742   1.403 -0.3730 -0.2316 -0.5313
   99SOL    HW1 1117   1.418   3.684   1.467 -0.1449  0.1147 -0.3968
   99SOL    HW2 1118   1.357   3.694   1.316 -1.1582 -0.9356 -0.0764
  100SOL     OW 1119   1.950   1.490   3.011 -0.2374  0.4140  0.4217
  100SOL    HW1 1120   1.972   1.586   2.990  2.8075  0.1442  1.8416
  100SOL    HW2 1121   1.857   1.485   3.047 -1.0168  2.5852 -1.0618
  101SOL     OW 1122   5.769   4.440   6.072  0.1120 -0.2728  0.2883
  101SOL    HW1 1123   5.848   4.379   6.069 -1.3797 -2.3431  1.5592
  101SOL    HW2 1124   5.690   4.397   6.028 -0.8271  0.9571  0.6884
  102SOL     OW 1125   1.527   2.426   1.420 -0.0645  0.2557  0.0758
  102SOL    HW1 1126   1.475   2.345   1.392 -0.8473  0.0416  1.9774
  102SOL    HW2 1127   1.465   2.491   1.464  0.6097  1.7771 -1.1428
  103SOL     OW 1128   5.778   5.195   1.185  0.1035 -0.5772  0.6102
  103SOL    HW1 1129   5.846   5.231   1.249  1.5021 -0.9742 -0.5903
  103SOL    HW2 1130   5.801   5.100   1.162 -1.7237 -1.2381  1.3049
  104SOL     OW 1131   3.637   4.636   5.653  0.4137  0.4751 -0.1675
  104SOL    HW1 1132   3.593   4.606   5.568  1.9730 -0.5386 -0.6561
  104SOL    HW2 1133   3.709   4.702   5.632  0.6091  0.4453  0.3943
  105SOL     OW 1134   6.898   0.672   1.951 -0.1647  0.6106 -0.0314
  105SOL    HW1 1135   6.986   0.717   1.965  0.6455 -1.1417  0.7204
  105SOL    HW2 1136   6.887   0.648   1.854  2.1686 -2.9238  0.4112
  106SOL     OW 1137   3.502   3.198   4.603  0.0683 -0.7390 -0.6934
  106SOL    HW1 1138   3.497   3.121   4.666  4.9499  0.2450  1.4059
  106SOL    HW2 1139   3.540   3.169   4.516 -0.3322 -1.0896 -0.7494
  107SOL     OW 1140   0.194   6.735   6.671  0.6413 -0.1577  0.1396
  107SOL    HW1 1141   0.103   6.699   6.695  0.4090  0.9890  1.0617
  107SOL    HW2 1142   0.236   6.676   6.602 -0.1831 -1.5553  0.7847
  108SOL     OW 1143   3.254   0.945   0.917  0.4783  0.1139 -0.3247
  108SOL    HW1 1144   3.294   0.866   0.964 -0.0696  0.6475  1.1034
  108SOL    HW2 1145   3.317   1.023   0.924  0.7428 -0.0053 -1.1958
  109SOL     OW 1146   0.318   0.255   4.745  0.1765  0.0933  0.0831
  109SOL    HW1 1147   0.227   0.263   4.705  0.3999  1.6834 -0.2108
  109SOL    HW2 1148   0.357   0.166   4.724 -0.5185  0.1470 -1.5579
  110SOL     OW 1149   3.263   0.865   5.463 -0.5002 -0.5336 -0.3019
  110SOL    HW1 1150   3.192   0.829   5.401  0.2340 -0.5551 -1.1528
  110SOL    HW2 1151   3.247   0.831   5.555 -1.1319 -1.1992 -0.6465
  111SOL     OW 1152   1.504   7.001   1.269  0.1977  0.0437  0.0541
  111SOL    HW1 1153   1.600   7.027   1.277  0.5997 -0.9115 -1.4019
  111SOL    HW2 1154   1.478   6.996   1.173 -1.4229  0.5957  0.4337
  112SOL     OW 1155   3.945   1.398   4.731 -0.5746  0.2040  0.6567
  112SOL    HW1 1156   3.968   1.476   4.673 -0.3957  0.7940  1.5006
  112SOL    HW2 1157   3.911   1.431   4.819 -2.6617 -0.6752  0.2213
  113SOL     OW 1158   2.964   5.388   6.018 -0.2988 -0.9164 -0.2006
  113SOL    HW1 1159   3.029   5.451   6.060 -0.3237  1.4715 -3.3478
  113SOL    HW2 1160   3.013   5.308   5.984  0.9035  0.3294 -1.5537
  114SOL     OW 1161   6.741   0.216   4.563  1.0099  0.1769  0.0654
  114SOL    HW1 1162   6.689   0.300   4.579 -0.5629 -0.7527  0.0711
  114SOL    HW2 1163   6.780   0.184   4.649  0.5097  0.2145  0.3144
  115SOL     OW 1164   4.482   5.128   0.846  0.0408 -0.1530 -0.2908
  115SOL    HW1 1165   4.458   5.059   0.914 -3.7923  0.0432 -1.1925
  115SOL    HW2 1166   4.506   5.084   0.760 -1.1836 -0.4389 -0.5103
  116SOL     OW 1167   1.221   1.095   4.587 -0.3850  0.0723 -0.6033
  116SOL    HW1 1168   1.311   1.118   4.624  0.4812 -0.5686 -2.2229
  116SOL    HW2 1169   1.182   1.175   4.542 -0.6425  0.3562  0.1129
  117SOL     OW 1170   1.054   5.480   1.359  0.5633  0.0953  0.7893
  117SOL    HW1 1171   1.040   5.557   1.297  0.7353  1.2482  2.1083
  117SOL    HW2 1172   1.146   5.445   1.349  0.2135 -0.5243 -0.4314
  118SOL     OW 1173   1.911   5.172   5.189 -0.4705 -0.3270 -0.5223
  118SOL    HW1 1174   2.010   5.173   5.197 -0.6128  0.1416  1.4440
  118SOL    HW2 1175   1.877   5.266   5.187 -0.8198 -0.4566 -2.4057
  119SOL     OW 1176   4.601   5.071   1.595 -0.0874  0.5500 -0.3419
  119SOL    HW1 1177   4.585   5.035   1.504  1.2445  2.0630 -1.2318
  119SOL    HW2 1178   4.643   5.000   1.652 -0.6470 -0.3101 -0.9769
  120SOL     OW 1179   5.960   3.534   1.964 -0.3742 -0.5371  0.4521
  120SOL    HW1 1180   5.891   3.465   1.986  0.0560 -1.4508 -0.8861
  120SOL    HW2 1181   5.945   3.568   1.871  0.3767 -0.0032  0.5112
  121SOL     OW 1182   6.140   0.021   3.337  0.3057  0.2664 -0.4392
  121SOL    HW1 1183   6.046  -0.006   3.318  0.0387  0.2522  0.8733
  121SOL    HW2 1184   6.201  -0.057   3.325  0.2115  0.3750 -1.6003
  122SOL     OW 1185   0.907   2.827   5.458  0.5775 -0.3751  0.2730
  122SOL    HW1 1186   1.004   2.815   5.477  0.9193  1.5357 -0.1410
  122SOL    HW2 1187   0.870   2.899   5.516 -0.3610 -0.3876 -0.2827
  123SOL     OW 1188   6.351   4.550   2.746 -0.0500 -0.5641 -0.3689
  123SOL    HW1 1189   6.284   4.479   2.769 -2.6645  1.3463 -1.7228
  123SOL    HW2 1190   6.309   4.640   2.753  2.8983  0.8955  0.2908
  124SOL     OW 1191   2.066   2.575   5.315  0.3622  0.5641 -0.0219
  124SOL    HW1 1192   2.114   2.487   5.313  0.2237  0.4912 -1.9462
  124SOL    HW2 1193   1.969   2.559   5.296  0.3955  1.1597 -0.7117
  125SOL     OW 1194   5.774   5.297   4.956 -0.3982 -0.2582  0.3371
  125SOL    HW1 1195   5.794   5.377   4.900  0.1139 -0.4276  0.2643
  125SOL    HW2 1196   5.765   5.324   5.052 -0.6041 -0.0636  0.2626
  126SOL     OW 1197   6.760   4.490   2.340 -0.0721  0.7495  0.7462
  126SOL    HW1 1198   6.834   4.423   2.342 -1.1728 -0.5069  0.2639
  126SOL    HW2 1199   6.710   4.487   2.427 -1.9472 -1.2041 -0.3229
  127SOL     OW 1200   2.828   2.391   5.385  0.5051 -0.5430 -0.2592
  127SOL    HW1 1201   2.924   2.369   5.370  0.8643  1.3349 -0.9962
  127SOL    HW2 1202   2.814   2.489   5.375 -0.9431 -0.2660  2.9833
  128SOL     OW 1203   4.028   2.382   3.125 -0.0989 -0.4739 -0.5476
  128SOL    HW1 1204   4.099   2.326   3.081 -0.8419 -1.4758 -0.5196
  128SOL    HW2 1205   3.947   2.384   3.067  0.0499  0.9584 -0.7478
  129SOL     OW 1206   5.364   2.238   5.916 -0.0098 -0.2421  0.0139
  129SOL    HW1 1207   5.401   2.229   5.824 -0.2271  0.4976 -0.1476
  129SOL    HW2 1208   5.418   2.183   5.979  0.5630 -0.2073 -0.4434
  130SOL     OW 1209   3.414   0.447   3.038  0.1817  0.9958  0.3050
  130SOL    HW1 1210   3.513   0.459   3.034 -0.0401  3.2616  0.3418
  130SOL    HW2 1211   3.392   0.351   3.052  2.3417  0.3418 -0.5909
  131SOL     OW 1212   6.503   4.947   5.987 -0.0792  0.3356 -0.5074
  131SOL    HW1 1213   6.602   4.955   5.988 -0.1797  1.7718 -0.5910
  131SOL    HW2 1214   6.467   4.953   6.080 -0.0952 -0.2269 -0.4721
  132SOL     OW 1215   3.714   5.473   1.063 -0.1501  0.5093  0.3083
  132SOL    HW1 1216   3.705   5.373   1.062  0.6590  0.4074 -1.5985
  132SOL    HW2 1217   3.641   5.513   1.118 -0.3203 -1.1277  1.3450
  133SOL     OW 1218   6.462   3.286   4.929 -0.0432  0.4486 -0.0086
  133SOL    HW1 1219   6.489   3.190   4.922  0.3963  0.5274  0.4970
  133SOL    HW2 1220   6.363   3.293   4.940  0.1720 -0.1390  2.8978
  134SOL     OW 1221   6.221   5.608   1.074  0.4680  0.0711 -0.6630
  134SOL    HW1 1222   6.249   5.557   1.155  0.3703 -1.6958 -1.6788
  134SOL    HW2 1223   6.269   5.695   1.071  0.0225  0.4546  1.5766
  135SOL     OW 1224   1.126   4.784   3.413 -0.2242  0.5716  0.1662
  135SOL    HW1 1225   1.208   4.828   3.375  0.4938 -0.0050  1.0191
  135SOL    HW2 1226   1.111   4.816   3.506  0.1876 -0.8069  0.7232
  136SOL     OW 1227   5.514   0.243   1.765 -0.5927 -0.2132  0.4613
  136SOL    HW1 1228   5.537   0.301   1.844  1.0073 -0.8543  0.5030
  136SOL    HW2 1229   5.493   0.150   1.797  1.2838 -0.8075  0.0902
  137SOL     OW 1230   4.969   1.448   6.189  0.2318  0.4280 -0.0087
  137SOL    HW1 1231   4.951   1.370   6.248 -0.3551  0.1045 -0.5877
  137SOL    HW2 1232   4.916   1.527   6.220  0.7651  0.5840  0.5357
  138SOL     OW 1233   6.594   0.958   1.576  0.2109 -0.5295 -0.1992
  138SOL    HW1 1234   6.514   0.978   1.520  0.7297  0.9567 -0.4786
  138SOL    HW2 1235   6.584   0.869   1.620 -1.8514 -0.1089  0.2660
  139SOL     OW 1236   0.638   6.807   3.331 -0.6817 -0.5581  0.2315
  139SOL    HW1 1237   0.542   6.790   3.356 -0.0709  1.1786  4.7371
  139SOL    HW2 1238   0.697   6.743   3.380  0.5810 -1.0775 -1.8593
  140SOL     OW 1239   0.765   1.705   1.416  0.0668  0.0680  0.4132
  140SOL    HW1 1240   0.770   1.641   1.340  0.8556 -1.5008  1.7376
  140SOL    HW2 1241   0.696   1.675   1.481 -0.5556  1.3652  0.3948
  141SOL     OW 1242   3.133   1.474   4.225 -0.3341  0.1711 -0.3974
  141SOL    HW1 1243   3.224   1.466   4.185 -0.2161 -0.4649 -0.0227
  141SOL    HW2 1244   3.065   1.486   4.153 -0.1467 -1.0971 -0.8105
  142SOL     OW 1245   2.145   2.301   3.321 -0.1080  0.1644  0.4065
  142SOL    HW1 1246   2.139   2.229   3.390  0.8003  2.6074  3.2100
  142SOL    HW2 1247   2.230   2.292   3.270  0.9750  0.3425  2.1083
  143SOL     OW 1248   1.043   1.791   5.988  0.1678  0.6302 -0.1331
  143SOL    HW1 1249   1.039   1.890   5.994  0.0924  0.5824  0.7003
  143SOL    HW2 1250   0.950   1.754   5.981  0.0109  0.4986  1.9846
  144SOL     OW 1251   2.552   5.215   6.995 -0.3206 -0.1914 -0.5053
  144SOL    HW1 1252   2.566   5.234   6.897  1.8831 -0.2977 -0.2368
  144SOL    HW2 1253   2.471   5.265   7.027 -1.8965 -1.2153 -2.6517
  145SOL     OW 1254   5.659   4.872   6.256  0.5995  0.2661  0.1144
  145SOL    HW1 1255   5.566   4.909   6.264  1.2789  2.2701 -0.4786
  145SOL    HW2 1256   5.655   4.772   6.254 -1.6544  0.3004 -1.3342
  146SOL     OW 1257   4.412   2.313   4.262 -0.6953 -0.2546  0.3751
  146SOL    HW1 1258   4.352   2.234   4.252  0.5574 -1.1805 -0.1315
  146SOL    HW2 1259   4.433   2.326   4.359 -0.2348 -1.0772  0.3953
  147SOL     OW 1260   3.991   0.395   3.231 -0.1464 -0.1872  0.3311
  147SOL    HW1 1261   4.039   0.483   3.227  2.0714 -1.3237 -0.1252
  147SOL    HW2 1262   4.059   0.321   3.233 -1.9370 -1.8934  0.9084
  148SOL     OW 1263   4.433   4.340   2.249 -0.4146 -0.3647 -0.9875
  148SOL    HW1 1264   4.414   4.439   2.250 -0.6403 -0.4050 -0.7773
  148SOL    HW2 1265   4.524   4.323   2.285 -0.2010 -0.1943 -1.4441
  149SOL     OW 1266   5.242   1.232   4.378 -0.4022 -0.3466 -0.1852
  149SOL    HW1 1267   5.145   1.249   4.363 -0.4661 -1.1029 -0.6811
  149SOL    HW2 1268   5.257   1.134   4.390  0.0045 -0.0588  2.0975
  150SOL     OW 1269   6.548   2.642   4.971  0.0916 -0.6226 -0.0188
  150SOL    HW1 1270   6.638   2.681   4.991 -0.3486  0.9309 -0.9509
  150SOL    HW2 1271   6.558   2.543   4.958  1.3109 -0.8123  1.9016
  151SOL     OW 1272   0.869   0.498   0.789  0.3248  0.1830  0.3593
  151SOL    HW1 1273   0.915   0.409   0.786 -1.5803 -0.8797  1.0144
  151SOL    HW2 1274   0.828   0.518   0.700  2.4715  1.4430 -0.4343
  152SOL     OW 1275   6.808   1.516   2.145 -0.2263  0.0356  0.0355
  152SOL    HW1 1276   6.841   1.610   2.145 -0.5040  0.1340  0.2434
  152SOL    HW2 1277   6.756   1.498   2.229  1.2533 -0.7992  0.8478
  153SOL     OW 1278   4.273   4.522   6.987 -0.0759  0.6965  0.0808
  153SOL    HW1 1279   4.206   4.452   7.011  0.4116 -0.1067 -0.8046
  153SOL    HW2 1280   4.226   4.606   6.959 -0.7315  0.0304 -0.8483
  154SOL     OW 1281   0.258   1.313   1.770  0.3291  0.4795  1.2067
  154SOL    HW1 1282   0.315   1.316   1.688 -1.3222  0.5210  0.0009
  154SOL    HW2 1283   0.225   1.405   1.791 -0.0264  0.3178  1.3586
  155SOL     OW 1284   3.045   5.667   0.650  0.1275  0.1972 -0.0391
  155SOL    HW1 1285   3.107   5.699   0.722  1.2105  1.4927 -1.4782
  155SOL    HW2 1286   3.042   5.734   0.576 -2.1116 -0.3959 -0.5626
  156SOL     OW 1287   1.055   6.398   4.767 -0.8876  0.3064 -0.6652
  156SOL    HW1 1288   1.085   6.393   4.862 -1.0688  1.3073 -0.5448
  156SOL    HW2 1289   1.130   6.369   4.707  0.0776  1.9382 -0.3223
  157SOL     OW 1290   6.218   4.131   0.602 -0.4691 -0.3641 -0.6300
  157SOL    HW1 1291   6.144   4.086   0.651 -1.6078  1.7451 -0.3251
  157SOL    HW2 1292   6.195   4.137   0.504 -0.3110 -0.4508 -0.6734
  158SOL     OW 1293   0.695   0.002   5.844  0.3869  0.1852 -0.0508
  158SOL    HW1 1294   0.669  -0.026   5.937  2.1291 -0.3366  0.3222
  158SOL    HW2 1295   0.617   0.043   5.798 -0.3138  1.1333  1.9135
  159SOL     OW 1296   1.014   2.772   5.839  0.4561 -0.5235 -0.2899
  159SOL    HW1 1297   0.929   2.761   5.787 -0.3172 -0.2469  0.8764
  159SOL    HW2 1298   0.998   2.831   5.918  2.0286  0.5000 -0.6766
  160SOL     OW 1299   5.275   4.623   1.126  0.5337  0.0847 -0.0613
  160SOL    HW1 1300   5.211   4.680   1.178  0.5963 -0.1315  0.2530
  160SOL    HW2 1301   5.358   4.607   1.180 -0.2662 -1.9175  0.6742
  161SOL     OW 1302   3.555   0.671   3.912 -0.3085 -0.1459  0.4641
  161SOL    HW1 1303   3.595   0.694   4.001 -1.6487 -0.6726  1.2284
  161SOL    HW2 1304   3.572   0.745   3.847 -0.1272  0.6761  1.4333
  162SOL     OW 1305   4.465   6.100   3.369 -0.0392 -0.4797  0.6484
  162SOL    HW1 1306   4.557   6.140   3.370  0.1750 -0.9427  0.1656
  162SOL    HW2 1307   4.450   6.050   3.454  0.5975 -1.3492  0.2733
  163SOL     OW 1308   5.738   3.431   0.581  0.1187 -0.1386  0.2647
  163SOL    HW1 1309   5.785   3.365   0.640 -1.0891 -0.8115  0.5069
  163SOL    HW2 1310   5.784   3.520   0.587  2.0579 -1.0313 -0.4169
  164SOL     OW 1311   1.385   1.652   5.764 -0.6576  0.1238  0.4076
  164SOL    HW1 1312   1.355   1.586   5.833 -0.3535  0.1006  0.5201
  164SOL    HW2 1313   1.367   1.745   5.797  1.0129  0.1856  1.2599
  165SOL     OW 1314   6.350   4.934   5.138 -0.7197 -0.1199 -0.3207
  165SOL    HW1 1315   6.273   4.876   5.112 -1.6706  0.3985  1.1905
  165SOL    HW2 1316   6.316   5.015   5.186  0.6615  1.0826 -1.2826
  166SOL     OW 1317   4.783   5.169   5.663 -0.3482  0.3419 -0.1193
  166SOL    HW1 1318   4.791   5.203   5.569  2.4411 -1.1165 -0.5003
  166SOL    HW2 1319   4.798   5.071   5.665  1.2765  0.5656  2.0288
  167SOL     OW 1320   1.890   0.501   1.217  0.2369  0.3492  0.1813
  167SOL    HW1 1321   1.899   0.485   1.316 -0.8896 -0.7709  0.1314
  167SOL    HW2 1322   1.802   0.467   1.186 -0.8529  3.5940 -0.6505
  168SOL     OW 1323   1.725   5.881   5.019 -0.2566 -0.1794  0.1060
  168SOL    HW1 1324   1.740   5.785   5.039 -1.3061 -0.7149 -1.4534
  168SOL    HW2 1325   1.736   5.897   4.921  0.1912  1.3534  0.3849
  169SOL     OW 1326   3.294   2.752   0.546 -0.2872 -0.1349  0.4167
  169SOL    HW1 1327   3.316   2.691   0.470 -1.1635  0.4280 -0.3252
  169SOL    HW2 1328   3.195   2.752   0.561 -0.2238  0.5077  0.9150
  170SOL     OW 1329   5.017   3.916   1.656 -0.1189  0.1701 -0.1838
  170SOL    HW1 1330   4.997   3.977   1.580  0.6647  0.0387 -0.5132
  170SOL    HW2 1331   5.104   3.943   1.699 -0.4169  0.0795  0.4899
  171SOL     OW 1332   5.430   1.091   0.402 -0.0985  0.4209 -0.2841
  171SOL    HW1 1333   5.508   1.151   0.382  0.7753 -0.4818  0.3942
  171SOL    HW2 1334   5.458   0.996   0.394 -1.0777  0.0842  0.1725
  172SOL     OW 1335   4.552   4.040   3.566  0.1937 -0.3155  0.3151
  172SOL    HW1 1336   4.599   4.065   3.481 -1.3433  2.0290  0.0477
  172SOL    HW2 1337   4.598   3.962   3.608  0.9365 -1.6648 -2.7197
  173SOL     OW 1338   1.078   0.041   0.144  0.5625  0.1102  0.0948
  173SOL    HW1 1339   0.992   0.034   0.194  0.6006  1.3345  0.3554
  173SOL    HW2 1340   1.146  -0.018   0.188  0.2515  0.2313  0.7284
  174SOL     OW 1341   5.973   1.794   5.652 -0.3460 -0.2924 -0.0815
  174SOL    HW1 1342   5.916   1.802   5.734 -0.7886 -0.0673 -0.4079
  174SOL    HW2 1343   5.915   1.794   5.571 -0.0444 -2.1354 -0.3323
  175SOL     OW 1344   6.291   0.605   0.218 -0.4122  0.3588 -0.5391
  175SOL    HW1 1345   6.375   0.619   0.271  1.3885  0.0989 -3.1078
  175SOL    HW2 1346   6.304   0.529   0.155 -2.9052 -0.1636 -0.5020
  176SOL     OW 1347   3.019   0.089   6.479  0.3982  0.1381 -0.4705
  176SOL    HW1 1348   3.039   0.022   6.551  0.9594  0.6079 -0.1830
  176SOL    HW2 1349   2.976   0.042   6.402 -1.2937 -0.1696  0.6240
  177SOL     OW 1350   6.599   3.639   1.275 -0.1385 -0.4408 -0.1533
  177SOL    HW1 1351   6.584   3.724   1.325 -0.3068 -0.9543  0.6848
  177SOL    HW2 1352   6.531   3.631   1.202  0.7335  0.7960 -1.1517
  178SOL     OW 1353   3.875   3.718   6.203  0.0462 -0.0114  0.2217
  178SOL    HW1 1354   3.874   3.645   6.134  2.3636 -0.0978  0.1964
  178SOL    HW2 1355   3.848   3.804   6.160  0.4772 -0.2520 -0.5720
  179SOL     OW 1356   5.059   2.818   3.528  0.0243 -0.3221  0.2298
  179SOL    HW1 1357   5.029   2.811   3.623  1.1063  1.8409  0.7690
  179SOL    HW2 1358   4.994   2.875   3.477  1.3894  1.6165  0.6010
  180SOL     OW 1359   1.377   5.625   1.456 -0.2564 -0.2528  0.1355
  180SOL    HW1 1360   1.425   5.586   1.378 -1.8332  2.0803 -2.1724
  180SOL    HW2 1361   1.430   5.702   1.492 -0.9717  0.6303 -0.6749
  181SOL     OW 1362   5.876   1.618   6.826  0.6893  0.3175  0.8026
  181SOL    HW1 1363   5.927   1.585   6.747  0.3453  1.3610  0.1111
  181SOL    HW2 1364   5.785   1.577   6.827  0.2963  1.1260 -0.0004
  182SOL     OW 1365   2.525   5.881   5.113  0.0556 -0.4421  0.1102
  182SOL    HW1 1366   2.544   5.787   5.086  0.5674 -0.1684 -0.5084
  182SOL    HW2 1367   2.608   5.936   5.103  0.7087 -0.5695  3.5163
  183SOL     OW 1368   4.835   5.499   4.452 -0.3254 -0.0721  0.1020
  183SOL    HW1 1369   4.910   5.504   4.386 -0.6661 -4.8148 -0.9288
  183SOL    HW2 1370   4.870   5.467   4.540 -0.9902 -1.8047 -0.2352
  184SOL     OW 1371   6.438   3.234   1.836  0.3518 -0.0364  0.5636
  184SOL    HW1 1372   6.384   3.313   1.865 -0.1604 -0.7623  1.6529
  184SOL    HW2 1373   6.380   3.153   1.834  1.0013 -0.4977 -0.0060
  185SOL     OW 1374   2.132   1.163   5.099  0.2947  0.1919  0.3871
  185SOL    HW1 1375   2.046   1.215   5.099 -0.3881 -0.8952  1.6719
  185SOL    HW2 1376   2.177   1.174   5.187  0.9601 -0.0942  0.0854
  186SOL     OW 1377   0.881   6.213   6.875  0.2325  0.7924  0.5616
  186SOL    HW1 1378   0.908   6.309   6.885 -0.0682  0.6903  3.3554
  186SOL    HW2 1379   0.883   6.169   6.965 -1.1650 -1.4131 -0.3995
  187SOL     OW 1380   1.085   0.793   0.169 -0.1848  0.2212  0.4415
  187SOL    HW1 1381   1.090   0.862   0.242  0.2396  1.7523 -0.9840
  187SOL    HW2 1382   1.027   0.826   0.096 -1.4535 -1.7507  0.4886
  188SOL     OW 1383   4.038   3.767   2.485 -0.0559  0.0650  0.2708
  188SOL    HW1 1384   4.015   3.707   2.409 -0.4020 -0.1921  0.5785
  188SOL    HW2 1385   4.114   3.826   2.459 -1.1517  1.0394 -0.8240
  189SOL     OW 1386   6.621   5.362   0.723 -0.5608  0.0070 -0.3484
  189SOL    HW1 1387   6.609   5.337   0.820 -1.9288 -1.1859 -0.7906
  189SOL    HW2 1388   6.713   5.399   0.710 -0.1987 -0.1918  1.3322
  190SOL     OW 1389   5.165   6.814   0.090  0.4284 -0.3843  0.2177
  190SOL    HW1 1390   5.222   6.732   0.083  0.3200 -0.4959  0.5544
  190SOL    HW2 1391   5.192   6.866   0.171  0.5272 -0.0607 -0.0225
  191SOL     OW 1392   1.056   4.509   1.608  0.4599 -0.0320  1.0333
  191SOL    HW1 1393   1.138   4.509   1.665  0.3077  0.5010  1.2633
  191SOL    HW2 1394   1.047   4.598   1.563  0.0741 -0.1307  0.9136
  192SOL     OW 1395   2.553   5.233   2.197 -0.0057  0.5903 -0.5323
  192SOL    HW1 1396   2.461   5.213   2.229  0.3383 -0.0051  0.1090
  192SOL    HW2 1397   2.552   5.319   2.146 -0.6764  1.2579  0.5611
  193SOL     OW 1398   6.493   0.529   5.089 -0.3283  0.4569 -0.0860
  193SOL    HW1 1399   6.439   0.575   5.160 -0.9030 -0.6226  0.1960
  193SOL    HW2 1400   6.432   0.499   5.015  0.1164  0.6650 -0.5426
  194SOL     OW 1401   1.484   2.297   0.421  0.1552  0.5789  0.0760
  194SOL    HW1 1402   1.562   2.234   0.420 -1.1570 -1.1517 -1.5306
  194SOL    HW2 1403   1.428   2.280   0.502 -0.5059 -0.8464 -0.6238
  195SOL     OW 1404   0.985   0.688   4.616 -0.7247 -0.2665  0.3774
  195SOL    HW1 1405   0.900   0.708   4.664 -0.9893  0.9316 -0.5243
  195SOL    HW2 1406   1.031   0.610   4.658 -2.7014 -1.4833  0.3607
  196SOL     OW 1407   6.079   6.602   0.430 -0.3790  0.1588  0.1151
  196SOL    HW1 1408   6.104   6.688   0.475 -1.1397 -0.1232  1.0987
  196SOL    HW2 1409   5.994   6.567   0.468  0.3129 -1.4344  0.2996
  197SOL     OW 1410   4.199   1.679   4.641  0.3095  0.2731  0.3792
  197SOL    HW1 1411   4.107   1.695   4.605 -0.0689 -3.2648 -0.5928
  197SOL    HW2 1412   4.197   1.686   4.741 -1.5601 -1.6633  0.5444
  198SOL     OW 1413   5.956   6.298   6.790  0.4214  0.0392  0.0281
  198SOL    HW1 1414   5.908   6.215   6.819 -1.9426  1.0190 -0.8315
  198SOL    HW2 1415   5.993   6.345   6.870 -1.6780  0.1265  1.0166
  199SOL     OW 1416   5.265   6.934   1.970 -0.2354 -0.4131  0.5951
  199SOL    HW1 1417   5.206   6.951   2.049 -1.0221  0.9397 -0.2566
  199SOL    HW2 1418   5.265   6.836   1.948 -2.8482 -0.3687  0.1245
  200SOL     OW 1419   5.387   0.600   5.476 -0.1949 -0.4149 -0.1953
  200SOL    HW1 1420   5.453   0.600   5.401 -0.9455 -1.6329 -0.9109
  200SOL    HW2 1421   5.415   0.666   5.545  2.2964 -1.5362  0.0133
  201SOL     OW 1422   0.603   6.244   0.546  0.0045 -0.6109  0.4929
  201SOL    HW1 1423   0.616   6.229   0.644  0.0266 -0.6670  0.4815
  201SOL    HW2 1424   0.612   6.157   0.497  0.0476 -0.5751  0.4353
  202SOL     OW 1425   1.414   3.279   5.789  0.5750 -0.1714  0.4605
  202SOL    HW1 1426   1.487   3.273   5.721  0.6736 -1.0302  0.6295
  202SOL    HW2 1427   1.327   3.297   5.743  0.7988  0.2640  0.2024
  203SOL     OW 1428   3.231   3.258   0.279 -0.3190 -0.3354 -0.1921
  203SOL    HW1 1429   3.316   3.221   0.241 -0.5350 -0.4606 -0.5650
  203SOL    HW2 1430   3.190   3.192   0.341  1.4369  0.9209  2.4560
  204SOL     OW 1431   0.124   5.542   1.803  0.3493  0.3390  0.2746
  204SOL    HW1 1432   0.060   5.517   1.730  2.3569 -1.0126 -1.0969
  204SOL    HW2 1433   0.086   5.511   1.891 -0.6230 -0.9532 -0.5620
  205SOL     OW 1434   0.884   2.048   5.579  0.1021 -0.5725  0.3586
  205SOL    HW1 1435   0.891   2.120   5.647 -0.2210  1.2800 -1.4897
  205SOL    HW2 1436   0.870   2.088   5.489 -0.2709 -2.9663 -0.7224
  206SOL     OW 1437   4.968   4.684   6.306  0.3223  0.8189 -0.2382
  206SOL    HW1 1438   5.026   4.764   6.318  1.5978  0.0337 -0.9327
  206SOL    HW2 1439   5.001   4.610   6.365  0.7191  0.0219 -1.4077
  207SOL     OW 1440   6.432   6.252   4.464  0.2306  0.3136 -0.0605
  207SOL    HW1 1441   6.415   6.345   4.430 -0.1001  0.8054  1.3682
  207SOL    HW2 1442   6.363   6.190   4.427 -1.1769  1.1665  1.0269
  208SOL     OW 1443   4.661   6.047   6.403  0.3725  0.2541  0.0760
  208SOL    HW1 1444   4.621   5.957   6.423  1.9758  0.0748  2.9437
  208SOL    HW2 1445   4.741   6.035   6.344 -0.9423  0.1444 -1.7705
  209SOL     OW 1446   5.379   3.857   0.808 -0.0020 -0.5841 -0.2573
  209SOL    HW1 1447   5.287   3.843   0.771 -0.4022 -0.5106  0.6610
  209SOL    HW2 1448   5.391   3.799   0.888 -0.4551  1.6764  1.5830
  210SOL     OW 1449   0.813   4.881   2.093  0.2527 -0.0784  0.2867
  210SOL    HW1 1450   0.735   4.942   2.080  1.4489  1.1614 -1.4758
  210SOL    HW2 1451   0.828   4.866   2.191 -1.4368  0.6087  0.6776
  211SOL     OW 1452   6.897   4.007   5.311 -0.2840  0.8548  0.5066
  211SOL    HW1 1453   6.985   3.988   5.353  0.5459 -0.3457 -1.6512
  211SOL    HW2 1454   6.858   3.922   5.275 -0.8398  1.8157 -1.2941
  212SOL     OW 1455   5.257   4.971   1.876  0.5445  0.4464  0.3862
  212SOL    HW1 1456   5.329   5.040   1.869 -0.6354  1.6949  0.2709
  212SOL    HW2 1457   5.250   4.939   1.970  0.5982  1.0543  0.6008
  213SOL     OW 1458   2.331   4.304   0.679 -0.0396 -0.0237  0.6117
  213SOL    HW1 1459   2.282   4.253   0.609 -0.0260  0.1820  0.4466
  213SOL    HW2 1460   2.268   4.333   0.750 -0.7854  2.6629 -0.9805
  214SOL     OW 1461   2.911   3.493   6.367 -0.5813  0.3926  0.0358
  214SOL    HW1 1462   2.954   3.579   6.341  1.0365 -0.5753 -0.6964
  214SOL    HW2 1463   2.836   3.473   6.303 -0.1136  0.6339 -0.6052
  215SOL     OW 1464   5.896   2.014   6.059  0.2043  0.9704  0.0255
  215SOL    HW1 1465   5.824   2.052   6.117  0.6130  2.2028 -0.2554
  215SOL    HW2 1466   5.974   1.987   6.116 -0.8207 -1.3051  0.4567
  216SOL     OW 1467   6.957   4.788   2.063 -0.2176 -0.3455  0.4465
  216SOL    HW1 1468   6.907   4.859   2.013 -1.3283 -0.6002  1.1677
  216SOL    HW2 1469   6.910   4.768   2.149  0.3666 -1.6065  0.4951
  217SOL     OW 1470   2.142   6.466   5.059  0.3157  0.3180 -0.2099
  217SOL    HW1 1471   2.142   6.525   5.140  0.9677  0.2469 -0.1585
  217SOL    HW2 1472   2.216   6.492   4.998  0.0102  0.1757 -0.6456
  218SOL     OW 1473   4.315   3.622   0.700  0.0379 -0.2668  0.1837
  218SOL    HW1 1474   4.317   3.639   0.799  0.2812 -2.3796  0.5937
  218SOL    HW2 1475   4.392   3.564   0.674  0.2607  0.6624 -1.3636
  219SOL     OW 1476   4.374   5.906   3.177  0.7625 -0.4813  0.5213
  219SOL    HW1 1477   4.336   5.830   3.229 -0.9239  1.1368  1.8188
  219SOL    HW2 1478   4.435   5.959   3.236 -1.5478  1.6626  1.2171
  220SOL     OW 1479   5.549   1.790   5.190  0.3692 -0.0994 -0.5409
  220SOL    HW1 1480   5.558   1.816   5.094  0.4729 -0.1851 -0.5552
  220SOL    HW2 1481   5.610   1.713   5.210 -0.7420 -1.0532 -0.7671
  221SOL     OW 1482   4.739   1.047   4.056 -0.1089 -0.0652  0.1520
  221SOL    HW1 1483   4.648   1.088   4.060 -0.1326 -0.0125 -0.6315
  221SOL    HW2 1484   4.743   0.982   3.980  0.8530  0.8366 -0.6119
  222SOL     OW 1485   5.426   6.893   6.264 -0.1589 -0.0183  0.1148
  222SOL    HW1 1486   5.353   6.961   6.252 -0.2733 -0.2452 -0.4743
  222SOL    HW2 1487   5.397   6.825   6.331 -0.2174  0.2643  0.3837
  223SOL     OW 1488   6.701   0.693   0.372 -0.1029 -0.0998 -0.1992
  223SOL    HW1 1489   6.658   0.757   0.307  0.1848 -1.6276 -1.9709
  223SOL    HW2 1490   6.793   0.671   0.341  0.3487 -0.2673  1.1872
  224SOL     OW 1491   0.350   5.467   6.273  0.3641  0.2113  0.0049
  224SOL    HW1 1492   0.434   5.436   6.227  0.0361 -0.8407  0.0807
  224SOL    HW2 1493   0.309   5.390   6.322 -2.4381 -0.2269 -2.7144
  225SOL     OW 1494   5.556   2.553   1.719 -0.0055 -0.2664 -1.0136
  225SOL    HW1 1495   5.595   2.505   1.797  0.6994  1.3120 -0.3633
  225SOL    HW2 1496   5.493   2.623   1.751 -3.1803 -2.4066 -2.0091
  226SOL     OW 1497   4.432   1.474   2.947  0.5695  0.3364 -0.1778
  226SOL    HW1 1498   4.394   1.388   2.980  1.0377  0.5873  1.0859
  226SOL    HW2 1499   4.417   1.545   3.015  3.0904  0.4955  0.3140
  227SOL     OW 1500   3.166   1.753   0.747  0.3650  0.2373 -0.2063
  227SOL    HW1 1501   3.156   1.801   0.835  0.0390 -1.2920  0.6215
  227SOL    HW2 1502   3.240   1.796   0.695  0.7210  1.0462  0.9090
  228SOL     OW 1503   0.497   6.912   0.582  0.1475  0.5650  0.4326
  228SOL    HW1 1504   0.568   6.848   0.551  0.1117  1.6347 -2.0914
  228SOL    HW2 1505   0.409   6.864   0.585  0.3538  0.1341 -0.1160
  229SOL     OW 1506   6.037   1.671   1.441 -0.5576  0.3352 -0.0874
  229SOL    HW1 1507   6.031   1.571   1.430  1.4825  0.1355  0.2160
  229SOL    HW2 1508   6.017   1.715   1.354  2.0567 -0.5673 -1.2619
  230SOL     OW 1509   2.720   1.343   2.395  0.2532  0.3465  0.3112
  230SOL    HW1 1510   2.757   1.253   2.374  0.8907  0.4899  0.7850
  230SOL    HW2 1511   2.678   1.382   2.313 -1.3765 -0.9860  0.4556
  231SOL     OW 1512   0.418   4.881   3.667 -0.1919 -0.0309  0.6208
  231SOL    HW1 1513   0.358   4.876   3.747  2.2228 -2.0616  2.5005
  231SOL    HW2 1514   0.471   4.966   3.670 -1.4501  0.7998  0.0798
  232SOL     OW 1515   5.385   3.349   4.896  0.3312 -0.2916 -0.2149
  232SOL    HW1 1516   5.458   3.410   4.925 -2.2624  2.4133  1.1017
  232SOL    HW2 1517   5.394   3.330   4.798  2.4003  0.3983 -0.2052
  233SOL     OW 1518   3.471   5.944   0.777 -0.2515  0.5189  0.4246
  233SOL    HW1 1519   3.432   5.998   0.852 -0.8928  1.7150 -0.7218
  233SOL    HW2 1520   3.468   5.998   0.692  1.3197 -0.4494 -0.2789
  234SOL     OW 1521   2.426   6.332   1.071 -0.0862 -0.2321  0.2365
  234SOL    HW1 1522   2.436   6.349   0.973 -0.6993  1.2357  0.4030
  234SOL    HW2 1523   2.343   6.375   1.104  0.2407 -0.5017  1.4516
  235SOL     OW 1524   5.715   6.281   3.239 -0.0757  0.3635 -0.0242
  235SOL    HW1 1525   5.677   6.372   3.222 -0.2418  0.1387 -0.9453
  235SOL    HW2 1526   5.641   6.219   3.264 -0.0319  0.3716  0.1251
  236SOL     OW 1527   3.519   6.625   1.646  0.1571 -0.0293  0.4832
  236SOL    HW1 1528   3.600   6.623   1.587 -0.1620  0.7968 -0.0016
  236SOL    HW2 1529   3.465   6.542   1.631  0.0508  0.1986 -0.4324
  237SOL     OW 1530   0.975   5.462   5.306 -0.2866 -0.4822 -0.1243
  237SOL    HW1 1531   0.967   5.367   5.337 -2.2168 -0.6303 -0.9755
  237SOL    HW2 1532   1.001   5.464   5.210  0.1338 -0.1307 -0.0109
  238SOL     OW 1533   2.157   2.764   5.145 -0.2215  0.3513  0.3003
  238SOL    HW1 1534   2.178   2.845   5.199 -0.3864 -0.1171  1.0806
  238SOL    HW2 1535   2.145   2.685   5.206  0.9590 -0.4835 -0.5089
  239SOL     OW 1536   3.369   4.229   0.534 -0.2791  0.2025 -0.1992
  239SOL    HW1 1537   3.338   4.136   0.514  1.7388 -0.7085  0.5761
  239SOL    HW2 1538   3.386   4.277   0.448  1.7109 -1.2964 -0.7506
  240SOL     OW 1539   1.657   5.062   4.518 -0.4727  0.1043  0.1377
  240SOL    HW1 1540   1.604   5.072   4.602  0.0119  0.9812  0.3513
  240SOL    HW2 1541   1.724   4.989   4.529  0.0143  0.6330  0.7501
  241SOL     OW 1542   4.972   2.485   2.469  0.5607  0.1808  0.8571
  241SOL    HW1 1543   4.949   2.539   2.388 -1.6266 -0.7262  0.8021
  241SOL    HW2 1544   5.008   2.396   2.441  1.1957  0.4206  0.9050
  242SOL     OW 1545   0.303   0.499   0.988  0.4298  0.1916  0.1538
  242SOL    HW1 1546   0.230   0.549   0.941  0.3245  0.0958  0.2150
  242SOL    HW2 1547   0.264   0.425   1.043  0.3664  1.3356  1.7467
  243SOL     OW 1548   5.419   1.084   1.731 -0.1032 -0.0133  0.1067
  243SOL    HW1 1549   5.466   1.034   1.804  0.0475 -2.1218 -1.3245
  243SOL    HW2 1550   5.329   1.112   1.763 -0.5669 -2.0212  0.7819
  244SOL     OW 1551   3.897   4.373   1.458 -0.5235  0.0846  0.1989
  244SOL    HW1 1552   3.966   4.304   1.438  1.7029  1.4600  2.4912
  244SOL    HW2 1553   3.925   4.461   1.421 -0.8054  0.7694  1.5513
  245SOL     OW 1554   2.669   6.883   4.889  0.3811  0.0235 -0.1915
  245SOL    HW1 1555   2.741   6.841   4.833  0.2155  1.4628 -1.5582
  245SOL    HW2 1556   2.687   6.865   4.986  0.5670 -2.7137 -0.6547
  246SOL     OW 1557   0.301   1.464   0.261 -0.2339 -0.0232  0.0442
  246SOL    HW1 1558   0.256   1.398   0.201  0.5622 -2.3482  1.8767
  246SOL    HW2 1559   0.395   1.478   0.230 -0.8103  1.5307 -1.2268
  247SOL     OW 1560   5.562   0.796   1.616 -0.6318  0.0058 -0.2558
  247SOL    HW1 1561   5.594   0.855   1.690 -0.8573 -0.0771 -0.0874
  247SOL    HW2 1562   5.612   0.816   1.532 -0.6076  0.3372 -0.1627
  248SOL     OW 1563   1.461   1.452   2.880  0.0992  0.2805  0.1234
  248SOL    HW1 1564   1.413   1.521   2.935 -1.4118 -0.8030  0.2202
  248SOL    HW2 1565   1.422   1.448   2.789 -0.4694 -1.0468  0.3933
  249SOL     OW 1566   2.864   0.820   6.285 -0.3416  0.1194  0.0381
  249SOL    HW1 1567   2.916   0.736   6.272 -0.9194 -0.1595 -0.5124
  249SOL    HW2 1568   2.925   0.899   6.276  0.4033 -0.2501  1.4789
  250SOL     OW 1569   1.557   4.141   1.655 -0.0093 -0.2396  0.2232
  250SOL    HW1 1570   1.470   4.166   1.612  0.0754 -0.7348 -0.2450
  250SOL    HW2 1571   1.542   4.067   1.720  0.5760 -3.0373 -2.5794
  251SOL     OW 1572   2.624   0.315   0.978 -0.6129 -0.1942 -0.4686
  251SOL    HW1 1573   2.543   0.264   0.949  0.8127 -2.5886 -0.5048
  251SOL    HW2 1574   2.668   0.268   1.055  0.2306  1.5844  0.2191
  252SOL     OW 1575   5.219   0.052   6.445 -0.5089 -0.0642  0.3431
  252SOL    HW1 1576   5.162   0.128   6.477  0.8432  1.0303  0.2399
  252SOL    HW2 1577   5.313   0.083   6.434 -0.1008 -1.5345 -0.5978
  253SOL     OW 1578   0.877   1.924   2.678 -0.2640  0.1960 -0.5968
  253SOL    HW1 1579   0.826   2.009   2.667 -1.6643 -0.6497 -0.7970
  253SOL    HW2 1580   0.968   1.935   2.637 -0.1717  1.7843 -0.0499
  254SOL     OW 1581   2.048   1.184   4.656 -0.6280  0.1999  0.2739
  254SOL    HW1 1582   1.964   1.133   4.638 -0.6490  0.5473 -0.6776
  254SOL    HW2 1583   2.025   1.270   4.701 -0.9239  0.8819 -1.1323
  255SOL     OW 1584   2.077   6.984   0.845  0.3912  0.2991  0.1121
  255SOL    HW1 1585   2.145   6.941   0.786  0.4022  0.7280 -0.1951
  255SOL    HW2 1586   2.091   7.083   0.845 -0.2226  0.3651  0.0603
  256SOL     OW 1587   0.406   5.776   3.741  0.1285 -0.2731 -0.7256
  256SOL    HW1 1588   0.404   5.681   3.771  0.5462 -0.3103 -0.8167
  256SOL    HW2 1589   0.357   5.833   3.807  0.6056 -0.4312 -0.2328
  257SOL     OW 1590   0.618   1.196   6.047  0.2411  0.4812 -0.6093
  257SOL    HW1 1591   0.564   1.112   6.043  1.0213  0.0347 -3.4431
  257SOL    HW2 1592   0.713   1.175   6.025  0.2871  2.1876 -2.2781
  258SOL     OW 1593   3.149   6.051   0.699  0.1490 -0.0284 -0.5745
  258SOL    HW1 1594   3.233   6.102   0.682  0.9029 -0.4992  1.3783
  258SOL    HW2 1595   3.133   5.986   0.625  0.9754  0.7272 -1.4332
  259SOL     OW 1596   4.936   5.740   6.621 -0.0876 -0.0296  0.1626
  259SOL    HW1 1597   4.931   5.715   6.524 -0.3218  0.7815 -0.0569
  259SOL    HW2 1598   4.844   5.743   6.660 -0.0908  0.6103  0.1319
  260SOL     OW 1599   3.749   0.679   0.274 -0.2037 -0.5147  0.1323
  260SOL    HW1 1600   3.688   0.752   0.241 -2.5064 -0.8722  3.1781
  260SOL    HW2 1601   3.799   0.711   0.354  0.9009 -1.4165 -0.1823
  261SOL     OW 1602   2.406   6.462   0.501 -0.4462  0.4837 -0.0736
  261SOL    HW1 1603   2.505   6.460   0.487 -0.6884  0.3813 -1.9027
  261SOL    HW2 1604   2.366   6.375   0.473 -1.1144  0.6132  0.4226
  262SOL     OW 1605   2.836   3.086   1.432 -0.0372  0.3496 -0.1576
  262SOL    HW1 1606   2.896   3.046   1.501  1.5304  0.1697 -1.5492
  262SOL    HW2 1607   2.840   3.031   1.348 -1.8467  0.5845 -0.4322
  263SOL     OW 1608   3.366   6.540   3.441  0.5567  0.1565  0.0389
  263SOL    HW1 1609   3.326   6.566   3.353  0.4536 -0.9258 -0.2465
  263SOL    HW2 1610   3.361   6.441   3.452  1.5669  0.1708  0.7695
  264SOL     OW 1611   1.463   6.859   6.322  0.2414 -0.6093 -0.6829
  264SOL    HW1 1612   1.537   6.876   6.256 -0.3264 -0.5173 -1.2988
  264SOL    HW2 1613   1.392   6.929   6.312  0.6032  0.0130  0.7147
  265SOL     OW 1614   3.902   5.917   3.037 -0.5822 -0.1042 -0.3608
  265SOL    HW1 1615   3.851   5.975   2.973 -0.1893 -0.6599 -1.1876
  265SOL    HW2 1616   3.995   5.952   3.046 -0.7314  0.1711  0.1839
  266SOL     OW 1617   4.643   3.167   1.670 -0.5400 -0.1914 -0.2025
  266SOL    HW1 1618   4.708   3.224   1.620  0.5722 -0.5132  0.8377
  266SOL    HW2 1619   4.550   3.200   1.654 -0.1231  0.3127 -1.6614
  267SOL     OW 1620   4.243   2.671   1.741 -0.4455  0.4891 -0.0918
  267SOL    HW1 1621   4.287   2.685   1.830 -0.5464  1.3823 -0.1732
  267SOL    HW2 1622   4.154   2.627   1.754  0.8061 -2.2320  0.0108
  268SOL     OW 1623   1.100   2.587   1.290 -0.2840 -0.3128 -0.3411
  268SOL    HW1 1624   1.025   2.623   1.345  0.3410 -1.0854  1.0517
  268SOL    HW2 1625   1.095   2.488   1.287 -0.1996 -0.2925 -1.5392
  269SOL     OW 1626   1.486   6.791   3.879  0.4742  0.2290  0.1356
  269SOL    HW1 1627   1.407   6.732   3.866  0.8390 -0.5400  1.2288
  269SOL    HW2 1628   1.565   6.735   3.904  0.1588  1.2814  4.3189
  270SOL     OW 1629   3.477   4.515   5.455 -0.0123  0.5984  0.3617
  270SOL    HW1 1630   3.412   4.581   5.493  0.1193  0.2158  1.2666
  270SOL    HW2 1631   3.434   4.426   5.446  0.7666 -0.0432  2.3597
  271SOL     OW 1632   2.048   5.552   0.827  0.6211  0.0517  0.4088
  271SOL    HW1 1633   2.021   5.522   0.736  0.0987  0.2474  0.4959
  271SOL    HW2 1634   2.033   5.477   0.892  1.7646 -0.3705  0.2101
  272SOL     OW 1635   0.774   3.657   1.426  0.4013  0.1899 -0.1581
  272SOL    HW1 1636   0.859   3.629   1.382  0.6230 -0.9888  0.9528
  272SOL    HW2 1637   0.792   3.680   1.522 -0.7455 -1.5889  0.5234
  273SOL     OW 1638   4.304   0.944   2.408 -0.3812 -0.1908  0.0069
  273SOL    HW1 1639   4.205   0.947   2.403 -0.3202  0.5774 -1.1991
  273SOL    HW2 1640   4.332   0.892   2.489 -1.7404 -1.6617 -0.4166
  274SOL     OW 1641   3.966   2.664   1.475 -0.4708 -0.2784 -0.4173
  274SOL    HW1 1642   4.019   2.733   1.425  1.7726 -0.4213  1.5589
  274SOL    HW2 1643   3.934   2.594   1.412  1.3866  0.0396 -1.8009
  275SOL     OW 1644   1.553   5.108   6.048  0.7001 -0.4059 -0.6399
  275SOL    HW1 1645   1.469   5.074   6.006 -0.2833  1.2555 -0.1030
  275SOL    HW2 1646   1.604   5.031   6.086  0.4140 -1.6726 -2.6512
  276SOL     OW 1647   4.462   4.053   5.829  0.2255  0.1255 -0.0046
  276SOL    HW1 1648   4.459   4.066   5.730  1.1005 -1.0415 -0.1979
  276SOL    HW2 1649   4.369   4.033   5.863  0.0113 -0.0371 -0.6753
  277SOL     OW 1650   2.784   6.162   3.479 -0.1293  0.5379 -0.6316
  277SOL    HW1 1651   2.804   6.247   3.430 -1.7321  1.1310 -0.2888
  277SOL    HW2 1652   2.819   6.168   3.572  0.1214  0.6563 -0.7323
  278SOL     OW 1653   3.845   2.777   6.634  0.1406 -0.2908  0.3391
  278SOL    HW1 1654   3.879   2.869   6.612 -0.3641 -0.1554  0.0944
  278SOL    HW2 1655   3.755   2.765   6.593  0.7677 -1.3850 -0.7734
  279SOL     OW 1656   0.023   3.440   5.804 -0.0739  0.5161  0.2144
  279SOL    HW1 1657   0.029   3.423   5.705  1.2646  0.3541  0.3114
  279SOL    HW2 1658   0.096   3.503   5.832 -0.6564  0.8351  1.0536
  280SOL     OW 1659   2.683   3.333   2.815  0.0224 -0.0618 -0.4242
  280SOL    HW1 1660   2.711   3.238   2.801 -0.8362 -0.7901  2.2386
  280SOL    HW2 1661   2.732   3.371   2.893 -0.7085  1.2255 -0.5654
  281SOL     OW 1662   0.772   4.392   6.403  0.3753 -0.8291 -0.7985
  281SOL    HW1 1663   0.785   4.364   6.308 -0.1496  1.6886 -1.7022
  281SOL    HW2 1664   0.675   4.393   6.426  0.1739  1.7191 -1.4037
  282SOL     OW 1665   3.943   0.573   2.914 -0.4354  0.0861 -0.0552
  282SOL    HW1 1666   3.969   0.581   3.010 -0.5881  1.7659 -0.1223
  282SOL    HW2 1667   3.890   0.653   2.887 -1.1088 -0.7473 -1.3379
  283SOL     OW 1668   2.521   1.965   2.485 -0.1985  0.4432  0.3345
  283SOL    HW1 1669   2.493   1.964   2.581  1.0116 -0.4193  0.6918
  283SOL    HW2 1670   2.548   2.058   2.459 -0.3886  0.6501  0.8632
  284SOL     OW 1671   5.692   5.350   5.211 -0.4291 -0.0287  0.9539
  284SOL    HW1 1672   5.706   5.449   5.214  2.2167 -0.2619 -0.4001
  284SOL    HW2 1673   5.745   5.306   5.283  1.0619 -0.5853 -0.4037
  285SOL     OW 1674   6.431   2.683   6.777  0.0220  0.1261  0.0148
  285SOL    HW1 1675   6.409   2.735   6.695 -0.1906 -0.5511 -0.3668
  285SOL    HW2 1676   6.469   2.594   6.752  0.2016  0.0115  0.6491
  286SOL     OW 1677   5.286   3.720   0.257  0.1343 -0.3552 -0.5209
  286SOL    HW1 1678   5.277   3.766   0.345 -0.0729 -2.3195  0.5311
  286SOL    HW2 1679   5.245   3.629   0.262 -0.1039 -0.4225 -2.7339
  287SOL     OW 1680   2.889   2.498   1.709  0.1304 -0.6144  0.7950
  287SOL    HW1 1681   2.913   2.512   1.613  0.4515  4.0906  1.3441
  287SOL    HW2 1682   2.973   2.484   1.763  0.3183  0.4396  0.7989
  288SOL     OW 1683   3.214   3.692   1.109  0.0699 -0.3774  0.2328
  288SOL    HW1 1684   3.237   3.738   1.023 -1.1653 -1.9837 -1.0333
  288SOL    HW2 1685   3.297   3.654   1.151  0.5739 -0.3657 -0.7212
  289SOL     OW 1686   4.477   4.524   3.810 -0.0241 -1.0616  1.0292
  289SOL    HW1 1687   4.384   4.557   3.823 -0.1012 -1.0817  0.5514
  289SOL    HW2 1688   4.501   4.462   3.884 -0.7722 -1.9029  0.5786
  290SOL     OW 1689   6.555   2.208   4.445  0.3189 -0.2423 -0.6265
  290SOL    HW1 1690   6.654   2.215   4.453  0.3537 -2.0557  1.5239
  290SOL    HW2 1691   6.524   2.125   4.491 -2.5982  2.4570  2.7817
  291SOL     OW 1692   5.621   4.501   3.630 -0.0170  0.2840  0.3999
  291SOL    HW1 1693   5.695   4.454   3.581  0.0665  0.5392  0.2751
  291SOL    HW2 1694   5.540   4.505   3.571  0.6367  2.1922 -0.4536
  292SOL     OW 1695   5.979   1.645   3.727  0.1563  0.7669  0.7709
  292SOL    HW1 1696   5.967   1.724   3.788  0.5716  0.4217  1.3168
  292SOL    HW2 1697   6.009   1.567   3.781 -0.2158  0.2421  0.2255
  293SOL     OW 1698   4.721   2.611   1.272 -0.3909 -0.0941 -0.1314
  293SOL    HW1 1699   4.761   2.548   1.205  0.4703 -1.5527  1.6886
  293SOL    HW2 1700   4.712   2.566   1.360 -0.8208  2.0049  0.9652
  294SOL     OW 1701   5.341   4.949   5.560  0.1469  0.8357 -0.3854
  294SOL    HW1 1702   5.405   4.875   5.578  2.2016  3.0428  2.1709
  294SOL    HW2 1703   5.358   4.987   5.469 -0.0394 -0.9191 -1.1841
  295SOL     OW 1704   2.253   4.392   3.062  0.0106 -0.1147  0.0096
  295SOL    HW1 1705   2.285   4.381   2.968 -0.3994 -4.2243  0.1960
  295SOL    HW2 1706   2.328   4.425   3.119  1.1515 -0.5199 -1.2110
  296SOL     OW 1707   5.249   1.453   5.571  0.2216  0.4744  0.2584
  296SOL    HW1 1708   5.303   1.441   5.488  0.2381 -1.4273  0.4924
  296SOL    HW2 1709   5.214   1.546   5.575  3.4370  1.8232  0.0990
  297SOL     OW 1710   5.166   3.360   0.858  0.2850  0.4000 -0.0281
  297SOL    HW1 1711   5.136   3.450   0.889  2.0846  0.7259  0.9050
  297SOL    HW2 1712   5.086   3.304   0.835 -0.9079  1.8313  0.4760
  298SOL     OW 1713   6.383   0.851   6.459  0.6040  0.6197  0.1803
  298SOL    HW1 1714   6.379   0.938   6.508  1.1122  2.2958 -2.5384
  298SOL    HW2 1715   6.471   0.842   6.413  0.6113 -1.4154  0.5084
  299SOL     OW 1716   1.296   2.810   3.007 -0.6963 -0.2577  0.4498
  299SOL    HW1 1717   1.299   2.884   2.939  0.9656 -0.6689  0.0536
  299SOL    HW2 1718   1.232   2.836   3.080 -1.3653  0.8566 -0.4853
  300SOL     OW 1719   1.044   3.137   3.422 -0.1015  0.2509  0.2674
  300SOL    HW1 1720   1.000   3.070   3.361 -0.0050  1.7132 -1.5010
  300SOL    HW2 1721   1.054   3.224   3.374  2.9464  0.5660  1.2773
  301SOL     OW 1722   2.149   0.475   1.726  0.4481 -0.5468 -0.0180
  301SOL    HW1 1723   2.118   0.549   1.785  0.6144 -0.1272 -0.4454
  301SOL    HW2 1724   2.142   0.388   1.774 -4.3029 -0.9760 -1.0041
  302SOL     OW 1725   1.338   4.509   1.653 -0.0607 -0.2889 -0.3862
  302SOL    HW1 1726   1.401   4.540   1.583  1.1831 -2.5582 -0.3508
  302SOL    HW2 1727   1.345   4.569   1.733 -0.8634  1.8014 -1.8002
  303SOL     OW 1728   4.953   5.626   0.386  0.2847  0.1074 -0.2844
  303SOL    HW1 1729   4.882   5.676   0.337  0.4437  1.8195  1.1462
  303SOL    HW2 1730   5.008   5.689   0.440  2.8408 -1.1561 -1.2055
  304SOL     OW 1731   1.754   2.569   1.435  0.2510  0.5023  0.9362
  304SOL    HW1 1732   1.718   2.662   1.432  0.9030  0.7348 -0.3548
  304SOL    HW2 1733   1.679   2.504   1.426 -0.0631  0.9475  0.1999
  305SOL     OW 1734   0.028   4.383   3.645 -0.0005 -0.1773 -0.1088
  305SOL    HW1 1735   0.029   4.483   3.639  0.1148 -0.1441  0.3899
  305SOL    HW2 1736   0.062   4.344   3.560  0.2060  0.2170 -0.2091
  306SOL     OW 1737   4.924   5.823   5.826  0.1799 -0.0505 -0.4420
  306SOL    HW1 1738   4.846   5.848   5.885  0.4536 -0.7236  0.2221
  306SOL    HW2 1739   4.905   5.736   5.780 -0.1580  0.6106 -1.6162
  307SOL     OW 1740   1.167   5.480   6.886  0.4469 -0.3615 -0.0009
  307SOL    HW1 1741   1.083   5.430   6.865 -0.2715  1.1620 -0.8351
  307SOL    HW2 1742   1.144   5.564   6.935  1.4388  0.3651 -0.7650
  308SOL     OW 1743   3.509   3.544   0.640  0.1827 -0.2548  0.0420
  308SOL    HW1 1744   3.584   3.516   0.699  0.9700  2.8433  0.6898
  308SOL    HW2 1745   3.431   3.572   0.697  1.5506  4.4358 -0.0485
  309SOL     OW 1746   0.794   2.234   2.646  0.1379  0.0526 -0.2323
  309SOL    HW1 1747   0.880   2.219   2.597 -1.1782  0.5635 -2.8935
  309SOL    HW2 1748   0.743   2.309   2.604 -1.6690 -0.2871  1.1806
  310SOL     OW 1749   5.186   5.451   1.272  0.2215 -0.1961 -0.0552
  310SOL    HW1 1750   5.176   5.490   1.181  1.4960  2.0060  0.6762
  310SOL    HW2 1751   5.283   5.454   1.300 -0.3700  1.2105  2.1657
  311SOL     OW 1752   4.257   1.133   1.471  0.7752 -0.4832  0.0148
  311SOL    HW1 1753   4.193   1.171   1.404  1.2811 -1.1571 -0.8636
  311SOL    HW2 1754   4.270   1.198   1.545  1.3978  0.9417 -1.3007
  312SOL     OW 1755   2.318   5.825   0.727  0.1549 -0.3175  0.2576
  312SOL    HW1 1756   2.325   5.797   0.823  0.8057  0.6024  0.5032
  312SOL    HW2 1757   2.292   5.922   0.723  3.3097  0.6205 -0.3474
  313SOL     OW 1758   4.811   5.575   5.714 -0.4484 -0.1103  0.5474
  313SOL    HW1 1759   4.876   5.509   5.751  1.1155  0.6389 -0.7358
  313SOL    HW2 1760   4.799   5.559   5.616 -0.0950  1.4064  0.2207
  314SOL     OW 1761   4.392   0.651   5.107 -0.2403 -0.0789 -0.4679
  314SOL    HW1 1762   4.437   0.584   5.165 -1.5127  0.7288  1.5483
  314SOL    HW2 1763   4.388   0.739   5.155 -0.1590  1.0022 -2.3380
  315SOL     OW 1764   4.594   0.664   4.208 -0.0937 -0.9097  0.3679
  315SOL    HW1 1765   4.638   0.616   4.283 -0.4566  0.6927  1.6665
  315SOL    HW2 1766   4.646   0.747   4.187 -2.4222  1.1342  2.0521
  316SOL     OW 1767   6.107   0.076   1.182  0.3596 -0.2201  0.3832
  316SOL    HW1 1768   6.175   0.006   1.202 -0.9767 -1.4803  0.7293
  316SOL    HW2 1769   6.031   0.068   1.246 -1.2369 -0.4495 -1.4312
  317SOL     OW 1770   1.975   1.112   6.196  0.0199 -0.2132  0.1523
  317SOL    HW1 1771   1.944   1.088   6.104  1.9980  0.0749 -0.6197
  317SOL    HW2 1772   1.917   1.067   6.264 -0.3364 -1.8851 -1.2259
  318SOL     OW 1773   5.827   2.111   1.563 -0.5788 -0.2583  0.3057
  318SOL    HW1 1774   5.884   2.029   1.572 -2.7914 -1.7139  1.8406
  318SOL    HW2 1775   5.793   2.118   1.469  0.9888 -0.1056 -0.2819
  319SOL     OW 1776   6.349   6.181   2.732  0.0673 -0.2509  0.1000
  319SOL    HW1 1777   6.438   6.157   2.692 -0.2730 -0.3484 -0.6315
  319SOL    HW2 1778   6.358   6.185   2.832  0.5984 -1.5091  0.1311
  320SOL     OW 1779   6.081   4.823   6.200 -0.2760  0.4823 -0.2887
  320SOL    HW1 1780   6.081   4.918   6.168  0.1748  0.9336  0.9680
  320SOL    HW2 1781   6.124   4.819   6.290  0.3049 -1.0231 -0.6054
  321SOL     OW 1782   0.122   6.034   2.725  0.2448  0.0322  0.0990
  321SOL    HW1 1783   0.113   6.041   2.626 -0.3828 -0.8191  0.0823
  321SOL    HW2 1784   0.218   6.044   2.751  0.3893  0.4647 -0.5740
  322SOL     OW 1785   6.461   5.956   1.329 -0.2958  0.1157 -0.1230
  322SOL    HW1 1786   6.442   5.903   1.247 -0.9564 -2.1296  1.3725
  322SOL    HW2 1787   6.394   5.932   1.400  0.4775  1.6825  1.2122
  323SOL     OW 1788   3.572   6.312   0.102 -0.0435  0.5384 -0.4276
  323SOL    HW1 1789   3.493   6.345   0.051 -1.0969 -1.0759  0.0980
  323SOL    HW2 1790   3.558   6.326   0.200  0.0983 -0.1596 -0.2952
  324SOL     OW 1791   6.006   6.969   4.083 -0.4369 -0.2492 -0.0095
  324SOL    HW1 1792   6.005   6.919   3.996  1.5895 -2.5964  1.1725
  324SOL    HW2 1793   5.949   6.921   4.150 -0.0912  0.1682  0.6032
  325SOL     OW 1794   3.706   5.331   3.599 -0.0052 -0.6072 -0.3305
  325SOL    HW1 1795   3.783   5.273   3.627 -0.7662 -0.5766  2.1489
  325SOL    HW2 1796   3.705   5.414   3.656 -1.0630  0.0569 -1.2787
  326SOL     OW 1797   6.713   2.768   0.736 -0.3097 -0.1058 -0.1346
  326SOL    HW1 1798   6.674   2.827   0.666  0.4853 -0.8505 -1.2396
  326SOL    HW2 1799   6.809   2.749   0.714  0.0759 -0.0180  1.3877
  327SOL     OW 1800   2.838   6.420   4.497  0.0986 -0.1656 -0.1815
  327SOL    HW1 1801   2.755   6.427   4.553 -0.3365 -1.4537 -0.6069
  327SOL    HW2 1802   2.899   6.351   4.536  0.7846  0.4630 -0.1119
  328SOL     OW 1803   3.796   6.654   2.567  0.2926  0.1953 -0.3241
  328SOL    HW1 1804   3.890   6.685   2.549  0.9956 -2.9006 -2.6932
  328SOL    HW2 1805   3.734   6.694   2.499  0.2747  0.4822 -0.1408
  329SOL     OW 1806   0.392   0.383   3.626 -0.2911 -0.4388  0.2371
  329SOL    HW1 1807   0.303   0.425   3.640 -0.1463 -0.4093  1.0823
  329SOL    HW2 1808   0.438   0.371   3.714  0.2827 -1.0134 -0.1328
  330SOL     OW 1809   3.705   1.446   6.011  0.7601 -0.0748  0.2172
  330SOL    HW1 1810   3.656   1.506   6.074  0.7177 -0.8307  0.9181
  330SOL    HW2 1811   3.653   1.437   5.927 -0.2369 -0.7433  0.8929
  331SOL     OW 1812   1.177   4.089   5.657  0.1623 -0.2510 -0.0852
  331SOL    HW1 1813   1.271   4.120   5.643  0.5359 -1.4375 -0.4050
  331SOL    HW2 1814   1.178   4.006   5.713 -0.7077 -0.1237  0.1220
  332SOL     OW 1815   3.626   0.975   4.727 -0.3033  0.7171 -0.2115
  332SOL    HW1 1816   3.641   0.955   4.630 -1.1375 -1.6084  0.0810
  332SOL    HW2 1817   3.656   1.068   4.747  2.6029  0.2754 -2.0640
  333SOL     OW 1818   1.164   0.615   6.277 -0.3074  0.8611  0.0328
  333SOL    HW1 1819   1.199   0.602   6.370 -0.3558  1.7426  0.1845
  333SOL    HW2 1820   1.081   0.671   6.280 -0.2402  1.0011 -0.5475
  334SOL     OW 1821   6.868   4.359   4.720  0.2089 -0.0721  0.3403
  334SOL    HW1 1822   6.797   4.396   4.779  0.5481 -0.1115  0.7803
  334SOL    HW2 1823   6.907   4.276   4.762 -0.0143 -0.4900 -0.2630
  335SOL     OW 1824   0.347   1.244   5.037  0.2393  0.2225  0.5250
  335SOL    HW1 1825   0.346   1.296   4.951 -0.5081  1.0800  1.0301
  335SOL    HW2 1826   0.393   1.157   5.023 -0.1005  0.2438 -0.8114
  336SOL     OW 1827   0.120   6.171   2.204 -0.4920  0.6648  0.1510
  336SOL    HW1 1828   0.118   6.126   2.115 -1.2259 -0.1022  0.5418
  336SOL    HW2 1829   0.202   6.228   2.211  0.3155 -0.3847 -0.4700
  337SOL     OW 1830   0.478   3.175   2.509  0.0159 -0.2944 -0.0821
  337SOL    HW1 1831   0.573   3.202   2.525 -0.2540 -0.0206  1.1319
  337SOL    HW2 1832   0.476   3.085   2.464  0.8421 -0.4943  0.2634
  338SOL     OW 1833   2.381   5.499   5.294  0.0173  0.0819 -0.0505
  338SOL    HW1 1834   2.309   5.514   5.361  0.1705 -1.6875  0.5584
  338SOL    HW2 1835   2.340   5.491   5.203 -0.6401 -1.4580  0.3606
  339SOL     OW 1836   4.061   1.696   4.191 -0.3680 -0.5969  0.3049
  339SOL    HW1 1837   4.119   1.686   4.110 -4.7766 -0.9921 -3.2269
  339SOL    HW2 1838   4.059   1.610   4.242  3.0645 -0.1203  1.4624
  340SOL     OW 1839   5.040   4.457   5.187 -0.1185 -0.3588  0.1519
  340SOL    HW1 1840   5.018   4.547   5.152 -2.3877 -0.6167  0.7329
  340SOL    HW2 1841   4.985   4.388   5.140 -0.3164 -1.1394  1.4400
  341SOL     OW 1842   0.006   5.724   6.173 -0.3534  0.3204  0.0974
  341SOL    HW1 1843  -0.002   5.803   6.112 -0.7579 -0.0524 -0.3384
  341SOL    HW2 1844   0.080   5.665   6.141 -0.0070  0.5532  0.4565
  342SOL     OW 1845   6.491   3.997   2.809 -0.3346  0.4146 -0.0687
  342SOL    HW1 1846   6.450   4.047   2.732  0.6538  1.4507  0.0531
  342SOL    HW2 1847   6.559   4.055   2.853  1.5404 -1.3437 -0.4877
  343SOL     OW 1848   4.778   2.200   4.498  0.2586  0.3715 -0.7478
  343SOL    HW1 1849   4.749   2.113   4.537  1.4008  0.1578 -0.3515
  343SOL    HW2 1850   4.731   2.215   4.410  0.0996 -0.6513 -0.8409
  344SOL     OW 1851   4.099   0.868   1.341 -0.4350  0.3446 -0.1228
  344SOL    HW1 1852   4.099   0.835   1.436 -0.8938  1.2853  0.2134
  344SOL    HW2 1853   4.174   0.933   1.329  2.2519 -2.7459 -1.5121
  345SOL     OW 1854   5.783   4.066   5.048  0.1505  0.0168 -0.2802
  345SOL    HW1 1855   5.840   4.139   5.084 -1.7633  0.9654  0.9944
  345SOL    HW2 1856   5.705   4.105   4.999  0.8648 -1.2392 -2.5763
  346SOL     OW 1857   5.491   1.036   5.435 -0.2384  0.6592 -0.6858
  346SOL    HW1 1858   5.506   1.094   5.516 -0.4399  0.4728 -0.5150
  346SOL    HW2 1859   5.580   1.010   5.396 -0.1267  2.6198 -1.8757
  347SOL     OW 1860   6.824   5.051   5.664  0.3779  0.5124  0.1051
  347SOL    HW1 1861   6.838   4.986   5.590 -0.4636 -0.4768  0.7922
  347SOL    HW2 1862   6.843   5.143   5.632 -1.1324  0.2441 -1.6950
  348SOL     OW 1863   5.550   6.874   3.910 -0.6650  0.1498 -0.3009
  348SOL    HW1 1864   5.483   6.941   3.879  1.1789  2.3028  0.0316
  348SOL    HW2 1865   5.552   6.873   4.010  1.1182  1.6199 -0.2755
  349SOL     OW 1866   3.390   3.935   3.974  0.1930 -0.6477  0.3087
  349SOL    HW1 1867   3.312   3.930   4.036  0.3209 -0.9411  0.4547
  349SOL    HW2 1868   3.414   4.031   3.958  0.1025 -0.5669  0.6409
  350SOL     OW 1869   5.848   5.730   6.705 -0.3535 -0.0717 -0.0292
  350SOL    HW1 1870   5.749   5.743   6.702 -0.2844  0.1603 -1.8412
  350SOL    HW2 1871   5.871   5.638   6.671  0.0765 -0.0184  0.1063
  351SOL     OW 1872   3.072   2.147   1.708  0.0650  0.5434  0.0066
  351SOL    HW1 1873   3.077   2.113   1.615  1.1907 -2.5654  1.0644
  351SOL    HW2 1874   2.977   2.149   1.739 -0.1655 -0.1554 -0.6376
  352SOL     OW 1875   2.987   2.296   3.316  0.1413  0.4339 -0.1542
  352SOL    HW1 1876   2.989   2.328   3.411  0.5706 -2.5824  0.9881
  352SOL    HW2 1877   3.040   2.358   3.259  0.9145  1.6921  1.8267
  353SOL     OW 1878   2.839   4.866   3.435 -0.7490  0.0650  0.3196
  353SOL    HW1 1879   2.856   4.770   3.457  1.6858  0.1347 -0.9003
  353SOL    HW2 1880   2.748   4.875   3.394 -0.7327 -1.8680 -0.2636
  354SOL     OW 1881   3.435   6.908   6.331 -0.5211 -0.5524  0.2391
  354SOL    HW1 1882   3.533   6.888   6.331 -0.2340  0.8133 -0.2812
  354SOL    HW2 1883   3.386   6.833   6.285  0.4429 -0.5102 -0.9022
  355SOL     OW 1884   1.747   3.311   0.846 -0.3628  0.0415  0.4730
  355SOL    HW1 1885   1.794   3.344   0.928  0.6372  1.2072 -0.5327
  355SOL    HW2 1886   1.650   3.337   0.850 -0.3327  0.0348  1.3035
  356SOL     OW 1887   3.882   2.966   4.657 -0.0719 -0.3741 -0.1011
  356SOL    HW1 1888   3.877   3.058   4.619 -0.3961  0.3880  1.6674
  356SOL    HW2 1889   3.958   2.960   4.721 -2.0276 -0.2440  2.3906
  357SOL     OW 1890   3.418   1.822   0.632 -0.4075 -0.0633  0.2238
  357SOL    HW1 1891   3.399   1.803   0.536 -0.7745 -0.1006  0.2991
  357SOL    HW2 1892   3.447   1.917   0.642  0.6485 -0.3522 -0.0558
  358SOL     OW 1893   5.904   1.427   5.096 -0.0029  0.3079  0.0245
  358SOL    HW1 1894   5.914   1.328   5.110 -1.4913 -0.6666 -4.0781
  358SOL    HW2 1895   5.824   1.460   5.146 -0.3821 -0.9332  0.2814
  359SOL     OW 1896   0.935   1.139   1.225  0.4581 -0.3931 -0.2351
  359SOL    HW1 1897   0.879   1.056   1.212 -0.5260  0.3505 -0.8794
  359SOL    HW2 1898   0.944   1.158   1.323 -2.4765  0.7743 -0.0936
  360SOL     OW 1899   4.181   0.721   0.551  0.3148 -1.5602  0.0723
  360SOL    HW1 1900   4.084   0.709   0.574 -0.0315  0.3314 -0.2031
  360SOL    HW2 1901   4.232   0.641   0.580 -1.1266 -2.0346  1.4685
  361SOL     OW 1902   6.961   4.415   4.145 -0.3028 -0.5210  0.1064
  361SOL    HW1 1903   6.956   4.486   4.216 -0.4266  0.8230 -1.1880
  361SOL    HW2 1904   7.055   4.382   4.138 -0.8502 -3.0017  3.0124
  362SOL     OW 1905   0.072   4.287   6.591 -0.4125  0.9458  0.1138
  362SOL    HW1 1906   0.051   4.384   6.606 -0.7105  1.0102 -0.6529
  362SOL    HW2 1907   0.070   4.267   6.494  1.1779  0.5156  0.1276
  363SOL     OW 1908   5.010   2.439   1.546 -0.1509 -0.0250 -0.3394
  363SOL    HW1 1909   5.091   2.448   1.603  0.1706  1.6221 -1.0017
  363SOL    HW2 1910   5.017   2.355   1.491  0.1090 -0.9794  1.1005
  364SOL     OW 1911   5.580   5.127   2.773  0.4538 -0.2349 -0.3411
  364SOL    HW1 1912   5.545   5.124   2.867  1.1317  1.5252  0.0041
  364SOL    HW2 1913   5.620   5.038   2.749  1.9187 -0.1913  1.7008
  365SOL     OW 1914   1.584   5.382   1.020  0.0190  0.2313 -0.0047
  365SOL    HW1 1915   1.492   5.401   0.985 -0.2534  0.1959  0.6662
  365SOL    HW2 1916   1.605   5.285   1.006 -0.3165  0.0880  0.4537
  366SOL     OW 1917   5.731   6.408   5.279 -0.0291  0.0802 -0.8730
  366SOL    HW1 1918   5.793   6.486   5.278 -0.5697  0.5287 -0.4649
  366SOL    HW2 1919   5.716   6.378   5.373 -0.2567 -0.1682 -0.9841
  367SOL     OW 1920   2.517   0.069   4.016  0.4680  0.4772  0.2928
  367SOL    HW1 1921   2.493   0.166   4.023  0.1505  0.5294 -1.2368
  367SOL    HW2 1922   2.615   0.060   4.000  0.7451  0.4608  1.8196
  368SOL     OW 1923   6.720   3.589   0.130 -0.0717 -0.1294 -0.4451
  368SOL    HW1 1924   6.738   3.588   0.229  0.9058  2.0613 -0.5547
  368SOL    HW2 1925   6.782   3.524   0.085  0.8662  0.2889  0.2080
  369SOL     OW 1926   4.794   0.514   6.228 -0.0738  0.1842 -0.7058
  369SOL    HW1 1927   4.809   0.599   6.178  1.4484  0.4731  0.1932
  369SOL    HW2 1928   4.852   0.511   6.309 -1.9930 -0.5640  0.7341
  370SOL     OW 1929   1.550   1.222   1.012  0.2338 -0.4944 -0.0032
  370SOL    HW1 1930   1.484   1.148   1.001  0.2512 -0.3524 -1.2373
  370SOL    HW2 1931   1.531   1.271   1.096  0.5353 -2.2000  1.1078
  371SOL     OW 1932   5.657   6.472   4.440 -0.0503  0.0834 -0.2678
  371SOL    HW1 1933   5.580   6.458   4.377 -0.5175 -1.3157  0.5798
  371SOL    HW2 1934   5.743   6.451   4.393 -0.2042  1.1907 -1.0791
  372SOL     OW 1935   2.593   0.514   1.314  0.1910 -0.0733 -0.1336
  372SOL    HW1 1936   2.625   0.433   1.266  0.6249 -1.2755  2.0629
  372SOL    HW2 1937   2.593   0.497   1.413 -0.4860  2.3278  0.3517
  373SOL     OW 1938   5.208   1.642   3.078  0.5610 -0.5147 -0.0927
  373SOL    HW1 1939   5.177   1.563   3.132 -0.7374 -0.6642 -0.9996
  373SOL    HW2 1940   5.308   1.649   3.082  0.6553 -1.9155  0.4165
  374SOL     OW 1941   5.431   3.564   3.961  0.3611 -0.4899 -0.4103
  374SOL    HW1 1942   5.415   3.637   3.895  1.2878 -0.4040 -0.5514
  374SOL    HW2 1943   5.501   3.501   3.925 -0.0803 -1.1798 -0.0851
  375SOL     OW 1944   2.957   3.520   6.937  0.1152 -0.1251 -0.1433
  375SOL    HW1 1945   2.885   3.510   6.868  1.3076 -0.7799 -1.3284
  375SOL    HW2 1946   2.932   3.593   7.000 -2.2036 -1.1440  0.2856
  376SOL     OW 1947   5.756   5.507   5.640  0.3162  0.2005  0.2156
  376SOL    HW1 1948   5.709   5.566   5.706  1.1606  2.4945 -1.0764
  376SOL    HW2 1949   5.827   5.455   5.687  0.3310  1.1319  1.2630
  377SOL     OW 1950   2.283   0.262   5.817  0.0175 -0.0270  0.4295
  377SOL    HW1 1951   2.280   0.333   5.747 -0.1356 -0.2661  0.1930
  377SOL    HW2 1952   2.357   0.197   5.796  0.3243  0.2012  0.7837
  378SOL     OW 1953   2.421   4.442   5.722 -0.0266  0.3085  0.0409
  378SOL    HW1 1954   2.359   4.365   5.739 -0.9544  0.8638 -0.6949
  378SOL    HW2 1955   2.446   4.485   5.809 -0.0786 -0.3797  0.3978
  379SOL     OW 1956   1.979   0.403   2.663  0.0405  0.0823  0.0259
  379SOL    HW1 1957   1.894   0.440   2.625  0.4767  1.6758  0.5408
  379SOL    HW2 1958   2.003   0.452   2.746  1.3738 -0.4844  0.0026
  380SOL     OW 1959   2.188   2.773   3.055  0.6106 -0.2244  0.1869
  380SOL    HW1 1960   2.155   2.687   3.095  2.0724 -0.4997  0.8987
  380SOL    HW2 1961   2.110   2.828   3.024 -0.4529 -1.0809  1.2190
  381SOL     OW 1962   3.616   6.025   1.901  0.0079  0.0071 -0.0005
  381SOL    HW1 1963   3.562   5.943   1.921 -2.0900  0.8013 -2.0025
  381SOL    HW2 1964   3.698   6.000   1.850 -0.4073 -0.8838 -0.2467
  382SOL     OW 1965   2.092   2.797   5.540  0.0603 -0.7406  0.4924
  382SOL    HW1 1966   2.044   2.785   5.627  1.6209 -0.5999  1.4139
  382SOL    HW2 1967   2.065   2.725   5.477 -0.4519 -1.3509  1.3896
  383SOL     OW 1968   5.250   1.405   4.843 -0.2915  0.6166 -0.2174
  383SOL    HW1 1969   5.165   1.367   4.805 -0.6486  0.8088  0.3854
  383SOL    HW2 1970   5.326   1.384   4.781 -0.5845 -0.5414 -0.2148
  384SOL     OW 1971   6.137   4.763   2.064  0.1330  0.5802  0.6750
  384SOL    HW1 1972   6.059   4.703   2.082  0.2997  0.1682  0.0725
  384SOL    HW2 1973   6.110   4.858   2.079 -1.1156  0.6270 -1.4240
  385SOL     OW 1974   2.862   6.681   2.772 -0.0110  0.1790 -0.1506
  385SOL    HW1 1975   2.954   6.653   2.800 -0.9862 -1.6148  1.3600
  385SOL    HW2 1976   2.825   6.746   2.838 -1.0512 -1.5742  1.0415
  386SOL     OW 1977   0.478   4.423   0.746  0.0546 -0.1157  0.2059
  386SOL    HW1 1978   0.461   4.521   0.737 -0.8707 -0.0571  2.1193
  386SOL    HW2 1979   0.439   4.390   0.832  2.5507 -1.6762  0.8412
  387SOL     OW 1980   2.167   1.169   2.698  0.1535 -0.0679 -0.0856
  387SOL    HW1 1981   2.109   1.225   2.638  0.9339  0.2088 -0.6010
  387SOL    HW2 1982   2.162   1.204   2.791 -0.9667 -0.4128 -0.0071
  388SOL     OW 1983   3.792   6.120   5.448 -0.5431  0.5866 -1.1515
  388SOL    HW1 1984   3.718   6.144   5.384 -1.1104  0.0013 -0.7298
  388SOL    HW2 1985   3.768   6.150   5.540 -1.2446 -1.4814 -0.6157
  389SOL     OW 1986   6.507   1.773   3.528 -0.3744  0.0556  0.1016
  389SOL    HW1 1987   6.472   1.757   3.621 -0.4841  0.1012  0.0689
  389SOL    HW2 1988   6.430   1.785   3.465 -0.3009  1.2885  0.2235
  390SOL     OW 1989   5.766   2.612   5.122  0.2548 -0.1181 -0.1533
  390SOL    HW1 1990   5.823   2.694   5.113  0.1434 -0.1377 -1.2213
  390SOL    HW2 1991   5.678   2.627   5.077  0.7816 -1.3183 -1.6711
  391SOL     OW 1992   4.832   4.939   0.172 -0.3088 -0.2826 -0.1552
  391SOL    HW1 1993   4.833   4.912   0.076  0.9845 -3.0730  0.5513
  391SOL    HW2 1994   4.796   4.864   0.227  0.4817  0.6489  1.7128
  392SOL     OW 1995   3.591   1.076   0.275 -0.7877  0.0683 -0.0626
  392SOL    HW1 1996   3.543   0.996   0.239  0.8497 -1.6464  1.4487
  392SOL    HW2 1997   3.668   1.048   0.331 -0.1569  2.7224  0.5591
  393SOL     OW 1998   5.461   2.222   3.184 -0.4033 -0.6302 -0.0967
  393SOL    HW1 1999   5.380   2.243   3.237 -1.3265  2.0730 -2.2985
  393SOL    HW2 2000   5.540   2.269   3.223 -0.7135 -0.0391 -0.1736
  394SOL     OW 2001   3.520   1.764   3.140 -0.1141 -0.4953  0.0562
  394SOL    HW1 2002   3.529   1.808   3.229  1.4371 -0.6385  0.0005
  394SOL    HW2 2003   3.578   1.682   3.138  0.8645  0.1858 -1.4842
  395SOL     OW 2004   6.567   0.743   1.754  0.0194  0.1535 -0.0845
  395SOL    HW1 2005   6.666   0.735   1.764 -0.0322 -1.2218 -0.5007
  395SOL    HW2 2006   6.532   0.667   1.700 -1.0258  1.6599 -1.6483
  396SOL     OW 2007   4.344   6.924   1.233 -0.1113 -0.1393 -0.1032
  396SOL    HW1 2008   4.418   6.904   1.168  0.6895 -0.4473  0.8688
  396SOL    HW2 2009   4.256   6.899   1.193  0.5444 -2.2885 -0.3214
  397SOL     OW 2010   6.460   3.860   0.328  0.4480  0.3386 -0.0722
  397SOL    HW1 2011   6.557   3.857   0.302  0.1004  1.2370 -1.6354
  397SOL    HW2 2012   6.448   3.922   0.405  1.0355  0.6912 -0.2598
  398SOL     OW 2013   2.824   1.352   0.494  0.1096 -0.3637  0.1934
  398SOL    HW1 2014   2.780   1.308   0.572 -1.6692  1.0786  0.0882
  398SOL    HW2 2015   2.924   1.348   0.505 -0.0452  1.1922  3.3862
  399SOL     OW 2016   6.960   0.277   1.391 -0.5784 -0.1513  0.4801
  399SOL    HW1 2017   7.037   0.269   1.327 -0.6621 -2.4174  0.6106
  399SOL    HW2 2018   6.874   0.258   1.344 -0.9585  1.1987  0.5964
  400SOL     OW 2019   0.102   2.375   1.012  0.8373  0.1019 -0.3079
  400SOL    HW1 2020   0.027   2.359   1.077  2.0228 -1.4973  0.7752
  400SOL    HW2 2021   0.125   2.473   1.012 -0.8466  0.5516 -0.2773
  401SOL     OW 2022   4.877   0.953   2.144  0.0480  0.2675  0.0536
  401SOL    HW1 2023   4.972   0.982   2.137 -0.3357  1.1519 -1.9969
  401SOL    HW2 2024   4.873   0.855   2.165  1.3672  0.3915  0.9782
  402SOL     OW 2025   4.002   6.596   6.610  0.0672  0.0400 -0.0973
  402SOL    HW1 2026   4.047   6.607   6.699  1.3642  2.6146 -0.9745
  402SOL    HW2 2027   3.980   6.499   6.596  0.7767 -0.5929  2.5474
  403SOL     OW 2028   3.609   6.182   1.059  0.4557  0.2100  0.5423
  403SOL    HW1 2029   3.648   6.123   0.989  1.7965  0.5136  1.0054
  403SOL    HW2 2030   3.641   6.152   1.149 -0.1295  0.6636  0.9035
  404SOL     OW 2031   1.085   4.552   5.225 -0.1133  0.4373  0.1564
  404SOL    HW1 2032   1.090   4.459   5.188  0.9789  1.3214 -2.1370
  404SOL    HW2 2033   1.169   4.572   5.274 -0.3316  0.2621  0.6199
  405SOL     OW 2034   0.302   4.495   4.662  0.4517 -0.0268  0.2963
  405SOL    HW1 2035   0.326   4.522   4.755  1.8285 -3.5540  1.0744
  405SOL    HW2 2036   0.373   4.527   4.599  1.1678 -0.3653  0.9207
  406SOL     OW 2037   1.667   1.743   3.137 -0.1382  0.1615  0.3220
  406SOL    HW1 2038   1.614   1.821   3.169 -0.4448  0.2984 -0.4952
  406SOL    HW2 2039   1.632   1.659   3.180  0.0782  0.4478  1.0629
  407SOL     OW 2040   3.737   6.807   1.941 -0.0544  0.7166 -0.5770
  407SOL    HW1 2041   3.727   6.733   2.006 -0.7864  0.2603 -1.1855
  407SOL    HW2 2042   3.805   6.782   1.872 -1.6032 -0.2145 -1.8456
  408SOL     OW 2043   6.063   3.952   1.357 -0.1746  0.5972  0.0059
  408SOL    HW1 2044   6.141   4.005   1.324 -0.3680  0.4727 -0.6679
  408SOL    HW2 2045   5.979   3.984   1.313 -0.2192 -0.6399 -0.8577
  409SOL     OW 2046   6.400   6.552   6.100 -0.1930 -0.5636 -0.4328
  409SOL    HW1 2047   6.303   6.557   6.122 -0.1092 -1.5848  0.2568
  409SOL    HW2 2048   6.453   6.549   6.185  0.5587  1.4439 -0.7725
  410SOL     OW 2049   2.257   5.758   2.246 -0.1295  0.2010  0.2662
  410SOL    HW1 2050   2.163   5.789   2.234  0.0394  0.2492 -1.1755
  410SOL    HW2 2051   2.320   5.831   2.217  0.3501 -0.0522  0.6430
  411SOL     OW 2052   5.334   0.450   1.668  0.2193  0.4679  0.0425
  411SOL    HW1 2053   5.234   0.448   1.668  0.1689 -0.8856 -2.4736
  411SOL    HW2 2054   5.369   0.372   1.720 -0.0763  0.2823 -0.0317
  412SOL     OW 2055   0.564   2.236   1.835  0.1934 -0.4198  0.8182
  412SOL    HW1 2056   0.600   2.245   1.742  1.7746 -1.9251  1.2286
  412SOL    HW2 2057   0.545   2.327   1.872  0.4743  0.2567 -0.6204
  413SOL     OW 2058   5.291   5.452   5.289 -0.1569 -0.4723  0.1463
  413SOL    HW1 2059   5.349   5.404   5.222 -1.0953 -4.4868  1.9811
  413SOL    HW2 2060   5.347   5.481   5.366  0.1775  0.0514 -0.2865
  414SOL     OW 2061   0.660   3.941   1.054  0.4592  0.3130  0.3284
  414SOL    HW1 2062   0.688   3.850   1.025  0.1906 -0.4936  2.4113
  414SOL    HW2 2063   0.569   3.962   1.019  1.0544  0.3490 -1.2473
  415SOL     OW 2064   5.819   1.223   3.388  0.2042 -0.0887  0.4362
  415SOL    HW1 2065   5.801   1.126   3.371  1.5013 -0.1465 -0.8929
  415SOL    HW2 2066   5.741   1.277   3.357 -0.3119 -0.6755  0.6864
  416SOL     OW 2067   4.086   6.877   1.137 -0.0068 -0.4889 -0.5534
  416SOL    HW1 2068   4.019   6.868   1.210  0.5133 -0.7651 -0.1007
  416SOL    HW2 2069   4.098   6.789   1.091  0.7056 -0.6779 -0.0320
  417SOL     OW 2070   6.379   3.817   4.173 -0.0853 -0.3790  0.5971
  417SOL    HW1 2071   6.290   3.801   4.130  0.0657  0.9592 -0.2568
  417SOL    HW2 2072   6.448   3.831   4.102  0.3051  1.2250  1.2634
  418SOL     OW 2073   4.816   5.039   0.983 -0.3143 -0.0813 -0.2476
  418SOL    HW1 2074   4.891   5.057   0.919  0.4796  0.5477  0.8367
  418SOL    HW2 2075   4.769   5.125   1.003  0.9245  0.1874  1.7927
  419SOL     OW 2076   1.827   4.932   5.052  0.3050 -0.1643 -0.4495
  419SOL    HW1 2077   1.875   4.945   4.965  1.5524  0.3175  0.2941
  419SOL    HW2 2078   1.864   4.995   5.120 -0.1751 -1.0241  0.6319
  420SOL     OW 2079   2.641   0.840   5.560 -0.0536 -0.6293  0.7882
  420SOL    HW1 2080   2.565   0.835   5.624  0.2181 -0.1645  1.1534
  420SOL    HW2 2081   2.692   0.925   5.574  0.9503 -1.2428  1.0193
  421SOL     OW 2082   4.540   3.879   1.305 -0.5352  0.3526 -0.1555
  421SOL    HW1 2083   4.604   3.897   1.231 -1.4286 -1.3275 -1.3883
  421SOL    HW2 2084   4.581   3.817   1.371 -0.4793  0.1887 -0.3437
  422SOL     OW 2085   2.485   6.577   6.870 -0.1189  0.1571  0.4536
  422SOL    HW1 2086   2.435   6.521   6.804 -0.3965  0.1195  0.6915
  422SOL    HW2 2087   2.425   6.650   6.903 -0.2439 -0.2818  1.2363
  423SOL     OW 2088   5.091   2.097   3.901  0.0074  0.1372 -0.0487
  423SOL    HW1 2089   5.015   2.117   3.961  0.9920 -0.8143  1.5677
  423SOL    HW2 2090   5.129   2.183   3.866 -0.9850  0.6692  0.1690
  424SOL     OW 2091   5.700   4.127   2.870 -0.8728 -0.1891 -0.1101
  424SOL    HW1 2092   5.637   4.196   2.906 -0.4114 -0.0711  0.4968
  424SOL    HW2 2093   5.674   4.104   2.776 -1.5947  0.1240 -0.0001
  425SOL     OW 2094   1.683   4.622   3.591  0.7128 -0.4060  0.2453
  425SOL    HW1 2095   1.694   4.553   3.519 -0.4297 -1.5797  1.1612
  425SOL    HW2 2096   1.628   4.585   3.666 -0.5243  1.7405  0.4834
  426SOL     OW 2097   2.667   5.429   2.575  0.0692 -0.3688 -0.4311
  426SOL    HW1 2098   2.744   5.367   2.558 -0.6857 -1.4073 -0.1643
  426SOL    HW2 2099   2.582   5.377   2.578 -0.6459  0.7445 -0.6068
  427SOL     OW 2100   5.611   1.510   4.677  1.2977  0.5119  0.1367
  427SOL    HW1 2101   5.670   1.470   4.606 -0.6923  0.4673 -1.6059
  427SOL    HW2 2102   5.667   1.567   4.738  3.5162 -1.5883  0.2025
  428SOL     OW 2103   6.421   1.165   3.930 -1.4078 -0.9836 -0.4097
  428SOL    HW1 2104   6.360   1.204   3.860 -0.7052  0.3524 -0.3020
  428SOL    HW2 2105   6.512   1.151   3.891 -0.7004  0.7834  0.4736
  429SOL     OW 2106   1.413   1.117   6.085  0.8262 -0.3109  0.3366
  429SOL    HW1 2107   1.340   1.082   6.027  0.1106 -2.6104  2.4716
  429SOL    HW2 2108   1.408   1.217   6.090  0.4830 -0.0597 -2.8488
  430SOL     OW 2109   0.199   5.832   4.457  0.1817 -0.3044  0.4311
  430SOL    HW1 2110   0.156   5.892   4.524  1.3153  1.4356 -0.3177
  430SOL    HW2 2111   0.231   5.749   4.503  1.1889  0.9572  2.1082
  431SOL     OW 2112   5.003   1.667   4.612 -0.1600 -0.4108  0.3445
  431SOL    HW1 2113   5.005   1.680   4.512  1.5417  0.4689  0.4460
  431SOL    HW2 2114   5.096   1.671   4.648 -0.8522  0.9721  2.1749
  432SOL     OW 2115   6.201   3.474   2.940 -0.1849 -0.0966 -0.5174
  432SOL    HW1 2116   6.206   3.512   2.847 -0.8326 -2.6792 -1.6863
  432SOL    HW2 2117   6.111   3.435   2.955 -0.7005  1.7930  1.9189
  433SOL     OW 2118   2.625   4.795   2.256  0.0931 -0.0591 -0.0581
  433SOL    HW1 2119   2.602   4.775   2.351  0.6200 -1.3335 -0.1681
  433SOL    HW2 2120   2.719   4.829   2.250  0.1544 -0.2473 -0.1600
  434SOL     OW 2121   5.765   2.546   0.867 -0.3576 -1.3623  0.1695
  434SOL    HW1 2122   5.804   2.607   0.798 -1.3318 -0.3364  0.5022
  434SOL    HW2 2123   5.704   2.597   0.927 -0.6325 -2.5238  0.9254
  435SOL     OW 2124   0.974   2.755   2.679 -0.1850 -0.6861 -0.4187
  435SOL    HW1 2125   0.953   2.813   2.601  2.0042 -0.6684 -1.0611
  435SOL    HW2 2126   1.013   2.810   2.752 -2.1680 -0.7117  0.7183
  436SOL     OW 2127   4.966   6.446   1.395  0.6140  0.6763 -0.5726
  436SOL    HW1 2128   4.937   6.531   1.439  1.6433  1.2898 -1.0366
  436SOL    HW2 2129   4.949   6.451   1.297 -1.6177 -0.6629 -0.3280
  437SOL     OW 2130   6.551   3.163   6.816  0.0472  0.7782 -0.0629
  437SOL    HW1 2131   6.560   3.117   6.727  0.7858  0.6721  0.0652
  437SOL    HW2 2132   6.455   3.186   6.831 -0.2743 -0.2794 -0.3557
  438SOL     OW 2133   4.219   4.100   1.573  0.2803  0.4539 -0.0503
  438SOL    HW1 2134   4.174   4.168   1.515  0.0076 -1.3922 -2.1107
  438SOL    HW2 2135   4.315   4.093   1.547  0.5778  0.8263  0.9180
  439SOL     OW 2136   1.611   4.335   5.713  0.7604 -0.3485  0.3371
  439SOL    HW1 2137   1.565   4.386   5.785  0.1263 -0.4822  0.0404
  439SOL    HW2 2138   1.648   4.398   5.645 -2.8792 -0.2726 -1.7870
  440SOL     OW 2139   1.353   2.065   0.262 -1.0107  0.2453  0.1376
  440SOL    HW1 2140   1.266   2.044   0.306 -0.4007  0.2914  1.3955
  440SOL    HW2 2141   1.404   2.132   0.317 -0.6364  1.0593 -1.1314
  441SOL     OW 2142   2.758   0.069   1.788  0.2919  0.1186  0.3096
  441SOL    HW1 2143   2.672   0.023   1.763  0.8209 -1.2210  0.8852
  441SOL    HW2 2144   2.832   0.035   1.730  0.7336  0.0495  0.9075
  442SOL     OW 2145   0.529   3.545   4.286 -0.6332  0.8469  0.4032
  442SOL    HW1 2146   0.502   3.535   4.190  1.0352  2.2258 -0.2652
  442SOL    HW2 2147   0.519   3.640   4.313 -1.3118  0.4305  1.7048
  443SOL     OW 2148   3.847   0.181   1.631 -0.2152 -0.5163 -0.6331
  443SOL    HW1 2149   3.776   0.122   1.594 -0.4905 -0.3764 -0.3301
  443SOL    HW2 2150   3.808   0.270   1.654  0.2503 -0.1089 -1.3427
  444SOL     OW 2151   4.720   4.207   1.921  0.5173  0.0729  0.8251
  444SOL    HW1 2152   4.805   4.228   1.971 -0.3801  1.1773  1.9546
  444SOL    HW2 2153   4.653   4.280   1.937 -0.5674 -0.6391 -0.2710
  445SOL     OW 2154   5.011   4.996   4.928 -0.1867 -0.0445  0.2380
  445SOL    HW1 2155   5.052   4.979   4.839 -0.9939 -1.4992  0.1167
  445SOL    HW2 2156   4.915   5.022   4.917  0.1773  1.5804  0.6109
  446SOL     OW 2157   4.715   1.612   6.774 -0.4531  0.7407  0.4307
  446SOL    HW1 2158   4.746   1.624   6.680  0.2016 -1.2792  0.3450
  446SOL    HW2 2159   4.616   1.601   6.775 -0.5942  1.8942  0.1136
  447SOL     OW 2160   5.384   4.280   1.882  0.0922 -0.8835 -0.2137
  447SOL    HW1 2161   5.383   4.258   1.784  0.3022 -1.2909 -0.1271
  447SOL    HW2 2162   5.293   4.263   1.921 -0.9392  2.2571 -0.9653
  448SOL     OW 2163   1.174   5.336   2.100  0.2690 -0.0728 -0.2590
  448SOL    HW1 2164   1.212   5.292   2.182 -0.6682  0.2669  0.3714
  448SOL    HW2 2165   1.183   5.435   2.108 -0.8963  0.0384  0.0005
  449SOL     OW 2166   4.580   4.981   0.637 -0.3989 -0.1578  0.3168
  449SOL    HW1 2167   4.583   5.067   0.587 -1.4573 -0.0265  0.4411
  449SOL    HW2 2168   4.552   4.907   0.575 -1.0269 -0.1198  0.5427
  450SOL     OW 2169   1.950   4.039   3.884  0.6540 -0.4995  0.5194
  450SOL    HW1 2170   1.924   4.077   3.796  2.1886 -1.2247 -0.2821
  450SOL    HW2 2171   2.019   4.097   3.927 -0.1607 -0.0852  1.3365
  451SOL     OW 2172   5.861   6.250   0.877 -0.4655  0.6311 -0.4058
  451SOL    HW1 2173   5.810   6.324   0.921 -0.1487  1.0902 -0.8149
  451SOL    HW2 2174   5.940   6.287   0.828  0.0969 -0.0439 -0.0367
  452SOL     OW 2175   1.116   5.513   0.413 -0.6080 -0.5164  0.6356
  452SOL    HW1 2176   1.197   5.505   0.355  0.5677 -1.9782  2.3744
  452SOL    HW2 2177   1.101   5.609   0.436  0.7108 -0.2286  0.3864
  453SOL     OW 2178   4.371   2.960   3.298 -0.0238 -0.5912 -0.4060
  453SOL    HW1 2179   4.438   3.017   3.250 -0.0468 -0.8093 -0.6993
  453SOL    HW2 2180   4.415   2.917   3.377  0.4898 -1.5911 -1.1913
  454SOL     OW 2181   4.553   2.038   1.883  0.3187 -0.1812  0.4397
  454SOL    HW1 2182   4.462   2.060   1.918 -0.0888 -2.3946  0.8948
  454SOL    HW2 2183   4.544   1.988   1.797  1.1464 -0.0100  0.2408
  455SOL     OW 2184   4.464   1.624   1.210  0.0585 -0.0412 -0.1721
  455SOL    HW1 2185   4.366   1.615   1.229 -0.0771 -1.5725 -1.3688
  455SOL    HW2 2186   4.477   1.686   1.133  0.3038  2.7225  1.9795
  456SOL     OW 2187   5.706   5.680   6.997  0.2309 -0.2853  0.0810
  456SOL    HW1 2188   5.654   5.597   7.017  1.1977 -0.3370  2.8210
  456SOL    HW2 2189   5.794   5.656   6.957  0.5408 -0.6303  0.9443
  457SOL     OW 2190   6.743   5.864   6.028  0.2967 -0.7961 -0.3025
  457SOL    HW1 2191   6.762   5.843   6.124  1.3963 -0.7753 -0.5006
  457SOL    HW2 2192   6.783   5.793   5.970  1.1165  0.0507 -0.8190
  458SOL     OW 2193   4.354   4.283   2.722 -0.1157  0.1512  0.7520
  458SOL    HW1 2194   4.337   4.257   2.817 -1.1659 -0.4708  0.4164
  458SOL    HW2 2195   4.285   4.350   2.693 -0.8055 -0.8582 -0.0285
  459SOL     OW 2196   1.908   2.777   0.033  0.2980 -0.3921 -0.3570
  459SOL    HW1 2197   1.903   2.684   0.069 -0.6632 -0.5887 -0.9724
  459SOL    HW2 2198   1.996   2.817   0.057  0.7324 -1.4695 -0.0773
  460SOL     OW 2199   0.458   0.018   5.015  0.3016  0.7283 -0.0047
  460SOL    HW1 2200   0.498  -0.045   5.082  1.2788 -1.1200 -2.2258
  460SOL    HW2 2201   0.525   0.087   4.989  0.4531  0.4797 -0.2116
  461SOL     OW 2202   1.872   0.854   1.901  0.0277 -0.3271  0.5266
  461SOL    HW1 2203   1.847   0.806   1.817  1.0113  0.4836 -0.2500
  461SOL    HW2 2204   1.835   0.947   1.899 -0.6456 -0.5665  1.3713
  462SOL     OW 2205   4.220   5.797   2.610  0.1067 -0.2878 -0.1904
  462SOL    HW1 2206   4.208   5.785   2.708 -0.4948 -2.7375 -0.4788
  462SOL    HW2 2207   4.304   5.750   2.581 -0.5760 -1.0023 -1.0500
  463SOL     OW 2208   4.097   2.528   0.413 -0.0697  0.3601 -0.1570
  463SOL    HW1 2209   4.170   2.585   0.375  0.5064 -0.3247 -0.1107
  463SOL    HW2 2210   4.022   2.521   0.348 -0.0192  0.9422 -0.2757
  464SOL     OW 2211   5.837   0.464   3.206 -0.2624 -0.5425  0.7167
  464SOL    HW1 2212   5.833   0.460   3.305 -2.0843 -1.1666  0.6460
  464SOL    HW2 2213   5.753   0.505   3.170  0.4026 -0.2383 -0.5692
  465SOL     OW 2214   2.073   1.456   6.170 -0.0222  0.6527  0.1810
  465SOL    HW1 2215   1.988   1.440   6.120 -0.5790  2.6641  0.4223
  465SOL    HW2 2216   2.134   1.513   6.115  0.4532  0.6648  0.7120
  466SOL     OW 2217   0.148   4.857   1.666  0.6052 -0.5465 -0.3046
  466SOL    HW1 2218   0.219   4.803   1.711 -0.4132 -0.9765  0.8499
  466SOL    HW2 2219   0.191   4.925   1.606  2.0797  0.4152  1.7278
  467SOL     OW 2220   3.007   2.051   1.137 -0.1082 -0.2994 -0.5398
  467SOL    HW1 2221   3.105   2.035   1.132 -0.0272  0.4347 -1.7205
  467SOL    HW2 2222   2.958   1.965   1.120  0.3223 -0.6592  0.0040
  468SOL     OW 2223   5.993   1.369   1.739 -0.1138  0.5099 -0.1855
  468SOL    HW1 2224   5.985   1.454   1.686 -2.4328 -0.7895 -2.0975
  468SOL    HW2 2225   5.957   1.384   1.831  1.6920  2.1628  0.3133
  469SOL     OW 2226   1.131   6.487   3.030 -0.0901 -0.1375 -0.2916
  469SOL    HW1 2227   1.218   6.445   3.054  1.2268  2.2800 -0.5406
  469SOL    HW2 2228   1.069   6.485   3.109  0.4238 -1.2570  0.0928
  470SOL     OW 2229   3.369   0.381   2.385  0.1894 -0.2465  0.3189
  470SOL    HW1 2230   3.384   0.479   2.392 -0.6761 -0.0898  0.0593
  470SOL    HW2 2231   3.373   0.353   2.289 -0.7637 -0.2613  0.2792
  471SOL     OW 2232   5.713   2.454   4.248  0.1315  0.0656 -0.6693
  471SOL    HW1 2233   5.784   2.441   4.179 -0.0682  0.8262 -1.0250
  471SOL    HW2 2234   5.673   2.545   4.238 -1.1481 -0.4766 -0.7078
  472SOL     OW 2235   6.365   0.910   4.291 -0.3677  0.3790 -0.0018
  472SOL    HW1 2236   6.453   0.949   4.264 -0.6429  1.6567  0.8676
  472SOL    HW2 2237   6.321   0.868   4.212  0.3277  1.1122 -0.7865
  473SOL     OW 2238   0.091   3.659   0.858 -0.1769 -0.2564  0.3988
  473SOL    HW1 2239   0.061   3.627   0.768  0.4249 -0.1892  0.1645
  473SOL    HW2 2240   0.113   3.756   0.853 -0.8444 -0.0772  0.8091
  474SOL     OW 2241   1.894   4.866   0.802  0.1165 -0.2127 -0.3093
  474SOL    HW1 2242   1.916   4.892   0.708 -1.0425  1.1612 -0.2303
  474SOL    HW2 2243   1.803   4.899   0.826  1.1683  1.3136  1.9564
  475SOL     OW 2244   1.311   5.020   5.962  0.3707 -0.0506 -0.3575
  475SOL    HW1 2245   1.295   4.922   5.974  1.8904  0.0084  3.1810
  475SOL    HW2 2246   1.238   5.071   6.008  0.5110  0.4718 -0.7032
  476SOL     OW 2247   2.944   6.162   1.237 -0.1344 -0.4156 -0.0039
  476SOL    HW1 2248   2.850   6.193   1.224 -0.5486 -1.8913 -0.8347
  476SOL    HW2 2249   2.945   6.062   1.248  1.4538 -0.5899 -1.3736
  477SOL     OW 2250   6.417   3.598   4.342  0.7538 -0.2293 -0.3013
  477SOL    HW1 2251   6.401   3.670   4.274  2.2156  0.5900  0.1475
  477SOL    HW2 2252   6.404   3.636   4.434  0.8131 -0.7450 -0.0765
  478SOL     OW 2253   6.941   2.015   3.200  0.3245 -0.0714 -0.4436
  478SOL    HW1 2254   6.977   2.024   3.293  0.8124 -0.5489 -0.5850
  478SOL    HW2 2255   7.000   2.065   3.136  0.0711  0.1362 -0.5205
  479SOL     OW 2256   4.750   5.628   3.020  0.3453 -0.7380 -0.0606
  479SOL    HW1 2257   4.731   5.562   2.947 -1.0426  0.9831 -1.3531
  479SOL    HW2 2258   4.666   5.676   3.044  1.4965  1.4226 -0.0878
  480SOL     OW 2259   3.689   0.381   0.907 -0.0220  0.2717  0.0281
  480SOL    HW1 2260   3.758   0.315   0.879 -0.0194  0.3076 -0.0559
  480SOL    HW2 2261   3.604   0.364   0.857 -0.0753  0.2251  0.1315
  481SOL     OW 2262   1.006   1.677   2.060 -0.5674 -0.3231  0.3863
  481SOL    HW1 2263   1.013   1.599   2.122  1.1514  0.4187  1.2257
  481SOL    HW2 2264   1.000   1.761   2.114 -0.5956  0.2362 -0.4690
  482SOL     OW 2265   0.653   0.440   1.013 -0.7123 -0.1410  0.4669
  482SOL    HW1 2266   0.638   0.483   0.924 -0.4408  0.6098  0.7693
  482SOL    HW2 2267   0.694   0.350   1.001 -0.9866 -0.1810 -0.1767
  483SOL     OW 2268   4.049   3.590   4.235  0.0210  1.1139  0.2386
  483SOL    HW1 2269   3.972   3.573   4.175  1.5725  0.8874 -1.7746
  483SOL    HW2 2270   4.088   3.503   4.264  1.2452  1.1687 -1.1227
  484SOL     OW 2271   1.514   2.315   2.490  0.1403  0.6724  0.0032
  484SOL    HW1 2272   1.596   2.348   2.441 -0.4987  0.4545 -1.2645
  484SOL    HW2 2273   1.504   2.365   2.575  0.7621  1.7629 -0.5424
  485SOL     OW 2274   2.304   0.689   5.018 -0.2185  0.4365  0.2922
  485SOL    HW1 2275   2.309   0.766   4.955  2.0808  1.3703  1.4712
  485SOL    HW2 2276   2.225   0.700   5.079 -2.4660 -0.4727 -2.2504
  486SOL     OW 2277   0.364   1.666   6.685  0.4842 -0.8574  0.6795
  486SOL    HW1 2278   0.451   1.651   6.732  0.9793  0.6787  0.3193
  486SOL    HW2 2279   0.375   1.646   6.588  0.3211 -1.0688  0.7053
  487SOL     OW 2280   5.816   1.116   2.362  0.2433  0.3765 -0.3879
  487SOL    HW1 2281   5.736   1.118   2.422 -0.2204 -1.2533 -0.8832
  487SOL    HW2 2282   5.858   1.207   2.359 -1.4314  1.2151  0.0775
  488SOL     OW 2283   6.889   6.645   4.937  0.3608 -0.0731 -0.0134
  488SOL    HW1 2284   6.957   6.678   4.871  0.1369  0.1680 -0.1263
  488SOL    HW2 2285   6.863   6.719   4.998  1.6755 -0.6441  1.3330
  489SOL     OW 2286   2.816   1.089   1.363  0.5336 -0.1269  0.5173
  489SOL    HW1 2287   2.900   1.117   1.407 -0.2443  1.2116  1.2026
  489SOL    HW2 2288   2.756   1.046   1.430  0.2788 -0.1805  0.2573
  490SOL     OW 2289   1.981   5.052   2.115  0.1368  0.2918 -0.1037
  490SOL    HW1 2290   1.969   5.048   2.016 -0.9877 -1.3427  0.0688
  490SOL    HW2 2291   1.891   5.058   2.159  0.5650 -0.1724  0.8532
  491SOL     OW 2292   2.014   4.740   5.175  0.0408  0.1670  0.5399
  491SOL    HW1 2293   1.977   4.788   5.255 -0.7765 -0.7802  0.7365
  491SOL    HW2 2294   1.955   4.758   5.096 -0.2640 -0.4879  0.6107
  492SOL     OW 2295   0.599   5.426   6.151  0.0564 -0.8416  0.3470
  492SOL    HW1 2296   0.696   5.414   6.171  0.3671  1.8273  0.8604
  492SOL    HW2 2297   0.587   5.504   6.090 -1.8471  0.5068  2.2659
  493SOL     OW 2298   5.394   5.927   4.367 -0.0614 -0.0187  0.3574
  493SOL    HW1 2299   5.493   5.945   4.370 -0.3836  1.9533  0.8899
  493SOL    HW2 2300   5.359   5.952   4.277 -0.1609 -0.2199  0.3403
  494SOL     OW 2301   2.198   4.589   5.697  0.1236  0.2231  0.1769
  494SOL    HW1 2302   2.134   4.576   5.622  1.1946 -1.4209 -0.4940
  494SOL    HW2 2303   2.274   4.524   5.688  1.9559  2.1738  0.8790
  495SOL     OW 2304   0.842   5.993   0.349 -0.2374  0.2139 -0.0202
  495SOL    HW1 2305   0.760   5.963   0.398 -1.1376  0.1442 -1.5202
  495SOL    HW2 2306   0.846   6.093   0.350 -0.6605  0.2397 -0.4264
  496SOL     OW 2307   5.937   4.121   6.456 -0.5351 -0.2976  0.7349
  496SOL    HW1 2308   5.896   4.081   6.374 -0.2591  2.4444 -0.8458
  496SOL    HW2 2309   6.032   4.090   6.464 -0.4751 -0.3883 -0.1620
  497SOL     OW 2310   3.574   7.005   6.664  0.5661  0.0020 -0.1144
  497SOL    HW1 2311   3.588   6.914   6.703 -0.2854  0.1345  0.5559
  497SOL    HW2 2312   3.512   7.057   6.723  1.7879  1.3464  0.0362
  498SOL     OW 2313   6.544   6.071   6.492  0.5014 -0.1480 -0.1955
  498SOL    HW1 2314   6.641   6.064   6.515  0.3192  0.2829  0.7431
  498SOL    HW2 2315   6.490   6.016   6.556  0.0740  0.1090 -0.3227
  499SOL     OW 2316   0.792   4.393   5.565  0.0615 -0.0331  0.1683
  499SOL    HW1 2317   0.891   4.397   5.550  0.0865 -1.8552 -0.3458
  499SOL    HW2 2318   0.753   4.322   5.507 -1.5427  0.5637  0.4849
  500SOL     OW 2319   6.276   3.440   1.932  0.3624  0.0619 -0.6694
  500SOL    HW1 2320   6.227   3.504   1.991 -0.4141 -1.1965  0.0811
  500SOL    HW2 2321   6.228   3.432   1.844  0.6868  0.7908 -0.9240
  501SOL     OW 2322   0.496   2.169   4.974  0.1782 -0.3312  0.4936
  501SOL    HW1 2323   0.564   2.107   4.935  0.0653  0.0629 -0.3765
  501SOL    HW2 2324   0.405   2.131   4.960  0.1788 -0.5814  1.1335
  502SOL     OW 2325   1.556   6.137   5.468  0.5059  0.0342 -0.4829
  502SOL    HW1 2326   1.600   6.098   5.387 -0.5267 -2.6487  0.1699
  502SOL    HW2 2327   1.623   6.143   5.542  0.5876 -0.9458 -0.4681
  503SOL     OW 2328   1.556   6.852   1.722  0.4208 -0.7502 -0.2199
  503SOL    HW1 2329   1.480   6.788   1.715  1.3816 -1.9201 -0.1147
  503SOL    HW2 2330   1.533   6.937   1.674 -1.8963 -0.1373  1.7852
  504SOL     OW 2331   1.326   1.223   6.932  0.1096  0.1559 -0.5029
  504SOL    HW1 2332   1.365   1.267   7.013  0.5344 -0.5887 -0.3164
  504SOL    HW2 2333   1.226   1.224   6.939  0.1448 -0.2152  0.2145
  505SOL     OW 2334   5.243   1.647   0.156  0.5511 -1.2293 -0.2830
  505SOL    HW1 2335   5.160   1.625   0.105 -1.8102  0.2932  2.6157
  505SOL    HW2 2336   5.256   1.746   0.158  3.7104 -1.4505 -2.3430
  506SOL     OW 2337   6.108   6.517   6.161 -0.3920  1.0900 -0.0181
  506SOL    HW1 2338   6.058   6.583   6.217  0.5224  2.1856 -0.4423
  506SOL    HW2 2339   6.130   6.437   6.216 -2.2282  0.7631  0.2774
  507SOL     OW 2340   1.301   2.953   1.774 -0.0784  0.3728 -0.0654
  507SOL    HW1 2341   1.217   2.968   1.828  0.3551 -1.1143  1.0765
  507SOL    HW2 2342   1.351   3.040   1.767 -0.8490  0.9084  0.7302
  508SOL     OW 2343   0.865   5.753   3.531 -0.5171  0.2119 -0.3678
  508SOL    HW1 2344   0.922   5.833   3.551 -0.6086  0.5604 -1.3874
  508SOL    HW2 2345   0.909   5.699   3.459 -1.2429  0.2295 -0.8356
  509SOL     OW 2346   3.372   6.078   1.023 -0.2003  0.0228  0.2336
  509SOL    HW1 2347   3.457   6.127   1.042 -0.1342  1.4593 -2.9073
  509SOL    HW2 2348   3.294   6.136   1.044 -0.3557 -0.5048  1.1754
  510SOL     OW 2349   0.300   6.253   1.572 -0.2899 -0.0363  0.5835
  510SOL    HW1 2350   0.371   6.266   1.503 -0.7876 -0.2920  0.0159
  510SOL    HW2 2351   0.277   6.342   1.614 -1.1455  0.3977 -0.7394
  511SOL     OW 2352   1.818   1.226   2.231 -0.0704  0.2509 -0.0767
  511SOL    HW1 2353   1.737   1.180   2.196 -0.1634  0.8192 -0.6568
  511SOL    HW2 2354   1.867   1.166   2.294 -1.7243  0.4479  1.4734
  512SOL     OW 2355   4.119   2.522   5.701 -0.6996 -0.0295 -1.0256
  512SOL    HW1 2356   4.215   2.495   5.707 -0.3943  1.2954  1.3602
  512SOL    HW2 2357   4.112   2.622   5.692 -1.7000  0.5622  3.6120
  513SOL     OW 2358   6.897   0.262   4.363 -0.2117 -0.1220 -0.3084
  513SOL    HW1 2359   6.884   0.186   4.299  0.8738 -1.1823  0.6828
  513SOL    HW2 2360   6.839   0.247   4.443 -0.9023  0.7442 -0.6292
  514SOL     OW 2361   6.245   3.578   0.953 -0.4069  0.1109 -0.2848
  514SOL    HW1 2362   6.271   3.559   0.858  0.9961 -0.5694  0.2071
  514SOL    HW2 2363   6.271   3.500   1.011 -0.4864  0.8528  0.7904
  515SOL     OW 2364   0.727   5.513   5.497  0.3530  0.5273 -0.0034
  515SOL    HW1 2365   0.755   5.487   5.590  0.5724 -1.1731 -0.5134
  515SOL    HW2 2366   0.794   5.479   5.431 -1.2473 -0.8498 -0.9976
  516SOL     OW 2367   5.139   3.468   0.161  0.5016 -0.0993 -0.1726
  516SOL    HW1 2368   5.094   3.451   0.073  0.6743 -0.6223 -0.1659
  516SOL    HW2 2369   5.232   3.432   0.158  0.4235 -0.3443  0.3076
  517SOL     OW 2370   0.380   4.760   5.804 -0.7738 -0.4371 -0.6116
  517SOL    HW1 2371   0.470   4.800   5.819 -0.3965  0.3326 -4.2586
  517SOL    HW2 2372   0.377   4.669   5.846  0.7963  0.4443  1.6138
  518SOL     OW 2373   4.029   2.185   0.869 -0.6815  0.1911 -0.1780
  518SOL    HW1 2374   3.955   2.124   0.897 -1.3690  1.6401  1.3711
  518SOL    HW2 2375   4.010   2.222   0.778 -1.7610  0.4186  0.1380
  519SOL     OW 2376   4.979   5.545   3.723  0.4377  0.0149  0.1850
  519SOL    HW1 2377   5.000   5.521   3.628 -1.5572  1.3052 -0.6326
  519SOL    HW2 2378   5.060   5.582   3.767  1.5263 -1.0691 -0.8197
  520SOL     OW 2379   1.766   0.081   1.270 -0.1605 -0.3588 -0.3110
  520SOL    HW1 2380   1.847   0.103   1.323 -1.1725  0.7310  0.8559
  520SOL    HW2 2381   1.793   0.043   1.182  1.5849 -1.6655  0.7245
  521SOL     OW 2382   5.665   5.103   4.491 -0.4328 -0.2423 -0.0598
  521SOL    HW1 2383   5.655   5.202   4.502  0.4902 -0.1317 -0.1571
  521SOL    HW2 2384   5.719   5.085   4.409 -3.4218 -0.9159 -2.0397
  522SOL     OW 2385   3.859   1.970   3.502  0.1624 -0.5258  0.5774
  522SOL    HW1 2386   3.858   1.908   3.423 -0.2379 -0.4929  0.5549
  522SOL    HW2 2387   3.784   1.947   3.563  0.0282 -0.0768  0.5857
  523SOL     OW 2388   5.341   0.849   5.607  0.1342 -0.3212  0.0165
  523SOL    HW1 2389   5.256   0.831   5.559  0.0210 -0.0861  0.1308
  523SOL    HW2 2390   5.391   0.922   5.562 -0.3565  0.4763  0.7356
  524SOL     OW 2391   0.727   5.625   6.723 -0.0137  0.4539 -0.5377
  524SOL    HW1 2392   0.767   5.657   6.808  1.7135  1.8805 -1.8023
  524SOL    HW2 2393   0.632   5.596   6.739  0.0755  1.2202  1.7063
  525SOL     OW 2394   4.998   2.723   6.443 -0.1925 -0.3521 -0.1679
  525SOL    HW1 2395   5.049   2.637   6.441  0.2382 -0.0869 -0.6964
  525SOL    HW2 2396   5.049   2.791   6.496 -1.9080 -1.2611  2.9430
  526SOL     OW 2397   4.425   1.175   2.629 -0.1061  0.1690 -0.6249
  526SOL    HW1 2398   4.395   1.252   2.686 -0.8386 -0.7257  0.2180
  526SOL    HW2 2399   4.408   1.197   2.533 -1.2794  0.6409 -0.3195
  527SOL     OW 2400   4.652   2.908   3.696 -0.0685 -0.8694  0.0108
  527SOL    HW1 2401   4.620   2.977   3.632  1.4419 -0.7765 -0.6962
  527SOL    HW2 2402   4.574   2.858   3.734 -1.0435 -0.3099 -1.1972
  528SOL     OW 2403   2.429   0.682   3.345 -0.1854 -0.4416 -0.1856
  528SOL    HW1 2404   2.507   0.742   3.364  0.7865 -1.3384 -1.1488
  528SOL    HW2 2405   2.362   0.731   3.289  0.2043 -0.0093 -0.2794
  529SOL     OW 2406   2.694   6.679   6.698  0.0992 -0.1121 -0.5190
  529SOL    HW1 2407   2.666   6.728   6.616  1.2031  0.2115 -0.7057
  529SOL    HW2 2408   2.615   6.631   6.736 -0.6659  0.6186 -1.1491
  530SOL     OW 2409   0.942   4.799   5.156  0.0834 -0.0442  0.7299
  530SOL    HW1 2410   0.924   4.811   5.058 -0.8708 -0.8943  0.7863
  530SOL    HW2 2411   1.002   4.721   5.169  1.5669  1.0526  0.7366
  531SOL     OW 2412   2.208   5.727   1.770 -0.3178 -0.5700  0.3220
  531SOL    HW1 2413   2.216   5.804   1.833 -2.3694 -0.2661  0.2660
  531SOL    HW2 2414   2.201   5.642   1.823  1.0483 -0.6753  0.3944
  532SOL     OW 2415   2.668   3.119   3.126  0.1429  0.2338  0.1665
  532SOL    HW1 2416   2.746   3.075   3.170  0.1753 -0.0396 -0.1608
  532SOL    HW2 2417   2.692   3.213   3.102  0.4850  0.0486 -0.2309
  533SOL     OW 2418   6.494   1.003   0.621  0.5666  0.3665 -0.4181
  533SOL    HW1 2419   6.403   1.034   0.649  0.4797 -0.9704  0.9724
  533SOL    HW2 2420   6.561   1.034   0.688  0.5641 -1.7021  0.6464
  534SOL     OW 2421   2.052   5.871   3.759 -0.2399  0.1524  0.0167
  534SOL    HW1 2422   2.128   5.917   3.805 -0.6518 -0.6773  1.5684
  534SOL    HW2 2423   2.085   5.788   3.715  0.0046  0.5349 -0.5432
  535SOL     OW 2424   2.529   6.477   3.560 -0.1217 -0.4996 -0.0804
  535SOL    HW1 2425   2.443   6.528   3.565 -1.0778 -2.0354 -0.6058
  535SOL    HW2 2426   2.558   6.470   3.465 -0.1570 -1.1983 -0.0406
  536SOL     OW 2427   6.122   4.898   6.473  0.0266  0.4680 -0.5479
  536SOL    HW1 2428   6.024   4.909   6.460 -0.3551  1.1087  2.2138
  536SOL    HW2 2429   6.170   4.978   6.437 -0.4654  0.3588 -1.4930
  537SOL     OW 2430   1.170   0.560   4.032 -0.7327  0.2385  0.0946
  537SOL    HW1 2431   1.127   0.505   4.103  0.0949  2.3243  2.3382
  537SOL    HW2 2432   1.263   0.583   4.059  0.6425 -1.1711 -2.9971
  538SOL     OW 2433   3.342   3.386   6.826 -0.0772 -0.6237  0.1908
  538SOL    HW1 2434   3.269   3.442   6.786  0.8638  0.7637  0.3475
  538SOL    HW2 2435   3.377   3.430   6.908 -0.5659 -2.4086  1.4212
  539SOL     OW 2436   6.505   2.250   2.260 -0.4803  0.3752 -0.2496
  539SOL    HW1 2437   6.557   2.305   2.195 -0.6355  1.1254  0.2467
  539SOL    HW2 2438   6.536   2.271   2.353 -1.3324  0.4675  0.0222
  540SOL     OW 2439   2.123   5.152   3.743 -0.2185 -0.4966  0.1357
  540SOL    HW1 2440   2.133   5.217   3.668 -0.5410 -1.3607 -0.6743
  540SOL    HW2 2441   2.027   5.123   3.749  0.1230 -1.7875 -0.2925
  541SOL     OW 2442   6.187   1.201   0.975 -0.5996 -0.1517 -0.1673
  541SOL    HW1 2443   6.286   1.209   0.964 -0.3725 -1.2400  0.9247
  541SOL    HW2 2444   6.143   1.198   0.885  0.3796  0.0756 -0.6575
  542SOL     OW 2445   3.992   3.157   2.164  0.9501 -0.4300 -0.1852
  542SOL    HW1 2446   3.940   3.175   2.081 -0.3720  2.5741  1.1281
  542SOL    HW2 2447   3.944   3.087   2.219  0.5985 -0.7525 -0.8929
  543SOL     OW 2448   6.763   3.620   1.628 -0.3282 -0.4371  0.0483
  543SOL    HW1 2449   6.790   3.559   1.702 -1.2899  1.8883  2.4764
  543SOL    HW2 2450   6.683   3.673   1.656 -0.9026  0.3903 -2.8060
  544SOL     OW 2451   2.145   6.388   1.104 -0.1507 -0.2970 -0.0336
  544SOL    HW1 2452   2.093   6.463   1.146  1.1083  1.1605 -0.9812
  544SOL    HW2 2453   2.086   6.307   1.096 -1.6092  0.6228  0.8287
  545SOL     OW 2454   4.195   4.386   3.307 -0.5426 -0.1105  0.0701
  545SOL    HW1 2455   4.205   4.480   3.338 -0.2877 -0.2009  0.2696
  545SOL    HW2 2456   4.284   4.340   3.312 -1.3594 -1.6952  4.2223
  546SOL     OW 2457   1.008   5.968   2.204  0.3205 -0.3976 -0.2548
  546SOL    HW1 2458   0.992   6.056   2.250  0.5095 -0.6352  0.2676
  546SOL    HW2 2459   0.925   5.913   2.207  0.1260 -0.1458 -0.7958
  547SOL     OW 2460   0.007   1.370   5.980  0.0142 -0.3639 -0.4535
  547SOL    HW1 2461   0.090   1.395   6.029 -1.5037  2.3994  0.9698
  547SOL    HW2 2462   0.009   1.410   5.888  1.0303 -1.9325 -1.1422
  548SOL     OW 2463   4.820   0.997   3.327  0.0560  0.2029 -0.3361
  548SOL    HW1 2464   4.833   0.996   3.228 -1.1306 -1.2832 -0.4957
  548SOL    HW2 2465   4.895   0.947   3.371 -0.1830 -0.3714 -0.5822
  549SOL     OW 2466   1.335   3.210   2.758  0.5814  0.1120  0.3303
  549SOL    HW1 2467   1.290   3.235   2.844  0.0715 -0.4086  0.2170
  549SOL    HW2 2468   1.272   3.226   2.682 -0.2620 -2.6681  0.3254
  550SOL     OW 2469   0.025   5.022   2.290 -0.3601  0.0494 -0.5979
  550SOL    HW1 2470   0.027   4.941   2.230  1.2853 -0.7758  0.5233
  550SOL    HW2 2471  -0.069   5.039   2.319 -0.6258 -2.0008 -0.1742
  551SOL     OW 2472   5.831   6.890   3.846 -0.3268  0.1637  0.0113
  551SOL    HW1 2473   5.873   6.807   3.809  0.3607 -0.0106  1.1613
  551SOL    HW2 2474   5.732   6.879   3.848 -0.3086 -0.2218 -0.8056
  552SOL     OW 2475   3.996   1.494   6.714  0.0696 -0.2447 -1.0615
  552SOL    HW1 2476   3.940   1.531   6.640  0.2977  2.0356 -0.1718
  552SOL    HW2 2477   4.081   1.456   6.676  0.9812  2.4278 -1.9472
  553SOL     OW 2478   3.598   6.965   3.786  0.2425 -0.3063  0.3958
  553SOL    HW1 2479   3.576   7.016   3.703 -0.4218 -0.1461  0.6633
  553SOL    HW2 2480   3.516   6.921   3.821  0.3364  0.3756  1.4793
  554SOL     OW 2481   3.183   6.268   0.262  0.3298  0.6183 -0.0621
  554SOL    HW1 2482   3.179   6.292   0.359  3.1727 -0.3739  0.3907
  554SOL    HW2 2483   3.207   6.348   0.208 -0.8858  1.0878  0.0608
  555SOL     OW 2484   5.437   0.575   1.354 -0.1595  0.3502  0.0734
  555SOL    HW1 2485   5.440   0.665   1.309 -1.8346  0.0455 -0.7606
  555SOL    HW2 2486   5.407   0.586   1.448 -1.2728  0.6136 -0.2950
  556SOL     OW 2487   0.427   4.003   2.332  0.4066 -0.0161 -0.2449
  556SOL    HW1 2488   0.436   3.913   2.290 -0.1960 -0.8669  1.3285
  556SOL    HW2 2489   0.494   4.012   2.406  0.5076  0.8680 -0.4360
  557SOL     OW 2490   1.783   1.752   6.682  0.2558  0.3876  0.7780
  557SOL    HW1 2491   1.769   1.653   6.681 -1.1461  0.5615 -0.5367
  557SOL    HW2 2492   1.811   1.781   6.773 -1.6308 -0.9447  1.8442
  558SOL     OW 2493   6.750   0.337   3.410 -0.1413  0.5619 -0.4396
  558SOL    HW1 2494   6.836   0.309   3.452 -0.5982  0.4824  0.4790
  558SOL    HW2 2495   6.732   0.282   3.328 -0.2806 -0.7957  0.4733
  559SOL     OW 2496   4.467   5.632   2.702  0.3954  0.4015 -0.0151
  559SOL    HW1 2497   4.462   5.532   2.707  1.1982  0.3905  0.9070
  559SOL    HW2 2498   4.510   5.667   2.785  1.5811  1.4019 -1.0067
  560SOL     OW 2499   1.641   0.968   0.744  0.4068  0.1911 -0.0890
  560SOL    HW1 2500   1.689   0.979   0.831  1.2159  0.8865 -0.6048
  560SOL    HW2 2501   1.655   1.049   0.687  0.5279 -0.5607 -1.1781
  561SOL     OW 2502   6.216   6.156   1.172 -0.3062  0.1086  0.1911
  561SOL    HW1 2503   6.238   6.252   1.155  0.5959 -0.0388  0.4825
  561SOL    HW2 2504   6.121   6.139   1.146 -0.8599  1.3697  1.2977
  562SOL     OW 2505   1.258   2.653   0.220  0.2457  0.0153  0.6104
  562SOL    HW1 2506   1.288   2.733   0.168  1.8937  1.2466  3.2971
  562SOL    HW2 2507   1.332   2.586   0.224 -0.5967 -1.0238 -0.2895
  563SOL     OW 2508   2.401   3.146   5.571 -0.6831 -0.0413 -0.2871
  563SOL    HW1 2509   2.370   3.143   5.666 -0.7194  1.8007 -0.2078
  563SOL    HW2 2510   2.488   3.098   5.562 -0.3313  0.3802  0.8190
  564SOL     OW 2511   6.010   5.077   5.791 -0.1136 -0.2403  0.4511
  564SOL    HW1 2512   6.079   5.048   5.857 -0.5947  0.1605  1.1467
  564SOL    HW2 2513   6.041   5.056   5.698  0.6923 -0.5619  0.7859
  565SOL     OW 2514   4.129   5.043   0.798  0.0518 -0.1308  0.2352
  565SOL    HW1 2515   4.198   5.017   0.864 -0.3742 -0.7997  0.4212
  565SOL    HW2 2516   4.042   4.999   0.821 -0.6687  1.3906  0.5357
  566SOL     OW 2517   0.792   6.886   5.040 -0.2578 -0.1040  0.1234
  566SOL    HW1 2518   0.762   6.972   5.082 -1.2702 -0.9458  1.2124
  566SOL    HW2 2519   0.884   6.863   5.072 -0.3707  0.0831  0.6083
  567SOL     OW 2520   6.291   0.188   4.380 -0.0975 -0.2225 -0.1850
  567SOL    HW1 2521   6.272   0.196   4.477 -1.8697 -1.5728 -0.3490
  567SOL    HW2 2522   6.343   0.104   4.363  0.3441  0.0901 -0.3968
  568SOL     OW 2523   2.587   3.233   1.425  0.0281  0.4736 -0.0469
  568SOL    HW1 2524   2.684   3.217   1.440 -0.4252 -0.1717  2.6946
  568SOL    HW2 2525   2.563   3.324   1.458 -0.5509  0.0301  0.7927
  569SOL     OW 2526   5.659   1.360   5.298 -0.3309  0.3701  0.3493
  569SOL    HW1 2527   5.659   1.263   5.273 -0.1835  0.5737 -0.4500
  569SOL    HW2 2528   5.743   1.382   5.346 -0.5214  0.0249  0.8549
  570SOL     OW 2529   3.731   3.516   0.775 -0.2312  0.4267  0.5996
  570SOL    HW1 2530   3.788   3.440   0.745 -0.2281  0.4492  0.5461
  570SOL    HW2 2531   3.788   3.582   0.825 -0.2844  0.2679  0.8764
  571SOL     OW 2532   6.315   1.883   6.860 -0.2298  0.0984  0.2329
  571SOL    HW1 2533   6.390   1.842   6.913 -0.4968 -1.1120 -0.2942
  571SOL    HW2 2534   6.289   1.821   6.786 -0.7855  1.1546 -0.4786
  572SOL     OW 2535   5.993   3.794   3.789  0.5204 -0.6068  0.1055
  572SOL    HW1 2536   5.902   3.825   3.818  0.6134 -0.1797 -0.0528
  572SOL    HW2 2537   6.058   3.808   3.864  0.4321 -1.0608  0.2776
  573SOL     OW 2538   5.229   2.955   5.859  0.5402  0.0988  0.1338
  573SOL    HW1 2539   5.200   3.031   5.917 -1.7201  0.0435 -0.8283
  573SOL    HW2 2540   5.298   2.986   5.795  1.4130  0.7120  1.3338
  574SOL     OW 2541   6.216   3.474   6.761 -0.1020 -0.2623 -0.1613
  574SOL    HW1 2542   6.225   3.529   6.678 -2.5029  2.2815  1.1148
  574SOL    HW2 2543   6.195   3.533   6.839  0.9947 -2.6623  2.1476
  575SOL     OW 2544   4.798   6.560   4.323  0.5412 -0.1139 -0.3414
  575SOL    HW1 2545   4.783   6.651   4.360  0.5740  0.2624 -1.2410
  575SOL    HW2 2546   4.882   6.559   4.269  1.7421 -1.2143  1.4274
  576SOL     OW 2547   5.071   3.155   4.695 -0.9439 -0.6641 -0.0809
  576SOL    HW1 2548   5.147   3.170   4.632  0.7621 -1.3520  1.7295
  576SOL    HW2 2549   5.104   3.114   4.779 -3.0320  0.7974  1.5850
  577SOL     OW 2550   6.119   3.000   6.612  0.3790 -0.1988  0.4686
  577SOL    HW1 2551   6.203   2.951   6.592  0.4761  0.3854 -0.6389
  577SOL    HW2 2552   6.129   3.096   6.584 -0.3157  0.1050  1.2159
  578SOL     OW 2553   4.297   2.140   1.957  0.3683 -0.1581 -0.1171
  578SOL    HW1 2554   4.330   2.233   1.968  0.8159 -0.1056 -1.7352
  578SOL    HW2 2555   4.250   2.131   1.869 -1.2266 -1.0296  0.7597
  579SOL     OW 2556   4.019   0.505   1.618 -0.4229 -0.0519 -0.2630
  579SOL    HW1 2557   4.038   0.459   1.531  0.7672  0.1347 -0.1064
  579SOL    HW2 2558   4.102   0.510   1.673 -0.5643  2.0783 -0.1611
  580SOL     OW 2559   5.768   5.920   6.142 -0.3581  0.7100  0.6033
  580SOL    HW1 2560   5.756   5.839   6.085 -0.8711  1.3934 -0.3067
  580SOL    HW2 2561   5.714   5.911   6.226 -0.1150 -0.0401  0.6788
  581SOL     OW 2562   5.654   5.998   1.830 -0.3456  0.0440 -0.4941
  581SOL    HW1 2563   5.699   6.043   1.907 -0.5222 -1.5879  0.6129
  581SOL    HW2 2564   5.676   5.900   1.831 -1.8669 -0.3454 -1.4179
  582SOL     OW 2565   3.339   1.642   3.390 -0.0684 -0.1324  0.4497
  582SOL    HW1 2566   3.301   1.652   3.298 -0.7746  1.6979  0.8943
  582SOL    HW2 2567   3.422   1.697   3.398 -2.0738  2.8461  1.9593
  583SOL     OW 2568   1.479   5.484   2.543 -0.1481 -0.5781  0.2310
  583SOL    HW1 2569   1.526   5.563   2.504  0.4793 -0.3912  1.3076
  583SOL    HW2 2570   1.500   5.402   2.490 -0.2485 -0.1368 -0.4887
  584SOL     OW 2571   2.716   4.132   6.193 -0.4419 -0.1344  0.2669
  584SOL    HW1 2572   2.765   4.219   6.190 -1.3104  0.3517 -0.2900
  584SOL    HW2 2573   2.634   4.142   6.250 -0.0717 -0.8589  0.9613
  585SOL     OW 2574   0.136   1.071   5.439  0.2116  0.0665 -0.0208
  585SOL    HW1 2575   0.104   1.143   5.500  0.3997 -0.0087  0.1727
  585SOL    HW2 2576   0.061   1.007   5.422  0.4044 -0.4253  0.8948
  586SOL     OW 2577   6.661   4.231   5.579 -0.0813  0.0173  0.2898
  586SOL    HW1 2578   6.684   4.323   5.546 -3.6009  0.8856 -0.2103
  586SOL    HW2 2579   6.626   4.176   5.502 -2.5641 -0.0327  1.3756
  587SOL     OW 2580   0.863   2.077   0.217  0.4266 -0.1816  0.1203
  587SOL    HW1 2581   0.905   2.154   0.265  0.2284 -0.0168  0.0315
  587SOL    HW2 2582   0.862   2.096   0.119 -0.0130 -0.1015  0.1359
  588SOL     OW 2583   0.963   6.124   5.712 -0.2226 -0.1154  0.2281
  588SOL    HW1 2584   1.014   6.156   5.633  0.2581  0.1337  0.6405
  588SOL    HW2 2585   0.987   6.178   5.793 -1.0781 -0.0396  0.4444
  589SOL     OW 2586   3.016   6.210   4.538  0.6435  0.9040  0.0133
  589SOL    HW1 2587   3.090   6.278   4.540  1.2118  0.3648 -1.8338
  589SOL    HW2 2588   3.031   6.144   4.611  1.5417  1.2565  0.1671
  590SOL     OW 2589   3.730   4.229   0.536 -1.0649 -0.1648 -0.4497
  590SOL    HW1 2590   3.671   4.181   0.471 -0.1771 -0.4743 -1.0400
  590SOL    HW2 2591   3.825   4.218   0.509 -0.5174 -1.7541  1.8212
  591SOL     OW 2592   0.337   6.218   6.890  0.0372  0.0852  0.9123
  591SOL    HW1 2593   0.376   6.176   6.972 -1.2579 -0.1695  1.4221
  591SOL    HW2 2594   0.409   6.268   6.841  0.8811  0.0636  2.0788
  592SOL     OW 2595   0.688   5.791   3.750  0.2519  0.0713  0.1070
  592SOL    HW1 2596   0.720   5.779   3.656  0.8750  0.0034  0.3247
  592SOL    HW2 2597   0.589   5.798   3.750 -0.1564 -3.6676 -0.1989
  593SOL     OW 2598   2.204   6.678   2.100  0.5014 -0.2433  0.1150
  593SOL    HW1 2599   2.196   6.725   2.187  0.6836  1.7733 -0.8947
  593SOL    HW2 2600   2.216   6.580   2.115  0.9234  0.1116  2.3281
  594SOL     OW 2601   2.022   3.162   6.541 -0.1332  0.1060 -0.1712
  594SOL    HW1 2602   2.043   3.130   6.633 -1.0451  1.5798  0.5862
  594SOL    HW2 2603   1.923   3.159   6.527 -0.0506  0.5321 -0.8704
  595SOL     OW 2604   3.522   5.132   2.807  0.1599 -0.5531 -0.3447
  595SOL    HW1 2605   3.531   5.154   2.904  0.9048 -2.4737  0.0422
  595SOL    HW2 2606   3.540   5.214   2.753  1.6564  0.0977  1.0701
  596SOL     OW 2607   4.069   6.001   3.907 -1.1844 -0.3204  0.1363
  596SOL    HW1 2608   3.993   5.937   3.901 -1.6598  0.2834 -0.6377
  596SOL    HW2 2609   4.145   5.959   3.957 -2.0827 -0.8747  1.0837
  597SOL     OW 2610   0.579   1.214   2.070 -0.0995  0.0811 -0.0752
  597SOL    HW1 2611   0.540   1.166   2.148 -0.2013 -0.0973 -0.2339
  597SOL    HW2 2612   0.526   1.192   1.988  0.9108 -0.9268 -0.4792
  598SOL     OW 2613   1.451   4.344   3.315  0.4577  0.6917 -0.2630
  598SOL    HW1 2614   1.374   4.322   3.256  1.3109  1.5743 -1.7961
  598SOL    HW2 2615   1.422   4.409   3.385 -0.1730  1.0706 -0.8694
  599SOL     OW 2616   5.775   0.111   6.153 -0.0639  0.2259  0.7592
  599SOL    HW1 2617   5.760   0.194   6.208  0.6916 -0.4975  2.1102
  599SOL    HW2 2618   5.858   0.065   6.185  0.9039  0.2276 -1.5945
  600SOL     OW 2619   1.659   5.058   6.342 -0.0330 -0.1308  0.3058
  600SOL    HW1 2620   1.697   5.148   6.361  1.3234 -0.6398  0.1071
  600SOL    HW2 2621   1.560   5.060   6.357  0.3893  0.4403  3.9854
  601SOL     OW 2622   1.895   0.246   2.432 -0.3815 -0.2212 -0.6002
  601SOL    HW1 2623   1.801   0.213   2.442 -0.6540  0.4249 -0.9347
  601SOL    HW2 2624   1.933   0.266   2.523 -0.9721  0.5904 -0.5212
  602SOL     OW 2625   6.013   1.019   5.413  0.3707 -0.1963  0.6952
  602SOL    HW1 2626   6.068   1.101   5.427  0.0125  0.0130  0.9022
  602SOL    HW2 2627   6.068   0.938   5.434  0.8636 -0.0314  0.0557
  603SOL     OW 2628   1.006   3.200   2.667 -0.1430 -0.4097  0.3898
  603SOL    HW1 2629   1.077   3.185   2.598 -0.0277 -0.9263  0.6171
  603SOL    HW2 2630   1.021   3.138   2.744 -0.2876  0.1458  0.8693
  604SOL     OW 2631   3.984   1.654   5.036  0.1658 -0.2096  0.0739
  604SOL    HW1 2632   3.916   1.582   5.018 -0.4680  0.8182 -1.8081
  604SOL    HW2 2633   3.938   1.743   5.040  1.4093  0.5390 -1.4612
  605SOL     OW 2634   5.196   3.093   3.323 -0.0168 -0.3130 -0.0758
  605SOL    HW1 2635   5.133   3.117   3.397  1.0240 -0.1396  0.7749
  605SOL    HW2 2636   5.148   3.037   3.255 -1.1232 -0.0454  0.4631
  606SOL     OW 2637   6.474   2.208   6.337 -0.3363  0.4754 -0.0686
  606SOL    HW1 2638   6.444   2.228   6.430  0.6031  1.4734  0.0317
  606SOL    HW2 2639   6.506   2.113   6.333  0.0739  0.5692  0.7490
  607SOL     OW 2640   4.822   6.744   6.888 -0.0512  0.7603 -0.8096
  607SOL    HW1 2641   4.843   6.841   6.877 -1.2885  1.3696  1.5662
  607SOL    HW2 2642   4.723   6.731   6.896 -0.0584 -0.9484 -2.7850
  608SOL     OW 2643   6.036   6.232   1.864 -0.3665 -0.8741  0.6050
  608SOL    HW1 2644   6.016   6.241   1.962 -4.7629 -0.2248 -0.1423
  608SOL    HW2 2645   5.986   6.154   1.827  1.8502 -1.6179 -1.1060
  609SOL     OW 2646   2.058   4.627   2.996  0.3809 -0.0644 -0.1470
  609SOL    HW1 2647   2.143   4.614   2.944  0.1815  1.6404 -0.9350
  609SOL    HW2 2648   2.069   4.703   3.059 -0.2888 -0.3877  0.3691
  610SOL     OW 2649   1.265   2.940   3.884 -0.3322 -0.7840 -0.3160
  610SOL    HW1 2650   1.229   2.956   3.792  2.1383 -0.7079 -1.3658
  610SOL    HW2 2651   1.335   3.009   3.905 -0.3528 -1.2276  1.3237
  611SOL     OW 2652   3.656   1.539   1.278  0.3261  0.0072  0.3565
  611SOL    HW1 2653   3.714   1.608   1.320  0.0658  0.8494 -0.6388
  611SOL    HW2 2654   3.560   1.559   1.296  0.0080  1.9456 -2.7731
  612SOL     OW 2655   2.569   0.619   0.135 -0.1704 -0.5004 -0.0963
  612SOL    HW1 2656   2.524   0.705   0.109  0.3770 -0.4122 -0.7644
  612SOL    HW2 2657   2.537   0.591   0.226 -1.4586 -0.3556 -0.4904
  613SOL     OW 2658   2.907   6.290   3.694 -0.0674  0.0223  0.1347
  613SOL    HW1 2659   2.872   6.383   3.698  0.3060  0.1706  0.0349
  613SOL    HW2 2660   2.993   6.289   3.642 -0.4033 -0.4797 -0.4323
  614SOL     OW 2661   0.972   4.824   4.084 -0.1379 -0.4260  0.1057
  614SOL    HW1 2662   0.917   4.792   4.161 -0.8615 -0.0241 -0.2364
  614SOL    HW2 2663   0.990   4.922   4.094  1.6891 -0.8176  0.9135
  615SOL     OW 2664   3.355   0.093   1.809 -0.2014 -0.8603 -0.4591
  615SOL    HW1 2665   3.401   0.007   1.833  0.1961 -0.6919 -0.6027
  615SOL    HW2 2666   3.400   0.134   1.730 -0.0346 -0.2365 -0.0565
  616SOL     OW 2667   1.430   5.538   0.691  0.0042 -0.9911 -0.0208
  616SOL    HW1 2668   1.451   5.463   0.628  2.6111 -0.1791 -0.2021
  616SOL    HW2 2669   1.506   5.551   0.755 -0.9255  0.7278  0.8166
  617SOL     OW 2670   0.629   2.240   1.576 -0.1287  0.0164 -0.2255
  617SOL    HW1 2671   0.589   2.166   1.522  0.8299 -0.8948  0.2824
  617SOL    HW2 2672   0.718   2.265   1.539  1.0535 -1.3744  1.5042
  618SOL     OW 2673   5.125   6.677   0.432  0.2504 -0.3938 -0.3260
  618SOL    HW1 2674   5.154   6.738   0.506 -0.9688 -0.4612  0.2463
  618SOL    HW2 2675   5.028   6.693   0.413  0.2169 -1.3214 -1.0009
  619SOL     OW 2676   0.228   3.463   4.831 -0.3380 -0.3518  0.3019
  619SOL    HW1 2677   0.283   3.380   4.843 -0.8670 -0.5427  1.5633
  619SOL    HW2 2678   0.250   3.505   4.743  0.4660 -1.4305 -0.0342
  620SOL     OW 2679   3.641   0.291   0.353 -0.3334 -0.0972 -0.4901
  620SOL    HW1 2680   3.602   0.330   0.436 -0.2738  0.3047 -0.6503
  620SOL    HW2 2681   3.576   0.228   0.311 -0.0627 -0.9311  0.2951
  621SOL     OW 2682   3.881   1.682   6.857  0.9459 -0.1277 -0.1594
  621SOL    HW1 2683   3.787   1.702   6.829  0.0998 -1.7024  1.3828
  621SOL    HW2 2684   3.921   1.614   6.796  0.7798 -0.1016 -0.3005
  622SOL     OW 2685   6.172   1.495   2.591 -0.1871 -0.4985 -0.4914
  622SOL    HW1 2686   6.266   1.516   2.564 -0.8432  0.0295 -2.5586
  622SOL    HW2 2687   6.114   1.575   2.575 -1.1474 -1.0940 -0.0572
  623SOL     OW 2688   5.086   2.861   2.258 -0.4049  0.6980 -0.2816
  623SOL    HW1 2689   5.034   2.942   2.231 -1.1843  0.0760 -0.6973
  623SOL    HW2 2690   5.127   2.876   2.348 -1.3154  1.2077  0.0674
  624SOL     OW 2691   0.430   4.894   4.823  0.4926  0.4316 -0.1638
  624SOL    HW1 2692   0.431   4.994   4.813 -2.9081  0.4565 -1.5380
  624SOL    HW2 2693   0.397   4.870   4.914 -0.5731  0.6331 -0.4770
  625SOL     OW 2694   0.167   0.999   6.984 -0.0638 -0.0965  0.6800
  625SOL    HW1 2695   0.115   0.946   7.051  1.4782 -0.3942  1.6734
  625SOL    HW2 2696   0.264   0.997   7.009  0.7299 -1.1243 -2.2065
  626SOL     OW 2697   2.330   6.863   6.165 -0.2804  0.4073 -0.0943
  626SOL    HW1 2698   2.423   6.830   6.184 -0.3574  1.4195  2.5707
  626SOL    HW2 2699   2.279   6.792   6.117  0.8793 -1.6114  1.4162
  627SOL     OW 2700   5.473   2.393   2.935  0.5096  0.7031  0.4768
  627SOL    HW1 2701   5.558   2.359   2.894 -0.9855 -0.6766 -1.7270
  627SOL    HW2 2702   5.461   2.352   3.025  0.3258 -2.3999 -0.8171
  628SOL     OW 2703   3.531   3.022   3.538 -0.2793 -0.3841  0.3637
  628SOL    HW1 2704   3.595   2.976   3.477 -1.0406 -0.2435 -0.5502
  628SOL    HW2 2705   3.562   3.116   3.553  1.5865 -1.2782  2.6805
  629SOL     OW 2706   6.330   7.003   2.614  0.0773 -0.1520  0.1015
  629SOL    HW1 2707   6.326   6.937   2.539  0.0918 -0.4483  0.3613
  629SOL    HW2 2708   6.274   6.971   2.690  0.4103 -0.0674  0.3872
  630SOL     OW 2709   1.622   6.254   6.331  1.0216  0.2644  0.3347
  630SOL    HW1 2710   1.604   6.164   6.370 -0.1240  0.3219 -0.0148
  630SOL    HW2 2711   1.589   6.325   6.393 -2.9280  0.3309 -1.5902
  631SOL     OW 2712   5.764   5.400   4.514 -0.5405  0.3302 -0.9873
  631SOL    HW1 2713   5.724   5.432   4.601 -0.6066 -1.6792 -0.2172
  631SOL    HW2 2714   5.854   5.361   4.532 -0.5796 -0.1689 -1.8293
  632SOL     OW 2715   0.174   3.690   0.238  0.6151  0.5319 -0.4694
  632SOL    HW1 2716   0.191   3.600   0.277 -0.2739 -0.3862 -2.0982
  632SOL    HW2 2717   0.235   3.705   0.160  0.4132  1.1437 -0.5174
  633SOL     OW 2718   2.760   3.528   1.226 -0.0717  0.0510  0.8386
  633SOL    HW1 2719   2.679   3.530   1.166  0.9031  0.0618 -0.5122
  633SOL    HW2 2720   2.825   3.597   1.195  2.6666 -3.2557 -1.2466
  634SOL     OW 2721   4.742   4.715   0.296  0.4722  0.6624  0.1366
  634SOL    HW1 2722   4.655   4.754   0.326 -0.3684 -0.0685 -1.2394
  634SOL    HW2 2723   4.740   4.616   0.307  0.3061  0.4170 -1.7799
  635SOL     OW 2724   4.225   1.584   3.560 -0.2996 -0.1552 -0.3097
  635SOL    HW1 2725   4.234   1.497   3.511 -0.4142 -1.0106  1.1248
  635SOL    HW2 2726   4.129   1.609   3.567 -0.2922 -0.0833 -0.4483
  636SOL     OW 2727   0.587   4.692   6.150  0.3415 -0.2853  0.6451
  636SOL    HW1 2728   0.669   4.730   6.109 -0.4793  0.8949  0.0523
  636SOL    HW2 2729   0.515   4.761   6.151 -1.1342 -1.7417 -0.2240
  637SOL     OW 2730   1.865   5.743   0.331  0.4746 -0.0877 -0.2961
  637SOL    HW1 2731   1.942   5.681   0.315 -0.4718 -1.0002 -1.5432
  637SOL    HW2 2732   1.884   5.832   0.291  0.6397 -0.5019 -1.1522
  638SOL     OW 2733   2.072   4.063   2.440 -0.0062  0.2897 -0.2771
  638SOL    HW1 2734   2.035   3.973   2.417  2.0262 -0.5243 -0.5433
  638SOL    HW2 2735   1.997   4.124   2.466 -1.3211 -1.9381  1.5157
  639SOL     OW 2736   4.345   6.506   4.294 -0.1615 -0.3266  0.2220
  639SOL    HW1 2737   4.299   6.567   4.230 -1.6540 -1.3065  0.3181
  639SOL    HW2 2738   4.353   6.551   4.383 -1.0063 -0.1525  0.2177
  640SOL     OW 2739   4.994   0.877   0.675 -0.2043  0.1189 -0.1461
  640SOL    HW1 2740   5.071   0.851   0.616 -0.0788 -2.4415  0.9910
  640SOL    HW2 2741   4.995   0.976   0.690  0.0675  0.8516 -3.8987
  641SOL     OW 2742   4.880   3.906   5.416 -0.3030 -0.3255 -0.4137
  641SOL    HW1 2743   4.920   3.997   5.425  1.2955 -1.1038  0.5924
  641SOL    HW2 2744   4.801   3.897   5.476  2.3843 -1.1082  3.2910
  642SOL     OW 2745   1.496   0.713   2.113 -0.0134  0.1028 -0.5530
  642SOL    HW1 2746   1.439   0.791   2.089 -1.0157 -0.5759 -0.4131
  642SOL    HW2 2747   1.439   0.634   2.135  0.9671 -0.4838 -0.0084
  643SOL     OW 2748   3.600   0.516   0.120  0.5433  0.3906  0.2196
  643SOL    HW1 2749   3.666   0.557   0.183 -1.1029  0.3454  2.0703
  643SOL    HW2 2750   3.555   0.438   0.164 -0.5732  0.2535 -1.0721
  644SOL     OW 2751   6.117   1.275   0.343  0.8664 -0.3040  0.1503
  644SOL    HW1 2752   6.113   1.374   0.358 -0.0529  0.2852 -3.2916
  644SOL    HW2 2753   6.030   1.234   0.369 -0.2421  0.4923 -2.0372
  645SOL     OW 2754   0.172   5.154   4.294 -0.2717  0.4850  0.5859
  645SOL    HW1 2755   0.147   5.065   4.254 -1.3121  0.1458  1.9313
  645SOL    HW2 2756   0.255   5.188   4.249  0.1312 -1.1404  0.0195
  646SOL     OW 2757   5.445   2.287   0.139  0.3725 -0.1481  0.3550
  646SOL    HW1 2758   5.355   2.244   0.146  0.2792  0.2416  2.5408
  646SOL    HW2 2759   5.516   2.217   0.146  0.2991 -0.5304 -2.0093
  647SOL     OW 2760   1.460   2.095   1.167 -0.1852 -0.1153  0.1874
  647SOL    HW1 2761   1.381   2.114   1.110 -0.6672  0.4721  1.0206
  647SOL    HW2 2762   1.439   2.117   1.262  1.8901  2.8403  0.0643
  648SOL     OW 2763   5.946   5.780   4.858  0.2099  0.0740  0.0805
  648SOL    HW1 2764   5.954   5.785   4.957 -0.4377  0.8701  0.1028
  648SOL    HW2 2765   5.943   5.872   4.820  2.2639 -0.1657 -0.8477
  649SOL     OW 2766   0.635   5.882   3.105 -0.1417  0.2514  0.3541
  649SOL    HW1 2767   0.592   5.836   3.182 -1.0145  0.1438 -0.1765
  649SOL    HW2 2768   0.653   5.977   3.128 -2.3633  0.8078  0.0027
  650SOL     OW 2769   6.428   6.919   1.454  0.3384 -0.0574  0.2258
  650SOL    HW1 2770   6.361   6.853   1.422 -1.3276  1.6611 -0.0099
  650SOL    HW2 2771   6.504   6.871   1.498 -0.9905 -2.0859  0.4144
  651SOL     OW 2772   6.147   1.948   1.832 -0.3544  0.2304  0.1234
  651SOL    HW1 2773   6.127   2.037   1.872 -0.7434  0.8295 -1.3602
  651SOL    HW2 2774   6.245   1.931   1.834 -0.3703  0.2339  1.3293
  652SOL     OW 2775   5.037   5.123   3.959  0.3222 -0.4024  0.4275
  652SOL    HW1 2776   4.992   5.117   3.869  1.2256 -0.1087 -0.0628
  652SOL    HW2 2777   4.984   5.184   4.018  1.4268  2.1016 -1.0190
  653SOL     OW 2778   1.208   0.331   0.680  1.0080 -0.4004  0.0132
  653SOL    HW1 2779   1.118   0.290   0.697  0.5175  0.3177 -0.7679
  653SOL    HW2 2780   1.277   0.260   0.673  0.6874 -0.9198  1.6737
  654SOL     OW 2781   0.237   4.018   3.568 -0.2059  0.1194  0.1647
  654SOL    HW1 2782   0.313   4.078   3.590  0.1671 -0.1308 -0.4346
  654SOL    HW2 2783   0.192   4.051   3.484  1.1449 -1.4916 -1.2310
  655SOL     OW 2784   4.235   1.210   6.968 -0.3871  0.3629 -0.5925
  655SOL    HW1 2785   4.143   1.239   6.994 -0.5305 -0.7400  0.1799
  655SOL    HW2 2786   4.269   1.270   6.895 -2.0773  0.2048 -1.5527
  656SOL     OW 2787   5.048   6.027   0.083 -0.1146 -0.0150  0.0576
  656SOL    HW1 2788   4.977   6.088   0.045  0.1723  1.0489  1.1806
  656SOL    HW2 2789   5.130   6.080   0.102 -0.4342 -0.3787  2.7209
  657SOL     OW 2790   3.952   5.822   3.579  0.4638  0.1665 -0.0565
  657SOL    HW1 2791   3.922   5.912   3.548  0.0895 -0.2958 -1.0700
  657SOL    HW2 2792   3.911   5.752   3.521  3.2905 -0.5315 -1.3540
  658SOL     OW 2793   4.940   2.754   6.190  0.1750  0.7570 -0.1019
  658SOL    HW1 2794   4.942   2.746   6.289  0.4308  0.6109 -0.1175
  658SOL    HW2 2795   4.869   2.820   6.163  1.8375  2.7896  0.2876
  659SOL     OW 2796   5.026   0.979   0.286 -0.0524 -0.0462  0.0527
  659SOL    HW1 2797   5.044   0.885   0.317  1.7550  0.2316 -0.1154
  659SOL    HW2 2798   5.106   1.015   0.239 -0.7965  1.5352 -0.0492
  660SOL     OW 2799   3.370   1.301   1.418 -0.3605 -0.0743  0.4803
  660SOL    HW1 2800   3.422   1.225   1.457 -0.0533 -0.6268 -0.9187
  660SOL    HW2 2801   3.304   1.334   1.485  0.9140 -0.1948  1.8480
  661SOL     OW 2802   4.652   0.244   3.802 -0.1709 -0.0675 -0.1737
  661SOL    HW1 2803   4.563   0.234   3.756  0.5408 -0.8835 -1.4395
  661SOL    HW2 2804   4.681   0.340   3.797 -1.0830  0.2550  0.4760
  662SOL     OW 2805   0.875   5.406   6.213 -0.0971  0.4462 -0.2896
  662SOL    HW1 2806   0.891   5.326   6.271 -1.2844 -3.5024 -4.8063
  662SOL    HW2 2807   0.958   5.428   6.163 -0.0687  1.4538  0.1733
  663SOL     OW 2808   5.893   2.088   0.879 -0.7641  0.4793 -0.6349
  663SOL    HW1 2809   5.935   2.111   0.791  0.0686  1.1269 -0.0759
  663SOL    HW2 2810   5.876   1.990   0.882 -0.0508  0.3255 -1.2133
  664SOL     OW 2811   4.071   0.333   3.599  0.0591  0.7534  0.6212
  664SOL    HW1 2812   4.041   0.238   3.601  1.5231  0.2483 -0.1399
  664SOL    HW2 2813   3.992   0.393   3.586 -0.7439 -0.4385 -0.1239
  665SOL     OW 2814   2.807   6.866   6.034  0.0254 -0.4720 -0.6222
  665SOL    HW1 2815   2.902   6.847   6.059  0.3834  0.7373 -0.9958
  665SOL    HW2 2816   2.755   6.780   6.032  1.1443 -1.1677 -0.6035
  666SOL     OW 2817   0.542   4.982   2.157 -0.1192 -0.2778  0.7171
  666SOL    HW1 2818   0.479   4.935   2.096  1.8881 -1.1600 -0.8145
  666SOL    HW2 2819   0.518   4.963   2.252 -0.4880 -2.9793  0.1611
  667SOL     OW 2820   4.517   4.016   6.455 -0.6947 -1.2574 -0.5575
  667SOL    HW1 2821   4.596   4.040   6.398 -1.1960  0.8867 -0.4389
  667SOL    HW2 2822   4.548   3.960   6.532  0.7976 -0.2399 -0.3611
  668SOL     OW 2823   5.461   4.531   2.980 -0.5713 -0.1561 -0.1718
  668SOL    HW1 2824   5.462   4.431   2.971 -0.9831 -0.2240  0.5210
  668SOL    HW2 2825   5.385   4.558   3.039 -0.5832  0.5815 -0.5234
  669SOL     OW 2826   6.605   6.974   3.295 -0.5564  0.1720 -0.5098
  669SOL    HW1 2827   6.646   7.040   3.233  0.3001  1.9330  1.7996
  669SOL    HW2 2828   6.580   7.019   3.380 -0.6014 -2.3584  0.9227
  670SOL     OW 2829   0.147   1.087   3.893  0.0681  0.8084 -0.0797
  670SOL    HW1 2830   0.197   1.172   3.913  0.5905  0.3293  0.6647
  670SOL    HW2 2831   0.211   1.012   3.881 -0.3382  0.6719 -1.6704
  671SOL     OW 2832   5.684   2.373   5.680 -0.1086 -0.2388  0.7673
  671SOL    HW1 2833   5.707   2.466   5.650  1.6905 -0.7794  0.2820
  671SOL    HW2 2834   5.740   2.307   5.630 -1.3256 -1.6028  1.1219
  672SOL     OW 2835   1.434   1.063   3.150 -0.1452 -0.1767 -0.1514
  672SOL    HW1 2836   1.516   1.116   3.129 -1.6332  2.2463 -0.1735
  672SOL    HW2 2837   1.453   1.003   3.228  1.7371  0.0719 -0.3711
  673SOL     OW 2838   4.029   5.238   2.358 -0.2446 -0.4694 -0.3426
  673SOL    HW1 2839   4.061   5.185   2.436  1.8559 -0.3385 -1.0559
  673SOL    HW2 2840   4.045   5.188   2.273  1.5902  1.1214 -1.0115
  674SOL     OW 2841   3.853   6.994   4.704  0.5312  0.3302 -0.6511
  674SOL    HW1 2842   3.869   6.949   4.791 -0.5984  2.1500  0.5806
  674SOL    HW2 2843   3.770   6.956   4.662 -0.3153  1.0694  0.2927
  675SOL     OW 2844   0.089   2.827   5.632  0.2574  0.1224 -0.1677
  675SOL    HW1 2845   0.091   2.896   5.704 -1.9737 -0.6096  0.6829
  675SOL    HW2 2846   0.108   2.737   5.672 -0.6844 -0.2490 -0.5304
  676SOL     OW 2847   1.295   3.921   1.772  0.6424 -0.4612 -0.2343
  676SOL    HW1 2848   1.272   3.954   1.680 -1.5220  2.4536  1.1784
  676SOL    HW2 2849   1.392   3.934   1.788  0.4220  2.8290 -0.8364
  677SOL     OW 2850   1.827   1.371   6.729  0.2041  1.0099  0.9204
  677SOL    HW1 2851   1.778   1.372   6.641 -0.3628 -1.0632  1.1675
  677SOL    HW2 2852   1.773   1.420   6.798  0.3084  2.0113  0.3267
  678SOL     OW 2853   3.257   2.633   1.729  0.6533 -0.0148 -0.4421
  678SOL    HW1 2854   3.269   2.689   1.811 -0.7984  1.4300 -1.1788
  678SOL    HW2 2855   3.258   2.691   1.648 -0.2620 -1.1288 -1.2843
  679SOL     OW 2856   0.960   3.208   3.927  0.2331 -0.3830  0.0084
  679SOL    HW1 2857   0.987   3.296   3.888  0.4195 -1.2875 -2.0068
  679SOL    HW2 2858   0.875   3.220   3.980  2.2354  1.7198  3.1358
  680SOL     OW 2859   3.244   0.578   3.221 -0.4841 -0.5720 -0.0331
  680SOL    HW1 2860   3.313   0.525   3.172 -0.0343 -0.2090  0.1948
  680SOL    HW2 2861   3.236   0.668   3.179  0.3642 -0.0239  0.9110
  681SOL     OW 2862   3.887   6.641   3.324 -0.4024 -0.0650 -0.3597
  681SOL    HW1 2863   3.849   6.721   3.277 -0.7162  0.9773  1.5757
  681SOL    HW2 2864   3.868   6.648   3.421  0.7195 -1.8780  0.0258
  682SOL     OW 2865   1.082   5.347   1.075  0.4854  0.4907 -0.0539
  682SOL    HW1 2866   1.105   5.323   1.169  0.9069 -1.7517 -0.6583
  682SOL    HW2 2867   0.984   5.365   1.068 -0.1560 -2.3533  0.3493
  683SOL     OW 2868   5.364   5.588   2.628  0.3833  0.1543  0.3427
  683SOL    HW1 2869   5.419   5.671   2.631  1.9506 -0.8611  1.1106
  683SOL    HW2 2870   5.423   5.509   2.607 -1.4217 -0.5244 -2.9091
  684SOL     OW 2871   1.597   6.812   5.741 -0.1426  0.1869  0.4655
  684SOL    HW1 2872   1.648   6.788   5.824 -2.2594  0.6421  1.9922
  684SOL    HW2 2873   1.569   6.908   5.746  1.3887  0.8085 -1.7723
  685SOL     OW 2874   1.979   1.301   3.757 -0.1753  0.1110 -0.8766
  685SOL    HW1 2875   1.946   1.209   3.778 -0.8905  0.2881 -1.1965
  685SOL    HW2 2876   1.912   1.369   3.789  0.6225  0.5564 -0.0916
  686SOL     OW 2877   3.828   2.263   0.064 -0.0614  0.3667 -0.3254
  686SOL    HW1 2878   3.746   2.250   0.007  1.4730  0.2749 -2.6191
  686SOL    HW2 2879   3.907   2.279   0.005  2.0129 -1.5732  1.7455
  687SOL     OW 2880   4.128   3.844   5.310 -0.4300  0.2105 -0.0170
  687SOL    HW1 2881   4.085   3.909   5.247  2.3316  1.6387 -0.6506
  687SOL    HW2 2882   4.224   3.831   5.282 -0.1704 -2.1085  1.7067
  688SOL     OW 2883   2.063   6.933   4.228 -0.4327  0.2816 -0.3824
  688SOL    HW1 2884   2.109   6.845   4.242 -1.5782 -0.4521 -1.0142
  688SOL    HW2 2885   2.018   6.961   4.313 -0.4100  0.0516 -0.2912
  689SOL     OW 2886   1.789   0.841   6.198  0.5626  0.2703  0.0043
  689SOL    HW1 2887   1.725   0.869   6.126  1.5747 -1.8730 -1.8669
  689SOL    HW2 2888   1.768   0.890   6.282 -4.1535 -0.9237 -0.1634
  690SOL     OW 2889   2.552   2.899   0.177 -0.3320  0.7251 -0.2181
  690SOL    HW1 2890   2.519   2.984   0.216 -2.9720 -1.4083  2.8052
  690SOL    HW2 2891   2.619   2.858   0.239 -0.2383 -0.0646 -0.8120
  691SOL     OW 2892   0.674   4.631   2.008 -0.3949  0.4144  0.1886
  691SOL    HW1 2893   0.725   4.701   2.058  0.5007  1.2664 -1.8004
  691SOL    HW2 2894   0.731   4.549   1.997 -1.0036 -0.2098  1.4794
  692SOL     OW 2895   0.478   1.373   6.855  0.3194  0.7892 -0.4918
  692SOL    HW1 2896   0.381   1.363   6.874  0.5025 -0.5686 -0.1864
  692SOL    HW2 2897   0.494   1.359   6.757  0.5435 -2.1405 -0.1123
  693SOL     OW 2898   0.883   5.639   4.133  0.3346  0.0120  0.2907
  693SOL    HW1 2899   0.922   5.682   4.214  1.8823  0.8568 -0.8530
  693SOL    HW2 2900   0.792   5.676   4.117  0.0094 -0.1513  1.6060
  694SOL     OW 2901   4.840   3.332   6.719  0.0048  0.7039  0.0149
  694SOL    HW1 2902   4.842   3.247   6.772  0.3838 -0.4791 -1.7941
  694SOL    HW2 2903   4.746   3.349   6.687 -0.2557  1.5100  1.1788
  695SOL     OW 2904   6.159   2.394   4.992  0.2799  0.4742 -0.1409
  695SOL    HW1 2905   6.163   2.298   5.022 -2.4284  0.1183 -0.6767
  695SOL    HW2 2906   6.196   2.401   4.899  0.0563 -0.1482 -0.2849
  696SOL     OW 2907   5.702   5.819   0.218  0.2755  0.1861 -0.0860
  696SOL    HW1 2908   5.700   5.763   0.135  2.0274 -0.3763  0.2220
  696SOL    HW2 2909   5.734   5.911   0.196  1.3289 -0.1379  0.0408
  697SOL     OW 2910   1.470   3.385   6.503  0.0010  0.4770 -0.1619
  697SOL    HW1 2911   1.522   3.440   6.437  1.0794 -0.8137 -0.3952
  697SOL    HW2 2912   1.508   3.397   6.594 -0.5085  1.0222 -0.0101
  698SOL     OW 2913   4.104   2.087   7.003 -0.1471 -0.8074 -0.3014
  698SOL    HW1 2914   4.127   2.152   7.075  0.8635 -1.5579  0.0322
  698SOL    HW2 2915   4.143   2.118   6.916 -1.5766  0.2348 -0.6307
  699SOL     OW 2916   5.373   1.362   2.308  0.2609 -0.3819  0.4095
  699SOL    HW1 2917   5.338   1.395   2.395  0.3802 -0.4677  0.4921
  699SOL    HW2 2918   5.350   1.427   2.235  0.6598 -0.0263  0.5954
  700SOL     OW 2919   4.424   6.029   1.673  0.0508  0.2075 -0.0630
  700SOL    HW1 2920   4.402   6.046   1.769  0.0375  0.2319 -0.0702
  700SOL    HW2 2921   4.401   6.110   1.618  0.7067  0.4568  0.0133
  701SOL     OW 2922   2.112   0.663   1.934 -0.0245  0.3933  0.4688
  701SOL    HW1 2923   2.035   0.728   1.938 -0.6669 -0.3125 -0.1027
  701SOL    HW2 2924   2.138   0.637   2.027 -0.5961  0.4998  0.6635
  702SOL     OW 2925   2.240   2.467   5.882  0.6542  0.4538 -0.4919
  702SOL    HW1 2926   2.193   2.555   5.884 -0.2836  0.0085 -1.7967
  702SOL    HW2 2927   2.205   2.409   5.956  1.3172  1.1712  0.4089
  703SOL     OW 2928   2.408   3.432   3.682 -0.0197  0.2390 -0.2398
  703SOL    HW1 2929   2.472   3.495   3.726 -0.8536  0.4089  0.7516
  703SOL    HW2 2930   2.404   3.452   3.584  0.3825  1.1395 -0.0795
  704SOL     OW 2931   4.084   6.042   2.609 -0.7653  0.2765  0.3424
  704SOL    HW1 2932   3.992   6.027   2.572 -0.0882 -0.8167 -0.9792
  704SOL    HW2 2933   4.143   5.965   2.585  0.7227  1.3255  0.4521
  705SOL     OW 2934   5.519   1.392   5.680  0.3369  0.3122 -0.0926
  705SOL    HW1 2935   5.570   1.476   5.696  1.6415 -0.5322  0.3459
  705SOL    HW2 2936   5.421   1.412   5.681  0.5618  1.5883  1.4548
  706SOL     OW 2937   5.664   0.982   3.641 -0.3071 -0.4180 -0.0133
  706SOL    HW1 2938   5.597   1.034   3.588 -0.3026 -0.0541  0.3301
  706SOL    HW2 2939   5.669   0.889   3.606 -1.4890 -0.6433  0.3576
  707SOL     OW 2940   2.822   1.481   5.712 -0.8085 -0.2793  0.1552
  707SOL    HW1 2941   2.908   1.517   5.749 -1.9698  0.6383  2.0910
  707SOL    HW2 2942   2.793   1.538   5.635  0.5136 -0.8768 -0.8308
  708SOL     OW 2943   2.091   2.893   4.749  0.4144  0.5198 -0.0203
  708SOL    HW1 2944   2.171   2.846   4.784 -0.6059 -0.1302  1.5347
  708SOL    HW2 2945   2.016   2.885   4.815 -1.1564  0.4945 -1.7292
  709SOL     OW 2946   6.407   3.121   4.321  0.0074  0.0950 -0.1568
  709SOL    HW1 2947   6.387   3.143   4.416  1.0008 -1.1406  0.3587
  709SOL    HW2 2948   6.399   3.022   4.307 -0.5737  0.3099 -1.4790
  710SOL     OW 2949   0.998   3.215   6.336 -0.3798  0.2603 -0.6299
  710SOL    HW1 2950   0.964   3.262   6.254  1.1919 -0.1814 -1.5866
  710SOL    HW2 2951   1.083   3.166   6.313 -0.1397 -0.2306  1.1749
  711SOL     OW 2952   5.832   6.832   0.815  0.3906 -0.3786 -0.1749
  711SOL    HW1 2953   5.740   6.863   0.842  0.0805 -0.4012 -1.1908
  711SOL    HW2 2954   5.900   6.885   0.866 -0.1713  0.3332 -0.1396
  712SOL     OW 2955   6.384   1.161   1.805 -0.0417 -0.3261 -0.4462
  712SOL    HW1 2956   6.392   1.242   1.864 -0.2142  0.0847 -0.9710
  712SOL    HW2 2957   6.319   1.181   1.731  1.8783  0.0219 -2.1200
  713SOL     OW 2958   2.348   3.878   7.003 -0.6331  0.0142 -0.8277
  713SOL    HW1 2959   2.360   3.795   6.949 -0.3068  0.5155 -1.5129
  713SOL    HW2 2960   2.404   3.951   6.965  1.5091 -0.2488  1.6598
  714SOL     OW 2961   0.930   6.379   1.577  0.5090 -0.2661  0.2045
  714SOL    HW1 2962   0.986   6.461   1.587 -2.3046  1.5111  2.6347
  714SOL    HW2 2963   0.985   6.299   1.600  3.2322  0.8157 -1.8800
  715SOL     OW 2964   6.839   3.766   1.166  0.1291 -0.2044  0.5207
  715SOL    HW1 2965   6.886   3.702   1.105 -1.2474 -0.0878 -0.7133
  715SOL    HW2 2966   6.766   3.718   1.214  0.6955 -0.1077  1.4954
  716SOL     OW 2967   2.385   6.957   3.113 -0.1074  0.1675  0.6524
  716SOL    HW1 2968   2.469   6.903   3.106 -0.7350 -0.6773 -1.4032
  716SOL    HW2 2969   2.342   6.942   3.202  1.0254 -0.7565  1.0646
  717SOL     OW 2970   4.615   0.795   2.619 -0.2018  0.5777 -0.5270
  717SOL    HW1 2971   4.715   0.793   2.621 -0.1344  2.6841  0.1813
  717SOL    HW2 2972   4.578   0.723   2.678  0.9167  0.8602  0.5403
  718SOL     OW 2973   1.694   2.246   1.154  0.0936 -0.3269 -0.4718
  718SOL    HW1 2974   1.624   2.175   1.150  0.5290 -0.7096 -1.5111
  718SOL    HW2 2975   1.772   2.213   1.208 -0.7036  0.2809  1.1072
  719SOL     OW 2976   6.922   4.291   2.300  0.5006  0.0931 -0.4205
  719SOL    HW1 2977   6.945   4.309   2.205  0.6133  0.5402 -0.3084
  719SOL    HW2 2978   7.005   4.282   2.354  0.4393 -0.2698 -0.3839
  720SOL     OW 2979   2.372   0.746   5.994 -0.4649  0.2398  0.3266
  720SOL    HW1 2980   2.349   0.648   5.993  0.2662 -0.0088 -3.2442
  720SOL    HW2 2981   2.459   0.759   6.040 -0.8135 -0.7213  1.2905
  721SOL     OW 2982   4.025   5.417   3.857  0.1926 -0.0067 -0.8548
  721SOL    HW1 2983   4.073   5.476   3.791 -1.8333  2.0116 -0.6313
  721SOL    HW2 2984   3.990   5.473   3.932 -3.2796 -1.1245 -1.4735
  722SOL     OW 2985   2.278   0.407   4.208 -0.3901 -0.3087  0.1701
  722SOL    HW1 2986   2.339   0.330   4.191 -0.2808 -0.2034  0.0854
  722SOL    HW2 2987   2.309   0.487   4.157 -1.1261 -0.5013 -0.6165
  723SOL     OW 2988   0.876   1.245   2.653  0.3183 -0.3913  0.1191
  723SOL    HW1 2989   0.924   1.227   2.568 -0.9671 -2.4210 -0.2442
  723SOL    HW2 2990   0.913   1.327   2.696  2.9677 -0.9786 -0.9092
  724SOL     OW 2991   0.137   6.635   4.581  0.3755  0.5632  0.2159
  724SOL    HW1 2992   0.195   6.591   4.512  0.1367  1.1666 -0.3832
  724SOL    HW2 2993   0.161   6.732   4.587 -0.6713  0.8569 -0.1550
  725SOL     OW 2994   6.898   6.586   6.257  0.2493 -0.0561 -0.5135
  725SOL    HW1 2995   6.828   6.515   6.259  0.3829 -0.1631  0.3008
  725SOL    HW2 2996   6.986   6.548   6.285 -0.2510  1.0623  3.0858
  726SOL     OW 2997   2.367   3.134   1.587 -0.1030  0.5502 -0.3858
  726SOL    HW1 2998   2.300   3.146   1.514 -0.6393  0.6028  0.1067
  726SOL    HW2 2999   2.460   3.146   1.550 -0.4270  2.1743 -0.7249
  727SOL     OW 3000   6.139   1.146   2.214 -0.2011  0.3064  0.7158
  727SOL    HW1 3001   6.190   1.212   2.160 -0.6626 -0.5548 -0.8243
  727SOL    HW2 3002   6.089   1.194   2.286  2.0104  1.2635  1.7035
  728SOL     OW 3003   2.173   5.330   3.549 -0.1081  0.5411  0.4365
  728SOL    HW1 3004   2.112   5.392   3.501 -0.3975 -0.6956 -0.8530
  728SOL    HW2 3005   2.227   5.278   3.483  1.1715  0.4437  1.5200
  729SOL     OW 3006   6.998   4.951   3.508  0.0656 -0.4900  0.1841
  729SOL    HW1 3007   6.904   4.964   3.477 -0.0326 -0.0376  0.6647
  729SOL    HW2 3008   7.057   5.019   3.465  0.2583 -1.1236 -0.5603
  730SOL     OW 3009   1.671   2.335   4.769 -0.1411 -0.2576  0.0894
  730SOL    HW1 3010   1.759   2.323   4.722 -0.0665 -1.4490  0.5209
  730SOL    HW2 3011   1.655   2.259   4.831 -1.7375 -0.3323 -0.3764
  731SOL     OW 3012   5.250   5.816   1.101 -0.1120 -0.5277 -0.3038
  731SOL    HW1 3013   5.290   5.889   1.157  2.2727 -1.6892 -0.3882
  731SOL    HW2 3014   5.170   5.779   1.149 -0.4968  1.1206  0.4235
  732SOL     OW 3015   6.267   4.928   5.856  0.4399  0.2956 -0.3067
  732SOL    HW1 3016   6.342   4.919   5.920  1.0305  2.8175 -0.5660
  732SOL    HW2 3017   6.299   4.906   5.764  1.0162  1.7416 -0.4772
  733SOL     OW 3018   1.644   0.552   6.440 -0.1927  0.3182  0.0819
  733SOL    HW1 3019   1.667   0.456   6.455  0.3715  0.1023 -1.7882
  733SOL    HW2 3020   1.662   0.604   6.523 -0.2506 -1.1340  1.0559
  734SOL     OW 3021   3.743   5.126   5.501  0.3724 -0.6258  0.3822
  734SOL    HW1 3022   3.644   5.110   5.492  0.3231 -1.0695  1.5526
  734SOL    HW2 3023   3.769   5.204   5.444 -0.2525 -1.8817 -1.7017
  735SOL     OW 3024   5.986   1.516   6.598  0.1026  0.4101 -0.4021
  735SOL    HW1 3025   5.946   1.444   6.541  0.8746  0.7029 -1.3538
  735SOL    HW2 3026   6.018   1.591   6.539 -0.1330  1.2605  0.5153
  736SOL     OW 3027   4.187   2.120   6.721 -0.0860 -0.1656  0.2510
  736SOL    HW1 3028   4.269   2.134   6.666 -0.1753 -1.2294 -0.1951
  736SOL    HW2 3029   4.135   2.206   6.725  0.6772  0.3257 -0.0660
  737SOL     OW 3030   0.272   2.240   6.811  0.2512  0.2377 -0.1914
  737SOL    HW1 3031   0.239   2.331   6.835  1.3797  1.0507 -1.5585
  737SOL    HW2 3032   0.229   2.209   6.726 -0.1020 -0.5227  0.2421
  738SOL     OW 3033   1.534   1.557   1.537 -0.3273 -0.2315  0.4100
  738SOL    HW1 3034   1.437   1.581   1.543 -0.4317 -0.1392 -1.2736
  738SOL    HW2 3035   1.584   1.631   1.492  0.7569  0.2463  2.2943
  739SOL     OW 3036   0.664   3.652   0.535  0.3040 -0.3164 -0.3498
  739SOL    HW1 3037   0.589   3.698   0.582  1.0664  1.2700 -0.6422
  739SOL    HW2 3038   0.630   3.612   0.450 -0.5389 -1.0051  0.2957
  740SOL     OW 3039   2.338   5.004   5.334 -0.2751  0.0712 -0.0989
  740SOL    HW1 3040   2.431   4.976   5.313 -0.9011 -0.9362 -1.7570
  740SOL    HW2 3041   2.294   4.935   5.391 -0.0910  0.4285  0.4832
  741SOL     OW 3042   6.592   0.157   1.763 -0.7190  0.8093 -0.0368
  741SOL    HW1 3043   6.508   0.194   1.803  0.5295  0.8930  2.7608
  741SOL    HW2 3044   6.585   0.058   1.755  0.5507  0.0395  5.1078
  742SOL     OW 3045   1.652   6.445   0.113 -0.5180  0.2270 -0.3090
  742SOL    HW1 3046   1.665   6.539   0.082 -0.2405 -0.2449 -1.6707
  742SOL    HW2 3047   1.728   6.419   0.173  0.1898  0.3943 -1.1183
  743SOL     OW 3048   5.658   2.097   3.028  0.0214  0.3948 -1.0759
  743SOL    HW1 3049   5.580   2.130   3.082 -0.9057  2.4649 -3.4189
  743SOL    HW2 3050   5.717   2.175   3.005  1.3753 -0.7216 -1.4699
  744SOL     OW 3051   1.652   3.110   2.464 -0.0514 -0.2628  0.0823
  744SOL    HW1 3052   1.645   3.019   2.424 -0.1565 -0.9188  1.5559
  744SOL    HW2 3053   1.685   3.103   2.558 -0.3242  1.1932  0.3053
  745SOL     OW 3054   6.453   4.289   6.068 -0.0893  0.3065 -0.6540
  745SOL    HW1 3055   6.516   4.268   5.993  0.2160 -0.2643 -0.2538
  745SOL    HW2 3056   6.470   4.381   6.101  0.7539  0.0608 -0.3610
  746SOL     OW 3057   5.764   0.739   3.528 -0.0639 -0.5527 -0.1197
  746SOL    HW1 3058   5.797   0.726   3.621 -0.9264 -1.6947  0.0463
  746SOL    HW2 3059   5.792   0.661   3.472  2.6780  1.2802 -1.5146
  747SOL     OW 3060   1.514   0.418   5.168 -0.0772  0.3996  0.1426
  747SOL    HW1 3061   1.467   0.414   5.080  0.1506  1.4260 -0.0467
  747SOL    HW2 3062   1.496   0.507   5.211 -0.3319 -0.1463  1.2188
  748SOL     OW 3063   2.502   1.811   4.720  0.2371 -0.6749  0.3636
  748SOL    HW1 3064   2.416   1.854   4.693 -0.3518 -1.2299  1.3159
  748SOL    HW2 3065   2.486   1.715   4.743  1.2046 -0.9179  0.0776
  749SOL     OW 3066   4.187   3.670   6.219  0.7816  0.0335 -0.1032
  749SOL    HW1 3067   4.087   3.675   6.207  0.9026 -1.3344 -2.1023
  749SOL    HW2 3068   4.216   3.742   6.282 -1.4435  0.5743  0.3893
  750SOL     OW 3069   4.254   2.149   3.385  0.4200  0.0974 -0.4233
  750SOL    HW1 3070   4.230   2.125   3.480  1.5555 -0.2296 -0.2141
  750SOL    HW2 3071   4.181   2.118   3.324 -0.0203 -0.2728  0.2694
  751SOL     OW 3072   0.302   5.073   0.914  0.5041  0.1108 -0.2792
  751SOL    HW1 3073   0.221   5.016   0.907  0.3708 -0.0620  1.9219
  751SOL    HW2 3074   0.372   5.042   0.849 -0.1707 -1.4788 -0.2699
  752SOL     OW 3075   4.366   6.382   0.734  0.2272  0.3680  0.0504
  752SOL    HW1 3076   4.318   6.359   0.650  0.9742  2.0594 -0.8914
  752SOL    HW2 3077   4.364   6.481   0.748 -0.0987  0.1155  2.1802
  753SOL     OW 3078   3.101   4.488   3.365 -0.4727 -0.6411  0.2968
  753SOL    HW1 3079   3.130   4.481   3.461 -1.4466 -0.8459  0.5874
  753SOL    HW2 3080   3.142   4.569   3.324 -0.7643 -0.0557  1.1401
  754SOL     OW 3081   2.306   1.205   5.987 -0.2817 -0.1941 -0.2630
  754SOL    HW1 3082   2.366   1.273   5.945  0.8333 -1.3184 -0.5703
  754SOL    HW2 3083   2.211   1.232   5.974  0.0873  2.6927  2.0133
  755SOL     OW 3084   4.474   5.020   6.943  0.2755  0.1025 -0.0010
  755SOL    HW1 3085   4.566   5.051   6.924  0.2948 -0.0425 -0.1557
  755SOL    HW2 3086   4.466   4.923   6.920  0.4877 -0.2556  1.3222
  756SOL     OW 3087   0.303   5.043   1.522 -0.1148 -0.6845  0.0243
  756SOL    HW1 3088   0.382   5.002   1.476 -0.6275  0.1603 -1.6975
  756SOL    HW2 3089   0.233   5.066   1.455 -1.3391 -0.3146  1.3787
  757SOL     OW 3090   2.373   2.093   0.060  0.0970 -0.1991 -0.3214
  757SOL    HW1 3091   2.340   2.186   0.046  1.1193  0.0942 -0.9690
  757SOL    HW2 3092   2.301   2.038   0.102 -0.2317  1.1055  0.9326
  758SOL     OW 3093   6.660   1.027   4.511 -1.1026  0.1417  0.0173
  758SOL    HW1 3094   6.720   1.062   4.439 -1.5486  2.0547  0.5038
  758SOL    HW2 3095   6.650   0.928   4.501  2.7308 -0.4219  0.3961
  759SOL     OW 3096   6.078   4.142   4.170 -0.1610 -0.1104  0.6044
  759SOL    HW1 3097   6.173   4.165   4.191  0.8570 -1.2989 -2.2560
  759SOL    HW2 3098   6.070   4.115   4.075 -3.5509  0.6248  0.5367
  760SOL     OW 3099   2.641   2.021   2.144  0.5412 -0.1131 -0.0489
  760SOL    HW1 3100   2.717   2.084   2.125 -0.3814  1.2982  0.6880
  760SOL    HW2 3101   2.677   1.929   2.160  1.8736  0.0053 -1.9944
  761SOL     OW 3102   1.046   3.385   3.310 -0.3492 -0.1749  0.0129
  761SOL    HW1 3103   1.047   3.395   3.210  1.6637  0.2927  0.0140
  761SOL    HW2 3104   1.016   3.471   3.352  2.7075  1.1254 -0.1970
  762SOL     OW 3105   3.052   1.490   3.220  0.1988 -0.4483 -0.0557
  762SOL    HW1 3106   3.018   1.434   3.144 -0.2636 -1.6156  0.9713
  762SOL    HW2 3107   3.130   1.544   3.189  0.7929 -1.8307 -1.0657
  763SOL     OW 3108   6.753   0.326   0.373 -0.2882 -0.2516 -0.4539
  763SOL    HW1 3109   6.715   0.356   0.286  0.9839 -0.4287 -1.0938
  763SOL    HW2 3110   6.804   0.241   0.360 -0.0127 -0.2381  0.4465
  764SOL     OW 3111   3.723   0.763   6.137 -0.1447 -0.0352  0.2456
  764SOL    HW1 3112   3.820   0.789   6.134  0.0450 -0.6926  0.4018
  764SOL    HW2 3113   3.666   0.844   6.129  0.4278  0.4868  1.2374
  765SOL     OW 3114   5.101   2.729   5.926 -0.2331 -0.5394 -0.0629
  765SOL    HW1 3115   5.050   2.757   6.007  1.3820  0.1193  0.7517
  765SOL    HW2 3116   5.142   2.809   5.882  2.1245 -1.2632  0.7010
  766SOL     OW 3117   0.272   1.463   1.251  0.0459 -1.0475  0.0575
  766SOL    HW1 3118   0.225   1.377   1.233 -1.5680 -0.2545  0.3527
  766SOL    HW2 3119   0.209   1.528   1.294  1.7626 -0.3816  1.7286
  767SOL     OW 3120   1.448   6.308   4.855  0.0499 -0.3323 -0.4053
  767SOL    HW1 3121   1.538   6.269   4.835  0.6073 -1.0047  2.9315
  767SOL    HW2 3122   1.451   6.407   4.838  1.2280 -0.4419 -0.9666
  768SOL     OW 3123   0.886   5.681   6.293  0.7642  0.0216  0.0937
  768SOL    HW1 3124   0.920   5.588   6.288 -0.6054 -0.7430  2.8064
  768SOL    HW2 3125   0.865   5.715   6.201 -0.2917 -2.9617 -0.8630
  769SOL     OW 3126   3.857   0.755   6.907  0.4607  0.0484 -0.5443
  769SOL    HW1 3127   3.863   0.803   6.820  2.5494 -1.2615 -1.2222
  769SOL    HW2 3128   3.916   0.798   6.974  0.5136 -0.1893 -0.4341
  770SOL     OW 3129   0.347   0.936   6.551 -0.5949  0.1217 -0.8268
  770SOL    HW1 3130   0.392   0.879   6.620  0.3710  0.5327 -1.1121
  770SOL    HW2 3131   0.296   0.877   6.489 -1.0626 -0.2927 -0.0726
  771SOL     OW 3132   0.316   6.558   6.516  0.4206 -0.4234 -0.2196
  771SOL    HW1 3133   0.333   6.464   6.547  0.5358 -0.3917 -0.1832
  771SOL    HW2 3134   0.396   6.591   6.466  0.8640  0.0721  0.7922
  772SOL     OW 3135   5.929   6.549   4.760 -0.2801  0.0722  0.4626
  772SOL    HW1 3136   5.840   6.503   4.759  0.4764 -1.4429  1.1566
  772SOL    HW2 3137   5.989   6.507   4.693 -0.3772  1.7380 -0.7018
  773SOL     OW 3138   2.977   6.714   6.385  0.2174 -0.9467 -0.0799
  773SOL    HW1 3139   2.973   6.720   6.485 -2.1197 -0.3570 -0.1380
  773SOL    HW2 3140   2.978   6.617   6.358 -0.1730 -1.1187  0.5057
  774SOL     OW 3141   5.974   6.597   0.735  0.4444  0.0696 -0.1325
  774SOL    HW1 3142   5.949   6.694   0.733  0.9526  0.2233  0.5913
  774SOL    HW2 3143   5.910   6.545   0.679 -1.2214  0.5247  1.2641
  775SOL     OW 3144   0.829   4.455   4.335 -0.2372 -0.3015 -0.4867
  775SOL    HW1 3145   0.747   4.512   4.330 -0.2056 -0.3316 -1.5625
  775SOL    HW2 3146   0.812   4.369   4.286  0.6763  0.0008 -1.3585
  776SOL     OW 3147   4.704   1.307   3.178  0.1804  0.3151 -0.5762
  776SOL    HW1 3148   4.724   1.261   3.092  1.4843  1.1666 -0.7589
  776SOL    HW2 3149   4.786   1.307   3.236 -0.6319 -0.1192  0.6169
  777SOL     OW 3150   0.633   4.223   3.444  0.4238  0.1496  0.5399
  777SOL    HW1 3151   0.650   4.321   3.461  0.7489  0.3381 -0.7291
  777SOL    HW2 3152   0.713   4.170   3.472  0.1975  0.2243  1.3619
  778SOL     OW 3153   5.092   4.045   4.806  0.2900 -0.0447  0.5240
  778SOL    HW1 3154   5.113   3.949   4.788  0.6508  0.0353  0.5220
  778SOL    HW2 3155   5.068   4.090   4.720 -0.0925 -0.1859  0.5528
  779SOL     OW 3156   0.907   5.207   5.426 -0.0529 -0.6656  0.0953
  779SOL    HW1 3157   0.951   5.138   5.369 -0.2412 -0.7809  0.0892
  779SOL    HW2 3158   0.810   5.187   5.435 -0.6835  0.9802 -2.0448
  780SOL     OW 3159   6.123   3.035   6.944  0.4117  0.4059  0.3530
  780SOL    HW1 3160   6.083   2.973   6.877  0.3103  1.8954 -1.0063
  780SOL    HW2 3161   6.165   2.981   7.017  1.2694 -1.3165 -1.2963
  781SOL     OW 3162   1.728   6.662   5.965  0.7276 -0.2328  0.3849
  781SOL    HW1 3163   1.782   6.654   6.049  0.6817  1.1844  0.5781
  781SOL    HW2 3164   1.640   6.617   5.977 -0.8532  3.0413  2.5197
  782SOL     OW 3165   3.709   1.558   0.283  0.3781 -0.4044 -0.1412
  782SOL    HW1 3166   3.756   1.477   0.314  0.4218 -1.0182 -1.6910
  782SOL    HW2 3167   3.772   1.616   0.231  0.1731  0.3029  0.3694
  783SOL     OW 3168   2.799   1.313   4.923 -0.1283  0.4895 -0.3035
  783SOL    HW1 3169   2.751   1.283   4.840 -0.6032  1.2130 -0.3001
  783SOL    HW2 3170   2.869   1.380   4.898  0.8963 -0.5489 -0.3067
  784SOL     OW 3171   2.758   6.907   0.203  0.3991  0.4845  0.1124
  784SOL    HW1 3172   2.801   6.841   0.265  0.5549  2.0801  1.7640
  784SOL    HW2 3173   2.784   6.886   0.108  1.6826 -0.8898  0.7420
  785SOL     OW 3174   6.346   2.867   4.288  0.2553  0.2512  0.1119
  785SOL    HW1 3175   6.386   2.831   4.204  1.1489  0.4810  0.4283
  785SOL    HW2 3176   6.309   2.792   4.343  0.3990  0.0184 -0.1075
  786SOL     OW 3177   6.514   3.451   2.062 -0.4039 -0.2765  0.2092
  786SOL    HW1 3178   6.421   3.433   2.031  0.5033 -0.3442 -2.8861
  786SOL    HW2 3179   6.550   3.530   2.012  1.3075 -0.3934  1.1827
  787SOL     OW 3180   2.605   3.423   3.486  0.2294 -0.1174 -0.7119
  787SOL    HW1 3181   2.558   3.385   3.407  1.4633 -0.6359 -1.1998
  787SOL    HW2 3182   2.640   3.349   3.543 -1.7975  0.1850  1.0822
  788SOL     OW 3183   5.604   2.923   5.103  0.0544  0.2457  0.1493
  788SOL    HW1 3184   5.589   2.835   5.059 -0.4086 -0.1171  1.0118
  788SOL    HW2 3185   5.676   2.973   5.055  1.2260 -1.1343  0.4247
  789SOL     OW 3186   6.110   0.654   3.521 -0.4049 -0.3344  0.0727
  789SOL    HW1 3187   6.189   0.615   3.473 -2.2683 -3.0162 -1.0505
  789SOL    HW2 3188   6.104   0.752   3.501  1.5000 -0.4572 -1.3781
  790SOL     OW 3189   2.655   3.716   1.404 -0.0896  0.6389 -0.4879
  790SOL    HW1 3190   2.586   3.784   1.381 -2.4159 -1.1143  0.8779
  790SOL    HW2 3191   2.688   3.673   1.319 -0.2060  1.9132 -1.2029
  791SOL     OW 3192   5.922   3.053   4.442  0.0278  0.8789  0.1376
  791SOL    HW1 3193   5.981   3.011   4.511  1.6089  1.2046 -0.9465
  791SOL    HW2 3194   5.961   3.140   4.413 -0.5511  0.7106 -1.2241
  792SOL     OW 3195   0.012   5.098   0.756 -0.0498  1.0712 -0.2121
  792SOL    HW1 3196   0.062   5.027   0.706 -0.5645  0.3812  0.2353
  792SOL    HW2 3197   0.077   5.165   0.791  0.7061 -0.3518  1.2247
  793SOL     OW 3198   3.882   3.526   6.002  0.4077  0.5080 -0.3315
  793SOL    HW1 3199   3.796   3.491   5.966  0.3898  0.5902 -0.3679
  793SOL    HW2 3200   3.954   3.515   5.933  0.3680  0.6889 -0.4034
  794SOL     OW 3201   0.405   4.621   2.476 -0.0679 -0.6936 -0.5588
  794SOL    HW1 3202   0.378   4.653   2.567  0.3877 -0.5836 -0.4596
  794SOL    HW2 3203   0.502   4.593   2.478 -0.2777 -1.4773 -0.7984
  795SOL     OW 3204   0.022   6.106   4.273 -0.0621  0.4316  0.0004
  795SOL    HW1 3205   0.023   6.082   4.176 -2.3912  1.0463 -0.2373
  795SOL    HW2 3206  -0.046   6.050   4.321 -1.7762  2.8041  0.4495
  796SOL     OW 3207   6.296   0.138   2.262  0.0640  0.2394 -0.4665
  796SOL    HW1 3208   6.367   0.148   2.332 -1.2078  1.0009  0.7537
  796SOL    HW2 3209   6.301   0.216   2.199  0.4775  0.1433 -0.5617
  797SOL     OW 3210   0.917   0.280   3.752 -0.1649 -0.1159  0.4870
  797SOL    HW1 3211   0.882   0.195   3.791 -1.3856  0.2670  0.2841
  797SOL    HW2 3212   0.841   0.331   3.711  0.6751  0.7099 -0.0745
  798SOL     OW 3213   0.870   2.526   3.205 -0.4767 -0.0138  0.1365
  798SOL    HW1 3214   0.831   2.519   3.113  0.2229 -0.6730 -0.1324
  798SOL    HW2 3215   0.866   2.436   3.249  2.4876 -0.6447 -0.6766
  799SOL     OW 3216   3.642   5.350   0.417 -0.0371  0.2257  0.0855
  799SOL    HW1 3217   3.627   5.418   0.345 -2.3326 -1.9674 -1.7323
  799SOL    HW2 3218   3.737   5.352   0.446  0.6459  2.2208 -1.9878
  800SOL     OW 3219   3.718   5.601   6.745 -0.6567  0.2023  0.1769
  800SOL    HW1 3220   3.786   5.605   6.671 -0.1704 -1.2974  0.4917
  800SOL    HW2 3221   3.626   5.598   6.705 -0.4344  0.1343 -0.3456
  801SOL     OW 3222   5.981   2.479   6.740 -0.8549 -0.0308 -0.2143
  801SOL    HW1 3223   5.912   2.549   6.718 -0.3837  0.9888  1.3321
  801SOL    HW2 3224   5.972   2.455   6.837  0.0885 -0.8918 -0.3370
  802SOL     OW 3225   6.785   5.361   2.153  0.1735 -0.1794  0.5009
  802SOL    HW1 3226   6.833   5.274   2.158  0.9868  0.3029  1.8741
  802SOL    HW2 3227   6.800   5.412   2.238 -1.6697  0.5800  0.4231
  803SOL     OW 3228   2.538   0.662   2.979  0.6664  0.4415  0.5849
  803SOL    HW1 3229   2.546   0.623   2.887 -0.5387 -0.0276  0.6591
  803SOL    HW2 3230   2.594   0.745   2.986 -0.8406  1.6628 -1.2197
  804SOL     OW 3231   4.072   0.130   3.211  0.2809 -0.0777  0.1923
  804SOL    HW1 3232   4.026   0.054   3.165  0.3634  0.4580 -0.8144
  804SOL    HW2 3233   4.148   0.095   3.266  1.2138 -0.6448 -1.3683
  805SOL     OW 3234   4.544   4.555   5.227  0.0854  0.4793 -0.3371
  805SOL    HW1 3235   4.577   4.474   5.178  0.6153  0.8736 -0.6377
  805SOL    HW2 3236   4.450   4.575   5.198  0.3012  0.5547 -1.0012
  806SOL     OW 3237   5.289   4.262   4.551 -0.1533  0.1010 -0.0512
  806SOL    HW1 3238   5.293   4.200   4.472  0.3755  1.5325 -1.2129
  806SOL    HW2 3239   5.376   4.312   4.558 -0.2560  0.1206  1.3589
  807SOL     OW 3240   0.179   0.896   3.648 -0.0767 -0.3162  0.7476
  807SOL    HW1 3241   0.279   0.892   3.654  0.0731 -0.7988 -1.2918
  807SOL    HW2 3242   0.151   0.980   3.601 -0.4754 -1.2142 -0.6880
  808SOL     OW 3243   0.095   5.650   3.212 -0.2484  0.1842  0.2364
  808SOL    HW1 3244   0.021   5.584   3.227 -1.3207  0.9602 -1.3270
  808SOL    HW2 3245   0.173   5.604   3.169  0.7057 -0.8795  2.8800
  809SOL     OW 3246   1.281   6.576   1.383  1.1327 -0.3639 -0.5319
  809SOL    HW1 3247   1.372   6.537   1.371  0.8006 -1.1778 -0.6209
  809SOL    HW2 3248   1.232   6.523   1.452  0.0254 -1.2411 -1.9476
  810SOL     OW 3249   2.492   2.478   2.361 -0.3775 -0.3843 -0.2719
  810SOL    HW1 3250   2.493   2.560   2.304 -1.4264 -1.3491 -1.7529
  810SOL    HW2 3251   2.398   2.455   2.386 -0.0760 -1.0080  0.3261
  811SOL     OW 3252   2.162   1.864   5.328  0.6557  0.4055  0.4035
  811SOL    HW1 3253   2.180   1.833   5.234 -2.5551  1.7477 -0.7887
  811SOL    HW2 3254   2.103   1.798   5.374 -0.6648  1.4274  0.2118
  812SOL     OW 3255   2.682   1.198   6.723 -0.0460  0.2383  0.4574
  812SOL    HW1 3256   2.753   1.152   6.775  0.2444  0.4538  0.2564
  812SOL    HW2 3257   2.724   1.254   6.651 -0.4900 -0.9636 -0.7757
  813SOL     OW 3258   0.754   2.676   3.449 -0.0139  0.8750 -0.5267
  813SOL    HW1 3259   0.775   2.635   3.360 -0.2183 -0.7957  0.1535
  813SOL    HW2 3260   0.796   2.621   3.522 -0.1064  2.0344  0.4373
  814SOL     OW 3261   4.588   3.646   1.509  0.4915  0.0806  0.1360
  814SOL    HW1 3262   4.495   3.612   1.525  0.4187  0.0982 -0.2341
  814SOL    HW2 3263   4.647   3.618   1.585  0.6785 -1.8139 -0.6523
  815SOL     OW 3264   6.946   6.311   6.056 -0.0983  0.2355 -0.3572
  815SOL    HW1 3265   7.035   6.267   6.041 -0.0658  0.3316 -0.3028
  815SOL    HW2 3266   6.951   6.406   6.025  0.9107  1.3352  2.7957
  816SOL     OW 3267   6.002   5.972   4.033 -0.4969  0.1498  0.0725
  816SOL    HW1 3268   6.037   5.878   4.031  0.9809  0.6591  0.0753
  816SOL    HW2 3269   5.909   5.973   4.070 -1.0881 -1.4407 -1.2812
  817SOL     OW 3270   0.828   2.226   4.647 -0.6936  0.5912 -0.0176
  817SOL    HW1 3271   0.808   2.128   4.642 -1.5425  0.7418  0.2819
  817SOL    HW2 3272   0.793   2.271   4.565  2.4224  0.2279 -1.7217
  818SOL     OW 3273   1.079   6.344   2.171 -0.3464  0.1830 -0.0923
  818SOL    HW1 3274   1.092   6.443   2.180  0.7270  0.0983 -0.5400
  818SOL    HW2 3275   0.981   6.323   2.168 -0.7456  0.9110  3.4361
  819SOL     OW 3276   2.540   3.072   3.372  0.4193 -0.2854  0.1938
  819SOL    HW1 3277   2.447   3.076   3.409  0.1950 -2.8351  0.0736
  819SOL    HW2 3278   2.542   3.114   3.282 -0.6049 -0.1459  0.2266
  820SOL     OW 3279   1.736   2.672   0.859  0.1481  0.0463  0.3850
  820SOL    HW1 3280   1.833   2.677   0.833 -0.2391 -0.5431 -1.3032
  820SOL    HW2 3281   1.728   2.623   0.946  1.4781  1.7485  1.5264
  821SOL     OW 3282   2.276   5.576   4.751 -0.1779  0.4923  0.0227
  821SOL    HW1 3283   2.187   5.614   4.775  0.4536  2.6327 -0.7691
  821SOL    HW2 3284   2.340   5.588   4.827  0.9845  4.5001 -1.3003
  822SOL     OW 3285   4.273   5.903   0.148 -0.1793 -0.4302  0.1419
  822SOL    HW1 3286   4.331   5.824   0.128  1.2627  0.5075  0.4914
  822SOL    HW2 3287   4.266   5.915   0.247 -2.2242 -1.3992  0.1603
  823SOL     OW 3288   5.520   2.107   4.745  0.0381 -0.3568 -0.0294
  823SOL    HW1 3289   5.493   2.124   4.840  3.7660 -0.9943  1.3265
  823SOL    HW2 3290   5.538   2.194   4.699  0.0324 -0.0909  0.4675
  824SOL     OW 3291   0.108   0.734   0.891 -0.1491 -0.3886  0.8794
  824SOL    HW1 3292   0.065   0.794   0.958  0.8706  0.9338  0.4089
  824SOL    HW2 3293   0.208   0.744   0.897 -0.0479  0.1966 -1.1865
  825SOL     OW 3294   4.455   4.930   2.636 -0.0582 -0.1028  0.1050
  825SOL    HW1 3295   4.456   4.842   2.588 -1.0176  0.1811 -0.4546
  825SOL    HW2 3296   4.544   4.944   2.681  1.1314 -0.0971 -2.0943
  826SOL     OW 3297   1.243   4.100   6.607  0.3248  0.1503 -0.6010
  826SOL    HW1 3298   1.239   4.162   6.686 -1.0918 -0.3391 -0.2412
  826SOL    HW2 3299   1.166   4.119   6.547 -0.3538 -1.4828 -0.2915
  827SOL     OW 3300   0.809   1.467   2.793 -0.8358  0.3467 -0.3982
  827SOL    HW1 3301   0.780   1.538   2.857 -0.9571  0.2528 -0.3491
  827SOL    HW2 3302   0.740   1.395   2.789  0.3604 -0.9654  1.3569
  828SOL     OW 3303   1.567   1.693   2.602  0.0606 -0.3339  0.5349
  828SOL    HW1 3304   1.601   1.756   2.532 -0.4969 -0.1227  0.4476
  828SOL    HW2 3305   1.571   1.737   2.691 -1.3040  0.2315  0.3425
  829SOL     OW 3306   0.446   0.444   5.327  0.2312  0.0580  0.0059
  829SOL    HW1 3307   0.444   0.542   5.306 -1.1592 -0.0849 -0.6616
  829SOL    HW2 3308   0.387   0.425   5.406 -0.2762 -0.3604 -0.4643
  830SOL     OW 3309   1.007   5.598   3.364  0.2684  0.0406  0.1530
  830SOL    HW1 3310   1.034   5.597   3.268 -0.3940  1.0293 -0.0551
  830SOL    HW2 3311   1.024   5.508   3.405 -0.3177 -0.6638 -1.1180
  831SOL     OW 3312   0.442   2.318   0.751 -0.5217 -0.0438 -0.5801
  831SOL    HW1 3313   0.533   2.353   0.730 -0.0037 -1.0581 -0.1057
  831SOL    HW2 3314   0.435   2.301   0.849 -0.8714 -0.9163 -0.7410
  832SOL     OW 3315   1.638   0.861   5.715 -0.6435 -0.3645 -0.3990
  832SOL    HW1 3316   1.638   0.761   5.712  1.2369 -0.3816 -1.2979
  832SOL    HW2 3317   1.731   0.895   5.702 -1.2687  1.5284 -0.2981
  833SOL     OW 3318   4.428   0.733   1.414 -0.3211 -0.3176 -0.4139
  833SOL    HW1 3319   4.369   0.653   1.409  0.0938 -0.6087 -0.8511
  833SOL    HW2 3320   4.510   0.717   1.359 -0.4368  0.5752 -0.8772
  834SOL     OW 3321   6.983   4.977   6.379  0.1453  0.5272 -0.5314
  834SOL    HW1 3322   6.884   4.975   6.391 -0.2425  1.5244 -2.8899
  834SOL    HW2 3323   7.006   4.944   6.287  1.9828  0.6574 -0.1691
  835SOL     OW 3324   1.983   1.477   4.338 -0.2728  0.3707 -0.2655
  835SOL    HW1 3325   1.969   1.569   4.303 -0.1701 -0.0731 -1.5060
  835SOL    HW2 3326   1.894   1.432   4.350 -0.3167  0.5835  0.2140
  836SOL     OW 3327   3.990   3.240   6.651 -0.5020  0.2229 -0.8927
  836SOL    HW1 3328   3.957   3.243   6.745  1.4030  2.9576 -0.1856
  836SOL    HW2 3329   3.914   3.217   6.590 -1.9564 -0.9051  1.1877
  837SOL     OW 3330   6.763   3.601   5.553 -0.3054 -0.6140 -0.2383
  837SOL    HW1 3331   6.683   3.575   5.498 -1.1377 -0.8179  1.0244
  837SOL    HW2 3332   6.743   3.588   5.650  1.6666 -1.7824  0.0771
  838SOL     OW 3333   5.151   6.009   1.290  0.6037  0.0627 -0.0740
  838SOL    HW1 3334   5.239   6.053   1.271  0.5332 -0.2338 -1.1426
  838SOL    HW2 3335   5.095   6.071   1.345  1.5431  0.1758  0.7879
  839SOL     OW 3336   0.502   1.885   1.812 -0.1085  0.0887  0.2731
  839SOL    HW1 3337   0.589   1.926   1.786 -0.6075  1.4251  0.6198
  839SOL    HW2 3338   0.433   1.906   1.742  0.2640 -2.6651 -1.0441
  840SOL     OW 3339   0.585   4.802   6.453 -0.1587  0.2876 -0.2595
  840SOL    HW1 3340   0.518   4.795   6.380 -2.0968  2.6299  1.1177
  840SOL    HW2 3341   0.650   4.876   6.432 -0.1077  0.2986 -0.0733
  841SOL     OW 3342   2.468   1.261   0.991  0.7210  0.5196 -0.1906
  841SOL    HW1 3343   2.432   1.236   0.901  0.1216  0.1511  0.1410
  841SOL    HW2 3344   2.556   1.215   1.005  0.0944 -0.6406  0.0169
  842SOL     OW 3345   4.147   1.149   4.455  0.0792 -0.1562 -0.1720
  842SOL    HW1 3346   4.074   1.084   4.431 -0.2628  1.0661 -2.9030
  842SOL    HW2 3347   4.234   1.111   4.425  0.5922 -1.3280  2.5086
  843SOL     OW 3348   1.940   5.135   6.833 -0.1681  0.3173  0.0929
  843SOL    HW1 3349   1.864   5.084   6.792  1.1467 -0.7833 -1.0881
  843SOL    HW2 3350   1.904   5.217   6.877 -1.8827  0.6462 -1.7221
  844SOL     OW 3351   0.875   6.425   3.604  0.0262  0.0840 -0.0027
  844SOL    HW1 3352   0.818   6.460   3.530  0.2717  1.4069  0.3985
  844SOL    HW2 3353   0.953   6.375   3.566 -0.8164 -0.8134 -0.5789
  845SOL     OW 3354   6.845   2.326   6.457 -0.3196 -0.3155 -0.2057
  845SOL    HW1 3355   6.794   2.392   6.403  1.6295  0.6496 -0.9681
  845SOL    HW2 3356   6.932   2.366   6.486  0.2237 -2.0109  0.6829
  846SOL     OW 3357   5.689   2.449   6.526  0.2141 -0.4386 -0.1758
  846SOL    HW1 3358   5.649   2.538   6.506  0.2875 -0.6968 -1.6677
  846SOL    HW2 3359   5.722   2.408   6.441  1.1836 -1.4150  0.6392
  847SOL     OW 3360   1.217   0.693   3.578  0.4936  0.1480 -0.2647
  847SOL    HW1 3361   1.156   0.761   3.537 -0.8019 -0.5423  0.4566
  847SOL    HW2 3362   1.197   0.685   3.676  1.6446 -0.2137 -0.0492
  848SOL     OW 3363   1.808   4.071   5.258 -0.0894  0.4682  0.1155
  848SOL    HW1 3364   1.850   3.991   5.301 -1.9550 -1.1568 -0.9339
  848SOL    HW2 3365   1.877   4.143   5.247  1.2681 -0.3696  2.5005
  849SOL     OW 3366   5.291   5.779   6.857 -0.1141  0.8340 -0.3728
  849SOL    HW1 3367   5.221   5.815   6.794 -0.8841  1.4842  0.8215
  849SOL    HW2 3368   5.375   5.830   6.847 -0.1861  0.8544 -0.9494
  850SOL     OW 3369   1.388   3.528   5.432  0.9165  0.0652 -0.1493
  850SOL    HW1 3370   1.377   3.574   5.344 -2.5757 -3.7384 -2.0430
  850SOL    HW2 3371   1.316   3.558   5.495  0.4109 -0.7064 -0.3542
  851SOL     OW 3372   1.344   0.323   3.315 -0.3937 -0.1726  0.1634
  851SOL    HW1 3373   1.407   0.379   3.368  0.4585 -1.1374  0.2036
  851SOL    HW2 3374   1.368   0.328   3.218 -0.3507 -0.4199  0.1607
  852SOL     OW 3375   6.734   0.253   6.651 -0.2846  0.1310  0.0526
  852SOL    HW1 3376   6.659   0.205   6.697 -2.1988  1.6337 -1.3513
  852SOL    HW2 3377   6.742   0.345   6.689  0.4692  0.1965 -0.2474
  853SOL     OW 3378   2.188   5.854   5.461  0.3809  0.0480 -0.0161
  853SOL    HW1 3379   2.099   5.878   5.420 -0.0931 -1.0956  0.3005
  853SOL    HW2 3380   2.177   5.843   5.560  1.4130  2.3141  0.4184
  854SOL     OW 3381   5.735   4.605   0.216 -0.4883  0.3776 -0.0987
  854SOL    HW1 3382   5.652   4.556   0.243  0.0650 -0.7711 -0.4075
  854SOL    HW2 3383   5.750   4.682   0.278  0.8812 -2.2445  3.1981
  855SOL     OW 3384   6.795   1.250   4.859 -0.4294  0.3155 -0.7090
  855SOL    HW1 3385   6.801   1.156   4.826  1.9978  0.0734  0.2094
  855SOL    HW2 3386   6.762   1.250   4.954  0.9266  0.2340 -0.2206
  856SOL     OW 3387   5.613   4.455   4.763 -0.1456  0.2513 -0.0116
  856SOL    HW1 3388   5.683   4.458   4.834 -0.1446 -0.3359  0.0224
  856SOL    HW2 3389   5.524   4.436   4.804 -0.2888  0.7646 -0.0796
  857SOL     OW 3390   1.110   4.282   3.664 -0.2271  0.3224 -0.6521
  857SOL    HW1 3391   1.068   4.301   3.753 -1.9496 -2.6715 -0.7256
  857SOL    HW2 3392   1.068   4.341   3.595 -0.5875  1.0014  0.1131
  858SOL     OW 3393   3.013   2.383   5.104  0.4546  0.0746  0.7585
  858SOL    HW1 3394   2.919   2.402   5.076  0.1371  0.8470  2.2415
  858SOL    HW2 3395   3.046   2.455   5.166  1.9144 -0.3442  0.5212
  859SOL     OW 3396   0.085   4.595   6.540 -0.3421 -0.4453  0.4306
  859SOL    HW1 3397   0.145   4.659   6.586 -0.9855 -0.7256  1.7141
  859SOL    HW2 3398  -0.010   4.610   6.569 -0.6790 -1.1207 -0.2327
  860SOL     OW 3399   4.101   3.548   3.039  0.3073  0.5420  0.2426
  860SOL    HW1 3400   4.143   3.571   2.951  0.9723 -0.1609  0.3695
  860SOL    HW2 3401   4.170   3.553   3.111 -0.6146  2.9421  1.0630
  861SOL     OW 3402   1.236   4.393   2.069 -0.3827  0.0756 -0.0449
  861SOL    HW1 3403   1.250   4.438   2.157  0.5880 -0.7407  0.2280
  861SOL    HW2 3404   1.147   4.350   2.067 -0.6774  0.6582  0.2857
  862SOL     OW 3405   3.336   0.398   5.599  0.6302  1.1174  0.3555
  862SOL    HW1 3406   3.403   0.469   5.618  1.4376  0.9262 -1.5471
  862SOL    HW2 3407   3.383   0.312   5.578 -0.2267  0.7395 -0.1002
  863SOL     OW 3408   3.208   1.588   0.383 -1.0684 -0.3067 -0.1059
  863SOL    HW1 3409   3.174   1.524   0.314 -0.8066 -2.8934  1.9978
  863SOL    HW2 3410   3.189   1.552   0.474  2.2765  0.8259  1.1991
  864SOL     OW 3411   0.197   0.619   1.485 -0.2889 -0.1524 -0.5765
  864SOL    HW1 3412   0.104   0.593   1.456 -0.7121  0.8577 -0.1871
  864SOL    HW2 3413   0.243   0.540   1.524 -0.1837 -1.2433 -2.7253
  865SOL     OW 3414   4.618   2.399   6.970 -0.1718  0.3570 -0.2828
  865SOL    HW1 3415   4.630   2.495   6.943 -0.9391  0.8534  1.0001
  865SOL    HW2 3416   4.699   2.368   7.019 -0.3463  0.6680  0.2045
  866SOL     OW 3417   2.657   6.011   3.765  0.7284  0.0632  0.6572
  866SOL    HW1 3418   2.578   5.965   3.805  0.0412  2.0026  1.6976
  866SOL    HW2 3419   2.732   6.012   3.832  1.1755 -0.5576  0.1854
  867SOL     OW 3420   4.165   1.962   2.559  0.2068 -0.1967  0.4360
  867SOL    HW1 3421   4.153   2.061   2.559  0.2231 -0.1938  0.6717
  867SOL    HW2 3422   4.187   1.931   2.651  0.0043 -0.4410  0.4041
  868SOL     OW 3423   5.930   6.279   3.438 -0.7069  0.2300 -0.1885
  868SOL    HW1 3424   5.968   6.191   3.409 -1.3416 -0.9240  2.2364
  868SOL    HW2 3425   5.853   6.302   3.379 -0.3033 -0.6383 -1.1037
  869SOL     OW 3426   6.370   5.566   5.135  0.2217  0.3619 -0.7189
  869SOL    HW1 3427   6.340   5.662   5.127 -0.2111  0.2963  0.0821
  869SOL    HW2 3428   6.468   5.563   5.153  0.4137  0.6217 -1.6261
  870SOL     OW 3429   5.201   6.016   2.057 -0.2682 -0.3214 -0.4194
  870SOL    HW1 3430   5.117   6.003   2.005 -0.0798 -0.9820 -0.5585
  870SOL    HW2 3431   5.232   6.111   2.046  0.3423 -0.6912 -2.3778
  871SOL     OW 3432   1.955   3.134   6.855 -0.1644  0.1983  0.7985
  871SOL    HW1 3433   1.977   3.037   6.841 -0.2833  0.0361  1.6631
  871SOL    HW2 3434   2.032   3.180   6.899  0.6547  0.9611 -1.3010
  872SOL     OW 3435   2.333   4.647   1.098 -0.6906 -0.0718 -0.1523
  872SOL    HW1 3436   2.239   4.676   1.116  0.0274  1.6933  1.0659
  872SOL    HW2 3437   2.364   4.686   1.011  0.0107  2.4575  1.1104
  873SOL     OW 3438   2.322   1.916   6.345 -0.0269 -0.1792  0.5645
  873SOL    HW1 3439   2.332   1.918   6.444  0.2902 -0.1866  0.5363
  873SOL    HW2 3440   2.345   1.824   6.311 -1.3321 -0.5434  0.6063
  874SOL     OW 3441   1.953   5.698   2.966  0.6140 -0.0973 -0.1426
  874SOL    HW1 3442   2.027   5.760   2.994 -1.0499  1.2871  1.4091
  874SOL    HW2 3443   1.980   5.651   2.882  2.6708  1.4044 -0.4108
  875SOL     OW 3444   3.034   3.961   6.758 -0.7576  0.2392  0.3590
  875SOL    HW1 3445   2.999   3.969   6.665  1.0060  0.3374 -0.3286
  875SOL    HW2 3446   2.964   3.991   6.822 -0.5135  4.6607 -1.1520
  876SOL     OW 3447   0.785   2.295   2.111  0.2112 -0.6361 -0.1889
  876SOL    HW1 3448   0.802   2.267   2.017 -0.4520  0.0280 -0.5170
  876SOL    HW2 3449   0.870   2.291   2.163  0.5162 -1.3097 -0.7375
  877SOL     OW 3450   0.042   4.837   6.791 -0.0140 -0.7487 -0.5114
  877SOL    HW1 3451   0.043   4.746   6.832  1.0553 -0.1642  0.8133
  877SOL    HW2 3452  -0.041   4.847   6.736 -0.8483 -1.9945  0.5029
  878SOL     OW 3453   1.323   1.483   2.645 -0.0611 -0.2486  0.0084
  878SOL    HW1 3454   1.266   1.538   2.584  0.2027  3.5145  2.7377
  878SOL    HW2 3455   1.266   1.422   2.700 -0.7794 -0.4910 -0.9879
  879SOL     OW 3456   4.228   6.650   4.108  0.4474  0.1487 -0.0476
  879SOL    HW1 3457   4.148   6.710   4.112 -0.0046 -0.3449 -1.1132
  879SOL    HW2 3458   4.226   6.598   4.022  1.3564 -0.6588  0.4017
  880SOL     OW 3459   6.054   5.368   4.568 -0.3796 -0.0334  0.3420
  880SOL    HW1 3460   6.061   5.329   4.476 -2.5960  0.1698  0.0331
  880SOL    HW2 3461   6.066   5.467   4.564  0.6494 -0.1459  0.4522
  881SOL     OW 3462   6.284   6.567   4.721  0.3007 -0.3334 -0.3796
  881SOL    HW1 3463   6.222   6.497   4.685 -1.4754  0.0313  1.7224
  881SOL    HW2 3464   6.283   6.647   4.661  2.4282 -1.9832 -2.8780
  882SOL     OW 3465   5.368   4.259   2.734 -0.1817  0.2675 -1.1811
  882SOL    HW1 3466   5.438   4.313   2.687 -1.5082  1.4075 -1.9339
  882SOL    HW2 3467   5.380   4.267   2.833 -0.5445  2.2813 -1.2587
  883SOL     OW 3468   3.452   6.338   2.283 -0.3719 -0.5082  0.1269
  883SOL    HW1 3469   3.510   6.269   2.240 -0.9067 -0.1928 -1.1305
  883SOL    HW2 3470   3.463   6.333   2.382 -0.4812 -2.4905  0.0853
  884SOL     OW 3471   1.009   2.059   6.003 -0.2736  0.2133  0.0318
  884SOL    HW1 3472   1.068   2.123   6.053  0.7998 -1.0641  0.4363
  884SOL    HW2 3473   1.002   2.089   5.907  0.9011  0.4841  0.0095
  885SOL     OW 3474   6.241   3.061   5.983  0.2763  0.7213  0.2956
  885SOL    HW1 3475   6.256   3.153   6.019  0.7408  0.4393  0.8390
  885SOL    HW2 3476   6.204   3.003   6.056  0.4500  0.3466  0.0890
  886SOL     OW 3477   1.478   5.671   6.616 -0.4136 -0.1796  0.3400
  886SOL    HW1 3478   1.564   5.670   6.564 -0.4042 -0.1675  0.3540
  886SOL    HW2 3479   1.456   5.765   6.642 -0.1058 -0.2450  0.8669
  887SOL     OW 3480   3.000   2.923   5.486 -0.7539 -0.3051  0.0182
  887SOL    HW1 3481   2.974   3.019   5.494  0.6131  0.2316 -1.2986
  887SOL    HW2 3482   3.037   2.891   5.573 -0.0525  0.7341  0.1128
  888SOL     OW 3483   1.948   0.651   6.080 -0.2239 -0.6388 -0.0046
  888SOL    HW1 3484   1.883   0.724   6.099 -0.0742 -0.5592  0.2221
  888SOL    HW2 3485   2.014   0.682   6.011  1.9516  0.7562  2.4990
  889SOL     OW 3486   3.807   0.753   4.864 -0.1440 -0.1825  0.2440
  889SOL    HW1 3487   3.785   0.710   4.952 -1.6325  0.7067  0.3466
  889SOL    HW2 3488   3.725   0.796   4.828  1.0702  1.7576 -0.3042
  890SOL     OW 3489   4.577   6.166   0.295 -0.6618 -0.1529 -0.2709
  890SOL    HW1 3490   4.573   6.266   0.292 -1.4490 -0.0378  2.1159
  890SOL    HW2 3491   4.493   6.131   0.338  1.3142 -1.4650  2.9453
  891SOL     OW 3492   6.580   4.702   1.786  0.0334  0.7613 -0.4465
  891SOL    HW1 3493   6.661   4.683   1.841 -0.5599 -1.5863 -0.2778
  891SOL    HW2 3494   6.500   4.658   1.827 -0.6299 -0.1929 -2.6279
  892SOL     OW 3495   6.871   1.559   2.471  0.7863  0.1289  0.5618
  892SOL    HW1 3496   6.934   1.557   2.393  1.0658  1.4466  0.7264
  892SOL    HW2 3497   6.867   1.652   2.507  1.3304 -0.6137  2.6625
  893SOL     OW 3498   1.355   1.350   0.381  0.0447 -0.2994  0.1879
  893SOL    HW1 3499   1.395   1.258   0.382  2.2278  0.5624 -0.3659
  893SOL    HW2 3500   1.409   1.410   0.441 -1.4025  0.6278  0.6303
  894SOL     OW 3501   0.025   5.526   3.537  0.3066  0.4115 -0.0641
  894SOL    HW1 3502   0.051   5.531   3.634  1.4246  0.1692 -0.3329
  894SOL    HW2 3503  -0.028   5.607   3.513 -1.5631 -0.4011  1.1901
  895SOL     OW 3504   2.758   6.361   5.847 -0.4693  0.1250  0.2048
  895SOL    HW1 3505   2.659   6.361   5.858 -0.5935  0.7997 -0.7600
  895SOL    HW2 3506   2.782   6.317   5.761  0.0945 -0.2929  0.5653
  896SOL     OW 3507   0.693   1.052   6.719  0.1748 -0.0158  0.0831
  896SOL    HW1 3508   0.777   1.103   6.699  1.0795 -1.6770 -0.5203
  896SOL    HW2 3509   0.693   1.025   6.816  0.3874 -0.1075  0.0586
  897SOL     OW 3510   0.362   6.378   4.217 -0.6273  0.3101  0.3121
  897SOL    HW1 3511   0.430   6.398   4.146 -1.0134  1.1203  0.1487
  897SOL    HW2 3512   0.277   6.348   4.174  0.1405 -2.5865  0.5613
  898SOL     OW 3513   2.873   0.658   0.129  0.4617  1.0136 -0.2450
  898SOL    HW1 3514   2.936   0.637   0.055 -0.5964  1.9072 -1.4538
  898SOL    HW2 3515   2.784   0.614   0.112  0.8085 -0.5366  1.6069
  899SOL     OW 3516   6.038   1.078   4.507  0.4191 -0.2254 -0.1292
  899SOL    HW1 3517   5.947   1.109   4.534  0.4705  0.3936 -0.6555
  899SOL    HW2 3518   6.106   1.145   4.534  0.5289  0.1666 -1.3093
  900SOL     OW 3519   6.987   1.656   4.206 -0.1532 -0.6317  0.5709
  900SOL    HW1 3520   6.964   1.754   4.203 -0.9849 -0.7821 -3.5898
  900SOL    HW2 3521   6.913   1.604   4.163  1.2112 -2.8635  0.8318
  901SOL     OW 3522   6.170   6.955   0.091 -0.3130  0.0859 -0.0840
  901SOL    HW1 3523   6.125   7.043   0.078 -0.2040  0.1329  0.0113
  901SOL    HW2 3524   6.267   6.969   0.110  0.0728 -0.1387 -1.7665
  902SOL     OW 3525   3.547   6.579   5.648 -0.1799  0.0771  0.2213
  902SOL    HW1 3526   3.584   6.617   5.733  0.4149 -0.0874  0.0437
  902SOL    HW2 3527   3.593   6.621   5.570 -0.6132  0.1119 -0.0166
  903SOL     OW 3528   4.034   0.284   2.486  0.3324  0.3689 -0.1624
  903SOL    HW1 3529   4.128   0.296   2.515  0.8671 -3.0469 -0.0756
  903SOL    HW2 3530   4.010   0.354   2.418  1.8642  3.1282  1.9260
  904SOL     OW 3531   5.725   2.907   4.564 -0.7260 -0.0964  0.2315
  904SOL    HW1 3532   5.798   2.910   4.632 -0.7842  1.7060  0.2695
  904SOL    HW2 3533   5.746   2.971   4.490 -1.0040 -1.5122 -1.1140
  905SOL     OW 3534   5.474   5.773   6.201  0.2176  0.8147 -0.0203
  905SOL    HW1 3535   5.563   5.727   6.206 -0.0190  0.4259  0.8757
  905SOL    HW2 3536   5.425   5.761   6.288 -0.2349  1.9972 -0.0926
  906SOL     OW 3537   5.811   5.801   3.441  0.6115 -0.2978 -0.0397
  906SOL    HW1 3538   5.845   5.751   3.521  0.4599  0.8485  0.7635
  906SOL    HW2 3539   5.830   5.899   3.452  0.7498 -0.1347 -1.4969
  907SOL     OW 3540   6.365   6.711   1.079 -0.6753 -0.3229  0.0654
  907SOL    HW1 3541   6.323   6.785   1.027 -0.4962  1.9008  2.9188
  907SOL    HW2 3542   6.457   6.693   1.044  0.3010  2.6187  0.8777
  908SOL     OW 3543   1.362   2.417   2.272 -0.1652  0.0561  0.8961
  908SOL    HW1 3544   1.334   2.323   2.253  0.8963 -0.1463  0.2394
  908SOL    HW2 3545   1.399   2.423   2.365  0.5632 -0.3821  0.6483
  909SOL     OW 3546   4.402   1.866   1.671 -0.2229  0.1471 -0.4698
  909SOL    HW1 3547   4.414   1.780   1.722  1.6363  0.3617 -0.4855
  909SOL    HW2 3548   4.316   1.909   1.699  0.1145 -0.3836  1.5724
  910SOL     OW 3549   2.932   2.450   6.399  0.2698  0.2633  0.4313
  910SOL    HW1 3550   2.858   2.512   6.424 -1.1061 -1.1980  0.1733
  910SOL    HW2 3551   3.017   2.478   6.445 -0.8676  0.9175  2.2367
  911SOL     OW 3552   0.787   5.902   5.712 -0.0754 -0.3018  0.0871
  911SOL    HW1 3553   0.856   5.973   5.696  0.3050 -0.7527 -0.3033
  911SOL    HW2 3554   0.832   5.820   5.749 -0.0970 -1.2169 -1.7559
  912SOL     OW 3555   2.247   4.959   5.804  0.0509 -0.3065 -0.2043
  912SOL    HW1 3556   2.310   5.029   5.771 -2.3868  2.4049  0.4792
  912SOL    HW2 3557   2.248   4.958   5.904 -0.5806 -0.6077 -0.1947
  913SOL     OW 3558   3.061   1.315   2.482  0.5340 -0.5072  0.3229
  913SOL    HW1 3559   3.033   1.227   2.520 -0.7521  0.3245  1.4025
  913SOL    HW2 3560   3.064   1.309   2.382 -1.6334 -1.2268  0.2549
  914SOL     OW 3561   5.187   0.027   4.612  0.1507 -0.1672 -0.5190
  914SOL    HW1 3562   5.210   0.026   4.709 -2.5642 -1.7037  0.1972
  914SOL    HW2 3563   5.212  -0.061   4.571 -0.2765 -0.1401 -0.7891
  915SOL     OW 3564   2.583   5.669   5.971  0.1048 -0.0381 -0.1022
  915SOL    HW1 3565   2.527   5.698   6.049 -0.5636  0.3975 -0.7302
  915SOL    HW2 3566   2.575   5.736   5.897  2.8465  1.0000  0.4066
  916SOL     OW 3567   0.068   5.955   1.102  0.0458  0.0486  0.1056
  916SOL    HW1 3568  -0.019   5.932   1.146  0.2710  2.2277  1.7807
  916SOL    HW2 3569   0.056   6.038   1.047  1.2266  0.8540  1.0295
  917SOL     OW 3570   1.980   5.782   4.259 -0.8530  0.3174  0.0396
  917SOL    HW1 3571   1.987   5.852   4.330  1.0608 -0.3393  0.5576
  917SOL    HW2 3572   1.983   5.825   4.169 -0.4825  0.9706  0.3562
  918SOL     OW 3573   5.243   5.033   5.810 -0.3641  0.2650  0.6227
  918SOL    HW1 3574   5.298   5.091   5.870 -0.0213  0.5883  0.0035
  918SOL    HW2 3575   5.298   5.004   5.731 -0.6748 -0.5140  0.6815
  919SOL     OW 3576   1.568   6.430   5.403  0.0810 -0.3606 -0.4296
  919SOL    HW1 3577   1.554   6.335   5.433  1.0762 -0.5019 -0.3650
  919SOL    HW2 3578   1.565   6.491   5.482 -0.2673 -0.3776 -0.4310
  920SOL     OW 3579   6.083   6.384   3.651  0.1467  0.2359 -0.2414
  920SOL    HW1 3580   6.057   6.352   3.742 -0.2974  0.3706 -0.3182
  920SOL    HW2 3581   6.049   6.320   3.582  1.3636 -0.4235 -0.2693
  921SOL     OW 3582   5.435   3.021   2.739  0.3169 -0.1824 -0.7311
  921SOL    HW1 3583   5.488   2.936   2.743 -0.5277 -0.6910  0.5801
  921SOL    HW2 3584   5.458   3.071   2.656  2.0559 -0.8883 -0.7127
  922SOL     OW 3585   0.589   6.052   2.230  0.1709 -0.5084 -0.1444
  922SOL    HW1 3586   0.498   6.075   2.265  0.9286  2.9482 -0.0459
  922SOL    HW2 3587   0.580   6.015   2.138 -1.3633 -0.2300 -0.1513
  923SOL     OW 3588   4.164   5.980   3.024  0.1603  0.5897  0.4298
  923SOL    HW1 3589   4.172   6.055   2.958 -0.3934  0.7485  0.5350
  923SOL    HW2 3590   4.248   5.972   3.077  0.7617  0.2030 -0.5673
  924SOL     OW 3591   3.155   0.294   6.602  0.4031 -0.0678 -0.0349
  924SOL    HW1 3592   3.181   0.259   6.692 -1.0996 -0.0085  0.4650
  924SOL    HW2 3593   3.105   0.223   6.552  1.2617 -0.1132 -0.8502
  925SOL     OW 3594   3.511   5.098   1.576 -0.1162 -0.1226  0.6231
  925SOL    HW1 3595   3.513   5.022   1.510 -1.9935 -0.4184  0.8547
  925SOL    HW2 3596   3.447   5.168   1.545  0.5678  0.7388  1.1085
  926SOL     OW 3597   5.232   5.435   4.644 -0.2887 -0.6160 -0.3853
  926SOL    HW1 3598   5.255   5.532   4.641  1.2422 -0.9011  0.6545
  926SOL    HW2 3599   5.185   5.415   4.730 -1.0900 -0.7360 -0.8304
  927SOL     OW 3600   3.657   3.689   5.499 -0.1006  0.1007 -0.1903
  927SOL    HW1 3601   3.709   3.627   5.557  1.4086  1.0935 -0.4303
  927SOL    HW2 3602   3.603   3.751   5.556  0.6120  0.4240  0.1560
  928SOL     OW 3603   6.217   6.170   4.078  0.1626  0.1688 -0.5193
  928SOL    HW1 3604   6.240   6.144   4.171  0.7572  1.5060 -0.2817
  928SOL    HW2 3605   6.122   6.144   4.059 -0.0997  0.2711  0.5919
  929SOL     OW 3606   4.201   3.933   4.936 -0.3689  0.2749 -0.4998
  929SOL    HW1 3607   4.114   3.886   4.918  0.0140  0.7708 -4.7055
  929SOL    HW2 3608   4.275   3.866   4.935 -0.3674  0.2740 -0.9150
  930SOL     OW 3609   5.351   6.871   6.598  0.2695 -0.3882  0.5689
  930SOL    HW1 3610   5.292   6.798   6.630  0.4683 -1.7671 -1.8945
  930SOL    HW2 3611   5.297   6.937   6.545  0.6311 -0.7621 -0.2931
  931SOL     OW 3612   5.620   1.357   4.161 -0.8301  0.4887  0.2669
  931SOL    HW1 3613   5.525   1.358   4.193 -0.6662 -1.7539  0.9941
  931SOL    HW2 3614   5.666   1.275   4.196  1.0568  0.9389 -1.0160
  932SOL     OW 3615   3.905   0.984   4.475  0.1859  0.1981  0.4374
  932SOL    HW1 3616   3.820   0.939   4.448 -2.1756  4.2565  0.2689
  932SOL    HW2 3617   3.963   0.920   4.523 -2.9269 -2.8313  0.5223
  933SOL     OW 3618   5.265   6.584   2.160 -0.5323 -0.0164 -0.6549
  933SOL    HW1 3619   5.247   6.616   2.067 -0.6753 -0.2534 -0.7105
  933SOL    HW2 3620   5.364   6.585   2.177 -0.5705  1.1636 -0.4008
  934SOL     OW 3621   3.020   4.967   5.069 -0.3968  0.2686  0.2253
  934SOL    HW1 3622   3.056   4.986   5.160  0.6736 -1.8521  0.2926
  934SOL    HW2 3623   2.920   4.962   5.072 -0.2960 -2.1561  1.8298
  935SOL     OW 3624   3.201   3.343   1.600 -0.3094 -0.4156 -0.2139
  935SOL    HW1 3625   3.133   3.345   1.673 -0.0702 -0.5816  0.0185
  935SOL    HW2 3626   3.157   3.360   1.512 -0.3700  1.3991  0.1388
  936SOL     OW 3627   3.828   6.786   6.668 -0.2755  0.1209 -0.2263
  936SOL    HW1 3628   3.857   6.870   6.621 -0.8378  1.5305  1.8187
  936SOL    HW2 3629   3.890   6.711   6.643  0.6499  1.2846 -1.5946
  937SOL     OW 3630   1.159   6.999   1.210  0.1211 -0.2219  0.1044
  937SOL    HW1 3631   1.203   6.931   1.151 -0.1673 -1.7770  1.5838
  937SOL    HW2 3632   1.165   6.969   1.305  1.3099  2.5721  1.0079
  938SOL     OW 3633   2.679   5.414   6.102 -0.6849 -0.2031 -0.4582
  938SOL    HW1 3634   2.766   5.399   6.054 -0.2680 -0.0843  0.2472
  938SOL    HW2 3635   2.614   5.459   6.041  0.2951  1.1991 -0.4945
  939SOL     OW 3636   5.133   1.353   0.076 -0.9631 -0.0432 -0.7180
  939SOL    HW1 3637   5.225   1.372   0.111 -1.1441  1.6481 -1.0475
  939SOL    HW2 3638   5.132   1.263   0.033  1.0575  0.5837 -2.2705
  940SOL     OW 3639   0.857   2.108   6.965  0.4094 -0.6587 -0.0633
  940SOL    HW1 3640   0.849   2.029   6.905  0.6079 -1.8888  1.4570
  940SOL    HW2 3641   0.769   2.154   6.973  0.7467  0.6731 -2.6829
  941SOL     OW 3642   2.736   4.044   5.528  0.1053 -0.1618  0.0226
  941SOL    HW1 3643   2.695   3.981   5.594  1.1011  0.6620  1.4721
  941SOL    HW2 3644   2.836   4.038   5.535  0.2369 -0.0570 -1.4370
  942SOL     OW 3645   0.195   0.406   6.997 -0.1901 -0.5544  0.3496
  942SOL    HW1 3646   0.122   0.425   6.932 -0.2554 -2.2902 -0.1459
  942SOL    HW2 3647   0.280   0.386   6.947 -0.0974 -1.3497  0.8086
  943SOL     OW 3648   6.661   2.575   0.077  0.3582 -0.3443 -0.0864
  943SOL    HW1 3649   6.634   2.489   0.120 -1.4699  0.0552 -0.3568
  943SOL    HW2 3650   6.586   2.641   0.083  0.6681  0.3150 -2.2976
  944SOL     OW 3651   2.615   2.139   1.648 -0.1141 -0.3701  0.0325
  944SOL    HW1 3652   2.645   2.070   1.583 -0.9708 -1.4852  0.7524
  944SOL    HW2 3653   2.517   2.126   1.668  0.0317  0.1770  1.2315
  945SOL     OW 3654   2.277   6.316   3.344 -0.0645 -0.0782  0.2359
  945SOL    HW1 3655   2.322   6.240   3.299  1.4438  0.1777  1.2565
  945SOL    HW2 3656   2.327   6.401   3.326 -1.1837  0.5351 -0.1101
  946SOL     OW 3657   6.431   5.545   4.767 -0.0589  0.0328 -0.0235
  946SOL    HW1 3658   6.470   5.524   4.857 -1.1716 -0.7636  0.2884
  946SOL    HW2 3659   6.413   5.643   4.761 -0.0142  0.0872  0.6349
  947SOL     OW 3660   6.522   3.716   2.769  0.1814  0.3637 -0.3408
  947SOL    HW1 3661   6.535   3.815   2.777  1.1976  0.2226 -0.1714
  947SOL    HW2 3662   6.578   3.681   2.694 -0.2416 -0.0776 -0.4551
  948SOL     OW 3663   0.767   1.039   5.396  0.2823  0.2099  0.7801
  948SOL    HW1 3664   0.829   1.103   5.442  1.4304 -0.3457  0.0418
  948SOL    HW2 3665   0.748   0.961   5.456  0.4060  0.3197  0.9617
  949SOL     OW 3666   6.176   1.592   1.643  0.6562  0.9583 -0.5502
  949SOL    HW1 3667   6.134   1.635   1.563  0.7736  1.8933 -0.1370
  949SOL    HW2 3668   6.271   1.569   1.623  0.3965  0.2399 -0.9989
  950SOL     OW 3669   2.875   4.237   6.853 -0.0298  0.0579 -0.3061
  950SOL    HW1 3670   2.787   4.274   6.825  0.7324 -0.6936 -4.1377
  950SOL    HW2 3671   2.946   4.268   6.790  2.0949 -1.1173  1.3831
  951SOL     OW 3672   6.646   2.737   2.484  0.2745  0.1543 -0.0852
  951SOL    HW1 3673   6.593   2.653   2.478  3.5630 -2.2105  1.1730
  951SOL    HW2 3674   6.716   2.737   2.412  0.5718  1.6234  0.1726
  952SOL     OW 3675   1.014   3.658   1.133 -0.8539 -0.4886 -0.0899
  952SOL    HW1 3676   1.004   3.629   1.038  2.1516 -1.3460 -0.2309
  952SOL    HW2 3677   1.059   3.747   1.137 -1.1174 -0.3762  0.5388
  953SOL     OW 3678   0.768   6.471   0.532 -0.3081 -0.7282 -0.4170
  953SOL    HW1 3679   0.867   6.458   0.536 -0.2906 -0.4215  0.3776
  953SOL    HW2 3680   0.724   6.388   0.496  0.2644 -0.7196 -1.1434
  954SOL     OW 3681   6.320   1.333   1.422 -0.0593 -0.1265  0.4855
  954SOL    HW1 3682   6.364   1.411   1.466 -3.7406  2.2721  0.3186
  954SOL    HW2 3683   6.288   1.359   1.331 -0.8804 -2.0658  0.1649
  955SOL     OW 3684   0.374   0.442   1.654 -0.0296  0.4934 -0.2343
  955SOL    HW1 3685   0.448   0.477   1.711 -0.5444  0.2008  0.6439
  955SOL    HW2 3686   0.396   0.350   1.623  0.4066  0.7844 -0.8054
  956SOL     OW 3687   6.679   0.547   6.284 -0.2095  0.0631  0.1316
  956SOL    HW1 3688   6.618   0.504   6.351  0.7632  0.7573  1.5017
  956SOL    HW2 3689   6.625   0.577   6.205 -1.0744 -2.8897 -0.5549
  957SOL     OW 3690   0.191   0.139   3.646 -0.5082  0.0753 -0.4154
  957SOL    HW1 3691   0.287   0.163   3.629 -1.0148  1.2785 -1.7451
  957SOL    HW2 3692   0.183   0.039   3.656  0.8779 -0.0379 -0.2445
  958SOL     OW 3693   5.253   5.774   6.396 -0.4801 -0.3539 -0.4296
  958SOL    HW1 3694   5.322   5.815   6.455  0.0530 -1.4427 -0.2574
  958SOL    HW2 3695   5.231   5.683   6.429 -1.8727 -0.1139 -0.6013
  959SOL     OW 3696   6.336   0.117   6.534  0.4982  0.1811  0.2145
  959SOL    HW1 3697   6.262   0.066   6.578 -0.4314 -0.1334 -1.6381
  959SOL    HW2 3698   6.351   0.082   6.442  2.6191  0.6013  0.3458
  960SOL     OW 3699   4.236   3.722   1.991  0.6160  0.3308  0.1045
  960SOL    HW1 3700   4.206   3.739   1.897 -0.0200 -2.6655 -0.3155
  960SOL    HW2 3701   4.335   3.706   1.991  0.5516 -0.1027 -0.1424
  961SOL     OW 3702   5.500   4.902   0.711  0.3787  0.0851  0.3137
  961SOL    HW1 3703   5.435   4.854   0.770  1.6445 -2.1683 -0.0405
  961SOL    HW2 3704   5.515   4.994   0.747  0.0148 -0.7001  2.6856
  962SOL     OW 3705   2.397   1.439   5.865 -0.2513 -0.1454  0.0069
  962SOL    HW1 3706   2.496   1.429   5.873 -0.0265 -0.6456 -2.6804
  962SOL    HW2 3707   2.374   1.480   5.777 -2.3647  2.2804  1.5575
  963SOL     OW 3708   4.091   1.406   2.384 -0.8241 -0.1097 -0.4845
  963SOL    HW1 3709   4.170   1.418   2.324 -0.2896 -0.8162  0.0497
  963SOL    HW2 3710   4.092   1.475   2.456 -0.0799 -0.7350  0.1401
  964SOL     OW 3711   1.399   3.845   3.085  0.2278  0.2145  0.1355
  964SOL    HW1 3712   1.444   3.860   2.997 -0.6958  1.1828 -0.2007
  964SOL    HW2 3713   1.427   3.917   3.148  0.3191 -0.0522  0.3988
  965SOL     OW 3714   6.201   6.784   3.622  0.4702 -0.1171 -0.6344
  965SOL    HW1 3715   6.287   6.762   3.575  1.4984  0.9667  0.6314
  965SOL    HW2 3716   6.219   6.853   3.692 -1.1869 -0.9746  0.6852
  966SOL     OW 3717   3.570   6.682   0.043 -0.0008 -0.0350 -0.1223
  966SOL    HW1 3718   3.623   6.604   0.007  0.6074 -0.1888  1.0430
  966SOL    HW2 3719   3.541   6.661   0.137  1.8030  1.8696  0.9422
  967SOL     OW 3720   6.864   6.870   5.094  0.2079 -0.8951 -0.3889
  967SOL    HW1 3721   6.797   6.941   5.117 -0.6613 -1.0908 -2.0392
  967SOL    HW2 3722   6.954   6.896   5.128 -0.5613 -0.2341  1.2308
  968SOL     OW 3723   0.952   0.765   6.307  0.2041  0.4357 -0.1216
  968SOL    HW1 3724   0.930   0.861   6.291 -1.2400  0.4315  1.5193
  968SOL    HW2 3725   0.882   0.724   6.366  1.2468 -1.3911 -0.0780
  969SOL     OW 3726   3.955   6.713   1.771  0.0893 -0.2154 -0.5500
  969SOL    HW1 3727   4.040   6.715   1.824 -0.0738 -0.7847 -0.2549
  969SOL    HW2 3728   3.965   6.768   1.689 -0.2934  2.4964  1.0786
  970SOL     OW 3729   1.234   4.148   2.258 -0.2561 -0.3241 -0.0837
  970SOL    HW1 3730   1.184   4.142   2.171 -1.2233  1.1995  0.3297
  970SOL    HW2 3731   1.243   4.244   2.285  0.2461 -0.7473  1.3766
  971SOL     OW 3732   2.555   4.906   6.785 -0.0002  0.2733  0.3844
  971SOL    HW1 3733   2.593   4.827   6.833 -1.2220 -0.0468  0.8729
  971SOL    HW2 3734   2.484   4.949   6.842  0.5137  1.6114  0.0549
  972SOL     OW 3735   1.236   3.575   6.605 -0.0298  0.6838 -0.3125
  972SOL    HW1 3736   1.192   3.615   6.685  0.6784  0.7269  0.0634
  972SOL    HW2 3737   1.178   3.501   6.569  0.2080 -0.1568  0.9697
  973SOL     OW 3738   3.155   0.848   2.582  0.1765 -0.4030 -0.2629
  973SOL    HW1 3739   3.064   0.889   2.579  0.3383 -0.0693 -0.9754
  973SOL    HW2 3740   3.150   0.754   2.549 -0.1940 -0.9690  1.3422
  974SOL     OW 3741   4.917   4.198   1.241 -0.1884 -0.7190 -0.0248
  974SOL    HW1 3742   4.881   4.283   1.202  0.7542 -0.3932 -0.1821
  974SOL    HW2 3743   4.974   4.152   1.173  0.4212 -0.7874  0.5246
  975SOL     OW 3744   5.991   1.340   2.357  0.0738  0.4053 -1.1713
  975SOL    HW1 3745   6.004   1.391   2.272  2.6360 -0.3125 -1.2787
  975SOL    HW2 3746   6.023   1.395   2.435 -0.3584  0.2683 -0.8890
  976SOL     OW 3747   6.799   3.920   4.879  0.1689  0.3577 -0.5297
  976SOL    HW1 3748   6.723   3.984   4.874 -1.0245 -1.0582 -1.1245
  976SOL    HW2 3749   6.780   3.840   4.821  0.6103 -1.5682  1.8531
  977SOL     OW 3750   6.594   5.712   2.236 -0.2597 -0.2365  0.3588
  977SOL    HW1 3751   6.692   5.699   2.225 -0.1418  1.0234 -0.3110
  977SOL    HW2 3752   6.545   5.632   2.203  0.5223 -0.7459  0.4055
  978SOL     OW 3753   5.286   4.385   6.255 -0.0785  0.3234  0.6485
  978SOL    HW1 3754   5.237   4.339   6.180 -1.6443  1.4339  0.9547
  978SOL    HW2 3755   5.378   4.347   6.262 -0.0621 -0.1761 -1.5112
  979SOL     OW 3756   5.736   4.668   3.310  0.0313 -0.1936  0.0510
  979SOL    HW1 3757   5.787   4.589   3.275  0.1895  0.5859 -1.5709
  979SOL    HW2 3758   5.757   4.681   3.407  1.2515 -1.1706 -0.0576
  980SOL     OW 3759   4.997   1.321   2.261 -0.0741  0.3545  0.1842
  980SOL    HW1 3760   4.904   1.284   2.248 -0.5622  0.5886  2.7928
  980SOL    HW2 3761   4.993   1.421   2.261  0.4465  0.4064 -1.2163
  981SOL     OW 3762   0.935   6.730   5.383 -0.3421  0.1197 -0.0884
  981SOL    HW1 3763   0.997   6.684   5.447  0.0386  1.1149  0.2734
  981SOL    HW2 3764   0.981   6.740   5.294 -0.4714 -0.3022 -0.2054
  982SOL     OW 3765   0.845   1.422   5.851 -0.3594 -0.0251 -0.0862
  982SOL    HW1 3766   0.841   1.340   5.909  1.3256 -0.6339 -0.7532
  982SOL    HW2 3767   0.839   1.394   5.755 -1.9667  0.8671 -0.2703
  983SOL     OW 3768   3.678   4.099   1.673 -0.4433  0.0680 -0.2330
  983SOL    HW1 3769   3.650   4.148   1.756  0.0811  0.0899 -0.0644
  983SOL    HW2 3770   3.656   4.153   1.593 -1.4808 -0.1933 -0.1392
  984SOL     OW 3771   5.507   0.925   4.391  0.0117 -0.2336  0.3229
  984SOL    HW1 3772   5.575   0.901   4.321  0.9953 -0.3653  1.2878
  984SOL    HW2 3773   5.534   1.010   4.436 -1.5082  0.7646 -0.5889
  985SOL     OW 3774   5.328   4.151   5.940  0.1800 -0.2674  0.7089
  985SOL    HW1 3775   5.309   4.086   5.866 -1.1639  0.7445  0.1152
  985SOL    HW2 3776   5.360   4.237   5.900  1.8738 -0.5070  1.4784
  986SOL     OW 3777   3.842   3.621   5.104  1.0637 -0.0658  0.5549
  986SOL    HW1 3778   3.828   3.638   5.006  2.0846 -0.4630  0.3305
  986SOL    HW2 3779   3.757   3.586   5.144  0.6828 -0.0538 -0.2218
  987SOL     OW 3780   6.296   1.722   2.745 -0.0579 -0.2810 -0.6735
  987SOL    HW1 3781   6.268   1.802   2.797 -1.4128 -1.0610 -0.1194
  987SOL    HW2 3782   6.282   1.640   2.801  1.3871 -0.8963 -1.1868
  988SOL     OW 3783   5.197   5.275   0.652  0.3295 -0.4922  0.0959
  988SOL    HW1 3784   5.261   5.314   0.586 -0.1442  1.0378  0.5037
  988SOL    HW2 3785   5.109   5.258   0.608  0.3229 -0.4498  0.0911
  989SOL     OW 3786   2.853   5.899   1.268  0.3970 -0.7952  0.6243
  989SOL    HW1 3787   2.760   5.880   1.301 -0.4476 -0.6793 -1.5029
  989SOL    HW2 3788   2.917   5.833   1.308 -0.7216 -1.3833  1.5179
  990SOL     OW 3789   3.828   6.904   5.556  0.1100 -0.1810  0.5251
  990SOL    HW1 3790   3.886   6.978   5.521 -0.2388  0.0946  0.5240
  990SOL    HW2 3791   3.844   6.892   5.654  0.4711 -0.3843  0.4422
  991SOL     OW 3792   3.915   3.778   0.224 -0.3506 -0.5169  0.0140
  991SOL    HW1 3793   4.002   3.772   0.274 -0.5213 -1.6079  0.1951
  991SOL    HW2 3794   3.928   3.837   0.144  0.8158 -1.3972 -0.4848
  992SOL     OW 3795   0.999   5.514   3.907  0.5918  0.1490  0.6534
  992SOL    HW1 3796   1.069   5.577   3.874  1.4396 -0.7972  0.6123
  992SOL    HW2 3797   0.960   5.550   3.992  0.0480  1.4238 -0.1034
  993SOL     OW 3798   4.966   6.821   5.669 -0.1213  0.0302 -0.2775
  993SOL    HW1 3799   4.880   6.780   5.699  0.6471 -1.4418  0.0457
  993SOL    HW2 3800   4.949   6.913   5.632 -1.5250  0.6277  1.6925
  994SOL     OW 3801   1.164   3.297   4.618 -0.1173  0.1552  0.3767
  994SOL    HW1 3802   1.144   3.199   4.619 -0.6660  0.2608  1.2985
  994SOL    HW2 3803   1.214   3.320   4.534 -0.8716 -0.7260 -0.3350
  995SOL     OW 3804   4.469   0.039   2.670 -0.1269  0.8493  0.4260
  995SOL    HW1 3805   4.469  -0.038   2.605 -1.5411  1.4244 -0.2856
  995SOL    HW2 3806   4.423   0.011   2.754 -1.3662  1.1320 -0.1380
  996SOL     OW 3807   7.007   4.683   3.592  0.0282  0.2144  0.0501
  996SOL    HW1 3808   7.025   4.777   3.562  0.3164  0.3013  0.4732
  996SOL    HW2 3809   6.977   4.685   3.688  0.0733 -0.1298  0.0743
  997SOL     OW 3810   6.897   5.998   4.030 -0.1404  0.5367  0.0501
  997SOL    HW1 3811   6.856   6.089   4.026 -0.8260  0.2171 -0.3483
  997SOL    HW2 3812   6.825   5.929   4.035  0.2702 -0.1307 -2.1415
  998SOL     OW 3813   0.669   3.776   6.545  0.0175  0.2624 -0.2323
  998SOL    HW1 3814   0.578   3.778   6.504  0.7624 -0.1663 -2.0462
  998SOL    HW2 3815   0.737   3.761   6.473  1.5158  0.4252  1.0911
  999SOL     OW 3816   1.250   3.152   2.083 -0.0238 -0.4661  0.0448
  999SOL    HW1 3817   1.294   3.219   2.023  0.3686  0.9077  1.7733
  999SOL    HW2 3818   1.177   3.105   2.033 -1.5886  2.5909 -0.7801
 1000SOL     OW 3819   0.107   6.400   4.114 -0.3046 -0.5094 -0.3566
 1000SOL    HW1 3820   0.042   6.367   4.045  0.4377 -1.8451 -0.4580
 1000SOL    HW2 3821   0.057   6.431   4.195 -1.1296 -0.0262 -1.0426
 1001SOL     OW 3822   4.012   4.571   6.854 -0.3218 -0.0052  0.2947
 1001SOL    HW1 3823   4.029   4.523   6.769  0.2040  0.6560  0.0176
 1001SOL    HW2 3824   3.929   4.627   6.846 -0.4298 -0.1599  0.3082
 1002SOL     OW 3825   0.826   4.953   3.648  0.4929  0.0158 -0.8890
 1002SOL    HW1 3826   0.774   4.903   3.579  0.1282 -1.5420  0.4387
 1002SOL    HW2 3827   0.865   4.888   3.713  0.9279  1.4078  0.2896
 1003SOL     OW 3828   0.919   4.858   3.249 -0.2784 -0.5175  0.0102
 1003SOL    HW1 3829   0.872   4.771   3.240 -0.7676 -0.2639 -0.0135
 1003SOL    HW2 3830   1.000   4.847   3.306 -0.8619 -0.7913  0.8261
 1004SOL     OW 3831   2.128   1.906   5.717  0.4142 -0.1853 -0.4207
 1004SOL    HW1 3832   2.128   1.807   5.726  1.9886 -0.2931 -1.3330
 1004SOL    HW2 3833   2.054   1.934   5.655 -0.3100 -0.7317  0.1714
 1005SOL     OW 3834   5.992   2.882   2.128  0.0875 -0.1580  0.5953
 1005SOL    HW1 3835   6.005   2.962   2.069  0.3878  0.4783  1.4854
 1005SOL    HW2 3836   6.057   2.811   2.103 -0.4531 -0.2917 -0.4748
 1006SOL     OW 3837   1.946   6.693   6.838 -0.0594  0.0558  0.0732
 1006SOL    HW1 3838   1.974   6.671   6.745  0.4975  0.4866  0.1332
 1006SOL    HW2 3839   2.009   6.649   6.902 -0.2028  0.0800  0.2351
 1007SOL     OW 3840   4.830   2.266   1.870 -0.1330 -0.0741 -0.6383
 1007SOL    HW1 3841   4.918   2.244   1.911  0.5043  1.0902 -1.3380
 1007SOL    HW2 3842   4.758   2.214   1.916  0.6633  0.4363  1.2546
 1008SOL     OW 3843   6.936   2.682   1.017  0.1630  0.0257 -0.7679
 1008SOL    HW1 3844   6.982   2.658   1.102 -1.1434  0.1451 -0.0019
 1008SOL    HW2 3845   6.996   2.742   0.963  0.8512  0.2781  0.2421
 1009SOL     OW 3846   2.308   6.644   3.602  0.1186 -0.1594 -0.3154
 1009SOL    HW1 3847   2.240   6.714   3.582 -0.9439 -0.7687  0.9798
 1009SOL    HW2 3848   2.262   6.557   3.621  1.3043 -0.7758 -0.0935
 1010SOL     OW 3849   0.379   5.364   2.230 -0.9155 -0.1957 -0.2400
 1010SOL    HW1 3850   0.410   5.459   2.223 -1.2371 -0.0558  0.1132
 1010SOL    HW2 3851   0.446   5.310   2.280  0.4426 -0.7279 -2.5378
 1011SOL     OW 3852   6.367   0.395   4.757 -0.0789  0.1571 -0.5664
 1011SOL    HW1 3853   6.301   0.332   4.718 -1.1491  1.2130 -0.5061
 1011SOL    HW2 3854   6.320   0.466   4.809  1.0440  1.2397 -0.9491
 1012SOL     OW 3855   2.007   5.817   0.878 -0.4613 -0.3050  0.2723
 1012SOL    HW1 3856   2.040   5.813   0.972 -1.0680 -1.4804  0.4531
 1012SOL    HW2 3857   2.043   5.740   0.826  0.7037  0.8848 -0.7644
 1013SOL     OW 3858   4.386   6.567   4.957  0.0468 -0.4487  0.1988
 1013SOL    HW1 3859   4.465   6.565   4.896 -1.2253 -1.5748 -1.5156
 1013SOL    HW2 3860   4.355   6.661   4.970 -0.6071 -0.2622 -2.2596
 1014SOL     OW 3861   0.667   3.030   2.861  0.2577  0.7324 -0.3421
 1014SOL    HW1 3862   0.613   3.099   2.909  0.4442  1.5718 -1.2873
 1014SOL    HW2 3863   0.686   3.062   2.768  0.4500 -0.5537 -0.7671
 1015SOL     OW 3864   6.060   6.875   4.527 -0.0298  0.0244 -0.5806
 1015SOL    HW1 3865   6.040   6.959   4.476 -0.0560 -0.6043 -1.6464
 1015SOL    HW2 3866   6.152   6.880   4.565 -1.1734  1.8899  2.1917
 1016SOL     OW 3867   0.958   3.543   0.887  1.0879  0.0352  0.2595
 1016SOL    HW1 3868   0.955   3.521   0.790 -1.1613 -0.1246  0.3337
 1016SOL    HW2 3869   0.994   3.464   0.938  0.6494 -0.5268 -0.2829
 1017SOL     OW 3870   0.342   2.041   0.693 -0.2782 -0.6434 -1.1478
 1017SOL    HW1 3871   0.360   2.135   0.722  0.7262 -1.4281  0.9694
 1017SOL    HW2 3872   0.294   1.993   0.767  0.8930 -2.3002 -1.4074
 1018SOL     OW 3873   3.561   4.860   6.630 -0.4526  0.3100 -0.4513
 1018SOL    HW1 3874   3.500   4.795   6.676 -2.0793  0.9573 -1.5943
 1018SOL    HW2 3875   3.586   4.933   6.693  0.3287 -0.6887  0.4539
 1019SOL     OW 3876   3.545   2.976   4.769  0.5167  0.2586  0.2680
 1019SOL    HW1 3877   3.597   2.902   4.726 -0.0952 -0.4944  0.7794
 1019SOL    HW2 3878   3.605   3.028   4.830  1.2983  1.1093 -1.1871
 1020SOL     OW 3879   2.457   2.747   6.732 -0.2119  0.0605 -0.5374
 1020SOL    HW1 3880   2.390   2.712   6.667 -2.3170  1.0298  1.0324
 1020SOL    HW2 3881   2.492   2.671   6.788 -1.5122 -0.1874 -0.0380
 1021SOL     OW 3882   6.863   6.972   3.100 -0.3123 -0.1545 -0.1261
 1021SOL    HW1 3883   6.942   6.932   3.053  0.2556  1.9507 -1.1022
 1021SOL    HW2 3884   6.889   6.995   3.194 -0.4689 -1.4537  0.2561
 1022SOL     OW 3885   1.945   1.303   2.571  0.7365  0.4753 -0.0699
 1022SOL    HW1 3886   1.939   1.216   2.521  0.0740  0.9480 -0.8101
 1022SOL    HW2 3887   1.855   1.328   2.606  0.5722  1.6894 -1.2809
 1023SOL     OW 3888   0.670   1.131   0.938 -0.4531 -0.2618 -0.2202
 1023SOL    HW1 3889   0.710   1.076   1.011 -3.4348 -2.0456  0.3143
 1023SOL    HW2 3890   0.660   1.075   0.855 -1.3731  0.1427 -0.4311
 1024SOL     OW 3891   1.009   5.621   2.062 -0.3671 -0.1414 -0.1421
 1024SOL    HW1 3892   0.917   5.644   2.095 -0.7100 -1.4083 -0.1575
 1024SOL    HW2 3893   1.077   5.660   2.124 -0.7764  2.6196 -1.2270
 1025SOL     OW 3894   3.258   6.754   2.566 -0.0928  0.1561 -0.0231
 1025SOL    HW1 3895   3.169   6.783   2.530  0.6147  0.7322 -1.3837
 1025SOL    HW2 3896   3.297   6.685   2.505  0.6186  0.2900  0.2732
 1026SOL     OW 3897   1.798   1.966   0.245  0.0496  0.6200  0.1519
 1026SOL    HW1 3898   1.782   1.875   0.207  0.3353 -0.3580  2.2076
 1026SOL    HW2 3899   1.896   1.977   0.262 -0.1462  0.6762  1.3287
 1027SOL     OW 3900   6.819   1.685   5.586  0.3144  0.6339 -0.2895
 1027SOL    HW1 3901   6.894   1.700   5.649  0.7017 -0.8062 -0.3717
 1027SOL    HW2 3902   6.841   1.608   5.526 -1.9070 -0.9572  0.8097
 1028SOL     OW 3903   4.207   0.227   3.826 -0.3235  0.0770  0.2231
 1028SOL    HW1 3904   4.170   0.291   3.759 -0.6251  1.3152  1.5491
 1028SOL    HW2 3905   4.180   0.254   3.918  0.6358 -1.2265  0.9243
 1029SOL     OW 3906   6.530   0.920   3.048  0.5767  0.1417  0.0585
 1029SOL    HW1 3907   6.624   0.897   3.023  1.1672  0.2228  2.0248
 1029SOL    HW2 3908   6.476   0.836   3.058  0.6878  0.0454 -0.1296
 1030SOL     OW 3909   6.409   0.772   2.465  0.0342 -0.3099  0.5137
 1030SOL    HW1 3910   6.451   0.744   2.379 -1.5561 -2.4550  0.3575
 1030SOL    HW2 3911   6.322   0.818   2.446 -0.1894 -0.5428  0.9404
 1031SOL     OW 3912   1.597   3.833   4.647 -0.5852 -0.2059 -0.1170
 1031SOL    HW1 3913   1.530   3.906   4.659 -1.0975 -0.7321  0.2798
 1031SOL    HW2 3914   1.622   3.796   4.737  0.2238 -0.0308 -0.2612
 1032SOL     OW 3915   0.406   4.667   0.923  0.4437 -0.0336  0.3326
 1032SOL    HW1 3916   0.458   4.677   0.838 -0.3391  0.4911 -0.0927
 1032SOL    HW2 3917   0.470   4.663   1.000  1.1041  0.9991 -0.1458
 1033SOL     OW 3918   3.218   3.631   6.980 -0.0614  0.1729 -0.1938
 1033SOL    HW1 3919   3.253   3.680   6.900 -1.2173  0.6349 -0.4381
 1033SOL    HW2 3920   3.138   3.577   6.954  0.0250 -0.3015  0.4925
 1034SOL     OW 3921   3.342   4.528   1.275  0.0155  0.3581 -0.5066
 1034SOL    HW1 3922   3.431   4.521   1.231  0.6753  0.2356  0.8099
 1034SOL    HW2 3923   3.286   4.596   1.227  0.7897  0.4110 -1.3602
 1035SOL     OW 3924   0.357   1.489   5.205 -0.0920  0.1300  0.5489
 1035SOL    HW1 3925   0.351   1.390   5.196  0.1055  0.1116  0.6101
 1035SOL    HW2 3926   0.428   1.524   5.144 -0.6917  0.3245 -0.0720
 1036SOL     OW 3927   1.688   1.672   1.235 -0.5378 -0.1611 -0.2792
 1036SOL    HW1 3928   1.694   1.582   1.192 -0.3212  0.5433 -1.7674
 1036SOL    HW2 3929   1.658   1.739   1.168 -1.4800  0.7586  1.0158
 1037SOL     OW 3930   6.744   6.981   3.621 -0.3988  0.1011 -0.1240
 1037SOL    HW1 3931   6.729   6.883   3.619 -0.9690  0.1974 -1.0006
 1037SOL    HW2 3932   6.830   7.000   3.670  0.4796 -0.9265 -1.1960
 1038SOL     OW 3933   5.895   1.128   0.385 -0.8497 -0.0395 -0.3243
 1038SOL    HW1 3934   5.948   1.049   0.355 -0.0434  0.8500 -1.2906
 1038SOL    HW2 3935   5.822   1.097   0.446 -2.2793 -1.8788 -2.7912
 1039SOL     OW 3936   6.459   4.281   3.503 -0.2166  0.1828  0.0140
 1039SOL    HW1 3937   6.491   4.194   3.540 -0.2134 -0.2835 -1.0376
 1039SOL    HW2 3938   6.520   4.310   3.429 -0.9735  0.3935 -0.5424
 1040SOL     OW 3939   0.005   0.439   2.631  0.2732 -0.0874 -0.2454
 1040SOL    HW1 3940   0.018   0.393   2.543 -0.6505 -5.8731  2.2618
 1040SOL    HW2 3941   0.090   0.434   2.684 -0.2692 -0.2290  0.6316
 1041SOL     OW 3942   3.778   5.039   4.146  0.1796 -0.4074  0.1313
 1041SOL    HW1 3943   3.740   4.956   4.106 -4.4412  1.0382  0.8671
 1041SOL    HW2 3944   3.757   5.118   4.087 -0.3799  0.8595  1.9206
 1042SOL     OW 3945   6.644   4.577   5.903  0.1708  0.3476  0.0273
 1042SOL    HW1 3946   6.555   4.562   5.861 -0.1853  1.4753  0.3595
 1042SOL    HW2 3947   6.635   4.581   6.003  0.4206  1.4968  0.0183
 1043SOL     OW 3948   1.413   2.742   0.974  0.2705  0.0566  0.6551
 1043SOL    HW1 3949   1.403   2.721   1.071 -0.3057 -0.5271  0.4740
 1043SOL    HW2 3950   1.395   2.660   0.920  0.0192  0.5131  0.0278
 1044SOL     OW 3951   3.680   3.424   5.800  0.1945  0.3391 -0.0622
 1044SOL    HW1 3952   3.726   3.419   5.711 -0.3975  1.8290 -0.4858
 1044SOL    HW2 3953   3.623   3.342   5.812  1.6749 -0.7391 -0.2387
 1045SOL     OW 3954   1.312   1.145   2.025  0.1665  0.3135 -0.4440
 1045SOL    HW1 3955   1.386   1.178   1.967 -0.0771  0.2406 -0.7969
 1045SOL    HW2 3956   1.240   1.105   1.969  1.0342 -2.0590  0.0002
 1046SOL     OW 3957   2.495   0.650   6.528 -0.5780  0.3352  0.6609
 1046SOL    HW1 3958   2.595   0.651   6.528 -0.5676  1.1933  1.8602
 1046SOL    HW2 3959   2.460   0.714   6.460 -0.3526 -0.9664 -0.7690
 1047SOL     OW 3960   1.401   0.150   0.608  0.0418  0.3659 -0.0093
 1047SOL    HW1 3961   1.450   0.192   0.685 -0.5540  0.4336  0.3532
 1047SOL    HW2 3962   1.389   0.052   0.625 -1.6425  0.6816  0.8730
 1048SOL     OW 3963   6.500   4.042   5.887  0.5407  0.7346  0.3667
 1048SOL    HW1 3964   6.555   3.971   5.842 -1.2428 -0.0354 -0.6899
 1048SOL    HW2 3965   6.524   4.132   5.849  1.1194  0.4339 -0.0037
 1049SOL     OW 3966   0.912   3.861   2.893 -0.4224  0.1268  0.9340
 1049SOL    HW1 3967   0.981   3.790   2.904  0.3979  0.8731  0.6533
 1049SOL    HW2 3968   0.892   3.902   2.982 -0.6550 -0.2162  1.0442
 1050SOL     OW 3969   1.866   4.302   1.699 -0.0704  0.4917  0.5041
 1050SOL    HW1 3970   1.788   4.317   1.637 -0.7872  1.0411  1.5058
 1050SOL    HW2 3971   1.832   4.268   1.787  0.9538 -0.4924  0.5318
 1051SOL     OW 3972   6.581   0.303   1.510 -0.3628 -0.6764 -0.1486
 1051SOL    HW1 3973   6.587   0.292   1.610 -0.6537  1.0558  0.0887
 1051SOL    HW2 3974   6.669   0.279   1.469  0.7396  1.3958  0.8517
 1052SOL     OW 3975   2.493   2.529   4.889 -0.2236  0.0419  0.0099
 1052SOL    HW1 3976   2.448   2.479   4.815 -0.2221 -0.8345  0.5907
 1052SOL    HW2 3977   2.584   2.490   4.905  0.1395  0.8152 -0.1265
 1053SOL     OW 3978   5.690   5.386   2.773 -0.4390 -0.0329 -0.2088
 1053SOL    HW1 3979   5.660   5.291   2.764 -1.2278  0.1522  0.3602
 1053SOL    HW2 3980   5.652   5.440   2.698 -0.7120 -0.0048 -0.0564
 1054SOL     OW 3981   2.151   1.605   2.128 -0.2564  0.4651  0.2633
 1054SOL    HW1 3982   2.190   1.525   2.175 -2.0504  0.0695  1.1607
 1054SOL    HW2 3983   2.073   1.639   2.180 -0.9561  1.3884 -1.3171
 1055SOL     OW 3984   0.712   0.469   5.118 -0.0520 -0.8404 -0.4548
 1055SOL    HW1 3985   0.705   0.509   5.209  0.5333  0.4581 -0.9396
 1055SOL    HW2 3986   0.730   0.542   5.052 -3.7806 -1.1924 -2.1478
 1056SOL     OW 3987   4.023   1.032   3.483  0.0182  0.7513  0.2789
 1056SOL    HW1 3988   3.952   1.102   3.472  1.4218  2.0447 -1.0803
 1056SOL    HW2 3989   4.109   1.066   3.446  0.4991 -2.2125 -1.6887
 1057SOL     OW 3990   1.743   1.683   4.078  0.3848 -0.5821 -0.1290
 1057SOL    HW1 3991   1.661   1.659   4.130  0.9093  0.0528  1.0212
 1057SOL    HW2 3992   1.757   1.616   4.005 -1.0619 -0.7817 -0.2487
 1058SOL     OW 3993   1.108   6.763   6.708 -0.5191 -0.0406  0.4569
 1058SOL    HW1 3994   1.101   6.775   6.807  1.7173 -0.0893  0.6644
 1058SOL    HW2 3995   1.069   6.843   6.662 -3.2557 -0.8014  1.2489
 1059SOL     OW 3996   4.494   3.613   2.027  0.0911  0.0515 -0.2416
 1059SOL    HW1 3997   4.593   3.629   2.035 -0.0230  0.0532  1.7291
 1059SOL    HW2 3998   4.477   3.516   2.013  0.4232  0.3012 -2.6500
 1060SOL     OW 3999   5.133   5.770   5.622  0.3012  0.4616  0.1838
 1060SOL    HW1 4000   5.168   5.802   5.533  0.2700  0.1214  0.0473
 1060SOL    HW2 4001   5.196   5.798   5.694 -0.6863  2.5568  0.3262
 1061SOL     OW 4002   4.351   1.689   0.764 -0.5880  0.5320  0.1218
 1061SOL    HW1 4003   4.441   1.722   0.736 -0.5997 -0.0659 -0.6422
 1061SOL    HW2 4004   4.283   1.717   0.697 -0.6488 -0.7687 -0.3839
 1062SOL     OW 4005   4.650   5.287   0.985  0.6543 -0.6221  0.3020
 1062SOL    HW1 4006   4.614   5.379   0.999  0.2121 -0.8224  0.5150
 1062SOL    HW2 4007   4.584   5.234   0.932  1.3977 -0.4838 -0.8024
 1063SOL     OW 4008   3.152   5.654   3.723  0.5441 -0.0181 -0.2805
 1063SOL    HW1 4009   3.160   5.753   3.711  0.1384  0.0952  0.3249
 1063SOL    HW2 4010   3.217   5.608   3.663  0.1666  0.5869 -1.1647
 1064SOL     OW 4011   6.808   4.689   1.139 -0.2062 -0.0700 -0.3269
 1064SOL    HW1 4012   6.843   4.777   1.172  1.7727 -0.5183 -1.1073
 1064SOL    HW2 4013   6.851   4.667   1.051 -1.5251 -1.3113 -0.6935
 1065SOL     OW 4014   5.743   2.599   3.000  0.4582  0.2255 -0.3499
 1065SOL    HW1 4015   5.722   2.664   2.927 -0.4070 -0.9143 -1.1512
 1065SOL    HW2 4016   5.842   2.589   3.008  0.5680  0.2434 -1.4997
 1066SOL     OW 4017   2.200   5.510   5.503  0.4894 -0.2393 -0.5842
 1066SOL    HW1 4018   2.269   5.556   5.559 -0.2868  0.3873 -0.1202
 1066SOL    HW2 4019   2.147   5.448   5.561  0.2182 -0.2088 -0.7987
 1067SOL     OW 4020   2.376   5.226   0.391  0.2982  0.5249  0.4705
 1067SOL    HW1 4021   2.313   5.150   0.381  0.2938  0.5533  0.2807
 1067SOL    HW2 4022   2.470   5.191   0.398  0.2578  0.4765  0.8385
 1068SOL     OW 4023   1.651   1.812   1.452  0.7961  0.2354 -0.0744
 1068SOL    HW1 4024   1.718   1.881   1.479  0.6172  0.3902 -0.0129
 1068SOL    HW2 4025   1.679   1.769   1.366  0.9636  0.3090 -0.0567
 1069SOL     OW 4026   2.995   3.169   3.872 -0.0983 -0.1408 -0.4225
 1069SOL    HW1 4027   3.074   3.203   3.922 -0.5678 -1.2002  1.1041
 1069SOL    HW2 4028   3.023   3.139   3.781  1.1234  0.1066 -0.1386
 1070SOL     OW 4029   6.760   4.702   5.106  0.5239  0.0958  0.8359
 1070SOL    HW1 4030   6.738   4.790   5.148  0.1337  1.1652 -1.4970
 1070SOL    HW2 4031   6.734   4.628   5.168  0.0195  1.5788  2.4602
 1071SOL     OW 4032   6.746   0.523   2.468  0.0027  0.0131 -0.0944
 1071SOL    HW1 4033   6.748   0.437   2.520 -1.9867  0.3085  0.5555
 1071SOL    HW2 4034   6.664   0.525   2.411  0.0187  1.4877 -0.0963
 1072SOL     OW 4035   3.401   6.865   3.955  0.3653 -0.2804  0.4491
 1072SOL    HW1 4036   3.307   6.836   3.938  1.0509 -1.2216 -2.5760
 1072SOL    HW2 4037   3.433   6.827   4.042 -1.9472 -0.1367  1.4131
 1073SOL     OW 4038   5.369   5.053   5.287  0.3242 -0.0992 -0.1420
 1073SOL    HW1 4039   5.394   5.128   5.226 -0.2189 -0.0458 -0.3066
 1073SOL    HW2 4040   5.281   5.015   5.258  0.3376 -0.4463  0.2651
 1074SOL     OW 4041   5.429   2.519   0.962  0.0920  0.0460  0.2559
 1074SOL    HW1 4042   5.414   2.515   0.863  2.2943 -0.1099 -0.1151
 1074SOL    HW2 4043   5.454   2.428   0.995  0.3962  0.3071  0.7571
 1075SOL     OW 4044   1.573   4.900   0.039 -0.3873  0.1704 -0.1986
 1075SOL    HW1 4045   1.577   4.802   0.021  0.2046  0.3955 -1.3905
 1075SOL    HW2 4046   1.486   4.937   0.005  0.7178  0.5912 -2.7872
 1076SOL     OW 4047   4.138   5.503   2.614  0.4351 -0.1519 -0.4885
 1076SOL    HW1 4048   4.146   5.602   2.630  2.2340 -0.3048 -0.2172
 1076SOL    HW2 4049   4.122   5.486   2.517  1.0450  0.3795 -0.6886
 1077SOL     OW 4050   3.593   6.504   4.205  0.5778  0.0834 -0.0267
 1077SOL    HW1 4051   3.552   6.594   4.208 -0.5331 -0.4090 -0.1630
 1077SOL    HW2 4052   3.689   6.511   4.176  0.5437  1.2172  0.1270
 1078SOL     OW 4053   2.743   5.327   1.694 -0.7889 -0.3561  0.6389
 1078SOL    HW1 4054   2.752   5.294   1.600 -2.1027  1.7876 -0.2860
 1078SOL    HW2 4055   2.646   5.329   1.719 -0.5288  0.1737  1.6468
 1079SOL     OW 4056   2.794   6.319   3.956 -0.7426  0.0515 -0.2948
 1079SOL    HW1 4057   2.822   6.308   3.861 -4.1176 -0.0343 -1.4034
 1079SOL    HW2 4058   2.757   6.411   3.969  0.5017  0.3828  1.2358
 1080SOL     OW 4059   0.210   5.507   6.618 -0.0553 -0.0465  0.1653
 1080SOL    HW1 4060   0.183   5.533   6.711 -2.6339 -0.0029 -0.5154
 1080SOL    HW2 4061   0.172   5.572   6.553  2.8684  0.7286 -0.9174
 1081SOL     OW 4062   4.185   6.769   1.906  0.6197 -0.6279  0.1572
 1081SOL    HW1 4063   4.256   6.779   1.835  0.4687 -0.1537  0.0603
 1081SOL    HW2 4064   4.226   6.784   1.996  0.3864  1.1003  0.0153
 1082SOL     OW 4065   2.056   2.249   0.262  0.4809  0.4531  0.3447
 1082SOL    HW1 4066   2.051   2.278   0.357  1.5115  0.0936  0.5181
 1082SOL    HW2 4067   1.967   2.263   0.218 -0.2726 -0.2445  1.6047
 1083SOL     OW 4068   4.313   0.342   5.480  0.2935 -0.1463  0.5763
 1083SOL    HW1 4069   4.265   0.353   5.393  0.2081  1.4825  0.7953
 1083SOL    HW2 4070   4.250   0.304   5.548 -0.7948  2.0732  0.8991
 1084SOL     OW 4071   2.502   3.360   3.237 -0.3995 -0.3265 -0.4115
 1084SOL    HW1 4072   2.560   3.409   3.173  0.1307 -0.8889 -0.3660
 1084SOL    HW2 4073   2.408   3.395   3.231  0.2404  1.7554  0.6977
 1085SOL     OW 4074   0.110   3.309   1.068 -0.4274 -0.7138  0.1890
 1085SOL    HW1 4075   0.025   3.260   1.045 -0.6134  0.1075 -0.9356
 1085SOL    HW2 4076   0.173   3.304   0.991  0.3475 -0.8666  0.8260
 1086SOL     OW 4077   0.610   1.204   4.383  0.3500  0.0452  0.6984
 1086SOL    HW1 4078   0.516   1.197   4.348  0.6020 -0.0165 -0.0005
 1086SOL    HW2 4079   0.655   1.115   4.373  0.2480 -0.1369  1.7570
 1087SOL     OW 4080   2.191   3.167   1.375  0.4194 -0.0668  0.1685
 1087SOL    HW1 4081   2.104   3.207   1.346  0.7992  0.5759 -0.1085
 1087SOL    HW2 4082   2.185   3.068   1.371  0.1200 -0.0078 -1.0836
 1088SOL     OW 4083   1.665   4.645   6.774  0.1724 -0.1049 -0.1588
 1088SOL    HW1 4084   1.599   4.615   6.843 -0.7815 -1.5634 -1.6240
 1088SOL    HW2 4085   1.690   4.568   6.716  1.5575  0.9154 -0.9855
 1089SOL     OW 4086   0.460   0.532   5.647 -0.5393  0.1787  0.1340
 1089SOL    HW1 4087   0.537   0.521   5.584 -0.3055 -1.1768  0.6036
 1089SOL    HW2 4088   0.399   0.604   5.614  1.0510  1.4695 -0.1142
 1090SOL     OW 4089   2.602   5.603   1.190 -0.3702  0.1687  0.2881
 1090SOL    HW1 4090   2.532   5.626   1.122 -0.2690  0.8074  0.3931
 1090SOL    HW2 4091   2.612   5.679   1.255  1.0611  0.4732 -0.2581
 1091SOL     OW 4092   0.111   1.276   0.189 -0.0305  0.0532  0.0828
 1091SOL    HW1 4093   0.132   1.222   0.270 -0.0625 -0.7475 -0.4314
 1091SOL    HW2 4094   0.079   1.216   0.115 -2.6166  0.9884  0.3027
 1092SOL     OW 4095   5.995   1.317   5.816 -0.2774 -0.1068  0.1418
 1092SOL    HW1 4096   5.946   1.283   5.736  0.5499 -0.3444 -0.2728
 1092SOL    HW2 4097   6.066   1.381   5.787 -0.4745  0.3993  0.7490
 1093SOL     OW 4098   0.836   3.325   1.262  0.0302  0.4007  0.3996
 1093SOL    HW1 4099   0.884   3.411   1.278  2.2034 -0.1048 -2.7660
 1093SOL    HW2 4100   0.886   3.250   1.305 -1.5148  0.4966  2.5828
 1094SOL     OW 4101   0.843   2.894   2.094  0.3426 -0.2815 -0.3161
 1094SOL    HW1 4102   0.794   2.877   2.179  0.6336  4.8234  1.2000
 1094SOL    HW2 4103   0.778   2.920   2.023  0.3832  1.4622  0.2293
 1095SOL     OW 4104   4.192   1.102   4.906  0.0376 -0.5914  0.1110
 1095SOL    HW1 4105   4.266   1.034   4.912 -1.0845 -1.7420  2.8161
 1095SOL    HW2 4106   4.196   1.148   4.818  4.8305  0.4049  0.5399
 1096SOL     OW 4107   2.346   5.384   6.067  0.4142  0.0515 -0.2201
 1096SOL    HW1 4108   2.336   5.450   6.141  0.4311  0.1177 -0.2765
 1096SOL    HW2 4109   2.266   5.324   6.065  0.6884 -0.3353  0.2282
 1097SOL     OW 4110   0.613   5.577   1.849  0.0246 -0.1199  0.2359
 1097SOL    HW1 4111   0.562   5.503   1.806 -0.3813 -0.1509  0.7471
 1097SOL    HW2 4112   0.569   5.665   1.827  0.0751 -0.0961  0.2257
 1098SOL     OW 4113   1.336   3.597   4.170 -0.5426 -0.6510 -0.5499
 1098SOL    HW1 4114   1.431   3.583   4.142 -0.2791  0.4944 -0.2862
 1098SOL    HW2 4115   1.275   3.557   4.102  0.1219  0.1615 -1.6676
 1099SOL     OW 4116   3.553   0.393   5.025 -0.0010 -0.3915  0.1758
 1099SOL    HW1 4117   3.468   0.445   5.013  0.7906  0.9518  0.2803
 1099SOL    HW2 4118   3.559   0.323   4.954 -0.1627  0.9467 -1.2261
 1100SOL     OW 4119   1.254   6.148   3.130  0.1720  0.1044 -0.2667
 1100SOL    HW1 4120   1.338   6.139   3.184  0.3089 -1.0598 -0.6289
 1100SOL    HW2 4121   1.274   6.198   3.046  0.1827  1.0212  0.2582
 1101SOL     OW 4122   0.479   0.115   0.114  0.2645 -0.1415 -0.1121
 1101SOL    HW1 4123   0.541   0.181   0.154 -2.8977  2.4638  0.9601
 1101SOL    HW2 4124   0.446   0.052   0.185  0.5950 -0.5846 -0.3509
 1102SOL     OW 4125   5.584   1.538   2.979  0.4180 -0.2388  0.1220
 1102SOL    HW1 4126   5.643   1.469   2.937  0.8295 -0.6339  1.2835
 1102SOL    HW2 4127   5.631   1.626   2.979 -0.9730  0.6602 -3.3737
 1103SOL     OW 4128   3.612   2.229   0.404 -0.3873  0.1603 -0.2108
 1103SOL    HW1 4129   3.630   2.130   0.406  0.0363  0.2393  0.8325
 1103SOL    HW2 4130   3.526   2.247   0.357 -0.5457 -0.7277 -0.2812
 1104SOL     OW 4131   0.795   5.305   0.947 -0.4786  0.1696  0.3598
 1104SOL    HW1 4132   0.765   5.382   0.891  0.5035 -0.1180 -0.5936
 1104SOL    HW2 4133   0.850   5.243   0.892  0.1538 -0.3639  1.5451
 1105SOL     OW 4134   0.538   5.317   0.614 -0.2811  0.2722  0.0707
 1105SOL    HW1 4135   0.612   5.380   0.588 -0.5440  1.0772  1.1738
 1105SOL    HW2 4136   0.532   5.313   0.714 -3.6473  2.5914  0.1105
 1106SOL     OW 4137   3.199   6.847   5.265 -0.4806  0.4356 -0.0156
 1106SOL    HW1 4138   3.274   6.808   5.319 -0.8377 -2.0452 -1.1921
 1106SOL    HW2 4139   3.197   6.946   5.278  2.3794  0.4738  0.8120
 1107SOL     OW 4140   4.128   6.719   4.696  0.0912  0.4539  0.0695
 1107SOL    HW1 4141   4.198   6.746   4.762  0.1835  0.2133  0.0738
 1107SOL    HW2 4142   4.077   6.641   4.732 -0.4270  0.8547  0.2291
 1108SOL     OW 4143   2.618   1.073   3.293  0.0837  0.1668  0.4475
 1108SOL    HW1 4144   2.678   1.151   3.277  0.6026  0.3877  2.9150
 1108SOL    HW2 4145   2.529   1.090   3.251  0.9032  1.0085 -1.0287
 1109SOL     OW 4146   4.186   2.223   0.208 -0.4230 -0.0593 -0.4969
 1109SOL    HW1 4147   4.267   2.274   0.237 -0.9402  0.7603 -0.4757
 1109SOL    HW2 4148   4.131   2.200   0.288 -0.6338  0.0943 -0.5979
 1110SOL     OW 4149   2.226   4.395   6.089 -0.3987 -0.0818  0.0403
 1110SOL    HW1 4150   2.304   4.375   6.030  1.4792  2.0180  1.6203
 1110SOL    HW2 4151   2.169   4.314   6.097  1.4828 -1.6477 -1.3805
 1111SOL     OW 4152   6.339   0.384   5.617 -0.3889 -0.5587 -0.6734
 1111SOL    HW1 4153   6.339   0.482   5.595  2.9230 -0.4154 -0.5584
 1111SOL    HW2 4154   6.320   0.372   5.714 -1.8925 -0.1717 -0.8836
 1112SOL     OW 4155   1.573   1.799   3.595 -0.7835  0.2665  0.3251
 1112SOL    HW1 4156   1.591   1.821   3.691  0.8180 -0.5488  0.2484
 1112SOL    HW2 4157   1.503   1.728   3.590 -2.2187  1.5970  0.7892
 1113SOL     OW 4158   6.812   0.744   2.617 -0.0877  0.1856 -0.6145
 1113SOL    HW1 4159   6.897   0.728   2.666 -0.7918 -0.4446  0.4297
 1113SOL    HW2 4160   6.785   0.661   2.569 -0.8198 -0.0498  0.1863
 1114SOL     OW 4161   5.343   4.802   6.049  0.2791 -0.1692  0.5888
 1114SOL    HW1 4162   5.394   4.717   6.032 -0.1067 -0.2416 -0.2842
 1114SOL    HW2 4163   5.251   4.794   6.013  0.2150  0.5953  0.5532
 1115SOL     OW 4164   0.371   4.302   1.314  0.1345  0.8705 -0.2017
 1115SOL    HW1 4165   0.298   4.251   1.268 -0.4356  2.1678 -0.8118
 1115SOL    HW2 4166   0.401   4.252   1.395  2.2977 -2.3398 -2.7296
 1116SOL     OW 4167   5.372   1.947   1.556 -0.2042  0.7312  0.4674
 1116SOL    HW1 4168   5.455   1.939   1.501 -1.1925 -0.5127 -0.9086
 1116SOL    HW2 4169   5.364   1.868   1.616 -0.2231  1.0267  0.8622
 1117SOL     OW 4170   6.758   2.468   6.253 -0.1048  0.5537  0.0143
 1117SOL    HW1 4171   6.688   2.453   6.184 -0.2111 -0.1056  0.2579
 1117SOL    HW2 4172   6.826   2.532   6.219 -0.1370  0.2108 -0.7165
 1118SOL     OW 4173   3.847   0.478   3.849 -1.0106 -0.4086  0.1748
 1118SOL    HW1 4174   3.911   0.504   3.921  2.2422  1.5503 -3.1428
 1118SOL    HW2 4175   3.845   0.378   3.842  1.2445 -0.5618  0.8180
 1119SOL     OW 4176   1.823   4.893   2.585 -0.2386  0.1081 -0.3577
 1119SOL    HW1 4177   1.840   4.799   2.616 -0.8663  0.1252  0.0666
 1119SOL    HW2 4178   1.910   4.939   2.569  0.0753 -0.5698 -0.6442
 1120SOL     OW 4179   4.791   6.248   5.904  0.1403  0.4861  0.1881
 1120SOL    HW1 4180   4.885   6.266   5.930  0.1369  0.7647  0.0074
 1120SOL    HW2 4181   4.788   6.213   5.810 -0.0490  1.8176 -0.3150
 1121SOL     OW 4182   2.312   4.669   2.851  0.2377 -0.4363 -0.1390
 1121SOL    HW1 4183   2.350   4.577   2.842  0.6916 -0.3685  0.9125
 1121SOL    HW2 4184   2.366   4.720   2.918 -0.7660  0.1935  0.2036
 1122SOL     OW 4185   4.552   2.526   1.516 -0.5689  0.3252 -0.4356
 1122SOL    HW1 4186   4.517   2.442   1.475 -1.8995  0.2830  0.7216
 1122SOL    HW2 4187   4.614   2.504   1.591  1.0555  0.4093 -1.6819
 1123SOL     OW 4188   2.277   2.363   0.749 -0.2702 -0.0021 -0.0903
 1123SOL    HW1 4189   2.247   2.459   0.745 -1.8589 -0.4688  0.1862
 1123SOL    HW2 4190   2.325   2.347   0.835 -0.7722  0.3377  0.2585
 1124SOL     OW 4191   1.044   2.154   2.013 -0.2899 -0.0207 -0.0907
 1124SOL    HW1 4192   0.975   2.197   1.956 -0.4395 -0.2743 -0.1057
 1124SOL    HW2 4193   1.060   2.209   2.095 -2.1738 -1.0663  1.0573
 1125SOL     OW 4194   2.271   4.740   1.816  0.2841  0.4424  0.8673
 1125SOL    HW1 4195   2.282   4.834   1.848  2.6804  0.6831 -0.5127
 1125SOL    HW2 4196   2.334   4.722   1.741 -2.3650 -1.3129 -1.1298
 1126SOL     OW 4197   3.427   6.858   1.204  0.2354 -0.0103 -0.4378
 1126SOL    HW1 4198   3.360   6.933   1.202  1.0788  0.7490 -0.5095
 1126SOL    HW2 4199   3.461   6.847   1.297 -0.3017 -0.6940 -0.3093
 1127SOL     OW 4200   1.964   6.602   3.687 -0.3347 -0.2582  0.2971
 1127SOL    HW1 4201   1.925   6.683   3.730 -1.0858  0.0943 -1.0051
 1127SOL    HW2 4202   1.988   6.535   3.758 -2.4952 -0.1284  1.1964
 1128SOL     OW 4203   0.281   4.300   5.049 -0.1155  0.8042 -0.4124
 1128SOL    HW1 4204   0.315   4.229   4.988  1.8657  1.2276  0.1276
 1128SOL    HW2 4205   0.202   4.265   5.100 -0.8735 -0.0420 -2.1087
 1129SOL     OW 4206   4.222   4.676   3.346  0.2924 -0.5988  0.3087
 1129SOL    HW1 4207   4.307   4.723   3.368  1.2454 -1.9312 -0.3835
 1129SOL    HW2 4208   4.171   4.727   3.277  0.3306  0.4125  1.0177
 1130SOL     OW 4209   1.246   0.111   3.924  0.1150  0.2979 -0.4477
 1130SOL    HW1 4210   1.212   0.039   3.863 -2.5990  0.2769  0.9563
 1130SOL    HW2 4211   1.206   0.199   3.898 -0.5464  0.4040  0.8873
 1131SOL     OW 4212   5.935   0.902   6.968 -0.1680  0.8675  0.3548
 1131SOL    HW1 4213   5.867   0.896   7.041  0.0009  1.6266  0.5656
 1131SOL    HW2 4214   5.923   0.826   6.904 -1.2346  0.9752  0.4031
 1132SOL     OW 4215   3.344   0.225   3.736 -0.3633  0.5021  0.2993
 1132SOL    HW1 4216   3.285   0.299   3.705 -2.0195 -1.0037 -0.3050
 1132SOL    HW2 4217   3.432   0.230   3.689 -0.7219  1.6421 -0.2824
 1133SOL     OW 4218   3.124   0.877   2.082  0.4342 -0.1562  0.3529
 1133SOL    HW1 4219   3.101   0.942   2.010  2.1703  0.5198  0.3542
 1133SOL    HW2 4220   3.046   0.816   2.099  0.0384 -0.4723 -2.2275
 1134SOL     OW 4221   1.369   2.992   2.298  0.1178 -0.2485 -0.3649
 1134SOL    HW1 4222   1.342   3.038   2.383 -0.6535 -1.9711  0.4062
 1134SOL    HW2 4223   1.335   3.042   2.219 -0.9459  0.3404  0.4401
 1135SOL     OW 4224   0.775   0.927   3.297  0.4101 -0.0030  0.2427
 1135SOL    HW1 4225   0.744   0.917   3.203 -0.1664 -2.8842  0.6345
 1135SOL    HW2 4226   0.874   0.918   3.301  0.3640 -0.6427 -0.0150
 1136SOL     OW 4227   0.234   5.639   2.707 -0.2133  0.5096 -0.0002
 1136SOL    HW1 4228   0.149   5.586   2.701 -0.1056  0.4581 -1.5620
 1136SOL    HW2 4229   0.303   5.585   2.754 -0.5505 -0.1451 -0.2418
 1137SOL     OW 4230   4.281   5.218   3.538 -0.0577 -0.3822 -0.0329
 1137SOL    HW1 4231   4.221   5.139   3.553 -1.1590  0.4817  0.2484
 1137SOL    HW2 4232   4.225   5.300   3.528  1.0396  0.2883 -0.9043
 1138SOL     OW 4233   3.491   6.236   3.113  0.0822 -0.2011  0.1569
 1138SOL    HW1 4234   3.429   6.298   3.066 -0.5049 -0.9612 -0.0986
 1138SOL    HW2 4235   3.530   6.171   3.048 -0.3846 -0.9711  0.6225
 1139SOL     OW 4236   6.597   4.419   1.686 -0.1662 -0.1665 -0.0551
 1139SOL    HW1 4237   6.686   4.410   1.731  0.3680 -0.2710 -1.0860
 1139SOL    HW2 4238   6.600   4.371   1.598 -1.6950 -1.3754  0.5097
 1140SOL     OW 4239   4.446   2.402   5.660 -0.1446 -0.4983  0.1617
 1140SOL    HW1 4240   4.418   2.385   5.565  0.2667 -3.3148  0.4731
 1140SOL    HW2 4241   4.492   2.491   5.666 -1.2951  0.3124 -1.9993
 1141SOL     OW 4242   2.719   0.336   1.813  0.2031 -0.5560  0.0522
 1141SOL    HW1 4243   2.799   0.381   1.773 -0.0630 -1.5284 -1.7024
 1141SOL    HW2 4244   2.718   0.239   1.787 -1.1814 -0.7256  0.6284
 1142SOL     OW 4245   6.777   5.275   3.628 -0.5855  0.6153  0.1318
 1142SOL    HW1 4246   6.874   5.276   3.651 -0.6617 -0.2882  0.5647
 1142SOL    HW2 4247   6.724   5.256   3.711 -1.2394  2.5138  0.1849
 1143SOL     OW 4248   1.636   5.413   2.833 -0.4601  0.1309  0.2441
 1143SOL    HW1 4249   1.685   5.329   2.811  0.1921 -0.4855  3.5101
 1143SOL    HW2 4250   1.545   5.411   2.792  0.3113 -1.1501 -1.5024
 1144SOL     OW 4251   1.441   0.097   1.005  0.9857  0.9300 -0.0449
 1144SOL    HW1 4252   1.490   0.146   0.933  1.0399 -0.1877 -0.8016
 1144SOL    HW2 4253   1.352   0.067   0.970  0.8647  0.6729  0.4678
 1145SOL     OW 4254   5.669   4.617   5.416  0.3095 -0.4939 -0.1766
 1145SOL    HW1 4255   5.750   4.600   5.471  1.6649 -0.5614 -2.0757
 1145SOL    HW2 4256   5.668   4.555   5.338 -0.6520  0.6530 -1.1223
 1146SOL     OW 4257   1.720   6.316   3.966  0.5717 -0.1398 -0.2506
 1146SOL    HW1 4258   1.770   6.302   3.881  0.3448  0.4615 -0.4870
 1146SOL    HW2 4259   1.639   6.372   3.949  0.8374  0.4803  0.4473
 1147SOL     OW 4260   6.348   4.186   5.339  0.0989  0.0094 -0.2682
 1147SOL    HW1 4261   6.305   4.175   5.429  1.9175 -2.1445  0.4628
 1147SOL    HW2 4262   6.424   4.121   5.331  0.9774  1.2122 -2.7990
 1148SOL     OW 4263   3.486   5.121   5.443 -0.0681 -0.5593  0.0769
 1148SOL    HW1 4264   3.459   5.216   5.454  0.2459 -0.4408 -0.1380
 1148SOL    HW2 4265   3.409   5.061   5.463 -0.0380 -0.2904  1.0466
 1149SOL     OW 4266   4.407   4.160   0.051  0.6945 -0.1040  0.4607
 1149SOL    HW1 4267   4.313   4.195   0.043 -0.2387 -2.6624 -0.7830
 1149SOL    HW2 4268   4.464   4.202  -0.019 -0.2068 -0.4436 -0.5155
 1150SOL     OW 4269   5.177   2.988   1.894 -0.1073 -0.0620  0.7709
 1150SOL    HW1 4270   5.214   2.993   1.987  0.1298 -2.2570  0.8507
 1150SOL    HW2 4271   5.080   2.964   1.898  0.4863 -2.9563  0.5286
 1151SOL     OW 4272   6.854   4.183   3.247 -0.0253 -0.0429 -0.0184
 1151SOL    HW1 4273   6.906   4.207   3.164 -0.2436  2.2699  0.4196
 1151SOL    HW2 4274   6.905   4.213   3.327 -1.3901  1.0738  0.4809
 1152SOL     OW 4275   3.750   1.710   4.796 -0.3776  0.3779 -0.1537
 1152SOL    HW1 4276   3.771   1.777   4.867 -0.8437  1.0266 -0.6162
 1152SOL    HW2 4277   3.701   1.633   4.837  1.0652 -0.1781  0.5597
 1153SOL     OW 4278   4.158   4.058   0.375  0.1651 -0.4138 -0.2561
 1153SOL    HW1 4279   4.212   4.097   0.449 -0.5415  1.2238 -0.5704
 1153SOL    HW2 4280   4.203   3.975   0.340  2.1114  0.5262 -0.0835
 1154SOL     OW 4281   0.382   4.069   3.134 -0.1576  0.0476 -0.0782
 1154SOL    HW1 4282   0.390   4.168   3.123  0.1882  0.0826  0.4526
 1154SOL    HW2 4283   0.451   4.023   3.078  1.7634  0.2252  2.0218
 1155SOL     OW 4284   1.805   3.026   5.975  0.0052 -0.0959 -0.0488
 1155SOL    HW1 4285   1.755   2.957   6.028  1.4271  0.7786  2.6272
 1155SOL    HW2 4286   1.799   3.114   6.022  1.7660  0.6428 -1.1263
 1156SOL     OW 4287   2.699   6.503   5.469  0.0054 -0.2296 -0.1090
 1156SOL    HW1 4288   2.664   6.437   5.404 -0.3491  0.8565 -1.0575
 1156SOL    HW2 4289   2.633   6.578   5.480 -0.0680 -0.5108  1.7061
 1157SOL     OW 4290   3.136   2.745   6.291  0.1065 -0.4453 -0.3763
 1157SOL    HW1 4291   3.166   2.701   6.206 -0.4878  0.6537 -1.1755
 1157SOL    HW2 4292   3.148   2.844   6.284 -0.7102 -0.2686  0.5153
 1158SOL     OW 4293   0.819   3.881   0.444  0.5683  0.0296  0.0630
 1158SOL    HW1 4294   0.792   3.785   0.452  0.6476  0.1637  2.9761
 1158SOL    HW2 4295   0.900   3.898   0.499  0.1600  1.9129  0.1544
 1159SOL     OW 4296   3.106   6.084   4.259  0.1369  0.0370 -0.0432
 1159SOL    HW1 4297   3.038   6.012   4.246  0.1996 -0.2476  1.1445
 1159SOL    HW2 4298   3.061   6.173   4.257 -1.1554 -0.2246  5.2491
 1160SOL     OW 4299   6.229   5.117   2.983 -0.3984 -0.1666 -0.5641
 1160SOL    HW1 4300   6.244   5.134   2.886 -3.0255  0.5426 -0.9327
 1160SOL    HW2 4301   6.182   5.030   2.995  0.6962 -0.6772  0.1688
 1161SOL     OW 4302   0.830   0.161   4.759  0.1382  0.4634 -0.5519
 1161SOL    HW1 4303   0.887   0.161   4.842  1.0086 -0.1170 -1.1306
 1161SOL    HW2 4304   0.735   0.177   4.784  0.3442  0.0101  0.5894
 1162SOL     OW 4305   6.274   2.991   2.275  0.0682  0.3556  0.1119
 1162SOL    HW1 4306   6.197   3.040   2.234  0.9407 -0.5388 -2.8243
 1162SOL    HW2 4307   6.239   2.917   2.333 -1.5093 -1.6685 -3.1005
 1163SOL     OW 4308   4.792   5.769   4.413  0.2673  0.2410 -0.3200
 1163SOL    HW1 4309   4.789   5.679   4.458 -0.2564  0.1713 -0.4844
 1163SOL    HW2 4310   4.782   5.758   4.315 -1.0250  0.5529 -0.2431
 1164SOL     OW 4311   0.824   2.903   1.342 -0.1024  0.0295  0.1732
 1164SOL    HW1 4312   0.760   2.932   1.414 -0.7438 -1.5853  0.3036
 1164SOL    HW2 4313   0.840   2.805   1.351  2.1685  0.3340 -0.0752
 1165SOL     OW 4314   6.364   4.741   4.269 -0.6825  0.0844 -0.6403
 1165SOL    HW1 4315   6.427   4.741   4.347 -1.0011 -0.8959 -0.3704
 1165SOL    HW2 4316   6.403   4.687   4.194  0.2066  2.0502 -1.6847
 1166SOL     OW 4317   1.395   4.529   3.512 -0.0676  0.3120  0.0053
 1166SOL    HW1 4318   1.322   4.596   3.516  0.3927  0.7670  1.0277
 1166SOL    HW2 4319   1.450   4.533   3.595  0.6628 -0.5476 -0.4089
 1167SOL     OW 4320   5.119   1.258   0.676 -0.4390 -0.0909 -0.1094
 1167SOL    HW1 4321   5.186   1.331   0.676 -0.4265 -0.0946 -0.2853
 1167SOL    HW2 4322   5.026   1.297   0.677 -0.4429 -0.0893  0.5710
 1168SOL     OW 4323   3.965   1.762   5.520 -0.1527  0.3572  0.0655
 1168SOL    HW1 4324   4.023   1.842   5.536 -1.4070  1.1425  0.9727
 1168SOL    HW2 4325   4.020   1.686   5.486  0.9420  1.8513 -1.6416
 1169SOL     OW 4326   3.062   2.637   1.031 -0.4983  0.4616  0.3360
 1169SOL    HW1 4327   3.010   2.639   0.946 -0.0094 -0.8643 -0.0135
 1169SOL    HW2 4328   3.089   2.730   1.056 -1.4289  0.9578 -0.4621
 1170SOL     OW 4329   6.593   5.131   1.859 -0.2681  0.5233 -0.2727
 1170SOL    HW1 4330   6.607   5.052   1.800  2.0946  0.4900  0.2474
 1170SOL    HW2 4331   6.556   5.102   1.947 -0.9952  0.2438 -0.6525
 1171SOL     OW 4332   5.938   0.631   1.552 -0.4084 -0.4024  0.1205
 1171SOL    HW1 4333   5.950   0.714   1.606  1.5250 -0.1957 -0.5277
 1171SOL    HW2 4334   5.869   0.573   1.596  1.8536 -0.8389  3.6152
 1172SOL     OW 4335   0.202   1.653   0.611  0.4619 -0.1367 -0.0948
 1172SOL    HW1 4336   0.202   1.600   0.696  0.6410 -0.7444 -0.4680
 1172SOL    HW2 4337   0.281   1.715   0.611  1.0055 -0.8243 -0.2461
 1173SOL     OW 4338   1.862   4.814   6.052 -0.3089 -0.1328 -0.0073
 1173SOL    HW1 4339   1.923   4.796   5.975 -0.9469 -0.8174 -0.3712
 1173SOL    HW2 4340   1.781   4.755   6.044 -1.1775  0.9951  0.2736
 1174SOL     OW 4341   2.182   2.169   4.387  0.6184  0.2714  0.0702
 1174SOL    HW1 4342   2.160   2.258   4.428  0.0420 -0.8634  2.4360
 1174SOL    HW2 4343   2.098   2.122   4.362  0.8560 -0.0719 -0.0987
 1175SOL     OW 4344   5.217   0.401   3.785  0.0897  0.1681 -0.5533
 1175SOL    HW1 4345   5.295   0.382   3.725 -0.0187  0.9467 -0.9537
 1175SOL    HW2 4346   5.134   0.361   3.746  0.1516  0.0293 -0.5435
 1176SOL     OW 4347   4.733   4.812   1.958  0.5909  0.4823 -0.0323
 1176SOL    HW1 4348   4.771   4.745   1.895 -0.8148  0.4797 -0.9462
 1176SOL    HW2 4349   4.760   4.904   1.930  0.4078  0.4505 -0.3071
 1177SOL     OW 4350   3.453   1.546   5.489 -0.1656 -0.2840  0.2933
 1177SOL    HW1 4351   3.462   1.645   5.483 -0.0414 -0.3381 -0.4351
 1177SOL    HW2 4352   3.444   1.507   5.397 -4.3671 -0.5590  0.6397
 1178SOL     OW 4353   4.437   3.976   1.874 -0.1825 -0.4632 -0.2314
 1178SOL    HW1 4354   4.423   4.037   1.952 -0.9937 -1.3967  0.3684
 1178SOL    HW2 4355   4.511   4.012   1.817 -0.3301  0.8281  0.3541
 1179SOL     OW 4356   0.042   2.492   6.519  0.1296  0.2044 -0.3869
 1179SOL    HW1 4357   0.069   2.547   6.440  2.4729  1.4901  1.1632
 1179SOL    HW2 4358   0.004   2.551   6.590 -0.1253 -0.6212  0.1662
 1180SOL     OW 4359   0.121   2.061   3.404  0.5253 -0.5116 -0.1452
 1180SOL    HW1 4360   0.080   2.050   3.495 -0.0456 -1.0101 -0.4483
 1180SOL    HW2 4361   0.137   1.971   3.364  0.3921 -0.2889 -0.7027
 1181SOL     OW 4362   6.326   3.461   3.556 -0.3014  0.0508 -0.4984
 1181SOL    HW1 4363   6.275   3.523   3.495  0.1602  1.0833  0.1354
 1181SOL    HW2 4364   6.403   3.421   3.506  0.9042  1.9633 -0.2680
 1182SOL     OW 4365   6.399   4.659   0.371  0.1194  0.0942 -0.2527
 1182SOL    HW1 4366   6.494   4.689   0.379 -0.2441  1.3317 -0.3108
 1182SOL    HW2 4367   6.372   4.658   0.275  0.2606 -0.9134 -0.2925
 1183SOL     OW 4368   6.020   6.019   3.388 -0.1587  0.6194 -0.0649
 1183SOL    HW1 4369   6.119   6.019   3.376  0.3279 -2.6962  2.4965
 1183SOL    HW2 4370   5.977   5.981   3.306  0.8171  0.5398 -0.5576
 1184SOL     OW 4371   2.647   3.033   5.316  0.0338 -0.8422  0.6613
 1184SOL    HW1 4372   2.740   3.056   5.290 -0.4633  1.1834  0.5140
 1184SOL    HW2 4373   2.646   2.998   5.410  1.0587 -2.0829  0.2306
 1185SOL     OW 4374   6.538   0.387   1.159 -0.1340 -0.1350  0.2484
 1185SOL    HW1 4375   6.450   0.388   1.207 -0.5829 -0.2930 -0.5322
 1185SOL    HW2 4376   6.543   0.305   1.101  0.3738  0.0647 -0.0052
 1186SOL     OW 4377   3.780   5.005   2.921  0.6860  0.2836  0.5472
 1186SOL    HW1 4378   3.742   5.058   2.845  1.3725  2.6271  1.7744
 1186SOL    HW2 4379   3.705   4.971   2.978  0.1952 -0.9341 -0.7452
 1187SOL     OW 4380   0.584   6.272   6.750 -0.0676 -0.4944  0.1235
 1187SOL    HW1 4381   0.645   6.351   6.738  0.7793 -1.0958  0.4058
 1187SOL    HW2 4382   0.632   6.200   6.798 -0.8207 -1.2174 -0.1884
 1188SOL     OW 4383   1.902   4.705   4.888  0.3485  0.7451  0.2317
 1188SOL    HW1 4384   2.000   4.688   4.875  0.1164  0.0179 -0.6840
 1188SOL    HW2 4385   1.873   4.780   4.828 -0.0134 -0.2859 -0.9376
 1189SOL     OW 4386   5.423   6.745   0.214 -0.5376 -0.4260  0.2837
 1189SOL    HW1 4387   5.399   6.813   0.284 -1.9350 -0.2267 -0.3595
 1189SOL    HW2 4388   5.515   6.764   0.180 -1.2044  1.7233 -0.4992
 1190SOL     OW 4389   1.783   0.419   0.723 -0.2197 -0.5975  0.1800
 1190SOL    HW1 4390   1.794   0.365   0.806  3.2800 -0.4395 -0.0305
 1190SOL    HW2 4391   1.782   0.359   0.643  2.7345 -0.6054  0.0142
 1191SOL     OW 4392   2.131   1.603   4.546  0.0044 -0.2389 -0.1760
 1191SOL    HW1 4393   2.221   1.622   4.508 -0.7704  1.8504 -1.0881
 1191SOL    HW2 4394   2.079   1.545   4.483 -0.0613  0.3472 -0.6579
 1192SOL     OW 4395   2.359   3.228   6.548  0.3046  0.1018  0.4986
 1192SOL    HW1 4396   2.433   3.161   6.541 -0.2599 -0.4367 -0.6130
 1192SOL    HW2 4397   2.378   3.290   6.624  2.1192  0.2419 -0.0040
 1193SOL     OW 4398   3.176   4.025   0.465 -0.5000  0.3166  0.0321
 1193SOL    HW1 4399   3.137   3.933   0.467  1.2832 -0.5640 -1.8163
 1193SOL    HW2 4400   3.105   4.092   0.487 -1.8934 -1.4653  1.1666
 1194SOL     OW 4401   1.653   6.183   0.534  0.2973 -0.2294  0.4496
 1194SOL    HW1 4402   1.642   6.204   0.631  1.7184 -0.4758  0.7034
 1194SOL    HW2 4403   1.616   6.258   0.479 -1.3489 -0.5010  1.1335
 1195SOL     OW 4404   3.829   0.391   6.207 -0.8241  0.2106  0.3923
 1195SOL    HW1 4405   3.912   0.439   6.179  0.4751 -0.2715  3.1069
 1195SOL    HW2 4406   3.844   0.292   6.200 -1.0882  0.1188  1.0114
 1196SOL     OW 4407   0.557   6.018   3.435 -0.5877 -0.3399 -0.1519
 1196SOL    HW1 4408   0.460   6.015   3.409 -0.6850 -0.9019  0.2504
 1196SOL    HW2 4409   0.596   5.927   3.427 -1.0795 -1.0165  3.2503
 1197SOL     OW 4410   5.895   5.638   3.639  0.2874 -0.6068  0.3819
 1197SOL    HW1 4411   5.840   5.602   3.714 -2.0937  2.4548  0.2382
 1197SOL    HW2 4412   5.980   5.677   3.676  0.3852 -1.4835  1.1216
 1198SOL     OW 4413   2.164   2.108   1.171  0.1166  0.9212 -0.0188
 1198SOL    HW1 4414   2.249   2.152   1.199 -0.6353  2.7688 -0.5008
 1198SOL    HW2 4415   2.087   2.164   1.201 -0.9091 -0.2614 -0.3650
 1199SOL     OW 4416   2.866   6.546   5.215 -0.1582  0.5639  0.1207
 1199SOL    HW1 4417   2.788   6.502   5.259 -0.1778 -0.9986 -1.3884
 1199SOL    HW2 4418   2.948   6.529   5.270 -0.3214 -0.6238  0.0272
 1200SOL     OW 4419   1.514   3.174   4.733  0.7014  0.1037 -0.7708
 1200SOL    HW1 4420   1.577   3.237   4.687  3.1849 -0.1715  1.9523
 1200SOL    HW2 4421   1.504   3.091   4.678  0.6759  1.1524 -2.4328
 1201SOL     OW 4422   0.253   5.123   2.450 -0.0006  0.0341 -0.0042
 1201SOL    HW1 4423   0.342   5.080   2.438  0.4430  1.2284 -1.0792
 1201SOL    HW2 4424   0.182   5.063   2.412  0.4529 -0.3750 -0.2169
 1202SOL     OW 4425   4.336   4.450   1.196 -0.9708  0.0761 -0.1933
 1202SOL    HW1 4426   4.333   4.476   1.293  0.1900  1.1306 -0.4207
 1202SOL    HW2 4427   4.289   4.362   1.184  1.0548 -1.4024  1.7444
 1203SOL     OW 4428   2.846   5.775   4.324  0.3752  0.6148  0.2910
 1203SOL    HW1 4429   2.813   5.819   4.407 -2.7280  0.3644 -0.6770
 1203SOL    HW2 4430   2.784   5.701   4.298  1.9777 -0.1903 -1.5367
 1204SOL     OW 4431   1.005   2.172   3.604 -0.3265  0.1175  0.4278
 1204SOL    HW1 4432   0.907   2.187   3.596 -0.2856  0.7226  1.0373
 1204SOL    HW2 4433   1.035   2.194   3.696  0.2367 -0.9030  0.5067
 1205SOL     OW 4434   0.352   5.717   5.775 -0.0181 -0.1224  1.1857
 1205SOL    HW1 4435   0.441   5.749   5.742 -0.1959 -1.0126 -0.2205
 1205SOL    HW2 4436   0.282   5.785   5.754 -0.1305 -0.6744 -0.3444
 1206SOL     OW 4437   0.099   3.119   0.578  0.1005 -0.2088  0.3246
 1206SOL    HW1 4438   0.087   3.171   0.493 -0.4724 -2.1713 -0.8476
 1206SOL    HW2 4439   0.010   3.096   0.616  0.2802 -1.6162 -0.0350
 1207SOL     OW 4440   6.942   0.487   3.655  0.6146  0.2359  0.1738
 1207SOL    HW1 4441   7.028   0.538   3.664 -0.2180  1.9972 -1.2799
 1207SOL    HW2 4442   6.866   0.551   3.642 -0.8016 -1.3218  0.4173
 1208SOL     OW 4443   6.033   0.181   2.642 -0.1076 -0.0612 -0.3469
 1208SOL    HW1 4444   6.123   0.224   2.629  0.8626 -1.8455  0.1800
 1208SOL    HW2 4445   5.981   0.233   2.710  0.4969  1.0056 -0.6748
 1209SOL     OW 4446   3.390   0.503   6.369 -0.4879 -0.0109 -0.4429
 1209SOL    HW1 4447   3.354   0.411   6.350  0.1272 -0.1683 -0.8942
 1209SOL    HW2 4448   3.488   0.505   6.346 -0.1299  0.3188  1.0285
 1210SOL     OW 4449   5.093   3.085   1.446 -0.1421 -0.1035  0.1438
 1210SOL    HW1 4450   5.084   3.115   1.351 -0.6621  0.6679  0.4237
 1210SOL    HW2 4451   5.133   2.994   1.449 -2.2386 -1.1121 -0.9343
 1211SOL     OW 4452   6.127   2.850   6.154 -0.0251  0.2207 -0.3590
 1211SOL    HW1 4453   6.028   2.856   6.141  0.0707  0.1135 -1.1760
 1211SOL    HW2 4454   6.147   2.779   6.223 -0.6472  2.1888  1.9810
 1212SOL     OW 4455   4.212   4.275   2.391 -0.7804  0.0463 -0.0705
 1212SOL    HW1 4456   4.146   4.217   2.342 -0.4324  0.1540 -0.6818
 1212SOL    HW2 4457   4.294   4.288   2.334 -0.4123  0.2662  0.5001
 1213SOL     OW 4458   5.323   5.060   4.965 -0.3626 -0.5212 -0.3407
 1213SOL    HW1 4459   5.351   4.985   5.025 -0.7170 -0.2812  0.1273
 1213SOL    HW2 4460   5.223   5.057   4.952 -0.6659  1.0285  1.2749
 1214SOL     OW 4461   1.413   4.182   5.589 -0.2159 -0.4055 -0.3015
 1214SOL    HW1 4462   1.466   4.126   5.525  1.4435 -1.3438  1.8006
 1214SOL    HW2 4463   1.475   4.238   5.644 -1.6044  0.5717  0.3311
 1215SOL     OW 4464   5.367   0.106   3.800  0.0415 -0.0454 -0.0593
 1215SOL    HW1 4465   5.462   0.136   3.795  0.2553 -0.3346  1.8234
 1215SOL    HW2 4466   5.311   0.177   3.842 -0.4944 -0.0864 -0.6798
 1216SOL     OW 4467   3.163   3.986   4.112  0.4192 -0.1700  0.0084
 1216SOL    HW1 4468   3.120   3.967   4.201  0.3060  0.1443  0.0213
 1216SOL    HW2 4469   3.093   3.990   4.041  0.4446  0.1611 -0.0012
 1217SOL     OW 4470   4.836   1.538   3.911 -0.8702  0.1674 -0.1198
 1217SOL    HW1 4471   4.815   1.462   3.850  0.2913  0.8747 -1.4724
 1217SOL    HW2 4472   4.860   1.502   4.002  0.7603 -1.2039 -1.0273
 1218SOL     OW 4473   5.435   6.215   2.568  0.0037  0.0558  0.5723
 1218SOL    HW1 4474   5.360   6.149   2.572  0.0944 -0.1215 -0.3960
 1218SOL    HW2 4475   5.523   6.166   2.571  0.0716  0.0984 -0.3798
 1219SOL     OW 4476   4.756   0.111   5.411  0.1568 -0.0179  0.3602
 1219SOL    HW1 4477   4.797   0.028   5.373 -0.6013  0.0485 -0.6475
 1219SOL    HW2 4478   4.823   0.158   5.468  2.1486  0.9566 -2.5226
 1220SOL     OW 4479   6.035   0.034   2.422  0.6562  0.3771  0.5023
 1220SOL    HW1 4480   6.043   0.091   2.504  1.3911  0.0211  0.6804
 1220SOL    HW2 4481   6.119   0.041   2.368  0.8524 -0.7213  0.6382
 1221SOL     OW 4482   5.463   4.984   2.238 -0.3515 -0.3365  1.2843
 1221SOL    HW1 4483   5.534   4.947   2.178 -0.7482  1.0431 -0.0863
 1221SOL    HW2 4484   5.504   5.043   2.307 -0.0139 -1.0130  1.6861
 1222SOL     OW 4485   1.174   1.603   2.438 -0.6939  0.8886 -0.4516
 1222SOL    HW1 4486   1.242   1.575   2.370  0.0234 -0.0497  0.6137
 1222SOL    HW2 4487   1.095   1.644   2.391 -0.4081 -0.0943 -1.8798
 1223SOL     OW 4488   1.752   1.828   4.913 -0.3078  0.9172  1.0600
 1223SOL    HW1 4489   1.824   1.759   4.914  0.4396  1.6693  0.9012
 1223SOL    HW2 4490   1.695   1.817   4.995 -0.9196 -0.5900  0.4651
 1224SOL     OW 4491   4.354   3.508   5.161  0.2621 -0.2231  0.6808
 1224SOL    HW1 4492   4.255   3.509   5.147  0.1907 -0.0617  1.1606
 1224SOL    HW2 4493   4.381   3.420   5.200  0.1993  0.0155  1.2763
 1225SOL     OW 4494   3.324   3.493   0.182 -0.1339  0.1542  0.1255
 1225SOL    HW1 4495   3.269   3.547   0.119 -0.0374 -1.1011 -1.0604
 1225SOL    HW2 4496   3.270   3.417   0.217  1.2811 -2.3761 -2.6749
 1226SOL     OW 4497   3.862   1.263   3.542  0.5798  0.0981  0.1592
 1226SOL    HW1 4498   3.792   1.331   3.562  0.8014  0.2043  0.5902
 1226SOL    HW2 4499   3.948   1.289   3.586  0.7680 -0.2694  0.0191
 1227SOL     OW 4500   4.565   0.227   0.034  0.2499 -0.0314 -0.3166
 1227SOL    HW1 4501   4.636   0.293   0.010 -1.3675  1.9073  0.0445
 1227SOL    HW2 4502   4.601   0.163   0.102  1.5170  1.2455  0.2630
 1228SOL     OW 4503   1.366   3.913   3.406  0.2224  0.5634 -0.3147
 1228SOL    HW1 4504   1.426   3.984   3.371  1.6285  0.3141  1.4448
 1228SOL    HW2 4505   1.300   3.953   3.469 -1.7967  0.8929 -2.4883
 1229SOL     OW 4506   6.164   4.693   3.922 -0.4781 -0.3145  0.1285
 1229SOL    HW1 4507   6.093   4.698   3.852 -1.4956  0.4961  1.1762
 1229SOL    HW2 4508   6.250   4.728   3.886  0.3298 -4.1429 -2.1872
 1230SOL     OW 4509   5.224   5.725   4.644  0.1297 -0.4970 -0.5063
 1230SOL    HW1 4510   5.324   5.730   4.638  0.1313  2.5135  0.5675
 1230SOL    HW2 4511   5.186   5.717   4.552  1.3199 -0.0318 -1.0635
 1231SOL     OW 4512   1.980   2.628   0.766 -0.3197 -0.2044 -0.2012
 1231SOL    HW1 4513   2.054   2.686   0.801  1.7751 -3.6588  1.6209
 1231SOL    HW2 4514   1.994   2.612   0.668 -0.1890  1.2193 -0.4377
 1232SOL     OW 4515   2.290   1.567   2.537  0.0942  0.3343 -0.2326
 1232SOL    HW1 4516   2.291   1.628   2.616 -2.1105  0.8247 -0.5199
 1232SOL    HW2 4517   2.350   1.603   2.466  0.2722  1.1430  0.3115
 1233SOL     OW 4518   3.283   5.730   5.907  0.0878 -0.2019 -0.1397
 1233SOL    HW1 4519   3.210   5.765   5.966  0.2982  1.3556 -0.7439
 1233SOL    HW2 4520   3.247   5.717   5.814  0.2579 -0.7156 -0.1361
 1234SOL     OW 4521   1.485   6.853   4.410 -0.2059  0.4311 -0.5357
 1234SOL    HW1 4522   1.480   6.923   4.339 -1.1698  0.5552 -0.3542
 1234SOL    HW2 4523   1.409   6.864   4.474 -0.2913 -0.6830 -0.4135
 1235SOL     OW 4524   1.668   5.898   4.722 -0.3262  0.0301  0.5288
 1235SOL    HW1 4525   1.692   5.815   4.672 -0.5381 -0.0671  0.5909
 1235SOL    HW2 4526   1.609   5.956   4.665 -1.0431 -0.3392  0.8695
 1236SOL     OW 4527   0.019   6.155   0.941 -0.2586  0.2598  0.1501
 1236SOL    HW1 4528  -0.041   6.217   0.992 -0.5403  0.4796 -0.4699
 1236SOL    HW2 4529  -0.017   6.144   0.848  0.4465  0.0766 -0.0995
 1237SOL     OW 4530   3.513   0.726   4.762 -0.4695  0.0859  0.0093
 1237SOL    HW1 4531   3.491   0.714   4.859 -4.6891  2.9699 -0.3243
 1237SOL    HW2 4532   3.543   0.820   4.746  1.9119 -0.8232 -1.3397
 1238SOL     OW 4533   6.100   1.246   1.229 -0.5799 -0.8658  0.3806
 1238SOL    HW1 4534   6.117   1.265   1.132  3.3149 -1.0071  0.8932
 1238SOL    HW2 4535   6.083   1.148   1.241  1.5046 -1.3062  0.0580
 1239SOL     OW 4536   3.685   3.372   2.531 -0.0016 -0.5099  0.2865
 1239SOL    HW1 4537   3.594   3.409   2.548  0.4632  0.4303  0.8329
 1239SOL    HW2 4538   3.749   3.411   2.598  0.6772 -1.6415  0.3205
 1240SOL     OW 4539   1.347   1.529   1.050  0.7267 -0.1991 -0.2158
 1240SOL    HW1 4540   1.322   1.474   1.130  1.4400 -1.6088 -0.9305
 1240SOL    HW2 4541   1.308   1.621   1.059 -0.6582 -0.8661  0.9211
 1241SOL     OW 4542   5.328   6.900   2.579 -0.2889 -0.5289 -0.3040
 1241SOL    HW1 4543   5.377   6.882   2.493 -1.7897 -1.1972 -1.0566
 1241SOL    HW2 4544   5.361   6.836   2.649 -0.0483 -0.9292 -0.7696
 1242SOL     OW 4545   4.934   2.044   0.841 -0.1698  0.2988 -0.5970
 1242SOL    HW1 4546   5.031   2.033   0.863  0.0305  0.6388 -1.2482
 1242SOL    HW2 4547   4.914   2.000   0.754 -1.4135 -3.0156  1.1917
 1243SOL     OW 4548   0.719   2.081   2.266  0.4002 -0.7728  0.2338
 1243SOL    HW1 4549   0.724   2.158   2.203  0.6885 -0.0521  1.1132
 1243SOL    HW2 4550   0.727   1.996   2.214  3.5182 -0.1666 -0.4603
 1244SOL     OW 4551   2.035   0.472   5.318 -1.3315 -0.0948  0.1745
 1244SOL    HW1 4552   2.013   0.451   5.223 -1.7226  1.1839 -0.0488
 1244SOL    HW2 4553   1.965   0.532   5.356 -1.0458 -0.3900  1.2056
 1245SOL     OW 4554   0.386   5.165   3.143 -0.1543 -0.2074 -0.1227
 1245SOL    HW1 4555   0.318   5.232   3.173 -1.8615 -1.9766  0.1297
 1245SOL    HW2 4556   0.475   5.188   3.181 -0.3229  2.7205 -1.2258
 1246SOL     OW 4557   5.630   5.179   2.407 -1.1273 -0.2525 -0.1434
 1246SOL    HW1 4558   5.587   5.258   2.451 -1.5772 -1.0159  0.8270
 1246SOL    HW2 4559   5.645   5.107   2.475  4.5877  1.0203  0.5055
 1247SOL     OW 4560   2.974   2.802   1.439  0.4920 -0.2876  0.2737
 1247SOL    HW1 4561   2.925   2.804   1.352  3.1394 -0.3910 -1.3367
 1247SOL    HW2 4562   2.979   2.708   1.472  1.2359 -0.5677 -0.5879
 1248SOL     OW 4563   0.202   3.668   2.410  0.3102  0.6751 -0.0066
 1248SOL    HW1 4564   0.173   3.763   2.419 -2.6855 -0.0650 -1.0628
 1248SOL    HW2 4565   0.136   3.608   2.456  0.8404 -1.0683 -1.4068
 1249SOL     OW 4566   2.184   3.540   0.173  0.0854  0.1144 -0.0613
 1249SOL    HW1 4567   2.282   3.561   0.174 -0.2486  1.8773  1.9021
 1249SOL    HW2 4568   2.136   3.606   0.114 -0.0166 -0.2373 -0.3770
 1250SOL     OW 4569   6.548   5.452   3.492 -0.4281 -0.3907 -0.2478
 1250SOL    HW1 4570   6.608   5.388   3.541 -0.6196 -1.0211 -0.8308
 1250SOL    HW2 4571   6.563   5.443   3.394 -0.2763  0.6484 -0.3401
 1251SOL     OW 4572   0.281   2.121   5.771 -0.2828  0.4549 -0.0546
 1251SOL    HW1 4573   0.291   2.097   5.867 -1.6867 -1.5465 -0.3403
 1251SOL    HW2 4574   0.351   2.188   5.745 -0.4119  1.6920  2.5271
 1252SOL     OW 4575   0.788   4.217   1.360 -0.5004  0.0894 -1.0052
 1252SOL    HW1 4576   0.859   4.167   1.310  1.5164 -0.2491  1.9393
 1252SOL    HW2 4577   0.720   4.153   1.396  1.5392 -0.6428  1.9144
 1253SOL     OW 4578   1.364   4.276   1.489 -0.4730 -0.1809  0.0161
 1253SOL    HW1 4579   1.339   4.350   1.551 -3.1017 -1.7011  0.9352
 1253SOL    HW2 4580   1.366   4.311   1.395  0.4683  1.4695  0.6161
 1254SOL     OW 4581   3.083   4.666   0.120  0.9150  0.0390  0.4224
 1254SOL    HW1 4582   3.074   4.668   0.220  0.9794 -1.8616  0.5008
 1254SOL    HW2 4583   3.069   4.572   0.087  2.6516  0.2845 -1.1714
 1255SOL     OW 4584   4.000   0.363   1.332 -0.4952 -0.2014 -0.2240
 1255SOL    HW1 4585   3.906   0.361   1.363 -0.0250 -1.0138  1.2532
 1255SOL    HW2 4586   4.016   0.287   1.269 -0.0806 -2.1429  2.0466
 1256SOL     OW 4587   0.476   3.108   0.781 -0.2187 -0.1166 -0.8149
 1256SOL    HW1 4588   0.574   3.105   0.763 -0.1847  0.1064 -0.6773
 1256SOL    HW2 4589   0.427   3.058   0.709  0.1963 -2.9905  0.7820
 1257SOL     OW 4590   0.021   2.918   1.761 -0.3409  0.2587 -0.0706
 1257SOL    HW1 4591   0.060   3.000   1.802 -1.4215  0.7881 -0.0634
 1257SOL    HW2 4592   0.080   2.886   1.686  0.1780  0.9262  0.0460
 1258SOL     OW 4593   0.313   5.256   5.534  0.1004  0.6989 -0.1036
 1258SOL    HW1 4594   0.314   5.318   5.613 -0.8758  1.8168 -0.9163
 1258SOL    HW2 4595   0.218   5.239   5.507  0.3705 -0.9218 -0.0903
 1259SOL     OW 4596   4.459   3.076   0.780 -0.3760 -0.0800 -0.0145
 1259SOL    HW1 4597   4.476   3.084   0.878 -0.5702 -0.7316  0.0825
 1259SOL    HW2 4598   4.389   3.142   0.753 -0.1346  0.2830  0.2311
 1260SOL     OW 4599   0.869   6.246   2.674 -0.3420 -0.3759  0.0605
 1260SOL    HW1 4600   0.779   6.212   2.700 -1.0955  2.7604  2.0522
 1260SOL    HW2 4601   0.862   6.297   2.588 -0.3082 -0.7647 -0.1731
 1261SOL     OW 4602   2.740   1.582   0.745 -0.5267 -0.1879 -0.6896
 1261SOL    HW1 4603   2.818   1.582   0.807  0.1001 -1.1423 -1.4388
 1261SOL    HW2 4604   2.713   1.487   0.726 -1.7716  0.1126 -0.5807
 1262SOL     OW 4605   5.729   0.414   6.554 -0.1531 -0.4891  0.1758
 1262SOL    HW1 4606   5.673   0.441   6.632 -1.8204 -0.8487 -0.8598
 1262SOL    HW2 4607   5.825   0.407   6.583 -0.4162  1.3680  1.6834
 1263SOL     OW 4608   4.299   4.420   5.514  0.6360 -0.5193 -0.3313
 1263SOL    HW1 4609   4.390   4.457   5.496 -0.3612  1.8302 -0.9129
 1263SOL    HW2 4610   4.234   4.460   5.449 -1.5087  1.0064  2.5527
 1264SOL     OW 4611   5.814   4.511   3.951  0.3088 -0.0754 -0.3600
 1264SOL    HW1 4612   5.874   4.438   3.981  0.1986 -0.2358 -0.5263
 1264SOL    HW2 4613   5.843   4.598   3.991 -0.0210 -0.3372  0.4483
 1265SOL     OW 4614   4.064   3.497   5.211 -0.2128  0.1644 -0.3319
 1265SOL    HW1 4615   3.984   3.528   5.159  0.5282 -0.4709 -1.8954
 1265SOL    HW2 4616   4.063   3.540   5.301 -1.6530  1.1267 -0.7661
 1266SOL     OW 4617   2.858   1.705   6.697 -0.3078 -0.1377 -0.1297
 1266SOL    HW1 4618   2.761   1.691   6.676 -0.2769 -0.5141 -0.0479
 1266SOL    HW2 4619   2.901   1.616   6.714  0.4653 -0.1466 -1.9067
 1267SOL     OW 4620   6.393   3.370   6.554 -0.7088 -0.2293  0.0602
 1267SOL    HW1 4621   6.460   3.397   6.486  0.1943  0.2472  1.1071
 1267SOL    HW2 4622   6.430   3.387   6.646 -2.1130 -0.3008  0.6639
 1268SOL     OW 4623   3.544   0.565   5.681 -0.0798 -0.5223 -0.5474
 1268SOL    HW1 4624   3.588   0.566   5.591 -2.0294 -0.4299 -1.5811
 1268SOL    HW2 4625   3.544   0.657   5.719  0.8586 -0.5786 -0.3848
 1269SOL     OW 4626   5.893   0.261   1.809  0.1469  0.0844 -0.0236
 1269SOL    HW1 4627   5.992   0.257   1.796  0.0062 -0.3916 -1.0600
 1269SOL    HW2 4628   5.854   0.170   1.798 -0.4162  0.2679  0.3583
 1270SOL     OW 4629   7.010   0.846   1.114 -0.4482 -0.0416  1.0117
 1270SOL    HW1 4630   6.919   0.886   1.099 -1.1274 -1.0725  2.2206
 1270SOL    HW2 4631   7.036   0.859   1.210  1.0801  1.0452  0.4717
 1271SOL     OW 4632   3.354   2.790   4.186  0.5366  0.1958  0.3077
 1271SOL    HW1 4633   3.263   2.779   4.227  0.4998 -0.8344 -0.0295
 1271SOL    HW2 4634   3.422   2.804   4.258  0.1914  0.3823  0.5990
 1272SOL     OW 4635   5.343   6.931   1.300  0.7834  0.2972  0.9115
 1272SOL    HW1 4636   5.363   6.834   1.317 -1.7901 -0.0867  2.1429
 1272SOL    HW2 4637   5.356   6.983   1.385  0.0966  0.6500  0.8044
 1273SOL     OW 4638   1.708   1.730   0.119  0.8482 -0.1415 -0.0664
 1273SOL    HW1 4639   1.610   1.733   0.140  0.0633  0.5932 -3.2191
 1273SOL    HW2 4640   1.755   1.674   0.188 -1.5679  0.2986  2.1071
 1274SOL     OW 4641   2.239   3.384   2.718  0.3846  0.1192  0.0821
 1274SOL    HW1 4642   2.253   3.441   2.798 -1.0450  1.2764 -0.4541
 1274SOL    HW2 4643   2.327   3.357   2.679  1.1970  3.3252 -0.6157
 1275SOL     OW 4644   1.120   1.474   3.121 -0.2106  0.2118 -0.5092
 1275SOL    HW1 4645   1.146   1.386   3.161  0.1389  0.6173  0.1704
 1275SOL    HW2 4646   1.051   1.518   3.178 -0.5576  0.2757 -0.9721
 1276SOL     OW 4647   2.465   3.076   1.215  0.0964 -0.7612  1.1079
 1276SOL    HW1 4648   2.496   3.129   1.294 -0.5307 -1.7599  2.0668
 1276SOL    HW2 4649   2.371   3.046   1.230 -0.4119 -0.0633 -0.5302
 1277SOL     OW 4650   7.011   2.314   3.655  0.1667 -0.0060  0.1625
 1277SOL    HW1 4651   7.001   2.215   3.664  1.0685 -0.5592 -3.5449
 1277SOL    HW2 4652   6.926   2.352   3.619  1.0031 -0.0838 -2.0270
 1278SOL     OW 4653   6.100   6.819   2.551  0.4229  0.1701  0.4143
 1278SOL    HW1 4654   6.091   6.729   2.510 -0.2581 -0.4373  1.8447
 1278SOL    HW2 4655   6.053   6.887   2.495 -1.0323 -0.7365  0.4871
 1279SOL     OW 4656   3.720   2.347   0.854  0.0601  0.3540 -0.1889
 1279SOL    HW1 4657   3.809   2.387   0.873  0.1793  0.2538 -0.5161
 1279SOL    HW2 4658   3.683   2.387   0.770 -1.1024  1.8758  0.9751
 1280SOL     OW 4659   6.162   1.543   0.702  0.5348 -0.7247  0.3285
 1280SOL    HW1 4660   6.127   1.489   0.626  0.7365  0.6787 -0.8015
 1280SOL    HW2 4661   6.254   1.512   0.725  0.9916 -0.3292 -0.8907
 1281SOL     OW 4662   3.299   3.597   5.967  0.7049 -0.1132 -0.1119
 1281SOL    HW1 4663   3.208   3.568   5.996  0.4121  0.9545  0.0987
 1281SOL    HW2 4664   3.354   3.518   5.941 -0.9291 -0.6691 -2.1531
 1282SOL     OW 4665   0.899   1.252   3.374 -0.2160  0.6869 -0.1382
 1282SOL    HW1 4666   0.896   1.352   3.380  0.2085  0.6369  1.1935
 1282SOL    HW2 4667   0.832   1.213   3.438 -0.4510  0.1056 -0.7228
 1283SOL     OW 4668   0.813   2.081   4.356 -0.5890  0.0035  0.2678
 1283SOL    HW1 4669   0.753   2.160   4.370  1.5957  1.8113 -0.0040
 1283SOL    HW2 4670   0.908   2.111   4.356  0.3619 -2.7322  0.5686
 1284SOL     OW 4671   6.967   2.785   0.647  0.0728  0.5622  0.5085
 1284SOL    HW1 4672   6.989   2.812   0.553 -0.3533 -0.0201  0.2362
 1284SOL    HW2 4673   7.012   2.698   0.668 -0.6129  0.1972  0.5146
 1285SOL     OW 4674   0.404   0.649   3.772  0.3715  0.0711 -0.6665
 1285SOL    HW1 4675   0.418   0.562   3.819  1.1647  1.5160  2.0030
 1285SOL    HW2 4676   0.357   0.633   3.685  0.6678 -2.9961 -0.3777
 1286SOL     OW 4677   0.887   6.915   1.189  0.2504  0.1352  0.3542
 1286SOL    HW1 4678   0.898   6.856   1.268 -0.8514  1.4159  1.5405
 1286SOL    HW2 4679   0.963   6.981   1.185  0.4004 -0.0413  0.2232
 1287SOL     OW 4680   0.991   6.068   3.508 -0.2244  0.7095  0.8688
 1287SOL    HW1 4681   1.052   6.010   3.563  1.5401  0.2815 -1.4050
 1287SOL    HW2 4682   1.032   6.158   3.497 -0.3101  0.6222 -0.1787
 1288SOL     OW 4683   0.889   0.909   3.827 -0.6224 -0.6211  0.4356
 1288SOL    HW1 4684   0.818   0.839   3.827 -0.7966 -0.4482 -0.0928
 1288SOL    HW2 4685   0.880   0.966   3.745 -0.8414  0.3825  1.1344
 1289SOL     OW 4686   6.287   3.268   2.517 -0.1327  0.0705 -0.8441
 1289SOL    HW1 4687   6.365   3.327   2.540 -0.9573  0.6838  0.5102
 1289SOL    HW2 4688   6.265   3.209   2.594 -1.2519  0.1793 -1.0556
 1290SOL     OW 4689   0.326   0.868   3.919  0.4344  0.1014 -0.1909
 1290SOL    HW1 4690   0.402   0.926   3.949 -0.1865  2.1095 -2.1754
 1290SOL    HW2 4691   0.361   0.796   3.859  0.9221  0.2309 -0.0706
 1291SOL     OW 4692   5.164   2.573   1.118  0.0079 -0.3756 -0.1060
 1291SOL    HW1 4693   5.245   2.530   1.078  0.9346  0.6215  0.6537
 1291SOL    HW2 4694   5.192   2.635   1.191 -1.5936 -1.5521  1.5747
 1292SOL     OW 4695   6.876   1.126   0.126 -0.2952 -0.5195  0.2142
 1292SOL    HW1 4696   6.811   1.083   0.063 -1.0757  1.1990 -0.2271
 1292SOL    HW2 4697   6.833   1.207   0.166  0.8926 -0.4983  1.4828
 1293SOL     OW 4698   3.874   6.447   3.130  0.3243  0.2196  0.5055
 1293SOL    HW1 4699   3.902   6.514   3.200  2.5865 -0.7031  0.5438
 1293SOL    HW2 4700   3.904   6.479   3.040 -0.6131  0.3258  0.2190
 1294SOL     OW 4701   5.569   5.670   0.517  0.3770 -0.4331  0.1101
 1294SOL    HW1 4702   5.590   5.628   0.429 -1.0339 -1.3535  0.1806
 1294SOL    HW2 4703   5.474   5.651   0.542 -0.2449  2.4831  0.3422
 1295SOL     OW 4704   1.171   1.885   4.883  0.5878  0.1380  0.2219
 1295SOL    HW1 4705   1.152   1.803   4.829 -1.4741  0.7944 -0.1433
 1295SOL    HW2 4706   1.109   1.959   4.854  1.3252  1.3426  1.6126
 1296SOL     OW 4707   4.348   4.033   2.530 -0.0087  0.2885 -0.5827
 1296SOL    HW1 4708   4.331   3.987   2.443 -0.4565 -0.8929  0.1158
 1296SOL    HW2 4709   4.300   4.121   2.531 -0.7339 -0.0871 -1.1897
 1297SOL     OW 4710   1.485   1.012   6.998  0.0615 -0.0639  0.6424
 1297SOL    HW1 4711   1.442   0.922   6.996  1.4840 -0.7804 -1.2263
 1297SOL    HW2 4712   1.422   1.081   6.962 -0.0072 -0.8985 -0.9709
 1298SOL     OW 4713   2.250   6.106   1.261 -0.3810  0.6305 -0.2008
 1298SOL    HW1 4714   2.167   6.149   1.225 -0.4612 -0.9432 -2.0468
 1298SOL    HW2 4715   2.309   6.080   1.184  2.2106  2.3890  1.0666
 1299SOL     OW 4716   4.511   4.652   4.361 -0.2902 -0.3398 -0.4527
 1299SOL    HW1 4717   4.511   4.735   4.306  1.6320  2.5473  3.3556
 1299SOL    HW2 4718   4.418   4.633   4.392 -0.6147  1.1514 -0.4209
 1300SOL     OW 4719   0.825   6.633   0.043  0.0614 -0.1708  0.7477
 1300SOL    HW1 4720   0.770   6.715   0.034 -0.1635 -0.4074 -0.1729
 1300SOL    HW2 4721   0.769   6.558   0.078  0.3249  0.1200  1.8161
 1301SOL     OW 4722   0.931   5.781   1.492  0.3544  0.0334 -0.4519
 1301SOL    HW1 4723   0.892   5.762   1.401  0.7170  1.6528 -0.9855
 1301SOL    HW2 4724   1.013   5.726   1.505  0.4743  0.0072 -1.2430
 1302SOL     OW 4725   0.682   0.702   2.222 -0.1510 -0.0042  0.2756
 1302SOL    HW1 4726   0.649   0.735   2.310  1.4850  0.4809  0.7367
 1302SOL    HW2 4727   0.707   0.605   2.229 -4.1631 -1.3317 -0.8623
 1303SOL     OW 4728   1.464   1.059   4.737 -0.0915  0.0214  0.1451
 1303SOL    HW1 4729   1.441   0.963   4.723  1.1748  0.0972 -3.5934
 1303SOL    HW2 4730   1.555   1.066   4.777  0.0203 -0.3483 -0.0400
 1304SOL     OW 4731   3.142   5.898   4.514  0.2145  0.4049  0.9031
 1304SOL    HW1 4732   3.176   5.959   4.442 -0.8111 -0.2897 -0.2148
 1304SOL    HW2 4733   3.175   5.930   4.603  2.2698  0.7996  0.0663
 1305SOL     OW 4734   5.989   3.925   1.638 -0.2783 -0.4538 -0.6266
 1305SOL    HW1 4735   6.079   3.920   1.679  0.4061  2.0388 -1.6586
 1305SOL    HW2 4736   5.997   3.941   1.539 -1.8218  0.7873 -0.5941
 1306SOL     OW 4737   4.268   4.762   3.627 -0.1483 -0.0473 -0.4969
 1306SOL    HW1 4738   4.366   4.762   3.604  0.0108 -1.4906  0.0431
 1306SOL    HW2 4739   4.227   4.676   3.599 -1.8388  1.4079 -2.7747
 1307SOL     OW 4740   2.930   5.091   4.560  0.0146  0.9374  0.5739
 1307SOL    HW1 4741   2.923   5.117   4.464  2.0660 -2.0444 -0.5234
 1307SOL    HW2 4742   2.838   5.090   4.601 -0.9699  1.6096 -1.4832
 1308SOL     OW 4743   3.836   6.086   2.482 -0.0935 -0.0504  0.2952
 1308SOL    HW1 4744   3.761   6.151   2.483  0.1777  0.2645  0.3658
 1308SOL    HW2 4745   3.800   5.993   2.473 -0.5964 -0.0492  1.9668
 1309SOL     OW 4746   5.466   2.441   4.908  0.0266  0.4638  0.4557
 1309SOL    HW1 4747   5.400   2.375   4.872  1.2801 -0.5816 -0.0034
 1309SOL    HW2 4748   5.468   2.435   5.008  0.1994 -0.2424  0.4103
 1310SOL     OW 4749   4.680   5.935   5.161  0.1924 -0.7199 -0.0802
 1310SOL    HW1 4750   4.611   5.890   5.217 -0.0066 -0.3182  0.0043
 1310SOL    HW2 4751   4.660   5.919   5.064  0.0527 -0.7093 -0.0539
 1311SOL     OW 4752   2.798   1.292   0.193 -0.3792  0.3372  0.3116
 1311SOL    HW1 4753   2.810   1.307   0.291  0.7783 -0.9885  0.4043
 1311SOL    HW2 4754   2.702   1.268   0.175 -1.0687  2.5040  0.8229
 1312SOL     OW 4755   2.304   5.722   0.991 -0.0353 -0.1010 -0.8842
 1312SOL    HW1 4756   2.320   5.630   0.954  0.4525  0.1465 -1.3016
 1312SOL    HW2 4757   2.210   5.728   1.026 -0.4899 -0.3568 -2.0283
 1313SOL     OW 4758   6.575   6.663   0.907  0.1677 -0.3378  0.4036
 1313SOL    HW1 4759   6.531   6.580   0.873  0.4441 -0.3506  0.0854
 1313SOL    HW2 4760   6.584   6.729   0.833  1.2919 -0.5847  0.3066
 1314SOL     OW 4761   5.079   2.578   3.428 -0.0101  0.2920 -0.3608
 1314SOL    HW1 4762   5.061   2.669   3.465 -1.1009  0.4141 -1.1491
 1314SOL    HW2 4763   5.110   2.585   3.334 -1.7663 -0.1920 -1.0260
 1315SOL     OW 4764   3.278   1.150   4.904 -0.2964  0.3617  0.4016
 1315SOL    HW1 4765   3.342   1.100   4.962  0.5920 -0.1948 -0.9784
 1315SOL    HW2 4766   3.184   1.123   4.925  0.1313 -1.3954  0.1622
 1316SOL     OW 4767   4.489   6.124   6.597 -0.4250 -0.0965  0.6424
 1316SOL    HW1 4768   4.488   6.048   6.662 -0.0872 -0.9262 -0.3142
 1316SOL    HW2 4769   4.566   6.114   6.535  0.8506  2.1110  1.7448
 1317SOL     OW 4770   5.450   4.949   4.139 -1.0190  0.0129  0.0943
 1317SOL    HW1 4771   5.477   4.912   4.050 -1.8584  1.9825 -1.0712
 1317SOL    HW2 4772   5.355   4.981   4.134 -0.5176  1.7801  1.1179
 1318SOL     OW 4773   2.217   6.509   6.308 -0.1261 -0.0255 -0.4066
 1318SOL    HW1 4774   2.209   6.603   6.275  1.2790  0.0486 -0.5986
 1318SOL    HW2 4775   2.127   6.467   6.311 -0.7531  1.2656 -0.5013
 1319SOL     OW 4776   6.915   1.138   2.984 -0.0831 -0.5923 -0.2338
 1319SOL    HW1 4777   6.851   1.154   2.909  0.3008 -0.4567 -0.5350
 1319SOL    HW2 4778   6.870   1.159   3.071  0.0977  1.2596 -0.5463
 1320SOL     OW 4779   4.162   0.968   3.209 -0.2584  1.0035 -0.0903
 1320SOL    HW1 4780   4.244   0.921   3.241 -0.5043  2.2972  2.8042
 1320SOL    HW2 4781   4.157   0.962   3.110  2.2486 -0.8045 -0.2308
 1321SOL     OW 4782   1.638   1.184   0.135 -0.2783  0.3886 -0.0250
 1321SOL    HW1 4783   1.649   1.137   0.222  0.1713 -0.5763 -0.5730
 1321SOL    HW2 4784   1.624   1.116   0.062  0.4693  1.0934 -0.8599
 1322SOL     OW 4785   0.108   1.113   4.490  0.7030  0.1374  0.0870
 1322SOL    HW1 4786   0.095   1.099   4.588 -0.1486 -0.5085 -0.1035
 1322SOL    HW2 4787   0.032   1.072   4.440  2.0751 -1.1668 -0.9631
 1323SOL     OW 4788   6.954   2.344   4.746  0.3101 -0.0085  0.2680
 1323SOL    HW1 4789   7.034   2.394   4.780  0.2883 -0.3036  0.7112
 1323SOL    HW2 4790   6.898   2.315   4.824 -0.1491  0.0674 -0.0328
 1324SOL     OW 4791   0.763   6.979   2.174  0.3298 -0.1950 -0.4955
 1324SOL    HW1 4792   0.827   6.966   2.250 -0.4599 -0.4280  0.1496
 1324SOL    HW2 4793   0.745   7.076   2.162  1.4426 -0.0963 -1.2623
 1325SOL     OW 4794   3.359   2.412   0.634 -0.1639 -0.2811 -0.4148
 1325SOL    HW1 4795   3.375   2.428   0.732 -3.0308  0.1390  0.0656
 1325SOL    HW2 4796   3.407   2.328   0.607  0.2849 -0.7013  1.4740
 1326SOL     OW 4797   5.850   6.024   6.851 -0.5048  0.1364 -0.0143
 1326SOL    HW1 4798   5.752   6.039   6.839 -0.2057  2.0493 -0.4282
 1326SOL    HW2 4799   5.876   5.937   6.809 -1.8855 -0.0469 -0.5380
 1327SOL     OW 4800   6.793   2.328   2.689 -0.0171 -0.2424  0.0622
 1327SOL    HW1 4801   6.771   2.401   2.753 -0.4274  0.0651 -0.4268
 1327SOL    HW2 4802   6.823   2.247   2.740  1.4437  0.5921  0.5596
 1328SOL     OW 4803   1.186   0.126   0.411  0.0764  0.0168 -0.2151
 1328SOL    HW1 4804   1.256   0.144   0.481 -0.8465  0.0248  0.7176
 1328SOL    HW2 4805   1.230   0.092   0.329  1.1557 -0.2806  0.4686
 1329SOL     OW 4806   0.567   6.193   1.794  0.7488 -0.3325 -0.5901
 1329SOL    HW1 4807   0.476   6.221   1.763  0.2328 -1.5682 -0.2468
 1329SOL    HW2 4808   0.626   6.179   1.714  0.0413 -1.4627 -0.9509
 1330SOL     OW 4809   5.405   2.842   2.459  0.2961 -0.5744 -0.1369
 1330SOL    HW1 4810   5.452   2.789   2.529  0.8174  1.0018  0.7599
 1330SOL    HW2 4811   5.472   2.875   2.392  0.5330  1.5981  1.0856
 1331SOL     OW 4812   1.085   1.944   0.880 -0.0823  0.2540  0.0857
 1331SOL    HW1 4813   1.121   1.930   0.788  0.9647  1.8269  0.2158
 1331SOL    HW2 4814   1.130   1.880   0.943 -0.6796 -0.7105 -0.4445
 1332SOL     OW 4815   3.593   0.484   1.147 -0.1713  0.2880  0.4720
 1332SOL    HW1 4816   3.604   0.583   1.140  0.6638  0.4613  3.3593
 1332SOL    HW2 4817   3.652   0.439   1.080  1.0686  1.6942  0.5782
 1333SOL     OW 4818   6.588   4.832   0.973 -0.3307  0.3746  0.1661
 1333SOL    HW1 4819   6.681   4.852   0.940  0.1500  2.2010  2.4010
 1333SOL    HW2 4820   6.524   4.898   0.934 -0.5674 -0.3114 -0.6408
 1334SOL     OW 4821   4.744   5.414   1.549 -0.0409  0.6057 -0.2690
 1334SOL    HW1 4822   4.777   5.377   1.462 -1.2585 -0.1508 -0.4389
 1334SOL    HW2 4823   4.789   5.501   1.568  1.5470 -0.0530 -0.7810
 1335SOL     OW 4824   4.086   6.403   1.015  0.1829 -0.7919  0.1386
 1335SOL    HW1 4825   4.096   6.391   1.114  2.4208  0.9222  0.1990
 1335SOL    HW2 4826   4.077   6.313   0.971 -1.1627 -1.5533  1.9009
 1336SOL     OW 4827   0.711   6.024   1.211  0.4787 -0.9550  0.2520
 1336SOL    HW1 4828   0.636   6.009   1.276  0.8083  1.9834  1.4958
 1336SOL    HW2 4829   0.789   6.065   1.259  1.3555 -0.1635 -1.7306
 1337SOL     OW 4830   6.719   1.503   0.751 -0.3464  0.4193 -0.2416
 1337SOL    HW1 4831   6.695   1.597   0.776  2.8554  0.8488  1.8155
 1337SOL    HW2 4832   6.737   1.498   0.653 -4.5344  0.8300 -1.2580
 1338SOL     OW 4833   3.023   4.192   2.189 -0.4953  0.0126 -0.1975
 1338SOL    HW1 4834   3.082   4.112   2.184  1.4491  1.4277 -1.2818
 1338SOL    HW2 4835   2.956   4.188   2.114 -2.4309 -1.9772  1.4896
 1339SOL     OW 4836   4.295   6.468   6.323 -0.3009  0.0449  0.4280
 1339SOL    HW1 4837   4.321   6.502   6.232  0.1373  0.2523  0.6268
 1339SOL    HW2 4838   4.341   6.522   6.393 -1.8926  0.9517  0.8306
 1340SOL     OW 4839   0.380   1.272   2.902  0.3773  0.3168 -0.3679
 1340SOL    HW1 4840   0.299   1.237   2.855  1.0949 -0.0741 -1.3530
 1340SOL    HW2 4841   0.404   1.211   2.977 -1.1817  1.3065  1.0056
 1341SOL     OW 4842   1.692   5.223   5.757  0.7601 -0.4697 -0.3141
 1341SOL    HW1 4843   1.728   5.198   5.847  0.6861  0.4605 -0.0145
 1341SOL    HW2 4844   1.593   5.207   5.755  0.9715 -1.8288 -0.7157
 1342SOL     OW 4845   4.307   2.676   6.767 -0.1713 -0.0045  0.1075
 1342SOL    HW1 4846   4.328   2.587   6.808  0.2083 -0.0376 -0.1502
 1342SOL    HW2 4847   4.226   2.668   6.709  1.2591 -0.7732 -1.8681
 1343SOL     OW 4848   2.996   5.246   0.439  0.2973  0.1796  0.0615
 1343SOL    HW1 4849   2.944   5.312   0.493  1.6470 -0.7638  2.6853
 1343SOL    HW2 4850   3.055   5.295   0.374 -0.2637  1.4448  0.4807
 1344SOL     OW 4851   6.803   3.795   0.851 -0.2994 -0.0291  0.0475
 1344SOL    HW1 4852   6.876   3.850   0.893  0.0837  0.2812 -0.9934
 1344SOL    HW2 4853   6.729   3.783   0.917  1.2695 -1.5533  1.6698
 1345SOL     OW 4854   5.391   5.229   6.166  0.5738 -0.2311 -0.3149
 1345SOL    HW1 4855   5.401   5.230   6.067 -0.0477  1.4700 -0.3900
 1345SOL    HW2 4856   5.308   5.279   6.192 -0.1944 -2.0703  0.9944
 1346SOL     OW 4857   4.133   5.314   0.777  0.5972  0.3059 -0.6388
 1346SOL    HW1 4858   4.181   5.361   0.703  1.1695  0.1109 -0.4069
 1346SOL    HW2 4859   4.148   5.215   0.768  0.4522  0.2606 -0.4145
 1347SOL     OW 4860   4.349   0.413   0.343 -0.1176 -0.2386 -0.1751
 1347SOL    HW1 4861   4.312   0.505   0.357 -5.0073 -1.8083 -0.6561
 1347SOL    HW2 4862   4.345   0.390   0.246  0.1094 -1.2591  0.0405
 1348SOL     OW 4863   1.325   5.353   0.314  0.6806  0.0001 -0.1478
 1348SOL    HW1 4864   1.248   5.290   0.316  0.2046  0.4522 -1.9008
 1348SOL    HW2 4865   1.372   5.344   0.226  0.6135  2.0328 -0.4333
 1349SOL     OW 4866   4.413   6.800   0.983  0.1312 -0.4887 -0.5681
 1349SOL    HW1 4867   4.455   6.722   1.029 -0.5877  0.1478  1.2095
 1349SOL    HW2 4868   4.318   6.777   0.960 -0.1078 -0.0966  0.0391
 1350SOL     OW 4869   2.265   5.805   4.329  0.3449  0.4082 -0.1473
 1350SOL    HW1 4870   2.187   5.807   4.267  1.2068  0.6701 -1.2450
 1350SOL    HW2 4871   2.317   5.889   4.320  1.6753 -0.4311 -0.6603
 1351SOL     OW 4872   3.090   5.390   4.945 -0.4977 -0.1027 -0.0201
 1351SOL    HW1 4873   3.008   5.340   4.918  0.9425 -2.8270  0.3342
 1351SOL    HW2 4874   3.171   5.334   4.928  1.1638  1.7090  1.4347
 1352SOL     OW 4875   1.273   6.859   4.575 -0.2878  0.2292  0.2933
 1352SOL    HW1 4876   1.266   6.760   4.588 -2.3462  0.2223 -0.5391
 1352SOL    HW2 4877   1.252   6.905   4.661 -1.2478 -0.0529  0.2301
 1353SOL     OW 4878   4.745   4.838   3.122 -0.5738 -0.2372 -0.2908
 1353SOL    HW1 4879   4.720   4.887   3.205 -2.0475  0.0219 -0.8530
 1353SOL    HW2 4880   4.664   4.825   3.065  0.2891 -0.9556 -1.4126
 1354SOL     OW 4881   3.247   2.934   3.947 -0.6185  0.2854  0.0200
 1354SOL    HW1 4882   3.280   2.873   4.019  0.7666  0.5224 -0.3839
 1354SOL    HW2 4883   3.195   3.009   3.988  0.3173  0.5225  0.8085
 1355SOL     OW 4884   3.327   4.868   6.899  0.7729 -1.0652  0.0914
 1355SOL    HW1 4885   3.332   4.842   6.996 -0.1227 -0.0746  0.4179
 1355SOL    HW2 4886   3.371   4.797   6.844  1.0199 -1.7988  1.1917
 1356SOL     OW 4887   0.335   3.233   4.907  0.0224  0.4369 -0.3916
 1356SOL    HW1 4888   0.427   3.209   4.875 -0.4393 -1.5993 -0.3355
 1356SOL    HW2 4889   0.284   3.149   4.927 -1.5834  1.5470  0.3650
 1357SOL     OW 4890   6.232   2.630   4.386 -0.4904 -0.0263 -0.0365
 1357SOL    HW1 4891   6.278   2.541   4.382  1.0196  0.7478 -2.4717
 1357SOL    HW2 4892   6.155   2.630   4.322  0.8197  1.0174 -1.6898
 1358SOL     OW 4893   3.195   6.209   5.854  0.1750  0.2345 -0.5636
 1358SOL    HW1 4894   3.240   6.130   5.812  1.2269  0.4932  0.0395
 1358SOL    HW2 4895   3.255   6.288   5.850  0.4083  0.2267  1.5560
 1359SOL     OW 4896   5.230   3.567   3.478 -0.3594  0.5079  0.4718
 1359SOL    HW1 4897   5.293   3.520   3.540 -0.2755 -0.4696 -0.3292
 1359SOL    HW2 4898   5.277   3.586   3.392 -1.3538 -0.9333 -0.4370
 1360SOL     OW 4899   5.287   2.544   3.807 -1.1864 -0.0893  0.0605
 1360SOL    HW1 4900   5.308   2.616   3.740 -0.4570 -0.8133 -0.5267
 1360SOL    HW2 4901   5.211   2.573   3.864 -0.7884  1.2260 -0.0284
 1361SOL     OW 4902   3.386   6.173   0.609  0.5528 -0.0724 -0.2792
 1361SOL    HW1 4903   3.402   6.175   0.510 -0.5990 -2.1332 -0.5616
 1361SOL    HW2 4904   3.444   6.241   0.653  2.0414  0.0291 -2.2440
 1362SOL     OW 4905   2.669   2.866   6.067 -0.7669  0.2065 -0.0286
 1362SOL    HW1 4906   2.733   2.814   6.123 -0.6916  1.4970  1.1567
 1362SOL    HW2 4907   2.575   2.845   6.095 -0.8959 -1.4125 -1.5192
 1363SOL     OW 4908   3.032   3.896   0.897  0.0958  0.1499  0.5267
 1363SOL    HW1 4909   3.116   3.883   0.844  0.1485  1.6166  0.2033
 1363SOL    HW2 4910   2.957   3.920   0.835 -1.0832 -2.8341  0.5679
 1364SOL     OW 4911   2.084   1.832   1.436 -0.1212 -0.5783  0.4981
 1364SOL    HW1 4912   2.136   1.821   1.351 -0.5288 -1.1571  0.3240
 1364SOL    HW2 4913   2.009   1.766   1.439 -2.5740  1.9604 -0.5050
 1365SOL     OW 4914   4.524   5.788   2.966 -0.2439  0.2180 -0.4361
 1365SOL    HW1 4915   4.554   5.867   2.913  0.5317  0.0755 -0.2182
 1365SOL    HW2 4916   4.478   5.818   3.049 -1.3615  0.4423 -1.1209
 1366SOL     OW 4917   5.666   0.747   5.891 -0.4233 -0.1565 -0.2583
 1366SOL    HW1 4918   5.603   0.730   5.967  1.7930 -2.8699  1.1748
 1366SOL    HW2 4919   5.669   0.668   5.831  0.8678  0.2872 -0.8339
 1367SOL     OW 4920   6.913   0.028   6.656  0.5379  0.2105  0.0179
 1367SOL    HW1 4921   6.856  -0.053   6.643  2.0038 -0.8165 -0.1772
 1367SOL    HW2 4922   6.858   0.111   6.641 -0.7520 -0.7525 -0.8304
 1368SOL     OW 4923   5.522   5.518   0.272  0.2607  0.1749  0.9231
 1368SOL    HW1 4924   5.533   5.490   0.177  1.5124 -1.1491  1.4238
 1368SOL    HW2 4925   5.429   5.554   0.286 -0.7461 -1.7788 -0.2710
 1369SOL     OW 4926   0.340   5.570   0.783 -0.1766 -0.6959 -0.0869
 1369SOL    HW1 4927   0.257   5.624   0.801  0.7391  0.9169 -0.4544
 1369SOL    HW2 4928   0.418   5.613   0.830  0.8818 -0.7240 -1.7299
 1370SOL     OW 4929   6.928   3.483   4.435  0.0484 -0.0777  0.5210
 1370SOL    HW1 4930   7.009   3.542   4.438  0.1780 -0.1705 -0.5714
 1370SOL    HW2 4931   6.846   3.539   4.423 -0.0342  0.0010  1.4027
 1371SOL     OW 4932   1.852   1.746   2.690  0.2872 -0.1106 -0.0522
 1371SOL    HW1 4933   1.768   1.740   2.745 -1.4465  0.0332 -2.5292
 1371SOL    HW2 4934   1.890   1.655   2.676 -0.4264 -0.3654 -0.3506
 1372SOL     OW 4935   1.256   4.450   6.607  0.1024  0.1964  0.1356
 1372SOL    HW1 4936   1.178   4.428   6.548  2.2623 -1.1378 -2.4270
 1372SOL    HW2 4937   1.264   4.380   6.678  0.8052 -1.5959 -1.6072
 1373SOL     OW 4938   3.996   6.288   1.860 -0.2190 -0.3602  0.0241
 1373SOL    HW1 4939   3.907   6.303   1.819 -0.7944 -0.6343  1.1410
 1373SOL    HW2 4940   4.051   6.229   1.801 -1.3940 -1.5956  0.1143
 1374SOL     OW 4941   0.873   0.291   2.736 -0.3445  0.7579 -0.0944
 1374SOL    HW1 4942   0.900   0.199   2.765 -0.8660 -0.2566 -2.6082
 1374SOL    HW2 4943   0.952   0.352   2.744  1.2874 -0.9042 -2.2002
 1375SOL     OW 4944   5.744   0.970   5.352 -0.4755  0.2010 -0.5366
 1375SOL    HW1 4945   5.842   0.971   5.372 -0.7077  0.3152  0.7326
 1375SOL    HW2 4946   5.727   1.010   5.262  0.6385  0.2006 -0.7575
 1376SOL     OW 4947   2.566   5.666   6.706 -0.9377 -0.1808  0.0815
 1376SOL    HW1 4948   2.645   5.643   6.650 -1.1832 -0.8151 -0.0121
 1376SOL    HW2 4949   2.597   5.710   6.791 -0.4034 -1.4255  0.5592
 1377SOL     OW 4950   1.404   4.284   4.788  0.2429 -0.4674 -0.2967
 1377SOL    HW1 4951   1.362   4.373   4.765 -0.0068 -0.8472 -1.3995
 1377SOL    HW2 4952   1.487   4.299   4.842  1.5567  0.6215 -2.4709
 1378SOL     OW 4953   1.194   5.820   3.616 -0.8079  0.1446  0.1700
 1378SOL    HW1 4954   1.243   5.804   3.530 -1.2862 -0.9099  0.0756
 1378SOL    HW2 4955   1.183   5.733   3.665 -0.4021  0.7597  1.3779
 1379SOL     OW 4956   4.308   1.411   2.700 -0.0230 -0.2936  0.4566
 1379SOL    HW1 4957   4.248   1.478   2.657 -0.6443 -0.8966  0.3637
 1379SOL    HW2 4958   4.349   1.451   2.782 -2.3931 -0.6271  1.8896
 1380SOL     OW 4959   1.962   6.407   6.308 -0.2379  0.1284 -0.1196
 1380SOL    HW1 4960   1.945   6.312   6.282 -2.4378  0.4566 -0.0708
 1380SOL    HW2 4961   1.899   6.433   6.382  1.3127  1.2086  0.8960
 1381SOL     OW 4962   4.999   0.023   3.439 -0.4854  0.3169 -0.3433
 1381SOL    HW1 4963   5.025  -0.073   3.447 -0.3490  0.4500  0.6288
 1381SOL    HW2 4964   4.947   0.050   3.520 -1.9643  0.6336 -1.3511
 1382SOL     OW 4965   6.733   5.135   4.761 -0.3732  0.2879 -0.3398
 1382SOL    HW1 4966   6.650   5.136   4.817 -0.7940 -0.6292 -0.9188
 1382SOL    HW2 4967   6.713   5.170   4.670 -0.2287 -0.3090 -0.6103
 1383SOL     OW 4968   5.184   0.283   6.691  0.6335  0.2917 -0.0673
 1383SOL    HW1 4969   5.142   0.192   6.687 -1.6551  1.1487  1.9362
 1383SOL    HW2 4970   5.240   0.290   6.773 -0.1061  0.9897  0.3951
 1384SOL     OW 4971   2.353   3.691   5.063 -0.0288  0.2356 -0.3778
 1384SOL    HW1 4972   2.319   3.707   4.971  0.7146  0.4120 -0.6280
 1384SOL    HW2 4973   2.380   3.595   5.073 -2.0027 -0.2844  0.2957
 1385SOL     OW 4974   1.408   3.464   3.764 -0.1145 -0.2190 -0.6711
 1385SOL    HW1 4975   1.421   3.458   3.665 -1.7107  0.5255 -0.9563
 1385SOL    HW2 4976   1.317   3.501   3.783  0.6080  0.7436  1.0735
 1386SOL     OW 4977   6.231   3.697   3.392 -0.1089 -0.0845 -0.0812
 1386SOL    HW1 4978   6.276   3.726   3.307  1.1972  0.4472  0.7651
 1386SOL    HW2 4979   6.137   3.668   3.372  0.2758 -0.2464 -1.7403
 1387SOL     OW 4980   2.908   1.359   2.979 -0.6717 -0.0219  0.3531
 1387SOL    HW1 4981   2.820   1.336   2.936 -2.0460  3.0101  1.2391
 1387SOL    HW2 4982   2.966   1.405   2.912 -0.3274 -0.6956  0.1757
 1388SOL     OW 4983   1.685   0.950   2.667  0.4840 -0.2984  0.5224
 1388SOL    HW1 4984   1.749   0.910   2.602 -1.1807 -2.9575  0.3675
 1388SOL    HW2 4985   1.615   1.002   2.618  1.2775  0.8237  0.5356
 1389SOL     OW 4986   5.735   3.662   3.657  0.0785 -0.0051  0.5802
 1389SOL    HW1 4987   5.835   3.668   3.657  0.1045 -0.4000  0.1213
 1389SOL    HW2 4988   5.706   3.594   3.724  0.1047  0.3140  0.9168
 1390SOL     OW 4989   4.870   4.452   0.348 -0.2597 -0.1597 -0.3102
 1390SOL    HW1 4990   4.871   4.446   0.448 -0.7310  0.9983 -0.2159
 1390SOL    HW2 4991   4.822   4.373   0.310 -0.6498 -0.2842  0.4186
 1391SOL     OW 4992   4.673   4.160   6.733 -0.2465 -0.7024  0.0997
 1391SOL    HW1 4993   4.660   4.202   6.823 -2.9159 -0.0928 -0.4890
 1391SOL    HW2 4994   4.678   4.232   6.663 -0.4933 -1.2431 -0.4848
 1392SOL     OW 4995   0.321   3.436   0.596  0.1120 -0.3979  0.0936
 1392SOL    HW1 4996   0.366   3.362   0.545  1.7141  0.4740  0.1797
 1392SOL    HW2 4997   0.374   3.455   0.679  0.0445  1.2295 -0.2178
 1393SOL     OW 4998   6.103   1.061   5.766  0.4238  0.0283  0.0795
 1393SOL    HW1 4999   6.055   0.975   5.749 -0.4759  0.6275 -0.5516
 1393SOL    HW2 5000   6.062   1.108   5.844  0.6796  0.0496  0.2031
 1394SOL     OW 5001   0.433   2.833   0.042  0.1158 -0.3411 -0.0191
 1394SOL    HW1 5002   0.403   2.738   0.041  1.1051 -0.6994 -2.4408
 1394SOL    HW2 5003   0.377   2.887  -0.021  0.6050  0.3194  0.0989
 1395SOL     OW 5004   2.610   6.822   4.555  0.1802  0.1596 -0.3048
 1395SOL    HW1 5005   2.697   6.800   4.599 -0.8321 -0.5156  1.4386
 1395SOL    HW2 5006   2.553   6.877   4.616 -1.0996 -0.4356 -0.9118
 1396SOL     OW 5007   0.577   4.650   1.137  0.5386 -0.0669  0.7872
 1396SOL    HW1 5008   0.662   4.640   1.190  0.2651  0.1899  1.2789
 1396SOL    HW2 5009   0.514   4.709   1.187 -0.4544 -1.3173  1.0771
 1397SOL     OW 5010   4.306   5.416   0.605  0.4144  0.3963 -0.4317
 1397SOL    HW1 5011   4.298   5.455   0.513 -2.9003  0.6003 -0.1958
 1397SOL    HW2 5012   4.394   5.370   0.614  2.2083  3.0435 -2.5811
 1398SOL     OW 5013   5.422   2.371   5.166 -0.3226 -0.1706  0.3227
 1398SOL    HW1 5014   5.328   2.390   5.195 -0.0403  1.3854  0.2579
 1398SOL    HW2 5015   5.486   2.408   5.233  0.2827  1.0315 -0.8951
 1399SOL     OW 5016   2.368   0.484   1.147  0.5224 -0.1393  0.6328
 1399SOL    HW1 5017   2.347   0.572   1.105  1.6768 -0.3936 -0.5014
 1399SOL    HW2 5018   2.421   0.498   1.230  0.7553  0.2467  0.4236
 1400SOL     OW 5019   3.350   1.337   3.307  0.2582  0.2909  0.1413
 1400SOL    HW1 5020   3.448   1.354   3.309  0.1451  0.9323  1.1539
 1400SOL    HW2 5021   3.305   1.390   3.379 -0.8011 -0.2069 -0.1178
 1401SOL     OW 5022   5.738   6.499   2.635 -0.6428  0.4157  0.1050
 1401SOL    HW1 5023   5.706   6.570   2.572 -1.1580 -1.6861 -2.1655
 1401SOL    HW2 5024   5.832   6.474   2.613 -0.3975  0.5011  1.0063
 1402SOL     OW 5025   6.940   5.418   6.322  0.0600  0.3722 -0.2032
 1402SOL    HW1 5026   6.900   5.364   6.396 -1.8637 -0.2177 -1.5921
 1402SOL    HW2 5027   7.033   5.385   6.303 -1.2161 -2.9196 -1.3360
 1403SOL     OW 5028   3.040   0.604   3.688 -0.8579 -0.7433 -0.0030
 1403SOL    HW1 5029   3.032   0.665   3.767 -1.4964  0.1684 -0.7628
 1403SOL    HW2 5030   3.068   0.657   3.608 -2.3248 -1.2553 -0.8842
 1404SOL     OW 5031   3.575   2.238   6.311 -0.5509  0.4357  0.8669
 1404SOL    HW1 5032   3.482   2.270   6.329 -2.4047 -3.4087 -0.8452
 1404SOL    HW2 5033   3.587   2.225   6.213  0.5046 -2.5106  1.3093
 1405SOL     OW 5034   3.858   1.055   0.955 -0.4886  0.0228  0.3750
 1405SOL    HW1 5035   3.943   1.027   0.911 -1.7850  1.1872 -3.2584
 1405SOL    HW2 5036   3.878   1.122   1.026  1.6650  1.7096 -1.6013
 1406SOL     OW 5037   6.297   5.610   3.544  0.3023 -0.2310 -0.2404
 1406SOL    HW1 5038   6.230   5.610   3.471  1.2419  0.8025 -1.1394
 1406SOL    HW2 5039   6.354   5.528   3.538 -1.2174 -1.4276  0.9004
 1407SOL     OW 5040   2.876   3.108   0.221 -0.1992  0.4531  0.2463
 1407SOL    HW1 5041   2.912   3.167   0.150 -1.3009  1.0454  0.1449
 1407SOL    HW2 5042   2.897   3.013   0.200  1.2784  0.7639  0.2213
 1408SOL     OW 5043   3.995   2.783   0.331  0.5444  0.2392 -0.1214
 1408SOL    HW1 5044   4.008   2.814   0.237 -0.7873  1.0963 -0.0700
 1408SOL    HW2 5045   4.083   2.780   0.378  1.3721 -1.1546 -1.6361
 1409SOL     OW 5046   4.805   2.125   5.768 -0.0291 -0.2769 -0.2604
 1409SOL    HW1 5047   4.714   2.090   5.744 -0.3093  0.5452 -0.4364
 1409SOL    HW2 5048   4.810   2.222   5.745  1.5773 -0.7589 -2.1876
 1410SOL     OW 5049   1.567   1.945   0.595  0.5199 -0.4315  0.1159
 1410SOL    HW1 5050   1.623   2.015   0.551 -0.9685 -1.4401 -3.8062
 1410SOL    HW2 5051   1.595   1.854   0.563 -2.0816 -1.0579 -0.6694
 1411SOL     OW 5052   4.578   5.771   1.713  0.0429 -0.1868 -0.3891
 1411SOL    HW1 5053   4.562   5.866   1.688 -1.8939 -0.4379 -0.2605
 1411SOL    HW2 5054   4.529   5.749   1.797 -1.2489 -1.8171 -1.5123
 1412SOL     OW 5055   3.486   0.100   5.562  0.3760 -0.8317  0.3506
 1412SOL    HW1 5056   3.549   0.085   5.638  1.3625 -1.4819 -0.5695
 1412SOL    HW2 5057   3.532   0.082   5.475 -1.1966 -1.7633 -0.3403
 1413SOL     OW 5058   2.326   3.078   4.994 -0.2453 -0.3375  0.1032
 1413SOL    HW1 5059   2.364   3.151   5.053 -0.5713  1.3035 -1.6331
 1413SOL    HW2 5060   2.377   2.994   5.009  1.4048  0.7318  0.8243
 1414SOL     OW 5061   4.645   5.753   6.763 -0.2025  0.4191  0.1082
 1414SOL    HW1 5062   4.619   5.666   6.804 -1.5422  0.5803 -0.3615
 1414SOL    HW2 5063   4.597   5.827   6.810  0.2169  0.8214 -0.0916
 1415SOL     OW 5064   6.022   1.091   6.580  0.3031 -0.4435 -0.3567
 1415SOL    HW1 5065   6.066   1.071   6.493 -0.0259  0.8695 -0.8642
 1415SOL    HW2 5066   5.936   1.140   6.563 -0.0683 -0.6926  0.6873
 1416SOL     OW 5067   6.635   6.005   1.720 -0.1094  0.3703  0.0394
 1416SOL    HW1 5068   6.690   5.946   1.661  0.6407  0.6444  0.4369
 1416SOL    HW2 5069   6.654   5.983   1.816 -0.1686  0.9331  0.1826
 1417SOL     OW 5070   6.157   1.113   6.067  0.1787 -0.0648 -0.1583
 1417SOL    HW1 5071   6.179   1.204   6.031  1.4826 -1.5281 -3.4700
 1417SOL    HW2 5072   6.060   1.108   6.088  0.1356  2.1531  0.4744
 1418SOL     OW 5073   3.105   2.436   1.850 -1.0309  0.1130 -0.3656
 1418SOL    HW1 5074   3.098   2.357   1.788 -2.6307  0.8251 -1.1497
 1418SOL    HW2 5075   3.185   2.491   1.825 -0.1522 -0.9825 -0.0918
 1419SOL     OW 5076   2.169   6.852   5.378 -0.5264 -0.5464  0.6844
 1419SOL    HW1 5077   2.126   6.893   5.459  0.0516 -0.5629  1.0072
 1419SOL    HW2 5078   2.205   6.925   5.320  0.6808 -0.5665  1.3549
 1420SOL     OW 5079   3.078   6.729   0.905 -0.5564  0.2489 -0.2789
 1420SOL    HW1 5080   3.065   6.792   0.982 -0.4095  2.4269 -1.9262
 1420SOL    HW2 5081   3.166   6.682   0.915 -0.0857  1.2406  0.3858
 1421SOL     OW 5082   6.871   1.704   3.180 -0.3321 -0.1230 -0.3854
 1421SOL    HW1 5083   6.940   1.688   3.109 -2.0342  0.3989 -2.2748
 1421SOL    HW2 5084   6.797   1.637   3.170 -0.5395 -0.1537  1.0633
 1422SOL     OW 5085   2.864   3.483   4.160  0.7736  0.3045 -0.2652
 1422SOL    HW1 5086   2.916   3.542   4.099 -0.4203  1.6949 -0.0033
 1422SOL    HW2 5087   2.766   3.498   4.147  0.4403 -1.1595  0.2794
 1423SOL     OW 5088   6.904   4.980   1.560 -0.0286  0.1239 -0.3679
 1423SOL    HW1 5089   6.910   5.076   1.587 -0.5679  0.4087 -1.2201
 1423SOL    HW2 5090   6.974   4.928   1.607 -0.1945  0.8056  0.6722
 1424SOL     OW 5091   4.405   3.708   2.260 -0.8067 -0.0527 -0.7419
 1424SOL    HW1 5092   4.433   3.665   2.175 -0.8799 -0.1644 -0.7107
 1424SOL    HW2 5093   4.416   3.643   2.336 -0.3859  0.1668 -0.6096
 1425SOL     OW 5094   4.114   3.259   5.095 -0.4808  0.0985  0.3575
 1425SOL    HW1 5095   4.033   3.200   5.094 -0.6675  0.3054  1.6719
 1425SOL    HW2 5096   4.095   3.340   5.151  0.2932  0.6531 -0.1615
 1426SOL     OW 5097   4.663   2.177   4.202  0.3721 -0.4983 -0.0451
 1426SOL    HW1 5098   4.585   2.239   4.191  0.2640 -0.8574 -1.5391
 1426SOL    HW2 5099   4.720   2.180   4.119  1.5581 -0.7758  0.7385
 1427SOL     OW 5100   3.647   1.053   6.391 -0.0743 -0.6855 -0.0840
 1427SOL    HW1 5101   3.609   1.121   6.453 -0.9610 -1.0691 -0.1950
 1427SOL    HW2 5102   3.703   0.988   6.442 -1.8754 -1.7951  0.5782
 1428SOL     OW 5103   2.464   5.152   3.498 -0.1728 -0.0449 -0.5301
 1428SOL    HW1 5104   2.517   5.205   3.432 -2.8483  1.6689 -1.4984
 1428SOL    HW2 5105   2.509   5.154   3.587  1.6364  0.7764 -1.4207
 1429SOL     OW 5106   4.674   3.037   1.404 -0.0454  0.4223  0.1203
 1429SOL    HW1 5107   4.694   3.009   1.498 -0.1479 -0.8257 -0.2145
 1429SOL    HW2 5108   4.584   3.002   1.377 -0.2471  1.2198 -0.2725
 1430SOL     OW 5109   3.454   2.797   3.830  0.1465 -0.7115 -0.5799
 1430SOL    HW1 5110   3.413   2.764   3.746 -0.6146  1.9551 -1.3558
 1430SOL    HW2 5111   3.389   2.855   3.879  0.8128 -1.6412  1.5333
 1431SOL     OW 5112   6.179   6.932   2.151 -0.4627 -0.0243  0.4660
 1431SOL    HW1 5113   6.224   7.008   2.198 -1.7615 -0.6899  2.9061
 1431SOL    HW2 5114   6.248   6.868   2.117  0.6537  1.9692 -1.3336
 1432SOL     OW 5115   1.920   5.644   2.361 -0.1915  0.2654  0.5999
 1432SOL    HW1 5116   1.895   5.552   2.388  2.0449 -0.5304  0.1820
 1432SOL    HW2 5117   1.908   5.706   2.438 -3.9650  0.2041  0.2482
 1433SOL     OW 5118   5.009   1.517   0.328  0.5790  0.4836 -0.7558
 1433SOL    HW1 5119   4.997   1.417   0.331 -0.0246  0.5486 -0.8737
 1433SOL    HW2 5120   5.102   1.540   0.356  0.7472 -0.1239 -0.7993
 1434SOL     OW 5121   2.016   6.348   0.726  0.5930  0.4551  0.2698
 1434SOL    HW1 5122   2.093   6.396   0.767 -0.9242  1.8994  1.5430
 1434SOL    HW2 5123   1.984   6.277   0.788 -1.3678  2.2968  1.5313
 1435SOL     OW 5124   6.630   6.803   5.686 -0.3162  0.2712 -0.0784
 1435SOL    HW1 5125   6.686   6.722   5.705 -1.4520 -0.2388  1.3498
 1435SOL    HW2 5126   6.538   6.775   5.659 -0.0243  1.0984 -2.0936
 1436SOL     OW 5127   2.207   6.847   2.325  0.5013 -0.3662  0.8012
 1436SOL    HW1 5128   2.164   6.937   2.317  0.7552 -0.0975  2.2142
 1436SOL    HW2 5129   2.307   6.858   2.326  0.5512 -0.7307  0.3927
 1437SOL     OW 5130   0.971   4.568   2.135 -0.3490  0.2055  0.1798
 1437SOL    HW1 5131   1.006   4.656   2.103  0.0240 -0.6850 -1.9963
 1437SOL    HW2 5132   0.918   4.525   2.062  0.6864 -2.0207  0.6632
 1438SOL     OW 5133   3.688   4.373   6.567  0.3940  0.4195  0.6939
 1438SOL    HW1 5134   3.755   4.435   6.528  2.2181 -2.2394 -0.7574
 1438SOL    HW2 5135   3.716   4.348   6.660  0.6641  0.3797  0.6029
 1439SOL     OW 5136   1.174   3.035   6.215  0.1173  0.3764  0.2798
 1439SOL    HW1 5137   1.253   3.094   6.200 -0.6321  1.4361  0.3723
 1439SOL    HW2 5138   1.197   2.962   6.279  1.1958  0.2920 -0.1898
 1440SOL     OW 5139   0.746   4.338   0.021  0.0218  0.3072  0.2486
 1440SOL    HW1 5140   0.680   4.267  -0.003 -2.5686  1.7102  2.6498
 1440SOL    HW2 5141   0.731   4.418  -0.036  2.3347 -0.5903 -1.7747
 1441SOL     OW 5142   0.912   1.743   1.074  0.1575 -0.4569 -0.6416
 1441SOL    HW1 5143   0.882   1.669   1.134  0.2634  0.1954  0.2298
 1441SOL    HW2 5144   0.833   1.798   1.047  0.0791 -0.8684 -1.2816
 1442SOL     OW 5145   0.533   4.346   5.654  0.2852  0.1615 -0.4044
 1442SOL    HW1 5146   0.573   4.289   5.726 -1.8324 -0.6493  0.2155
 1442SOL    HW2 5147   0.605   4.394   5.605  1.9065 -0.5864  1.1583
 1443SOL     OW 5148   4.384   2.917   6.298 -0.0166  0.9238 -0.4585
 1443SOL    HW1 5149   4.387   2.832   6.244  0.6747 -0.1280  1.1668
 1443SOL    HW2 5150   4.324   2.904   6.377  0.1908  1.9217 -0.1248
 1444SOL     OW 5151   3.187   1.867   0.387  0.0659 -0.0996 -0.1726
 1444SOL    HW1 5152   3.117   1.911   0.330 -0.6842  0.5804  1.1991
 1444SOL    HW2 5153   3.191   1.770   0.366 -0.2571  0.1209 -1.3083
 1445SOL     OW 5154   1.296   1.855   2.174 -0.4764  0.2187  0.0460
 1445SOL    HW1 5155   1.303   1.781   2.107  2.2158  0.5663 -0.1853
 1445SOL    HW2 5156   1.201   1.883   2.183 -1.4468 -2.5457 -0.6150
 1446SOL     OW 5157   5.654   0.190   1.536 -0.4516  0.0342  0.5064
 1446SOL    HW1 5158   5.616   0.224   1.622 -0.4976 -0.1545  0.5606
 1446SOL    HW2 5159   5.717   0.258   1.498 -0.1227 -0.0473  0.8875
 1447SOL     OW 5160   5.404   6.180   0.296  0.4795  0.8144 -0.5598
 1447SOL    HW1 5161   5.383   6.221   0.384  0.2779  1.8699 -1.0854
 1447SOL    HW2 5162   5.502   6.162   0.290  0.5428  1.0383 -0.2578
 1448SOL     OW 5163   4.588   1.206   6.786  0.7313  0.0832 -0.0367
 1448SOL    HW1 5164   4.683   1.240   6.785  0.3657  1.2035  0.9318
 1448SOL    HW2 5165   4.532   1.267   6.730  0.5152 -0.4113 -0.3667
 1449SOL     OW 5166   4.643   0.901   3.536 -0.3500  0.0760 -0.5400
 1449SOL    HW1 5167   4.549   0.867   3.538 -0.3740  0.1738  0.0267
 1449SOL    HW2 5168   4.649   0.977   3.471 -1.0182  1.1176  0.5876
 1450SOL     OW 5169   3.903   0.854   3.132  0.7997 -0.1649 -0.3053
 1450SOL    HW1 5170   3.901   0.949   3.164 -0.0775 -0.5571  0.9200
 1450SOL    HW2 5171   3.994   0.816   3.143  0.6505 -0.1129  1.3145
 1451SOL     OW 5172   0.932   0.147   6.376 -0.1928  0.2346  0.1657
 1451SOL    HW1 5173   0.860   0.217   6.385 -0.2740  0.1790 -0.0180
 1451SOL    HW2 5174   1.007   0.183   6.321  1.4853  1.5448  3.0567
 1452SOL     OW 5175   1.847   4.627   2.645  0.4036  0.4167 -0.4114
 1452SOL    HW1 5176   1.881   4.558   2.580  2.8713  1.6345 -0.5474
 1452SOL    HW2 5177   1.825   4.583   2.732  1.6257 -0.6390 -0.5928
 1453SOL     OW 5178   3.564   5.592   4.177 -0.4402  0.1407 -0.4675
 1453SOL    HW1 5179   3.611   5.632   4.255 -1.9449  1.1088 -0.0172
 1453SOL    HW2 5180   3.496   5.527   4.209  0.0968 -0.7480 -1.0766
 1454SOL     OW 5181   4.821   6.189   4.827  0.0020 -0.2370 -0.1836
 1454SOL    HW1 5182   4.908   6.156   4.792 -0.6631 -0.9406 -1.2163
 1454SOL    HW2 5183   4.748   6.126   4.800 -0.6752 -0.2988  1.6727
 1455SOL     OW 5184   3.904   0.717   1.803 -0.1748 -0.3858 -0.0696
 1455SOL    HW1 5185   3.987   0.772   1.809  0.1367 -1.0293  2.8798
 1455SOL    HW2 5186   3.911   0.655   1.725  3.0573 -1.7982  1.1776
 1456SOL     OW 5187   4.661   6.824   1.924 -0.4539  0.4974  0.0945
 1456SOL    HW1 5188   4.682   6.835   1.827 -0.6045 -3.8259 -0.6474
 1456SOL    HW2 5189   4.742   6.792   1.973 -1.1279 -0.2252  0.7726
 1457SOL     OW 5190   2.765   6.126   4.428 -0.2560 -0.6437 -0.5251
 1457SOL    HW1 5191   2.850   6.149   4.474 -0.6923 -1.7059  0.8673
 1457SOL    HW2 5192   2.723   6.047   4.472 -0.3333 -2.2400 -3.1776
 1458SOL     OW 5193   7.013   3.950   3.880  0.3976 -0.6600 -0.0708
 1458SOL    HW1 5194   6.919   3.934   3.911 -0.3451 -2.3690 -2.7958
 1458SOL    HW2 5195   7.045   4.038   3.914 -2.6164  0.4937  0.0447
 1459SOL     OW 5196   0.589   2.198   6.997  0.1935  0.3229 -0.4608
 1459SOL    HW1 5197   0.502   2.196   7.046  0.9154  0.3415  0.8679
 1459SOL    HW2 5198   0.601   2.287   6.954 -1.1679 -0.2122 -2.0765
 1460SOL     OW 5199   3.975   0.980   2.360  0.1751 -0.4211  0.3581
 1460SOL    HW1 5200   3.930   0.901   2.402  1.0550 -0.5079  1.2173
 1460SOL    HW2 5201   3.983   1.053   2.428  0.5803 -0.1130 -0.0206
 1461SOL     OW 5202   0.449   5.062   5.784 -0.0347  0.1358 -0.5227
 1461SOL    HW1 5203   0.435   5.000   5.707  0.3893 -1.2329  0.4569
 1461SOL    HW2 5204   0.374   5.127   5.789 -0.2421  0.0381 -1.8689
 1462SOL     OW 5205   4.446   4.827   3.422 -0.0612  0.7750  0.7871
 1462SOL    HW1 5206   4.471   4.924   3.419  0.1463  0.6771 -2.1642
 1462SOL    HW2 5207   4.528   4.771   3.420 -0.2182  0.4880  1.6552
 1463SOL     OW 5208   1.237   0.666   2.610 -0.2825 -0.0069 -0.2113
 1463SOL    HW1 5209   1.242   0.740   2.543 -0.6267  0.4171  0.2166
 1463SOL    HW2 5210   1.280   0.695   2.696 -1.6544  0.2530  0.4290
 1464SOL     OW 5211   0.747   4.757   2.635  0.6770  0.5026  0.1054
 1464SOL    HW1 5212   0.764   4.850   2.602 -0.6960  0.9056  0.5105
 1464SOL    HW2 5213   0.710   4.760   2.728  1.5074 -0.4991  0.4935
 1465SOL     OW 5214   6.326   4.964   5.524 -0.3218 -0.3163  0.6950
 1465SOL    HW1 5215   6.421   4.980   5.552 -0.2316  0.0214  0.2119
 1465SOL    HW2 5216   6.296   4.875   5.558 -0.3638  0.2593  2.2480
 1466SOL     OW 5217   1.571   6.473   2.240 -0.0705  0.2130 -0.5369
 1466SOL    HW1 5218   1.618   6.457   2.327  0.3860 -0.6380 -0.9212
 1466SOL    HW2 5219   1.487   6.419   2.236 -0.6392  1.0501 -0.2132
 1467SOL     OW 5220   2.107   5.740   2.565  0.3029  0.4713  0.0458
 1467SOL    HW1 5221   2.201   5.740   2.531  0.4676 -0.6000  0.4741
 1467SOL    HW2 5222   2.096   5.670   2.635 -0.4117  1.6662  1.1766
 1468SOL     OW 5223   6.854   0.804   3.424 -0.3229  0.1025 -0.2207
 1468SOL    HW1 5224   6.782   0.873   3.427 -0.3403  0.0619  2.7960
 1468SOL    HW2 5225   6.849   0.747   3.506  1.4922 -1.6541 -1.2533
 1469SOL     OW 5226   0.854   4.255   1.007 -0.1981 -0.0178  0.1263
 1469SOL    HW1 5227   0.771   4.311   1.006  0.5529  1.1709  1.2507
 1469SOL    HW2 5228   0.836   4.170   1.057 -0.1848  1.2044  2.2882
 1470SOL     OW 5229   1.157   6.294   5.010  0.6905 -0.3596 -0.0553
 1470SOL    HW1 5230   1.127   6.204   5.041 -1.4345  0.1776 -0.3450
 1470SOL    HW2 5231   1.253   6.290   4.981  0.4898 -2.6481 -0.5672
 1471SOL     OW 5232   6.867   2.242   2.071  0.5224 -0.0070  0.3990
 1471SOL    HW1 5233   6.923   2.323   2.056  1.6831 -0.7807  0.5051
 1471SOL    HW2 5234   6.924   2.166   2.101  0.1637 -1.9948 -3.3405
 1472SOL     OW 5235   2.488   1.026   2.031  0.0348 -0.5502  0.0503
 1472SOL    HW1 5236   2.406   0.974   2.054 -0.4130  0.1225  0.0150
 1472SOL    HW2 5237   2.462   1.110   1.983  0.7012 -0.0109  0.6155
 1473SOL     OW 5238   6.394   1.352   5.722 -0.9358 -0.7042 -0.3578
 1473SOL    HW1 5239   6.435   1.337   5.812 -0.2325  1.2806 -0.2914
 1473SOL    HW2 5240   6.296   1.366   5.732 -0.5675  1.9766  0.5199
 1474SOL     OW 5241   2.914   2.180   0.227  0.5704  0.4031  0.0872
 1474SOL    HW1 5242   2.939   2.084   0.213 -0.0737  0.4451 -1.5718
 1474SOL    HW2 5243   2.823   2.197   0.189  0.2659  1.4786  1.1962
 1475SOL     OW 5244   6.386   6.704   5.577  0.2009  0.4679 -0.5735
 1475SOL    HW1 5245   6.335   6.707   5.663 -0.7440 -1.4230 -1.0055
 1475SOL    HW2 5246   6.328   6.737   5.503 -0.2436 -1.1192 -0.9729
 1476SOL     OW 5247   0.760   6.398   3.052 -0.1903  0.2622  0.0392
 1476SOL    HW1 5248   0.825   6.440   2.989 -0.1897  1.0556  0.5560
 1476SOL    HW2 5249   0.759   6.299   3.038 -0.2787  0.4334 -1.2870
 1477SOL     OW 5250   2.882   1.678   4.161  0.1053  0.0563 -0.1286
 1477SOL    HW1 5251   2.937   1.637   4.089  0.4044 -0.4120  0.3493
 1477SOL    HW2 5252   2.797   1.626   4.172  0.1615 -0.0135 -0.0030
 1478SOL     OW 5253   5.849   3.480   3.119 -0.1751  0.2881  0.1698
 1478SOL    HW1 5254   5.786   3.418   3.166 -0.2815 -0.7647 -1.2990
 1478SOL    HW2 5255   5.876   3.440   3.031  1.0673  1.5855 -0.0686
 1479SOL     OW 5256   2.653   2.641   5.518  0.8066 -0.0294 -0.5172
 1479SOL    HW1 5257   2.591   2.615   5.445  0.4329  0.0420 -0.2281
 1479SOL    HW2 5258   2.661   2.566   5.584  0.2944  0.3037 -0.0652
 1480SOL     OW 5259   1.050   2.226   4.405 -0.1171 -0.2810  0.1495
 1480SOL    HW1 5260   1.075   2.145   4.457  0.0485  0.8499  1.8933
 1480SOL    HW2 5261   1.094   2.307   4.444 -0.4214  0.7066 -1.4222
 1481SOL     OW 5262   0.264   2.823   1.221  0.1541  0.4435  0.1910
 1481SOL    HW1 5263   0.336   2.785   1.280 -0.1903 -2.7978 -1.2598
 1481SOL    HW2 5264   0.306   2.879   1.150  1.2757 -0.9481 -0.2958
 1482SOL     OW 5265   0.601   0.099   2.468  0.7131 -0.0642 -0.3747
 1482SOL    HW1 5266   0.677   0.163   2.476  0.6015 -0.0843  1.0560
 1482SOL    HW2 5267   0.630   0.008   2.496 -0.1922  0.2325  1.7090
 1483SOL     OW 5268   6.216   1.148   5.259 -0.1289 -0.2363  0.1477
 1483SOL    HW1 5269   6.282   1.093   5.207 -1.5943 -1.6721 -0.2577
 1483SOL    HW2 5270   6.234   1.138   5.356 -0.8474 -2.1684  0.1323
 1484SOL     OW 5271   1.131   5.080   6.859 -0.0282 -0.6251  0.3193
 1484SOL    HW1 5272   1.086   5.028   6.786  1.2697 -0.6652 -0.4900
 1484SOL    HW2 5273   1.075   5.159   6.883  0.5170  0.7076 -2.3573
 1485SOL     OW 5274   5.007   4.284   3.559  0.6110 -0.2888 -0.4297
 1485SOL    HW1 5275   4.987   4.282   3.461  2.8645 -1.2632 -0.9167
 1485SOL    HW2 5276   4.921   4.294   3.610 -0.6147  0.2044 -2.4678
 1486SOL     OW 5277   6.854   3.894   4.106 -0.2428  0.0954 -0.1896
 1486SOL    HW1 5278   6.852   3.795   4.116 -0.8786  0.0921 -0.2971
 1486SOL    HW2 5279   6.829   3.937   4.193 -2.1408  0.1219 -0.7042
 1487SOL     OW 5280   6.118   5.648   2.825  0.4454  0.3086 -1.1603
 1487SOL    HW1 5281   6.062   5.575   2.865  0.4603  0.4810 -0.8149
 1487SOL    HW2 5282   6.202   5.658   2.880  0.6828  0.2432 -1.5064
 1488SOL     OW 5283   6.723   3.634   4.428  0.0046  0.2760 -0.0735
 1488SOL    HW1 5284   6.633   3.657   4.464  0.0399 -0.0743  0.2435
 1488SOL    HW2 5285   6.777   3.717   4.414 -0.1021  0.4278  0.4418
 1489SOL     OW 5286   3.264   3.346   3.320 -0.6750  0.3208  0.5292
 1489SOL    HW1 5287   3.292   3.295   3.239  1.0042  0.4582  0.9879
 1489SOL    HW2 5288   3.224   3.283   3.386 -1.4306  0.0993 -0.1236
 1490SOL     OW 5289   3.448   5.367   2.561  0.6009  0.0050 -0.5729
 1490SOL    HW1 5290   3.384   5.387   2.635 -0.5323 -1.6976 -1.0279
 1490SOL    HW2 5291   3.409   5.298   2.501  2.0918  0.3096 -1.9875
 1491SOL     OW 5292   4.710   4.950   2.801  0.0543 -0.1018 -0.1296
 1491SOL    HW1 5293   4.761   4.916   2.721  1.8651 -0.2658  1.0442
 1491SOL    HW2 5294   4.757   5.029   2.838  0.4064 -1.2354  1.9632
 1492SOL     OW 5295   1.307   7.009   6.031 -0.1579  0.6186  0.2566
 1492SOL    HW1 5296   1.347   7.100   6.039 -1.4489  1.3592 -1.5927
 1492SOL    HW2 5297   1.217   7.007   6.074  1.4583 -1.0015  4.0752
 1493SOL     OW 5298   5.656   4.824   6.833 -0.0844  0.1782  0.0275
 1493SOL    HW1 5299   5.615   4.742   6.793 -1.1237  2.2630 -3.7203
 1493SOL    HW2 5300   5.585   4.879   6.877  0.0929  0.2989  0.1611
 1494SOL     OW 5301   1.407   0.599   4.172 -0.1093 -0.2647  0.8441
 1494SOL    HW1 5302   1.358   0.685   4.186 -0.1520 -0.6733  3.6062
 1494SOL    HW2 5303   1.492   0.617   4.122 -1.1256  1.0161 -0.5171
 1495SOL     OW 5304   5.420   0.794   6.587 -0.2307  0.7214 -0.6461
 1495SOL    HW1 5305   5.428   0.712   6.530  0.8631 -0.7462  1.4833
 1495SOL    HW2 5306   5.472   0.781   6.671 -1.8344  2.7672  0.7565
 1496SOL     OW 5307   2.166   0.111   0.466  0.2939  0.4737  0.6090
 1496SOL    HW1 5308   2.215   0.190   0.502  0.6298 -0.4711  2.3667
 1496SOL    HW2 5309   2.216   0.028   0.490 -0.0800 -0.3103 -1.1605
 1497SOL     OW 5310   4.874   2.467   1.109 -0.3186  0.0417 -0.0842
 1497SOL    HW1 5311   4.968   2.501   1.119 -0.3219 -0.1428  0.6760
 1497SOL    HW2 5312   4.863   2.427   1.018 -0.2132  1.7317 -0.8785
 1498SOL     OW 5313   0.350   5.461   3.199 -0.5145 -0.8428 -0.2247
 1498SOL    HW1 5314   0.448   5.447   3.185  0.1691  3.7414 -1.3701
 1498SOL    HW2 5315   0.334   5.498   3.291 -0.6749  1.5780 -1.1810
 1499SOL     OW 5316   4.643   6.546   5.391  0.4091 -0.0720  1.0335
 1499SOL    HW1 5317   4.673   6.639   5.369 -0.8454  0.3298  0.9451
 1499SOL    HW2 5318   4.670   6.484   5.317 -0.6127  0.6228  0.0403
 1500SOL     OW 5319   3.625   6.923   4.574  0.5872 -0.6887  0.4022
 1500SOL    HW1 5320   3.681   6.878   4.504 -1.1130 -0.9576 -0.8507
 1500SOL    HW2 5321   3.573   6.997   4.532 -1.0482 -1.3722  1.1832
 1501SOL     OW 5322   6.463   3.605   0.003 -0.0568 -0.7087 -0.2781
 1501SOL    HW1 5323   6.541   3.616   0.065 -1.3141  2.1006  1.0305
 1501SOL    HW2 5324   6.490   3.553  -0.077  3.1124 -0.0164  0.2507
 1502SOL     OW 5325   0.515   6.708   6.193  0.2359 -0.1964  0.2191
 1502SOL    HW1 5326   0.460   6.625   6.186  1.0753 -0.6604 -1.1260
 1502SOL    HW2 5327   0.478   6.766   6.266 -0.7003 -1.4786  0.8108
 1503SOL     OW 5328   4.996   3.498   4.708 -0.4168  0.1317 -0.0194
 1503SOL    HW1 5329   4.906   3.477   4.747 -0.9731 -0.4490 -1.5133
 1503SOL    HW2 5330   5.061   3.427   4.732 -1.1485 -1.0512 -1.3914
 1504SOL     OW 5331   1.073   5.940   0.480 -0.5392  0.4642  0.2691
 1504SOL    HW1 5332   0.983   5.945   0.437 -1.1890  0.9442  1.6314
 1504SOL    HW2 5333   1.088   6.022   0.536  0.6242  0.2512  0.2988
 1505SOL     OW 5334   3.488   3.376   6.504  1.1780  0.0762 -0.3362
 1505SOL    HW1 5335   3.462   3.437   6.578 -0.9151  0.8013 -1.5945
 1505SOL    HW2 5336   3.441   3.288   6.514 -0.1396  0.6068 -1.3951
 1506SOL     OW 5337   1.073   2.998   1.954  0.2499  0.2581  0.1390
 1506SOL    HW1 5338   1.033   3.041   1.873  0.1378  0.9651  0.5541
 1506SOL    HW2 5339   1.004   2.944   2.001  0.2915 -0.0880 -0.1822
 1507SOL     OW 5340   1.901   6.898   3.883 -0.2588 -0.0916  0.2919
 1507SOL    HW1 5341   1.829   6.879   3.817  0.3146  0.3836 -0.4915
 1507SOL    HW2 5342   1.922   6.816   3.936 -0.6799 -0.4959 -0.1660
 1508SOL     OW 5343   1.003   3.433   3.661 -0.4962 -0.7097 -0.3111
 1508SOL    HW1 5344   0.917   3.397   3.625 -0.5071 -0.5188 -0.4833
 1508SOL    HW2 5345   1.011   3.530   3.636  0.8818 -1.3051 -2.3983
 1509SOL     OW 5346   2.107   6.237   4.360 -0.5709  0.0860 -0.0723
 1509SOL    HW1 5347   2.024   6.271   4.404 -0.3362 -0.5849  0.9430
 1509SOL    HW2 5348   2.175   6.310   4.357 -2.1767  1.6466 -3.7712
 1510SOL     OW 5349   4.072   4.074   5.139  0.2924 -0.5565 -0.2252
 1510SOL    HW1 5350   4.103   4.019   5.061 -0.1334 -1.0442 -0.0610
 1510SOL    HW2 5351   3.992   4.128   5.112  0.8951  0.2131 -0.4726
 1511SOL     OW 5352   3.910   3.820   1.433 -0.8760  0.2101  0.3477
 1511SOL    HW1 5353   3.912   3.866   1.522  1.0945 -0.2153  0.5667
 1511SOL    HW2 5354   3.932   3.886   1.361  2.6489 -0.3557  0.7264
 1512SOL     OW 5355   2.617   5.014   1.801 -0.2518 -0.3943 -0.2336
 1512SOL    HW1 5356   2.697   5.055   1.845 -0.9889  0.9240 -0.0389
 1512SOL    HW2 5357   2.551   5.086   1.779 -1.1486 -1.3814 -0.9056
 1513SOL     OW 5358   3.867   0.751   3.736 -0.4420 -0.0162 -0.2946
 1513SOL    HW1 5359   3.851   0.674   3.798  4.1783  0.5244  2.0417
 1513SOL    HW2 5360   3.789   0.814   3.740 -1.9920 -1.9243  1.9552
 1514SOL     OW 5361   5.221   0.522   6.581  0.2050 -0.4559 -0.3240
 1514SOL    HW1 5362   5.300   0.525   6.521 -1.9199  0.4259 -3.2795
 1514SOL    HW2 5363   5.202   0.427   6.607  1.0036 -0.9160 -1.3579
 1515SOL     OW 5364   1.598   5.222   3.847 -0.3271  0.4537  0.0044
 1515SOL    HW1 5365   1.685   5.243   3.802  0.4406  0.0087  1.2349
 1515SOL    HW2 5366   1.605   5.241   3.944 -0.4596 -2.7094  0.7484
 1516SOL     OW 5367   6.257   3.133   5.511  0.5755  0.2994  0.1190
 1516SOL    HW1 5368   6.176   3.119   5.568  1.7045  0.9944  1.9727
 1516SOL    HW2 5369   6.260   3.063   5.440 -1.7258  0.3774 -0.1292
 1517SOL     OW 5370   1.398   4.831   5.261 -0.0881  0.2275 -0.4709
 1517SOL    HW1 5371   1.454   4.826   5.344  0.3370 -1.0135 -0.8079
 1517SOL    HW2 5372   1.374   4.739   5.232 -2.6762  0.7267 -0.1020
 1518SOL     OW 5373   4.482   1.952   4.995 -0.4496  0.0572 -0.1621
 1518SOL    HW1 5374   4.576   1.922   5.012 -0.5138 -0.5682 -0.8648
 1518SOL    HW2 5375   4.421   1.905   5.059 -0.1561  1.5478  1.2894
 1519SOL     OW 5376   0.422   4.530   6.313  0.4960  0.6283 -0.3662
 1519SOL    HW1 5377   0.492   4.578   6.259 -0.0986 -0.5755 -2.3426
 1519SOL    HW2 5378   0.332   4.571   6.294  0.2780  0.1577 -0.3922
 1520SOL     OW 5379   4.836   5.198   3.022 -0.3981 -0.4381 -0.1229
 1520SOL    HW1 5380   4.788   5.239   3.100  0.5278  0.5762 -0.0678
 1520SOL    HW2 5381   4.918   5.251   3.001  0.2983 -1.6919 -0.7021
 1521SOL     OW 5382   0.250   2.551   5.055  0.7756  0.2355 -0.2400
 1521SOL    HW1 5383   0.166   2.497   5.063  0.0021  1.2758 -0.9154
 1521SOL    HW2 5384   0.244   2.608   4.972  1.8409  0.8629  0.1001
 1522SOL     OW 5385   5.868   6.497   6.386 -0.1710  0.4109  0.0407
 1522SOL    HW1 5386   5.942   6.556   6.419  1.0796 -0.6518 -0.7219
 1522SOL    HW2 5387   5.835   6.440   6.462  0.0283  0.6806  0.3363
 1523SOL     OW 5388   6.431   6.177   6.240  0.4401  0.0274  0.4506
 1523SOL    HW1 5389   6.468   6.139   6.325  3.4706  0.4151 -0.5960
 1523SOL    HW2 5390   6.501   6.175   6.169 -1.9516 -0.1648 -2.0678
 1524SOL     OW 5391   6.949   0.043   2.623 -0.4132  0.1486 -0.0078
 1524SOL    HW1 5392   6.882   0.114   2.601 -1.3559 -0.0670  1.9815
 1524SOL    HW2 5393   7.008   0.075   2.698  0.6818 -0.2738 -0.6830
 1525SOL     OW 5394   6.628   0.945   2.544 -0.4392 -0.3080 -0.5471
 1525SOL    HW1 5395   6.696   0.873   2.537  0.6025  0.7759 -2.9795
 1525SOL    HW2 5396   6.538   0.906   2.563  0.4404 -2.0070  0.2573
 1526SOL     OW 5397   4.910   2.284   6.563 -0.0368 -0.2872 -0.1725
 1526SOL    HW1 5398   4.835   2.234   6.521  0.2637 -2.4945  1.7120
 1526SOL    HW2 5399   4.873   2.350   6.629 -0.4555  2.5205 -3.0019
 1527SOL     OW 5400   6.698   4.768   2.877 -0.0970  0.5182 -0.0050
 1527SOL    HW1 5401   6.677   4.670   2.874 -0.5424  0.5699  1.0392
 1527SOL    HW2 5402   6.651   4.810   2.954  0.9320  1.3524  0.1971
 1528SOL     OW 5403   6.522   2.164   3.194 -0.4872 -0.6382 -0.4461
 1528SOL    HW1 5404   6.546   2.261   3.193 -0.1617 -0.6149 -4.0029
 1528SOL    HW2 5405   6.587   2.113   3.250  1.0065  0.8626 -0.7611
 1529SOL     OW 5406   1.808   5.668   6.562 -0.1254  0.0990 -0.1527
 1529SOL    HW1 5407   1.895   5.619   6.561 -0.4345 -0.5614  1.8499
 1529SOL    HW2 5408   1.788   5.701   6.654 -2.9441 -1.5554 -0.0475
 1530SOL     OW 5409   2.065   5.156   4.517  0.5776 -0.4564  0.0378
 1530SOL    HW1 5410   2.002   5.087   4.480  0.4148  0.1079 -0.7757
 1530SOL    HW2 5411   2.159   5.130   4.495  0.4231  0.7494 -2.4670
 1531SOL     OW 5412   2.068   4.319   3.949  0.0162 -0.3916 -0.5569
 1531SOL    HW1 5413   2.067   4.269   4.035  1.1143 -0.1726 -0.3936
 1531SOL    HW2 5414   2.006   4.397   3.955  1.1082  0.4255  0.5413
 1532SOL     OW 5415   1.200   2.334   0.592 -0.0959 -0.2098  0.4008
 1532SOL    HW1 5416   1.171   2.339   0.496  0.6158  2.4847  0.2477
 1532SOL    HW2 5417   1.239   2.244   0.611 -0.4661 -0.8708 -1.7628
 1533SOL     OW 5418   5.120   2.321   5.332  0.0808  0.7087  0.0541
 1533SOL    HW1 5419   5.056   2.313   5.255 -0.6529 -0.1028  0.7305
 1533SOL    HW2 5420   5.131   2.417   5.355  0.9306  1.0464 -1.5493
 1534SOL     OW 5421   3.810   6.974   2.310 -0.1510 -0.2065 -0.0570
 1534SOL    HW1 5422   3.905   6.966   2.280 -0.7629  0.3265 -2.4097
 1534SOL    HW2 5423   3.758   7.024   2.241 -2.4495 -1.6323  0.5230
 1535SOL     OW 5424   2.231   6.562   2.406  0.5124 -0.1012 -0.1438
 1535SOL    HW1 5425   2.176   6.634   2.364  0.0123 -0.5852 -0.3292
 1535SOL    HW2 5426   2.223   6.567   2.505 -0.2933 -0.4900 -0.1796
 1536SOL     OW 5427   1.720   5.893   6.062  0.1270  0.2695 -0.3264
 1536SOL    HW1 5428   1.688   5.918   5.970  0.9418 -0.8083 -0.9210
 1536SOL    HW2 5429   1.819   5.903   6.067  0.0318  0.7967  0.5971
 1537SOL     OW 5430   2.376   2.921   6.196 -0.1790 -0.2246  0.3422
 1537SOL    HW1 5431   2.339   2.910   6.104 -2.6704  0.8740  1.1171
 1537SOL    HW2 5432   2.320   2.987   6.247  2.2073  0.6111  2.0743
 1538SOL     OW 5433   6.847   4.024   1.114  0.8916 -0.3657 -0.2758
 1538SOL    HW1 5434   6.853   3.925   1.120  1.6474 -0.3039 -0.0731
 1538SOL    HW2 5435   6.867   4.053   1.020  0.2296 -0.4308 -0.4479
 1539SOL     OW 5436   2.557   6.295   2.721 -0.1202 -0.1070 -0.0502
 1539SOL    HW1 5437   2.508   6.277   2.636 -0.1489  0.2443 -0.1090
 1539SOL    HW2 5438   2.519   6.377   2.764 -1.2450 -1.2136  1.1444
 1540SOL     OW 5439   5.352   3.290   1.075 -0.3546  0.0294  0.5310
 1540SOL    HW1 5440   5.359   3.382   1.113  0.2782 -0.3386  1.3221
 1540SOL    HW2 5441   5.290   3.291   0.997 -1.0938  0.9417  1.1093
 1541SOL     OW 5442   5.550   5.651   3.513 -0.5248  0.0587 -0.5091
 1541SOL    HW1 5443   5.465   5.704   3.515 -0.1874  0.6426 -1.2472
 1541SOL    HW2 5444   5.607   5.682   3.436  0.6812  0.1839  0.4119
 1542SOL     OW 5445   5.525   5.656   4.704 -0.5583  0.6893 -0.2316
 1542SOL    HW1 5446   5.521   5.625   4.609  0.0649  0.5014 -0.2051
 1542SOL    HW2 5447   5.550   5.753   4.705 -2.2455  1.1438 -0.3083
 1543SOL     OW 5448   0.113   4.233   5.623  0.0354 -0.8110 -0.3321
 1543SOL    HW1 5449   0.095   4.327   5.655  0.4171 -0.8951  0.1588
 1543SOL    HW2 5450   0.179   4.235   5.548 -0.2372 -0.6657 -0.5740
 1544SOL     OW 5451   0.672   1.852   5.525 -0.4895  0.4779 -0.1176
 1544SOL    HW1 5452   0.663   1.850   5.425 -0.0187 -0.7614 -0.1452
 1544SOL    HW2 5453   0.742   1.918   5.551 -0.8617  1.0736 -0.5677
 1545SOL     OW 5454   1.740   3.091   6.550 -0.4443  0.9293 -0.5695
 1545SOL    HW1 5455   1.651   3.136   6.540 -0.4489  1.1218  0.1944
 1545SOL    HW2 5456   1.742   3.006   6.498 -2.2964 -0.8450  2.0290
 1546SOL     OW 5457   4.857   0.276   6.117 -0.0391 -0.0121 -0.3385
 1546SOL    HW1 5458   4.823   0.247   6.028 -2.6414  0.0525  0.5545
 1546SOL    HW2 5459   4.815   0.363   6.142  0.8915  0.1396  0.8043
 1547SOL     OW 5460   3.863   3.245   6.895  0.2026 -0.2436 -0.2778
 1547SOL    HW1 5461   3.790   3.308   6.868  0.2894  0.0562  0.1726
 1547SOL    HW2 5462   3.824   3.172   6.952  0.1262 -0.5157 -0.6780
 1548SOL     OW 5463   2.966   0.576   1.586  0.1235 -0.1738 -0.2882
 1548SOL    HW1 5464   2.974   0.673   1.562  2.0337 -0.1993  0.1158
 1548SOL    HW2 5465   3.011   0.560   1.674 -0.4751 -1.3829 -0.1807
 1549SOL     OW 5466   4.859   4.424   1.520 -0.1918  0.2177  0.1208
 1549SOL    HW1 5467   4.800   4.426   1.440 -1.3499  0.4714  0.9477
 1549SOL    HW2 5468   4.838   4.503   1.578  1.5803  0.7928  0.0146
 1550SOL     OW 5469   5.205   1.820   0.438 -0.0385  0.6518 -0.6308
 1550SOL    HW1 5470   5.234   1.733   0.397 -0.4161 -1.0782  2.4524
 1550SOL    HW2 5471   5.283   1.861   0.486 -0.0993  1.5830 -1.3091
 1551SOL     OW 5472   5.452   5.249   1.560 -0.1810 -0.0370 -0.0917
 1551SOL    HW1 5473   5.359   5.231   1.592  0.3519 -0.3504  1.3236
 1551SOL    HW2 5474   5.454   5.241   1.460 -1.0303 -3.0525  0.0403
 1552SOL     OW 5475   6.195   0.871   4.071 -0.0597  0.2085  0.0989
 1552SOL    HW1 5476   6.231   0.801   4.009 -2.4934 -1.6092  0.5921
 1552SOL    HW2 5477   6.155   0.945   4.018 -0.5063 -0.4578 -0.5140
 1553SOL     OW 5478   1.803   4.830   6.922  0.1862  0.1940  0.5713
 1553SOL    HW1 5479   1.742   4.904   6.948 -0.2586 -0.7448  2.3650
 1553SOL    HW2 5480   1.759   4.773   6.853  0.1250  0.9851 -0.0670
 1554SOL     OW 5481   6.555   3.554   3.902 -0.1855 -0.6827  0.3406
 1554SOL    HW1 5482   6.620   3.504   3.844 -0.0867  0.0179 -0.1894
 1554SOL    HW2 5483   6.549   3.510   3.991  1.2357 -0.6094  0.5121
 1555SOL     OW 5484   2.626   5.402   5.593  0.5894  0.0400 -0.1735
 1555SOL    HW1 5485   2.568   5.389   5.674  3.2685 -0.1141  1.8667
 1555SOL    HW2 5486   2.604   5.489   5.550 -1.5347 -0.2921  0.0966
 1556SOL     OW 5487   3.945   3.244   4.027  0.0963  0.2079  0.3533
 1556SOL    HW1 5488   4.037   3.256   4.064  0.7980  0.0568 -1.2827
 1556SOL    HW2 5489   3.902   3.334   4.016  0.7794  0.4310 -0.6274
 1557SOL     OW 5490   3.536   0.331   5.324  0.2207  0.4893  0.1129
 1557SOL    HW1 5491   3.528   0.364   5.229 -0.3402 -0.8156 -0.3178
 1557SOL    HW2 5492   3.593   0.249   5.326 -1.1842 -0.4971  0.6415
 1558SOL     OW 5493   1.443   1.347   4.037 -0.1874  0.0690 -0.2642
 1558SOL    HW1 5494   1.422   1.383   4.128 -0.2575  0.2840 -0.3637
 1558SOL    HW2 5495   1.360   1.348   3.981 -0.7233 -2.2472  0.3852
 1559SOL     OW 5496   4.014   3.965   1.234 -0.1971  0.3886  0.0354
 1559SOL    HW1 5497   4.112   3.956   1.251 -0.6438 -0.7256  2.4234
 1559SOL    HW2 5498   3.999   3.985   1.137  2.4721  2.9006 -0.0131
 1560SOL     OW 5499   6.810   6.364   0.227  0.4155  0.4869  0.1218
 1560SOL    HW1 5500   6.863   6.283   0.252  0.4193  0.6968  0.8181
 1560SOL    HW2 5501   6.842   6.442   0.281 -1.1847  0.4450  1.1872
 1561SOL     OW 5502   0.843   2.037   0.780 -0.0271  0.1708  0.4858
 1561SOL    HW1 5503   0.919   2.026   0.845 -0.9712 -1.3379  1.4139
 1561SOL    HW2 5504   0.786   2.113   0.809 -0.2495 -0.2711  1.2817
 1562SOL     OW 5505   0.348   5.333   5.016 -0.3908 -0.0217  0.3003
 1562SOL    HW1 5506   0.388   5.249   5.051 -1.3909 -1.1211 -1.0662
 1562SOL    HW2 5507   0.351   5.404   5.087 -1.5062 -1.8490  2.2727
 1563SOL     OW 5508   1.646   3.125   5.253 -0.8051  0.3798  0.1876
 1563SOL    HW1 5509   1.701   3.173   5.184 -0.0122  1.1687  1.3357
 1563SOL    HW2 5510   1.588   3.190   5.301 -0.0792  0.1458  1.4242
 1564SOL     OW 5511   1.143   0.783   3.846  0.0330 -0.4875  0.1512
 1564SOL    HW1 5512   1.124   0.702   3.902 -0.9079 -0.0096  0.5441
 1564SOL    HW2 5513   1.071   0.851   3.860  0.6833  0.3261 -0.3611
 1565SOL     OW 5514   3.405   4.273   5.501 -0.3432  0.4205 -0.1269
 1565SOL    HW1 5515   3.409   4.198   5.435 -0.8158  0.2577  0.0316
 1565SOL    HW2 5516   3.496   4.288   5.540  0.2334  1.3029 -1.6905
 1566SOL     OW 5517   2.825   5.014   1.148  0.0021 -0.5106  0.5889
 1566SOL    HW1 5518   2.878   5.061   1.218  0.5361 -2.8933  1.8860
 1566SOL    HW2 5519   2.764   4.947   1.191  0.0443 -1.7575 -1.1778
 1567SOL     OW 5520   6.431   0.044   0.181  0.5888 -0.6531  0.3729
 1567SOL    HW1 5521   6.425  -0.037   0.240 -0.7255 -0.2313  0.8498
 1567SOL    HW2 5522   6.431   0.126   0.238  2.3016 -0.2890 -0.0874
 1568SOL     OW 5523   1.506   4.722   3.346 -0.2913 -0.8395 -0.1373
 1568SOL    HW1 5524   1.474   4.635   3.385 -0.1124 -0.8059  0.0927
 1568SOL    HW2 5525   1.592   4.706   3.298  0.0385 -0.6948  0.3845
 1569SOL     OW 5526   2.401   6.993   6.526 -0.1013  0.0242  0.2973
 1569SOL    HW1 5527   2.469   6.946   6.469  0.1830 -1.3145  1.6843
 1569SOL    HW2 5528   2.404   7.091   6.507  1.2746 -0.1950 -0.6342
 1570SOL     OW 5529   1.790   6.467   6.518 -0.2283  0.0974 -0.5905
 1570SOL    HW1 5530   1.697   6.503   6.510  0.3110  1.9100  0.6490
 1570SOL    HW2 5531   1.798   6.413   6.601  0.3242  1.7421  0.4701
 1571SOL     OW 5532   0.707   5.298   1.223  0.0603 -0.0093 -0.4630
 1571SOL    HW1 5533   0.746   5.289   1.131  0.2613 -0.3306 -0.3486
 1571SOL    HW2 5534   0.778   5.282   1.291 -0.2826 -0.6796 -0.2522
 1572SOL     OW 5535   3.694   0.462   3.054 -0.5339 -0.0009 -0.3017
 1572SOL    HW1 5536   3.754   0.497   2.982 -1.8446 -0.1994 -1.5254
 1572SOL    HW2 5537   3.738   0.477   3.143 -0.0181  2.6588 -0.9284
 1573SOL     OW 5538   1.176   6.598   2.274 -0.0799  0.1176 -0.0592
 1573SOL    HW1 5539   1.265   6.642   2.268 -0.9272  2.1290  1.3355
 1573SOL    HW2 5540   1.175   6.535   2.352  0.3504 -0.5730 -0.5923
 1574SOL     OW 5541   4.558   1.377   5.011 -0.9532 -0.2146  0.1022
 1574SOL    HW1 5542   4.500   1.383   4.929 -0.9304  1.5077  0.1517
 1574SOL    HW2 5543   4.506   1.407   5.091 -0.8139 -1.3652  0.6363
 1575SOL     OW 5544   5.552   5.123   5.565 -0.1971  0.3405  0.4168
 1575SOL    HW1 5545   5.612   5.069   5.623  2.0492  0.1943 -1.8929
 1575SOL    HW2 5546   5.462   5.080   5.560  1.1338 -2.5471 -0.3577
 1576SOL     OW 5547   0.833   1.971   0.518  0.0401  0.1467 -0.2343
 1576SOL    HW1 5548   0.835   2.002   0.613  1.4481 -0.0199 -0.1871
 1576SOL    HW2 5549   0.793   2.043   0.460 -1.9407 -0.2218  0.6124
 1577SOL     OW 5550   6.586   4.293   6.534 -0.5238  0.1722 -0.5834
 1577SOL    HW1 5551   6.506   4.260   6.583  0.1676 -1.8828 -0.7638
 1577SOL    HW2 5552   6.638   4.355   6.594 -0.7045 -0.7920  0.6026
 1578SOL     OW 5553   2.971   2.981   1.670 -0.4018 -0.2447  0.3449
 1578SOL    HW1 5554   3.051   3.011   1.721 -0.5737  0.4409  0.2245
 1578SOL    HW2 5555   2.997   2.908   1.606  0.2482  0.3682 -0.1099
 1579SOL     OW 5556   5.293   6.211   0.564 -0.2998  0.5661  0.0877
 1579SOL    HW1 5557   5.203   6.214   0.606 -0.6239  3.1426 -0.6533
 1579SOL    HW2 5558   5.322   6.115   0.555 -2.9013 -0.3333  0.3547
 1580SOL     OW 5559   1.504   0.771   4.451 -0.6297  0.8359  0.1717
 1580SOL    HW1 5560   1.534   0.682   4.484  0.3833  1.1271  0.1053
 1580SOL    HW2 5561   1.406   0.783   4.468 -0.9604 -0.6032 -0.5793
 1581SOL     OW 5562   4.362   3.305   1.193 -0.0949 -0.4143 -0.5024
 1581SOL    HW1 5563   4.320   3.339   1.277  2.3064 -0.3219  0.7248
 1581SOL    HW2 5564   4.308   3.229   1.157 -1.0216 -0.6329  1.2790
 1582SOL     OW 5565   6.983   6.494   4.320 -0.0372  0.7950  0.5963
 1582SOL    HW1 5566   6.907   6.547   4.357 -0.1021  0.7480  0.5310
 1582SOL    HW2 5567   6.997   6.412   4.375 -1.5781 -0.4336 -0.7505
 1583SOL     OW 5568   0.252   3.852   6.125  0.0769  0.1831 -0.2169
 1583SOL    HW1 5569   0.161   3.886   6.102  1.6843  5.0327 -0.7088
 1583SOL    HW2 5570   0.253   3.821   6.220 -2.0097  0.1017 -0.1532
 1584SOL     OW 5571   3.607   3.420   0.106  0.7006 -0.1356 -0.1752
 1584SOL    HW1 5572   3.665   3.468   0.171 -2.0976  2.6991  0.4486
 1584SOL    HW2 5573   3.556   3.348   0.153  3.8796 -3.0988 -0.8479
 1585SOL     OW 5574   2.092   0.608   3.757 -0.2973  0.0648 -0.1501
 1585SOL    HW1 5575   2.072   0.706   3.754 -0.8055 -0.0030  0.6785
 1585SOL    HW2 5576   2.067   0.567   3.669 -2.4902  0.2438  0.3257
 1586SOL     OW 5577   1.852   6.346   2.681 -0.1278 -0.5728  0.1366
 1586SOL    HW1 5578   1.806   6.271   2.729  0.1947 -0.3397  0.8232
 1586SOL    HW2 5579   1.939   6.365   2.725 -1.0267  1.4837  1.1908
 1587SOL     OW 5580   4.882   2.646   2.273 -0.3065  0.7962  0.1323
 1587SOL    HW1 5581   4.953   2.715   2.255  0.6476 -0.0760  0.4620
 1587SOL    HW2 5582   4.838   2.621   2.187  1.8193 -0.7716 -0.5981
 1588SOL     OW 5583   4.959   2.100   4.288 -0.1181  0.0276 -0.3864
 1588SOL    HW1 5584   4.897   2.100   4.366 -0.0712  0.3585 -0.3436
 1588SOL    HW2 5585   4.940   2.179   4.230 -0.3777 -0.4057 -0.8992
 1589SOL     OW 5586   6.711   3.190   0.105 -0.1886  0.2199 -0.7636
 1589SOL    HW1 5587   6.656   3.205   0.023  0.1504  2.1833 -0.6831
 1589SOL    HW2 5588   6.798   3.240   0.097 -0.0729  0.2975  0.7047
 1590SOL     OW 5589   1.653   2.109   1.764 -0.2734 -0.4624 -0.2681
 1590SOL    HW1 5590   1.570   2.096   1.818  0.6156 -0.2759  1.2002
 1590SOL    HW2 5591   1.645   2.193   1.710 -1.0804 -0.5173 -0.2498
 1591SOL     OW 5592   5.767   6.648   5.609 -0.1974 -0.1674  0.2721
 1591SOL    HW1 5593   5.866   6.663   5.614 -0.4808  2.0537  0.1604
 1591SOL    HW2 5594   5.736   6.602   5.692  0.6526  1.0463  1.2951
 1592SOL     OW 5595   2.585   1.168   3.887 -0.0690  0.0506 -0.0584
 1592SOL    HW1 5596   2.531   1.119   3.955 -1.2541  1.3285 -0.0093
 1592SOL    HW2 5597   2.524   1.219   3.827  1.0074 -0.2700 -1.4832
 1593SOL     OW 5598   6.031   3.924   6.172  0.6293  0.5720 -0.2431
 1593SOL    HW1 5599   6.065   3.858   6.239  0.5350  1.3597  0.5995
 1593SOL    HW2 5600   6.098   3.997   6.161 -0.6966  2.1950  1.4991
 1594SOL     OW 5601   2.953   2.750   0.111  0.3303  0.6195 -0.4397
 1594SOL    HW1 5602   2.996   2.661   0.127 -0.5885  0.2803  0.2515
 1594SOL    HW2 5603   2.903   2.778   0.194 -1.1121  0.7997 -1.3299
 1595SOL     OW 5604   1.079   4.567   6.221  0.6193  0.0392  0.2682
 1595SOL    HW1 5605   1.006   4.506   6.190  0.5436  1.0305 -1.6911
 1595SOL    HW2 5606   1.168   4.522   6.209  0.5318  0.0880 -0.6861
 1596SOL     OW 5607   4.348   1.209   1.960 -0.4319 -0.3037 -0.3147
 1596SOL    HW1 5608   4.422   1.226   2.025 -0.1047 -2.8403  0.0482
 1596SOL    HW2 5609   4.370   1.129   1.904 -1.7774  0.4196 -1.9603
 1597SOL     OW 5610   5.675   1.188   6.011 -0.2490  0.0921  0.1390
 1597SOL    HW1 5611   5.649   1.284   5.999 -1.1506 -0.1465  0.0741
 1597SOL    HW2 5612   5.619   1.131   5.951  1.1200 -0.3790 -0.7220
 1598SOL     OW 5613   6.233   2.561   5.485 -0.7217 -0.6866  0.0497
 1598SOL    HW1 5614   6.278   2.594   5.402 -3.0506 -0.6806 -1.2769
 1598SOL    HW2 5615   6.297   2.505   5.538  0.0929 -2.9127 -3.0575
 1599SOL     OW 5616   3.869   6.197   4.436  0.1574 -0.5993 -0.1864
 1599SOL    HW1 5617   3.904   6.280   4.480  0.2882 -0.0173 -1.3483
 1599SOL    HW2 5618   3.931   6.121   4.455  0.5132 -0.2339  0.1496
 1600SOL     OW 5619   6.797   6.267   6.323  0.1148  0.1833  0.3509
 1600SOL    HW1 5620   6.823   6.171   6.331  1.1213  0.2404 -1.6412
 1600SOL    HW2 5621   6.825   6.302   6.233 -1.5798  1.9348  0.4499
 1601SOL     OW 5622   0.764   6.862   0.936  0.1942 -0.0924  0.1731
 1601SOL    HW1 5623   0.679   6.809   0.939 -0.5600  1.0718  0.0581
 1601SOL    HW2 5624   0.790   6.887   1.030  0.0558  0.0870  0.1654
 1602SOL     OW 5625   4.701   3.720   4.898  0.6860  0.0289 -0.1685
 1602SOL    HW1 5626   4.770   3.756   4.960  2.2509 -2.5303 -0.2509
 1602SOL    HW2 5627   4.725   3.625   4.874 -1.8492 -0.2923 -1.7554
 1603SOL     OW 5628   1.998   6.703   5.862  0.0953 -0.0220  0.2811
 1603SOL    HW1 5629   1.902   6.681   5.878 -0.4759  1.5950 -0.7236
 1603SOL    HW2 5630   2.010   6.802   5.863  1.5426 -0.1585 -0.8387
 1604SOL     OW 5631   0.231   5.264   6.819 -0.0764 -0.3110 -0.7044
 1604SOL    HW1 5632   0.260   5.174   6.851  1.5471  0.7480  0.9480
 1604SOL    HW2 5633   0.301   5.304   6.759  0.5052  0.9527  0.7633
 1605SOL     OW 5634   2.942   0.115   5.249  0.5657 -0.5886  0.1636
 1605SOL    HW1 5635   2.896   0.204   5.254 -0.5451 -1.1226 -0.2861
 1605SOL    HW2 5636   2.969   0.086   5.341 -0.0155 -0.2719  0.4356
 1606SOL     OW 5637   4.197   1.342   6.532 -0.0418  0.0259  0.3393
 1606SOL    HW1 5638   4.191   1.363   6.435  0.1484  0.5337  0.4326
 1606SOL    HW2 5639   4.178   1.245   6.547 -1.4388  0.2252 -0.0538
 1607SOL     OW 5640   1.867   0.053   0.511 -0.8416 -0.2060  1.0737
 1607SOL    HW1 5641   1.957   0.097   0.519  0.0327 -2.0762  2.0820
 1607SOL    HW2 5642   1.796   0.120   0.531  0.2520  1.4775 -0.3097
 1608SOL     OW 5643   2.779   5.866   1.884 -0.0296  0.0405 -0.1950
 1608SOL    HW1 5644   2.839   5.819   1.949  0.0143 -1.3915 -1.2317
 1608SOL    HW2 5645   2.829   5.884   1.799 -0.2863  1.2769 -0.1056
 1609SOL     OW 5646   0.396   1.728   2.085  0.1890  0.7952 -0.3757
 1609SOL    HW1 5647   0.340   1.810   2.092 -0.9192  0.2094 -1.8961
 1609SOL    HW2 5648   0.441   1.726   1.996  1.7378  0.6761  0.3762
 1610SOL     OW 5649   1.350   3.693   1.116 -0.2024 -0.5332 -0.4255
 1610SOL    HW1 5650   1.348   3.594   1.100 -0.4666 -0.7663  0.9337
 1610SOL    HW2 5651   1.420   3.734   1.057  0.7913 -1.6997 -0.1078
 1611SOL     OW 5652   6.998   6.230   5.758 -0.3264  0.0761 -0.1190
 1611SOL    HW1 5653   6.914   6.175   5.748 -0.1512 -0.2339  0.0918
 1611SOL    HW2 5654   7.076   6.169   5.771  0.1464  0.2856 -1.8292
 1612SOL     OW 5655   2.875   1.804   1.335  0.0257  0.0804 -0.5092
 1612SOL    HW1 5656   2.835   1.846   1.253 -0.1842 -2.0039 -1.5259
 1612SOL    HW2 5657   2.878   1.705   1.324  0.4032 -0.2234  1.8574
 1613SOL     OW 5658   0.218   3.043   5.247 -0.1817  0.2002  0.1865
 1613SOL    HW1 5659   0.241   2.959   5.296  0.5780 -0.5151 -1.3133
 1613SOL    HW2 5660   0.197   3.021   5.151 -3.4157  1.3086  0.5160
 1614SOL     OW 5661   2.376   1.614   6.742 -0.1525 -0.1583  0.0072
 1614SOL    HW1 5662   2.379   1.551   6.820  0.4515 -0.1214  0.0259
 1614SOL    HW2 5663   2.288   1.661   6.740 -0.9651 -1.6278 -0.5208
 1615SOL     OW 5664   5.298   3.006   1.105  0.2080  0.4458 -0.2648
 1615SOL    HW1 5665   5.201   3.022   1.122 -0.0531 -1.3350  0.1599
 1615SOL    HW2 5666   5.348   3.092   1.112 -1.3277  1.3957 -0.4803
 1616SOL     OW 5667   4.468   0.116   5.010 -0.5028 -0.7499  0.2547
 1616SOL    HW1 5668   4.500   0.022   5.026  0.0143 -0.2551  2.6644
 1616SOL    HW2 5669   4.511   0.177   5.077 -2.3147  0.8888  0.0073
 1617SOL     OW 5670   3.572   0.112   3.557  0.6224 -0.0303  0.9414
 1617SOL    HW1 5671   3.642   0.063   3.505  0.1929 -0.4262  0.7191
 1617SOL    HW2 5672   3.534   0.186   3.501  0.5633 -0.0897  0.9020
 1618SOL     OW 5673   6.396   3.984   3.298 -0.2499 -0.0904 -0.2287
 1618SOL    HW1 5674   6.495   3.991   3.311 -0.2849  0.0724 -0.0332
 1618SOL    HW2 5675   6.376   3.923   3.222 -0.0017 -0.1795 -0.2248
 1619SOL     OW 5676   2.896   5.437   0.613 -0.0032  0.3264  0.0733
 1619SOL    HW1 5677   2.848   5.390   0.687  0.0563 -0.8103 -0.5881
 1619SOL    HW2 5678   2.976   5.484   0.651  2.3756 -3.4640  0.3292
 1620SOL     OW 5679   4.859   4.354   3.965  0.2391 -0.1995  0.4142
 1620SOL    HW1 5680   4.861   4.452   3.988 -0.9405 -0.1900  0.5475
 1620SOL    HW2 5681   4.948   4.313   3.988  1.5901  1.2918 -1.7887
 1621SOL     OW 5682   5.444   3.982   3.107 -0.2999 -0.0086  0.1424
 1621SOL    HW1 5683   5.431   3.954   3.012  0.4744  1.1813 -0.3533
 1621SOL    HW2 5684   5.359   3.973   3.157 -0.6288 -1.0188 -0.5536
 1622SOL     OW 5685   3.774   6.338   6.717  0.7548  0.0817  0.1690
 1622SOL    HW1 5686   3.832   6.329   6.636  0.1791  1.8024 -0.4693
 1622SOL    HW2 5687   3.678   6.339   6.691  0.5755  1.1174  0.8190
 1623SOL     OW 5688   4.269   6.306   3.076 -0.2225 -0.6797 -0.1151
 1623SOL    HW1 5689   4.209   6.261   3.011 -1.9846  0.2593  0.7758
 1623SOL    HW2 5690   4.268   6.257   3.163  0.7502 -0.9621 -0.2475
 1624SOL     OW 5691   6.402   1.415   0.678 -0.3119  0.0396 -0.2967
 1624SOL    HW1 5692   6.388   1.350   0.604 -2.8943 -3.1047  2.6098
 1624SOL    HW2 5693   6.497   1.413   0.707  0.8180  1.5554 -3.5514
 1625SOL     OW 5694   2.947   4.063   6.487 -0.4097  0.4512  0.2912
 1625SOL    HW1 5695   2.977   4.002   6.413  0.0431  0.4643  0.4547
 1625SOL    HW2 5696   2.848   4.075   6.482 -0.3056  1.0542 -0.7661
 1626SOL     OW 5697   6.912   5.639   0.960  0.5911  0.6354 -0.0459
 1626SOL    HW1 5698   6.857   5.657   1.041  2.4832  1.5648  1.0956
 1626SOL    HW2 5699   6.916   5.540   0.943  0.0257  0.4520  0.8623
 1627SOL     OW 5700   0.468   3.339   0.224 -0.3137  0.6465  0.0133
 1627SOL    HW1 5701   0.466   3.303   0.317  0.3184  0.4567 -0.0514
 1627SOL    HW2 5702   0.483   3.265   0.159 -1.9703  0.5808 -0.3511
 1628SOL     OW 5703   4.908   1.266   5.973  0.4819  0.5229 -0.1196
 1628SOL    HW1 5704   4.811   1.244   5.972 -0.5433  4.3793  0.2340
 1628SOL    HW2 5705   4.925   1.341   6.037  3.6067  0.4223 -0.6743
 1629SOL     OW 5706   4.377   1.671   7.007 -0.2933  0.0077  0.3081
 1629SOL    HW1 5707   4.353   1.598   7.071  1.5560  0.3300  1.4577
 1629SOL    HW2 5708   4.374   1.759   7.055 -1.3595  0.5947 -0.7991
 1630SOL     OW 5709   1.290   3.057   1.052 -0.1396 -0.5904  0.8498
 1630SOL    HW1 5710   1.203   3.077   1.009  1.1021  0.5424 -1.2864
 1630SOL    HW2 5711   1.342   2.993   0.995  1.1688  0.2045  1.1198
 1631SOL     OW 5712   2.056   1.025   6.998  0.2815 -0.0457 -0.4089
 1631SOL    HW1 5713   2.150   1.024   6.965  0.7779 -0.3361  0.9433
 1631SOL    HW2 5714   1.996   0.984   6.928  1.1776 -0.0630 -1.1939
 1632SOL     OW 5715   2.571   2.146   3.009  0.2745 -0.3472 -0.6053
 1632SOL    HW1 5716   2.666   2.116   3.014  0.0770 -1.4073 -2.3110
 1632SOL    HW2 5717   2.556   2.194   2.923  0.0238  2.8002  1.0942
 1633SOL     OW 5718   6.239   5.144   6.402 -0.2949  0.0336  0.2818
 1633SOL    HW1 5719   6.261   5.195   6.486 -1.4492  2.3376 -0.7229
 1633SOL    HW2 5720   6.174   5.197   6.347 -0.0049 -1.6832 -1.8271
 1634SOL     OW 5721   3.110   1.562   0.077  0.0098  0.2670 -0.1234
 1634SOL    HW1 5722   3.143   1.479   0.122 -0.6486 -1.3733 -2.4472
 1634SOL    HW2 5723   3.011   1.554   0.061  0.1475  0.9344 -1.4695
 1635SOL     OW 5724   5.056   5.477   3.462  0.5089 -0.2606  0.6951
 1635SOL    HW1 5725   5.025   5.569   3.437 -0.9134 -0.4177  1.6965
 1635SOL    HW2 5726   5.084   5.428   3.380  2.9857  1.6164  0.3172
 1636SOL     OW 5727   4.356   4.986   6.112  0.1312 -0.0638  0.0427
 1636SOL    HW1 5728   4.386   4.948   6.199  1.3246 -0.8700 -0.6932
 1636SOL    HW2 5729   4.266   4.949   6.088  0.7839 -1.6071 -0.1263
 1637SOL     OW 5730   6.597   6.580   5.453  0.9984 -0.6843  0.0152
 1637SOL    HW1 5731   6.514   6.607   5.502  1.5847 -0.2544  0.7995
 1637SOL    HW2 5732   6.574   6.513   5.383 -0.1173 -0.0842 -0.2253
 1638SOL     OW 5733   2.219   4.272   4.290  0.4124 -0.0832 -0.4844
 1638SOL    HW1 5734   2.281   4.301   4.218 -1.7585  1.0318 -2.0482
 1638SOL    HW2 5735   2.259   4.294   4.379  2.6806 -0.4422 -1.3749
 1639SOL     OW 5736   5.122   4.628   0.708 -0.8444 -0.2098  0.5207
 1639SOL    HW1 5737   5.082   4.671   0.627  1.7915  1.7978  0.1387
 1639SOL    HW2 5738   5.164   4.541   0.683  0.7231  0.8017 -0.5557
 1640SOL     OW 5739   0.968   1.727   0.409  0.3864  0.5234 -0.3662
 1640SOL    HW1 5740   0.947   1.647   0.465 -0.3711  0.6910 -0.3862
 1640SOL    HW2 5741   0.912   1.804   0.438 -1.2092  0.2242 -2.3225
 1641SOL     OW 5742   1.909   6.042   4.680 -0.1380 -0.1079 -0.0354
 1641SOL    HW1 5743   1.822   5.999   4.703 -0.5390  0.9014  0.3564
 1641SOL    HW2 5744   1.978   6.016   4.748 -0.7534  1.0428  1.0708
 1642SOL     OW 5745   0.985   2.883   6.836 -0.2255  0.4203 -0.8287
 1642SOL    HW1 5746   0.891   2.851   6.846 -0.4549 -0.0105 -3.4735
 1642SOL    HW2 5747   1.048   2.817   6.876 -0.9994  0.4134  0.4275
 1643SOL     OW 5748   3.185   3.413   6.272  0.5257  0.6894 -0.0938
 1643SOL    HW1 5749   3.128   3.428   6.191 -0.4397 -3.4930 -0.4306
 1643SOL    HW2 5750   3.131   3.366   6.343  2.3811  0.7533  1.4352
 1644SOL     OW 5751   5.024   3.524   1.019 -0.6166  0.5507 -0.1736
 1644SOL    HW1 5752   4.988   3.537   0.927 -0.3557 -1.4274 -0.5825
 1644SOL    HW2 5753   4.972   3.453   1.066 -1.4326  2.2389  1.6416
 1645SOL     OW 5754   0.203   6.076   5.463  0.1578 -0.1155  0.4176
 1645SOL    HW1 5755   0.111   6.114   5.461  1.3108  2.8261  0.4185
 1645SOL    HW2 5756   0.226   6.040   5.373 -0.1274  1.3563 -0.2664
 1646SOL     OW 5757   6.653   0.701   4.808 -0.3997 -0.0421  0.2021
 1646SOL    HW1 5758   6.693   0.755   4.733 -1.0759  0.5639  0.2591
 1646SOL    HW2 5759   6.672   0.746   4.895 -1.4575  0.4383  0.2041
 1647SOL     OW 5760   3.517   3.589   0.365 -0.3122 -0.0609 -0.5639
 1647SOL    HW1 5761   3.498   3.584   0.463 -0.6327 -1.3056 -0.6749
 1647SOL    HW2 5762   3.441   3.549   0.314  0.4528 -0.6620 -1.2564
 1648SOL     OW 5763   4.423   3.435   6.761  0.4866 -0.3255 -0.5010
 1648SOL    HW1 5764   4.360   3.467   6.689  0.0167  0.0494  0.0682
 1648SOL    HW2 5765   4.481   3.362   6.724 -1.3544 -1.8105 -0.6199
 1649SOL     OW 5766   6.223   0.518   6.557  0.1939  0.2160 -0.1632
 1649SOL    HW1 5767   6.243   0.580   6.633 -0.5279 -0.4916  0.6263
 1649SOL    HW2 5768   6.234   0.566   6.470 -0.4430  1.4805  0.4293
 1650SOL     OW 5769   4.202   2.212   4.817  0.4092  0.1893  0.6823
 1650SOL    HW1 5770   4.235   2.118   4.832  0.0396  0.0436  0.5876
 1650SOL    HW2 5771   4.223   2.267   4.898  1.3657  0.2299  0.4103
 1651SOL     OW 5772   5.754   3.296   5.495 -0.0772 -0.0085  0.0040
 1651SOL    HW1 5773   5.668   3.347   5.495  0.3219  0.6638  0.8503
 1651SOL    HW2 5774   5.793   3.295   5.587  1.0995  0.1617 -0.4773
 1652SOL     OW 5775   1.270   6.760   5.903  0.4261  0.3912 -0.0248
 1652SOL    HW1 5776   1.287   6.845   5.954 -0.6252 -0.3476  1.6388
 1652SOL    HW2 5777   1.203   6.778   5.830  0.2305  1.0014  0.2995
 1653SOL     OW 5778   4.656   5.400   0.364  0.1526 -0.3359 -0.5272
 1653SOL    HW1 5779   4.716   5.324   0.344  0.3581 -0.6759  1.1895
 1653SOL    HW2 5780   4.704   5.486   0.349  1.7068 -0.5900  2.2417
 1654SOL     OW 5781   0.459   5.890   2.516 -0.3224  0.1136 -0.0936
 1654SOL    HW1 5782   0.368   5.853   2.499 -0.5927  1.4946 -1.9887
 1654SOL    HW2 5783   0.461   5.987   2.491  1.3193  0.4793  1.2335
 1655SOL     OW 5784   3.672   5.309   2.150 -0.2019 -0.2038  0.1090
 1655SOL    HW1 5785   3.623   5.271   2.228 -0.4668 -1.1369 -0.4864
 1655SOL    HW2 5786   3.712   5.235   2.096 -3.3989 -0.0601 -2.8427
 1656SOL     OW 5787   3.097   1.954   1.400  0.2292 -0.0799  0.1764
 1656SOL    HW1 5788   3.005   1.919   1.386 -0.6499  1.4768  1.7525
 1656SOL    HW2 5789   3.096   2.054   1.393  1.3683  0.1250  2.2976
 1657SOL     OW 5790   0.495   0.315   3.336 -0.1117  0.4596  0.2686
 1657SOL    HW1 5791   0.465   0.327   3.431  1.6938 -0.1916  0.9601
 1657SOL    HW2 5792   0.595   0.317   3.332 -0.1066 -0.7992 -1.4539
 1658SOL     OW 5793   6.663   4.121   2.968  0.3498  0.4322  0.4096
 1658SOL    HW1 5794   6.738   4.173   2.926  1.3331  0.4750  2.1363
 1658SOL    HW2 5795   6.627   4.171   3.046  0.4811 -0.8974  1.3590
 1659SOL     OW 5796   0.027   4.200   5.162  0.3323 -0.2373 -0.2033
 1659SOL    HW1 5797  -0.027   4.128   5.206 -0.1982 -0.3700 -1.0516
 1659SOL    HW2 5798  -0.010   4.289   5.187 -0.7600 -0.3444 -1.3816
 1660SOL     OW 5799   3.643   3.838   2.489 -0.3717  0.4559  0.0427
 1660SOL    HW1 5800   3.740   3.837   2.468 -0.3608 -2.4522 -0.1440
 1660SOL    HW2 5801   3.630   3.815   2.586 -0.8951 -1.6461 -0.4863
 1661SOL     OW 5802   4.283   1.020   0.586 -0.1337 -0.5341  0.6338
 1661SOL    HW1 5803   4.240   0.930   0.574 -0.5207 -0.0893 -2.2317
 1661SOL    HW2 5804   4.339   1.041   0.505 -0.8236  2.1655  0.7248
 1662SOL     OW 5805   1.562   3.043   2.005  0.6244  0.2394 -0.1333
 1662SOL    HW1 5806   1.526   3.094   2.083 -0.6126  0.3966 -0.7747
 1662SOL    HW2 5807   1.541   2.946   2.016 -0.5277  0.3917 -0.7463
 1663SOL     OW 5808   6.491   4.084   2.094  0.4086  0.1665 -0.1321
 1663SOL    HW1 5809   6.409   4.049   2.049  0.1703 -1.4042  1.4194
 1663SOL    HW2 5810   6.474   4.176   2.129 -1.6898 -1.1413  2.5645
 1664SOL     OW 5811   5.392   0.243   0.505 -0.4261 -0.2828  0.3082
 1664SOL    HW1 5812   5.359   0.288   0.422  0.1295  1.9983  1.2409
 1664SOL    HW2 5813   5.483   0.278   0.528  0.1359 -2.0986  0.9794
 1665SOL     OW 5814   2.871   4.614   3.568  0.4076  0.5358  0.1003
 1665SOL    HW1 5815   2.921   4.646   3.649  1.5187  0.4087 -0.4987
 1665SOL    HW2 5816   2.924   4.542   3.523 -0.3298  0.4049 -0.5779
 1666SOL     OW 5817   3.623   3.863   0.956  0.2846  0.2518 -0.6455
 1666SOL    HW1 5818   3.571   3.909   0.884 -0.1199  1.1755  0.2199
 1666SOL    HW2 5819   3.599   3.901   1.045  1.5097 -0.1863 -0.1022
 1667SOL     OW 5820   2.802   4.619   0.578  0.1988  0.5234 -0.1444
 1667SOL    HW1 5821   2.803   4.711   0.616 -0.3339  0.9006 -1.0196
 1667SOL    HW2 5822   2.720   4.571   0.609  0.5318  0.2967  0.4010
 1668SOL     OW 5823   0.140   4.703   4.312  0.3803 -0.1512  0.0835
 1668SOL    HW1 5824   0.054   4.653   4.324 -0.2274  0.7631 -0.3037
 1668SOL    HW2 5825   0.170   4.739   4.401  0.3149 -0.4047  0.2092
 1669SOL     OW 5826   4.895   6.720   2.000 -0.1624  0.5287  0.4933
 1669SOL    HW1 5827   4.930   6.652   1.935 -1.2292  1.0102 -0.6096
 1669SOL    HW2 5828   4.937   6.704   2.090  1.7589  0.1877 -0.4177
 1670SOL     OW 5829   2.970   3.749   6.360  0.3551  0.0329 -0.5786
 1670SOL    HW1 5830   2.931   3.797   6.282  2.3159 -1.3338 -2.4947
 1670SOL    HW2 5831   3.059   3.790   6.383  0.0831  0.0204  0.5441
 1671SOL     OW 5832   1.787   1.595   5.124  0.0506 -0.1891  0.2217
 1671SOL    HW1 5833   1.874   1.637   5.101 -0.5434  0.0089 -1.8968
 1671SOL    HW2 5834   1.729   1.662   5.170  0.3899  0.1998  0.0918
 1672SOL     OW 5835   6.411   4.609   4.845 -0.4198  0.1538 -0.4960
 1672SOL    HW1 5836   6.417   4.709   4.850  2.2161  0.1626 -2.2530
 1672SOL    HW2 5837   6.377   4.583   4.755  3.9481 -0.4573 -2.2091
 1673SOL     OW 5838   4.231   6.988   6.578 -0.4374  0.0655  0.3407
 1673SOL    HW1 5839   4.140   6.993   6.537 -0.5813  0.2994  0.6806
 1673SOL    HW2 5840   4.228   7.026   6.671  0.2395  1.1232 -0.0596
 1674SOL     OW 5841   0.839   6.194   4.657  0.0556 -0.2084 -0.0187
 1674SOL    HW1 5842   0.877   6.209   4.566 -0.6516  1.5954 -0.0654
 1674SOL    HW2 5843   0.891   6.124   4.705  0.1163 -1.5956 -1.9936
 1675SOL     OW 5844   3.337   5.105   3.871  0.4877  0.3691  0.1608
 1675SOL    HW1 5845   3.238   5.106   3.860  0.3611  0.2583  1.1462
 1675SOL    HW2 5846   3.380   5.151   3.794 -0.3783  1.2798  0.1974
 1676SOL     OW 5847   2.455   1.333   2.544  0.4140 -0.3375 -0.2540
 1676SOL    HW1 5848   2.408   1.421   2.554  0.5340 -0.3986  1.1369
 1676SOL    HW2 5849   2.543   1.347   2.499 -0.2184  0.0147 -1.4121
 1677SOL     OW 5850   5.918   5.460   2.185  0.4755 -0.0131 -0.6396
 1677SOL    HW1 5851   5.941   5.428   2.093  0.5428 -0.6182 -0.4133
 1677SOL    HW2 5852   5.843   5.525   2.180  1.5092  1.1836 -1.2922
 1678SOL     OW 5853   1.354   6.619   6.707  0.3181 -0.4107  0.1149
 1678SOL    HW1 5854   1.259   6.619   6.677  0.4132 -1.4032 -0.2422
 1678SOL    HW2 5855   1.358   6.625   6.806 -0.0235  2.3027  0.0599
 1679SOL     OW 5856   4.177   2.380   1.493 -0.1615 -0.6864 -0.2861
 1679SOL    HW1 5857   4.255   2.441   1.479  0.2732 -0.9081  1.0201
 1679SOL    HW2 5858   4.101   2.409   1.436  0.2910  0.6267 -0.2362
 1680SOL     OW 5859   6.032   3.710   1.081 -0.4856  0.1626 -0.9388
 1680SOL    HW1 5860   6.106   3.664   1.033  0.9940  2.7780 -1.2806
 1680SOL    HW2 5861   5.997   3.649   1.153  3.0126 -0.5967  0.3057
 1681SOL     OW 5862   6.952   4.613   0.498  0.2243  0.2872  0.3998
 1681SOL    HW1 5863   6.932   4.527   0.450 -0.3398  1.2397 -1.1512
 1681SOL    HW2 5864   7.048   4.613   0.528 -0.1336 -1.4157  1.6510
 1682SOL     OW 5865   6.182   4.131   0.339 -0.0693 -0.2986  0.4940
 1682SOL    HW1 5866   6.196   4.230   0.333 -1.1113 -0.0561  1.5665
 1682SOL    HW2 5867   6.186   4.091   0.248  1.7724  0.5055  0.1615
 1683SOL     OW 5868   4.915   3.677   3.804 -0.3381  0.2229 -0.1298
 1683SOL    HW1 5869   4.836   3.636   3.759  0.3417 -0.1079 -1.0785
 1683SOL    HW2 5870   4.976   3.716   3.734 -0.0817  1.2342  0.6410
 1684SOL     OW 5871   1.652   6.084   1.367  0.2185  0.0881 -0.1533
 1684SOL    HW1 5872   1.739   6.088   1.416 -0.3823  0.2796  0.9157
 1684SOL    HW2 5873   1.666   6.113   1.272  0.8294  2.8360  0.6911
 1685SOL     OW 5874   6.716   3.031   3.494 -0.5294  0.2747  0.2738
 1685SOL    HW1 5875   6.680   3.020   3.401  0.0455  2.7248 -0.3128
 1685SOL    HW2 5876   6.778   3.110   3.496 -0.8172  0.5034  2.8253
 1686SOL     OW 5877   1.896   5.413   4.401  0.3650  0.2620  0.2452
 1686SOL    HW1 5878   1.950   5.364   4.470  1.9308  0.1011 -1.0264
 1686SOL    HW2 5879   1.912   5.372   4.311 -1.4821  0.5834 -0.2643
 1687SOL     OW 5880   6.845   0.704   1.681 -0.5126  0.2123 -0.2696
 1687SOL    HW1 5881   6.844   0.781   1.618  0.9065  0.5120  0.0445
 1687SOL    HW2 5882   6.866   0.620   1.632 -2.7417 -0.1437 -0.7349
 1688SOL     OW 5883   1.703   1.416   6.497  0.2078  0.0832 -0.2558
 1688SOL    HW1 5884   1.780   1.359   6.470  0.8412  0.3929  0.8792
 1688SOL    HW2 5885   1.699   1.497   6.438 -0.1916 -0.6929 -1.3270
 1689SOL     OW 5886   4.476   2.300   4.529  0.0491  0.0239  0.0221
 1689SOL    HW1 5887   4.566   2.272   4.560 -1.1541 -2.4751  1.5452
 1689SOL    HW2 5888   4.438   2.367   4.593  0.5854  0.7243 -0.3688
 1690SOL     OW 5889   1.756   3.896   3.592 -0.0790 -0.3637 -0.5150
 1690SOL    HW1 5890   1.840   3.876   3.541  0.4139 -3.9362  1.3698
 1690SOL    HW2 5891   1.686   3.828   3.567 -1.4511  0.7764  0.1070
 1691SOL     OW 5892   6.693   1.552   2.785  0.3873 -0.0351 -0.4600
 1691SOL    HW1 5893   6.624   1.521   2.719 -0.3278  0.2726  0.1387
 1691SOL    HW2 5894   6.697   1.488   2.862  1.1422 -0.3381 -0.7259
 1692SOL     OW 5895   3.130   4.582   6.114 -0.1610 -0.1447  0.5335
 1692SOL    HW1 5896   3.124   4.506   6.049 -0.7076  0.0750  0.3243
 1692SOL    HW2 5897   3.226   4.606   6.128  0.0121  2.4624 -3.3988
 1693SOL     OW 5898   6.519   4.596   4.053  0.0046 -0.3906 -0.0126
 1693SOL    HW1 5899   6.511   4.629   3.959 -2.2174 -0.2721  0.1773
 1693SOL    HW2 5900   6.549   4.500   4.051  0.6272 -0.1937 -0.7969
 1694SOL     OW 5901   6.459   0.549   6.864  0.2937  0.6955  0.4906
 1694SOL    HW1 5902   6.424   0.456   6.874  1.6302  0.1866  0.7351
 1694SOL    HW2 5903   6.511   0.573   6.946  0.0280  1.6263  0.3898
 1695SOL     OW 5904   5.392   6.107   1.225  0.0320  0.2216 -0.2305
 1695SOL    HW1 5905   5.413   6.171   1.150  2.9203  0.0128  0.2898
 1695SOL    HW2 5906   5.472   6.050   1.243 -1.6867 -1.9726  0.9036
 1696SOL     OW 5907   3.599   2.935   1.747 -0.1021 -0.1986  0.3317
 1696SOL    HW1 5908   3.646   2.994   1.681  0.8776  1.0347  2.0656
 1696SOL    HW2 5909   3.636   2.950   1.838 -0.8072 -2.5180  1.0717
 1697SOL     OW 5910   0.300   6.726   3.407 -0.0445 -0.7698  0.2840
 1697SOL    HW1 5911   0.364   6.650   3.405  0.3696 -0.4662  1.5075
 1697SOL    HW2 5912   0.230   6.709   3.476 -0.0930 -0.1483  0.3899
 1698SOL     OW 5913   2.054   0.889   3.907  0.1814 -0.3483 -0.9229
 1698SOL    HW1 5914   2.129   0.935   3.861  0.7843  2.3461  2.2819
 1698SOL    HW2 5915   2.088   0.844   3.990 -1.7258  1.8973  1.2632
 1699SOL     OW 5916   3.958   1.827   1.164 -0.5090 -0.1116 -0.2534
 1699SOL    HW1 5917   4.050   1.852   1.192 -0.3784 -0.0449 -0.7328
 1699SOL    HW2 5918   3.932   1.741   1.208  0.2839 -0.8089 -1.1371
 1700SOL     OW 5919   1.845   1.008   2.890  0.6039 -0.3724  0.2482
 1700SOL    HW1 5920   1.786   1.015   2.809  0.4207 -1.2490  0.2946
 1700SOL    HW2 5921   1.803   1.058   2.966 -0.0206 -0.8992  0.2525
 1701SOL     OW 5922   3.301   1.317   6.237 -0.1224 -0.1181 -0.1395
 1701SOL    HW1 5923   3.371   1.308   6.308  0.8120 -0.2017 -1.0539
 1701SOL    HW2 5924   3.229   1.379   6.269  1.4259  1.6939  0.0361
 1702SOL     OW 5925   2.906   5.862   2.819  0.6118 -0.1805  0.2045
 1702SOL    HW1 5926   2.912   5.962   2.825  1.2907 -0.1444 -0.8651
 1702SOL    HW2 5927   2.837   5.836   2.751  0.0039 -0.4597  0.9127
 1703SOL     OW 5928   1.591   0.286   3.966  0.0789 -0.0976  0.6388
 1703SOL    HW1 5929   1.679   0.288   4.015  0.7726 -1.6256 -0.4610
 1703SOL    HW2 5930   1.547   0.198   3.981  0.0257 -0.3726 -0.9657
 1704SOL     OW 5931   0.333   2.429   4.099 -0.0844  0.2685 -0.0765
 1704SOL    HW1 5932   0.280   2.471   4.173 -1.2224 -1.0431 -0.1094
 1704SOL    HW2 5933   0.278   2.431   4.015  0.0425 -0.8272 -0.1887
 1705SOL     OW 5934   2.738   2.418   4.976 -0.1144 -0.2608 -0.1793
 1705SOL    HW1 5935   2.758   2.365   4.894 -0.2065  0.7445 -0.8805
 1705SOL    HW2 5936   2.720   2.357   5.052  0.5182 -1.2161 -0.7730
 1706SOL     OW 5937   5.240   1.565   2.493  1.0923 -0.1321 -0.1437
 1706SOL    HW1 5938   5.141   1.561   2.484  0.9480  1.6989  0.3298
 1706SOL    HW2 5939   5.265   1.580   2.588  1.7452  0.9872 -0.4721
 1707SOL     OW 5940   3.295   2.226   5.308 -0.0523  0.4057 -0.0359
 1707SOL    HW1 5941   3.226   2.298   5.317  1.8882  2.2852  0.5230
 1707SOL    HW2 5942   3.325   2.197   5.399 -0.0811 -0.4145 -0.2765
 1708SOL     OW 5943   3.523   1.376   4.570  0.0797  0.5646 -0.2022
 1708SOL    HW1 5944   3.460   1.310   4.530  0.5385  0.8754 -1.4843
 1708SOL    HW2 5945   3.615   1.336   4.573 -0.0830  0.2002  1.4403
 1709SOL     OW 5946   0.294   6.262   4.676  0.4430 -0.3707 -0.2807
 1709SOL    HW1 5947   0.281   6.167   4.706 -0.8828 -0.9799 -2.4870
 1709SOL    HW2 5948   0.265   6.324   4.749  1.0394 -1.6564  1.0982
 1710SOL     OW 5949   3.806   4.505   2.607 -0.2427  0.2071  0.2844
 1710SOL    HW1 5950   3.726   4.529   2.661 -1.4289  1.0894 -1.7255
 1710SOL    HW2 5951   3.839   4.414   2.634 -2.1754 -0.3752  0.8633
 1711SOL     OW 5952   2.742   4.512   0.034  0.5325  0.1382 -0.0400
 1711SOL    HW1 5953   2.681   4.452   0.086 -0.4522  0.6995 -0.5363
 1711SOL    HW2 5954   2.813   4.548   0.096 -0.0771  0.0710  0.7125
 1712SOL     OW 5955   4.742   3.352   1.510 -0.4503 -0.2614  0.2135
 1712SOL    HW1 5956   4.689   3.333   1.428 -1.1655  1.0255  0.3437
 1712SOL    HW2 5957   4.830   3.393   1.485 -0.0640 -1.1822  0.0433
 1713SOL     OW 5958   6.340   1.750   3.763 -0.3519  0.0678  0.2519
 1713SOL    HW1 5959   6.338   1.850   3.767  1.6452  0.1506  0.6580
 1713SOL    HW2 5960   6.319   1.713   3.854  1.1408  0.2543  0.7183
 1714SOL     OW 5961   3.518   2.660   1.013 -0.5627 -0.3185 -0.1993
 1714SOL    HW1 5962   3.456   2.738   1.024  0.3021  0.5884 -1.4634
 1714SOL    HW2 5963   3.580   2.656   1.091 -0.3894  0.5016 -0.2719
 1715SOL     OW 5964   2.866   3.686   3.632  0.1883 -0.0854  0.7976
 1715SOL    HW1 5965   2.880   3.587   3.631  0.1787 -0.0890  1.0459
 1715SOL    HW2 5966   2.950   3.732   3.605 -0.4757 -0.2270 -1.7819
 1716SOL     OW 5967   3.242   2.732   6.935  0.4470  0.6988 -0.2116
 1716SOL    HW1 5968   3.312   2.759   6.870 -0.1559 -1.1431 -1.7206
 1716SOL    HW2 5969   3.155   2.774   6.909  0.4032  0.6890 -0.0824
 1717SOL     OW 5970   0.496   5.593   5.238  0.2134 -0.4336  0.0200
 1717SOL    HW1 5971   0.523   5.592   5.142  1.2925  1.4230  0.2636
 1717SOL    HW2 5972   0.497   5.687   5.272 -2.0833 -0.8193  1.3468
 1718SOL     OW 5973   2.354   1.285   3.801  0.5554  0.4469 -0.3754
 1718SOL    HW1 5974   2.256   1.298   3.810  0.6498  0.9337  0.0865
 1718SOL    HW2 5975   2.401   1.368   3.833  1.1874 -0.7212  1.9639
 1719SOL     OW 5976   1.878   1.949   1.073 -0.2446  0.2193  0.4003
 1719SOL    HW1 5977   1.893   2.014   1.147  1.0070 -0.3679  0.6802
 1719SOL    HW2 5978   1.781   1.922   1.071 -0.5739  1.3016  0.9092
 1720SOL     OW 5979   5.453   1.836   1.015 -0.9262 -0.5091 -0.1076
 1720SOL    HW1 5980   5.450   1.914   1.078  1.2095  0.9258 -1.6336
 1720SOL    HW2 5981   5.465   1.870   0.922 -1.2983 -2.6549 -0.9793
 1721SOL     OW 5982   1.827   1.114   0.920  0.7165 -0.0153 -0.5540
 1721SOL    HW1 5983   1.865   1.088   1.008 -0.7348 -0.1792  0.0527
 1721SOL    HW2 5984   1.750   1.176   0.934  0.8041  0.3886 -1.7420
 1722SOL     OW 5985   2.440   4.289   1.934 -0.1353  0.0376 -0.2610
 1722SOL    HW1 5986   2.484   4.241   2.010  1.7807  1.4800 -0.3667
 1722SOL    HW2 5987   2.499   4.285   1.853 -0.5061  1.4445 -0.6318
 1723SOL     OW 5988   1.045   3.120   6.740  0.3457  0.2361  0.7146
 1723SOL    HW1 5989   1.138   3.141   6.712  0.3933  1.1373  1.5091
 1723SOL    HW2 5990   1.034   3.020   6.746  0.7605  0.0558 -0.9516
 1724SOL     OW 5991   0.503   6.736   2.332  0.2905  0.0210  0.1919
 1724SOL    HW1 5992   0.471   6.778   2.247  1.5990 -0.8707 -0.7694
 1724SOL    HW2 5993   0.437   6.755   2.405 -0.8572  0.8135 -1.0042
 1725SOL     OW 5994   1.911   4.449   2.380 -0.4289  0.0223 -0.1804
 1725SOL    HW1 5995   1.879   4.371   2.434 -0.0468 -1.4693 -2.0369
 1725SOL    HW2 5996   2.009   4.460   2.395 -0.4280 -0.0362 -0.1374
 1726SOL     OW 5997   0.603   4.099   3.920 -0.5366  0.0282 -0.6083
 1726SOL    HW1 5998   0.517   4.099   3.970 -1.3155  1.6205 -1.8938
 1726SOL    HW2 5999   0.648   4.188   3.929 -0.1006 -0.0593 -1.7156
 1727SOL     OW 6000   6.864   3.436   1.852 -0.3263 -0.7024  0.3527
 1727SOL    HW1 6001   6.816   3.349   1.842  3.1872 -2.8016  0.1474
 1727SOL    HW2 6002   6.843   3.475   1.941 -1.1623 -2.3397  0.9192
 1728SOL     OW 6003   3.250   5.126   1.290  0.0459 -0.0836 -0.0748
 1728SOL    HW1 6004   3.264   5.164   1.199 -0.3418  1.2732  0.4011
 1728SOL    HW2 6005   3.271   5.028   1.289  0.4835 -0.0005 -1.5029
 1729SOL     OW 6006   4.095   6.083   1.687 -0.0449 -0.0188 -0.0614
 1729SOL    HW1 6007   4.127   6.161   1.632  0.7570 -0.8077 -0.7292
 1729SOL    HW2 6008   4.171   6.020   1.703 -0.9088 -1.1942 -0.4404
 1730SOL     OW 6009   4.941   6.712   1.473 -1.0506 -0.7972 -0.2086
 1730SOL    HW1 6010   4.859   6.737   1.525  0.7540  0.2739  2.3516
 1730SOL    HW2 6011   4.966   6.787   1.412 -0.2947  0.3053  1.3608
 1731SOL     OW 6012   1.970   4.308   1.297  0.1709 -0.0928 -0.3501
 1731SOL    HW1 6013   1.981   4.349   1.388 -1.3055 -0.6035  0.0770
 1731SOL    HW2 6014   1.876   4.275   1.286  0.6523 -1.1198 -1.6137
 1732SOL     OW 6015   6.213   3.827   6.665  0.0978 -0.1565 -0.4324
 1732SOL    HW1 6016   6.168   3.838   6.754 -0.4459 -0.8076 -0.6123
 1732SOL    HW2 6017   6.311   3.845   6.675 -0.1040  0.7862  0.0819
 1733SOL     OW 6018   0.865   1.525   4.085  0.0187 -0.1013 -0.2087
 1733SOL    HW1 6019   0.794   1.479   4.138 -0.1168  0.6130  0.2443
 1733SOL    HW2 6020   0.956   1.495   4.117 -0.0680 -0.2298 -0.0810
 1734SOL     OW 6021   3.425   3.900   2.328  0.3451  0.1390  0.0436
 1734SOL    HW1 6022   3.380   3.811   2.341  1.4025 -0.2458  1.4359
 1734SOL    HW2 6023   3.505   3.905   2.387 -0.4360  2.5619  1.0537
 1735SOL     OW 6024   5.854   5.210   3.990  0.8198  0.5146  0.2585
 1735SOL    HW1 6025   5.773   5.267   3.974 -0.8593 -1.1244  2.3468
 1735SOL    HW2 6026   5.846   5.125   3.939  0.1706 -0.5190  1.9931
 1736SOL     OW 6027   4.927   1.223   0.349  0.0567 -0.8852 -0.2052
 1736SOL    HW1 6028   4.872   1.217   0.432  0.7466  0.1936  0.3621
 1736SOL    HW2 6029   4.962   1.132   0.326  2.7404 -0.7688  2.7451
 1737SOL     OW 6030   6.264   4.090   1.229  0.9529 -0.0323  0.0420
 1737SOL    HW1 6031   6.254   4.186   1.255  0.8789  0.4231 -1.5995
 1737SOL    HW2 6032   6.354   4.076   1.188  0.3436 -0.2908 -1.2456
 1738SOL     OW 6033   3.619   6.192   5.256 -0.6182  0.2151  0.0709
 1738SOL    HW1 6034   3.676   6.171   5.177 -1.4155 -2.2511  0.0859
 1738SOL    HW2 6035   3.568   6.276   5.239 -0.0531  0.2479 -1.6150
 1739SOL     OW 6036   3.142   3.987   2.513 -0.5345  0.2770 -0.2392
 1739SOL    HW1 6037   3.160   3.899   2.469 -2.7183 -0.4890  0.2752
 1739SOL    HW2 6038   3.215   4.006   2.579  0.1015 -1.0223 -0.5074
 1740SOL     OW 6039   1.504   1.578   5.534 -0.1887  0.1036  0.4452
 1740SOL    HW1 6040   1.553   1.655   5.494 -1.8355  0.9938  0.0335
 1740SOL    HW2 6041   1.486   1.596   5.631  0.0329 -0.0958  0.5268
 1741SOL     OW 6042   0.707   0.257   1.649  0.2030 -0.1012 -0.1729
 1741SOL    HW1 6043   0.733   0.296   1.738  1.7578  2.1534 -1.5360
 1741SOL    HW2 6044   0.616   0.218   1.655 -1.2898  3.3110  1.4993
 1742SOL     OW 6045   4.462   4.014   5.306 -0.3587 -0.1376  0.5581
 1742SOL    HW1 6046   4.455   3.917   5.329 -1.5441 -0.6932 -1.8663
 1742SOL    HW2 6047   4.498   4.024   5.213  1.9024  1.8730  1.5358
 1743SOL     OW 6048   3.184   1.248   0.471 -0.0778 -0.3556  0.2871
 1743SOL    HW1 6049   3.232   1.288   0.393  0.2117 -0.3577  0.4600
 1743SOL    HW2 6050   3.247   1.240   0.548 -0.4726  0.0760  0.6685
 1744SOL     OW 6051   6.736   4.238   0.655  0.0172 -0.6072  0.1714
 1744SOL    HW1 6052   6.835   4.254   0.663  0.0051 -0.9561  1.3199
 1744SOL    HW2 6053   6.699   4.294   0.581  0.8835  0.4145  0.4743
 1745SOL     OW 6054   5.702   2.482   1.227 -0.1895 -0.2593  0.3040
 1745SOL    HW1 6055   5.796   2.487   1.193  0.4565 -0.7173  1.9415
 1745SOL    HW2 6056   5.645   2.547   1.176  0.7309 -0.7561 -1.4780
 1746SOL     OW 6057   3.199   1.426   5.123 -0.0600  0.2068  0.1554
 1746SOL    HW1 6058   3.159   1.424   5.031  0.8203  0.1806 -0.2343
 1746SOL    HW2 6059   3.172   1.343   5.172 -0.2117  0.0270 -0.2206
 1747SOL     OW 6060   5.021   1.335   3.085 -0.0887  0.2479 -0.1204
 1747SOL    HW1 6061   4.969   1.390   3.019 -0.0043 -0.2977 -0.6474
 1747SOL    HW2 6062   5.083   1.274   3.036  2.8519  2.5271  0.4711
 1748SOL     OW 6063   4.860   1.329   6.785 -0.7123  0.6339 -0.3470
 1748SOL    HW1 6064   4.843   1.410   6.842 -1.7384 -0.8584  1.5979
 1748SOL    HW2 6065   4.950   1.291   6.808 -1.2719 -0.1733  0.6325
 1749SOL     OW 6066   6.956   0.556   1.428  0.2137  0.1482 -0.5540
 1749SOL    HW1 6067   6.923   0.597   1.343 -3.8816  0.1760  0.8501
 1749SOL    HW2 6068   6.947   0.456   1.423 -0.2197  0.1610 -0.1198
 1750SOL     OW 6069   4.093   5.319   6.870  0.0800  0.0267  0.6395
 1750SOL    HW1 6070   4.036   5.332   6.789 -0.5108  0.9992  1.1963
 1750SOL    HW2 6071   4.173   5.265   6.846 -0.4849 -0.3664 -0.4174
 1751SOL     OW 6072   1.163   0.870   3.129 -0.1192  0.1788  0.0261
 1751SOL    HW1 6073   1.153   0.945   3.065 -1.0377 -1.2087 -1.5161
 1751SOL    HW2 6074   1.216   0.796   3.086  0.0865 -0.3883  1.2123
 1752SOL     OW 6075   0.203   4.909   0.175  0.2709  0.0382 -0.0927
 1752SOL    HW1 6076   0.112   4.933   0.207  0.6330  1.0695  0.2094
 1752SOL    HW2 6077   0.216   4.810   0.180 -0.9157 -0.1410 -0.3837
 1753SOL     OW 6078   5.016   0.444   1.390 -0.2023 -0.0876 -0.5328
 1753SOL    HW1 6079   5.033   0.426   1.487  0.5885 -1.0636 -0.8316
 1753SOL    HW2 6080   5.024   0.358   1.339 -0.5974  0.4162 -1.4670
 1754SOL     OW 6081   0.446   1.576   6.431 -0.8747 -0.3994  0.5270
 1754SOL    HW1 6082   0.508   1.504   6.400  0.2643  0.7401  0.0869
 1754SOL    HW2 6083   0.452   1.655   6.369 -1.6295  0.3133  1.3311
 1755SOL     OW 6084   2.979   4.507   1.408  0.5137 -0.3578  0.5350
 1755SOL    HW1 6085   2.975   4.412   1.379 -0.7042 -0.7475  1.8755
 1755SOL    HW2 6086   2.914   4.561   1.354 -1.0665 -0.9042  1.8024
 1756SOL     OW 6087   0.520   6.859   2.012 -0.3653  0.0361 -0.0920
 1756SOL    HW1 6088   0.607   6.886   2.054 -0.2341 -0.4406 -0.0578
 1756SOL    HW2 6089   0.447   6.915   2.050  0.0673  1.1703 -0.8763
 1757SOL     OW 6090   5.524   3.807   2.686 -0.3812  0.0064 -0.1700
 1757SOL    HW1 6091   5.617   3.796   2.653 -1.0779  0.6361 -2.4959
 1757SOL    HW2 6092   5.468   3.730   2.654 -1.1710  0.8173 -0.7451
 1758SOL     OW 6093   2.496   5.560   4.912  0.2921 -0.6780 -0.5704
 1758SOL    HW1 6094   2.563   5.520   4.850  1.4081 -0.1364  0.2602
 1758SOL    HW2 6095   2.543   5.605   4.988 -0.8989  1.8860 -1.2334
 1759SOL     OW 6096   3.445   1.236   4.045 -0.4454 -0.1496  0.3598
 1759SOL    HW1 6097   3.502   1.206   3.968  2.5900 -1.7926  3.0574
 1759SOL    HW2 6098   3.369   1.172   4.056  0.4162 -1.2522  0.0916
 1760SOL     OW 6099   5.199   2.140   1.648  0.0093  0.1902 -1.0766
 1760SOL    HW1 6100   5.262   2.070   1.616  0.8554 -0.2887  1.3939
 1760SOL    HW2 6101   5.173   2.122   1.743  0.7112  3.4888 -0.0988
 1761SOL     OW 6102   3.753   4.119   4.490 -0.0527 -0.1550  0.0763
 1761SOL    HW1 6103   3.694   4.178   4.545  0.5792  0.0258  0.5605
 1761SOL    HW2 6104   3.847   4.150   4.495 -0.0008 -0.0072 -1.2775
 1762SOL     OW 6105   4.472   4.085   1.511 -0.4565 -0.3288 -0.5089
 1762SOL    HW1 6106   4.532   4.059   1.587 -1.7549 -2.1911 -0.0677
 1762SOL    HW2 6107   4.487   4.023   1.434  0.9254  1.5982 -1.9159
 1763SOL     OW 6108   3.990   0.132   5.260 -0.3824 -0.0308  0.1921
 1763SOL    HW1 6109   3.977   0.177   5.172 -1.3318  0.2273  0.4568
 1763SOL    HW2 6110   3.986   0.033   5.248 -0.0433 -0.0080 -0.1241
 1764SOL     OW 6111   1.435   4.219   5.973  0.1426  0.6843 -0.6778
 1764SOL    HW1 6112   1.453   4.316   5.985  0.0150  0.6904 -0.5267
 1764SOL    HW2 6113   1.516   4.174   5.934  0.6064  0.6488  0.3109
 1765SOL     OW 6114   3.501   0.411   4.245 -0.0414  0.3569  0.8452
 1765SOL    HW1 6115   3.442   0.364   4.179  0.2883  1.3993 -0.2233
 1765SOL    HW2 6116   3.587   0.437   4.200  0.8604 -0.2928  2.1195
 1766SOL     OW 6117   2.987   4.265   1.297 -0.5552  1.0247 -0.1859
 1766SOL    HW1 6118   3.068   4.255   1.354 -0.0228  2.4188 -0.6429
 1766SOL    HW2 6119   2.998   4.212   1.213  0.0256  1.4526 -0.3878
 1767SOL     OW 6120   4.650   4.851   5.035 -0.4202  0.1375 -0.4318
 1767SOL    HW1 6121   4.551   4.849   5.018 -0.1429  0.9883 -2.2778
 1767SOL    HW2 6122   4.667   4.825   5.131 -2.3156 -1.4162 -0.4456
 1768SOL     OW 6123   1.529   2.734   6.777 -0.3986 -0.0105 -0.3786
 1768SOL    HW1 6124   1.430   2.749   6.785 -0.6918 -1.9043  0.0727
 1768SOL    HW2 6125   1.549   2.692   6.689 -0.1821 -0.8202  0.0446
 1769SOL     OW 6126   5.709   6.738   2.939 -0.5752 -0.0596 -0.1638
 1769SOL    HW1 6127   5.797   6.784   2.948 -0.6882 -0.0856  1.3091
 1769SOL    HW2 6128   5.663   6.769   2.856 -0.1031  1.5714  0.1437
 1770SOL     OW 6129   3.987   6.495   4.765 -0.1044 -0.3463  0.3030
 1770SOL    HW1 6130   3.936   6.503   4.851 -0.5602 -0.0130  0.0083
 1770SOL    HW2 6131   4.065   6.434   4.778 -0.0419 -0.1242  1.0137
 1771SOL     OW 6132   5.321   0.332   1.281 -0.0974  0.0590 -0.1374
 1771SOL    HW1 6133   5.360   0.416   1.317 -1.0796  0.5239 -0.1591
 1771SOL    HW2 6134   5.317   0.263   1.354 -2.0629  0.9875  0.6792
 1772SOL     OW 6135   2.231   3.664   6.596  0.5651  0.3698 -0.1438
 1772SOL    HW1 6136   2.280   3.596   6.542  0.3408 -0.7584  1.0022
 1772SOL    HW2 6137   2.135   3.666   6.568  0.3098 -0.6595  0.5855
 1773SOL     OW 6138   6.315   3.595   1.546  0.0012  0.3131  0.0831
 1773SOL    HW1 6139   6.379   3.530   1.506  1.0019  0.9238  0.6632
 1773SOL    HW2 6140   6.285   3.660   1.476  0.6223  0.4908 -0.0281
 1774SOL     OW 6141   0.635   1.280   2.887  0.4176  0.3508 -0.6152
 1774SOL    HW1 6142   0.537   1.290   2.870 -0.0152  1.1843  1.9611
 1774SOL    HW2 6143   0.664   1.188   2.858 -1.5161 -0.5669  0.1875
 1775SOL     OW 6144   5.633   5.322   3.852 -0.2593  0.2895 -0.0477
 1775SOL    HW1 6145   5.648   5.412   3.810  1.1878 -0.1542 -0.5290
 1775SOL    HW2 6146   5.595   5.260   3.783  1.5821 -0.2823 -0.5933
 1776SOL     OW 6147   3.006   5.675   2.499  0.5391 -0.2749  0.0138
 1776SOL    HW1 6148   3.011   5.597   2.436  0.5174 -0.3922  0.1571
 1776SOL    HW2 6149   3.086   5.733   2.484 -0.7494  1.1626 -2.0159
 1777SOL     OW 6150   6.232   3.823   2.305  0.6032 -0.1705 -0.6490
 1777SOL    HW1 6151   6.250   3.815   2.403 -1.0198 -0.7269 -0.3542
 1777SOL    HW2 6152   6.158   3.889   2.291 -0.1531 -1.1527 -1.3692
 1778SOL     OW 6153   6.454   3.822   2.166  0.4364  0.0573 -0.4026
 1778SOL    HW1 6154   6.490   3.913   2.148  1.9223 -0.5449 -0.6031
 1778SOL    HW2 6155   6.368   3.829   2.217  0.8673  1.5334  0.1614
 1779SOL     OW 6156   2.828   5.238   4.864  0.3906 -0.3432  0.1015
 1779SOL    HW1 6157   2.782   5.163   4.817  0.2480  0.7160 -1.5412
 1779SOL    HW2 6158   2.799   5.241   4.959 -0.5524 -1.5988 -0.1226
 1780SOL     OW 6159   5.013   5.610   5.250 -0.8277 -0.4470 -0.0493
 1780SOL    HW1 6160   5.059   5.544   5.310  1.1730  0.8723 -0.0734
 1780SOL    HW2 6161   5.076   5.683   5.225 -2.2256  0.1449 -2.1182
 1781SOL     OW 6162   5.697   0.976   1.359  0.6683  0.3478  0.2871
 1781SOL    HW1 6163   5.775   1.013   1.408  0.4838  0.0988  0.7754
 1781SOL    HW2 6164   5.729   0.918   1.284  0.9532  0.8400  0.0282
 1782SOL     OW 6165   0.191   6.998   0.771  0.4180 -0.1051 -0.1289
 1782SOL    HW1 6166   0.288   7.004   0.795  0.1771 -1.7352  1.4714
 1782SOL    HW2 6167   0.143   6.945   0.841 -1.0707 -2.0897 -2.5488
 1783SOL     OW 6168   2.822   4.975   6.716  0.0378 -0.2995  0.4271
 1783SOL    HW1 6169   2.726   4.982   6.744 -0.9531 -0.9944 -2.4458
 1783SOL    HW2 6170   2.867   4.904   6.770 -1.0072  0.1626  1.9555
 1784SOL     OW 6171   3.412   3.115   6.486  0.0361  0.3739 -0.4402
 1784SOL    HW1 6172   3.391   3.021   6.456 -0.1077 -0.0846  1.0093
 1784SOL    HW2 6173   3.500   3.116   6.534  1.0755  1.4024 -2.2887
 1785SOL     OW 6174   4.638   6.055   2.087  0.6955  0.3944 -0.1862
 1785SOL    HW1 6175   4.597   5.988   2.148 -0.9870  1.0821 -0.4935
 1785SOL    HW2 6176   4.617   6.148   2.120 -0.6065  0.7792 -1.9912
 1786SOL     OW 6177   2.986   4.336   2.411 -0.3241  0.5082 -0.1887
 1786SOL    HW1 6178   2.903   4.388   2.391 -1.2561 -0.9508 -0.2920
 1786SOL    HW2 6179   2.994   4.261   2.345  0.2686 -0.2705  0.7474
 1787SOL     OW 6180   3.482   4.354   1.446 -0.4662  0.6105  0.1031
 1787SOL    HW1 6181   3.420   4.412   1.394 -0.7054  1.0438  0.8485
 1787SOL    HW2 6182   3.486   4.387   1.541 -0.8871 -0.8110  0.6396
 1788SOL     OW 6183   1.181   4.701   4.168 -0.1306 -0.4205 -0.4321
 1788SOL    HW1 6184   1.105   4.740   4.117 -1.6452 -1.0467  1.2434
 1788SOL    HW2 6185   1.188   4.744   4.258  1.9084  0.0414 -0.7625
 1789SOL     OW 6186   3.436   1.892   6.881 -0.0560 -0.0603 -0.2321
 1789SOL    HW1 6187   3.393   1.982   6.879  0.3633  0.1554  0.2364
 1789SOL    HW2 6188   3.380   1.827   6.831 -0.8198  0.2627  0.1954
 1790SOL     OW 6189   1.914   6.744   4.556 -0.1795 -0.2934 -0.4145
 1790SOL    HW1 6190   1.898   6.832   4.512 -1.5413 -0.0700  0.4515
 1790SOL    HW2 6191   1.978   6.755   4.632 -0.2198 -0.0906 -0.4089
 1791SOL     OW 6192   2.079   2.119   6.626  0.2228  0.7373  0.3682
 1791SOL    HW1 6193   2.052   2.026   6.600  0.0285  0.9689 -0.2682
 1791SOL    HW2 6194   2.151   2.151   6.564 -1.9020  2.2051 -1.4863
 1792SOL     OW 6195   1.942   3.680   6.527 -0.7698 -0.1274  0.1029
 1792SOL    HW1 6196   1.939   3.580   6.523  0.9509 -0.2576  0.7430
 1792SOL    HW2 6197   1.890   3.712   6.606  1.0928 -0.8025  1.7129
 1793SOL     OW 6198   1.865   5.614   0.037 -0.3552 -0.1884 -0.1430
 1793SOL    HW1 6199   1.906   5.576   0.119 -1.5359  0.8412  0.9688
 1793SOL    HW2 6200   1.908   5.701   0.015 -0.1389 -0.3908 -0.5468
 1794SOL     OW 6201   0.899   6.091   6.174  0.1838 -0.2401 -0.3118
 1794SOL    HW1 6202   0.838   6.166   6.199  1.2421  0.8257 -0.8433
 1794SOL    HW2 6203   0.921   6.037   6.255 -0.8038 -0.1297  0.0358
 1795SOL     OW 6204   3.785   0.195   3.796  0.0433 -0.0753 -0.0650
 1795SOL    HW1 6205   3.841   0.114   3.817 -0.9844 -0.6217  0.7007
 1795SOL    HW2 6206   3.731   0.178   3.714  0.4331  0.1603 -0.3746
 1796SOL     OW 6207   1.970   1.261   1.164  0.1236 -0.0368  0.6084
 1796SOL    HW1 6208   2.069   1.264   1.151 -0.1418 -0.3891 -2.1693
 1796SOL    HW2 6209   1.941   1.167   1.183  0.2425 -0.1774  0.1359
 1797SOL     OW 6210   0.782   0.360   3.261 -0.1995  0.3352  0.0753
 1797SOL    HW1 6211   0.859   0.362   3.326  1.1586  0.5338 -1.4749
 1797SOL    HW2 6212   0.774   0.450   3.217  0.6884 -0.5516 -2.0135
 1798SOL     OW 6213   1.670   1.632   6.331  0.0911  0.0827  0.3739
 1798SOL    HW1 6214   1.662   1.632   6.231 -0.9714  1.5629  0.4173
 1798SOL    HW2 6215   1.587   1.672   6.371  1.4649  1.7881  1.7066
 1799SOL     OW 6216   2.992   6.658   4.467 -0.2439 -0.8208  0.5942
 1799SOL    HW1 6217   2.960   6.685   4.376  0.6067 -0.0302  0.5094
 1799SOL    HW2 6218   2.951   6.571   4.492  0.0543 -1.4261 -0.8545
 1800SOL     OW 6219   1.317   2.864   6.393  0.2172  0.0581  0.0669
 1800SOL    HW1 6220   1.280   2.815   6.471  1.6116  1.1510  1.4839
 1800SOL    HW2 6221   1.370   2.943   6.425  0.4118  0.8416 -2.0074
 1801SOL     OW 6222   1.727   4.519   5.548 -0.2643  0.3198 -0.0418
 1801SOL    HW1 6223   1.724   4.619   5.556 -2.2995  0.4481 -1.7924
 1801SOL    HW2 6224   1.725   4.494   5.451 -0.7478 -1.4471  0.4075
 1802SOL     OW 6225   4.769   4.645   1.712 -0.3063 -0.5030  0.3394
 1802SOL    HW1 6226   4.778   4.723   1.650 -1.3682 -1.0485 -0.5339
 1802SOL    HW2 6227   4.683   4.598   1.693 -0.4033 -0.9971  1.8787
 1803SOL     OW 6228   3.893   4.608   1.941 -0.4471  0.3707  0.7415
 1803SOL    HW1 6229   3.857   4.544   1.873 -0.9888 -0.0187  1.3726
 1803SOL    HW2 6230   3.942   4.682   1.895 -0.2783 -0.2109 -0.0288
 1804SOL     OW 6231   0.855   4.357   2.320 -0.3593 -0.2945 -0.2469
 1804SOL    HW1 6232   0.844   4.276   2.263  0.4589 -0.2623 -0.4628
 1804SOL    HW2 6233   0.904   4.428   2.270  0.2782 -0.2272  0.4338
 1805SOL     OW 6234   1.948   3.290   1.283  0.2051  0.7481  0.0478
 1805SOL    HW1 6235   1.924   3.355   1.355  3.4120  2.3349 -0.1918
 1805SOL    HW2 6236   1.934   3.332   1.193 -1.2127 -0.2680 -0.2428
 1806SOL     OW 6237   1.009   5.541   3.044  0.0870 -0.1246 -0.2923
 1806SOL    HW1 6238   0.924   5.593   3.054  0.4013  0.1348  1.2480
 1806SOL    HW2 6239   1.061   5.577   2.967  0.8464  2.7204  1.4116
 1807SOL     OW 6240   0.386   0.135   3.177 -0.3466 -0.2172 -0.3169
 1807SOL    HW1 6241   0.336   0.062   3.224 -0.6671 -1.3711 -2.3241
 1807SOL    HW2 6242   0.435   0.190   3.244 -1.4649 -1.2230  1.4107
 1808SOL     OW 6243   6.011   2.177   0.651  0.3974 -0.4168  0.1213
 1808SOL    HW1 6244   6.059   2.114   0.590 -2.2534 -0.5568 -2.0111
 1808SOL    HW2 6245   6.042   2.270   0.635  0.6938 -0.6128 -0.4639
 1809SOL     OW 6246   4.912   5.636   6.370  0.2165 -0.8013  0.2012
 1809SOL    HW1 6247   4.933   5.659   6.275 -1.6606  2.0012  0.3274
 1809SOL    HW2 6248   4.819   5.600   6.376  1.0386 -2.9925  0.8090
 1810SOL     OW 6249   3.685   4.671   1.378  0.0135  0.0596  0.5613
 1810SOL    HW1 6250   3.772   4.699   1.418  0.3070 -0.5465  0.3694
 1810SOL    HW2 6251   3.702   4.625   1.291 -0.4186 -1.0589  1.0571
 1811SOL     OW 6252   5.726   0.939   3.101 -0.4317 -0.4179  0.3115
 1811SOL    HW1 6253   5.638   0.958   3.144 -0.3410 -1.8029  1.1681
 1811SOL    HW2 6254   5.741   1.003   3.026 -1.7812  0.3724  0.6863
 1812SOL     OW 6255   3.312   1.525   2.885  0.4887 -0.0545 -0.2901
 1812SOL    HW1 6256   3.398   1.514   2.834  1.2638  0.2968  0.9048
 1812SOL    HW2 6257   3.288   1.439   2.929 -0.0098 -0.2687 -0.9535
 1813SOL     OW 6258   5.755   3.133   2.998 -0.1524 -0.2912  0.6099
 1813SOL    HW1 6259   5.713   3.064   2.940  1.4568 -0.8304  0.0516
 1813SOL    HW2 6260   5.798   3.089   3.077  1.0115  0.0377  0.1729
 1814SOL     OW 6261   6.589   1.425   1.975  0.1844 -0.1768 -0.3063
 1814SOL    HW1 6262   6.595   1.401   1.878 -0.5440 -1.3703 -0.0785
 1814SOL    HW2 6263   6.679   1.454   2.007  0.6741 -0.7625 -1.0945
 1815SOL     OW 6264   4.148   0.472   4.418  0.1489  0.1548 -0.0934
 1815SOL    HW1 6265   4.148   0.471   4.518 -1.5517  1.0961 -0.0509
 1815SOL    HW2 6266   4.066   0.428   4.383  0.6258  0.0100 -1.0833
 1816SOL     OW 6267   1.226   4.276   3.154 -0.1043 -0.8251  0.0755
 1816SOL    HW1 6268   1.185   4.191   3.187 -2.3824 -0.2079 -0.9554
 1816SOL    HW2 6269   1.191   4.297   3.062  1.5865  0.4539 -0.3342
 1817SOL     OW 6270   2.489   2.169   5.379  0.1720 -0.2448 -0.0564
 1817SOL    HW1 6271   2.411   2.126   5.424  0.3368  0.2924  0.7722
 1817SOL    HW2 6272   2.560   2.189   5.447  0.4409  0.5574 -0.5591
 1818SOL     OW 6273   4.548   3.813   6.210  0.6104  0.1518 -0.0022
 1818SOL    HW1 6274   4.532   3.813   6.309  0.5323 -0.6004 -0.0163
 1818SOL    HW2 6275   4.586   3.725   6.182 -0.9754 -0.2794 -0.8888
 1819SOL     OW 6276   5.860   0.035   5.891 -0.2104 -0.1042 -0.0546
 1819SOL    HW1 6277   5.952   0.075   5.892  0.1885 -0.9437 -1.3651
 1819SOL    HW2 6278   5.807   0.073   5.966  0.8483  1.2321  0.0493
 1820SOL     OW 6279   0.326   0.330   4.372  0.1978  0.1364 -0.1753
 1820SOL    HW1 6280   0.339   0.407   4.434 -1.1760 -0.8572  1.4326
 1820SOL    HW2 6281   0.229   0.305   4.368  0.2320  0.0658 -2.6716
 1821SOL     OW 6282   5.277   2.581   4.191 -0.2072  0.0007  0.4356
 1821SOL    HW1 6283   5.229   2.641   4.255 -0.9704 -0.4163  0.2574
 1821SOL    HW2 6284   5.254   2.485   4.210 -0.9882 -0.0953 -0.9012
 1822SOL     OW 6285   4.245   1.682   4.915  0.1017  0.5095 -0.0455
 1822SOL    HW1 6286   4.314   1.733   4.967  1.3112 -1.8110  0.7665
 1822SOL    HW2 6287   4.159   1.681   4.966  0.4378  0.6660  0.5362
 1823SOL     OW 6288   6.261   4.694   5.607  0.4197  0.0252  0.0536
 1823SOL    HW1 6289   6.195   4.733   5.672 -0.3982 -0.2649 -0.5834
 1823SOL    HW2 6290   6.214   4.667   5.524  1.1225 -1.4204  0.0861
 1824SOL     OW 6291   4.525   4.947   5.694  0.3050 -0.4349  0.6500
 1824SOL    HW1 6292   4.518   5.018   5.625 -1.4575 -1.8479 -0.7451
 1824SOL    HW2 6293   4.618   4.912   5.697  0.1956 -1.1545 -1.9438
 1825SOL     OW 6294   1.939   1.073   2.408  0.2258  0.0937  0.3107
 1825SOL    HW1 6295   1.901   0.980   2.413  0.0420 -0.1196 -2.7014
 1825SOL    HW2 6296   2.038   1.067   2.393  0.3859  0.4458  1.1665
 1826SOL     OW 6297   4.943   3.627   5.971 -0.0456 -0.0660 -0.3666
 1826SOL    HW1 6298   5.025   3.621   5.914  0.3036  0.7908  0.0287
 1826SOL    HW2 6299   4.965   3.673   6.057 -1.1767  1.1865 -0.7093
 1827SOL     OW 6300   4.516   3.035   2.914  0.0505 -0.3173 -0.2579
 1827SOL    HW1 6301   4.600   3.049   2.967  0.7809 -0.5176 -1.2934
 1827SOL    HW2 6302   4.496   2.937   2.909  0.9583 -0.4498 -1.7429
 1828SOL     OW 6303   3.194   3.898   6.420  0.0696  0.8043  0.2477
 1828SOL    HW1 6304   3.256   3.975   6.433  0.9420  0.1916 -0.1588
 1828SOL    HW2 6305   3.247   3.816   6.399 -0.9363  0.4652 -1.0825
 1829SOL     OW 6306   2.151   5.052   0.397  0.5295  0.4514  0.2516
 1829SOL    HW1 6307   2.063   5.005   0.407  0.3218  0.8222  0.2143
 1829SOL    HW2 6308   2.212   5.027   0.472  1.5810 -2.3810 -1.4009
 1830SOL     OW 6309   3.403   6.915   0.186 -0.0228  0.2192  0.2996
 1830SOL    HW1 6310   3.307   6.887   0.182 -0.6171  2.1844 -0.4547
 1830SOL    HW2 6311   3.461   6.837   0.165 -1.5478 -0.5101 -1.4859
 1831SOL     OW 6312   4.869   4.673   5.827  0.0263  0.1190  0.3356
 1831SOL    HW1 6313   4.869   4.682   5.927  0.5334 -0.3268  0.3772
 1831SOL    HW2 6314   4.814   4.594   5.801 -0.4137  0.4510  0.2383
 1832SOL     OW 6315   0.222   3.796   3.785 -0.0541 -0.0824  0.0197
 1832SOL    HW1 6316   0.197   3.784   3.689  0.5853  0.5095 -0.2281
 1832SOL    HW2 6317   0.146   3.838   3.834 -1.1820 -2.2348  0.2459
 1833SOL     OW 6318   0.455   6.087   2.987 -0.3026 -0.3757  0.3829
 1833SOL    HW1 6319   0.553   6.069   2.996 -0.3753 -0.5266  0.9115
 1833SOL    HW2 6320   0.413   6.013   2.935 -0.3403 -0.9730  1.2385
 1834SOL     OW 6321   1.472   4.587   6.970  0.7498  0.1924  0.4422
 1834SOL    HW1 6322   1.374   4.569   6.983  0.5651  0.5870 -0.3289
 1834SOL    HW2 6323   1.516   4.598   7.059  0.3223 -1.1282  0.8108
 1835SOL     OW 6324   6.275   5.149   5.301 -0.4989  0.0359 -0.0272
 1835SOL    HW1 6325   6.191   5.194   5.272 -0.4386  0.8771  1.0395
 1835SOL    HW2 6326   6.254   5.080   5.370 -0.5974 -1.6870 -1.6980
 1836SOL     OW 6327   4.569   4.474   1.604 -0.0144  0.1681 -0.1567
 1836SOL    HW1 6328   4.584   4.434   1.513  0.8110 -1.3304  0.6180
 1836SOL    HW2 6329   4.486   4.437   1.644 -0.4885  0.9777 -0.3655
 1837SOL     OW 6330   4.072   6.183   2.362 -0.2330  0.0071  0.9318
 1837SOL    HW1 6331   4.052   6.161   2.458 -1.4093  0.9431  0.9217
 1837SOL    HW2 6332   3.995   6.156   2.305  1.0959 -2.0496 -0.0299
 1838SOL     OW 6333   3.469   3.714   4.349  0.4747  0.0017 -0.5448
 1838SOL    HW1 6334   3.555   3.667   4.372  0.5028  0.1858 -0.2759
 1838SOL    HW2 6335   3.485   3.813   4.345 -0.0039  0.1585  0.7858
 1839SOL     OW 6336   2.464   5.966   4.295 -0.3592  0.1446  0.9033
 1839SOL    HW1 6337   2.537   6.001   4.236 -0.3078 -1.1058  0.1987
 1839SOL    HW2 6338   2.481   5.996   4.389  1.5889 -0.8548  0.9286
 1840SOL     OW 6339   6.663   0.913   3.771 -0.0215  0.3789 -0.0104
 1840SOL    HW1 6340   6.564   0.902   3.763 -0.2163  0.6399  1.8981
 1840SOL    HW2 6341   6.684   1.005   3.802  0.8893  0.5626 -1.0913
 1841SOL     OW 6342   2.077   5.576   6.645  0.0881  0.4689 -0.2228
 1841SOL    HW1 6343   2.171   5.573   6.679  0.2893 -0.7587 -0.8101
 1841SOL    HW2 6344   2.036   5.486   6.652 -0.8346  0.8424 -0.5766
 1842SOL     OW 6345   0.197   3.318   1.389 -0.0827 -0.6349 -0.3525
 1842SOL    HW1 6346   0.258   3.373   1.331 -0.6915 -0.3647 -0.7422
 1842SOL    HW2 6347   0.149   3.252   1.332 -4.8435  3.1130 -1.3026
 1843SOL     OW 6348   3.499   0.920   6.725  0.9437  0.0195  0.7609
 1843SOL    HW1 6349   3.404   0.903   6.699  1.5054 -1.8304 -0.3558
 1843SOL    HW2 6350   3.520   0.867   6.807  1.1755 -0.0950  0.6285
 1844SOL     OW 6351   1.702   4.174   4.263  0.7078  0.1128 -0.3455
 1844SOL    HW1 6352   1.754   4.224   4.333 -0.6348 -0.4390  1.1171
 1844SOL    HW2 6353   1.733   4.079   4.259  1.3005  0.3244 -1.0735
 1845SOL     OW 6354   4.823   6.421   6.244  0.2977 -0.1699 -0.2466
 1845SOL    HW1 6355   4.825   6.467   6.155 -0.7943  0.7635  0.1715
 1845SOL    HW2 6356   4.772   6.335   6.236  0.6632 -0.3532 -0.6310
 1846SOL     OW 6357   4.460   1.798   1.005  0.6786  0.5564 -0.3720
 1846SOL    HW1 6358   4.542   1.832   0.959  0.3196 -0.8630 -2.1721
 1846SOL    HW2 6359   4.402   1.751   0.940 -0.1728 -1.0574  1.4430
 1847SOL     OW 6360   2.098   3.248   3.098 -0.2529  0.1470 -0.0485
 1847SOL    HW1 6361   2.026   3.236   3.029 -0.8345 -0.2353  0.6126
 1847SOL    HW2 6362   2.176   3.190   3.075 -0.9321 -0.9435  0.2588
 1848SOL     OW 6363   3.087   6.941   1.470 -0.2317  0.0835 -0.0819
 1848SOL    HW1 6364   3.150   6.874   1.511  1.1487  1.2564 -0.2216
 1848SOL    HW2 6365   3.021   6.893   1.412 -0.4803 -1.3319  1.3257
 1849SOL     OW 6366   0.417   4.658   2.168  0.0094 -0.2364 -0.0211
 1849SOL    HW1 6367   0.481   4.690   2.098  0.1744 -0.8649 -0.1586
 1849SOL    HW2 6368   0.327   4.642   2.127 -0.2978  0.8443  0.2110
 1850SOL     OW 6369   6.702   1.169   1.394 -0.2700  0.5242  0.0415
 1850SOL    HW1 6370   6.749   1.143   1.479 -0.8834  1.4172  0.6780
 1850SOL    HW2 6371   6.609   1.131   1.395 -0.2319  0.4128 -0.3166
 1851SOL     OW 6372   4.492   5.652   6.055 -0.2346  0.2837 -0.2548
 1851SOL    HW1 6373   4.509   5.628   5.959  0.1628 -1.5909  0.2258
 1851SOL    HW2 6374   4.433   5.732   6.059  1.3685  1.6572 -2.0428
 1852SOL     OW 6375   3.793   1.249   4.274  0.1966  0.0007  0.5092
 1852SOL    HW1 6376   3.714   1.303   4.244  1.1889  0.5154 -1.2349
 1852SOL    HW2 6377   3.800   1.254   4.374 -0.9222  1.4187  0.5383
 1853SOL     OW 6378   2.509   3.006   6.597 -0.2928 -0.2972 -0.0177
 1853SOL    HW1 6379   2.459   2.931   6.640 -0.6069 -0.2034 -0.2108
 1853SOL    HW2 6380   2.595   2.972   6.560  0.1302 -0.3306  0.9450
 1854SOL     OW 6381   6.873   4.682   3.849  0.0086 -0.3410  0.5111
 1854SOL    HW1 6382   6.818   4.607   3.812  0.5339 -0.1744 -0.7070
 1854SOL    HW2 6383   6.814   4.746   3.897 -0.8507 -0.2124 -0.6760
 1855SOL     OW 6384   6.719   5.458   6.181 -0.2130 -0.3162 -0.5513
 1855SOL    HW1 6385   6.813   5.468   6.213 -0.5943  1.4163  0.2020
 1855SOL    HW2 6386   6.712   5.380   6.120  1.7626 -0.3193 -0.8397
 1856SOL     OW 6387   4.147   2.906   3.087  0.1959  0.6221  0.0863
 1856SOL    HW1 6388   4.165   2.814   3.120  0.2161  0.0436 -1.4893
 1856SOL    HW2 6389   4.199   2.972   3.141 -0.4436 -0.1841  1.7584
 1857SOL     OW 6390   5.673   5.955   4.468  0.2150  0.2255  0.6915
 1857SOL    HW1 6391   5.646   5.967   4.564 -0.0587  1.7316  0.4478
 1857SOL    HW2 6392   5.752   5.895   4.464  1.2534  1.4241  2.0196
 1858SOL     OW 6393   6.477   6.874   4.873 -1.1674  0.1686  0.2304
 1858SOL    HW1 6394   6.523   6.960   4.892  0.5631 -1.0322  1.8124
 1858SOL    HW2 6395   6.408   6.856   4.944 -0.3612 -0.4900  0.8743
 1859SOL     OW 6396   2.611   2.077   6.598  0.7123 -0.0232  0.0137
 1859SOL    HW1 6397   2.631   2.108   6.691  0.0037 -0.3333  0.2775
 1859SOL    HW2 6398   2.647   2.143   6.532  0.8588  0.4048  0.5204
 1860SOL     OW 6399   6.708   3.313   2.199 -0.0972 -0.5193 -0.2514
 1860SOL    HW1 6400   6.643   3.334   2.126 -0.7130 -1.7469 -0.0926
 1860SOL    HW2 6401   6.681   3.227   2.243  1.2514 -0.6949  0.2723
 1861SOL     OW 6402   2.299   0.066   1.540 -0.8710 -0.0788 -0.6713
 1861SOL    HW1 6403   2.281   0.163   1.556 -0.1504  0.2224 -1.5400
 1861SOL    HW2 6404   2.232   0.010   1.589 -1.4415  0.8633 -0.3566
 1862SOL     OW 6405   4.552   2.213   0.880  0.4863 -0.1148  0.0534
 1862SOL    HW1 6406   4.538   2.184   0.974 -1.8051  0.1148 -0.1468
 1862SOL    HW2 6407   4.556   2.133   0.820 -1.5033 -0.2516  0.0054
 1863SOL     OW 6408   2.946   3.346   1.161  0.4942  0.1673  0.0418
 1863SOL    HW1 6409   2.881   3.391   1.223  0.4544 -1.7964  1.5085
 1863SOL    HW2 6410   3.035   3.338   1.207  0.1876 -2.2375  0.3375
 1864SOL     OW 6411   1.200   0.735   0.635 -0.2317  0.2046 -0.3683
 1864SOL    HW1 6412   1.102   0.749   0.646 -0.1668  0.1545  0.3172
 1864SOL    HW2 6413   1.217   0.659   0.573 -0.6221  0.3979 -0.7133
 1865SOL     OW 6414   0.079   5.492   3.826  0.2238  0.0215  0.1707
 1865SOL    HW1 6415   0.165   5.514   3.874  0.2246 -0.3100  0.3240
 1865SOL    HW2 6416   0.005   5.486   3.893  0.4653 -1.7673  0.3179
 1866SOL     OW 6417   3.103   2.808   4.366 -0.1092  0.0919 -0.2542
 1866SOL    HW1 6418   3.176   2.873   4.390  1.7341 -0.3961 -3.8225
 1866SOL    HW2 6419   3.014   2.848   4.388  1.0648  2.5513  0.3971
 1867SOL     OW 6420   3.707   2.051   5.199 -0.1714 -0.5174  0.2673
 1867SOL    HW1 6421   3.766   2.072   5.277  0.8329 -0.8131 -0.3951
 1867SOL    HW2 6422   3.652   2.132   5.177 -0.6035 -0.4879  1.3796
 1868SOL     OW 6423   3.057   6.000   6.369  0.4866  0.6507  0.1292
 1868SOL    HW1 6424   3.010   5.974   6.454  0.9015  1.9987  0.8160
 1868SOL    HW2 6425   3.135   5.939   6.355  0.2373  0.2195  0.5749
 1869SOL     OW 6426   0.285   2.522   6.797  0.5802  0.7863  0.0990
 1869SOL    HW1 6427   0.237   2.604   6.765 -0.9183 -0.5059 -1.1518
 1869SOL    HW2 6428   0.319   2.470   6.718  0.3095 -0.5057  0.7997
 1870SOL     OW 6429   1.040   1.231   3.732  0.3070  0.3724 -0.3628
 1870SOL    HW1 6430   0.950   1.275   3.741 -0.1659 -0.1557 -2.2825
 1870SOL    HW2 6431   1.055   1.204   3.637  1.5593 -1.5757  0.3349
 1871SOL     OW 6432   3.334   4.036   4.810 -0.0361 -0.4221  0.1157
 1871SOL    HW1 6433   3.426   4.008   4.780 -0.7057 -2.0813 -0.5333
 1871SOL    HW2 6434   3.339   4.075   4.902  1.5930  1.6000 -0.7465
 1872SOL     OW 6435   4.094   4.800   2.665 -0.1095  0.1967  0.6072
 1872SOL    HW1 6436   4.147   4.844   2.738  0.5742 -2.3274  1.7099
 1872SOL    HW2 6437   4.006   4.770   2.701 -0.9225  1.3326 -0.3524
 1873SOL     OW 6438   3.012   3.850   3.896 -1.0264 -0.2356 -0.7644
 1873SOL    HW1 6439   2.948   3.810   3.962 -0.8769  2.4497  1.1401
 1873SOL    HW2 6440   2.961   3.898   3.825 -1.1600 -1.1181 -1.2706
 1874SOL     OW 6441   1.222   1.624   6.892 -0.2588  0.1513 -0.2750
 1874SOL    HW1 6442   1.291   1.559   6.861  0.7211  0.5956  0.9083
 1874SOL    HW2 6443   1.144   1.574   6.930 -2.8987 -0.5919 -5.7873
 1875SOL     OW 6444   1.018   6.428   0.890 -0.4145 -0.0393 -0.1485
 1875SOL    HW1 6445   0.960   6.482   0.829 -0.0279  1.3406  0.6488
 1875SOL    HW2 6446   1.114   6.436   0.861 -0.5003 -1.8681 -1.1376
 1876SOL     OW 6447   2.475   0.071   5.795 -0.2559  0.7025 -0.3384
 1876SOL    HW1 6448   2.526   0.058   5.709 -2.3735  1.0566 -1.7197
 1876SOL    HW2 6449   2.539   0.072   5.871  1.5868 -1.2084 -1.7252
 1877SOL     OW 6450   3.456   4.166   1.223 -0.6516 -0.0455  0.2092
 1877SOL    HW1 6451   3.506   4.231   1.280 -0.0711 -0.3750  0.0901
 1877SOL    HW2 6452   3.499   4.076   1.229 -2.5459 -0.9227  1.8846
 1878SOL     OW 6453   1.957   2.724   1.870 -0.0822  0.0448  0.1078
 1878SOL    HW1 6454   2.018   2.745   1.793  0.7127 -0.8123  0.4805
 1878SOL    HW2 6455   1.912   2.808   1.900 -2.1303  0.0678 -2.6745
 1879SOL     OW 6456   6.384   5.664   1.787  0.7392  0.3463 -0.2304
 1879SOL    HW1 6457   6.341   5.754   1.783  1.8198  0.8923 -0.0252
 1879SOL    HW2 6458   6.372   5.625   1.879 -0.2954 -0.0228 -0.5114
 1880SOL     OW 6459   5.441   0.389   3.538  0.4390 -0.0279 -0.5416
 1880SOL    HW1 6460   5.503   0.320   3.502  0.7873 -0.2958  0.5326
 1880SOL    HW2 6461   5.437   0.467   3.476  1.0351 -0.4574 -1.1276
 1881SOL     OW 6462   0.239   0.374   5.521  0.1040  0.4066  0.1601
 1881SOL    HW1 6463   0.270   0.337   5.609 -0.4948 -0.8520 -0.1319
 1881SOL    HW2 6464   0.185   0.304   5.474 -2.4354  2.1652  0.2861
 1882SOL     OW 6465   4.163   4.346   1.982 -0.0505 -0.1631  0.0912
 1882SOL    HW1 6466   4.139   4.398   2.064 -0.8274 -1.7957  0.9321
 1882SOL    HW2 6467   4.129   4.253   1.990  0.6098 -0.6022 -1.7353
 1883SOL     OW 6468   1.979   1.706   5.447 -0.3560  0.1588 -0.5082
 1883SOL    HW1 6469   1.880   1.707   5.460 -0.2715  0.6065  0.1359
 1883SOL    HW2 6470   2.005   1.626   5.393 -1.0131 -0.2381 -0.2413
 1884SOL     OW 6471   0.123   2.597   5.784  0.0513 -0.2759 -0.6592
 1884SOL    HW1 6472   0.064   2.523   5.816  0.6772 -0.6949 -0.4409
 1884SOL    HW2 6473   0.152   2.653   5.861  0.4453 -0.4592 -0.6592
 1885SOL     OW 6474   5.911   5.782   2.507  0.2213  0.2467 -0.5970
 1885SOL    HW1 6475   6.007   5.788   2.533  0.1239  1.1760 -0.3925
 1885SOL    HW2 6476   5.890   5.690   2.475  1.0001 -0.1729  0.0665
 1886SOL     OW 6477   2.296   0.598   0.793 -0.4868  0.1549 -0.5320
 1886SOL    HW1 6478   2.263   0.621   0.885 -1.2901  1.4212 -1.1149
 1886SOL    HW2 6479   2.395   0.590   0.795 -0.5502 -0.5905  0.6023
 1887SOL     OW 6480   6.420   1.801   5.216 -0.3077 -0.0920 -0.9595
 1887SOL    HW1 6481   6.368   1.847   5.288  0.6642  1.5099 -1.2201
 1887SOL    HW2 6482   6.501   1.757   5.256 -0.1925  0.1254 -0.9345
 1888SOL     OW 6483   4.747   4.649   4.884 -0.2634  0.1029  0.0032
 1888SOL    HW1 6484   4.694   4.710   4.943 -0.9695  0.0927 -0.5981
 1888SOL    HW2 6485   4.725   4.668   4.788 -0.3276 -0.9351 -0.2072
 1889SOL     OW 6486   4.139   3.839   3.233 -0.1321  0.2543  0.5243
 1889SOL    HW1 6487   4.225   3.872   3.194  0.3427 -0.5969  0.8267
 1889SOL    HW2 6488   4.146   3.742   3.253 -1.2351  0.1234  0.3819
 1890SOL     OW 6489   2.720   2.917   1.768 -0.1078  0.6084  0.1020
 1890SOL    HW1 6490   2.660   2.995   1.783 -0.2513  0.4139  0.5788
 1890SOL    HW2 6491   2.804   2.947   1.723  0.1041  1.1494  0.8339
 1891SOL     OW 6492   5.969   5.902   4.378  0.1269 -0.2391 -0.2115
 1891SOL    HW1 6493   5.940   5.814   4.414  0.0380 -0.7681 -1.5176
 1891SOL    HW2 6494   5.907   5.930   4.305 -0.1462  1.1646  0.5253
 1892SOL     OW 6495   6.781   2.240   4.931 -0.2794  0.0087  0.0668
 1892SOL    HW1 6496   6.697   2.198   4.896 -0.0966 -0.4364  0.1646
 1892SOL    HW2 6497   6.762   2.285   5.018 -0.4884  0.1682 -0.0567
 1893SOL     OW 6498   0.561   4.037   0.140  0.2890  0.2068 -0.3576
 1893SOL    HW1 6499   0.556   4.095   0.059  0.5347 -1.2430 -1.4652
 1893SOL    HW2 6500   0.646   4.056   0.189 -0.5426  2.1195  0.4086
 1894SOL     OW 6501   6.301   6.242   4.728 -0.6436  0.4405  0.0897
 1894SOL    HW1 6502   6.202   6.253   4.736 -0.6049  0.9953 -0.1359
 1894SOL    HW2 6503   6.329   6.262   4.634 -0.5261 -1.4317 -0.2955
 1895SOL     OW 6504   2.749   3.055   2.784  0.3267  0.1323 -0.3472
 1895SOL    HW1 6505   2.842   3.043   2.819  0.1011 -0.4193  0.0828
 1895SOL    HW2 6506   2.689   2.989   2.828 -0.3851  0.8791 -0.1907
 1896SOL     OW 6507   0.533   0.094   1.251  0.1516  0.2191  0.5711
 1896SOL    HW1 6508   0.583   0.137   1.176 -0.4989  0.4516  0.2672
 1896SOL    HW2 6509   0.517   0.162   1.323  0.5482  0.0649  0.8076
 1897SOL     OW 6510   4.767   0.164   4.830 -0.7857  0.3169 -0.2340
 1897SOL    HW1 6511   4.817   0.141   4.747  0.6469  0.6712  0.5106
 1897SOL    HW2 6512   4.749   0.081   4.883  1.0045  0.4255  0.5822
 1898SOL     OW 6513   2.142   0.497   4.422  0.0826  0.0096  0.0259
 1898SOL    HW1 6514   2.189   0.439   4.355 -1.3017 -1.4722  0.2915
 1898SOL    HW2 6515   2.198   0.578   4.440  3.3137 -2.3366  1.4911
 1899SOL     OW 6516   6.909   6.046   1.439  0.0664  0.4873 -0.1186
 1899SOL    HW1 6517   6.914   5.987   1.520 -1.5846  1.4736  0.7525
 1899SOL    HW2 6518   7.000   6.082   1.419  0.6779 -0.5368  0.6965
 1900SOL     OW 6519   3.026   2.737   0.540  0.9720  0.2271 -0.8678
 1900SOL    HW1 6520   3.039   2.639   0.526  0.2847 -0.4222  2.2378
 1900SOL    HW2 6521   2.953   2.770   0.481 -0.7500 -1.7783  0.0140
 1901SOL     OW 6522   0.662   3.386   0.951 -0.1479  0.1370 -0.0325
 1901SOL    HW1 6523   0.736   3.322   0.970 -0.7648 -0.5294  0.1990
 1901SOL    HW2 6524   0.576   3.349   0.988 -0.5031  1.1453  0.1908
 1902SOL     OW 6525   5.130   2.296   5.832 -0.4619 -0.5006  0.2140
 1902SOL    HW1 6526   5.118   2.288   5.733 -1.2215  1.4943  0.1083
 1902SOL    HW2 6527   5.227   2.288   5.855 -0.1575  0.1848 -0.8131
 1903SOL     OW 6528   5.559   1.294   4.856 -0.1957 -0.2012 -0.9205
 1903SOL    HW1 6529   5.560   1.332   4.949  1.8458  0.7121 -1.2511
 1903SOL    HW2 6530   5.578   1.367   4.790 -0.5127 -1.0354 -1.9548
 1904SOL     OW 6531   0.317   5.801   3.474 -0.4898  0.2560  0.6597
 1904SOL    HW1 6532   0.343   5.827   3.567 -1.1606  1.3884  0.5599
 1904SOL    HW2 6533   0.307   5.702   3.468 -1.0856  0.2249  1.9695
 1905SOL     OW 6534   2.934   4.993   1.611 -0.1617  0.5036  0.1871
 1905SOL    HW1 6535   2.983   4.908   1.632 -1.8321 -0.6349 -0.3140
 1905SOL    HW2 6536   2.910   5.039   1.696  0.8700  0.5791  0.4635
 1906SOL     OW 6537   5.436   4.246   5.694 -0.1266  0.2280 -0.0857
 1906SOL    HW1 6538   5.444   4.149   5.671  1.4165  0.3567 -0.1886
 1906SOL    HW2 6539   5.413   4.298   5.612 -0.1650  0.0433 -0.1957
 1907SOL     OW 6540   0.737   4.670   3.142  0.0449 -0.5499  0.8851
 1907SOL    HW1 6541   0.639   4.688   3.155 -0.2075 -0.5955 -0.7494
 1907SOL    HW2 6542   0.749   4.589   3.086  1.0586 -1.0422  1.7825
 1908SOL     OW 6543   6.805   1.156   0.567 -0.0490 -0.6804 -0.4712
 1908SOL    HW1 6544   6.819   1.060   0.540  1.3546 -1.1376  1.6234
 1908SOL    HW2 6545   6.743   1.200   0.502 -1.2287 -3.1764 -1.1628
 1909SOL     OW 6546   6.851   1.821   0.640 -0.6952 -0.0497  0.1647
 1909SOL    HW1 6547   6.762   1.825   0.595  0.0790 -0.3739 -1.4725
 1909SOL    HW2 6548   6.921   1.799   0.573  0.8595  1.6581  1.1174
 1910SOL     OW 6549   3.499   2.383   1.561  0.6612  0.8207  0.5944
 1910SOL    HW1 6550   3.578   2.322   1.558  1.1195  1.4113 -0.2115
 1910SOL    HW2 6551   3.527   2.472   1.597  0.2955  0.9586  0.5555
 1911SOL     OW 6552   6.805   0.598   3.248 -0.0517  0.2465 -0.2013
 1911SOL    HW1 6553   6.809   0.526   3.317 -1.0066  1.4265  1.1406
 1911SOL    HW2 6554   6.814   0.687   3.292 -3.3226  1.2093 -1.2036
 1912SOL     OW 6555   4.162   5.409   4.575 -0.8593 -0.0104  0.1066
 1912SOL    HW1 6556   4.111   5.342   4.629  1.0362 -0.4159  1.5218
 1912SOL    HW2 6557   4.260   5.388   4.580 -0.2256  2.5446  0.1587
 1913SOL     OW 6558   5.995   1.911   4.932 -0.6382 -0.0255 -0.3507
 1913SOL    HW1 6559   5.993   1.829   4.874  0.2413  1.2656 -2.3130
 1913SOL    HW2 6560   5.952   1.987   4.884  0.0871  1.1066  0.7285
 1914SOL     OW 6561   2.236   3.174   6.315  0.4030 -0.2235 -0.1602
 1914SOL    HW1 6562   2.143   3.138   6.328  0.2675 -0.1307 -0.8585
 1914SOL    HW2 6563   2.282   3.178   6.404  0.0800 -1.1839  0.0612
 1915SOL     OW 6564   4.999   5.016   3.329  0.1017  0.2351 -0.8708
 1915SOL    HW1 6565   5.042   4.959   3.259  0.2586 -0.6876 -0.0467
 1915SOL    HW2 6566   5.063   5.087   3.357  0.8981 -0.7658 -0.0766
 1916SOL     OW 6567   6.419   6.740   3.494 -0.0820  0.2745 -0.0808
 1916SOL    HW1 6568   6.412   6.802   3.416  0.7014  2.8419  1.7615
 1916SOL    HW2 6569   6.512   6.743   3.531 -0.5413 -0.5770  1.1937
 1917SOL     OW 6570   1.335   5.314   4.996 -0.7144  0.3635 -0.0464
 1917SOL    HW1 6571   1.433   5.315   5.017 -0.6057 -1.1109 -0.4429
 1917SOL    HW2 6572   1.309   5.403   4.958  1.3801 -0.5341 -4.0512
 1918SOL     OW 6573   2.303   6.955   3.375 -0.4783 -0.1817  0.5212
 1918SOL    HW1 6574   2.359   6.994   3.448 -0.4978  1.1984 -0.1789
 1918SOL    HW2 6575   2.206   6.961   3.400 -0.5247  0.8261  0.1645
 1919SOL     OW 6576   3.644   6.048   2.910  0.3398 -0.3663  0.1982
 1919SOL    HW1 6577   3.612   6.046   2.815  0.3261 -0.5581  0.2037
 1919SOL    HW2 6578   3.693   6.133   2.927  0.2769 -0.2950  0.0397
 1920SOL     OW 6579   6.610   1.602   6.023  0.0537 -0.1323 -0.2900
 1920SOL    HW1 6580   6.563   1.514   6.029  0.4197 -0.3027  0.1212
 1920SOL    HW2 6581   6.618   1.629   5.927 -1.4560  0.2115 -0.3464
 1921SOL     OW 6582   0.700   2.238   0.896  0.3144  0.0261  0.6254
 1921SOL    HW1 6583   0.774   2.273   0.953  0.8499  1.2315 -0.7288
 1921SOL    HW2 6584   0.614   2.240   0.947  0.8872  0.3845  1.6051
 1922SOL     OW 6585   2.296   4.791   3.874 -0.1394 -0.3713  0.0669
 1922SOL    HW1 6586   2.260   4.727   3.806 -0.2915 -0.7712  0.5100
 1922SOL    HW2 6587   2.317   4.879   3.830 -0.4871 -0.5360 -0.4393
 1923SOL     OW 6588   5.533   5.157   3.624  0.3597  0.1174  0.4662
 1923SOL    HW1 6589   5.507   5.099   3.547 -1.7041  1.3712  0.1328
 1923SOL    HW2 6590   5.577   5.240   3.591  1.4436 -0.3148  0.7990
 1924SOL     OW 6591   2.228   5.038   2.881  0.3534 -0.2862  0.2363
 1924SOL    HW1 6592   2.263   5.100   2.952  1.4385 -1.1771  0.5121
 1924SOL    HW2 6593   2.225   4.945   2.917 -3.3756 -0.1880  0.5918
 1925SOL     OW 6594   1.494   5.037   4.763 -0.4077  0.0785  0.4314
 1925SOL    HW1 6595   1.521   5.115   4.820 -3.6627  0.9669  0.9503
 1925SOL    HW2 6596   1.396   5.019   4.775 -0.9804 -0.6073 -3.8381
 1926SOL     OW 6597   5.902   6.822   4.318 -0.0267  0.0791  0.0996
 1926SOL    HW1 6598   5.974   6.826   4.386 -0.9280  0.3143  1.0683
 1926SOL    HW2 6599   5.817   6.858   4.356 -1.2094 -2.0861 -0.3017
 1927SOL     OW 6600   5.241   4.697   1.754 -0.2945  0.3520  0.2552
 1927SOL    HW1 6601   5.252   4.793   1.778  0.0076  0.2800  0.4082
 1927SOL    HW2 6602   5.222   4.644   1.837 -2.0986  0.5058 -0.0128
 1928SOL     OW 6603   1.782   5.405   2.360 -0.0109 -0.1304 -0.1527
 1928SOL    HW1 6604   1.791   5.423   2.262 -2.3958  2.3864 -0.0513
 1928SOL    HW2 6605   1.713   5.333   2.374 -0.3764  0.1784 -0.3268
 1929SOL     OW 6606   6.770   2.143   6.636  0.1449 -0.2573  0.6401
 1929SOL    HW1 6607   6.694   2.184   6.688 -0.4195 -1.0681  0.4742
 1929SOL    HW2 6608   6.796   2.205   6.562  1.1793  1.0718  2.0416
 1930SOL     OW 6609   5.965   2.096   3.146  0.3674  0.0280  0.3680
 1930SOL    HW1 6610   5.952   2.051   3.057 -1.1805  2.1987 -0.5882
 1930SOL    HW2 6611   5.901   2.058   3.212  1.4993 -1.5748  0.6030
 1931SOL     OW 6612   5.234   3.601   6.672 -0.2779 -0.4594 -0.2660
 1931SOL    HW1 6613   5.276   3.629   6.586 -3.1319  2.7134 -0.8246
 1931SOL    HW2 6614   5.297   3.620   6.747 -0.2490  3.3290 -1.1152
 1932SOL     OW 6615   4.107   2.905   1.641  0.0332 -0.6825  0.2846
 1932SOL    HW1 6616   4.106   2.900   1.541  1.3602  0.2200  0.2098
 1932SOL    HW2 6617   4.156   2.826   1.678  1.7472  0.2343  0.0803
 1933SOL     OW 6618   4.958   1.261   6.416  0.2252  0.7613  0.0475
 1933SOL    HW1 6619   5.048   1.263   6.461 -0.3252  0.5334  1.1954
 1933SOL    HW2 6620   4.901   1.335   6.453 -0.9292 -0.6781  1.2363
 1934SOL     OW 6621   2.535   4.502   2.463  0.5867 -0.5647  0.2998
 1934SOL    HW1 6622   2.551   4.599   2.480  0.5803 -0.4081 -0.5324
 1934SOL    HW2 6623   2.618   4.460   2.426 -0.3719 -0.0952 -2.5984
 1935SOL     OW 6624   0.773   4.488   2.927  1.0073 -0.0645 -0.8919
 1935SOL    HW1 6625   0.752   4.512   2.832  2.0016  0.1240 -1.0703
 1935SOL    HW2 6626   0.764   4.389   2.939 -2.4015  0.1743 -0.3361
 1936SOL     OW 6627   0.517   3.694   5.524  0.4302  0.2281  0.4986
 1936SOL    HW1 6628   0.470   3.607   5.513  0.4331  0.3400 -0.4676
 1936SOL    HW2 6629   0.547   3.704   5.619  0.0788 -0.6374  0.7080
 1937SOL     OW 6630   2.932   4.996   0.318 -0.1840 -0.2339  0.1863
 1937SOL    HW1 6631   2.844   5.006   0.271 -1.3873  0.6929  2.4782
 1937SOL    HW2 6632   2.967   5.086   0.344 -1.1312 -0.7018  3.6178
 1938SOL     OW 6633   0.384   5.813   6.067  0.2198 -0.1165 -0.4806
 1938SOL    HW1 6634   0.368   5.848   6.159  0.9569 -0.1763 -0.3228
 1938SOL    HW2 6635   0.311   5.844   6.006  0.8861  1.8150 -0.3769
 1939SOL     OW 6636   6.338   0.657   5.578  0.1205  0.5682  0.0545
 1939SOL    HW1 6637   6.338   0.731   5.646 -0.7862  0.1448  0.5444
 1939SOL    HW2 6638   6.422   0.661   5.525 -0.3532  2.6520 -0.6778
 1940SOL     OW 6639   6.778   1.202   3.243  0.2219 -0.6878 -0.0913
 1940SOL    HW1 6640   6.766   1.123   3.303  1.9391 -0.6038  0.4099
 1940SOL    HW2 6641   6.694   1.257   3.242 -1.6771 -3.4000 -1.8208
 1941SOL     OW 6642   4.192   6.147   5.652  0.0310  1.3416 -0.5828
 1941SOL    HW1 6643   4.267   6.186   5.598  1.4480 -0.7787 -0.2970
 1941SOL    HW2 6644   4.182   6.198   5.737  0.3298  2.3929 -1.1602
 1942SOL     OW 6645   6.348   3.852   3.599  0.3076  0.2366  0.4313
 1942SOL    HW1 6646   6.317   3.787   3.530 -1.0982  1.7727 -0.4608
 1942SOL    HW2 6647   6.306   3.830   3.687 -2.2886  1.4084 -0.4360
 1943SOL     OW 6648   3.979   6.599   2.104 -0.2810  0.5159  0.1256
 1943SOL    HW1 6649   4.031   6.653   2.038  1.8326 -1.8686 -0.3320
 1943SOL    HW2 6650   3.883   6.597   2.078  0.1774  1.2443 -1.7459
 1944SOL     OW 6651   2.883   6.954   6.309  0.3936 -0.1716 -0.1391
 1944SOL    HW1 6652   2.830   6.938   6.226  1.0925 -0.4830 -0.5388
 1944SOL    HW2 6653   2.927   6.869   6.337  1.7464  0.3531 -0.5827
 1945SOL     OW 6654   2.466   1.801   2.173 -0.6700 -0.7700  0.3583
 1945SOL    HW1 6655   2.525   1.875   2.206  0.9392 -1.4843 -0.7579
 1945SOL    HW2 6656   2.424   1.756   2.252  0.0321 -0.0365  1.1887
 1946SOL     OW 6657   2.519   5.907   6.435 -0.4950  0.3078 -0.0186
 1946SOL    HW1 6658   2.522   5.977   6.506  0.4115  0.3923 -0.1321
 1946SOL    HW2 6659   2.612   5.885   6.406 -0.7323 -1.1713  0.2378
 1947SOL     OW 6660   3.107   2.104   1.982 -0.0780  0.1566 -0.2708
 1947SOL    HW1 6661   3.197   2.074   2.013 -0.2656  1.1692  1.3504
 1947SOL    HW2 6662   3.114   2.137   1.888  1.4807  1.2007  0.1660
 1948SOL     OW 6663   0.194   3.682   3.124  0.2591  0.0096  0.6297
 1948SOL    HW1 6664   0.245   3.635   3.196  0.7114  1.2825  1.1644
 1948SOL    HW2 6665   0.138   3.754   3.165  1.4211  1.5313 -0.3996
 1949SOL     OW 6666   3.418   3.474   4.513 -0.0601 -0.2247 -0.6124
 1949SOL    HW1 6667   3.394   3.476   4.416 -1.0445  0.8075 -0.3756
 1949SOL    HW2 6668   3.430   3.380   4.543 -1.7224 -0.6935 -1.2940
 1950SOL     OW 6669   1.202   1.593   5.515  0.0749  0.2052  0.1785
 1950SOL    HW1 6670   1.157   1.558   5.597 -1.6488  1.3840 -0.2117
 1950SOL    HW2 6671   1.297   1.614   5.535  0.2415 -1.4554  1.2989
 1951SOL     OW 6672   2.685   3.089   4.198 -0.0548  0.2119 -0.0628
 1951SOL    HW1 6673   2.668   3.110   4.101 -2.3370  0.4849  0.3348
 1951SOL    HW2 6674   2.688   3.173   4.250 -0.2327 -0.0055  0.3030
 1952SOL     OW 6675   5.449   2.106   6.503 -0.5789  0.5360  0.0697
 1952SOL    HW1 6676   5.510   2.143   6.573  0.2375  0.2197 -0.4610
 1952SOL    HW2 6677   5.360   2.084   6.544 -0.0706  0.2254  1.0200
 1953SOL     OW 6678   1.795   6.454   4.826 -0.0986 -0.1787 -0.0801
 1953SOL    HW1 6679   1.762   6.479   4.736  0.0614 -3.1247 -1.0724
 1953SOL    HW2 6680   1.881   6.402   4.817 -0.6022 -1.4121  1.6331
 1954SOL     OW 6681   3.879   3.962   5.510 -0.3029  0.2304 -0.0140
 1954SOL    HW1 6682   3.947   4.035   5.518  0.0431 -0.1914  1.0010
 1954SOL    HW2 6683   3.895   3.911   5.425 -0.0919  0.8694 -0.3670
 1955SOL     OW 6684   6.614   3.875   1.392  0.2811  0.2070 -0.3178
 1955SOL    HW1 6685   6.543   3.939   1.423 -0.0801  0.0975 -0.9097
 1955SOL    HW2 6686   6.704   3.915   1.410  0.0711  1.5468 -1.9713
 1956SOL     OW 6687   0.571   2.161   6.126 -0.0955  0.6005  0.3487
 1956SOL    HW1 6688   0.650   2.100   6.135 -1.2431 -1.1238 -0.6927
 1956SOL    HW2 6689   0.596   2.253   6.157  2.1708 -0.0013  0.4822
 1957SOL     OW 6690   0.616   6.041   3.912  0.0837 -0.0999 -0.1979
 1957SOL    HW1 6691   0.671   5.958   3.904  1.1586  0.5707  0.0585
 1957SOL    HW2 6692   0.549   6.044   3.838  1.1867 -0.3594 -1.2214
 1958SOL     OW 6693   0.906   3.840   5.500 -0.0526  0.1659 -0.6053
 1958SOL    HW1 6694   0.932   3.932   5.470  2.5412 -0.6080 -0.9176
 1958SOL    HW2 6695   0.829   3.808   5.444  0.1429  1.4469 -1.6759
 1959SOL     OW 6696   2.314   3.448   5.455 -0.3566 -0.1646  0.1057
 1959SOL    HW1 6697   2.282   3.441   5.550 -0.3620 -1.2835  0.0368
 1959SOL    HW2 6698   2.331   3.356   5.419  0.1671  0.2765 -0.8055
 1960SOL     OW 6699   0.897   3.365   6.142  0.4418 -0.3621 -0.3973
 1960SOL    HW1 6700   0.900   3.327   6.050  0.2166  0.4056 -0.7318
 1960SOL    HW2 6701   0.911   3.464   6.137  1.2104 -0.4147  0.4647
 1961SOL     OW 6702   2.324   6.909   2.689  0.0866 -0.0057  0.4265
 1961SOL    HW1 6703   2.255   6.977   2.713 -0.8575 -0.1824 -1.5828
 1961SOL    HW2 6704   2.379   6.942   2.613  1.4081 -0.3974  1.1913
 1962SOL     OW 6705   3.995   3.908   2.702  0.6720  0.7001 -0.0387
 1962SOL    HW1 6706   3.914   3.879   2.753  0.3023  1.7545 -0.0160
 1962SOL    HW2 6707   3.997   3.862   2.614 -0.1300  0.9203 -0.1761
 1963SOL     OW 6708   4.913   6.697   0.144 -0.0295 -0.1233 -0.3588
 1963SOL    HW1 6709   4.848   6.700   0.067 -0.5981 -2.4715 -0.0537
 1963SOL    HW2 6710   4.998   6.742   0.118 -0.9789  1.0903 -1.5456
 1964SOL     OW 6711   4.859   2.871   1.305 -0.3960  0.2244 -0.6848
 1964SOL    HW1 6712   4.798   2.943   1.339  1.4572  0.3894  2.7011
 1964SOL    HW2 6713   4.816   2.782   1.319 -0.2004  0.3723  1.0706
 1965SOL     OW 6714   3.566   2.641   6.959 -0.3282 -0.9717  0.3683
 1965SOL    HW1 6715   3.530   2.575   7.025  1.6005 -1.3712  1.0715
 1965SOL    HW2 6716   3.649   2.603   6.917  0.3102  0.6167  0.1227
 1966SOL     OW 6717   6.639   4.515   3.278  0.2868 -0.1479 -0.0528
 1966SOL    HW1 6718   6.568   4.585   3.284  0.0036 -0.4192 -0.2664
 1966SOL    HW2 6719   6.724   4.552   3.316 -0.2224 -0.1714  1.1498
 1967SOL     OW 6720   3.268   1.547   1.857  0.1741 -0.2898 -0.0954
 1967SOL    HW1 6721   3.192   1.597   1.897 -0.6316 -1.0409 -0.5948
 1967SOL    HW2 6722   3.327   1.610   1.806 -0.8185  0.1385 -0.7472
 1968SOL     OW 6723   2.689   1.267   1.778 -0.4542  0.1263  0.5465
 1968SOL    HW1 6724   2.620   1.265   1.706 -0.0776 -0.5617  0.1890
 1968SOL    HW2 6725   2.727   1.359   1.785  0.8924 -0.1955 -1.5212
 1969SOL     OW 6726   1.312   6.169   5.638 -0.2125  0.6529 -0.1367
 1969SOL    HW1 6727   1.398   6.146   5.593  0.9994  2.1439  1.2822
 1969SOL    HW2 6728   1.238   6.167   5.570  1.2447  1.2018 -1.8298
 1970SOL     OW 6729   6.872   0.831   2.999 -0.1183 -0.3334 -0.0223
 1970SOL    HW1 6730   6.898   0.790   3.086 -1.2839 -0.5206  0.2552
 1970SOL    HW2 6731   6.796   0.781   2.959 -0.2471  0.3482 -0.6674
 1971SOL     OW 6732   0.402   3.015   5.585  0.2932  0.1122 -0.2377
 1971SOL    HW1 6733   0.322   3.033   5.642 -1.2852  1.8664 -2.8132
 1971SOL    HW2 6734   0.451   3.101   5.569  1.4697 -0.5783 -0.4656
 1972SOL     OW 6735   0.875   2.501   0.450 -0.3673 -0.3737  0.6392
 1972SOL    HW1 6736   0.919   2.570   0.392 -0.3282 -1.3216 -0.4646
 1972SOL    HW2 6737   0.831   2.547   0.527  0.1798  0.8375  0.2498
 1973SOL     OW 6738   5.460   2.313   4.587 -0.8054  0.0361  0.7631
 1973SOL    HW1 6739   5.382   2.258   4.618 -0.4710 -0.6447  0.4390
 1973SOL    HW2 6740   5.467   2.306   4.487 -0.3865  0.1624  0.7821
 1974SOL     OW 6741   6.391   5.997   1.950  0.2628  0.3161  0.2608
 1974SOL    HW1 6742   6.474   5.953   1.985  0.4866  0.1894 -0.4258
 1974SOL    HW2 6743   6.353   5.943   1.875 -2.0575 -1.1882  2.3622
 1975SOL     OW 6744   4.649   0.062   4.267  0.8712  0.0890  0.0656
 1975SOL    HW1 6745   4.649   0.101   4.359 -0.9007  0.3238  0.0001
 1975SOL    HW2 6746   4.672   0.134   4.201  1.4858  0.0813  0.2724
 1976SOL     OW 6747   4.247   3.030   5.116  0.1584 -0.3335 -0.0048
 1976SOL    HW1 6748   4.203   3.118   5.101 -1.6515 -1.4143 -1.3064
 1976SOL    HW2 6749   4.267   3.019   5.214 -1.9959  0.4348  0.5719
 1977SOL     OW 6750   0.801   0.234   4.092  0.2232  0.2104 -0.1598
 1977SOL    HW1 6751   0.889   0.239   4.140  0.5761 -0.0181 -0.7712
 1977SOL    HW2 6752   0.792   0.144   4.049 -1.4989 -0.8121  2.1405
 1978SOL     OW 6753   0.430   4.248   6.294  0.6586  0.2684 -0.0683
 1978SOL    HW1 6754   0.389   4.200   6.371 -2.0417  1.9756 -0.2823
 1978SOL    HW2 6755   0.438   4.345   6.315  0.7294  0.6253 -1.5834
 1979SOL     OW 6756   6.960   1.995   4.862  0.4046  0.0049  0.0984
 1979SOL    HW1 6757   6.917   2.084   4.875 -0.0133 -0.2722  0.6980
 1979SOL    HW2 6758   6.950   1.941   4.945 -0.1493 -0.9431 -0.5594
 1980SOL     OW 6759   2.677   6.626   0.023  0.0815  0.0686 -0.3819
 1980SOL    HW1 6760   2.691   6.725   0.019 -2.7354  0.6676  1.5149
 1980SOL    HW2 6761   2.613   6.599  -0.049 -0.5271 -0.0193  0.1750
 1981SOL     OW 6762   4.453   5.999   4.252 -0.7181  0.3873  0.7198
 1981SOL    HW1 6763   4.520   5.962   4.188  1.9976 -1.5917  4.3427
 1981SOL    HW2 6764   4.454   6.099   4.247  1.6156  0.3787 -0.2639
 1982SOL     OW 6765   3.593   1.797   3.408 -0.1252  0.2048 -0.5880
 1982SOL    HW1 6766   3.611   1.836   3.498  1.0249  1.3204 -1.2841
 1982SOL    HW2 6767   3.678   1.789   3.356 -0.8887  0.5422 -1.9604
 1983SOL     OW 6768   5.659   6.400   2.902 -0.5520  0.1625  1.0963
 1983SOL    HW1 6769   5.714   6.442   2.830 -1.5863 -0.1139  0.1210
 1983SOL    HW2 6770   5.684   6.440   2.990  1.9260 -0.6801  0.8424
 1984SOL     OW 6771   3.664   2.494   6.296 -0.1359  0.3997 -0.6025
 1984SOL    HW1 6772   3.642   2.400   6.318 -1.9855  1.0351  0.5143
 1984SOL    HW2 6773   3.650   2.510   6.198 -0.9998 -0.1858 -0.5811
 1985SOL     OW 6774   1.981   5.508   2.721 -0.1120  0.0864  0.1712
 1985SOL    HW1 6775   2.004   5.429   2.665 -0.4747  1.2741 -1.7587
 1985SOL    HW2 6776   1.901   5.555   2.682  0.5712  1.8537  0.7711
 1986SOL     OW 6777   4.877   5.575   1.872 -0.3960 -0.4179 -0.3655
 1986SOL    HW1 6778   4.781   5.550   1.880  0.1035 -2.6028 -0.4852
 1986SOL    HW2 6779   4.916   5.587   1.963 -0.4138 -1.0858 -0.2691
 1987SOL     OW 6780   4.853   4.536   6.115 -0.4284  0.0509  0.2537
 1987SOL    HW1 6781   4.878   4.591   6.195 -3.8701 -0.4271  1.8651
 1987SOL    HW2 6782   4.870   4.439   6.135 -1.1802 -0.0579  0.4066
 1988SOL     OW 6783   1.430   1.371   0.116  0.1404 -0.0146 -0.1073
 1988SOL    HW1 6784   1.376   1.366   0.200  0.1906 -0.9156 -0.1164
 1988SOL    HW2 6785   1.510   1.312   0.124  0.0053 -0.3157 -0.8934
 1989SOL     OW 6786   3.644   1.758   6.769  0.0780 -0.0346  0.5379
 1989SOL    HW1 6787   3.666   1.798   6.680 -0.2947 -1.4278 -0.2004
 1989SOL    HW2 6788   3.588   1.822   6.821 -0.2732  0.5233 -0.4943
 1990SOL     OW 6789   3.206   6.787   1.694  0.1393  0.2127 -0.0906
 1990SOL    HW1 6790   3.226   6.700   1.740  0.5685  0.5270  0.3259
 1990SOL    HW2 6791   3.149   6.844   1.753 -0.5004  0.0426 -0.5382
 1991SOL     OW 6792   1.472   0.088   2.977  0.2013  0.3075 -0.2245
 1991SOL    HW1 6793   1.421   0.097   2.892 -0.7355 -0.6071  0.2223
 1991SOL    HW2 6794   1.427   0.022   3.037  1.4708  0.0671  0.5197
 1992SOL     OW 6795   0.308   6.528   6.183  0.2330 -0.3892 -0.1499
 1992SOL    HW1 6796   0.299   6.478   6.097  1.9526 -0.6573 -0.1918
 1992SOL    HW2 6797   0.233   6.502   6.244 -1.0399 -0.1624 -1.5471
 1993SOL     OW 6798   4.164   2.802   5.738 -0.0679  0.1039 -0.0071
 1993SOL    HW1 6799   4.081   2.850   5.708 -1.2459 -1.4213  0.6578
 1993SOL    HW2 6800   4.235   2.869   5.760 -0.2527  1.3965 -2.8978
 1994SOL     OW 6801   3.436   0.992   5.081  0.0360  0.0543 -0.1532
 1994SOL    HW1 6802   3.386   0.906   5.078 -1.8689  1.1097 -0.2971
 1994SOL    HW2 6803   3.471   1.007   5.174 -1.4154  0.0694  0.4182
 1995SOL     OW 6804   0.263   3.012   3.111  0.3289  0.1851 -0.0387
 1995SOL    HW1 6805   0.345   3.066   3.131  1.3021 -1.3729  0.3301
 1995SOL    HW2 6806   0.268   2.978   3.017  0.6577 -0.8208  0.3324
 1996SOL     OW 6807   0.518   0.012   5.372  0.2635  0.0739  0.0346
 1996SOL    HW1 6808   0.469  -0.062   5.418  0.9676 -0.0252  0.6028
 1996SOL    HW2 6809   0.558   0.073   5.441 -0.0445  0.8154 -0.4260
 1997SOL     OW 6810   6.499   5.149   1.079  0.2533  0.0382 -0.0992
 1997SOL    HW1 6811   6.516   5.067   1.024 -1.4944 -0.2175 -0.3318
 1997SOL    HW2 6812   6.401   5.171   1.077  0.8330  3.0325 -1.3000
 1998SOL     OW 6813   0.905   4.734   3.829  0.6536 -0.3787 -0.1878
 1998SOL    HW1 6814   0.939   4.641   3.843 -0.5850 -0.5922  1.9453
 1998SOL    HW2 6815   0.918   4.786   3.913 -0.0893  0.8994 -0.8443
 1999SOL     OW 6816   4.967   0.377   5.751 -0.0519  0.4453  0.2589
 1999SOL    HW1 6817   4.992   0.307   5.684 -2.8915 -0.2753 -0.1548
 1999SOL    HW2 6818   4.956   0.465   5.704 -0.2891  0.3227  0.0822
 2000SOL     OW 6819   6.771   5.200   2.791  0.0718 -0.1417 -0.2569
 2000SOL    HW1 6820   6.676   5.171   2.780  0.1985 -0.4891 -0.4957
 2000SOL    HW2 6821   6.831   5.136   2.740  0.3322  0.8166 -1.1944
 2001SOL     OW 6822   5.839   5.414   1.673  0.1440  0.1770 -0.1918
 2001SOL    HW1 6823   5.838   5.373   1.764 -3.2602  1.9417  0.7393
 2001SOL    HW2 6824   5.823   5.343   1.604 -1.6808 -0.6296  0.9969
 2002SOL     OW 6825   1.851   0.034   4.889 -0.0705 -0.0252  0.4274
 2002SOL    HW1 6826   1.821  -0.050   4.845 -1.4145  0.7504 -0.1215
 2002SOL    HW2 6827   1.784   0.062   4.957  0.5473  0.4081  0.8619
 2003SOL     OW 6828   5.042   2.816   4.735  0.0578  0.1136 -0.7285
 2003SOL    HW1 6829   5.053   2.729   4.688  0.4953 -0.0912 -0.2477
 2003SOL    HW2 6830   4.992   2.880   4.676  0.8086 -0.0597 -1.5721
 2004SOL     OW 6831   5.199   4.085   5.508 -0.1693 -0.2912 -0.1234
 2004SOL    HW1 6832   5.201   4.168   5.564  0.5653 -1.1447  1.1607
 2004SOL    HW2 6833   5.290   4.067   5.470 -0.7216  0.4251 -1.8419
 2005SOL     OW 6834   4.957   4.548   6.880  0.2852 -0.4428 -0.0427
 2005SOL    HW1 6835   4.998   4.457   6.873 -0.0093 -0.7678  1.8362
 2005SOL    HW2 6836   4.857   4.539   6.881  0.2378 -0.0111 -0.8272
 2006SOL     OW 6837   2.684   1.143   1.152 -0.2997 -0.1304 -0.2594
 2006SOL    HW1 6838   2.750   1.145   1.227 -1.4879 -1.3520  0.8944
 2006SOL    HW2 6839   2.609   1.080   1.176 -2.1487  1.5776 -1.2632
 2007SOL     OW 6840   5.878   5.016   7.006 -0.2260  0.4511  0.0066
 2007SOL    HW1 6841   5.833   5.093   7.051 -0.6275  1.0345 -1.3965
 2007SOL    HW2 6842   5.810   4.964   6.953  0.5460  0.8543 -1.4335
 2008SOL     OW 6843   2.192   6.654   2.704 -0.7483 -0.7519  0.0341
 2008SOL    HW1 6844   2.236   6.741   2.681  0.9393 -0.8148  2.5378
 2008SOL    HW2 6845   2.096   6.669   2.726 -0.7304  0.3041 -0.5676
 2009SOL     OW 6846   5.074   6.244   5.298 -0.1936  0.6026 -0.2685
 2009SOL    HW1 6847   5.078   6.344   5.300 -0.2883  0.6002  0.5030
 2009SOL    HW2 6848   4.987   6.214   5.336  0.3987  0.1979  0.8096
 2010SOL     OW 6849   5.056   3.846   6.855 -0.1363 -0.5569 -0.1726
 2010SOL    HW1 6850   5.023   3.757   6.822  0.8232 -1.0957  0.2972
 2010SOL    HW2 6851   5.029   3.858   6.950  0.5466 -0.7746  0.0565
 2011SOL     OW 6852   5.020   0.482   1.972 -0.7411 -0.1988 -0.3139
 2011SOL    HW1 6853   4.961   0.522   2.042  0.0766  0.5489 -0.0314
 2011SOL    HW2 6854   5.008   0.383   1.971 -2.3007 -0.0434 -0.5555
 2012SOL     OW 6855   0.725   4.970   4.942 -0.6980  0.3877  0.1258
 2012SOL    HW1 6856   0.722   4.974   4.842 -0.3438 -1.3998  0.0074
 2012SOL    HW2 6857   0.738   5.062   4.978  1.9613  0.7940 -1.5947
 2013SOL     OW 6858   0.893   3.023   3.185 -0.4491  0.3596  0.7749
 2013SOL    HW1 6859   0.844   2.959   3.126  0.4768 -0.1926  0.5964
 2013SOL    HW2 6860   0.872   3.117   3.156  2.1055  0.1322 -2.3091
 2014SOL     OW 6861   2.219   1.826   1.696  0.1111  0.7088 -0.7119
 2014SOL    HW1 6862   2.185   1.784   1.780  2.5476 -0.3872 -0.2197
 2014SOL    HW2 6863   2.164   1.794   1.619 -0.4630 -0.4015  0.1223
 2015SOL     OW 6864   2.590   3.003   2.549 -0.2995 -0.2670 -0.3784
 2015SOL    HW1 6865   2.571   3.068   2.475  0.3249 -1.2539 -1.4237
 2015SOL    HW2 6866   2.638   3.051   2.623 -0.7750  0.6897 -0.6681
 2016SOL     OW 6867   0.259   1.336   3.343 -0.2233  0.1038 -0.4250
 2016SOL    HW1 6868   0.161   1.341   3.327 -0.4112  0.4625  0.7692
 2016SOL    HW2 6869   0.302   1.421   3.310 -0.0830 -0.6306 -2.2746
 2017SOL     OW 6870   6.490   3.836   5.607 -0.1721  0.3078  0.4744
 2017SOL    HW1 6871   6.453   3.767   5.670 -0.7035  0.9140  0.8277
 2017SOL    HW2 6872   6.582   3.861   5.637  0.8869 -1.7181 -0.8041
 2018SOL     OW 6873   4.600   1.124   0.631  0.2154 -0.1940 -0.9767
 2018SOL    HW1 6874   4.556   1.207   0.597  1.7205  0.7916 -0.5878
 2018SOL    HW2 6875   4.622   1.065   0.553  0.2783  0.3382 -1.3705
 2019SOL     OW 6876   4.717   4.310   2.286  0.0596  0.0423  0.3345
 2019SOL    HW1 6877   4.740   4.300   2.383  0.7866 -0.1537  0.1492
 2019SOL    HW2 6878   4.801   4.320   2.233 -0.3902  2.6080 -0.0155
 2020SOL     OW 6879   4.470   6.157   4.875 -0.0661 -0.4181 -0.1370
 2020SOL    HW1 6880   4.505   6.191   4.787 -0.3589 -2.0164 -0.8910
 2020SOL    HW2 6881   4.494   6.060   4.885 -0.7646 -0.4656  1.1810
 2021SOL     OW 6882   6.986   3.942   2.094  0.0134  0.0409 -0.3373
 2021SOL    HW1 6883   6.990   3.853   2.048 -1.7555 -0.8429  1.0901
 2021SOL    HW2 6884   7.075   3.988   2.085  1.0021 -1.9105 -1.0094
 2022SOL     OW 6885   4.371   0.859   3.585 -0.0319  0.3029 -0.1423
 2022SOL    HW1 6886   4.282   0.887   3.620  0.6980  2.2503  0.2813
 2022SOL    HW2 6887   4.361   0.776   3.530 -1.8949 -0.2033  0.8781
 2023SOL     OW 6888   1.472   3.323   0.833  0.1179 -0.3995 -0.0935
 2023SOL    HW1 6889   1.417   3.358   0.908  0.5264 -0.3939  0.2068
 2023SOL    HW2 6890   1.464   3.223   0.828  2.9085 -0.9227  2.3083
 2024SOL     OW 6891   6.724   1.602   5.006 -0.6131 -0.3552 -0.2778
 2024SOL    HW1 6892   6.684   1.694   5.000  0.9113  0.3900  0.3910
 2024SOL    HW2 6893   6.737   1.565   4.914 -1.2689  0.0842 -0.5548
 2025SOL     OW 6894   0.635   1.053   3.778  0.6927 -0.2259  0.2469
 2025SOL    HW1 6895   0.544   1.079   3.747  0.2556 -2.8098 -0.8506
 2025SOL    HW2 6896   0.630   1.018   3.872  0.7397  0.5033  0.5297
 2026SOL     OW 6897   0.546   0.971   4.029  0.2003  0.1241 -0.0327
 2026SOL    HW1 6898   0.581   0.900   4.089  1.0286  0.8324  0.3399
 2026SOL    HW2 6899   0.596   1.056   4.045 -2.7275  1.6942  1.7123
 2027SOL     OW 6900   4.983   5.704   6.100  0.7102 -0.1781  0.0308
 2027SOL    HW1 6901   4.926   5.760   6.040 -0.7337  0.0764  1.5261
 2027SOL    HW2 6902   5.078   5.708   6.070 -0.0592 -1.0165 -2.8940
 2028SOL     OW 6903   2.212   4.290   1.758 -0.0084  0.3821  0.1868
 2028SOL    HW1 6904   2.284   4.277   1.827  1.9285  2.8994 -1.2327
 2028SOL    HW2 6905   2.135   4.339   1.799  1.1287  1.8595  0.6111
 2029SOL     OW 6906   0.635   6.855   1.377  0.1974  0.2315  0.1141
 2029SOL    HW1 6907   0.554   6.802   1.400  0.8030 -0.2369  1.2239
 2029SOL    HW2 6908   0.607   6.944   1.342 -0.8034  0.9946  2.6297
 2030SOL     OW 6909   3.116   2.057   0.759  0.1164 -0.0450 -0.2623
 2030SOL    HW1 6910   3.078   1.981   0.707 -2.4993  0.2450  1.0743
 2030SOL    HW2 6911   3.154   2.023   0.845  0.1865  0.0003 -0.2741
 2031SOL     OW 6912   4.091   6.734   6.160 -0.5752  0.4000 -0.2381
 2031SOL    HW1 6913   4.104   6.647   6.113 -1.1471  0.3368 -0.2886
 2031SOL    HW2 6914   4.172   6.754   6.216 -0.2854  0.0168 -0.5115
 2032SOL     OW 6915   5.713   0.928   5.695 -0.2361  0.1300  0.5315
 2032SOL    HW1 6916   5.638   0.991   5.676 -0.5998 -0.7657 -1.2128
 2032SOL    HW2 6917   5.686   0.864   5.767 -1.7681 -1.1306 -1.0633
 2033SOL     OW 6918   5.661   5.953   1.295  0.4325 -0.1671  0.2222
 2033SOL    HW1 6919   5.663   5.857   1.267 -0.6013 -0.2965  0.5366
 2033SOL    HW2 6920   5.646   5.958   1.394 -0.5240  0.3096  0.0669
 2034SOL     OW 6921   4.705   5.629   0.213 -0.3360 -0.4942  0.5345
 2034SOL    HW1 6922   4.626   5.686   0.190  0.9735  1.3881  0.5035
 2034SOL    HW2 6923   4.771   5.630   0.138  0.9806  0.2643  1.6550
 2035SOL     OW 6924   3.586   1.060   2.472 -0.0402  0.3539 -0.1256
 2035SOL    HW1 6925   3.611   1.083   2.378 -0.3287 -0.7825 -0.5014
 2035SOL    HW2 6926   3.491   1.030   2.475  0.4297 -1.1937  0.2198
 2036SOL     OW 6927   2.713   3.241   6.670 -0.3315 -0.0485  0.0810
 2036SOL    HW1 6928   2.795   3.233   6.727 -0.0482  0.8065 -0.1898
 2036SOL    HW2 6929   2.668   3.151   6.663  0.1340 -0.3506  0.8878
 2037SOL     OW 6930   0.188   4.011   4.758 -0.0241  0.8782  0.0495
 2037SOL    HW1 6931   0.164   3.958   4.840  2.5126 -1.1289 -0.3505
 2037SOL    HW2 6932   0.235   4.095   4.785  1.1631  0.0346  0.7179
 2038SOL     OW 6933   5.520   4.056   6.121 -0.9716 -0.1159  0.1234
 2038SOL    HW1 6934   5.473   4.062   6.034 -0.3286  2.3667 -0.1405
 2038SOL    HW2 6935   5.603   4.001   6.111 -0.6514  0.5334 -0.9817
 2039SOL     OW 6936   5.234   1.273   6.471  0.3336  0.4227  0.2103
 2039SOL    HW1 6937   5.250   1.372   6.475  2.3186  0.1043  0.7076
 2039SOL    HW2 6938   5.267   1.237   6.385 -0.5634  0.1870 -0.0501
 2040SOL     OW 6939   4.297   0.470   1.378  0.0584  0.6905  0.4234
 2040SOL    HW1 6940   4.200   0.461   1.355  0.2866  0.9759 -0.6727
 2040SOL    HW2 6941   4.344   0.385   1.356  0.1239  0.6698  0.6392
 2041SOL     OW 6942   0.372   2.393   0.488 -0.6245 -0.1827  0.1196
 2041SOL    HW1 6943   0.391   2.358   0.580  1.4406  0.0067 -0.1853
 2041SOL    HW2 6944   0.362   2.316   0.425  0.5564 -0.3052  0.0580
 2042SOL     OW 6945   4.545   2.747   6.613  0.4038  0.1616 -0.1962
 2042SOL    HW1 6946   4.451   2.719   6.627  0.2802  0.3287 -0.6645
 2042SOL    HW2 6947   4.585   2.694   6.538  1.5642 -1.8897  1.7435
 2043SOL     OW 6948   4.640   0.932   0.284  0.1106 -0.8344  0.0874
 2043SOL    HW1 6949   4.680   0.915   0.374  0.9275  3.1164  0.6417
 2043SOL    HW2 6950   4.704   0.987   0.229 -1.9366  0.1435 -1.4223
 2044SOL     OW 6951   6.872   0.996   6.560 -0.4246  0.4795  0.1866
 2044SOL    HW1 6952   6.845   0.956   6.472  0.5666 -0.2239  0.1760
 2044SOL    HW2 6953   6.920   0.927   6.614  0.4094  1.3736  0.6237
 2045SOL     OW 6954   4.771   6.859   0.667  0.0973 -0.1478 -0.2023
 2045SOL    HW1 6955   4.843   6.867   0.598 -0.7494 -1.4555 -1.2902
 2045SOL    HW2 6956   4.684   6.840   0.622 -0.4694 -1.1088  1.2257
 2046SOL     OW 6957   4.732   5.040   4.854  0.0642  0.5784  0.6330
 2046SOL    HW1 6958   4.703   4.986   4.933 -0.6035 -1.0874 -0.6947
 2046SOL    HW2 6959   4.695   5.133   4.862 -0.3734  0.3120  2.0496
 2047SOL     OW 6960   5.872   3.468   4.567 -0.0753  0.2548 -0.6275
 2047SOL    HW1 6961   5.840   3.460   4.473 -1.2199  2.4637 -0.4983
 2047SOL    HW2 6962   5.795   3.495   4.626  0.6800 -0.7850  0.9092
 2048SOL     OW 6963   4.587   5.074   3.861 -0.1948  0.7199 -0.1458
 2048SOL    HW1 6964   4.580   4.982   3.824 -1.4655  1.0977 -0.8988
 2048SOL    HW2 6965   4.671   5.117   3.826  0.2242 -0.0100 -0.0599
 2049SOL     OW 6966   1.096   6.993   3.521  0.9664 -0.3171 -0.1514
 2049SOL    HW1 6967   1.156   7.070   3.543  0.2965  0.3138 -0.5897
 2049SOL    HW2 6968   1.082   6.989   3.422 -2.4996  1.7179  0.1001
 2050SOL     OW 6969   1.435   0.025   4.981 -0.8377  0.1484  0.2524
 2050SOL    HW1 6970   1.511   0.070   5.029 -0.1276 -0.3397 -0.4102
 2050SOL    HW2 6971   1.442   0.042   4.883 -1.9955  0.7061  0.2439
 2051SOL     OW 6972   3.378   4.171   0.106 -0.0958 -0.0037 -0.0109
 2051SOL    HW1 6973   3.469   4.196   0.137  0.7426 -1.3539 -1.2229
 2051SOL    HW2 6974   3.381   4.080   0.064 -2.1531 -0.4050  0.5641
 2052SOL     OW 6975   6.720   3.843   0.336 -0.2027  0.6624  0.3478
 2052SOL    HW1 6976   6.751   3.822   0.429  0.1401 -2.0280 -0.2923
 2052SOL    HW2 6977   6.798   3.867   0.279 -0.3991  2.2371  0.7401
 2053SOL     OW 6978   3.884   3.635   6.910  0.0757  0.0484  0.2526
 2053SOL    HW1 6979   3.973   3.657   6.872  0.1430 -0.0188  0.3686
 2053SOL    HW2 6980   3.894   3.562   6.978 -0.2373 -0.7846 -0.5989
 2054SOL     OW 6981   4.932   0.529   2.379 -0.6647 -0.0063  0.1540
 2054SOL    HW1 6982   4.851   0.581   2.354  0.4240  1.2819 -0.8869
 2054SOL    HW2 6983   4.906   0.436   2.405 -2.5414  0.6493  0.7874
 2055SOL     OW 6984   2.272   3.086   3.429 -0.3529  0.2192 -0.3269
 2055SOL    HW1 6985   2.213   3.112   3.352  0.1105 -0.4284 -0.9046
 2055SOL    HW2 6986   2.233   3.123   3.514 -2.5115 -1.5711 -0.4510
 2056SOL     OW 6987   5.969   6.798   3.051  0.1254  0.3972  0.3431
 2056SOL    HW1 6988   5.914   6.858   3.110 -1.2543  0.3989 -0.8813
 2056SOL    HW2 6989   6.033   6.853   2.997 -0.8741  0.7585 -0.5045
 2057SOL     OW 6990   6.263   4.974   1.361  0.5133 -0.4668  0.2019
 2057SOL    HW1 6991   6.332   4.934   1.421  0.7914 -1.6680 -0.8803
 2057SOL    HW2 6992   6.251   4.916   1.280 -1.9704 -0.4721  0.4972
 2058SOL     OW 6993   4.833   3.522   5.614  0.0818 -0.3299 -0.0792
 2058SOL    HW1 6994   4.807   3.569   5.698 -0.5198  0.4842 -0.7135
 2058SOL    HW2 6995   4.851   3.589   5.542  0.6369 -1.0155 -0.5995
 2059SOL     OW 6996   1.582   2.854   2.370  0.1334 -0.2518 -0.0301
 2059SOL    HW1 6997   1.617   2.793   2.299 -0.2745 -1.6370  0.9188
 2059SOL    HW2 6998   1.489   2.883   2.347  0.7993  1.1229 -1.1386
 2060SOL     OW 6999   1.832   0.186   6.638 -0.4853  0.1761 -0.1798
 2060SOL    HW1 7000   1.856   0.090   6.647 -1.4525  0.1106  2.5630
 2060SOL    HW2 7001   1.915   0.241   6.634  0.1820 -0.5366  2.1602
 2061SOL     OW 7002   3.158   2.837   3.585  0.0587  0.6024  0.1489
 2061SOL    HW1 7003   3.090   2.772   3.554  0.8616  0.1432 -0.6845
 2061SOL    HW2 7004   3.114   2.925   3.605 -0.7303  0.3955 -0.6441
 2062SOL     OW 7005   2.359   1.560   4.361 -0.0867 -0.4872  0.3271
 2062SOL    HW1 7006   2.332   1.489   4.296 -1.0387 -0.1536  0.3415
 2062SOL    HW2 7007   2.348   1.650   4.318 -0.5570 -0.2752  0.8844
 2063SOL     OW 7008   4.289   3.306   2.625  0.2197  0.0100  0.2874
 2063SOL    HW1 7009   4.323   3.213   2.642 -0.7696 -0.5465 -0.6660
 2063SOL    HW2 7010   4.191   3.310   2.642 -0.0129  0.5004 -1.0145
 2064SOL     OW 7011   6.994   6.052   6.376  0.1845  0.2003 -0.0450
 2064SOL    HW1 7012   6.950   5.969   6.342  1.3554 -0.2247 -0.5635
 2064SOL    HW2 7013   7.081   6.066   6.329  0.3095  1.3533  0.5271
 2065SOL     OW 7014   3.629   0.894   3.732  0.5095 -0.1692 -0.3562
 2065SOL    HW1 7015   3.621   0.916   3.635 -1.0457 -1.5099 -0.5716
 2065SOL    HW2 7016   3.589   0.967   3.787 -0.0585 -0.1518 -0.7930
 2066SOL     OW 7017   4.183   5.948   4.273  0.1933 -0.2591 -0.0365
 2066SOL    HW1 7018   4.283   5.949   4.272  0.2274 -1.6206 -0.8730
 2066SOL    HW2 7019   4.148   5.989   4.189  0.0431 -0.2714  0.0181
 2067SOL     OW 7020   2.518   4.085   6.916 -0.1027 -0.6192 -0.5465
 2067SOL    HW1 7021   2.502   4.176   6.878 -0.2539  0.0876  1.1211
 2067SOL    HW2 7022   2.554   4.025   6.845  0.9815  1.0098 -1.4284
 2068SOL     OW 7023   6.128   6.573   2.339  0.0297 -0.0532 -0.8678
 2068SOL    HW1 7024   6.177   6.494   2.302 -0.2590 -0.4471 -0.4215
 2068SOL    HW2 7025   6.187   6.654   2.335 -0.0398 -0.0369 -2.3275
 2069SOL     OW 7026   3.976   3.036   4.321 -0.2642  0.3514 -0.3960
 2069SOL    HW1 7027   3.902   3.020   4.256 -1.0940 -0.5475  0.7148
 2069SOL    HW2 7028   4.049   2.969   4.307  0.3649  1.2128 -1.4660
 2070SOL     OW 7029   5.559   0.619   5.258 -0.3415  0.8047 -0.0795
 2070SOL    HW1 7030   5.509   0.684   5.201 -1.8643  0.0330  0.2991
 2070SOL    HW2 7031   5.621   0.565   5.201 -0.1240  1.5912 -0.6096
 2071SOL     OW 7032   4.280   4.623   5.173 -0.0625 -0.6625  0.5215
 2071SOL    HW1 7033   4.239   4.532   5.166 -1.6203  0.0122  0.5745
 2071SOL    HW2 7034   4.261   4.675   5.089  1.7877 -0.7179 -0.0104
 2072SOL     OW 7035   3.887   4.353   0.135 -0.7509  0.0038 -0.8685
 2072SOL    HW1 7036   3.860   4.284   0.202 -0.9443  0.8703 -0.0155
 2072SOL    HW2 7037   3.832   4.436   0.149  0.2807  0.7466 -1.0730
 2073SOL     OW 7038   0.030   3.423   5.539 -0.7579 -0.0640  0.3114
 2073SOL    HW1 7039   0.082   3.340   5.518 -0.8771 -0.3218  1.0045
 2073SOL    HW2 7040  -0.057   3.421   5.490 -1.8870 -1.6023  2.2490
 2074SOL     OW 7041   3.956   6.352   6.498  0.1041  0.5975 -0.6085
 2074SOL    HW1 7042   3.967   6.389   6.406 -1.3305  0.4723 -0.8425
 2074SOL    HW2 7043   4.029   6.286   6.516 -0.4768 -0.5176 -2.2209
 2075SOL     OW 7044   6.875   5.634   1.727  0.5293  0.5329  0.1703
 2075SOL    HW1 7045   6.877   5.639   1.827  1.3992  0.4007  0.1621
 2075SOL    HW2 7046   6.782   5.614   1.697  0.5085 -0.6816  1.0071
 2076SOL     OW 7047   4.522   3.302   3.484  0.4512 -0.0825  0.4696
 2076SOL    HW1 7048   4.575   3.385   3.463  1.0310 -0.6536 -0.3607
 2076SOL    HW2 7049   4.426   3.318   3.461  0.9023 -0.3458 -1.8061
 2077SOL     OW 7050   3.160   1.235   4.376 -0.6910 -0.0930  0.9504
 2077SOL    HW1 7051   3.090   1.166   4.357 -0.6475 -0.2153  1.2273
 2077SOL    HW2 7052   3.142   1.317   4.322  0.7883 -1.2911 -1.4847
 2078SOL     OW 7053   2.623   3.669   3.761  0.6927  0.2940 -0.2992
 2078SOL    HW1 7054   2.717   3.648   3.735  1.6191  1.0244  2.0672
 2078SOL    HW2 7055   2.600   3.762   3.733  1.0919  0.5157  0.0983
 2079SOL     OW 7056   2.713   1.543   1.865  0.3362 -0.0160 -0.0168
 2079SOL    HW1 7057   2.767   1.627   1.867 -0.5324  0.6142 -1.0664
 2079SOL    HW2 7058   2.618   1.565   1.886  0.4848 -1.1500  2.0926
 2080SOL     OW 7059   0.021   2.358   6.968  0.5959  0.4382 -0.1499
 2080SOL    HW1 7060  -0.014   2.332   6.877 -0.9670  0.8933  0.2895
 2080SOL    HW2 7061  -0.015   2.448   6.993  0.5642  0.0687  1.1600
 2081SOL     OW 7062   1.041   4.018   4.622 -0.3959  0.2966 -0.1175
 2081SOL    HW1 7063   1.077   3.925   4.611 -1.4249 -0.1635  0.2426
 2081SOL    HW2 7064   0.943   4.018   4.602 -0.6578  1.0566  1.0401
 2082SOL     OW 7065   0.921   5.925   0.095 -0.4191  0.1616  0.4299
 2082SOL    HW1 7066   0.861   5.943   0.173 -2.5645  0.9228 -1.2879
 2082SOL    HW2 7067   0.869   5.880   0.022  1.6198 -0.9589 -0.4241
 2083SOL     OW 7068   6.201   4.141   6.143 -0.1701 -0.1444 -0.3938
 2083SOL    HW1 7069   6.179   4.191   6.227  0.4727  0.0630 -0.3477
 2083SOL    HW2 7070   6.284   4.179   6.103  0.6562 -1.5452 -0.0546
 2084SOL     OW 7071   2.378   2.511   2.843  0.1042  0.4986 -0.5463
 2084SOL    HW1 7072   2.376   2.593   2.785 -0.2058  1.1382  0.3418
 2084SOL    HW2 7073   2.342   2.534   2.933  1.1933 -0.3190  0.1187
 2085SOL     OW 7074   5.121   2.398   5.045  0.6344 -0.0222 -0.1891
 2085SOL    HW1 7075   5.125   2.491   5.009 -1.3617 -0.4337 -1.6626
 2085SOL    HW2 7076   5.167   2.335   4.982  0.3556 -0.2802 -0.1418
 2086SOL     OW 7077   5.488   3.389   5.504 -0.5713 -0.5769 -0.3221
 2086SOL    HW1 7078   5.494   3.364   5.600 -0.4507  2.2488  0.4794
 2086SOL    HW2 7079   5.399   3.429   5.484  0.1958  1.0043 -0.7668
 2087SOL     OW 7080   0.802   0.655   5.926 -0.3308  0.2935  0.2244
 2087SOL    HW1 7081   0.730   0.595   5.892  2.7471 -3.3142 -0.6566
 2087SOL    HW2 7082   0.814   0.640   6.024 -0.3471  0.3315  0.2320
 2088SOL     OW 7083   1.068   1.086   5.744 -0.1636  0.2112 -0.2429
 2088SOL    HW1 7084   1.160   1.105   5.778 -0.2579 -1.6196  1.1252
 2088SOL    HW2 7085   1.017   1.036   5.813 -1.7703  0.0517 -1.5042
 2089SOL     OW 7086   5.642   4.851   5.903  0.7076  0.3888 -0.1037
 2089SOL    HW1 7087   5.588   4.913   5.960  0.5736  0.8459 -0.7261
 2089SOL    HW2 7088   5.685   4.782   5.961  0.6384  0.8990  0.5665
 2090SOL     OW 7089   4.601   0.615   0.306 -0.2541 -0.3380 -1.0076
 2090SOL    HW1 7090   4.608   0.581   0.399  0.0918  1.0236 -0.5006
 2090SOL    HW2 7091   4.627   0.712   0.304 -1.9272  0.1315 -2.2079
 2091SOL     OW 7092   3.353   6.448   5.829 -0.0778 -0.5322  0.1419
 2091SOL    HW1 7093   3.399   6.493   5.752  0.6756  2.5494  2.1916
 2091SOL    HW2 7094   3.421   6.397   5.882  0.1269  0.1819  0.5937
 2092SOL     OW 7095   4.733   1.873   1.230 -0.1580  0.0654 -0.5077
 2092SOL    HW1 7096   4.753   1.919   1.316 -0.4421  2.1023 -1.4670
 2092SOL    HW2 7097   4.689   1.785   1.248  0.8610 -0.1094  1.4134
 2093SOL     OW 7098   2.506   2.073   6.146 -0.1448 -0.1724  0.1494
 2093SOL    HW1 7099   2.420   2.034   6.114  1.5011 -2.5696 -1.8945
 2093SOL    HW2 7100   2.542   2.134   6.076  0.3891 -0.1920  0.3984
 2094SOL     OW 7101   6.571   6.678   4.440  0.4945  0.0698  0.4118
 2094SOL    HW1 7102   6.577   6.778   4.441  1.8393 -0.0006  1.0789
 2094SOL    HW2 7103   6.590   6.644   4.348  1.7032  0.3521  0.5548
 2095SOL     OW 7104   4.406   5.697   1.913 -0.7802  0.8656  0.7790
 2095SOL    HW1 7105   4.334   5.633   1.887  1.0511  0.0514 -3.1023
 2095SOL    HW2 7106   4.366   5.777   1.958 -4.3078  0.8383 -1.8463
 2096SOL     OW 7107   4.694   6.724   2.931  0.4396  0.4866 -0.0057
 2096SOL    HW1 7108   4.599   6.702   2.951  0.4024 -0.4475 -1.1090
 2096SOL    HW2 7109   4.701   6.760   2.838  1.2844 -0.3614 -0.2940
 2097SOL     OW 7110   3.109   0.078   3.392 -0.2404 -0.0588 -0.0718
 2097SOL    HW1 7111   3.168   0.025   3.330 -0.6162 -0.2317 -0.2858
 2097SOL    HW2 7112   3.091   0.167   3.351 -0.2854 -0.0761 -0.0919
 2098SOL     OW 7113   0.442   5.286   4.542  0.4079 -0.2353  0.0937
 2098SOL    HW1 7114   0.343   5.281   4.556 -0.1289  3.3026 -1.3943
 2098SOL    HW2 7115   0.484   5.199   4.568 -2.8947 -1.4428  1.9572
 2099SOL     OW 7116   0.200   3.028   2.822 -0.0318  0.7514 -0.3209
 2099SOL    HW1 7117   0.212   3.123   2.851 -2.8272  1.3220 -0.7364
 2099SOL    HW2 7118   0.265   3.007   2.749  1.7374  1.7915  0.8943
 2100SOL     OW 7119   6.251   4.177   6.436  0.4321 -0.1613  0.0374
 2100SOL    HW1 7120   6.250   4.268   6.394 -1.0802  0.3178  1.0183
 2100SOL    HW2 7121   6.212   4.183   6.528  1.0350 -1.6803  0.4151
 2101SOL     OW 7122   2.399   0.235   3.444  0.1609 -0.7743  1.0129
 2101SOL    HW1 7123   2.376   0.317   3.496  1.0416 -0.6275  1.1891
 2101SOL    HW2 7124   2.431   0.164   3.507  0.0693 -1.0201  0.7856
 2102SOL     OW 7125   0.447   4.589   3.941  0.9222  0.0054 -0.4102
 2102SOL    HW1 7126   0.402   4.520   3.884  0.7225  0.0578 -0.3130
 2102SOL    HW2 7127   0.389   4.670   3.949  0.9673  0.0193 -0.1731
 2103SOL     OW 7128   3.898   5.057   1.236  0.1019  0.4243 -0.4018
 2103SOL    HW1 7129   3.808   5.099   1.250 -0.0014  0.0909 -0.0433
 2103SOL    HW2 7130   3.966   5.129   1.223 -0.3613  0.6621 -1.6530
 2104SOL     OW 7131   0.572   5.646   0.940 -0.9048  0.3908 -0.0996
 2104SOL    HW1 7132   0.590   5.621   1.035 -0.4981  2.8407  0.5374
 2104SOL    HW2 7133   0.644   5.609   0.881 -0.4724 -0.1051  0.7269
 2105SOL     OW 7134   0.471   3.708   0.728  0.5429  0.2952  0.1066
 2105SOL    HW1 7135   0.536   3.706   0.804  0.2158 -0.2139  0.3786
 2105SOL    HW2 7136   0.396   3.645   0.746  0.1625  0.5960 -0.3750
 2106SOL     OW 7137   0.113   4.606   3.935 -0.0753 -0.2987  0.2596
 2106SOL    HW1 7138   0.017   4.626   3.914  0.0191 -0.3393 -0.2376
 2106SOL    HW2 7139   0.120   4.518   3.981 -0.3650  0.1542  1.2155
 2107SOL     OW 7140   6.768   2.002   5.800 -0.4817  0.9301  0.3408
 2107SOL    HW1 7141   6.744   1.906   5.783 -1.5701  1.4744 -1.4308
 2107SOL    HW2 7142   6.866   2.014   5.788 -0.5283  0.2879 -0.8283
 2108SOL     OW 7143   2.261   3.722   0.964 -0.0664  0.4052 -0.5358
 2108SOL    HW1 7144   2.210   3.805   0.988 -0.9235 -0.3525  0.3530
 2108SOL    HW2 7145   2.252   3.705   0.866 -1.1245  0.5596 -0.4811
 2109SOL     OW 7146   3.080   3.762   0.470  0.3399  0.2453  0.0301
 2109SOL    HW1 7147   3.013   3.713   0.525  1.2166 -0.9115  0.0998
 2109SOL    HW2 7148   3.080   3.726   0.377  1.1623 -0.0973  0.1462
 2110SOL     OW 7149   1.305   5.021   0.390 -0.1330  0.7194  0.4598
 2110SOL    HW1 7150   1.258   5.092   0.339 -0.5414 -1.6998 -2.8796
 2110SOL    HW2 7151   1.240   4.973   0.449 -0.5229  1.0964  0.3366
 2111SOL     OW 7152   4.154   5.763   6.857 -0.1660 -0.0846  0.1355
 2111SOL    HW1 7153   4.202   5.752   6.771  1.8474 -1.6255  1.3735
 2111SOL    HW2 7154   4.102   5.848   6.856  1.9500  1.2859 -1.5912
 2112SOL     OW 7155   2.905   2.228   0.733  0.0732  0.2427 -0.2525
 2112SOL    HW1 7156   2.926   2.325   0.746  1.4825  0.1547 -1.5342
 2112SOL    HW2 7157   2.988   2.174   0.748 -0.5164 -0.6789 -0.2834
 2113SOL     OW 7158   6.523   4.067   1.115  0.2896 -0.5423  0.5216
 2113SOL    HW1 7159   6.620   4.046   1.130  0.1394 -1.8775 -0.2198
 2113SOL    HW2 7160   6.513   4.121   1.031  0.2094 -2.5488 -0.8079
 2114SOL     OW 7161   0.628   2.978   0.430 -0.2501  0.0547 -0.2904
 2114SOL    HW1 7162   0.720   3.005   0.459 -0.8377  1.5670  0.3013
 2114SOL    HW2 7163   0.576   2.947   0.510 -0.4758 -0.0858 -0.4907
 2115SOL     OW 7164   5.894   0.482   3.482  0.7380  0.3299  0.0827
 2115SOL    HW1 7165   5.926   0.387   3.476 -1.7777 -0.6684  0.8490
 2115SOL    HW2 7166   5.970   0.542   3.505  2.3313 -1.5670  0.0090
 2116SOL     OW 7167   1.711   0.040   2.773  0.2574 -0.4442 -0.0071
 2116SOL    HW1 7168   1.645   0.082   2.835  0.1106  2.6219 -2.0593
 2116SOL    HW2 7169   1.803   0.045   2.813 -0.0882 -0.2196  0.7683
 2117SOL     OW 7170   5.177   4.497   4.302  0.3382 -0.2990  0.1992
 2117SOL    HW1 7171   5.228   4.570   4.256  1.7431  0.4515  2.7738
 2117SOL    HW2 7172   5.242   4.431   4.340 -0.6681 -0.1730  2.2201
 2118SOL     OW 7173   1.943   2.911   0.423  0.2281 -0.3070  0.2564
 2118SOL    HW1 7174   1.894   2.932   0.339 -0.0642  0.4061  0.5977
 2118SOL    HW2 7175   2.016   2.977   0.438  0.8989 -0.9859  0.0847
 2119SOL     OW 7176   0.443   5.573   2.919 -0.1748 -0.6462  0.4267
 2119SOL    HW1 7177   0.408   5.491   2.965  0.2608 -0.5987  0.8487
 2119SOL    HW2 7178   0.543   5.571   2.920 -0.0693  1.0166  2.5420
 2120SOL     OW 7179   3.273   2.925   1.143 -0.7691  0.4958  0.3101
 2120SOL    HW1 7180   3.200   2.993   1.142 -1.1909  0.0440 -0.3053
 2120SOL    HW2 7181   3.336   2.942   1.067 -0.9360  0.1445  0.0866
 2121SOL     OW 7182   6.086   5.662   0.104 -0.3113 -0.3167 -0.0419
 2121SOL    HW1 7183   6.035   5.690   0.185  0.1242 -0.2802  0.2234
 2121SOL    HW2 7184   6.137   5.578   0.124  2.2978  1.3251  0.7403
 2122SOL     OW 7185   3.837   6.690   1.180 -0.1904 -0.6144  0.6110
 2122SOL    HW1 7186   3.857   6.603   1.225  0.4800 -2.3299 -2.6964
 2122SOL    HW2 7187   3.739   6.706   1.180 -0.6113 -2.7451 -0.8497
 2123SOL     OW 7188   6.246   2.475   1.894 -0.2602 -0.0782  0.4926
 2123SOL    HW1 7189   6.265   2.526   1.978 -1.1646  1.6613 -0.3183
 2123SOL    HW2 7190   6.147   2.474   1.878 -0.0463  0.1908 -0.9124
 2124SOL     OW 7191   1.659   0.923   6.800 -0.2872  0.3459  0.2771
 2124SOL    HW1 7192   1.603   0.952   6.878 -0.3469  1.3335 -0.1203
 2124SOL    HW2 7193   1.754   0.951   6.815 -0.1121 -0.2997  0.4164
 2125SOL     OW 7194   0.058   0.751   3.884  0.1389 -0.2808  0.1578
 2125SOL    HW1 7195   0.029   0.785   3.795  0.9753 -0.7707 -0.3192
 2125SOL    HW2 7196   0.156   0.765   3.895  0.1599 -0.8100  0.7361
 2126SOL     OW 7197   5.921   4.137   5.402  0.6092  0.3004  0.2666
 2126SOL    HW1 7198   5.949   4.062   5.461 -0.3097  1.8251  2.8155
 2126SOL    HW2 7199   5.823   4.154   5.413  0.7869  1.9015 -0.1242
 2127SOL     OW 7200   1.290   4.356   5.388  0.2944 -0.4813  0.9080
 2127SOL    HW1 7201   1.292   4.291   5.464  0.5655 -2.8612 -1.0248
 2127SOL    HW2 7202   1.376   4.352   5.338  0.5861  1.9273  1.0823
 2128SOL     OW 7203   3.182   5.408   6.502  0.1878  0.3066 -0.3460
 2128SOL    HW1 7204   3.208   5.353   6.422  1.1695  0.2578 -0.0019
 2128SOL    HW2 7205   3.110   5.360   6.552  0.0133  0.0318 -0.8510
 2129SOL     OW 7206   1.793   4.204   5.999  0.6888 -0.1603 -0.2675
 2129SOL    HW1 7207   1.800   4.206   6.099  0.9849  2.0998 -0.2908
 2129SOL    HW2 7208   1.727   4.133   5.972 -0.1766 -0.1259  1.5786
 2130SOL     OW 7209   4.085   0.888   0.359 -0.5596 -0.8175 -0.1371
 2130SOL    HW1 7210   4.152   0.960   0.342 -0.4304 -1.0974 -0.8672
 2130SOL    HW2 7211   4.127   0.813   0.410 -0.1916 -1.1636 -0.9188
 2131SOL     OW 7212   6.477   5.489   2.751 -0.1907  0.6101 -0.2921
 2131SOL    HW1 7213   6.441   5.576   2.716 -0.2338  0.3055 -1.0329
 2131SOL    HW2 7214   6.555   5.507   2.811 -1.3664  1.2625  1.0851
 2132SOL     OW 7215   3.294   1.034   6.412  0.0623 -0.7512 -0.1341
 2132SOL    HW1 7216   3.247   1.059   6.497 -0.2509 -1.6188 -0.0513
 2132SOL    HW2 7217   3.391   1.022   6.431  0.4915  1.6317 -0.4114
 2133SOL     OW 7218   0.082   1.499   4.772 -0.7225  0.4899 -0.1578
 2133SOL    HW1 7219   0.005   1.532   4.717 -0.3101  1.2395 -0.3084
 2133SOL    HW2 7220   0.051   1.480   4.865 -1.2910 -0.1540 -0.4661
 2134SOL     OW 7221   5.119   3.677   3.213 -0.4466  0.7916 -0.1871
 2134SOL    HW1 7222   5.085   3.632   3.296  0.2108  1.1651  0.2906
 2134SOL    HW2 7223   5.214   3.651   3.197 -0.5521  0.7616 -0.8019
 2135SOL     OW 7224   1.116   3.592   0.487 -0.0925 -0.2328  0.3940
 2135SOL    HW1 7225   1.083   3.685   0.498  0.0640 -0.1901  0.5209
 2135SOL    HW2 7226   1.046   3.527   0.517  0.3648 -0.1303  1.7910
 2136SOL     OW 7227   5.705   6.728   2.455  0.1753  0.1664  0.1664
 2136SOL    HW1 7228   5.676   6.793   2.525  0.3162 -0.6070  0.9675
 2136SOL    HW2 7229   5.747   6.777   2.379  1.9062  0.9002  1.5436
 2137SOL     OW 7230   5.584   2.375   6.769 -0.4040  0.9934 -0.0268
 2137SOL    HW1 7231   5.488   2.353   6.751 -0.9188  2.0928  1.2730
 2137SOL    HW2 7232   5.635   2.374   6.683 -1.2142 -1.2442 -0.5438
 2138SOL     OW 7233   5.357   3.290   1.470  0.5597  0.4702  0.3025
 2138SOL    HW1 7234   5.382   3.237   1.551  1.0150  0.1780 -0.0201
 2138SOL    HW2 7235   5.271   3.255   1.433 -0.7160  1.9035  1.7970
 2139SOL     OW 7236   3.831   0.962   4.091 -0.6551 -0.0069  0.0719
 2139SOL    HW1 7237   3.847   1.017   4.009  2.4989 -2.2383 -1.0082
 2139SOL    HW2 7238   3.847   1.019   4.172  2.7564  0.7463 -0.9863
 2140SOL     OW 7239   6.357   0.266   1.346 -0.2887 -0.1252 -0.3347
 2140SOL    HW1 7240   6.362   0.171   1.314 -0.9643  0.2012 -1.4487
 2140SOL    HW2 7241   6.422   0.280   1.420 -0.0449 -1.4110 -0.2926
 2141SOL     OW 7242   2.993   1.803   6.453  0.5534  0.1362  0.0276
 2141SOL    HW1 7243   2.936   1.748   6.513 -0.0881  1.4612  0.6503
 2141SOL    HW2 7244   3.063   1.850   6.507 -0.0824  1.4081 -0.2476
 2142SOL     OW 7245   4.954   0.718   6.759  0.1023  0.3328 -0.1711
 2142SOL    HW1 7246   5.053   0.711   6.758  0.0672 -0.2796  0.0793
 2142SOL    HW2 7247   4.915   0.652   6.694 -0.1773 -0.2935  0.6144
 2143SOL     OW 7248   5.774   4.265   4.612 -0.4629  0.3459  0.3957
 2143SOL    HW1 7249   5.709   4.331   4.649  1.1055  1.8467  0.7007
 2143SOL    HW2 7250   5.819   4.217   4.688 -0.2884  0.2789  0.2534
 2144SOL     OW 7251   0.766   6.278   3.905 -0.1204  0.0028 -0.3336
 2144SOL    HW1 7252   0.791   6.318   3.817  1.3345  0.2774  0.1672
 2144SOL    HW2 7253   0.709   6.197   3.890 -0.1784  0.2394 -1.5005
 2145SOL     OW 7254   4.995   6.655   5.426 -0.4179  0.1816 -0.0024
 2145SOL    HW1 7255   4.997   6.707   5.512 -1.1866 -1.4116  1.0148
 2145SOL    HW2 7256   5.023   6.561   5.443 -0.3729 -0.1091 -1.5549
 2146SOL     OW 7257   6.213   0.889   4.552 -0.5076  0.0886  0.3007
 2146SOL    HW1 7258   6.129   0.938   4.529 -2.7750 -3.7679 -0.5406
 2146SOL    HW2 7259   6.272   0.883   4.472 -0.2375  1.2211  0.3925
 2147SOL     OW 7260   4.733   0.498   5.479  0.1449 -0.1124  0.0904
 2147SOL    HW1 7261   4.690   0.433   5.542  0.6693 -1.4029 -0.8614
 2147SOL    HW2 7262   4.812   0.456   5.436  1.0406  1.4779  0.1193
 2148SOL     OW 7263   6.106   6.772   1.534  0.2915 -0.2337  0.3187
 2148SOL    HW1 7264   6.125   6.800   1.440 -0.5662  1.4772  0.6049
 2148SOL    HW2 7265   6.071   6.850   1.585  0.2509 -1.2616  1.9338
 2149SOL     OW 7266   6.459   5.832   6.826 -0.3997  0.1769  0.6078
 2149SOL    HW1 7267   6.496   5.909   6.878 -0.1652  0.3737  0.1604
 2149SOL    HW2 7268   6.522   5.809   6.751 -1.0294  0.2995  0.0369
 2150SOL     OW 7269   5.175   4.396   4.770  0.5020  0.0809 -0.4506
 2150SOL    HW1 7270   5.161   4.459   4.694 -0.2539 -1.5869 -1.7503
 2150SOL    HW2 7271   5.212   4.310   4.736  0.1444 -0.7095  1.0600
 2151SOL     OW 7272   6.615   2.362   0.213 -0.3573 -0.2223  0.0013
 2151SOL    HW1 7273   6.677   2.291   0.244  0.0339  0.0165 -0.2198
 2151SOL    HW2 7274   6.521   2.331   0.223 -0.1796 -1.0791 -0.8113
 2152SOL     OW 7275   5.543   6.500   0.248 -0.4748  0.4769  0.0643
 2152SOL    HW1 7276   5.494   6.586   0.236  0.2396  0.8193 -0.4985
 2152SOL    HW2 7277   5.538   6.472   0.344 -1.9533  0.3739 -0.0217
 2153SOL     OW 7278   4.624   5.603   6.353  0.1610  0.5669  0.1717
 2153SOL    HW1 7279   4.623   5.633   6.258 -1.8490 -0.3517 -0.1605
 2153SOL    HW2 7280   4.594   5.507   6.358  1.7972  0.0798  1.5912
 2154SOL     OW 7281   5.364   1.448   4.229 -0.3632 -0.5768  0.0977
 2154SOL    HW1 7282   5.297   1.374   4.239 -1.3663  0.5046  1.9191
 2154SOL    HW2 7283   5.355   1.511   4.306  1.6768  0.4905 -0.4865
 2155SOL     OW 7284   4.451   5.283   6.671  0.3344 -0.0733  0.1567
 2155SOL    HW1 7285   4.383   5.356   6.661 -0.6373 -1.0442 -0.5484
 2155SOL    HW2 7286   4.405   5.199   6.699  1.2723 -0.7309 -0.2343
 2156SOL     OW 7287   6.001   2.596   3.086  0.2702 -0.1653  0.1096
 2156SOL    HW1 7288   6.075   2.610   3.020  2.9270  1.1113  3.0979
 2156SOL    HW2 7289   6.008   2.504   3.125 -0.1905 -0.2862 -0.0852
 2157SOL     OW 7290   2.270   2.437   1.459 -0.2635 -0.1935 -0.2953
 2157SOL    HW1 7291   2.266   2.375   1.537 -1.2602  1.1957  0.8174
 2157SOL    HW2 7292   2.191   2.499   1.461  0.9560  1.4757 -1.0223
 2158SOL     OW 7293   2.781   6.219   2.272  0.2589 -0.6408  0.1788
 2158SOL    HW1 7294   2.760   6.253   2.363  0.3012 -0.3691  0.0895
 2158SOL    HW2 7295   2.879   6.201   2.264  0.8586  2.5462 -0.8539
 2159SOL     OW 7296   6.534   5.143   3.041 -0.0813 -0.3248 -0.4590
 2159SOL    HW1 7297   6.446   5.183   3.014  0.3708  1.4439  0.4715
 2159SOL    HW2 7298   6.577   5.102   2.961 -0.9250  0.4832 -1.3684
 2160SOL     OW 7299   2.022   6.399   3.422 -0.2883 -0.2233 -0.0444
 2160SOL    HW1 7300   2.110   6.354   3.406 -0.9461 -1.4200 -0.4287
 2160SOL    HW2 7301   1.972   6.350   3.493  0.1388  1.6123  1.6087
 2161SOL     OW 7302   3.774   3.155   0.335  0.5064 -0.1057 -0.1190
 2161SOL    HW1 7303   3.789   3.057   0.349  0.8785  0.1028  1.0634
 2161SOL    HW2 7304   3.851   3.207   0.374 -0.5859  0.7312  0.9813
 2162SOL     OW 7305   1.478   0.634   5.961  0.1674  0.1946  0.2239
 2162SOL    HW1 7306   1.455   0.686   6.044 -0.1957 -1.3123  1.1067
 2162SOL    HW2 7307   1.401   0.639   5.897 -0.6746 -0.8173  1.1175
 2163SOL     OW 7308   1.713   6.110   5.193  0.2404  0.0431 -0.4511
 2163SOL    HW1 7309   1.757   6.030   5.153 -0.7396  0.0198 -1.5408
 2163SOL    HW2 7310   1.749   6.193   5.149  0.1434  0.1022 -0.4208
 2164SOL     OW 7311   6.296   5.026   3.898  0.0378 -0.2418  0.4132
 2164SOL    HW1 7312   6.357   5.049   3.822  0.7174 -0.0159  1.0185
 2164SOL    HW2 7313   6.348   4.980   3.970 -0.2684  0.8773  1.3896
 2165SOL     OW 7314   5.987   3.220   3.973  0.2923  0.3804 -0.4154
 2165SOL    HW1 7315   6.030   3.181   4.054 -0.1507 -1.4573 -1.0232
 2165SOL    HW2 7316   5.951   3.311   3.996  1.4487  0.5274  1.0213
 2166SOL     OW 7317   4.149   5.433   6.136  0.4528  0.2370 -0.3705
 2166SOL    HW1 7318   4.215   5.404   6.206  1.5382 -2.2043 -2.2819
 2166SOL    HW2 7319   4.088   5.357   6.114  1.1405  0.3891 -3.1398
 2167SOL     OW 7320   5.767   5.996   4.173 -0.2837  0.4163  0.1448
 2167SOL    HW1 7321   5.776   6.085   4.217 -2.7677 -0.3811  2.5083
 2167SOL    HW2 7322   5.684   5.994   4.118  0.9729  0.2264 -1.8700
 2168SOL     OW 7323   4.385   0.663   5.719 -0.1177 -0.1343 -0.1965
 2168SOL    HW1 7324   4.411   0.694   5.628  1.1448 -1.3946 -0.2969
 2168SOL    HW2 7325   4.294   0.622   5.716 -0.7510  1.2458 -0.5454
 2169SOL     OW 7326   0.076   4.924   4.158  0.1631 -0.3160 -0.0125
 2169SOL    HW1 7327   0.100   4.860   4.231  0.4240 -0.8023 -0.5204
 2169SOL    HW2 7328   0.115   4.893   4.072  1.1286  1.0153 -0.1059
 2170SOL     OW 7329   6.982   5.428   4.870  0.0551  0.0361  0.5207
 2170SOL    HW1 7330   7.046   5.355   4.894 -0.6418 -1.0656 -0.8649
 2170SOL    HW2 7331   6.993   5.452   4.774 -1.1535  0.3492  0.4483
 2171SOL     OW 7332   5.990   1.971   2.245 -0.1713  0.0837 -0.2560
 2171SOL    HW1 7333   6.050   1.892   2.260  0.0699  0.5175  1.1725
 2171SOL    HW2 7334   5.993   1.997   2.148  1.5756 -0.2030 -0.3144
 2172SOL     OW 7335   5.302   6.676   3.864 -0.3395  0.6309 -0.1310
 2172SOL    HW1 7336   5.286   6.759   3.916 -0.0422  0.4489  0.2651
 2172SOL    HW2 7337   5.303   6.697   3.766 -1.0441  0.9552 -0.0781
 2173SOL     OW 7338   1.527   3.319   4.201  0.5615  0.1735 -0.3854
 2173SOL    HW1 7339   1.433   3.320   4.233  0.4719  0.6105 -0.6517
 2173SOL    HW2 7340   1.576   3.397   4.238  0.3447  0.9228 -1.6098
 2174SOL     OW 7341   3.377   5.778   0.464  0.2206  0.2085  0.2260
 2174SOL    HW1 7342   3.449   5.728   0.512  0.6348  2.6629  2.3533
 2174SOL    HW2 7343   3.400   5.875   0.460 -2.3980  0.9035 -0.0741
 2175SOL     OW 7344   0.088   0.151   5.359  0.0234  0.0274  0.5925
 2175SOL    HW1 7345   0.175   0.153   5.310 -0.6594  1.2968 -0.6399
 2175SOL    HW2 7346   0.069   0.057   5.388  0.7603 -0.6684 -1.0260
 2176SOL     OW 7347   5.872   0.493   0.783  0.2883 -0.0508 -0.5156
 2176SOL    HW1 7348   5.969   0.515   0.797  0.1181  0.1023  0.5475
 2176SOL    HW2 7349   5.817   0.573   0.807 -0.0254  0.5208 -2.9470
 2177SOL     OW 7350   4.718   5.145   6.256 -0.3017  0.1327  0.1590
 2177SOL    HW1 7351   4.655   5.173   6.183  0.3211 -0.9576 -0.8282
 2177SOL    HW2 7352   4.689   5.186   6.343 -0.1603  2.7586 -0.9447
 2178SOL     OW 7353   3.555   2.675   1.686  0.3826 -0.2790  0.5648
 2178SOL    HW1 7354   3.608   2.758   1.702  3.6383 -2.1083  0.0679
 2178SOL    HW2 7355   3.461   2.689   1.718  1.1389  3.0744  1.7258
 2179SOL     OW 7356   2.630   4.855   2.794 -0.4513 -0.5574 -0.0312
 2179SOL    HW1 7357   2.555   4.818   2.849 -2.0740  2.7889  0.3197
 2179SOL    HW2 7358   2.709   4.873   2.852 -1.1871  0.4564  0.6835
 2180SOL     OW 7359   0.176   2.867   1.526  0.6151 -0.1269  0.1987
 2180SOL    HW1 7360   0.111   2.906   1.462 -0.0539 -0.2664  0.7719
 2180SOL    HW2 7361   0.177   2.767   1.518  0.0374 -0.1945  0.8467
 2181SOL     OW 7362   2.269   5.614   0.080  0.0909 -0.0382  0.1651
 2181SOL    HW1 7363   2.315   5.527   0.095  0.8082  0.4596  0.9511
 2181SOL    HW2 7364   2.337   5.687   0.073 -0.5559  0.6597  0.9394
 2182SOL     OW 7365   0.698   0.486   3.953 -0.2275  0.0937 -0.0171
 2182SOL    HW1 7366   0.729   0.492   3.858  2.0433  0.6072  0.6689
 2182SOL    HW2 7367   0.700   0.390   3.982 -1.2956 -0.1110 -0.5684
 2183SOL     OW 7368   0.068   4.270   0.126  0.1824 -0.4954 -0.5313
 2183SOL    HW1 7369   0.028   4.182   0.152 -1.1078  0.0218 -0.7232
 2183SOL    HW2 7370  -0.004   4.333   0.096  1.2394  0.1768 -1.7305
 2184SOL     OW 7371   4.541   3.126   5.110  0.4442 -0.1075  0.7004
 2184SOL    HW1 7372   4.553   3.038   5.155  0.7987 -0.3220  0.1876
 2184SOL    HW2 7373   4.469   3.119   5.040 -0.2134  0.2629  1.3197
 2185SOL     OW 7374   0.487   3.944   1.573 -0.6601  0.0220 -0.9134
 2185SOL    HW1 7375   0.441   3.919   1.488 -0.8023 -1.8485 -0.3193
 2185SOL    HW2 7376   0.509   3.862   1.625  0.1015  1.0869  0.5246
 2186SOL     OW 7377   3.584   3.137   6.731  0.3894  0.5523  0.4010
 2186SOL    HW1 7378   3.631   3.067   6.786  1.9958  0.4744 -1.0069
 2186SOL    HW2 7379   3.613   3.228   6.761  2.1565  0.4982 -0.9773
 2187SOL     OW 7380   0.936   0.587   1.605  0.1836 -0.1043 -0.1600
 2187SOL    HW1 7381   1.022   0.631   1.577  1.1931 -0.6297  1.9418
 2187SOL    HW2 7382   0.955   0.493   1.634 -1.4029 -0.8105 -1.2596
 2188SOL     OW 7383   4.358   0.971   0.262  0.5136  0.1881 -0.0934
 2188SOL    HW1 7384   4.319   0.916   0.188  1.0279 -1.4389  0.8085
 2188SOL    HW2 7385   4.455   0.948   0.273  1.2445  2.6219 -0.9069
 2189SOL     OW 7386   3.014   5.458   2.326  0.4621 -0.2057  0.1916
 2189SOL    HW1 7387   2.967   5.515   2.259  0.3770  0.7053  0.9998
 2189SOL    HW2 7388   3.102   5.429   2.289  0.9405  1.2409  0.1042
 2190SOL     OW 7389   3.468   5.606   5.599 -0.0526  0.7718  0.5585
 2190SOL    HW1 7390   3.549   5.548   5.607 -0.1174  0.7432  1.0158
 2190SOL    HW2 7391   3.495   5.702   5.596 -0.0073  0.7660  0.7360
 2191SOL     OW 7392   5.926   2.477   2.443  0.4784 -0.1251  0.1473
 2191SOL    HW1 7393   5.829   2.493   2.463 -0.0415 -1.6545 -0.9474
 2191SOL    HW2 7394   5.936   2.391   2.394  2.4685 -0.1940  0.5953
 2192SOL     OW 7395   3.031   1.212   6.498  0.7122 -0.2636 -0.0809
 2192SOL    HW1 7396   3.112   1.192   6.554  0.9583 -0.6219 -0.5563
 2192SOL    HW2 7397   3.024   1.144   6.425  0.8619  0.6815 -0.9854
 2193SOL     OW 7398   5.451   1.054   1.097 -0.1045  0.0892  0.2614
 2193SOL    HW1 7399   5.520   1.126   1.090 -1.1498  1.0169 -1.2412
 2193SOL    HW2 7400   5.433   1.016   1.007 -0.3929 -1.2774  0.8754
 2194SOL     OW 7401   1.903   5.053   0.569  0.5302  0.1524 -0.2859
 2194SOL    HW1 7402   1.890   5.055   0.470 -2.3948  2.4751  0.0045
 2194SOL    HW2 7403   1.819   5.023   0.613  1.5323 -0.0811  1.5735
 2195SOL     OW 7404   2.510   2.200   2.316 -0.0693  0.6503 -0.5020
 2195SOL    HW1 7405   2.528   2.294   2.288  0.8052  0.6210 -0.0653
 2195SOL    HW2 7406   2.554   2.137   2.252 -0.2900  0.5385 -0.5478
 2196SOL     OW 7407   6.841   0.848   0.557  0.1919 -0.0778 -0.3010
 2196SOL    HW1 7408   6.826   0.833   0.655 -0.6768  2.2320 -0.0051
 2196SOL    HW2 7409   6.796   0.775   0.505 -0.1252 -0.8401  0.9770
 2197SOL     OW 7410   5.604   6.148   0.902 -0.4684 -0.2856 -0.0160
 2197SOL    HW1 7411   5.698   6.171   0.877  0.0585 -1.5079  0.7687
 2197SOL    HW2 7412   5.558   6.230   0.937  1.0586 -0.1553  1.8545
 2198SOL     OW 7413   6.298   4.089   5.603  0.8121  0.1377 -0.2806
 2198SOL    HW1 7414   6.389   4.060   5.634  1.0030  0.5512 -0.4488
 2198SOL    HW2 7415   6.229   4.028   5.642  1.1288  0.0358  0.1370
 2199SOL     OW 7416   5.445   1.407   3.678  0.7651  0.4859 -0.2023
 2199SOL    HW1 7417   5.425   1.362   3.765 -2.8853  0.2788 -0.9472
 2199SOL    HW2 7418   5.439   1.506   3.689 -1.8127  0.4377 -0.4757
 2200SOL     OW 7419   1.552   3.752   5.458  0.2542  0.2909  0.2971
 2200SOL    HW1 7420   1.497   3.668   5.449  0.7652 -0.1800  1.3567
 2200SOL    HW2 7421   1.644   3.728   5.488  0.3369  1.2584  0.8572
 2201SOL     OW 7422   5.306   5.758   3.432  0.2341  0.3879 -0.1436
 2201SOL    HW1 7423   5.350   5.813   3.362 -0.1349 -0.6686 -1.2451
 2201SOL    HW2 7424   5.220   5.800   3.459 -0.0273  0.3768 -0.9491
 2202SOL     OW 7425   3.564   2.858   4.341  0.1648 -0.3193  0.3942
 2202SOL    HW1 7426   3.609   2.830   4.256  1.8300  1.1414  0.7376
 2202SOL    HW2 7427   3.626   2.839   4.418 -0.6165 -0.0344  1.1018
 2203SOL     OW 7428   0.920   6.667   4.324  0.3469  0.4995  0.4569
 2203SOL    HW1 7429   0.961   6.750   4.363  0.4925  0.5201  0.2601
 2203SOL    HW2 7430   0.932   6.591   4.387 -0.3290  0.7680  0.9140
 2204SOL     OW 7431   3.940   6.365   6.205  0.0876 -0.3454 -0.1253
 2204SOL    HW1 7432   3.957   6.411   6.118 -3.1865 -0.5138 -0.9730
 2204SOL    HW2 7433   3.881   6.286   6.191 -0.3133 -0.5453  2.2190
 2205SOL     OW 7434   4.449   0.407   1.898 -0.3158  0.0996  0.3531
 2205SOL    HW1 7435   4.407   0.336   1.955  1.6225  1.1879  3.4176
 2205SOL    HW2 7436   4.496   0.364   1.821  1.1511 -2.0545  2.3173
 2206SOL     OW 7437   6.107   5.882   1.287  0.1348  0.5366 -0.4473
 2206SOL    HW1 7438   6.133   5.976   1.262 -3.7654  1.6874 -0.8800
 2206SOL    HW2 7439   6.046   5.845   1.217  2.2090 -2.7807 -0.7241
 2207SOL     OW 7440   6.273   4.599   0.843 -0.0875 -0.5907 -0.3675
 2207SOL    HW1 7441   6.226   4.511   0.839 -0.1998 -0.5216 -0.7451
 2207SOL    HW2 7442   6.332   4.601   0.923 -2.4333  0.1254  1.4467
 2208SOL     OW 7443   2.217   4.422   6.444  0.1977  0.5677 -0.2182
 2208SOL    HW1 7444   2.307   4.390   6.472  1.0004 -0.0100 -3.0912
 2208SOL    HW2 7445   2.208   4.520   6.461  2.2280  1.0763 -1.7378
 2209SOL     OW 7446   5.185   4.988   4.142  0.2765  0.3615  0.4358
 2209SOL    HW1 7447   5.113   4.974   4.210  0.2054  1.5661  0.6135
 2209SOL    HW2 7448   5.150   5.043   4.066  0.5465 -0.4223 -0.2762
 2210SOL     OW 7449   2.846   0.982   5.152 -0.0280 -0.2011 -0.0833
 2210SOL    HW1 7450   2.849   1.041   5.232 -1.7562  1.4889 -1.1661
 2210SOL    HW2 7451   2.758   0.992   5.106  0.2251 -2.4685 -1.2246
 2211SOL     OW 7452   4.129   3.283   4.268  0.3072 -0.0628 -0.3004
 2211SOL    HW1 7453   4.156   3.338   4.347  0.5184  0.4012 -0.6854
 2211SOL    HW2 7454   4.114   3.188   4.296  2.1429 -0.3225 -0.0253
 2212SOL     OW 7455   3.326   6.861   6.585 -0.4090  0.2587  0.6355
 2212SOL    HW1 7456   3.362   6.912   6.507 -0.2949 -0.9045 -0.0920
 2212SOL    HW2 7457   3.236   6.897   6.610  0.1098  1.4955  0.8224
 2213SOL     OW 7458   6.843   1.459   1.500 -0.5829  0.0857  0.2184
 2213SOL    HW1 7459   6.861   1.368   1.539 -0.0629 -0.8960 -2.1179
 2213SOL    HW2 7460   6.813   1.521   1.572  0.6720 -1.4691  2.1849
 2214SOL     OW 7461   5.881   1.085   6.133 -0.4124 -0.0407  0.2369
 2214SOL    HW1 7462   5.800   1.116   6.083 -0.9102  0.3013  1.2171
 2214SOL    HW2 7463   5.856   1.006   6.190 -0.1004  0.1927  0.6984
 2215SOL     OW 7464   6.152   0.710   6.343 -0.0358  0.0737 -0.7236
 2215SOL    HW1 7465   6.071   0.750   6.386 -0.0182 -1.0362  0.3851
 2215SOL    HW2 7466   6.234   0.757   6.375 -0.1292  0.1772 -0.6351
 2216SOL     OW 7467   6.788   0.976   4.745 -0.1568 -0.0586 -0.1155
 2216SOL    HW1 7468   6.739   1.004   4.662 -1.2691 -2.0515 -0.1918
 2216SOL    HW2 7469   6.884   0.961   4.723 -0.0219  1.3637 -0.5747
 2217SOL     OW 7470   2.081   6.613   5.283  0.5299  0.0454  0.1189
 2217SOL    HW1 7471   1.982   6.604   5.294  0.6481 -0.6687  0.6357
 2217SOL    HW2 7472   2.111   6.699   5.324  0.2386 -0.1415  0.7390
 2218SOL     OW 7473   2.354   6.922   0.602 -0.1445 -0.3383  0.3945
 2218SOL    HW1 7474   2.401   6.985   0.662 -0.3822  0.3658 -0.1424
 2218SOL    HW2 7475   2.420   6.877   0.542 -0.0410 -0.1477  0.3648
 2219SOL     OW 7476   6.768   1.292   5.641  0.4673 -0.0334 -0.1693
 2219SOL    HW1 7477   6.713   1.333   5.569 -0.5452  1.0250  1.1491
 2219SOL    HW2 7478   6.776   1.356   5.717  3.6409 -0.0917 -0.3153
 2220SOL     OW 7479   6.618   6.218   2.249  0.0186  0.3074  0.0654
 2220SOL    HW1 7480   6.554   6.272   2.304  0.8508  0.5009  0.8431
 2220SOL    HW2 7481   6.593   6.121   2.255 -0.0603  0.3549  0.5481
 2221SOL     OW 7482   3.759   6.383   1.994  0.0202  0.2385 -0.0382
 2221SOL    HW1 7483   3.743   6.292   2.032  0.9284  0.6224  1.3739
 2221SOL    HW2 7484   3.858   6.400   1.991 -0.1598  1.5059  0.5557
 2222SOL     OW 7485   2.691   3.198   3.603  0.4047  0.2753  0.0718
 2222SOL    HW1 7486   2.669   3.162   3.513  0.0969  1.2583 -0.2543
 2222SOL    HW2 7487   2.699   3.122   3.668  0.2732 -0.4108 -0.6963
 2223SOL     OW 7488   6.822   1.361   0.243  0.4644 -0.3882 -0.3725
 2223SOL    HW1 7489   6.798   1.427   0.315  0.0313 -1.8835  0.9155
 2223SOL    HW2 7490   6.918   1.336   0.252  0.6664  0.1538 -0.9504
 2224SOL     OW 7491   6.622   3.678   3.670 -0.4670  0.6201 -0.0615
 2224SOL    HW1 7492   6.559   3.636   3.736  0.8276 -0.4738  0.5235
 2224SOL    HW2 7493   6.569   3.726   3.600 -2.0309 -1.4050 -0.3717
 2225SOL     OW 7494   6.970   0.037   4.226 -0.1449  0.1018  0.1419
 2225SOL    HW1 7495   6.913  -0.011   4.159  0.3142 -0.6119  0.2674
 2225SOL    HW2 7496   6.990  -0.024   4.303 -0.3878  0.8547  0.8016
 2226SOL     OW 7497   1.120   0.434   2.747  0.4104  0.1943 -0.2329
 2226SOL    HW1 7498   1.159   0.523   2.769 -0.2005  0.4331 -0.0753
 2226SOL    HW2 7499   1.094   0.432   2.650  0.0782  0.3256 -0.1491
 2227SOL     OW 7500   6.134   0.630   4.589  0.4517  0.2758  0.0029
 2227SOL    HW1 7501   6.142   0.729   4.588 -1.4280  0.4713  0.8261
 2227SOL    HW2 7502   6.080   0.600   4.510  0.7519 -0.0639 -0.0767
 2228SOL     OW 7503   6.680   6.983   0.864 -0.2671 -0.6074 -0.3858
 2228SOL    HW1 7504   6.590   6.970   0.823  0.4927  0.4197 -2.5072
 2228SOL    HW2 7505   6.737   6.903   0.847 -0.3815 -0.7661 -0.0550
 2229SOL     OW 7506   2.662   2.488   6.019  0.1573 -0.4705  0.5165
 2229SOL    HW1 7507   2.749   2.530   6.045  0.2203  0.6863 -1.3594
 2229SOL    HW2 7508   2.586   2.543   6.053  0.2194  0.2210 -0.4328
 2230SOL     OW 7509   3.256   6.339   4.824  0.0167  0.5267 -0.2592
 2230SOL    HW1 7510   3.249   6.439   4.822  0.6348  0.5652 -0.7650
 2230SOL    HW2 7511   3.278   6.309   4.917 -3.7815  0.5776  0.8083
 2231SOL     OW 7512   6.175   0.872   2.407  0.0997 -0.3966  0.6109
 2231SOL    HW1 7513   6.075   0.875   2.406  0.0439 -0.3984 -2.5773
 2231SOL    HW2 7514   6.210   0.897   2.317  2.9778 -1.1901  1.4130
 2232SOL     OW 7515   4.241   3.972   0.927  0.1869 -0.5011  0.4159
 2232SOL    HW1 7516   4.208   3.881   0.951 -0.7668 -0.4049 -0.4613
 2232SOL    HW2 7517   4.204   3.999   0.838  0.0778  0.9315  0.8596
 2233SOL     OW 7518   6.194   5.732   3.769  0.6967  0.4960  0.7396
 2233SOL    HW1 7519   6.189   5.832   3.772 -0.2612  0.4862 -0.0366
 2233SOL    HW2 7520   6.240   5.703   3.685  0.6867  0.2800  0.8079
 2234SOL     OW 7521   1.456   0.346   3.055 -0.1732  0.3743  0.1481
 2234SOL    HW1 7522   1.467   0.251   3.025 -1.8225 -0.1844  1.1705
 2234SOL    HW2 7523   1.428   0.402   2.977 -1.8227 -0.5370  0.0278
 2235SOL     OW 7524   6.006   1.725   2.524  0.4847  0.5823 -0.2323
 2235SOL    HW1 7525   5.935   1.753   2.460 -0.1219 -1.1501 -0.3724
 2235SOL    HW2 7526   6.068   1.801   2.541 -0.5015  1.6637 -1.3107
 2236SOL     OW 7527   1.671   2.259   0.877 -0.1269  0.0100  0.6016
 2236SOL    HW1 7528   1.671   2.258   0.977 -2.5107 -0.5399  0.6469
 2236SOL    HW2 7529   1.629   2.344   0.845 -0.9464 -0.5660  0.1101
 2237SOL     OW 7530   1.822   6.074   2.001  0.1154 -0.4041  0.0624
 2237SOL    HW1 7531   1.839   6.172   2.000  1.5801 -0.6353  0.5445
 2237SOL    HW2 7532   1.798   6.043   1.909  1.0713  0.1788 -0.4049
 2238SOL     OW 7533   5.382   0.822   2.124  0.0430 -0.6196 -0.3973
 2238SOL    HW1 7534   5.307   0.882   2.152  1.6197  2.1048 -1.5546
 2238SOL    HW2 7535   5.348   0.755   2.059 -1.3780  0.5966 -0.9694
 2239SOL     OW 7536   6.413   3.794   1.124  0.2106  0.2848  0.0042
 2239SOL    HW1 7537   6.408   3.754   1.033 -0.7836  0.1144  0.1212
 2239SOL    HW2 7538   6.475   3.872   1.123  1.3239 -0.5794 -0.4789
 2240SOL     OW 7539   6.571   4.227   0.895 -0.0021 -0.3279 -0.1505
 2240SOL    HW1 7540   6.614   4.203   0.808  0.9643 -1.2193  0.5467
 2240SOL    HW2 7541   6.625   4.298   0.941  0.3885 -1.0022  0.4483
 2241SOL     OW 7542   6.218   3.074   1.770  0.1348  0.0607 -0.0682
 2241SOL    HW1 7543   6.132   3.107   1.809 -0.6986 -0.7567 -1.1429
 2241SOL    HW2 7544   6.227   3.107   1.676  0.3424 -0.9471 -0.4174
 2242SOL     OW 7545   3.502   1.805   5.119 -0.2278  0.1087  0.3539
 2242SOL    HW1 7546   3.584   1.859   5.139 -0.2805  1.1745 -1.8188
 2242SOL    HW2 7547   3.421   1.864   5.125 -0.7163 -0.6339  1.3110
 2243SOL     OW 7548   6.103   2.022   0.261 -0.1123  0.3934 -0.0980
 2243SOL    HW1 7549   6.006   2.039   0.279  0.1203  2.8201 -0.8299
 2243SOL    HW2 7550   6.127   2.059   0.172  1.7233  0.7449  0.5079
 2244SOL     OW 7551   6.344   3.700   5.906  0.1291 -0.4122 -0.6590
 2244SOL    HW1 7552   6.321   3.649   5.989 -2.4098  0.4006 -0.7947
 2244SOL    HW2 7553   6.288   3.783   5.901  1.3484  0.3629 -2.4247
 2245SOL     OW 7554   5.749   0.927   0.207 -0.0733 -0.0300 -0.1175
 2245SOL    HW1 7555   5.707   0.886   0.288  1.1133  0.0959  0.5922
 2245SOL    HW2 7556   5.825   0.986   0.236 -0.2296  0.7713 -1.2680
 2246SOL     OW 7557   4.250   6.280   5.899  0.2420 -0.0212 -0.0037
 2246SOL    HW1 7558   4.282   6.227   5.977 -0.3020  1.3276  1.1803
 2246SOL    HW2 7559   4.155   6.308   5.915 -0.8501 -1.9855 -2.3731
 2247SOL     OW 7560   0.515   0.639   0.493  0.8282 -0.1001  0.1786
 2247SOL    HW1 7561   0.420   0.652   0.521  0.3313  1.6996 -2.0671
 2247SOL    HW2 7562   0.521   0.558   0.434  0.7417 -0.3340  0.4873
 2248SOL     OW 7563   1.774   3.048   0.914  0.5031  0.0986  0.0736
 2248SOL    HW1 7564   1.812   3.140   0.909  2.2013 -0.5119  0.7983
 2248SOL    HW2 7565   1.812   2.992   0.840  1.1661 -0.5599  0.8805
 2249SOL     OW 7566   0.623   6.717   5.435 -0.0202 -0.0804 -0.6488
 2249SOL    HW1 7567   0.715   6.758   5.433  0.3107 -0.7759 -0.0254
 2249SOL    HW2 7568   0.631   6.618   5.427 -0.7713 -0.0909 -1.3504
 2250SOL     OW 7569   6.847   1.287   6.192  0.2128  0.0972 -0.4875
 2250SOL    HW1 7570   6.791   1.220   6.142 -0.0485 -0.1540  0.1340
 2250SOL    HW2 7571   6.906   1.335   6.128  0.9962 -1.2908 -0.8621
 2251SOL     OW 7572   5.332   5.110   0.034 -0.2121  0.3690 -0.1959
 2251SOL    HW1 7573   5.298   5.025   0.075  1.0970 -0.7476 -1.3228
 2251SOL    HW2 7574   5.274   5.186   0.062 -0.8333 -0.7322  1.6467
 2252SOL     OW 7575   3.703   2.905   1.017 -0.2456 -0.0684 -0.2375
 2252SOL    HW1 7576   3.617   2.939   0.979 -0.8240 -1.0348  0.1542
 2252SOL    HW2 7577   3.759   2.864   0.945 -0.0625  0.6306 -0.5069
 2253SOL     OW 7578   3.072   0.252   5.947 -0.3550 -0.0273  0.1754
 2253SOL    HW1 7579   3.137   0.318   5.987 -0.9833 -0.2877  1.7080
 2253SOL    HW2 7580   3.091   0.161   5.984  0.2268 -0.6671 -1.5950
 2254SOL     OW 7581   4.953   6.422   0.192  0.6498  0.6451  0.8732
 2254SOL    HW1 7582   5.052   6.430   0.196  0.6157  1.3270  0.4812
 2254SOL    HW2 7583   4.912   6.512   0.182  0.0026  0.3453  0.7288
 2255SOL     OW 7584   4.113   2.161   4.213  0.6348  0.5484  0.1781
 2255SOL    HW1 7585   4.143   2.164   4.308  0.9475  0.0329  0.1025
 2255SOL    HW2 7586   4.049   2.085   4.201  1.2564  0.0683 -0.1977
 2256SOL     OW 7587   1.111   2.641   3.588 -0.1364  0.2032 -0.2380
 2256SOL    HW1 7588   1.143   2.551   3.559 -1.7168  0.5839 -3.7084
 2256SOL    HW2 7589   1.021   2.632   3.632  0.5850 -0.0809  1.1860
 2257SOL     OW 7590   1.442   1.261   2.437  0.2080  0.4352 -0.1144
 2257SOL    HW1 7591   1.372   1.266   2.508  2.5645  0.9866  2.3297
 2257SOL    HW2 7592   1.441   1.345   2.383 -0.3317  0.8672  0.5598
 2258SOL     OW 7593   1.158   2.416   4.552 -0.4533  0.2434  0.5232
 2258SOL    HW1 7594   1.203   2.490   4.502 -2.0790  1.3202  0.5774
 2258SOL    HW2 7595   1.087   2.455   4.612 -2.4621 -1.4443 -0.6361
 2259SOL     OW 7596   0.149   3.337   0.057  0.2296  0.1240 -0.6133
 2259SOL    HW1 7597   0.233   3.361   0.106  0.3301 -1.0091 -0.2317
 2259SOL    HW2 7598   0.139   3.398  -0.022  1.5005  0.1615 -0.7653
 2260SOL     OW 7599   5.065   3.333   4.115 -0.0416  0.0680 -0.3644
 2260SOL    HW1 7600   5.043   3.343   4.018  0.3683  1.8324 -0.3176
 2260SOL    HW2 7601   5.089   3.423   4.152  1.2740 -0.8167  1.0217
 2261SOL     OW 7602   6.584   3.340   6.349 -0.4354  0.4195 -0.6668
 2261SOL    HW1 7603   6.578   3.262   6.286  1.9256 -0.2305 -0.2222
 2261SOL    HW2 7604   6.621   3.419   6.301  1.2809 -0.0504 -0.2184
 2262SOL     OW 7605   1.236   0.679   5.807 -0.8613 -0.5470 -0.4386
 2262SOL    HW1 7606   1.189   0.710   5.724  1.6621 -1.9886 -2.5217
 2262SOL    HW2 7607   1.211   0.584   5.826  1.7858 -1.7380 -2.2352
 2263SOL     OW 7608   1.465   0.853   5.042 -0.4124  0.2863  0.4068
 2263SOL    HW1 7609   1.556   0.896   5.039  0.4582 -1.4114  0.7357
 2263SOL    HW2 7610   1.432   0.840   4.949  0.6530 -0.9202  0.1593
 2264SOL     OW 7611   5.575   1.474   5.073  0.1658 -0.0897  0.1409
 2264SOL    HW1 7612   5.494   1.533   5.069  0.7011  0.6159 -0.8350
 2264SOL    HW2 7613   5.592   1.447   5.168 -1.2375 -0.3006  0.3514
 2265SOL     OW 7614   5.204   0.326   0.770  0.0428  0.3717  0.4140
 2265SOL    HW1 7615   5.122   0.297   0.819 -0.8594  1.0147 -0.6667
 2265SOL    HW2 7616   5.267   0.372   0.834 -1.4092  1.8182  0.8703
 2266SOL     OW 7617   2.197   0.911   1.773  0.2058  0.4486  0.2061
 2266SOL    HW1 7618   2.173   0.836   1.835  0.7418  0.3706  0.3228
 2266SOL    HW2 7619   2.286   0.892   1.731  1.3578  2.0010  1.7958
 2267SOL     OW 7620   2.242   0.070   0.071 -0.5500  0.2317 -0.0431
 2267SOL    HW1 7621   2.163   0.114   0.115  0.1016  0.7851  0.5990
 2267SOL    HW2 7622   2.295   0.021   0.140 -0.1605  0.1091 -0.4264
 2268SOL     OW 7623   6.843   4.610   6.580 -0.1931 -0.3668 -0.4121
 2268SOL    HW1 7624   6.806   4.537   6.638  0.7014 -1.1019 -0.7469
 2268SOL    HW2 7625   6.779   4.687   6.579 -2.0145 -1.8015 -1.3976
 2269SOL     OW 7626   3.225   3.122   3.138 -0.0756 -0.4759 -0.3913
 2269SOL    HW1 7627   3.255   3.033   3.173  0.7352 -0.1219 -0.1650
 2269SOL    HW2 7628   3.125   3.127   3.140 -0.1472 -1.5155 -0.7360
 2270SOL     OW 7629   3.624   1.078   1.187 -0.6374  0.3842  0.0351
 2270SOL    HW1 7630   3.707   1.028   1.211 -0.0207  0.4299 -1.7547
 2270SOL    HW2 7631   3.546   1.041   1.237  0.6425  1.2715  2.8619
 2271SOL     OW 7632   1.882   2.375   4.353 -0.8247 -0.0906  0.0647
 2271SOL    HW1 7633   1.818   2.446   4.325  1.2588  0.9183 -2.6577
 2271SOL    HW2 7634   1.863   2.291   4.303 -0.9948 -0.2948  0.4667
 2272SOL     OW 7635   0.315   0.523   2.659  0.2193 -0.7008 -0.1459
 2272SOL    HW1 7636   0.360   0.433   2.654  1.1161 -0.1991 -2.7203
 2272SOL    HW2 7637   0.359   0.578   2.730  0.6159 -1.8007  0.4808
 2273SOL     OW 7638   2.192   3.286   0.244 -0.2159  0.1903  0.4508
 2273SOL    HW1 7639   2.203   3.266   0.341  2.8186  0.8785  0.3649
 2273SOL    HW2 7640   2.200   3.385   0.229  0.3184  0.0160 -0.5563
 2274SOL     OW 7641   4.754   4.709   6.520 -0.6608 -0.1554 -0.6529
 2274SOL    HW1 7642   4.774   4.703   6.422 -3.0661  0.0898 -1.2203
 2274SOL    HW2 7643   4.838   4.696   6.572  0.6904 -0.2308 -2.7427
 2275SOL     OW 7644   4.683   0.630   2.353  0.1520  0.6727  0.0373
 2275SOL    HW1 7645   4.642   0.550   2.309 -1.8926  2.1030 -0.8738
 2275SOL    HW2 7646   4.627   0.658   2.431 -0.8776  2.7685 -1.3269
 2276SOL     OW 7647   2.673   2.773   4.091  0.0454  0.1156  0.2454
 2276SOL    HW1 7648   2.626   2.848   4.139  0.9872  1.3907 -0.7501
 2276SOL    HW2 7649   2.772   2.784   4.103  0.1699 -1.6997  1.1136
 2277SOL     OW 7650   0.752   2.493   2.966  0.0721  0.4004 -0.8038
 2277SOL    HW1 7651   0.682   2.423   2.982  0.0073  0.6927  0.2468
 2277SOL    HW2 7652   0.729   2.544   2.883  0.2768 -1.0009 -1.7357
 2278SOL     OW 7653   3.870   3.201   4.515 -0.1733 -0.3402  0.2129
 2278SOL    HW1 7654   3.865   3.299   4.498 -0.0989 -0.1821  1.0672
 2278SOL    HW2 7655   3.883   3.152   4.428 -0.1358  0.4060 -0.2077
 2279SOL     OW 7656   2.600   5.234   6.737  0.0162  0.2494  0.1359
 2279SOL    HW1 7657   2.640   5.275   6.655  1.1589 -0.7307  0.1760
 2279SOL    HW2 7658   2.516   5.185   6.712  0.8039 -0.7548 -0.6202
 2280SOL     OW 7659   2.157   2.779   3.386 -0.1975 -0.2938 -0.2263
 2280SOL    HW1 7660   2.231   2.759   3.320  1.0483 -0.0370  1.0441
 2280SOL    HW2 7661   2.122   2.871   3.369  0.4318 -0.0533 -0.2441
 2281SOL     OW 7662   5.678   0.329   4.122  0.0988  0.1458 -0.4489
 2281SOL    HW1 7663   5.587   0.297   4.094 -0.5524  1.1305  0.4719
 2281SOL    HW2 7664   5.748   0.269   4.084 -0.8241  0.3978 -2.6613
 2282SOL     OW 7665   6.142   6.074   5.453  0.0903 -0.0460  0.4864
 2282SOL    HW1 7666   6.055   6.123   5.466  0.0306  0.3741 -1.2946
 2282SOL    HW2 7667   6.213   6.140   5.427  0.6224 -0.5715  0.6114
 2283SOL     OW 7668   1.122   5.030   3.086  0.5439  0.0926  0.3654
 2283SOL    HW1 7669   1.145   5.116   3.132  1.6733  0.5033 -0.9145
 2283SOL    HW2 7670   1.054   4.981   3.140  1.8834  0.4953  2.5448
 2284SOL     OW 7671   3.186   4.280   5.716 -0.3990  0.8083 -0.0123
 2284SOL    HW1 7672   3.155   4.358   5.770  0.7623  1.4467 -0.2182
 2284SOL    HW2 7673   3.251   4.312   5.646 -0.5476 -0.2355 -0.6528
 2285SOL     OW 7674   6.421   6.837   4.118  0.1224  0.3379  0.1978
 2285SOL    HW1 7675   6.496   6.809   4.058 -0.8846 -0.2794 -0.8265
 2285SOL    HW2 7676   6.378   6.755   4.157 -0.2896  0.6608  0.4348
 2286SOL     OW 7677   3.303   5.636   4.821  0.1760 -0.3668 -0.5992
 2286SOL    HW1 7678   3.203   5.645   4.813  0.0044 -2.4314 -1.4678
 2286SOL    HW2 7679   3.325   5.563   4.886  1.1308 -0.0956 -0.6044
 2287SOL     OW 7680   1.071   0.854   3.394  0.0625 -0.3233  0.3968
 2287SOL    HW1 7681   1.015   0.773   3.409 -0.4117  0.3024  2.3311
 2287SOL    HW2 7682   1.124   0.843   3.311  0.2794 -2.7591  0.7787
 2288SOL     OW 7683   4.682   0.477   6.933  0.2468  0.1772  0.7450
 2288SOL    HW1 7684   4.747   0.422   6.881  0.0617 -0.5635  1.2784
 2288SOL    HW2 7685   4.601   0.494   6.877  1.2219  1.8048 -0.2206
 2289SOL     OW 7686   0.879   2.256   5.776  0.3709  0.4964 -0.6789
 2289SOL    HW1 7687   0.940   2.298   5.842  1.1999  0.5451 -1.4635
 2289SOL    HW2 7688   0.798   2.221   5.823  1.2595 -0.0874  0.4473
 2290SOL     OW 7689   4.113   5.614   3.696  0.0730 -0.5055 -0.3358
 2290SOL    HW1 7690   4.051   5.691   3.679  0.5464 -0.4888 -2.2450
 2290SOL    HW2 7691   4.208   5.645   3.687  0.3319 -0.9332  0.7184
 2291SOL     OW 7692   2.336   4.359   4.533  0.4255  0.0176  0.0774
 2291SOL    HW1 7693   2.413   4.423   4.535 -1.8657  2.9835  0.0567
 2291SOL    HW2 7694   2.310   4.335   4.627  1.4311 -1.1500  0.0812
 2292SOL     OW 7695   4.952   1.500   1.342 -0.3387 -0.4066  0.3619
 2292SOL    HW1 7696   5.017   1.575   1.330  0.6551 -1.1393  1.1041
 2292SOL    HW2 7697   4.944   1.478   1.439 -0.2821 -1.5515  0.1265
 2293SOL     OW 7698   4.728   5.008   3.340 -0.1772  0.8641 -0.8452
 2293SOL    HW1 7699   4.827   5.017   3.339 -0.2044  1.6178  0.5898
 2293SOL    HW2 7700   4.687   5.096   3.365 -1.1710  0.3460 -0.5973
 2294SOL     OW 7701   4.179   0.669   2.827  0.2050  0.3885 -0.4331
 2294SOL    HW1 7702   4.248   0.619   2.879 -0.0239 -0.3085 -0.7890
 2294SOL    HW2 7703   4.089   0.631   2.846 -0.2027  1.8033  0.6481
 2295SOL     OW 7704   3.353   2.974   0.687 -0.0613 -0.3220  0.3420
 2295SOL    HW1 7705   3.329   2.900   0.625 -1.1765  0.3671 -0.0638
 2295SOL    HW2 7706   3.367   3.058   0.634 -1.8714  0.4844  1.0736
 2296SOL     OW 7707   5.557   4.958   3.794  0.5009  0.0567 -0.2374
 2296SOL    HW1 7708   5.568   5.046   3.747  0.7428 -0.0918 -0.4563
 2296SOL    HW2 7709   5.641   4.937   3.845 -0.8632  1.9120  3.1600
 2297SOL     OW 7710   6.555   4.546   6.185  0.1039 -0.4389  0.1493
 2297SOL    HW1 7711   6.462   4.559   6.220 -0.4884 -4.2094  0.3992
 2297SOL    HW2 7712   6.620   4.595   6.242 -1.5299 -0.1084  1.7882
 2298SOL     OW 7713   0.715   0.486   0.095 -0.0381 -0.0298  0.8652
 2298SOL    HW1 7714   0.658   0.522   0.021  0.7298  2.9976  1.6239
 2298SOL    HW2 7715   0.810   0.481   0.065 -0.0955 -1.4256  0.8367
 2299SOL     OW 7716   0.074   4.544   2.900  0.1528 -0.1090  0.2313
 2299SOL    HW1 7717   0.027   4.627   2.871  0.7406  0.2739  0.3653
 2299SOL    HW2 7718   0.022   4.500   2.973  0.1288  0.4265  0.5243
 2300SOL     OW 7719   6.507   3.093   0.278 -0.2099  0.2939 -0.1922
 2300SOL    HW1 7720   6.572   3.142   0.220  1.2286  0.9345  1.8691
 2300SOL    HW2 7721   6.499   3.140   0.366 -0.3482 -2.0449  1.1052
 2301SOL     OW 7722   6.287   0.931   2.150  0.6701 -0.4678  0.0047
 2301SOL    HW1 7723   6.331   0.927   2.060  0.6717 -1.5648  0.0414
 2301SOL    HW2 7724   6.248   1.022   2.163 -0.1774 -0.5799 -1.5111
 2302SOL     OW 7725   1.148   2.586   0.704  0.0721  0.7560  0.2813
 2302SOL    HW1 7726   1.145   2.577   0.803 -0.7856  2.8252  0.4922
 2302SOL    HW2 7727   1.154   2.495   0.662 -0.4831 -0.2079  2.1844
 2303SOL     OW 7728   6.910   4.000   6.767 -0.4770 -0.7012 -0.3968
 2303SOL    HW1 7729   6.882   4.047   6.683  0.6948  1.3706  0.2850
 2303SOL    HW2 7730   6.853   4.033   6.843  1.2865  0.7871  0.3516
 2304SOL     OW 7731   4.497   6.640   0.727  0.1728 -0.4596  0.0515
 2304SOL    HW1 7732   4.588   6.600   0.739  0.8269  0.3491 -1.9572
 2304SOL    HW2 7733   4.469   6.686   0.812  1.2805 -1.3640  0.9326
 2305SOL     OW 7734   0.729   4.497   0.940 -0.0418 -0.5550 -0.2321
 2305SOL    HW1 7735   0.667   4.544   0.878 -0.8687  0.0411  1.0035
 2305SOL    HW2 7736   0.680   4.470   1.023  0.9571 -1.5937  0.0529
 2306SOL     OW 7737   4.249   3.879   5.602  0.1361 -0.1301 -1.2898
 2306SOL    HW1 7738   4.266   3.842   5.511 -1.2742 -0.6842 -1.3588
 2306SOL    HW2 7739   4.225   3.976   5.595 -0.2531 -0.2411 -1.5529
 2307SOL     OW 7740   0.055   5.942   3.478  0.0401 -0.4865  0.4237
 2307SOL    HW1 7741   0.045   6.041   3.466 -2.1470 -0.6685  0.4645
 2307SOL    HW2 7742   0.153   5.918   3.476  0.8253  1.9755  3.0578
 2308SOL     OW 7743   1.291   2.638   2.148  0.1106 -0.6418  0.1974
 2308SOL    HW1 7744   1.244   2.690   2.219  0.4404 -2.0932  1.5373
 2308SOL    HW2 7745   1.315   2.547   2.183  0.2958 -1.4145 -1.7653
 2309SOL     OW 7746   2.331   6.049   5.171  0.5131  0.1453 -0.4603
 2309SOL    HW1 7747   2.386   5.965   5.173 -1.3590 -1.5267 -5.1090
 2309SOL    HW2 7748   2.390   6.127   5.151  1.8698 -0.5906  0.5290
 2310SOL     OW 7749   4.058   4.454   6.585  0.1331 -0.1127 -0.1865
 2310SOL    HW1 7750   4.053   4.367   6.635  0.8050  0.0244  0.1265
 2310SOL    HW2 7751   3.966   4.483   6.560 -0.1957 -0.3006  0.7779
 2311SOL     OW 7752   6.913   4.634   0.894  0.3079  0.3961 -0.0414
 2311SOL    HW1 7753   6.985   4.588   0.843  0.7854  2.0333 -0.9138
 2311SOL    HW2 7754   6.843   4.667   0.831 -0.5780 -0.0735  0.6678
 2312SOL     OW 7755   4.349   3.478   0.963  0.3306  0.1359  0.2583
 2312SOL    HW1 7756   4.331   3.422   0.882  0.9735 -0.0095  0.2095
 2312SOL    HW2 7757   4.331   3.424   1.045 -2.8429  1.0523  0.2890
 2313SOL     OW 7758   5.667   2.251   3.579  0.3536  0.0957  0.1635
 2313SOL    HW1 7759   5.655   2.348   3.556  0.8001  0.0720 -0.1819
 2313SOL    HW2 7760   5.578   2.210   3.599 -0.0894  0.0595 -1.7308
 2314SOL     OW 7761   6.890   5.749   3.487 -0.5515  0.4048  0.3698
 2314SOL    HW1 7762   6.834   5.753   3.404  0.1086 -1.3672 -0.2127
 2314SOL    HW2 7763   6.946   5.832   3.493  1.1653 -0.4215 -2.3026
 2315SOL     OW 7764   4.716   2.860   5.810  0.3002 -0.5772  1.2101
 2315SOL    HW1 7765   4.794   2.922   5.810 -1.3991  1.8851 -1.7795
 2315SOL    HW2 7766   4.651   2.889   5.881  1.1343 -1.3477  2.3221
 2316SOL     OW 7767   5.223   3.826   4.531 -0.1032  0.3219 -0.1972
 2316SOL    HW1 7768   5.154   3.827   4.604  2.2107  1.7791  2.1123
 2316SOL    HW2 7769   5.223   3.914   4.483  0.8967  0.7679  0.5952
 2317SOL     OW 7770   1.702   2.142   0.420  0.0079 -0.3124  0.0085
 2317SOL    HW1 7771   1.743   2.160   0.510 -0.1995  0.8227 -0.1172
 2317SOL    HW2 7772   1.744   2.061   0.380  1.6503  0.4348  0.1812
 2318SOL     OW 7773   3.911   5.403   4.216 -0.4504  0.0961 -0.2120
 2318SOL    HW1 7774   3.904   5.314   4.262 -1.9280  0.0087 -0.5346
 2318SOL    HW2 7775   3.990   5.453   4.251  0.3207 -1.2901  0.0721
 2319SOL     OW 7776   2.306   4.946   0.599  0.1175  0.3779 -0.1342
 2319SOL    HW1 7777   2.396   4.917   0.565 -0.2426  2.1147 -2.8318
 2319SOL    HW2 7778   2.239   4.876   0.578  0.3901  0.2236 -0.5168
 2320SOL     OW 7779   4.374   5.223   6.405  0.1416  0.1606 -0.7023
 2320SOL    HW1 7780   4.402   5.284   6.332  1.0626  0.7552  0.1326
 2320SOL    HW2 7781   4.409   5.257   6.493 -0.9298 -0.5380  0.0174
 2321SOL     OW 7782   4.428   5.276   4.225 -0.3756 -0.3325 -0.3096
 2321SOL    HW1 7783   4.358   5.210   4.253  0.2428 -0.4265  1.1148
 2321SOL    HW2 7784   4.422   5.290   4.126 -1.2713 -1.6350 -0.4770
 2322SOL     OW 7785   1.035   4.559   3.008  0.0525  0.4972  0.2602
 2322SOL    HW1 7786   0.940   4.538   2.987  0.2062  0.7971 -0.8310
 2322SOL    HW2 7787   1.053   4.542   3.105 -0.8001 -0.7483  0.2349
 2323SOL     OW 7788   1.784   2.157   0.664 -0.0543 -0.1732 -0.3885
 2323SOL    HW1 7789   1.845   2.079   0.677  1.8359  1.3707  0.4397
 2323SOL    HW2 7790   1.736   2.176   0.750 -0.2469 -0.1917 -0.4907
 2324SOL     OW 7791   4.806   1.226   3.494 -0.2694  0.2045  0.3851
 2324SOL    HW1 7792   4.854   1.302   3.450  0.9567  0.6750  2.3923
 2324SOL    HW2 7793   4.838   1.139   3.455  2.2200  0.5046  1.5541
 2325SOL     OW 7794   4.502   1.563   0.439 -0.1404  0.4130  0.0002
 2325SOL    HW1 7795   4.447   1.574   0.356 -0.0741 -1.4021 -0.3127
 2325SOL    HW2 7796   4.597   1.547   0.414 -0.2195 -0.7148  0.3941
 2326SOL     OW 7797   0.789   6.140   5.054  0.4352  0.3813  0.1881
 2326SOL    HW1 7798   0.799   6.239   5.043 -1.6608  0.5353 -0.8425
 2326SOL    HW2 7799   0.787   6.096   4.964 -0.8703 -0.3103  0.5213
 2327SOL     OW 7800   5.116   0.857   6.951 -0.0251  0.4436 -0.5304
 2327SOL    HW1 7801   5.166   0.790   6.897  1.5891  0.5172  0.7993
 2327SOL    HW2 7802   5.073   0.812   7.029 -1.6518  0.4703 -1.3608
 2328SOL     OW 7803   4.118   1.223   3.706  0.6115 -0.1395  0.0693
 2328SOL    HW1 7804   4.160   1.296   3.761 -0.5445  0.6160 -0.0131
 2328SOL    HW2 7805   4.184   1.189   3.639  1.1644  0.8515  0.0952
 2329SOL     OW 7806   2.288   0.760   0.580  0.3149  0.1920  0.7141
 2329SOL    HW1 7807   2.217   0.829   0.567  1.1522  0.9048 -0.3198
 2329SOL    HW2 7808   2.268   0.705   0.661 -1.4470  0.3159  0.3952
 2330SOL     OW 7809   1.367   0.285   6.062 -0.2744  0.4811  0.4399
 2330SOL    HW1 7810   1.451   0.335   6.081 -1.5651  3.5938 -1.2631
 2330SOL    HW2 7811   1.324   0.323   5.980 -2.5171 -2.0978  0.3078
 2331SOL     OW 7812   2.850   1.614   4.845 -0.2123  0.0144  0.0367
 2331SOL    HW1 7813   2.889   1.705   4.851  1.0085 -0.5490  0.8785
 2331SOL    HW2 7814   2.820   1.597   4.751  3.1826 -0.1557 -1.1563
 2332SOL     OW 7815   2.567   1.581   0.018 -0.3967 -0.2613  0.5636
 2332SOL    HW1 7816   2.513   1.499   0.039 -1.4557  0.0714 -0.7188
 2332SOL    HW2 7817   2.634   1.559  -0.052 -0.7030 -0.0134  0.2137
 2333SOL     OW 7818   5.621   0.993   3.954 -0.3432  0.4932  0.1569
 2333SOL    HW1 7819   5.619   0.967   3.858  1.8163  1.2275 -0.1587
 2333SOL    HW2 7820   5.668   1.080   3.964  1.0919 -0.4032  2.0016
 2334SOL     OW 7821   0.101   5.450   4.358  0.2585 -0.5721 -0.2475
 2334SOL    HW1 7822   0.147   5.527   4.314  1.1144 -1.1590 -0.4118
 2334SOL    HW2 7823   0.124   5.365   4.309  0.2119 -1.0726  0.5808
 2335SOL     OW 7824   3.760   4.881   5.157  0.5019  0.2415  0.6256
 2335SOL    HW1 7825   3.771   4.789   5.121 -0.5919  1.0834 -2.2000
 2335SOL    HW2 7826   3.690   4.881   5.229 -1.7114 -0.7949 -1.3927
 2336SOL     OW 7827   4.538   0.588   2.775 -0.3456 -0.0760 -0.3412
 2336SOL    HW1 7828   4.462   0.593   2.840 -2.4070  0.7082 -2.6485
 2336SOL    HW2 7829   4.536   0.500   2.728 -0.3247  0.2300 -0.9307
 2337SOL     OW 7830   2.309   2.939   5.278 -0.5077  0.2779 -0.3922
 2337SOL    HW1 7831   2.378   2.889   5.227 -0.0487  1.7880 -1.3158
 2337SOL    HW2 7832   2.311   2.910   5.374  0.9854 -0.1517 -0.5234
 2338SOL     OW 7833   4.023   1.835   0.820  0.4743  0.5285  0.0249
 2338SOL    HW1 7834   4.022   1.880   0.910  0.4392  0.0497  0.2684
 2338SOL    HW2 7835   4.004   1.737   0.832  0.2229  0.5078 -0.5306
 2339SOL     OW 7836   1.865   3.274   0.595 -0.3561 -0.1477 -0.3168
 2339SOL    HW1 7837   1.808   3.319   0.663 -0.2622 -0.1636 -0.2278
 2339SOL    HW2 7838   1.820   3.279   0.506 -1.4908 -2.0194  0.1138
 2340SOL     OW 7839   6.956   3.326   4.676  0.0471  0.0240 -0.4214
 2340SOL    HW1 7840   6.913   3.380   4.603 -1.5618 -1.8128 -0.9557
 2340SOL    HW2 7841   6.959   3.379   4.760 -1.2430  1.0338 -0.9794
 2341SOL     OW 7842   3.136   5.001   5.294  0.0236 -0.5075 -0.2026
 2341SOL    HW1 7843   3.179   4.957   5.372  3.1195 -1.1812 -2.1122
 2341SOL    HW2 7844   3.154   5.099   5.296  1.9597 -0.7860 -1.0130
 2342SOL     OW 7845   2.623   0.362   2.322  0.5228  0.1067 -0.0759
 2342SOL    HW1 7846   2.653   0.389   2.231 -0.0953 -0.8588 -0.5834
 2342SOL    HW2 7847   2.701   0.363   2.384  1.0901  0.1083 -0.7668
 2343SOL     OW 7848   4.539   6.025   5.855 -0.4566 -0.0421 -0.0806
 2343SOL    HW1 7849   4.539   6.125   5.848 -1.0800  0.0549  1.0021
 2343SOL    HW2 7850   4.445   5.992   5.854 -0.2641 -0.5936 -0.1374
 2344SOL     OW 7851   1.445   3.494   5.946  0.5433 -0.7681  0.3755
 2344SOL    HW1 7852   1.483   3.555   5.876 -1.7988  0.4259  0.0410
 2344SOL    HW2 7853   1.444   3.400   5.910  1.0162 -0.4622 -0.4782
 2345SOL     OW 7854   0.740   1.694   2.609  0.0810 -0.5797 -0.5377
 2345SOL    HW1 7855   0.790   1.618   2.652  0.7429  0.1167 -0.0347
 2345SOL    HW2 7856   0.775   1.780   2.644 -0.0292 -0.0085 -1.7911
 2346SOL     OW 7857   4.365   3.294   7.002 -0.4167  0.2654  0.2043
 2346SOL    HW1 7858   4.349   3.325   6.908  1.3919  0.4776 -0.0718
 2346SOL    HW2 7859   4.371   3.373   7.063  0.5965  0.2799  0.0816
 2347SOL     OW 7860   6.374   0.919   3.619  0.0699 -0.6627 -0.2768
 2347SOL    HW1 7861   6.279   0.940   3.642  0.7117  2.4429 -0.0293
 2347SOL    HW2 7862   6.383   0.909   3.520 -0.1728  1.3447 -0.5326
 2348SOL     OW 7863   1.938   1.051   5.378 -0.0047  0.3473 -0.5844
 2348SOL    HW1 7864   1.921   1.002   5.463  0.2671  0.1101 -0.6630
 2348SOL    HW2 7865   2.036   1.068   5.368 -0.0409  0.4384 -0.8139
 2349SOL     OW 7866   1.758   4.248   3.997 -0.0335  0.0951  1.3280
 2349SOL    HW1 7867   1.776   4.226   4.093  0.6725 -0.5857  1.0525
 2349SOL    HW2 7868   1.810   4.186   3.938  2.7447  2.9248  0.4744
 2350SOL     OW 7869   5.096   5.422   3.187 -0.6990 -0.1794  0.5453
 2350SOL    HW1 7870   5.107   5.520   3.170 -0.9020 -0.0018  1.3538
 2350SOL    HW2 7871   5.143   5.370   3.116 -0.7391  0.4989  0.0052
 2351SOL     OW 7872   6.562   0.260   2.170 -0.8661  0.7788 -0.2518
 2351SOL    HW1 7873   6.633   0.262   2.099  0.1269  0.6348  0.6974
 2351SOL    HW2 7874   6.560   0.349   2.217 -2.0457  1.1361 -0.9307
 2352SOL     OW 7875   0.969   2.518   5.052  0.7590 -0.0742 -0.0125
 2352SOL    HW1 7876   0.900   2.452   5.021 -0.2420  0.7274  0.3914
 2352SOL    HW2 7877   0.961   2.530   5.151  0.8586  0.7143 -0.0929
 2353SOL     OW 7878   1.983   0.636   2.366 -0.1426  0.4696 -0.1724
 2353SOL    HW1 7879   2.013   0.697   2.292 -2.4984  0.2861 -1.3984
 2353SOL    HW2 7880   2.062   0.594   2.409  1.5606  3.7949  0.2549
 2354SOL     OW 7881   1.016   5.126   2.035  0.6965 -0.4569  0.3025
 2354SOL    HW1 7882   1.070   5.042   2.043  1.2122 -0.4184 -2.0449
 2354SOL    HW2 7883   1.077   5.205   2.034  0.3509 -0.1801  0.6280
 2355SOL     OW 7884   6.920   1.192   1.584 -0.0105  0.2357  0.6979
 2355SOL    HW1 7885   6.960   1.156   1.500 -1.1686  1.0364 -0.2511
 2355SOL    HW2 7886   6.984   1.180   1.660  1.9295  1.2999 -0.6798
 2356SOL     OW 7887   6.685   0.461   3.050  0.6132 -0.4144  0.2000
 2356SOL    HW1 7888   6.730   0.513   3.123  1.8316 -1.6403  0.3836
 2356SOL    HW2 7889   6.748   0.449   2.973 -1.0389  1.8452 -1.6399
 2357SOL     OW 7890   6.730   6.861   6.630 -0.4231 -0.8721 -0.0515
 2357SOL    HW1 7891   6.736   6.865   6.530  1.4128  2.3966  0.0566
 2357SOL    HW2 7892   6.661   6.926   6.662 -0.1820 -1.0347  0.8310
 2358SOL     OW 7893   2.040   4.923   0.038 -0.1342 -0.5319  0.2946
 2358SOL    HW1 7894   2.123   4.914  -0.016  0.2702  2.1695  0.3400
 2358SOL    HW2 7895   1.962   4.891  -0.017  0.7720 -2.2426 -0.0530
 2359SOL     OW 7896   6.529   2.693   3.233 -0.2048  0.3694 -0.6397
 2359SOL    HW1 7897   6.484   2.703   3.322 -0.9849  1.7993 -1.1732
 2359SOL    HW2 7898   6.588   2.773   3.216  0.2561 -0.0864 -1.2328
 2360SOL     OW 7899   3.751   4.826   5.912 -0.7826  0.2091  0.3594
 2360SOL    HW1 7900   3.775   4.731   5.897 -1.2628  0.0138  0.7791
 2360SOL    HW2 7901   3.787   4.856   6.001 -0.1289  0.5974 -0.0289
 2361SOL     OW 7902   6.974   5.879   3.143  0.4513  0.2958 -0.0486
 2361SOL    HW1 7903   6.967   5.873   3.043 -0.8845 -0.6676  0.0925
 2361SOL    HW2 7904   7.042   5.814   3.176 -0.7098 -1.0147 -0.1728
 2362SOL     OW 7905   5.164   2.952   2.513 -0.3059  0.2288 -0.2543
 2362SOL    HW1 7906   5.255   2.911   2.500 -0.6115  0.0572 -2.1390
 2362SOL    HW2 7907   5.127   2.922   2.601  1.3535  0.1013  0.4437
 2363SOL     OW 7908   4.015   1.384   6.985 -0.2174  0.0098 -0.0864
 2363SOL    HW1 7909   4.017   1.443   7.065 -0.6686  0.6751 -0.5742
 2363SOL    HW2 7910   3.996   1.439   6.904 -1.0271 -0.8222 -0.4819
 2364SOL     OW 7911   2.768   6.052   5.086  0.3443  0.3762  0.2314
 2364SOL    HW1 7912   2.847   5.996   5.113  0.2587  0.2363  0.1989
 2364SOL    HW2 7913   2.799   6.143   5.059  0.7902 -0.4138 -2.1441
 2365SOL     OW 7914   0.540   6.336   4.926 -0.0346  0.1879 -0.7582
 2365SOL    HW1 7915   0.502   6.404   4.862 -2.0643 -0.1480  0.0391
 2365SOL    HW2 7916   0.620   6.375   4.971  0.1040  1.2638 -1.8634
 2366SOL     OW 7917   2.238   5.929   1.956  0.0582 -0.3405 -0.5994
 2366SOL    HW1 7918   2.244   6.028   1.949 -0.9156 -0.3493 -1.9366
 2366SOL    HW2 7919   2.149   5.904   1.994 -1.2305 -0.7301 -3.5702
 2367SOL     OW 7920   0.306   4.377   0.044 -0.0552 -0.5878  0.4549
 2367SOL    HW1 7921   0.242   4.304   0.067 -0.9321  0.1821  0.4856
 2367SOL    HW2 7922   0.361   4.399   0.125 -1.7052  0.6791  1.2857
 2368SOL     OW 7923   0.288   2.291   2.156  0.6849 -0.2801  0.2785
 2368SOL    HW1 7924   0.280   2.265   2.252 -0.4319 -0.4503  0.1594
 2368SOL    HW2 7925   0.328   2.215   2.104 -1.7873 -1.5505  0.0763
 2369SOL     OW 7926   0.218   5.010   6.908  0.0537  0.6842  0.0810
 2369SOL    HW1 7927   0.222   5.010   7.008  0.0380  1.1958  0.0851
 2369SOL    HW2 7928   0.150   4.942   6.878  0.1300  0.4571  0.4099
 2370SOL     OW 7929   2.444   1.574   4.867 -0.2885 -0.3303 -0.3269
 2370SOL    HW1 7930   2.488   1.528   4.945 -0.1213  0.2223 -0.0889
 2370SOL    HW2 7931   2.488   1.544   4.782  0.0587 -0.3498 -0.1475
 2371SOL     OW 7932   4.010   0.147   1.113 -0.4057 -0.2540  0.9407
 2371SOL    HW1 7933   3.921   0.111   1.087 -1.0546 -0.9194  3.7849
 2371SOL    HW2 7934   4.075   0.071   1.123 -0.5121 -0.1823  2.3456
 2372SOL     OW 7935   6.232   1.675   4.016  0.4352  0.3484  0.3421
 2372SOL    HW1 7936   6.204   1.769   3.999 -0.6902  0.1508  0.9774
 2372SOL    HW2 7937   6.160   1.612   3.987  0.5755 -0.2332  1.1720
 2373SOL     OW 7938   5.262   3.477   5.120  0.7439  0.1634 -0.2414
 2373SOL    HW1 7939   5.287   3.412   5.048  1.3843 -1.8497  1.6611
 2373SOL    HW2 7940   5.221   3.558   5.079  0.9183 -0.9452 -2.8312
 2374SOL     OW 7941   0.114   5.135   2.850  0.4287  0.6845  0.0604
 2374SOL    HW1 7942   0.214   5.137   2.850  0.6045 -0.4486 -3.5299
 2374SOL    HW2 7943   0.081   5.095   2.935  2.9951  1.1472  1.3667
 2375SOL     OW 7944   6.953   6.849   0.565  0.3160 -0.1449  0.2676
 2375SOL    HW1 7945   6.954   6.785   0.488  1.0080 -0.7763  0.7983
 2375SOL    HW2 7946   7.018   6.923   0.547 -0.0457  0.1051 -0.0702
 2376SOL     OW 7947   3.119   5.578   4.183  0.0022 -0.7376 -0.5650
 2376SOL    HW1 7948   3.134   5.577   4.281 -2.0306  0.2444 -0.1847
 2376SOL    HW2 7949   3.143   5.668   4.146 -0.3240 -0.7197 -0.7484
 2377SOL     OW 7950   2.682   3.305   0.092 -0.1316 -0.2096 -0.7388
 2377SOL    HW1 7951   2.755   3.254   0.138  0.2406  2.2019  1.6044
 2377SOL    HW2 7952   2.718   3.394   0.064 -1.8412  0.5144 -0.6757
 2378SOL     OW 7953   0.833   1.374   4.659  0.2915 -0.0880  0.2414
 2378SOL    HW1 7954   0.752   1.350   4.713  0.1345  1.0699  0.5476
 2378SOL    HW2 7955   0.804   1.418   4.574  0.5724 -0.6922 -0.1670
 2379SOL     OW 7956   4.659   1.323   0.165  0.1449 -0.0781  0.3429
 2379SOL    HW1 7957   4.689   1.265   0.088  1.5150 -0.1362  0.8987
 2379SOL    HW2 7958   4.560   1.311   0.178 -1.1166  2.9267 -3.9565
 2380SOL     OW 7959   5.389   4.998   1.295  0.3089  0.9608  0.3074
 2380SOL    HW1 7960   5.400   5.095   1.272 -0.5209  1.0085  0.0580
 2380SOL    HW2 7961   5.469   4.947   1.264  0.9310  1.6273  0.7976
 2381SOL     OW 7962   2.467   1.628   1.959  0.0960 -0.4949 -0.0450
 2381SOL    HW1 7963   2.419   1.677   1.886 -0.9723 -0.5422  0.6115
 2381SOL    HW2 7964   2.494   1.692   2.030 -2.4027 -0.9215  1.4242
 2382SOL     OW 7965   3.303   4.423   6.304  0.1141  0.2566  0.3740
 2382SOL    HW1 7966   3.335   4.512   6.272  0.7200  0.2101  0.8335
 2382SOL    HW2 7967   3.337   4.406   6.396  2.1556 -1.5271 -0.6261
 2383SOL     OW 7968   1.192   1.821   0.607  0.2261  0.5652 -0.2672
 2383SOL    HW1 7969   1.173   1.723   0.607  1.2287  0.3572  0.4283
 2383SOL    HW2 7970   1.159   1.862   0.522 -2.3633  0.0631  0.3993
 2384SOL     OW 7971   2.470   5.982   6.033  0.2979 -0.5329  0.1106
 2384SOL    HW1 7972   2.520   6.047   6.091  0.0453 -0.6709  0.4823
 2384SOL    HW2 7973   2.447   5.901   6.086 -0.4947 -0.3955  0.0070
 2385SOL     OW 7974   6.588   1.361   5.099 -0.7772 -0.1059 -0.0403
 2385SOL    HW1 7975   6.615   1.451   5.067 -0.5166 -0.6522 -1.3919
 2385SOL    HW2 7976   6.501   1.335   5.056  0.0178 -1.2158 -1.0490
 2386SOL     OW 7977   3.444   2.120   6.632  0.2442  0.0430  0.1457
 2386SOL    HW1 7978   3.414   2.214   6.617  1.1624  0.2814 -0.1892
 2386SOL    HW2 7979   3.543   2.115   6.627  0.3015 -0.6859  1.5653
 2387SOL     OW 7980   0.550   0.241   4.269  0.0900 -0.3723  0.0886
 2387SOL    HW1 7981   0.455   0.258   4.295  0.1191  0.3256 -0.1999
 2387SOL    HW2 7982   0.611   0.299   4.323  0.3526 -0.7953  0.2548
 2388SOL     OW 7983   6.474   3.700   4.593  0.1243 -0.6193  0.2337
 2388SOL    HW1 7984   6.499   3.616   4.642 -0.0819 -0.5915  0.3936
 2388SOL    HW2 7985   6.427   3.762   4.656 -0.2219 -0.6202 -0.0216
 2389SOL     OW 7986   5.822   3.350   1.160  0.2065 -0.2398 -0.1303
 2389SOL    HW1 7987   5.803   3.448   1.172 -0.0899 -0.4170  0.9814
 2389SOL    HW2 7988   5.866   3.314   1.242 -0.2270 -1.1632 -0.2830
 2390SOL     OW 7989   0.983   2.319   0.793  0.0096 -0.4565  0.0127
 2390SOL    HW1 7990   1.060   2.330   0.730  0.4536 -1.8018  0.3037
 2390SOL    HW2 7991   0.899   2.309   0.741  0.1303  0.2067 -0.3243
 2391SOL     OW 7992   5.967   3.961   0.458  0.2068 -0.3798 -0.1267
 2391SOL    HW1 7993   6.039   4.022   0.425  1.7620 -2.4464 -0.7373
 2391SOL    HW2 7994   5.890   3.963   0.395 -0.7297  2.4145  0.9086
 2392SOL     OW 7995   3.836   6.838   4.923 -0.3265 -0.4153  0.0738
 2392SOL    HW1 7996   3.906   6.786   4.972 -0.2101 -1.5397 -1.2215
 2392SOL    HW2 7997   3.775   6.775   4.874 -0.2687  0.6484 -1.4333
 2393SOL     OW 7998   5.974   4.765   4.606 -0.0400 -0.1568  0.5825
 2393SOL    HW1 7999   6.023   4.815   4.535  0.3776 -0.7708  0.4298
 2393SOL    HW2 8000   5.876   4.767   4.587 -0.2735  2.3524  1.6803
 2394SOL     OW 8001   3.529   0.442   6.731  0.0880  0.3182 -0.0030
 2394SOL    HW1 8002   3.487   0.446   6.641 -1.5248  1.7460  0.7422
 2394SOL    HW2 8003   3.467   0.396   6.795  1.3438 -0.9503  0.3261
 2395SOL     OW 8004   3.805   4.448   5.988 -0.0550 -0.2736  0.0838
 2395SOL    HW1 8005   3.804   4.372   5.923  1.2353 -0.4676  0.2734
 2395SOL    HW2 8006   3.782   4.413   6.079  0.4992 -0.4549  0.1675
 2396SOL     OW 8007   5.005   1.773   3.970  0.0404  0.2557  0.2272
 2396SOL    HW1 8008   5.056   1.806   3.890 -1.0029  1.2333 -0.0618
 2396SOL    HW2 8009   4.943   1.700   3.942 -1.0550  1.2755 -0.0888
 2397SOL     OW 8010   0.163   4.508   0.802  0.8198  0.0855  0.0155
 2397SOL    HW1 8011   0.195   4.549   0.717 -0.4077 -2.6272 -1.8603
 2397SOL    HW2 8012   0.241   4.487   0.861  1.7912  0.7371 -1.0204
 2398SOL     OW 8013   3.215   6.812   4.543  0.0659  0.0395 -0.5286
 2398SOL    HW1 8014   3.146   6.750   4.504 -0.6150  0.0828  0.5431
 2398SOL    HW2 8015   3.298   6.761   4.564 -0.1624 -0.3278 -0.5027
 2399SOL     OW 8016   2.149   1.659   0.449  0.3798  0.1017  0.1350
 2399SOL    HW1 8017   2.058   1.700   0.450  0.3906  0.3966 -2.6380
 2399SOL    HW2 8018   2.213   1.717   0.500 -0.7892  0.2818  1.4687
 2400SOL     OW 8019   3.406   0.111   4.057 -0.8482 -0.2170 -0.3431
 2400SOL    HW1 8020   3.388   0.040   3.989 -1.9283 -1.9065  1.5814
 2400SOL    HW2 8021   3.377   0.078   4.147  2.2902  1.1097  1.2993
 2401SOL     OW 8022   5.978   1.035   2.752  0.3193 -0.0418  0.1491
 2401SOL    HW1 8023   6.014   1.128   2.750  0.3812 -0.0256  1.3796
 2401SOL    HW2 8024   6.043   0.975   2.799 -0.7076 -0.2402  1.3691
 2402SOL     OW 8025   6.315   4.153   2.642  0.0505 -0.3755 -0.6187
 2402SOL    HW1 8026   6.268   4.212   2.707  1.5215 -0.5867  0.6914
 2402SOL    HW2 8027   6.340   4.205   2.561 -0.2760  0.3550 -0.2603
 2403SOL     OW 8028   1.307   5.730   5.069  0.0119 -0.4607 -0.4603
 2403SOL    HW1 8029   1.370   5.798   5.031 -0.7085  2.7893  3.4923
 2403SOL    HW2 8030   1.350   5.686   5.148 -1.2279 -1.2395 -0.1905
 2404SOL     OW 8031   1.629   4.705   1.051  0.1574  0.0376 -0.0500
 2404SOL    HW1 8032   1.557   4.637   1.042 -0.2800  0.3466  0.9959
 2404SOL    HW2 8033   1.705   4.682   0.990 -1.1728  0.2055 -1.8947
 2405SOL     OW 8034   6.879   4.850   0.286  0.7054  0.1818 -0.1223
 2405SOL    HW1 8035   6.880   4.763   0.335 -0.4161 -0.7796 -1.7026
 2405SOL    HW2 8036   6.843   4.836   0.193 -0.8061  2.5778  0.0238
 2406SOL     OW 8037   3.922   0.047   2.556 -0.0116 -0.5231 -0.1008
 2406SOL    HW1 8038   3.956   0.138   2.535 -1.6948  0.0304 -0.6083
 2406SOL    HW2 8039   3.893   0.002   2.471 -2.2012 -0.2260  0.4057
 2407SOL     OW 8040   6.540   0.911   5.272  0.2466  0.0326  0.3948
 2407SOL    HW1 8041   6.478   0.934   5.197  0.4789 -0.6487 -0.0137
 2407SOL    HW2 8042   6.633   0.897   5.236  0.8380  1.8382  1.0987
 2408SOL     OW 8043   4.718   3.089   5.364  0.2202 -0.3731 -0.2631
 2408SOL    HW1 8044   4.726   3.164   5.298 -1.0224 -0.4810 -0.5750
 2408SOL    HW2 8045   4.777   3.108   5.442  1.1061  0.1607 -1.0280
 2409SOL     OW 8046   4.234   1.936   2.852  0.0854 -0.1336 -0.5418
 2409SOL    HW1 8047   4.162   1.937   2.923  1.6279  0.8910  1.0905
 2409SOL    HW2 8048   4.315   1.890   2.888  0.4651 -0.7871 -2.1684
 2410SOL     OW 8049   2.806   3.997   1.190  0.1198 -0.5824 -0.1870
 2410SOL    HW1 8050   2.763   4.000   1.280 -0.2193 -0.2702 -0.3592
 2410SOL    HW2 8051   2.749   4.044   1.124  0.5963 -0.4058 -0.4756
 2411SOL     OW 8052   1.094   1.863   1.683  0.2279  0.1035  0.0309
 2411SOL    HW1 8053   1.049   1.786   1.728 -0.1546 -2.0278 -3.6181
 2411SOL    HW2 8054   1.182   1.880   1.727  0.9040 -3.2751  0.3175
 2412SOL     OW 8055   3.632   1.838   1.890 -0.6613 -0.2525  0.0712
 2412SOL    HW1 8056   3.538   1.839   1.925 -0.4120  1.1498  0.7365
 2412SOL    HW2 8057   3.685   1.771   1.942 -1.2367 -0.9261 -0.1873
 2413SOL     OW 8058   6.682   4.713   5.516  0.1031 -0.2614  0.3170
 2413SOL    HW1 8059   6.617   4.757   5.455 -1.2639  0.0243  1.8928
 2413SOL    HW2 8060   6.765   4.768   5.522 -0.1162  0.1734 -0.5514
 2414SOL     OW 8061   3.415   3.313   5.931 -0.5284 -0.3040  0.3570
 2414SOL    HW1 8062   3.432   3.296   6.028 -0.7669 -0.2958  0.4032
 2414SOL    HW2 8063   3.343   3.251   5.899 -0.9747  0.2104  0.3669
 2415SOL     OW 8064   1.388   5.402   0.025 -0.1234 -0.2000  0.1163
 2415SOL    HW1 8065   1.304   5.426  -0.023 -0.8462 -1.3466  0.8007
 2415SOL    HW2 8066   1.450   5.480   0.024 -0.4585  0.0777 -1.9239
 2416SOL     OW 8067   3.218   1.665   4.866 -0.0037 -0.0322  0.7291
 2416SOL    HW1 8068   3.225   1.625   4.958 -1.0831  0.7888  1.1867
 2416SOL    HW2 8069   3.309   1.693   4.835  0.4807 -1.0187  1.2149
 2417SOL     OW 8070   0.775   4.283   5.119 -0.0323 -0.4104 -0.4340
 2417SOL    HW1 8071   0.870   4.253   5.109  0.2975  0.7613 -1.2065
 2417SOL    HW2 8072   0.774   4.382   5.133 -1.1440 -0.3896 -0.6049
 2418SOL     OW 8073   2.967   0.007   5.610  0.3144 -0.5417  0.0073
 2418SOL    HW1 8074   3.057   0.042   5.586  0.0459  1.3480  1.5088
 2418SOL    HW2 8075   2.898   0.077   5.592 -0.6165 -1.2502  0.6642
 2419SOL     OW 8076   1.919   2.852   4.949 -0.0048  0.2167 -0.3494
 2419SOL    HW1 8077   1.982   2.831   5.024  2.2118  0.0714 -2.1246
 2419SOL    HW2 8078   1.885   2.946   4.959  0.9325  0.4839  0.3774
 2420SOL     OW 8079   3.407   0.916   1.259  0.3059 -0.2669 -0.3723
 2420SOL    HW1 8080   3.437   0.849   1.191 -2.2561 -0.2840 -1.5933
 2420SOL    HW2 8081   3.309   0.933   1.248  0.0872  0.8011  2.4475
 2421SOL     OW 8082   5.562   2.684   4.959 -0.2803  0.1052  0.2468
 2421SOL    HW1 8083   5.540   2.751   4.889  1.2361 -0.0875 -0.4762
 2421SOL    HW2 8084   5.513   2.599   4.940  1.3456 -0.4887 -1.5983
 2422SOL     OW 8085   5.716   6.490   5.814 -0.4803  0.3354 -0.0427
 2422SOL    HW1 8086   5.773   6.535   5.883 -0.3468  0.9670 -0.5370
 2422SOL    HW2 8087   5.657   6.422   5.858 -0.8132  1.1139  0.7626
 2423SOL     OW 8088   5.474   5.761   1.865 -0.2943 -0.1680 -0.2428
 2423SOL    HW1 8089   5.408   5.749   1.791 -0.6454 -2.6324  0.3590
 2423SOL    HW2 8090   5.530   5.678   1.873  2.0085  1.3455  0.1313
 2424SOL     OW 8091   4.231   5.277   5.706  0.0460 -0.0035 -0.5448
 2424SOL    HW1 8092   4.230   5.185   5.746  1.1108 -0.9316 -2.5169
 2424SOL    HW2 8093   4.193   5.342   5.771  0.2969 -1.6633  1.3438
 2425SOL     OW 8094   3.488   6.782   4.773  0.0199 -0.2366 -0.1511
 2425SOL    HW1 8095   3.520   6.852   4.710  1.2836 -0.3649  0.3192
 2425SOL    HW2 8096   3.438   6.825   4.848 -0.1764  0.0533 -0.4446
 2426SOL     OW 8097   4.649   1.260   1.243  0.5269  0.6239 -0.3456
 2426SOL    HW1 8098   4.720   1.244   1.175  1.8018  2.4459  0.4997
 2426SOL    HW2 8099   4.662   1.198   1.320  0.3071 -0.0322 -0.8257
 2427SOL     OW 8100   6.381   5.046   6.205  0.1255 -0.4467  0.2921
 2427SOL    HW1 8101   6.407   5.128   6.154 -2.1941 -1.5785 -3.0190
 2427SOL    HW2 8102   6.336   5.072   6.290 -1.1452  1.7686 -0.9880
 2428SOL     OW 8103   2.448   6.809   5.831  0.2191 -0.2061 -0.1360
 2428SOL    HW1 8104   2.445   6.906   5.809 -0.9861  0.1312  1.3562
 2428SOL    HW2 8105   2.373   6.786   5.893 -0.9024 -2.5785 -2.1857
 2429SOL     OW 8106   3.988   5.415   1.274 -0.6706 -0.3658  0.2787
 2429SOL    HW1 8107   4.030   5.401   1.185 -1.0708  3.6025 -0.7240
 2429SOL    HW2 8108   4.052   5.462   1.335 -1.9432  1.3488  0.3717
 2430SOL     OW 8109   5.123   4.859   0.135 -0.5533 -0.1496  0.7865
 2430SOL    HW1 8110   5.056   4.916   0.183 -0.7764 -0.7611  1.2065
 2430SOL    HW2 8111   5.098   4.763   0.145 -0.5182 -0.2894 -0.4432
 2431SOL     OW 8112   1.413   6.583   4.901  0.5761  0.0942  0.5647
 2431SOL    HW1 8113   1.360   6.667   4.914 -0.3697 -0.3550 -0.2698
 2431SOL    HW2 8114   1.450   6.553   4.988 -0.5748  0.4087  1.1900
 2432SOL     OW 8115   1.523   0.946   5.397 -0.2096 -0.3487  0.9542
 2432SOL    HW1 8116   1.494   0.979   5.487 -0.6883 -0.7267  0.9380
 2432SOL    HW2 8117   1.467   0.868   5.369 -1.1126  0.7311 -0.3701
 2433SOL     OW 8118   2.605   6.476   3.275 -0.1999 -0.0812 -0.0859
 2433SOL    HW1 8119   2.675   6.410   3.247 -0.8176 -0.8029  0.0429
 2433SOL    HW2 8120   2.599   6.548   3.206  0.8752  0.1585  0.0487
 2434SOL     OW 8121   1.493   6.355   4.522  0.1601  0.0381  0.5872
 2434SOL    HW1 8122   1.550   6.429   4.557  1.0849 -0.0443 -0.6735
 2434SOL    HW2 8123   1.472   6.371   4.426 -0.6858 -0.7138  0.6314
 2435SOL     OW 8124   5.792   3.895   0.904  0.1632 -0.0203  0.2274
 2435SOL    HW1 8125   5.882   3.879   0.945 -0.3757  0.4268  1.6746
 2435SOL    HW2 8126   5.765   3.816   0.850  1.6425  0.0577 -0.6830
 2436SOL     OW 8127   6.154   0.439   6.985  0.3779 -0.1536 -0.1763
 2436SOL    HW1 8128   6.121   0.528   6.952  0.3437  0.6761  1.9666
 2436SOL    HW2 8129   6.169   0.378   6.906 -1.3391  1.1143 -1.5661
 2437SOL     OW 8130   0.114   1.256   4.183  0.3608 -0.5744  1.0909
 2437SOL    HW1 8131   0.024   1.229   4.150 -0.7061  0.8601  2.6858
 2437SOL    HW2 8132   0.156   1.180   4.233 -0.4819 -0.8511  1.3783
 2438SOL     OW 8133   5.177   2.642   3.180  0.0118 -0.1455 -0.2932
 2438SOL    HW1 8134   5.128   2.729   3.188  0.4011  0.0476  0.0410
 2438SOL    HW2 8135   5.273   2.660   3.156  0.2378 -0.4524  0.3724
 2439SOL     OW 8136   0.610   5.284   2.345 -0.4122 -0.1570  0.3504
 2439SOL    HW1 8137   0.691   5.300   2.289 -0.5653  0.1131  0.2051
 2439SOL    HW2 8138   0.619   5.334   2.431 -0.3442 -0.2733  0.4105
 2440SOL     OW 8139   2.779   0.007   2.478  0.3020  0.1927  0.1216
 2440SOL    HW1 8140   2.773  -0.090   2.454 -0.7022  0.0270  1.0603
 2440SOL    HW2 8141   2.843   0.052   2.417  0.2114 -0.9110 -0.8349
 2441SOL     OW 8142   0.372   0.799   4.610  0.0382  0.2445  0.3407
 2441SOL    HW1 8143   0.427   0.861   4.667  0.4724  0.1710  0.0093
 2441SOL    HW2 8144   0.294   0.765   4.663  1.5909 -1.5015  1.6154
 2442SOL     OW 8145   0.300   4.585   1.738 -0.0084 -0.3109 -0.4701
 2442SOL    HW1 8146   0.287   4.550   1.645  0.3319 -3.0695  0.4125
 2442SOL    HW2 8147   0.398   4.584   1.760 -0.0336  0.8784 -0.2488
 2443SOL     OW 8148   0.194   5.303   6.439 -0.0381 -0.2438  0.4330
 2443SOL    HW1 8149   0.196   5.377   6.505 -1.4480  0.1015  0.1090
 2443SOL    HW2 8150   0.199   5.215   6.487  0.4186  0.0263  0.8888
 2444SOL     OW 8151   3.348   4.824   0.638 -0.4952 -0.3203 -0.0736
 2444SOL    HW1 8152   3.273   4.874   0.596 -0.5539 -0.8083 -0.5533
 2444SOL    HW2 8153   3.423   4.887   0.659 -0.9060  0.1122  0.1125
 2445SOL     OW 8154   3.700   0.019   6.423 -0.2684 -0.3845 -0.3450
 2445SOL    HW1 8155   3.638   0.001   6.500 -1.6197 -0.4493 -1.4027
 2445SOL    HW2 8156   3.686   0.113   6.391  1.2379  0.0934  0.3273
 2446SOL     OW 8157   4.777   1.914   0.391  0.2087  0.3724 -0.3797
 2446SOL    HW1 8158   4.801   1.858   0.312 -1.2880  1.3979 -1.6039
 2446SOL    HW2 8159   4.746   2.004   0.361  2.0435  1.7153  1.5328
 2447SOL     OW 8160   6.304   5.294   6.647 -0.0622 -0.2814  0.2741
 2447SOL    HW1 8161   6.266   5.376   6.690  1.4278  0.7258 -0.2529
 2447SOL    HW2 8162   6.296   5.217   6.710  1.6260  1.0452  2.2402
 2448SOL     OW 8163   1.913   3.465   1.494  0.4108 -0.0798 -0.4629
 2448SOL    HW1 8164   2.011   3.480   1.502  0.2056  0.8768  0.4745
 2448SOL    HW2 8165   1.880   3.413   1.573 -0.1985  1.6260  0.4476
 2449SOL     OW 8166   1.533   5.792   4.284  0.0732  0.0377 -0.5249
 2449SOL    HW1 8167   1.613   5.732   4.281  0.2116  0.2723 -1.7470
 2449SOL    HW2 8168   1.549   5.872   4.227 -1.4221 -0.4054 -1.6362
 2450SOL     OW 8169   4.926   1.078   5.717  0.1462 -0.1324  0.1211
 2450SOL    HW1 8170   4.885   1.095   5.807 -0.2398 -2.3199  0.4181
 2450SOL    HW2 8171   5.006   1.138   5.705  1.5495 -1.2305  2.8803
 2451SOL     OW 8172   4.456   3.589   2.522  0.2202  0.4305  0.2330
 2451SOL    HW1 8173   4.415   3.503   2.551 -0.7139  0.9011  0.3351
 2451SOL    HW2 8174   4.448   3.657   2.595  2.1375  0.2416  0.6659
 2452SOL     OW 8175   3.101   5.703   1.868 -0.1297 -0.1829  0.5194
 2452SOL    HW1 8176   3.199   5.685   1.876  0.3629  1.3558 -1.1120
 2452SOL    HW2 8177   3.058   5.633   1.811 -0.5061 -2.1886  3.1410
 2453SOL     OW 8178   6.770   2.137   0.300 -0.1019 -0.2409 -0.1819
 2453SOL    HW1 8179   6.801   2.137   0.395  1.1847 -0.0132 -0.5783
 2453SOL    HW2 8180   6.677   2.100   0.295 -0.6276  0.7688  1.2953
 2454SOL     OW 8181   4.043   6.709   3.698 -0.4161  0.4042 -0.2423
 2454SOL    HW1 8182   4.072   6.673   3.609  1.7739  1.5540 -0.0544
 2454SOL    HW2 8183   4.090   6.659   3.771 -1.3729  0.1975  0.2497
 2455SOL     OW 8184   3.057   3.157   4.621  0.1596  0.0027  0.4833
 2455SOL    HW1 8185   2.974   3.209   4.598  0.5890  1.3585  1.7445
 2455SOL    HW2 8186   3.058   3.071   4.570 -1.8017  0.1433  0.1143
 2456SOL     OW 8187   3.323   5.014   5.066 -0.7157  0.3476 -0.0169
 2456SOL    HW1 8188   3.335   5.084   4.997  0.9140 -0.3922 -0.5393
 2456SOL    HW2 8189   3.226   5.006   5.090 -1.2275  1.0445 -1.7350
 2457SOL     OW 8190   1.393   5.282   5.781  0.2034 -0.0768  0.9736
 2457SOL    HW1 8191   1.334   5.263   5.859 -0.2207 -1.3023  0.3725
 2457SOL    HW2 8192   1.366   5.226   5.703  1.1118  0.5566  0.1674
 2458SOL     OW 8193   3.513   5.699   3.837  0.2717  0.0779  0.3496
 2458SOL    HW1 8194   3.499   5.727   3.932 -0.1610  0.2118  0.2562
 2458SOL    HW2 8195   3.495   5.778   3.777  0.7856  0.0641  0.1667
 2459SOL     OW 8196   4.071   4.295   3.069  0.1595 -0.1825 -0.2856
 2459SOL    HW1 8197   4.113   4.325   3.154  1.4376 -2.2653 -0.1406
 2459SOL    HW2 8198   3.988   4.244   3.088  0.1497 -0.1836 -0.3247
 2460SOL     OW 8199   3.837   4.604   1.066  0.0117  0.4536 -0.2381
 2460SOL    HW1 8200   3.857   4.588   0.969  0.8103 -0.1199  0.0064
 2460SOL    HW2 8201   3.872   4.694   1.093  2.9836 -0.7615  0.3286
 2461SOL     OW 8202   0.626   1.919   5.268  0.0955  0.0584  0.1435
 2461SOL    HW1 8203   0.592   2.013   5.262 -1.5398 -0.5958 -2.5823
 2461SOL    HW2 8204   0.697   1.905   5.199  0.3454 -0.7113  0.5530
 2462SOL     OW 8205   1.005   5.375   2.715 -0.2088 -0.0098 -0.4935
 2462SOL    HW1 8206   1.066   5.448   2.745  0.3675 -0.1376 -1.3184
 2462SOL    HW2 8207   1.045   5.286   2.739  0.4466 -0.1321 -1.8953
 2463SOL     OW 8208   4.802   3.795   1.786  0.0306 -0.2447 -0.4811
 2463SOL    HW1 8209   4.777   3.704   1.753 -1.4030  0.2316 -0.7929
 2463SOL    HW2 8210   4.888   3.823   1.743  1.7787 -2.3603  1.3930
 2464SOL     OW 8211   1.475   4.540   2.327  0.3805  0.4146 -0.0030
 2464SOL    HW1 8212   1.501   4.567   2.419 -0.3199  2.8363 -0.4328
 2464SOL    HW2 8213   1.517   4.452   2.304  2.2972  0.7962  1.8070
 2465SOL     OW 8214   4.286   4.417   0.388 -0.3428  0.2436  0.6854
 2465SOL    HW1 8215   4.302   4.322   0.415 -0.0128  0.1081  0.0514
 2465SOL    HW2 8216   4.198   4.447   0.424 -0.4979 -0.3419  0.8277
 2466SOL     OW 8217   0.818   6.234   2.208 -0.5354 -0.1087 -0.1856
 2466SOL    HW1 8218   0.770   6.148   2.227  0.4215 -1.0325 -1.6520
 2466SOL    HW2 8219   0.784   6.273   2.122  0.1560  0.0982 -0.3729
 2467SOL     OW 8220   3.886   0.196   2.946  0.4093  0.2208  0.2097
 2467SOL    HW1 8221   3.874   0.240   2.857  0.1355 -0.4182 -0.0790
 2467SOL    HW2 8222   3.806   0.212   3.003 -1.9147 -3.6414 -1.5400
 2468SOL     OW 8223   3.669   3.142   4.992 -0.2939 -0.1460  0.3559
 2468SOL    HW1 8224   3.682   3.219   4.930 -0.6155  0.2370  0.7650
 2468SOL    HW2 8225   3.628   3.174   5.077  1.4336 -0.4083  1.3435
 2469SOL     OW 8226   3.093   6.565   3.796  0.0650  0.0485  0.1354
 2469SOL    HW1 8227   3.096   6.588   3.699  1.7397  0.6084  0.3083
 2469SOL    HW2 8228   3.028   6.626   3.842  0.1860  0.6136 -0.4235
 2470SOL     OW 8229   2.557   0.581   4.790  0.6161  0.0087  0.3517
 2470SOL    HW1 8230   2.488   0.538   4.731  1.6149 -0.5158 -0.4439
 2470SOL    HW2 8231   2.541   0.680   4.793 -0.9715 -0.2270  1.2420
 2471SOL     OW 8232   1.241   6.324   4.580  0.4695  0.1086 -0.1638
 2471SOL    HW1 8233   1.327   6.345   4.533  1.4483 -2.0718  0.5525
 2471SOL    HW2 8234   1.189   6.259   4.525  0.3250 -0.3001  0.4512
 2472SOL     OW 8235   1.627   2.857   0.655  0.7736  0.0900  0.1740
 2472SOL    HW1 8236   1.642   2.790   0.727 -1.1332  0.3510  0.8703
 2472SOL    HW2 8237   1.617   2.948   0.695  0.5434  0.3635 -0.4908
 2473SOL     OW 8238   1.116   3.188   4.191 -0.4185  0.0456  0.2539
 2473SOL    HW1 8239   1.051   3.113   4.196  0.1762 -0.4316  0.9181
 2473SOL    HW2 8240   1.185   3.169   4.121 -0.2743 -0.0283  0.4136
 2474SOL     OW 8241   3.128   4.089   0.187  0.6436 -0.1580  0.1253
 2474SOL    HW1 8242   3.200   4.152   0.157  0.2507 -0.7572 -2.2405
 2474SOL    HW2 8243   3.141   4.068   0.283  1.3637  2.7426  0.7420
 2475SOL     OW 8244   5.022   3.761   4.723 -0.2423 -0.0447 -0.1997
 2475SOL    HW1 8245   4.952   3.811   4.672  1.0268  1.5656 -0.4321
 2475SOL    HW2 8246   5.015   3.664   4.702 -3.2476 -0.1520  0.8179
 2476SOL     OW 8247   1.131   2.916   3.217  0.7163  0.5120  0.0294
 2476SOL    HW1 8248   1.122   2.819   3.238 -0.0767  0.5718  0.0156
 2476SOL    HW2 8249   1.040   2.954   3.196  1.1747  0.9599 -1.2369
 2477SOL     OW 8250   2.174   5.171   6.076  0.1665 -0.1113  0.7751
 2477SOL    HW1 8251   2.231   5.097   6.112  0.9033 -0.5124 -1.1340
 2477SOL    HW2 8252   2.078   5.144   6.081  0.3847 -0.9195  0.7305
 2478SOL     OW 8253   5.053   0.153   1.367  0.0804  0.2288  0.0878
 2478SOL    HW1 8254   4.954   0.165   1.360 -0.4181 -1.1430  3.0369
 2478SOL    HW2 8255   5.080   0.072   1.316  0.0914  1.5993 -2.2765
 2479SOL     OW 8256   4.743   5.641   4.798 -0.4963 -0.1463 -0.6121
 2479SOL    HW1 8257   4.823   5.701   4.799  0.5766 -1.5520 -0.3792
 2479SOL    HW2 8258   4.723   5.610   4.891 -0.9327 -0.3047 -0.7538
 2480SOL     OW 8259   2.063   5.506   1.908 -0.2087  0.4601 -0.2103
 2480SOL    HW1 8260   2.077   5.438   1.836 -0.0116  1.1342 -0.8237
 2480SOL    HW2 8261   2.054   5.460   1.996  0.4195 -0.3274 -0.5477
 2481SOL     OW 8262   4.556   2.013   5.734 -0.1519 -0.5974 -0.1240
 2481SOL    HW1 8263   4.545   1.993   5.637  3.7279 -1.0497 -0.5904
 2481SOL    HW2 8264   4.570   1.927   5.784 -1.1539 -0.2832  0.7461
 2482SOL     OW 8265   6.120   2.417   0.210  0.2170 -0.3520  0.7529
 2482SOL    HW1 8266   6.075   2.425   0.299  0.6790 -1.5104  1.1039
 2482SOL    HW2 8267   6.181   2.496   0.197 -1.5846  1.0454  0.4332
 2483SOL     OW 8268   2.947   5.786   2.091 -0.0138 -0.4131 -0.7820
 2483SOL    HW1 8269   2.982   5.844   2.164 -0.8353 -0.9786  0.0844
 2483SOL    HW2 8270   3.020   5.766   2.026  0.7549  0.0115 -0.0659
 2484SOL     OW 8271   2.057   4.230   0.203  0.4808  0.2323 -0.5213
 2484SOL    HW1 8272   2.102   4.146   0.174  1.7312 -0.4036  2.7676
 2484SOL    HW2 8273   2.099   4.309   0.157  0.3399 -0.7541 -2.4548
 2485SOL     OW 8274   5.892   4.191   5.819  0.0204  0.1755  0.0641
 2485SOL    HW1 8275   5.917   4.246   5.739 -0.9036  1.2267  0.4571
 2485SOL    HW2 8276   5.924   4.237   5.902 -2.1462  0.9666  0.5062
 2486SOL     OW 8277   6.289   3.756   3.140  0.0468  0.2251  0.4204
 2486SOL    HW1 8278   6.348   3.689   3.093 -1.7110 -1.3211  0.2866
 2486SOL    HW2 8279   6.227   3.798   3.075 -0.9504 -0.3339  0.9791
 2487SOL     OW 8280   4.636   3.576   1.252  0.3511  0.3648 -0.1986
 2487SOL    HW1 8281   4.634   3.476   1.256  3.1905  0.1263 -1.6012
 2487SOL    HW2 8282   4.642   3.613   1.344  0.9726 -0.9081  0.3153
 2488SOL     OW 8283   3.800   6.051   3.475 -0.2527  0.0135 -0.2830
 2488SOL    HW1 8284   3.759   6.085   3.560 -0.6761 -0.6392 -0.2128
 2488SOL    HW2 8285   3.798   6.123   3.407 -2.9962 -0.4058 -0.7829
 2489SOL     OW 8286   6.368   6.230   5.471 -0.0943  0.4385 -0.0037
 2489SOL    HW1 8287   6.455   6.182   5.479 -0.9997 -1.1566  0.6930
 2489SOL    HW2 8288   6.375   6.319   5.516  0.9984  0.0804  0.5838
 2490SOL     OW 8289   0.481   3.159   5.869  0.3992  0.1462  0.0990
 2490SOL    HW1 8290   0.553   3.102   5.910 -0.2596 -0.0616  1.0032
 2490SOL    HW2 8291   0.447   3.223   5.937 -0.9976 -0.4768  0.0124
 2491SOL     OW 8292   4.560   2.132   2.799 -0.4031  0.0961 -0.4244
 2491SOL    HW1 8293   4.537   2.108   2.893 -1.0408  0.0855 -0.5766
 2491SOL    HW2 8294   4.619   2.061   2.760 -2.0580 -1.1331 -0.7939
 2492SOL     OW 8295   5.460   0.056   2.116  0.4286  0.1906 -0.2666
 2492SOL    HW1 8296   5.377   0.098   2.079  0.8082  1.0710 -0.1466
 2492SOL    HW2 8297   5.521   0.128   2.150  0.5316 -0.5349  1.1467
 2493SOL     OW 8298   2.577   6.384   4.624  0.5736 -0.1871 -0.6463
 2493SOL    HW1 8299   2.535   6.296   4.601 -0.5076  0.0592  0.2776
 2493SOL    HW2 8300   2.506   6.454   4.630  1.0001  0.1425  1.4434
 2494SOL     OW 8301   3.743   0.551   5.943  0.2112 -0.7209  0.2518
 2494SOL    HW1 8302   3.716   0.596   6.028 -0.2026 -1.1284  0.3421
 2494SOL    HW2 8303   3.668   0.494   5.910 -0.5063  1.1143 -1.5769
 2495SOL     OW 8304   5.987   1.756   4.247 -0.1007 -0.1783  0.3443
 2495SOL    HW1 8305   6.035   1.668   4.244 -0.0179 -0.2181  1.9085
 2495SOL    HW2 8306   5.978   1.792   4.154  0.1051 -1.6979 -0.2944
 2496SOL     OW 8307   3.518   6.002   1.497 -0.0071 -0.1862  0.2098
 2496SOL    HW1 8308   3.446   5.978   1.432 -1.7888  0.6452  1.7807
 2496SOL    HW2 8309   3.586   6.060   1.451 -0.5568 -0.5848 -1.1767
 2497SOL     OW 8310   1.468   3.084   6.456  0.1637  0.3748 -0.4023
 2497SOL    HW1 8311   1.520   3.050   6.377  1.7619 -2.0016  1.5527
 2497SOL    HW2 8312   1.456   3.183   6.447  2.9152  0.6480 -2.1724
 2498SOL     OW 8313   4.916   6.572   2.974 -0.2865  0.0525  0.2681
 2498SOL    HW1 8314   4.993   6.603   2.917  0.0824  2.1440  1.7730
 2498SOL    HW2 8315   4.833   6.620   2.947 -0.8391 -1.2969 -0.5343
 2499SOL     OW 8316   5.474   2.601   2.635 -0.9628 -0.0700 -0.0504
 2499SOL    HW1 8317   5.409   2.533   2.600 -0.1988 -0.1843 -1.3417
 2499SOL    HW2 8318   5.445   2.632   2.725 -1.3327 -2.0998  0.5715
 2500SOL     OW 8319   2.538   6.593   2.518  0.0888 -0.2405  0.0000
 2500SOL    HW1 8320   2.627   6.550   2.528  0.3012  0.0114 -0.7707
 2500SOL    HW2 8321   2.496   6.605   2.608  0.8572 -0.3003  0.3669
 2501SOL     OW 8322   3.408   4.646   1.801 -0.5727 -0.2929 -0.0437
 2501SOL    HW1 8323   3.480   4.708   1.769 -0.9088 -0.5189 -1.2860
 2501SOL    HW2 8324   3.433   4.552   1.778  0.0773 -0.7010  2.0890
 2502SOL     OW 8325   2.719   5.471   4.733 -0.0307 -0.1960  0.0898
 2502SOL    HW1 8326   2.739   5.471   4.635  0.5730  0.5196  0.1997
 2502SOL    HW2 8327   2.759   5.390   4.776  0.2172 -0.2044 -0.1580
 2503SOL     OW 8328   6.324   2.309   6.575  0.1263 -0.0094  0.6769
 2503SOL    HW1 8329   6.259   2.238   6.550  0.8412 -0.2221 -0.6413
 2503SOL    HW2 8330   6.283   2.399   6.557  1.0995 -0.1283 -2.8287
 2504SOL     OW 8331   2.736   2.404   0.094  0.1565  1.3404 -0.5393
 2504SOL    HW1 8332   2.792   2.377   0.016  1.7643  1.4155  0.5408
 2504SOL    HW2 8333   2.678   2.327   0.122  2.2298  0.0491  0.4257
 2505SOL     OW 8334   1.808   2.939   1.995  0.0599  0.3704  0.5441
 2505SOL    HW1 8335   1.712   2.967   1.990  0.2777  1.0207 -0.2018
 2505SOL    HW2 8336   1.862   2.993   1.931  0.8191 -0.4556  0.4579
 2506SOL     OW 8337   3.507   6.297   2.550 -0.3893 -0.0656 -0.2163
 2506SOL    HW1 8338   3.471   6.230   2.614  1.0523 -1.1845 -0.5183
 2506SOL    HW2 8339   3.592   6.336   2.587  0.7440 -1.0869 -1.5946
 2507SOL     OW 8340   0.291   4.514   1.483  0.6818 -0.1184 -0.0310
 2507SOL    HW1 8341   0.318   4.443   1.418 -0.7404 -0.3340 -0.4114
 2507SOL    HW2 8342   0.276   4.600   1.435 -1.5149 -0.5495 -0.2460
 2508SOL     OW 8343   4.959   3.413   2.741 -0.2001 -0.3005  0.4483
 2508SOL    HW1 8344   4.890   3.382   2.676  0.8125 -0.5516 -0.5287
 2508SOL    HW2 8345   5.015   3.335   2.769 -0.5201 -0.1641  1.5083
 2509SOL     OW 8346   1.801   2.991   1.562  0.7502  0.3474  0.1670
 2509SOL    HW1 8347   1.746   2.923   1.610  0.2155  0.0009 -0.8805
 2509SOL    HW2 8348   1.779   2.988   1.464  1.4471  1.3464 -0.0401
 2510SOL     OW 8349   6.581   5.339   2.406  0.4032 -0.2534  0.1050
 2510SOL    HW1 8350   6.666   5.288   2.397  1.2826  1.0311  0.8044
 2510SOL    HW2 8351   6.579   5.384   2.495 -0.7500  0.1935 -0.1368
 2511SOL     OW 8352   2.074   5.953   5.135  1.0203 -0.4912 -0.8058
 2511SOL    HW1 8353   2.167   5.986   5.154  0.1484  1.7604 -0.1139
 2511SOL    HW2 8354   2.024   5.945   5.222  0.5385 -1.6252 -1.1801
 2512SOL     OW 8355   6.110   2.027   6.967 -0.4646  0.0546  0.0673
 2512SOL    HW1 8356   6.031   1.967   6.982 -0.6035  0.2604  0.1755
 2512SOL    HW2 8357   6.184   1.976   6.924 -0.9183  0.0388 -0.6978
 2513SOL     OW 8358   4.891   0.628   4.051  0.2858 -0.0334 -0.2501
 2513SOL    HW1 8359   4.981   0.673   4.043  0.2167  0.1435 -0.0607
 2513SOL    HW2 8360   4.879   0.597   4.145  0.6221 -1.0651 -0.5357
 2514SOL     OW 8361   5.831   4.358   2.396  0.5894  0.0558 -0.2528
 2514SOL    HW1 8362   5.920   4.402   2.411 -0.0714  1.1810  0.5906
 2514SOL    HW2 8363   5.791   4.334   2.485 -0.0135 -0.3142 -0.6163
 2515SOL     OW 8364   0.470   1.197   3.366 -0.1886  0.2220 -0.2320
 2515SOL    HW1 8365   0.489   1.177   3.462  1.7832  0.5109 -0.5194
 2515SOL    HW2 8366   0.387   1.252   3.359 -1.1796 -1.0028  1.1664
 2516SOL     OW 8367   2.509   1.114   4.635 -0.1217  0.3343  0.5255
 2516SOL    HW1 8368   2.464   1.122   4.546 -1.4297  1.9207  1.2715
 2516SOL    HW2 8369   2.601   1.153   4.629  0.3535 -0.8633 -0.4594
 2517SOL     OW 8370   1.680   6.869   3.089 -0.0734  0.2343 -0.4378
 2517SOL    HW1 8371   1.621   6.787   3.085 -0.4499  0.3149  1.9928
 2517SOL    HW2 8372   1.631   6.946   3.049 -1.3798  0.1257  0.8561
 2518SOL     OW 8373   6.854   3.077   0.693 -0.5264  0.1556 -0.6233
 2518SOL    HW1 8374   6.774   3.032   0.652 -0.1574 -1.1603  0.0491
 2518SOL    HW2 8375   6.827   3.164   0.733 -1.1148  1.0111 -2.7150
 2519SOL     OW 8376   3.285   5.560   1.256  0.0769 -0.5307 -0.0724
 2519SOL    HW1 8377   3.246   5.532   1.344 -0.3646  0.5585  0.0960
 2519SOL    HW2 8378   3.213   5.559   1.186  0.0268  0.2703 -0.0383
 2520SOL     OW 8379   5.716   2.816   5.815  0.3341 -0.4768 -0.4184
 2520SOL    HW1 8380   5.700   2.880   5.741 -0.8798 -0.1673  0.0924
 2520SOL    HW2 8381   5.629   2.777   5.845  0.6058  0.5127  1.8310
 2521SOL     OW 8382   0.678   3.529   4.686 -0.2637  0.2757  0.5748
 2521SOL    HW1 8383   0.731   3.587   4.624  0.2568 -0.7942  0.0032
 2521SOL    HW2 8384   0.629   3.460   4.634  0.5578 -0.9436  1.3671
 2522SOL     OW 8385   6.577   4.536   2.917  0.2896 -0.5338  0.1532
 2522SOL    HW1 8386   6.530   4.507   3.001 -1.9964  0.0804 -0.8308
 2522SOL    HW2 8387   6.510   4.545   2.843  1.8189  1.5130 -1.0758
 2523SOL     OW 8388   5.726   1.831   6.303 -0.3280 -0.3479 -0.4480
 2523SOL    HW1 8389   5.695   1.888   6.227 -2.7859  1.3912  1.7090
 2523SOL    HW2 8390   5.768   1.889   6.373 -1.7638 -1.3009  1.2763
 2524SOL     OW 8391   5.215   5.396   3.963 -0.0755 -0.1489  0.0688
 2524SOL    HW1 8392   5.172   5.316   3.920 -0.8704 -0.4664  1.4081
 2524SOL    HW2 8393   5.252   5.370   4.052 -1.3631  1.2005  1.0482
 2525SOL     OW 8394   6.906   1.497   5.408 -0.7564  0.3507 -0.0585
 2525SOL    HW1 8395   6.975   1.522   5.340 -0.8912  0.8711 -0.0106
 2525SOL    HW2 8396   6.849   1.423   5.372  1.6453 -2.1701  1.0266
 2526SOL     OW 8397   3.372   1.568   1.331  0.8271 -0.2870 -0.4675
 2526SOL    HW1 8398   3.359   1.470   1.346 -1.0605 -0.0295 -0.1176
 2526SOL    HW2 8399   3.326   1.618   1.404  2.0556  0.8580 -0.4630
 2527SOL     OW 8400   6.593   0.341   0.587 -0.1390 -0.0913 -0.5128
 2527SOL    HW1 8401   6.542   0.423   0.561 -1.2380 -0.8335 -0.8089
 2527SOL    HW2 8402   6.677   0.335   0.534 -0.8715 -0.0073 -1.7336
 2528SOL     OW 8403   1.306   1.399   6.184  0.7672 -0.3652  0.1469
 2528SOL    HW1 8404   1.310   1.493   6.151  0.2267  0.3643  2.0283
 2528SOL    HW2 8405   1.296   1.399   6.283  0.6354 -2.4199  0.1770
 2529SOL     OW 8406   1.963   5.930   4.034 -0.1529  0.0147  0.0333
 2529SOL    HW1 8407   1.897   5.999   4.066  0.6800  0.0952  1.6692
 2529SOL    HW2 8408   1.964   5.929   3.934 -2.6157  0.0203 -0.0587
 2530SOL     OW 8409   0.506   0.780   6.747  0.1156  0.4219 -0.1170
 2530SOL    HW1 8410   0.447   0.787   6.827 -0.4428 -1.8699 -0.2760
 2530SOL    HW2 8411   0.570   0.704   6.758  1.3873  1.3219 -1.0050
 2531SOL     OW 8412   4.585   0.218   3.041  0.5888  0.2674 -0.1329
 2531SOL    HW1 8413   4.659   0.198   3.106  1.0312  1.1306 -0.3546
 2531SOL    HW2 8414   4.516   0.275   3.086  0.3764  0.0040 -0.1209
 2532SOL     OW 8415   4.921   0.362   5.314  0.1146 -0.2248  0.3205
 2532SOL    HW1 8416   4.897   0.352   5.218  1.4383  4.1108 -0.7159
 2532SOL    HW2 8417   5.019   0.381   5.322 -0.3330  1.7505  2.1965
 2533SOL     OW 8418   5.777   6.298   6.603 -0.2793  0.0766  0.6338
 2533SOL    HW1 8419   5.710   6.350   6.657 -0.1972  3.1112 -1.8924
 2533SOL    HW2 8420   5.861   6.287   6.657 -0.6876  1.7296  1.6882
 2534SOL     OW 8421   4.164   6.240   6.297 -0.2991  0.4834 -0.0749
 2534SOL    HW1 8422   4.073   6.245   6.257 -1.0304  0.3233  1.4655
 2534SOL    HW2 8423   4.205   6.331   6.300 -0.4238  0.5620 -0.7295
 2535SOL     OW 8424   4.690   0.765   4.529  0.2184  0.0876 -0.1409
 2535SOL    HW1 8425   4.593   0.747   4.543  0.3590 -0.7652 -0.2349
 2535SOL    HW2 8426   4.701   0.846   4.471 -0.5072 -1.4843 -2.6053
 2536SOL     OW 8427   6.421   5.377   0.524  0.1735  0.3950 -0.5325
 2536SOL    HW1 8428   6.438   5.388   0.426  1.1173  2.5094 -0.1982
 2536SOL    HW2 8429   6.507   5.390   0.574 -0.2991 -0.6309  0.5883
 2537SOL     OW 8430   4.451   6.738   2.083 -0.1884  0.4513 -0.7792
 2537SOL    HW1 8431   4.485   6.673   2.152 -0.0469  1.3271 -0.0026
 2537SOL    HW2 8432   4.515   6.743   2.007 -0.7340 -1.1373 -1.4016
 2538SOL     OW 8433   2.490   6.545   1.371  0.1672  0.0493  0.8099
 2538SOL    HW1 8434   2.583   6.510   1.383  0.3821  0.9451  1.9267
 2538SOL    HW2 8435   2.424   6.477   1.402  0.4209 -0.6732 -0.1758
 2539SOL     OW 8436   1.208   6.606   4.193 -0.0212  0.4284  0.5937
 2539SOL    HW1 8437   1.124   6.607   4.139 -0.9806 -0.4995  2.0147
 2539SOL    HW2 8438   1.208   6.682   4.258 -0.5509 -0.4997  1.7139
 2540SOL     OW 8439   5.762   2.064   3.372  0.1990 -0.3831  0.4634
 2540SOL    HW1 8440   5.699   2.117   3.314  1.5936 -0.5373 -1.2608
 2540SOL    HW2 8441   5.800   2.124   3.443 -0.7023  0.1047  0.5457
 2541SOL     OW 8442   2.193   0.688   6.233  0.4715  0.1279  0.1900
 2541SOL    HW1 8443   2.246   0.754   6.179  0.3667 -1.5789 -2.1773
 2541SOL    HW2 8444   2.108   0.667   6.184  0.7414 -2.0948  0.6077
 2542SOL     OW 8445   0.189   5.222   0.453  0.1120  0.6799 -0.1787
 2542SOL    HW1 8446   0.168   5.316   0.426  0.5895  0.2238 -2.2463
 2542SOL    HW2 8447   0.114   5.162   0.425 -0.2093  0.4188  1.1660
 2543SOL     OW 8448   3.741   0.047   1.011 -0.4676  0.0465 -0.0871
 2543SOL    HW1 8449   3.646   0.019   0.999 -0.9389  2.0475 -1.7120
 2543SOL    HW2 8450   3.777   0.080   0.923  1.4764  0.0871  0.6648
 2544SOL     OW 8451   4.332   1.353   5.526  0.4510 -0.1521 -0.1921
 2544SOL    HW1 8452   4.327   1.324   5.622 -1.3492 -1.9583 -0.7945
 2544SOL    HW2 8453   4.386   1.286   5.474  1.8929  1.1000 -0.4019
 2545SOL     OW 8454   1.450   6.900   0.700  0.0791  0.1857  0.4277
 2545SOL    HW1 8455   1.549   6.896   0.689  0.0071 -0.7167 -0.0318
 2545SOL    HW2 8456   1.425   6.865   0.790  0.0581 -1.4673 -0.1912
 2546SOL     OW 8457   1.224   4.444   2.342 -0.6257  0.2838 -0.1760
 2546SOL    HW1 8458   1.316   4.482   2.330 -0.2064 -0.9865 -1.1592
 2546SOL    HW2 8459   1.164   4.515   2.380  0.2746  1.7097 -1.2693
 2547SOL     OW 8460   1.810   0.272   1.696  0.1307  0.9408  0.3190
 2547SOL    HW1 8461   1.844   0.323   1.775  1.3248  0.5801  0.0637
 2547SOL    HW2 8462   1.784   0.180   1.725  0.1374  0.9521  0.3646
 2548SOL     OW 8463   1.582   5.528   4.777  0.3618 -0.1135 -0.0559
 2548SOL    HW1 8464   1.628   5.507   4.690  0.1063  2.7465 -0.9711
 2548SOL    HW2 8465   1.502   5.585   4.759 -0.5564 -0.6702  1.9877
 2549SOL     OW 8466   1.277   6.184   6.835  0.2750  0.4238 -0.2973
 2549SOL    HW1 8467   1.281   6.116   6.909  0.2030  0.6249 -0.1054
 2549SOL    HW2 8468   1.189   6.178   6.788  0.6032 -0.2015 -0.8446
 2550SOL     OW 8469   4.664   4.080   3.305  0.5301  0.2567 -0.2229
 2550SOL    HW1 8470   4.646   3.994   3.256  1.5218  0.0540 -0.2508
 2550SOL    HW2 8471   4.722   4.139   3.249  0.3045  0.7215  0.0240
 2551SOL     OW 8472   1.599   6.845   2.616  0.6850 -0.0227  0.0828
 2551SOL    HW1 8473   1.679   6.896   2.647  0.9272 -0.5162  0.2785
 2551SOL    HW2 8474   1.606   6.750   2.646 -0.4505  0.1507  0.9502
 2552SOL     OW 8475   1.419   1.941   4.145  0.2814 -0.1950  0.1541
 2552SOL    HW1 8476   1.327   1.905   4.159 -0.2845  1.2702  0.4220
 2552SOL    HW2 8477   1.458   1.901   4.062  0.6646 -3.1724  1.6268
 2553SOL     OW 8478   6.678   5.879   3.086  0.3539 -0.2804  0.1461
 2553SOL    HW1 8479   6.657   5.920   2.998  1.7725 -2.7544 -1.4779
 2553SOL    HW2 8480   6.776   5.884   3.103  0.5417 -2.4894  0.0380
 2554SOL     OW 8481   0.678   4.784   5.809 -0.2241 -0.2427 -0.2464
 2554SOL    HW1 8482   0.734   4.706   5.836 -0.3193 -0.7312 -1.3651
 2554SOL    HW2 8483   0.663   4.843   5.888 -0.4509 -1.5296  0.7264
 2555SOL     OW 8484   4.218   6.208   3.326 -0.6875  0.0080  0.2221
 2555SOL    HW1 8485   4.304   6.164   3.350 -0.5122  0.1295 -0.1700
 2555SOL    HW2 8486   4.184   6.260   3.404 -0.1782  0.3182  0.2438
 2556SOL     OW 8487   5.746   6.788   0.449 -0.2786  0.1163  0.6840
 2556SOL    HW1 8488   5.788   6.705   0.487  1.0871  1.7469  2.9533
 2556SOL    HW2 8489   5.663   6.810   0.499 -0.4277  0.3301  0.3469
 2557SOL     OW 8490   1.298   5.627   2.104 -0.6326  0.4860 -0.1954
 2557SOL    HW1 8491   1.286   5.699   2.173  1.7326  1.3629 -0.6093
 2557SOL    HW2 8492   1.330   5.668   2.019 -0.5032 -0.9221 -0.8540
 2558SOL     OW 8493   4.892   1.758   0.209 -0.2661 -1.0876 -0.0629
 2558SOL    HW1 8494   4.930   1.666   0.214  2.4956 -0.1364 -0.8538
 2558SOL    HW2 8495   4.862   1.776   0.115  1.3680 -0.5295 -0.5362
 2559SOL     OW 8496   3.515   6.058   4.123  0.2217  0.0716  0.5293
 2559SOL    HW1 8497   3.466   6.145   4.123  0.0405  0.0158 -1.2632
 2559SOL    HW2 8498   3.612   6.073   4.142  0.4287  0.8525 -0.9993
 2560SOL     OW 8499   4.833   1.812   6.948 -0.2161 -0.1400  0.0851
 2560SOL    HW1 8500   4.788   1.738   6.899 -1.4099  0.3675  0.3844
 2560SOL    HW2 8501   4.791   1.899   6.922 -1.2447  0.1092  2.3457
 2561SOL     OW 8502   4.449   4.558   6.567  0.1552 -0.2019  0.0987
 2561SOL    HW1 8503   4.524   4.605   6.521  1.5051 -2.5671 -0.2882
 2561SOL    HW2 8504   4.382   4.526   6.500 -0.2469  0.2861  0.2598
 2562SOL     OW 8505   6.770   0.380   4.839 -0.0463  0.2473  0.3393
 2562SOL    HW1 8506   6.711   0.457   4.815 -0.1630  0.2931  0.7498
 2562SOL    HW2 8507   6.801   0.391   4.934  3.0229  1.7830 -0.7020
 2563SOL     OW 8508   3.376   0.578   5.270  0.1088  0.1813 -0.3755
 2563SOL    HW1 8509   3.445   0.522   5.315  1.6643  0.3656 -2.3565
 2563SOL    HW2 8510   3.287   0.533   5.276  0.9750 -1.5865 -0.3493
 2564SOL     OW 8511   1.972   2.265   5.645 -0.2797  0.2796  0.1432
 2564SOL    HW1 8512   1.906   2.336   5.622 -1.2608 -0.7518 -0.3352
 2564SOL    HW2 8513   1.962   2.188   5.582 -0.1005 -0.8048  1.3773
 2565SOL     OW 8514   2.753   0.818   6.818  0.3394  0.5457  0.0800
 2565SOL    HW1 8515   2.849   0.828   6.790  0.4767  1.1861  0.7124
 2565SOL    HW2 8516   2.729   0.894   6.878 -0.6142  0.4615 -0.1827
 2566SOL     OW 8517   5.441   1.488   5.372 -0.1032 -0.2433 -0.3453
 2566SOL    HW1 8518   5.401   1.504   5.282 -0.0997 -0.7886 -0.4487
 2566SOL    HW2 8519   5.522   1.429   5.362 -0.9383 -1.5062  0.1555
 2567SOL     OW 8520   6.827   4.022   2.314  0.7744  0.5730 -0.0994
 2567SOL    HW1 8521   6.865   3.987   2.229  1.6872 -1.0591  0.9224
 2567SOL    HW2 8522   6.852   4.118   2.325  2.6433  0.1906 -0.5945
 2568SOL     OW 8523   3.518   6.170   4.806  0.4052  0.3252  0.7896
 2568SOL    HW1 8524   3.542   6.087   4.756 -1.8683 -0.2995  0.6371
 2568SOL    HW2 8525   3.477   6.237   4.744 -1.2822  0.0362  1.5373
 2569SOL     OW 8526   0.664   1.815   0.898  0.0166  0.1192 -0.0319
 2569SOL    HW1 8527   0.741   1.854   0.848  0.9108  0.0692  1.2517
 2569SOL    HW2 8528   0.615   1.751   0.839  2.0426 -1.2166 -0.3816
 2570SOL     OW 8529   6.052   3.427   2.629  0.4831 -0.0353  0.2474
 2570SOL    HW1 8530   6.104   3.345   2.607 -0.2808 -0.2785 -0.7031
 2570SOL    HW2 8531   6.115   3.503   2.648  1.1749 -0.4398 -0.4214
 2571SOL     OW 8532   5.663   2.427   1.950  0.3813 -0.2280 -0.5929
 2571SOL    HW1 8533   5.696   2.466   2.036  0.9972 -0.2632 -0.8043
 2571SOL    HW2 8534   5.736   2.371   1.910 -0.0516 -0.5592 -0.9233
 2572SOL     OW 8535   0.592   3.933   3.012  0.1652  0.1441  0.1463
 2572SOL    HW1 8536   0.580   3.854   2.952  2.4897  1.0404 -1.6876
 2572SOL    HW2 8537   0.641   3.905   3.095  1.7431 -0.2408 -0.8698
 2573SOL     OW 8538   6.786   0.182   6.062 -0.2306 -0.2202  0.3520
 2573SOL    HW1 8539   6.701   0.138   6.032 -1.3058 -0.9824  3.9809
 2573SOL    HW2 8540   6.776   0.281   6.056 -1.4353 -0.2962  0.8033
 2574SOL     OW 8541   1.002   3.613   6.166  0.0731  0.0241 -0.0050
 2574SOL    HW1 8542   1.075   3.551   6.138 -0.5013  0.8043 -3.6325
 2574SOL    HW2 8543   0.989   3.684   6.097 -4.0118  0.0261  0.5336
 2575SOL     OW 8544   0.239   5.789   1.954 -0.5784  0.2722 -0.2306
 2575SOL    HW1 8545   0.232   5.692   1.932 -0.1856 -0.1079  1.2596
 2575SOL    HW2 8546   0.310   5.831   1.898  0.2456 -0.6221  0.1242
 2576SOL     OW 8547   4.052   1.219   1.272 -0.2848  0.6289 -0.5499
 2576SOL    HW1 8548   3.986   1.150   1.303  0.9106 -0.0692  0.5431
 2576SOL    HW2 8549   4.108   1.181   1.198  1.3117 -0.1403  0.9855
 2577SOL     OW 8550   6.646   1.827   3.981 -0.4746 -0.2077  0.9092
 2577SOL    HW1 8551   6.576   1.756   3.991 -0.4092 -0.3550  0.3743
 2577SOL    HW2 8552   6.654   1.877   4.067 -1.2845 -0.1501  0.9607
 2578SOL     OW 8553   5.260   6.689   1.900  0.0026 -0.2517  0.0910
 2578SOL    HW1 8554   5.184   6.643   1.853  1.2656 -1.1246 -1.1790
 2578SOL    HW2 8555   5.347   6.654   1.865  1.0304 -0.2389  2.4404
 2579SOL     OW 8556   5.576   6.256   2.114  0.0178  0.0417  0.0233
 2579SOL    HW1 8557   5.605   6.267   2.209  2.3639 -2.3863 -0.2882
 2579SOL    HW2 8558   5.553   6.160   2.097 -0.2082  0.3906 -1.8775
 2580SOL     OW 8559   3.115   1.215   5.272  0.0343  0.0497  0.7938
 2580SOL    HW1 8560   3.200   1.170   5.299  0.0454 -1.3928 -1.4043
 2580SOL    HW2 8561   3.037   1.166   5.311  0.1479  0.0394  1.0071
 2581SOL     OW 8562   0.357   6.379   1.063 -0.1322 -0.1267  0.3026
 2581SOL    HW1 8563   0.438   6.430   1.092  0.4615  0.1522 -1.7094
 2581SOL    HW2 8564   0.380   6.281   1.059  0.4233  0.0368 -1.1435
 2582SOL     OW 8565   0.405   1.374   5.763 -0.1861 -0.4216  0.1262
 2582SOL    HW1 8566   0.443   1.346   5.851 -0.0576 -1.5324 -0.2709
 2582SOL    HW2 8567   0.310   1.404   5.775  0.3795  1.2199  0.9230
 2583SOL     OW 8568   4.951   3.899   3.207  0.7566 -0.5117 -0.6983
 2583SOL    HW1 8569   4.996   3.811   3.196 -1.5659 -1.9288  0.5200
 2583SOL    HW2 8570   4.870   3.903   3.148  0.7075  0.7302 -0.5680
 2584SOL     OW 8571   1.196   3.252   2.988 -0.4456 -0.4556 -0.0473
 2584SOL    HW1 8572   1.256   3.226   3.064 -0.8773 -0.5812  0.2542
 2584SOL    HW2 8573   1.145   3.335   3.013 -1.5891 -1.2442  0.3494
 2585SOL     OW 8574   2.880   3.755   1.102  0.1433  0.0472 -0.3204
 2585SOL    HW1 8575   2.861   3.849   1.131  1.1193  0.7870 -1.9676
 2585SOL    HW2 8576   2.971   3.750   1.062  1.2528 -2.2104  2.2151
 2586SOL     OW 8577   5.210   2.172   0.138  0.1053  0.5120 -0.0614
 2586SOL    HW1 8578   5.147   2.117   0.193 -0.7827  1.5671  0.0104
 2586SOL    HW2 8579   5.170   2.188   0.048  0.4359  0.8807 -0.1433
 2587SOL     OW 8580   5.299   4.761   0.853 -0.6957  0.2524  0.0808
 2587SOL    HW1 8581   5.348   4.697   0.912 -0.4059  1.8651  1.6467
 2587SOL    HW2 8582   5.227   4.712   0.805  0.9689 -1.7006 -0.5404
 2588SOL     OW 8583   5.628   5.383   0.589  0.0957 -0.5863 -0.5044
 2588SOL    HW1 8584   5.542   5.381   0.538 -0.0529  0.8996 -0.3474
 2588SOL    HW2 8585   5.616   5.437   0.672  1.0088 -0.8839 -0.1768
 2589SOL     OW 8586   0.779   1.064   3.557  0.3746 -0.1323 -0.8075
 2589SOL    HW1 8587   0.761   0.995   3.486 -0.6978 -0.3401 -0.3534
 2589SOL    HW2 8588   0.723   1.043   3.638 -1.3344  2.2585 -1.2833
 2590SOL     OW 8589   1.479   0.412   3.565 -0.3224 -0.2726 -0.3139
 2590SOL    HW1 8590   1.461   0.450   3.656  0.0542 -1.6187  0.3515
 2590SOL    HW2 8591   1.574   0.381   3.561 -0.8325 -1.8787 -0.5226
 2591SOL     OW 8592   5.268   4.113   3.810  0.1422  0.5332 -0.4137
 2591SOL    HW1 8593   5.179   4.066   3.810  0.2923  0.2487 -0.2123
 2591SOL    HW2 8594   5.277   4.168   3.893  0.3876  0.1159 -0.1598
 2592SOL     OW 8595   3.083   4.727   5.860 -0.0825  0.3029 -0.2474
 2592SOL    HW1 8596   3.012   4.752   5.794 -1.5492 -0.3218  1.0140
 2592SOL    HW2 8597   3.172   4.724   5.814 -0.8212  1.2494 -1.8559
 2593SOL     OW 8598   1.507   5.097   0.562  0.0903 -0.7551  0.3433
 2593SOL    HW1 8599   1.530   5.189   0.528 -0.2874 -0.2072  1.5326
 2593SOL    HW2 8600   1.423   5.066   0.518  0.0733 -0.4207  0.1305
 2594SOL     OW 8601   4.249   1.687   0.513 -0.2717 -0.0645  0.5990
 2594SOL    HW1 8602   4.343   1.653   0.515  0.5530  2.0746  0.9440
 2594SOL    HW2 8603   4.186   1.611   0.530  1.4396 -1.2850  1.9046
 2595SOL     OW 8604   0.600   1.917   6.861  0.2214 -0.7421  0.3358
 2595SOL    HW1 8605   0.520   1.977   6.870  0.4948 -0.3710  0.3540
 2595SOL    HW2 8606   0.659   1.950   6.787 -0.2760 -1.7639 -0.5301
 2596SOL     OW 8607   3.070   6.869   2.403 -0.2459 -0.0794  0.4009
 2596SOL    HW1 8608   3.066   6.949   2.462 -0.1600 -0.1695  0.5298
 2596SOL    HW2 8609   3.138   6.884   2.332 -0.3802  0.0466  0.2989
 2597SOL     OW 8610   3.473   3.564   2.501 -0.1155  0.1041 -0.1407
 2597SOL    HW1 8611   3.492   3.634   2.570 -0.8273 -1.8913  2.2263
 2597SOL    HW2 8612   3.383   3.580   2.461 -0.8959 -0.1824  1.4103
 2598SOL     OW 8613   5.950   4.482   3.214 -0.1591  0.5086 -0.0917
 2598SOL    HW1 8614   5.962   4.403   3.154 -0.1428  1.0299 -0.7812
 2598SOL    HW2 8615   5.954   4.452   3.309  0.5046 -0.2315 -0.3398
 2599SOL     OW 8616   2.030   0.086   4.013 -0.2957 -0.0978  1.1968
 2599SOL    HW1 8617   2.059   0.035   4.094 -1.2921 -0.2805  1.4488
 2599SOL    HW2 8618   1.985   0.024   3.948  1.0271 -0.0786  0.2031
 2600SOL     OW 8619   4.046   6.715   2.469 -0.0034 -0.1242 -0.1884
 2600SOL    HW1 8620   4.117   6.645   2.457 -0.6825 -0.8550  0.0191
 2600SOL    HW2 8621   4.061   6.787   2.401  2.1842  0.8035  1.1668
 2601SOL     OW 8622   5.969   3.423   3.436 -0.0264  0.4445 -0.6641
 2601SOL    HW1 8623   5.974   3.323   3.437 -1.3027  0.3613 -0.2747
 2601SOL    HW2 8624   5.995   3.458   3.525 -2.5352  0.2243  0.2499
 2602SOL     OW 8625   1.524   0.714   1.231  0.3487 -0.4260  0.0221
 2602SOL    HW1 8626   1.566   0.754   1.150 -0.3313  0.3787  0.0535
 2602SOL    HW2 8627   1.595   0.694   1.299  0.6785  1.0253  0.1290
 2603SOL     OW 8628   5.875   6.875   2.269  0.5720 -0.4457 -0.0478
 2603SOL    HW1 8629   5.809   6.875   2.194 -2.1781  2.3185  2.0510
 2603SOL    HW2 8630   5.957   6.925   2.242 -0.4934  0.7670 -1.1905
 2604SOL     OW 8631   4.816   2.945   2.988  0.1158 -0.1712  0.6094
 2604SOL    HW1 8632   4.777   2.856   2.962 -1.2659  0.8003 -0.8192
 2604SOL    HW2 8633   4.878   2.976   2.916  0.8885 -0.1245  1.2820
 2605SOL     OW 8634   6.025   3.901   5.558 -0.4261  0.1730  0.2311
 2605SOL    HW1 8635   6.066   3.818   5.596 -1.7043 -0.1707  0.9319
 2605SOL    HW2 8636   5.941   3.923   5.608 -1.4709  0.4704 -1.5411
 2606SOL     OW 8637   6.487   0.092   5.746  0.2185  0.5543 -0.4550
 2606SOL    HW1 8638   6.409   0.125   5.693 -1.1962  0.0475  1.2474
 2606SOL    HW2 8639   6.495  -0.007   5.736  0.4084  0.5530 -0.2910
 2607SOL     OW 8640   6.080   3.755   4.076  0.1858 -0.6257  0.0946
 2607SOL    HW1 8641   6.032   3.775   4.162  1.2133  1.3142  0.3022
 2607SOL    HW2 8642   6.130   3.669   4.084 -0.0143 -0.6422  1.3250
 2608SOL     OW 8643   6.240   6.062   5.746  0.2474 -0.3808 -0.2304
 2608SOL    HW1 8644   6.227   6.042   5.649  0.8658 -0.4481 -0.3046
 2608SOL    HW2 8645   6.208   6.155   5.765  2.1519  0.4713 -0.9716
 2609SOL     OW 8646   1.473   2.606   2.967  0.2585  0.2832 -0.3367
 2609SOL    HW1 8647   1.565   2.623   3.001  0.9543 -0.2484 -1.8732
 2609SOL    HW2 8648   1.421   2.691   2.967  0.3350  0.3870  1.5926
 2610SOL     OW 8649   3.540   4.267   6.068  0.0126  0.6420 -0.3736
 2610SOL    HW1 8650   3.449   4.235   6.096  1.0641 -2.3594 -0.0030
 2610SOL    HW2 8651   3.578   4.204   6.000  1.3923  2.4821 -1.4153
 2611SOL     OW 8652   3.626   6.781   2.369 -0.5727  0.0633  0.8105
 2611SOL    HW1 8653   3.702   6.832   2.329 -1.3484 -0.0553 -0.9611
 2611SOL    HW2 8654   3.540   6.830   2.352 -1.1862 -1.1528  0.2379
 2612SOL     OW 8655   5.463   3.749   2.353 -0.4326  0.2425 -0.3289
 2612SOL    HW1 8656   5.487   3.655   2.329  1.3403  0.1905  1.3998
 2612SOL    HW2 8657   5.374   3.751   2.398  0.1116 -0.8050  0.8352
 2613SOL     OW 8658   5.799   4.077   1.292 -0.1641  0.1721  0.2727
 2613SOL    HW1 8659   5.740   4.146   1.250 -0.5152  0.0713  0.5940
 2613SOL    HW2 8660   5.780   4.072   1.390 -0.4366 -0.6750  0.1861
 2614SOL     OW 8661   1.136   0.162   2.107  0.3243 -0.8133 -0.1366
 2614SOL    HW1 8662   1.223   0.166   2.059  1.2569 -2.6671  1.2848
 2614SOL    HW2 8663   1.119   0.250   2.152  1.1535 -0.2401 -0.9091
 2615SOL     OW 8664   3.492   6.251   1.811 -0.2742  0.2290  0.2488
 2615SOL    HW1 8665   3.494   6.304   1.896  1.4956 -0.3326  0.6006
 2615SOL    HW2 8666   3.545   6.167   1.823 -0.7823 -0.3107 -1.1330
 2616SOL     OW 8667   3.168   6.535   1.853 -0.3396  0.5503 -0.1228
 2616SOL    HW1 8668   3.086   6.583   1.881 -1.0355 -1.4073  1.4906
 2616SOL    HW2 8669   3.214   6.498   1.934  0.3037 -1.2043 -1.2244
 2617SOL     OW 8670   5.037   1.698   0.716 -0.4902 -0.0841  0.1983
 2617SOL    HW1 8671   4.962   1.710   0.781 -0.9019 -1.1341 -0.0664
 2617SOL    HW2 8672   5.040   1.775   0.653 -2.5384 -0.8874 -0.9748
 2618SOL     OW 8673   2.777   0.492   4.674  0.2382 -0.4734  0.2750
 2618SOL    HW1 8674   2.836   0.561   4.631  0.8614 -1.5107 -0.5926
 2618SOL    HW2 8675   2.691   0.534   4.701  0.7263  0.7226  0.0580
 2619SOL     OW 8676   6.625   4.935   0.596 -0.1365 -0.3762  0.5788
 2619SOL    HW1 8677   6.559   4.879   0.646  0.1450 -0.4874  0.8319
 2619SOL    HW2 8678   6.714   4.931   0.642  0.3042 -1.0201 -0.2984
 2620SOL     OW 8679   2.115   2.079   1.885 -0.4252 -0.0945 -0.2095
 2620SOL    HW1 8680   2.087   1.984   1.895  0.8859 -0.9216 -3.1084
 2620SOL    HW2 8681   2.215   2.085   1.893 -0.3885  0.8237 -1.2328
 2621SOL     OW 8682   3.807   6.449   1.340 -0.3954  0.1859 -0.1209
 2621SOL    HW1 8683   3.814   6.496   1.428  2.2129  1.1347 -0.7132
 2621SOL    HW2 8684   3.720   6.471   1.297 -0.6855  1.7230  1.1204
 2622SOL     OW 8685   2.769   4.192   5.860  0.1048  0.3039  0.2200
 2622SOL    HW1 8686   2.746   4.273   5.806  1.2318  1.0343  0.7898
 2622SOL    HW2 8687   2.832   4.218   5.934  1.3793 -1.2861 -0.2617
 2623SOL     OW 8688   2.450   0.330   3.982  0.0575 -1.0411 -0.0981
 2623SOL    HW1 8689   2.364   0.371   3.952 -0.4887 -0.3866  2.1399
 2623SOL    HW2 8690   2.527   0.387   3.952 -0.2860 -1.4042 -1.7441
 2624SOL     OW 8691   2.856   5.484   4.193  0.0935  0.1450 -0.1302
 2624SOL    HW1 8692   2.945   5.528   4.203 -0.3772  1.2930 -0.8470
 2624SOL    HW2 8693   2.829   5.484   4.096 -0.5434 -0.4807  0.0331
 2625SOL     OW 8694   1.732   0.976   5.217  0.0313  0.2289 -0.0732
 2625SOL    HW1 8695   1.651   0.986   5.275  0.8705 -0.4741  1.2803
 2625SOL    HW2 8696   1.812   1.011   5.266  0.7574 -0.3047 -0.8582
 2626SOL     OW 8697   2.729   5.933   0.535  0.1393  0.3520 -0.1583
 2626SOL    HW1 8698   2.659   5.870   0.569  0.4217  2.3091  4.7493
 2626SOL    HW2 8699   2.686   6.006   0.482 -1.0546 -0.2530 -0.0537
 2627SOL     OW 8700   0.452   3.859   4.942 -0.4702 -0.0798 -0.1758
 2627SOL    HW1 8701   0.357   3.862   4.975 -0.5696 -2.3403 -0.1051
 2627SOL    HW2 8702   0.512   3.895   5.013 -1.1596  0.0735  0.3470
 2628SOL     OW 8703   2.249   3.750   5.602  0.1034 -0.2893 -0.1040
 2628SOL    HW1 8704   2.279   3.655   5.611  0.6175 -0.3110 -1.6582
 2628SOL    HW2 8705   2.230   3.769   5.505 -1.7048  0.7014  0.4101
 2629SOL     OW 8706   2.884   5.862   3.666  0.0477  0.0406 -0.3459
 2629SOL    HW1 8707   2.807   5.925   3.653 -0.7021 -0.5098  1.2356
 2629SOL    HW2 8708   2.970   5.914   3.661 -0.5419  1.2176  0.8569
 2630SOL     OW 8709   6.017   6.546   1.004  0.1352 -0.6588  0.0408
 2630SOL    HW1 8710   6.025   6.559   0.905  1.8666  1.0183  0.3417
 2630SOL    HW2 8711   5.922   6.528   1.027 -0.8619  1.8319 -1.6812
 2631SOL     OW 8712   4.160   3.921   5.903 -0.2491 -0.2370 -0.2871
 2631SOL    HW1 8713   4.138   3.944   5.998  0.4895  0.0330 -0.1762
 2631SOL    HW2 8714   4.076   3.898   5.854 -0.8376  1.1844  0.0098
 2632SOL     OW 8715   1.945   0.441   1.509 -0.3433  0.3918  0.6000
 2632SOL    HW1 8716   1.896   0.386   1.577  1.2233 -2.5232 -0.4367
 2632SOL    HW2 8717   2.040   0.452   1.538 -0.1331  0.7614 -0.2094
 2633SOL     OW 8718   3.694   3.664   4.850  0.2245  0.1255 -0.2099
 2633SOL    HW1 8719   3.692   3.576   4.803 -0.9813 -0.6524  1.1752
 2633SOL    HW2 8720   3.619   3.721   4.817  0.2505  0.1461 -0.2348
 2634SOL     OW 8721   2.903   0.425   0.435 -0.2114  0.1550  0.2629
 2634SOL    HW1 8722   2.947   0.514   0.441 -0.5568  0.4067 -0.7304
 2634SOL    HW2 8723   2.954   0.359   0.490  1.7159  0.3392 -1.1755
 2635SOL     OW 8724   0.158   3.260   6.727 -0.1542 -0.0224 -0.1044
 2635SOL    HW1 8725   0.080   3.268   6.666 -1.2160 -0.9702  1.0731
 2635SOL    HW2 8726   0.179   3.349   6.767  1.2164  0.8604 -2.5448
 2636SOL     OW 8727   0.310   2.075   6.063  0.0551 -0.3857 -0.0947
 2636SOL    HW1 8728   0.398   2.106   6.098  0.0138  0.9837 -1.1519
 2636SOL    HW2 8729   0.308   1.975   6.062  0.8728 -0.4720  1.6872
 2637SOL     OW 8730   1.643   1.979   4.673  0.0233 -0.1601 -0.1129
 2637SOL    HW1 8731   1.568   2.044   4.690  0.6884  0.3930  0.7898
 2637SOL    HW2 8732   1.655   1.922   4.754  0.3381 -0.5000 -0.4001
 2638SOL     OW 8733   1.004   2.259   0.381 -0.1425  0.0008 -0.2508
 2638SOL    HW1 8734   1.047   2.300   0.301  0.1517  0.7450  0.2790
 2638SOL    HW2 8735   0.942   2.325   0.424  0.0144 -0.2467  0.3708
 2639SOL     OW 8736   5.473   3.846   2.099 -0.2401  0.3648  0.3087
 2639SOL    HW1 8737   5.483   3.825   2.196 -0.7623 -0.9432  0.0869
 2639SOL    HW2 8738   5.498   3.942   2.083  1.1858  0.2352  1.5113
 2640SOL     OW 8739   3.851   5.063   6.467 -0.0912  0.0818 -0.0799
 2640SOL    HW1 8740   3.937   5.102   6.434  0.2016 -0.2020  0.3481
 2640SOL    HW2 8741   3.793   5.137   6.502  0.2887  0.1845  0.3403
 2641SOL     OW 8742   3.161   2.931   6.645 -0.5039  0.6402 -0.2163
 2641SOL    HW1 8743   3.105   2.983   6.581  0.0386  2.2321  0.5495
 2641SOL    HW2 8744   3.203   2.994   6.711  0.4504 -0.7509  0.5442
 2642SOL     OW 8745   2.728   0.796   1.734  0.5579 -0.4454  0.9186
 2642SOL    HW1 8746   2.702   0.873   1.791 -0.2077 -1.7864  2.4711
 2642SOL    HW2 8747   2.771   0.829   1.650  0.2157  1.6383  1.5143
 2643SOL     OW 8748   4.880   4.895   0.709  0.0519  0.0304  0.1649
 2643SOL    HW1 8749   4.959   4.954   0.725 -0.9142  1.5987 -0.5944
 2643SOL    HW2 8750   4.834   4.877   0.796  0.6906 -0.1155  0.4819
 2644SOL     OW 8751   4.741   1.508   0.357  0.2587 -0.1665  0.5286
 2644SOL    HW1 8752   4.840   1.509   0.342  0.0036  1.7449 -1.4425
 2644SOL    HW2 8753   4.697   1.455   0.285 -0.2278 -0.1635  0.8215
 2645SOL     OW 8754   4.345   0.757   3.212  0.4564  0.0292  0.1638
 2645SOL    HW1 8755   4.404   0.791   3.139  0.2060  0.8110  0.3049
 2645SOL    HW2 8756   4.401   0.718   3.285  0.7511 -0.1181 -0.1422
 2646SOL     OW 8757   5.585   5.936   4.746 -0.4644 -0.5607  0.1694
 2646SOL    HW1 8758   5.635   5.918   4.831 -1.1544  0.2782  0.7740
 2646SOL    HW2 8759   5.505   5.994   4.766 -1.8334 -2.0722 -0.7033
 2647SOL     OW 8760   0.015   4.419   1.631  0.1045  0.2151 -0.7867
 2647SOL    HW1 8761  -0.008   4.395   1.537 -1.3657 -1.4178 -0.0509
 2647SOL    HW2 8762   0.059   4.341   1.676  0.0303  0.6819  0.1378
 2648SOL     OW 8763   2.498   1.024   4.117 -0.0440 -0.1215 -0.2220
 2648SOL    HW1 8764   2.487   0.993   4.211 -0.2403 -0.2147 -0.2739
 2648SOL    HW2 8765   2.430   1.093   4.096 -0.1201 -0.2358 -0.3543
 2649SOL     OW 8766   6.478   6.906   0.716 -0.0783  0.2239 -0.4891
 2649SOL    HW1 8767   6.442   6.999   0.716  1.0148  0.6913 -2.4673
 2649SOL    HW2 8768   6.438   6.854   0.640  1.7532  0.1400 -1.4744
 2650SOL     OW 8769   0.410   1.949   4.309 -0.0346  0.5559  0.4730
 2650SOL    HW1 8770   0.478   1.879   4.284 -0.0534  0.4482  0.7042
 2650SOL    HW2 8771   0.439   2.038   4.274 -1.3453  0.0379 -2.1805
 2651SOL     OW 8772   6.806   5.420   6.904  0.1878  0.6586  0.3890
 2651SOL    HW1 8773   6.832   5.466   6.989  0.1929  2.3040 -0.4793
 2651SOL    HW2 8774   6.706   5.418   6.897  0.1690  2.7119 -0.6679
 2652SOL     OW 8775   2.269   2.005   4.655 -0.0123 -0.1462 -0.1538
 2652SOL    HW1 8776   2.173   1.983   4.674  0.3824 -0.9451  1.1082
 2652SOL    HW2 8777   2.293   1.975   4.563 -0.8877 -0.2778 -0.3443
 2653SOL     OW 8778   2.954   6.312   6.848  0.1977 -0.2114  0.5909
 2653SOL    HW1 8779   2.883   6.279   6.787  0.2327 -0.1170  0.4978
 2653SOL    HW2 8780   3.032   6.346   6.794  0.5746 -0.8956  0.7025
 2654SOL     OW 8781   5.644   6.790   5.100  0.2667 -0.8196 -0.8813
 2654SOL    HW1 8782   5.712   6.860   5.077 -1.2540  1.8810  1.9788
 2654SOL    HW2 8783   5.649   6.771   5.198 -3.4113 -0.0002 -0.3974
 2655SOL     OW 8784   4.148   2.018   1.429 -0.3655  0.4501 -0.1006
 2655SOL    HW1 8785   4.203   1.967   1.362 -1.0699 -0.1923 -0.2002
 2655SOL    HW2 8786   4.081   2.074   1.381 -0.8662 -0.0049  0.0543
 2656SOL     OW 8787   2.677   3.673   3.418 -0.0415 -0.1156 -0.4523
 2656SOL    HW1 8788   2.724   3.698   3.503  0.9688  0.2076 -1.0657
 2656SOL    HW2 8789   2.630   3.586   3.430 -0.8050  0.4296  0.7398
 2657SOL     OW 8790   1.710   3.138   1.316  0.2502  0.3386 -0.4045
 2657SOL    HW1 8791   1.790   3.190   1.344  0.2826 -0.7333  1.6590
 2657SOL    HW2 8792   1.735   3.072   1.245  0.8261  1.1135 -0.9327
 2658SOL     OW 8793   1.359   3.050   0.347 -0.4229  0.4501 -0.1503
 2658SOL    HW1 8794   1.353   3.008   0.438  2.7965  1.5580  0.7236
 2658SOL    HW2 8795   1.413   2.991   0.287  0.0115  1.0969 -0.4058
 2659SOL     OW 8796   6.059   2.899   3.472 -0.2856  0.2444  0.2514
 2659SOL    HW1 8797   6.152   2.865   3.485 -0.6794  0.1955  3.5846
 2659SOL    HW2 8798   6.004   2.829   3.427  1.5182  0.8147 -3.1826
 2660SOL     OW 8799   2.173   3.454   0.870 -0.7038 -0.4198 -0.2384
 2660SOL    HW1 8800   2.114   3.529   0.839  0.9360 -0.0597 -2.8183
 2660SOL    HW2 8801   2.133   3.366   0.842 -0.5335 -0.2347 -1.0979
 2661SOL     OW 8802   6.786   6.403   3.413  0.3827 -0.0070  0.3886
 2661SOL    HW1 8803   6.804   6.415   3.316 -0.2283  4.2137  0.5956
 2661SOL    HW2 8804   6.695   6.362   3.425  0.6187 -0.9163 -0.7980
 2662SOL     OW 8805   2.850   3.288   1.600 -0.1078 -0.1647 -0.6757
 2662SOL    HW1 8806   2.832   3.223   1.526  1.3512  0.8296 -1.9933
 2662SOL    HW2 8807   2.920   3.250   1.661 -0.4506 -0.4972 -0.4870
 2663SOL     OW 8808   6.662   5.678   1.224 -0.2182 -0.1571  0.1341
 2663SOL    HW1 8809   6.648   5.599   1.284 -1.1817 -1.4461 -1.6935
 2663SOL    HW2 8810   6.573   5.714   1.195  0.1791 -0.6639 -1.8587
 2664SOL     OW 8811   5.236   0.939   4.409 -0.1430 -0.4449  0.6598
 2664SOL    HW1 8812   5.196   0.872   4.346  0.4508  1.6040 -2.0722
 2664SOL    HW2 8813   5.335   0.941   4.396  0.0332 -0.2215  1.9643
 2665SOL     OW 8814   2.175   3.858   1.604  0.6951  0.6882  0.6626
 2665SOL    HW1 8815   2.264   3.901   1.619  0.3977  1.1230  1.1716
 2665SOL    HW2 8816   2.103   3.912   1.647  0.0102  1.0869 -0.9062
 2666SOL     OW 8817   4.165   4.052   3.460 -0.2787  0.7293 -0.0647
 2666SOL    HW1 8818   4.202   4.052   3.367  0.8211  0.3422  0.3531
 2666SOL    HW2 8819   4.110   3.969   3.474 -0.8365  1.0171 -0.5062
 2667SOL     OW 8820   3.215   0.952   4.628  0.2537 -0.6029  0.0599
 2667SOL    HW1 8821   3.210   1.001   4.715  2.8190 -2.3737  1.3572
 2667SOL    HW2 8822   3.276   1.000   4.566 -0.4221 -0.1011 -0.2263
 2668SOL     OW 8823   7.001   2.808   2.031  0.1241 -0.1871  0.0849
 2668SOL    HW1 8824   7.087   2.823   2.078  0.2969 -0.3385 -0.2147
 2668SOL    HW2 8825   7.012   2.826   1.933 -0.0088 -0.8270 -0.0583
 2669SOL     OW 8826   0.372   1.383   4.155 -1.1780 -0.3576 -0.4448
 2669SOL    HW1 8827   0.374   1.468   4.207  3.1313  0.2718 -1.2821
 2669SOL    HW2 8828   0.289   1.332   4.178 -2.4911  2.6341  2.2883
 2670SOL     OW 8829   0.619   4.824   2.878 -0.0966  0.3432 -0.3307
 2670SOL    HW1 8830   0.683   4.894   2.910  2.3384 -1.6268 -0.5819
 2670SOL    HW2 8831   0.581   4.777   2.957  0.1829  0.3241 -0.2040
 2671SOL     OW 8832   5.022   1.947   1.212 -0.3546 -0.1184  0.0927
 2671SOL    HW1 8833   5.066   1.954   1.123 -0.6412  0.3467 -0.0168
 2671SOL    HW2 8834   4.930   1.988   1.207 -0.3666 -0.0780  0.5986
 2672SOL     OW 8835   3.889   6.914   3.783  0.1485  0.4306  0.0555
 2672SOL    HW1 8836   3.930   6.823   3.776  0.5365  0.7429 -2.5145
 2672SOL    HW2 8837   3.790   6.905   3.794  0.4851 -0.2887  3.3254
 2673SOL     OW 8838   3.124   1.321   5.784  0.2796  0.6329  0.5750
 2673SOL    HW1 8839   3.181   1.247   5.746 -1.3772 -1.5899  2.1147
 2673SOL    HW2 8840   3.079   1.369   5.710  1.0821 -0.1982 -0.4976
 2674SOL     OW 8841   3.659   5.672   5.246 -0.3023 -0.1495 -0.7545
 2674SOL    HW1 8842   3.564   5.642   5.239 -0.9423  0.9456  2.0042
 2674SOL    HW2 8843   3.695   5.645   5.335  0.9913  2.0503 -0.5477
 2675SOL     OW 8844   6.747   4.405   1.002  0.0238  0.7783  0.0648
 2675SOL    HW1 8845   6.788   4.476   0.945 -2.1634  1.2066 -1.0918
 2675SOL    HW2 8846   6.777   4.416   1.096 -0.3337  3.3884 -0.0483
 2676SOL     OW 8847   6.403   3.259   5.715 -0.3383  0.0196  0.0211
 2676SOL    HW1 8848   6.319   3.290   5.759 -0.8067  0.3857 -1.0825
 2676SOL    HW2 8849   6.381   3.195   5.642  0.3328  0.1928 -0.3454
 2677SOL     OW 8850   1.855   6.531   0.592  0.1329 -0.2564  0.2812
 2677SOL    HW1 8851   1.892   6.551   0.501  0.4773  0.9370  0.6534
 2677SOL    HW2 8852   1.919   6.472   0.642  1.5599  1.6666  0.8674
 2678SOL     OW 8853   3.637   2.391   5.532  0.3303  0.2337 -0.0240
 2678SOL    HW1 8854   3.547   2.434   5.532  0.6261  0.8726 -0.4685
 2678SOL    HW2 8855   3.706   2.457   5.561  0.9021  0.3408 -1.5307
 2679SOL     OW 8856   6.720   4.420   6.763 -0.5580 -0.3119  0.0354
 2679SOL    HW1 8857   6.748   4.347   6.824  1.2587 -0.2301 -0.6155
 2679SOL    HW2 8858   6.642   4.469   6.801 -2.0046 -2.7184  0.3551
 2680SOL     OW 8859   3.913   2.036   4.833 -0.2281 -0.3622 -0.4468
 2680SOL    HW1 8860   3.921   2.006   4.737 -0.7333  2.2431 -1.3766
 2680SOL    HW2 8861   3.983   2.105   4.852 -0.6431 -0.2763  0.8282
 2681SOL     OW 8862   0.992   5.411   4.864  0.7334 -0.4005 -0.0119
 2681SOL    HW1 8863   1.082   5.456   4.868 -0.1649  1.4638  0.3721
 2681SOL    HW2 8864   0.931   5.465   4.806 -0.4082 -1.1498  0.4687
 2682SOL     OW 8865   2.440   4.550   3.479 -0.0337 -0.3460  0.1979
 2682SOL    HW1 8866   2.453   4.646   3.506 -0.6047  0.3956 -1.8938
 2682SOL    HW2 8867   2.458   4.490   3.557  0.7357  1.4318  1.4593
 2683SOL     OW 8868   3.744   0.848   6.559  0.4183 -0.2661  0.3957
 2683SOL    HW1 8869   3.666   0.838   6.620 -1.5000  1.2995 -1.6698
 2683SOL    HW2 8870   3.778   0.757   6.533 -0.8976 -0.9731  1.0947
 2684SOL     OW 8871   4.688   2.157   6.477  0.1219  0.5548 -0.2763
 2684SOL    HW1 8872   4.653   2.243   6.439  2.5839  1.1006 -1.4803
 2684SOL    HW2 8873   4.679   2.085   6.408 -4.7501 -1.1532  1.6727
 2685SOL     OW 8874   3.890   2.476   0.232  0.1519  0.0702  0.8632
 2685SOL    HW1 8875   3.937   2.523   0.158 -2.7447  0.5302 -0.8382
 2685SOL    HW2 8876   3.864   2.384   0.202  0.4303 -0.3764  1.9501
 2686SOL     OW 8877   4.091   6.757   0.742  0.4548  0.0441 -0.3806
 2686SOL    HW1 8878   4.042   6.671   0.759  0.6751 -0.0215 -0.0616
 2686SOL    HW2 8879   4.139   6.751   0.655  1.3164 -0.5621  0.1138
 2687SOL     OW 8880   2.117   6.874   1.229  0.3655  0.8053 -0.4898
 2687SOL    HW1 8881   2.111   6.974   1.237 -0.3153  0.6244  3.0272
 2687SOL    HW2 8882   2.207   6.844   1.258 -0.0210  0.3258  0.2631
 2688SOL     OW 8883   2.770   2.208   6.376 -0.5434  0.1786  0.3104
 2688SOL    HW1 8884   2.804   2.174   6.289 -3.2280 -1.5654 -0.1766
 2688SOL    HW2 8885   2.816   2.294   6.399  0.8297  0.2515 -2.3624
 2689SOL     OW 8886   0.963   4.666   0.569 -0.1385  0.1416 -0.2916
 2689SOL    HW1 8887   0.943   4.569   0.575  0.4787 -0.0374 -1.0253
 2689SOL    HW2 8888   0.940   4.710   0.656 -0.7739 -0.5820 -0.0800
 2690SOL     OW 8889   2.594   0.401   6.710  0.3743 -0.6010 -0.5808
 2690SOL    HW1 8890   2.656   0.322   6.709  0.8790 -0.2978  1.4564
 2690SOL    HW2 8891   2.622   0.464   6.783  0.2298  1.6883 -2.3895
 2691SOL     OW 8892   1.153   3.741   2.948  0.7909 -0.3579 -0.7423
 2691SOL    HW1 8893   1.208   3.804   3.004  1.3521 -1.5233  0.0684
 2691SOL    HW2 8894   1.214   3.686   2.892  0.3979 -1.0317 -0.5164
 2692SOL     OW 8895   2.199   3.776   5.314  0.4195 -0.4607  0.2249
 2692SOL    HW1 8896   2.240   3.722   5.240 -0.4231 -0.0222 -0.5868
 2692SOL    HW2 8897   2.228   3.871   5.306  0.6695 -0.4913  0.7274
 2693SOL     OW 8898   5.326   5.876   2.807  0.5485  0.1890 -0.1625
 2693SOL    HW1 8899   5.288   5.929   2.731 -0.8336 -0.7670 -0.1645
 2693SOL    HW2 8900   5.423   5.856   2.789  0.3060  0.1901 -1.5631
 2694SOL     OW 8901   4.991   3.163   3.557 -0.0158  0.1995  0.4693
 2694SOL    HW1 8902   4.906   3.148   3.608  0.6874 -1.5626  1.1903
 2694SOL    HW2 8903   5.054   3.218   3.613 -0.0655  0.1276  0.5946
 2695SOL     OW 8904   2.983   6.741   4.987  0.0842 -0.2953 -0.5926
 2695SOL    HW1 8905   2.945   6.727   5.079 -2.4814 -1.2243 -1.6989
 2695SOL    HW2 8906   3.008   6.837   4.976  0.7922 -0.2378  1.1660
 2696SOL     OW 8907   5.847   5.614   1.302 -0.7534  0.0157 -0.5395
 2696SOL    HW1 8908   5.769   5.594   1.243 -0.3751 -2.1109 -0.3918
 2696SOL    HW2 8909   5.892   5.528   1.328 -1.7028  0.6266  3.8974
 2697SOL     OW 8910   6.399   3.242   2.998 -0.5464 -0.2552 -0.7137
 2697SOL    HW1 8911   6.331   3.173   3.023  0.6572 -0.9606  0.7999
 2697SOL    HW2 8912   6.357   3.333   3.001 -1.7625 -0.7701 -1.2513
 2698SOL     OW 8913   3.466   3.368   1.043 -0.1175 -0.3098 -0.2394
 2698SOL    HW1 8914   3.464   3.339   1.138  1.0818 -1.3764 -0.5123
 2698SOL    HW2 8915   3.412   3.304   0.987  1.4403 -1.3477 -0.6448
 2699SOL     OW 8916   0.605   5.990   1.961  0.2663 -0.4361  0.1960
 2699SOL    HW1 8917   0.577   5.914   1.902 -2.6726  1.5089 -1.1475
 2699SOL    HW2 8918   0.580   6.077   1.918  1.5348  1.2428  2.6105
 2700SOL     OW 8919   0.107   0.680   0.272 -0.2022 -0.6595  0.2459
 2700SOL    HW1 8920   0.086   0.770   0.234  1.9168 -0.1129  0.2006
 2700SOL    HW2 8921   0.204   0.659   0.257 -0.6337 -2.9651  0.2549
 2701SOL     OW 8922   4.908   2.685   4.922 -0.1641  0.0768  0.2413
 2701SOL    HW1 8923   4.937   2.750   4.852 -0.7320 -0.3968 -0.4533
 2701SOL    HW2 8924   4.986   2.658   4.977  1.2701 -2.6857 -2.8150
 2702SOL     OW 8925   4.067   0.171   1.819  0.1719  0.0475  0.4059
 2702SOL    HW1 8926   4.006   0.161   1.741  1.6250  2.1930 -1.1481
 2702SOL    HW2 8927   4.047   0.257   1.867  1.1426  0.1832  0.6019
 2703SOL     OW 8928   0.903   5.978   4.380  0.7425  0.5954 -0.0413
 2703SOL    HW1 8929   0.821   6.025   4.413 -3.5110 -5.3602 -0.4047
 2703SOL    HW2 8930   0.896   5.964   4.282  1.5031 -1.1006  0.1154
 2704SOL     OW 8931   5.124   4.343   6.852 -0.3534 -0.5127  0.2274
 2704SOL    HW1 8932   5.131   4.287   6.935  2.9039  1.1024  1.2002
 2704SOL    HW2 8933   5.167   4.295   6.776  3.5475  0.8382  1.3295
 2705SOL     OW 8934   5.195   3.845   3.959 -0.0289 -0.3733  0.3633
 2705SOL    HW1 8935   5.108   3.798   3.971  0.2749 -0.8052  0.9034
 2705SOL    HW2 8936   5.216   3.851   3.861 -1.4529  1.2033  0.1332
 2706SOL     OW 8937   2.773   3.553   6.119 -0.4748 -0.3444 -0.4156
 2706SOL    HW1 8938   2.801   3.559   6.024 -1.8457 -2.4297 -1.0119
 2706SOL    HW2 8939   2.673   3.555   6.125 -0.4785 -2.1046  0.7586
 2707SOL     OW 8940   2.486   6.619   6.266 -0.1435 -0.0531  0.1463
 2707SOL    HW1 8941   2.396   6.577   6.256 -0.6422  0.3473  2.4357
 2707SOL    HW2 8942   2.534   6.617   6.178 -1.6748 -1.8728 -0.7196
 2708SOL     OW 8943   1.329   3.488   3.496 -0.4739  0.5062 -0.1840
 2708SOL    HW1 8944   1.304   3.568   3.440 -0.6768  0.4265 -0.2071
 2708SOL    HW2 8945   1.278   3.408   3.464  0.8728  0.0013 -1.1878
 2709SOL     OW 8946   3.734   5.662   3.501  0.4484  0.4822  0.4919
 2709SOL    HW1 8947   3.654   5.722   3.505  0.3406  0.3776 -0.0263
 2709SOL    HW2 8948   3.745   5.616   3.589  0.1199  0.7350  0.6682
 2710SOL     OW 8949   6.921   5.043   4.916  0.3248  0.1284  0.2086
 2710SOL    HW1 8950   6.990   5.113   4.894  0.0173  0.1454 -0.6323
 2710SOL    HW2 8951   6.834   5.067   4.874  0.5899 -1.4891 -1.3890
 2711SOL     OW 8952   4.283   2.374   5.417  0.5863  0.1429 -0.4235
 2711SOL    HW1 8953   4.188   2.348   5.438  0.9657 -1.0865 -0.1171
 2711SOL    HW2 8954   4.284   2.438   5.340 -0.5646  1.2364  0.4333
 2712SOL     OW 8955   2.867   6.777   4.672  0.6407  0.1286  0.3139
 2712SOL    HW1 8956   2.936   6.771   4.744 -0.2928 -0.4492  1.1811
 2712SOL    HW2 8957   2.903   6.737   4.588  1.1710 -0.7000  0.9140
 2713SOL     OW 8958   1.492   4.508   5.912 -0.0884  0.3001  0.2350
 2713SOL    HW1 8959   1.472   4.567   5.834  1.4296 -1.7910 -1.8640
 2713SOL    HW2 8960   1.567   4.548   5.966  0.2749  0.7406 -0.5815
 2714SOL     OW 8961   5.125   5.095   2.703 -0.1491 -0.0222 -0.3367
 2714SOL    HW1 8962   5.105   5.149   2.621  1.0224  1.0225  0.0377
 2714SOL    HW2 8963   5.195   5.027   2.682 -0.2194 -0.1023 -0.3198
 2715SOL     OW 8964   3.746   1.166   3.126  0.1380 -0.2751  1.0209
 2715SOL    HW1 8965   3.686   1.095   3.164 -0.8834  0.5656  1.0330
 2715SOL    HW2 8966   3.736   1.167   3.026 -2.0345  1.6808  1.1812
 2716SOL     OW 8967   0.489   5.337   1.770  0.3200  0.5121 -0.1931
 2716SOL    HW1 8968   0.487   5.334   1.870 -0.2435  0.8310 -0.1863
 2716SOL    HW2 8969   0.525   5.251   1.735 -0.6895 -0.1171  0.2608
 2717SOL     OW 8970   3.586   2.226   6.042  0.1625 -0.2017 -0.8455
 2717SOL    HW1 8971   3.658   2.253   5.979 -0.5684  0.3710 -1.4425
 2717SOL    HW2 8972   3.542   2.142   6.009  1.0643 -0.9959 -0.0688
 2718SOL     OW 8973   4.570   2.290   1.338 -0.3327  0.4619  0.3551
 2718SOL    HW1 8974   4.667   2.293   1.314  0.3810  1.2517  2.8992
 2718SOL    HW2 8975   4.553   2.213   1.400 -1.5702 -0.2413 -0.8061
 2719SOL     OW 8976   3.789   5.420   4.529  0.1440 -0.0365 -0.5314
 2719SOL    HW1 8977   3.853   5.353   4.492 -0.1511  0.0301 -1.1674
 2719SOL    HW2 8978   3.811   5.438   4.625 -1.1228 -2.7186  0.3584
 2720SOL     OW 8979   2.613   4.224   2.151  0.3447  0.9769 -0.1999
 2720SOL    HW1 8980   2.695   4.273   2.180  0.3461  1.0647 -0.3475
 2720SOL    HW2 8981   2.541   4.234   2.219  0.5044  0.7785  0.0006
 2721SOL     OW 8982   1.545   2.057   0.091  0.2306 -0.3251  0.1123
 2721SOL    HW1 8983   1.473   2.062   0.160 -0.6675  0.5965 -0.8538
 2721SOL    HW2 8984   1.633   2.039   0.136 -0.4443 -0.5048  1.4005
 2722SOL     OW 8985   4.131   6.452   2.286  0.1966  0.1146 -0.0946
 2722SOL    HW1 8986   4.074   6.508   2.226  0.9296  0.7399 -0.2210
 2722SOL    HW2 8987   4.082   6.368   2.310 -0.5365  0.3695 -0.6747
 2723SOL     OW 8988   5.045   3.814   2.289 -0.3050  0.4770 -0.0309
 2723SOL    HW1 8989   5.038   3.853   2.197  3.0997  1.3604 -0.0515
 2723SOL    HW2 8990   5.079   3.720   2.282 -0.3539  0.4293  0.3424
 2724SOL     OW 8991   5.749   2.267   6.960  0.6427  0.0724 -0.2500
 2724SOL    HW1 8992   5.698   2.319   6.891  0.1608 -0.3107 -0.1848
 2724SOL    HW2 8993   5.812   2.328   7.008  0.0425  0.6043 -0.1345
 2725SOL     OW 8994   2.342   3.493   6.409 -0.1667 -0.4730  0.2810
 2725SOL    HW1 8995   2.421   3.520   6.354 -0.0266 -0.2226  0.6015
 2725SOL    HW2 8996   2.350   3.397   6.435  0.4447 -0.2307  1.0017
 2726SOL     OW 8997   5.494   1.578   0.264  0.1201 -0.1591  0.4574
 2726SOL    HW1 8998   5.442   1.614   0.187  0.3509 -1.8364 -0.5324
 2726SOL    HW2 8999   5.431   1.550   0.337 -0.2135 -0.0074  0.2292
 2727SOL     OW 9000   5.165   4.945   0.991  0.8663  0.5235  0.1428
 2727SOL    HW1 9001   5.164   4.897   1.078 -1.7900 -1.4451 -0.8277
 2727SOL    HW2 9002   5.212   4.889   0.923 -1.8397 -0.6639 -0.8876
 2728SOL     OW 9003   6.623   6.166   3.151 -0.3736 -0.2013 -0.2246
 2728SOL    HW1 9004   6.619   6.077   3.195  0.5139 -1.1368 -1.9315
 2728SOL    HW2 9005   6.716   6.202   3.158 -0.3332 -0.1543 -0.8823
 2729SOL     OW 9006   6.608   5.398   1.955 -0.3965  0.1150  0.0503
 2729SOL    HW1 9007   6.616   5.319   1.894  0.2633 -0.3573  0.7270
 2729SOL    HW2 9008   6.670   5.386   2.032  0.1648  1.5978 -0.1521
 2730SOL     OW 9009   1.062   2.225   6.638 -0.0472  0.0175  0.1719
 2730SOL    HW1 9010   1.078   2.204   6.734 -0.8630 -1.0687  0.0896
 2730SOL    HW2 9011   1.125   2.171   6.581  1.8243  2.0941  0.1067
 2731SOL     OW 9012   4.719   5.279   1.252 -0.2124 -0.5059 -0.8632
 2731SOL    HW1 9013   4.703   5.258   1.155 -2.5544 -1.4473 -0.3189
 2731SOL    HW2 9014   4.765   5.202   1.296 -0.5272 -0.6992 -0.8774
 2732SOL     OW 9015   0.569   3.828   5.759 -0.3387 -0.5687 -0.5831
 2732SOL    HW1 9016   0.567   3.892   5.683  2.0071  0.7744  0.3999
 2732SOL    HW2 9017   0.528   3.870   5.840  3.2714  0.8034  0.7338
 2733SOL     OW 9018   4.092   0.362   0.725  0.2226  0.4965 -0.0427
 2733SOL    HW1 9019   4.005   0.378   0.678  0.0684  1.4810  0.5520
 2733SOL    HW2 9020   4.130   0.274   0.696 -0.1288  0.8320 -1.5843
 2734SOL     OW 9021   0.538   1.158   6.289 -0.1378 -0.3561  0.1702
 2734SOL    HW1 9022   0.564   1.066   6.320 -1.9876 -1.1741 -0.4895
 2734SOL    HW2 9023   0.578   1.175   6.199  0.4648 -0.3733  0.4275
 2735SOL     OW 9024   3.818   6.841   4.383 -0.6668 -0.1081  0.5810
 2735SOL    HW1 9025   3.913   6.808   4.391  0.1797  2.0579  0.2467
 2735SOL    HW2 9026   3.785   6.824   4.290 -1.4532 -2.7847  1.2531
 2736SOL     OW 9027   6.194   3.637   4.851 -0.3046 -0.2690 -0.1755
 2736SOL    HW1 9028   6.238   3.547   4.846  1.2056  0.4651 -0.2940
 2736SOL    HW2 9029   6.118   3.632   4.916 -1.4772 -2.1140 -1.5796
 2737SOL     OW 9030   1.121   4.520   0.831  0.5198  0.5069 -0.3508
 2737SOL    HW1 9031   1.078   4.493   0.917 -0.3423  1.4191 -0.4758
 2737SOL    HW2 9032   1.059   4.499   0.755  2.0231 -2.0118 -0.9634
 2738SOL     OW 9033   5.356   6.269   4.634  0.6636 -0.1688  0.3440
 2738SOL    HW1 9034   5.410   6.269   4.718 -0.6621 -0.6559  1.2371
 2738SOL    HW2 9035   5.287   6.342   4.638 -0.4305 -1.1700  0.4022
 2739SOL     OW 9036   3.319   6.186   2.812 -0.1798  0.3756  0.3208
 2739SOL    HW1 9037   3.312   6.114   2.881 -0.9186 -0.4147 -0.5546
 2739SOL    HW2 9038   3.356   6.269   2.854  0.0410 -0.2997  1.4977
 2740SOL     OW 9039   2.979   3.173   4.253 -0.5833 -0.0706  0.1549
 2740SOL    HW1 9040   3.075   3.161   4.229 -1.2020 -1.3553 -2.0915
 2740SOL    HW2 9041   2.953   3.269   4.239  0.6309  0.6040  2.1407
 2741SOL     OW 9042   0.346   3.512   5.061  0.1600 -0.2337 -0.0859
 2741SOL    HW1 9043   0.296   3.491   4.977  2.4141 -1.3988 -1.2192
 2741SOL    HW2 9044   0.439   3.542   5.039 -0.6655  4.6615  1.8078
 2742SOL     OW 9045   3.413   6.825   5.435 -0.2315 -0.1578  0.1223
 2742SOL    HW1 9046   3.381   6.897   5.496  1.5621  0.2600  0.6520
 2742SOL    HW2 9047   3.497   6.786   5.472 -0.0683 -1.1167 -1.1939
 2743SOL     OW 9048   0.605   3.694   2.870  0.4277 -0.1569  0.3779
 2743SOL    HW1 9049   0.527   3.719   2.813  0.3317 -0.1457  0.5150
 2743SOL    HW2 9050   0.687   3.741   2.836  0.5091 -0.6867 -0.1711
 2744SOL     OW 9051   2.437   4.947   1.244  0.6842  0.2430  0.0567
 2744SOL    HW1 9052   2.476   5.009   1.312  0.5513  2.1611 -1.5047
 2744SOL    HW2 9053   2.508   4.923   1.177  0.3067  0.0743 -0.2865
 2745SOL     OW 9054   3.063   6.084   5.119 -0.4125 -0.5041 -0.1079
 2745SOL    HW1 9055   3.013   6.167   5.093 -0.0412 -0.7037 -1.5322
 2745SOL    HW2 9056   3.161   6.102   5.121 -0.3992 -0.6274  0.6987
 2746SOL     OW 9057   3.516   0.430   0.550 -0.0664  0.1620 -0.0961
 2746SOL    HW1 9058   3.451   0.463   0.482 -1.1691  0.3423  0.9990
 2746SOL    HW2 9059   3.573   0.506   0.582 -0.9952  0.5386  0.7050
 2747SOL     OW 9060   0.008   4.254   3.039  0.7396  0.8592  0.5656
 2747SOL    HW1 9061   0.085   4.261   2.975  0.7200  0.9762  0.5839
 2747SOL    HW2 9062  -0.077   4.276   2.991  0.8182  1.6534  0.7559
 2748SOL     OW 9063   5.772   0.509   6.085 -0.2176 -0.2844 -0.1028
 2748SOL    HW1 9064   5.823   0.595   6.082  1.6541 -1.2785  1.0340
 2748SOL    HW2 9065   5.768   0.470   5.993 -2.6947  1.8170 -1.0105
 2749SOL     OW 9066   3.577   3.993   5.831  0.1238 -0.5021  0.0626
 2749SOL    HW1 9067   3.508   3.928   5.864 -0.2769 -1.4944 -2.4884
 2749SOL    HW2 9068   3.565   4.007   5.733  0.9205  2.6316  0.3192
 2750SOL     OW 9069   0.414   2.389   6.562 -0.1649 -0.4422  0.2211
 2750SOL    HW1 9070   0.475   2.324   6.608 -1.4513 -1.2683  0.8182
 2750SOL    HW2 9071   0.331   2.341   6.532 -0.7165  0.7353 -0.1882
 2751SOL     OW 9072   0.385   1.680   5.826 -0.0646  0.4357 -0.0832
 2751SOL    HW1 9073   0.468   1.673   5.770 -0.1645  2.2430 -0.5080
 2751SOL    HW2 9074   0.311   1.629   5.781  0.3662  0.2340 -0.5713
 2752SOL     OW 9075   5.998   0.417   6.616 -0.2830 -0.3623  0.6999
 2752SOL    HW1 9076   6.085   0.427   6.568 -0.9492  0.1987 -0.4632
 2752SOL    HW2 9077   5.996   0.478   6.695 -0.1222  0.6762 -0.0689
 2753SOL     OW 9078   1.996   1.889   0.824 -0.5349 -0.3335 -0.2638
 2753SOL    HW1 9079   1.945   1.876   0.909  0.2992  0.7288  0.4269
 2753SOL    HW2 9080   2.063   1.963   0.837  0.4537 -0.9960 -1.4590
 2754SOL     OW 9081   0.456   0.289   2.667  0.4015  0.1732 -0.3525
 2754SOL    HW1 9082   0.496   0.216   2.610 -0.6054 -1.4126  0.8699
 2754SOL    HW2 9083   0.405   0.247   2.742 -1.4569  2.1314 -0.4297
 2755SOL     OW 9084   6.505   0.030   2.977  0.1032  0.0823  0.3226
 2755SOL    HW1 9085   6.529   0.084   3.058 -0.8502  1.4293 -0.2528
 2755SOL    HW2 9086   6.537   0.077   2.895 -2.7352  1.0086 -0.3402
 2756SOL     OW 9087   1.388   1.862   6.200  0.0892  0.9188  0.1634
 2756SOL    HW1 9088   1.397   1.957   6.230 -0.6623  1.8918 -2.4339
 2756SOL    HW2 9089   1.423   1.853   6.106 -0.4062 -1.2472  0.1402
 2757SOL     OW 9090   3.493   6.000   3.249 -0.0812  0.0944  0.1965
 2757SOL    HW1 9091   3.572   5.939   3.248 -0.8534 -0.9352 -0.8576
 2757SOL    HW2 9092   3.521   6.090   3.213  0.7641 -0.0201  0.5249
 2758SOL     OW 9093   2.577   5.900   2.393  0.5121 -0.6651  0.0745
 2758SOL    HW1 9094   2.594   5.803   2.380  0.0590 -0.6474 -0.7429
 2758SOL    HW2 9095   2.528   5.936   2.314 -2.9664 -0.6369  2.0015
 2759SOL     OW 9096   3.570   4.877   1.737 -0.2240  0.2517 -0.1501
 2759SOL    HW1 9097   3.543   4.945   1.669  0.1552 -0.7770 -1.3638
 2759SOL    HW2 9098   3.549   4.912   1.828  0.5796  2.2941 -0.6805
 2760SOL     OW 9099   4.196   2.511   3.328  0.0659  0.1276  0.2079
 2760SOL    HW1 9100   4.220   2.461   3.411  1.0583 -2.5301 -1.5199
 2760SOL    HW2 9101   4.125   2.461   3.279  1.0991  0.3410 -1.6069
 2761SOL     OW 9102   4.659   6.856   4.649  0.2163 -0.0270  0.3147
 2761SOL    HW1 9103   4.600   6.937   4.654 -0.1526 -0.2632 -0.1635
 2761SOL    HW2 9104   4.718   6.863   4.569 -0.7704 -0.8662 -0.5115
 2762SOL     OW 9105   6.516   0.089   6.023 -0.3234 -0.1165 -0.2012
 2762SOL    HW1 9106   6.485   0.099   5.928 -0.3818  1.1736 -0.0575
 2762SOL    HW2 9107   6.522  -0.008   6.046  0.1724 -0.4406 -1.6852
 2763SOL     OW 9108   6.578   5.403   3.204  0.0039 -0.2268 -0.1197
 2763SOL    HW1 9109   6.483   5.424   3.182 -0.2983 -0.1752  1.1430
 2763SOL    HW2 9110   6.602   5.313   3.167 -1.8891 -2.2294  3.0893
 2764SOL     OW 9111   1.417   0.704   1.777  0.7609  0.2738  0.7145
 2764SOL    HW1 9112   1.504   0.663   1.804  0.5470  0.2556  1.4045
 2764SOL    HW2 9113   1.432   0.768   1.702  0.9637 -1.7774 -1.1022
 2765SOL     OW 9114   0.153   4.523   2.357 -0.4756 -0.1523 -0.6297
 2765SOL    HW1 9115   0.074   4.573   2.321 -0.0716  1.6851  0.9165
 2765SOL    HW2 9116   0.237   4.574   2.338 -0.1343  0.2867  1.7662
 2766SOL     OW 9117   2.338   6.627   3.253 -0.1280 -0.1994 -0.6811
 2766SOL    HW1 9118   2.413   6.674   3.298 -0.5928  0.5372 -0.6478
 2766SOL    HW2 9119   2.326   6.664   3.161 -0.2175 -0.5710 -0.8220
 2767SOL     OW 9120   1.779   0.165   5.287  0.1966  0.2544 -0.6745
 2767SOL    HW1 9121   1.751   0.234   5.354  2.8977 -0.4023  1.2971
 2767SOL    HW2 9122   1.775   0.074   5.329 -2.3572 -0.8022 -2.9243
 2768SOL     OW 9123   0.294   0.578   6.209  0.1428  0.4286 -1.2050
 2768SOL    HW1 9124   0.287   0.561   6.307 -0.6126  0.8788 -1.1712
 2768SOL    HW2 9125   0.363   0.648   6.192  1.5679 -0.9187 -1.1537
 2769SOL     OW 9126   3.957   2.724   1.001  0.0261 -0.3943  0.1754
 2769SOL    HW1 9127   3.878   2.732   0.940  1.0688 -1.2620 -1.3488
 2769SOL    HW2 9128   3.980   2.627   1.012  1.0215 -0.1356  0.4315
 2770SOL     OW 9129   6.553   2.910   5.167  0.2134 -0.3373 -0.3268
 2770SOL    HW1 9130   6.604   2.940   5.248 -1.9713  1.7203  0.4042
 2770SOL    HW2 9131   6.581   2.965   5.088 -0.1453  0.0867 -0.1622
 2771SOL     OW 9132   0.999   2.692   0.318  0.2871  0.1665  0.4522
 2771SOL    HW1 9133   0.958   2.758   0.256  0.0490 -0.0302  0.3999
 2771SOL    HW2 9134   1.088   2.664   0.282 -1.0880 -2.1749 -1.3627
 2772SOL     OW 9135   3.741   1.467   0.604  0.1567  0.3593 -0.4364
 2772SOL    HW1 9136   3.726   1.411   0.522  0.0165 -0.2788  0.0132
 2772SOL    HW2 9137   3.653   1.503   0.636 -0.2513 -1.8495  1.1351
 2773SOL     OW 9138   2.618   5.618   5.159 -0.1221 -0.1152 -0.6682
 2773SOL    HW1 9139   2.711   5.585   5.172  0.9203  2.5148 -0.8294
 2773SOL    HW2 9140   2.567   5.609   5.245  0.8754  0.1485 -0.0348
 2774SOL     OW 9141   0.988   0.420   5.563 -0.1188  0.1624 -0.0010
 2774SOL    HW1 9142   0.950   0.463   5.644  2.0984  1.2934  0.5129
 2774SOL    HW2 9143   0.978   0.321   5.570 -1.9419  0.3598  0.5672
 2775SOL     OW 9144   4.400   5.254   3.957 -0.2937 -0.4395  0.2505
 2775SOL    HW1 9145   4.305   5.222   3.960 -0.6490  0.6248  1.1122
 2775SOL    HW2 9146   4.459   5.181   3.923 -1.2621 -1.5218  0.8090
 2776SOL     OW 9147   0.286   4.569   0.583  0.1290  0.2049  0.2536
 2776SOL    HW1 9148   0.373   4.531   0.554  0.7668  0.5895  1.6044
 2776SOL    HW2 9149   0.276   4.662   0.548 -0.1723 -0.1737 -0.6891
 2777SOL     OW 9150   5.570   0.612   2.533  0.1026 -0.6108  0.2075
 2777SOL    HW1 9151   5.618   0.681   2.588 -0.4047 -1.1259  1.3099
 2777SOL    HW2 9152   5.605   0.521   2.554  2.0500 -0.6246 -2.5448
 2778SOL     OW 9153   1.831   0.681   0.806 -0.6665  0.4811  0.3421
 2778SOL    HW1 9154   1.840   0.582   0.817 -1.0668  0.4898  0.7566
 2778SOL    HW2 9155   1.837   0.705   0.709 -3.4474 -0.2353 -0.0766
 2779SOL     OW 9156   1.370   6.588   6.094  0.2423 -0.7148  0.3222
 2779SOL    HW1 9157   1.314   6.627   6.020  1.7069 -0.5182 -0.7249
 2779SOL    HW2 9158   1.364   6.647   6.175 -0.9999 -0.6737  0.2251
 2780SOL     OW 9159   3.005   5.353   3.502 -0.3063  0.5343  0.5893
 2780SOL    HW1 9160   3.088   5.305   3.472 -0.6398 -0.9191  1.8521
 2780SOL    HW2 9161   3.009   5.369   3.601 -0.7508  2.0949  0.3913
 2781SOL     OW 9162   3.676   5.045   4.787 -0.0975  0.1266 -0.1466
 2781SOL    HW1 9163   3.597   5.004   4.833 -0.6363  1.9818  0.6819
 2781SOL    HW2 9164   3.664   5.039   4.688 -1.4221  0.6136 -0.0362
 2782SOL     OW 9165   6.772   4.930   1.320 -0.3735  0.1072 -0.4486
 2782SOL    HW1 9166   6.829   4.933   1.237 -0.4215  4.0522 -0.5155
 2782SOL    HW2 9167   6.831   4.940   1.400 -0.5010 -1.9376 -0.0580
 2783SOL     OW 9168   4.756   1.312   3.750  0.0039  0.2153 -0.4188
 2783SOL    HW1 9169   4.673   1.261   3.772  0.1643 -0.4045 -1.2244
 2783SOL    HW2 9170   4.793   1.281   3.663  0.4440  1.2973 -0.6335
 2784SOL     OW 9171   0.944   0.186   1.941  0.1691  0.2190  0.0321
 2784SOL    HW1 9172   1.024   0.196   2.000  1.3473 -1.0867 -1.2642
 2784SOL    HW2 9173   0.943   0.095   1.901 -1.2807  0.6269 -0.9508
 2785SOL     OW 9174   5.494   2.527   2.238  0.3358  0.1308  0.7148
 2785SOL    HW1 9175   5.453   2.593   2.175  0.4930 -0.0525  0.4173
 2785SOL    HW2 9176   5.431   2.452   2.254 -0.4160  1.0299  2.1411
 2786SOL     OW 9177   6.813   6.409   2.151  0.3308  0.0963 -0.2062
 2786SOL    HW1 9178   6.740   6.341   2.140  0.6625 -0.4178  0.6428
 2786SOL    HW2 9179   6.797   6.462   2.234  0.0925  1.0524 -0.8404
 2787SOL     OW 9180   6.803   5.220   0.521 -0.0601 -0.2056  0.4971
 2787SOL    HW1 9181   6.746   5.231   0.439  0.0308 -0.5130  0.3939
 2787SOL    HW2 9182   6.745   5.224   0.602  0.1591  3.5601  0.6732
 2788SOL     OW 9183   2.706   6.163   1.456 -1.0398  0.2546 -0.0895
 2788SOL    HW1 9184   2.777   6.234   1.446 -0.9733  0.4864  1.8096
 2788SOL    HW2 9185   2.675   6.135   1.365  0.8119  0.8255 -0.9476
 2789SOL     OW 9186   5.436   1.847   4.407  0.0262 -0.2534 -0.7003
 2789SOL    HW1 9187   5.504   1.829   4.478  0.2407 -1.8051 -1.2463
 2789SOL    HW2 9188   5.482   1.863   4.320 -0.2562  0.6667 -0.6799
 2790SOL     OW 9189   3.058   4.877   2.743  0.1783 -0.1936  0.3994
 2790SOL    HW1 9190   3.105   4.934   2.811 -2.0945  0.4676  1.5202
 2790SOL    HW2 9191   3.007   4.804   2.789 -0.5951 -0.3499 -0.6597
 2791SOL     OW 9192   1.208   6.934   1.903 -0.4757  0.7435 -0.3877
 2791SOL    HW1 9193   1.198   6.993   1.822 -2.1393  2.6939  1.1235
 2791SOL    HW2 9194   1.120   6.894   1.926  0.3632 -1.2974 -0.5361
 2792SOL     OW 9195   5.147   2.463   0.233  0.1758 -0.1746 -0.3731
 2792SOL    HW1 9196   5.171   2.445   0.138  0.8191  0.7016 -0.3942
 2792SOL    HW2 9197   5.107   2.381   0.274  0.8371 -0.8806 -1.1013
 2793SOL     OW 9198   2.944   5.931   5.817 -0.1571  0.2338 -0.6198
 2793SOL    HW1 9199   2.918   6.007   5.759 -0.3369 -0.3972 -1.3903
 2793SOL    HW2 9200   2.893   5.849   5.790 -0.1098 -0.1181  0.3067
 2794SOL     OW 9201   2.227   2.074   5.079 -0.5492 -0.0014  0.4364
 2794SOL    HW1 9202   2.139   2.039   5.048 -0.3138 -0.1300 -0.0934
 2794SOL    HW2 9203   2.240   2.167   5.044 -0.6105  0.1360  0.7752
 2795SOL     OW 9204   1.399   0.478   0.109  0.1400 -0.4125  0.4071
 2795SOL    HW1 9205   1.462   0.407   0.080 -1.0949 -1.3133 -0.1526
 2795SOL    HW2 9206   1.306   0.441   0.113 -0.5831  1.2538 -0.2048
 2796SOL     OW 9207   1.276   5.338   1.829  0.0340 -0.0869 -0.2229
 2796SOL    HW1 9208   1.371   5.362   1.808  0.1501 -0.9717 -0.7616
 2796SOL    HW2 9209   1.259   5.352   1.927  0.3528  1.2439 -0.3325
 2797SOL     OW 9210   1.076   6.487   2.586 -0.7787 -0.0897  0.7531
 2797SOL    HW1 9211   1.054   6.580   2.613  1.6810  1.2970 -1.4931
 2797SOL    HW2 9212   1.006   6.453   2.523 -1.4954  0.4005  1.2792
 2798SOL     OW 9213   6.940   5.655   5.072 -0.6562  0.4259 -0.1091
 2798SOL    HW1 9214   6.913   5.735   5.019 -0.2455 -0.8375 -2.3803
 2798SOL    HW2 9215   6.964   5.580   5.010 -1.5862 -1.6794  1.8795
 2799SOL     OW 9216   4.416   3.349   1.984 -0.4699 -0.2903  0.3187
 2799SOL    HW1 9217   4.366   3.341   2.070  1.5363  0.6330  1.6823
 2799SOL    HW2 9218   4.498   3.292   1.988  0.7191  1.3099 -0.1272
 2800SOL     OW 9219   5.901   4.790   6.737 -0.1352  0.6401 -0.2422
 2800SOL    HW1 9220   5.821   4.823   6.787  0.4094 -0.4374  1.4037
 2800SOL    HW2 9221   5.876   4.772   6.642 -2.1931 -0.8844  0.5144
 2801SOL     OW 9222   4.266   4.189   1.137 -0.2100 -0.4431 -0.1265
 2801SOL    HW1 9223   4.236   4.123   1.068  1.1185 -2.1095  0.8281
 2801SOL    HW2 9224   4.354   4.162   1.174 -0.3527  1.0373  1.4410
 2802SOL     OW 9225   6.026   5.264   5.233 -0.2883 -0.0736  0.0459
 2802SOL    HW1 9226   5.962   5.266   5.309  1.1825 -1.4073  1.3950
 2802SOL    HW2 9227   6.003   5.188   5.172 -1.5756  1.0997 -1.0017
 2803SOL     OW 9228   3.126   5.594   3.097  0.1326  0.4401 -0.3346
 2803SOL    HW1 9229   3.202   5.645   3.057  0.8761  0.6720  1.3134
 2803SOL    HW2 9230   3.042   5.615   3.047  0.6956  2.0812 -0.6500
 2804SOL     OW 9231   5.980   3.525   3.726 -0.0190 -0.0947 -0.0317
 2804SOL    HW1 9232   6.036   3.468   3.787  0.7025 -0.2127 -0.7681
 2804SOL    HW2 9233   5.998   3.622   3.745  0.5401 -0.1315 -0.3488
 2805SOL     OW 9234   3.162   3.025   6.265 -0.4764 -0.1557 -0.0704
 2805SOL    HW1 9235   3.100   3.086   6.215  0.6334  1.6506  0.7191
 2805SOL    HW2 9236   3.255   3.059   6.260  1.0867 -4.0243 -3.2693
 2806SOL     OW 9237   0.634   6.691   3.046  0.0821  0.0784  0.6059
 2806SOL    HW1 9238   0.646   6.592   3.037  0.0480 -0.1831  2.8064
 2806SOL    HW2 9239   0.657   6.719   3.139  1.5974  2.4086 -0.3939
 2807SOL     OW 9240   5.334   6.770   4.861  0.2534 -0.4241 -0.4052
 2807SOL    HW1 9241   5.372   6.785   4.952  1.2235  1.7507 -1.0844
 2807SOL    HW2 9242   5.255   6.829   4.847  0.7053  0.0273 -1.2570
 2808SOL     OW 9243   6.669   0.749   2.859 -0.0683 -0.0662  0.1571
 2808SOL    HW1 9244   6.580   0.782   2.828  0.0176 -1.1758 -1.4333
 2808SOL    HW2 9245   6.710   0.694   2.786  1.1225 -1.0747  1.5510
 2809SOL     OW 9246   5.488   0.273   6.034 -0.4289 -0.4013 -0.6378
 2809SOL    HW1 9247   5.464   0.303   5.942 -1.0746  0.0422 -0.3346
 2809SOL    HW2 9248   5.579   0.232   6.033 -1.1217 -2.0259 -1.8050
 2810SOL     OW 9249   5.243   5.534   6.957 -0.8677 -0.9406 -0.1165
 2810SOL    HW1 9250   5.275   5.627   6.938  0.5139 -1.2924  0.3236
 2810SOL    HW2 9251   5.314   5.469   6.931 -0.6314 -1.6945  2.1285
 2811SOL     OW 9252   3.437   5.425   4.981  0.8659  0.1004  0.0810
 2811SOL    HW1 9253   3.515   5.446   4.921 -0.9364  0.4329 -2.3031
 2811SOL    HW2 9254   3.419   5.327   4.979  1.4409 -0.0408  0.9911
 2812SOL     OW 9255   1.010   5.958   5.342 -0.0119  0.5955  0.2811
 2812SOL    HW1 9256   1.036   5.864   5.363 -0.3657  0.8018  1.7612
 2812SOL    HW2 9257   1.070   5.994   5.270  1.1364 -0.2528  0.7782
 2813SOL     OW 9258   3.812   3.004   0.037 -0.2687 -0.0987 -0.5904
 2813SOL    HW1 9259   3.764   2.992   0.124 -1.4126 -0.6265 -1.2815
 2813SOL    HW2 9260   3.887   2.938   0.031  0.2127  0.3468  0.2493
 2814SOL     OW 9261   2.643   6.703   3.079  0.1867 -0.2095 -0.0301
 2814SOL    HW1 9262   2.599   6.762   3.011  0.2730 -0.4591 -0.3040
 2814SOL    HW2 9263   2.735   6.738   3.097  0.4603 -0.6037 -0.6376
 2815SOL     OW 9264   1.708   1.767   5.464  0.5105 -0.9018 -0.1271
 2815SOL    HW1 9265   1.686   1.810   5.376 -0.0805 -2.0784 -0.5893
 2815SOL    HW2 9266   1.721   1.837   5.534  0.3690  0.0347 -1.0123
 2816SOL     OW 9267   0.277   5.524   1.407  0.1734 -0.1348  0.2407
 2816SOL    HW1 9268   0.356   5.465   1.391 -0.6869 -1.3344  0.2571
 2816SOL    HW2 9269   0.208   5.475   1.461 -0.7767  0.7146 -0.1443
 2817SOL     OW 9270   6.112   0.770   2.800 -0.0081 -0.1551  0.1046
 2817SOL    HW1 9271   6.121   0.693   2.736  0.3864 -0.3293  0.3671
 2817SOL    HW2 9272   6.056   0.743   2.878 -0.5836  0.0898 -0.2161
 2818SOL     OW 9273   1.178   0.501   0.910  0.0675  0.0833  0.1665
 2818SOL    HW1 9274   1.188   0.442   0.830  2.9953  0.9198 -0.1946
 2818SOL    HW2 9275   1.106   0.568   0.893 -1.9686 -2.0344 -0.1760
 2819SOL     OW 9276   6.710   6.887   5.420 -0.6497 -0.0548  0.0594
 2819SOL    HW1 9277   6.721   6.888   5.520  0.3761 -1.7892  0.0215
 2819SOL    HW2 9278   6.613   6.879   5.397 -0.8708  0.0303  0.9297
 2820SOL     OW 9279   6.764   4.816   4.858  0.4311  0.4598 -0.2375
 2820SOL    HW1 9280   6.754   4.761   4.940  1.5686  1.3028  0.5099
 2820SOL    HW2 9281   6.851   4.865   4.862  0.5688  0.4306 -2.0095
 2821SOL     OW 9282   1.631   6.943   4.680 -0.1502  0.6558  0.1864
 2821SOL    HW1 9283   1.638   6.926   4.581 -0.9223 -0.7532  0.3389
 2821SOL    HW2 9284   1.550   6.999   4.698 -1.2080 -0.7966  0.1518
 2822SOL     OW 9285   5.686   1.943   3.684  0.0609  0.1944 -0.9823
 2822SOL    HW1 9286   5.617   1.991   3.738  1.6746  2.1373 -0.5739
 2822SOL    HW2 9287   5.762   2.004   3.664  0.6346 -1.1883 -3.4409
 2823SOL     OW 9288   0.699   4.940   0.457  0.3116 -0.1367  0.1371
 2823SOL    HW1 9289   0.633   4.957   0.530  1.2241  0.2344  0.9068
 2823SOL    HW2 9290   0.780   4.995   0.472  0.2310  0.5197 -1.5991
 2824SOL     OW 9291   6.484   1.171   4.684  0.5572  0.1240  0.3052
 2824SOL    HW1 9292   6.528   1.180   4.773  1.7000 -0.2901 -0.1896
 2824SOL    HW2 9293   6.537   1.108   4.627 -0.3117  0.1542 -0.5722
 2825SOL     OW 9294   4.640   0.690   1.219  0.2617 -0.2383  0.2530
 2825SOL    HW1 9295   4.711   0.759   1.228 -0.1141  0.2002 -0.0647
 2825SOL    HW2 9296   4.568   0.724   1.158 -0.6370 -0.3103  1.2467
 2826SOL     OW 9297   6.027   6.714   6.448 -0.0476  0.4050 -0.3299
 2826SOL    HW1 9298   6.126   6.719   6.461 -0.2099 -0.0445  1.3618
 2826SOL    HW2 9299   5.981   6.743   6.532 -1.3561  0.5055 -1.0563
 2827SOL     OW 9300   1.295   6.690   2.922  0.3133  0.4219  0.2746
 2827SOL    HW1 9301   1.285   6.599   2.963  1.7267 -0.1825 -0.6548
 2827SOL    HW2 9302   1.213   6.744   2.941 -1.0302 -1.4016 -0.0967
 2828SOL     OW 9303   6.741   1.499   4.756  0.0896 -0.7334  0.5187
 2828SOL    HW1 9304   6.787   1.560   4.690 -3.6178  0.0684 -1.5752
 2828SOL    HW2 9305   6.774   1.406   4.743  0.0935 -0.4487 -1.9434
 2829SOL     OW 9306   5.186   4.385   2.204  0.7541 -0.2776 -0.3032
 2829SOL    HW1 9307   5.161   4.310   2.142  1.8810 -0.9295 -0.0007
 2829SOL    HW2 9308   5.110   4.402   2.267 -0.5110  0.5579 -1.9680
 2830SOL     OW 9309   4.124   3.203   6.381 -0.5767 -0.1955 -0.0522
 2830SOL    HW1 9310   4.095   3.277   6.321  1.6486  0.6889 -0.1149
 2830SOL    HW2 9311   4.101   3.225   6.476  0.8826  1.0783  0.0523
 2831SOL     OW 9312   2.177   2.620   6.198  0.3075  0.1447  0.2758
 2831SOL    HW1 9313   2.266   2.605   6.154  0.2648  0.0854  0.2076
 2831SOL    HW2 9314   2.162   2.552   6.269  0.5259  0.4432  0.6127
 2832SOL     OW 9315   5.504   2.949   3.667  0.1360 -0.4297  0.1589
 2832SOL    HW1 9316   5.563   2.880   3.625  0.8103  0.6754 -0.7785
 2832SOL    HW2 9317   5.533   2.963   3.762 -0.7272 -2.2005  0.7240
 2833SOL     OW 9318   4.700   5.776   3.318  0.0905 -0.3262  0.4903
 2833SOL    HW1 9319   4.688   5.834   3.399 -1.8113  1.3779 -0.8859
 2833SOL    HW2 9320   4.658   5.687   3.335 -2.7594  0.9026  0.5886
 2834SOL     OW 9321   6.390   4.491   1.862 -0.0217 -0.2593  0.6440
 2834SOL    HW1 9322   6.365   4.407   1.910 -0.6421 -0.8069 -0.5956
 2834SOL    HW2 9323   6.462   4.471   1.795 -1.5595 -0.2782 -1.0934
 2835SOL     OW 9324   5.046   3.036   6.306 -0.3350 -0.3373 -0.2621
 2835SOL    HW1 9325   4.958   3.005   6.270 -0.1867 -0.6436 -0.3634
 2835SOL    HW2 9326   5.066   2.989   6.392 -1.3055  1.3480  0.9419
 2836SOL     OW 9327   1.348   4.944   3.324 -0.4265  0.6124 -0.2323
 2836SOL    HW1 9328   1.348   4.997   3.239 -1.4607  0.4189 -0.3706
 2836SOL    HW2 9329   1.434   4.896   3.334  1.2009  3.4604  0.6323
 2837SOL     OW 9330   6.045   6.715   0.035  0.0254  0.3575  0.4013
 2837SOL    HW1 9331   5.997   6.723  -0.053  1.7387 -0.3888 -0.6369
 2837SOL    HW2 9332   6.099   6.798   0.051  1.2376 -0.2892 -0.2334
 2838SOL     OW 9333   0.513   6.881   1.743  0.0304  0.5312  0.2194
 2838SOL    HW1 9334   0.525   6.857   1.839 -0.1453 -0.6944 -0.0554
 2838SOL    HW2 9335   0.589   6.844   1.689 -0.3973  0.3521 -0.2649
 2839SOL     OW 9336   2.603   2.696   3.660  0.0433 -0.5097  0.8304
 2839SOL    HW1 9337   2.511   2.716   3.627  0.4566 -1.0155 -0.7510
 2839SOL    HW2 9338   2.597   2.655   3.751 -1.1785  0.7765  1.3645
 2840SOL     OW 9339   0.824   1.679   6.671  0.0518 -0.3943 -0.1943
 2840SOL    HW1 9340   0.762   1.660   6.747 -0.8715  1.0271 -0.5488
 2840SOL    HW2 9341   0.771   1.714   6.593  1.4442  3.1549  0.2753
 2841SOL     OW 9342   2.500   6.984   1.713  0.0160  1.0276 -0.3991
 2841SOL    HW1 9343   2.461   6.971   1.804  0.3690  1.1224 -0.2267
 2841SOL    HW2 9344   2.428   7.010   1.649 -0.0631  2.0897  0.1055
 2842SOL     OW 9345   6.747   6.148   4.867 -0.3712  0.7242 -0.4179
 2842SOL    HW1 9346   6.661   6.118   4.825 -0.0868  0.8664 -1.0987
 2842SOL    HW2 9347   6.737   6.244   4.896 -0.6915  0.5164  0.2003
 2843SOL     OW 9348   0.184   3.593   1.858  0.3207 -0.1805  0.2270
 2843SOL    HW1 9349   0.161   3.528   1.786 -1.0001  0.9467 -0.4029
 2843SOL    HW2 9350   0.156   3.685   1.830  0.6243  0.4159  1.8054
 2844SOL     OW 9351   1.522   6.532   5.155 -0.3684  0.5046 -0.7743
 2844SOL    HW1 9352   1.540   6.502   5.249  1.9852  1.0510 -0.9766
 2844SOL    HW2 9353   1.462   6.612   5.157 -0.3998  0.4816  0.2690
 2845SOL     OW 9354   1.546   5.752   1.124 -0.4465  0.0879  0.2718
 2845SOL    HW1 9355   1.611   5.731   1.197  0.0530  2.0185  0.4203
 2845SOL    HW2 9356   1.543   5.676   1.059  1.6521 -0.2259  0.4938
 2846SOL     OW 9357   6.473   3.754   5.070  0.0659  0.0726  0.1874
 2846SOL    HW1 9358   6.408   3.793   5.005 -2.4620 -0.8184  2.0380
 2846SOL    HW2 9359   6.461   3.796   5.160  2.2683  0.0495  0.5562
 2847SOL     OW 9360   0.263   2.548   0.815  0.7972 -0.4946 -0.0211
 2847SOL    HW1 9361   0.310   2.463   0.792  2.6637  1.4402 -4.2973
 2847SOL    HW2 9362   0.177   2.554   0.764 -0.4070 -0.6309  1.8902
 2848SOL     OW 9363   5.520   0.845   2.368 -0.1773  0.3964  0.5836
 2848SOL    HW1 9364   5.514   0.766   2.429  0.2435 -0.2297 -0.1724
 2848SOL    HW2 9365   5.484   0.822   2.278  0.7237  0.7911  0.1026
 2849SOL     OW 9366   0.654   1.412   3.242  0.6362 -0.2287 -0.4569
 2849SOL    HW1 9367   0.624   1.439   3.150 -0.3676  0.8683  0.1548
 2849SOL    HW2 9368   0.591   1.345   3.279  0.7229 -0.2545 -0.3498
 2850SOL     OW 9369   1.564   1.484   0.877 -0.3118  0.2588 -0.0284
 2850SOL    HW1 9370   1.564   1.385   0.894 -1.7764  0.0370 -1.1603
 2850SOL    HW2 9371   1.493   1.527   0.934 -0.6474  0.4506 -0.5928
 2851SOL     OW 9372   0.348   1.353   0.511 -0.2364  0.6591  0.3110
 2851SOL    HW1 9373   0.330   1.413   0.589 -1.7741  1.1339 -0.3709
 2851SOL    HW2 9374   0.318   1.399   0.427 -0.2932 -0.5760 -0.3579
 2852SOL     OW 9375   5.104   0.646   0.935 -0.1474  0.0110 -0.0584
 2852SOL    HW1 9376   5.104   0.742   0.965  0.1347 -0.2981  0.9708
 2852SOL    HW2 9377   5.161   0.592   0.997  1.1134 -0.5249 -1.6149
 2853SOL     OW 9378   5.839   4.308   0.662  0.4860 -0.4186 -0.4036
 2853SOL    HW1 9379   5.847   4.291   0.760 -1.8016  3.8203  0.7852
 2853SOL    HW2 9380   5.759   4.261   0.626  1.2154 -1.8259 -0.3082
 2854SOL     OW 9381   6.161   0.311   0.400  0.0107  0.1732  0.2357
 2854SOL    HW1 9382   6.120   0.401   0.387  0.2520  0.0994 -1.0923
 2854SOL    HW2 9383   6.149   0.283   0.496 -1.0903  1.1066  0.3914
 2855SOL     OW 9384   1.308   5.420   0.921  0.4070  0.2334 -0.1480
 2855SOL    HW1 9385   1.322   5.503   0.868  1.0410  1.0720  1.2902
 2855SOL    HW2 9386   1.217   5.422   0.963  1.2317  1.2586  1.6612
 2856SOL     OW 9387   0.727   3.744   3.641 -0.4538  0.6685  0.4636
 2856SOL    HW1 9388   0.763   3.825   3.687 -0.3711  1.5801 -1.1381
 2856SOL    HW2 9389   0.636   3.765   3.604 -0.9214 -0.3459  1.0291
 2857SOL     OW 9390   1.276   5.234   2.331 -0.0708  0.1811  0.1709
 2857SOL    HW1 9391   1.278   5.331   2.355 -0.1521 -0.2850  2.2509
 2857SOL    HW2 9392   1.204   5.188   2.383  0.5639 -1.1602 -0.0970
 2858SOL     OW 9393   5.519   6.288   5.120  0.0939 -0.1906 -0.0972
 2858SOL    HW1 9394   5.574   6.206   5.106  0.2541 -0.1720  0.4265
 2858SOL    HW2 9395   5.578   6.361   5.155  0.2617  0.5628 -1.8218
 2859SOL     OW 9396   5.527   4.877   4.436  0.1484 -0.2280  0.6067
 2859SOL    HW1 9397   5.472   4.899   4.355 -0.5353 -1.3816  0.7221
 2859SOL    HW2 9398   5.570   4.960   4.471  2.2038 -0.0003 -2.1611
 2860SOL     OW 9399   1.908   1.199   5.683 -0.9200  0.1785 -0.0438
 2860SOL    HW1 9400   1.880   1.253   5.603 -1.2061  0.6098  0.3375
 2860SOL    HW2 9401   1.968   1.254   5.741 -1.9319  0.4285  0.8114
 2861SOL     OW 9402   0.148   1.769   6.233 -0.1490 -0.2840  0.2051
 2861SOL    HW1 9403   0.159   1.681   6.280 -3.5289 -2.4014 -2.5344
 2861SOL    HW2 9404   0.216   1.776   6.160  0.5481 -0.2322  0.8343
 2862SOL     OW 9405   4.058   3.896   4.559 -0.5373 -0.4845 -0.0243
 2862SOL    HW1 9406   3.995   3.886   4.482 -1.0958  0.4834  0.2803
 2862SOL    HW2 9407   4.025   3.969   4.619  2.7039  2.6707 -1.7046
 2863SOL     OW 9408   1.957   1.886   6.520  0.1961  0.3557  0.1426
 2863SOL    HW1 9409   2.026   1.841   6.464 -1.2208 -0.4896 -0.9873
 2863SOL    HW2 9410   1.900   1.817   6.565 -1.2171  0.9730 -0.6169
 2864SOL     OW 9411   6.693   6.286   2.886 -0.5477 -0.4636 -0.5802
 2864SOL    HW1 9412   6.740   6.363   2.843 -1.8100  0.1187 -0.9530
 2864SOL    HW2 9413   6.634   6.319   2.960 -0.3435 -1.1920 -0.0645
 2865SOL     OW 9414   2.930   0.767   2.921  0.1640 -0.1054 -0.2162
 2865SOL    HW1 9415   3.015   0.811   2.894  2.2618 -1.8680  2.8368
 2865SOL    HW2 9416   2.867   0.836   2.957  1.1480  0.9865 -0.5104
 2866SOL     OW 9417   1.784   1.710   0.567 -0.0064 -0.3434 -0.0959
 2866SOL    HW1 9418   1.811   1.806   0.560 -0.4496 -0.2572 -0.6244
 2866SOL    HW2 9419   1.845   1.663   0.631 -1.6210  1.0016  2.6605
 2867SOL     OW 9420   4.593   3.129   2.487 -0.2873  0.5105  0.1124
 2867SOL    HW1 9421   4.549   3.126   2.577 -0.7126 -0.0879 -0.1136
 2867SOL    HW2 9422   4.523   3.121   2.415 -0.0944  2.2621 -0.3118
 2868SOL     OW 9423   1.352   1.227   5.444  0.5125  0.0262  0.2509
 2868SOL    HW1 9424   1.352   1.151   5.508 -0.8047 -0.4077 -0.2407
 2868SOL    HW2 9425   1.447   1.249   5.419  0.9377 -1.0911  0.8069
 2869SOL     OW 9426   5.716   0.233   4.377  0.0865 -0.0593 -0.5445
 2869SOL    HW1 9427   5.689   0.285   4.458 -1.3168 -2.8486  0.9360
 2869SOL    HW2 9428   5.690   0.284   4.295 -1.1900  1.5712  0.7811
 2870SOL     OW 9429   4.415   2.198   5.111 -0.3688 -0.2702  0.2145
 2870SOL    HW1 9430   4.436   2.109   5.070 -0.0243 -0.5859  1.0697
 2870SOL    HW2 9431   4.317   2.204   5.131 -0.5608 -0.0678 -0.7499
 2871SOL     OW 9432   5.166   1.607   6.049 -0.0871 -0.0707 -0.2486
 2871SOL    HW1 9433   5.107   1.543   6.098 -0.5530  0.4200 -0.1705
 2871SOL    HW2 9434   5.179   1.690   6.104  0.4919 -0.0837 -0.3572
 2872SOL     OW 9435   3.708   0.726   4.149  0.4167 -0.7063  0.1954
 2872SOL    HW1 9436   3.691   0.699   4.244  0.9314 -0.0549  0.4778
 2872SOL    HW2 9437   3.776   0.799   4.147  2.7736 -2.7698 -0.8006
 2873SOL     OW 9438   3.703   3.397   1.396  0.3040 -0.5831 -0.3427
 2873SOL    HW1 9439   3.695   3.490   1.432  3.0765 -0.5328  0.3548
 2873SOL    HW2 9440   3.794   3.361   1.415 -0.6603 -3.4706 -0.6470
 2874SOL     OW 9441   3.272   0.614   4.244 -0.5433  0.0185 -0.1484
 2874SOL    HW1 9442   3.306   0.631   4.337  0.7715  1.2197 -0.8215
 2874SOL    HW2 9443   3.326   0.540   4.203 -0.8801 -0.2592 -0.0952
 2875SOL     OW 9444   4.723   0.190   2.243 -0.1440 -0.5106  0.0672
 2875SOL    HW1 9445   4.669   0.107   2.258  0.9697 -1.0386  1.3369
 2875SOL    HW2 9446   4.661   0.266   2.221 -1.1958 -1.6136 -0.9797
 2876SOL     OW 9447   6.810   5.287   6.523 -0.1782  0.8117 -0.0118
 2876SOL    HW1 9448   6.715   5.312   6.538  0.1962  1.6591  1.0434
 2876SOL    HW2 9449   6.850   5.254   6.608 -0.0976 -1.5893 -0.8986
 2877SOL     OW 9450   2.402   5.968   1.056 -0.0282  0.0800 -0.0454
 2877SOL    HW1 9451   2.353   5.884   1.035  1.0001 -0.1903 -1.5827
 2877SOL    HW2 9452   2.500   5.954   1.041  0.2321  1.3512  0.3521
 2878SOL     OW 9453   5.302   2.367   6.759  0.8187  0.1408  0.2323
 2878SOL    HW1 9454   5.253   2.438   6.808 -0.2637  0.0073 -0.6238
 2878SOL    HW2 9455   5.266   2.359   6.666  0.0967 -2.3057  0.6496
 2879SOL     OW 9456   5.652   0.514   1.624  0.2738 -0.0834 -0.0921
 2879SOL    HW1 9457   5.670   0.419   1.600  0.4457 -1.5756  4.8773
 2879SOL    HW2 9458   5.558   0.523   1.657  0.6322  1.1826  0.6251
 2880SOL     OW 9459   4.821   6.120   5.311 -0.0088 -0.0789  0.2629
 2880SOL    HW1 9460   4.784   6.055   5.244  1.6890 -1.0361  0.2074
 2880SOL    HW2 9461   4.842   6.071   5.396 -1.7023  1.0312  1.4091
 2881SOL     OW 9462   0.491   0.969   1.590 -0.0432 -0.4115 -0.3074
 2881SOL    HW1 9463   0.496   1.015   1.501  1.7583  2.9583  1.3639
 2881SOL    HW2 9464   0.584   0.950   1.623 -0.7068 -2.4684  0.5243
 2882SOL     OW 9465   1.704   0.277   6.428  0.5396  0.4584 -0.3939
 2882SOL    HW1 9466   1.762   0.239   6.500  0.1674 -0.5715 -0.6126
 2882SOL    HW2 9467   1.725   0.232   6.341  1.5431  2.2389 -1.1326
 2883SOL     OW 9468   2.137   4.270   3.683 -0.2885 -0.1618 -0.6781
 2883SOL    HW1 9469   2.125   4.298   3.778 -0.1570 -1.8655 -0.1127
 2883SOL    HW2 9470   2.052   4.226   3.651 -0.2103  0.0857 -1.2202
 2884SOL     OW 9471   5.135   1.106   2.928 -0.0352  0.0823 -0.7635
 2884SOL    HW1 9472   5.223   1.060   2.937  1.0330  2.2301  0.9082
 2884SOL    HW2 9473   5.125   1.141   2.835  1.0714  0.1365 -0.8799
 2885SOL     OW 9474   4.273   1.232   5.786 -0.7160  0.2651 -0.0916
 2885SOL    HW1 9475   4.323   1.249   5.870 -0.4666 -0.9248  0.0199
 2885SOL    HW2 9476   4.237   1.139   5.786 -0.7602  0.2584 -1.2769
 2886SOL     OW 9477   1.376   3.208   3.948  0.1542  0.0773  0.1423
 2886SOL    HW1 9478   1.378   3.271   3.871  1.4314  0.7292  0.6812
 2886SOL    HW2 9479   1.461   3.216   4.000 -0.2389 -1.1098  1.0161
 2887SOL     OW 9480   1.938   4.247   6.899  0.6965  0.3055  0.6485
 2887SOL    HW1 9481   1.865   4.290   6.952  0.1926  0.3711 -0.0872
 2887SOL    HW2 9482   1.962   4.159   6.941 -0.1112  0.0755  0.6497
 2888SOL     OW 9483   6.516   4.282   4.064  0.0424 -0.2844 -0.1439
 2888SOL    HW1 9484   6.470   4.247   4.146  0.2679 -2.1624 -0.7699
 2888SOL    HW2 9485   6.474   4.242   3.983 -1.0420  2.5176 -1.1128
 2889SOL     OW 9486   3.088   6.140   5.419  0.5476 -0.2774 -0.3816
 2889SOL    HW1 9487   3.060   6.083   5.341 -1.7072 -0.0140  0.1670
 2889SOL    HW2 9488   3.128   6.225   5.385  0.0607 -0.3799 -1.2717
 2890SOL     OW 9489   3.728   4.362   6.241  0.3526  0.5555  0.6913
 2890SOL    HW1 9490   3.702   4.370   6.338  0.0522 -1.5771  0.8240
 2890SOL    HW2 9491   3.651   4.329   6.188  0.4753  1.8299 -0.3343
 2891SOL     OW 9492   0.122   0.375   1.141 -0.0016  0.5055 -0.1910
 2891SOL    HW1 9493   0.086   0.283   1.128  0.8387  0.0618  0.5575
 2891SOL    HW2 9494   0.046   0.441   1.139 -0.7944 -0.3356  0.7412
 2892SOL     OW 9495   7.004   4.626   6.087 -0.0195  0.0771 -0.0741
 2892SOL    HW1 9496   6.997   4.528   6.068 -2.2169 -0.1512  1.5588
 2892SOL    HW2 9497   7.006   4.676   6.001  1.1110 -1.3571 -0.9446
 2893SOL     OW 9498   1.821   1.947   3.974  0.2444  0.0239  0.1196
 2893SOL    HW1 9499   1.744   1.963   3.912 -0.7503 -1.4934  0.8886
 2893SOL    HW2 9500   1.806   1.862   4.024  2.3081 -0.1609  0.5147
 2894SOL     OW 9501   2.471   0.311   4.429  0.5370  0.0131  0.5016
 2894SOL    HW1 9502   2.452   0.254   4.349  0.7697  0.1828  0.3264
 2894SOL    HW2 9503   2.559   0.286   4.469  0.7917  0.4699  0.2344
 2895SOL     OW 9504   6.276   2.058   4.974  0.5299 -0.7883  0.6226
 2895SOL    HW1 9505   6.276   1.958   4.971 -3.4914 -0.9392  0.4137
 2895SOL    HW2 9506   6.234   2.089   5.059  0.2452  0.7071 -0.0387
 2896SOL     OW 9507   4.744   6.403   1.178 -0.0964 -0.5217  0.4684
 2896SOL    HW1 9508   4.792   6.351   1.107 -0.4054 -0.4432  0.1951
 2896SOL    HW2 9509   4.661   6.443   1.139  0.0641  0.0607  0.7114
 2897SOL     OW 9510   5.226   6.391   3.398  0.4231  0.2551  0.5594
 2897SOL    HW1 9511   5.223   6.309   3.340 -0.7638 -0.4866  1.6254
 2897SOL    HW2 9512   5.147   6.391   3.459  0.6875  1.9541  0.9320
 2898SOL     OW 9513   1.066   2.270   4.795  0.0174  0.5074 -0.3225
 2898SOL    HW1 9514   0.980   2.284   4.746  0.1086  0.8659 -0.3802
 2898SOL    HW2 9515   1.141   2.265   4.730 -0.0415 -0.5168 -0.3269
 2899SOL     OW 9516   2.399   3.796   1.838  0.5112 -0.8424 -0.1102
 2899SOL    HW1 9517   2.420   3.845   1.923  1.8455 -0.2877 -0.7378
 2899SOL    HW2 9518   2.429   3.851   1.760 -2.8350 -0.2328 -1.1112
 2900SOL     OW 9519   5.979   5.753   5.798 -0.5598 -0.2906  0.0883
 2900SOL    HW1 9520   6.025   5.709   5.721 -0.5405 -0.8686  0.4287
 2900SOL    HW2 9521   6.048   5.790   5.860 -0.5683  1.2255 -0.7476
 2901SOL     OW 9522   0.036   1.378   2.569  0.1430 -0.8948 -0.5137
 2901SOL    HW1 9523  -0.045   1.434   2.553 -0.4740 -1.0882  1.7272
 2901SOL    HW2 9524   0.117   1.428   2.540 -0.3526  1.5688  2.0081
 2902SOL     OW 9525   4.912   6.119   6.541  0.9518  0.3941  0.0630
 2902SOL    HW1 9526   4.836   6.055   6.530  2.1900 -1.1672  0.2680
 2902SOL    HW2 9527   4.971   6.114   6.460  1.5928  0.5561  0.5189
 2903SOL     OW 9528   5.444   5.450   1.108 -0.0345  0.8421  0.2532
 2903SOL    HW1 9529   5.375   5.419   1.041 -0.4632  0.1253  1.0109
 2903SOL    HW2 9530   5.535   5.426   1.075 -0.3049 -0.4414  0.3914
 2904SOL     OW 9531   4.640   0.892   4.788  0.3245 -0.2359  0.3405
 2904SOL    HW1 9532   4.716   0.952   4.812  0.7612 -1.0616  1.0677
 2904SOL    HW2 9533   4.672   0.821   4.725  0.5418 -1.4842  1.8041
 2905SOL     OW 9534   2.395   4.175   1.117 -0.4529  0.5920  0.6870
 2905SOL    HW1 9535   2.421   4.085   1.081 -0.0942  0.9287  0.0950
 2905SOL    HW2 9536   2.303   4.170   1.155 -1.8007  0.7312 -2.2591
 2906SOL     OW 9537   6.265   6.253   3.389  0.1176  0.5217  0.2575
 2906SOL    HW1 9538   6.248   6.202   3.304  0.7473  0.2572  0.2851
 2906SOL    HW2 9539   6.199   6.328   3.396 -0.0301  0.4653 -0.3960
 2907SOL     OW 9540   5.481   5.020   3.403  0.2257  0.0308 -0.0425
 2907SOL    HW1 9541   5.474   4.927   3.366 -0.5572 -0.0693  0.3456
 2907SOL    HW2 9542   5.403   5.074   3.372 -0.4890 -0.0704  1.4881
 2908SOL     OW 9543   4.710   3.953   3.833  0.0011  0.0967  0.2242
 2908SOL    HW1 9544   4.667   4.044   3.831 -0.0845  0.0727  0.8056
 2908SOL    HW2 9545   4.679   3.904   3.914  0.1331 -0.4110 -0.0312
 2909SOL     OW 9546   0.233   2.880   2.109  0.1632  0.3812 -0.0053
 2909SOL    HW1 9547   0.224   2.979   2.125 -2.6077 -0.0256  1.6171
 2909SOL    HW2 9548   0.271   2.836   2.190 -0.3860 -0.0918 -0.0039
 2910SOL     OW 9549   1.971   2.164   5.927  0.5338 -0.1442  0.6305
 2910SOL    HW1 9550   1.950   2.066   5.924 -0.5871  0.0851  0.5282
 2910SOL    HW2 9551   1.980   2.199   5.834 -0.9416  0.2250  0.6165
 2911SOL     OW 9552   0.496   0.614   6.516  0.5196 -0.6171 -0.0408
 2911SOL    HW1 9553   0.487   0.676   6.594  0.9753 -1.3347  0.5929
 2911SOL    HW2 9554   0.430   0.539   6.525 -1.4005  0.7525 -1.7929
 2912SOL     OW 9555   5.499   4.711   5.616 -0.6172 -0.7464 -0.0927
 2912SOL    HW1 9556   5.530   4.690   5.709 -0.3211 -0.3085 -0.0876
 2912SOL    HW2 9557   5.566   4.676   5.550 -0.3964 -0.3123 -0.1057
 2913SOL     OW 9558   0.920   3.018   4.202 -0.1970  0.1770 -0.0787
 2913SOL    HW1 9559   0.834   2.973   4.222 -0.6263  1.2888  0.6028
 2913SOL    HW2 9560   0.971   2.963   4.135 -1.4993 -0.3935 -0.6476
 2914SOL     OW 9561   2.063   0.849   2.886  0.6439  0.3266 -0.0480
 2914SOL    HW1 9562   1.987   0.913   2.898  0.1896 -0.2062 -0.0936
 2914SOL    HW2 9563   2.146   0.901   2.863  0.1487  0.8525 -0.6585
 2915SOL     OW 9564   3.149   6.859   0.238  0.4247 -0.5904 -0.0465
 2915SOL    HW1 9565   3.070   6.805   0.267 -1.2698  0.6779 -2.0374
 2915SOL    HW2 9566   3.140   6.953   0.273  0.4729 -0.1693 -1.1020
 2916SOL     OW 9567   5.447   4.433   5.507  0.3084 -0.0130  0.4746
 2916SOL    HW1 9568   5.369   4.432   5.445 -0.1028 -0.4639  0.9802
 2916SOL    HW2 9569   5.478   4.527   5.520 -1.3569  0.4063  1.7313
 2917SOL     OW 9570   0.653   3.018   1.946  1.0160 -1.1096 -0.7215
 2917SOL    HW1 9571   0.670   3.114   1.921  1.9696 -0.6091  1.4573
 2917SOL    HW2 9572   0.564   2.989   1.911 -0.9929  1.7988  1.4711
 2918SOL     OW 9573   2.846   3.752   0.044 -0.6874  0.3171 -0.3543
 2918SOL    HW1 9574   2.877   3.848   0.040 -0.9044  0.4015 -0.0372
 2918SOL    HW2 9575   2.858   3.717   0.137  0.1760 -0.2285 -0.6649
 2919SOL     OW 9576   6.484   1.433   2.616 -0.0584  0.4810 -0.3415
 2919SOL    HW1 9577   6.515   1.338   2.613 -3.1009 -0.6018 -0.7229
 2919SOL    HW2 9578   6.491   1.473   2.525  2.4393  1.1697  0.0515
 2920SOL     OW 9579   2.551   0.629   5.119  0.4103  0.0477 -0.0338
 2920SOL    HW1 9580   2.473   0.672   5.075  0.6518  0.5800  0.0421
 2920SOL    HW2 9581   2.554   0.532   5.094 -1.5876 -0.5701  1.8169
 2921SOL     OW 9582   5.607   0.843   6.338  0.1683  0.2661  0.0074
 2921SOL    HW1 9583   5.552   0.775   6.288 -1.0828  0.2058  1.3921
 2921SOL    HW2 9584   5.550   0.922   6.359  0.7468  0.4353  1.0098
 2922SOL     OW 9585   4.635   2.667   6.917 -0.1648 -0.1017 -0.4775
 2922SOL    HW1 9586   4.588   2.690   6.832  1.0892 -0.0553 -1.1841
 2922SOL    HW2 9587   4.719   2.722   6.924  0.4905 -1.1577  0.0861
 2923SOL     OW 9588   6.819   5.859   4.919 -0.1395  0.5405 -0.0815
 2923SOL    HW1 9589   6.841   5.957   4.920 -1.9419  0.9891  1.6926
 2923SOL    HW2 9590   6.748   5.840   4.987 -1.6927 -1.6014 -2.1798
 2924SOL     OW 9591   4.365   6.156   6.121 -1.1722 -0.4717 -0.3463
 2924SOL    HW1 9592   4.460   6.185   6.133 -1.2446 -0.0056 -0.9221
 2924SOL    HW2 9593   4.314   6.174   6.205 -0.5434 -1.5536  0.2914
 2925SOL     OW 9594   2.508   3.162   6.951 -0.6342 -0.2474 -0.6211
 2925SOL    HW1 9595   2.570   3.219   7.006  1.2899 -0.2409 -2.6685
 2925SOL    HW2 9596   2.559   3.084   6.914 -2.2793 -1.1768 -1.0102
 2926SOL     OW 9597   3.300   3.864   6.024 -0.3872  0.0303  0.0770
 2926SOL    HW1 9598   3.293   3.772   5.987 -2.3060 -0.2635  1.0874
 2926SOL    HW2 9599   3.232   3.923   5.981 -2.1381 -0.1201  2.4434
 2927SOL     OW 9600   3.401   0.126   6.192  0.2674 -0.3291 -0.3165
 2927SOL    HW1 9601   3.401   0.040   6.243  1.8094  0.4980  1.1950
 2927SOL    HW2 9602   3.326   0.184   6.224  0.2530 -0.4503 -0.1314
 2928SOL     OW 9603   3.021   5.263   6.691 -0.5448  0.4394 -1.1858
 2928SOL    HW1 9604   3.051   5.167   6.698 -0.9037  0.3538 -0.8425
 2928SOL    HW2 9605   2.933   5.274   6.736 -1.1084  0.6715 -2.2934
 2929SOL     OW 9606   2.974   4.780   3.772 -0.1037  0.2829 -0.7104
 2929SOL    HW1 9607   2.926   4.864   3.751 -0.8813  0.1056  0.2952
 2929SOL    HW2 9608   3.002   4.780   3.868  0.9017 -0.1151 -0.9885
 2930SOL     OW 9609   4.134   1.004   6.302  0.2982  0.5995 -0.5950
 2930SOL    HW1 9610   4.072   1.056   6.362  0.2168 -0.2577  0.0828
 2930SOL    HW2 9611   4.205   0.962   6.357 -0.3335 -1.0050 -0.9560
 2931SOL     OW 9612   3.804   3.445   5.532 -0.1411  0.3181 -0.9715
 2931SOL    HW1 9613   3.812   3.348   5.508 -0.9234  0.3486 -1.3949
 2931SOL    HW2 9614   3.891   3.491   5.512  0.6007 -0.4805  0.2303
 2932SOL     OW 9615   3.736   1.885   6.553 -0.0107  0.6485 -0.3750
 2932SOL    HW1 9616   3.753   1.982   6.572 -3.6364  1.3064  0.1444
 2932SOL    HW2 9617   3.672   1.877   6.477  1.3657 -1.4498 -1.3785
 2933SOL     OW 9618   2.428   1.540   3.819  0.4667  0.5698  1.2124
 2933SOL    HW1 9619   2.387   1.534   3.729 -0.8430 -0.2400  1.8307
 2933SOL    HW2 9620   2.519   1.582   3.812  0.5608  0.1558 -0.5121
 2934SOL     OW 9621   0.285   1.960   3.052 -0.1943  0.1121 -0.2598
 2934SOL    HW1 9622   0.241   1.909   3.127 -1.4719  1.0624 -0.3430
 2934SOL    HW2 9623   0.232   2.042   3.032  0.9835  0.6567 -1.2022
 2935SOL     OW 9624   6.453   4.029   0.532 -0.7530 -0.2069  0.6635
 2935SOL    HW1 9625   6.367   4.076   0.554 -0.0100  1.8313 -0.4444
 2935SOL    HW2 9626   6.471   3.959   0.601 -2.1898  0.8101  2.1733
 2936SOL     OW 9627   5.387   5.545   3.262 -0.0902 -0.1623 -0.0143
 2936SOL    HW1 9628   5.377   5.596   3.177  0.5072  0.5829  0.3591
 2936SOL    HW2 9629   5.366   5.604   3.340 -1.9497 -1.1790  0.3329
 2937SOL     OW 9630   2.825   3.205   5.807  0.8279 -0.1074 -0.5051
 2937SOL    HW1 9631   2.780   3.180   5.893  2.9374 -1.0146  0.4362
 2937SOL    HW2 9632   2.816   3.303   5.792 -0.6050 -0.1160  0.0979
 2938SOL     OW 9633   4.880   4.385   0.622 -0.4131 -0.0087  0.3361
 2938SOL    HW1 9634   4.901   4.298   0.667 -2.6786 -0.0423  1.4397
 2938SOL    HW2 9635   4.871   4.457   0.690  0.3270  0.8850 -0.4798
 2939SOL     OW 9636   2.019   1.055   1.617 -0.1444  0.2137 -0.0202
 2939SOL    HW1 9637   2.046   1.044   1.522 -0.5120  0.1245 -0.1174
 2939SOL    HW2 9638   2.060   0.982   1.672  1.0616  0.9700  0.0998
 2940SOL     OW 9639   2.740   2.933   5.798 -0.3516 -0.3444 -0.0449
 2940SOL    HW1 9640   2.801   3.002   5.836  0.3283 -2.0823  2.2882
 2940SOL    HW2 9641   2.705   2.876   5.872 -1.4770 -2.0259 -1.7815
 2941SOL     OW 9642   0.596   4.138   6.897  0.1004  0.2626 -0.2611
 2941SOL    HW1 9643   0.552   4.219   6.858 -2.4540 -1.6684 -1.6657
 2941SOL    HW2 9644   0.636   4.083   6.824  0.9591 -0.2621  0.5762
 2942SOL     OW 9645   3.145   1.529   6.614 -0.0020 -0.6886 -0.3826
 2942SOL    HW1 9646   3.069   1.464   6.623 -1.2495  0.5971 -1.3180
 2942SOL    HW2 9647   3.175   1.533   6.519 -0.8134  1.0249 -0.6127
 2943SOL     OW 9648   3.180   6.610   4.793 -0.0283 -0.3299 -0.5917
 2943SOL    HW1 9649   3.238   6.690   4.780 -1.0821  0.4593 -0.5458
 2943SOL    HW2 9650   3.101   6.635   4.849 -0.1358 -1.5233 -0.1749
 2944SOL     OW 9651   3.900   5.677   6.934  0.8466  0.2230 -0.6189
 2944SOL    HW1 9652   3.983   5.655   6.883  0.9236  1.3569 -1.0208
 2944SOL    HW2 9653   3.819   5.647   6.883  1.0015 -1.3019 -0.0147
 2945SOL     OW 9654   3.918   0.663   0.580  0.3053  0.8105 -0.1573
 2945SOL    HW1 9655   3.902   0.564   0.574  0.4178  0.7579  0.4039
 2945SOL    HW2 9656   3.834   0.708   0.610 -0.1608  1.0408 -1.6972
 2946SOL     OW 9657   2.320   1.931   5.962  0.3691 -0.7360 -0.0907
 2946SOL    HW1 9658   2.403   1.886   5.929  0.7972 -0.4456  0.5742
 2946SOL    HW2 9659   2.249   1.925   5.892  1.3029  0.0042 -1.1354
 2947SOL     OW 9660   3.387   5.488   3.245  0.0225 -0.3667 -0.3164
 2947SOL    HW1 9661   3.366   5.529   3.156  1.1281  2.0217  0.4147
 2947SOL    HW2 9662   3.484   5.505   3.267 -0.2481 -0.8020  1.3691
 2948SOL     OW 9663   2.065   3.041   5.970  0.2507  0.6112 -0.5941
 2948SOL    HW1 9664   2.140   2.979   5.945  0.5374  1.3692 -1.7092
 2948SOL    HW2 9665   1.978   2.997   5.948  0.4440  0.4914 -1.1658
 2949SOL     OW 9666   4.410   6.332   1.024  0.0321 -0.3595 -0.2202
 2949SOL    HW1 9667   4.453   6.351   0.936  2.8003 -0.0155  1.0890
 2949SOL    HW2 9668   4.359   6.247   1.018  0.6978 -0.6804 -1.9942
 2950SOL     OW 9669   1.096   2.795   0.543 -0.3014 -0.0194  0.4163
 2950SOL    HW1 9670   1.089   2.720   0.609 -1.0676  0.0014  0.3706
 2950SOL    HW2 9671   1.080   2.759   0.451  1.2856 -0.1436  0.1661
 2951SOL     OW 9672   7.004   4.892   4.546  0.2685 -0.3397 -0.1550
 2951SOL    HW1 9673   7.086   4.876   4.601  0.4420  2.2538  0.4211
 2951SOL    HW2 9674   6.937   4.819   4.564 -0.0280  0.7095  4.2900
 2952SOL     OW 9675   6.871   0.858   4.095 -0.0932 -0.3742 -0.2463
 2952SOL    HW1 9676   6.945   0.812   4.045 -1.2365 -1.9041 -0.6083
 2952SOL    HW2 9677   6.786   0.807   4.083 -0.6592 -0.1972  2.3748
 2953SOL     OW 9678   0.432   4.179   4.291 -0.4567 -0.4530 -0.1479
 2953SOL    HW1 9679   0.425   4.136   4.201 -1.2750  1.2824 -0.9561
 2953SOL    HW2 9680   0.340   4.200   4.325 -0.1263 -0.5231  0.8390
 2954SOL     OW 9681   4.229   2.823   2.429  0.0618  0.0614 -0.1908
 2954SOL    HW1 9682   4.222   2.804   2.527 -0.9234 -1.4300 -0.5198
 2954SOL    HW2 9683   4.141   2.803   2.385  0.9352 -0.7805 -1.6261
 2955SOL     OW 9684   4.204   0.596   3.595 -0.0489 -0.3110  0.2690
 2955SOL    HW1 9685   4.186   0.498   3.586  0.8245 -0.4780  0.2921
 2955SOL    HW2 9686   4.117   0.645   3.603 -0.4821 -1.1053  0.5269
 2956SOL     OW 9687   1.453   4.063   4.668  0.5643  0.1419  0.2870
 2956SOL    HW1 9688   1.425   4.151   4.707 -0.1764 -0.3419  0.8962
 2956SOL    HW2 9689   1.477   4.075   4.572 -1.3405  0.7062 -0.1667
 2957SOL     OW 9690   5.536   5.587   5.867  0.2209 -0.0253  0.0582
 2957SOL    HW1 9691   5.484   5.513   5.824  2.0239 -1.0882 -0.3504
 2957SOL    HW2 9692   5.540   5.573   5.965 -0.1197 -0.0159  0.0763
 2958SOL     OW 9693   4.787   3.582   6.947  0.8201  0.8086 -0.1512
 2958SOL    HW1 9694   4.873   3.597   6.898  1.4855 -1.7060  0.1245
 2958SOL    HW2 9695   4.766   3.484   6.949 -1.0449  1.1808  1.5226
 2959SOL     OW 9696   2.430   6.853   4.197 -0.1550 -0.1079 -0.0041
 2959SOL    HW1 9697   2.466   6.890   4.111 -0.5409  1.9895  0.6750
 2959SOL    HW2 9698   2.506   6.837   4.260 -0.1241  2.9255  0.9061
 2960SOL     OW 9699   1.007   1.123   4.311  0.5704 -0.5081 -0.1682
 2960SOL    HW1 9700   0.973   1.040   4.356  1.1242 -0.1081  1.0435
 2960SOL    HW2 9701   0.993   1.115   4.212  0.0974 -1.7931 -0.0282
 2961SOL     OW 9702   5.078   2.604   3.975 -0.4348  0.1756 -0.0592
 2961SOL    HW1 9703   5.119   2.610   4.066 -1.0375 -2.8740  0.5153
 2961SOL    HW2 9704   4.979   2.615   3.982 -0.4514  0.2797 -0.4037
 2962SOL     OW 9705   1.072   6.508   6.359  0.0347 -0.0655  0.4721
 2962SOL    HW1 9706   1.129   6.426   6.356  2.0521  1.2749 -1.9048
 2962SOL    HW2 9707   1.129   6.587   6.381 -1.1344  1.1564 -0.7124
 2963SOL     OW 9708   0.573   1.572   0.215 -0.2029  0.1730  0.3245
 2963SOL    HW1 9709   0.588   1.626   0.132  0.8980 -0.2282  0.2514
 2963SOL    HW2 9710   0.637   1.601   0.286  0.3802 -1.0062  0.2936
 2964SOL     OW 9711   0.872   1.118   1.954  0.1423 -0.1448  0.2020
 2964SOL    HW1 9712   0.796   1.163   1.908  0.5798  1.7296  1.1768
 2964SOL    HW2 9713   0.862   1.129   2.053  0.8611 -1.2723  0.4185
 2965SOL     OW 9714   0.511   1.068   1.346  0.7597 -0.0005 -0.6060
 2965SOL    HW1 9715   0.477   1.000   1.282  0.0397  0.4788 -0.7492
 2965SOL    HW2 9716   0.509   1.159   1.304 -0.1492  0.3875  0.2237
 2966SOL     OW 9717   6.543   2.842   1.252 -0.3136 -0.0329  0.0135
 2966SOL    HW1 9718   6.611   2.835   1.179 -0.7902  2.3690 -0.7755
 2966SOL    HW2 9719   6.589   2.834   1.340  0.9824  1.0928 -0.5113
 2967SOL     OW 9720   6.625   3.686   1.969 -0.6270  0.4017 -0.0366
 2967SOL    HW1 9721   6.600   3.720   1.878 -0.7309  3.6561  1.0576
 2967SOL    HW2 9722   6.568   3.732   2.037 -1.6647 -3.1259  1.6573
 2968SOL     OW 9723   4.872   3.943   3.472  0.2957  0.2256 -0.3299
 2968SOL    HW1 9724   4.860   3.954   3.374  0.8319 -1.9825 -0.6984
 2968SOL    HW2 9725   4.960   3.900   3.490 -0.7928 -1.5868  0.9221
 2969SOL     OW 9726   0.077   3.740   0.517  0.2632 -0.5113  0.0231
 2969SOL    HW1 9727   0.109   3.724   0.423  1.8128 -0.3362  0.4912
 2969SOL    HW2 9728   0.138   3.806   0.561 -0.0695 -1.0758  1.3519
 2970SOL     OW 9729   3.719   2.213   1.635 -0.3320 -0.0196  0.3281
 2970SOL    HW1 9730   3.803   2.235   1.684  0.3254 -1.0379 -0.3273
 2970SOL    HW2 9731   3.703   2.114   1.637 -1.2962  0.1123  0.0762
 2971SOL     OW 9732   0.765   6.442   5.134 -1.0782 -0.7319 -0.0576
 2971SOL    HW1 9733   0.765   6.532   5.089 -0.5113  0.5578  2.3475
 2971SOL    HW2 9734   0.693   6.441   5.204 -1.7540 -2.5601 -0.7299
 2972SOL     OW 9735   6.205   5.078   2.058 -0.3682 -0.2412 -0.2767
 2972SOL    HW1 9736   6.140   5.118   2.122  0.1502  0.4465 -0.1712
 2972SOL    HW2 9737   6.218   5.139   1.980  0.1302 -0.3870 -0.3094
 2973SOL     OW 9738   0.919   1.386   0.142 -0.0001 -0.2906  0.1039
 2973SOL    HW1 9739   0.916   1.433   0.230  1.8352 -1.3823  0.7968
 2973SOL    HW2 9740   0.826   1.369   0.111 -0.6865  0.9737  1.3458
 2974SOL     OW 9741   0.466   4.210   1.548 -0.1600 -0.2847 -0.5470
 2974SOL    HW1 9742   0.450   4.250   1.638 -1.5264 -0.7996 -0.5149
 2974SOL    HW2 9743   0.461   4.110   1.555  0.3560 -0.3481 -1.0840
 2975SOL     OW 9744   6.486   5.710   4.394 -0.0800  0.0112 -0.3327
 2975SOL    HW1 9745   6.389   5.724   4.418 -0.6805  0.1907 -2.6452
 2975SOL    HW2 9746   6.534   5.670   4.472 -2.0932 -0.4164  0.7575
 2976SOL     OW 9747   3.079   5.318   0.138 -0.0879  0.6857  0.6249
 2976SOL    HW1 9748   3.135   5.260   0.079 -1.3722  1.6011 -1.5952
 2976SOL    HW2 9749   2.982   5.295   0.125 -0.4258  1.2013  2.0861
 2977SOL     OW 9750   4.733   6.855   3.455  0.1884 -0.4048 -0.3147
 2977SOL    HW1 9751   4.668   6.787   3.422 -0.5388 -0.3158  0.8499
 2977SOL    HW2 9752   4.820   6.811   3.477 -0.0585 -0.8349 -0.1841
 2978SOL     OW 9753   2.265   0.612   6.893  0.6098 -0.1186  0.1276
 2978SOL    HW1 9754   2.308   0.699   6.869 -1.0594  0.4119 -1.1689
 2978SOL    HW2 9755   2.284   0.544   6.823  1.9411 -0.8569  1.1570
 2979SOL     OW 9756   5.958   2.345   5.434 -0.4184  0.0231 -0.0010
 2979SOL    HW1 9757   5.979   2.408   5.359 -0.6242 -0.4995 -0.5098
 2979SOL    HW2 9758   5.995   2.380   5.519  0.4751  0.2714 -0.4699
 2980SOL     OW 9759   0.549   0.767   2.441  0.0011  0.4404 -0.0781
 2980SOL    HW1 9760   0.553   0.827   2.520  0.7585  0.0751  0.1781
 2980SOL    HW2 9761   0.458   0.727   2.433  0.0004  0.2603  0.7824
 2981SOL     OW 9762   5.986   5.105   4.999  0.1989 -0.4020  0.4874
 2981SOL    HW1 9763   5.914   5.163   4.962  1.7132  1.0073 -0.4064
 2981SOL    HW2 9764   5.982   5.015   4.957 -0.6038 -0.1213 -0.0595
 2982SOL     OW 9765   4.222   1.720   5.813 -0.1932 -0.5517 -0.3573
 2982SOL    HW1 9766   4.174   1.632   5.811  0.1525 -0.7609  0.1162
 2982SOL    HW2 9767   4.294   1.717   5.882 -1.0444  0.5793  0.6053
 2983SOL     OW 9768   3.560   2.146   1.349  0.2054 -0.3701 -0.0082
 2983SOL    HW1 9769   3.613   2.221   1.308  0.2967 -0.1813  0.4489
 2983SOL    HW2 9770   3.584   2.061   1.304 -1.2213  0.1126 -1.7841
 2984SOL     OW 9771   1.465   2.374   5.005 -0.7897  0.4268 -0.5119
 2984SOL    HW1 9772   1.540   2.429   4.968  1.2657 -0.7005  1.7023
 2984SOL    HW2 9773   1.414   2.428   5.073  0.4814  0.0448  0.7889
 2985SOL     OW 9774   0.924   5.880   3.909 -0.0596 -0.2723 -0.7594
 2985SOL    HW1 9775   0.854   5.868   3.839 -1.9334  0.8093  0.7998
 2985SOL    HW2 9776   0.901   5.825   3.989 -0.4604  1.8303  0.6572
 2986SOL     OW 9777   2.674   2.164   6.844  0.3773  0.0826  0.1444
 2986SOL    HW1 9778   2.764   2.207   6.848  0.8169 -0.6069 -1.5165
 2986SOL    HW2 9779   2.657   2.115   6.930  1.1541  1.0101  0.8488
 2987SOL     OW 9780   3.026   0.666   5.007 -0.3330  0.5822 -0.6241
 2987SOL    HW1 9781   2.934   0.626   5.012  0.2401 -0.7997 -0.7502
 2987SOL    HW2 9782   3.062   0.654   4.915  0.3387  0.2412 -0.3246
 2988SOL     OW 9783   0.721   5.651   2.912 -0.6150 -0.1829 -0.1479
 2988SOL    HW1 9784   0.692   5.714   2.984  0.2579 -0.8355  0.8011
 2988SOL    HW2 9785   0.721   5.699   2.824  0.0959  1.1770  0.5570
 2989SOL     OW 9786   5.965   2.492   1.882  0.1059 -0.0064 -0.2219
 2989SOL    HW1 9787   5.945   2.566   1.946  0.3055  0.7894 -1.0654
 2989SOL    HW2 9788   5.935   2.518   1.790 -0.8102 -1.4072 -0.3496
 2990SOL     OW 9789   6.056   3.535   6.052 -0.0850  0.1922  0.2223
 2990SOL    HW1 9790   6.122   3.585   6.108 -0.0680 -0.5792  0.9053
 2990SOL    HW2 9791   6.044   3.443   6.088 -0.7916 -0.0078 -0.4867
 2991SOL     OW 9792   1.051   2.890   5.178 -0.2227 -0.9406 -0.1303
 2991SOL    HW1 9793   1.150   2.888   5.192 -0.1872 -2.3219 -0.4687
 2991SOL    HW2 9794   1.005   2.887   5.266  0.0375 -1.2989 -0.0028
 2992SOL     OW 9795   2.471   1.652   0.765 -0.2669 -1.0124  0.3242
 2992SOL    HW1 9796   2.455   1.698   0.853  1.4229  0.3832 -0.0360
 2992SOL    HW2 9797   2.546   1.587   0.776  0.4613 -0.2864 -0.2265
 2993SOL     OW 9798   3.980   6.183   5.954  0.5044 -0.1934  0.8306
 2993SOL    HW1 9799   4.023   6.110   5.902 -0.6154  1.2184 -2.3298
 2993SOL    HW2 9800   3.942   6.145   6.039 -0.1730 -3.3354 -0.6991
 2994SOL     OW 9801   2.988   5.096   6.960  0.2509 -0.0382 -0.1258
 2994SOL    HW1 9802   3.087   5.100   6.972  0.2731  1.2822 -0.6087
 2994SOL    HW2 9803   2.961   5.004   6.931  1.5775  0.1603 -2.1494
 2995SOL     OW 9804   5.906   6.609   1.952  0.1904 -0.1982  0.6639
 2995SOL    HW1 9805   5.812   6.577   1.939  0.2552 -0.0179 -0.3191
 2995SOL    HW2 9806   5.966   6.565   1.885  0.9883 -1.0405  1.8878
 2996SOL     OW 9807   1.246   0.198   5.043 -0.0458 -0.4409  0.6755
 2996SOL    HW1 9808   1.267   0.220   5.139 -2.7742 -0.6997  1.4085
 2996SOL    HW2 9809   1.304   0.123   5.013  1.3149  0.0649  1.8895
 2997SOL     OW 9810   5.804   0.675   2.384  0.4520  0.1990  0.0325
 2997SOL    HW1 9811   5.853   0.732   2.450  1.5188  0.3655 -0.8567
 2997SOL    HW2 9812   5.740   0.731   2.332 -1.1886 -0.1275  1.6048
 2998SOL     OW 9813   0.675   4.838   3.440  0.2859 -0.4833  0.3949
 2998SOL    HW1 9814   0.608   4.764   3.445 -0.0860 -0.1270  0.7970
 2998SOL    HW2 9815   0.732   4.826   3.359  0.4092 -1.3645  0.5997
 2999SOL     OW 9816   3.091   6.037   0.119  0.1996 -0.2073 -0.4017
 2999SOL    HW1 9817   3.175   5.988   0.095  0.2301  0.1273 -1.0062
 2999SOL    HW2 9818   3.113   6.110   0.184  0.3787 -0.1397 -0.5308
 3000SOL     OW 9819   6.531   4.524   2.559 -0.4625 -0.1113  0.0052
 3000SOL    HW1 9820   6.532   4.602   2.497 -0.6642  0.2640  0.4655
 3000SOL    HW2 9821   6.475   4.546   2.639  0.9902  0.0193  1.0611
 3001SOL     OW 9822   1.345   2.515   4.340  0.2995 -0.5652 -0.1790
 3001SOL    HW1 9823   1.378   2.609   4.338  1.8704 -1.1046 -0.4477
 3001SOL    HW2 9824   1.369   2.469   4.255  1.8774 -1.9664  0.9852
 3002SOL     OW 9825   5.615   3.602   5.672 -0.4095  0.0186  0.6122
 3002SOL    HW1 9826   5.604   3.649   5.585  0.5966  0.1288  0.5300
 3002SOL    HW2 9827   5.533   3.547   5.691 -0.4729 -0.3444 -0.6025
 3003SOL     OW 9828   2.272   4.203   5.787  0.1453  0.1510 -0.6229
 3003SOL    HW1 9829   2.217   4.177   5.867  0.4300 -1.6844 -0.9930
 3003SOL    HW2 9830   2.237   4.157   5.706  2.2152 -1.1192 -0.8685
 3004SOL     OW 9831   6.567   1.567   6.382  0.0012  0.0910 -0.4349
 3004SOL    HW1 9832   6.642   1.508   6.353  0.4454  0.0241  0.7778
 3004SOL    HW2 9833   6.590   1.609   6.470 -0.9543  0.8763 -0.5375
 3005SOL     OW 9834   1.833   3.835   0.662  0.2511 -0.3718 -0.0444
 3005SOL    HW1 9835   1.881   3.870   0.581 -0.0629  0.6201  0.1776
 3005SOL    HW2 9836   1.758   3.775   0.633 -0.8209  1.1652 -0.5838
 3006SOL     OW 9837   2.414   3.526   1.836 -0.2342 -0.1283 -0.6670
 3006SOL    HW1 9838   2.414   3.626   1.849 -0.2345 -0.0428 -1.3086
 3006SOL    HW2 9839   2.439   3.505   1.742  1.0180 -0.7925 -0.2019
 3007SOL     OW 9840   1.576   1.526   1.818 -0.5055 -0.7381  0.2189
 3007SOL    HW1 9841   1.552   1.538   1.721 -0.6749 -0.3460  0.3106
 3007SOL    HW2 9842   1.674   1.507   1.826 -0.6295 -1.5764 -0.0955
 3008SOL     OW 9843   3.024   4.473   2.040 -0.1166  0.1693  0.2526
 3008SOL    HW1 9844   2.932   4.483   2.002 -0.2348  0.1141  0.5155
 3008SOL    HW2 9845   3.024   4.397   2.105 -0.6472  2.0761  2.5872
 3009SOL     OW 9846   1.093   6.824   5.688  0.1951 -0.5828 -0.6107
 3009SOL    HW1 9847   1.088   6.729   5.659 -1.0385 -1.1720  1.3739
 3009SOL    HW2 9848   1.016   6.845   5.748  1.3411  1.1977  0.3406
 3010SOL     OW 9849   4.499   3.432   4.819  0.3589 -0.0482 -0.0273
 3010SOL    HW1 9850   4.474   3.484   4.737  0.4593  3.6280  2.0666
 3010SOL    HW2 9851   4.424   3.369   4.842 -1.7992  2.2519 -0.3882
 3011SOL     OW 9852   2.687   3.423   5.649 -0.3193  0.1009  0.3222
 3011SOL    HW1 9853   2.646   3.494   5.591 -1.0289  0.3978  1.1681
 3011SOL    HW2 9854   2.628   3.407   5.728  0.5090 -0.4918  0.8247
 3012SOL     OW 9855   2.651   6.178   1.187  0.9535 -0.2591  0.2093
 3012SOL    HW1 9856   2.633   6.096   1.133  0.1733  0.5206 -0.7529
 3012SOL    HW2 9857   2.575   6.242   1.176  1.8652  0.8811  0.3746
 3013SOL     OW 9858   2.845   6.873   3.004  0.5749  0.2570 -0.4319
 3013SOL    HW1 9859   2.813   6.913   3.091 -0.4675  0.2082 -0.7781
 3013SOL    HW2 9860   2.820   6.934   2.929  1.4385  0.2763 -0.7122
 3014SOL     OW 9861   2.582   5.848   1.323 -0.4380 -0.5926  0.3806
 3014SOL    HW1 9862   2.519   5.881   1.253 -0.2373 -1.2953 -0.1512
 3014SOL    HW2 9863   2.531   5.822   1.405 -0.8943 -1.4639 -0.1586
 3015SOL     OW 9864   1.692   2.056   5.300 -0.2956  0.6173 -0.2223
 3015SOL    HW1 9865   1.757   2.122   5.261 -0.8525  1.7004  0.5914
 3015SOL    HW2 9866   1.600   2.094   5.297 -0.5629  0.0940  0.7436
 3016SOL     OW 9867   1.927   0.928   5.717 -0.2658  0.3504 -0.1808
 3016SOL    HW1 9868   1.925   1.026   5.702  2.2648  0.6353  0.6926
 3016SOL    HW2 9869   1.993   0.907   5.790  0.0981 -2.0578 -1.0893
 3017SOL     OW 9870   0.315   3.532   1.570 -0.1542  0.1338  0.4761
 3017SOL    HW1 9871   0.303   3.547   1.472 -2.1058 -1.0825  0.4698
 3017SOL    HW2 9872   0.228   3.507   1.612  0.1476  2.7180  2.9810
 3018SOL     OW 9873   3.509   6.891   0.932  0.1260 -0.1181 -0.1842
 3018SOL    HW1 9874   3.487   6.840   1.016  1.9431 -0.3351  0.2036
 3018SOL    HW2 9875   3.583   6.844   0.884 -1.5645 -0.5717 -2.4949
 3019SOL     OW 9876   0.086   1.220   5.103 -0.1856 -0.1317 -0.5926
 3019SOL    HW1 9877   0.186   1.222   5.096 -0.2523 -1.1950 -3.1180
 3019SOL    HW2 9878   0.049   1.308   5.072 -0.0542  0.1967  0.1632
 3020SOL     OW 9879   1.034   1.487   1.348  0.1185 -0.1420  0.5546
 3020SOL    HW1 9880   1.131   1.465   1.337 -0.1458 -1.1501  0.1890
 3020SOL    HW2 9881   1.024   1.551   1.424  1.0395 -0.2433  0.7832
 3021SOL     OW 9882   4.743   1.184   2.269 -0.5385 -0.1988  0.4381
 3021SOL    HW1 9883   4.783   1.104   2.224  1.0061  0.9059 -0.2342
 3021SOL    HW2 9884   4.707   1.158   2.359  0.2861 -1.5703  0.3885
 3022SOL     OW 9885   5.496   6.484   6.170 -0.0473 -0.3806 -0.2798
 3022SOL    HW1 9886   5.473   6.502   6.266  0.5277  0.3603 -0.2723
 3022SOL    HW2 9887   5.422   6.516   6.111 -0.3429 -0.7100 -0.0931
 3023SOL     OW 9888   1.367   6.915   3.141 -0.2947 -0.1282  1.0388
 3023SOL    HW1 9889   1.383   6.822   3.108  0.5291  0.8719 -1.6898
 3023SOL    HW2 9890   1.268   6.931   3.150 -0.9696  0.3138 -4.1160
 3024SOL     OW 9891   4.192   0.578   1.836  0.3242 -0.3363 -0.1772
 3024SOL    HW1 9892   4.166   0.649   1.901 -0.6182 -0.5553 -0.2985
 3024SOL    HW2 9893   4.277   0.535   1.865  1.1302  1.0964 -0.3047
 3025SOL     OW 9894   0.659   0.317   5.476  0.2073  0.0180 -0.0623
 3025SOL    HW1 9895   0.574   0.303   5.425  1.1868 -0.8681 -1.5016
 3025SOL    HW2 9896   0.710   0.393   5.435  0.4094  0.1199  0.3798
 3026SOL     OW 9897   3.203   2.576   4.008  0.4869 -0.3007 -0.0113
 3026SOL    HW1 9898   3.117   2.614   4.041  0.0468 -1.5528  0.3227
 3026SOL    HW2 9899   3.278   2.610   4.064  0.2264  0.7324 -0.2528
 3027SOL     OW 9900   4.386   0.603   0.109  0.2156  0.7988  0.0450
 3027SOL    HW1 9901   4.404   0.527   0.047  0.5137  2.8086 -2.5384
 3027SOL    HW2 9902   4.465   0.616   0.169 -0.0203 -1.1252  0.8530
 3028SOL     OW 9903   0.763   5.397   2.868  0.4405 -0.1919  0.7694
 3028SOL    HW1 9904   0.747   5.494   2.882  0.1390 -0.4258  2.1780
 3028SOL    HW2 9905   0.850   5.384   2.820  0.0881  0.7853 -0.1765
 3029SOL     OW 9906   5.514   3.893   1.819 -0.3694  0.9163 -0.7677
 3029SOL    HW1 9907   5.564   3.972   1.785  1.2253  0.2214 -0.1166
 3029SOL    HW2 9908   5.520   3.890   1.919 -1.5037  0.6690 -0.6920
 3030SOL     OW 9909   2.253   1.825   0.669  0.3654 -0.2478 -0.1498
 3030SOL    HW1 9910   2.266   1.909   0.722  0.9718 -0.2185 -0.3361
 3030SOL    HW2 9911   2.330   1.763   0.686 -1.0393 -1.6165  1.5311
 3031SOL     OW 9912   2.306   3.924   6.614  0.3840  0.7205  0.2424
 3031SOL    HW1 9913   2.265   3.978   6.688  0.8047  0.0422  0.9856
 3031SOL    HW2 9914   2.268   3.831   6.617 -0.0716  0.8593 -0.7965
 3032SOL     OW 9915   0.167   4.599   1.986  0.2508 -0.3326 -0.7442
 3032SOL    HW1 9916   0.080   4.634   1.952  0.4797  1.1127  0.0846
 3032SOL    HW2 9917   0.222   4.565   1.910 -0.3245  0.3791 -1.4817
 3033SOL     OW 9918   2.562   0.008   0.368 -0.0123  0.3722  0.6209
 3033SOL    HW1 9919   2.634  -0.031   0.311  0.7369  0.0357  1.7510
 3033SOL    HW2 9920   2.540   0.101   0.336 -0.1455 -0.1067 -0.6415
 3034SOL     OW 9921   4.164   3.373   2.195 -0.1739 -0.2143 -0.0604
 3034SOL    HW1 9922   4.192   3.318   2.274 -1.3462 -0.7263  0.0224
 3034SOL    HW2 9923   4.077   3.338   2.159 -0.0432  0.4924 -1.1078
 3035SOL     OW 9924   5.222   0.928   6.468 -0.2397  0.0982 -0.0682
 3035SOL    HW1 9925   5.309   0.883   6.489 -0.0591 -0.0570 -1.1091
 3035SOL    HW2 9926   5.167   0.933   6.551  0.4214 -0.5496  0.4237
 3036SOL     OW 9927   5.950   1.575   3.440 -0.4358 -0.2064 -0.3304
 3036SOL    HW1 9928   5.957   1.515   3.519 -1.6081 -2.0525 -1.5814
 3036SOL    HW2 9929   5.890   1.652   3.462  0.0926 -0.1289  0.8932
 3037SOL     OW 9930   6.124   0.470   3.206  0.1596 -0.1537  0.4510
 3037SOL    HW1 9931   6.028   0.452   3.226 -0.3793  2.5156  0.5606
 3037SOL    HW2 9932   6.135   0.492   3.109 -0.0985  3.2265  1.0474
 3038SOL     OW 9933   0.093   5.875   6.680  0.3569  0.3339  0.4358
 3038SOL    HW1 9934   0.025   5.816   6.725 -0.6487  1.6230  0.6863
 3038SOL    HW2 9935   0.115   5.838   6.590 -0.7204 -0.1124  0.3340
 3039SOL     OW 9936   3.827   1.255   4.532  0.1411  0.3849  0.6165
 3039SOL    HW1 9937   3.855   1.321   4.601 -1.8143 -0.1148  1.9674
 3039SOL    HW2 9938   3.881   1.172   4.540  2.2005  1.5296 -0.6897
 3040SOL     OW 9939   1.843   4.837   6.335  0.3572 -0.5008 -0.1115
 3040SOL    HW1 9940   1.865   4.853   6.239  0.4142 -1.4679 -0.2751
 3040SOL    HW2 9941   1.779   4.907   6.367  0.2499 -0.2361 -0.8836
 3041SOL     OW 9942   4.283   3.772   4.473  0.0158 -0.3517 -0.2008
 3041SOL    HW1 9943   4.208   3.833   4.497  0.7307  1.0158 -1.2891
 3041SOL    HW2 9944   4.280   3.752   4.375  1.6923  0.6570 -0.5012
 3042SOL     OW 9945   0.604   3.228   4.817  0.0855  0.0210 -0.2177
 3042SOL    HW1 9946   0.654   3.280   4.748  0.0070 -0.6300 -0.7793
 3042SOL    HW2 9947   0.659   3.224   4.901  0.8737 -0.4440 -0.7311
 3043SOL     OW 9948   5.235   6.894   4.035  0.0890  0.5072  0.1587
 3043SOL    HW1 9949   5.313   6.905   4.097  1.1817 -0.6601 -0.9512
 3043SOL    HW2 9950   5.192   6.982   4.020  0.9106  1.1074  1.1765
 3044SOL     OW 9951   5.978   2.814   1.576  0.9249  0.9766 -0.5121
 3044SOL    HW1 9952   6.045   2.746   1.546  0.6267 -0.3002  1.5209
 3044SOL    HW2 9953   5.887   2.773   1.577  0.7150  1.4289  0.5962
 3045SOL     OW 9954   3.368   1.803   4.295 -0.2451 -0.1531  0.4995
 3045SOL    HW1 9955   3.409   1.736   4.358 -2.1470 -0.8147  1.0792
 3045SOL    HW2 9956   3.270   1.787   4.288 -0.2793  0.7348 -1.6820
 3046SOL     OW 9957   2.617   3.536   4.046 -0.4812 -0.3964 -0.6600
 3046SOL    HW1 9958   2.563   3.454   4.026 -0.3367 -1.0432  1.3476
 3046SOL    HW2 9959   2.618   3.595   3.966 -3.2436 -0.8769 -1.1650
 3047SOL     OW 9960   6.474   4.670   0.646 -0.1654  0.4418 -0.3186
 3047SOL    HW1 9961   6.425   4.633   0.567  0.8972  1.3608 -1.4530
 3047SOL    HW2 9962   6.413   4.670   0.726 -1.8298  0.9912 -1.5180
 3048SOL     OW 9963   6.561   0.985   1.171  0.4206  0.2688 -0.4722
 3048SOL    HW1 9964   6.519   1.037   1.245 -1.9774  0.3809 -1.8120
 3048SOL    HW2 9965   6.633   1.040   1.128 -0.3780  1.4987 -0.2806
 3049SOL     OW 9966   1.645   6.591   0.758  0.5946  0.0676  0.2867
 3049SOL    HW1 9967   1.727   6.574   0.703  0.8689  0.2102  0.6477
 3049SOL    HW2 9968   1.625   6.689   0.759 -1.0317 -0.1595 -1.8573
 3050SOL     OW 9969   2.886   6.312   5.065 -0.4627 -0.2261 -0.4056
 3050SOL    HW1 9970   2.829   6.336   4.987 -1.1017  0.6133  0.3189
 3050SOL    HW2 9971   2.892   6.389   5.128  0.4737 -0.7177  0.1276
 3051SOL     OW 9972   6.069   3.638   4.601  0.8105  0.1079  0.1380
 3051SOL    HW1 9973   5.994   3.573   4.593  0.5535  0.4541 -0.3402
 3051SOL    HW2 9974   6.126   3.615   4.680 -0.2879  0.3310  1.0252
 3052SOL     OW 9975   6.265   1.879   5.439 -0.0475  0.1774  0.7942
 3052SOL    HW1 9976   6.222   1.966   5.462 -3.2082 -1.1112  0.2375
 3052SOL    HW2 9977   6.195   1.811   5.420  2.2766 -1.7359 -1.7767
 3053SOL     OW 9978   4.525   6.814   5.779  0.4237 -0.8039 -0.2782
 3053SOL    HW1 9979   4.540   6.867   5.863  1.4590 -0.1315 -0.8801
 3053SOL    HW2 9980   4.611   6.775   5.748  0.2128 -0.3289 -1.5137
 3054SOL     OW 9981   4.475   5.752   1.121  0.3064 -0.1563 -0.0032
 3054SOL    HW1 9982   4.542   5.814   1.080 -1.7958  1.7462 -0.7295
 3054SOL    HW2 9983   4.440   5.792   1.205 -0.5434 -0.7381 -0.0746
 3055SOL     OW 9984   6.028   0.885   4.827 -0.3137  0.4315  0.0948
 3055SOL    HW1 9985   6.064   0.977   4.815 -1.1671  0.7565 -0.0090
 3055SOL    HW2 9986   5.953   0.869   4.764 -0.4916 -0.1700  0.4438
 3056SOL     OW 9987   1.688   0.393   5.440 -0.3914 -0.1256 -0.0975
 3056SOL    HW1 9988   1.638   0.389   5.353  0.1750  0.2211 -0.4473
 3056SOL    HW2 9989   1.653   0.469   5.494 -0.2528  0.1068 -0.3335
 3057SOL     OW 9990   5.571   5.495   0.819 -0.4615 -0.3591  0.8599
 3057SOL    HW1 9991   5.636   5.474   0.892 -0.4007 -0.8389  0.6722
 3057SOL    HW2 9992   5.494   5.547   0.856 -1.4091 -2.2384  1.6714
 3058SOL     OW 9993   0.594   5.284   4.298 -0.7963 -0.1075  0.3370
 3058SOL    HW1 9994   0.665   5.346   4.266  1.1917 -2.8116 -0.8037
 3058SOL    HW2 9995   0.560   5.315   4.386  0.9319  1.9442  0.3523
 3059SOL     OW 9996   0.547   6.008   5.826 -0.3544 -0.7500 -0.0415
 3059SOL    HW1 9997   0.638   5.992   5.790 -0.0329  0.3648  0.2326
 3059SOL    HW2 9998   0.553   6.038   5.921 -1.0588 -1.3792  0.2266
 3060SOL     OW 9999   2.239   6.379   6.010 -0.2997 -0.0938 -0.2798
 3060SOL    HW110000   2.230   6.327   6.095 -1.0981  1.1800  0.4487
 3060SOL    HW210001   2.172   6.346   5.944  0.5680 -1.3354 -0.5672
 3061SOL     OW10002   1.510   0.980   4.032 -0.4236  0.2457  0.2695
 3061SOL    HW110003   1.515   0.916   3.955 -3.0511  0.6273 -0.3029
 3061SOL    HW210004   1.596   1.030   4.039  1.1521 -2.2479 -0.2092
 3062SOL     OW10005   0.274   2.507   4.568 -0.1432  0.3443 -0.4234
 3062SOL    HW110006   0.369   2.506   4.598 -0.2666  0.0240 -0.0264
 3062SOL    HW210007   0.262   2.574   4.496  0.8061 -0.9833 -1.8777
 3063SOL     OW10008   5.054   1.028   4.599 -0.0130  0.3295  0.4640
 3063SOL    HW110009   5.111   0.990   4.526 -0.4833  0.2488  0.1374
 3063SOL    HW210010   4.996   0.957   4.637  0.9524  0.1312  1.6198
 3064SOL     OW10011   5.994   3.937   2.840  0.0640  0.2625  0.5805
 3064SOL    HW110012   5.941   3.887   2.909 -0.8241  1.8820  1.1148
 3064SOL    HW210013   6.087   3.952   2.874  0.3438 -0.9817  0.4187
 3065SOL     OW10014   6.241   5.211   4.960 -0.4385  0.6643  0.3533
 3065SOL    HW110015   6.170   5.142   4.975  0.8267 -0.2377  2.8960
 3065SOL    HW210016   6.201   5.292   4.917 -2.6184 -0.4435  0.1621
 3066SOL     OW10017   0.627   4.158   6.118  0.1840 -0.0065  0.4106
 3066SOL    HW110018   0.546   4.187   6.170  0.1338  1.0457 -0.2435
 3066SOL    HW210019   0.615   4.181   6.022  1.6789  1.0755  0.4599
 3067SOL     OW10020   6.159   4.906   0.525 -0.1912 -0.1152 -1.1642
 3067SOL    HW110021   6.222   4.958   0.582  0.6951 -1.3138 -1.0035
 3067SOL    HW210022   6.120   4.965   0.455  2.5469  0.2774 -2.4820
 3068SOL     OW10023   4.552   1.314   2.121  0.4154  0.5566 -0.1463
 3068SOL    HW110024   4.583   1.403   2.087 -1.0972  0.8684 -0.8032
 3068SOL    HW210025   4.620   1.277   2.185  0.9767  2.2694  0.3042
 3069SOL     OW10026   5.386   2.025   2.503  0.1992  0.0480 -0.0067
 3069SOL    HW110027   5.478   2.000   2.475 -0.1377 -0.6171 -0.5534
 3069SOL    HW210028   5.320   1.962   2.461 -0.4632  0.2051  0.7764
 3070SOL     OW10029   3.963   4.642   2.399  0.2939 -0.0921  0.0194
 3070SOL    HW110030   3.898   4.681   2.334  1.6574  1.3403 -0.5693
 3070SOL    HW210031   3.916   4.580   2.461 -1.6949  1.1680 -0.1539
 3071SOL     OW10032   1.917   3.144   4.978  0.2148  0.2444  0.0851
 3071SOL    HW110033   1.920   3.182   5.070  0.6113  0.0535  0.1544
 3071SOL    HW210034   2.010   3.132   4.944  0.1090 -0.6539  0.0719
 3072SOL     OW10035   4.910   2.067   1.671  0.1189  0.0022  0.2627
 3072SOL    HW110036   4.898   2.127   1.750  2.5459  0.3315  0.4621
 3072SOL    HW210037   4.975   1.995   1.693  1.2878  0.4166 -1.5529
 3073SOL     OW10038   4.793   3.938   6.834 -0.2498 -0.3662 -0.2744
 3073SOL    HW110039   4.778   4.028   6.793  1.0053 -0.2045 -0.3911
 3073SOL    HW210040   4.829   3.949   6.927  0.6182 -0.7368 -0.5550
 3074SOL     OW10041   3.315   4.280   2.213  0.0199 -0.0537 -0.2491
 3074SOL    HW110042   3.215   4.279   2.225 -0.3719  0.8085 -2.9337
 3074SOL    HW210043   3.350   4.371   2.236 -0.3509  0.7230 -2.4821
 3075SOL     OW10044   2.212   1.132   5.376 -0.0056  0.2028  0.3073
 3075SOL    HW110045   2.281   1.061   5.395  0.8644  0.8051 -0.5451
 3075SOL    HW210046   2.213   1.199   5.450  1.0199  0.7289 -0.1579
 3076SOL     OW10047   6.926   0.657   2.306  0.2497 -0.0675 -0.3989
 3076SOL    HW110048   6.854   0.708   2.259 -0.2209 -0.2092  0.1509
 3076SOL    HW210049   6.885   0.590   2.368  0.8405  0.4925  0.6217
 3077SOL     OW10050   0.228   3.230   5.455  0.3865  0.4854  0.3140
 3077SOL    HW110051   0.327   3.243   5.466  0.2964  0.2895  1.4399
 3077SOL    HW210052   0.211   3.159   5.387  1.0266  0.1955  0.4520
 3078SOL     OW10053   4.632   2.705   2.389  0.8566  0.2364  0.4651
 3078SOL    HW110054   4.716   2.671   2.346  1.9569  1.3757  1.6595
 3078SOL    HW210055   4.625   2.668   2.481  0.8645  1.3508  0.9276
 3079SOL     OW10056   4.335   0.217   0.526  0.2194  0.0878 -0.1112
 3079SOL    HW110057   4.321   0.259   0.437  1.7841  0.8186 -0.0498
 3079SOL    HW210058   4.380   0.283   0.587  1.1009 -1.1022  0.5481
 3080SOL     OW10059   0.681   3.649   6.784 -0.2998  0.2513  0.0710
 3080SOL    HW110060   0.769   3.665   6.830 -1.1850  1.0795  1.5646
 3080SOL    HW210061   0.683   3.691   6.693  0.3195  1.6487  0.6988
 3081SOL     OW10062   0.877   5.381   2.211  0.9915  0.2401  0.1275
 3081SOL    HW110063   0.843   5.458   2.157  2.5917  0.4055 -0.6988
 3081SOL    HW210064   0.958   5.342   2.168  0.3699 -1.7953  0.6428
 3082SOL     OW10065   6.473   0.578   3.270  0.2527 -0.2946 -0.3368
 3082SOL    HW110066   6.398   0.558   3.334  1.2647  1.3743  1.4879
 3082SOL    HW210067   6.536   0.501   3.268  1.0615  0.2023  2.0546
 3083SOL     OW10068   3.312   6.922   5.008 -0.1171 -0.2639 -0.1077
 3083SOL    HW110069   3.241   6.899   5.076  0.0261 -1.2159 -0.2597
 3083SOL    HW210070   3.399   6.935   5.055 -0.6758  2.6130  0.2923
 3084SOL     OW10071   0.571   4.559   5.441 -0.2871  0.5773  0.6998
 3084SOL    HW110072   0.587   4.511   5.355  0.7196  1.9111  0.1281
 3084SOL    HW210073   0.658   4.586   5.481 -0.6610 -0.8807  2.6770
 3085SOL     OW10074   2.392   6.444   6.659  0.1586  0.4262  0.0352
 3085SOL    HW110075   2.406   6.407   6.567  0.5249 -0.9304  0.6228
 3085SOL    HW210076   2.299   6.424   6.689  0.2545  0.2653  0.2283
 3086SOL     OW10077   5.809   3.388   6.601  0.4656 -0.3133 -0.6341
 3086SOL    HW110078   5.899   3.347   6.621  0.0808 -1.4295 -1.0896
 3086SOL    HW210079   5.738   3.319   6.614 -0.2003  0.1716 -1.5749
 3087SOL     OW10080   0.299   6.837   4.279  0.1179 -0.5605  0.1312
 3087SOL    HW110081   0.307   6.757   4.338 -0.6899  0.7506  2.1419
 3087SOL    HW210082   0.260   6.913   4.331  0.8105  1.1505 -1.7032
 3088SOL     OW10083   0.649   1.365   0.063  0.2269 -0.1218  0.2264
 3088SOL    HW110084   0.586   1.349  -0.013 -1.2952 -1.9861  1.8228
 3088SOL    HW210085   0.620   1.447   0.113 -1.4766 -1.3334  1.3443
 3089SOL     OW10086   4.954   1.620   6.599 -0.8951 -0.5695  0.1982
 3089SOL    HW110087   5.046   1.614   6.638  0.0605 -1.1312 -1.9935
 3089SOL    HW210088   4.922   1.714   6.604  0.1992 -0.1755  0.1090
 3090SOL     OW10089   4.703   0.104   0.258  0.0535 -0.5121 -0.6085
 3090SOL    HW110090   4.693   0.180   0.323 -1.0937 -2.5737  1.8265
 3090SOL    HW210091   4.789   0.114   0.208  0.4414  1.8166  0.3737
 3091SOL     OW10092   5.249   6.632   6.748 -0.1912  0.1255  0.3054
 3091SOL    HW110093   5.293   6.646   6.836 -0.6605 -0.0176  0.5644
 3091SOL    HW210094   5.275   6.543   6.711  0.6398  0.5018 -0.0809
 3092SOL     OW10095   0.527   0.540   0.770  0.3679  0.2695  0.6686
 3092SOL    HW110096   0.457   0.481   0.812 -1.0963  1.0211 -0.6173
 3092SOL    HW210097   0.510   0.548   0.672 -0.2127  3.7760  0.9565
 3093SOL     OW10098   0.738   5.030   6.342 -0.0591  0.2992  0.3026
 3093SOL    HW110099   0.676   5.088   6.289  3.3162  0.6306 -3.6948
 3093SOL    HW210100   0.813   5.086   6.377  0.2806 -0.7905  1.3839
 3094SOL     OW10101   0.612   5.618   4.460  0.7339 -0.0701 -0.4681
 3094SOL    HW110102   0.595   5.544   4.525  1.4002  0.8398  0.7755
 3094SOL    HW210103   0.709   5.641   4.459  0.7533 -0.0935 -1.8442
 3095SOL     OW10104   6.871   4.123   1.356 -0.1558 -0.4368  0.2519
 3095SOL    HW110105   6.849   4.083   1.267 -0.1415 -2.8335  1.2560
 3095SOL    HW210106   6.886   4.050   1.423 -1.8639  1.2599  2.6539
 3096SOL     OW10107   2.815   0.367   1.478 -0.4322  1.2346 -0.1632
 3096SOL    HW110108   2.858   0.449   1.516 -0.1374  1.0331 -0.0555
 3096SOL    HW210109   2.848   0.352   1.385  2.3940 -0.8422  1.0582
 3097SOL     OW10110   0.571   0.748   6.208 -0.1025  0.2267 -0.0469
 3097SOL    HW110111   0.630   0.668   6.199  1.3600  1.3002 -0.5724
 3097SOL    HW210112   0.601   0.803   6.286  0.3512  1.3686 -0.9957
 3098SOL     OW10113   5.365   1.041   1.472 -0.6800 -0.2845 -0.3815
 3098SOL    HW110114   5.376   0.947   1.438  1.0837  0.4133 -1.9602
 3098SOL    HW210115   5.408   1.049   1.562 -1.9581 -1.2582  0.3474
 3099SOL     OW10116   4.054   5.930   1.987  0.2377 -0.3423 -0.0517
 3099SOL    HW110117   4.035   5.872   1.908 -0.2389 -0.4631  0.1481
 3099SOL    HW210118   4.141   5.903   2.028  1.8178  1.4183 -2.0537
 3100SOL     OW10119   6.231   2.274   6.869  0.2864 -0.0345 -0.1395
 3100SOL    HW110120   6.190   2.189   6.904 -1.8952  0.2396 -1.7622
 3100SOL    HW210121   6.267   2.258   6.777  2.0644  0.2384  0.4929
 3101SOL     OW10122   5.088   6.277   4.362 -0.0816  0.5385 -1.0406
 3101SOL    HW110123   5.149   6.231   4.427  2.3955  1.4023 -2.6191
 3101SOL    HW210124   5.007   6.220   4.346 -0.6401  0.1226  2.4334
 3102SOL     OW10125   3.223   4.476   2.798  0.3595  0.5422  0.3815
 3102SOL    HW110126   3.210   4.450   2.894  0.0429 -0.7821  0.0024
 3102SOL    HW210127   3.201   4.399   2.739 -1.5771  1.9613 -0.9126
 3103SOL     OW10128   2.200   2.660   2.143  0.4634 -0.4322  0.0797
 3103SOL    HW110129   2.122   2.720   2.159  0.3980 -0.5029  0.0287
 3103SOL    HW210130   2.192   2.579   2.201  1.5837  0.5482  1.6996
 3104SOL     OW10131   2.177   3.056   0.461  0.0334 -0.1365 -0.1940
 3104SOL    HW110132   2.253   3.058   0.527  0.8860  0.2980 -1.1564
 3104SOL    HW210133   2.207   3.011   0.378 -0.9619 -0.4799 -0.3711
 3105SOL     OW10134   2.148   3.442   6.100  0.1231 -0.0825 -0.2789
 3105SOL    HW110135   2.187   3.378   6.166  0.7307  0.0821 -0.4778
 3105SOL    HW210136   2.151   3.403   6.009  0.9298  0.4181 -0.4722
 3106SOL     OW10137   1.482   4.944   1.783  0.4910  0.5390  0.0346
 3106SOL    HW110138   1.564   4.998   1.802  1.9879 -1.6713  0.1330
 3106SOL    HW210139   1.470   4.875   1.853 -1.3741  0.6844 -0.0868
 3107SOL     OW10140   6.282   4.751   0.108 -0.6550 -0.0746 -0.6634
 3107SOL    HW110141   6.254   4.722   0.016 -1.8993 -1.3848  0.0688
 3107SOL    HW210142   6.201   4.760   0.166  0.0776  1.1450  0.2172
 3108SOL     OW10143   5.912   0.865   1.683  0.1583 -0.3860 -0.6476
 3108SOL    HW110144   5.896   0.958   1.652 -0.5417 -0.2934 -0.0342
 3108SOL    HW210145   6.008   0.854   1.709  1.0451 -0.7208 -3.6223
 3109SOL     OW10146   0.557   5.554   2.517 -0.2663 -0.8968  0.4824
 3109SOL    HW110147   0.464   5.582   2.539  0.4207  0.4857  1.7871
 3109SOL    HW210148   0.622   5.622   2.551  1.0583  1.1361 -5.0010
 3110SOL     OW10149   2.812   1.944   4.413  0.5489 -0.2036 -0.1316
 3110SOL    HW110150   2.797   1.977   4.320 -0.0533 -0.2288 -0.0437
 3110SOL    HW210151   2.776   1.851   4.421 -0.1418  0.1001  0.3482
 3111SOL     OW10152   2.937   5.891   6.580  0.2820 -0.5274  0.2765
 3111SOL    HW110153   2.996   5.871   6.659 -1.0132 -1.8727  0.9701
 3111SOL    HW210154   2.861   5.826   6.579 -1.5099  1.4961 -0.2320
 3112SOL     OW10155   3.287   2.475   1.390  0.5086 -0.1712  0.1004
 3112SOL    HW110156   3.351   2.460   1.465  1.0369  0.1844 -0.2702
 3112SOL    HW210157   3.287   2.395   1.330  2.6850  0.8618 -1.4073
 3113SOL     OW10158   2.771   5.464   4.467  0.0388  0.6240 -0.2527
 3113SOL    HW110159   2.678   5.429   4.453 -0.9938  2.7651  0.7754
 3113SOL    HW210160   2.812   5.486   4.379 -0.6897  0.2895 -0.6872
 3114SOL     OW10161   4.469   5.631   1.489 -0.4897  0.0204  0.2145
 3114SOL    HW110162   4.516   5.694   1.550 -1.5091  0.0546  0.9952
 3114SOL    HW210163   4.521   5.546   1.481  0.2674  0.4820  0.1271
 3115SOL     OW10164   6.128   3.316   4.993  0.0455  0.1623  0.0492
 3115SOL    HW110165   6.035   3.336   5.022 -0.2415 -1.9154  0.7121
 3115SOL    HW210166   6.161   3.234   5.040  0.9657 -1.0992 -2.5875
 3116SOL     OW10167   6.947   2.673   6.721  0.1541 -0.3595  0.3351
 3116SOL    HW110168   6.860   2.674   6.671 -0.6276 -1.5656  1.5840
 3116SOL    HW210169   6.930   2.692   6.818  1.5700  1.4101  0.2771
 3117SOL     OW10170   2.023   5.271   6.582  0.0291 -0.5161 -0.1829
 3117SOL    HW110171   1.996   5.233   6.670 -0.6607 -1.2501 -0.6932
 3117SOL    HW210172   2.074   5.202   6.530 -0.5932 -0.5020 -0.8280
 3118SOL     OW10173   0.731   5.506   0.520  0.3203  0.0712  0.1840
 3118SOL    HW110174   0.724   5.588   0.464  1.6956  2.4681  3.2359
 3118SOL    HW210175   0.800   5.445   0.481 -1.3001 -0.1781 -2.5962
 3119SOL     OW10176   4.456   5.321   4.592  0.3608 -0.3174  0.1168
 3119SOL    HW110177   4.507   5.407   4.595  2.3867 -1.4451 -0.3273
 3119SOL    HW210178   4.520   5.244   4.591 -1.3872 -1.8970  1.5072
 3120SOL     OW10179   6.017   0.915   0.300  0.2080 -0.1760  0.3232
 3120SOL    HW110180   6.037   0.845   0.369 -0.3414  0.5771  1.2581
 3120SOL    HW210181   6.092   0.918   0.234  1.8538  0.6003  2.1341
 3121SOL     OW10182   6.327   6.218   5.008 -0.2789  0.2463 -0.1002
 3121SOL    HW110183   6.342   6.282   4.933 -0.4580  2.3205  1.5489
 3121SOL    HW210184   6.409   6.213   5.065 -0.5290 -0.4205  0.2214
 3122SOL     OW10185   3.608   1.166   3.844 -0.4799  0.3976  0.2182
 3122SOL    HW110186   3.708   1.165   3.842 -0.4724 -0.3861  0.6894
 3122SOL    HW210187   3.573   1.207   3.760  0.2215  0.1905 -0.1795
 3123SOL     OW10188   0.106   3.939   6.975 -0.3551 -0.0302 -0.0872
 3123SOL    HW110189   0.174   4.012   6.980 -0.3833  0.0902 -1.1265
 3123SOL    HW210190   0.036   3.963   6.907  0.3452 -1.5918 -1.4243
 3124SOL     OW10191   5.775   2.330   6.285  0.2874 -0.1030  0.2302
 3124SOL    HW110192   5.705   2.386   6.241  1.6376  2.5008  1.1212
 3124SOL    HW210193   5.854   2.322   6.224  0.6492  0.1973  0.6518
 3125SOL     OW10194   1.863   2.484   6.501 -0.5564 -0.1865 -0.0324
 3125SOL    HW110195   1.840   2.431   6.420  0.9039 -0.6751 -0.1655
 3125SOL    HW210196   1.862   2.425   6.581  1.6217 -0.6576 -0.2568
 3126SOL     OW10197   2.041   6.081   0.837  0.2664  0.0598  0.3898
 3126SOL    HW110198   1.998   5.991   0.842 -1.1722  0.5834 -1.4005
 3126SOL    HW210199   2.141   6.070   0.838  0.1681 -1.3113  2.8919
 3127SOL     OW10200   3.693   6.603   2.118 -0.3486  0.0476  0.3667
 3127SOL    HW110201   3.687   6.516   2.070  0.7251 -0.3980  1.0012
 3127SOL    HW210202   3.636   6.600   2.200 -0.3242 -0.0543  0.3814
 3128SOL     OW10203   2.570   3.902   6.694 -0.0654  0.5082  0.3893
 3128SOL    HW110204   2.485   3.924   6.647 -0.0755  0.2418  0.2804
 3128SOL    HW210205   2.638   3.872   6.628 -0.8407 -2.3544  0.7296
 3129SOL     OW10206   5.135   6.842   6.116  0.2461 -0.1888 -0.1587
 3129SOL    HW110207   5.156   6.935   6.086  2.2126 -0.3094  0.6924
 3129SOL    HW210208   5.038   6.824   6.105 -0.1529  1.9481 -0.3990
 3130SOL     OW10209   5.066   0.512   6.371 -0.5907  0.6578  0.0447
 3130SOL    HW110210   5.116   0.519   6.458  1.6522 -0.1312 -1.1055
 3130SOL    HW210211   5.130   0.489   6.298 -2.5578  0.4999 -1.7064
 3131SOL     OW10212   2.931   3.697   6.642 -0.0214 -0.1213  0.0479
 3131SOL    HW110213   2.969   3.774   6.692 -0.4614 -0.7456  1.3847
 3131SOL    HW210214   2.927   3.719   6.544 -1.4863  2.1012  0.5486
 3132SOL     OW10215   2.505   4.564   6.692 -0.2149 -0.2908 -0.2099
 3132SOL    HW110216   2.573   4.602   6.755 -1.3656 -0.0733  0.9547
 3132SOL    HW210217   2.424   4.623   6.691 -0.9556 -1.2837 -0.4475
 3133SOL     OW10218   5.591   2.745   1.075  0.1020  0.1427  0.6327
 3133SOL    HW110219   5.621   2.827   1.026 -0.0946 -0.3755 -0.3855
 3133SOL    HW210220   5.512   2.706   1.029 -1.0995  0.5125  2.2872
 3134SOL     OW10221   4.825   4.239   5.085  0.2947 -0.0293  0.7575
 3134SOL    HW110222   4.869   4.171   5.143  0.6844 -0.5383 -0.1083
 3134SOL    HW210223   4.847   4.220   4.989 -3.5336 -1.6701  0.0004
 3135SOL     OW10224   4.813   3.929   4.646  0.1506 -0.1945  0.5437
 3135SOL    HW110225   4.864   4.015   4.636  1.1335 -0.7480  0.7021
 3135SOL    HW210226   4.714   3.949   4.643  0.2597  1.2982  3.1321
 3136SOL     OW10227   2.160   3.159   4.813  0.1700  0.2286 -0.2702
 3136SOL    HW110228   2.221   3.145   4.891 -1.3530  0.3239  0.9923
 3136SOL    HW210229   2.122   3.072   4.784 -0.4000  0.3414  0.0926
 3137SOL     OW10230   3.249   2.297   6.949 -0.1658  0.3181  0.4744
 3137SOL    HW110231   3.345   2.275   6.966  0.4242  1.4847 -1.0564
 3137SOL    HW210232   3.194   2.214   6.955  0.2584  0.1013  5.0146
 3138SOL     OW10233   5.084   1.286   5.719  0.1468  0.0444  0.3621
 3138SOL    HW110234   5.119   1.350   5.650  0.3985 -0.4895 -0.0010
 3138SOL    HW210235   5.037   1.338   5.791 -1.0769  0.5517 -0.7595
 3139SOL     OW10236   4.720   3.693   5.320 -0.4010  0.3198 -0.2944
 3139SOL    HW110237   4.769   3.630   5.260  0.9537  1.1802 -0.1199
 3139SOL    HW210238   4.770   3.779   5.327 -1.1473  0.6792  1.1185
 3140SOL     OW10239   4.453   6.668   6.447  0.2282 -0.1915  0.3719
 3140SOL    HW110240   4.550   6.648   6.460  1.2768  2.2952 -2.6514
 3140SOL    HW210241   4.414   6.703   6.532  2.1535 -0.5844  1.4463
 3141SOL     OW10242   6.255   0.299   6.784 -0.1017  0.4119  0.2845
 3141SOL    HW110243   6.244   0.320   6.687 -1.2003  0.5191  0.4196
 3141SOL    HW210244   6.250   0.201   6.798 -0.5364  0.4362  0.3028
 3142SOL     OW10245   6.762   2.416   3.531  0.0521 -0.2981 -0.5481
 3142SOL    HW110246   6.713   2.499   3.557  0.3719 -0.1555 -0.3900
 3142SOL    HW210247   6.709   2.336   3.558  0.8287 -0.1827  1.4824
 3143SOL     OW10248   6.861   2.109   0.547  0.4179 -0.1904  0.0933
 3143SOL    HW110249   6.843   2.040   0.618  1.4835 -0.6031 -0.0033
 3143SOL    HW210250   6.959   2.108   0.526  0.0382 -0.5030 -1.8135
 3144SOL     OW10251   6.119   6.286   0.702  0.2526 -0.3720 -0.2506
 3144SOL    HW110252   6.092   6.252   0.612 -1.8608 -0.9937  0.5600
 3144SOL    HW210253   6.118   6.386   0.700  1.6076 -0.3374 -1.2618
 3145SOL     OW10254   5.764   3.021   6.717 -0.4238 -1.3855 -0.8959
 3145SOL    HW110255   5.734   3.112   6.686 -1.5105 -2.7816 -4.4218
 3145SOL    HW210256   5.859   3.007   6.690 -0.7591 -1.8680 -1.8611
 3146SOL     OW10257   4.161   2.239   2.584 -0.4782 -0.3512  0.1680
 3146SOL    HW110258   4.260   2.254   2.584 -0.4567 -0.4053  1.8662
 3146SOL    HW210259   4.124   2.257   2.674 -2.2336  0.7956 -0.7289
 3147SOL     OW10260   6.119   0.223   0.639 -0.1506  0.1928 -0.1544
 3147SOL    HW110261   6.041   0.179   0.684  1.2064 -1.1420  1.0335
 3147SOL    HW210262   6.127   0.317   0.671 -0.3583 -0.1450  0.9248
 3148SOL     OW10263   1.255   1.041   1.238 -0.3991  0.1335 -0.4956
 3148SOL    HW110264   1.161   1.005   1.234 -1.0961  1.9323 -1.0399
 3148SOL    HW210265   1.290   1.051   1.145  0.5463 -0.9986 -0.2787
 3149SOL     OW10266   4.085   1.472   5.520  0.0906  0.0661 -0.1526
 3149SOL    HW110267   4.180   1.454   5.496 -0.4303 -2.5692 -0.5676
 3149SOL    HW210268   4.027   1.401   5.479 -1.7096 -0.1060  2.5018
 3150SOL     OW10269   6.361   5.411   1.255 -0.2281  0.2731 -0.1757
 3150SOL    HW110270   6.458   5.417   1.278 -0.1601  0.1806 -0.4294
 3150SOL    HW210271   6.314   5.354   1.322 -0.1568  0.5299  0.0957
 3151SOL     OW10272   6.993   3.208   3.049  0.3997  0.3260  0.6422
 3151SOL    HW110273   7.001   3.109   3.050  2.1821  0.4131 -0.3644
 3151SOL    HW210274   7.062   3.247   2.988  0.5537  2.2588  1.9642
 3152SOL     OW10275   4.262   5.170   2.994 -0.2558 -0.1894  0.1538
 3152SOL    HW110276   4.178   5.160   3.047  1.7511  0.2604  3.6644
 3152SOL    HW210277   4.278   5.267   2.975  0.0402 -0.1855  0.4327
 3153SOL     OW10278   0.873   5.139   3.228  0.2757 -0.2725  0.2253
 3153SOL    HW110279   0.901   5.071   3.295  2.5760  0.1557 -0.2161
 3153SOL    HW210280   0.954   5.186   3.191 -1.0665  1.1010 -1.1698
 3154SOL     OW10281   3.931   4.044   3.232 -0.1497 -0.0417 -0.2544
 3154SOL    HW110282   3.905   4.055   3.136 -0.6901 -1.4189 -0.2978
 3154SOL    HW210283   3.990   3.963   3.241  0.7356  0.6528  0.4454
 3155SOL     OW10284   2.282   2.562   1.899 -0.5714  0.6495 -0.8321
 3155SOL    HW110285   2.367   2.614   1.892  1.3120 -2.1830 -0.6517
 3155SOL    HW210286   2.238   2.582   1.987  1.6411 -0.1828  0.5297
 3156SOL     OW10287   1.369   2.204   5.696  0.4769  0.2174 -0.0149
 3156SOL    HW110288   1.468   2.201   5.690  0.5207  2.3570 -1.2383
 3156SOL    HW210289   1.340   2.293   5.732 -0.9950 -0.6803  1.1704
 3157SOL     OW10290   2.644   3.562   0.015 -0.4517  0.6063 -0.7316
 3157SOL    HW110291   2.638   3.543  -0.083 -1.9647  1.3787 -0.7861
 3157SOL    HW210292   2.701   3.643   0.029  1.4605 -0.6784 -0.7912
 3158SOL     OW10293   6.273   2.948   0.771  0.7772 -0.6741  0.4595
 3158SOL    HW110294   6.297   2.877   0.706 -1.2085 -1.2061  0.2359
 3158SOL    HW210295   6.308   2.924   0.862 -0.0544 -2.0514  0.4297
 3159SOL     OW10296   1.450   0.586   0.417 -0.1108 -0.4979 -0.3038
 3159SOL    HW110297   1.484   0.554   0.505 -1.3638  0.4655  0.5594
 3159SOL    HW210298   1.497   0.672   0.393 -0.2451 -0.4106 -0.2561
 3160SOL     OW10299   1.821   5.165   1.402 -0.1016 -0.0527  0.0018
 3160SOL    HW110300   1.906   5.210   1.376 -0.4942  0.7606  0.0856
 3160SOL    HW210301   1.753   5.234   1.426 -1.0704 -0.6377 -0.9406
 3161SOL     OW10302   5.216   3.795   2.503  0.4579 -0.6603 -0.8240
 3161SOL    HW110303   5.140   3.811   2.439  0.6552 -0.5757 -1.0380
 3161SOL    HW210304   5.238   3.879   2.551 -1.6354 -1.3217  1.5475
 3162SOL     OW10305   1.444   2.399   5.431 -0.4612 -0.3889  0.0282
 3162SOL    HW110306   1.413   2.322   5.375 -0.5303 -1.3647  1.3357
 3162SOL    HW210307   1.537   2.423   5.406 -1.3413  0.9491 -2.2588
 3163SOL     OW10308   6.373   5.824   4.746 -0.0901  0.2979  0.1879
 3163SOL    HW110309   6.339   5.814   4.653  0.2846  0.7544 -0.0066
 3163SOL    HW210310   6.306   5.874   4.801  0.3697  1.4617 -0.2717
 3164SOL     OW10311   1.658   5.836   5.364  0.0739  0.3757  0.3032
 3164SOL    HW110312   1.614   5.802   5.447  0.6649  1.1410  0.9340
 3164SOL    HW210313   1.616   5.792   5.284 -0.3805 -0.4939  1.0053
 3165SOL     OW10314   5.272   6.074   5.382  0.5526 -0.7013  0.5291
 3165SOL    HW110315   5.191   6.127   5.357  0.9446  1.9520  4.0084
 3165SOL    HW210316   5.247   5.978   5.395 -1.2113 -0.6224 -1.7509
 3166SOL     OW10317   1.286   1.960   5.765 -0.0868 -0.0753  0.2591
 3166SOL    HW110318   1.229   1.936   5.686  0.2268  0.5261 -0.1589
 3166SOL    HW210319   1.324   2.052   5.752  1.8071 -0.8458  0.0410
 3167SOL     OW10320   6.772   0.011   0.011  0.1515 -0.6003 -0.5246
 3167SOL    HW110321   6.717  -0.072   0.003  1.3870 -1.4764 -0.2028
 3167SOL    HW210322   6.844   0.010  -0.059  2.0286 -1.2729  1.3594
 3168SOL     OW10323   1.857   0.296   4.094  0.1158 -0.5684  0.0485
 3168SOL    HW110324   1.907   0.219   4.056 -0.5018 -0.0569 -1.9863
 3168SOL    HW210325   1.914   0.378   4.091 -0.6169 -0.0708 -1.8938
 3169SOL     OW10326   3.418   6.746   4.241  0.8015  0.2593  0.1577
 3169SOL    HW110327   3.354   6.814   4.276  1.1102 -0.5131  2.3634
 3169SOL    HW210328   3.381   6.654   4.256  2.1918 -0.1849  1.1402
 3170SOL     OW10329   1.311   0.138   5.312  0.7046 -0.1834 -0.4178
 3170SOL    HW110330   1.263   0.065   5.362  0.6157  0.4955  0.5186
 3170SOL    HW210331   1.369   0.189   5.375  0.7425  0.5783 -1.0517
 3171SOL     OW10332   6.717   2.479   4.699 -0.2735 -0.2077  0.1770
 3171SOL    HW110333   6.729   2.572   4.665 -0.8434  0.6490  2.1590
 3171SOL    HW210334   6.807   2.434   4.704  0.2649  0.8743  0.8300
 3172SOL     OW10335   5.844   6.012   3.625  0.6234  0.6232  0.0562
 3172SOL    HW110336   5.820   6.106   3.603  0.1173  1.4378  3.5188
 3172SOL    HW210337   5.939   6.007   3.654  0.8065 -0.0318 -0.6359
 3173SOL     OW10338   0.622   6.446   5.372 -0.2388  0.1927 -0.7211
 3173SOL    HW110339   0.643   6.370   5.434 -0.4810  0.1240 -0.7219
 3173SOL    HW210340   0.548   6.419   5.310  2.3964 -1.1110 -3.5864
 3174SOL     OW10341   1.740   1.143   3.610  0.0751  0.0226  0.8775
 3174SOL    HW110342   1.652   1.096   3.619  0.0611  0.1919  1.7707
 3174SOL    HW210343   1.783   1.151   3.700  1.7698 -1.4859  0.2738
 3175SOL     OW10344   3.363   2.124   0.593  0.1112  0.6088  0.3143
 3175SOL    HW110345   3.272   2.133   0.634  0.1373  0.1939  0.4701
 3175SOL    HW210346   3.359   2.147   0.496 -0.6172 -1.5672 -0.1969
 3176SOL     OW10347   4.221   0.387   6.499 -0.0473  0.1459  0.2308
 3176SOL    HW110348   4.135   0.338   6.489  0.1651 -0.5678  1.7055
 3176SOL    HW210349   4.204   0.485   6.499 -0.6806  0.0461 -0.9637
 3177SOL     OW10350   5.657   0.909   6.657 -0.2372 -0.1436 -0.0403
 3177SOL    HW110351   5.739   0.863   6.625  0.3782  0.2507  0.9349
 3177SOL    HW210352   5.599   0.933   6.579  1.5624  1.4651 -0.9680
 3178SOL     OW10353   6.275   3.635   6.185  0.4839  0.0674 -0.2427
 3178SOL    HW110354   6.369   3.666   6.176  1.2443 -1.7773  0.7546
 3178SOL    HW210355   6.246   3.641   6.281 -0.2962  0.3037 -0.4872
 3179SOL     OW10356   4.087   0.700   2.103 -0.2885 -0.5093  0.2596
 3179SOL    HW110357   4.170   0.707   2.157 -1.6935 -0.7184  2.6029
 3179SOL    HW210358   4.027   0.777   2.123 -0.1412  0.4100 -2.4510
 3180SOL     OW10359   2.770   1.791   2.274 -0.0232 -0.2501 -0.2005
 3180SOL    HW110360   2.856   1.820   2.230  0.6485 -1.5836  0.1723
 3180SOL    HW210361   2.791   1.725   2.346 -1.2674  0.4385  0.8458
 3181SOL     OW10362   5.726   5.275   5.994 -0.0519 -0.1131  0.0692
 3181SOL    HW110363   5.788   5.301   5.921 -1.0259  0.1309 -0.6984
 3181SOL    HW210364   5.746   5.182   6.024  2.3428  0.8182  1.6315
 3182SOL     OW10365   0.494   6.343   3.024 -0.4358  0.0040 -0.3758
 3182SOL    HW110366   0.586   6.381   3.023 -0.7304  1.1529  3.2093
 3182SOL    HW210367   0.497   6.245   3.008  1.4577 -0.0797  0.3494
 3183SOL     OW10368   0.852   2.632   1.389  0.0794  0.3440 -0.5585
 3183SOL    HW110369   0.790   2.579   1.332 -0.4777 -0.5410  0.8104
 3183SOL    HW210370   0.810   2.646   1.479  1.7057  0.0456  0.2972
 3184SOL     OW10371   6.787   1.943   6.432  0.5591 -0.0089 -0.1581
 3184SOL    HW110372   6.785   1.998   6.515  1.3039  1.3977 -1.0373
 3184SOL    HW210373   6.694   1.914   6.409  0.1459  0.8826  0.3417
 3185SOL     OW10374   4.840   2.448   0.641 -0.2887  0.0863  0.1232
 3185SOL    HW110375   4.843   2.371   0.705 -0.2351  0.8037  1.0091
 3185SOL    HW210376   4.809   2.530   0.689  1.9378  1.1956 -0.1953
 3186SOL     OW10377   3.747   4.847   3.422 -0.1109  0.2934  0.2539
 3186SOL    HW110378   3.814   4.810   3.358 -0.8079 -0.6089  0.0302
 3186SOL    HW210379   3.787   4.924   3.472  1.4376 -0.8924  0.8962
 3187SOL     OW10380   1.857   1.090   3.859 -0.3410  0.0636  0.2757
 3187SOL    HW110381   1.816   1.130   3.941  0.4541  0.3068  0.5699
 3187SOL    HW210382   1.897   1.001   3.882 -0.9240 -0.2914 -0.0637
 3188SOL     OW10383   6.297   2.040   3.723  0.0657 -0.0059  0.0472
 3188SOL    HW110384   6.397   2.040   3.727  0.0879 -1.1159 -0.4259
 3188SOL    HW210385   6.267   2.091   3.642  0.1674  2.0451  1.2117
 3189SOL     OW10386   5.734   5.215   0.138 -0.2918  0.3656  0.4061
 3189SOL    HW110387   5.691   5.284   0.080  0.9037  0.0521 -0.9060
 3189SOL    HW210388   5.798   5.258   0.201 -0.3958  0.5402  0.3959
 3190SOL     OW10389   0.281   4.139   5.880  0.4284 -0.3576 -0.2233
 3190SOL    HW110390   0.375   4.104   5.873  0.8985  0.9558 -0.8989
 3190SOL    HW210391   0.229   4.110   5.800  0.5304 -0.2821 -0.3189
 3191SOL     OW10392   4.780   2.712   0.766  0.2151  0.7259 -0.1180
 3191SOL    HW110393   4.704   2.684   0.825  1.2115 -2.2151 -0.0562
 3191SOL    HW210394   4.762   2.803   0.729 -2.7059  0.6590  0.8815
 3192SOL     OW10395   2.166   5.841   3.063 -0.2344 -0.2030 -0.0871
 3192SOL    HW110396   2.251   5.801   3.096 -0.4990 -0.2269  0.5770
 3192SOL    HW210397   2.186   5.903   2.987  0.3342 -0.4822 -0.1740
 3193SOL     OW10398   4.622   6.558   1.493 -0.6000 -0.6335 -0.0546
 3193SOL    HW110399   4.592   6.486   1.556  0.5478 -0.6774  0.4628
 3193SOL    HW210400   4.664   6.517   1.412  0.5736 -0.5546  0.4995
 3194SOL     OW10401   3.073   5.396   4.574  0.1196 -0.0436 -0.2779
 3194SOL    HW110402   2.986   5.347   4.567  0.2003 -0.0646 -1.2962
 3194SOL    HW210403   3.135   5.364   4.503  0.7325  0.4254  0.0360
 3195SOL     OW10404   1.134   6.422   6.898 -0.5142  0.8380 -0.2983
 3195SOL    HW110405   1.204   6.352   6.883 -1.1151  0.1628  0.0136
 3195SOL    HW210406   1.085   6.439   6.813 -2.2773 -1.2211  0.2041
 3196SOL     OW10407   3.609   2.066   4.806 -0.3713  0.5372  0.0840
 3196SOL    HW110408   3.568   2.137   4.864  0.4906  1.2670 -0.1850
 3196SOL    HW210409   3.695   2.035   4.846 -1.0953 -0.9096  0.5917
 3197SOL     OW10410   3.592   5.170   5.949  0.9659 -0.4908 -0.1053
 3197SOL    HW110411   3.657   5.127   5.887  0.4125 -1.3738 -0.0810
 3197SOL    HW210412   3.532   5.101   5.988  1.6250 -0.0186  1.8263
 3198SOL     OW10413   4.919   3.809   6.201 -0.5478  0.7886  0.0213
 3198SOL    HW110414   4.952   3.837   6.291 -1.0561  3.3415 -0.4949
 3198SOL    HW210415   4.897   3.890   6.147 -0.9909 -0.6844 -2.1551
 3199SOL     OW10416   1.172   4.008   3.577 -0.4048  0.1499  0.3358
 3199SOL    HW110417   1.171   3.930   3.640 -2.8715 -0.3353 -0.2087
 3199SOL    HW210418   1.161   4.093   3.628  1.1284  0.0715  0.8298
 3200SOL     OW10419   0.818   0.583   1.875  0.7538  0.3339  0.1038
 3200SOL    HW110420   0.909   0.550   1.849  1.1451  1.0999  0.4607
 3200SOL    HW210421   0.827   0.659   1.939 -0.0461  2.4695 -2.1493
 3201SOL     OW10422   4.780   2.387   3.927  0.2871 -0.4604  0.1746
 3201SOL    HW110423   4.807   2.399   3.832  2.6776 -1.9994  0.5749
 3201SOL    HW210424   4.702   2.324   3.932  0.0335 -0.2317 -0.7681
 3202SOL     OW10425   2.848   5.711   3.894  0.0661 -0.3198 -0.1414
 3202SOL    HW110426   2.872   5.782   3.961 -0.7872  2.0770 -2.1608
 3202SOL    HW210427   2.868   5.745   3.802 -0.5951 -2.7035 -1.2368
 3203SOL     OW10428   5.616   6.348   1.371  0.2267 -0.1008  0.3979
 3203SOL    HW110429   5.538   6.294   1.403 -0.7952  0.4147 -1.1214
 3203SOL    HW210430   5.700   6.297   1.388 -0.6021 -1.6638  0.0717
 3204SOL     OW10431   0.165   1.347   6.553  0.0995 -0.1897  0.0604
 3204SOL    HW110432   0.214   1.359   6.640 -0.2054  0.2200  0.1833
 3204SOL    HW210433   0.215   1.285   6.494  0.3476 -0.4132  0.5062
 3205SOL     OW10434   5.905   6.189   5.557 -0.1874  0.4904  0.6892
 3205SOL    HW110435   5.900   6.115   5.624  2.1334 -0.9069 -0.5809
 3205SOL    HW210436   5.958   6.265   5.595  0.2505  0.1253  0.8074
 3206SOL     OW10437   1.276   5.431   5.557 -0.5039  0.0436  0.7146
 3206SOL    HW110438   1.319   5.397   5.473  2.2961  1.8699  1.2889
 3206SOL    HW210439   1.317   5.384   5.636 -0.6240  0.7781  1.2167
 3207SOL     OW10440   6.690   0.577   4.316 -0.1315  0.3201 -0.1841
 3207SOL    HW110441   6.680   0.634   4.234 -1.7873  0.2801 -0.0368
 3207SOL    HW210442   6.643   0.490   4.301  0.4272 -0.1029  0.4503
 3208SOL     OW10443   1.335   3.386   4.797 -0.7729 -0.6504  0.0587
 3208SOL    HW110444   1.265   3.368   4.728  0.8549  0.6843 -2.0451
 3208SOL    HW210445   1.407   3.317   4.791 -1.0891 -1.1155  1.1733
 3209SOL     OW10446   6.216   0.374   5.866  0.1476 -0.3441 -0.2351
 3209SOL    HW110447   6.138   0.435   5.850  0.9115  0.1690 -2.1824
 3209SOL    HW210448   6.233   0.367   5.964 -1.4424  0.6751  0.1471
 3210SOL     OW10449   5.476   6.212   3.872 -0.0531 -0.7161 -0.9662
 3210SOL    HW110450   5.452   6.303   3.906  0.1064 -0.8241 -0.5501
 3210SOL    HW210451   5.522   6.220   3.784  0.2472 -0.3663 -0.7832
 3211SOL     OW10452   4.324   6.362   2.479 -0.5227  0.3386  0.1436
 3211SOL    HW110453   4.385   6.287   2.455 -1.4228 -0.4791  0.3417
 3211SOL    HW210454   4.270   6.388   2.398 -1.2622 -0.2418  0.4355
 3212SOL     OW10455   2.422   5.787   6.209 -0.7979 -0.1672  0.1878
 3212SOL    HW110456   2.456   5.830   6.293 -0.5984  0.1430 -0.0460
 3212SOL    HW210457   2.361   5.712   6.232 -1.7630  0.7283  0.6162
 3213SOL     OW10458   1.098   3.465   4.105  0.4643  0.2373 -0.1180
 3213SOL    HW110459   1.102   3.366   4.116  0.9814  0.3195  0.4643
 3213SOL    HW210460   1.007   3.498   4.131  1.3741  0.3440  3.5338
 3214SOL     OW10461   1.567   4.299   2.247  0.0060 -0.8094  0.3624
 3214SOL    HW110462   1.663   4.316   2.221  0.2436 -1.4845  0.7580
 3214SOL    HW210463   1.565   4.245   2.331 -0.7347  0.5123  1.2215
 3215SOL     OW10464   5.894   3.493   4.047 -0.0155  0.3232  0.6356
 3215SOL    HW110465   5.991   3.512   4.062  0.1740 -0.8477  0.9566
 3215SOL    HW210466   5.857   3.560   3.983  1.4329 -0.2679 -0.8883
 3216SOL     OW10467   5.421   1.867   3.487  0.4124  0.1956 -0.0381
 3216SOL    HW110468   5.490   1.938   3.499  0.3117  0.3773 -0.4997
 3216SOL    HW210469   5.330   1.904   3.505  0.4736 -0.1733  1.0665
 3217SOL     OW10470   6.487   1.648   4.107  0.0542  0.3548 -0.1629
 3217SOL    HW110471   6.509   1.559   4.147 -0.9780  0.4138  0.5592
 3217SOL    HW210472   6.393   1.648   4.075  0.0923  1.1333 -0.3010
 3218SOL     OW10473   0.815   6.522   4.864  0.0260  0.0384 -0.3658
 3218SOL    HW110474   0.896   6.467   4.849 -0.2682 -0.7206  0.7108
 3218SOL    HW210475   0.744   6.497   4.798 -0.3105 -1.3065  0.4786
 3219SOL     OW10476   0.824   2.628   4.569  1.0388 -0.2331 -0.2185
 3219SOL    HW110477   0.864   2.673   4.489  0.9316  2.4212  1.1207
 3219SOL    HW210478   0.896   2.608   4.636  0.5546  3.7847  1.8320
 3220SOL     OW10479   3.525   2.488   5.818  1.1904  0.3879 -0.6018
 3220SOL    HW110480   3.472   2.461   5.738  0.1832 -1.0172  0.4814
 3220SOL    HW210481   3.597   2.420   5.834  1.5186  0.7737 -0.4309
 3221SOL     OW10482   4.999   1.840   2.353 -0.4160 -0.3531  0.3002
 3221SOL    HW110483   4.938   1.894   2.296  1.8421  0.3425 -1.5978
 3221SOL    HW210484   4.969   1.844   2.448 -2.7735  0.6270 -0.4258
 3222SOL     OW10485   5.765   0.737   0.851  0.0442 -0.6026  0.5003
 3222SOL    HW110486   5.830   0.804   0.815  0.7446 -1.8825 -0.7092
 3222SOL    HW210487   5.672   0.763   0.825  0.2605  0.0860  0.3920
 3223SOL     OW10488   6.710   2.549   4.405 -0.5093 -0.5063  0.5157
 3223SOL    HW110489   6.678   2.481   4.471 -0.4402 -1.4298 -0.3654
 3223SOL    HW210490   6.692   2.515   4.312  0.3927  0.2618  0.0496
 3224SOL     OW10491   6.554   1.203   2.146 -0.1695  0.0353 -0.1064
 3224SOL    HW110492   6.529   1.280   2.087  0.5360  2.3669  2.4048
 3224SOL    HW210493   6.635   1.157   2.110  0.2903  1.4324 -0.9074
 3225SOL     OW10494   5.344   3.104   2.112  0.2983  0.1257 -0.5469
 3225SOL    HW110495   5.375   3.071   2.201 -0.6329  2.6242  0.7908
 3225SOL    HW210496   5.420   3.151   2.066  0.5495 -0.4067 -0.6739
 3226SOL     OW10497   4.732   1.853   4.095  0.2036  0.1810  0.5403
 3226SOL    HW110498   4.815   1.860   4.039  0.6721 -0.5879  1.1178
 3226SOL    HW210499   4.725   1.933   4.155  1.1310 -0.2697  1.2733
 3227SOL     OW10500   2.579   0.460   0.626  0.3169 -0.5126  0.3279
 3227SOL    HW110501   2.674   0.466   0.595  0.2192  1.7284  0.2638
 3227SOL    HW210502   2.570   0.507   0.714 -0.6998 -0.8622  0.4165
 3228SOL     OW10503   2.949   1.021   5.443  0.1869  0.4514 -0.4847
 3228SOL    HW110504   2.881   1.036   5.515  0.8700  1.1847  0.0240
 3228SOL    HW210505   3.034   0.988   5.483 -0.1848 -1.5304 -1.2347
 3229SOL     OW10506   6.620   6.551   4.211  0.4134  0.7791  1.0589
 3229SOL    HW110507   6.694   6.568   4.147 -0.0605  0.1280  0.3249
 3229SOL    HW210508   6.541   6.515   4.162  0.0159  0.3486  1.9926
 3230SOL     OW10509   5.099   4.672   1.519  0.1508 -0.2075 -0.0108
 3230SOL    HW110510   5.173   4.688   1.584  0.5517  0.9078 -0.7025
 3230SOL    HW210511   5.068   4.578   1.526  1.2215 -0.5253  0.7150
 3231SOL     OW10512   1.346   6.317   3.624  0.3391 -0.7368  0.5027
 3231SOL    HW110513   1.410   6.389   3.648 -0.9690  1.0787 -1.0636
 3231SOL    HW210514   1.314   6.271   3.707  0.3913  1.2499  1.6895
 3232SOL     OW10515   2.165   2.593   0.266 -0.2035 -0.4628  0.4104
 3232SOL    HW110516   2.199   2.675   0.221 -0.8438  0.1400  1.0039
 3232SOL    HW210517   2.236   2.522   0.265  0.5233  0.2608  0.3293
 3233SOL     OW10518   4.381   4.151   6.087 -0.4956  0.1673 -0.1300
 3233SOL    HW110519   4.435   4.154   6.171  0.5860  1.1566 -0.8380
 3233SOL    HW210520   4.441   4.159   6.008 -1.6133  0.7048 -0.9592
 3234SOL     OW10521   3.441   5.956   6.798 -0.6459 -0.5518  0.2361
 3234SOL    HW110522   3.427   5.904   6.713  0.3267  0.8823 -0.8624
 3234SOL    HW210523   3.366   6.021   6.809 -0.1924  0.0314 -0.1186
 3235SOL     OW10524   1.509   2.407   6.001 -0.0734 -0.2483  0.0731
 3235SOL    HW110525   1.581   2.342   6.027  1.2175  1.0628 -0.0669
 3235SOL    HW210526   1.443   2.415   6.076 -0.2408 -1.6617  0.1015
 3236SOL     OW10527   5.041   5.361   0.334  0.3502  0.4580  0.1805
 3236SOL    HW110528   5.001   5.312   0.411 -1.3772  0.2030 -0.8124
 3236SOL    HW210529   5.028   5.459   0.346 -1.2940  0.3425 -0.4731
 3237SOL     OW10530   4.742   6.360   5.204  1.0944  0.3947 -0.1026
 3237SOL    HW110531   4.779   6.275   5.243  1.4370  1.0068  0.9616
 3237SOL    HW210532   4.647   6.345   5.178  1.1112 -0.2834  0.1919
 3238SOL     OW10533   4.024   4.153   2.161 -0.0949 -0.2533 -0.2596
 3238SOL    HW110534   3.999   4.121   2.252 -0.3815 -0.9542 -0.5839
 3238SOL    HW210535   4.000   4.084   2.093  2.0833 -0.6891 -0.6587
 3239SOL     OW10536   1.186   0.366   3.827  0.1555 -0.0763  0.4519
 3239SOL    HW110537   1.097   0.332   3.797  0.1167  1.8529 -1.9232
 3239SOL    HW210538   1.174   0.433   3.900 -0.2985 -0.2762  0.5607
 3240SOL     OW10539   3.755   2.644   1.173  0.6492 -0.3294 -0.0933
 3240SOL    HW110540   3.693   2.679   1.243  0.9049 -0.0326 -0.0153
 3240SOL    HW210541   3.821   2.715   1.148  0.2548 -0.2672 -0.9851
 3241SOL     OW10542   3.130   6.948   6.959 -0.1850  1.0185  0.0017
 3241SOL    HW110543   3.099   6.930   7.052 -1.6233 -0.2335 -0.7097
 3241SOL    HW210544   3.212   6.894   6.940  0.4575  1.7036  0.6804
 3242SOL     OW10545   2.758   5.873   6.323 -0.4068 -0.1418 -0.7615
 3242SOL    HW110546   2.756   5.773   6.313  1.7611 -0.5529  1.7969
 3242SOL    HW210547   2.853   5.903   6.333 -0.9401  2.3529 -2.3505
 3243SOL     OW10548   5.464   5.172   5.871  0.3582 -0.0386  0.3265
 3243SOL    HW110549   5.556   5.183   5.908  0.0514 -1.0516  1.4575
 3243SOL    HW210550   5.443   5.248   5.808  0.9785  1.6157  2.0392
 3244SOL     OW10551   5.238   2.289   4.225 -0.8660 -0.3244 -0.8949
 3244SOL    HW110552   5.323   2.256   4.265 -0.5963  2.0982  0.6456
 3244SOL    HW210553   5.168   2.217   4.232  0.0342 -1.0607  1.1884
 3245SOL     OW10554   4.038   0.057   1.458  0.3613 -0.1381 -0.1807
 3245SOL    HW110555   4.123   0.078   1.506  0.4185  1.5868 -0.9586
 3245SOL    HW210556   3.962   0.105   1.501  0.2495  0.5716 -1.1446
 3246SOL     OW10557   3.304   1.045   2.453 -0.5049 -0.3778  0.2776
 3246SOL    HW110558   3.261   0.977   2.513  1.1969 -0.4194  1.5127
 3246SOL    HW210559   3.236   1.080   2.389 -1.6201 -2.7163  0.0620
 3247SOL     OW10560   5.928   6.034   4.773  0.2048  0.0395  0.3062
 3247SOL    HW110561   5.971   6.091   4.703 -1.5806 -0.0621 -0.9099
 3247SOL    HW210562   5.855   6.084   4.818 -1.2192 -1.1564 -0.6003
 3248SOL     OW10563   1.351   5.786   3.993  0.0442 -0.1299 -0.5901
 3248SOL    HW110564   1.422   5.855   3.983 -0.1559  0.3602  1.0735
 3248SOL    HW210565   1.314   5.789   4.086 -0.4253 -2.0446 -0.6757
 3249SOL     OW10566   1.740   3.976   3.085 -0.3384 -0.0078 -0.1536
 3249SOL    HW110567   1.741   3.888   3.132  1.8076 -0.4214 -0.8771
 3249SOL    HW210568   1.703   3.964   2.993 -0.3888 -0.0799 -0.1249
 3250SOL     OW10569   0.545   6.646   5.935  0.1176 -0.1199  0.0264
 3250SOL    HW110570   0.560   6.668   6.031 -0.4677 -2.2652  0.6497
 3250SOL    HW210571   0.631   6.618   5.892  0.5015  1.3870 -0.2959
 3251SOL     OW10572   0.211   0.835   1.337 -0.0827 -0.3524 -0.0155
 3251SOL    HW110573   0.295   0.849   1.284 -0.4910 -1.2852 -0.9392
 3251SOL    HW210574   0.219   0.753   1.393 -0.3926 -0.4556 -0.1189
 3252SOL     OW10575   2.069   4.840   2.417 -0.4036 -0.1315  0.0898
 3252SOL    HW110576   1.985   4.799   2.380 -0.9836  2.9131 -2.3743
 3252SOL    HW210577   2.134   4.854   2.343  0.5060  1.5249  1.1503
 3253SOL     OW10578   1.260   6.000   6.394  0.0354 -0.0557 -0.3707
 3253SOL    HW110579   1.285   5.972   6.301 -1.0371  0.2236 -0.7608
 3253SOL    HW210580   1.163   5.979   6.410  0.4309 -0.9375  1.0115
 3254SOL     OW10581   3.698   3.228   1.717 -0.4143  0.1103 -0.4022
 3254SOL    HW110582   3.705   3.194   1.623 -1.5218  0.2232 -0.5513
 3254SOL    HW210583   3.750   3.312   1.726  0.6236 -0.4905 -0.5970
 3255SOL     OW10584   0.732   0.432   2.272 -0.5343 -0.3398  0.1685
 3255SOL    HW110585   0.774   0.371   2.339  0.4695 -1.8802 -1.7694
 3255SOL    HW210586   0.633   0.420   2.273 -0.6215  0.2453  1.8826
 3256SOL     OW10587   2.542   6.826   2.861 -0.2316 -0.1799 -0.1940
 3256SOL    HW110588   2.606   6.879   2.806 -0.1134  1.6892  1.6328
 3256SOL    HW210589   2.451   6.830   2.820 -0.3152  1.8133  0.1159
 3257SOL     OW10590   5.145   5.207   1.365 -0.0178 -0.1311 -0.1490
 3257SOL    HW110591   5.161   5.209   1.463  1.5567  0.8824 -0.3862
 3257SOL    HW210592   5.146   5.301   1.329  1.1200 -0.5580 -1.3316
 3258SOL     OW10593   4.342   5.472   2.997  0.3645  0.4306 -0.0911
 3258SOL    HW110594   4.424   5.511   3.039  1.1382 -1.9624  0.7643
 3258SOL    HW210595   4.364   5.439   2.906  0.0641  0.7411 -0.2820
 3259SOL     OW10596   3.770   6.340   5.875  0.2307  0.0261  0.2797
 3259SOL    HW110597   3.849   6.280   5.892  0.5998  0.0491 -1.2500
 3259SOL    HW210598   3.801   6.428   5.840 -0.4624  0.2129  0.1205
 3260SOL     OW10599   4.534   1.017   5.579  0.2750 -0.3699  0.1208
 3260SOL    HW110600   4.537   1.080   5.502  0.7474 -1.3471 -0.6953
 3260SOL    HW210601   4.578   0.931   5.553 -2.1192 -1.8016  0.5054
 3261SOL     OW10602   1.506   1.846   5.927  0.1026  0.5486  0.5885
 3261SOL    HW110603   1.424   1.878   5.880  0.3686  1.5222  0.7725
 3261SOL    HW210604   1.585   1.900   5.897  0.4879  0.3412  1.2153
 3262SOL     OW10605   6.407   1.821   0.876 -0.0127  0.0053 -0.0328
 3262SOL    HW110606   6.442   1.899   0.928  1.9200  0.0925 -1.3321
 3262SOL    HW210607   6.328   1.782   0.923  1.2037  0.4722  2.6225
 3263SOL     OW10608   1.103   2.221   3.876 -0.3431  0.6729 -0.5959
 3263SOL    HW110609   1.041   2.269   3.938 -0.6194  1.6180 -1.5675
 3263SOL    HW210610   1.170   2.286   3.838 -0.3162  0.1701 -1.4443
 3264SOL     OW10611   5.338   3.188   1.743 -0.4322  0.3081  0.1273
 3264SOL    HW110612   5.291   3.127   1.807  0.8169  1.4642  2.2673
 3264SOL    HW210613   5.284   3.271   1.730 -1.2217 -0.3789 -1.2912
 3265SOL     OW10614   0.553   0.995   5.052 -0.4134  0.3928  0.4553
 3265SOL    HW110615   0.637   0.955   5.015 -1.1940  0.7644 -1.8697
 3265SOL    HW210616   0.575   1.079   5.101  0.6593  0.1826  0.3545
 3266SOL     OW10617   2.794   5.292   5.126 -0.1846  0.0456 -0.2227
 3266SOL    HW110618   2.725   5.326   5.190 -0.5666  0.3202 -0.7749
 3266SOL    HW210619   2.880   5.342   5.140 -1.0517  2.1432 -1.8044
 3267SOL     OW10620   0.432   6.401   2.482  0.1052  0.5761  0.0386
 3267SOL    HW110621   0.506   6.434   2.423 -0.6372 -0.5065 -1.5458
 3267SOL    HW210622   0.457   6.416   2.577  3.2047 -1.3314 -0.3203
 3268SOL     OW10623   0.427   3.264   1.030 -1.0003 -0.0174 -0.1318
 3268SOL    HW110624   0.448   3.208   1.110  0.8211  1.6004  0.6010
 3268SOL    HW210625   0.434   3.208   0.948  1.9126 -0.7065  0.4647
 3269SOL     OW10626   3.947   6.288   0.368  0.1717 -0.0018 -0.5851
 3269SOL    HW110627   3.884   6.364   0.383  0.5313 -0.1721  2.2247
 3269SOL    HW210628   3.905   6.220   0.308 -1.4920  0.8540 -0.4213
 3270SOL     OW10629   0.230   3.030   4.081  0.3221  0.4276 -0.0623
 3270SOL    HW110630   0.280   3.103   4.128 -1.5587  2.2196 -0.6138
 3270SOL    HW210631   0.183   2.973   4.148  0.3722  0.8633  0.3447
 3271SOL     OW10632   0.144   6.969   5.749  0.3972  0.6350 -0.2635
 3271SOL    HW110633   0.093   7.028   5.811  1.8461  2.1642 -0.4727
 3271SOL    HW210634   0.198   6.904   5.802 -2.7877 -2.1006 -0.0321
 3272SOL     OW10635   1.551   2.892   5.108  0.1981  0.8767 -0.0445
 3272SOL    HW110636   1.578   2.970   5.164 -2.7267  1.7797  0.2923
 3272SOL    HW210637   1.515   2.924   5.021  1.7058 -0.3330 -1.1743
 3273SOL     OW10638   4.026   2.767   2.248 -0.0124 -0.0908  0.3943
 3273SOL    HW110639   4.043   2.793   2.153  0.5983 -0.2202  0.4601
 3273SOL    HW210640   4.042   2.668   2.259 -0.5054 -0.1590  0.5412
 3274SOL     OW10641   6.724   1.665   1.650  0.2108 -0.2325  0.0621
 3274SOL    HW110642   6.765   1.735   1.591 -1.0236  1.9088  1.5938
 3274SOL    HW210643   6.758   1.677   1.744  0.5928 -2.2724  0.2375
 3275SOL     OW10644   2.134   2.111   0.884  0.7304  0.8653  0.2019
 3275SOL    HW110645   2.087   2.199   0.877 -0.3737  0.2675 -0.0864
 3275SOL    HW210646   2.143   2.086   0.981 -0.8990  0.3008  0.2401
 3276SOL     OW10647   3.096   6.703   5.993  0.3664 -0.0907 -0.3592
 3276SOL    HW110648   3.100   6.754   5.906 -1.1727 -0.1167 -0.4575
 3276SOL    HW210649   3.079   6.607   5.974 -0.2651 -0.0517 -0.0266
 3277SOL     OW10650   0.782   1.607   0.708  0.5939  0.2132 -0.9801
 3277SOL    HW110651   0.694   1.608   0.755  0.9136 -1.8522 -0.2098
 3277SOL    HW210652   0.856   1.603   0.776  1.2902  1.8448 -1.6148
 3278SOL     OW10653   2.161   4.996   1.254  0.5545  0.5265  0.6659
 3278SOL    HW110654   2.108   5.001   1.169 -0.5749 -0.3128  1.3030
 3278SOL    HW210655   2.253   4.962   1.234  0.0192 -0.5160 -0.1221
 3279SOL     OW10656   2.930   6.384   3.382  0.3895  0.3275 -0.0074
 3279SOL    HW110657   2.945   6.471   3.427  1.4238 -0.3023  0.9046
 3279SOL    HW210658   2.923   6.398   3.283 -1.4791  1.6723  0.2826
 3280SOL     OW10659   4.450   5.093   3.353 -0.0365  0.1507 -0.0244
 3280SOL    HW110660   4.391   5.113   3.432 -0.1848 -1.7130  0.3854
 3280SOL    HW210661   4.509   5.172   3.335 -0.6612  0.9718  1.3511
 3281SOL     OW10662   1.118   3.064   0.018  0.3125  0.2280 -0.1382
 3281SOL    HW110663   1.077   3.027  -0.065 -0.7189  2.8992 -0.8961
 3281SOL    HW210664   1.177   3.142  -0.006  1.6773 -0.2610  1.4977
 3282SOL     OW10665   2.096   6.360   3.848 -0.0196 -0.5172 -0.4141
 3282SOL    HW110666   2.076   6.357   3.946  0.8104  0.3315 -0.1972
 3282SOL    HW210667   2.179   6.413   3.832  0.1603 -1.0922 -1.5447
 3283SOL     OW10668   5.754   3.324   0.113 -0.4252  0.4105 -0.8372
 3283SOL    HW110669   5.801   3.378   0.183  1.1536  0.9950 -2.2793
 3283SOL    HW210670   5.813   3.248   0.085  1.0558  2.6706 -4.5856
 3284SOL     OW10671   1.761   0.530   2.498  0.1516  0.2200  0.1293
 3284SOL    HW110672   1.839   0.568   2.448  0.1988 -0.7796 -0.5901
 3284SOL    HW210673   1.677   0.575   2.467  0.4959  2.0076  1.6137
 3285SOL     OW10674   5.698   1.954   5.016 -0.6298  0.4750  1.1219
 3285SOL    HW110675   5.753   2.007   4.952 -1.4154  0.2592  0.2575
 3285SOL    HW210676   5.623   2.010   5.051 -1.8676 -0.2120 -0.3089
 3286SOL     OW10677   1.880   1.297   5.067  0.4141 -0.1404 -0.0732
 3286SOL    HW110678   1.799   1.353   5.084 -0.7903 -1.7973 -0.0989
 3286SOL    HW210679   1.904   1.302   4.970  0.5092  0.5578 -0.0203
 3287SOL     OW10680   5.392   4.971   6.248  0.8834 -0.3948 -0.0956
 3287SOL    HW110681   5.389   4.915   6.165 -0.6990 -0.3833 -0.0716
 3287SOL    HW210682   5.397   5.068   6.223 -1.5896 -0.2395 -0.2930
 3288SOL     OW10683   4.736   1.805   2.977 -0.3319 -0.3744 -0.5528
 3288SOL    HW110684   4.727   1.717   3.024  1.7034 -1.3036 -1.7772
 3288SOL    HW210685   4.755   1.876   3.044  0.3696 -1.2888  0.2495
 3289SOL     OW10686   5.003   4.963   3.608  0.7901 -0.2277 -0.3207
 3289SOL    HW110687   5.101   4.955   3.629  0.7071  0.7565  0.5759
 3289SOL    HW210688   4.991   4.978   3.510  1.5488 -0.1006 -0.4025
 3290SOL     OW10689   6.828   5.837   6.310  0.9697  0.1297 -0.7393
 3290SOL    HW110690   6.794   5.798   6.396 -0.8096  0.9106 -1.0422
 3290SOL    HW210691   6.903   5.780   6.276  1.3651 -0.4979  1.0270
 3291SOL     OW10692   2.853   0.626   4.114  0.9374  0.0968 -0.7562
 3291SOL    HW110693   2.827   0.530   4.103 -1.8308  0.2778  2.5991
 3291SOL    HW210694   2.785   0.684   4.070  0.0047  0.4941  1.1142
 3292SOL     OW10695   4.076   6.009   6.448 -0.2449  0.2360  0.0856
 3292SOL    HW110696   4.049   5.927   6.396  1.2633 -0.4073  0.2650
 3292SOL    HW210697   4.090   6.085   6.385  0.7797 -0.3249 -0.3854
 3293SOL     OW10698   6.146   4.257   3.478  0.2382  0.0452  0.1016
 3293SOL    HW110699   6.125   4.162   3.497  0.6858  0.0989  0.9183
 3293SOL    HW210700   6.245   4.272   3.489  0.1680  0.6000  0.0098
 3294SOL     OW10701   5.704   6.169   2.655  0.1548  0.1645 -0.2032
 3294SOL    HW110702   5.756   6.147   2.737 -1.9750 -1.4346  0.8444
 3294SOL    HW210703   5.660   6.259   2.666 -1.0668 -0.5426  0.9932
 3295SOL     OW10704   3.328   5.925   1.743  0.1707  0.3695 -0.5079
 3295SOL    HW110705   3.278   5.876   1.672  2.6760 -3.6781  0.1842
 3295SOL    HW210706   3.420   5.947   1.710  0.6754  0.2615  0.7723
 3296SOL     OW10707   2.975   5.129   1.357  0.2203 -0.1122 -0.1427
 3296SOL    HW110708   2.972   5.086   1.447  0.4842  1.8501  0.8648
 3296SOL    HW210709   3.070   5.138   1.328  0.1485 -0.5205 -0.5052
 3297SOL     OW10710   2.314   6.808   5.017 -0.1404 -0.1998  0.0906
 3297SOL    HW110711   2.376   6.866   5.069  0.1651 -0.0497 -0.4288
 3297SOL    HW210712   2.220   6.826   5.046  0.1040 -1.5224  1.9928
 3298SOL     OW10713   4.081   1.873   6.669  0.2157  0.2937 -0.5229
 3298SOL    HW110714   4.023   1.830   6.738 -0.4098  0.8080 -0.7083
 3298SOL    HW210715   4.118   1.959   6.706 -0.7872  0.9953 -1.0789
 3299SOL     OW10716   5.741   4.986   0.936  0.0890  0.2466 -0.1094
 3299SOL    HW110717   5.797   4.944   0.865  1.2980  2.3406 -0.4494
 3299SOL    HW210718   5.678   5.051   0.895  1.5883  2.3467  0.7658
 3300SOL     OW10719   7.009   0.474   6.582  0.3460  0.1346 -0.8595
 3300SOL    HW110720   6.997   0.403   6.652  1.0033  0.3510 -0.5078
 3300SOL    HW210721   6.964   0.446   6.498 -0.9513  0.0906 -0.1964
 3301SOL     OW10722   4.653   4.725   1.230 -0.7755  0.2372  0.0867
 3301SOL    HW110723   4.594   4.726   1.148  0.2302 -2.0463 -0.7147
 3301SOL    HW210724   4.741   4.766   1.208 -0.4124 -0.6065 -0.0746
 3302SOL     OW10725   6.103   0.729   5.483  0.1618  0.2977  0.1515
 3302SOL    HW110726   6.189   0.690   5.518  0.6025 -0.2049 -1.3922
 3302SOL    HW210727   6.048   0.656   5.442 -1.2173  0.5516  1.4990
 3303SOL     OW10728   5.667   3.609   1.622  0.1078  0.1362 -0.0808
 3303SOL    HW110729   5.573   3.640   1.640 -0.1168 -0.3596 -0.3812
 3303SOL    HW210730   5.665   3.528   1.564  0.6848 -0.6582  0.9675
 3304SOL     OW10731   3.733   5.402   2.863  0.4592 -0.3178  0.2743
 3304SOL    HW110732   3.831   5.420   2.855  0.5278 -0.7114  0.2276
 3304SOL    HW210733   3.682   5.482   2.832  0.7598 -0.3021 -0.1980
 3305SOL     OW10734   2.212   5.012   4.843  0.0493 -0.2564  0.2749
 3305SOL    HW110735   2.225   4.976   4.750  0.4004  0.7226 -0.0737
 3305SOL    HW210736   2.118   5.044   4.853  0.4616  1.1981 -0.3252
 3306SOL     OW10737   4.014   0.574   4.064 -0.1529  0.4312 -0.3486
 3306SOL    HW110738   4.028   0.485   4.106  0.3238 -0.4470 -2.2464
 3306SOL    HW210739   4.051   0.646   4.123  1.3331 -0.8184  0.2965
 3307SOL     OW10740   3.735   4.533   5.357 -0.1069 -0.5726  0.4160
 3307SOL    HW110741   3.638   4.535   5.383 -0.0430  0.9452  0.6376
 3307SOL    HW210742   3.790   4.573   5.430  0.5255 -0.0541 -0.3323
 3308SOL     OW10743   2.628   1.036   1.537  0.0062 -0.0106  0.6556
 3308SOL    HW110744   2.617   1.129   1.572  0.4789 -0.2959  1.5934
 3308SOL    HW210745   2.538   0.997   1.518 -0.2796  0.1562  1.5856
 3309SOL     OW10746   4.110   1.507   1.205 -0.2562 -0.3401 -0.2854
 3309SOL    HW110747   4.086   1.417   1.242 -2.3619  0.6866  1.0144
 3309SOL    HW210748   4.126   1.499   1.106 -0.3017 -2.1446 -0.1789
 3310SOL     OW10749   0.779   2.272   0.585  0.3850  0.1963  0.3043
 3310SOL    HW110750   0.698   2.223   0.554 -0.8407  0.6464  2.5832
 3310SOL    HW210751   0.787   2.358   0.534 -1.1954  0.6514  0.7933
 3311SOL     OW10752   5.274   0.134   0.090  0.4476  0.2180 -0.2295
 3311SOL    HW110753   5.213   0.175   0.157  0.5213  0.1120 -0.0989
 3311SOL    HW210754   5.365   0.124   0.129  0.3129 -0.5310 -0.0986
 3312SOL     OW10755   4.863   5.140   3.739 -0.0184  0.0781  0.1498
 3312SOL    HW110756   4.811   5.211   3.692 -0.1643  0.7616  1.3086
 3312SOL    HW210757   4.912   5.085   3.672 -0.4436  0.8480 -0.8141
 3313SOL     OW10758   3.044   1.287   1.867 -0.0152 -0.8716  0.1003
 3313SOL    HW110759   3.041   1.189   1.888  2.0006 -1.4683 -1.9665
 3313SOL    HW210760   3.134   1.310   1.829 -0.8029  1.5959 -0.4518
 3314SOL     OW10761   6.317   3.771   3.864  0.0218 -0.3947 -0.0554
 3314SOL    HW110762   6.315   3.675   3.891  0.6805 -0.1870  0.7931
 3314SOL    HW210763   6.406   3.811   3.886 -0.6654  0.7320  0.7873
 3315SOL     OW10764   6.274   1.515   1.227  0.0808  0.2649 -0.0111
 3315SOL    HW110765   6.340   1.586   1.250 -1.4858  1.0418  2.3157
 3315SOL    HW210766   6.193   1.556   1.185 -0.0368 -0.3833 -0.4472
 3316SOL     OW10767   5.671   4.905   1.183 -0.0145 -0.0965  0.4242
 3316SOL    HW110768   5.689   4.928   1.087  1.6191 -0.7385  0.5525
 3316SOL    HW210769   5.663   4.806   1.192 -0.2771 -0.0303  0.9488
 3317SOL     OW10770   1.389   6.171   1.313  0.1169  0.0568 -0.4718
 3317SOL    HW110771   1.320   6.104   1.337  0.8338 -0.4688  0.1728
 3317SOL    HW210772   1.479   6.139   1.343  0.7962  0.2600 -2.1327
 3318SOL     OW10773   2.675   5.141   0.387 -0.4574  0.0625 -0.3426
 3318SOL    HW110774   2.713   5.108   0.473 -0.6915 -1.0879 -0.6665
 3318SOL    HW210775   2.740   5.204   0.344 -0.8941  1.7227  1.2891
 3319SOL     OW10776   5.429   1.510   3.201 -0.0846 -0.0396 -0.0335
 3319SOL    HW110777   5.473   1.561   3.276 -0.0470 -1.2059  0.7772
 3319SOL    HW210778   5.494   1.501   3.125  0.2355  0.3116  0.1952
 3320SOL     OW10779   3.282   6.155   2.078  0.5834  0.6679  0.2075
 3320SOL    HW110780   3.244   6.223   2.140  0.1417 -0.0931  0.7883
 3320SOL    HW210781   3.332   6.201   2.004 -0.1443  1.6282  0.2936
 3321SOL     OW10782   0.932   6.712   2.243 -0.0677 -0.2369  0.1472
 3321SOL    HW110783   0.862   6.690   2.311 -1.8108 -1.4540 -1.9601
 3321SOL    HW210784   1.021   6.680   2.276 -0.8153 -0.6109  1.9303
 3322SOL     OW10785   2.814   6.310   3.099 -0.7422 -0.3402  0.1955
 3322SOL    HW110786   2.817   6.372   3.020 -0.9025 -0.3020  0.2182
 3322SOL    HW210787   2.893   6.250   3.097 -0.3579  0.1406  0.3964
 3323SOL     OW10788   3.263   5.117   6.989 -0.0971 -0.4853 -0.3029
 3323SOL    HW110789   3.341   5.143   7.045 -2.2384 -1.0832  3.2496
 3323SOL    HW210790   3.284   5.032   6.941  1.6170 -0.3570  0.1562
 3324SOL     OW10791   2.069   2.808   6.390 -0.2319  0.2005 -0.0841
 3324SOL    HW110792   2.111   2.730   6.342 -1.0762 -0.4045  0.1347
 3324SOL    HW210793   2.064   2.886   6.327  1.6238  0.4529  0.0125
 3325SOL     OW10794   5.579   2.833   6.802 -0.3245 -0.0552  0.4767
 3325SOL    HW110795   5.652   2.895   6.773 -0.6435  0.9830  1.7540
 3325SOL    HW210796   5.618   2.755   6.850  0.0465 -0.5210 -0.5648
 3326SOL     OW10797   0.669   1.795   0.076  0.4392 -0.4636 -0.2128
 3326SOL    HW110798   0.648   1.859   0.002  1.0307 -1.2727 -1.0738
 3326SOL    HW210799   0.760   1.815   0.112 -0.3300  0.7069  1.1442
 3327SOL     OW10800   3.948   5.760   4.240 -0.1268 -0.7065 -0.5686
 3327SOL    HW110801   3.991   5.847   4.267 -0.9184 -0.6239  0.4886
 3327SOL    HW210802   4.014   5.704   4.190  0.9120 -0.1555  0.1540
 3328SOL     OW10803   2.826   0.640   3.199  0.4127  0.2512  0.0065
 3328SOL    HW110804   2.799   0.708   3.132 -1.0969 -0.4480 -0.1303
 3328SOL    HW210805   2.775   0.653   3.284  0.8257 -0.1128  0.3233
 3329SOL     OW10806   1.103   4.983   0.133  0.6854 -0.5971  0.3596
 3329SOL    HW110807   1.091   5.012   0.037 -0.1984  0.7036  0.8441
 3329SOL    HW210808   1.042   4.906   0.152  1.1386 -1.1231 -0.2092
 3330SOL     OW10809   3.753   5.640   4.357 -0.2268  0.2904 -0.0255
 3330SOL    HW110810   3.766   5.560   4.416  0.3526  0.2503 -0.1993
 3330SOL    HW210811   3.841   5.668   4.319 -0.8065 -0.7504 -2.3018
 3331SOL     OW10812   1.474   6.436   6.483 -0.1466  0.6840 -0.1088
 3331SOL    HW110813   1.470   6.372   6.560  3.2694 -0.8691 -1.0133
 3331SOL    HW210814   1.466   6.530   6.516  2.6011  0.1678  2.4800
 3332SOL     OW10815   3.196   0.684   0.680 -0.3393  0.0989 -0.3323
 3332SOL    HW110816   3.267   0.751   0.661 -0.3461 -0.0334 -0.8490
 3332SOL    HW210817   3.224   0.626   0.756  0.1263  0.0234 -0.5580
 3333SOL     OW10818   4.578   0.405   2.207  0.2029 -0.2572 -0.2961
 3333SOL    HW110819   4.491   0.366   2.236  0.5409 -1.2283 -0.5446
 3333SOL    HW210820   4.570   0.438   2.113 -0.3030  1.0294  0.1594
 3334SOL     OW10821   2.993   4.904   6.047  0.1218 -0.1623 -0.1819
 3334SOL    HW110822   3.019   4.819   6.001 -0.7976  1.2038 -3.5770
 3334SOL    HW210823   2.893   4.908   6.057  0.1460  0.5449 -0.1370
 3335SOL     OW10824   6.357   1.097   6.600  0.8080 -0.3143 -0.2039
 3335SOL    HW110825   6.288   1.165   6.573  0.1948 -0.3845  1.1105
 3335SOL    HW210826   6.438   1.107   6.543  0.3797  0.9369 -0.6218
 3336SOL     OW10827   0.785   2.842   3.019  0.4337 -0.1612 -0.6039
 3336SOL    HW110828   0.728   2.768   3.056  0.5162  0.0701  0.0252
 3336SOL    HW210829   0.736   2.887   2.944  0.0892 -0.4085 -0.5329
 3337SOL     OW10830   6.494   4.245   4.642  0.0012  0.4918  0.2270
 3337SOL    HW110831   6.580   4.256   4.592  0.4616 -0.1405  0.8618
 3337SOL    HW210832   6.418   4.257   4.578  0.4971 -4.1968 -1.6811
 3338SOL     OW10833   1.174   1.384   4.944 -0.8892  0.4597 -0.3029
 3338SOL    HW110834   1.188   1.285   4.957  1.6525  0.9230  1.2940
 3338SOL    HW210835   1.181   1.406   4.847 -1.6692 -0.9287 -0.7092
 3339SOL     OW10836   5.404   4.507   3.475  0.1830  0.3472  0.2563
 3339SOL    HW110837   5.382   4.539   3.383 -0.5300  0.8782  0.6039
 3339SOL    HW210838   5.338   4.438   3.503  0.2787  0.3311  0.4433
 3340SOL     OW10839   0.244   2.960   4.957  0.0961 -0.3615 -0.2322
 3340SOL    HW110840   0.328   2.913   4.932 -0.0671 -0.4479 -0.6241
 3340SOL    HW210841   0.176   2.948   4.885 -0.4139 -0.7040  0.3008
 3341SOL     OW10842   4.365   1.910   4.547  0.6530 -0.8109  0.2030
 3341SOL    HW110843   4.334   1.820   4.577  0.9547 -0.8254  0.4761
 3341SOL    HW210844   4.430   1.947   4.614 -0.5745  0.2564  0.8672
 3342SOL     OW10845   2.935   0.160   2.271 -0.5073 -0.1566 -0.0435
 3342SOL    HW110846   3.031   0.176   2.249  0.0750 -1.3268  1.4527
 3342SOL    HW210847   2.888   0.122   2.191  0.5729 -0.6961 -0.4389
 3343SOL     OW10848   0.865   3.584   2.115  0.1617  0.8862 -0.1893
 3343SOL    HW110849   0.907   3.674   2.129  1.3692  0.0236  2.2159
 3343SOL    HW210850   0.863   3.535   2.202 -1.2065 -1.1246 -1.3016
 3344SOL     OW10851   2.080   5.328   2.139 -0.1514  0.0519 -0.8265
 3344SOL    HW110852   2.044   5.235   2.140 -0.4106  0.1425  0.7178
 3344SOL    HW210853   2.137   5.343   2.219 -0.2333  1.2748 -0.9699
 3345SOL     OW10854   3.521   4.854   6.345  0.4830  0.0506 -0.4747
 3345SOL    HW110855   3.572   4.831   6.427  0.5203 -1.6298 -0.9340
 3345SOL    HW210856   3.467   4.936   6.362  3.3076  1.9711  0.0129
 3346SOL     OW10857   0.358   3.371   3.749 -0.3899 -0.4808  0.0819
 3346SOL    HW110858   0.418   3.346   3.672 -1.2060 -1.4273 -0.2820
 3346SOL    HW210859   0.412   3.376   3.833  0.8554  2.2834 -0.7630
 3347SOL     OW10860   5.209   3.656   5.838 -0.0213 -0.4897 -0.0026
 3347SOL    HW110861   5.294   3.663   5.890  0.8368 -0.5093 -1.3373
 3347SOL    HW210862   5.196   3.741   5.785 -0.2870 -0.8812 -0.5846
 3348SOL     OW10863   4.242   2.193   2.982  0.1901 -0.3067  0.5861
 3348SOL    HW110864   4.322   2.213   3.040 -0.8824  0.8593  1.7415
 3348SOL    HW210865   4.267   2.127   2.912  2.2098  0.1242  0.8407
 3349SOL     OW10866   5.500   2.815   4.725  0.0826 -0.2433  0.1732
 3349SOL    HW110867   5.455   2.904   4.734 -1.8305 -1.0054 -1.3217
 3349SOL    HW210868   5.588   2.826   4.679 -0.8856  0.7094 -1.5212
 3350SOL     OW10869   3.194   1.708   5.535  0.1144  0.5683 -0.3745
 3350SOL    HW110870   3.137   1.755   5.467  0.5562  1.5873 -0.0620
 3350SOL    HW210871   3.219   1.618   5.501  1.6190  1.6328 -2.2817
 3351SOL     OW10872   0.789   3.295   5.331  0.4338 -0.1413 -0.0835
 3351SOL    HW110873   0.765   3.225   5.264 -0.5448  2.0271 -2.1537
 3351SOL    HW210874   0.794   3.384   5.285  1.8198  1.1553  2.3813
 3352SOL     OW10875   2.755   0.940   0.728  0.0473 -0.3121 -0.2837
 3352SOL    HW110876   2.830   1.006   0.730 -1.2548  1.2347  2.5606
 3352SOL    HW210877   2.741   0.910   0.633  2.0670  1.8256 -1.3946
 3353SOL     OW10878   5.983   6.522   3.109  0.4759  0.3528  0.0814
 3353SOL    HW110879   5.997   6.610   3.064  0.9690  0.1156 -0.2415
 3353SOL    HW210880   5.889   6.515   3.142  0.5871  1.2272  0.6064
 3354SOL     OW10881   6.290   2.771   2.506 -0.4303  0.3896 -0.8484
 3354SOL    HW110882   6.337   2.823   2.577 -1.9017  1.0689 -0.3369
 3354SOL    HW210883   6.339   2.685   2.489 -0.1682  0.1184  1.1263
 3355SOL     OW10884   3.415   3.854   1.452  0.3595 -0.0669 -0.4273
 3355SOL    HW110885   3.401   3.824   1.547  1.3030 -0.8431 -0.5153
 3355SOL    HW210886   3.335   3.905   1.421  0.4333  1.0557  1.1165
 3356SOL     OW10887   4.828   2.558   5.895 -0.3428 -0.1316 -0.7996
 3356SOL    HW110888   4.859   2.648   5.863  0.9694 -0.1152  0.4281
 3356SOL    HW210889   4.861   2.487   5.832 -0.8868  0.1936 -1.4589
 3357SOL     OW10890   5.333   6.504   5.906  0.5012  0.1948  0.6717
 3357SOL    HW110891   5.293   6.592   5.879 -0.3803 -0.1503  0.8137
 3357SOL    HW210892   5.260   6.436   5.915  0.8481  0.0797  3.0795
 3358SOL     OW10893   4.198   3.121   0.587  0.1474  0.4337 -0.2184
 3358SOL    HW110894   4.130   3.055   0.619 -0.4292  1.5293  0.9018
 3358SOL    HW210895   4.175   3.151   0.494 -0.3773  0.1104 -0.1920
 3359SOL     OW10896   6.261   3.781   0.115  0.1693 -0.1818 -0.3937
 3359SOL    HW110897   6.313   3.825   0.188  4.1556  0.2748 -3.1653
 3359SOL    HW210898   6.305   3.693   0.092  0.0348  0.3380 -3.0467
 3360SOL     OW10899   4.749   5.341   0.722  0.3897  0.3838 -0.0344
 3360SOL    HW110900   4.702   5.332   0.809  0.9108 -0.6694  0.1600
 3360SOL    HW210901   4.802   5.425   0.721 -1.1877  1.4249 -0.1296
 3361SOL     OW10902   3.694   0.382   1.385  0.3903  0.1807  0.2475
 3361SOL    HW110903   3.692   0.426   1.475 -1.4370  1.2683 -0.2718
 3361SOL    HW210904   3.651   0.442   1.318  0.0007 -1.4162 -0.9873
 3362SOL     OW10905   2.602   6.031   2.840  0.2238  0.0392  0.1458
 3362SOL    HW110906   2.582   5.957   2.776  0.4880 -1.1844  1.4263
 3362SOL    HW210907   2.578   6.119   2.798 -0.1338 -0.7562 -1.3952
 3363SOL     OW10908   1.030   3.364   6.587 -0.1243  0.4210 -0.0563
 3363SOL    HW110909   1.027   3.319   6.498 -0.3550  1.7757 -0.7758
 3363SOL    HW210910   0.969   3.318   6.651 -0.7905  0.0709 -0.9232
 3364SOL     OW10911   2.428   0.830   2.398 -0.0575 -0.4069  0.5227
 3364SOL    HW110912   2.429   0.782   2.486  2.6894  0.9952  1.3583
 3364SOL    HW210913   2.440   0.928   2.413 -1.8310  0.1564 -1.3521
 3365SOL     OW10914   6.699   1.846   4.522 -0.1674 -0.2027 -0.1885
 3365SOL    HW110915   6.660   1.864   4.431 -0.2191  0.7374  0.0073
 3365SOL    HW210916   6.638   1.786   4.573 -1.4732  1.3147  0.1471
 3366SOL     OW10917   4.199   2.496   0.821 -0.3980 -0.1116 -0.1928
 3366SOL    HW110918   4.244   2.447   0.746  0.4778  0.6635 -0.1859
 3366SOL    HW210919   4.136   2.564   0.783 -1.1471 -0.7988 -0.2060
 3367SOL     OW10920   0.972   4.001   3.941 -0.7078  0.1011  0.0001
 3367SOL    HW110921   1.051   3.942   3.921 -1.6956 -1.0566 -0.6420
 3367SOL    HW210922   0.954   3.999   4.039 -0.8530 -0.8638 -0.0270
 3368SOL     OW10923   3.768   1.622   5.664  0.2419 -0.0249 -0.0735
 3368SOL    HW110924   3.751   1.531   5.627  1.1398 -0.2404  0.0391
 3368SOL    HW210925   3.832   1.671   5.604  0.3378  0.2614  0.2610
 3369SOL     OW10926   2.183   1.974   2.846 -0.3029 -0.1994  0.3291
 3369SOL    HW110927   2.085   1.957   2.835 -0.3968  1.6113 -2.9346
 3369SOL    HW210928   2.199   2.072   2.856  1.2628 -0.1737 -1.7799
 3370SOL     OW10929   1.268   5.091   3.534  0.6051 -0.4084 -1.0116
 3370SOL    HW110930   1.296   5.185   3.514  0.1099 -0.8283 -4.1187
 3370SOL    HW210931   1.295   5.031   3.459 -1.9752 -2.1737 -0.6620
 3371SOL     OW10932   6.030   1.656   1.153 -0.1448  0.3335  0.7858
 3371SOL    HW110933   6.074   1.741   1.125  0.3316 -0.5834 -1.4124
 3371SOL    HW210934   5.931   1.664   1.137  0.0305  0.1006 -0.5188
 3372SOL     OW10935   5.292   0.693   1.573 -0.0965 -0.3041  0.4267
 3372SOL    HW110936   5.384   0.731   1.581  0.5364 -1.4615 -1.1527
 3372SOL    HW210937   5.292   0.600   1.609 -0.3474 -0.7288 -0.6393
 3373SOL     OW10938   2.140   6.577   0.013  0.3059 -0.2569 -0.1631
 3373SOL    HW110939   2.168   6.523   0.092 -0.5819  0.6079  0.7617
 3373SOL    HW210940   2.187   6.665   0.015  0.5389 -0.3562 -0.7983
 3374SOL     OW10941   5.826   6.510   0.494  0.4160 -0.2995 -0.7244
 3374SOL    HW110942   5.846   6.447   0.419 -0.6059  0.7385 -1.9066
 3374SOL    HW210943   5.731   6.500   0.521  0.4423  0.2406 -0.4280
 3375SOL     OW10944   3.171   5.557   5.304  0.9303  0.0876  0.0818
 3375SOL    HW110945   3.262   5.562   5.263  0.7257 -0.1016 -0.4000
 3375SOL    HW210946   3.148   5.461   5.322  0.0456 -0.0422 -1.5736
 3376SOL     OW10947   4.491   0.502   5.337  0.4081  0.4729  0.3758
 3376SOL    HW110948   4.435   0.445   5.398  1.6167 -0.4541  0.6765
 3376SOL    HW210949   4.581   0.515   5.377  0.1165  2.8888  0.4324
 3377SOL     OW10950   1.967   5.313   4.156 -0.4292  0.1999 -0.3756
 3377SOL    HW110951   1.970   5.214   4.141  0.7625  0.3501 -1.2602
 3377SOL    HW210952   2.017   5.360   4.083 -1.3817  1.5012 -0.2480
 3378SOL     OW10953   0.459   0.747   3.059 -0.1907  0.2589  0.4913
 3378SOL    HW110954   0.424   0.654   3.072  1.1038 -0.5314 -1.2501
 3378SOL    HW210955   0.411   0.789   2.982  1.0676  0.0054 -0.4545
 3379SOL     OW10956   6.977   4.311   6.857  0.2362  0.2755  0.0311
 3379SOL    HW110957   7.037   4.314   6.777  0.3355 -0.7196  0.0615
 3379SOL    HW210958   6.978   4.218   6.896 -1.5451  0.1447 -0.1447
 3380SOL     OW10959   4.420   3.252   0.469  0.0062  0.3087 -0.6153
 3380SOL    HW110960   4.366   3.186   0.521 -2.2211  0.6122 -2.3994
 3380SOL    HW210961   4.492   3.204   0.418 -0.9358 -0.6121 -1.1039
 3381SOL     OW10962   5.563   2.830   2.061 -0.7667 -0.0046 -0.3466
 3381SOL    HW110963   5.467   2.804   2.058 -0.4625 -1.1220 -2.1282
 3381SOL    HW210964   5.583   2.896   1.989 -0.4868  1.4433  1.0032
 3382SOL     OW10965   2.171   0.311   3.950  0.5937 -0.3795 -0.3651
 3382SOL    HW110966   2.125   0.379   4.007  0.0840 -0.4279 -0.7049
 3382SOL    HW210967   2.145   0.219   3.980 -3.0191 -0.4901 -3.1351
 3383SOL     OW10968   5.778   5.538   4.819 -0.4384  0.0232 -0.7856
 3383SOL    HW110969   5.834   5.581   4.889  0.3582 -1.0038 -0.7658
 3383SOL    HW210970   5.698   5.595   4.800 -0.1139  0.8237  0.1873
 3384SOL     OW10971   5.391   3.633   3.256 -0.6874  0.0305  0.0565
 3384SOL    HW110972   5.474   3.652   3.309 -0.0752 -0.1637 -0.7987
 3384SOL    HW210973   5.417   3.609   3.162 -1.7490  0.6063 -0.3981
 3385SOL     OW10974   1.608   0.943   6.025 -0.1110  0.0873  0.1531
 3385SOL    HW110975   1.565   0.894   5.949 -1.6706 -0.4250  1.3309
 3385SOL    HW210976   1.552   1.022   6.050  1.1536  1.1152 -0.1500
 3386SOL     OW10977   1.067   2.232   2.548 -0.9449  0.1987  0.1800
 3386SOL    HW110978   1.113   2.288   2.617 -0.5283  0.7026 -0.4978
 3386SOL    HW210979   1.119   2.147   2.535  0.3059  1.1150 -1.1687
 3387SOL     OW10980   2.924   0.236   4.766  0.2818 -0.0921  0.6492
 3387SOL    HW110981   3.023   0.244   4.765  0.2656  0.4486  1.8227
 3387SOL    HW210982   2.883   0.327   4.756 -0.0816 -0.2224  0.9184
 3388SOL     OW10983   6.187   0.826   1.804 -0.1224 -0.3574  0.1941
 3388SOL    HW110984   6.278   0.832   1.846 -0.7282 -0.8254  1.6091
 3388SOL    HW210985   6.122   0.789   1.870 -1.3959  0.1487 -0.7484
 3389SOL     OW10986   1.051   4.610   6.755  0.0738  0.3344 -0.3863
 3389SOL    HW110987   1.050   4.511   6.767  0.2693  0.5191  1.5478
 3389SOL    HW210988   1.146   4.642   6.752  0.0678  0.6709  1.5668
 3390SOL     OW10989   0.043   0.679   6.176 -0.8281  0.4295  0.0046
 3390SOL    HW110990   0.000   0.594   6.205 -1.3144  0.4562 -0.6668
 3390SOL    HW210991   0.139   0.662   6.150 -0.8440  0.1168  0.1619
 3391SOL     OW10992   0.743   4.216   2.936  0.1438 -0.6874  0.3705
 3391SOL    HW110993   0.665   4.213   2.998  0.1563 -0.5764  0.3933
 3391SOL    HW210994   0.711   4.205   2.841 -0.0767  0.8494  0.2438
 3392SOL     OW10995   0.182   3.237   5.972 -0.4782 -0.1023 -0.5762
 3392SOL    HW110996   0.101   3.291   5.949 -0.2341  0.1726 -0.8013
 3392SOL    HW210997   0.248   3.295   6.021 -2.3241 -1.3356  3.9496
 3393SOL     OW10998   6.231   3.999   5.910  0.2667  0.1231 -0.5267
 3393SOL    HW110999   6.327   4.002   5.884  1.2311  0.2260  2.6255
 3393SOL    HW211000   6.216   4.054   5.992 -1.8335 -2.0947  0.7532
 3394SOL     OW11001   6.466   5.472   2.171  0.2970 -0.0698 -0.3338
 3394SOL    HW111002   6.507   5.446   2.084  0.4827 -1.4694  0.1489
 3394SOL    HW211003   6.509   5.419   2.245  0.3459  1.2820  0.6512
 3395SOL     OW11004   3.707   5.027   6.834 -0.3020 -0.1972  0.6795
 3395SOL    HW111005   3.629   5.090   6.842  0.5817  1.3861 -1.9125
 3395SOL    HW211006   3.790   5.073   6.866  0.1487 -0.4681 -0.0711
 3396SOL     OW11007   0.712   0.333   4.481  0.7525  0.0141 -0.8151
 3396SOL    HW111008   0.809   0.308   4.471  0.6025 -0.5227 -0.9383
 3396SOL    HW211009   0.706   0.421   4.529  1.3003  0.0723 -0.8390
 3397SOL     OW11010   6.084   1.976   6.283 -0.1686  1.3043  0.1708
 3397SOL    HW111011   5.997   1.990   6.330  0.3625 -0.6632  1.8664
 3397SOL    HW211012   6.109   1.879   6.286  0.7799  1.3538 -2.7131
 3398SOL     OW11013   1.190   5.631   2.834  0.4264 -0.0804  0.3922
 3398SOL    HW111014   1.193   5.718   2.885 -0.2819  0.0864  0.1760
 3398SOL    HW211015   1.282   5.608   2.803  0.7746  0.1252  1.2277
 3399SOL     OW11016   4.777   3.727   6.624 -0.5469 -0.5056 -0.2414
 3399SOL    HW111017   4.810   3.796   6.688  0.5225 -1.7910  0.6854
 3399SOL    HW211018   4.854   3.692   6.570 -1.0315 -1.0968 -0.5638
 3400SOL     OW11019   5.337   1.612   4.453 -0.0120  0.0843 -0.5799
 3400SOL    HW111020   5.286   1.617   4.539  2.0468 -1.5657  0.8251
 3400SOL    HW211021   5.375   1.702   4.432  0.4852  0.2357  0.8879
 3401SOL     OW11022   0.979   0.250   4.994 -0.2539  0.4117  0.2553
 3401SOL    HW111023   0.911   0.195   5.044 -0.5425  0.5334  0.0046
 3401SOL    HW211024   1.071   0.220   5.019 -0.4057 -0.3446 -0.0705
 3402SOL     OW11025   1.573   6.032   0.102  0.0165 -0.5733  0.0677
 3402SOL    HW111026   1.583   5.993   0.194 -1.5927 -0.9292  0.1141
 3402SOL    HW211027   1.511   6.110   0.105  0.0630 -0.4960 -0.6905
 3403SOL     OW11028   1.370   6.178   4.127 -0.2801 -0.6284 -0.1433
 3403SOL    HW111029   1.457   6.138   4.097  0.1992  0.1188  0.2195
 3403SOL    HW211030   1.308   6.186   4.049 -0.4148 -2.1472 -0.2033
 3404SOL     OW11031   1.534   5.382   0.506  0.7123 -0.2146  0.2302
 3404SOL    HW111032   1.610   5.418   0.452  0.4345  1.3015  0.8131
 3404SOL    HW211033   1.453   5.374   0.448  0.7786  0.0944  0.0972
 3405SOL     OW11034   3.369   6.434   2.038  0.0910  0.5015  0.1906
 3405SOL    HW111035   3.410   6.404   2.123 -1.8298 -0.1881  0.9211
 3405SOL    HW211036   3.335   6.528   2.048 -0.0552  0.4528  0.1516
 3406SOL     OW11037   3.913   4.822   1.471  0.0999  0.8090 -0.5649
 3406SOL    HW111038   3.889   4.918   1.484 -2.5993  0.0691  0.3525
 3406SOL    HW211039   3.933   4.781   1.560  2.0069  0.6490 -1.0278
 3407SOL     OW11040   2.661   5.528   0.468  0.0157 -0.0764  0.1644
 3407SOL    HW111041   2.751   5.511   0.507  0.2108 -1.6217 -0.8745
 3407SOL    HW211042   2.660   5.501   0.372 -1.5789 -0.2090  0.1873
 3408SOL     OW11043   2.103   0.218   0.860 -0.6024  0.1257 -0.3766
 3408SOL    HW111044   2.079   0.269   0.942  2.2229 -0.9096  1.2215
 3408SOL    HW211045   2.130   0.282   0.788  1.2017  1.0141  1.0091
 3409SOL     OW11046   3.868   6.281   3.339 -0.3523  0.1400 -0.8359
 3409SOL    HW111047   3.884   6.311   3.244 -2.8031 -1.6525 -1.9200
 3409SOL    HW211048   3.895   6.354   3.402  0.3237  1.8284 -2.9580
 3410SOL     OW11049   5.113   6.446   0.785  0.1621  0.2331 -0.0709
 3410SOL    HW111050   5.116   6.351   0.754  0.0313  0.1766  0.0921
 3410SOL    HW211051   5.026   6.487   0.759 -0.8675 -0.4338  2.0706
 3411SOL     OW11052   1.987   3.901   0.433 -0.5405  0.1682 -0.0513
 3411SOL    HW111053   1.937   3.880   0.349 -0.1368 -0.9378 -0.0266
 3411SOL    HW211054   2.085   3.884   0.419 -0.6053 -1.2091  0.9999
 3412SOL     OW11055   4.273   5.945   5.819 -0.2263  0.1785  0.3534
 3412SOL    HW111056   4.254   6.004   5.741  2.0605  0.1505 -0.3140
 3412SOL    HW211057   4.288   5.852   5.787  2.2239  0.4415  0.5756
 3413SOL     OW11058   3.599   5.765   2.988  0.5240 -0.4207  0.6532
 3413SOL    HW111059   3.620   5.863   2.989 -0.8302 -0.1217  0.8445
 3413SOL    HW211060   3.586   5.735   2.893 -0.7156 -0.0277  0.6782
 3414SOL     OW11061   3.610   4.490   3.026 -0.6730  0.0302  0.3670
 3414SOL    HW111062   3.658   4.577   3.031  0.8016 -0.7598  0.5687
 3414SOL    HW211063   3.551   4.488   2.945  1.1927  0.2908 -1.0508
 3415SOL     OW11064   4.450   0.633   3.433 -0.0105 -0.2614 -0.2269
 3415SOL    HW111065   4.393   0.569   3.485  0.5811 -0.5470  0.0705
 3415SOL    HW211066   4.545   0.623   3.460  0.7891 -2.4119 -3.3100
 3416SOL     OW11067   1.226   2.720   6.624 -0.6152 -0.2878 -0.4395
 3416SOL    HW111068   1.205   2.747   6.718  0.6366 -1.1346  0.0999
 3416SOL    HW211069   1.186   2.631   6.605  0.9673 -1.1265  0.0321
 3417SOL     OW11070   3.466   5.132   3.101  0.8751 -0.0801 -0.2174
 3417SOL    HW111071   3.446   5.078   3.183  0.4703 -0.8273 -0.7887
 3417SOL    HW211072   3.484   5.227   3.127  0.7208 -0.2958  0.7298
 3418SOL     OW11073   1.040   2.274   2.277  0.0087 -0.0234  0.1102
 3418SOL    HW111074   1.041   2.373   2.282 -1.7642  0.0793 -0.8311
 3418SOL    HW211075   1.052   2.235   2.368 -0.0164  1.0714  0.5874
 3419SOL     OW11076   3.285   0.402   0.188  0.5202  0.0405 -0.4323
 3419SOL    HW111077   3.332   0.317   0.208  1.3604  0.4785 -0.5100
 3419SOL    HW211078   3.187   0.384   0.173  0.5809 -0.8118  0.1582
 3420SOL     OW11079   2.508   6.093   3.555 -0.2362  0.5002  0.1973
 3420SOL    HW111080   2.556   6.058   3.636 -0.8064  0.2338  0.4212
 3420SOL    HW211081   2.573   6.142   3.497  0.0131  1.4493  1.2403
 3421SOL     OW11082   6.274   5.446   1.631 -0.5449  0.3135  0.0294
 3421SOL    HW111083   6.319   5.518   1.683  0.6678  0.4623 -1.1800
 3421SOL    HW211084   6.271   5.470   1.534  2.6871 -2.5019 -0.9528
 3422SOL     OW11085   4.324   5.686   5.736 -0.7580 -0.0512 -0.7181
 3422SOL    HW111086   4.250   5.619   5.732 -0.3570 -0.5611  0.1796
 3422SOL    HW211087   4.412   5.639   5.726 -0.3991  0.1614  1.1741
 3423SOL     OW11088   5.258   1.291   0.316 -0.3750  0.0575 -0.2844
 3423SOL    HW111089   5.160   1.277   0.302 -0.6899 -0.6805  2.2459
 3423SOL    HW211090   5.303   1.203   0.329  0.4702  0.4546 -0.4675
 3424SOL     OW11091   2.079   4.976   0.963 -0.0145  0.3426  0.0992
 3424SOL    HW111092   2.009   4.931   0.908  0.9712 -0.3518 -0.6253
 3424SOL    HW211093   2.166   4.975   0.913  1.0498 -0.7433  1.8510
 3425SOL     OW11094   5.756   1.068   0.594 -0.0292  0.1699 -0.0811
 3425SOL    HW111095   5.816   1.023   0.660  2.0810  0.4766 -1.6642
 3425SOL    HW211096   5.728   1.157   0.629  1.1780  0.3978  0.3383
 3426SOL     OW11097   4.318   4.120   3.686  0.3694  0.5617 -0.0858
 3426SOL    HW111098   4.405   4.122   3.638  0.6993  3.6496  0.4427
 3426SOL    HW211099   4.244   4.102   3.622  1.2826 -1.2508 -0.6825
 3427SOL     OW11100   0.904   4.967   1.406 -0.4947  0.3497 -0.7834
 3427SOL    HW111101   0.856   4.966   1.319 -3.2337 -2.3931  0.5096
 3427SOL    HW211102   0.917   5.062   1.436 -2.0948  1.3085 -2.8285
 3428SOL     OW11103   2.988   2.528   5.854  0.2769  0.0944  0.3581
 3428SOL    HW111104   2.921   2.575   5.796  0.5779 -1.5452 -1.3902
 3428SOL    HW211105   2.944   2.501   5.940 -0.6701  0.9770  0.1784
 3429SOL     OW11106   3.630   5.682   0.604  0.2413  0.3113 -0.1489
 3429SOL    HW111107   3.649   5.780   0.612 -0.3589  0.3746  0.5638
 3429SOL    HW211108   3.715   5.634   0.580  1.8775  0.3859  4.6131
 3430SOL     OW11109   4.832   1.115   0.766 -0.7187 -0.1491  0.2731
 3430SOL    HW111110   4.835   1.190   0.832 -0.0309  0.5405 -0.5098
 3430SOL    HW211111   4.743   1.115   0.720 -1.1146 -0.4925  1.0165
 3431SOL     OW11112   2.491   1.077   0.755 -0.2073 -0.1470 -0.0630
 3431SOL    HW111113   2.491   1.106   0.659  1.1829  3.1227  0.7922
 3431SOL    HW211114   2.557   1.003   0.767 -1.5242 -1.7252 -1.8073
 3432SOL     OW11115   5.433   0.029   5.813 -0.1328 -0.5342  0.1339
 3432SOL    HW111116   5.407  -0.052   5.759 -1.4334 -0.3728  0.5057
 3432SOL    HW211117   5.489   0.000   5.891  0.6636 -0.8601 -0.5483
 3433SOL     OW11118   1.292   2.580   5.588 -0.6242 -0.3363  0.1305
 3433SOL    HW111119   1.338   2.511   5.532 -0.0957 -1.2155  1.5978
 3433SOL    HW211120   1.297   2.553   5.684 -1.3606  1.2240  0.6291
 3434SOL     OW11121   1.962   5.701   4.759  0.2962  0.0327  0.1177
 3434SOL    HW111122   1.999   5.789   4.790  0.6392  0.2958 -1.0151
 3434SOL    HW211123   1.912   5.714   4.673  2.0734 -1.2052 -1.1687
 3435SOL     OW11124   5.020   3.441   3.861  0.3069 -0.2282 -0.2386
 3435SOL    HW111125   4.990   3.536   3.865  0.4429 -0.2355  1.4872
 3435SOL    HW211126   4.947   3.384   3.822 -0.0513  0.4763 -0.5955
 3436SOL     OW11127   5.490   6.928   0.457  0.5172 -0.8216  0.3349
 3436SOL    HW111128   5.569   6.989   0.451  0.3969 -0.6855  0.0932
 3436SOL    HW211129   5.440   6.945   0.542 -0.8790  1.0865 -0.7867
 3437SOL     OW11130   5.982   2.473   5.197  0.4730 -0.1839  0.2661
 3437SOL    HW111131   5.899   2.522   5.172  1.5047  2.1316  1.2045
 3437SOL    HW211132   6.044   2.468   5.118 -0.2057 -1.2363 -0.2171
 3438SOL     OW11133   5.889   6.301   4.298 -0.0197  0.0002 -0.0466
 3438SOL    HW111134   5.797   6.309   4.259 -0.6396 -0.2182  1.3128
 3438SOL    HW211135   5.952   6.361   4.249 -0.7954 -0.1379 -1.2540
 3439SOL     OW11136   4.697   3.765   0.764  0.0053 -0.4503  0.1740
 3439SOL    HW111137   4.667   3.689   0.822 -1.6601  0.4721  0.5828
 3439SOL    HW211138   4.684   3.740   0.668  1.2795 -1.3837  0.2213
 3440SOL     OW11139   0.470   3.686   1.739 -0.0818 -0.2636 -0.8555
 3440SOL    HW111140   0.421   3.621   1.682 -0.7081  0.6238 -1.3356
 3440SOL    HW211141   0.566   3.657   1.748 -0.4031 -1.3631 -0.8705
 3441SOL     OW11142   2.136   6.406   2.189  0.0987 -0.6951  0.5087
 3441SOL    HW111143   2.059   6.348   2.219  0.7049 -1.3079  0.9226
 3441SOL    HW211144   2.178   6.449   2.269 -0.4011  0.4139  0.1930
 3442SOL     OW11145   0.156   3.088   5.719 -0.1726 -0.7759  0.1414
 3442SOL    HW111146   0.184   3.123   5.808  0.4036  1.1688 -0.7560
 3442SOL    HW211147   0.160   3.161   5.651 -1.8113 -1.8932 -1.2540
 3443SOL     OW11148   1.558   3.709   3.484  0.4531  0.2069  0.2185
 3443SOL    HW111149   1.531   3.614   3.470 -1.9370  0.4426  2.5118
 3443SOL    HW211150   1.488   3.770   3.446  0.3686  0.9531  1.4901
 3444SOL     OW11151   2.412   2.162   4.829 -0.1918  0.7379  0.0846
 3444SOL    HW111152   2.509   2.168   4.808  0.2005  0.9492  1.8078
 3444SOL    HW211153   2.368   2.098   4.766  1.3355 -0.4265  0.1276
 3445SOL     OW11154   1.390   4.581   5.157 -0.1929 -0.4175  0.1664
 3445SOL    HW111155   1.370   4.603   5.061 -0.3775 -0.0608  0.2826
 3445SOL    HW211156   1.402   4.482   5.167 -2.1757 -0.6939  0.1217
 3446SOL     OW11157   2.405   0.637   4.089 -0.4090 -0.6850  0.0357
 3446SOL    HW111158   2.355   0.721   4.108 -0.3729 -0.4257 -0.9781
 3446SOL    HW211159   2.498   0.645   4.125 -0.9735 -1.0596  1.6750
 3447SOL     OW11160   2.463   0.921   6.406  0.4965 -0.1121  0.7701
 3447SOL    HW111161   2.400   0.935   6.330  1.9898  0.8841 -0.3284
 3447SOL    HW211162   2.438   0.981   6.482  0.3213  0.4965  0.2329
 3448SOL     OW11163   6.532   5.503   6.847 -0.3879 -0.1580  0.1308
 3448SOL    HW111164   6.546   5.441   6.769  0.9817 -1.1047  1.0938
 3448SOL    HW211165   6.510   5.594   6.812 -0.4464 -0.7052 -1.3598
 3449SOL     OW11166   1.748   1.891   2.366 -0.8140 -0.4698  0.4515
 3449SOL    HW111167   1.699   1.833   2.300  0.6814  0.1320 -1.2424
 3449SOL    HW211168   1.682   1.949   2.414 -2.0425 -1.5963  0.2069
 3450SOL     OW11169   3.680   2.874   0.249  0.0461 -0.0853 -0.1876
 3450SOL    HW111170   3.588   2.847   0.222  0.4754 -0.0317 -1.8887
 3450SOL    HW211171   3.714   2.814   0.321 -1.6569  0.5098  1.1739
 3451SOL     OW11172   0.260   0.672   0.552  0.4157  0.3711 -0.6075
 3451SOL    HW111173   0.217   0.670   0.462 -0.8751  1.4431 -0.0376
 3451SOL    HW211174   0.219   0.743   0.608 -0.2200 -1.5535  1.5284
 3452SOL     OW11175   4.624   6.694   3.279 -0.1222  0.2864  0.2973
 3452SOL    HW111176   4.550   6.628   3.291 -1.3711  1.2333 -1.6092
 3452SOL    HW211177   4.590   6.773   3.228  1.5534  2.0321  1.7187
 3453SOL     OW11178   0.276   5.382   5.780  0.2300 -0.0620  0.0707
 3453SOL    HW111179   0.334   5.455   5.818  0.6206 -1.5112  2.4994
 3453SOL    HW211180   0.182   5.395   5.814  0.1619 -0.2972 -0.0295
 3454SOL     OW11181   5.737   5.080   4.219 -0.2085 -0.2053 -0.3047
 3454SOL    HW111182   5.810   5.130   4.173 -0.8167  0.4061 -0.6261
 3454SOL    HW211183   5.651   5.093   4.170 -0.5186 -1.0376 -0.0252
 3455SOL     OW11184   6.188   2.079   4.668  0.4111 -0.5906  0.2557
 3455SOL    HW111185   6.275   2.052   4.626  0.0424 -1.1676 -0.1676
 3455SOL    HW211186   6.180   2.036   4.758  0.1514 -1.3109 -0.1053
 3456SOL     OW11187   1.286   3.274   6.931  0.0189  0.2012 -0.8672
 3456SOL    HW111188   1.327   3.226   6.853 -0.4081  0.4902 -1.2804
 3456SOL    HW211189   1.348   3.345   6.963  0.3771 -0.1940 -0.7014
 3457SOL     OW11190   6.905   2.009   4.597 -0.1508  0.1997  0.5310
 3457SOL    HW111191   6.931   1.979   4.689  3.0487 -1.9534 -0.9346
 3457SOL    HW211192   6.823   1.959   4.568 -1.3530  1.0874  2.2368
 3458SOL     OW11193   6.951   6.639   3.230 -0.1028 -0.1458 -0.5316
 3458SOL    HW111194   6.943   6.541   3.210 -0.1559 -0.1014 -0.7372
 3458SOL    HW211195   6.864   6.672   3.268  0.0372 -0.2582 -0.1025
 3459SOL     OW11196   5.518   5.408   4.076 -0.0062  0.5711 -0.1373
 3459SOL    HW111197   5.549   5.503   4.076 -1.5103  1.1093  0.6252
 3459SOL    HW211198   5.548   5.362   3.993  0.4112  1.8312 -0.7049
 3460SOL     OW11199   4.346   4.253   5.069  0.6632 -0.0935 -0.1537
 3460SOL    HW111200   4.432   4.288   5.031  1.5617  2.0409  3.3509
 3460SOL    HW211201   4.364   4.172   5.124  0.6249  0.8248  1.2521
 3461SOL     OW11202   2.600   1.907   6.344 -0.0194 -0.2637 -0.5064
 3461SOL    HW111203   2.558   1.963   6.272  0.5923  0.4107 -0.3513
 3461SOL    HW211204   2.610   1.962   6.427 -0.3827 -0.9283 -0.0109
 3462SOL     OW11205   0.315   0.042   4.453 -0.7817 -0.0487  0.4832
 3462SOL    HW111206   0.252   0.120   4.457 -1.7048 -0.7089 -0.5572
 3462SOL    HW211207   0.392   0.065   4.393 -1.1169  0.0362  0.0753
 3463SOL     OW11208   1.182   5.746   0.648 -0.1197 -0.4233 -0.0304
 3463SOL    HW111209   1.120   5.799   0.590 -1.0953 -1.8455 -0.3637
 3463SOL    HW211210   1.259   5.714   0.594  0.3302  0.4299  0.1065
 3464SOL     OW11211   4.284   2.738   3.467 -0.1620  0.2736  0.5674
 3464SOL    HW111212   4.271   2.831   3.431  4.1889  0.3258 -1.5366
 3464SOL    HW211213   4.235   2.673   3.410 -0.5819  1.0346  0.0317
 3465SOL     OW11214   6.621   3.417   3.513 -0.0717 -0.4234 -0.6959
 3465SOL    HW111215   6.582   3.507   3.493 -0.3390 -0.6141 -1.0626
 3465SOL    HW211216   6.584   3.350   3.448 -1.2997 -1.1703  0.7159
 3466SOL     OW11217   6.887   2.904   5.137  0.4395 -0.1601  0.2320
 3466SOL    HW111218   6.843   2.822   5.100 -0.2350 -0.3890  1.5179
 3466SOL    HW211219   6.832   2.984   5.116 -0.6262 -0.4339  1.7950
 3467SOL     OW11220   0.684   0.278   0.263  0.4138  0.0947  0.3058
 3467SOL    HW111221   0.700   0.345   0.191 -0.1505  0.0349  0.1220
 3467SOL    HW211222   0.771   0.253   0.305  0.6457  0.7808  0.2352
 3468SOL     OW11223   5.448   2.677   5.485  0.0385  0.0772  0.0535
 3468SOL    HW111224   5.359   2.674   5.441  0.5325 -3.2493 -0.9940
 3468SOL    HW211225   5.438   2.653   5.582 -0.3290  0.8830  0.2172
 3469SOL     OW11226   2.199   4.102   4.762 -0.6981  0.1644  0.0291
 3469SOL    HW111227   2.186   4.096   4.663 -1.4295 -0.8416  0.1746
 3469SOL    HW211228   2.223   4.012   4.798 -1.2768  0.3420  0.8752
 3470SOL     OW11229   6.791   4.039   3.609  0.2442  0.6529 -0.1401
 3470SOL    HW111230   6.856   3.968   3.633 -0.9497 -0.7094 -0.7955
 3470SOL    HW211231   6.819   4.126   3.651  1.1049 -0.4314  1.6532
 3471SOL     OW11232   2.356   5.999   4.887  0.7374  0.0721 -0.5391
 3471SOL    HW111233   2.394   6.061   4.819  0.4408 -0.2253 -0.9761
 3471SOL    HW211234   2.406   6.009   4.973 -0.1720  1.9023 -0.1950
 3472SOL     OW11235   3.377   2.726   5.832  0.7148  0.0914 -0.2367
 3472SOL    HW111236   3.434   2.800   5.797  0.7821  0.3804  0.4699
 3472SOL    HW211237   3.425   2.639   5.823  0.2872  0.0009 -1.8858
 3473SOL     OW11238   3.902   1.137   3.886  0.2099  0.6351  0.5211
 3473SOL    HW111239   3.940   1.175   3.971 -1.0235 -0.2008  1.4754
 3473SOL    HW211240   3.974   1.134   3.817  2.0322 -1.1622  2.3301
 3474SOL     OW11241   2.830   1.997   5.191  0.4734 -0.3490 -0.0824
 3474SOL    HW111242   2.816   1.952   5.102 -0.0712 -1.5818  0.6109
 3474SOL    HW211243   2.803   2.093   5.183 -0.1300 -0.5834 -1.0999
 3475SOL     OW11244   2.049   1.968   2.183  0.7865  0.8725 -0.4332
 3475SOL    HW111245   1.982   2.019   2.129  0.8042  0.5754 -0.7382
 3475SOL    HW211246   2.110   1.918   2.122  1.0533  0.8434 -0.1460
 3476SOL     OW11247   2.772   1.627   5.472 -0.2055 -0.3614  0.5884
 3476SOL    HW111248   2.694   1.662   5.420 -1.8817 -1.2616  2.3810
 3476SOL    HW211249   2.853   1.626   5.413 -0.8932  2.9307 -0.6386
 3477SOL     OW11250   4.961   3.865   6.464 -0.3970  0.6088  0.1068
 3477SOL    HW111251   4.868   3.901   6.473 -0.0192  1.1201  2.3660
 3477SOL    HW211252   5.023   3.917   6.522  0.9901 -0.8946  0.0444
 3478SOL     OW11253   5.077   2.233   2.613  0.5778 -0.5793  0.0109
 3478SOL    HW111254   5.176   2.238   2.627  0.5836  1.2404 -0.5602
 3478SOL    HW211255   5.057   2.236   2.515 -0.1225  1.5428  0.1787
 3479SOL     OW11256   2.426   0.052   5.156 -0.0688 -0.0545  0.2897
 3479SOL    HW111257   2.452   0.091   5.244  1.0580  2.9671 -1.2647
 3479SOL    HW211258   2.507   0.015   5.110 -0.6278 -1.5005  0.3647
 3480SOL     OW11259   1.332   0.409   4.892 -0.1984  0.3324 -0.4037
 3480SOL    HW111260   1.294   0.331   4.941 -0.3344  0.5886 -0.0879
 3480SOL    HW211261   1.331   0.391   4.793  0.1271 -0.2167 -0.3080
 3481SOL     OW11262   2.166   2.425   6.379  1.1720 -0.2503  0.1433
 3481SOL    HW111263   2.211   2.338   6.360  0.0994 -1.1114  1.3805
 3481SOL    HW211264   2.069   2.409   6.397  1.2314  0.9986  1.8715
 3482SOL     OW11265   0.576   6.475   0.121  0.0846  0.4324 -0.0113
 3482SOL    HW111266   0.531   6.408   0.179  0.9402  0.5744  0.8368
 3482SOL    HW211267   0.516   6.498   0.044 -0.7195 -0.3732  0.3565
 3483SOL     OW11268   0.936   0.010   2.812  0.0855  0.0816  0.2916
 3483SOL    HW111269   0.947  -0.032   2.722 -0.7479 -0.6598  0.5323
 3483SOL    HW211270   1.005  -0.028   2.874 -0.7708 -1.0710  0.5527
 3484SOL     OW11271   5.215   3.973   1.330 -0.0371 -0.0538  0.8078
 3484SOL    HW111272   5.282   3.959   1.257  0.3953  1.8337  0.8057
 3484SOL    HW211273   5.125   3.941   1.299  0.3573 -0.3396 -0.1063
 3485SOL     OW11274   4.282   3.077   1.782  0.5758 -0.0570 -0.5663
 3485SOL    HW111275   4.245   3.031   1.702 -0.4320 -0.6269  0.2014
 3485SOL    HW211276   4.325   3.164   1.754 -3.6176  2.0384 -1.2932
 3486SOL     OW11277   1.754   2.711   4.755 -0.0368  0.0488  0.5984
 3486SOL    HW111278   1.792   2.757   4.835  0.3307  1.2179 -0.2183
 3486SOL    HW211279   1.828   2.682   4.695 -0.3055  2.2629 -0.9595
 3487SOL     OW11280   5.279   4.297   3.567  0.1360 -0.2480 -0.5888
 3487SOL    HW111281   5.320   4.273   3.655  2.0183  1.3785 -0.9623
 3487SOL    HW211282   5.182   4.273   3.568  0.8587 -3.6335  0.6043
 3488SOL     OW11283   1.549   5.902   2.051 -0.1389 -0.0502 -0.0721
 3488SOL    HW111284   1.611   5.849   2.110 -0.2198 -1.0614 -0.8785
 3488SOL    HW211285   1.495   5.964   2.108 -1.4605 -2.2094  1.1665
 3489SOL     OW11286   2.847   1.929   6.874  0.6331  0.0394 -0.5277
 3489SOL    HW111287   2.793   1.934   6.958  1.6492  0.7783  0.1116
 3489SOL    HW211288   2.850   1.835   6.842 -0.3668 -0.1367 -0.1408
 3490SOL     OW11289   4.016   4.684   1.686 -0.1801 -0.1261  0.0056
 3490SOL    HW111290   4.071   4.601   1.686  1.6735  1.0581 -0.2500
 3490SOL    HW211291   4.073   4.763   1.710 -1.6728  1.2160 -0.6528
 3491SOL     OW11292   0.683   6.547   4.280  0.2829  0.1713 -0.3871
 3491SOL    HW111293   0.777   6.579   4.287  0.1741  0.5328 -0.5854
 3491SOL    HW211294   0.643   6.542   4.372  0.6368 -0.4217 -0.2558
 3492SOL     OW11295   1.412   2.182   5.258 -0.3279 -0.3749 -0.2704
 3492SOL    HW111296   1.341   2.214   5.195 -0.0128  0.4689 -0.2008
 3492SOL    HW211297   1.370   2.128   5.331 -0.5497 -2.6889 -2.0069
 3493SOL     OW11298   6.607   0.893   0.193 -0.0267 -0.1147 -0.5940
 3493SOL    HW111299   6.609   0.954   0.273  0.7477 -1.4589  0.4456
 3493SOL    HW211300   6.639   0.943   0.112  0.1735  0.9742  0.1381
 3494SOL     OW11301   6.664   5.659   3.223 -0.5675 -0.5914  0.2916
 3494SOL    HW111302   6.678   5.731   3.155  1.7485 -0.5457  0.7145
 3494SOL    HW211303   6.651   5.571   3.177 -1.2868 -0.2223 -0.2175
 3495SOL     OW11304   3.814   0.172   0.789 -0.3014  0.0700  0.2800
 3495SOL    HW111305   3.738   0.152   0.727 -1.2406 -1.3450  1.7892
 3495SOL    HW211306   3.899   0.137   0.751 -1.0410 -1.8590  0.2994
 3496SOL     OW11307   5.556   0.749   6.821  0.1214 -0.5287 -0.3061
 3496SOL    HW111308   5.554   0.788   6.913  0.1043 -0.8260 -0.1813
 3496SOL    HW211309   5.593   0.817   6.758 -0.0261 -0.2638 -0.1099
 3497SOL     OW11310   5.977   3.050   5.203  0.3009 -0.3311 -0.6732
 3497SOL    HW111311   5.935   3.138   5.224  1.9531  0.6828 -1.3462
 3497SOL    HW211312   5.975   2.991   5.283 -0.3024  0.5421 -0.0271
 3498SOL     OW11313   6.227   1.815   2.237 -0.1368 -0.0575  0.1118
 3498SOL    HW111314   6.299   1.802   2.168 -0.5158 -2.1361  0.0321
 3498SOL    HW211315   6.264   1.792   2.328  0.0724  1.6766  0.4996
 3499SOL     OW11316   5.301   3.079   2.959  0.6661  0.1932  0.0096
 3499SOL    HW111317   5.341   3.054   2.871  0.5319  1.0279 -0.2932
 3499SOL    HW211318   5.359   3.145   3.005  0.9398 -0.5349  0.7321
 3500SOL     OW11319   6.682   5.344   1.631  0.6443  0.2999  0.3758
 3500SOL    HW111320   6.625   5.272   1.672  0.2185 -0.3706 -1.3291
 3500SOL    HW211321   6.647   5.433   1.660 -0.2282 -0.1350  0.7220
 3501SOL     OW11322   3.535   0.247   4.768 -0.2548  0.2615 -0.2981
 3501SOL    HW111323   3.509   0.230   4.674 -0.8673  0.5777 -0.1942
 3501SOL    HW211324   3.455   0.240   4.828 -0.0045  0.6882  0.1046
 3502SOL     OW11325   5.679   5.935   2.214 -0.7937  0.0020  0.2335
 3502SOL    HW111326   5.587   5.951   2.178 -1.6881 -0.9307  1.9835
 3502SOL    HW211327   5.675   5.928   2.314  0.9596 -1.4509  0.2544
 3503SOL     OW11328   5.124   2.248   6.908  0.2645  0.1955 -0.1299
 3503SOL    HW111329   5.213   2.290   6.888  2.9303 -4.2327  1.2349
 3503SOL    HW211330   5.093   2.196   6.828  0.1046 -0.2540  0.2234
 3504SOL     OW11331   4.818   0.330   4.423  0.6940 -0.1645  0.1941
 3504SOL    HW111332   4.722   0.315   4.399  1.1521 -0.7872 -1.3363
 3504SOL    HW211333   4.838   0.283   4.509 -0.4691  0.3470  0.7677
 3505SOL     OW11334   4.389   5.355   2.283  0.4608  0.2578 -0.0302
 3505SOL    HW111335   4.462   5.318   2.341  1.0733  0.6602 -0.5250
 3505SOL    HW211336   4.302   5.348   2.331  1.0124  1.0129  1.1514
 3506SOL     OW11337   0.152   2.547   2.955  0.4357 -0.3743 -0.1036
 3506SOL    HW111338   0.108   2.610   2.891  1.6814 -0.1739 -0.7904
 3506SOL    HW211339   0.084   2.511   3.018 -0.1667  2.5298  1.0535
 3507SOL     OW11340   1.310   5.854   3.351 -0.2670 -0.1163  0.0102
 3507SOL    HW111341   1.359   5.900   3.277 -0.1095  0.7229  0.6184
 3507SOL    HW211342   1.211   5.864   3.338 -0.2771  2.7772  1.5061
 3508SOL     OW11343   5.000   6.101   3.721  0.6081  0.4892  0.7481
 3508SOL    HW111344   5.004   6.024   3.657 -0.2816  0.4107  0.7732
 3508SOL    HW211345   5.041   6.182   3.678 -0.3097  0.5366 -0.0976
 3509SOL     OW11346   3.468   1.695   0.353 -0.1579  0.1999  0.3860
 3509SOL    HW111347   3.540   1.631   0.328  0.4997  0.6704  1.0226
 3509SOL    HW211348   3.380   1.648   0.356  0.3143 -0.6663  0.8456
 3510SOL     OW11349   4.346   6.584   6.052 -0.3143  0.6281 -0.0940
 3510SOL    HW111350   4.406   6.656   6.088 -1.2555  1.7026 -0.6224
 3510SOL    HW211351   4.348   6.587   5.952 -0.6897  0.1924 -0.1148
 3511SOL     OW11352   3.884   0.278   0.279 -0.0712 -0.3762 -0.1620
 3511SOL    HW111353   3.916   0.371   0.264  0.0387 -0.6088 -1.4316
 3511SOL    HW211354   3.785   0.278   0.290 -0.1359 -0.1710 -0.7251
 3512SOL     OW11355   1.600   5.269   4.892 -0.4390  0.0097 -0.5740
 3512SOL    HW111356   1.691   5.230   4.878 -1.0649 -2.0942  0.7177
 3512SOL    HW211357   1.595   5.359   4.849  1.9723 -0.1715 -1.3706
 3513SOL     OW11358   5.117   0.013   3.186 -0.1668 -0.0476 -0.8206
 3513SOL    HW111359   5.073   0.004   3.275  0.0774  1.1797 -0.5614
 3513SOL    HW211360   5.062  -0.033   3.116 -0.5421 -0.7037 -0.0928
 3514SOL     OW11361   4.263   4.841   0.589 -0.7243 -0.2912  0.2345
 3514SOL    HW111362   4.243   4.847   0.687 -0.0720  1.3792  0.3144
 3514SOL    HW211363   4.278   4.933   0.554 -1.4702 -0.8165 -1.5643
 3515SOL     OW11364   0.807   5.517   3.689 -0.1345  0.0329  0.3755
 3515SOL    HW111365   0.824   5.600   3.635 -0.1188 -0.1164  0.1484
 3515SOL    HW211366   0.847   5.528   3.780 -1.6657  0.9716  0.9612
 3516SOL     OW11367   2.473   2.441   3.369 -0.0371  0.0540 -0.0738
 3516SOL    HW111368   2.420   2.519   3.335 -2.0264 -0.9048  0.6236
 3516SOL    HW211369   2.469   2.440   3.469  3.0604  1.0590  0.1751
 3517SOL     OW11370   3.645   3.584   2.284 -0.1669 -0.3191  0.5686
 3517SOL    HW111371   3.726   3.526   2.293  0.4362  0.6658  1.8339
 3517SOL    HW211372   3.607   3.602   2.375 -0.6941  0.7600  0.1501
 3518SOL     OW11373   0.431   2.446   1.952 -0.7778  0.0174  0.3451
 3518SOL    HW111374   0.471   2.531   1.986 -4.1780  2.3885 -0.9409
 3518SOL    HW211375   0.393   2.394   2.028  0.9485 -0.1962  1.1029
 3519SOL     OW11376   1.030   4.630   4.849 -0.1233  0.2633 -0.2565
 3519SOL    HW111377   0.941   4.657   4.885  0.2752 -0.2436  1.1591
 3519SOL    HW211378   1.022   4.540   4.806 -0.4812  0.6252 -0.9749
 3520SOL     OW11379   5.649   3.295   1.678  0.1579  0.1388  0.6563
 3520SOL    HW111380   5.616   3.364   1.742 -0.7150  0.2419  0.1107
 3520SOL    HW211381   5.590   3.215   1.682 -0.8141  0.7312 -1.0896
 3521SOL     OW11382   2.064   4.218   6.331  0.2673  0.3831 -0.4740
 3521SOL    HW111383   2.116   4.295   6.369 -0.3518  0.7114 -0.2752
 3521SOL    HW211384   1.978   4.208   6.381  0.1581 -0.1829 -0.7666
 3522SOL     OW11385   6.695   0.331   0.104  0.2170 -0.0093  0.6363
 3522SOL    HW111386   6.699   0.231   0.099  1.3404  0.0707 -1.0567
 3522SOL    HW211387   6.603   0.361   0.083 -0.3678 -0.7015  2.0718
 3523SOL     OW11388   4.558   0.340   5.594  0.0809 -0.6827 -0.0809
 3523SOL    HW111389   4.488   0.337   5.523 -0.3129 -1.3537  0.3278
 3523SOL    HW211390   4.516   0.324   5.683  0.2359  1.9755  0.5749
 3524SOL     OW11391   2.359   0.244   1.010  0.3362 -0.1690 -0.3722
 3524SOL    HW111392   2.389   0.327   1.057  2.3387  1.3949 -3.9832
 3524SOL    HW211393   2.269   0.258   0.969 -0.1780 -0.5204  0.6164
 3525SOL     OW11394   6.697   6.224   6.807 -0.3162 -0.2405  0.1221
 3525SOL    HW111395   6.720   6.296   6.873 -0.0630  0.7613 -1.0066
 3525SOL    HW211396   6.638   6.156   6.851 -1.0885  0.9857  1.0783
 3526SOL     OW11397   0.231   4.623   6.947  0.1315  0.3077 -0.2729
 3526SOL    HW111398   0.308   4.686   6.937  0.7117 -0.6698 -2.6309
 3526SOL    HW211399   0.265   4.533   6.973 -0.3788  0.2172  0.0931
 3527SOL     OW11400   6.756   5.991   3.692  0.2445  0.2695 -0.0481
 3527SOL    HW111401   6.715   5.979   3.602  0.4951  1.5852 -0.3456
 3527SOL    HW211402   6.786   5.902   3.727 -0.5271 -0.3500 -0.9283
 3528SOL     OW11403   2.182   1.414   4.179  0.9881 -0.0006 -0.2593
 3528SOL    HW111404   2.094   1.434   4.223 -0.4349 -1.4577 -2.2430
 3528SOL    HW211405   2.191   1.468   4.096  2.4908  0.9016  0.4557
 3529SOL     OW11406   2.418   6.322   6.401  0.5088  0.5007 -0.6068
 3529SOL    HW111407   2.352   6.383   6.357 -2.6816 -2.9139 -0.9847
 3529SOL    HW211408   2.486   6.293   6.333 -1.0051 -0.3036 -1.8407
 3530SOL     OW11409   0.228   1.431   2.055  0.3484  0.0811  0.0283
 3530SOL    HW111410   0.317   1.465   2.087  0.5922 -0.2709 -0.2711
 3530SOL    HW211411   0.216   1.337   2.086 -0.5889  0.6242  1.4185
 3531SOL     OW11412   6.180   2.002   0.523 -0.2711  0.3667  0.1551
 3531SOL    HW111413   6.159   2.001   0.425  1.2698 -1.1320 -0.2160
 3531SOL    HW211414   6.140   1.922   0.567 -0.0517  0.4442  0.5052
 3532SOL     OW11415   1.065   6.948   5.135  0.2605  0.0311  0.1539
 3532SOL    HW111416   1.133   6.875   5.125 -0.3944 -0.4664 -0.8681
 3532SOL    HW211417   1.111   7.034   5.156  1.1858 -0.3925 -0.1993
 3533SOL     OW11418   2.778   1.588   5.109  0.1927  0.3183 -0.1266
 3533SOL    HW111419   2.708   1.650   5.145  1.1054  0.3453  1.6706
 3533SOL    HW211420   2.807   1.621   5.019 -1.2707  0.9615 -0.3894
 3534SOL     OW11421   3.270   4.653   5.539 -0.1340  0.2081  0.3350
 3534SOL    HW111422   3.174   4.638   5.515  0.0170  0.3228 -0.3765
 3534SOL    HW211423   3.280   4.658   5.638 -0.7431 -0.6007  0.4402
 3535SOL     OW11424   4.331   6.831   4.964 -0.1114  0.2674 -0.6456
 3535SOL    HW111425   4.289   6.912   4.924 -0.8661  0.1800 -0.0472
 3535SOL    HW211426   4.430   6.846   4.972  0.0644  0.3000 -2.4757
 3536SOL     OW11427   6.254   3.344   4.294  0.0960  0.0776 -0.0555
 3536SOL    HW111428   6.301   3.256   4.287 -0.1085 -0.4777  3.8472
 3536SOL    HW211429   6.322   3.417   4.304  0.2302 -0.1288  0.6071
 3537SOL     OW11430   5.122   1.925   3.441 -0.3005 -0.5335 -0.0069
 3537SOL    HW111431   5.148   1.950   3.348 -1.8076 -0.0274 -0.3178
 3537SOL    HW211432   5.028   1.956   3.459 -1.6049 -4.1962  0.2623
 3538SOL     OW11433   5.559   3.749   0.199  0.0767 -0.3788 -0.0304
 3538SOL    HW111434   5.465   3.719   0.214  0.2109 -2.1176 -2.1678
 3538SOL    HW211435   5.601   3.775   0.286 -1.9441 -0.8309  1.1232
 3539SOL     OW11436   5.383   1.311   2.858  0.2002 -0.1275  0.4191
 3539SOL    HW111437   5.435   1.259   2.926  0.0060  0.4270  1.0067
 3539SOL    HW211438   5.384   1.408   2.883 -2.4426 -0.2760  1.3631
 3540SOL     OW11439   0.339   3.078   6.728 -0.5492 -0.1463 -0.1119
 3540SOL    HW111440   0.262   3.141   6.720 -0.3477  0.0896 -0.1981
 3540SOL    HW211441   0.398   3.107   6.803 -1.2616 -1.0936  0.8447
 3541SOL     OW11442   4.717   6.528   0.863  0.0035  0.4261  0.2012
 3541SOL    HW111443   4.762   6.439   0.865  0.8970  0.8711  0.8411
 3541SOL    HW211444   4.721   6.570   0.954 -0.6543  0.9975 -0.0192
 3542SOL     OW11445   3.490   1.798   5.411  0.0511 -0.0721 -0.2040
 3542SOL    HW111446   3.523   1.787   5.318  1.7791  1.4473  0.1834
 3542SOL    HW211447   3.408   1.856   5.412  0.1947  0.1417 -0.7340
 3543SOL     OW11448   2.104   3.491   5.181  0.3937  0.4983  0.1641
 3543SOL    HW111449   2.123   3.536   5.094  3.0205 -0.6052  0.0525
 3543SOL    HW211450   2.122   3.555   5.256  0.6606  0.6996 -0.0663
 3544SOL     OW11451   4.712   2.980   0.661 -0.3133 -0.6037  0.5958
 3544SOL    HW111452   4.699   2.989   0.562  0.9221 -0.5257  0.4206
 3544SOL    HW211453   4.632   3.014   0.709  0.1597  2.0069 -0.3157
 3545SOL     OW11454   3.772   0.439   1.680 -0.3721 -0.4230  0.6155
 3545SOL    HW111455   3.872   0.446   1.680 -0.2710 -1.5433  1.8322
 3545SOL    HW211456   3.739   0.443   1.774 -1.3769 -1.3603  0.3145
 3546SOL     OW11457   3.184   2.508   0.075  0.1100  0.0073 -0.1770
 3546SOL    HW111458   3.187   2.432   0.009  1.2528  0.3832 -0.5810
 3546SOL    HW211459   3.199   2.594   0.027 -0.1888  0.3971  0.4203
 3547SOL     OW11460   6.136   2.521   2.619  0.4233 -0.4872  0.2831
 3547SOL    HW111461   6.181   2.610   2.621  0.4998 -0.5129 -0.2071
 3547SOL    HW211462   6.050   2.528   2.567  1.0085 -0.9606 -0.7775
 3548SOL     OW11463   7.006   1.892   1.289 -0.7542 -0.6843  0.6788
 3548SOL    HW111464   6.975   1.900   1.194  0.6162  0.4642  0.2909
 3548SOL    HW211465   7.032   1.983   1.323  4.1465 -1.6487  0.1857
 3549SOL     OW11466   6.645   5.130   0.017  0.6771  0.1199  0.3849
 3549SOL    HW111467   6.694   5.183   0.086 -0.2233  1.2606  0.1646
 3549SOL    HW211468   6.548   5.127   0.041  0.5132 -0.3020 -0.3414
 3550SOL     OW11469   5.195   0.121   5.329 -0.0632 -0.0451  0.1652
 3550SOL    HW111470   5.219   0.039   5.278 -0.4054  1.1226 -2.0024
 3550SOL    HW211471   5.278   0.172   5.352  0.0247  0.3467 -0.9304
 3551SOL     OW11472   6.545   6.472   6.324  0.3022  0.8187  0.2973
 3551SOL    HW111473   6.575   6.389   6.279 -2.9040  0.2286 -0.9943
 3551SOL    HW211474   6.552   6.461   6.423 -1.0776 -1.4501  0.1978
 3552SOL     OW11475   6.306   6.249   1.982  0.1788 -0.3173 -0.6554
 3552SOL    HW111476   6.368   6.174   1.958  1.2843  0.8263 -1.5475
 3552SOL    HW211477   6.220   6.239   1.931  0.4303 -0.8054 -0.9958
 3553SOL     OW11478   5.248   6.238   2.843 -0.0465  0.4285 -0.0137
 3553SOL    HW111479   5.289   6.323   2.811 -0.1001  0.3720 -0.2413
 3553SOL    HW211480   5.212   6.187   2.765 -0.4988  0.4496  0.1791
 3554SOL     OW11481   5.399   0.891   3.112  0.8674 -0.5015 -0.8933
 3554SOL    HW111482   5.396   0.860   3.206 -1.6887  1.0050 -0.3965
 3554SOL    HW211483   5.379   0.814   3.050  0.1059 -0.9906 -0.0521
 3555SOL     OW11484   0.769   3.354   5.589 -0.0437  0.5282  0.1863
 3555SOL    HW111485   0.678   3.324   5.615  0.7728 -1.6008  0.8113
 3555SOL    HW211486   0.788   3.325   5.495 -0.6850  2.6548 -0.6320
 3556SOL     OW11487   5.165   3.272   6.394 -0.4078  0.6018  0.8044
 3556SOL    HW111488   5.080   3.317   6.420 -1.5035  1.4890 -3.5405
 3556SOL    HW211489   5.146   3.178   6.365  0.7148 -0.3438  2.9400
 3557SOL     OW11490   0.575   6.626   6.486 -0.5253 -0.5802 -0.1116
 3557SOL    HW111491   0.665   6.632   6.441 -0.9041 -0.7444 -0.9092
 3557SOL    HW211492   0.544   6.718   6.510  0.8153 -0.6447  2.1624
 3558SOL     OW11493   4.307   0.791   6.412  0.3401  1.1229 -0.5648
 3558SOL    HW111494   4.374   0.769   6.341 -0.7173 -1.1790 -0.9217
 3558SOL    HW211495   4.352   0.794   6.501  1.3262  2.0226 -1.0770
 3559SOL     OW11496   5.575   3.459   1.408 -0.1019  0.5906  0.0820
 3559SOL    HW111497   5.500   3.397   1.433  0.5608 -0.8810 -1.3786
 3559SOL    HW211498   5.546   3.518   1.333  0.0430  0.4057 -0.1189
 3560SOL     OW11499   6.103   5.070   6.103  0.3352 -0.5860 -0.1146
 3560SOL    HW111500   6.184   5.076   6.044  0.6317  3.1201  0.3884
 3560SOL    HW211501   6.099   5.152   6.161 -3.0790 -1.2961  0.8406
 3561SOL     OW11502   6.749   4.651   1.550 -0.5269  0.2297 -0.4386
 3561SOL    HW111503   6.824   4.671   1.612  0.4287 -0.0230 -1.4735
 3561SOL    HW211504   6.662   4.660   1.598  0.0843  1.9016  0.4232
 3562SOL     OW11505   3.337   3.534   4.055  0.6920  0.0362  0.4069
 3562SOL    HW111506   3.290   3.556   4.140  1.0619 -0.8627  0.8737
 3562SOL    HW211507   3.272   3.532   3.980  0.2493  0.2565  0.7798
 3563SOL     OW11508   2.321   2.762   3.641 -0.0857 -0.1517 -0.1459
 3563SOL    HW111509   2.286   2.784   3.550 -0.2076  1.5001  0.2734
 3563SOL    HW211510   2.332   2.662   3.649 -2.4598 -0.5637 -1.0865
 3564SOL     OW11511   2.616   4.555   4.052 -0.1934 -0.0861  0.2088
 3564SOL    HW111512   2.633   4.595   3.962  2.3095  1.1611  1.1526
 3564SOL    HW211513   2.655   4.463   4.055  0.5195  0.2078  0.2685
 3565SOL     OW11514   3.725   1.385   2.122 -0.0391  0.4102  0.3060
 3565SOL    HW111515   3.782   1.457   2.162  0.1320  0.7441 -0.5123
 3565SOL    HW211516   3.631   1.418   2.114  0.3698  1.2356 -1.6888
 3566SOL     OW11517   1.867   3.768   6.127 -0.1806  0.2447 -0.2474
 3566SOL    HW111518   1.799   3.822   6.177  0.2320 -0.6163  1.3230
 3566SOL    HW211519   1.950   3.762   6.182  0.2164 -0.8946 -0.9565
 3567SOL     OW11520   3.815   6.461   4.960  0.4539 -0.3641  0.3612
 3567SOL    HW111521   3.727   6.493   4.923  0.8069 -0.9609 -1.0350
 3567SOL    HW211522   3.806   6.365   4.987  0.7401 -0.5051 -0.0356
 3568SOL     OW11523   1.070   6.759   1.007 -0.2159 -0.6751 -0.2193
 3568SOL    HW111524   1.028   6.736   1.094 -1.6816  0.1384 -0.6738
 3568SOL    HW211525   0.998   6.783   0.941  0.9851  2.9522 -0.4196
 3569SOL     OW11526   4.891   5.081   1.367 -0.3978  0.0145 -0.3245
 3569SOL    HW111527   4.881   5.003   1.305  0.7166 -0.2239 -0.2315
 3569SOL    HW211528   4.988   5.103   1.377 -0.5349 -0.0535  1.4482
 3570SOL     OW11529   5.578   1.922   1.367 -0.3187  0.2537 -0.5331
 3570SOL    HW111530   5.617   2.014   1.362 -1.3336  0.9723  2.5526
 3570SOL    HW211531   5.622   1.871   1.441 -3.1135  0.1102  1.1691
 3571SOL     OW11532   4.293   6.834   5.425  0.1278 -0.3894  0.3006
 3571SOL    HW111533   4.348   6.879   5.495  0.1545 -1.0787  0.7315
 3571SOL    HW211534   4.257   6.903   5.362 -1.3976  0.4807  2.0170
 3572SOL     OW11535   0.322   3.889   0.593 -0.3126  0.1113  0.2423
 3572SOL    HW111536   0.361   3.891   0.501 -2.7658 -1.6069 -0.9664
 3572SOL    HW211537   0.382   3.836   0.653  0.4632 -0.3013 -0.8471
 3573SOL     OW11538   0.901   3.016   0.439 -0.0119 -0.2082 -0.1119
 3573SOL    HW111539   0.932   3.029   0.345 -0.7889  1.6101 -0.1716
 3573SOL    HW211540   0.959   2.948   0.484  0.3282 -1.1693 -1.8991
 3574SOL     OW11541   0.896   2.938   2.488  0.2716  0.7024 -0.8949
 3574SOL    HW111542   0.847   2.878   2.425  0.1924 -0.0755 -0.1085
 3574SOL    HW211543   0.955   2.999   2.436  1.8026 -1.3113 -1.6515
 3575SOL     OW11544   2.225   6.000   3.917 -0.6138 -0.2618  0.1612
 3575SOL    HW111545   2.179   6.003   4.005 -0.9804 -3.0293  0.1527
 3575SOL    HW211546   2.321   5.976   3.929 -0.5994 -0.3879 -0.1773
 3576SOL     OW11547   3.121   1.333   4.614  1.1181 -0.0867  0.4805
 3576SOL    HW111548   3.115   1.274   4.534 -0.1858  1.4030 -0.5816
 3576SOL    HW211549   3.090   1.425   4.590  0.9488  0.4631  2.6219
 3577SOL     OW11550   2.303   5.124   0.804 -0.6684 -0.0459  0.5045
 3577SOL    HW111551   2.314   5.052   0.736 -1.8599  0.0516  0.1934
 3577SOL    HW211552   2.228   5.185   0.778 -3.0276 -1.5334  3.1700
 3578SOL     OW11553   6.185   4.416   6.304 -0.0234 -0.4654 -0.8492
 3578SOL    HW111554   6.204   4.503   6.259  0.4388 -0.3258 -0.3886
 3578SOL    HW211555   6.090   4.389   6.285  0.2964 -0.6656 -2.3144
 3579SOL     OW11556   5.339   6.069   1.719  0.3585 -0.0852 -0.0927
 3579SOL    HW111557   5.423   6.030   1.757 -0.0689 -1.1296 -0.1648
 3579SOL    HW211558   5.273   5.995   1.702 -0.6009  0.7226  0.0305
 3580SOL     OW11559   0.654   2.892   0.153 -1.3519 -0.0690  0.4484
 3580SOL    HW111560   0.574   2.834   0.137  0.2582 -2.6456  1.2947
 3580SOL    HW211561   0.649   2.929   0.246 -2.2936  1.1086 -0.0351
 3581SOL     OW11562   6.901   5.850   2.476 -0.7393  0.2643  0.0135
 3581SOL    HW111563   6.869   5.944   2.465 -1.9374 -0.3072 -2.4009
 3581SOL    HW211564   6.827   5.792   2.510 -1.3419 -0.4735 -2.3740
 3582SOL     OW11565   4.457   4.699   6.262 -0.3864  0.0540  0.0882
 3582SOL    HW111566   4.456   4.787   6.309  0.3986  0.0521  0.1250
 3582SOL    HW211567   4.365   4.677   6.229 -0.3757  1.4488 -0.9679
 3583SOL     OW11568   5.788   0.405   0.209 -0.1770  0.3577  0.0499
 3583SOL    HW111569   5.806   0.310   0.235 -1.3063  0.1047 -0.0247
 3583SOL    HW211570   5.788   0.414   0.109 -0.7810  0.2978  0.0474
 3584SOL     OW11571   0.757   3.396   0.189  0.5073 -0.1520  0.3911
 3584SOL    HW111572   0.660   3.380   0.208  0.1903 -1.2073 -1.8351
 3584SOL    HW211573   0.808   3.312   0.205  0.8001 -0.0561 -0.0416
 3585SOL     OW11574   5.399   2.689   6.235  0.0773  0.6011  0.3861
 3585SOL    HW111575   5.375   2.629   6.159  0.4373  1.5089 -0.4488
 3585SOL    HW211576   5.482   2.655   6.280  0.6971  0.8628 -0.5410
 3586SOL     OW11577   1.422   0.456   4.386 -0.3703  0.4213  0.0317
 3586SOL    HW111578   1.484   0.381   4.361 -0.8556  0.4682 -1.4298
 3586SOL    HW211579   1.428   0.528   4.317 -0.4533  1.4144  1.0324
 3587SOL     OW11580   0.328   4.424   3.114 -0.4665  0.4399 -0.0499
 3587SOL    HW111581   0.293   4.356   3.050  0.8109 -0.7865  0.5211
 3587SOL    HW211582   0.257   4.450   3.178 -1.0272 -0.2006 -0.4052
 3588SOL     OW11583   0.877   6.968   1.516 -0.4694 -0.0548 -0.2035
 3588SOL    HW111584   0.899   7.065   1.504 -1.6144  0.4440  1.5326
 3588SOL    HW211585   0.800   6.943   1.456 -1.5741  0.6915  0.8652
 3589SOL     OW11586   6.546   2.471   6.652  0.8344  0.7002  0.3036
 3589SOL    HW111587   6.486   2.422   6.588  0.6286 -0.3824  1.2859
 3589SOL    HW211588   6.575   2.408   6.725  0.1968  2.1494  1.8819
 3590SOL     OW11589   6.880   0.081   0.287  0.3390 -0.5903 -0.4795
 3590SOL    HW111590   6.818   0.041   0.220  0.2813  0.7445 -1.2688
 3590SOL    HW211591   6.972   0.046   0.273 -0.1376 -2.2934  0.4497
 3591SOL     OW11592   6.905   6.827   1.256 -0.7397 -0.1448  0.1973
 3591SOL    HW111593   6.935   6.815   1.351  0.0183  0.0062 -0.0144
 3591SOL    HW211594   6.838   6.756   1.233  0.1648 -1.0875  0.4054
 3592SOL     OW11595   2.986   4.248   0.549  0.5105 -0.2067  0.1566
 3592SOL    HW111596   2.919   4.293   0.490  0.4084 -2.3172 -1.4342
 3592SOL    HW211597   3.077   4.284   0.531  0.2719  0.2395 -0.1682
 3593SOL     OW11598   2.303   6.799   6.991  0.0220 -0.2153  0.1540
 3593SOL    HW111599   2.311   6.835   7.084  1.0226  1.3021 -0.5319
 3593SOL    HW211600   2.331   6.868   6.925  0.4520 -1.6558 -1.2404
 3594SOL     OW11601   1.385   3.322   0.385 -0.0747 -0.5655  0.2760
 3594SOL    HW111602   1.389   3.227   0.355  0.4302  0.1856 -2.2861
 3594SOL    HW211603   1.300   3.364   0.353  0.4447  0.2757 -0.0394
 3595SOL     OW11604   0.665   0.786   0.140 -0.6341  0.2120 -0.0023
 3595SOL    HW111605   0.721   0.703   0.138  0.3446  0.7960  1.4302
 3595SOL    HW211606   0.571   0.762   0.161 -0.2940 -0.5126  0.7865
 3596SOL     OW11607   2.032   7.006   6.617  0.3656 -0.1134 -0.7354
 3596SOL    HW111608   2.077   6.996   6.706 -1.9537 -0.0475  0.4990
 3596SOL    HW211609   2.094   7.053   6.555  2.7674 -1.8114  0.2312
 3597SOL     OW11610   4.512   2.925   6.000 -0.2479  0.0443 -0.2252
 3597SOL    HW111611   4.439   2.858   6.013 -0.8516  0.5491 -0.9208
 3597SOL    HW211612   4.472   3.015   5.982  0.5258  0.9028  2.0393
 3598SOL     OW11613   3.704   3.142   6.056  0.1278 -0.3962  0.6564
 3598SOL    HW111614   3.801   3.120   6.058  0.2455 -0.0774 -0.5497
 3598SOL    HW211615   3.687   3.225   6.110  0.3185 -1.0907  1.8306
 3599SOL     OW11616   4.545   5.104   2.397 -0.0656  0.2474  0.6070
 3599SOL    HW111617   4.528   5.087   2.299  0.8769  1.6045  0.1695
 3599SOL    HW211618   4.481   5.051   2.451  1.5792 -3.3684 -0.6195
 3600SOL     OW11619   2.716   5.906   3.317  0.1421 -0.2833 -0.5052
 3600SOL    HW111620   2.680   5.958   3.239 -1.0976 -1.2420 -0.6081
 3600SOL    HW211621   2.759   5.970   3.381  0.5693  0.6007 -1.6251
 3601SOL     OW11622   0.773   1.340   3.734 -0.0344  0.6670 -0.3454
 3601SOL    HW111623   0.700   1.408   3.725 -0.5021  0.1822 -0.2494
 3601SOL    HW211624   0.734   1.249   3.746  0.3170  0.8625  4.6454
 3602SOL     OW11625   2.484   5.288   1.750  0.0324 -0.1997 -0.2211
 3602SOL    HW111626   2.428   5.237   1.685 -1.1561 -3.8454  3.2697
 3602SOL    HW211627   2.452   5.383   1.753 -2.8371 -0.9978 -1.7237
 3603SOL     OW11628   0.577   4.003   2.552  0.6847 -0.1407 -0.2489
 3603SOL    HW111629   0.605   4.095   2.579 -0.2436  0.1753 -0.3437
 3603SOL    HW211630   0.609   3.938   2.621 -0.1939  0.4582  0.7464
 3604SOL     OW11631   0.999   6.721   4.728  0.0118 -0.5664  0.3124
 3604SOL    HW111632   0.915   6.690   4.772  0.0513 -2.1631 -0.6425
 3604SOL    HW211633   1.027   6.654   4.659  0.8485  1.0229 -0.9637
 3605SOL     OW11634   4.296   0.016   3.358 -0.3271  0.4236  0.3314
 3605SOL    HW111635   4.319   0.106   3.396  1.9342 -0.9326  2.5239
 3605SOL    HW211636   4.265  -0.043   3.432  0.7520 -1.2921 -0.5550
 3606SOL     OW11637   1.000   2.623   2.080 -0.3100 -0.2131  0.3057
 3606SOL    HW111638   0.935   2.699   2.075 -1.0379 -0.8673 -0.5009
 3606SOL    HW211639   1.094   2.659   2.081 -0.6584  0.7235  0.9342
 3607SOL     OW11640   4.333   0.304   2.249 -0.0983  0.3068 -0.0862
 3607SOL    HW111641   4.272   0.245   2.302 -1.2453  1.5229  0.0135
 3607SOL    HW211642   4.314   0.292   2.152  1.3728 -1.2467 -0.2352
 3608SOL     OW11643   0.724   5.500   3.285 -0.0033  0.2965 -0.0603
 3608SOL    HW111644   0.813   5.542   3.303 -0.3264  0.4858  1.1707
 3608SOL    HW211645   0.706   5.429   3.352 -1.0402  0.6672  0.0877
 3609SOL     OW11646   2.225   0.020   4.511 -0.0508 -0.2042  0.2703
 3609SOL    HW111647   2.248   0.022   4.609 -1.8564 -0.7059  0.7586
 3609SOL    HW211648   2.299   0.061   4.459  0.3332  1.4490  1.9880
 3610SOL     OW11649   2.570   4.911   4.421 -0.0677 -0.5464  0.1558
 3610SOL    HW111650   2.647   4.847   4.419  1.2632  0.9611 -3.0834
 3610SOL    HW211651   2.485   4.861   4.403  0.4898 -1.8593  1.0654
 3611SOL     OW11652   2.732   3.851   0.630  0.1102  0.6982 -0.1925
 3611SOL    HW111653   2.714   3.770   0.686 -0.4218  0.2398 -1.0074
 3611SOL    HW211654   2.779   3.920   0.686  1.1356 -0.4076  0.3477
 3612SOL     OW11655   2.819   2.228   3.109 -0.2302 -0.0129 -0.1140
 3612SOL    HW111656   2.725   2.245   3.141 -0.5719 -0.2602 -0.9522
 3612SOL    HW211657   2.881   2.230   3.187 -1.1298 -1.2770  0.6602
 3613SOL     OW11658   4.023   3.300   2.891  0.5216 -0.1520 -0.6550
 3613SOL    HW111659   4.006   3.383   2.944  0.3342  0.3249 -1.4460
 3613SOL    HW211660   4.115   3.265   2.911  0.1496 -0.4672  0.6141
 3614SOL     OW11661   5.368   1.412   1.689  0.4125 -0.1961 -0.0132
 3614SOL    HW111662   5.308   1.366   1.624  0.8969 -0.3047 -0.3942
 3614SOL    HW211663   5.379   1.355   1.770  0.6249 -0.5455 -0.2794
 3615SOL     OW11664   5.322   1.553   5.062 -0.5030 -0.4378 -0.1587
 3615SOL    HW111665   5.277   1.642   5.071  1.0647  0.5671 -1.5430
 3615SOL    HW211666   5.266   1.493   5.005 -1.1316  0.0060 -0.0221
 3616SOL     OW11667   5.771   1.157   4.247 -0.0758 -0.6853  0.1365
 3616SOL    HW111668   5.867   1.173   4.271  0.2036 -1.7930 -0.1537
 3616SOL    HW211669   5.754   1.058   4.243 -1.5239 -0.5115  1.3201
 3617SOL     OW11670   6.922   5.648   6.759 -0.1937 -0.7259 -0.2953
 3617SOL    HW111671   6.866   5.622   6.681 -2.5641 -0.9945  1.3708
 3617SOL    HW211672   6.934   5.569   6.819  1.6806 -0.5615 -0.4249
 3618SOL     OW11673   4.959   0.784   4.989 -0.5046  0.1950  0.1512
 3618SOL    HW111674   4.983   0.868   5.038  1.3098 -0.0052 -0.3275
 3618SOL    HW211675   5.043   0.738   4.959 -1.5091  0.1932 -2.9449
 3619SOL     OW11676   5.173   0.975   2.314  0.7067  0.2991  0.1679
 3619SOL    HW111677   5.152   0.887   2.357  0.7569  0.0974 -0.2146
 3619SOL    HW211678   5.157   1.049   2.380 -1.9757  0.2399 -0.3088
 3620SOL     OW11679   2.566   4.053   5.276 -0.3235  0.0386 -0.2569
 3620SOL    HW111680   2.546   4.122   5.206  0.7624 -0.4436 -1.0848
 3620SOL    HW211681   2.611   4.096   5.353 -1.4292  0.5588  0.1264
 3621SOL     OW11682   5.135   0.406   3.039 -0.7194  0.4080 -0.0620
 3621SOL    HW111683   5.173   0.407   3.132 -1.7132  1.5354  0.3799
 3621SOL    HW211684   5.035   0.414   3.045 -0.9162 -0.8671 -1.2149
 3622SOL     OW11685   4.366   6.089   0.478 -0.4645 -0.5696  0.0452
 3622SOL    HW111686   4.322   6.178   0.466 -2.2648 -1.7433 -4.3906
 3622SOL    HW211687   4.299   6.024   0.514  0.3513 -0.5653  1.6470
 3623SOL     OW11688   6.676   1.426   1.233  0.0150 -0.4305  0.1629
 3623SOL    HW111689   6.677   1.331   1.265 -2.5258 -0.3520  0.6874
 3623SOL    HW211690   6.747   1.478   1.281  1.1005 -1.9257  0.2394
 3624SOL     OW11691   1.177   7.011   0.899  0.4439 -0.0917 -0.0065
 3624SOL    HW111692   1.095   7.035   0.848  0.8018  0.2729 -0.4176
 3624SOL    HW211693   1.191   6.912   0.897 -1.0741 -0.3828  1.7375
 3625SOL     OW11694   5.677   5.931   2.484 -0.1817  0.1951 -0.4576
 3625SOL    HW111695   5.683   6.024   2.521 -0.7580  0.8955 -2.0584
 3625SOL    HW211696   5.762   5.882   2.503 -0.6463  0.3105  2.2692
 3626SOL     OW11697   2.057   3.385   1.759 -0.0139  0.2748  0.1975
 3626SOL    HW111698   1.959   3.370   1.745  0.2559 -0.4703 -1.0901
 3626SOL    HW211699   2.106   3.299   1.743  0.8622  0.6864  0.6209
 3627SOL     OW11700   2.012   6.982   3.446  0.1363 -0.5904 -0.3729
 3627SOL    HW111701   2.007   6.937   3.357 -1.0557  0.4984 -0.8855
 3627SOL    HW211702   1.994   7.080   3.435 -1.5494 -0.6966  1.2499
 3628SOL     OW11703   3.192   1.403   5.483  0.1734  0.0322 -0.5172
 3628SOL    HW111704   3.190   1.310   5.447 -0.0661 -0.3405  0.4221
 3628SOL    HW211705   3.278   1.418   5.532 -0.8590 -0.5905  1.5648
 3629SOL     OW11706   5.223   3.739   2.026 -0.6359  0.1121  0.2875
 3629SOL    HW111707   5.199   3.665   2.088 -0.0688 -1.5664 -1.3809
 3629SOL    HW211708   5.315   3.771   2.045 -0.5111 -0.3097  0.4185
 3630SOL     OW11709   1.332   3.430   1.042  0.2216  0.0017 -0.2926
 3630SOL    HW111710   1.241   3.390   1.054 -0.2336  1.2050  0.4191
 3630SOL    HW211711   1.400   3.373   1.088 -0.6391  0.9239  2.3115
 3631SOL     OW11712   6.246   0.613   5.231 -0.1957 -0.0443  0.0050
 3631SOL    HW111713   6.201   0.686   5.180 -2.1011 -1.1171  0.0737
 3631SOL    HW211714   6.198   0.597   5.317  2.8953  1.6800  2.2627
 3632SOL     OW11715   0.926   3.234   5.878  0.9968  0.2566 -0.1784
 3632SOL    HW111716   0.998   3.207   5.814  0.1927 -1.0674 -0.5549
 3632SOL    HW211717   0.845   3.261   5.826  0.0673 -1.5904  0.2539
 3633SOL     OW11718   2.493   6.171   2.462 -0.7648  0.5164 -0.8406
 3633SOL    HW111719   2.472   6.214   2.375 -0.2577  0.1229 -1.1694
 3633SOL    HW211720   2.553   6.093   2.447 -0.7473  0.3820 -0.1466
 3634SOL     OW11721   2.265   6.712   4.002 -0.5137  0.1705  0.3006
 3634SOL    HW111722   2.301   6.772   4.073  0.0007  1.9898 -1.3811
 3634SOL    HW211723   2.340   6.678   3.946 -0.7714 -2.3903  1.3825
 3635SOL     OW11724   6.299   0.070   4.074 -0.4371 -0.3807 -0.2023
 3635SOL    HW111725   6.358  -0.010   4.087  0.7104  0.5476  0.3641
 3635SOL    HW211726   6.209   0.051   4.113  0.0743 -1.1207  0.6792
 3636SOL     OW11727   1.655   0.534   2.868  0.0459  0.2408 -0.0804
 3636SOL    HW111728   1.624   0.629   2.873 -0.8403 -0.0711  2.9503
 3636SOL    HW211729   1.733   0.521   2.929 -2.0527 -1.5726  2.4791
 3637SOL     OW11730   6.149   1.258   2.726 -0.1221  0.2930 -0.0030
 3637SOL    HW111731   6.149   1.351   2.690 -2.8048 -0.2836 -1.9669
 3637SOL    HW211732   6.197   1.198   2.663  0.4724  0.1570  0.5755
 3638SOL     OW11733   5.454   4.253   1.593 -0.4366 -0.0198 -0.3226
 3638SOL    HW111734   5.553   4.252   1.580 -0.4122  2.2707 -0.6877
 3638SOL    HW211735   5.420   4.159   1.596  2.0756 -0.9900  2.6749
 3639SOL     OW11736   5.736   1.296   0.734 -0.7191  0.2175 -0.4266
 3639SOL    HW111737   5.693   1.365   0.676 -0.7052  0.6328  0.0588
 3639SOL    HW211738   5.808   1.338   0.789 -0.6674 -0.1953 -0.1748
 3640SOL     OW11739   4.932   0.391   0.912  0.3072  0.0459 -0.0972
 3640SOL    HW111740   4.987   0.475   0.906 -1.6230  1.5109  1.3692
 3640SOL    HW211741   4.835   0.415   0.909 -0.3113 -2.3283 -1.1571
 3641SOL     OW11742   5.680   3.141   3.526 -0.0017  0.2230 -0.3988
 3641SOL    HW111743   5.589   3.104   3.509 -0.2629  1.3884 -1.6699
 3641SOL    HW211744   5.685   3.173   3.621 -1.6986  2.2703 -0.9440
 3642SOL     OW11745   1.000   4.177   0.801  0.0993  0.1119 -0.5169
 3642SOL    HW111746   0.955   4.205   0.886  0.8516  0.6801 -0.3003
 3642SOL    HW211747   0.970   4.235   0.726 -1.8969 -1.4635 -1.0285
 3643SOL     OW11748   6.509   1.904   6.383 -0.1902  0.1143  0.4863
 3643SOL    HW111749   6.496   1.872   6.476 -0.6231  0.7606  0.6559
 3643SOL    HW211750   6.488   1.830   6.319 -0.2441 -0.2233  0.8894
 3644SOL     OW11751   2.442   1.533   1.118 -0.0643  0.0152 -0.1152
 3644SOL    HW111752   2.453   1.449   1.065 -1.8378  0.8310 -1.9095
 3644SOL    HW211753   2.357   1.527   1.172  0.2710  0.2892  0.4486
 3645SOL     OW11754   3.800   3.021   4.128  0.1471 -0.4123  0.2970
 3645SOL    HW111755   3.789   3.106   4.078 -0.3865 -1.0408 -0.6696
 3645SOL    HW211756   3.751   2.947   4.082  0.8597 -1.3222  0.9342
 3646SOL     OW11757   3.901   1.202   0.615 -0.7867  0.1339 -0.2024
 3646SOL    HW111758   3.987   1.193   0.665 -1.3380 -1.6517  0.4820
 3646SOL    HW211759   3.846   1.276   0.656 -0.8594 -0.7244  1.3068
 3647SOL     OW11760   2.296   1.504   0.251 -0.1611  0.2683  0.5033
 3647SOL    HW111761   2.249   1.555   0.323 -1.2935  0.6132 -0.4521
 3647SOL    HW211762   2.384   1.472   0.285 -1.0992 -0.4822  2.3618
 3648SOL     OW11763   2.193   0.091   6.240 -0.1784  0.9230 -0.4494
 3648SOL    HW111764   2.233  -0.000   6.228 -2.4430  0.0329 -1.7893
 3648SOL    HW211765   2.179   0.133   6.151  0.9618  2.7131  0.1612
 3649SOL     OW11766   4.394   6.594   3.534  0.4041  0.1301  0.2354
 3649SOL    HW111767   4.425   6.662   3.601  0.6122  0.3840 -0.1141
 3649SOL    HW211768   4.294   6.596   3.529  0.3923  0.2155  0.4343
 3650SOL     OW11769   0.147   3.922   2.403  0.2165  0.4139  0.1049
 3650SOL    HW111770   0.072   3.968   2.453  0.1504  1.1289 -0.6212
 3650SOL    HW211771   0.227   3.981   2.403  0.8452 -0.4079  0.9893
 3651SOL     OW11772   6.511   1.367   0.341 -0.7114  0.5131 -0.2391
 3651SOL    HW111773   6.596   1.393   0.295  0.3979  1.4123  2.1611
 3651SOL    HW211774   6.500   1.268   0.337 -0.2424  0.5013 -1.6805
 3652SOL     OW11775   5.959   6.647   6.799 -0.6711 -0.0260  0.3568
 3652SOL    HW111776   5.910   6.703   6.733  1.7497  0.7393 -0.9090
 3652SOL    HW211777   6.016   6.580   6.751  0.4064 -0.1058  1.6484
 3653SOL     OW11778   5.124   2.981   4.931 -0.0503  0.5993  0.0201
 3653SOL    HW111779   5.102   2.909   4.866 -0.5326  0.8175 -0.0577
 3653SOL    HW211780   5.214   2.963   4.972  0.2202  0.4186 -0.6463
 3654SOL     OW11781   4.547   6.405   6.963 -0.1760 -0.2961  0.0235
 3654SOL    HW111782   4.563   6.503   6.971 -1.8276  0.1081 -1.1915
 3654SOL    HW211783   4.541   6.379   6.867  1.5099 -1.8328  0.2857
 3655SOL     OW11784   4.563   2.038   2.342  0.2482 -0.2845 -0.4827
 3655SOL    HW111785   4.524   1.958   2.387 -0.3031 -0.9658 -2.0946
 3655SOL    HW211786   4.494   2.110   2.335  0.8885  0.5890  1.4314
 3656SOL     OW11787   6.432   4.026   4.417  0.2838 -0.6412 -0.3521
 3656SOL    HW111788   6.398   3.957   4.352 -1.6778  1.5498 -1.8318
 3656SOL    HW211789   6.359   4.052   4.479  0.9410  0.2952  0.0604
 3657SOL     OW11790   6.827   5.767   4.620 -0.1336  0.2295 -0.1138
 3657SOL    HW111791   6.837   5.794   4.716  1.2910 -0.0651 -0.1566
 3657SOL    HW211792   6.841   5.847   4.561 -2.9869  0.8739 -0.0809
 3658SOL     OW11793   3.661   3.278   2.076 -0.4584 -0.3208 -0.1993
 3658SOL    HW111794   3.640   3.368   2.039  1.6024  0.0255 -0.6780
 3658SOL    HW211795   3.720   3.288   2.157 -1.1862 -1.2162  0.4636
 3659SOL     OW11796   5.228   3.515   0.583  0.1020 -0.1800  0.0084
 3659SOL    HW111797   5.229   3.448   0.657 -0.1789  0.5696  0.7159
 3659SOL    HW211798   5.321   3.548   0.567  0.2741 -0.9100 -0.5035
 3660SOL     OW11799   2.575   0.944   7.010 -0.0881  0.0143  0.0742
 3660SOL    HW111800   2.512   0.994   7.070 -0.1591 -1.9019  1.6620
 3660SOL    HW211801   2.524   0.894   6.941 -0.2083 -0.2293  0.3410
 3661SOL     OW11802   4.515   4.884   0.362  0.0376 -0.9794  0.3549
 3661SOL    HW111803   4.471   4.795   0.353  0.1343 -0.8851 -1.2148
 3661SOL    HW211804   4.447   4.953   0.388 -0.5444 -1.0382 -0.9665
 3662SOL     OW11805   3.326   6.392   3.748 -0.0770  0.3623  0.2298
 3662SOL    HW111806   3.252   6.449   3.783  0.5310  1.1615  0.2268
 3662SOL    HW211807   3.291   6.335   3.673 -0.1607  2.4254 -1.3735
 3663SOL     OW11808   4.081   0.820   4.877  0.4402  0.1330  0.2640
 3663SOL    HW111809   4.104   0.917   4.876  1.2656 -0.0202 -1.9623
 3663SOL    HW211810   3.984   0.808   4.853  0.7463  0.3725 -1.1745
 3664SOL     OW11811   2.587   0.978   5.047  0.5056  0.3199 -0.1439
 3664SOL    HW111812   2.515   1.047   5.036 -2.0648 -2.2458 -0.6858
 3664SOL    HW211813   2.575   0.932   5.135  1.6895 -0.0343 -0.1454
 3665SOL     OW11814   6.434   5.798   6.214 -0.1751 -0.0190 -0.1001
 3665SOL    HW111815   6.344   5.842   6.213  0.0543  0.4694 -0.8695
 3665SOL    HW211816   6.503   5.864   6.183  0.0611 -1.1603 -2.1877
 3666SOL     OW11817   2.850   1.522   0.038 -0.2965 -0.2033  0.1111
 3666SOL    HW111818   2.845   1.430   0.076 -0.0255  0.4919  1.9794
 3666SOL    HW211819   2.804   1.586   0.100  0.8486  1.1314 -0.3663
 3667SOL     OW11820   6.942   4.559   4.400  0.2625 -0.4356 -0.3853
 3667SOL    HW111821   6.882   4.603   4.467 -1.2471 -0.6874 -1.5153
 3667SOL    HW211822   6.995   4.487   4.445  0.5431  0.4970  0.8556
 3668SOL     OW11823   0.252   5.554   1.106 -0.2937  0.5277  0.4182
 3668SOL    HW111824   0.285   5.645   1.081  2.2446 -0.6643 -0.9303
 3668SOL    HW211825   0.280   5.533   1.199  0.4721  0.5519  0.1996
 3669SOL     OW11826   3.884   4.535   3.638  0.1708 -0.5689  0.5401
 3669SOL    HW111827   3.943   4.456   3.621 -0.2716 -0.9865  0.9414
 3669SOL    HW211828   3.878   4.552   3.736 -0.3413 -0.4996  0.4980
 3670SOL     OW11829   5.318   2.757   1.768  0.2644  0.1783  0.1493
 3670SOL    HW111830   5.289   2.674   1.816  0.0305  0.1446 -0.0427
 3670SOL    HW211831   5.284   2.837   1.818  2.3191  0.2329  1.5652
 3671SOL     OW11832   6.766   1.058   2.051  0.5501 -0.3803  0.3116
 3671SOL    HW111833   6.768   1.030   1.955 -0.0077 -0.5324  0.3423
 3671SOL    HW211834   6.847   1.113   2.072 -0.4787  1.6727 -0.8587
 3672SOL     OW11835   6.931   0.317   1.680  0.0307  0.3212  0.4423
 3672SOL    HW111836   6.945   0.318   1.581  1.9872 -0.7645  0.6573
 3672SOL    HW211837   7.012   0.355   1.725 -0.6187  0.3208  1.6535
 3673SOL     OW11838   6.801   2.961   5.728 -0.0603  0.0158 -0.3097
 3673SOL    HW111839   6.752   3.046   5.747 -0.6578  0.0414 -1.8185
 3673SOL    HW211840   6.872   2.978   5.659  1.0250 -0.3521  0.6938
 3674SOL     OW11841   0.746   5.060   4.363 -0.1240 -0.4681 -0.0417
 3674SOL    HW111842   0.812   5.115   4.414 -0.0753 -1.2745  0.7821
 3674SOL    HW211843   0.678   5.121   4.322 -0.1879  0.2022  1.0075
 3675SOL     OW11844   6.354   3.183   4.586 -0.7371 -0.8609  0.0850
 3675SOL    HW111845   6.446   3.202   4.620 -0.2116  2.1747 -2.6653
 3675SOL    HW211846   6.290   3.249   4.626 -0.9250 -0.2749 -1.1411
 3676SOL     OW11847   3.385   2.953   2.122 -0.3392  0.0114 -0.1528
 3676SOL    HW111848   3.479   2.970   2.092  0.7934 -0.2051  2.9111
 3676SOL    HW211849   3.326   3.029   2.092  1.4255  1.6416  0.2873
 3677SOL     OW11850   5.078   2.539   6.164 -0.6705  0.9193 -0.1332
 3677SOL    HW111851   5.007   2.609   6.167  1.2288  2.9459 -0.4759
 3677SOL    HW211852   5.130   2.547   6.079  1.2740  0.8403  0.9921
 3678SOL     OW11853   6.227   6.843   1.285  0.1941  0.3257  0.2845
 3678SOL    HW111854   6.137   6.825   1.244 -0.8452 -0.5918  2.8136
 3678SOL    HW211855   6.297   6.793   1.233 -1.0380 -0.7731 -0.3937
 3679SOL     OW11856   6.605   3.148   6.167 -0.0325 -0.0869  0.0197
 3679SOL    HW111857   6.628   3.167   6.071  1.3287  0.7829  0.4844
 3679SOL    HW211858   6.657   3.068   6.198  0.1186  0.1030  0.2552
 3680SOL     OW11859   6.505   0.734   2.193  0.3932  0.4269  0.6043
 3680SOL    HW111860   6.457   0.801   2.137  0.4959  1.8694  2.1081
 3680SOL    HW211861   6.603   0.757   2.196  0.7599 -0.8921 -0.2915
 3681SOL     OW11862   4.551   0.334   4.859  0.5081 -0.0602 -0.4208
 3681SOL    HW111863   4.643   0.301   4.837  0.3113  0.0335 -1.4662
 3681SOL    HW211864   4.504   0.267   4.915  2.2554  1.2219  2.7954
 3682SOL     OW11865   1.683   2.374   1.634  0.1667  0.0841  0.0284
 3682SOL    HW111866   1.640   2.385   1.544 -0.0366 -1.1097 -0.0386
 3682SOL    HW211867   1.781   2.360   1.623 -0.1508 -2.3894 -0.2200
 3683SOL     OW11868   0.420   1.054   0.121 -0.3349  0.5880  0.4452
 3683SOL    HW111869   0.498   1.071   0.062 -0.0571  0.0903  0.6647
 3683SOL    HW211870   0.450   1.007   0.204 -0.7479  1.1110  0.9005
 3684SOL     OW11871   4.903   0.365   6.694 -0.2918 -0.0770  1.0002
 3684SOL    HW111872   5.000   0.366   6.717  0.0000 -1.7298  0.0257
 3684SOL    HW211873   4.879   0.277   6.654 -2.0039  0.6278  0.3570
 3685SOL     OW11874   1.274   4.749   5.961  0.0952 -0.3741  0.0654
 3685SOL    HW111875   1.333   4.742   5.881 -1.8035  0.8992 -1.5419
 3685SOL    HW211876   1.190   4.696   5.945 -0.4943  0.2424  1.0357
 3686SOL     OW11877   3.554   5.981   2.619 -0.1604 -0.2765 -0.1677
 3686SOL    HW111878   3.461   5.945   2.605  0.1604 -0.3976 -2.3282
 3686SOL    HW211879   3.620   5.920   2.576  1.2772 -1.6419  3.6204
 3687SOL     OW11880   6.890   5.466   4.001 -0.2186 -0.0963 -0.7390
 3687SOL    HW111881   6.795   5.478   3.971 -0.1149 -0.2000 -1.1122
 3687SOL    HW211882   6.895   5.389   4.064 -0.4566  0.1905 -0.3615
 3688SOL     OW11883   4.527   5.834   3.800 -0.3703  0.2966  0.0356
 3688SOL    HW111884   4.526   5.907   3.731  2.7311  0.2355 -0.2337
 3688SOL    HW211885   4.597   5.855   3.868  0.1791 -2.1220  0.2943
 3689SOL     OW11886   1.453   0.786   3.837 -0.1215  0.0164  0.4832
 3689SOL    HW111887   1.353   0.780   3.835 -0.0321 -1.6124 -0.2600
 3689SOL    HW211888   1.492   0.695   3.847  1.3023  0.7415  1.8936
 3690SOL     OW11889   6.661   1.337   4.470 -0.2279 -0.3060  0.2468
 3690SOL    HW111890   6.761   1.334   4.469 -0.2097  0.1727  0.0781
 3690SOL    HW211891   6.625   1.245   4.478  0.2247 -0.5227 -0.1737
 3691SOL     OW11892   0.348   6.024   0.119  0.3249 -0.0817 -0.3850
 3691SOL    HW111893   0.419   5.955   0.105  0.5566  0.3161 -1.2295
 3691SOL    HW211894   0.390   6.109   0.153  0.0670 -0.2898  0.4700
 3692SOL     OW11895   2.475   6.283   5.072 -0.2489  0.2370 -0.0046
 3692SOL    HW111896   2.407   6.355   5.054  1.4780  1.6759 -1.1575
 3692SOL    HW211897   2.556   6.300   5.015  1.2647 -1.1661  1.6436
 3693SOL     OW11898   3.377   5.493   4.351 -0.1484  0.0921 -0.5863
 3693SOL    HW111899   3.321   5.411   4.343 -0.4380  0.2921 -0.6598
 3693SOL    HW211900   3.324   5.566   4.393  0.4804 -0.1180  0.6573
 3694SOL     OW11901   2.136   6.791   6.396 -0.2130  0.0794  0.4058
 3694SOL    HW111902   2.204   6.827   6.332 -0.0181 -0.9053  0.0421
 3694SOL    HW211903   2.097   6.867   6.450 -0.8031  1.0096 -1.2522
 3695SOL     OW11904   3.842   5.884   6.680  0.0050 -0.2297 -0.6162
 3695SOL    HW111905   3.785   5.871   6.761 -0.9448  0.2940 -1.1858
 3695SOL    HW211906   3.892   5.971   6.688 -1.3532  0.6352 -1.3186
 3696SOL     OW11907   6.871   3.023   2.385 -0.0346 -0.1591 -0.9164
 3696SOL    HW111908   6.782   3.037   2.430  1.1380  0.6674  1.3002
 3696SOL    HW211909   6.910   3.112   2.360  0.9063 -0.3986 -0.3382
 3697SOL     OW11910   6.160   4.623   6.049  0.3956  0.0435 -0.4722
 3697SOL    HW111911   6.162   4.701   6.112  2.1772 -1.1789  1.1148
 3697SOL    HW211912   6.168   4.655   5.955 -1.4909  1.8829 -0.0763
 3698SOL     OW11913   1.883   2.642   1.185 -0.3402  0.1018  0.3916
 3698SOL    HW111914   1.793   2.599   1.185 -0.0244 -0.6948 -1.4902
 3698SOL    HW211915   1.926   2.629   1.274 -1.6919 -0.3836  0.9964
 3699SOL     OW11916   4.241   1.056   4.173  0.8149  0.3155 -0.0518
 3699SOL    HW111917   4.327   1.093   4.136  0.3638 -0.5973 -2.1498
 3699SOL    HW211918   4.199   0.996   4.105  0.2452 -2.0588  2.2365
 3700SOL     OW11919   4.765   3.580   6.303  0.3337  0.5082  0.0969
 3700SOL    HW111920   4.802   3.665   6.264  0.5581  0.3682  0.0006
 3700SOL    HW211921   4.704   3.602   6.379 -0.9866  0.8657 -1.0144
 3701SOL     OW11922   3.701   3.345   6.218 -0.0658 -0.3231  0.3533
 3701SOL    HW111923   3.724   3.322   6.313 -1.0583 -0.1176  0.6621
 3701SOL    HW211924   3.661   3.436   6.215 -1.4367 -0.8913 -0.0216
 3702SOL     OW11925   3.200   1.631   3.618  0.2490 -0.3479  0.1916
 3702SOL    HW111926   3.244   1.628   3.528  1.3575  2.0883  0.5860
 3702SOL    HW211927   3.241   1.703   3.673 -2.9387  0.7876  1.3074
 3703SOL     OW11928   3.984   6.166   0.845  0.4553  0.6555 -0.3425
 3703SOL    HW111929   4.020   6.134   0.932 -0.2251 -0.8639 -0.5782
 3703SOL    HW211930   4.029   6.118   0.770 -1.1438 -0.4185 -0.6840
 3704SOL     OW11931   5.654   2.057   0.136  0.3309  0.1425  0.2158
 3704SOL    HW111932   5.644   1.984   0.069  2.1023 -1.1561  1.2457
 3704SOL    HW211933   5.695   2.137   0.093  0.2322 -0.1920 -0.5176
 3705SOL     OW11934   5.126   3.794   0.691 -0.0208 -0.3717 -0.2528
 3705SOL    HW111935   5.040   3.845   0.696  0.3250  0.1545  0.6753
 3705SOL    HW211936   5.108   3.697   0.707 -0.2671 -0.0414  1.8357
 3706SOL     OW11937   3.410   3.510   2.123  0.1431 -0.3840  0.5769
 3706SOL    HW111938   3.494   3.512   2.177  0.8924 -1.6780 -0.4860
 3706SOL    HW211939   3.431   3.522   2.026 -1.1092  1.1550  0.4476
 3707SOL     OW11940   3.912   5.316   0.449 -0.0034 -0.1393 -0.0448
 3707SOL    HW111941   3.902   5.216   0.453 -0.0886 -0.1478 -0.3198
 3707SOL    HW211942   3.981   5.340   0.381 -1.6106  0.0430 -1.7078
 3708SOL     OW11943   4.383   6.528   3.232 -0.4742 -0.1838 -0.1957
 3708SOL    HW111944   4.347   6.444   3.190 -2.9202  0.7403 -0.1380
 3708SOL    HW211945   4.327   6.551   3.312  1.3851  0.4661  0.9906
 3709SOL     OW11946   1.717   5.033   2.197  0.5290  0.0850  0.1477
 3709SOL    HW111947   1.636   5.082   2.165 -0.2122 -0.6893  0.7760
 3709SOL    HW211948   1.702   5.002   2.291  1.6456  0.1155  0.3529
 3710SOL     OW11949   5.728   5.663   2.230 -0.5104 -0.0247  0.3714
 3710SOL    HW111950   5.644   5.646   2.281 -0.5377  1.5245  0.8913
 3710SOL    HW211951   5.728   5.757   2.197  1.4945  0.3892  1.3578
 3711SOL     OW11952   5.906   4.374   1.793 -0.3724 -0.2475 -0.4109
 3711SOL    HW111953   5.866   4.465   1.779  0.4832  0.4329  1.2916
 3711SOL    HW211954   5.939   4.366   1.887  1.3955 -1.6224 -1.0900
 3712SOL     OW11955   4.498   1.006   6.162  0.0150 -0.1562 -0.3699
 3712SOL    HW111956   4.419   1.047   6.115  1.7717 -0.2056 -3.6130
 3712SOL    HW211957   4.498   0.907   6.148  0.6306 -0.1568 -0.4102
 3713SOL     OW11958   1.834   6.675   2.010  0.2904  0.0076  0.2100
 3713SOL    HW111959   1.776   6.594   2.011  1.0838 -0.5693  0.4618
 3713SOL    HW211960   1.878   6.686   2.100  1.2455 -0.0696 -0.2413
 3714SOL     OW11961   6.566   2.825   3.539  0.1390  0.0854  0.1028
 3714SOL    HW111962   6.477   2.857   3.507 -0.3512 -1.5362 -0.2659
 3714SOL    HW211963   6.633   2.898   3.532 -1.1191  1.2800  0.1895
 3715SOL     OW11964   3.906   0.702   5.754 -0.2337 -0.1310  0.0472
 3715SOL    HW111965   3.846   0.688   5.676 -0.0402  0.5015 -0.2158
 3715SOL    HW211966   3.876   0.644   5.830 -1.6733  0.7688  0.1808
 3716SOL     OW11967   6.940   3.598   4.129  0.4426 -0.1342 -0.8869
 3716SOL    HW111968   6.919   3.573   4.034 -0.9127 -0.3018 -0.5543
 3716SOL    HW211969   6.920   3.521   4.189  0.6432  0.2029 -0.3818
 3717SOL     OW11970   4.478   1.939   3.022 -0.1281  0.3288 -0.1857
 3717SOL    HW111971   4.558   1.889   2.990 -0.4007  0.9348 -1.8752
 3717SOL    HW211972   4.471   1.929   3.121  1.2412 -0.8743 -0.1742
 3718SOL     OW11973   2.281   2.781   0.127  0.7126 -0.0847 -0.0576
 3718SOL    HW111974   2.371   2.821   0.144  0.1937  0.2575  2.2242
 3718SOL    HW211975   2.236   2.828   0.051  1.4664  1.4018  0.3837
 3719SOL     OW11976   4.713   4.217   4.518  0.0134  0.4065  0.7475
 3719SOL    HW111977   4.715   4.262   4.428  0.9755 -1.5862 -0.2856
 3719SOL    HW211978   4.793   4.244   4.571 -0.3853  1.3360  0.8902
 3720SOL     OW11979   6.524   6.912   1.796  0.0089 -0.4410 -0.0467
 3720SOL    HW111980   6.558   6.873   1.882  1.2332  1.1709  0.2675
 3720SOL    HW211981   6.427   6.893   1.787  0.1417 -1.8204  1.0186
 3721SOL     OW11982   2.780   1.290   4.623  0.1007 -0.1403  0.0174
 3721SOL    HW111983   2.810   1.384   4.610  0.9091 -0.2335  1.1068
 3721SOL    HW211984   2.859   1.231   4.637 -0.4902 -0.5786  1.7104
 3722SOL     OW11985   4.801   0.923   1.205 -0.5123 -0.1016  0.1325
 3722SOL    HW111986   4.778   0.981   1.283 -2.0289 -2.0290  1.2028
 3722SOL    HW211987   4.874   0.861   1.229 -1.0336 -0.7536  0.0506
 3723SOL     OW11988   1.637   2.353   3.039  0.1286 -0.3846  0.0193
 3723SOL    HW111989   1.712   2.365   3.105 -0.0069 -0.2399  0.1523
 3723SOL    HW211990   1.611   2.442   3.001 -0.9205 -0.2331  1.0295
 3724SOL     OW11991   1.086   3.116   5.698 -0.1652 -0.0401  0.1318
 3724SOL    HW111992   1.126   3.205   5.680 -1.2403  0.5809  0.7279
 3724SOL    HW211993   1.159   3.047   5.701  0.6233  0.7155 -0.8265
 3725SOL     OW11994   4.955   0.333   2.705 -0.6849  0.2955  0.1337
 3725SOL    HW111995   4.950   0.306   2.609 -0.0346 -1.8811  0.6519
 3725SOL    HW211996   5.024   0.405   2.716  2.0106 -1.9645 -0.6407
 3726SOL     OW11997   2.939   2.680   3.454 -0.8622 -0.1615 -0.1428
 3726SOL    HW111998   2.940   2.600   3.513 -2.2958  0.5424  0.8741
 3726SOL    HW211999   2.857   2.678   3.396 -0.5674  0.2373 -0.5857
 3727SOL     OW12000   4.561   3.162   3.189 -0.3004  0.0231  0.3341
 3727SOL    HW112001   4.550   3.243   3.131 -0.2291  0.4249  0.8790
 3727SOL    HW212002   4.658   3.138   3.195 -0.2994  0.0342  0.3663
 3728SOL     OW12003   4.497   4.911   1.392  0.1151 -0.3783 -0.2507
 3728SOL    HW112004   4.429   4.928   1.320  1.5165 -0.5707 -1.6639
 3728SOL    HW212005   4.562   4.842   1.361  2.8982  2.0771 -0.3246
 3729SOL     OW12006   1.504   4.238   1.989 -0.7619  0.0853 -0.0242
 3729SOL    HW112007   1.519   4.236   2.088 -1.4159  0.1970  0.0753
 3729SOL    HW212008   1.406   4.236   1.969 -0.6157 -1.0731 -0.7086
 3730SOL     OW12009   5.977   4.870   4.887  0.7002 -0.6029  0.2287
 3730SOL    HW112010   5.882   4.841   4.881  0.4334  0.5786 -3.0786
 3730SOL    HW212011   6.028   4.832   4.810  2.3971  0.5478  0.7293
 3731SOL     OW12012   3.578   5.590   2.173  0.2570 -0.1978 -0.1722
 3731SOL    HW112013   3.603   5.509   2.119 -0.0826  0.1129 -0.8136
 3731SOL    HW212014   3.594   5.572   2.270  0.2685 -1.0024 -0.3147
 3732SOL     OW12015   1.073   0.409   4.296 -0.8096  0.2457  0.0443
 3732SOL    HW112016   1.168   0.413   4.328 -0.3895  0.3812 -1.1529
 3732SOL    HW212017   1.014   0.382   4.371  0.1465  0.3991  0.8795
 3733SOL     OW12018   1.937   3.691   1.153 -0.0689  0.5105  0.8860
 3733SOL    HW112019   2.032   3.668   1.174 -0.6335 -0.7944  2.1048
 3733SOL    HW212020   1.911   3.774   1.203 -0.0033  0.0418  1.7074
 3734SOL     OW12021   5.357   0.331   5.098  0.6733  0.0668 -0.2118
 3734SOL    HW112022   5.258   0.329   5.088  0.9029 -2.3545 -3.7880
 3734SOL    HW212023   5.384   0.281   5.181 -1.0174 -0.4427  0.0525
 3735SOL     OW12024   6.421   3.688   0.683 -0.3815 -0.3917 -0.5613
 3735SOL    HW112025   6.447   3.632   0.604 -1.2687  1.2599 -2.1188
 3735SOL    HW212026   6.325   3.714   0.675 -1.0286 -1.6472  2.0671
 3736SOL     OW12027   0.192   4.153   3.847 -0.4611 -0.0175 -0.0008
 3736SOL    HW112028   0.209   4.251   3.856  0.2991 -0.0352 -0.9835
 3736SOL    HW212029   0.195   4.128   3.750 -0.3228 -1.0615  0.2584
 3737SOL     OW12030   2.409   2.483   3.686  0.2882 -0.5014 -0.1496
 3737SOL    HW112031   2.470   2.500   3.763  1.2790 -2.0034 -0.5722
 3737SOL    HW212032   2.361   2.396   3.699  0.7887 -0.9941 -1.4138
 3738SOL     OW12033   1.143   0.297   6.231  0.6287 -0.1559  0.6230
 3738SOL    HW112034   1.199   0.309   6.150  0.4266 -0.0759  0.4938
 3738SOL    HW212035   1.130   0.385   6.276  0.6063 -0.1745  0.6536
 3739SOL     OW12036   3.953   2.207   2.409 -0.0236 -0.5694 -0.0601
 3739SOL    HW112037   3.962   2.141   2.334  1.4488  0.8666 -1.1913
 3739SOL    HW212038   4.039   2.213   2.459  0.3231  1.5464 -0.8686
 3740SOL     OW12039   1.869   0.656   5.614 -0.3092  0.9798  0.9203
 3740SOL    HW112040   1.911   0.731   5.665  0.7979  0.1425  1.2778
 3740SOL    HW212041   1.809   0.604   5.675  1.3458 -0.2821  1.5578
 3741SOL     OW12042   2.710   0.569   5.500 -0.4441 -0.4266 -0.3339
 3741SOL    HW112043   2.696   0.665   5.528 -1.0717 -0.5135 -0.3339
 3741SOL    HW212044   2.637   0.513   5.539  1.4382 -1.3856  2.0445
 3742SOL     OW12045   1.501   2.520   0.275 -0.4052 -0.2251 -0.3199
 3742SOL    HW112046   1.544   2.521   0.185 -0.4577  0.7729 -0.3444
 3742SOL    HW212047   1.494   2.426   0.307 -1.3496 -0.7353 -1.8340
 3743SOL     OW12048   0.931   5.053   5.790 -0.3533  0.0830  0.1180
 3743SOL    HW112049   0.978   5.014   5.870  1.2714  1.1657 -0.2521
 3743SOL    HW212050   0.977   5.138   5.763 -1.1884  0.0170 -1.6553
 3744SOL     OW12051   0.562   2.076   1.346 -0.3050 -0.4093 -0.1262
 3744SOL    HW112052   0.661   2.066   1.352  0.0087  1.4823 -1.3559
 3744SOL    HW212053   0.529   2.035   1.260 -0.0123  2.0140 -1.5229
 3745SOL     OW12054   2.693   5.267   4.018  0.3320  0.4288  0.1669
 3745SOL    HW112055   2.698   5.366   4.001 -1.4267  0.3199 -1.3950
 3745SOL    HW212056   2.648   5.251   4.106  0.6666  1.0274  0.4563
 3746SOL     OW12057   1.104   0.041   4.415 -0.5087  0.0683 -0.0420
 3746SOL    HW112058   1.048  -0.000   4.344 -0.4647 -0.8617  0.4676
 3746SOL    HW212059   1.176  -0.022   4.442 -0.5088  0.4458  0.8330
 3747SOL     OW12060   0.430   2.674   1.747  0.5725  0.0766  0.0839
 3747SOL    HW112061   0.380   2.606   1.802  1.4574 -0.1472  0.6425
 3747SOL    HW212062   0.411   2.765   1.783 -0.0952  0.0829 -0.2501
 3748SOL     OW12063   4.991   4.422   2.761  0.0957  0.0361  0.6993
 3748SOL    HW112064   4.909   4.408   2.705 -0.6563  2.4084  1.1115
 3748SOL    HW212065   5.071   4.388   2.711 -0.7571  0.5427 -1.1047
 3749SOL     OW12066   1.768   6.166   5.620 -0.2952 -0.3730  0.2150
 3749SOL    HW112067   1.761   6.258   5.660  0.5430 -0.5926  0.8970
 3749SOL    HW212068   1.831   6.169   5.542 -2.0817  0.0999 -1.2808
 3750SOL     OW12069   4.577   5.715   0.771  0.4048  0.9621  0.2797
 3750SOL    HW112070   4.486   5.675   0.785  1.6128 -2.2035 -0.1004
 3750SOL    HW212071   4.573   5.780   0.695 -1.4096  0.4225 -0.1469
 3751SOL     OW12072   4.005   5.786   6.312  0.0601  0.5774  0.1533
 3751SOL    HW112073   4.097   5.753   6.293  0.0114  1.9792 -3.1980
 3751SOL    HW212074   3.947   5.771   6.233 -1.1940  4.2279  0.1821
 3752SOL     OW12075   6.145   4.033   3.898 -0.3389 -0.6234  0.0920
 3752SOL    HW112076   6.165   3.941   3.934 -0.9494 -0.6385  0.4219
 3752SOL    HW212077   6.228   4.074   3.863  0.0339 -1.1242  0.3713
 3753SOL     OW12078   3.798   0.257   4.818 -0.0331 -0.0504  0.0723
 3753SOL    HW112079   3.703   0.282   4.800  0.5348  1.4943 -1.1378
 3753SOL    HW212080   3.818   0.169   4.776 -0.5860  0.2622 -0.8795
 3754SOL     OW12081   0.127   3.656   4.435  0.2589 -0.4655 -0.8921
 3754SOL    HW112082   0.085   3.708   4.509 -1.4262 -0.7156 -1.6197
 3754SOL    HW212083   0.212   3.614   4.468 -1.3195 -2.0393  1.4681
 3755SOL     OW12084   4.975   1.615   5.264 -0.1116  0.0019  0.3496
 3755SOL    HW112085   4.986   1.524   5.224  0.0093  0.2557 -0.2073
 3755SOL    HW212086   4.878   1.638   5.269 -0.0890  0.5540 -1.1715
 3756SOL     OW12087   0.589   5.150   3.343 -0.4049 -0.5314 -0.2942
 3756SOL    HW112088   0.597   5.219   3.415 -1.3189  0.2829 -0.9533
 3756SOL    HW212089   0.680   5.123   3.313 -0.0142 -0.5569  0.8457
 3757SOL     OW12090   1.621   5.284   3.383  0.2952  0.0628  0.3740
 3757SOL    HW112091   1.656   5.373   3.356 -1.9802  0.9488  0.1426
 3757SOL    HW212092   1.601   5.229   3.302  0.0522  0.0308  0.4529
 3758SOL     OW12093   0.150   6.729   1.138  0.3257 -0.3628 -0.2314
 3758SOL    HW112094   0.130   6.789   1.215 -1.4568 -1.1713 -0.0130
 3758SOL    HW212095   0.244   6.745   1.106  0.1791  1.9049  0.3320
 3759SOL     OW12096   6.658   1.282   3.530 -0.3312  0.2479 -0.6466
 3759SOL    HW112097   6.559   1.291   3.521 -0.3289  0.5748 -0.3431
 3759SOL    HW212098   6.702   1.368   3.507 -0.0885 -0.0157 -1.2066
 3760SOL     OW12099   0.826   6.254   0.331  0.3522 -0.3399 -0.0748
 3760SOL    HW112100   0.798   6.289   0.242  0.9081 -1.8104 -0.8586
 3760SOL    HW212101   0.920   6.282   0.350  0.2921 -0.1728 -0.0099
 3761SOL     OW12102   5.837   5.192   1.893 -0.0322  0.0312  0.0682
 3761SOL    HW112103   5.813   5.105   1.851 -0.1295  0.5509 -0.9894
 3761SOL    HW212104   5.782   5.206   1.976 -0.9330 -0.3312 -0.4584
 3762SOL     OW12105   5.977   5.460   0.950 -0.7238 -0.2936 -0.3677
 3762SOL    HW112106   6.069   5.498   0.955 -0.8752  0.2437 -1.3146
 3762SOL    HW212107   5.980   5.370   0.907 -0.4991 -0.8699  0.8155
 3763SOL     OW12108   4.575   3.022   1.046  0.4358 -0.0241  0.7988
 3763SOL    HW112109   4.488   3.038   1.092 -0.5718 -1.4321 -0.5178
 3763SOL    HW212110   4.615   2.936   1.078  0.1736 -0.5543 -0.2499
 3764SOL     OW12111   0.227   1.294   6.898  0.0808 -0.2786  0.7068
 3764SOL    HW112112   0.137   1.337   6.909 -0.7446 -1.8784  0.4617
 3764SOL    HW212113   0.226   1.203   6.939  1.4398 -0.5144  0.2502
 3765SOL     OW12114   0.194   2.783   5.967  0.3943 -0.3596 -0.7136
 3765SOL    HW112115   0.290   2.775   5.993  0.0667 -2.7929  0.0002
 3765SOL    HW212116   0.144   2.833   6.038  0.1781 -3.9075  1.9871
 3766SOL     OW12117   6.272   2.925   1.317 -0.8033 -0.8438 -0.6271
 3766SOL    HW112118   6.202   2.898   1.250 -0.1121 -1.1440 -1.2439
 3766SOL    HW212119   6.359   2.885   1.290 -0.2423  0.1357 -0.2737
 3767SOL     OW12120   6.543   3.471   4.705  0.2348 -0.1393 -0.4445
 3767SOL    HW112121   6.547   3.427   4.616  0.4102  0.4416 -0.7377
 3767SOL    HW212122   6.507   3.407   4.773  1.0761 -0.9294 -0.7225
 3768SOL     OW12123   5.738   4.903   2.733 -0.2963  0.4897 -0.0832
 3768SOL    HW112124   5.790   4.957   2.800 -0.4405  0.3794  0.1254
 3768SOL    HW212125   5.720   4.812   2.772  1.6536 -0.4442 -1.1673
 3769SOL     OW12126   5.629   4.837   4.708 -0.3077  0.2323  0.6579
 3769SOL    HW112127   5.629   4.863   4.612 -1.8828  1.9587  1.0704
 3769SOL    HW212128   5.660   4.915   4.763 -0.8599 -0.2291  1.6404
 3770SOL     OW12129   0.329   3.849   5.364  0.0682  0.1909 -0.2428
 3770SOL    HW112130   0.372   3.931   5.328 -0.7873  0.6744 -0.1933
 3770SOL    HW212131   0.388   3.809   5.435 -0.3181  1.7526  0.9972
 3771SOL     OW12132   2.329   1.725   2.760 -0.3315 -0.3865 -0.0663
 3771SOL    HW112133   2.415   1.774   2.762 -1.0781  1.1849 -2.6438
 3771SOL    HW212134   2.255   1.786   2.788 -1.1185 -0.2790 -2.1421
 3772SOL     OW12135   2.986   6.835   1.222  0.2960  0.0187  0.6841
 3772SOL    HW112136   3.026   6.758   1.271 -0.1083 -1.2749 -0.9043
 3772SOL    HW212137   3.057   6.882   1.170  0.3292 -0.0810  0.6382
 3773SOL     OW12138   2.470   6.572   5.695 -0.6675  0.2028 -0.2274
 3773SOL    HW112139   2.458   6.660   5.740 -1.2019  0.7806 -1.4524
 3773SOL    HW212140   2.403   6.563   5.621  0.4680 -0.5424 -1.1883
 3774SOL     OW12141   2.848   4.672   6.154  0.5653 -0.1123 -0.3947
 3774SOL    HW112142   2.816   4.736   6.225  2.1645  1.8455 -1.3110
 3774SOL    HW212143   2.948   4.670   6.154  0.6009 -0.3250 -2.3314
 3775SOL     OW12144   6.279   3.438   3.819 -0.3798 -0.0838 -0.1047
 3775SOL    HW112145   6.327   3.355   3.846 -2.8704 -1.3889  0.5773
 3775SOL    HW212146   6.297   3.456   3.722  0.9393 -0.8539 -0.0347
 3776SOL     OW12147   5.706   3.747   1.178 -0.2587  0.5181 -0.0789
 3776SOL    HW112148   5.731   3.829   1.126  1.7248  0.6564  0.9765
 3776SOL    HW212149   5.788   3.710   1.222 -1.6143 -0.4114  1.7635
 3777SOL     OW12150   5.646   1.540   6.491 -0.7082  0.7550  0.1420
 3777SOL    HW112151   5.548   1.532   6.471 -0.5340  1.2220 -0.9500
 3777SOL    HW212152   5.699   1.500   6.416 -0.0555  0.2247  0.8693
 3778SOL     OW12153   3.521   4.538   5.910 -1.1059  0.3091 -0.2757
 3778SOL    HW112154   3.553   4.565   5.820 -0.4455 -0.8287 -0.4078
 3778SOL    HW212155   3.583   4.470   5.949 -1.6278  0.4429  0.8528
 3779SOL     OW12156   1.239   0.391   5.848  1.0365  0.1367  0.1395
 3779SOL    HW112157   1.259   0.344   5.763  1.7581 -0.8242  0.8272
 3779SOL    HW212158   1.146   0.368   5.878  0.9492  0.1028 -0.1460
 3780SOL     OW12159   4.287   0.728   2.577 -0.3055  0.1119 -0.6332
 3780SOL    HW112160   4.343   0.656   2.536 -1.4728 -0.8033 -0.6607
 3780SOL    HW212161   4.291   0.722   2.676 -0.1802  0.1865 -0.6320
 3781SOL     OW12162   0.831   1.940   5.074  0.0678 -0.0906  0.0368
 3781SOL    HW112163   0.898   2.014   5.082 -0.5096  0.5457 -0.7179
 3781SOL    HW212164   0.777   1.954   4.991 -0.8656 -0.6974  0.5234
 3782SOL     OW12165   1.535   6.542   5.657 -0.1902 -0.0115  0.3993
 3782SOL    HW112166   1.452   6.504   5.698  1.0430 -0.3119  2.7807
 3782SOL    HW212167   1.544   6.638   5.683  1.0197 -0.4142  1.5803
 3783SOL     OW12168   6.857   3.512   1.382 -0.6826 -0.1830  0.0040
 3783SOL    HW112169   6.873   3.548   1.474  1.3730  1.4983 -0.9381
 3783SOL    HW212170   6.783   3.563   1.338 -2.0743 -1.3668  0.8398
 3784SOL     OW12171   3.112   4.866   4.138 -0.2756 -0.3839  0.0283
 3784SOL    HW112172   3.022   4.822   4.139 -0.1949 -0.5567 -0.2388
 3784SOL    HW212173   3.154   4.858   4.229 -0.4186 -0.5264  0.0821
 3785SOL     OW12174   5.265   0.590   0.638 -0.2063 -0.5762 -0.2269
 3785SOL    HW112175   5.203   0.663   0.667  0.1792 -0.4853  0.3934
 3785SOL    HW212176   5.218   0.502   0.645 -0.9187 -0.3466 -1.6623
 3786SOL     OW12177   3.456   1.745   3.769 -0.3851 -0.9232  0.0853
 3786SOL    HW112178   3.491   1.654   3.746  1.1851 -0.1742 -0.5666
 3786SOL    HW212179   3.474   1.764   3.866  2.7304  0.1212 -0.5840
 3787SOL     OW12180   4.610   4.767   2.244 -0.2345  0.4620 -0.6543
 3787SOL    HW112181   4.692   4.775   2.188  0.2850  1.5869  0.2298
 3787SOL    HW212182   4.555   4.850   2.235  1.1393  1.8249  2.4313
 3788SOL     OW12183   1.822   4.264   4.510  0.0778 -0.3766  0.7064
 3788SOL    HW112184   1.903   4.301   4.556 -0.9733 -0.4489  2.7596
 3788SOL    HW212185   1.746   4.329   4.519 -0.0237 -0.1175 -1.5555
 3789SOL     OW12186   0.463   3.271   5.201 -0.0823 -0.0075 -0.3703
 3789SOL    HW112187   0.431   3.350   5.149  0.9844  0.4089 -0.4373
 3789SOL    HW212188   0.385   3.215   5.228 -0.8507  1.0028 -0.4208
 3790SOL     OW12189   5.988   4.271   3.837  0.0199  0.0709 -0.0162
 3790SOL    HW112190   5.894   4.237   3.847  0.6268 -1.5395  0.6136
 3790SOL    HW212191   6.052   4.195   3.847  1.4505  1.3117  0.7249
 3791SOL     OW12192   6.469   6.205   5.807 -0.0817  0.0438  0.0881
 3791SOL    HW112193   6.393   6.140   5.800  0.7642 -0.9676  0.0712
 3791SOL    HW212194   6.495   6.235   5.715  0.1403 -0.3351  0.0237
 3792SOL     OW12195   5.368   2.468   0.707  0.1687  0.2192 -0.8407
 3792SOL    HW112196   5.282   2.517   0.690 -0.2384  0.0572  0.6374
 3792SOL    HW212197   5.418   2.458   0.621 -1.6403 -0.3504 -1.8907
 3793SOL     OW12198   2.618   4.214   0.755  0.3972  0.0021  0.0542
 3793SOL    HW112199   2.622   4.186   0.851  0.3443  0.5587  0.2259
 3793SOL    HW212200   2.522   4.221   0.727  0.3809 -2.3182 -0.7064
 3794SOL     OW12201   0.642   4.807   0.217  0.6007 -0.0896  0.1207
 3794SOL    HW112202   0.710   4.736   0.232 -0.3670 -0.9289  0.7068
 3794SOL    HW212203   0.663   4.886   0.275  0.7504 -0.5804  0.7490
 3795SOL     OW12204   2.014   5.763   6.133  0.2812 -0.3203 -0.1534
 3795SOL    HW112205   2.019   5.842   6.072  1.5120 -0.1330  0.1360
 3795SOL    HW212206   2.046   5.791   6.224  2.8244 -1.6034 -0.5659
 3796SOL     OW12207   4.489   6.946   3.125  0.2431  0.1759  0.3501
 3796SOL    HW112208   4.563   7.012   3.111  0.4597 -0.1304  0.0389
 3796SOL    HW212209   4.451   6.957   3.217 -0.2054  1.2237  0.0541
 3797SOL     OW12210   0.930   3.957   2.464 -0.3159  0.2530 -0.5175
 3797SOL    HW112211   0.971   3.872   2.431 -0.7829 -0.1609 -0.0621
 3797SOL    HW212212   0.995   4.003   2.526 -0.1079  0.1766 -0.6765
 3798SOL     OW12213   2.294   2.264   2.513 -0.6465 -0.3846 -0.0448
 3798SOL    HW112214   2.215   2.211   2.480  0.8088 -3.7720  1.4320
 3798SOL    HW212215   2.376   2.234   2.465  0.4667 -0.6469  1.9264
 3799SOL     OW12216   5.670   2.569   2.432 -0.1641  0.2268  0.1429
 3799SOL    HW112217   5.610   2.544   2.356 -0.2582  0.6166  0.0842
 3799SOL    HW212218   5.614   2.593   2.511 -0.0642 -0.4246  0.4221
 3800SOL     OW12219   2.473   6.826   2.347 -0.1826  0.1398 -0.2245
 3800SOL    HW112220   2.542   6.898   2.337 -0.0045  0.1870  1.1989
 3800SOL    HW212221   2.512   6.751   2.402 -0.9394 -0.2668 -0.2368
 3801SOL     OW12222   5.897   5.819   1.110  0.0297 -0.0339  0.0175
 3801SOL    HW112223   5.865   5.768   1.190  1.1002 -0.5500  0.1363
 3801SOL    HW212224   5.876   5.767   1.027  0.3940 -0.2821  0.0807
 3802SOL     OW12225   1.692   3.352   4.596 -0.2152 -0.1163 -0.2557
 3802SOL    HW112226   1.619   3.420   4.608  0.5810  0.7850 -0.4949
 3802SOL    HW212227   1.764   3.389   4.538  0.4480 -1.0009 -0.0248
 3803SOL     OW12228   5.878   1.368   5.433  0.1047  0.2731 -0.0629
 3803SOL    HW112229   5.882   1.297   5.503 -1.5908  1.1444  0.9781
 3803SOL    HW212230   5.971   1.392   5.404  0.7337 -2.5871 -0.7273
 3804SOL     OW12231   6.872   0.606   0.132  0.1851  0.2181 -0.3460
 3804SOL    HW112232   6.959   0.625   0.177  0.9585 -0.4351 -1.5155
 3804SOL    HW212233   6.876   0.637   0.037 -0.4070 -0.9364 -0.7608
 3805SOL     OW12234   0.132   0.793   1.968 -0.1703  0.9045  0.3040
 3805SOL    HW112235   0.164   0.864   2.031  2.2103 -0.8842  1.2598
 3805SOL    HW212236   0.156   0.819   1.874  0.1480  1.6031  0.5670
 3806SOL     OW12237   6.427   0.274   0.315  0.1603  0.3592 -0.2313
 3806SOL    HW112238   6.339   0.274   0.361  0.1048  1.5244 -0.3117
 3806SOL    HW212239   6.499   0.301   0.379  0.6253 -1.5125  0.0942
 3807SOL     OW12240   4.041   1.494   2.065  0.8814 -0.3523  0.2713
 3807SOL    HW112241   4.004   1.418   2.013 -1.3363 -0.7552  2.2928
 3807SOL    HW212242   4.134   1.471   2.096  0.8441 -1.5569 -0.4226
 3808SOL     OW12243   6.530   1.296   3.194  0.1695  0.5757 -0.1670
 3808SOL    HW112244   6.435   1.290   3.224  0.4032  0.6801  0.6009
 3808SOL    HW212245   6.540   1.251   3.105 -0.5033  0.1529 -0.0297
 3809SOL     OW12246   1.919   1.935   0.565 -0.8437 -0.2314  0.4824
 3809SOL    HW112247   1.960   1.915   0.654  0.6166 -2.8209 -0.6641
 3809SOL    HW212248   1.990   1.930   0.494 -2.4504 -0.9195 -1.1323
 3810SOL     OW12249   4.831   4.994   5.309 -0.3930 -0.4967 -0.0064
 3810SOL    HW112250   4.758   4.927   5.325 -0.6410 -0.4463 -0.7836
 3810SOL    HW212251   4.799   5.085   5.337  0.9262 -1.0247  3.6485
 3811SOL     OW12252   4.046   2.915   0.665 -0.3984  0.4911  0.8915
 3811SOL    HW112253   4.037   2.816   0.654 -1.0761  0.5154  1.1687
 3811SOL    HW212254   3.981   2.947   0.734 -0.6314  1.2225  0.3496
 3812SOL     OW12255   6.132   1.215   4.901  0.3404  0.2246  0.1366
 3812SOL    HW112256   6.202   1.281   4.927 -1.3615  1.9195  0.6226
 3812SOL    HW212257   6.085   1.183   4.984 -1.6308  1.6685 -0.3444
 3813SOL     OW12258   6.835   0.012   6.292 -0.3325  0.8492  0.5434
 3813SOL    HW112259   6.775  -0.068   6.287  1.1782 -0.4645  2.0124
 3813SOL    HW212260   6.816   0.073   6.214 -1.3263 -1.1281 -0.8355
 3814SOL     OW12261   4.203   4.813   3.082  0.0043  0.3528  0.3364
 3814SOL    HW112262   4.301   4.831   3.070  0.4146 -1.3998  0.7904
 3814SOL    HW212263   4.184   4.719   3.056 -1.3073  0.2402  1.6205
 3815SOL     OW12264   0.851   2.269   1.837  0.2879  0.2484  0.5492
 3815SOL    HW112265   0.878   2.365   1.827  0.2039  0.3309  1.0836
 3815SOL    HW212266   0.865   2.222   1.750  0.5538  0.6876  0.3478
 3816SOL     OW12267   3.845   2.052   1.025  0.4776 -0.1467 -0.3128
 3816SOL    HW112268   3.756   2.052   0.978 -0.4947  0.1454  1.4197
 3816SOL    HW212269   3.853   1.969   1.080  1.5180 -0.4100 -0.8371
 3817SOL     OW12270   2.586   1.753   4.095 -0.6013  0.0089 -0.7260
 3817SOL    HW112271   2.608   1.656   4.104  0.1890  0.1324 -1.2473
 3817SOL    HW212272   2.670   1.806   4.083 -0.7865  1.0823  1.9964
 3818SOL     OW12273   0.670   0.579   1.526 -0.2793 -0.6873 -0.3275
 3818SOL    HW112274   0.764   0.573   1.559 -0.2331 -0.0035 -0.3071
 3818SOL    HW212275   0.607   0.554   1.599 -0.2078  1.5231  0.5673
 3819SOL     OW12276   3.508   4.801   2.893  0.4999  0.6826  0.0700
 3819SOL    HW112277   3.547   4.797   2.984  1.3757  1.8019 -0.2183
 3819SOL    HW212278   3.578   4.777   2.825 -0.3410 -0.8647 -0.2757
 3820SOL     OW12279   5.353   3.880   6.881  0.1108  0.0773 -0.5466
 3820SOL    HW112280   5.257   3.857   6.869  0.4650 -0.8645 -1.7737
 3820SOL    HW212281   5.406   3.797   6.897  0.8400  0.4811 -0.7740
 3821SOL     OW12282   2.895   3.011   0.859  0.4703 -0.2527 -1.1416
 3821SOL    HW112283   2.866   3.032   0.953  1.4811  0.4328 -0.9602
 3821SOL    HW212284   2.970   2.945   0.861  0.0450 -0.7618 -1.5223
 3822SOL     OW12285   6.443   1.161   6.965 -0.1242 -0.5433  0.4992
 3822SOL    HW112286   6.380   1.204   6.900 -0.1233  1.8830  1.9946
 3822SOL    HW212287   6.408   1.171   7.058 -0.0647 -3.8152  0.9908
 3823SOL     OW12288   5.865   0.120   5.465 -0.0317  0.2046  0.2598
 3823SOL    HW112289   5.899   0.163   5.549 -1.2124  0.9897  0.3628
 3823SOL    HW212290   5.807   0.042   5.490 -1.1681  1.0150  0.2392
 3824SOL     OW12291   5.497   3.169   2.488  0.4258 -0.1788  0.9860
 3824SOL    HW112292   5.531   3.100   2.425 -1.4534  1.0384 -1.5337
 3824SOL    HW212293   5.400   3.186   2.471  0.7637  3.0040  1.4610
 3825SOL     OW12294   4.723   2.106   5.301  0.2680  0.3320  0.4017
 3825SOL    HW112295   4.695   2.019   5.341 -2.3786  0.5043 -0.7889
 3825SOL    HW212296   4.819   2.101   5.273  0.0199 -2.4798 -0.2893
 3826SOL     OW12297   0.048   0.445   5.234 -0.6840  0.1094 -0.1339
 3826SOL    HW112298   0.116   0.413   5.168 -0.8951 -0.3093 -0.1534
 3826SOL    HW212299   0.045   0.382   5.312 -0.8356  0.2934  0.0146
 3827SOL     OW12300   6.543   6.115   2.532 -0.6269  0.6808  0.6940
 3827SOL    HW112301   6.643   6.114   2.536 -0.6790  0.0895  2.1515
 3827SOL    HW212302   6.512   6.059   2.454  0.1776  1.5967 -0.3060
 3828SOL     OW12303   6.746   5.055   3.458  0.4148  0.3561 -0.0490
 3828SOL    HW112304   6.738   5.089   3.364 -1.0023 -0.0415 -0.1061
 3828SOL    HW212305   6.753   5.132   3.521 -0.6731  0.7111 -0.3388
 3829SOL     OW12306   0.497   2.347   2.947 -0.1368 -0.4387 -0.0296
 3829SOL    HW112307   0.432   2.360   2.872  1.0979  1.8037 -0.8013
 3829SOL    HW212308   0.474   2.410   3.022  0.5753 -0.3135  0.0901
 3830SOL     OW12309   5.295   3.316   6.714  0.7195 -0.2649 -0.0478
 3830SOL    HW112310   5.354   3.322   6.794 -0.3879  3.5399  0.6741
 3830SOL    HW212311   5.284   3.407   6.673 -1.4349 -1.5078 -2.5410
 3831SOL     OW12312   3.205   0.278   4.685 -0.2401 -0.6051 -0.6148
 3831SOL    HW112313   3.231   0.190   4.645 -0.2146 -0.9297  0.0901
 3831SOL    HW212314   3.253   0.291   4.771 -1.3325 -0.5528  0.0064
 3832SOL     OW12315   2.512   1.527   4.618 -0.1445 -0.1896  0.3595
 3832SOL    HW112316   2.597   1.486   4.584 -0.2022  0.1439 -0.2075
 3832SOL    HW212317   2.447   1.535   4.542  0.4402  2.4669  0.0279
 3833SOL     OW12318   3.360   6.775   0.668  0.5814  0.1713 -0.1735
 3833SOL    HW112319   3.398   6.868   0.661  0.9216  0.2258  1.8954
 3833SOL    HW212320   3.266   6.775   0.634  0.0708  1.6271  1.1135
 3834SOL     OW12321   4.667   3.536   3.458  0.2526  0.5782  0.2367
 3834SOL    HW112322   4.762   3.537   3.427  0.1207 -0.2807 -0.2132
 3834SOL    HW212323   4.641   3.629   3.486  1.2244  0.8203  0.3866
 3835SOL     OW12324   3.336   2.072   6.321 -0.3518 -0.2447  0.2197
 3835SOL    HW112325   3.422   2.025   6.340  0.5819 -0.4896 -3.7879
 3835SOL    HW212326   3.344   2.168   6.349  1.7122  0.0271 -1.0859
 3836SOL     OW12327   4.262   3.281   0.806  0.1156 -0.3157  0.5114
 3836SOL    HW112328   4.241   3.214   0.877  1.0196 -0.3846  0.7242
 3836SOL    HW212329   4.225   3.250   0.719  0.8915 -1.3054  0.5123
 3837SOL     OW12330   0.517   1.150   0.501 -0.1076  0.5167  0.0691
 3837SOL    HW112331   0.613   1.177   0.497  0.1780 -0.0582  1.8907
 3837SOL    HW212332   0.460   1.232   0.517 -0.0727  1.0046 -2.0164
 3838SOL     OW12333   0.092   6.015   1.957  0.0507 -0.2397 -0.2051
 3838SOL    HW112334   0.094   6.045   1.862 -2.1154 -1.4258 -0.6992
 3838SOL    HW212335   0.143   5.929   1.966  0.9963  0.3209 -0.0883
 3839SOL     OW12336   2.112   3.470   2.025 -0.4513 -0.2714  0.4232
 3839SOL    HW112337   2.140   3.396   2.086  0.2226  0.5836  1.1772
 3839SOL    HW212338   2.072   3.431   1.942  0.1263 -1.4844  0.6888
 3840SOL     OW12339   4.699   2.612   3.570 -0.1228 -0.0139  0.0171
 3840SOL    HW112340   4.647   2.561   3.501  0.4709 -1.7700  0.8055
 3840SOL    HW212341   4.637   2.643   3.643 -0.6973  1.5652 -1.0737
 3841SOL     OW12342   2.774   0.750   0.920 -0.0709 -0.3983 -0.2823
 3841SOL    HW112343   2.852   0.690   0.934 -0.5262 -0.7898  0.6656
 3841SOL    HW212344   2.797   0.820   0.854  1.2414 -0.2323  0.3294
 3842SOL     OW12345   4.590   5.557   4.590  0.3624  0.3292  0.0266
 3842SOL    HW112346   4.607   5.583   4.685  0.6056 -0.8301  0.3143
 3842SOL    HW212347   4.675   5.521   4.550 -0.4813 -2.3545  0.4402
 3843SOL     OW12348   0.189   2.449   3.847 -0.1187  0.0956  0.1587
 3843SOL    HW112349   0.259   2.485   3.786  0.0809 -0.4284  0.0754
 3843SOL    HW212350   0.127   2.388   3.797  0.1711 -0.5033  0.5195
 3844SOL     OW12351   3.958   2.670   2.570 -0.5227  0.2999 -0.5805
 3844SOL    HW112352   3.869   2.625   2.568 -0.1587 -0.4358 -0.5842
 3844SOL    HW212353   4.011   2.644   2.489  0.6033 -1.2125  0.5756
 3845SOL     OW12354   5.759   4.785   1.561 -1.0968 -0.0579  0.0483
 3845SOL    HW112355   5.663   4.772   1.586 -0.9216 -0.4606  0.5488
 3845SOL    HW212356   5.771   4.875   1.520 -1.5577  0.2915  0.6729
 3846SOL     OW12357   5.788   6.778   6.136 -0.2165 -0.3505  0.5613
 3846SOL    HW112358   5.701   6.813   6.100  0.5234  0.6436 -0.3223
 3846SOL    HW212359   5.773   6.687   6.175 -1.2922 -0.9900 -1.2104
 3847SOL     OW12360   0.436   2.361   5.731 -0.6529 -0.7879  0.1570
 3847SOL    HW112361   0.354   2.383   5.679 -1.3344 -0.5910  1.2623
 3847SOL    HW212362   0.516   2.403   5.688 -1.4567  0.9942  0.3097
 3848SOL     OW12363   6.930   0.433   6.296 -0.2901 -0.3752 -0.3179
 3848SOL    HW112364   6.836   0.466   6.309 -0.3150 -0.8973  0.9345
 3848SOL    HW212365   6.930   0.356   6.232 -0.6542 -0.0885 -0.6677
 3849SOL     OW12366   4.651   4.715   6.061  0.3754  0.5625 -0.0394
 3849SOL    HW112367   4.591   4.726   6.141 -0.3563 -0.0547 -0.4868
 3849SOL    HW212368   4.714   4.639   6.077  1.0049  1.1554  0.3981
 3850SOL     OW12369   6.090   3.670   0.349 -0.2605 -0.0934  0.3294
 3850SOL    HW112370   6.137   3.756   0.366  0.4778 -0.7351  1.7440
 3850SOL    HW212371   6.140   3.618   0.279  0.8885 -0.5540  1.4659
 3851SOL     OW12372   2.232   1.088   2.427 -0.1658 -0.0192  0.0608
 3851SOL    HW112373   2.209   1.093   2.524 -1.1111  0.2683 -0.1666
 3851SOL    HW212374   2.328   1.111   2.415  0.0831 -0.5490  0.9782
 3852SOL     OW12375   4.402   2.430   3.848  0.1697 -0.2798 -0.6831
 3852SOL    HW112376   4.354   2.351   3.888  2.4273 -2.2717 -1.6188
 3852SOL    HW212377   4.456   2.475   3.919 -2.3077  1.4801  0.1952
 3853SOL     OW12378   0.671   1.648   3.912 -0.2874 -0.1638  0.5025
 3853SOL    HW112379   0.715   1.584   3.976 -0.2780  0.1529  0.8165
 3853SOL    HW212380   0.626   1.596   3.839  1.6824 -0.5022 -0.5574
 3854SOL     OW12381   0.637   2.580   0.155 -0.0788 -0.3942 -0.0806
 3854SOL    HW112382   0.643   2.600   0.253  0.3136  1.8493 -0.5173
 3854SOL    HW212383   0.544   2.551   0.133 -0.9422  1.8038  0.5204
 3855SOL     OW12384   5.828   4.020   0.220 -0.4001 -0.0768  0.0188
 3855SOL    HW112385   5.926   4.009   0.206  0.2799  2.8093  1.7595
 3855SOL    HW212386   5.803   4.116   0.209 -3.1997 -0.8166 -1.0119
 3856SOL     OW12387   2.611   6.165   6.211  0.2900  0.0761 -0.1403
 3856SOL    HW112388   2.653   6.115   6.287 -0.4367 -1.4818 -0.7143
 3856SOL    HW212389   2.672   6.161   6.131 -0.2790 -0.9733 -0.5473
 3857SOL     OW12390   2.085   6.278   4.850 -0.2368 -0.4745 -0.4167
 3857SOL    HW112391   2.165   6.219   4.836  1.3064  1.4580 -0.1836
 3857SOL    HW212392   2.073   6.294   4.948  0.1464  0.5754 -0.5279
 3858SOL     OW12393   6.391   6.141   1.591  0.0489 -0.6996 -0.2917
 3858SOL    HW112394   6.417   6.178   1.502  0.2210  0.7448  0.3232
 3858SOL    HW212395   6.472   6.132   1.649 -0.3727  1.1785  0.6876
 3859SOL     OW12396   3.355   0.878   5.927 -0.2304  0.5298  0.4097
 3859SOL    HW112397   3.341   0.969   5.966  1.0009  0.9939 -0.1572
 3859SOL    HW212398   3.437   0.879   5.869 -0.7804 -0.6891 -0.4337
 3860SOL     OW12399   0.308   0.659   2.404 -0.2759 -0.6752  0.0004
 3860SOL    HW112400   0.226   0.717   2.406  0.4283  0.3166  0.9420
 3860SOL    HW212401   0.305   0.595   2.481  0.3326  0.0613  0.6357
 3861SOL     OW12402   4.957   3.400   6.464 -0.4585  0.0592  0.0547
 3861SOL    HW112403   4.880   3.435   6.410  0.0470  0.7304 -0.2493
 3861SOL    HW212404   4.923   3.365   6.551 -0.7792  4.3026  1.9125
 3862SOL     OW12405   1.863   1.906   5.927  0.4469 -0.4156  0.0696
 3862SOL    HW112406   1.885   1.926   6.022 -0.6557 -0.2786  0.3108
 3862SOL    HW212407   1.888   1.811   5.906  1.8982 -0.0566  0.1088
 3863SOL     OW12408   2.530   0.253   6.494  0.6988 -0.1577  0.8175
 3863SOL    HW112409   2.560   0.322   6.560  0.6699 -1.1388  1.8929
 3863SOL    HW212410   2.605   0.231   6.432  1.7449 -1.4059  2.4498
 3864SOL     OW12411   4.754   3.055   6.403 -0.3789 -0.3469  0.1750
 3864SOL    HW112412   4.701   3.022   6.481 -0.1925  0.9754  0.8814
 3864SOL    HW212413   4.749   3.154   6.398  3.2358  0.0243  1.2264
 3865SOL     OW12414   1.196   1.992   2.543 -0.1170  0.6788  0.2878
 3865SOL    HW112415   1.278   1.992   2.600 -0.2616  0.6939  0.5028
 3865SOL    HW212416   1.193   1.909   2.487 -1.0132 -0.4360  1.8560
 3866SOL     OW12417   3.019   0.170   1.588  0.5679  0.3916  0.1963
 3866SOL    HW112418   3.055   0.088   1.542  2.4961  1.8610 -1.0336
 3866SOL    HW212419   2.956   0.217   1.526  1.6584  1.3276 -0.2291
 3867SOL     OW12420   1.458   4.604   0.419 -0.3069  0.2192  0.1951
 3867SOL    HW112421   1.400   4.524   0.412  1.3640 -0.9566 -1.4774
 3867SOL    HW212422   1.537   4.584   0.478 -0.1554  0.8149  0.2114
 3868SOL     OW12423   5.192   3.380   5.795  0.4051 -0.9319 -0.6264
 3868SOL    HW112424   5.185   3.318   5.873 -0.4977 -0.1768 -0.0806
 3868SOL    HW212425   5.168   3.473   5.825  0.3795 -0.5721 -1.7335
 3869SOL     OW12426   3.177   1.691   1.506 -0.0086 -0.2910  0.6734
 3869SOL    HW112427   3.101   1.648   1.555  0.7998 -2.2084  0.3460
 3869SOL    HW212428   3.144   1.771   1.456 -1.5459 -0.3774  1.4879
 3870SOL     OW12429   1.435   6.141   5.175  0.5910 -0.4809 -0.2526
 3870SOL    HW112430   1.379   6.157   5.256  0.4380  0.4178 -0.5300
 3870SOL    HW212431   1.532   6.144   5.199  0.5882  1.3702 -0.3618
 3871SOL     OW12432   4.002   2.164   1.230  0.0951 -0.3301 -0.0114
 3871SOL    HW112433   4.083   2.154   1.171 -0.3319 -0.1922 -0.6305
 3871SOL    HW212434   3.919   2.158   1.174 -0.3780 -2.0626  0.8266
 3872SOL     OW12435   1.178   2.897   1.267 -0.2048 -0.2008  0.2496
 3872SOL    HW112436   1.216   2.953   1.193  0.2615 -0.4321  0.3133
 3872SOL    HW212437   1.137   2.814   1.227 -0.8466  0.1483  0.1588
 3873SOL     OW12438   6.375   6.559   4.067 -0.2757  0.6336 -0.7434
 3873SOL    HW112439   6.414   6.487   4.010 -0.0040 -0.6709  1.0063
 3873SOL    HW212440   6.301   6.604   4.017 -1.5577 -1.9460 -1.3369
 3874SOL     OW12441   2.094   2.792   1.074 -0.0671 -0.1503  0.0987
 3874SOL    HW112442   2.023   2.738   1.120  0.4119 -0.8024  0.0977
 3874SOL    HW212443   2.167   2.731   1.043 -0.2917  0.3105 -1.3831
 3875SOL     OW12444   5.781   1.807   0.860 -0.5339  0.3678  0.0769
 3875SOL    HW112445   5.779   1.770   0.953 -2.0501  0.5202  0.1270
 3875SOL    HW212446   5.827   1.742   0.799  1.4270  0.7380  1.1146
 3876SOL     OW12447   0.883   3.418   2.349 -0.0969  0.1909  0.7063
 3876SOL    HW112448   0.829   3.334   2.353  0.6468 -0.3989 -0.8509
 3876SOL    HW212449   0.978   3.395   2.329 -0.0742  1.4503 -0.8208
 3877SOL     OW12450   4.048   5.702   1.847 -0.2023  0.1895  0.3136
 3877SOL    HW112451   4.059   5.663   1.938  1.2110  0.5654  0.3290
 3877SOL    HW212452   4.029   5.629   1.781  0.4497 -0.3030  0.6555
 3878SOL     OW12453   5.470   6.010   2.072 -0.7218  0.1538  0.6315
 3878SOL    HW112454   5.371   6.001   2.074 -0.8203  1.3629  1.2969
 3878SOL    HW212455   5.507   5.948   2.002 -1.9009 -0.5418  0.6028
 3879SOL     OW12456   0.014   5.249   3.716  0.5098 -0.4871  0.3330
 3879SOL    HW112457   0.036   5.339   3.753 -1.6926  0.6711 -1.0107
 3879SOL    HW212458   0.074   5.228   3.639  0.0310  0.5549 -0.3490
 3880SOL     OW12459   1.471   3.977   0.811 -0.0155  0.5512  0.3204
 3880SOL    HW112460   1.409   4.056   0.816 -0.1181  0.4549  0.6002
 3880SOL    HW212461   1.528   3.975   0.893  0.7571  0.9671 -0.1925
 3881SOL     OW12462   1.826   4.667   4.306 -0.5652  0.1148  0.2160
 3881SOL    HW112463   1.777   4.701   4.226 -0.1120  0.0576 -0.0877
 3881SOL    HW212464   1.916   4.634   4.279  0.3064  1.7328  0.9906
 3882SOL     OW12465   6.704   6.747   6.384 -0.3585 -0.6239  0.8356
 3882SOL    HW112466   6.627   6.685   6.377  0.7573 -2.0672  0.9413
 3882SOL    HW212467   6.781   6.711   6.331  0.1754  0.8900  0.5588
 3883SOL     OW12468   2.679   2.682   1.030  0.2978 -0.1433  0.5640
 3883SOL    HW112469   2.587   2.718   1.013  0.8817  0.1784 -2.5197
 3883SOL    HW212470   2.691   2.596   0.981  1.9848  0.4216 -0.0878
 3884SOL     OW12471   0.163   5.043   6.560  0.3226 -0.2020  0.2163
 3884SOL    HW112472   0.123   5.049   6.652  0.0495  1.1789  0.0349
 3884SOL    HW212473   0.091   5.026   6.493 -0.1611  2.7781 -0.1699
 3885SOL     OW12474   4.589   3.291   6.581  0.5618 -0.2808  0.4398
 3885SOL    HW112475   4.528   3.220   6.616  1.2642 -0.3228  1.6476
 3885SOL    HW212476   4.553   3.327   6.495  0.5490 -2.5883 -0.5954
 3886SOL     OW12477   5.930   5.183   6.580  0.1376 -0.3598  0.0471
 3886SOL    HW112478   5.835   5.161   6.601 -0.1024 -1.8772 -2.2326
 3886SOL    HW212479   5.988   5.152   6.656 -0.8195 -3.6265 -0.3810
 3887SOL     OW12480   0.705   4.551   6.878 -0.1922 -0.4209 -0.2183
 3887SOL    HW112481   0.763   4.623   6.916 -0.5118 -0.4931  0.4156
 3887SOL    HW212482   0.666   4.584   6.791  1.4533 -0.7007 -1.0954
 3888SOL     OW12483   2.400   0.896   1.479 -0.1599 -0.6543 -0.4128
 3888SOL    HW112484   2.314   0.924   1.437 -0.0555  1.5739  0.7505
 3888SOL    HW212485   2.384   0.814   1.535 -0.9613 -1.7053 -2.0912
 3889SOL     OW12486   4.474   1.163   4.052 -0.6431 -0.5494 -0.6945
 3889SOL    HW112487   4.443   1.257   4.066  1.5068  0.0951  0.2974
 3889SOL    HW212488   4.496   1.149   3.955  0.3955  0.4543 -0.6197
 3890SOL     OW12489   3.547   6.691   6.565  0.6012 -0.0873  0.0068
 3890SOL    HW112490   3.465   6.747   6.572 -0.3027 -1.1891 -1.1299
 3890SOL    HW212491   3.626   6.742   6.598 -0.2700  1.6009 -0.3868
 3891SOL     OW12492   3.946   2.002   2.986 -0.3614 -0.4777 -0.4370
 3891SOL    HW112493   3.914   2.090   2.951  0.7809  0.4012  0.6001
 3891SOL    HW212494   3.913   1.928   2.928  0.7868  0.8012 -2.8464
 3892SOL     OW12495   1.153   5.297   3.972  0.2886 -0.1025 -0.3133
 3892SOL    HW112496   1.092   5.374   3.951  0.7577 -0.3737 -2.9574
 3892SOL    HW212497   1.222   5.288   3.900  0.4455 -2.8062  0.0598
 3893SOL     OW12498   2.128   3.161   5.430  0.0719 -0.0675 -0.4169
 3893SOL    HW112499   2.104   3.065   5.447  1.1270 -0.3016 -0.1190
 3893SOL    HW212500   2.228   3.169   5.428 -0.0133  0.9806 -0.7182
 3894SOL     OW12501   4.088   5.492   2.323  0.1725  0.3450  0.4612
 3894SOL    HW112502   4.031   5.534   2.253 -0.7114  1.4330  1.7901
 3894SOL    HW212503   4.074   5.393   2.322 -0.2027  0.4017 -0.5635
 3895SOL     OW12504   5.987   0.191   4.441 -0.4732 -0.8530 -0.2039
 3895SOL    HW112505   6.022   0.186   4.347 -0.8079 -0.0204 -0.3825
 3895SOL    HW212506   5.889   0.210   4.439 -0.7121 -1.9025  0.3157
 3896SOL     OW12507   6.453   3.582   0.419  0.3937 -0.1962  0.0699
 3896SOL    HW112508   6.454   3.677   0.386  0.2638  0.4066  1.6997
 3896SOL    HW212509   6.547   3.548   0.423  0.4977  0.0814  0.0568
 3897SOL     OW12510   1.645   1.536   6.870  0.1936 -0.1505 -0.3234
 3897SOL    HW112511   1.557   1.518   6.825 -0.4740 -0.8113  1.2037
 3897SOL    HW212512   1.648   1.631   6.899  0.4409  0.1588 -1.3005
 3898SOL     OW12513   6.248   3.586   2.691  0.1209  0.5362 -0.2021
 3898SOL    HW112514   6.245   3.676   2.646  0.7819  1.0588  0.7590
 3898SOL    HW212515   6.332   3.539   2.667 -0.0541  0.3255 -0.4104
 3899SOL     OW12516   1.209   3.022   4.621 -0.2418  0.2541 -0.2510
 3899SOL    HW112517   1.194   2.972   4.706 -1.1409 -0.5755 -0.8782
 3899SOL    HW212518   1.306   3.015   4.596  0.2341  1.2814  1.1556
 3900SOL     OW12519   5.407   3.995   1.535  0.4003  0.6210  0.6636
 3900SOL    HW112520   5.332   4.001   1.469  0.3756  1.0682  0.7265
 3900SOL    HW212521   5.486   3.951   1.492  0.2170  0.4610  0.4900
 3901SOL     OW12522   0.339   7.012   1.453 -0.5145 -0.2860  0.0329
 3901SOL    HW112523   0.241   7.028   1.450 -0.2628  1.7925  1.4781
 3901SOL    HW212524   0.376   7.014   1.360 -1.6273  0.3674 -0.4064
 3902SOL     OW12525   0.584   6.754   6.841 -0.2325 -0.2467 -0.3908
 3902SOL    HW112526   0.504   6.814   6.833  0.6360  0.9569 -0.4096
 3902SOL    HW212527   0.658   6.789   6.784  0.3696 -1.2477 -0.2506
 3903SOL     OW12528   0.554   5.762   3.320 -0.1796 -0.6162 -0.3881
 3903SOL    HW112529   0.473   5.748   3.377  1.5095  0.4267  2.5237
 3903SOL    HW212530   0.607   5.678   3.316 -0.1892 -0.6333 -0.2113
 3904SOL     OW12531   6.763   4.502   1.293  0.1855  0.2567  0.4098
 3904SOL    HW112532   6.754   4.578   1.229  0.9750  0.8810  1.0195
 3904SOL    HW212533   6.771   4.538   1.386  0.8986 -0.5607  0.6745
 3905SOL     OW12534   3.797   2.569   6.835  0.3192 -0.0521 -0.1884
 3905SOL    HW112535   3.802   2.644   6.770 -0.2258  0.8447  0.7771
 3905SOL    HW212536   3.873   2.576   6.900  0.3281 -0.4051 -0.1585
 3906SOL     OW12537   3.084   0.199   1.862 -0.1244 -0.0932 -0.5898
 3906SOL    HW112538   3.045   0.184   1.771  0.3109 -1.8147 -0.5165
 3906SOL    HW212539   3.183   0.188   1.858 -0.0353  0.3877  0.0112
 3907SOL     OW12540   2.225   0.521   2.447  0.1899  0.0803  0.1617
 3907SOL    HW112541   2.299   0.455   2.439  0.6809  0.4244  1.4527
 3907SOL    HW212542   2.226   0.561   2.539 -0.1783  1.7815 -0.5185
 3908SOL     OW12543   6.598   3.444   5.405  0.1267  0.0512 -0.1872
 3908SOL    HW112544   6.650   3.359   5.409  2.5039  1.3711 -0.6772
 3908SOL    HW212545   6.574   3.463   5.310 -1.1065 -0.4454  0.0147
 3909SOL     OW12546   3.637   5.768   4.871 -1.2156  0.1367  0.4861
 3909SOL    HW112547   3.606   5.732   4.783  0.4056  0.2828 -0.1728
 3909SOL    HW212548   3.693   5.700   4.918  0.3019  1.0470  0.0760
 3910SOL     OW12549   3.511   1.397   6.411  0.7287 -0.0045  0.5933
 3910SOL    HW112550   3.508   1.424   6.507 -0.5302  0.9913  0.2975
 3910SOL    HW212551   3.540   1.475   6.355  0.5859 -0.3196  0.0734
 3911SOL     OW12552   6.293   1.701   3.129  0.0198  0.4533  0.1693
 3911SOL    HW112553   6.320   1.619   3.078 -1.0977  0.5332 -0.5795
 3911SOL    HW212554   6.290   1.779   3.068  1.0976  1.0854  0.8849
 3912SOL     OW12555   0.982   0.530   0.048 -0.0792 -0.2067 -0.1511
 3912SOL    HW112556   1.021   0.477   0.123 -1.5327 -0.1350  0.6832
 3912SOL    HW212557   1.003   0.627   0.060 -1.8094  0.0423  1.1709
 3913SOL     OW12558   2.438   0.201   3.018 -0.3813 -0.2557 -0.4038
 3913SOL    HW112559   2.429   0.278   3.081 -0.4778  0.1290 -0.8751
 3913SOL    HW212560   2.408   0.117   3.063  0.1026 -0.0880  0.2494
 3914SOL     OW12561   6.368   1.488   6.570  0.1218 -0.0652  0.3857
 3914SOL    HW112562   6.424   1.525   6.497  0.2607 -1.9780 -0.5417
 3914SOL    HW212563   6.352   1.558   6.639 -0.1629  1.8740 -1.5391
 3915SOL     OW12564   3.355   3.808   1.715  0.5844 -0.1811  0.6157
 3915SOL    HW112565   3.336   3.719   1.756  1.4720  0.6139  2.8973
 3915SOL    HW212566   3.282   3.872   1.738  1.3047  0.3881  1.3709
 3916SOL     OW12567   3.706   0.628   4.441  0.1223 -0.7345 -0.8949
 3916SOL    HW112568   3.765   0.552   4.416  1.6372 -0.1081  0.5700
 3916SOL    HW212569   3.635   0.596   4.504  0.0430 -1.1127 -1.1639
 3917SOL     OW12570   5.337   6.456   5.246  0.4207  0.3844 -0.1391
 3917SOL    HW112571   5.366   6.476   5.340 -0.7377  1.2922  0.0583
 3917SOL    HW212572   5.379   6.371   5.215  1.2680  0.3711  1.0000
 3918SOL     OW12573   1.894   1.731   1.774  0.1893 -0.6165 -0.3741
 3918SOL    HW112574   1.879   1.808   1.836  1.6201 -1.0592  0.5657
 3918SOL    HW212575   1.890   1.646   1.825 -1.2479 -1.1995 -1.3796
 3919SOL     OW12576   2.478   1.320   3.455  0.4406 -0.4126 -0.2126
 3919SOL    HW112577   2.567   1.360   3.435  1.5725 -2.7413 -0.1722
 3919SOL    HW212578   2.423   1.319   3.372 -0.4800  2.9588  0.1930
 3920SOL     OW12579   4.800   2.464   6.163  0.1202 -0.1114  0.6058
 3920SOL    HW112580   4.829   2.480   6.068  1.6505  0.4113  1.1246
 3920SOL    HW212581   4.880   2.465   6.223 -0.8569 -0.0740  1.9696
 3921SOL     OW12582   5.856   2.106   6.703 -0.6025 -0.1412 -0.0285
 3921SOL    HW112583   5.757   2.096   6.706 -0.4154 -2.1646  1.6022
 3921SOL    HW212584   5.890   2.135   6.793  0.3150 -0.1806 -0.3425
 3922SOL     OW12585   1.482   3.401   0.110 -0.5889 -0.2506 -0.0464
 3922SOL    HW112586   1.560   3.346   0.081 -1.0130 -0.6381 -0.4670
 3922SOL    HW212587   1.442   3.360   0.192  0.5230  0.7611  1.0339
 3923SOL     OW12588   6.468   2.488   1.207 -0.3817  0.0064  0.0854
 3923SOL    HW112589   6.398   2.547   1.167  0.5681  1.6103  0.7063
 3923SOL    HW212590   6.468   2.497   1.306 -0.9381 -1.9196  0.3179
 3924SOL     OW12591   2.377   2.805   0.862  0.3765 -0.0270 -0.0553
 3924SOL    HW112592   2.339   2.771   0.775 -1.2392  1.6000 -0.0485
 3924SOL    HW212593   2.340   2.751   0.937  0.5493 -0.4324 -0.2511
 3925SOL     OW12594   2.307   0.968   2.809  0.2682 -0.3040  0.2589
 3925SOL    HW112595   2.399   0.999   2.832 -0.0257 -0.4432  1.8033
 3925SOL    HW212596   2.257   1.041   2.764  0.8053  0.1219  0.3388
 3926SOL     OW12597   1.382   0.759   6.171  0.0190 -0.0445  0.5460
 3926SOL    HW112598   1.294   0.712   6.167 -1.4112  2.2994  1.7473
 3926SOL    HW212599   1.410   0.769   6.267  0.7597  0.6434  0.2712
 3927SOL     OW12600   0.662   5.740   6.454  0.0612 -1.0187 -0.2918
 3927SOL    HW112601   0.679   5.690   6.538  0.2111 -1.0441 -0.3353
 3927SOL    HW212602   0.743   5.734   6.395  0.0276 -0.8400 -0.3563
 3928SOL     OW12603   6.450   5.768   3.366 -0.3005  0.5053  0.8681
 3928SOL    HW112604   6.518   5.715   3.315 -1.2283  0.9209 -0.9171
 3928SOL    HW212605   6.417   5.714   3.443 -0.3233 -1.0473 -0.1720
 3929SOL     OW12606   5.220   0.669   4.938  0.1219 -0.3380 -0.7517
 3929SOL    HW112607   5.208   0.579   4.980 -0.5964  0.1887  0.2225
 3929SOL    HW212608   5.209   0.661   4.838 -0.1313 -1.2920 -0.6561
 3930SOL     OW12609   5.643   4.569   5.819 -0.1962  0.3300 -0.1981
 3930SOL    HW112610   5.723   4.615   5.857 -0.7172 -0.1241  1.5153
 3930SOL    HW212611   5.653   4.470   5.829 -1.7272  0.3159  1.7243
 3931SOL     OW12612   2.225   4.048   6.189  0.1636  0.0431 -0.1370
 3931SOL    HW112613   2.168   4.106   6.246 -0.7588  0.7863 -1.7486
 3931SOL    HW212614   2.167   3.994   6.128  1.0055 -2.5284  1.2085
 3932SOL     OW12615   6.668   4.283   0.173  0.0332 -0.6923 -0.4043
 3932SOL    HW112616   6.608   4.259   0.249 -1.0168 -0.2442 -1.0585
 3932SOL    HW212617   6.725   4.361   0.199 -0.6542 -0.2433 -0.2296
 3933SOL     OW12618   6.862   3.370   0.801 -0.1390  0.8680 -0.2750
 3933SOL    HW112619   6.898   3.392   0.892  2.6388 -1.2351 -0.7565
 3933SOL    HW212620   6.922   3.409   0.731 -0.3187 -0.4187 -1.1683
 3934SOL     OW12621   0.794   3.266   3.118  0.5403 -0.2554  0.2904
 3934SOL    HW112622   0.782   3.357   3.159  0.5190 -0.5810  1.0115
 3934SOL    HW212623   0.726   3.254   3.046 -1.0399 -0.5920  1.7367
 3935SOL     OW12624   3.363   5.018   6.066  0.3363  0.2204 -0.0064
 3935SOL    HW112625   3.276   4.969   6.061  0.8675 -0.7010 -0.6701
 3935SOL    HW212626   3.384   5.039   6.162 -0.0727 -0.5747  0.2698
 3936SOL     OW12627   1.833   4.448   2.113  0.1001  0.5956  0.0708
 3936SOL    HW112628   1.890   4.511   2.061 -0.8350  2.0007  0.7192
 3936SOL    HW212629   1.861   4.448   2.209 -0.2565  0.4247  0.1807
 3937SOL     OW12630   4.251   1.372   4.312  0.2065  0.0370 -0.1904
 3937SOL    HW112631   4.274   1.444   4.377  2.7255 -1.1731  0.3607
 3937SOL    HW212632   4.216   1.293   4.361 -0.6950  0.1697 -0.6067
 3938SOL     OW12633   5.507   4.107   2.092  0.4618 -0.2468  0.4114
 3938SOL    HW112634   5.588   4.159   2.120  0.0796  0.5444  0.0853
 3938SOL    HW212635   5.446   4.167   2.040 -0.1619 -0.9366  0.3375
 3939SOL     OW12636   0.430   5.093   0.421  0.3153  0.1191  0.1943
 3939SOL    HW112637   0.340   5.136   0.418 -0.2172 -0.9179  0.8716
 3939SOL    HW212638   0.457   5.066   0.328  0.6739  1.8879 -0.2476
 3940SOL     OW12639   4.056   6.873   4.089 -0.2806  0.0519 -0.2107
 3940SOL    HW112640   3.956   6.863   4.087 -0.2930  0.1842 -0.2431
 3940SOL    HW212641   4.081   6.952   4.144 -0.2650  0.9923 -1.5373
 3941SOL     OW12642   2.147   5.691   3.969  0.3752 -1.0380  0.0612
 3941SOL    HW112643   2.074   5.628   3.940 -1.6381  0.7991  0.8555
 3941SOL    HW212644   2.109   5.783   3.979  3.5740  0.8546 -2.9266
 3942SOL     OW12645   6.122   2.858   4.572 -0.3063  0.4673  0.2348
 3942SOL    HW112646   6.173   2.926   4.519  0.0598  0.3944  0.4920
 3942SOL    HW212647   6.159   2.767   4.554 -0.1665  0.4450  0.6370
 3943SOL     OW12648   1.953   7.004   4.482  0.1898 -0.4565  0.3079
 3943SOL    HW112649   2.044   7.045   4.484  0.2786 -0.6808  1.5836
 3943SOL    HW212650   1.890   7.059   4.536  0.1575 -1.6057  1.5070
 3944SOL     OW12651   0.111   5.119   5.167  0.4663  0.4635 -0.3871
 3944SOL    HW112652   0.064   5.063   5.099  1.8022 -0.9447 -0.1756
 3944SOL    HW212653   0.193   5.159   5.126 -0.5190  2.4138 -0.5720
 3945SOL     OW12654   0.166   3.117   1.913 -0.0685 -0.2287  0.6817
 3945SOL    HW112655   0.091   3.132   1.978 -0.4830  0.4571  0.0611
 3945SOL    HW212656   0.208   3.204   1.890 -0.2729 -0.3894 -0.3627
 3946SOL     OW12657   4.313   1.996   6.316 -0.0858 -0.2613 -0.2428
 3946SOL    HW112658   4.386   1.929   6.331  0.5611  0.6701  0.9791
 3946SOL    HW212659   4.316   2.028   6.222  0.5468 -0.8416 -0.4284
 3947SOL     OW12660   3.773   4.302   6.817  0.1922  0.3175 -0.1249
 3947SOL    HW112661   3.743   4.208   6.830  0.2019  0.3739  0.3313
 3947SOL    HW212662   3.871   4.309   6.836  0.1979  0.4119 -0.1895
 3948SOL     OW12663   2.869   0.353   6.944  0.7008 -0.4336 -0.1001
 3948SOL    HW112664   2.820   0.437   6.922  0.6506 -0.4269  0.0291
 3948SOL    HW212665   2.809   0.274   6.933  0.4959 -0.3789  0.5827
 3949SOL     OW12666   4.340   3.054   2.319  0.6322 -0.1627 -0.3075
 3949SOL    HW112667   4.311   3.041   2.224 -3.1737  0.6601  0.5662
 3949SOL    HW212668   4.337   2.966   2.366  2.0000 -0.4739 -0.7224
 3950SOL     OW12669   6.110   4.342   1.060  0.0576 -0.0395 -0.0100
 3950SOL    HW112670   6.169   4.286   1.000  0.2605  0.0361  0.1187
 3950SOL    HW212671   6.166   4.389   1.127 -0.0033  1.1213 -0.7412
 3951SOL     OW12672   4.757   0.225   5.868  0.6480 -0.3849  0.1966
 3951SOL    HW112673   4.665   0.245   5.836  0.3644 -0.8600  0.7006
 3951SOL    HW212674   4.822   0.289   5.826  0.2607 -0.8628 -1.1361
 3952SOL     OW12675   3.984   5.198   6.141  0.1624  0.0378 -0.4056
 3952SOL    HW112676   4.012   5.221   6.234  1.6844  0.1681 -0.8648
 3952SOL    HW212677   3.884   5.198   6.134  0.0427  0.2045  1.1702
 3953SOL     OW12678   4.915   5.368   4.707 -0.4814 -0.3100  0.0537
 3953SOL    HW112679   4.836   5.335   4.760  0.8941 -0.6787  1.9854
 3953SOL    HW212680   4.979   5.413   4.768 -0.2855  2.1991 -1.8753
 3954SOL     OW12681   3.276   3.248   0.894 -0.3384 -0.0168  0.4600
 3954SOL    HW112682   3.248   3.239   0.798 -0.0387  2.0475  0.1222
 3954SOL    HW212683   3.196   3.236   0.953 -0.3828 -2.1560  0.0658
 3955SOL     OW12684   3.252   1.302   0.192  0.0989 -0.6143 -0.2602
 3955SOL    HW112685   3.345   1.334   0.174  0.0033 -1.2886 -2.2794
 3955SOL    HW212686   3.240   1.210   0.153 -1.5056 -0.4161 -0.3127
 3956SOL     OW12687   1.752   6.908   5.522 -0.4369 -0.1365  0.7764
 3956SOL    HW112688   1.705   6.867   5.600 -0.7373 -1.5908 -0.1321
 3956SOL    HW212689   1.850   6.912   5.541  0.2338 -4.8238 -0.4107
 3957SOL     OW12690   1.632   1.626   6.047 -0.5640  0.1657 -0.0210
 3957SOL    HW112691   1.565   1.688   6.006 -1.1855  0.7274  1.7905
 3957SOL    HW212692   1.724   1.656   6.024 -0.8763  1.3103  0.1869
 3958SOL     OW12693   5.968   1.159   5.102  0.7240  0.0820  0.1725
 3958SOL    HW112694   6.025   1.140   5.182 -1.0105  0.4558  1.5566
 3958SOL    HW212695   5.888   1.099   5.102  0.8178 -0.0910 -1.4450
 3959SOL     OW12696   4.711   0.657   3.544  0.0189 -0.9871  0.4485
 3959SOL    HW112697   4.793   0.635   3.596  1.8027 -0.2906 -1.8924
 3959SOL    HW212698   4.699   0.757   3.542  0.5365 -0.9035 -1.0909
 3960SOL     OW12699   0.357   6.906   6.827  0.0786  0.1331  0.2520
 3960SOL    HW112700   0.287   6.838   6.804  2.1274 -2.6094  1.5099
 3960SOL    HW212701   0.336   6.946   6.916 -0.6816  0.5063 -0.0865
 3961SOL     OW12702   2.770   5.671   2.653 -0.3043 -0.3882  0.4311
 3961SOL    HW112703   2.711   5.591   2.646 -1.7147  0.6286  0.2021
 3961SOL    HW212704   2.859   5.651   2.614 -0.1509 -2.2752  1.6719
 3962SOL     OW12705   4.764   6.283   2.534 -0.0521  0.0254  0.2925
 3962SOL    HW112706   4.781   6.379   2.512 -1.4266  0.1591 -0.3407
 3962SOL    HW212707   4.791   6.265   2.629 -0.8331  1.3591  0.8022
 3963SOL     OW12708   1.429   4.878   2.678  0.1793 -0.6777 -0.3434
 3963SOL    HW112709   1.375   4.869   2.594  0.2973 -0.7566 -0.4106
 3963SOL    HW212710   1.520   4.913   2.656  0.0505 -0.2252 -0.1921
 3964SOL     OW12711   3.869   6.564   5.770  0.5749 -0.4479 -0.3487
 3964SOL    HW112712   3.821   6.651   5.783 -1.4861 -1.6114  0.0953
 3964SOL    HW212713   3.877   6.545   5.672 -2.2187 -1.4336 -0.4473
 3965SOL     OW12714   6.382   5.589   6.044  0.1287 -0.0933 -0.3935
 3965SOL    HW112715   6.409   5.666   6.101  1.0220 -0.8498  0.2338
 3965SOL    HW212716   6.415   5.602   5.951 -0.1281  0.4884 -0.4054
 3966SOL     OW12717   2.823   5.637   3.516 -0.7986  0.0998 -0.5059
 3966SOL    HW112718   2.912   5.623   3.474  0.5656 -0.5492  2.4107
 3966SOL    HW212719   2.823   5.724   3.566 -2.4846  1.0159 -1.9487
 3967SOL     OW12720   0.745   5.886   6.854 -0.4521  0.0418 -0.0993
 3967SOL    HW112721   0.833   5.881   6.806 -0.2429  0.9165  0.1854
 3967SOL    HW212722   0.673   5.909   6.789 -0.3753 -0.0813 -0.2304
 3968SOL     OW12723   6.049   5.922   2.872 -0.5022 -0.0413  0.2054
 3968SOL    HW112724   6.067   5.940   2.968 -2.9841 -0.4961  0.8295
 3968SOL    HW212725   6.079   5.830   2.848 -3.2739 -1.4596  1.6606
 3969SOL     OW12726   3.339   5.882   0.078 -0.5880  0.3317  0.3143
 3969SOL    HW112727   3.301   5.792   0.053  1.0341 -0.9115  2.1129
 3969SOL    HW212728   3.427   5.895   0.033 -0.6608  0.8788  0.3267
 3970SOL     OW12729   5.974   2.876   3.912  0.0201 -0.1184 -0.0492
 3970SOL    HW112730   6.047   2.925   3.864 -0.4142 -1.8449 -2.6222
 3970SOL    HW212731   5.960   2.918   4.002  1.8961  2.3360 -0.7911
 3971SOL     OW12732   4.838   1.394   4.592  0.3249  0.4621  0.2307
 3971SOL    HW112733   4.841   1.488   4.558  1.2872 -0.7616 -3.4181
 3971SOL    HW212734   4.742   1.363   4.596  0.1325  0.8225 -1.0683
 3972SOL     OW12735   3.938   3.997   6.430 -0.2654 -0.0624  0.3712
 3972SOL    HW112736   3.982   3.927   6.372 -0.2474 -0.0358  0.3519
 3972SOL    HW212737   3.931   4.083   6.379 -1.0767 -0.2854  0.0742
 3973SOL     OW12738   4.758   6.430   4.915 -0.0652 -0.0658  0.4070
 3973SOL    HW112739   4.776   6.337   4.884 -0.1233 -0.2582  0.9456
 3973SOL    HW212740   4.729   6.429   5.011  0.3606  0.5344  0.5558
 3974SOL     OW12741   3.536   3.619   6.673 -0.0568 -0.0864 -0.5224
 3974SOL    HW112742   3.500   3.704   6.637 -1.9881  0.1660  1.7564
 3974SOL    HW212743   3.538   3.623   6.773  1.6896 -2.0005 -0.4135
 3975SOL     OW12744   0.506   1.620   0.790  0.1353  0.9753  0.1779
 3975SOL    HW112745   0.481   1.623   0.886  0.3438 -0.9336  0.3372
 3975SOL    HW212746   0.492   1.527   0.755  2.4522  0.9583 -0.9365
 3976SOL     OW12747   3.013   6.677   3.498  0.0788  0.3607 -0.2725
 3976SOL    HW112748   2.920   6.713   3.499 -0.5126 -0.9609 -2.2774
 3976SOL    HW212749   3.076   6.750   3.471 -0.3254  1.2694  1.1100
 3977SOL     OW12750   3.518   2.306   2.440 -0.0718 -0.2541  0.3256
 3977SOL    HW112751   3.526   2.379   2.371  0.7567 -0.7123 -0.0743
 3977SOL    HW212752   3.455   2.236   2.407 -0.8705  0.2605  0.7089
 3978SOL     OW12753   1.701   5.609   3.746  0.3102  0.2065 -0.4770
 3978SOL    HW112754   1.697   5.702   3.710 -0.7650 -0.0944 -1.2025
 3978SOL    HW212755   1.795   5.587   3.773  0.5567  1.5227 -0.2092
 3979SOL     OW12756   3.079   5.150   0.693 -0.5105 -0.0859  0.0014
 3979SOL    HW112757   3.011   5.093   0.738 -1.4948  2.2737  1.6722
 3979SOL    HW212758   3.045   5.176   0.602 -0.4057 -1.4184 -0.4456
 3980SOL     OW12759   1.239   2.465   6.925  0.2282 -0.1165 -0.1169
 3980SOL    HW112760   1.312   2.397   6.936  0.7176  0.4751  0.4215
 3980SOL    HW212761   1.203   2.461   6.832  1.4029  0.0007 -0.6020
 3981SOL     OW12762   3.135   3.746   3.570 -0.5293 -0.3053 -0.2060
 3981SOL    HW112763   3.187   3.666   3.598 -2.2434 -1.0621  0.9871
 3981SOL    HW212764   3.198   3.821   3.549  1.1392 -2.0428 -1.7695
 3982SOL     OW12765   2.013   0.453   6.714  0.2150  0.2947  0.7340
 3982SOL    HW112766   1.953   0.498   6.648 -0.1481 -0.3697  0.6029
 3982SOL    HW212767   2.109   0.476   6.692  0.1341 -0.3555 -0.3531
 3983SOL     OW12768   1.623   1.944   6.494 -0.9161 -0.7633  0.0114
 3983SOL    HW112769   1.663   1.873   6.552 -1.4075 -0.7364  0.3863
 3983SOL    HW212770   1.542   1.907   6.448 -0.9945 -0.5386 -0.0312
 3984SOL     OW12771   6.804   2.663   5.358  0.5122  1.1497  0.0178
 3984SOL    HW112772   6.860   2.731   5.310  1.3069  0.7167  0.3060
 3984SOL    HW212773   6.791   2.692   5.453  0.0563  1.3568 -0.1036
 3985SOL     OW12774   1.521   2.185   4.229  0.4403 -0.0480 -0.3368
 3985SOL    HW112775   1.482   2.223   4.313  1.3365 -0.1209  0.1232
 3985SOL    HW212776   1.462   2.110   4.197  0.1316 -0.0796  0.2764
 3986SOL     OW12777   2.508   0.042   0.770 -0.3490  0.3583  0.2682
 3986SOL    HW112778   2.602   0.059   0.740 -0.1979  0.7221  0.9181
 3986SOL    HW212779   2.508   0.027   0.869 -0.9158 -0.1036  0.2075
 3987SOL     OW12780   0.608   5.554   1.197  0.3491 -0.0808 -0.1747
 3987SOL    HW112781   0.641   5.462   1.219 -1.2945 -0.3919  1.2049
 3987SOL    HW212782   0.681   5.621   1.215  1.5658 -1.0789 -1.2070
 3988SOL     OW12783   1.278   4.262   6.815  0.5207  0.5650 -0.2750
 3988SOL    HW112784   1.349   4.250   6.884 -0.7728  1.6199  1.3085
 3988SOL    HW212785   1.194   4.295   6.858 -1.1923 -1.2689 -1.9955
 3989SOL     OW12786   5.889   2.406   3.462  0.6614 -0.2880  0.0029
 3989SOL    HW112787   5.902   2.403   3.562  1.3919  2.9250  0.1044
 3989SOL    HW212788   5.792   2.410   3.441  0.4595 -1.7287  0.4778
 3990SOL     OW12789   2.786   6.707   1.649  0.2464 -0.0723  0.1378
 3990SOL    HW112790   2.761   6.624   1.699  1.2075 -0.3517  0.1800
 3990SOL    HW212791   2.817   6.683   1.557 -0.4924  0.3465 -0.2321
 3991SOL     OW12792   3.700   3.070   1.480 -0.1122  0.0140 -0.2196
 3991SOL    HW112793   3.606   3.043   1.459 -0.4304  1.9579 -1.5374
 3991SOL    HW212794   3.755   3.065   1.397  0.0590  2.1879 -0.3019
 3992SOL     OW12795   3.302   6.720   6.175  0.3526 -0.0159 -0.4437
 3992SOL    HW112796   3.227   6.723   6.108 -1.1473  0.8004  1.1591
 3992SOL    HW212797   3.385   6.687   6.131 -0.8918 -0.8232 -2.3621
 3993SOL     OW12798   3.248   1.095   5.692 -0.1992  0.4175 -0.8184
 3993SOL    HW112799   3.346   1.111   5.697 -0.3328  0.9855  0.6330
 3993SOL    HW212800   3.229   0.997   5.689  0.3869  0.1782  1.4090
 3994SOL     OW12801   4.339   5.321   1.209 -0.3025 -0.3046 -0.2123
 3994SOL    HW112802   4.388   5.389   1.155  1.2055 -1.3375 -0.1785
 3994SOL    HW212803   4.369   5.326   1.305 -1.2421 -0.0774  0.0961
 3995SOL     OW12804   5.357   0.652   0.168 -0.2002  0.0312 -0.0517
 3995SOL    HW112805   5.444   0.610   0.197 -0.2282  0.5967  0.9157
 3995SOL    HW212806   5.371   0.750   0.154 -1.1264  0.5714  2.3050
 3996SOL     OW12807   4.827   5.688   1.594 -0.2196 -1.1453 -0.0578
 3996SOL    HW112808   4.848   5.762   1.529  0.7557 -0.8977  0.5235
 3996SOL    HW212809   4.752   5.716   1.654  1.7796  0.4582  1.8504
 3997SOL     OW12810   4.183   0.687   0.941  0.1865  0.3095 -0.4042
 3997SOL    HW112811   4.128   0.678   1.024  0.0812 -0.0700 -0.5148
 3997SOL    HW212812   4.200   0.597   0.902  4.2604 -0.1029  1.7838
 3998SOL     OW12813   3.247   6.943   2.201 -0.6339  0.4705  0.3827
 3998SOL    HW112814   3.314   6.971   2.270  0.9761  1.3177 -1.4089
 3998SOL    HW212815   3.201   7.024   2.165 -0.6885  0.1312 -0.2787
 3999SOL     OW12816   2.774   6.126   5.988 -0.0707 -0.3639  0.6168
 3999SOL    HW112817   2.764   6.214   5.941 -1.7989 -0.1472  1.3135
 3999SOL    HW212818   2.784   6.053   5.921 -1.3845  0.0674 -0.0810
 4000SOL     OW12819   0.687   2.523   3.884  0.0086 -0.5771  0.3026
 4000SOL    HW112820   0.618   2.589   3.914  1.0805  1.3408 -1.2314
 4000SOL    HW212821   0.773   2.542   3.931  0.5638 -0.2830 -0.8150
 4001SOL     OW12822   4.252   6.596   5.758 -0.7970 -1.2420  0.1419
 4001SOL    HW112823   4.220   6.591   5.663 -0.3699 -1.0632 -0.0179
 4001SOL    HW212824   4.344   6.636   5.759 -1.4564  0.3370  0.7722
 4002SOL     OW12825   1.720   5.201   3.112 -0.0189 -0.1995 -0.1108
 4002SOL    HW112826   1.739   5.263   3.036  1.2170  1.2425  1.3203
 4002SOL    HW212827   1.783   5.220   3.187 -0.2112 -2.5995  0.7380
 4003SOL     OW12828   1.473   4.875   3.951 -0.2553 -1.0420  0.0627
 4003SOL    HW112829   1.477   4.933   3.870  2.2337 -1.0414  0.1296
 4003SOL    HW212830   1.531   4.914   4.023  2.3200 -3.9863 -0.2108
 4004SOL     OW12831   6.744   4.029   4.312  0.3037 -0.0356 -0.3675
 4004SOL    HW112832   6.658   3.991   4.346  0.3010  0.1068 -0.2133
 4004SOL    HW212833   6.765   4.113   4.361  0.1134  0.3741 -0.9708
 4005SOL     OW12834   4.267   3.896   1.229  0.2621  0.1429 -0.1376
 4005SOL    HW112835   4.272   3.851   1.140  2.3493 -0.5342  0.2568
 4005SOL    HW212836   4.358   3.897   1.271 -0.5274  1.1069  1.6842
 4006SOL     OW12837   6.793   4.527   0.149 -0.2853 -0.3831  0.1848
 4006SOL    HW112838   6.730   4.604   0.153  0.9603  0.7578 -1.1071
 4006SOL    HW212839   6.860   4.542   0.077  0.4917 -2.3251  0.4262
 4007SOL     OW12840   0.561   0.439   2.899 -0.4547 -0.1882 -0.0142
 4007SOL    HW112841   0.556   0.375   2.822 -1.2542  0.1398 -0.2381
 4007SOL    HW212842   0.650   0.485   2.897 -0.6012  0.0757 -0.9542
 4008SOL     OW12843   3.919   1.309   5.402  0.9487  0.0929  0.0862
 4008SOL    HW112844   3.932   1.216   5.369  1.3585  0.6174 -1.2700
 4008SOL    HW212845   3.840   1.351   5.358  0.7312  0.3746  0.7252
 4009SOL     OW12846   2.341   5.398   2.620 -0.1255 -0.0464 -0.1946
 4009SOL    HW112847   2.394   5.314   2.620 -1.0068 -0.6161 -0.3226
 4009SOL    HW212848   2.300   5.411   2.711 -1.7662 -0.9221 -0.7755
 4010SOL     OW12849   2.249   4.690   4.124 -0.1983  0.3960  0.4351
 4010SOL    HW112850   2.307   4.609   4.130 -2.0080 -0.9732  0.0393
 4010SOL    HW212851   2.279   4.745   4.046  0.2296 -0.5405 -0.0757
 4011SOL     OW12852   4.960   1.344   5.212  0.1375 -0.4304 -0.5230
 4011SOL    HW112853   4.915   1.259   5.239 -0.8247  0.0788 -0.4727
 4011SOL    HW212854   5.053   1.325   5.179 -0.4497 -1.6151 -1.5417
 4012SOL     OW12855   2.805   3.385   0.929  0.1474  0.0945 -0.0967
 4012SOL    HW112856   2.710   3.360   0.948  0.3927 -1.4289 -0.7078
 4012SOL    HW212857   2.862   3.361   1.007  0.1142  0.5584  0.0761
 4013SOL     OW12858   2.635   4.772   4.735  0.0193  0.6378 -0.0955
 4013SOL    HW112859   2.725   4.770   4.693  0.2188 -1.8046  0.3283
 4013SOL    HW212860   2.612   4.681   4.771 -1.8017  1.6544  1.5377
 4014SOL     OW12861   3.390   2.465   6.709  0.5405 -0.0780  0.1158
 4014SOL    HW112862   3.354   2.447   6.800  0.8518  0.2132  0.3021
 4014SOL    HW212863   3.444   2.550   6.711 -0.6336  0.7285 -0.6512
 4015SOL     OW12864   1.046   4.744   4.519  0.0260 -0.0983 -0.1338
 4015SOL    HW112865   0.968   4.741   4.457  0.5149  0.4483 -0.7985
 4015SOL    HW212866   1.031   4.816   4.587 -0.2813 -0.3481  0.0663
 4016SOL     OW12867   5.292   5.779   2.260  0.3137 -0.4396  0.3855
 4016SOL    HW112868   5.198   5.747   2.268  0.2817 -0.4351  0.0090
 4016SOL    HW212869   5.293   5.879   2.253  0.1367 -0.5805 -2.6675
 4017SOL     OW12870   1.873   5.014   0.292 -0.4221  0.1914 -0.7057
 4017SOL    HW112871   1.896   4.945   0.223 -0.4390 -0.2608 -0.2602
 4017SOL    HW212872   1.775   5.012   0.310 -0.5950  1.0989 -1.5096
 4018SOL     OW12873   7.001   1.739   0.875  0.2488  0.4962  0.1134
 4018SOL    HW112874   6.941   1.717   0.798 -1.2916 -0.3507  1.5093
 4018SOL    HW212875   7.034   1.654   0.918 -0.8293  0.8685  1.8042
 4019SOL     OW12876   1.843   6.993   1.018  0.1274 -0.3871 -0.4041
 4019SOL    HW112877   1.928   6.973   0.970 -0.3385 -1.1682 -0.9210
 4019SOL    HW212878   1.782   6.914   1.015 -0.9010  0.3807 -0.6449
 4020SOL     OW12879   6.081   1.170   0.725  0.6548  0.4052  0.4835
 4020SOL    HW112880   6.031   1.254   0.744  0.8823  1.1715 -1.9664
 4020SOL    HW212881   6.016   1.095   0.713  0.4439  0.2015  2.5940
 4021SOL     OW12882   0.376   0.120   2.915 -0.0533  0.0683  0.0524
 4021SOL    HW112883   0.347   0.158   3.003 -1.3373 -1.4896  0.3324
 4021SOL    HW212884   0.466   0.078   2.924 -0.1200  0.0273  0.5750
 4022SOL     OW12885   6.776   0.976   5.065  0.3951 -0.2049  0.4553
 4022SOL    HW112886   6.763   0.879   5.087 -2.0416 -0.3497 -1.1732
 4022SOL    HW212887   6.775   0.988   4.965 -1.6432  1.6996  0.6147
 4023SOL     OW12888   1.389   2.306   3.850  0.1767 -0.2444  0.5053
 4023SOL    HW112889   1.416   2.210   3.855  1.7878  0.0285 -1.6155
 4023SOL    HW212890   1.431   2.349   3.770 -1.4495  1.9576  0.7333
 4024SOL     OW12891   4.636   2.402   6.362  0.4554 -0.4496 -0.1570
 4024SOL    HW112892   4.658   2.428   6.268 -1.2775 -0.9743 -0.7346
 4024SOL    HW212893   4.680   2.467   6.425  1.9558 -0.3209 -1.2774
 4025SOL     OW12894   0.178   6.421   5.708  0.2363  0.1075 -0.2695
 4025SOL    HW112895   0.095   6.365   5.708 -0.9020  1.6018  2.2908
 4025SOL    HW212896   0.177   6.483   5.629 -0.3479 -0.8415 -1.0292
 4026SOL     OW12897   3.531   4.197   5.044  0.1194 -0.4008 -0.6772
 4026SOL    HW112898   3.478   4.222   5.125  0.3934 -0.7230 -0.3951
 4026SOL    HW212899   3.554   4.100   5.049 -0.5794 -0.6167 -1.5557
 4027SOL     OW12900   2.807   6.653   1.125 -0.7482  0.2271 -0.1954
 4027SOL    HW112901   2.870   6.727   1.147 -0.9773  0.2548  0.3645
 4027SOL    HW212902   2.727   6.690   1.078 -0.1725  0.1454 -1.2824
 4028SOL     OW12903   0.341   6.410   2.155  0.1161  0.8496 -0.4522
 4028SOL    HW112904   0.333   6.400   2.056  1.5696 -0.0734 -0.5177
 4028SOL    HW212905   0.437   6.401   2.181 -0.3627  0.0234  1.1519
 4029SOL     OW12906   4.063   3.325   1.738 -0.0037 -0.3495  0.1353
 4029SOL    HW112907   4.140   3.372   1.782  0.8437 -1.8248  0.3043
 4029SOL    HW212908   4.043   3.241   1.787  0.0576 -1.3615 -1.5041
 4030SOL     OW12909   2.994   1.591   5.290 -0.1850  0.3350  0.1052
 4030SOL    HW112910   3.076   1.533   5.285  0.6501  1.5465 -0.8642
 4030SOL    HW212911   2.924   1.556   5.228  0.7145  0.9210 -1.3034
 4031SOL     OW12912   3.008   1.080   4.949  0.5467  0.2301  0.0576
 4031SOL    HW112913   2.944   1.028   5.005 -0.1629 -0.8394 -1.6410
 4031SOL    HW212914   2.971   1.171   4.931  1.2196  0.9389  2.0307
 4032SOL     OW12915   2.507   5.853   1.820 -0.1768  1.0406  0.5154
 4032SOL    HW112916   2.479   5.945   1.846  1.4434  1.6683  0.1465
 4032SOL    HW212917   2.605   5.843   1.836 -0.7125 -1.3989  2.7763
 4033SOL     OW12918   1.260   1.165   1.597  0.5085  0.3391  0.1338
 4033SOL    HW112919   1.243   1.067   1.598  1.5005  0.1113  2.3955
 4033SOL    HW212920   1.349   1.183   1.556  1.1876  0.0498  1.4014
 4034SOL     OW12921   0.281   1.305   4.755  0.4137 -0.0934  0.8203
 4034SOL    HW112922   0.206   1.372   4.753  0.2647 -0.2457  1.0588
 4034SOL    HW212923   0.340   1.319   4.676  1.1189  1.1480  1.5406
 4035SOL     OW12924   6.643   2.380   1.643 -0.2779  0.0134 -0.2590
 4035SOL    HW112925   6.620   2.435   1.723  0.3370 -0.7698  0.4823
 4035SOL    HW212926   6.601   2.289   1.652 -0.3678 -0.0120 -0.9199
 4036SOL     OW12927   0.883   1.724   1.817 -0.2828 -0.0460  0.1181
 4036SOL    HW112928   0.819   1.799   1.832 -2.5511 -2.0580  1.1403
 4036SOL    HW212929   0.937   1.710   1.900 -2.0497 -1.4097  1.1262
 4037SOL     OW12930   4.862   3.809   2.066  0.0279 -0.1183 -0.0831
 4037SOL    HW112931   4.858   3.795   1.967  0.5032 -2.8763  0.2008
 4037SOL    HW212932   4.783   3.862   2.096 -0.4797  0.1603 -1.8318
 4038SOL     OW12933   4.736   0.551   1.907 -0.2548  0.3691 -0.0421
 4038SOL    HW112934   4.832   0.546   1.882  0.0321 -2.7430  1.3233
 4038SOL    HW212935   4.680   0.509   1.835 -0.5816  1.5508 -0.5112
 4039SOL     OW12936   2.983   4.204   6.030 -0.1466  0.4871 -0.3245
 4039SOL    HW112937   2.971   4.193   6.128  2.3976 -0.7613 -0.0791
 4039SOL    HW212938   3.035   4.288   6.011 -0.6145  0.7181 -0.6096
 4040SOL     OW12939   1.258   5.849   1.124  0.3416  0.5170 -0.9362
 4040SOL    HW112940   1.242   5.894   1.036  1.0550  1.9845 -0.3529
 4040SOL    HW212941   1.352   5.815   1.127 -0.0996 -0.8109 -1.2544
 4041SOL     OW12942   6.803   3.096   4.620 -0.4589  0.1334  0.8617
 4041SOL    HW112943   6.852   3.039   4.554 -1.5554 -3.2730  2.7585
 4041SOL    HW212944   6.848   3.185   4.627  2.0977 -0.8379 -1.4144
 4042SOL     OW12945   6.202   0.903   3.108  0.5525  0.4550 -0.0653
 4042SOL    HW112946   6.234   0.982   3.056  0.6236  0.1687 -0.4526
 4042SOL    HW212947   6.222   0.819   3.059 -0.2137  0.2322 -0.0102
 4043SOL     OW12948   0.039   6.727   4.148 -0.0523 -0.1136 -0.0114
 4043SOL    HW112949   0.012   6.651   4.207  0.7551  0.3891  1.0447
 4043SOL    HW212950   0.134   6.751   4.165  0.3390 -0.2342 -1.8735
 4044SOL     OW12951   0.036   2.637   3.974 -0.4469 -0.3882  0.3485
 4044SOL    HW112952   0.102   2.709   3.952 -0.5576 -0.6167 -0.8035
 4044SOL    HW212953   0.079   2.548   3.964 -0.7287 -0.5203  0.3170
 4045SOL     OW12954   6.885   3.045   1.086 -0.5486  0.1823  0.4298
 4045SOL    HW112955   6.802   2.990   1.086 -1.2205  1.1433  2.4860
 4045SOL    HW212956   6.864   3.138   1.115  0.5459  1.6695 -3.0072
 4046SOL     OW12957   6.589   4.043   5.351 -0.4820 -0.8585  0.3713
 4046SOL    HW112958   6.568   3.949   5.380  0.5954 -1.1984  0.0961
 4046SOL    HW212959   6.682   4.046   5.315  0.1394  0.6422  1.9383
 4047SOL     OW12960   5.877   2.471   0.076  0.1313 -0.2385 -0.0288
 4047SOL    HW112961   5.832   2.518   0.151 -1.7233 -1.7616 -0.1256
 4047SOL    HW212962   5.971   2.448   0.103 -0.3469 -0.3514  1.6473
 4048SOL     OW12963   5.203   5.128   2.194 -0.0480  0.4649  0.3826
 4048SOL    HW112964   5.262   5.049   2.211 -1.3527 -0.9364 -1.2562
 4048SOL    HW212965   5.243   5.184   2.121 -1.8990 -2.0145 -2.8193
 4049SOL     OW12966   0.359   1.877   3.579  0.2751 -0.6052  0.0864
 4049SOL    HW112967   0.323   1.789   3.610 -0.1739 -0.6188 -0.4562
 4049SOL    HW212968   0.437   1.862   3.518  0.7926 -0.5963  0.7394
 4050SOL     OW12969   4.451   2.287   2.613  0.4702 -0.5123 -0.1649
 4050SOL    HW112970   4.520   2.319   2.548  2.5686 -2.3286  0.9877
 4050SOL    HW212971   4.492   2.217   2.672 -1.9465 -0.4837  1.6982
 4051SOL     OW12972   5.109   0.175   0.522 -0.3679 -0.1895  0.1948
 4051SOL    HW112973   5.048   0.166   0.600  0.0325  0.1899  0.5606
 4051SOL    HW212974   5.174   0.250   0.539  1.1742 -1.5308  0.4793
 4052SOL     OW12975   3.704   5.200   2.437  0.5799 -0.2824 -0.0137
 4052SOL    HW112976   3.646   5.252   2.500 -0.4774 -1.4384  0.0287
 4052SOL    HW212977   3.770   5.145   2.489  0.7720 -0.0220  0.0163
 4053SOL     OW12978   1.669   1.218   0.610 -0.8272 -0.1998  0.3112
 4053SOL    HW112979   1.759   1.201   0.572 -0.9292  1.7387 -0.9226
 4053SOL    HW212980   1.642   1.313   0.592 -2.1562 -0.0612  2.6410
 4054SOL     OW12981   2.310   2.801   2.807  0.2167  0.6720  0.4098
 4054SOL    HW112982   2.369   2.879   2.785 -0.5075  0.9037 -0.7340
 4054SOL    HW212983   2.276   2.810   2.901 -2.3412  3.3862 -0.6541
 4055SOL     OW12984   5.384   1.077   5.191  0.2886  0.0521 -0.0832
 4055SOL    HW112985   5.394   1.064   5.289  0.7351  0.1099 -0.1148
 4055SOL    HW212986   5.389   0.989   5.144 -2.0866 -0.2281  0.0961
 4056SOL     OW12987   3.276   5.072   5.746 -0.3131  0.2501 -0.1258
 4056SOL    HW112988   3.199   5.092   5.806 -0.4507  0.2448 -0.2983
 4056SOL    HW212989   3.359   5.061   5.800 -0.8671 -2.2334  0.3348
 4057SOL     OW12990   1.005   5.147   3.586 -0.5852 -0.6570  0.0035
 4057SOL    HW112991   0.938   5.073   3.590 -0.7590 -0.6817 -2.1732
 4057SOL    HW212992   1.098   5.109   3.595 -0.7542 -0.8902  0.8231
 4058SOL     OW12993   2.943   6.022   6.912 -0.3331  0.4296 -0.5930
 4058SOL    HW112994   2.931   6.119   6.892  1.4765  0.7996  0.0066
 4058SOL    HW212995   2.997   6.012   6.996 -1.9827 -1.1005  0.3433
 4059SOL     OW12996   3.346   1.224   0.691 -0.0219  0.6694  0.2869
 4059SOL    HW112997   3.442   1.196   0.688 -0.2166 -0.0046 -2.0743
 4059SOL    HW212998   3.335   1.298   0.757  1.9591  0.2726  1.1460
 4060SOL     OW12999   6.170   3.668   5.601 -0.0568  0.3811 -0.5001
 4060SOL    HW113000   6.239   3.615   5.551 -2.1663 -0.2862 -2.8901
 4060SOL    HW213001   6.188   3.661   5.699  2.7530 -0.4142 -0.9841
 4061SOL     OW13002   1.889   5.704   1.955 -0.1880  0.5968 -0.2787
 4061SOL    HW113003   1.960   5.640   1.926 -1.4859 -0.3744 -1.4061
 4061SOL    HW213004   1.854   5.754   1.876 -2.9496 -1.2199 -0.3263
 4062SOL     OW13005   1.221   2.392   3.570  0.0463 -0.5815  0.2173
 4062SOL    HW113006   1.315   2.364   3.550  0.1091  0.4175 -0.9896
 4062SOL    HW213007   1.159   2.314   3.557  0.7691 -1.4946  1.8792
 4063SOL     OW13008   3.600   1.906   2.911 -0.4465  0.1813 -0.4103
 4063SOL    HW113009   3.579   1.826   2.968 -0.6154  0.6918  0.2614
 4063SOL    HW213010   3.545   1.984   2.942 -0.6898  0.4282 -1.3967
 4064SOL     OW13011   1.926   4.928   5.405  0.3622 -0.0896  0.2374
 4064SOL    HW113012   1.853   4.995   5.388  0.7239 -0.5813 -4.5556
 4064SOL    HW213013   2.005   4.974   5.443  0.2216  2.1834 -1.8888
 4065SOL     OW13014   2.453   1.099   3.621 -0.3061 -1.2435  0.6392
 4065SOL    HW113015   2.410   1.147   3.697  0.5549 -1.2254  1.1307
 4065SOL    HW213016   2.455   1.157   3.540 -2.2251 -1.6591  0.2684
 4066SOL     OW13017   0.155   1.087   4.849 -0.0829  0.2448 -0.3136
 4066SOL    HW113018   0.113   1.113   4.936  0.0935 -0.9574  0.1622
 4066SOL    HW213019   0.224   1.154   4.823 -2.0991  2.1592 -1.0016
 4067SOL     OW13020   4.023   4.293   3.511 -0.5540 -0.3882  0.2013
 4067SOL    HW113021   4.047   4.196   3.525  3.3090  0.5685  1.6688
 4067SOL    HW213022   4.066   4.326   3.427 -0.5101  0.3655  0.5086
 4068SOL     OW13023   0.628   0.114   0.699  0.2049  0.1320  0.0165
 4068SOL    HW113024   0.720   0.120   0.660  0.8538  0.6624  1.5654
 4068SOL    HW213025   0.590   0.023   0.680  1.4109 -0.4107  0.1123
 4069SOL     OW13026   2.375   0.844   4.361  0.0217 -0.1300 -0.0661
 4069SOL    HW113027   2.453   0.781   4.354 -1.0357 -1.4763 -0.0998
 4069SOL    HW213028   2.316   0.816   4.436  0.2553  1.7218  0.8916
 4070SOL     OW13029   5.444   3.694   6.484 -0.8809  0.4368  0.8235
 4070SOL    HW113030   5.523   3.641   6.453 -0.2319  2.0529 -0.4553
 4070SOL    HW213031   5.366   3.675   6.425 -0.7362  0.6624  0.5568
 4071SOL     OW13032   0.764   3.519   5.168  0.3658  0.5788  0.1658
 4071SOL    HW113033   0.835   3.563   5.114  0.8487  1.1028  1.1915
 4071SOL    HW213034   0.677   3.524   5.120  1.1225 -0.6678 -1.4390
 4072SOL     OW13035   3.189   0.560   6.536  0.7153  0.6223  0.3272
 4072SOL    HW113036   3.164   0.464   6.552  0.4356  0.4375 -1.1144
 4072SOL    HW213037   3.281   0.563   6.496  1.2216  1.0469  1.4715
 4073SOL     OW13038   6.794   3.624   5.057 -0.1912  0.1108 -0.0416
 4073SOL    HW113039   6.754   3.713   5.039  0.7238  0.5385 -0.0623
 4073SOL    HW213040   6.831   3.622   5.150 -1.0817 -0.5993  0.3159
 4074SOL     OW13041   3.397   1.724   6.162 -0.5933 -0.2262  0.4998
 4074SOL    HW113042   3.309   1.770   6.177  0.8584  3.3188 -0.8165
 4074SOL    HW213043   3.384   1.645   6.102 -2.6716  1.4598 -1.4459
 4075SOL     OW13044   5.206   6.242   5.689  0.8929 -0.2206  0.5509
 4075SOL    HW113045   5.282   6.201   5.639  2.3265 -0.8175  3.0613
 4075SOL    HW213046   5.171   6.177   5.756 -0.8515  0.5852  0.4849
 4076SOL     OW13047   3.956   3.002   6.421  0.8563  0.0677 -0.3251
 4076SOL    HW113048   3.860   3.021   6.400  0.5759 -1.7368 -0.8833
 4076SOL    HW213049   4.013   3.075   6.384 -0.2461  0.8710 -0.5022
 4077SOL     OW13050   1.931   6.526   4.347 -0.0614 -0.5820 -0.2955
 4077SOL    HW113051   1.834   6.501   4.355  0.1778 -1.3651  0.2101
 4077SOL    HW213052   1.944   6.619   4.382 -0.4595 -0.8511  0.5884
 4078SOL     OW13053   0.352   0.877   3.312  0.7343  0.4486  0.2355
 4078SOL    HW113054   0.397   0.824   3.239  0.1232 -0.4431  0.4895
 4078SOL    HW213055   0.253   0.872   3.299  0.6621  1.9560 -0.0147
 4079SOL     OW13056   3.832   1.849   3.210 -0.0390  0.0885  0.0851
 4079SOL    HW113057   3.863   1.915   3.141 -0.4518  0.0896 -0.1049
 4079SOL    HW213058   3.807   1.763   3.166  1.0033 -0.3854  0.3924
 4080SOL     OW13059   4.225   6.941   3.878  0.1460  0.1051 -0.4878
 4080SOL    HW113060   4.205   7.039   3.874 -0.7510 -0.1075 -0.9129
 4080SOL    HW213061   4.161   6.896   3.939  0.5129 -0.2337 -0.3429
 4081SOL     OW13062   6.791   5.979   0.126  0.3223 -0.4119 -0.2541
 4081SOL    HW113063   6.826   5.963   0.218  2.2472  0.3420 -0.8111
 4081SOL    HW213064   6.867   5.985   0.061 -0.9329 -0.0610 -1.7734
 4082SOL     OW13065   2.013   3.195   2.807  0.1056  0.5084  0.9860
 4082SOL    HW113066   2.061   3.148   2.733  0.0788  0.9659  0.6761
 4082SOL    HW213067   2.036   3.292   2.804  0.0863  0.5331  1.5638
 4083SOL     OW13068   5.749   1.600   4.108  0.1542  0.6805  0.2393
 4083SOL    HW113069   5.693   1.521   4.135  1.3040 -0.0785  0.4787
 4083SOL    HW213070   5.839   1.594   4.153  1.1402  0.8375 -1.6212
 4084SOL     OW13071   5.386   5.702   0.903  0.0539  0.2548 -0.2308
 4084SOL    HW113072   5.458   5.767   0.881  0.6037 -0.1380  0.3806
 4084SOL    HW213073   5.320   5.745   0.965 -0.8737  0.9823 -1.6621
 4085SOL     OW13074   3.618   6.954   0.400 -0.0290 -0.4570  0.7424
 4085SOL    HW113075   3.553   6.932   0.327  0.0737 -0.4484  0.6490
 4085SOL    HW213076   3.705   6.982   0.360 -0.5340  1.3431  0.8214
 4086SOL     OW13077   1.277   6.651   3.775 -0.2108  0.4750  0.2913
 4086SOL    HW113078   1.206   6.583   3.794 -0.4433  0.4302 -0.7024
 4086SOL    HW213079   1.335   6.619   3.700  0.7685  0.5895  0.9707
 4087SOL     OW13080   4.650   1.044   2.519  0.4956  0.1763  0.2922
 4087SOL    HW113081   4.573   1.092   2.562 -1.1883  0.3563 -2.6373
 4087SOL    HW213082   4.641   0.946   2.533 -0.8558  0.1159 -0.7812
 4088SOL     OW13083   4.607   5.474   5.463 -0.1850  0.3544 -0.5668
 4088SOL    HW113084   4.616   5.571   5.438 -0.6486  0.0553 -1.9747
 4088SOL    HW213085   4.511   5.455   5.487  0.0822  0.4349  0.6237
 4089SOL     OW13086   2.394   4.426   3.725  0.2392 -0.3657 -0.1340
 4089SOL    HW113087   2.349   4.514   3.715 -0.3990 -0.5494  1.0391
 4089SOL    HW213088   2.330   4.353   3.699 -0.4162 -0.6682  2.1914
 4090SOL     OW13089   0.486   1.326   0.797  0.0565 -0.6159  0.7323
 4090SOL    HW113090   0.395   1.285   0.790  0.4157 -1.4154  0.7266
 4090SOL    HW213091   0.553   1.256   0.820  0.5573  0.1108  1.5465
 4091SOL     OW13092   5.675   4.616   2.564 -0.3022  0.1601  0.3015
 4091SOL    HW113093   5.765   4.629   2.521 -0.1244 -0.1352  0.5784
 4091SOL    HW213094   5.603   4.636   2.497 -0.0804  3.1817  0.8829
 4092SOL     OW13095   2.826   5.708   0.818 -0.4140 -0.7491  0.0524
 4092SOL    HW113096   2.901   5.689   0.755 -0.3779 -1.6990  0.3810
 4092SOL    HW213097   2.741   5.716   0.767  0.2274  3.0743 -0.7222
 4093SOL     OW13098   3.534   5.013   0.716 -0.0992  0.2684 -0.2077
 4093SOL    HW113099   3.624   5.046   0.744 -0.4097  0.4205  0.6230
 4093SOL    HW213100   3.463   5.071   0.756 -0.6335 -0.9798  0.6817
 4094SOL     OW13101   1.432   2.423   4.081 -0.5252  0.3649  0.2868
 4094SOL    HW113102   1.480   2.347   4.124 -2.5959 -1.2145 -0.0375
 4094SOL    HW213103   1.396   2.394   3.992 -1.9920  1.4634  0.4897
 4095SOL     OW13104   0.531   4.429   6.538 -0.0007  0.0671 -0.2116
 4095SOL    HW113105   0.486   4.469   6.458 -1.0750 -0.9591 -0.1685
 4095SOL    HW213106   0.555   4.501   6.602  1.6506  1.0051 -1.7878
 4096SOL     OW13107   5.773   5.672   4.087  0.1080  0.0494  0.0009
 4096SOL    HW113108   5.755   5.691   4.183  0.4918  3.6023 -0.4870
 4096SOL    HW213109   5.864   5.706   4.063  0.0490 -0.8517 -1.6250
 4097SOL     OW13110   5.841   3.566   4.867  0.5196  0.0472  0.1516
 4097SOL    HW113111   5.855   3.472   4.896  1.0523  0.6043  1.7982
 4097SOL    HW213112   5.888   3.628   4.929  0.5819  1.4002 -1.1826
 4098SOL     OW13113   5.722   4.652   2.860  0.0256 -0.4676 -0.8144
 4098SOL    HW113114   5.645   4.630   2.920  1.9327 -0.4505  1.7848
 4098SOL    HW213115   5.726   4.585   2.786 -1.8277 -1.1033 -0.4178
 4099SOL     OW13116   2.946   1.061   4.673  0.1857 -0.6179  0.2243
 4099SOL    HW113117   2.994   1.043   4.759  0.8953  0.2250  0.0257
 4099SOL    HW213118   2.892   0.981   4.648  0.1772 -0.9765  1.3090
 4100SOL     OW13119   2.712   2.458   2.064 -0.3782 -0.0112 -0.4189
 4100SOL    HW113120   2.701   2.522   2.139 -1.4354  0.7845 -1.2202
 4100SOL    HW213121   2.706   2.507   1.977  1.0519 -0.8689 -1.0535
 4101SOL     OW13122   1.919   1.787   3.012 -0.5778 -0.0528 -0.0211
 4101SOL    HW113123   1.922   1.871   2.957 -0.7984 -0.9740 -1.4966
 4101SOL    HW213124   1.825   1.768   3.038 -0.6659 -0.3877 -0.5696
 4102SOL     OW13125   3.185   2.476   3.761  0.4292  0.3679 -0.1182
 4102SOL    HW113126   3.207   2.488   3.858  0.9469 -1.4935  0.0173
 4102SOL    HW213127   3.256   2.519   3.705  0.9783  0.0374  0.3199
 4103SOL     OW13128   0.448   2.503   1.173  0.6190 -0.2170 -0.2548
 4103SOL    HW113129   0.440   2.573   1.101  1.7730 -0.8686 -1.0466
 4103SOL    HW213130   0.441   2.547   1.262  1.9017  1.0378 -0.7277
 4104SOL     OW13131   5.554   5.829   2.690 -0.2496  0.5560 -0.0849
 4104SOL    HW113132   5.630   5.770   2.715  0.1465  0.0558 -2.2620
 4104SOL    HW213133   5.574   5.875   2.603 -1.3633  2.4264  0.5817
 4105SOL     OW13134   5.844   3.713   2.966  0.2467  0.4671 -0.1572
 4105SOL    HW113135   5.767   3.755   3.013 -0.5708  0.1806 -1.1722
 4105SOL    HW213136   5.857   3.620   3.001  0.9335  0.9209  0.8658
 4106SOL     OW13137   4.412   2.426   0.273  0.0991  0.0747 -0.7123
 4106SOL    HW113138   4.397   2.525   0.282 -0.0806  0.0268 -0.4494
 4106SOL    HW213139   4.471   2.395   0.348 -0.6348 -0.1777 -0.2221
 4107SOL     OW13140   5.799   2.636   4.482 -0.1192  0.1448  0.1236
 4107SOL    HW113141   5.731   2.604   4.416 -1.2320  2.2717  0.1737
 4107SOL    HW213142   5.770   2.724   4.520  1.9270  0.3692  1.2985
 4108SOL     OW13143   5.836   5.853   5.422  0.6015 -0.8647 -0.3404
 4108SOL    HW113144   5.796   5.893   5.504 -0.4346  1.0478 -1.6973
 4108SOL    HW213145   5.869   5.926   5.362 -0.9994 -2.0138 -2.7679
 4109SOL     OW13146   0.981   1.572   0.868  0.0856  0.2070 -0.1475
 4109SOL    HW113147   0.981   1.485   0.917 -0.5650  0.7611  0.8872
 4109SOL    HW213148   0.972   1.647   0.934 -0.9812  0.9695 -1.1232
 4110SOL     OW13149   5.817   1.943   2.776 -0.6663 -0.2630 -0.2248
 4110SOL    HW113150   5.761   1.992   2.710 -0.4168  1.2633  0.6579
 4110SOL    HW213151   5.914   1.955   2.752 -0.5901 -0.0031  0.2124
 4111SOL     OW13152   5.868   6.896   6.630  0.6173 -0.0983  0.1866
 4111SOL    HW113153   5.914   6.978   6.596  0.7993 -0.8977 -1.5950
 4111SOL    HW213154   5.772   6.899   6.602  0.0780  0.5001  1.9794
 4112SOL     OW13155   0.339   0.197   5.265 -0.6392  0.2001  0.1622
 4112SOL    HW113156   0.396   0.279   5.273 -0.6219  0.2087 -0.0414
 4112SOL    HW213157   0.395   0.115   5.276 -0.8193  0.2250  1.3870
 4113SOL     OW13158   0.662   1.392   4.206 -0.0167  0.3129 -0.1248
 4113SOL    HW113159   0.671   1.322   4.277 -3.1981 -0.6341 -0.5281
 4113SOL    HW213160   0.566   1.407   4.185  0.7074  2.6025 -2.3002
 4114SOL     OW13161   4.513   4.142   4.742 -0.4446 -0.1755 -0.3631
 4114SOL    HW113162   4.510   4.042   4.742  2.0547 -0.3215 -1.2134
 4114SOL    HW213163   4.575   4.174   4.669 -1.6955  2.0346 -0.5632
 4115SOL     OW13164   1.831   0.714   5.336 -0.1806 -0.0101 -0.1794
 4115SOL    HW113165   1.781   0.796   5.309  0.0799  0.3551  0.4217
 4115SOL    HW213166   1.828   0.705   5.436 -1.1595 -1.3387 -0.2978
 4116SOL     OW13167   4.836   1.688   0.903 -0.4420 -0.0196 -0.0175
 4116SOL    HW113168   4.779   1.770   0.913  0.2140  0.7206 -1.9550
 4116SOL    HW213169   4.840   1.640   0.991  0.8114  3.1138  1.7952
 4117SOL     OW13170   5.621   3.306   0.968 -0.4768  0.0473 -0.3700
 4117SOL    HW113171   5.694   3.316   1.036 -1.0252  0.2176  0.2073
 4117SOL    HW213172   5.533   3.299   1.015 -0.9248  0.7202 -1.0846
 4118SOL     OW13173   5.249   2.246   4.879 -0.3173  0.1387  0.4907
 4118SOL    HW113174   5.220   2.236   4.784  0.1557 -0.8683  0.4339
 4118SOL    HW213175   5.264   2.155   4.919 -1.5930  0.4783  1.8790
 4119SOL     OW13176   1.782   0.855   4.482  0.3230 -0.3232 -0.4022
 4119SOL    HW113177   1.683   0.846   4.474  0.2539  1.7392 -3.0399
 4119SOL    HW213178   1.825   0.820   4.400  1.7456 -0.3164  0.3149
 4120SOL     OW13179   0.965   4.861   6.359 -0.3569  0.1959  0.1316
 4120SOL    HW113180   0.934   4.816   6.443 -0.4060 -1.0583 -0.5391
 4120SOL    HW213181   0.891   4.918   6.323 -0.9182 -0.5735  0.0464
 4121SOL     OW13182   4.563   5.803   6.520 -0.0890  0.0203 -0.0903
 4121SOL    HW113183   4.583   5.735   6.449 -1.5691  1.6117 -2.1237
 4121SOL    HW213184   4.587   5.764   6.609  2.4687 -1.8288 -1.4124
 4122SOL     OW13185   5.894   3.057   1.676  0.6884 -0.2356 -0.1026
 4122SOL    HW113186   5.936   2.982   1.624 -0.9827  0.0780 -2.0154
 4122SOL    HW213187   5.806   3.026   1.714  0.0829  0.6745 -0.7386
 4123SOL     OW13188   5.250   5.599   1.973 -0.2589 -0.4922  0.4332
 4123SOL    HW113189   5.194   5.629   2.051  2.4663  0.1814  2.2874
 4123SOL    HW213190   5.333   5.655   1.969  1.1315 -2.5302 -1.0961
 4124SOL     OW13191   5.471   0.581   3.326 -0.2880  0.2652  0.0929
 4124SOL    HW113192   5.442   0.672   3.357  0.7736  0.1196  1.6624
 4124SOL    HW213193   5.533   0.591   3.248 -2.8359  0.6662 -1.9846
 4125SOL     OW13194   6.824   1.890   1.507  0.0395  0.0705 -0.1718
 4125SOL    HW113195   6.878   1.868   1.425  1.4376  0.2951  0.6582
 4125SOL    HW213196   6.869   1.961   1.559 -0.9051  0.0275  0.7353
 4126SOL     OW13197   0.781   5.244   4.950  0.4820 -0.1310  0.1622
 4126SOL    HW113198   0.865   5.290   4.921 -0.1392  0.9719  0.0430
 4126SOL    HW213199   0.731   5.303   5.014 -0.3227 -0.6485  0.0283
 4127SOL     OW13200   1.312   2.451   0.945 -0.2040  0.1131  0.4791
 4127SOL    HW113201   1.349   2.404   1.025  0.5120  0.1777  0.1913
 4127SOL    HW213202   1.370   2.433   0.866 -0.7462  0.2827  0.0356
 4128SOL     OW13203   6.523   4.269   0.415  0.6470  0.5160  0.3569
 4128SOL    HW113204   6.439   4.321   0.428  0.6217  0.3750  0.7698
 4128SOL    HW213205   6.522   4.189   0.475  1.9873  1.5830  1.8736
 4129SOL     OW13206   6.146   6.048   2.627  0.1159 -0.0819  0.3841
 4129SOL    HW113207   6.231   6.090   2.659  1.3663 -1.2137 -1.2183
 4129SOL    HW213208   6.103   5.998   2.703  1.6023 -0.5707  0.9651
 4130SOL     OW13209   3.359   4.005   4.341  0.0222  0.4207 -0.0004
 4130SOL    HW113210   3.310   3.997   4.428  1.0477  1.0283  0.6409
 4130SOL    HW213211   3.294   4.033   4.270 -0.6405  0.9266  0.7762
 4131SOL     OW13212   0.047   4.689   5.095 -0.6281  0.8733  0.3133
 4131SOL    HW113213  -0.040   4.731   5.120 -0.3526  0.8792  1.1975
 4131SOL    HW213214   0.031   4.614   5.031 -1.2007  1.4045 -0.1918
 4132SOL     OW13215   2.940   4.640   2.919  0.5126  0.4381 -0.8004
 4132SOL    HW113216   2.950   4.594   3.007  0.1157  1.3061 -0.2929
 4132SOL    HW213217   2.901   4.577   2.852 -0.3340  0.1372 -0.0369
 4133SOL     OW13218   3.443   3.217   0.526  0.0858 -0.8610 -0.3121
 4133SOL    HW113219   3.454   3.206   0.427 -0.0951  0.0419 -0.4412
 4133SOL    HW213220   3.497   3.295   0.556 -1.5081  0.1893 -0.0468
 4134SOL     OW13221   2.369   2.289   3.155  0.3210 -0.2176 -0.3157
 4134SOL    HW113222   2.418   2.230   3.091 -0.4527 -1.9787  0.6449
 4134SOL    HW213223   2.429   2.314   3.230 -0.1570 -2.3966  0.8835
 4135SOL     OW13224   6.308   5.018   2.347 -0.5459  0.4321  0.9486
 4135SOL    HW113225   6.383   4.994   2.286 -1.1409 -0.9794  0.7430
 4135SOL    HW213226   6.285   5.115   2.335  0.2873  0.5283 -0.0006
 4136SOL     OW13227   2.503   4.409   0.134  0.0326 -0.5066  1.0618
 4136SOL    HW113228   2.443   4.407   0.054 -0.6593 -0.9585  1.5904
 4136SOL    HW213229   2.466   4.351   0.206  0.4586  0.1718  1.8547
 4137SOL     OW13230   3.924   4.103   4.903 -0.0313 -0.2108  0.5126
 4137SOL    HW113231   3.960   4.151   4.823 -0.8238  2.4441  1.6264
 4137SOL    HW213232   3.936   4.004   4.891  2.2866  0.2315 -1.6562
 4138SOL     OW13233   5.644   4.084   2.606 -0.1122 -0.6456 -0.1218
 4138SOL    HW113234   5.595   4.167   2.581  2.6760  1.2825  0.3331
 4138SOL    HW213235   5.642   4.019   2.530 -0.5415  0.7368 -1.3372
 4139SOL     OW13236   1.352   5.652   0.230 -0.4375  0.0098  0.1568
 4139SOL    HW113237   1.390   5.688   0.315  1.2472  2.8547 -1.6480
 4139SOL    HW213238   1.425   5.614   0.173 -1.2643 -0.2616 -0.7620
 4140SOL     OW13239   4.273   2.068   5.384 -0.1531 -0.0591  0.1601
 4140SOL    HW113240   4.239   2.007   5.456 -5.0142  1.2718 -0.6556
 4140SOL    HW213241   4.296   2.157   5.424 -1.0533  0.0941  0.3674
 4141SOL     OW13242   5.782   0.208   2.376  0.4602  0.8084 -0.5538
 4141SOL    HW113243   5.846   0.144   2.419  0.7164  0.9054 -0.7779
 4141SOL    HW213244   5.834   0.277   2.325  0.1637  0.4388 -1.3758
 4142SOL     OW13245   4.731   1.850   5.043 -0.3231 -0.6754 -0.0256
 4142SOL    HW113246   4.766   1.793   4.970  0.8353 -0.3055  0.2268
 4142SOL    HW213247   4.799   1.919   5.068 -1.4472  0.4493  0.0798
 4143SOL     OW13248   4.159   5.717   2.880 -0.2632  0.0687 -0.4643
 4143SOL    HW113249   4.157   5.789   2.949 -5.1633 -1.8345  1.8522
 4143SOL    HW213250   4.213   5.640   2.914 -0.0096  0.3535 -0.2178
 4144SOL     OW13251   3.777   3.562   0.302  0.9544 -0.4838  0.1296
 4144SOL    HW113252   3.688   3.577   0.345  0.8765 -0.9855  0.1529
 4144SOL    HW213253   3.809   3.647   0.259  0.3865 -0.3510 -0.0363
 4145SOL     OW13254   1.357   1.640   3.573  1.5024  0.2297  0.8148
 4145SOL    HW113255   1.346   1.553   3.621  3.2879  0.0479  0.9697
 4145SOL    HW213256   1.282   1.701   3.597  1.2982 -0.5497  2.3189
 4146SOL     OW13257   1.957   2.207   2.674  0.1484  0.1839  0.3288
 4146SOL    HW113258   2.032   2.268   2.698  0.3625  0.4789 -1.0367
 4146SOL    HW213259   1.991   2.132   2.617 -0.2433 -0.8131  1.3728
 4147SOL     OW13260   5.220   6.448   1.476 -0.1353  0.1272 -0.0819
 4147SOL    HW113261   5.280   6.368   1.468 -0.5784 -0.1522 -0.6556
 4147SOL    HW213262   5.127   6.423   1.449 -0.1434  0.9902 -0.8923
 4148SOL     OW13263   1.546   0.655   2.405  0.1832  0.3235 -0.0923
 4148SOL    HW113264   1.474   0.585   2.410 -0.4005  0.9713  1.1160
 4148SOL    HW213265   1.530   0.714   2.326  0.0609 -0.2395 -0.4953
 4149SOL     OW13266   7.008   6.652   2.573  0.3610  0.2042  0.1355
 4149SOL    HW113267   6.922   6.646   2.522 -0.1053 -3.4932  1.0430
 4149SOL    HW213268   7.083   6.619   2.515  0.4197 -0.4975  0.6342
 4150SOL     OW13269   4.425   6.446   2.862 -0.3980  0.3731  0.5866
 4150SOL    HW113270   4.449   6.519   2.927 -1.3776  0.0666  1.3308
 4150SOL    HW213271   4.347   6.395   2.898  0.1778 -0.9518  0.0041
 4151SOL     OW13272   3.278   3.544   3.655 -0.6084 -0.1892  0.3839
 4151SOL    HW113273   3.267   3.471   3.587 -0.9303 -0.4308  0.6963
 4151SOL    HW213274   3.374   3.548   3.684 -0.6439 -0.6796  0.5825
 4152SOL     OW13275   2.444   3.879   1.318 -0.4587 -0.1538  0.2232
 4152SOL    HW113276   2.344   3.881   1.318 -0.6397 -3.4526 -0.3509
 4152SOL    HW213277   2.478   3.924   1.236 -1.3982  1.4840  0.6804
 4153SOL     OW13278   2.774   1.323   6.516  0.2618  0.7882  0.2111
 4153SOL    HW113279   2.747   1.297   6.423 -1.1179 -0.8304  1.0332
 4153SOL    HW213280   2.871   1.301   6.530  0.1032 -0.3495 -0.3799
 4154SOL     OW13281   2.761   2.941   6.505  0.0199 -0.3771 -0.6998
 4154SOL    HW113282   2.846   2.992   6.491 -0.9981  1.1700 -1.5990
 4154SOL    HW213283   2.780   2.854   6.550  1.8542  0.7245  0.7582
 4155SOL     OW13284   6.234   5.834   3.184  0.4885  0.6151  0.5003
 4155SOL    HW113285   6.216   5.928   3.153  0.4277  0.9445  1.4967
 4155SOL    HW213286   6.324   5.830   3.229  0.9994 -0.0627 -0.5579
 4156SOL     OW13287   1.226   3.839   3.809  0.2709  0.4359  0.1795
 4156SOL    HW113288   1.239   3.752   3.856 -1.1353 -0.1338 -0.4377
 4156SOL    HW213289   1.308   3.896   3.820  1.6287 -1.3569 -0.2640
 4157SOL     OW13290   1.880   4.557   6.272  0.3765  0.1696 -0.4749
 4157SOL    HW113291   1.936   4.557   6.190  0.2218 -0.1188 -0.5847
 4157SOL    HW213292   1.873   4.650   6.308  4.6443 -0.2670  2.1028
 4158SOL     OW13293   3.629   2.688   6.484  0.3049 -0.0635  0.0344
 4158SOL    HW113294   3.543   2.735   6.465 -0.5503 -1.1065  1.1252
 4158SOL    HW213295   3.658   2.636   6.404 -0.4880 -0.3073 -0.1003
 4159SOL     OW13296   6.107   2.660   3.837 -0.5113  0.0934  0.7569
 4159SOL    HW113297   6.183   2.697   3.783  0.6468 -2.1781  0.6680
 4159SOL    HW213298   6.050   2.734   3.871  0.3060  1.7478 -1.2686
 4160SOL     OW13299   0.151   1.207   2.173  0.2241  0.1362  0.1863
 4160SOL    HW113300   0.107   1.191   2.261  0.6891  1.3951  0.6805
 4160SOL    HW213301   0.200   1.125   2.145  2.4077  0.5520  2.4920
 4161SOL     OW13302   5.520   1.085   6.453 -0.4434 -0.2568 -0.9835
 4161SOL    HW113303   5.552   1.153   6.387 -0.9179  0.6180 -0.3306
 4161SOL    HW213304   5.423   1.097   6.470 -0.1978  0.0331  0.4196
 4162SOL     OW13305   3.480   6.794   3.317 -0.0410 -0.2926  0.2077
 4162SOL    HW113306   3.503   6.772   3.223 -1.2969  0.6964 -0.3796
 4162SOL    HW213307   3.421   6.723   3.355  1.6748 -1.4656  0.8030
 4163SOL     OW13308   6.359   6.496   1.890 -0.0818 -0.4406 -0.1980
 4163SOL    HW113309   6.306   6.515   1.808 -0.4989 -1.1402 -0.0950
 4163SOL    HW213310   6.332   6.408   1.928 -0.0120 -0.0575  0.7802
 4164SOL     OW13311   5.946   3.886   4.650 -0.4385  0.1389 -0.3306
 4164SOL    HW113312   5.992   3.799   4.640 -1.6390 -0.5110 -0.4128
 4164SOL    HW213313   5.937   3.930   4.560 -2.6985 -1.2009 -0.8320
 4165SOL     OW13314   4.079   2.145   5.786  0.4222  0.6989  0.1535
 4165SOL    HW113315   4.004   2.124   5.847 -0.0941  0.6760 -0.4740
 4165SOL    HW213316   4.154   2.187   5.838  2.1257 -3.7079  1.7909
 4166SOL     OW13317   3.274   1.460   5.984 -0.0867 -0.0966  0.1699
 4166SOL    HW113318   3.278   1.426   6.079 -3.6838  0.0784  0.5319
 4166SOL    HW213319   3.210   1.404   5.932 -3.1618  3.4547 -0.3097
 4167SOL     OW13320   0.904   0.842   1.538  0.4866 -0.3584  0.2880
 4167SOL    HW113321   0.912   0.746   1.567  0.7566 -0.5100 -0.2554
 4167SOL    HW213322   0.835   0.888   1.593  0.5393 -0.7917  0.7339
 4168SOL     OW13323   3.404   2.119   5.528 -0.2722  0.1311 -0.0935
 4168SOL    HW113324   3.397   2.153   5.621  2.1298 -0.0727  0.2254
 4168SOL    HW213325   3.482   2.057   5.521 -0.3402  0.2075 -2.2443
 4169SOL     OW13326   1.847   5.410   1.144  0.0748 -0.1937  0.0559
 4169SOL    HW113327   1.911   5.381   1.073 -0.6171  1.5370 -1.3211
 4169SOL    HW213328   1.754   5.393   1.114 -0.2453  1.1249  0.2847
 4170SOL     OW13329   6.170   1.833   6.615  0.1104  0.2170 -0.2088
 4170SOL    HW113330   6.174   1.810   6.518 -0.2077  1.7730 -0.6287
 4170SOL    HW213331   6.075   1.852   6.641  0.2732  0.4684  0.2245
 4171SOL     OW13332   4.052   6.318   5.097 -0.0491  0.4450 -0.5815
 4171SOL    HW113333   3.989   6.240   5.101  0.7298 -0.1706  0.4011
 4171SOL    HW213334   4.092   6.323   5.005  0.4637 -0.8015 -0.4536
 4172SOL     OW13335   6.627   2.173   3.544 -0.3017  0.1394  0.3545
 4172SOL    HW113336   6.603   2.123   3.627 -0.3443 -0.8695 -0.2457
 4172SOL    HW213337   6.624   2.111   3.465  0.7258  0.8365 -0.2620
 4173SOL     OW13338   2.862   2.699   5.697 -0.0536  0.0357  0.1773
 4173SOL    HW113339   2.804   2.672   5.620  0.1589  0.0762  0.0020
 4173SOL    HW213340   2.830   2.787   5.733 -0.8988 -0.5659  0.9027
 4174SOL     OW13341   0.524   2.129   3.954  0.4522  0.0468 -0.3298
 4174SOL    HW113342   0.502   2.173   4.041  0.9412  0.6856 -0.5212
 4174SOL    HW213343   0.598   2.063   3.968  0.9382  0.5761 -0.3618
 4175SOL     OW13344   5.116   1.306   0.987 -0.5285 -0.0991 -0.3129
 4175SOL    HW113345   5.105   1.295   0.888  0.7163  1.7742 -0.6923
 4175SOL    HW213346   5.167   1.389   1.007 -0.0965 -0.8153  1.9038
 4176SOL     OW13347   0.989   5.525   1.815 -0.8158 -0.4256  0.1643
 4176SOL    HW113348   0.915   5.459   1.819 -1.0379 -0.1124  1.5672
 4176SOL    HW213349   1.013   5.555   1.908 -0.7461  1.4771 -0.4166
 4177SOL     OW13350   5.990   6.829   5.335 -0.2420 -0.0731 -0.2051
 4177SOL    HW113351   6.003   6.821   5.434  2.2455 -0.7781 -0.5027
 4177SOL    HW213352   6.057   6.894   5.298 -1.1598  0.2047 -1.4452
 4178SOL     OW13353   2.936   0.191   0.621  0.1340  0.5423  0.0151
 4178SOL    HW113354   2.864   0.127   0.593  1.3929  0.1445 -2.5136
 4178SOL    HW213355   2.900   0.252   0.692 -1.7814 -1.4884  0.8945
 4179SOL     OW13356   6.338   0.944   5.081  0.0495 -0.0154 -0.1212
 4179SOL    HW113357   6.246   0.909   5.097 -0.4346  0.4612 -1.6207
 4179SOL    HW213358   6.359   0.938   4.983  0.5224  2.4246 -0.2324
 4180SOL     OW13359   6.003   5.008   1.253  0.2826 -0.0185 -0.2917
 4180SOL    HW113360   5.980   4.940   1.322 -0.8159  0.0431 -0.5698
 4180SOL    HW213361   6.071   5.072   1.289  1.1084 -1.0841  0.0712
 4181SOL     OW13362   6.220   1.225   4.621  0.2054  0.1379 -0.2446
 4181SOL    HW113363   6.311   1.184   4.626 -0.6578 -2.2857 -1.9604
 4181SOL    HW213364   6.187   1.245   4.713  1.9765 -0.0578  0.4800
 4182SOL     OW13365   4.992   2.691   0.191  0.3563 -0.2072  0.1231
 4182SOL    HW113366   4.957   2.717   0.281  0.3532  0.4514 -0.0661
 4182SOL    HW213367   5.044   2.606   0.199 -1.4236 -1.3248  0.3840
 4183SOL     OW13368   5.486   3.269   3.082  0.3889  0.5669 -0.2883
 4183SOL    HW113369   5.580   3.239   3.063  0.9953  1.0908  1.6106
 4183SOL    HW213370   5.477   3.365   3.058 -0.2929  0.0312 -2.3514
 4184SOL     OW13371   4.554   4.183   1.187  0.4906 -0.0099 -0.5097
 4184SOL    HW113372   4.602   4.255   1.237  1.9915 -0.8495 -0.7063
 4184SOL    HW213373   4.608   4.099   1.188 -0.5350 -0.7129 -1.5543
 4185SOL     OW13374   5.643   6.697   6.411  0.7224  0.0305 -0.5715
 4185SOL    HW113375   5.549   6.661   6.407  0.5024  0.2417  1.4762
 4185SOL    HW213376   5.707   6.624   6.389  0.1368 -0.7300  0.1415
 4186SOL     OW13377   4.559   2.648   0.463  0.5403  0.3851  0.0848
 4186SOL    HW113378   4.528   2.610   0.550 -3.0747  0.1917 -1.1173
 4186SOL    HW213379   4.520   2.739   0.451 -0.4723 -0.2744 -2.0159
 4187SOL     OW13380   1.762   0.013   1.825  0.1446 -0.2575  0.1343
 4187SOL    HW113381   1.761   0.049   1.918  1.9436 -1.4716  0.6648
 4187SOL    HW213382   1.685  -0.049   1.812 -0.7305  0.7692  0.4300
 4188SOL     OW13383   5.909   3.804   2.271  0.4979  0.4652 -0.3648
 4188SOL    HW113384   5.954   3.878   2.322  1.6967  0.3516 -1.2375
 4188SOL    HW213385   5.919   3.820   2.173 -0.9628  0.1697 -0.5791
 4189SOL     OW13386   5.179   6.079   2.333  0.2343  0.0256  0.3997
 4189SOL    HW113387   5.158   6.176   2.339 -0.8697 -0.2535  1.3395
 4189SOL    HW213388   5.133   6.040   2.253  2.1949  0.6174 -1.0817
 4190SOL     OW13389   1.946   1.268   0.106  0.1144  0.0616  0.2859
 4190SOL    HW113390   1.858   1.280   0.153 -0.9795  0.5755 -1.7449
 4190SOL    HW213391   1.934   1.204   0.030  0.9379  1.7212 -1.3101
 4191SOL     OW13392   6.708   1.180   3.862  0.3347  0.0943  0.1792
 4191SOL    HW113393   6.704   1.278   3.846  0.3287  0.1180  0.3252
 4191SOL    HW213394   6.787   1.159   3.921  1.3630 -0.1679 -1.2325
 4192SOL     OW13395   2.206   1.344   1.981  0.2599  0.4576  1.2647
 4192SOL    HW113396   2.238   1.439   1.975 -0.0564  0.4546 -0.9858
 4192SOL    HW213397   2.185   1.322   2.077  0.7656  2.5036  1.8837
 4193SOL     OW13398   5.073   6.521   3.870  0.0175 -0.4896 -0.2254
 4193SOL    HW113399   5.164   6.562   3.862  0.6104 -1.4153  1.2341
 4193SOL    HW213400   5.015   6.580   3.926 -0.6091  0.5537 -1.9059
 4194SOL     OW13401   4.753   2.443   4.829  0.3221  0.4679 -0.4588
 4194SOL    HW113402   4.654   2.430   4.839 -0.0014  1.8914 -1.6016
 4194SOL    HW213403   4.779   2.529   4.872  0.6621  1.2432 -2.1462
 4195SOL     OW13404   6.703   2.634   6.474 -0.9636  0.1639 -0.2296
 4195SOL    HW113405   6.640   2.600   6.543  0.4266 -1.1694  0.4371
 4195SOL    HW213406   6.703   2.573   6.395 -1.6890  1.0451 -0.9246
 4196SOL     OW13407   6.143   5.102   4.589 -0.1147 -0.3113  0.4410
 4196SOL    HW113408   6.068   5.037   4.599 -0.9120  0.3857 -0.6773
 4196SOL    HW213409   6.106   5.195   4.590  0.9834  0.1328  1.8744
 4197SOL     OW13410   0.074   4.180   1.832 -0.8718  0.2148 -0.1008
 4197SOL    HW113411   0.153   4.140   1.879  0.5880  0.4692 -2.1964
 4197SOL    HW213412  -0.008   4.127   1.854 -0.4634  0.7328  3.2153
 4198SOL     OW13413   0.411   1.817   1.384  0.2513  0.2444  0.0146
 4198SOL    HW113414   0.494   1.851   1.429 -0.3988 -0.0916  1.5040
 4198SOL    HW213415   0.419   1.830   1.285  1.6340  1.1810  0.2298
 4199SOL     OW13416   4.127   6.562   3.469 -0.1423  0.4235 -0.1248
 4199SOL    HW113417   4.079   6.585   3.384 -1.8311  0.1265  0.7047
 4199SOL    HW213418   4.131   6.463   3.480  1.7788  0.3884 -0.7507
 4200SOL     OW13419   5.206   2.546   1.900  0.4485  0.2728 -0.2421
 4200SOL    HW113420   5.112   2.566   1.873  0.4105 -0.5150 -0.7284
 4200SOL    HW213421   5.234   2.458   1.862  1.3626  0.4589 -0.0358
 4201SOL     OW13422   4.205   1.392   3.338 -0.0814 -0.2360 -0.1959
 4201SOL    HW113423   4.174   1.317   3.280  0.0992 -0.8153  0.4452
 4201SOL    HW213424   4.298   1.417   3.313 -0.1666 -0.1744 -0.4559
 4202SOL     OW13425   5.405   5.163   6.569 -0.5167  0.1569 -0.0883
 4202SOL    HW113426   5.385   5.066   6.582 -1.8520  0.4349  0.0160
 4202SOL    HW213427   5.353   5.198   6.492 -0.0307  0.8025 -0.1314
 4203SOL     OW13428   3.351   6.261   6.531 -0.0876 -0.2954 -0.9437
 4203SOL    HW113429   3.395   6.239   6.444  1.3015 -1.4209 -0.0107
 4203SOL    HW213430   3.334   6.177   6.583  0.2890  0.4298  0.4169
 4204SOL     OW13431   3.515   2.796   2.333  0.0203 -0.1456  0.3548
 4204SOL    HW113432   3.559   2.861   2.395  0.5668 -0.6060  0.4549
 4204SOL    HW213433   3.444   2.844   2.281  0.5178  0.5666  0.3022
 4205SOL     OW13434   2.822   5.566   6.559  0.2450  0.2549  0.4566
 4205SOL    HW113435   2.811   5.588   6.462  0.8411  1.3752  0.6173
 4205SOL    HW213436   2.916   5.537   6.576 -0.0753 -0.7254  0.5646
 4206SOL     OW13437   0.611   2.172   6.671 -0.5571  0.1082 -1.0747
 4206SOL    HW113438   0.654   2.232   6.738 -0.5024 -0.2698 -0.7660
 4206SOL    HW213439   0.674   2.159   6.594 -0.4159  0.1435 -0.9670
 4207SOL     OW13440   4.077   2.359   2.828  0.1063  0.3836 -1.0053
 4207SOL    HW113441   4.140   2.306   2.884 -1.2893  0.2600  0.5291
 4207SOL    HW213442   4.111   2.452   2.817 -0.0290  0.6860  0.8776
 4208SOL     OW13443   3.352   1.319   2.596  0.2922  0.0207 -0.0464
 4208SOL    HW113444   3.261   1.337   2.558  0.1977  0.5095  0.3975
 4208SOL    HW213445   3.373   1.222   2.588  0.1779  0.0747 -1.1254
 4209SOL     OW13446   5.369   1.659   3.743  0.1495 -0.3753  0.1358
 4209SOL    HW113447   5.363   1.753   3.709  3.0166 -0.1173  0.0859
 4209SOL    HW213448   5.390   1.661   3.841  2.9954 -0.8144 -0.3872
 4210SOL     OW13449   1.651   0.159   5.063 -0.2182 -0.0150 -0.0761
 4210SOL    HW113450   1.611   0.250   5.073  2.1746  1.1704 -0.7390
 4210SOL    HW213451   1.712   0.141   5.139  0.8243 -0.2324 -0.9416
 4211SOL     OW13452   4.153   6.013   3.651 -0.2026  0.3650 -0.3759
 4211SOL    HW113453   4.133   5.932   3.595  0.4585  0.6510 -1.0445
 4211SOL    HW213454   4.137   5.992   3.748  2.3734 -1.4153 -0.2399
 4212SOL     OW13455   3.007   3.884   4.348 -0.9342  0.4734 -0.5241
 4212SOL    HW113456   2.934   3.949   4.327 -0.4905  2.6536  3.6803
 4212SOL    HW213457   2.968   3.801   4.388 -1.2151  1.0811  0.4887
 4213SOL     OW13458   1.725   0.966   4.925  0.1155  0.2536 -0.1788
 4213SOL    HW113459   1.750   1.003   5.015  0.7106  0.7378 -0.5376
 4213SOL    HW213460   1.790   0.894   4.900  0.7133  0.9811 -0.7678
 4214SOL     OW13461   4.083   2.994   4.841  0.1153 -0.3495 -0.3671
 4214SOL    HW113462   4.167   2.944   4.860  1.3210  1.8753  0.5556
 4214SOL    HW213463   4.028   2.998   4.925  1.1591  1.8067  0.2714
 4215SOL     OW13464   0.845   0.848   2.043 -0.2254  0.0631  0.1321
 4215SOL    HW113465   0.857   0.946   2.060 -1.0307 -0.2162  2.6833
 4215SOL    HW213466   0.770   0.813   2.099 -0.3461 -1.9333 -1.1653
 4216SOL     OW13467   5.924   4.602   2.092  0.1571  0.4789  0.0003
 4216SOL    HW113468   5.945   4.504   2.095 -1.9217 -0.0007  0.2252
 4216SOL    HW213469   5.826   4.614   2.077  0.7997  2.5649 -3.5898
 4217SOL     OW13470   0.968   1.001   2.776  0.2872  0.1003 -0.3217
 4217SOL    HW113471   0.958   1.086   2.724 -1.0541  0.8910  1.1486
 4217SOL    HW213472   1.023   1.019   2.858 -0.6824 -0.2140  0.4248
 4218SOL     OW13473   4.900   2.794   1.659 -0.1544  0.0075 -0.2310
 4218SOL    HW113474   4.979   2.814   1.600  0.3277  0.9351  0.6907
 4218SOL    HW213475   4.817   2.795   1.603  0.0392  2.9448 -0.6224
 4219SOL     OW13476   0.221   1.718   0.292 -0.4332  0.4973  0.3214
 4219SOL    HW113477   0.239   1.622   0.273 -1.2252  0.2722  0.6910
 4219SOL    HW213478   0.296   1.756   0.346 -0.0135  0.1494 -0.0031
 4220SOL     OW13479   5.951   6.087   6.213  0.0176  0.1323 -0.0945
 4220SOL    HW113480   5.944   6.056   6.308  2.6093 -0.2026  0.0683
 4220SOL    HW213481   5.888   6.035   6.156 -1.4186  0.1767  1.3770
 4221SOL     OW13482   2.599   1.535   6.385  0.3835 -0.2570  0.2007
 4221SOL    HW113483   2.623   1.561   6.479  1.3267  1.0169 -0.3759
 4221SOL    HW213484   2.673   1.482   6.345  1.1502  1.4224 -0.6864
 4222SOL     OW13485   6.970   5.426   3.271  0.1579  0.0837 -0.2443
 4222SOL    HW113486   6.873   5.449   3.269  0.6750  2.3933 -1.8823
 4222SOL    HW213487   7.002   5.427   3.366 -0.9008  1.7628  0.1283
 4223SOL     OW13488   4.779   0.955   4.335 -0.2899 -0.0580 -0.0987
 4223SOL    HW113489   4.739   1.033   4.384 -0.6740 -1.0075  1.1518
 4223SOL    HW213490   4.764   0.967   4.237  1.0152  2.1944 -0.0959
 4224SOL     OW13491   4.954   4.048   0.464  0.3585 -0.7530  1.0399
 4224SOL    HW113492   4.924   4.085   0.552  1.2158 -0.5813  1.2753
 4224SOL    HW213493   4.927   3.951   0.458 -1.3931 -0.2710  0.6679
 4225SOL     OW13494   1.817   4.845   1.856  0.6310 -0.1251 -0.4390
 4225SOL    HW113495   1.874   4.927   1.858  1.6950 -0.8246 -0.7714
 4225SOL    HW213496   1.855   4.776   1.918 -0.4672 -0.2344  0.1279
 4226SOL     OW13497   3.477   0.655   2.095 -0.1601  0.3824 -0.0723
 4226SOL    HW113498   3.435   0.734   2.141 -1.2233 -0.4583  0.4600
 4226SOL    HW213499   3.521   0.685   2.011 -0.4738  1.5632  0.1677
 4227SOL     OW13500   4.200   0.243   2.898 -0.1087 -0.0701  0.1060
 4227SOL    HW113501   4.263   0.172   2.928 -1.6337 -0.4599  2.6597
 4227SOL    HW213502   4.108   0.223   2.932 -1.8574  0.2534 -3.7956
 4228SOL     OW13503   0.495   0.860   5.750  0.3611  0.1050 -0.6006
 4228SOL    HW113504   0.446   0.944   5.725  1.8384  1.3985  0.6775
 4228SOL    HW213505   0.517   0.862   5.848  1.6769 -1.1234 -0.8346
 4229SOL     OW13506   6.783   4.089   6.989 -0.1085 -0.0214  0.6841
 4229SOL    HW113507   6.762   3.994   7.012 -0.0623 -0.0871  0.4353
 4229SOL    HW213508   6.733   4.150   7.051 -0.2240 -0.1868  0.7302
 4230SOL     OW13509   3.612   4.753   3.132 -0.6125  0.5376  0.1134
 4230SOL    HW113510   3.519   4.745   3.170 -0.7551  0.6356 -0.2178
 4230SOL    HW213511   3.675   4.700   3.189 -0.7732  0.9431  0.6783
 4231SOL     OW13512   4.940   0.280   3.389 -0.4069  0.2521  0.0167
 4231SOL    HW113513   4.983   0.365   3.418  0.3099  0.1802 -0.7939
 4231SOL    HW213514   5.004   0.204   3.402 -0.6137  0.0112 -0.3633
 4232SOL     OW13515   2.001   0.538   4.025  0.9330 -0.0733  0.0976
 4232SOL    HW113516   2.068   0.591   4.078  0.4993  1.8521 -1.1967
 4232SOL    HW213517   2.012   0.559   3.928 -1.9344  0.8602 -0.1273
 4233SOL     OW13518   4.848   0.453   0.586 -0.0649 -0.4023 -0.4255
 4233SOL    HW113519   4.858   0.537   0.640 -0.3384 -0.0307 -0.9439
 4233SOL    HW213520   4.925   0.444   0.523 -1.5532  1.1717 -2.6721
 4234SOL     OW13521   5.008   3.213   0.662 -0.0136  0.3556  0.5634
 4234SOL    HW113522   5.015   3.199   0.564 -0.8786  1.3443  0.3403
 4234SOL    HW213523   4.988   3.125   0.707  0.4866 -0.1151 -0.1154
 4235SOL     OW13524   3.645   1.234   1.780 -0.2209 -0.2834 -0.0455
 4235SOL    HW113525   3.597   1.216   1.866 -1.0255  4.5011  0.8080
 4235SOL    HW213526   3.594   1.193   1.704 -1.1030 -2.1763  1.4936
 4236SOL     OW13527   2.726   4.354   1.275  0.2917 -0.8601 -0.2388
 4236SOL    HW113528   2.645   4.305   1.308  0.3915  0.6891  2.6045
 4236SOL    HW213529   2.800   4.289   1.259  0.2268 -1.7908  2.7710
 4237SOL     OW13530   2.615   4.356   6.824  0.0789  0.1792  0.9926
 4237SOL    HW113531   2.562   4.404   6.755  0.1126 -1.1074  0.0256
 4237SOL    HW213532   2.632   4.416   6.902 -0.5089  1.4602  0.1581
 4238SOL     OW13533   2.487   2.676   0.383 -0.0837  0.0350 -0.2213
 4238SOL    HW113534   2.539   2.599   0.420 -1.5612 -1.6871 -1.5589
 4238SOL    HW213535   2.411   2.642   0.328  0.2182  2.4332 -2.3499
 4239SOL     OW13536   1.796   1.954   5.663  0.0730  0.0231 -0.2107
 4239SOL    HW113537   1.762   2.048   5.654 -0.7826 -0.1196  1.1041
 4239SOL    HW213538   1.816   1.935   5.759 -0.3232 -1.3260 -0.3657
 4240SOL     OW13539   3.680   1.893   1.589 -0.8163 -0.2193 -0.2635
 4240SOL    HW113540   3.694   1.866   1.684 -2.0683 -1.6257 -0.4404
 4240SOL    HW213541   3.586   1.927   1.577 -0.1681  1.5323 -0.6750
 4241SOL     OW13542   0.699   0.853   4.256 -0.8102  0.3887 -0.0983
 4241SOL    HW113543   0.759   0.904   4.318 -0.1222 -0.1175 -0.3445
 4241SOL    HW213544   0.754   0.794   4.197 -1.6718 -3.1139  2.2632
 4242SOL     OW13545   2.323   0.776   3.109 -0.0106 -0.2430 -0.0101
 4242SOL    HW113546   2.409   0.741   3.073 -0.0452 -0.0758 -0.2554
 4242SOL    HW213547   2.248   0.748   3.049 -0.0187  0.3972 -0.2956
 4243SOL     OW13548   0.830   0.664   2.509 -0.5389  0.1133  0.6105
 4243SOL    HW113549   0.841   0.720   2.591 -1.4000  2.1477 -0.5664
 4243SOL    HW213550   0.738   0.677   2.473 -0.3559 -1.1816 -0.3739
 4244SOL     OW13551   0.771   0.022   3.359 -0.1271  0.1895 -0.3194
 4244SOL    HW113552   0.775   0.053   3.264  2.1616 -0.2637 -0.4236
 4244SOL    HW213553   0.744  -0.074   3.362  1.7500 -0.3691 -0.7254
 4245SOL     OW13554   1.610   4.027   5.037 -0.4821  0.3393 -0.3626
 4245SOL    HW113555   1.674   4.035   5.114 -0.8664 -0.2907  0.0362
 4245SOL    HW213556   1.609   4.113   4.985  2.1264 -0.2521 -1.5529
 4246SOL     OW13557   0.056   5.184   5.460  0.2357 -0.3090 -0.6546
 4246SOL    HW113558   0.095   5.183   5.368 -1.5390 -0.1505 -1.4348
 4246SOL    HW213559  -0.006   5.106   5.471  1.0230 -0.7826  0.6983
 4247SOL     OW13560   4.806   6.760   1.047 -0.2899  0.1240 -0.2994
 4247SOL    HW113561   4.806   6.817   0.965  2.1446 -1.1861 -1.3174
 4247SOL    HW213562   4.873   6.687   1.036 -0.1687 -0.3288  2.7513
 4248SOL     OW13563   6.848   6.785   0.802  0.2960 -0.6901 -0.0033
 4248SOL    HW113564   6.833   6.691   0.832 -1.3462 -0.6889 -0.7212
 4248SOL    HW213565   6.887   6.785   0.710 -0.6093 -0.6953 -0.4019
 4249SOL     OW13566   3.128   4.283   2.646  0.2490  0.4349 -0.2628
 4249SOL    HW113567   3.128   4.190   2.682 -2.6859  1.0538  1.6844
 4249SOL    HW213568   3.085   4.283   2.555 -0.2864 -0.0551 -0.0186
 4250SOL     OW13569   3.287   4.929   5.493  0.4032  0.0629 -0.2709
 4250SOL    HW113570   3.282   4.984   5.577 -0.1215  1.0362 -0.9119
 4250SOL    HW213571   3.286   4.832   5.516  0.9006  0.3104  0.8767
 4251SOL     OW13572   3.824   3.144   0.786  0.0601 -0.4255  0.3746
 4251SOL    HW113573   3.864   3.193   0.708 -0.4404 -1.9497 -0.8967
 4251SOL    HW213574   3.745   3.091   0.755 -1.8819  1.0371  2.4695
 4252SOL     OW13575   1.026   0.837   1.281  0.1099 -0.3056  0.0262
 4252SOL    HW113576   0.968   0.786   1.218  0.9264 -0.8195 -0.3140
 4252SOL    HW213577   0.984   0.836   1.372 -0.1791 -1.0683 -0.1094
 4253SOL     OW13578   3.248   6.977   4.239  0.5493 -0.3379  0.2848
 4253SOL    HW113579   3.160   6.977   4.192  1.0586 -0.3770 -0.7190
 4253SOL    HW213580   3.237   7.018   4.330 -0.3701  0.2643 -0.0818
 4254SOL     OW13581   2.659   1.890   4.931 -0.5120 -0.5886 -0.3020
 4254SOL    HW113582   2.603   1.917   5.009 -0.5679 -0.9003 -0.2302
 4254SOL    HW213583   2.599   1.871   4.853 -0.3171  2.6421 -1.3657
 4255SOL     OW13584   2.472   3.314   2.619 -0.1695  0.1717  0.6306
 4255SOL    HW113585   2.558   3.325   2.669 -0.8798  2.0938  1.5917
 4255SOL    HW213586   2.487   3.335   2.522  0.6045 -0.3091  0.6380
 4256SOL     OW13587   2.696   5.359   3.557 -0.5538 -0.3733 -0.0663
 4256SOL    HW113588   2.787   5.371   3.516  1.3129 -0.9976  3.5427
 4256SOL    HW213589   2.628   5.405   3.500  2.2665  2.0267 -1.7962
 4257SOL     OW13590   6.837   5.973   4.401  0.7669  0.0093  0.0280
 4257SOL    HW113591   6.796   5.893   4.358  0.9406 -0.5452  0.8608
 4257SOL    HW213592   6.765   6.036   4.430  0.4526 -1.0679  1.7033
 4258SOL     OW13593   4.955   2.307   4.098 -0.1019 -0.6839 -0.3524
 4258SOL    HW113594   5.036   2.365   4.090  0.5878 -1.5941 -0.1066
 4258SOL    HW213595   4.878   2.352   4.053  0.6471 -0.0186 -1.0001
 4259SOL     OW13596   5.268   3.946   5.759  0.1942 -0.0158  0.2168
 4259SOL    HW113597   5.357   3.899   5.759  1.0822  1.5556 -1.7385
 4259SOL    HW213598   5.239   3.963   5.665 -2.4385 -0.8727  0.8123
 4260SOL     OW13599   6.284   5.717   0.469  0.2049 -0.2369  0.1120
 4260SOL    HW113600   6.284   5.618   0.485 -0.8494 -0.2500  0.1053
 4260SOL    HW213601   6.219   5.760   0.531  0.3061  0.3943 -0.2162
 4261SOL     OW13602   0.934   5.998   4.844  0.3664 -0.2474 -0.2722
 4261SOL    HW113603   0.984   5.992   4.931 -1.9775  1.3272  1.3187
 4261SOL    HW213604   0.890   5.911   4.825 -0.0407 -0.2961  0.7913
 4262SOL     OW13605   0.246   3.401   4.306  0.1656  0.5082 -0.0014
 4262SOL    HW113606   0.340   3.431   4.288  0.5880 -0.8636 -0.1495
 4262SOL    HW213607   0.185   3.438   4.235  1.0302 -0.7957 -1.4742
 4263SOL     OW13608   1.595   0.283   4.563 -0.8653 -0.0788  0.2354
 4263SOL    HW113609   1.617   0.261   4.468  0.3981 -1.1612  0.7487
 4263SOL    HW213610   1.595   0.382   4.575  1.1106  0.0520 -0.4493
 4264SOL     OW13611   3.318   5.195   0.771 -0.2463  0.1250  0.1529
 4264SOL    HW113612   3.356   5.265   0.712 -1.2189  1.5491  1.1438
 4264SOL    HW213613   3.223   5.177   0.745 -0.2780 -0.1725  0.4553
 4265SOL     OW13614   1.537   2.119   4.959  0.3266 -0.0462 -0.5620
 4265SOL    HW113615   1.478   2.058   5.011 -0.4586 -0.0541 -1.4526
 4265SOL    HW213616   1.522   2.214   4.989  0.4622 -0.1313 -0.2196
 4266SOL     OW13617   6.324   4.355   2.445  0.8301  0.6757 -0.9022
 4266SOL    HW113618   6.239   4.397   2.476 -0.0848 -2.3143  1.1586
 4266SOL    HW213619   6.400   4.418   2.459 -0.7043  2.5060 -0.4386
 4267SOL     OW13620   2.628   2.614   5.165 -0.8031  0.6207 -0.6061
 4267SOL    HW113621   2.646   2.548   5.092 -0.5862 -1.1099  0.9283
 4267SOL    HW213622   2.714   2.652   5.198 -0.8268  0.7488 -0.6943
 4268SOL     OW13623   0.993   6.543   1.811 -0.0519 -0.5459  0.0134
 4268SOL    HW113624   0.978   6.605   1.888 -0.4458 -2.9980  2.0317
 4268SOL    HW213625   0.975   6.449   1.839 -0.3277 -1.5680 -3.1435
 4269SOL     OW13626   5.118   3.424   1.857  0.4853 -0.5972 -0.4148
 4269SOL    HW113627   5.104   3.508   1.804 -0.6253 -0.4098  0.1404
 4269SOL    HW213628   5.075   3.347   1.810 -1.3304 -0.2725  0.5889
 4270SOL     OW13629   4.411   6.071   3.674 -0.1488 -0.4925 -0.1802
 4270SOL    HW113630   4.447   6.159   3.703 -0.2585 -0.6587  0.5165
 4270SOL    HW213631   4.313   6.067   3.693  0.2352 -1.6071  2.1684
 4271SOL     OW13632   6.293   0.461   3.413  0.2258 -0.0449  0.1709
 4271SOL    HW113633   6.234   0.470   3.332  0.2216  1.9314  0.3284
 4271SOL    HW213634   6.338   0.372   3.412 -2.4492 -1.4946 -0.1456
 4272SOL     OW13635   0.283   5.977   5.743  0.4297 -0.6233  0.1680
 4272SOL    HW113636   0.378   5.996   5.766  0.8300 -1.6130 -0.6204
 4272SOL    HW213637   0.260   6.017   5.655  0.0886 -0.3258  0.3860
 4273SOL     OW13638   6.613   1.882   2.429 -0.3043 -0.7559 -0.9052
 4273SOL    HW113639   6.712   1.866   2.440  0.0060  1.0878 -0.6565
 4273SOL    HW213640   6.598   1.942   2.350 -1.2495 -1.0915 -0.9970
 4274SOL     OW13641   3.247   1.044   4.073  0.1014  0.1399 -0.1484
 4274SOL    HW113642   3.186   0.979   4.119 -0.9656 -0.1627 -1.8861
 4274SOL    HW213643   3.251   1.022   3.976  1.7530  1.1518 -0.3463
 4275SOL     OW13644   6.273   6.800   5.147  0.7216  0.1848  0.3232
 4275SOL    HW113645   6.304   6.706   5.166  2.3649  0.5233 -0.4228
 4275SOL    HW213646   6.335   6.865   5.191  2.3243  0.9331 -2.7554
 4276SOL     OW13647   6.805   0.495   0.902 -0.0585  0.2142 -0.3402
 4276SOL    HW113648   6.861   0.509   0.821  3.6807 -1.0172  1.7617
 4276SOL    HW213649   6.769   0.402   0.903  0.3691  0.0473 -0.3269
 4277SOL     OW13650   2.994   0.614   0.854  0.3212  1.2063  0.1902
 4277SOL    HW113651   3.046   0.561   0.921 -1.7025  0.0611  0.9033
 4277SOL    HW213652   3.041   0.610   0.766  0.6023 -1.2259  0.3852
 4278SOL     OW13653   4.938   4.553   1.949  0.1929  0.7791 -0.4575
 4278SOL    HW113654   5.027   4.593   1.970 -0.1403  1.6757 -0.6939
 4278SOL    HW213655   4.920   4.561   1.850 -1.3501  3.2634 -0.0798
 4279SOL     OW13656   4.066   2.015   6.066  0.4322  0.4453 -0.3838
 4279SOL    HW113657   4.028   1.966   5.987  0.9827  2.3121 -1.8815
 4279SOL    HW213658   3.996   2.025   6.136 -1.0413  1.3836 -1.9199
 4280SOL     OW13659   6.084   0.203   0.118 -0.2837 -0.0293  0.1427
 4280SOL    HW113660   6.067   0.209   0.217 -1.2869  0.3716 -0.0413
 4280SOL    HW213661   6.083   0.295   0.079 -3.9135 -0.3261 -0.8453
 4281SOL     OW13662   5.430   1.638   4.018  0.0697 -0.1585 -0.0578
 4281SOL    HW113663   5.418   1.574   4.094 -0.3391 -0.1325 -0.0953
 4281SOL    HW213664   5.393   1.727   4.044  1.8014  0.4495  0.4818
 4282SOL     OW13665   4.897   3.944   0.883 -0.2003 -0.7267  0.0122
 4282SOL    HW113666   4.840   3.877   0.836 -0.3845 -0.7073  0.2053
 4282SOL    HW213667   4.955   3.897   0.950  1.1005 -0.9413 -1.2213
 4283SOL     OW13668   2.800   6.384   2.828 -0.3030  0.5568 -0.0211
 4283SOL    HW113669   2.712   6.345   2.802 -0.3370 -1.2823  2.4509
 4283SOL    HW213670   2.799   6.483   2.815 -1.3059  0.1983 -3.6920
 4284SOL     OW13671   3.247   2.051   4.778 -0.1356 -0.5697  0.2215
 4284SOL    HW113672   3.296   1.965   4.775  1.8073  0.5056 -0.9044
 4284SOL    HW213673   3.277   2.110   4.702  0.6295  2.1278  2.4368
 4285SOL     OW13674   4.806   4.877   6.895  0.1362  0.0830 -0.4586
 4285SOL    HW113675   4.768   4.970   6.891 -0.8086 -0.2372  0.5550
 4285SOL    HW213676   4.897   4.877   6.854  0.7449  1.7725  0.7254
 4286SOL     OW13677   5.136   4.076   3.105  0.2287  0.4688 -0.2026
 4286SOL    HW113678   5.114   4.039   3.014 -1.2837  0.2877  0.1992
 4286SOL    HW213679   5.069   4.042   3.171  1.5210  0.3193  1.0612
 4287SOL     OW13680   7.013   0.525   0.726 -0.3850 -0.4789 -0.0887
 4287SOL    HW113681   7.007   0.535   0.627 -1.6930  0.4493  0.0594
 4287SOL    HW213682   7.030   0.614   0.768 -0.3974 -0.7742  0.5525
 4288SOL     OW13683   5.169   1.252   3.596 -0.1035 -0.3216  0.1369
 4288SOL    HW113684   5.091   1.259   3.657 -0.7758  0.2672 -0.7532
 4288SOL    HW213685   5.222   1.337   3.599  0.7332 -0.8503  1.0095
 4289SOL     OW13686   5.444   1.008   6.096 -0.5829  0.5138 -0.4867
 4289SOL    HW113687   5.373   0.950   6.135  2.4236 -1.8481  2.0612
 4289SOL    HW213688   5.483   0.964   6.015 -0.7842  0.8460 -0.7651
 4290SOL     OW13689   5.430   0.247   5.368 -0.2993  0.3949 -0.7152
 4290SOL    HW113690   5.480   0.160   5.377  2.1295  1.8599  1.5331
 4290SOL    HW213691   5.422   0.290   5.457 -0.1821  3.1257 -1.9206
 4291SOL     OW13692   5.317   3.990   0.136  0.3547  0.8833 -0.4800
 4291SOL    HW113693   5.328   3.910   0.195 -0.1569  1.7274  0.8031
 4291SOL    HW213694   5.323   3.962   0.040 -4.0792 -1.5166 -0.3603
 4292SOL     OW13695   3.284   6.620   3.199 -0.3674  0.2668  0.1435
 4292SOL    HW113696   3.335   6.574   3.127 -0.2315 -2.1482  1.6693
 4292SOL    HW213697   3.213   6.678   3.158 -1.3738 -2.2666 -1.9767
 4293SOL     OW13698   4.259   1.425   3.828 -0.6616  0.1996 -0.2973
 4293SOL    HW113699   4.306   1.443   3.914  0.5363  1.0104 -1.1050
 4293SOL    HW213700   4.271   1.503   3.766  0.0441 -1.1090 -1.8776
 4294SOL     OW13701   3.613   0.064   2.652 -0.0077 -0.4948 -0.3697
 4294SOL    HW113702   3.697   0.015   2.675 -0.1843 -0.8104 -0.4029
 4294SOL    HW213703   3.631   0.125   2.574  0.1511 -0.6684 -0.4688
 4295SOL     OW13704   5.526   6.124   3.345  0.1136  0.0371 -0.3520
 4295SOL    HW113705   5.536   6.025   3.333  0.6841 -0.0728  0.8632
 4295SOL    HW213706   5.450   6.157   3.289  0.2848 -0.9897 -1.2138
 4296SOL     OW13707   4.731   1.933   1.503 -0.4081 -0.5219 -0.3483
 4296SOL    HW113708   4.649   1.988   1.518 -0.1918  0.1095 -1.3297
 4296SOL    HW213709   4.805   1.967   1.562 -0.6283 -0.5850 -0.0329
 4297SOL     OW13710   6.045   1.675   1.868  0.3200 -0.4245 -0.5929
 4297SOL    HW113711   6.083   1.655   1.778 -2.3596  0.5970 -2.0851
 4297SOL    HW213712   6.030   1.774   1.877  0.6849 -0.4848  1.0597
 4298SOL     OW13713   2.060   4.752   1.233 -0.2407  0.2429 -0.2244
 4298SOL    HW113714   2.098   4.839   1.264  2.6444 -0.3101 -1.8031
 4298SOL    HW213715   1.962   4.763   1.217  0.2915  3.8570 -2.2791
 4299SOL     OW13716   0.525   5.372   6.945 -0.0077  0.1180  0.0231
 4299SOL    HW113717   0.438   5.350   6.988 -0.0670  2.2548  1.1566
 4299SOL    HW213718   0.509   5.431   6.865  0.3555 -0.3773 -0.4248
 4300SOL     OW13719   6.813   4.179   6.099  0.8565 -0.8655  0.3039
 4300SOL    HW113720   6.797   4.222   6.188 -0.6976 -0.0030 -0.3501
 4300SOL    HW213721   6.837   4.250   6.032 -0.1249 -1.2093 -0.4363
 4301SOL     OW13722   1.950   5.872   6.997 -0.0095 -0.2119 -0.3315
 4301SOL    HW113723   1.912   5.962   7.021  0.7576 -0.6099  2.8037
 4301SOL    HW213724   2.050   5.880   6.992  0.0079 -0.7344 -0.8429
 4302SOL     OW13725   0.845   2.637   0.915  0.3220  0.8067  0.3340
 4302SOL    HW113726   0.938   2.622   0.947  0.9244 -1.1564 -1.9043
 4302SOL    HW213727   0.780   2.587   0.973  1.2412 -1.9200 -0.8514
 4303SOL     OW13728   5.551   4.288   6.285 -0.4510 -0.7957 -0.1332
 4303SOL    HW113729   5.596   4.256   6.368  0.5757 -1.4971 -0.9335
 4303SOL    HW213730   5.541   4.211   6.221 -0.7308 -0.1557 -0.8689
 4304SOL     OW13731   5.906   5.109   3.299 -0.2446 -0.7125 -0.3478
 4304SOL    HW113732   5.938   5.015   3.299  1.2217 -0.2552 -1.6699
 4304SOL    HW213733   5.963   5.165   3.358  0.3987 -0.2294 -1.3801
 4305SOL     OW13734   2.792   4.465   1.943 -0.1676 -0.2732 -0.5397
 4305SOL    HW113735   2.718   4.516   1.986 -0.4889 -1.1940  0.0190
 4305SOL    HW213736   2.783   4.368   1.965  0.8244 -0.4843 -1.0166
 4306SOL     OW13737   2.474   4.600   1.639 -0.0201 -0.2995 -0.9393
 4306SOL    HW113738   2.463   4.634   1.545  0.1825 -1.1150 -1.2750
 4306SOL    HW213739   2.570   4.576   1.654 -0.0899 -0.3571 -0.5965
 4307SOL     OW13740   1.280   0.845   1.965  0.4762 -0.3995  0.3744
 4307SOL    HW113741   1.322   0.800   1.886  0.1339 -0.0856  0.0039
 4307SOL    HW213742   1.211   0.910   1.934 -0.4319 -1.0359  0.9712
 4308SOL     OW13743   3.849   2.215   2.861  0.1093 -0.2026 -0.3187
 4308SOL    HW113744   3.795   2.235   2.779  1.5071 -0.7511 -1.4073
 4308SOL    HW213745   3.928   2.275   2.865  0.5571 -0.8003  0.1284
 4309SOL     OW13746   2.747   4.455   5.736 -0.6931  0.3300 -0.2750
 4309SOL    HW113747   2.654   4.477   5.706 -1.2368  0.9499  1.7032
 4309SOL    HW213748   2.776   4.521   5.806  0.5059 -0.9444  0.4876
 4310SOL     OW13749   0.227   4.770   4.682  0.0165  0.0040 -0.3070
 4310SOL    HW113750   0.228   4.675   4.714 -1.1986  0.6225  1.7096
 4310SOL    HW213751   0.309   4.817   4.715 -0.7579  0.3773  1.1707
 4311SOL     OW13752   4.895   3.775   0.485  0.3563 -0.3419 -0.5905
 4311SOL    HW113753   4.798   3.751   0.489  0.5993 -1.3282  1.2601
 4311SOL    HW213754   4.946   3.699   0.444  0.4813 -0.4347 -0.2771
 4312SOL     OW13755   0.497   6.725   3.629 -0.1804 -0.1575 -0.1171
 4312SOL    HW113756   0.559   6.655   3.666 -0.6614 -1.7455 -2.0822
 4312SOL    HW213757   0.443   6.765   3.703  0.5281 -1.4575  1.1532
 4313SOL     OW13758   3.627   6.160   2.186  0.3041 -0.1664 -0.0282
 4313SOL    HW113759   3.725   6.145   2.199  0.1616 -1.8180 -0.6172
 4313SOL    HW213760   3.588   6.084   2.134 -1.2216  0.6730 -0.1827
 4314SOL     OW13761   1.484   1.862   6.902  0.6719 -0.2855 -0.3456
 4314SOL    HW113762   1.507   1.933   6.968 -1.3451  1.8184 -1.7848
 4314SOL    HW213763   1.466   1.776   6.951 -1.9693  1.4707  2.0350
 4315SOL     OW13764   6.686   3.002   5.398  0.3996 -0.0595 -0.4849
 4315SOL    HW113765   6.606   2.961   5.441  0.9993 -0.1765  0.5512
 4315SOL    HW213766   6.768   2.951   5.424  0.9692  0.8539 -0.4393
 4316SOL     OW13767   5.924   4.130   2.633  0.4559  0.2777  0.1066
 4316SOL    HW113768   5.950   4.075   2.712  2.3123 -0.4167 -0.9388
 4316SOL    HW213769   5.827   4.114   2.611  0.1728 -0.2081  1.6622
 4317SOL     OW13770   3.275   3.821   6.769 -0.2643  0.0063 -0.8532
 4317SOL    HW113771   3.341   3.849   6.700 -0.9628  1.4494 -0.9639
 4317SOL    HW213772   3.193   3.877   6.761 -0.9765 -0.8750  0.1343
 4318SOL     OW13773   6.611   2.293   6.858 -0.0971 -0.0221 -0.0043
 4318SOL    HW113774   6.569   2.214   6.902  0.7512 -0.6321 -0.2453
 4318SOL    HW213775   6.638   2.359   6.928 -3.0551  1.2675  0.0703
 4319SOL     OW13776   2.570   4.499   4.803 -0.3203  0.4343 -0.3493
 4319SOL    HW113777   2.619   4.452   4.876  0.4279 -2.2645 -2.4493
 4319SOL    HW213778   2.472   4.479   4.809 -0.5578  1.7646  0.9200
 4320SOL     OW13779   5.053   6.236   5.977 -0.1518  0.2752  0.1981
 4320SOL    HW113780   5.071   6.246   6.075 -2.1400  0.3636  0.6129
 4320SOL    HW213781   5.081   6.145   5.947 -0.5111 -0.1455  1.1079
 4321SOL     OW13782   0.432   1.063   3.089  0.0672 -0.2051  0.5605
 4321SOL    HW113783   0.453   1.071   3.186 -2.1604  2.3480  0.9391
 4321SOL    HW213784   0.347   1.011   3.077  0.4625 -0.7235 -0.0564
 4322SOL     OW13785   0.903   5.799   2.459 -0.2921  0.1240 -0.0952
 4322SOL    HW113786   0.923   5.707   2.492 -0.7440 -0.0545 -0.2931
 4322SOL    HW213787   0.858   5.793   2.370 -0.9906  0.4956  0.2214
 4323SOL     OW13788   1.036   6.392   5.249  0.2770 -0.7783 -0.1598
 4323SOL    HW113789   1.075   6.356   5.164  0.1158 -1.7912  0.1812
 4323SOL    HW213790   0.942   6.422   5.232  0.2857 -0.8638 -0.3627
 4324SOL     OW13791   5.914   0.905   2.509 -0.5839  0.6226 -0.1217
 4324SOL    HW113792   5.887   0.985   2.454  0.5805  1.4770  0.5184
 4324SOL    HW213793   5.976   0.934   2.581  0.1649 -0.9450 -0.1134
 4325SOL     OW13794   2.889   5.655   2.990  0.6247  0.3294 -0.0546
 4325SOL    HW113795   2.891   5.731   2.926 -1.3693  0.6574  0.2012
 4325SOL    HW213796   2.805   5.603   2.977  0.1393  0.4081  2.2587
 4326SOL     OW13797   3.941   1.982   4.573 -0.0709 -0.3788 -0.2591
 4326SOL    HW113798   3.896   1.934   4.497 -0.4575 -0.2966 -0.0852
 4326SOL    HW213799   4.018   2.036   4.537 -1.3755  1.1467 -0.8938
 4327SOL     OW13800   2.003   4.339   3.014 -0.0820 -0.3006 -0.4819
 4327SOL    HW113801   2.091   4.366   3.054 -0.1921  0.8861 -0.9766
 4327SOL    HW213802   1.948   4.421   2.998 -0.2541 -0.7685 -2.5476
 4328SOL     OW13803   6.158   3.485   0.148  0.3549  0.2562  0.9369
 4328SOL    HW113804   6.239   3.495   0.091  0.1347 -0.4011  0.4959
 4328SOL    HW213805   6.101   3.411   0.112  0.3430 -0.3503  2.1674
 4329SOL     OW13806   2.655   0.517   2.744 -0.1687  0.0149  0.2629
 4329SOL    HW113807   2.594   0.438   2.746  0.2240 -0.4820 -2.6037
 4329SOL    HW213808   2.748   0.488   2.768  0.4164 -0.9886 -2.7985
 4330SOL     OW13809   6.343   3.073   3.643  0.6560  0.1182  0.4107
 4330SOL    HW113810   6.426   3.091   3.696  0.9601  2.1713 -0.6806
 4330SOL    HW213811   6.262   3.097   3.697  0.6097 -2.9196  1.8983
 4331SOL     OW13812   3.961   5.215   4.414  0.1223 -0.4505  0.8570
 4331SOL    HW113813   4.047   5.197   4.367  0.2656  0.7382  0.6364
 4331SOL    HW213814   3.904   5.133   4.411  1.5365 -1.5173  1.6829
 4332SOL     OW13815   1.197   2.215   6.141  0.3895 -0.2579 -0.1729
 4332SOL    HW113816   1.160   2.284   6.203  3.2448  0.4494  0.9152
 4332SOL    HW213817   1.264   2.159   6.190  0.8282 -1.3996 -1.9962
 4333SOL     OW13818   1.044   1.126   5.460 -0.0574 -0.4417  0.1399
 4333SOL    HW113819   1.125   1.183   5.448  0.6187 -1.6819 -1.4032
 4333SOL    HW213820   1.039   1.095   5.555  1.4277 -0.5615  0.1932
 4334SOL     OW13821   1.478   0.020   3.988 -0.1457 -0.4096 -0.1476
 4334SOL    HW113822   1.385   0.049   3.967 -0.3727 -0.6419  0.4830
 4334SOL    HW213823   1.500  -0.062   3.935 -1.0386 -1.5096  1.1793
 4335SOL     OW13824   3.072   0.605   6.939  0.4708 -0.2775 -0.3201
 4335SOL    HW113825   3.141   0.533   6.927  1.0183  0.5085 -2.3695
 4335SOL    HW213826   3.014   0.609   6.857 -0.3556  0.8089  0.2799
 4336SOL     OW13827   6.151   5.117   0.171  0.2722  0.0668 -0.2543
 4336SOL    HW113828   6.107   5.149   0.255  0.6479  1.7871 -0.6704
 4336SOL    HW213829   6.097   5.044   0.130 -0.4389 -0.1047  0.9554
 4337SOL     OW13830   2.497   1.842   1.754 -0.1241 -1.1356  0.0378
 4337SOL    HW113831   2.417   1.816   1.700 -0.4890 -0.7143  0.3662
 4337SOL    HW213832   2.573   1.862   1.693 -1.2328  1.8588 -0.5401
 4338SOL     OW13833   0.391   1.387   3.874 -0.7361 -0.0719 -0.7297
 4338SOL    HW113834   0.336   1.470   3.870 -0.4885  0.0505 -2.0081
 4338SOL    HW213835   0.394   1.354   3.969  3.0592  3.9857  0.8968
 4339SOL     OW13836   0.121   1.782   6.637  0.4330  0.0824 -0.6171
 4339SOL    HW113837   0.117   1.798   6.735 -1.1130 -0.8645 -0.4655
 4339SOL    HW213838   0.201   1.727   6.615 -0.0858 -1.1297  0.4002
 4340SOL     OW13839   6.538   0.097   3.514 -0.1245 -0.2702 -0.1135
 4340SOL    HW113840   6.616   0.068   3.570  0.1797 -0.5585 -0.6773
 4340SOL    HW213841   6.467   0.134   3.573  0.3052 -0.3090  0.4419
 4341SOL     OW13842   0.742   5.486   5.810  0.1635 -0.2980 -0.2443
 4341SOL    HW113843   0.720   5.392   5.834  1.1081 -0.5291 -0.2240
 4341SOL    HW213844   0.692   5.550   5.869 -0.3027 -0.7873 -0.1105
 4342SOL     OW13845   3.481   1.505   5.777  0.1323 -0.0442  0.0326
 4342SOL    HW113846   3.412   1.493   5.849  1.2283  2.3344  1.6092
 4342SOL    HW213847   3.437   1.546   5.696 -0.8810 -1.6162 -0.2521
 4343SOL     OW13848   1.382   6.173   0.989 -0.6803 -0.1891  0.0616
 4343SOL    HW113849   1.302   6.168   1.049 -0.8737  0.2574 -0.1582
 4343SOL    HW213850   1.449   6.105   1.018 -1.0413 -0.4076  0.3912
 4344SOL     OW13851   4.743   6.894   2.724  0.2947  0.5103 -0.0479
 4344SOL    HW113852   4.736   6.990   2.751 -0.6073  0.5334 -0.3357
 4344SOL    HW213853   4.835   6.877   2.687  0.7785  1.0181  0.8864
 4345SOL     OW13854   3.906   0.714   5.444  0.5775 -0.2419 -0.6484
 4345SOL    HW113855   3.872   0.799   5.485  1.0541 -0.8666  1.1555
 4345SOL    HW213856   3.970   0.736   5.371 -0.0186  0.9475 -0.8440
 4346SOL     OW13857   4.499   3.669   6.888 -0.3318 -0.1672 -0.1289
 4346SOL    HW113858   4.587   3.638   6.922 -1.6460 -1.5494  2.3264
 4346SOL    HW213859   4.451   3.593   6.843 -1.0850  0.0064  0.3606
 4347SOL     OW13860   5.263   2.074   4.413 -0.1135 -0.2463 -0.0243
 4347SOL    HW113861   5.335   2.005   4.412 -0.9868 -1.1853  0.1960
 4347SOL    HW213862   5.185   2.042   4.359  0.6407  1.9051 -2.5922
 4348SOL     OW13863   4.212   6.532   3.852  0.3255  0.9238 -0.6744
 4348SOL    HW113864   4.295   6.484   3.823  0.0138 -0.2510  0.2503
 4348SOL    HW213865   4.133   6.473   3.837 -0.2484  1.7277 -0.8399
 4349SOL     OW13866   1.239   4.877   2.463  0.2302 -0.5369 -0.3184
 4349SOL    HW113867   1.309   4.876   2.392 -0.6187 -0.3135 -1.2058
 4349SOL    HW213868   1.203   4.971   2.472  1.4071 -0.2370  1.5257
 4350SOL     OW13869   1.065   4.420   1.072 -0.2170 -0.0320  0.5233
 4350SOL    HW113870   1.093   4.415   1.168  1.1451 -3.3782  0.1284
 4350SOL    HW213871   0.996   4.350   1.054  1.0885 -0.9307 -1.3455
 4351SOL     OW13872   0.458   1.160   5.386 -0.1222 -0.0757  0.4066
 4351SOL    HW113873   0.369   1.121   5.364 -0.6302 -0.3303  2.7632
 4351SOL    HW213874   0.528   1.114   5.332 -1.4655  1.0134 -2.4750
 4352SOL     OW13875   2.845   5.624   5.831  0.4233  0.0372 -0.2442
 4352SOL    HW113876   2.856   5.525   5.835  1.3855  0.1258 -0.3800
 4352SOL    HW213877   2.748   5.647   5.834  0.2152 -0.8731  0.4852
 4353SOL     OW13878   4.200   4.415   3.674  0.4313  0.0860  0.2516
 4353SOL    HW113879   4.124   4.370   3.627 -1.0280  1.4648  1.2224
 4353SOL    HW213880   4.268   4.346   3.700  0.4948 -0.9377 -2.3404
 4354SOL     OW13881   2.855   4.765   4.110 -0.3659  0.7216 -0.3653
 4354SOL    HW113882   2.777   4.704   4.102 -1.1793  1.6631  0.1903
 4354SOL    HW213883   2.835   4.852   4.065 -0.6169  1.8752  1.8601
 4355SOL     OW13884   5.496   1.110   3.042  0.0361 -0.6422  0.2679
 4355SOL    HW113885   5.569   1.096   2.976 -0.5016 -0.4337 -0.3926
 4355SOL    HW213886   5.448   1.024   3.058  0.5855 -0.8478  0.9196
 4356SOL     OW13887   2.675   5.527   3.988  0.1042 -0.1777  0.0824
 4356SOL    HW113888   2.734   5.597   3.946  0.7966 -1.6232 -1.4838
 4356SOL    HW213889   2.581   5.541   3.957  0.3134 -0.1933 -0.5928
 4357SOL     OW13890   3.078   6.857   5.787  0.4043  0.3294  0.6431
 4357SOL    HW113891   3.139   6.820   5.717 -2.1219 -2.9720 -0.1014
 4357SOL    HW213892   3.022   6.930   5.747  1.8710  1.4440  0.5478
 4358SOL     OW13893   5.396   2.231   3.519 -0.0563  0.1571 -0.0131
 4358SOL    HW113894   5.350   2.313   3.553 -0.8442  0.1235 -0.9836
 4358SOL    HW213895   5.345   2.150   3.546 -0.1752  0.0775 -0.4683
 4359SOL     OW13896   1.458   2.490   4.715 -0.0536 -0.5993  0.2897
 4359SOL    HW113897   1.377   2.446   4.676 -0.4544  1.9550 -2.0050
 4359SOL    HW213898   1.524   2.419   4.742 -1.4419 -2.6400 -1.3617
 4360SOL     OW13899   0.897   5.079   0.814  0.3124  0.1405 -0.5492
 4360SOL    HW113900   0.874   5.074   0.717 -0.2010 -2.6800 -0.3537
 4360SOL    HW213901   0.976   5.021   0.833  0.2027  0.3852  0.7644
 4361SOL     OW13902   2.496   4.937   0.164 -0.4388  0.4309  0.5340
 4361SOL    HW113903   2.531   5.025   0.132 -0.7073  0.5754  0.6206
 4361SOL    HW213904   2.503   4.933   0.264  1.9342 -0.6728  0.3802
 4362SOL     OW13905   4.057   2.644   0.674  0.4347  0.0093  0.4151
 4362SOL    HW113906   3.968   2.645   0.720  0.4190 -0.4512  0.4011
 4362SOL    HW213907   4.048   2.604   0.584  0.8598 -1.0892  0.8416
 4363SOL     OW13908   4.016   2.313   6.669  0.1009 -0.5926  0.1620
 4363SOL    HW113909   4.072   2.294   6.588 -0.3862 -0.9004 -0.1106
 4363SOL    HW213910   3.939   2.372   6.643  1.5265  1.8073  0.9601
 4364SOL     OW13911   0.589   1.687   6.164  0.4008  0.5666  0.1604
 4364SOL    HW113912   0.671   1.714   6.114 -0.0073 -0.7884 -1.3455
 4364SOL    HW213913   0.555   1.600   6.128 -0.9212  0.3919  1.6817
 4365SOL     OW13914   5.796   1.597   0.165  0.3961 -0.5900 -0.7678
 4365SOL    HW113915   5.830   1.509   0.131  1.1947 -0.4775 -0.2900
 4365SOL    HW213916   5.707   1.584   0.208  0.6033 -1.2056 -0.5161
 4366SOL     OW13917   1.770   5.801   6.800 -0.4594 -0.1436  0.3030
 4366SOL    HW113918   1.834   5.828   6.872  0.7028 -0.8955 -0.4070
 4366SOL    HW213919   1.680   5.840   6.819  0.5400  2.1792  0.5810
 4367SOL     OW13920   5.685   6.444   4.715  0.0911 -0.4263  0.0467
 4367SOL    HW113921   5.628   6.505   4.770  2.2976  3.5761 -1.6794
 4367SOL    HW213922   5.656   6.447   4.620 -0.1959 -2.8449 -0.0077
 4368SOL     OW13923   2.949   6.297   4.209 -0.1138  0.2969 -0.3155
 4368SOL    HW113924   2.927   6.323   4.303  0.3319 -0.0633 -0.1094
 4368SOL    HW213925   2.865   6.272   4.161 -0.3147  0.2242  0.0703
 4369SOL     OW13926   3.170   2.672   5.464  0.4541 -0.1337  0.3174
 4369SOL    HW113927   3.148   2.703   5.557 -0.8767 -0.4094  0.1325
 4369SOL    HW213928   3.147   2.744   5.399  2.6343  0.5777  0.2558
 4370SOL     OW13929   3.937   3.114   1.854 -0.3752 -0.0782 -0.3369
 4370SOL    HW113930   3.945   3.017   1.831  1.2258 -0.5777  2.0059
 4370SOL    HW213931   3.840   3.141   1.849 -1.1707 -2.3939  1.1243
 4371SOL     OW13932   4.197   6.670   1.612 -0.1539  0.4268  0.0550
 4371SOL    HW113933   4.272   6.735   1.598 -0.5992  0.8922 -0.2207
 4371SOL    HW213934   4.128   6.682   1.540 -0.2732 -0.3143  0.0320
 4372SOL     OW13935   2.790   6.163   6.701  0.3343 -0.0908 -0.3688
 4372SOL    HW113936   2.694   6.159   6.670  0.5418  0.1347 -1.0634
 4372SOL    HW213937   2.841   6.089   6.659  0.4258 -0.3462  0.1739
 4373SOL     OW13938   6.132   3.319   4.683 -0.3373 -0.6346 -0.1695
 4373SOL    HW113939   6.043   3.339   4.644 -0.0483  2.6248  0.5924
 4373SOL    HW213940   6.121   3.295   4.780 -0.3452  1.7873  0.4976
 4374SOL     OW13941   1.788   5.284   6.426  0.2396 -0.4859 -0.3558
 4374SOL    HW113942   1.830   5.341   6.356 -0.4353 -1.1145 -1.2841
 4374SOL    HW213943   1.839   5.294   6.512  0.9739  0.4105 -0.8829
 4375SOL     OW13944   3.180   4.933   0.453 -0.1951  0.3471  0.9684
 4375SOL    HW113945   3.250   5.002   0.438  0.3180 -0.2000  0.8339
 4375SOL    HW213946   3.101   4.951   0.394  0.5367 -0.0323 -0.1423
 4376SOL     OW13947   5.802   2.085   6.425 -0.7306 -0.1181 -0.0097
 4376SOL    HW113948   5.808   2.083   6.525  0.1598 -1.0094 -0.0619
 4376SOL    HW213949   5.816   2.178   6.392  1.3075 -0.1663  0.5893
 4377SOL     OW13950   1.428   2.945   2.778 -0.3703 -0.5154  0.3246
 4377SOL    HW113951   1.417   2.883   2.700 -1.3410 -0.3260  0.3004
 4377SOL    HW213952   1.417   3.039   2.748  3.2268 -0.0874 -0.0672
 4378SOL     OW13953   4.879   0.518   3.158  0.4268  0.3602  0.4577
 4378SOL    HW113954   4.831   0.503   3.071  0.3278  2.1833  0.1434
 4378SOL    HW213955   4.817   0.499   3.234 -0.2253  0.9389  0.0812
 4379SOL     OW13956   3.256   4.713   2.958  0.6360  0.1402  0.7615
 4379SOL    HW113957   3.343   4.755   2.934  1.0497 -0.5795  0.9545
 4379SOL    HW213958   3.241   4.632   2.900 -0.2765  0.6988  0.1854
 4380SOL     OW13959   5.014   6.806   5.076 -0.2472 -0.2020 -0.2618
 4380SOL    HW113960   4.959   6.805   4.992 -0.0467 -0.5356 -0.3957
 4380SOL    HW213961   5.043   6.713   5.098 -0.9265 -0.2150  0.6015
 4381SOL     OW13962   1.801   3.447   6.322  0.0250  0.0160 -0.3998
 4381SOL    HW113963   1.877   3.443   6.387  0.5263  0.2112 -0.9617
 4381SOL    HW213964   1.835   3.428   6.230 -0.6830 -0.2931 -0.6036
 4382SOL     OW13965   2.508   2.843   1.965 -0.4961  0.1169  0.1147
 4382SOL    HW113966   2.568   2.775   1.922  1.0329  1.7086 -0.3312
 4382SOL    HW213967   2.526   2.933   1.926 -0.2442  1.3502  2.8657
 4383SOL     OW13968   0.863   4.340   1.679 -0.1660  0.5952 -0.4488
 4383SOL    HW113969   0.945   4.395   1.662  0.4799  0.1320  1.0282
 4383SOL    HW213970   0.794   4.362   1.610  1.1813  1.0043 -1.7255
 4384SOL     OW13971   3.942   0.756   3.467  0.3463  0.1715 -0.2009
 4384SOL    HW113972   3.908   0.767   3.560  1.6243  0.0669  0.2971
 4384SOL    HW213973   3.977   0.844   3.434 -1.8384  0.6993 -1.3410
 4385SOL     OW13974   4.788   5.265   5.391  0.0581  0.6675  0.0114
 4385SOL    HW113975   4.881   5.287   5.362 -0.2610 -0.1039 -1.7830
 4385SOL    HW213976   4.733   5.348   5.394  0.0726  0.7627 -1.8522
 4386SOL     OW13977   6.936   0.517   4.433  0.6649 -0.1249  0.4893
 4386SOL    HW113978   6.924   0.420   4.412 -0.2243  0.1916 -0.5193
 4386SOL    HW213979   6.858   0.568   4.398  0.3890  0.7749  2.3228
 4387SOL     OW13980   1.698   4.377   6.948 -0.1715  0.0208  0.2162
 4387SOL    HW113981   1.611   4.336   6.976  0.7621 -1.2311  1.3849
 4387SOL    HW213982   1.704   4.380   6.848 -0.5824 -2.0687  0.0870
 4388SOL     OW13983   3.108   4.694   2.161 -0.4406 -0.1273  0.8672
 4388SOL    HW113984   3.131   4.677   2.257 -2.5680  0.0185  1.4481
 4388SOL    HW213985   3.088   4.608   2.115 -0.4976 -0.1022  0.8421
 4389SOL     OW13986   1.119   5.306   3.189 -0.0063  0.1606 -0.0013
 4389SOL    HW113987   1.063   5.369   3.135  1.3628  1.2284 -0.2324
 4389SOL    HW213988   1.156   5.354   3.268  1.1236 -0.2937 -0.2284
 4390SOL     OW13989   5.172   3.398   3.069 -0.2635 -0.3154 -0.0997
 4390SOL    HW113990   5.163   3.384   2.970 -1.3409 -1.0395  0.0844
 4390SOL    HW213991   5.218   3.319   3.110  0.3785  0.0832 -0.0536
 4391SOL     OW13992   6.806   0.058   4.793  0.5255 -0.0205 -0.3622
 4391SOL    HW113993   6.730   0.081   4.854 -1.4741 -0.4342 -2.5375
 4391SOL    HW213994   6.802  -0.039   4.770  1.2073  0.1528 -1.1557
 4392SOL     OW13995   5.614   5.928   3.005  0.2514  0.3065  0.2259
 4392SOL    HW113996   5.605   6.026   2.991  1.1999  0.3958  0.1991
 4392SOL    HW213997   5.635   5.883   2.918  2.0765  0.3763  0.5667
 4393SOL     OW13998   4.520   6.228   2.692  0.8632 -0.2939 -0.3005
 4393SOL    HW113999   4.596   6.264   2.637 -0.2774  1.7997 -0.6237
 4393SOL    HW214000   4.485   6.300   2.752  0.5220 -1.8440  1.4476
 4394SOL     OW14001   2.194   3.166   7.002  0.3384 -0.0922 -0.0403
 4394SOL    HW114002   2.196   3.234   7.076  0.8254  0.3388 -0.4721
 4394SOL    HW214003   2.285   3.157   6.962  0.2379 -0.8532 -0.1172
 4395SOL     OW14004   2.062   5.532   0.238 -0.7090  0.2033  0.1342
 4395SOL    HW114005   2.061   5.435   0.212 -0.4999  0.3488 -0.4334
 4395SOL    HW214006   2.136   5.579   0.190  0.2965  0.2904  1.7491
 4396SOL     OW14007   6.198   3.691   2.024 -0.0121 -0.5534 -0.4133
 4396SOL    HW114008   6.235   3.723   2.111  0.1166  0.8521 -0.9650
 4396SOL    HW214009   6.108   3.651   2.039 -0.2281  0.1696  0.2868
 4397SOL     OW14010   5.293   3.683   1.390  0.5271  0.4103 -0.1318
 4397SOL    HW114011   5.330   3.648   1.476  0.2809  0.6911  0.0909
 4397SOL    HW214012   5.263   3.778   1.403 -0.0421  0.2662 -0.3696
 4398SOL     OW14013   3.226   0.110   5.478  0.2280 -0.2079  0.2999
 4398SOL    HW114014   3.213   0.193   5.423 -0.6676 -0.1086  0.6550
 4398SOL    HW214015   3.324   0.092   5.487  0.4171 -0.6435 -1.9499
 4399SOL     OW14016   4.136   4.891   2.351  0.4638  0.2601  0.6096
 4399SOL    HW114017   4.111   4.795   2.362 -0.5528  0.4316 -0.0550
 4399SOL    HW214018   4.177   4.925   2.435  0.8873 -0.7715  0.8294
 4400SOL     OW14019   6.310   5.423   3.165  0.1673 -0.0777 -0.0592
 4400SOL    HW114020   6.301   5.333   3.207  0.8887 -0.3761 -0.5195
 4400SOL    HW214021   6.246   5.487   3.207  0.9279 -0.3501  1.5599
 4401SOL     OW14022   5.945   0.922   0.766 -0.2241  0.0827  0.4618
 4401SOL    HW114023   6.006   0.874   0.703 -0.2289  1.1475 -0.3845
 4401SOL    HW214024   5.995   0.945   0.850  1.1098  2.3853 -0.8491
 4402SOL     OW14025   3.002   2.336   5.644 -0.7459  0.3902 -0.1744
 4402SOL    HW114026   2.953   2.260   5.688 -1.5183  0.4838 -0.8681
 4402SOL    HW214027   3.000   2.416   5.704 -0.0953 -0.0660  0.4757
 4403SOL     OW14028   4.213   4.385   4.875  0.1280 -0.4418  0.2199
 4403SOL    HW114029   4.241   4.332   4.955 -1.1676 -0.2170  0.8628
 4403SOL    HW214030   4.191   4.324   4.799 -1.2172 -0.8503  0.9038
 4404SOL     OW14031   2.603   0.533   5.826  0.4206 -0.0593 -0.4292
 4404SOL    HW114032   2.553   0.498   5.905  0.0942  0.0813 -0.5752
 4404SOL    HW214033   2.695   0.562   5.854 -0.2430  1.5067  0.2098
 4405SOL     OW14034   3.761   6.985   3.405 -0.7844 -0.2523  0.1809
 4405SOL    HW114035   3.764   6.938   3.317  1.4447  0.0145  0.0646
 4405SOL    HW214036   3.726   6.923   3.475  1.6228 -2.0098 -0.0588
 4406SOL     OW14037   4.759   1.026   0.013 -0.2637 -0.2097 -0.0344
 4406SOL    HW114038   4.813   0.943   0.028 -0.6173 -0.6754 -1.2569
 4406SOL    HW214039   4.706   1.017  -0.071 -0.4686  1.1781 -0.0574
 4407SOL     OW14040   3.420   1.939   0.163 -0.3436 -0.1594  0.1734
 4407SOL    HW114041   3.404   1.863   0.225 -1.7353  0.5802  0.7947
 4407SOL    HW214042   3.428   1.905   0.069 -0.8293 -1.0930  0.4520
 4408SOL     OW14043   3.759   1.537   2.476 -0.0528 -0.0242 -0.5160
 4408SOL    HW114044   3.827   1.569   2.410 -1.1018 -0.3416 -1.7943
 4408SOL    HW214045   3.689   1.608   2.488 -0.1770 -0.2030 -0.1738
 4409SOL     OW14046   2.313   3.676   6.045 -0.1580 -0.3008 -0.1380
 4409SOL    HW114047   2.274   3.744   5.982 -1.5960  0.3321  1.3568
 4409SOL    HW214048   2.239   3.619   6.082  0.9200 -2.0756 -0.6331
 4410SOL     OW14049   6.459   2.260   1.843 -0.3294  0.1897  0.1853
 4410SOL    HW114050   6.505   2.275   1.931  0.2054  1.6753 -0.3201
 4410SOL    HW214051   6.373   2.311   1.842 -1.0195 -0.9244  0.3366
 4411SOL     OW14052   6.481   5.576   5.446  0.8228  0.1575  0.0350
 4411SOL    HW114053   6.420   5.599   5.371  1.8853  1.3046 -0.5060
 4411SOL    HW214054   6.485   5.476   5.456  0.2443  0.0052 -1.0597
 4412SOL     OW14055   4.816   4.935   6.025 -0.3944 -0.3493 -0.4939
 4412SOL    HW114056   4.792   5.000   6.097 -1.0899 -0.0964 -0.9445
 4412SOL    HW214057   4.754   4.857   6.028  1.5232 -1.9219  1.1989
 4413SOL     OW14058   2.364   5.335   4.112 -0.8043  0.4493 -0.2338
 4413SOL    HW114059   2.333   5.386   4.191  0.5976  0.1763  0.5167
 4413SOL    HW214060   2.421   5.258   4.141  0.1738  0.6355 -1.5123
 4414SOL     OW14061   5.011   1.682   4.342 -0.6061 -0.2547 -0.0488
 4414SOL    HW114062   5.050   1.766   4.304 -0.2370 -0.4283 -0.0565
 4414SOL    HW214063   4.967   1.630   4.269 -2.0680  0.5951  0.1797
 4415SOL     OW14064   1.866   6.136   0.048  0.2520  0.0953 -0.1334
 4415SOL    HW114065   1.767   6.121   0.048  0.2418 -0.4345 -2.9895
 4415SOL    HW214066   1.886   6.221  -0.000  1.1982  0.2519  0.5145
 4416SOL     OW14067   3.900   3.180   5.460  0.1528  0.6230  0.4685
 4416SOL    HW114068   3.992   3.157   5.430 -0.1842 -0.3129  0.1304
 4416SOL    HW214069   3.866   3.109   5.522 -0.7158  0.4298 -0.2059
 4417SOL     OW14070   6.668   6.382   0.560 -0.5121  0.8425  0.0305
 4417SOL    HW114071   6.737   6.434   0.510 -0.0330 -0.5911 -0.8483
 4417SOL    HW214072   6.603   6.445   0.603 -0.0807  2.1435 -1.1713
 4418SOL     OW14073   3.683   2.993   0.592  0.6184 -0.5354 -0.2623
 4418SOL    HW114074   3.628   2.910   0.593 -1.6358  0.8195 -1.5620
 4418SOL    HW214075   3.650   3.053   0.518  2.4622  1.3004  0.3310
 4419SOL     OW14076   5.947   3.674   3.307 -0.1623  0.2196  0.3137
 4419SOL    HW114077   5.958   3.667   3.208  0.0903  0.3711  0.3305
 4419SOL    HW214078   5.949   3.583   3.348 -0.3666  0.1483  0.1704
 4420SOL     OW14079   4.433   4.273   3.355 -0.4867 -0.7638  0.4421
 4420SOL    HW114080   4.465   4.178   3.364  1.7813 -0.1040 -0.0372
 4420SOL    HW214081   4.485   4.331   3.418  0.9519  0.7151 -1.9550
 4421SOL     OW14082   0.405   1.595   1.544 -0.1656 -0.0130  0.1626
 4421SOL    HW114083   0.410   1.646   1.458  0.0601 -0.2962  0.0057
 4421SOL    HW214084   0.488   1.611   1.597 -0.2875  0.1298  0.3113
 4422SOL     OW14085   6.870   0.708   6.891 -0.2107  0.5805  0.8180
 4422SOL    HW114086   6.969   0.713   6.877 -0.2844  0.2436  0.1368
 4422SOL    HW214087   6.823   0.750   6.813 -0.6398 -1.6707 -0.2222
 4423SOL     OW14088   3.125   5.559   1.030  0.7270  0.6749  0.0364
 4423SOL    HW114089   3.149   5.649   0.992 -0.8999  0.3474 -1.8869
 4423SOL    HW214090   3.027   5.555   1.047  0.8288 -0.6452  0.3854
 4424SOL     OW14091   1.513   3.158   1.761  0.1310  0.5906 -0.6178
 4424SOL    HW114092   1.537   3.108   1.844 -1.5005 -0.9797 -1.0403
 4424SOL    HW214093   1.437   3.220   1.781 -1.1583 -0.7502 -1.1767
 4425SOL     OW14094   5.956   4.307   2.056  0.1280 -0.0479  0.3281
 4425SOL    HW114095   5.886   4.242   2.084  0.2483 -0.8040 -1.0448
 4425SOL    HW214096   6.046   4.275   2.085  0.0583  0.2109  0.8488
 4426SOL     OW14097   1.607   3.648   4.134 -0.1092  0.3427 -0.0806
 4426SOL    HW114098   1.656   3.581   4.189 -0.7097  1.0711  1.3942
 4426SOL    HW214099   1.666   3.678   4.058  1.2657  0.3256  0.9393
 4427SOL     OW14100   0.381   2.949   6.298  0.1063 -0.0574  0.1925
 4427SOL    HW114101   0.328   2.894   6.362 -3.4094  1.6656 -0.9623
 4427SOL    HW214102   0.462   2.898   6.269 -0.9430 -2.9961  1.9856
 4428SOL     OW14103   6.355   4.702   6.301  0.3683 -0.5470  0.2469
 4428SOL    HW114104   6.361   4.748   6.389  0.4782 -0.3596  0.1438
 4428SOL    HW214105   6.370   4.769   6.228  2.2071 -1.0275  0.1395
 4429SOL     OW14106   6.734   0.232   1.263 -0.1855  0.1733  0.8199
 4429SOL    HW114107   6.730   0.147   1.210 -0.3139  0.1181  0.9157
 4429SOL    HW214108   6.657   0.291   1.238  0.1065  0.4235  0.4865
 4430SOL     OW14109   4.361   6.360   1.325  0.0409  0.3927  0.3978
 4430SOL    HW114110   4.394   6.327   1.237 -0.0123  1.0991  0.1101
 4430SOL    HW214111   4.262   6.348   1.331 -0.2827  2.2243 -0.4906
 4431SOL     OW14112   3.410   0.932   0.616 -0.3028 -0.3168  0.1984
 4431SOL    HW114113   3.348   1.004   0.645  2.0491  1.3307  1.4647
 4431SOL    HW214114   3.408   0.924   0.516 -1.0110  1.1318  0.0696
 4432SOL     OW14115   0.821   0.910   3.030  0.4531 -0.0942  0.1142
 4432SOL    HW114116   0.886   0.855   2.978  2.6489  0.8286  1.7365
 4432SOL    HW214117   0.823   1.005   2.996 -1.0647 -0.2983 -0.6604
 4433SOL     OW14118   2.316   5.239   5.488 -0.3253  0.8757  0.2175
 4433SOL    HW114119   2.345   5.166   5.425  0.3237  0.6311  0.7804
 4433SOL    HW214120   2.346   5.327   5.452 -1.2090  0.8829 -0.5248
 4434SOL     OW14121   3.767   6.893   0.048 -0.2243  0.0217  0.3091
 4434SOL    HW114122   3.703   6.818   0.067 -0.3779  0.0280 -0.1560
 4434SOL    HW214123   3.824   6.909   0.128  0.6861 -1.4553 -0.0015
 4435SOL     OW14124   3.578   5.263   4.398 -0.9443 -0.2370 -0.5143
 4435SOL    HW114125   3.525   5.316   4.331 -1.6882  0.1790  0.3783
 4435SOL    HW214126   3.656   5.317   4.429 -1.6619  0.3366  0.3422
 4436SOL     OW14127   5.682   3.098   1.280 -0.2549 -0.4053  0.2207
 4436SOL    HW114128   5.762   3.158   1.273  0.4031 -0.7188  3.2812
 4436SOL    HW214129   5.711   3.006   1.306 -1.5535 -0.5975  1.1242
 4437SOL     OW14130   5.690   3.825   3.151  0.5498  0.0393  0.2914
 4437SOL    HW114131   5.597   3.855   3.128  0.9428  0.0322 -1.5403
 4437SOL    HW214132   5.689   3.774   3.236 -0.9611  0.8682  0.8102
 4438SOL     OW14133   5.482   6.995   1.780 -0.8856 -0.2724 -0.3095
 4438SOL    HW114134   5.434   6.927   1.836 -0.3671  0.3298  0.8648
 4438SOL    HW214135   5.530   6.949   1.705  0.3518 -1.3238  1.0805
 4439SOL     OW14136   5.384   5.636   4.962 -0.0240  0.2033  0.1711
 4439SOL    HW114137   5.469   5.627   5.013 -0.6549 -1.5981  0.9649
 4439SOL    HW214138   5.398   5.607   4.867  0.2684  0.0084  0.2735
 4440SOL     OW14139   2.404   5.868   3.433  0.2138  0.0794  0.0304
 4440SOL    HW114140   2.444   5.956   3.460  1.0783  0.0827 -1.1580
 4440SOL    HW214141   2.448   5.794   3.484  1.7301  0.0928 -1.1628
 4441SOL     OW14142   4.189   4.387   5.766 -0.0613  0.1242 -0.8078
 4441SOL    HW114143   4.236   4.437   5.839  0.6676 -1.9483  0.2266
 4441SOL    HW214144   4.241   4.397   5.681  1.5829 -0.9821 -0.0013
 4442SOL     OW14145   6.245   1.926   2.947  0.2430  0.2966 -0.0891
 4442SOL    HW114146   6.203   2.016   2.939 -1.2935 -0.5279 -1.9105
 4442SOL    HW214147   6.343   1.933   2.927  0.2946  1.6747  0.5352
 4443SOL     OW14148   4.341   0.980   1.821  0.3123 -0.1261 -0.4461
 4443SOL    HW114149   4.380   0.957   1.732  0.8619  0.3960 -0.3376
 4443SOL    HW214150   4.241   0.968   1.818  0.1455  1.4960 -1.6195
 4444SOL     OW14151   1.247   5.276   1.340 -0.0466 -0.1169  0.1920
 4444SOL    HW114152   1.242   5.267   1.439  0.3012 -2.8293  0.0383
 4444SOL    HW214153   1.302   5.201   1.302 -0.7053  0.4819 -2.0976
 4445SOL     OW14154   2.188   3.820   5.867 -0.3415 -0.0911 -0.1765
 4445SOL    HW114155   2.091   3.841   5.854 -0.4852 -1.2316 -1.3008
 4445SOL    HW214156   2.226   3.788   5.780  0.9596 -0.0284  0.3444
 4446SOL     OW14157   4.608   2.785   1.585 -0.1107  0.1027  0.6374
 4446SOL    HW114158   4.560   2.801   1.671 -0.2988 -2.3127  1.0344
 4446SOL    HW214159   4.601   2.688   1.560  1.4216  0.4157 -1.2063
 4447SOL     OW14160   6.603   2.286   2.507  0.1628 -0.2452  0.4175
 4447SOL    HW114161   6.682   2.308   2.564 -0.2235  0.8548  0.5469
 4447SOL    HW214162   6.567   2.196   2.533  1.4954 -0.8496  0.2004
 4448SOL     OW14163   0.368   1.818   6.069  0.6676 -0.3480 -0.8341
 4448SOL    HW114164   0.388   1.764   5.987  2.0772 -1.6442  0.3101
 4448SOL    HW214165   0.422   1.784   6.146 -1.1015  0.4126  0.8201
 4449SOL     OW14166   1.977   2.839   2.167  0.7966 -0.1951  0.7754
 4449SOL    HW114167   1.913   2.875   2.100  0.0431  0.8596  2.0008
 4449SOL    HW214168   2.002   2.912   2.231  2.4726 -0.8416  0.9118
 4450SOL     OW14169   4.351   6.711   4.507  0.4328 -0.2726  0.1246
 4450SOL    HW114170   4.285   6.704   4.582  1.7262  0.8939  1.4242
 4450SOL    HW214171   4.442   6.732   4.544  1.7093 -2.4951 -1.5520
 4451SOL     OW14172   5.703   0.793   5.005 -0.3056 -0.1980  0.0344
 4451SOL    HW114173   5.733   0.811   4.911 -0.4119 -0.7874 -0.1177
 4451SOL    HW214174   5.769   0.732   5.050 -0.1431  0.2489  0.4197
 4452SOL     OW14175   3.140   6.978   1.047  0.0579  0.9533 -0.2493
 4452SOL    HW114176   3.115   6.974   0.951  2.0686 -0.1871 -0.8093
 4452SOL    HW214177   3.231   7.018   1.056 -0.3044  1.4771  1.2338
 4453SOL     OW14178   5.029   3.571   6.808 -0.3636  0.2598  0.4347
 4453SOL    HW114179   5.103   3.596   6.745  1.0980 -1.1169  1.5220
 4453SOL    HW214180   4.994   3.480   6.785  2.1631 -1.5847  3.1586
 4454SOL     OW14181   1.318   4.380   0.678 -0.1515 -0.5568 -0.6615
 4454SOL    HW114182   1.281   4.445   0.745 -0.9750 -0.8186 -0.8488
 4454SOL    HW214183   1.343   4.296   0.725  1.2553  0.0107 -0.3610
 4455SOL     OW14184   4.633   2.602   1.867 -0.0923  0.1523 -0.0846
 4455SOL    HW114185   4.568   2.675   1.846 -1.1988 -0.8845 -0.3728
 4455SOL    HW214186   4.689   2.583   1.787 -0.0831  0.4173 -0.1401
 4456SOL     OW14187   0.231   6.888   0.077  0.8098  0.6970  0.3383
 4456SOL    HW114188   0.149   6.846   0.116  0.5990  0.9991  0.2254
 4456SOL    HW214189   0.264   6.960   0.139  0.2609  1.4280 -0.2108
 4457SOL     OW14190   3.817   6.100   0.194 -0.3772 -0.2138 -0.7779
 4457SOL    HW114191   3.883   6.025   0.185  2.0789  1.5710  1.1486
 4457SOL    HW214192   3.805   6.145   0.106  1.4565 -0.2666 -1.1067
 4458SOL     OW14193   6.838   4.996   1.959  0.0814  0.1607  0.2184
 4458SOL    HW114194   6.759   5.042   1.918 -0.6220 -1.1821  0.0271
 4458SOL    HW214195   6.922   5.039   1.925 -0.4988 -0.1176 -1.7255
 4459SOL     OW14196   3.198   3.339   1.309  0.1972 -0.9881  1.1389
 4459SOL    HW114197   3.193   3.434   1.341 -1.2844 -1.1896  1.5765
 4459SOL    HW214198   3.293   3.308   1.310  0.8332  0.7683  0.1710
 4460SOL     OW14199   0.152   3.623   2.839 -0.4152  0.3933 -0.2722
 4460SOL    HW114200   0.246   3.604   2.811  0.0202  1.3907  0.4294
 4460SOL    HW214201   0.150   3.650   2.935 -1.2232  1.6564 -0.6009
 4461SOL     OW14202   2.018   4.153   4.157  0.0731 -0.3915 -0.3037
 4461SOL    HW114203   2.101   4.168   4.212 -0.1847  2.1397 -0.4660
 4461SOL    HW214204   1.973   4.069   4.187  1.9730 -1.1237  0.6899
 4462SOL     OW14205   1.762   0.335   3.570  0.0445 -0.2128 -0.2919
 4462SOL    HW114206   1.810   0.301   3.490  1.8960  0.9666  0.2536
 4462SOL    HW214207   1.802   0.297   3.653 -0.3361  0.3577  0.1648
 4463SOL     OW14208   1.824   4.507   0.134  0.2121  0.2199  0.0332
 4463SOL    HW114209   1.917   4.501   0.096  0.0016 -0.0763 -0.4483
 4463SOL    HW214210   1.760   4.460   0.073 -0.0860 -0.5885  0.9547
 4464SOL     OW14211   2.772   4.538   1.653 -0.0237 -0.3189 -0.3969
 4464SOL    HW114212   2.848   4.519   1.590 -0.7001 -0.2726 -1.2484
 4464SOL    HW214213   2.808   4.551   1.745  1.2059  1.3264 -1.0545
 4465SOL     OW14214   0.215   1.951   4.694 -0.1684 -0.1861 -0.6828
 4465SOL    HW114215   0.131   1.961   4.747  0.4859 -0.4009  0.4091
 4465SOL    HW214216   0.278   2.025   4.717 -0.0603 -0.0176 -1.5048
 4466SOL     OW14217   2.702   4.188   1.031 -0.1108 -0.2698 -0.6137
 4466SOL    HW114218   2.649   4.273   1.038  1.4062  0.6336  0.5566
 4466SOL    HW214219   2.798   4.211   1.013 -0.1336 -1.8541 -3.3077
 4467SOL     OW14220   5.591   0.848   0.435  0.2472  0.1984 -0.1704
 4467SOL    HW114221   5.555   0.777   0.496 -0.8441 -0.7426 -1.8137
 4467SOL    HW214222   5.649   0.910   0.487 -0.2278 -0.8324  1.7037
 4468SOL     OW14223   3.579   0.187   5.984 -0.3920  0.7919  0.1560
 4468SOL    HW114224   3.528   0.156   6.064 -2.3903  0.7984 -1.0311
 4468SOL    HW214225   3.542   0.274   5.952 -0.8683 -0.0769 -1.7994
 4469SOL     OW14226   1.038   3.075   0.940  0.1376  0.0440 -0.4128
 4469SOL    HW114227   1.012   3.022   0.860 -0.3270  0.5815 -0.6254
 4469SOL    HW214228   0.957   3.091   0.997  0.3928 -0.0098 -0.0330
 4470SOL     OW14229   4.207   2.861   1.065 -0.3223  0.0127  0.1184
 4470SOL    HW114230   4.117   2.824   1.043 -0.1937  0.8266 -2.0272
 4470SOL    HW214231   4.278   2.799   1.030 -0.1003  1.1406 -1.5096
 4471SOL     OW14232   5.385   6.767   3.492 -0.3890  0.0623 -0.4407
 4471SOL    HW114233   5.333   6.834   3.545 -2.9287 -1.2927 -1.0553
 4471SOL    HW214234   5.418   6.810   3.407  0.0377  1.1022  0.2208
 4472SOL     OW14235   6.872   3.928   1.544  0.0064  0.4831  0.3967
 4472SOL    HW114236   6.808   3.861   1.582 -0.9948  0.7120 -0.8395
 4472SOL    HW214237   6.961   3.885   1.531 -0.0190 -0.0073  1.5767
 4473SOL     OW14238   0.832   2.160   6.501  0.2685  0.5845 -0.1157
 4473SOL    HW114239   0.913   2.158   6.561  0.7234  0.2487 -0.7345
 4473SOL    HW214240   0.813   2.255   6.474  0.8747  0.5978 -0.5208
 4474SOL     OW14241   0.502   5.179   4.826 -0.2571  0.0469 -0.5864
 4474SOL    HW114242   0.435   5.242   4.865  0.6758 -0.2304  1.6222
 4474SOL    HW214243   0.592   5.197   4.866  0.2118 -2.0597 -0.6024
 4475SOL     OW14244   1.239   4.484   0.109  0.7264 -0.1999  0.3174
 4475SOL    HW114245   1.265   4.577   0.133 -0.5427  0.2940 -0.1618
 4475SOL    HW214246   1.251   4.424   0.189  0.4130  0.6180  0.9936
 4476SOL     OW14247   3.062   1.591   3.959 -0.2736  0.6199  0.8830
 4476SOL    HW114248   3.016   1.578   3.871 -0.7548 -0.9431  1.3493
 4476SOL    HW214249   3.160   1.600   3.943 -0.3376  0.2134  0.1988
 4477SOL     OW14250   3.092   4.893   4.467  0.7085  0.2277  0.2298
 4477SOL    HW114251   3.039   4.977   4.477 -0.3167 -0.4629  0.7585
 4477SOL    HW214252   3.189   4.915   4.477  0.4826  1.3859  0.1326
 4478SOL     OW14253   5.891   5.175   1.497 -0.3843 -0.5168 -0.2368
 4478SOL    HW114254   5.799   5.138   1.487 -1.2393  0.8837  1.7196
 4478SOL    HW214255   5.943   5.119   1.561 -1.3661  0.9548  1.9876
 4479SOL     OW14256   0.371   1.593   3.312 -0.4639  0.3466  0.0471
 4479SOL    HW114257   0.370   1.561   3.217 -1.7022 -0.9906  0.4719
 4479SOL    HW214258   0.465   1.616   3.338  0.2310 -1.3236 -0.8484
 4480SOL     OW14259   4.738   0.913   0.937  0.0846 -0.7585 -0.4385
 4480SOL    HW114260   4.778   0.993   0.891 -1.7514  0.7084  0.4013
 4480SOL    HW214261   4.749   0.923   1.036 -1.4461 -0.8054 -0.2462
 4481SOL     OW14262   2.920   2.061   6.638  0.4001  0.1335  0.4823
 4481SOL    HW114263   2.880   2.059   6.547  1.6353  0.1438 -0.0697
 4481SOL    HW214264   2.867   2.001   6.699  0.4809 -1.0695 -0.6184
 4482SOL     OW14265   5.706   1.182   0.998  0.4521 -0.0940  0.4757
 4482SOL    HW114266   5.796   1.141   1.010  0.4281 -0.6211 -0.9399
 4482SOL    HW214267   5.686   1.190   0.900 -0.8589  0.4224  0.7637
 4483SOL     OW14268   3.261   1.239   1.152 -0.1352 -0.0542  0.4388
 4483SOL    HW114269   3.318   1.209   1.075 -2.2238 -1.8816 -0.4873
 4483SOL    HW214270   3.318   1.248   1.234  2.2286  2.2600 -1.2765
 4484SOL     OW14271   5.272   6.270   2.030 -0.1581 -0.3040  0.2400
 4484SOL    HW114272   5.267   6.317   1.942 -0.6253  0.5610  0.7166
 4484SOL    HW214273   5.361   6.287   2.072 -0.6346  0.8857  0.7997
 4485SOL     OW14274   6.238   5.908   2.425 -0.3248 -0.1494  0.5977
 4485SOL    HW114275   6.205   5.931   2.333 -0.1892  0.3378  0.6661
 4485SOL    HW214276   6.191   5.966   2.491  0.3120  0.2223  0.7413
 4486SOL     OW14277   4.482   2.561   3.308 -0.2125  0.1607 -0.0009
 4486SOL    HW114278   4.519   2.469   3.320 -1.5395 -0.3237  0.6592
 4486SOL    HW214279   4.382   2.556   3.303 -0.2599  1.4894 -0.8331
 4487SOL     OW14280   5.009   2.590   2.943 -0.0218 -0.0516  0.1517
 4487SOL    HW114281   5.051   2.564   2.855 -0.2496 -0.6233  0.2074
 4487SOL    HW214282   5.075   2.573   3.017 -0.1096 -0.3124  0.1713
 4488SOL     OW14283   1.393   5.899   2.961  0.5057 -0.1830 -0.6152
 4488SOL    HW114284   1.297   5.926   2.952 -0.0977 -1.2144  1.8168
 4488SOL    HW214285   1.432   5.884   2.870 -1.5197  0.5574 -1.6833
 4489SOL     OW14286   4.706   1.928   0.957 -0.1499 -0.1334  0.1076
 4489SOL    HW114287   4.785   1.978   0.921 -0.8393 -0.7826 -2.5337
 4489SOL    HW214288   4.698   1.945   1.056  1.7788  1.9467 -0.0015
 4490SOL     OW14289   3.836   4.338   2.059  0.0010  0.3299 -0.1910
 4490SOL    HW114290   3.921   4.290   2.077  0.2413  0.5480 -0.7461
 4490SOL    HW214291   3.855   4.433   2.035 -0.4310  0.5238  0.1996
 4491SOL     OW14292   2.665   5.082   4.634 -0.1093  0.3736 -0.4209
 4491SOL    HW114293   2.595   5.100   4.703  0.7791 -2.9344  1.5437
 4491SOL    HW214294   2.628   5.020   4.565  0.3915 -0.0484 -0.3157
 4492SOL     OW14295   1.530   6.109   5.989  0.6018 -0.2733  0.1163
 4492SOL    HW114296   1.528   6.205   5.960  2.7278 -0.8905 -2.5935
 4492SOL    HW214297   1.625   6.081   6.004  0.2254 -2.4942 -1.2625
 4493SOL     OW14298   6.975   3.332   6.540 -0.4656  0.1922 -0.0686
 4493SOL    HW114299   6.925   3.256   6.498  1.2713 -0.9934 -0.0499
 4493SOL    HW214300   6.911   3.406   6.561 -2.4546 -1.7087  1.0220
 4494SOL     OW14301   1.390   6.414   4.275 -0.2617 -0.2127  0.0208
 4494SOL    HW114302   1.390   6.346   4.201 -0.2237  0.9280 -1.0699
 4494SOL    HW214303   1.318   6.481   4.259  1.1233  1.3054 -0.2055
 4495SOL     OW14304   1.101   2.875   4.401  0.4275  0.7108 -0.5570
 4495SOL    HW114305   1.187   2.861   4.351  0.8143  0.7207  0.0863
 4495SOL    HW214306   1.112   2.949   4.467 -0.0961  0.7461 -0.5052
 4496SOL     OW14307   1.068   1.310   4.513 -0.1245  0.2333 -0.0546
 4496SOL    HW114308   1.039   1.264   4.429 -1.1731  3.0488 -1.3384
 4496SOL    HW214309   0.987   1.334   4.568  0.4877 -0.6870  1.2888
 4497SOL     OW14310   2.224   6.725   0.752  0.1785  0.2745  0.4645
 4497SOL    HW114311   2.277   6.808   0.731 -0.8843  0.7699 -0.3210
 4497SOL    HW214312   2.249   6.693   0.844  1.5548  0.7117  0.2604
 4498SOL     OW14313   1.169   3.710   3.419  0.2635  0.0829 -0.0795
 4498SOL    HW114314   1.241   3.779   3.414 -0.5249  0.9052 -0.3235
 4498SOL    HW214315   1.115   3.724   3.502  0.7302 -0.8979  0.4110
 4499SOL     OW14316   6.256   0.012   3.798 -0.7016 -0.6400  0.0182
 4499SOL    HW114317   6.279   0.021   3.894 -0.7086 -1.6587  0.1242
 4499SOL    HW214318   6.276   0.098   3.750  1.8419 -0.9333  0.4046
 4500SOL     OW14319   6.064   3.167   2.050 -0.5659  0.2682 -0.0529
 4500SOL    HW114320   6.071   3.237   2.122 -2.1264 -1.1036  1.5321
 4500SOL    HW214321   5.999   3.198   1.981 -0.5483  0.7977  0.1574
 4501SOL     OW14322   2.417   6.281   5.637  0.4223 -0.5108 -0.1574
 4501SOL    HW114323   2.499   6.338   5.635  1.6233 -2.0985 -2.6591
 4501SOL    HW214324   2.337   6.338   5.657  1.9604  1.2860  1.2195
 4502SOL     OW14325   2.539   4.841   5.750  0.1603 -0.0519  0.3161
 4502SOL    HW114326   2.507   4.935   5.756  0.1169 -0.0041 -0.5488
 4502SOL    HW214327   2.584   4.826   5.662 -2.4166 -1.6192 -0.8459
 4503SOL     OW14328   5.115   2.723   0.877 -0.1352 -0.3301  0.0303
 4503SOL    HW114329   5.041   2.788   0.864  0.8857  1.2274  1.5068
 4503SOL    HW214330   5.107   2.680   0.967  0.3302 -0.7070 -0.1051
 4504SOL     OW14331   5.867   4.730   2.371 -0.1014 -0.6297  0.0492
 4504SOL    HW114332   5.900   4.658   2.310 -1.2620 -0.4403 -0.8576
 4504SOL    HW214333   5.859   4.815   2.320  0.1510 -0.1463  0.8106
 4505SOL     OW14334   3.745   5.734   1.657  0.1080  0.1828  0.0341
 4505SOL    HW114335   3.794   5.655   1.620  1.3404  0.4377  1.0404
 4505SOL    HW214336   3.698   5.707   1.741  0.4137  0.4741  0.3029
 4506SOL     OW14337   2.902   0.404   3.124 -0.0202 -0.1369 -0.1857
 4506SOL    HW114338   2.959   0.432   3.047  0.6111 -1.2497 -0.1474
 4506SOL    HW214339   2.865   0.485   3.169  0.4687  0.5628 -1.0054
 4507SOL     OW14340   0.694   3.381   3.946 -0.0720  0.0075  0.5945
 4507SOL    HW114341   0.617   3.436   3.975  0.3010  0.9709 -0.1692
 4507SOL    HW214342   0.719   3.406   3.852  1.2934 -0.1258  0.8964
 4508SOL     OW14343   4.219   2.077   1.036 -0.2883  0.1347 -0.7900
 4508SOL    HW114344   4.306   2.041   1.003  0.4468  0.4679  0.6726
 4508SOL    HW214345   4.161   2.100   0.959  0.4062 -1.3090 -1.7897
 4509SOL     OW14346   4.619   1.327   4.263 -0.1116  0.0638 -0.5582
 4509SOL    HW114347   4.637   1.257   4.332  1.0670  2.4262  1.6556
 4509SOL    HW214348   4.532   1.306   4.217 -0.2779 -2.3064  0.6762
 4510SOL     OW14349   6.531   4.052   3.659  0.4866  0.1508  0.0296
 4510SOL    HW114350   6.624   4.038   3.626 -0.6169  0.2323 -3.4754
 4510SOL    HW214351   6.474   3.974   3.633 -0.6440  0.5480  1.2077
 4511SOL     OW14352   5.203   6.699   6.341  0.2055  0.4073  0.4070
 4511SOL    HW114353   5.167   6.766   6.276  1.5079  0.4970 -0.2704
 4511SOL    HW214354   5.136   6.627   6.355  0.1602  0.0231 -1.5941
 4512SOL     OW14355   6.087   0.952   1.006  0.2196 -1.1159 -0.0938
 4512SOL    HW114356   6.140   0.900   1.073 -1.2846 -0.2473  1.8856
 4512SOL    HW214357   6.126   1.043   0.996  1.9192 -2.0034 -2.3737
 4513SOL     OW14358   2.785   6.993   1.298  0.2642  0.0468 -0.2152
 4513SOL    HW114359   2.848   6.929   1.255 -0.1492 -1.7550  1.6886
 4513SOL    HW214360   2.723   6.943   1.359 -0.3215  2.2397  1.0716
 4514SOL     OW14361   5.818   2.644   5.633  0.2232  0.1280 -0.0689
 4514SOL    HW114362   5.909   2.679   5.607  1.1705 -0.0384  2.6413
 4514SOL    HW214363   5.780   2.701   5.706 -2.1607  0.4997 -1.5009
 4515SOL     OW14364   2.181   4.607   3.680  0.3072 -0.3728 -0.5007
 4515SOL    HW114365   2.088   4.639   3.695  0.3770 -0.1739 -0.4865
 4515SOL    HW214366   2.198   4.599   3.582  0.8727  1.3852 -0.5799
 4516SOL     OW14367   0.364   4.564   4.937  0.1674 -0.0900 -0.1296
 4516SOL    HW114368   0.321   4.647   4.972  2.9492  0.7444  1.6407
 4516SOL    HW214369   0.323   4.484   4.982  0.8220  0.7049  1.9843
 4517SOL     OW14370   3.173   5.892   2.912  0.2614  0.2998 -0.5982
 4517SOL    HW114371   3.229   5.816   2.882  0.2945  0.5910 -1.2864
 4517SOL    HW214372   3.078   5.879   2.881  0.6242  1.4190 -2.3357
 4518SOL     OW14373   1.280   4.729   0.879  0.3651 -0.7166 -0.3715
 4518SOL    HW114374   1.207   4.663   0.861 -0.3041 -0.1202  0.1028
 4518SOL    HW214375   1.355   4.714   0.814 -0.6703 -0.5964 -1.6335
 4519SOL     OW14376   3.249   4.856   1.331  0.4194  0.0115  0.4746
 4519SOL    HW114377   3.213   4.800   1.407  1.6570 -0.8527  0.4462
 4519SOL    HW214378   3.227   4.812   1.244 -1.0018  1.0038  0.3036
 4520SOL     OW14379   3.944   3.343   0.600 -0.0415 -0.5171  0.7749
 4520SOL    HW114380   3.997   3.331   0.516  0.1560  0.1052  0.7972
 4520SOL    HW214381   4.004   3.381   0.671 -0.2599 -0.8242  1.1249
 4521SOL     OW14382   5.779   5.586   5.351  0.0972 -0.7112  0.2675
 4521SOL    HW114383   5.782   5.552   5.445 -0.0359  1.0149  0.9504
 4521SOL    HW214384   5.798   5.684   5.351  0.1951 -0.6916 -1.5381
 4522SOL     OW14385   5.560   6.101   6.872  0.5311 -0.6290  0.1336
 4522SOL    HW114386   5.493   6.136   6.938  1.4861  0.5822  0.4987
 4522SOL    HW214387   5.587   6.174   6.810  2.2422 -0.8038  0.6069
 4523SOL     OW14388   2.485   4.248   1.391 -0.4538  0.1912 -0.0999
 4523SOL    HW114389   2.447   4.330   1.433  0.4578  0.7529 -0.3553
 4523SOL    HW214390   2.446   4.235   1.300 -0.5520  0.3669 -0.0820
 4524SOL     OW14391   2.901   3.956   2.389 -0.3816  0.2037  0.1103
 4524SOL    HW114392   2.987   3.962   2.442  1.0980  2.3389 -2.3126
 4524SOL    HW214393   2.907   3.880   2.325  0.2165  0.9807 -0.7902
 4525SOL     OW14394   1.769   3.470   4.262 -0.1423 -0.1577  0.5547
 4525SOL    HW114395   1.838   3.412   4.219 -1.0607  0.3873 -1.8406
 4525SOL    HW214396   1.804   3.506   4.348  2.0214 -0.9690  0.0747
 4526SOL     OW14397   3.544   6.507   4.864  0.9170  0.2893  0.1176
 4526SOL    HW114398   3.543   6.459   4.776 -1.5256 -0.3699  0.4450
 4526SOL    HW214399   3.506   6.599   4.853  0.3018  0.0930  0.5155
 4527SOL     OW14400   6.353   2.363   4.379  0.1409 -0.5970  0.4665
 4527SOL    HW114401   6.293   2.344   4.457  0.2654 -0.5085  0.5845
 4527SOL    HW214402   6.441   2.316   4.392 -0.6257 -2.4778 -0.6966
 4528SOL     OW14403   1.306   2.090   0.643 -0.1948  0.6919 -0.2477
 4528SOL    HW114404   1.244   2.034   0.587 -0.5856  1.5626 -0.6978
 4528SOL    HW214405   1.388   2.037   0.664 -0.6439 -0.1264 -0.4880
 4529SOL     OW14406   6.518   2.531   0.800  0.1272  0.7326  0.0030
 4529SOL    HW114407   6.572   2.493   0.875 -1.5517 -0.1667  0.7858
 4529SOL    HW214408   6.536   2.630   0.794 -0.3689  1.0069  2.1828
 4530SOL     OW14409   0.248   6.769   0.579 -0.3760  0.2888  0.0871
 4530SOL    HW114410   0.193   6.846   0.611  0.5727  1.4788 -1.0324
 4530SOL    HW214411   0.295   6.726   0.656 -3.6251 -1.4604  1.2608
 4531SOL     OW14412   2.550   0.387   5.608  0.0784 -0.1558 -0.1149
 4531SOL    HW114413   2.452   0.397   5.593 -0.4153  0.1578  2.8226
 4531SOL    HW214414   2.574   0.426   5.697  3.1447  1.2579 -1.4023
 4532SOL     OW14415   4.909   6.917   3.017  0.7716 -0.1568 -0.1721
 4532SOL    HW114416   4.883   6.981   2.944  0.2019 -0.9730 -0.6933
 4532SOL    HW214417   4.844   6.841   3.019  2.6386 -1.8271 -0.9550
 4533SOL     OW14418   4.517   2.430   0.726  0.2222  0.3537  0.2614
 4533SOL    HW114419   4.501   2.380   0.641 -2.0670  0.8219  0.3445
 4533SOL    HW214420   4.515   2.366   0.803 -0.2300  0.2643  0.1773
 4534SOL     OW14421   5.533   1.109   4.664 -0.2072  0.0129  0.0100
 4534SOL    HW114422   5.557   1.152   4.751 -0.5348 -1.4335  0.8550
 4534SOL    HW214423   5.449   1.150   4.628  0.2761  1.0495  0.0489
 4535SOL     OW14424   6.676   3.085   5.011  0.3211  0.1336 -0.0951
 4535SOL    HW114425   6.753   3.142   5.038  0.3108  0.6745 -1.1172
 4535SOL    HW214426   6.660   3.096   4.913  0.3728 -1.7404 -0.3532
 4536SOL     OW14427   4.682   2.971   6.672  0.3254 -0.3978 -0.3281
 4536SOL    HW114428   4.660   2.874   6.668 -0.3599 -0.2141 -1.5685
 4536SOL    HW214429   4.743   2.989   6.749  3.0016 -2.3033 -1.8614
 4537SOL     OW14430   1.970   5.291   0.928 -0.5223 -0.1543  0.2006
 4537SOL    HW114431   1.987   5.286   0.829  2.1158  0.6999  0.5433
 4537SOL    HW214432   2.025   5.223   0.974 -1.5893 -0.4096  1.1428
 4538SOL     OW14433   6.207   5.540   2.544  0.1073 -1.0376  0.0858
 4538SOL    HW114434   6.154   5.562   2.626 -1.0412 -2.8448 -0.1070
 4538SOL    HW214435   6.274   5.612   2.527 -1.4108  0.7078  1.0960
 4539SOL     OW14436   1.780   3.430   5.327  0.5954 -0.1877  0.6034
 4539SOL    HW114437   1.850   3.362   5.305 -0.5178 -0.9806 -0.5210
 4539SOL    HW214438   1.705   3.424   5.262  0.3540  1.9633  0.6186
 4540SOL     OW14439   1.804   4.559   2.929  0.4157  0.0640  0.0894
 4540SOL    HW114440   1.757   4.602   3.006  0.9819  1.8056 -0.5014
 4540SOL    HW214441   1.899   4.591   2.926  0.9359 -1.4086 -0.2687
 4541SOL     OW14442   3.559   6.647   6.104 -0.5403 -0.4329 -0.7936
 4541SOL    HW114443   3.568   6.573   6.038  0.6772 -0.5347 -0.5299
 4541SOL    HW214444   3.610   6.625   6.187 -4.1308 -1.5504  1.3543
 4542SOL     OW14445   0.929   5.065   0.525 -0.3231  0.5039 -0.5618
 4542SOL    HW114446   0.953   5.161   0.510 -0.3496  0.2892 -2.1976
 4542SOL    HW214447   1.005   5.007   0.496  0.4681  0.0409  2.2068
 4543SOL     OW14448   0.315   1.920   5.581 -0.2551 -0.3707 -0.0730
 4543SOL    HW114449   0.304   1.985   5.657  3.1493 -1.6027  1.6918
 4543SOL    HW214450   0.321   1.827   5.618  1.8766 -0.9695 -1.7351
 4544SOL     OW14451   1.858   0.497   3.043 -0.3804 -0.3291  0.3784
 4544SOL    HW114452   1.898   0.564   3.106 -0.1392 -0.1122 -0.0002
 4544SOL    HW214453   1.798   0.436   3.094  0.6935 -0.8949  1.0177
 4545SOL     OW14454   0.281   5.413   5.289 -0.5172 -0.1663  0.0785
 4545SOL    HW114455   0.297   5.357   5.370 -0.6068 -1.7997 -0.9718
 4545SOL    HW214456   0.362   5.468   5.269  0.6882 -2.0341 -0.4164
 4546SOL     OW14457   0.911   3.329   2.011 -0.0680 -0.0881 -0.1017
 4546SOL    HW114458   0.857   3.275   2.076  0.3736  0.7046  0.9463
 4546SOL    HW214459   0.913   3.424   2.040 -0.0744  0.3392 -1.4385
 4547SOL     OW14460   1.671   0.678   6.695  0.3141 -0.4303 -0.6083
 4547SOL    HW114461   1.653   0.764   6.742  0.2052 -1.0242  0.4576
 4547SOL    HW214462   1.660   0.602   6.758 -0.0908 -1.2749 -1.6646
 4548SOL     OW14463   1.467   6.653   0.227  0.6163 -0.4869 -0.0414
 4548SOL    HW114464   1.520   6.738   0.226  0.6345 -0.4959  0.0548
 4548SOL    HW214465   1.494   6.598   0.307  0.2215 -0.3405  0.1936
 4549SOL     OW14466   3.903   0.603   6.502 -0.6404  0.1943 -0.2842
 4549SOL    HW114467   3.862   0.562   6.421  0.2085  0.5511 -0.9046
 4549SOL    HW214468   3.900   0.537   6.577  0.5301 -0.9776 -1.2060
 4550SOL     OW14469   0.415   1.123   5.675  0.0549  0.0452 -0.6123
 4550SOL    HW114470   0.480   1.113   5.600 -0.4917 -0.3846 -1.0344
 4550SOL    HW214471   0.417   1.218   5.708  1.3288 -0.1059 -0.1993
 4551SOL     OW14472   0.092   3.624   1.323 -0.4875  0.8269  0.2890
 4551SOL    HW114473   0.177   3.582   1.289 -0.0711  2.4058 -0.7498
 4551SOL    HW214474   0.017   3.559   1.314  0.3686 -0.1545 -0.0064
 4552SOL     OW14475   5.369   2.713   6.641 -0.7081 -0.4964  0.3306
 4552SOL    HW114476   5.422   2.777   6.697 -0.7847 -0.0292 -0.1250
 4552SOL    HW214477   5.335   2.639   6.700  0.0279 -0.5402  0.7187
 4553SOL     OW14478   4.675   2.925   2.064  0.1167  0.2854  0.0961
 4553SOL    HW114479   4.704   2.939   2.159  0.6712 -0.1088 -0.0116
 4553SOL    HW214480   4.655   3.014   2.022 -1.6240  0.3786  1.0294
 4554SOL     OW14481   5.586   3.797   5.482 -0.1887  0.1797  0.0227
 4554SOL    HW114482   5.646   3.865   5.525 -0.5177  0.1664  0.5077
 4554SOL    HW214483   5.640   3.737   5.423  0.4754 -0.6145  1.4035
 4555SOL     OW14484   3.270   7.010   3.198  0.0205 -0.1703  0.5718
 4555SOL    HW114485   3.362   7.005   3.235 -0.0228 -1.2106  0.6014
 4555SOL    HW214486   3.271   7.056   3.109  1.0223 -2.5246 -0.6911
 4556SOL     OW14487   5.928   4.336   4.299  0.3184 -0.1597  0.3585
 4556SOL    HW114488   5.994   4.411   4.303 -0.1166  0.3524 -1.1416
 4556SOL    HW214489   5.964   4.263   4.242 -0.5932  0.3908 -1.0078
 4557SOL     OW14490   1.430   5.708   6.136  0.5297 -0.1291  0.2546
 4557SOL    HW114491   1.497   5.702   6.210  1.1457  0.3390 -0.2495
 4557SOL    HW214492   1.476   5.702   6.048 -0.1532 -0.3452 -0.1008
 4558SOL     OW14493   5.429   4.005   1.163 -0.0230  0.3960  0.1121
 4558SOL    HW114494   5.504   4.061   1.199  1.2903 -0.2216 -1.5570
 4558SOL    HW214495   5.452   3.974   1.071 -2.1868 -0.1379 -0.2894
 4559SOL     OW14496   1.098   3.714   2.643  0.2396  0.0723 -0.4464
 4559SOL    HW114497   1.060   3.623   2.658 -0.1129  0.4206  0.8223
 4559SOL    HW214498   1.096   3.735   2.545  0.1355 -1.1935 -0.7225
 4560SOL     OW14499   5.321   0.900   2.755 -0.0156 -0.4433 -0.1112
 4560SOL    HW114500   5.312   0.823   2.692 -1.4227 -0.1560 -0.2912
 4560SOL    HW214501   5.339   0.983   2.703 -1.3265 -0.1793 -0.1650
 4561SOL     OW14502   0.918   4.368   2.621 -0.7204 -0.0200 -0.3491
 4561SOL    HW114503   0.947   4.323   2.536 -0.2916 -1.4416  0.5186
 4561SOL    HW214504   0.991   4.427   2.654 -1.0755  0.9147 -1.2171
 4562SOL     OW14505   3.179   5.262   5.336 -0.2567  0.4545 -0.0764
 4562SOL    HW114506   3.265   5.311   5.343  0.2494 -0.7043  3.8239
 4562SOL    HW214507   3.111   5.304   5.396 -2.1210  0.5878 -2.1257
 4563SOL     OW14508   3.751   0.429   3.317  0.2642  0.3952 -0.2215
 4563SOL    HW114509   3.824   0.380   3.269 -1.2154 -1.7097 -0.4638
 4563SOL    HW214510   3.782   0.451   3.410  1.5724  0.5246 -0.6576
 4564SOL     OW14511   0.563   5.852   0.060  0.1202  0.0154  0.5008
 4564SOL    HW114512   0.573   5.763   0.104 -3.3186 -1.3365 -1.0481
 4564SOL    HW214513   0.625   5.858  -0.018  0.2079 -1.1892  0.4847
 4565SOL     OW14514   3.670   6.564   6.344  0.4565  0.1192 -0.4634
 4565SOL    HW114515   3.755   6.614   6.363  0.6811  0.4761 -2.2024
 4565SOL    HW214516   3.606   6.577   6.420  0.8351  2.3113 -0.4344
 4566SOL     OW14517   2.004   3.969   6.956 -0.3258  0.5584 -0.2438
 4566SOL    HW114518   1.976   3.938   7.047 -0.6097 -0.9758 -0.8529
 4566SOL    HW214519   1.983   3.898   6.889  1.3182  1.0181 -1.2963
 4567SOL     OW14520   2.965   2.522   6.749 -0.5449  0.2450 -0.1878
 4567SOL    HW114521   2.922   2.611   6.734 -0.4223  0.1514 -1.0808
 4567SOL    HW214522   3.022   2.498   6.671  1.8805  0.7662  1.3161
 4568SOL     OW14523   4.092   4.951   3.878  0.2181 -0.0307 -0.3709
 4568SOL    HW114524   4.020   4.893   3.841 -0.3352 -0.2104  0.9430
 4568SOL    HW214525   4.174   4.941   3.821 -0.7137  0.0538 -1.8049
 4569SOL     OW14526   0.339   4.412   3.781 -0.1469  0.1706 -0.1330
 4569SOL    HW114527   0.249   4.442   3.749  0.2298  0.2865 -1.1225
 4569SOL    HW214528   0.369   4.334   3.726  0.0666 -0.2998  0.6421
 4570SOL     OW14529   1.498   4.961   4.332  0.1766 -0.5333  0.3038
 4570SOL    HW114530   1.554   5.014   4.395  1.7880 -0.0048 -1.5143
 4570SOL    HW214531   1.464   4.879   4.379  1.7211 -0.4076  1.7280
 4571SOL     OW14532   5.604   4.970   5.174  0.4395  0.2485 -0.1941
 4571SOL    HW114533   5.674   4.957   5.244  1.2989 -1.4698 -1.3150
 4571SOL    HW214534   5.516   4.988   5.218  0.6534 -2.1331  1.4430
 4572SOL     OW14535   0.680   6.168   0.106  0.2856 -0.7832 -0.5455
 4572SOL    HW114536   0.658   6.078   0.066 -1.0651  0.3423 -2.5000
 4572SOL    HW214537   0.597   6.210   0.141  0.6275  0.3414 -1.0442
 4573SOL     OW14538   6.606   1.808   0.514  0.0959  0.7576 -0.2977
 4573SOL    HW114539   6.608   1.856   0.426 -1.1526  1.1831 -0.1039
 4573SOL    HW214540   6.516   1.818   0.555  0.8054  0.9277  1.2446
 4574SOL     OW14541   6.838   6.003   5.710  0.3305 -0.0313 -0.1838
 4574SOL    HW114542   6.879   5.919   5.743 -1.7660 -1.2691 -0.5546
 4574SOL    HW214543   6.739   5.992   5.705  0.0342  2.3593 -0.5552
 4575SOL     OW14544   0.437   2.674   0.970 -0.4589 -0.3918  0.0105
 4575SOL    HW114545   0.374   2.624   0.911  0.3358 -1.9304  0.4011
 4575SOL    HW214546   0.405   2.768   0.982 -1.3994 -0.4676 -1.6804
 4576SOL     OW14547   3.942   4.869   0.889  0.2922 -0.5637 -0.5226
 4576SOL    HW114548   3.964   4.861   0.987  0.1120  0.2335 -0.4100
 4576SOL    HW214549   3.934   4.777   0.850 -0.7638 -0.9165  0.4555
 4577SOL     OW14550   2.379   0.305   2.383 -0.0085  0.1345  0.7916
 4577SOL    HW114551   2.464   0.340   2.344 -0.1895 -0.2031  0.0739
 4577SOL    HW214552   2.314   0.287   2.310 -1.2212  1.7283  1.4209
 4578SOL     OW14553   2.745   3.465   1.763  0.0207  0.1132 -0.4796
 4578SOL    HW114554   2.674   3.521   1.721  0.6998  2.5763  1.3820
 4578SOL    HW214555   2.779   3.399   1.697 -1.8828  0.8875 -2.3477
 4579SOL     OW14556   3.705   1.143   2.258  0.0509 -0.1533 -0.0048
 4579SOL    HW114557   3.715   1.233   2.216  0.5533 -0.0227  0.3753
 4579SOL    HW214558   3.790   1.091   2.246  1.3409  0.9206  3.1992
 4580SOL     OW14559   1.599   3.496   1.895 -0.2279  0.2266 -0.1037
 4580SOL    HW114560   1.624   3.495   1.992  0.0432  1.6857 -0.1318
 4580SOL    HW214561   1.610   3.589   1.859 -3.2383  0.4388 -0.7468
 4581SOL     OW14562   4.329   3.727   5.801  0.3104  0.3541 -0.3825
 4581SOL    HW114563   4.305   3.780   5.720 -0.9163  0.7874  0.2498
 4581SOL    HW214564   4.300   3.776   5.883  1.4191 -0.1368  0.3228
 4582SOL     OW14565   5.572   4.322   2.541 -0.0696  0.0219  0.3898
 4582SOL    HW114566   5.597   4.416   2.561 -2.3066  0.3155  2.1927
 4582SOL    HW214567   5.561   4.311   2.442 -0.9656  1.9850  0.2274
 4583SOL     OW14568   6.730   0.084   5.198 -0.7994 -0.0276 -0.0556
 4583SOL    HW114569   6.714   0.179   5.225  2.0314  0.1821  1.1072
 4583SOL    HW214570   6.742   0.027   5.279 -0.1148 -0.9258 -0.7662
 4584SOL     OW14571   5.298   0.371   6.928 -0.8401 -0.0363 -0.1488
 4584SOL    HW114572   5.225   0.417   6.979 -1.3208  1.2213 -1.8799
 4584SOL    HW214573   5.359   0.324   6.992 -2.0096  0.5729  1.4833
 4585SOL     OW14574   1.082   6.346   0.212 -0.8259  0.2561  0.2723
 4585SOL    HW114575   1.079   6.407   0.133  0.9059 -0.4829 -0.4319
 4585SOL    HW214576   1.170   6.298   0.213 -1.7893 -1.5877  1.2742
 4586SOL     OW14577   1.954   1.977   5.032 -0.2246  0.4458  0.1633
 4586SOL    HW114578   1.928   2.070   5.059  1.0731  1.5677 -2.1877
 4586SOL    HW214579   1.891   1.944   4.962  0.1702  0.1486 -0.0567
 4587SOL     OW14580   3.260   0.527   2.799  0.8368  0.0623 -0.3057
 4587SOL    HW114581   3.309   0.613   2.786 -0.0130  0.5356 -0.4561
 4587SOL    HW214582   3.281   0.491   2.890  1.3614  0.3196 -0.3159
 4588SOL     OW14583   2.482   3.312   3.958  0.0027 -0.6993  0.4338
 4588SOL    HW114584   2.539   3.231   3.944  0.4065 -0.1098 -1.8416
 4588SOL    HW214585   2.425   3.326   3.877 -1.1984  0.4332  1.4361
 4589SOL     OW14586   2.007   2.581   1.458  0.2039  0.9744 -0.5235
 4589SOL    HW114587   1.910   2.558   1.453  0.7683 -1.6516 -0.5563
 4589SOL    HW214588   2.022   2.649   1.530 -1.5881  1.0695 -0.2105
 4590SOL     OW14589   2.981   6.202   0.859  0.2094  0.0645  0.0211
 4590SOL    HW114590   2.907   6.134   0.855 -1.6580  2.0241 -2.9795
 4590SOL    HW214591   3.051   6.178   0.792 -0.4049  0.9563 -0.9743
 4591SOL     OW14592   2.676   4.861   5.529  0.1762 -0.2999 -0.4498
 4591SOL    HW114593   2.661   4.950   5.487 -1.1168 -0.5011 -0.4815
 4591SOL    HW214594   2.722   4.801   5.464 -0.0182 -0.0163 -0.8505
 4592SOL     OW14595   2.068   5.240   0.674  0.3978 -0.5726 -0.0478
 4592SOL    HW114596   2.035   5.326   0.635  0.5723 -0.2147  0.5846
 4592SOL    HW214597   2.023   5.163   0.628  1.8150 -0.2412 -2.1318
 4593SOL     OW14598   5.719   3.201   2.636  0.2560  0.6064 -0.2331
 4593SOL    HW114599   5.725   3.287   2.686 -1.8744  1.1199 -0.7507
 4593SOL    HW214600   5.639   3.203   2.576  1.1379 -1.0892 -1.5299
 4594SOL     OW14601   1.951   6.247   2.290  0.0010 -0.3217 -0.5386
 4594SOL    HW114602   1.871   6.193   2.263 -1.5100  1.0309  1.0163
 4594SOL    HW214603   2.011   6.191   2.348 -1.2578 -0.5702  0.5966
 4595SOL     OW14604   6.699   5.276   5.216  0.6600  0.0307 -0.4779
 4595SOL    HW114605   6.720   5.347   5.284  1.0824 -0.5903  0.0520
 4595SOL    HW214606   6.655   5.318   5.137  1.3897  0.9708 -0.4081
 4596SOL     OW14607   5.166   3.556   6.332  0.4813 -0.1029 -0.6577
 4596SOL    HW114608   5.189   3.476   6.388 -1.6583 -1.5740 -1.7916
 4596SOL    HW214609   5.088   3.604   6.373 -0.0644 -0.2603 -1.4849
 4597SOL     OW14610   0.148   6.884   3.677 -0.1637  0.2538  0.3752
 4597SOL    HW114611   0.123   6.806   3.620  0.2003 -0.2894  0.9507
 4597SOL    HW214612   0.229   6.862   3.731  0.1023  1.1194  0.3586
 4598SOL     OW14613   4.991   0.209   0.265 -0.2911  0.7306 -0.2693
 4598SOL    HW114614   4.954   0.301   0.252  0.4853  1.0444 -0.3157
 4598SOL    HW214615   5.027   0.201   0.358 -0.8093  0.3065 -0.1024
 4599SOL     OW14616   1.688   3.136   6.824  0.1098  0.5802 -0.5825
 4599SOL    HW114617   1.683   3.088   6.737 -0.4194  2.0073 -1.3710
 4599SOL    HW214618   1.783   3.154   6.847  0.3030 -0.5126 -0.4239
 4600SOL     OW14619   0.255   1.389   6.187 -0.3793 -0.0322 -0.0253
 4600SOL    HW114620   0.228   1.477   6.227 -1.7450  0.3386 -1.6520
 4600SOL    HW214621   0.221   1.314   6.245  0.5658  0.4763  1.2352
 4601SOL     OW14622   4.129   5.407   3.169 -0.0550  0.3637  0.3859
 4601SOL    HW114623   4.119   5.461   3.252 -1.3176  1.7214 -0.5735
 4601SOL    HW214624   4.213   5.433   3.121  0.9002 -0.7322  1.4097
 4602SOL     OW14625   0.317   6.487   3.221 -0.1266  0.4459  0.2074
 4602SOL    HW114626   0.263   6.567   3.196 -0.4058 -0.0196 -0.7359
 4602SOL    HW214627   0.361   6.449   3.140 -0.1492 -0.4730  0.6055
 4603SOL     OW14628   2.462   5.109   5.704 -0.4049  0.5402  0.1328
 4603SOL    HW114629   2.475   5.203   5.735  2.1802  0.0339  0.7617
 4603SOL    HW214630   2.416   5.110   5.615  0.0192  2.4471 -0.1197
 4604SOL     OW14631   0.578   5.119   3.682 -0.0990 -0.0657  0.2281
 4604SOL    HW114632   0.597   5.153   3.774  0.4991 -0.1831  0.1514
 4604SOL    HW214633   0.661   5.124   3.627 -0.3990 -0.2020 -0.2434
 4605SOL     OW14634   1.661   3.932   2.083 -0.0215 -0.5717  0.0414
 4605SOL    HW114635   1.591   3.963   2.148  1.1111 -0.2178  1.1188
 4605SOL    HW214636   1.741   3.901   2.133  1.7157  1.6537 -1.1704
 4606SOL     OW14637   3.551   6.604   1.196 -0.0288 -0.0587  0.2145
 4606SOL    HW114638   3.476   6.670   1.206 -0.4262 -0.1872 -1.6550
 4606SOL    HW214639   3.528   6.520   1.246 -0.1868  0.6539  1.3811
 4607SOL     OW14640   3.953   6.966   6.466  0.7467 -0.4474  0.6703
 4607SOL    HW114641   3.986   6.879   6.429 -1.3305 -1.1894  0.4566
 4607SOL    HW214642   3.863   6.986   6.429  0.0298  0.4521  2.7567
 4608SOL     OW14643   5.927   5.483   2.905  0.2282  0.1486 -0.8891
 4608SOL    HW114644   5.849   5.450   2.853 -1.6067  1.9728  0.5195
 4608SOL    HW214645   5.942   5.424   2.984  0.2636 -0.1912 -1.1477
 4609SOL     OW14646   5.477   2.064   3.828  0.2239  0.8481  0.4676
 4609SOL    HW114647   5.461   2.162   3.836  1.0058  1.5271 -3.9310
 4609SOL    HW214648   5.398   2.020   3.785  0.6532 -0.1137  0.6221
 4610SOL     OW14649   2.178   4.372   5.320  0.2385 -0.6789  0.1023
 4610SOL    HW114650   2.268   4.411   5.342 -0.5261  2.6256 -1.9092
 4610SOL    HW214651   2.175   4.347   5.224 -1.2289  0.0161 -0.0660
 4611SOL     OW14652   2.730   5.815   6.911  0.0349  0.9358  0.4261
 4611SOL    HW114653   2.769   5.755   6.980  1.9497  0.8999 -0.6259
 4611SOL    HW214654   2.795   5.889   6.890 -1.8037  2.8032  0.9236
 4612SOL     OW14655   4.972   4.094   2.621 -0.3194 -0.2216 -0.0191
 4612SOL    HW114656   4.882   4.051   2.617  0.5714 -2.3109  0.4183
 4612SOL    HW214657   5.025   4.053   2.696  0.7575  1.4173  0.1531
 4613SOL     OW14658   5.079   2.896   3.107 -0.1945 -0.2563  0.0880
 4613SOL    HW114659   4.980   2.908   3.097 -0.1020  0.0595 -0.4617
 4613SOL    HW214660   5.125   2.920   3.021  0.4139  0.1757  0.5259
 4614SOL     OW14661   6.880   2.888   6.034  0.0512 -0.2421  0.2488
 4614SOL    HW114662   6.966   2.917   6.077 -0.0187  1.0037 -0.3991
 4614SOL    HW214663   6.887   2.900   5.935 -0.5910 -0.9015  0.1191
 4615SOL     OW14664   0.381   1.512   1.004 -0.0189 -0.6191  0.0749
 4615SOL    HW114665   0.338   1.487   1.090 -1.5333  1.2605 -0.0744
 4615SOL    HW214666   0.328   1.475   0.928 -1.3506  1.5078 -0.1057
 4616SOL     OW14667   6.250   0.951   1.568 -0.2077  0.2109 -0.4619
 4616SOL    HW114668   6.266   0.899   1.652  0.3125  0.2846 -0.5118
 4616SOL    HW214669   6.225   1.045   1.592  1.0646  0.5601 -0.3822
 4617SOL     OW14670   2.354   2.298   1.237  0.2755  0.1016  0.2151
 4617SOL    HW114671   2.440   2.261   1.273  1.0181  1.6562  0.1131
 4617SOL    HW214672   2.314   2.360   1.305  0.8107  1.7430 -0.9216
 4618SOL     OW14673   6.237   0.245   6.119  0.2636  0.0164 -0.7358
 4618SOL    HW114674   6.330   0.209   6.117  0.6064  0.8112 -0.1674
 4618SOL    HW214675   6.185   0.199   6.191  0.7502  0.7658  0.1104
 4619SOL     OW14676   4.282   1.841   2.165 -0.0921  0.4550  0.0598
 4619SOL    HW114677   4.292   1.937   2.138  0.8584  0.1634 -0.6436
 4619SOL    HW214678   4.319   1.828   2.257  1.1087  0.4715 -0.4112
 4620SOL     OW14679   3.015   2.156   4.906  0.0720  0.2752 -0.1338
 4620SOL    HW114680   3.029   2.226   4.976 -2.2672 -0.1146  0.8031
 4620SOL    HW214681   3.104   2.122   4.875  1.2382  2.9483  0.0778
 4621SOL     OW14682   4.853   0.388   5.032  0.4747  0.4379  0.7747
 4621SOL    HW114683   4.824   0.314   4.971  3.8263  1.7301 -2.8125
 4621SOL    HW214684   4.792   0.467   5.021  0.4887  0.3213 -0.2031
 4622SOL     OW14685   3.791   6.560   6.904  0.2775 -0.0542 -0.2708
 4622SOL    HW114686   3.782   6.638   6.841 -0.3820  0.1427  0.0541
 4622SOL    HW214687   3.797   6.476   6.851  1.3424  0.2341 -0.6372
 4623SOL     OW14688   3.624   5.779   5.905  0.2320  0.5671  0.1069
 4623SOL    HW114689   3.559   5.723   5.957 -1.8571  0.5267 -2.3233
 4623SOL    HW214690   3.602   5.773   5.808  2.9245  1.9255 -0.6834
 4624SOL     OW14691   5.047   6.468   6.393  0.0381  0.0048 -0.3099
 4624SOL    HW114692   4.960   6.447   6.347 -2.1384  1.4724  2.8454
 4624SOL    HW214693   5.054   6.413   6.476  4.1778 -3.0388 -2.2850
 4625SOL     OW14694   4.093   5.064   2.145 -0.3832 -0.6210  0.1216
 4625SOL    HW114695   4.120   5.000   2.217  1.0032 -0.1250  0.0832
 4625SOL    HW214696   4.031   5.018   2.081 -2.2182 -0.8649  1.9674
 4626SOL     OW14697   2.906   6.335   1.449 -0.1289  0.1379  0.2177
 4626SOL    HW114698   2.980   6.353   1.513  0.2434  2.4973 -0.7770
 4626SOL    HW214699   2.945   6.304   1.361 -0.1428  2.6848 -0.7490
 4627SOL     OW14700   0.056   3.294   3.430  0.4070  0.3694 -0.3376
 4627SOL    HW114701   0.048   3.342   3.517 -1.6085 -0.7111  0.1234
 4627SOL    HW214702  -0.028   3.307   3.377  0.6225 -1.0676 -1.0127
 4628SOL     OW14703   5.907   2.090   4.005  0.2749 -0.1094 -0.0996
 4628SOL    HW114704   5.966   2.129   4.076 -0.1859  0.0514  0.1973
 4628SOL    HW214705   5.954   2.013   3.961  1.0702  0.5909 -0.4884
 4629SOL     OW14706   2.879   3.338   4.514  0.3307  0.5796  0.2049
 4629SOL    HW114707   2.860   3.427   4.555  2.7491  2.0791 -1.5679
 4629SOL    HW214708   2.841   3.336   4.421  0.4150 -0.1751  0.1853
 4630SOL     OW14709   0.313   6.772   5.827 -0.0174  0.2457 -0.5013
 4630SOL    HW114710   0.397   6.737   5.868  0.3010  0.3671 -1.0491
 4630SOL    HW214711   0.326   6.784   5.729 -0.9624 -0.6249 -0.7523
 4631SOL     OW14712   1.110   4.542   3.865  0.3068 -0.6171  0.4159
 4631SOL    HW114713   1.177   4.569   3.934 -0.4896 -0.6316  1.2230
 4631SOL    HW214714   1.074   4.451   3.887 -2.2145  0.5827  1.8243
 4632SOL     OW14715   4.801   4.696   4.492  0.0714 -0.5047 -0.0790
 4632SOL    HW114716   4.741   4.700   4.573 -0.4823 -3.4618 -0.2282
 4632SOL    HW214717   4.746   4.671   4.412  1.0326 -0.2433 -0.8307
 4633SOL     OW14718   4.802   4.576   0.791  0.1740  0.1403  0.2309
 4633SOL    HW114719   4.824   4.674   0.789 -1.7670  0.6256  0.6870
 4633SOL    HW214720   4.715   4.563   0.839  0.5406 -1.8479  0.4105
 4634SOL     OW14721   5.392   5.825   3.868  0.1642 -0.1558  0.0878
 4634SOL    HW114722   5.460   5.866   3.807 -0.6997 -0.8439 -1.3860
 4634SOL    HW214723   5.335   5.760   3.817 -2.7102  1.5823  0.8391
 4635SOL     OW14724   4.897   1.759   1.915  0.3181  0.7843  0.4678
 4635SOL    HW114725   4.832   1.690   1.947 -1.0531  1.6928 -0.2531
 4635SOL    HW214726   4.946   1.725   1.834 -0.2099  0.5724  0.2315
 4636SOL     OW14727   2.529   4.408   1.039 -0.0077  0.1514  0.0673
 4636SOL    HW114728   2.467   4.334   1.066  0.4576  0.1130  1.0585
 4636SOL    HW214729   2.485   4.496   1.055  1.1254  0.2571  3.4589
 4637SOL     OW14730   4.369   3.696   4.952 -0.5350 -0.1413  0.3085
 4637SOL    HW114731   4.437   3.649   4.895 -0.0940  0.4274  0.3524
 4637SOL    HW214732   4.349   3.641   5.033 -1.5539 -1.2067 -0.6349
 4638SOL     OW14733   3.084   5.089   4.778 -0.2912 -0.3516 -0.4389
 4638SOL    HW114734   3.018   5.121   4.710  0.6991 -0.1515 -1.3382
 4638SOL    HW214735   3.039   5.027   4.842 -1.3118 -0.3262 -1.1102
 4639SOL     OW14736   6.687   6.967   0.468 -0.3619 -0.0026 -0.1139
 4639SOL    HW114737   6.661   7.012   0.553 -0.9920 -1.9509  0.7912
 4639SOL    HW214738   6.779   6.995   0.442 -1.1593  2.6353 -0.2645
 4640SOL     OW14739   1.501   4.520   3.762  0.5022 -0.0863 -0.0879
 4640SOL    HW114740   1.473   4.424   3.749  1.6871 -0.6731  1.3330
 4640SOL    HW214741   1.455   4.556   3.843 -0.9580  1.0019 -1.3645
 4641SOL     OW14742   5.273   4.815   5.116  0.6339  0.2311 -0.2245
 4641SOL    HW114743   5.230   4.769   5.039 -1.0201  1.4483 -0.0629
 4641SOL    HW214744   5.204   4.865   5.168  2.2399  2.3843 -0.0335
 4642SOL     OW14745   5.094   4.480   0.979 -0.4469 -0.4403 -0.3435
 4642SOL    HW114746   5.082   4.520   0.889 -1.3914  0.6808  0.2608
 4642SOL    HW214747   5.171   4.523   1.026 -1.0249  0.1966  0.0362
 4643SOL     OW14748   2.307   0.870   5.410 -0.1375 -0.0908  0.1997
 4643SOL    HW114749   2.402   0.872   5.381  0.2197 -0.7549  1.2683
 4643SOL    HW214750   2.248   0.852   5.331  0.5143  1.4377 -0.6801
 4644SOL     OW14751   1.977   2.690   6.057  0.2031  0.0262  0.1834
 4644SOL    HW114752   2.067   2.690   6.099 -0.2971  1.0729  1.3711
 4644SOL    HW214753   1.979   2.745   5.973  0.8294 -0.6408 -0.2577
 4645SOL     OW14754   2.518   4.706   5.212  0.4035  0.5690  0.2635
 4645SOL    HW114755   2.603   4.660   5.188  3.3238  5.1121  0.8318
 4645SOL    HW214756   2.498   4.692   5.309  0.8304 -0.0080  0.2693
 4646SOL     OW14757   1.006   6.559   3.271  0.5226 -0.3252  0.5257
 4646SOL    HW114758   1.053   6.579   3.357  1.0347 -0.0063  0.1808
 4646SOL    HW214759   0.915   6.524   3.290  0.7183 -0.4868  1.2029
 4647SOL     OW14760   6.998   5.865   1.609  0.1957 -0.2519 -0.4424
 4647SOL    HW114761   7.050   5.797   1.556  2.3573 -0.7456  2.1330
 4647SOL    HW214762   6.966   5.823   1.694 -0.5197  1.3293  0.1026
 4648SOL     OW14763   1.082   1.604   6.370  0.3956  0.2440 -0.1366
 4648SOL    HW114764   1.019   1.546   6.318 -1.5226  0.7249  1.4942
 4648SOL    HW214765   1.057   1.700   6.357  0.3678  0.4067  1.0504
 4649SOL     OW14766   3.110   2.356   0.302 -0.0742 -0.0698 -1.2279
 4649SOL    HW114767   3.052   2.279   0.277 -0.7715 -0.6109  1.6951
 4649SOL    HW214768   3.106   2.425   0.230 -2.4753 -1.1162 -2.2136
 4650SOL     OW14769   2.202   5.955   5.913  0.6435 -0.0017 -0.4888
 4650SOL    HW114770   2.124   5.993   5.963  0.0146 -2.0342  0.1704
 4650SOL    HW214771   2.287   5.980   5.960  0.0822 -1.8211  1.7060
 4651SOL     OW14772   2.999   4.535   0.813 -1.0684  0.5654 -0.5491
 4651SOL    HW114773   2.974   4.599   0.739 -0.6173  2.5175  0.9137
 4651SOL    HW214774   3.086   4.491   0.791 -0.5803  1.6704 -0.8646
 4652SOL     OW14775   6.054   2.216   4.204 -0.8014  0.5098 -0.1794
 4652SOL    HW114776   6.128   2.279   4.227 -1.4201  1.5571 -0.9687
 4652SOL    HW214777   6.029   2.163   4.285  0.9753 -0.0557  0.0251
 4653SOL     OW14778   0.478   6.305   4.470  0.1920  0.3819 -0.6909
 4653SOL    HW114779   0.418   6.293   4.391  0.9006 -2.1740 -0.9196
 4653SOL    HW214780   0.425   6.295   4.554  0.2608 -2.9396 -0.8683
 4654SOL     OW14781   0.974   0.261   4.509 -0.1242  0.5019 -0.2127
 4654SOL    HW114782   1.016   0.176   4.477 -0.3688  0.3253 -0.0744
 4654SOL    HW214783   0.924   0.244   4.593 -1.6649  0.3965 -1.1104
 4655SOL     OW14784   2.736   6.040   4.816  0.0448 -0.1672 -0.3889
 4655SOL    HW114785   2.815   6.011   4.761 -0.4699 -2.3893 -0.0512
 4655SOL    HW214786   2.728   5.981   4.896 -1.2754  0.7948  0.2213
 4656SOL     OW14787   3.937   1.661   2.308  0.2548  0.1056 -0.0534
 4656SOL    HW114788   3.944   1.758   2.331  0.1574  0.6998 -2.3074
 4656SOL    HW214789   3.971   1.647   2.215  0.8086 -2.1312  0.4416
 4657SOL     OW14790   0.416   6.863   1.138  0.2416  0.7262 -0.7210
 4657SOL    HW114791   0.482   6.937   1.148  1.7408 -0.6127 -0.2650
 4657SOL    HW214792   0.451   6.796   1.073 -0.4398 -0.2813 -0.0729
 4658SOL     OW14793   3.374   4.529   2.304  0.7965 -0.5644  0.0876
 4658SOL    HW114794   3.311   4.587   2.355  0.3980  0.1385 -1.1594
 4658SOL    HW214795   3.467   4.542   2.338  0.2980 -1.5889  1.9232
 4659SOL     OW14796   1.381   5.120   7.005 -0.7114  0.0954 -0.6606
 4659SOL    HW114797   1.385   5.219   7.019 -1.6835  0.0684 -0.0819
 4659SOL    HW214798   1.310   5.098   6.938 -1.7947 -0.3212  0.6150
 4660SOL     OW14799   2.494   3.564   1.126 -0.2616 -0.7878 -0.1235
 4660SOL    HW114800   2.424   3.600   1.065 -0.2654 -0.3723  0.1202
 4660SOL    HW214801   2.494   3.616   1.211  0.9704 -0.1803 -0.4743
 4661SOL     OW14802   6.929   6.329   2.558  0.1050 -0.2083 -0.2418
 4661SOL    HW114803   6.944   6.303   2.653 -3.6942 -3.2814 -0.2116
 4661SOL    HW214804   6.862   6.403   2.554 -0.8489 -1.0564 -0.4549
 4662SOL     OW14805   4.023   5.172   3.104 -0.0156  0.3705 -0.3269
 4662SOL    HW114806   3.926   5.154   3.088 -0.1701  0.7332  0.1624
 4662SOL    HW214807   4.033   5.260   3.151  0.4890 -0.0834  0.4463
 4663SOL     OW14808   1.812   1.222   1.544  0.0257  0.2459 -0.1828
 4663SOL    HW114809   1.877   1.166   1.597  1.2138  0.2606 -1.5522
 4663SOL    HW214810   1.864   1.283   1.484 -1.2855  1.3042 -0.2670
 4664SOL     OW14811   5.647   2.684   3.226 -0.1412  0.2315  0.2562
 4664SOL    HW114812   5.682   2.643   3.142 -2.1203 -0.0840 -0.4460
 4664SOL    HW214813   5.584   2.620   3.270 -0.2817  1.0091  1.2072
 4665SOL     OW14814   5.889   0.725   5.243 -0.1857  0.1728  0.0008
 4665SOL    HW114815   5.906   0.646   5.301  1.0093  0.3760 -0.0378
 4665SOL    HW214816   5.805   0.771   5.272  0.0739 -0.0741  1.1752
 4666SOL     OW14817   4.693   1.171   1.863  0.6228  0.3101 -0.1875
 4666SOL    HW114818   4.669   1.247   1.802  2.3537  0.2503 -1.0185
 4666SOL    HW214819   4.758   1.203   1.932 -0.2659  0.0571  0.7775
 4667SOL     OW14820   2.555   3.921   0.432 -0.0076  0.2089  0.1389
 4667SOL    HW114821   2.619   3.912   0.508 -0.4442  0.6723  0.5653
 4667SOL    HW214822   2.606   3.937   0.347  0.6726 -2.8789 -0.1658
 4668SOL     OW14823   6.878   1.047   4.361 -0.2576  0.3770 -0.1694
 4668SOL    HW114824   6.903   0.952   4.377 -0.0079  0.2470 -1.2579
 4668SOL    HW214825   6.897   1.071   4.266 -0.2345  1.5390  0.1093
 4669SOL     OW14826   6.624   6.525   1.804  0.2775 -0.1404  0.1087
 4669SOL    HW114827   6.538   6.517   1.854  1.5311  0.1353  2.3902
 4669SOL    HW214828   6.650   6.435   1.767  0.4257 -0.8664  1.8955
 4670SOL     OW14829   0.452   1.633   4.495  0.0558 -0.0904 -0.1021
 4670SOL    HW114830   0.434   1.652   4.399 -1.1096 -1.2109 -0.1295
 4670SOL    HW214831   0.386   1.683   4.552  0.3884  0.1334  0.0939
 4671SOL     OW14832   3.644   5.273   0.801  0.1955  0.1077  0.1106
 4671SOL    HW114833   3.649   5.333   0.721  1.4513  1.4279  1.1132
 4671SOL    HW214834   3.716   5.204   0.796  0.9144  0.8045  0.5354
 4672SOL     OW14835   4.771   2.030   3.136  0.0975  0.6926 -0.0167
 4672SOL    HW114836   4.861   2.061   3.104  0.4063 -2.1288 -2.2837
 4672SOL    HW214837   4.702   2.099   3.113  1.1935  1.3428 -1.5359
 4673SOL     OW14838   4.516   3.891   6.745  0.3524 -0.0085  0.4111
 4673SOL    HW114839   4.603   3.932   6.773  0.3019 -0.3754  1.1413
 4673SOL    HW214840   4.497   3.811   6.802  0.0750 -0.5975 -0.4839
 4674SOL     OW14841   5.579   5.072   6.951 -0.1474  0.1608  0.3651
 4674SOL    HW114842   5.642   5.077   7.028  0.8711  1.2374 -0.4932
 4674SOL    HW214843   5.486   5.092   6.983  0.2670  0.6970  1.2869
 4675SOL     OW14844   5.650   5.042   1.472 -0.3736  0.1593 -0.1948
 4675SOL    HW114845   5.619   5.019   1.380 -1.5760 -0.2494  0.3055
 4675SOL    HW214846   5.581   5.099   1.517  1.4467  2.8993 -0.5644
 4676SOL     OW14847   2.608   2.206   1.319 -0.2099  0.0846  0.8101
 4676SOL    HW114848   2.664   2.216   1.401 -0.4687 -2.4428  1.3672
 4676SOL    HW214849   2.662   2.165   1.246 -0.7553 -0.3898  0.6670
 4677SOL     OW14850   5.331   5.804   5.811 -0.3367 -0.4580 -0.4439
 4677SOL    HW114851   5.358   5.874   5.876 -0.0187 -0.3463 -0.6954
 4677SOL    HW214852   5.309   5.720   5.860  2.9350 -1.3932 -0.3269
 4678SOL     OW14853   1.822   3.806   3.965 -0.2022  0.2859 -0.4345
 4678SOL    HW114854   1.771   3.751   3.899  0.2765 -0.8139  0.0854
 4678SOL    HW214855   1.856   3.889   3.920 -0.5021 -0.0820 -1.3752
 4679SOL     OW14856   5.795   3.483   6.304 -0.1117  0.2263  0.0151
 4679SOL    HW114857   5.781   3.485   6.403 -1.3056 -1.9541 -0.0442
 4679SOL    HW214858   5.875   3.427   6.282  0.6666  1.3986 -0.2547
 4680SOL     OW14859   0.279   4.825   5.047 -0.6197 -0.7050  0.0791
 4680SOL    HW114860   0.198   4.780   5.084 -0.8106  0.0174  0.5507
 4680SOL    HW214861   0.350   4.830   5.118 -0.0996 -1.4639 -0.3708
 4681SOL     OW14862   1.657   3.883   6.275  0.0542 -0.6220  0.0471
 4681SOL    HW114863   1.687   3.933   6.357 -1.2110 -1.6485  1.2096
 4681SOL    HW214864   1.566   3.914   6.249 -1.1240 -2.7705  1.2982
 4682SOL     OW14865   6.289   6.846   2.962  0.1478  0.3146 -0.6406
 4682SOL    HW114866   6.351   6.912   3.003  2.1091 -1.0611 -1.2169
 4682SOL    HW214867   6.222   6.894   2.906  1.8312  1.8214 -1.4652
 4683SOL     OW14868   6.319   3.846   2.580 -0.1107 -0.8223  0.1640
 4683SOL    HW114869   6.325   3.943   2.602  0.9548 -1.2234  1.7332
 4683SOL    HW214870   6.409   3.803   2.590 -0.9840 -2.4138  1.7174
 4684SOL     OW14871   0.895   5.060   2.314  0.2040 -0.4879  0.0311
 4684SOL    HW114872   0.904   5.109   2.227  1.1478 -0.3509  0.1945
 4684SOL    HW214873   0.948   4.975   2.310 -0.4081 -0.8926  0.1965
 4685SOL     OW14874   1.284   2.450   5.825 -0.3211 -0.1957 -0.2693
 4685SOL    HW114875   1.360   2.437   5.890 -0.1478 -2.1716 -0.7926
 4685SOL    HW214876   1.198   2.425   5.869 -0.1847 -1.7056 -0.8137
 4686SOL     OW14877   6.584   3.042   4.752 -0.0166 -0.7247 -0.6705
 4686SOL    HW114878   6.673   3.054   4.707 -0.1600 -3.7230 -1.9673
 4686SOL    HW214879   6.559   2.946   4.750 -4.4151  0.2275 -2.5213
 4687SOL     OW14880   1.643   4.625   6.099 -0.1030  0.5667  0.1266
 4687SOL    HW114881   1.558   4.676   6.105 -0.5354 -0.0942 -0.2722
 4687SOL    HW214882   1.655   4.571   6.183  0.0357  0.8210  0.2738
 4688SOL     OW14883   6.003   6.504   4.157 -0.2456  0.0103  0.1469
 4688SOL    HW114884   5.916   6.531   4.115  0.1437  0.7282 -0.2145
 4688SOL    HW214885   6.077   6.560   4.119  0.7620 -2.2015 -1.3081
 4689SOL     OW14886   5.987   6.138   4.493  0.1389 -0.3139 -0.3590
 4689SOL    HW114887   5.931   6.199   4.437 -2.7922 -2.2663  0.2231
 4689SOL    HW214888   5.976   6.043   4.461  1.0527 -1.0725  1.4301
 4690SOL     OW14889   5.238   1.786   1.860  0.2190 -0.3388 -0.1484
 4690SOL    HW114890   5.324   1.742   1.834 -0.1402 -0.6313 -0.8633
 4690SOL    HW214891   5.163   1.744   1.810 -0.2790  0.2837  0.0630
 4691SOL     OW14892   1.733   1.016   1.372  0.1306  0.0223 -0.4023
 4691SOL    HW114893   1.638   0.987   1.358  0.1100 -0.4418  0.6464
 4691SOL    HW214894   1.738   1.081   1.448  0.5860  0.4696 -0.8060
 4692SOL     OW14895   2.043   2.302   5.051 -0.4532 -0.3827 -0.1537
 4692SOL    HW114896   1.981   2.378   5.072  1.2744  1.2972 -0.7933
 4692SOL    HW214897   2.132   2.339   5.022  0.5517 -2.6810 -0.2122
 4693SOL     OW14898   4.449   0.729   2.036  0.2730  0.4762  0.4193
 4693SOL    HW114899   4.504   0.810   2.017  1.2077 -0.4997 -1.2370
 4693SOL    HW214900   4.479   0.654   1.978  0.0452 -1.3529  2.5691
 4694SOL     OW14901   1.353   1.850   4.474 -0.0699 -0.7025 -0.6681
 4694SOL    HW114902   1.414   1.923   4.442 -0.4099 -0.5281 -0.9275
 4694SOL    HW214903   1.407   1.767   4.490  0.1522 -0.7138 -1.4193
 4695SOL     OW14904   4.866   2.238   0.032 -0.5622  0.1410 -0.0860
 4695SOL    HW114905   4.951   2.254  -0.019 -1.1337  0.9490 -0.7990
 4695SOL    HW214906   4.887   2.227   0.129  0.4056  0.1429 -0.2801
 4696SOL     OW14907   1.455   1.535   2.368  0.2355  0.2014 -0.7451
 4696SOL    HW114908   1.502   1.592   2.300 -0.5299  2.8216  0.7905
 4696SOL    HW214909   1.483   1.562   2.460 -0.2251 -1.9386  0.0978
 4697SOL     OW14910   5.053   5.683   2.987 -0.5668  0.6915  0.4159
 4697SOL    HW114911   4.954   5.679   2.977 -0.5937  1.8614 -0.0117
 4697SOL    HW214912   5.096   5.628   2.915 -0.9016  0.2223  0.5722
 4698SOL     OW14913   1.739   6.609   3.524 -0.2839  0.2448  0.1473
 4698SOL    HW114914   1.827   6.612   3.571  0.9276 -1.0058 -1.9159
 4698SOL    HW214915   1.740   6.536   3.456 -2.5605  0.8856 -0.6472
 4699SOL     OW14916   1.609   5.136   6.797 -0.0249 -0.2043 -0.1137
 4699SOL    HW114917   1.608   5.236   6.792  1.9166 -0.0874  0.7748
 4699SOL    HW214918   1.578   5.107   6.887  0.1866 -0.3683 -0.0930
 4700SOL     OW14919   5.280   2.618   0.414  0.3368  0.0887 -0.1432
 4700SOL    HW114920   5.236   2.561   0.344 -1.2918 -0.6214  1.3903
 4700SOL    HW214921   5.219   2.629   0.492  2.4012  0.1816  1.5484
 4701SOL     OW14922   4.524   3.806   2.727 -0.1981 -0.0860  0.2874
 4701SOL    HW114923   4.596   3.843   2.667  0.0457  2.0930  1.8191
 4701SOL    HW214924   4.453   3.876   2.739 -0.1950 -0.4309  2.6024
 4702SOL     OW14925   3.535   4.866   5.304  0.0185 -0.1209  0.1224
 4702SOL    HW114926   3.473   4.794   5.336 -0.5997  0.0629 -0.6226
 4702SOL    HW214927   3.507   4.953   5.344  0.7497 -0.2765  1.0030
 4703SOL     OW14928   5.428   6.519   6.426  0.6482 -0.0469 -0.0091
 4703SOL    HW114929   5.415   6.458   6.504  1.0942  2.3047  1.9952
 4703SOL    HW214930   5.347   6.577   6.415  0.8383  0.0585 -0.9419
 4704SOL     OW14931   4.919   5.948   0.642  0.3485 -0.2648  0.2394
 4704SOL    HW114932   4.845   5.999   0.597 -0.0652 -2.1104 -1.2532
 4704SOL    HW214933   4.978   5.906   0.573  1.3641 -0.8593  1.4314
 4705SOL     OW14934   1.066   3.312   5.390  0.3853  0.9296  0.3447
 4705SOL    HW114935   0.967   3.301   5.377  0.5086 -0.1958  0.1740
 4705SOL    HW214936   1.103   3.373   5.320  0.0067  0.2714 -0.4507
 4706SOL     OW14937   4.997   3.514   1.424 -0.3909 -0.4418 -0.2440
 4706SOL    HW114938   5.004   3.456   1.342  1.6722  0.5601 -0.8370
 4706SOL    HW214939   5.003   3.610   1.397 -1.2145 -0.0223  0.9879
 4707SOL     OW14940   1.806   4.786   5.611  0.2408 -0.1338  0.4709
 4707SOL    HW114941   1.853   4.826   5.533 -1.2386  2.6588  0.8471
 4707SOL    HW214942   1.867   4.783   5.690  1.0009 -0.6593 -0.1213
 4708SOL     OW14943   2.473   1.360   5.487 -0.1849 -0.2415  0.3662
 4708SOL    HW114944   2.435   1.287   5.544  0.8308 -0.3012  1.0102
 4708SOL    HW214945   2.570   1.341   5.471 -0.0926  0.5830 -0.0857
 4709SOL     OW14946   1.828   6.546   5.327  0.1216 -0.5491  0.0199
 4709SOL    HW114947   1.780   6.601   5.258  0.8385 -2.9690 -2.5984
 4709SOL    HW214948   1.765   6.477   5.364  0.2626 -0.5225  0.3112
 4710SOL     OW14949   6.923   0.305   3.898 -0.2303  0.1997  0.7680
 4710SOL    HW114950   6.971   0.354   3.971  2.0206 -2.0319  0.9246
 4710SOL    HW214951   6.919   0.363   3.816  2.4486  0.6425  0.8755
 4711SOL     OW14952   2.168   3.576   1.602  0.2783  0.2036 -0.2791
 4711SOL    HW114953   2.155   3.673   1.624  0.6575  0.0440  0.7037
 4711SOL    HW214954   2.154   3.521   1.684  1.5610 -0.4397 -0.4804
 4712SOL     OW14955   2.557   0.847   3.735  0.4701 -0.4565 -0.0082
 4712SOL    HW114956   2.514   0.914   3.674 -0.4057  0.7121  1.8023
 4712SOL    HW214957   2.488   0.778   3.761  0.5704 -0.3921  0.4248
 4713SOL     OW14958   3.454   3.052   0.075  0.0410  0.2334 -0.0781
 4713SOL    HW114959   3.435   2.970   0.130  1.4927  0.0820  0.2354
 4713SOL    HW214960   3.406   3.045  -0.013 -0.7469 -0.4303  0.4218
 4714SOL     OW14961   6.598   2.124   5.558 -0.5888 -0.3338  0.1826
 4714SOL    HW114962   6.537   2.053   5.593 -0.2044  0.0738  1.7521
 4714SOL    HW214963   6.677   2.133   5.618  0.5418 -0.1872 -1.2948
 4715SOL     OW14964   4.624   4.048   2.547  0.5022 -0.2878  0.3928
 4715SOL    HW114965   4.525   4.040   2.534  0.3286  0.4454  1.2059
 4715SOL    HW214966   4.671   3.986   2.484 -0.4535 -0.1976 -0.4299
 4716SOL     OW14967   1.914   4.451   5.034 -0.6916  0.0914 -0.0342
 4716SOL    HW114968   1.933   4.390   4.957 -1.7183 -0.8089  0.3944
 4716SOL    HW214969   1.902   4.544   5.001  0.5571  0.0274 -0.7421
 4717SOL     OW14970   2.080   5.938   4.866 -0.1216 -0.2199  0.1594
 4717SOL    HW114971   2.068   5.915   4.962  0.2186 -2.0079 -0.1752
 4717SOL    HW214972   2.177   5.953   4.847 -0.3153  1.2883  0.3193
 4718SOL     OW14973   1.487   2.978   0.868  0.1302  0.0453  0.4873
 4718SOL    HW114974   1.475   2.885   0.902  0.4724  0.4685  1.8180
 4718SOL    HW214975   1.567   3.019   0.911 -0.3065  1.1205  0.2977
 4719SOL     OW14976   6.799   0.449   2.786 -0.0004  0.1355 -0.4216
 4719SOL    HW114977   6.736   0.383   2.745 -0.6549  0.7120 -0.3809
 4719SOL    HW214978   6.877   0.463   2.726  0.1928 -0.7379 -0.3885
 4720SOL     OW14979   4.459   0.380   3.231  0.9876  0.0453  0.2700
 4720SOL    HW114980   4.406   0.347   3.308 -0.9390  3.0014  0.3463
 4720SOL    HW214981   4.546   0.417   3.264  0.6494  0.3109  0.8727
 4721SOL     OW14982   5.151   2.052   6.351 -0.3764  0.2353 -0.4962
 4721SOL    HW114983   5.202   2.015   6.429  0.5259 -1.0497 -1.6616
 4721SOL    HW214984   5.164   2.152   6.348 -1.7635  0.5829  1.9126
 4722SOL     OW14985   6.468   4.995   2.064  0.1870  0.4282  0.3660
 4722SOL    HW114986   6.374   5.027   2.075  0.0316  0.0253  0.2268
 4722SOL    HW214987   6.472   4.896   2.076  0.5025  0.3720 -0.1709
 4723SOL     OW14988   0.412   3.462   2.832  0.0517  0.1666 -0.0161
 4723SOL    HW114989   0.406   3.480   2.734 -1.7179  0.3286  0.1098
 4723SOL    HW214990   0.473   3.530   2.875 -0.8282  1.4160 -0.6850
 4724SOL     OW14991   3.544   4.403   1.724 -0.5758 -0.1954  0.1251
 4724SOL    HW114992   3.555   4.347   1.806 -0.5175  0.0226  0.2688
 4724SOL    HW214993   3.626   4.459   1.711 -1.0805  0.6699  0.6009
 4725SOL     OW14994   1.963   6.978   5.845  0.4531 -0.1784 -0.0904
 4725SOL    HW114995   1.865   6.997   5.858  0.3220 -0.2362 -0.9687
 4725SOL    HW214996   2.016   7.041   5.902 -0.0956 -0.4304  0.6965
 4726SOL     OW14997   1.111   4.652   2.502 -0.3412  0.7471  0.1385
 4726SOL    HW114998   1.149   4.744   2.500  0.7322  0.3195  0.0075
 4726SOL    HW214999   1.114   4.616   2.595  0.9709  0.1722 -0.1025
 4727SOL     OW15000   6.797   0.243   2.545 -0.0641  0.0027  0.7918
 4727SOL    HW115001   6.875   0.283   2.497  1.0615 -0.3982  2.2095
 4727SOL    HW215002   6.738   0.195   2.479 -0.5870  2.4591 -0.7139
 4728SOL     OW15003   3.847   0.006   0.313 -0.2043  0.0167 -0.1770
 4728SOL    HW115004   3.918  -0.010   0.381 -1.4973  1.0165  1.4904
 4728SOL    HW215005   3.856   0.098   0.276 -1.0774  0.4541  0.6714
 4729SOL     OW15006   3.936   4.562   3.000  0.5801  0.4828  0.1324
 4729SOL    HW115007   4.034   4.572   2.985  0.5748  0.8015  0.3058
 4729SOL    HW215008   3.913   4.464   3.008  0.6721  0.3210 -1.3172
 4730SOL     OW15009   0.226   3.960   2.792 -0.5999 -0.8509 -0.8585
 4730SOL    HW115010   0.287   3.881   2.796  0.7123  0.1474 -0.0771
 4730SOL    HW215011   0.275   4.038   2.754 -1.0395  0.2648  0.7599
 4731SOL     OW15012   3.431   6.631   0.280  0.9721  0.8274  0.2962
 4731SOL    HW115013   3.357   6.597   0.224  0.2133  3.3254 -0.3557
 4731SOL    HW215014   3.403   6.631   0.376  0.9569 -0.2028  0.3013
 4732SOL     OW15015   5.938   6.013   1.746  0.5523  0.0593 -0.0175
 4732SOL    HW115016   5.879   5.980   1.819 -1.2052  4.8922  1.1046
 4732SOL    HW215017   5.890   6.008   1.658  0.8891 -1.5465 -0.1298
 4733SOL     OW15018   3.912   4.646   6.192  0.1993  0.2694 -0.4464
 4733SOL    HW115019   3.847   4.580   6.156 -2.2516  0.8286  2.5573
 4733SOL    HW215020   3.866   4.733   6.210  1.7365  0.7646  1.6019
 4734SOL     OW15021   2.430   1.365   2.850 -0.0683 -0.2282  0.0753
 4734SOL    HW115022   2.444   1.366   2.751  0.6574  1.0763  0.1806
 4734SOL    HW215023   2.334   1.385   2.871  0.1900  1.6193 -0.3154
 4735SOL     OW15024   0.040   1.285   0.653 -0.0071  0.3966 -0.7403
 4735SOL    HW115025   0.042   1.362   0.589 -1.2725  0.6360 -0.5005
 4735SOL    HW215026  -0.036   1.224   0.629  0.6620 -0.4913 -0.5814
 4736SOL     OW15027   5.359   1.497   0.475 -0.6510 -0.5381  0.4000
 4736SOL    HW115028   5.290   1.517   0.545 -0.1234 -0.3090  0.8691
 4736SOL    HW215029   5.332   1.417   0.423 -1.0451 -0.7278  0.8918
 4737SOL     OW15030   3.112   0.197   6.901 -0.0039 -0.1190 -0.0928
 4737SOL    HW115031   3.021   0.234   6.916 -0.1072 -0.4589  0.1320
 4737SOL    HW215032   3.117   0.104   6.937  1.1010  0.6950  2.0344
 4738SOL     OW15033   0.790   4.164   5.417  0.2764 -0.3900 -0.3816
 4738SOL    HW115034   0.762   4.202   5.329 -0.3423 -0.7011 -0.3303
 4738SOL    HW215035   0.889   4.147   5.417  0.7076  1.8153 -0.1634
 4739SOL     OW15036   2.385   0.645   3.794 -0.5273 -0.2334 -0.3988
 4739SOL    HW115037   2.406   0.624   3.890 -0.9824  0.4567 -0.1323
 4739SOL    HW215038   2.294   0.611   3.772 -0.8349  0.5089 -0.2837
 4740SOL     OW15039   1.567   3.560   5.712 -0.0284 -0.4076  0.1366
 4740SOL    HW115040   1.665   3.552   5.697 -0.0380  0.4432 -0.4848
 4740SOL    HW215041   1.519   3.494   5.655  0.1070  0.4196 -0.9621
 4741SOL     OW15042   0.664   0.973   0.730 -0.3611  0.5243  0.4131
 4741SOL    HW115043   0.669   0.892   0.790 -0.0517  1.9481  2.3861
 4741SOL    HW215044   0.734   0.966   0.659 -1.5714 -1.8302 -0.6840
 4742SOL     OW15045   1.614   2.625   6.530  0.2224  0.4020 -0.1764
 4742SOL    HW115046   1.641   2.712   6.489  1.0513  0.9262  1.3583
 4742SOL    HW215047   1.678   2.553   6.502 -0.7007  0.1656 -1.7740
 4743SOL     OW15048   3.671   1.945   0.405 -0.3510 -0.4739  0.8536
 4743SOL    HW115049   3.737   1.932   0.330  0.1809  1.1622  0.9899
 4743SOL    HW215050   3.603   1.872   0.402 -0.5755 -0.2615 -1.4653
 4744SOL     OW15051   0.328   1.501   3.052  0.1454  0.0976 -0.0468
 4744SOL    HW115052   0.352   1.415   3.008  2.3816  1.0455 -0.8734
 4744SOL    HW215053   0.342   1.576   2.988  1.5164  1.3372  1.5899
 4745SOL     OW15054   4.674   4.204   5.401 -0.2972  0.1705 -0.6681
 4745SOL    HW115055   4.767   4.173   5.385 -0.3145 -0.3734  0.1762
 4745SOL    HW215056   4.610   4.133   5.372 -0.3585 -0.3777  0.6693
 4746SOL     OW15057   6.740   0.325   5.755  0.5240  0.3795 -0.6190
 4746SOL    HW115058   6.780   0.273   5.680  1.5859  0.4470 -0.1069
 4746SOL    HW215059   6.650   0.288   5.777  0.7027 -0.3783 -1.1456
 4747SOL     OW15060   4.808   3.146   3.835  0.5452  0.0612  0.4781
 4747SOL    HW115061   4.742   3.079   3.798  0.5595  0.4326 -0.2422
 4747SOL    HW215062   4.830   3.122   3.929  0.7091 -1.0876  0.1745
 4748SOL     OW15063   2.994   5.128   2.157  0.3781 -0.5923 -0.1582
 4748SOL    HW115064   3.093   5.138   2.147  0.5647 -0.1324  1.6910
 4748SOL    HW215065   2.966   5.036   2.132  1.0662 -0.3686 -1.8937
 4749SOL     OW15066   1.099   1.545   5.778  0.0347  0.3426  0.6608
 4749SOL    HW115067   1.097   1.631   5.829 -0.7515  0.6450  0.1292
 4749SOL    HW215068   1.029   1.483   5.815  0.7189 -0.1575  1.1655
 4750SOL     OW15069   4.086   5.878   4.525  0.5635 -0.4298 -0.5525
 4750SOL    HW115070   3.988   5.867   4.514  0.1223  1.5428  0.9235
 4750SOL    HW215071   4.127   5.901   4.437 -0.4271 -0.3891 -1.0161
 4751SOL     OW15072   6.158   0.118   5.823  0.0651  0.8945  0.1256
 4751SOL    HW115073   6.187   0.051   5.891  0.8335  0.2621 -0.7708
 4751SOL    HW215074   6.175   0.210   5.857 -2.1609  0.7237  1.8901
 4752SOL     OW15075   6.685   6.153   4.553 -0.1086  0.4801 -0.6612
 4752SOL    HW115076   6.592   6.183   4.530 -0.5238  0.3096  0.7218
 4752SOL    HW215077   6.686   6.115   4.645  1.3409  0.4633 -0.6623
 4753SOL     OW15078   4.478   6.252   4.335  0.2914  0.8639  0.4589
 4753SOL    HW115079   4.424   6.336   4.326  0.6764  1.1896  1.1198
 4753SOL    HW215080   4.567   6.274   4.375  0.5226  0.1862  0.3261
 4754SOL     OW15081   6.337   6.137   0.734  0.2638  0.2211  0.1993
 4754SOL    HW115082   6.260   6.201   0.730 -0.8014 -0.9450  1.0805
 4754SOL    HW215083   6.382   6.134   0.645  1.7157  3.7248  0.6197
 4755SOL     OW15084   5.584   1.271   1.350 -0.7644 -0.2551  0.3730
 4755SOL    HW115085   5.637   1.278   1.435  2.0210 -0.8101 -1.1792
 4755SOL    HW215086   5.576   1.175   1.323 -0.1313 -0.0251 -0.7784
 4756SOL     OW15087   0.792   1.419   5.590 -0.1196 -0.2038  0.5464
 4756SOL    HW115088   0.851   1.460   5.521 -0.8060 -3.3801 -2.1773
 4756SOL    HW215089   0.724   1.485   5.620  0.9937  1.6542 -0.8628
 4757SOL     OW15090   0.960   4.440   3.506 -0.8237  0.3475  0.1431
 4757SOL    HW115091   0.867   4.462   3.535 -1.7457 -3.0362  0.1988
 4757SOL    HW215092   0.967   4.451   3.407 -1.1251  1.0685  0.1962
 4758SOL     OW15093   0.470   3.799   4.347  0.4950  0.2913 -0.2501
 4758SOL    HW115094   0.562   3.821   4.379  1.2600  0.6427 -2.4966
 4758SOL    HW215095   0.410   3.878   4.361  0.9120  0.5922 -0.1125
 4759SOL     OW15096   6.164   4.356   1.685  0.3023 -0.3390  1.1368
 4759SOL    HW115097   6.183   4.437   1.629  0.9408 -1.4637 -0.3633
 4759SOL    HW215098   6.069   4.357   1.714 -0.4367 -0.3261 -1.0887
 4760SOL     OW15099   0.313   4.220   2.645  0.0852  0.0716  0.3907
 4760SOL    HW115100   0.264   4.224   2.558  0.4227  0.7489  0.2184
 4760SOL    HW215101   0.411   4.237   2.628  0.4033 -1.3722  0.7117
 4761SOL     OW15102   2.400   1.614   1.491 -0.2435  0.1081  0.1837
 4761SOL    HW115103   2.478   1.596   1.431  0.2753  1.4983  0.4116
 4761SOL    HW215104   2.372   1.709   1.481 -0.4815  0.2168  1.7851
 4762SOL     OW15105   4.214   2.790   2.703 -0.0243  1.2658 -0.1923
 4762SOL    HW115106   4.146   2.808   2.774  0.9411  3.3629  0.2822
 4762SOL    HW215107   4.262   2.705   2.724 -0.3712  1.3796  1.1733
 4763SOL     OW15108   0.556   5.149   6.180 -0.3544  0.3460 -0.2837
 4763SOL    HW115109   0.461   5.121   6.190 -0.0618 -0.1999  1.2201
 4763SOL    HW215110   0.560   5.243   6.147 -1.3665 -0.3872 -2.7238
 4764SOL     OW15111   2.748   0.182   6.345  0.1988 -0.1684  0.3320
 4764SOL    HW115112   2.756   0.228   6.257  1.0203  0.5239  0.7555
 4764SOL    HW215113   2.804   0.099   6.345 -2.8324 -2.4332 -1.1556
 4765SOL     OW15114   2.156   4.660   6.201  0.1178  0.3451  0.1132
 4765SOL    HW115115   2.200   4.700   6.281  1.4756  0.3565 -0.6210
 4765SOL    HW215116   2.203   4.576   6.175 -0.4292  0.2433 -0.5874
 4766SOL     OW15117   5.008   6.073   1.007  0.3806 -0.3670  0.9047
 4766SOL    HW115118   5.043   6.028   1.089  1.1089 -1.4844  0.0108
 4766SOL    HW215119   4.989   6.005   0.937  1.2313  0.6789 -0.4024
 4767SOL     OW15120   6.621   5.374   1.014 -0.4482  0.3511  0.1140
 4767SOL    HW115121   6.720   5.371   1.028 -0.1658 -0.0430 -1.6542
 4767SOL    HW215122   6.580   5.288   1.044 -0.0979  0.1127 -0.0872
 4768SOL     OW15123   0.490   3.476   6.745 -0.3171 -0.2904 -0.1644
 4768SOL    HW115124   0.558   3.539   6.783  0.2228 -1.0572  0.1695
 4768SOL    HW215125   0.405   3.525   6.728  0.5616  0.8856 -1.3632
 4769SOL     OW15126   3.973   3.789   4.855  0.2787 -0.5751  0.0813
 4769SOL    HW115127   3.978   3.724   4.780 -0.9739  1.7357 -2.1589
 4769SOL    HW215128   3.878   3.798   4.885  0.4795 -0.0599  0.5815
 4770SOL     OW15129   3.792   4.492   1.715  0.7115  0.2024 -0.0529
 4770SOL    HW115130   3.805   4.590   1.703  2.3698 -0.1661 -1.6589
 4770SOL    HW215131   3.827   4.443   1.635 -1.8622 -1.6133 -0.2243
 4771SOL     OW15132   2.594   5.635   4.249 -0.0453 -0.0299  0.2328
 4771SOL    HW115133   2.612   5.574   4.171  0.2009  1.0181 -0.5504
 4771SOL    HW215134   2.497   5.658   4.251 -0.1316 -0.4192  0.5045
 4772SOL     OW15135   6.763   2.773   1.778 -0.1524 -0.0209  0.1428
 4772SOL    HW115136   6.853   2.817   1.786 -1.1027  1.9614  0.6343
 4772SOL    HW215137   6.750   2.743   1.683  1.5247 -1.5595  0.3464
 4773SOL     OW15138   1.215   3.915   4.956 -0.2293  0.1178  0.2201
 4773SOL    HW115139   1.274   3.987   4.920  0.5954  0.2404  1.7039
 4773SOL    HW215140   1.259   3.826   4.944 -0.2213  0.0980  0.3895
 4774SOL     OW15141   2.349   5.127   4.466  0.2923 -0.0302  0.0668
 4774SOL    HW115142   2.373   5.031   4.474 -0.5535 -0.3290 -0.8608
 4774SOL    HW215143   2.415   5.174   4.407 -0.2810 -0.4417 -0.9314
 4775SOL     OW15144   0.146   0.463   1.794  0.0557  0.1519 -0.1984
 4775SOL    HW115145   0.195   0.505   1.870  1.7309 -1.3503 -0.3680
 4775SOL    HW215146   0.205   0.464   1.713 -0.7555 -0.4213 -0.8128
 4776SOL     OW15147   3.032   1.623   5.851 -0.1418  0.5309 -0.2611
 4776SOL    HW115148   3.125   1.634   5.815 -0.1501 -0.8589 -0.7652
 4776SOL    HW215149   3.036   1.578   5.940 -0.4044 -1.6677 -1.3040
 4777SOL     OW15150   0.376   2.374   2.522  0.2007  0.6921  0.2090
 4777SOL    HW115151   0.348   2.414   2.609 -0.8227  2.0336 -0.6922
 4777SOL    HW215152   0.308   2.308   2.491 -0.3270  1.4670 -0.3549
 4778SOL     OW15153   4.159   3.938   6.970 -0.7142  0.3145 -0.2728
 4778SOL    HW115154   4.191   4.015   6.914 -0.6062 -0.1072 -0.7997
 4778SOL    HW215155   4.236   3.897   7.018 -0.4678 -0.5734 -1.4093
 4779SOL     OW15156   5.614   5.826   3.697 -0.3932  0.0451  0.7847
 4779SOL    HW115157   5.588   5.756   3.631 -0.8069 -0.4839  1.5016
 4779SOL    HW215158   5.667   5.897   3.651  1.2841 -1.4469  0.2945
 4780SOL     OW15159   2.593   1.724   6.623  0.4471  0.1290 -0.1050
 4780SOL    HW115160   2.555   1.756   6.536 -0.4381  2.6258  1.1268
 4780SOL    HW215161   2.520   1.715   6.690  1.3917  0.2461  0.9600
 4781SOL     OW15162   2.942   0.296   3.877 -0.2353 -0.3066  0.1771
 4781SOL    HW115163   2.988   0.242   3.808  1.8474 -0.3351  1.5054
 4781SOL    HW215164   3.006   0.361   3.918 -2.2748  2.2523 -0.3501
 4782SOL     OW15165   5.730   0.336   6.304 -0.1168 -0.4583  0.0058
 4782SOL    HW115166   5.747   0.418   6.250 -1.4327 -0.0823  0.1191
 4782SOL    HW215167   5.727   0.360   6.402 -0.4901 -0.6394  0.0421
 4783SOL     OW15168   5.287   4.258   6.653 -0.2993 -0.4872 -0.0293
 4783SOL    HW115169   5.244   4.183   6.603 -0.9496 -0.1004 -0.0631
 4783SOL    HW215170   5.386   4.257   6.636 -0.4780 -0.4922 -1.1665
 4784SOL     OW15171   3.682   1.451   3.565  0.4560 -0.2149  0.1994
 4784SOL    HW115172   3.619   1.466   3.640  1.8966 -0.3887  1.5046
 4784SOL    HW215173   3.631   1.430   3.481 -1.1523 -0.9663  1.3221
 4785SOL     OW15174   3.565   0.898   5.780 -0.3673 -0.0410  0.8296
 4785SOL    HW115175   3.635   0.888   5.851  0.0811 -0.0942  0.3827
 4785SOL    HW215176   3.556   0.994   5.754  2.2053 -0.3722 -1.7451
 4786SOL     OW15177   4.572   2.290   3.637  0.3296 -0.9551 -0.4002
 4786SOL    HW115178   4.666   2.320   3.653  0.1432 -0.2219 -0.6239
 4786SOL    HW215179   4.516   2.310   3.717  0.4191 -1.6340 -0.1652
 4787SOL     OW15180   1.680   1.374   2.625 -0.0605 -0.5824  0.2925
 4787SOL    HW115181   1.606   1.325   2.579 -0.6265  0.8549 -0.4041
 4787SOL    HW215182   1.651   1.468   2.644  2.1546  0.5444 -1.4830
 4788SOL     OW15183   6.293   2.924   5.337 -0.8631 -0.1272  0.3619
 4788SOL    HW115184   6.241   2.844   5.306 -0.8282 -0.6308  1.5629
 4788SOL    HW215185   6.359   2.950   5.267 -1.2210 -0.8361 -0.2515
 4789SOL     OW15186   3.631   4.498   0.425  0.0276  0.3191 -0.4824
 4789SOL    HW115187   3.531   4.500   0.427  0.0341  0.4636 -0.2808
 4789SOL    HW215188   3.662   4.409   0.458  0.0034  0.8182  0.9231
 4790SOL     OW15189   0.925   5.238   1.433 -0.2476 -1.3112  0.3535
 4790SOL    HW115190   0.931   5.242   1.533 -0.3758  1.7926  0.3282
 4790SOL    HW215191   0.972   5.317   1.393 -3.5494 -0.1818 -1.8024
 4791SOL     OW15192   5.892   1.744   0.391 -0.0537 -0.1038 -0.2633
 4791SOL    HW115193   5.866   1.690   0.311 -0.0309  0.3488 -0.5793
 4791SOL    HW215194   5.868   1.840   0.376 -0.2480 -0.0517  0.3641
 4792SOL     OW15195   0.491   3.277   5.630  0.1207  0.0964  0.1106
 4792SOL    HW115196   0.481   3.237   5.721  0.7809  0.0550  0.1689
 4792SOL    HW215197   0.453   3.370   5.630 -0.4390 -0.1289  0.2610
 4793SOL     OW15198   2.152   0.125   2.651 -0.3044  0.7093 -0.1977
 4793SOL    HW115199   2.142   0.089   2.558 -1.4058 -0.0041  0.1908
 4793SOL    HW215200   2.123   0.221   2.652  0.0150  0.8169 -0.6511
 4794SOL     OW15201   5.464   4.762   3.311 -0.0418  0.0790  0.5223
 4794SOL    HW115202   5.405   4.697   3.263  0.1987  0.2482 -0.0228
 4794SOL    HW215203   5.555   4.722   3.323  0.2293  0.4536 -0.1788
 4795SOL     OW15204   6.973   5.981   0.698 -0.3313  0.3441  0.2344
 4795SOL    HW115205   7.027   5.926   0.762  0.0596  1.8296  1.2345
 4795SOL    HW215206   6.886   5.935   0.680 -0.4431 -0.1280  1.8211
 4796SOL     OW15207   6.544   6.815   6.937  0.4765 -0.1458  0.1301
 4796SOL    HW115208   6.446   6.795   6.941  0.2702  0.9008  0.6203
 4796SOL    HW215209   6.583   6.772   6.856 -0.4624 -0.2777 -0.2703
 4797SOL     OW15210   3.646   5.593   3.215 -0.4988  0.2076 -0.3393
 4797SOL    HW115211   3.685   5.619   3.303 -0.3127  1.5509 -0.7913
 4797SOL    HW215212   3.652   5.671   3.152 -3.3977  0.3024 -0.6069
 4798SOL     OW15213   1.208   6.761   0.219 -0.2139  0.3424 -0.3828
 4798SOL    HW115214   1.146   6.711   0.280  0.3199 -0.8745 -0.8053
 4798SOL    HW215215   1.301   6.723   0.228  0.1794  1.1925 -0.8007
 4799SOL     OW15216   6.385   4.162   5.049 -0.6009 -0.5791  0.2484
 4799SOL    HW115217   6.375   4.160   5.149 -0.3708  0.5000  0.3031
 4799SOL    HW215218   6.481   4.176   5.026 -0.6602 -0.7991 -0.1272
 4800SOL     OW15219   3.826   1.347   6.360  0.1749  0.6226 -0.2960
 4800SOL    HW115220   3.735   1.305   6.357  0.2550  0.4330 -0.0870
 4800SOL    HW215221   3.816   1.445   6.379  0.0752  0.2807  1.7742
 4801SOL     OW15222   0.488   3.815   4.669 -0.4280 -0.3861  0.0611
 4801SOL    HW115223   0.393   3.840   4.650 -0.4936  0.3520  1.2636
 4801SOL    HW215224   0.505   3.820   4.767  1.2431  0.9773 -0.2419
 4802SOL     OW15225   6.278   6.357   2.262  0.3747  0.1161  0.1846
 4802SOL    HW115226   6.329   6.344   2.177 -0.1164 -1.8622  0.1581
 4802SOL    HW215227   6.242   6.269   2.293  1.2499  0.6320  2.8963
 4803SOL     OW15228   1.177   3.574   1.928 -0.2428  0.4020 -0.1107
 4803SOL    HW115229   1.223   3.641   1.986  1.0920  0.4648 -1.1917
 4803SOL    HW215230   1.111   3.621   1.869 -2.1537  0.2522  1.7940
 4804SOL     OW15231   1.905   3.511   6.037 -0.2157 -0.9734  0.5096
 4804SOL    HW115232   1.994   3.489   6.076  1.0951  1.3108 -1.0357
 4804SOL    HW215233   1.878   3.604   6.062 -1.2623 -0.9397 -0.6177
 4805SOL     OW15234   2.553   0.343   5.145  0.2002  0.5725  0.1254
 4805SOL    HW115235   2.459   0.365   5.118  0.4061  0.6363 -0.5861
 4805SOL    HW215236   2.583   0.260   5.096  1.3045  1.8696 -1.5318
 4806SOL     OW15237   4.995   4.974   4.365  0.2462  0.1214 -0.2675
 4806SOL    HW115238   5.063   4.908   4.396 -1.1456 -0.3890  1.8541
 4806SOL    HW215239   4.998   5.055   4.423 -0.4080  0.4381 -0.6699
 4807SOL     OW15240   0.571   2.855   3.546  0.4670 -0.1031  0.5802
 4807SOL    HW115241   0.645   2.800   3.506  0.8938  0.4721  0.5729
 4807SOL    HW215242   0.605   2.901   3.628  1.0846  2.6399 -1.0929
 4808SOL     OW15243   2.425   3.180   5.254  0.2516 -0.6479 -0.6134
 4808SOL    HW115244   2.517   3.148   5.273  0.2315 -2.6205 -3.2396
 4808SOL    HW215245   2.361   3.104   5.262 -0.7012  0.0300 -1.4717
 4809SOL     OW15246   4.572   4.298   5.912  0.0704  0.0695  0.4578
 4809SOL    HW115247   4.547   4.223   5.851  2.8649 -1.3695  0.8546
 4809SOL    HW215248   4.614   4.372   5.859 -0.4202  0.2453  0.3143
 4810SOL     OW15249   1.771   3.083   2.724 -0.0597 -0.5025  0.0524
 4810SOL    HW115250   1.767   3.005   2.786  2.3269 -1.5605 -1.0025
 4810SOL    HW215251   1.836   3.151   2.761  0.1897 -0.4310 -0.4997
 4811SOL     OW15252   6.610   2.197   5.913  0.0353 -0.2227 -0.5246
 4811SOL    HW115253   6.661   2.122   5.871  0.9799 -0.0122  0.2121
 4811SOL    HW215254   6.634   2.203   6.010  0.7754  1.7180 -0.7865
 4812SOL     OW15255   1.791   4.809   1.230  0.2094  0.3335  0.1812
 4812SOL    HW115256   1.745   4.879   1.284 -1.0090 -1.1122  1.1037
 4812SOL    HW215257   1.728   4.772   1.162 -0.9386 -3.1009  2.7773
 4813SOL     OW15258   5.688   3.911   2.366  0.0248  0.4695 -0.7878
 4813SOL    HW115259   5.607   3.854   2.351  0.2166  0.5363 -2.2561
 4813SOL    HW215260   5.770   3.861   2.336  0.5923  0.2955  0.9337
 4814SOL     OW15261   6.149   0.912   1.306 -0.0501 -0.5052 -0.1334
 4814SOL    HW115262   6.192   0.907   1.396 -0.4094  0.1010  0.0766
 4814SOL    HW215263   6.075   0.845   1.301 -3.1898  2.4729  1.7647
 4815SOL     OW15264   3.478   1.000   4.267  0.7673  0.2990  0.2371
 4815SOL    HW115265   3.541   0.948   4.209  1.7530  0.8098  0.8244
 4815SOL    HW215266   3.390   1.011   4.219  1.5498  0.7361 -1.1639
 4816SOL     OW15267   5.702   1.840   4.526 -0.2192 -0.1368  0.3803
 4816SOL    HW115268   5.735   1.925   4.485 -2.4125  0.0640 -1.1899
 4816SOL    HW215269   5.769   1.767   4.511 -0.8344 -0.1132 -3.9105
 4817SOL     OW15270   4.326   6.313   4.041  0.0425  0.1039  0.2782
 4817SOL    HW115271   4.237   6.268   4.054 -0.4423  1.0699  0.3632
 4817SOL    HW215272   4.353   6.358   4.126  0.9165 -0.6722  0.4371
 4818SOL     OW15273   3.097   6.633   1.336  0.5154  0.4717  0.0803
 4818SOL    HW115274   3.075   6.571   1.412 -0.8659 -2.0703 -2.1745
 4818SOL    HW215275   3.160   6.587   1.273  0.9908  2.1814 -0.7472
 4819SOL     OW15276   1.643   4.271   4.938 -0.4759  0.2014 -0.8955
 4819SOL    HW115277   1.660   4.339   4.867 -1.8381  0.8948 -0.5965
 4819SOL    HW215278   1.647   4.315   5.028  0.3949 -0.4925 -0.5847
 4820SOL     OW15279   1.565   5.835   0.786 -0.0816 -0.5221  0.9054
 4820SOL    HW115280   1.584   5.739   0.807  0.6560 -0.6289 -0.1273
 4820SOL    HW215281   1.625   5.865   0.711  0.2914  0.9899  1.7591
 4821SOL     OW15282   6.402   5.093   0.611  0.5498  0.1538 -0.8141
 4821SOL    HW115283   6.473   5.037   0.568 -0.0864 -0.2317 -1.3914
 4821SOL    HW215284   6.392   5.179   0.560  0.6714  0.2447 -0.6824
 4822SOL     OW15285   5.138   5.217   3.481 -0.1774 -0.2779 -0.2107
 4822SOL    HW115286   5.158   5.177   3.570 -0.7128  0.4602  0.2481
 4822SOL    HW215287   5.098   5.308   3.493  0.7287  0.2770 -1.2296
 4823SOL     OW15288   6.615   3.269   4.513  0.4428 -0.0637  0.6193
 4823SOL    HW115289   6.635   3.262   4.416  0.4662  0.5844  0.5749
 4823SOL    HW215290   6.678   3.209   4.564 -1.2401 -2.4445  0.0793
 4824SOL     OW15291   2.220   4.810   5.477 -0.1630  0.3721 -0.3982
 4824SOL    HW115292   2.161   4.731   5.459  0.2441  0.1522 -0.8183
 4824SOL    HW215293   2.166   4.884   5.517 -0.8520  0.4033 -1.3418
 4825SOL     OW15294   1.400   2.146   1.451 -0.2625  0.3928  0.1230
 4825SOL    HW115295   1.457   2.076   1.495 -0.1534 -0.5766 -1.4565
 4825SOL    HW215296   1.340   2.188   1.519  0.2989 -0.6140  1.2853
 4826SOL     OW15297   1.750   2.454   0.575 -0.4203  0.2287 -0.0772
 4826SOL    HW115298   1.695   2.422   0.652 -1.0228  1.9952  0.2991
 4826SOL    HW215299   1.691   2.501   0.509 -0.1654 -2.4224 -2.3991
 4827SOL     OW15300   6.136   5.827   6.229  0.1965 -0.9508 -0.2435
 4827SOL    HW115301   6.052   5.830   6.283  0.7630  2.0557  0.6423
 4827SOL    HW215302   6.118   5.866   6.138  0.7329  0.4798  0.2272
 4828SOL     OW15303   5.391   1.675   1.669 -0.9087 -0.1994 -0.7133
 4828SOL    HW115304   5.378   1.576   1.678 -1.4219 -0.1525 -0.8802
 4828SOL    HW215305   5.463   1.705   1.731 -1.3086 -0.5536 -0.0609
 4829SOL     OW15306   1.877   5.433   5.160  0.2910 -0.5057 -0.7158
 4829SOL    HW115307   1.857   5.474   5.071 -0.3874  0.7629 -0.0173
 4829SOL    HW215308   1.894   5.505   5.227 -2.1213 -1.2547  0.8521
 4830SOL     OW15309   5.171   6.486   4.675 -0.1872  0.4620  0.5808
 4830SOL    HW115310   5.201   6.507   4.768 -0.5374  0.0791  0.7802
 4830SOL    HW215311   5.077   6.452   4.677  0.7953 -2.4788  0.4158
 4831SOL     OW15312   5.608   4.916   0.172  0.0151  0.5257  0.1060
 4831SOL    HW115313   5.561   4.895   0.258  0.9971 -0.4207  0.4212
 4831SOL    HW215314   5.557   4.876   0.096  0.7268 -1.2236  0.5127
 4832SOL     OW15315   5.879   0.368   1.434  0.4874 -0.5725  0.0775
 4832SOL    HW115316   5.818   0.371   1.355 -0.2423 -2.7848  0.4833
 4832SOL    HW215317   5.910   0.460   1.456 -1.5539  0.4423 -1.0369
 4833SOL     OW15318   1.318   2.995   0.619 -0.0809  0.0099 -0.0960
 4833SOL    HW115319   1.364   2.994   0.708 -0.9728  0.2306  0.3781
 4833SOL    HW215320   1.258   2.916   0.612 -1.6904  1.1345  0.4182
 4834SOL     OW15321   3.937   0.474   6.953 -0.3072 -0.3522 -0.2687
 4834SOL    HW115322   3.891   0.543   6.897 -0.9926 -0.3776  0.2477
 4834SOL    HW215323   3.949   0.509   7.046  1.6847  0.0673 -0.6589
 4835SOL     OW15324   5.186   2.651   4.956 -0.3098  0.3505 -0.1378
 4835SOL    HW115325   5.230   2.723   5.011 -0.4245  2.0456 -2.1109
 4835SOL    HW215326   5.220   2.657   4.862 -0.0341 -2.5024 -0.2838
 4836SOL     OW15327   6.367   0.195   1.946 -0.2005  0.3480 -0.0583
 4836SOL    HW115328   6.418   0.181   2.031 -0.9611  0.5453  0.4453
 4836SOL    HW215329   6.293   0.260   1.962 -0.1992  0.5776 -0.9416
 4837SOL     OW15330   6.980   3.774   5.603  0.2585 -0.7789  0.7470
 4837SOL    HW115331   6.898   3.719   5.584 -0.8033  0.5942  1.1945
 4837SOL    HW215332   6.999   3.833   5.525 -0.1324  0.0342  1.2489
 4838SOL     OW15333   4.839   2.298   0.886 -0.0255 -0.0005 -0.1500
 4838SOL    HW115334   4.740   2.285   0.884 -0.2937  1.8281 -0.1004
 4838SOL    HW215335   4.884   2.209   0.887 -1.6581 -0.8613 -0.2894
 4839SOL     OW15336   1.870   5.011   4.065  0.2596 -0.2147 -0.1162
 4839SOL    HW115337   1.876   4.978   3.971 -0.7099 -1.6154  0.2701
 4839SOL    HW215338   1.774   5.014   4.093  0.3258  2.7524 -0.0057
 4840SOL     OW15339   5.815   6.969   5.006 -0.2325 -0.2400  0.2199
 4840SOL    HW115340   5.867   7.053   5.024 -0.2268  0.2082 -1.7445
 4840SOL    HW215341   5.878   6.895   4.983 -0.1830 -1.0817  2.8906
 4841SOL     OW15342   1.624   6.042   3.765 -0.4455 -0.1674 -0.4789
 4841SOL    HW115343   1.618   5.963   3.704 -2.7002  0.4705 -1.1736
 4841SOL    HW215344   1.637   6.125   3.711  1.1091  0.0711  0.1932
 4842SOL     OW15345   5.997   5.503   6.129  0.0785  0.2843  0.4352
 4842SOL    HW115346   5.901   5.499   6.102  0.5593 -1.3413 -1.2287
 4842SOL    HW215347   6.052   5.531   6.050  1.1246 -0.3833  0.9123
 4843SOL     OW15348   5.065   1.967   0.272 -0.1250 -0.2945 -0.5885
 4843SOL    HW115349   4.996   1.902   0.240  1.6976 -2.4584 -0.3124
 4843SOL    HW215350   5.119   1.925   0.345  0.7572  1.7638 -0.0091
 4844SOL     OW15351   3.634   3.978   4.273  0.6126  0.3689 -0.6183
 4844SOL    HW115352   3.674   4.040   4.340 -0.3326  0.5942 -0.2646
 4844SOL    HW215353   3.537   3.997   4.263  0.0030 -1.8478  0.4387
 4845SOL     OW15354   1.298   0.032   6.628  0.3540 -0.2833  0.7719
 4845SOL    HW115355   1.386  -0.007   6.600 -0.3423 -0.9536 -0.5880
 4845SOL    HW215356   1.283   0.015   6.725  0.6976 -2.2966  0.5235
 4846SOL     OW15357   3.815   4.281   3.314 -0.4807  0.2959  0.1859
 4846SOL    HW115358   3.874   4.322   3.384  0.4460  1.5482 -1.2800
 4846SOL    HW215359   3.839   4.184   3.304  0.7125  0.5787  0.2268
 4847SOL     OW15360   1.744   6.399   2.438  0.2802 -0.4468 -0.2573
 4847SOL    HW115361   1.771   6.399   2.534  0.2687 -0.2476 -0.2540
 4847SOL    HW215362   1.794   6.327   2.389 -0.4963 -1.2678  0.1213
 4848SOL     OW15363   5.638   2.124   2.636 -0.0075 -0.2927 -0.0341
 4848SOL    HW115364   5.563   2.105   2.700  0.8235 -1.0504  0.7609
 4848SOL    HW215365   5.614   2.090   2.546 -1.6552  1.7451 -0.4505
 4849SOL     OW15366   6.029   4.267   3.021 -0.0013  0.3708  0.0558
 4849SOL    HW115367   5.967   4.190   3.032  0.5754 -0.6772 -3.0983
 4849SOL    HW215368   6.118   4.244   3.061 -0.5148  0.3712  1.2210
 4850SOL     OW15369   5.719   1.772   1.558  0.2975  0.1420 -0.3576
 4850SOL    HW115370   5.668   1.767   1.644  0.8910 -0.3466 -0.0204
 4850SOL    HW215371   5.808   1.815   1.574  0.4231  0.0188 -0.7207
 4851SOL     OW15372   5.855   5.690   0.891 -0.2323  0.2559 -0.4210
 4851SOL    HW115373   5.910   5.607   0.897 -0.9715 -0.3704 -1.8182
 4851SOL    HW215374   5.763   5.668   0.859 -0.2512  1.6688 -1.4533
 4852SOL     OW15375   1.746   6.303   3.235  0.9478 -0.1224 -0.5563
 4852SOL    HW115376   1.721   6.368   3.164 -0.8739 -0.2953 -0.1048
 4852SOL    HW215377   1.801   6.230   3.194 -1.4179 -1.1108 -2.2062
 4853SOL     OW15378   4.519   6.791   6.094 -0.2697 -0.0120 -0.0257
 4853SOL    HW115379   4.561   6.771   6.183  2.9457  0.1793 -1.3722
 4853SOL    HW215380   4.557   6.876   6.058 -0.6754 -0.6536 -2.0745
 4854SOL     OW15381   3.998   4.175   6.680  0.0439 -0.0402  0.2333
 4854SOL    HW115382   3.951   4.098   6.636 -1.6527  0.8891  0.3383
 4854SOL    HW215383   4.095   4.173   6.654 -0.3621 -1.0332 -1.3943
 4855SOL     OW15384   5.793   4.823   0.361 -0.2003  0.4064 -0.3963
 4855SOL    HW115385   5.744   4.789   0.442  3.7041 -0.2577  1.9001
 4855SOL    HW215386   5.748   4.906   0.328 -2.3863  0.2669  1.9336
 4856SOL     OW15387   1.098   2.608   1.002 -0.6883 -0.2556  0.0140
 4856SOL    HW115388   1.163   2.533   0.987 -1.1492 -0.9549  1.3454
 4856SOL    HW215389   1.087   2.623   1.100 -3.0599 -0.6434 -0.1308
 4857SOL     OW15390   6.478   0.554   0.482  0.0640 -0.5000 -0.6482
 4857SOL    HW115391   6.564   0.590   0.449 -0.0211  1.2134  0.8624
 4857SOL    HW215392   6.433   0.621   0.541 -0.4039 -2.8460  1.8584
 4858SOL     OW15393   6.880   5.259   4.178  0.0397  0.3501 -0.4929
 4858SOL    HW115394   6.859   5.334   4.240  1.5335 -0.9343  1.6789
 4858SOL    HW215395   6.842   5.174   4.214 -0.3797 -0.1882 -2.1474
 4859SOL     OW15396   4.463   4.440   0.176  0.0801  0.5298  0.2984
 4859SOL    HW115397   4.395   4.430   0.249  0.3163 -1.3137  0.3075
 4859SOL    HW215398   4.417   4.467   0.091 -0.8287 -1.4787  0.1052
 4860SOL     OW15399   4.402   4.704   1.067 -0.1838 -0.1696  0.0455
 4860SOL    HW115400   4.395   4.616   1.113 -2.9836  0.7187  1.6539
 4860SOL    HW215401   4.436   4.692   0.974 -0.6693 -2.9731  0.1443
 4861SOL     OW15402   0.767   6.961   6.746  0.3456 -0.3318 -0.4503
 4861SOL    HW115403   0.812   6.930   6.662  0.2681  0.2602 -0.7175
 4861SOL    HW215404   0.828   7.023   6.796 -0.1777  0.5371 -0.8537
 4862SOL     OW15405   0.823   2.487   3.629  1.0199 -0.6905  0.6207
 4862SOL    HW115406   0.758   2.499   3.704 -0.7721 -0.0124 -0.9615
 4862SOL    HW215407   0.814   2.394   3.592  0.5286 -0.4099  0.0299
 4863SOL     OW15408   6.474   1.791   0.083 -0.3893 -0.0961 -0.2276
 4863SOL    HW115409   6.384   1.757   0.112  0.4764 -2.5445 -0.2195
 4863SOL    HW215410   6.543   1.720   0.096  1.4538  1.4686 -0.9288
 4864SOL     OW15411   0.505   6.494   1.614  0.2731  0.0169 -0.1252
 4864SOL    HW115412   0.441   6.558   1.572  0.6843  1.4824  1.3457
 4864SOL    HW215413   0.587   6.487   1.557 -0.7120 -1.0522 -1.4784
 4865SOL     OW15414   5.812   1.177   4.582  0.2056  0.1046 -0.3247
 4865SOL    HW115415   5.723   1.133   4.585  1.0877 -1.7755 -0.3668
 4865SOL    HW215416   5.834   1.216   4.671 -0.4950  0.2874 -0.2246
 4866SOL     OW15417   3.044   1.074   0.770  0.1708  0.0291  0.3158
 4866SOL    HW115418   3.028   1.041   0.678 -0.7535 -0.3406  0.5902
 4866SOL    HW215419   3.122   1.026   0.811 -0.5472 -1.1281  0.3667
 4867SOL     OW15420   5.048   6.586   1.760 -0.1615 -0.6966 -0.0680
 4867SOL    HW115421   4.952   6.614   1.755  0.2499  0.7428 -0.3753
 4867SOL    HW215422   5.091   6.601   1.671  0.1612 -2.0974 -0.1644
 4868SOL     OW15423   1.480   1.815   0.860 -0.2153  0.8157  0.1323
 4868SOL    HW115424   1.390   1.782   0.833  0.4368 -0.5494 -0.4705
 4868SOL    HW215425   1.527   1.852   0.780  0.1483  0.5665  0.2281
 4869SOL     OW15426   1.421   1.629   3.963  0.0154  0.2914  0.0160
 4869SOL    HW115427   1.327   1.618   3.931 -0.9938 -0.2358  2.9097
 4869SOL    HW215428   1.462   1.539   3.980  0.7147  0.5386 -0.3004
 4870SOL     OW15429   4.067   5.237   6.417  0.2343 -0.3066 -0.3898
 4870SOL    HW115430   4.039   5.303   6.487 -0.1112 -0.0235 -0.7846
 4870SOL    HW215431   4.165   5.219   6.425  0.2364 -0.1324  0.0411
 4871SOL     OW15432   0.975   6.416   6.663  0.1737  0.1070 -0.0257
 4871SOL    HW115433   1.016   6.446   6.578  1.6952  0.7893  0.9257
 4871SOL    HW215434   0.880   6.449   6.669  0.2160  0.4444 -1.2216
 4872SOL     OW15435   4.359   3.486   2.811  0.0399 -0.2103  0.2320
 4872SOL    HW115436   4.354   3.442   2.721 -1.0297  0.7099 -0.1785
 4872SOL    HW215437   4.279   3.545   2.824  0.0070 -0.5929  1.9420
 4873SOL     OW15438   2.295   1.053   6.867 -0.3962 -0.4831  0.5661
 4873SOL    HW115439   2.286   1.151   6.855 -0.4885 -0.3134  1.8834
 4873SOL    HW215440   2.365   1.018   6.804 -0.0147  0.5031  0.4248
 4874SOL     OW15441   3.972   3.589   1.000 -0.0939 -0.0139 -0.2456
 4874SOL    HW115442   3.897   3.541   1.045 -0.6328  0.2088 -0.8884
 4874SOL    HW215443   3.942   3.680   0.973 -0.2020 -0.5516 -2.1221
 4875SOL     OW15444   4.344   6.051   2.338  0.4008 -0.4159 -0.1963
 4875SOL    HW115445   4.256   6.097   2.349  0.9699  0.4784  0.9965
 4875SOL    HW215446   4.416   6.119   2.325  1.2593 -0.8940  1.5649
 4876SOL     OW15447   2.851   0.652   5.955  0.2845 -0.1222  0.0815
 4876SOL    HW115448   2.860   0.742   5.911 -0.8592 -0.5892 -1.1607
 4876SOL    HW215449   2.843   0.665   6.054  1.4384  1.0495  0.0663
 4877SOL     OW15450   1.009   1.246   1.478  0.1770  0.9097 -0.1249
 4877SOL    HW115451   1.026   1.339   1.447  0.9589  1.0706  0.7447
 4877SOL    HW215452   1.090   1.210   1.524  0.2370 -0.5419 -1.2482
 4878SOL     OW15453   5.058   4.666   4.632 -0.4783 -0.7554  0.1643
 4878SOL    HW115454   4.969   4.664   4.586 -0.7466  0.0097  0.6248
 4878SOL    HW215455   5.124   4.715   4.574 -1.0189  0.9052  0.9151
 4879SOL     OW15456   6.341   6.518   4.384  0.4539 -0.7008 -0.5884
 4879SOL    HW115457   6.412   6.577   4.422 -1.2225  0.9917  0.0407
 4879SOL    HW215458   6.309   6.556   4.298 -2.9468  1.3192  1.3838
 4880SOL     OW15459   6.570   5.940   5.814  0.2179 -0.3920  0.3885
 4880SOL    HW115460   6.501   6.006   5.844  2.5257  2.0138  0.7722
 4880SOL    HW215461   6.630   5.918   5.891  1.0688 -0.8520 -0.3770
 4881SOL     OW15462   6.817   3.069   1.627  0.6413 -0.1697 -0.5170
 4881SOL    HW115463   6.789   3.105   1.716  0.2444 -0.6645 -0.4359
 4881SOL    HW215464   6.908   3.028   1.635  0.5765 -0.2770 -0.3193
 4882SOL     OW15465   6.172   3.234   6.468 -0.5903 -0.1763 -0.0595
 4882SOL    HW115466   6.233   3.296   6.517 -1.3401  0.4982  0.0850
 4882SOL    HW215467   6.225   3.172   6.411  0.1697  1.3125 -1.0541
 4883SOL     OW15468   2.498   1.981   5.175  0.6292 -1.2709  0.6076
 4883SOL    HW115469   2.416   1.996   5.119  2.3058 -0.4966 -1.8515
 4883SOL    HW215470   2.496   2.041   5.255 -1.0004 -0.9998  0.3983
 4884SOL     OW15471   4.813   4.874   5.636  0.0048  0.3631 -0.3793
 4884SOL    HW115472   4.846   4.818   5.712 -1.5609 -1.7694 -1.1845
 4884SOL    HW215473   4.848   4.837   5.550 -0.4110  1.1139 -0.8825
 4885SOL     OW15474   0.558   3.742   2.250 -0.2627 -0.3089  0.3580
 4885SOL    HW115475   0.472   3.691   2.245 -1.1716  1.0185  1.9039
 4885SOL    HW215476   0.612   3.709   2.327 -0.0198 -0.1586  0.2547
 4886SOL     OW15477   6.751   2.948   4.051  0.2152 -0.4289  0.1008
 4886SOL    HW115478   6.682   2.904   3.994  0.7661  0.1488 -1.0468
 4886SOL    HW215479   6.780   2.885   4.123 -1.6726 -0.5987  0.8040
 4887SOL     OW15480   1.872   0.517   4.445  0.3489 -0.1436 -0.1760
 4887SOL    HW115481   1.846   0.423   4.421  1.5859 -0.8347  1.0812
 4887SOL    HW215482   1.971   0.527   4.436  0.8342 -0.2211  3.5997
 4888SOL     OW15483   0.529   5.024   0.665 -0.1821  0.0686 -0.8369
 4888SOL    HW115484   0.489   5.055   0.580 -0.6978  1.5531 -0.0786
 4888SOL    HW215485   0.552   5.102   0.723  1.5330 -0.8272 -0.2105
 4889SOL     OW15486   0.986   6.788   1.971  0.0380 -0.3122 -0.7634
 4889SOL    HW115487   0.914   6.850   1.940 -0.0483  0.2937  0.6018
 4889SOL    HW215488   0.966   6.758   2.064 -0.7945 -3.6955 -1.9077
 4890SOL     OW15489   4.393   0.237   1.296  0.1270  0.3927  0.0808
 4890SOL    HW115490   4.490   0.235   1.321  0.0991  0.3437  0.1849
 4890SOL    HW215491   4.345   0.163   1.342  0.1735 -0.0001 -0.4694
 4891SOL     OW15492   3.878   1.058   6.722 -0.1038 -0.0677 -0.1526
 4891SOL    HW115493   3.813   1.094   6.789 -1.0500 -0.5539 -0.7766
 4891SOL    HW215494   3.832   0.991   6.663  0.9441 -0.3488 -0.6813
 4892SOL     OW15495   0.640   2.475   5.117 -0.5072 -0.2658 -0.7300
 4892SOL    HW115496   0.663   2.546   5.183 -1.3659 -1.0926  0.4938
 4892SOL    HW215497   0.635   2.387   5.163  0.7636 -1.2083 -2.2554
 4893SOL     OW15498   3.312   0.823   3.126 -0.1253  0.7922  0.2467
 4893SOL    HW115499   3.257   0.835   3.043  1.8293 -0.5194 -1.3432
 4893SOL    HW215500   3.395   0.878   3.119  0.4309  0.0651  0.9711
 4894SOL     OW15501   5.275   5.298   0.939 -0.5062 -0.2551 -0.4804
 4894SOL    HW115502   5.243   5.305   0.845  0.0996  0.0941 -0.6620
 4894SOL    HW215503   5.196   5.293   1.001 -0.9039 -0.4424 -0.9971
 4895SOL     OW15504   0.506   3.068   1.221  0.1737 -0.0380  0.3036
 4895SOL    HW115505   0.474   3.058   1.315  0.0064 -1.2355  0.1333
 4895SOL    HW215506   0.553   2.985   1.192 -0.4432  0.0175 -0.9263
 4896SOL     OW15507   6.433   2.884   1.751 -0.5375 -0.7369 -0.5526
 4896SOL    HW115508   6.467   2.878   1.845  1.7530  2.5566 -1.0037
 4896SOL    HW215509   6.376   2.966   1.742  2.0833  0.9984 -2.6843
 4897SOL     OW15510   3.439   5.103   4.127 -0.4664 -0.6597 -0.4823
 4897SOL    HW115511   3.498   5.182   4.143 -0.0563 -0.9464 -0.5682
 4897SOL    HW215512   3.414   5.099   4.030  0.9231 -1.6038 -0.8238
 4898SOL     OW15513   1.535   5.549   3.960 -0.3968 -0.3758 -0.2349
 4898SOL    HW115514   1.584   5.572   3.876 -1.1718  0.1885 -0.5415
 4898SOL    HW215515   1.480   5.627   3.989 -0.6928 -0.8169  0.4068
 4899SOL     OW15516   3.779   4.118   5.271 -0.1864 -0.5543  1.0747
 4899SOL    HW115517   3.796   4.026   5.236  0.3177 -0.3115  0.6681
 4899SOL    HW215518   3.696   4.118   5.327 -2.5144 -0.4812 -2.1575
 4900SOL     OW15519   2.916   2.780   6.715 -0.3930  0.0118  0.3241
 4900SOL    HW115520   2.902   2.833   6.798 -0.2209 -0.2034  0.4968
 4900SOL    HW215521   2.991   2.819   6.662  1.2131 -1.3229  1.5258
 4901SOL     OW15522   4.498   4.713   5.846 -0.0490 -0.0238 -0.2102
 4901SOL    HW115523   4.558   4.719   5.926  1.3816 -1.7170 -1.0756
 4901SOL    HW215524   4.499   4.801   5.798 -0.3387  0.7762  1.2033
 4902SOL     OW15525   1.281   4.069   2.506 -0.0312 -0.2394  0.0271
 4902SOL    HW115526   1.243   4.082   2.415 -0.8136  0.9858  0.4898
 4902SOL    HW215527   1.214   4.098   2.574  1.0290  0.1699  0.9407
 4903SOL     OW15528   2.170   5.755   5.743 -1.1482 -0.4419  0.0441
 4903SOL    HW115529   2.091   5.701   5.771 -1.1405  0.0215  0.9957
 4903SOL    HW215530   2.192   5.822   5.814  0.5441 -1.0411  0.1419
 4904SOL     OW15531   6.243   5.792   4.493  0.7355  0.8619  0.2477
 4904SOL    HW115532   6.223   5.798   4.395 -0.2648 -2.2581  0.1476
 4904SOL    HW215533   6.158   5.777   4.543  1.2692  2.2171  1.6200
 4905SOL     OW15534   1.351   6.397   2.619 -0.3141 -0.7065 -0.2732
 4905SOL    HW115535   1.424   6.430   2.559 -1.0937  0.9120 -0.3741
 4905SOL    HW215536   1.264   6.437   2.591 -1.0423 -1.6001  0.6397
 4906SOL     OW15537   0.101   6.440   6.367 -0.1478  0.0516 -0.2688
 4906SOL    HW115538   0.175   6.480   6.420 -1.7959  0.7013  1.6916
 4906SOL    HW215539   0.076   6.351   6.406 -0.7228  0.0674 -0.5853
 4907SOL     OW15540   3.745   3.419   1.119 -0.9240  0.0374 -0.3157
 4907SOL    HW115541   3.730   3.387   1.212  0.7122 -2.0066 -0.6715
 4907SOL    HW215542   3.668   3.394   1.062 -0.9922 -0.5985  0.0527
 4908SOL     OW15543   6.245   6.109   4.365 -0.3080 -0.2457  0.4135
 4908SOL    HW115544   6.257   6.021   4.320  0.1281  0.3119 -0.6035
 4908SOL    HW215545   6.152   6.115   4.401 -0.8737 -0.5014 -0.9423
 4909SOL     OW15546   3.118   2.472   0.562 -0.5997  0.2822 -0.8364
 4909SOL    HW115547   3.209   2.444   0.591 -0.4471  0.4852 -1.0991
 4909SOL    HW215548   3.091   2.418   0.481 -0.9046 -0.0920 -0.4922
 4910SOL     OW15549   1.682   0.262   0.526  0.2144  0.2922 -0.1739
 4910SOL    HW115550   1.597   0.227   0.564  1.0491  0.8838  2.4771
 4910SOL    HW215551   1.665   0.301   0.435 -2.2489  0.1233  0.1502
 4911SOL     OW15552   0.364   6.281   5.445  0.3653  0.1207 -0.5432
 4911SOL    HW115553   0.289   6.216   5.452  0.3088 -0.1983 -3.1297
 4911SOL    HW215554   0.445   6.243   5.489 -0.2445 -0.7423 -0.1326
 4912SOL     OW15555   3.557   1.778   5.817 -0.5071 -0.0658 -0.1653
 4912SOL    HW115556   3.615   1.719   5.762 -0.5290  0.4898 -0.7879
 4912SOL    HW215557   3.462   1.750   5.808 -0.5571  0.2546 -0.7095
 4913SOL     OW15558   0.168   3.986   0.287  0.1172  0.1536  0.3096
 4913SOL    HW115559   0.249   3.928   0.282  0.6318  0.9206 -1.7318
 4913SOL    HW215560   0.088   3.935   0.255 -0.0913 -0.3618  1.5749
 4914SOL     OW15561   5.099   0.450   5.046  0.4761  0.0228 -0.7547
 4914SOL    HW115562   5.117   0.478   5.140  0.1144 -1.7896 -0.0903
 4914SOL    HW215563   5.005   0.416   5.038  1.3560 -2.6708 -0.9653
 4915SOL     OW15564   0.416   3.488   2.551 -0.8025  0.5540 -0.3981
 4915SOL    HW115565   0.464   3.429   2.486 -1.4776 -0.2208 -0.2044
 4915SOL    HW215566   0.342   3.537   2.504 -2.6526 -1.5786  0.1528
 4916SOL     OW15567   2.185   4.455   2.445  0.5065  0.6128  0.6904
 4916SOL    HW115568   2.256   4.522   2.465  1.5602 -0.1791 -0.2934
 4916SOL    HW215569   2.195   4.377   2.507  1.4666 -0.1754 -0.4139
 4917SOL     OW15570   0.616   4.435   6.004 -0.3245 -0.0354  0.3757
 4917SOL    HW115571   0.604   4.514   6.065  1.1212 -0.0554  0.6961
 4917SOL    HW215572   0.526   4.405   5.972 -0.9569  1.2602  0.8557
 4918SOL     OW15573   0.758   0.362   6.347  0.2010 -0.1306  0.1248
 4918SOL    HW115574   0.758   0.435   6.417 -1.2672 -0.9910  1.0771
 4918SOL    HW215575   0.664   0.340   6.323  0.6469 -1.3275 -0.5684
 4919SOL     OW15576   6.595   0.122   4.953 -0.0275  0.3066  0.0696
 4919SOL    HW115577   6.624   0.091   5.043 -0.9323 -0.8232 -0.0001
 4919SOL    HW215578   6.598   0.221   4.948  1.5568  0.3185  0.8120
 4920SOL     OW15579   2.834   3.561   5.843  1.0223 -0.1980  0.9076
 4920SOL    HW115580   2.869   3.652   5.818  0.2956  0.0159  0.6402
 4920SOL    HW215581   2.784   3.523   5.765  0.1495 -0.2355  1.4713
 4921SOL     OW15582   3.746   5.810   2.491  0.2665  0.2747  0.0533
 4921SOL    HW115583   3.692   5.730   2.464  1.0179 -0.2335  0.0274
 4921SOL    HW215584   3.809   5.784   2.564 -0.0495  1.0478  0.6124
 4922SOL     OW15585   7.007   2.790   0.114 -0.3722  0.1158 -0.3604
 4922SOL    HW115586   7.065   2.755   0.188 -0.4953  0.0712 -0.3037
 4922SOL    HW215587   7.045   2.876   0.080  1.5550 -1.4516 -2.5284
 4923SOL     OW15588   4.208   6.335   0.497 -0.6025 -0.1987 -0.3881
 4923SOL    HW115589   4.213   6.422   0.449 -0.3987  1.2524  2.1118
 4923SOL    HW215590   4.124   6.287   0.472 -0.1656  0.1263 -2.6630
 4924SOL     OW15591   7.008   0.311   6.785  0.1210 -0.0590 -0.4936
 4924SOL    HW115592   7.040   0.222   6.818  0.4632  0.5311  0.8272
 4924SOL    HW215593   6.921   0.333   6.830  0.4974  0.6528 -0.1539
 4925SOL     OW15594   2.410   2.003   1.976  0.1668 -0.7563  0.4467
 4925SOL    HW115595   2.483   2.036   2.036  0.1364  2.2556 -0.9696
 4925SOL    HW215596   2.451   1.955   1.898  0.5258 -0.5530  0.5047
 4926SOL     OW15597   2.124   5.047   5.571 -0.2078  0.0780  0.2417
 4926SOL    HW115598   2.186   5.121   5.546  1.0499 -0.5811  1.2672
 4926SOL    HW215599   2.144   5.017   5.664  0.0361 -2.2612 -0.4948
 4927SOL     OW15600   5.354   2.281   2.582  0.0514  0.1198 -0.5536
 4927SOL    HW115601   5.355   2.187   2.548 -1.8412 -0.7366  1.4897
 4927SOL    HW215602   5.361   2.281   2.681  3.4584  2.4241 -0.6261
 4928SOL     OW15603   1.918   3.507   4.477  0.4562  0.6731 -0.3771
 4928SOL    HW115604   1.968   3.593   4.482 -0.1119  0.9409  0.8944
 4928SOL    HW215605   1.962   3.440   4.537 -0.5016  0.8207  0.5273
 4929SOL     OW15606   4.350   5.389   5.479 -0.2450  0.3880 -0.0017
 4929SOL    HW115607   4.276   5.424   5.422 -1.2727  1.8760  2.1206
 4929SOL    HW215608   4.313   5.346   5.561  1.1434  2.4183  1.8255
 4930SOL     OW15609   2.779   1.748   0.231 -0.2684  0.1342  0.4379
 4930SOL    HW115610   2.691   1.794   0.241  0.5149  1.5571  1.1524
 4930SOL    HW215611   2.806   1.708   0.319  0.7036  1.4439  0.7545
 4931SOL     OW15612   0.474   2.700   5.223 -0.2571 -0.1385  0.7036
 4931SOL    HW115613   0.423   2.738   5.300 -0.7488  0.7250 -0.0324
 4931SOL    HW215614   0.414   2.643   5.168  0.2220 -1.1667  1.2306
 4932SOL     OW15615   6.392   3.477   5.582 -0.1315  0.8299 -0.0784
 4932SOL    HW115616   6.394   3.399   5.644 -2.3301  0.2118 -0.6831
 4932SOL    HW215617   6.459   3.463   5.509 -0.0110 -0.1548  0.1949
 4933SOL     OW15618   4.994   2.066   6.714  0.0981  0.2031 -0.6943
 4933SOL    HW115619   4.951   1.984   6.675  0.6929  0.1476 -1.2477
 4933SOL    HW215620   4.970   2.146   6.660 -1.2895  0.5799  0.3966
 4934SOL     OW15621   5.415   5.051   4.719  0.2492  0.1774 -0.6135
 4934SOL    HW115622   5.482   4.977   4.711 -1.2991 -1.3763  0.2966
 4934SOL    HW215623   5.377   5.051   4.811  0.4595  2.3705 -0.4906
 4935SOL     OW15624   6.150   0.251   4.667  0.1404 -0.2551 -0.2790
 4935SOL    HW115625   6.145   0.161   4.711  0.1541  0.1722  0.6378
 4935SOL    HW215626   6.087   0.254   4.589  1.7774 -1.7904 -1.7437
 4936SOL     OW15627   3.106   3.746   0.176  0.1709  0.1773 -0.0617
 4936SOL    HW115628   3.144   3.831   0.213  2.1780 -1.7129  2.6763
 4936SOL    HW215629   3.147   3.727   0.087  2.4576  0.4065  0.8668
 4937SOL     OW15630   0.765   6.954   0.329 -0.1797 -0.1323 -0.0653
 4937SOL    HW115631   0.740   6.952   0.232 -0.7350  1.2039  0.0257
 4937SOL    HW215632   0.727   6.874   0.375 -1.0907 -0.0741 -0.6882
 4938SOL     OW15633   0.490   4.941   2.416  0.2299  0.5607 -0.1928
 4938SOL    HW115634   0.476   4.847   2.385 -1.9100  1.2134 -1.4320
 4938SOL    HW215635   0.575   4.947   2.468  0.3599 -2.0624  0.0181
 4939SOL     OW15636   4.514   2.009   0.688 -0.1284  0.5229  0.2477
 4939SOL    HW115637   4.418   1.985   0.697 -0.1913  0.7531  0.1825
 4939SOL    HW215638   4.563   1.932   0.646 -0.2719  0.3871  0.3262
 4940SOL     OW15639   3.985   5.889   0.139 -0.2219  0.2871 -0.3990
 4940SOL    HW115640   4.082   5.867   0.135 -0.1707  0.2133  0.7052
 4940SOL    HW215641   3.937   5.843   0.064  0.5421  0.0756 -0.7696
 4941SOL     OW15642   4.710   1.665   5.272  0.3327  0.0549  0.6198
 4941SOL    HW115643   4.709   1.712   5.184  2.1277 -1.4389 -0.2207
 4941SOL    HW215644   4.631   1.604   5.278 -0.7152  1.3512  0.7750
 4942SOL     OW15645   6.279   6.802   3.252  0.1958  0.0572 -0.1622
 4942SOL    HW115646   6.297   6.797   3.153 -0.2309  0.3258 -0.2570
 4942SOL    HW215647   6.249   6.712   3.284  3.1249 -0.8567  0.3024
 4943SOL     OW15648   3.935   0.146   5.826  0.4558  0.7051  0.2388
 4943SOL    HW115649   3.986   0.083   5.886 -1.0015  0.1893  0.9865
 4943SOL    HW215650   3.918   0.231   5.874  1.5254  1.3208 -0.4130
 4944SOL     OW15651   0.012   0.141   5.905 -0.2766 -0.3613  0.5872
 4944SOL    HW115652   0.089   0.191   5.945 -0.8646  0.9237  0.1775
 4944SOL    HW215653  -0.073   0.169   5.949 -0.5166 -1.7901  1.0601
 4945SOL     OW15654   1.666   3.703   1.730 -0.0528 -0.0301 -0.0513
 4945SOL    HW115655   1.665   3.668   1.636 -0.1197  0.1138 -0.1091
 4945SOL    HW215656   1.757   3.740   1.750 -0.5779  1.7679 -0.7679
 4946SOL     OW15657   5.607   4.253   6.598 -0.1439  0.2050 -0.3681
 4946SOL    HW115658   5.699   4.293   6.598 -0.2777  0.6291  1.8301
 4946SOL    HW215659   5.606   4.174   6.659 -1.0086 -0.4604 -1.2079
 4947SOL     OW15660   5.886   0.551   2.672 -0.3670  0.1598 -0.1464
 4947SOL    HW115661   5.945   0.507   2.604 -1.2235 -0.7654 -0.2978
 4947SOL    HW215662   5.862   0.485   2.743 -0.7283  0.7068  0.2456
 4948SOL     OW15663   6.112   0.054   5.321 -0.9525 -0.3346 -0.6315
 4948SOL    HW115664   6.028   0.079   5.369  0.8491  2.1542  1.4925
 4948SOL    HW215665   6.118   0.105   5.235 -1.4254 -0.2991 -0.6473
 4949SOL     OW15666   0.161   6.592   0.378 -0.1656  0.5414 -0.6712
 4949SOL    HW115667   0.202   6.660   0.438 -0.8115 -0.5150  1.0137
 4949SOL    HW215668   0.183   6.614   0.283 -0.6719  3.3192 -0.2295
 4950SOL     OW15669   4.125   4.724   5.403  0.0211  0.0679 -0.2871
 4950SOL    HW115670   4.182   4.760   5.478  0.2682  0.1160 -0.4962
 4950SOL    HW215671   4.184   4.699   5.326 -0.2820  0.5122 -0.6676
 4951SOL     OW15672   1.982   5.619   5.324 -0.1738  0.3680 -0.1276
 4951SOL    HW115673   2.064   5.617   5.381  0.7201  0.3644 -1.3766
 4951SOL    HW215674   1.952   5.713   5.311  0.4513  0.4841 -0.7921
 4952SOL     OW15675   6.784   0.441   6.004  0.0021  0.2990  0.2784
 4952SOL    HW115676   6.774   0.394   5.916 -1.4633 -0.6382  0.8984
 4952SOL    HW215677   6.713   0.511   6.012  0.8623  1.1894  0.2399
 4953SOL     OW15678   5.780   1.587   2.196  0.2832  0.0246 -0.3075
 4953SOL    HW115679   5.877   1.579   2.216  0.7134 -0.3795 -2.3106
 4953SOL    HW215680   5.727   1.544   2.269  1.3844  2.8038  2.3658
 4954SOL     OW15681   6.902   5.416   0.698 -0.3343  0.2737 -0.0840
 4954SOL    HW115682   6.978   5.415   0.762 -0.7170 -1.2326  0.3755
 4954SOL    HW215683   6.922   5.356   0.621 -0.6349  0.6764 -0.4849
 4955SOL     OW15684   6.107   4.706   3.167 -0.3372  0.3791  0.4048
 4955SOL    HW115685   6.057   4.619   3.161 -0.2496  0.3430  0.1968
 4955SOL    HW215686   6.065   4.764   3.238 -0.0365 -0.0690  0.9684
 4956SOL     OW15687   4.416   4.431   0.778 -0.0999  0.2131  0.0457
 4956SOL    HW115688   4.410   4.336   0.810 -0.6608  0.9646  2.3698
 4956SOL    HW215689   4.475   4.436   0.698 -1.0175 -2.2586 -0.8457
 4957SOL     OW15690   0.446   3.880   0.336  0.0552 -0.4740  0.4439
 4957SOL    HW115691   0.502   3.940   0.279  1.1496  0.3726  2.2725
 4957SOL    HW215692   0.482   3.787   0.332 -1.0778 -0.8753 -1.6832
 4958SOL     OW15693   5.819   2.244   1.810 -0.0620  0.2356  0.5878
 4958SOL    HW115694   5.803   2.177   1.737 -0.5110 -0.9130  1.6741
 4958SOL    HW215695   5.857   2.327   1.771  0.8822 -0.7785 -0.7907
 4959SOL     OW15696   3.600   2.742   0.613 -1.0896 -0.2647  0.4497
 4959SOL    HW115697   3.655   2.699   0.542 -0.7402  1.4594 -0.3914
 4959SOL    HW215698   3.515   2.692   0.625  0.4686 -2.8671  1.6029
 4960SOL     OW15699   1.427   3.931   7.006 -0.1477 -0.9486  0.5317
 4960SOL    HW115700   1.365   3.898   7.077 -1.3641  2.4775  1.2052
 4960SOL    HW215701   1.377   3.938   6.919  0.4124 -1.9280  0.1158
 4961SOL     OW15702   0.167   2.223   5.397  0.5377  0.5806 -0.1501
 4961SOL    HW115703   0.138   2.127   5.388  2.8291 -0.0530 -1.5248
 4961SOL    HW215704   0.262   2.226   5.426  0.1409  2.5129  1.1077
 4962SOL     OW15705   1.035   3.031   2.893 -0.6146  0.3436 -0.6249
 4962SOL    HW115706   1.088   3.109   2.925  2.4156 -1.2660 -1.2790
 4962SOL    HW215707   1.006   2.975   2.971 -1.3164  1.1926 -0.2617
 4963SOL     OW15708   1.578   4.493   1.952  0.3524  0.2893 -0.1135
 4963SOL    HW115709   1.678   4.499   1.958  0.4769  0.5026 -1.7977
 4963SOL    HW215710   1.550   4.397   1.957  0.8553  0.0204 -1.8020
 4964SOL     OW15711   4.234   5.565   0.056 -0.3422  0.0371  0.0735
 4964SOL    HW115712   4.177   5.483   0.056  0.3187 -0.4824 -1.6098
 4964SOL    HW215713   4.214   5.619  -0.026  0.6162  0.5348  0.1745
 4965SOL     OW15714   1.482   5.409   2.122  0.0823 -0.6098 -0.3573
 4965SOL    HW115715   1.424   5.489   2.137  1.8057  1.6512 -4.1748
 4965SOL    HW215716   1.573   5.428   2.158  0.1456 -1.5251 -0.0052
 4966SOL     OW15717   5.908   6.992   0.400  0.1864 -0.6927  0.1016
 4966SOL    HW115718   5.849   6.911   0.395  0.6482 -0.9868 -0.8397
 4966SOL    HW215719   6.001   6.964   0.424 -0.1813 -0.1460  2.4652
 4967SOL     OW15720   0.608   5.344   3.084  0.4731  0.6562  0.1336
 4967SOL    HW115721   0.666   5.351   3.003  2.7422 -0.1927  1.5827
 4967SOL    HW215722   0.639   5.410   3.152  0.0491 -0.1309  1.1161
 4968SOL     OW15723   2.776   0.708   3.603  0.2848 -0.0193 -0.4229
 4968SOL    HW115724   2.850   0.681   3.664  1.3495  2.0036 -0.7022
 4968SOL    HW215725   2.708   0.760   3.655  0.0475 -0.2329 -0.5219
 4969SOL     OW15726   6.843   5.506   0.160  0.0318  0.1219 -0.0106
 4969SOL    HW115727   6.930   5.555   0.158 -0.0046  0.2172  0.5692
 4969SOL    HW215728   6.769   5.571   0.174 -0.3949  0.3506 -2.8310
 4970SOL     OW15729   3.439   1.213   3.621  0.1666 -0.1494 -0.1715
 4970SOL    HW115730   3.386   1.134   3.591 -0.5805 -0.0509  0.8363
 4970SOL    HW215731   3.384   1.268   3.684  1.4923 -0.0675  0.9440
 4971SOL     OW15732   4.120   4.797   5.858  0.0513  0.0175 -0.0538
 4971SOL    HW115733   4.089   4.841   5.943 -1.5153  2.8465 -1.8966
 4971SOL    HW215734   4.072   4.711   5.846 -3.9098  2.0196 -0.4592
 4972SOL     OW15735   1.149   4.180   4.826 -0.3461 -0.0653 -0.4054
 4972SOL    HW115736   1.140   4.103   4.763 -1.6319 -0.7163  0.5496
 4972SOL    HW215737   1.246   4.205   4.834  0.0423 -1.2766 -1.0706
 4973SOL     OW15738   0.398   2.390   3.432 -0.4088  0.0866  0.7344
 4973SOL    HW115739   0.471   2.419   3.494 -1.4050  0.6514  1.6820
 4973SOL    HW215740   0.367   2.298   3.457  0.8835 -0.7593 -0.5527
 4974SOL     OW15741   6.386   2.837   2.045  0.0427 -0.5660 -0.2059
 4974SOL    HW115742   6.371   2.914   2.108  0.4047 -0.3332 -0.3982
 4974SOL    HW215743   6.339   2.756   2.079  1.0282 -0.7043  0.8833
 4975SOL     OW15744   0.725   0.665   4.942 -0.2733  0.1882  0.3203
 4975SOL    HW115745   0.744   0.742   5.004  1.1035 -0.4024  0.6736
 4975SOL    HW215746   0.778   0.676   4.858 -1.2322  0.3740 -0.2791
 4976SOL     OW15747   2.129   1.448   0.050 -0.1032 -0.4453 -0.5714
 4976SOL    HW115748   2.195   1.461   0.124  0.6116  1.0203 -1.4223
 4976SOL    HW215749   2.051   1.396   0.084  0.7066 -0.7455  0.9094
 4977SOL     OW15750   5.844   0.492   1.956 -0.1385 -0.7581 -0.1139
 4977SOL    HW115751   5.855   0.400   1.917 -1.4379 -1.4176  0.9624
 4977SOL    HW215752   5.786   0.547   1.895 -0.5524 -1.1387 -0.0709
 4978SOL     OW15753   2.350   2.399   4.686 -0.7753  0.9760  0.4329
 4978SOL    HW115754   2.394   2.419   4.598  1.4641  1.9019  1.7053
 4978SOL    HW215755   2.379   2.309   4.718 -1.1903  0.8621  0.5063
 4979SOL     OW15756   2.368   4.819   4.664  0.1027  0.8466 -0.1146
 4979SOL    HW115757   2.368   4.798   4.567 -0.4817  1.5465 -0.2765
 4979SOL    HW215758   2.458   4.802   4.702 -0.0212 -0.7580 -0.4788
 4980SOL     OW15759   5.204   0.244   2.115 -0.4896 -0.2404  0.4852
 4980SOL    HW115760   5.219   0.327   2.170 -0.0545 -0.8728  1.3468
 4980SOL    HW215761   5.109   0.214   2.125 -1.0222  0.8881 -0.8931
 4981SOL     OW15762   3.304   5.220   4.849  0.0601 -0.1538 -0.2560
 4981SOL    HW115763   3.228   5.166   4.813  1.1092 -1.5731 -0.4148
 4981SOL    HW215764   3.375   5.228   4.779  0.5313  0.2090  0.2551
 4982SOL     OW15765   2.056   1.990   0.341  0.1107 -0.2288 -0.1081
 4982SOL    HW115766   2.050   2.086   0.313 -1.5588 -0.6764 -1.3736
 4982SOL    HW215767   2.125   1.943   0.285  1.8351  0.4513  1.3220
 4983SOL     OW15768   4.975   0.057   6.276 -0.1057 -0.5814  0.2383
 4983SOL    HW115769   4.960   0.155   6.286  0.7334 -0.5010  0.8023
 4983SOL    HW215770   5.068   0.035   6.305  0.0826 -1.3785 -0.9382
 4984SOL     OW15771   5.208   0.154   1.834  0.2758  0.8669 -0.2593
 4984SOL    HW115772   5.169   0.210   1.906 -0.3520 -0.2709  0.3239
 4984SOL    HW215773   5.254   0.075   1.875  0.1554  0.3566 -1.0808
 4985SOL     OW15774   5.557   5.869   3.304  0.0633  0.6344 -0.6074
 4985SOL    HW115775   5.525   5.852   3.211 -2.9582  2.2031  0.0224
 4985SOL    HW215776   5.655   5.850   3.310  0.0344 -0.9943 -3.6734
 4986SOL     OW15777   2.921   1.436   6.782  0.1969 -0.1310  0.0850
 4986SOL    HW115778   2.873   1.457   6.868 -0.8448 -1.4770 -0.1231
 4986SOL    HW215779   2.993   1.369   6.800  1.1247  0.8632  0.1682
 4987SOL     OW15780   3.666   6.711   0.524  0.1085  0.2280  0.0875
 4987SOL    HW115781   3.649   6.806   0.498  3.2626  0.9709  0.2645
 4987SOL    HW215782   3.602   6.684   0.597 -0.2183  2.5535  0.7605
 4988SOL     OW15783   5.720   1.775   2.984 -0.0441 -0.2526 -0.2945
 4988SOL    HW115784   5.798   1.773   3.046 -0.8028  0.3385  0.7304
 4988SOL    HW215785   5.735   1.843   2.913  0.9604 -1.1298 -0.9588
 4989SOL     OW15786   1.246   6.289   6.356 -0.0472 -0.0940 -0.2619
 4989SOL    HW115787   1.245   6.191   6.375  1.2261  0.1759  1.3507
 4989SOL    HW215788   1.316   6.333   6.411 -0.5491  1.7301 -1.0195
 4990SOL     OW15789   4.262   5.767   0.419 -0.3643 -0.3035  0.1572
 4990SOL    HW115790   4.166   5.741   0.411 -0.1786 -0.8585 -0.4103
 4990SOL    HW215791   4.319   5.686   0.406  0.2104  0.1841 -0.3891
 4991SOL     OW15792   5.591   0.225   4.714 -0.2972  0.0891  0.1605
 4991SOL    HW115793   5.596   0.184   4.805  1.2029 -0.5248 -0.1588
 4991SOL    HW215794   5.537   0.166   4.654 -1.1826  0.4311  0.6124
 4992SOL     OW15795   0.702   1.844   4.225 -0.0276 -0.5483 -0.0367
 4992SOL    HW115796   0.743   1.929   4.259  1.6739 -1.5220  0.4601
 4992SOL    HW215797   0.700   1.846   4.125 -0.8460  0.4304 -0.0202
 4993SOL     OW15798   2.028   3.632   0.713  0.0620  0.3299  0.2714
 4993SOL    HW115799   2.039   3.612   0.615 -1.0602 -0.2595  0.2425
 4993SOL    HW215800   1.970   3.712   0.724  0.7400  0.8047  0.4589
 4994SOL     OW15801   1.521   0.358   2.683  0.5389  0.4941 -0.9234
 4994SOL    HW115802   1.601   0.300   2.666 -0.4602 -1.1321 -0.2580
 4994SOL    HW215803   1.547   0.434   2.743  1.6132  0.1203 -0.8841
 4995SOL     OW15804   3.138   6.615   5.620  0.1497  0.3145 -0.6311
 4995SOL    HW115805   3.041   6.617   5.644  0.4535  0.1362  0.6838
 4995SOL    HW215806   3.190   6.570   5.693  0.8198 -2.7008 -2.7852
 4996SOL     OW15807   1.107   2.642   3.285  0.4850 -0.2428  0.4956
 4996SOL    HW115808   1.024   2.609   3.241 -0.4629  0.6878  1.5250
 4996SOL    HW215809   1.086   2.674   3.378  1.9693  0.1235  0.7429
 4997SOL     OW15810   6.502   5.092   2.757 -0.4813 -0.0489 -0.3076
 4997SOL    HW115811   6.474   5.012   2.704 -1.1882  0.3546 -0.5653
 4997SOL    HW215812   6.433   5.164   2.749 -0.6611 -0.0002  1.2252
 4998SOL     OW15813   2.376   3.671   6.831  0.1451 -0.5704 -0.4273
 4998SOL    HW115814   2.441   3.597   6.846  1.2810  0.6501  0.9370
 4998SOL    HW215815   2.359   3.683   6.733 -0.8311 -3.2337 -0.6476
 4999SOL     OW15816   0.669   2.954   1.546  0.1499  0.2360 -0.0805
 4999SOL    HW115817   0.666   2.890   1.622 -1.6618 -0.3235 -0.5732
 4999SOL    HW215818   0.580   2.999   1.537  1.6286  3.7390  0.9635
 5000SOL     OW15819   5.926   5.357   5.806  0.5410 -0.1384 -0.4099
 5000SOL    HW115820   5.944   5.259   5.804  2.3366  0.0943  1.4496
 5000SOL    HW215821   6.013   5.407   5.816 -0.4133  1.5951 -0.3521
 5001SOL     OW15822   5.680   6.426   1.905  0.7738  0.1775  0.0687
 5001SOL    HW115823   5.660   6.359   1.834  1.9669 -0.4547  0.2948
 5001SOL    HW215824   5.657   6.388   1.995 -1.3652  1.2255  0.0229
 5002SOL     OW15825   2.596   4.380   5.064 -0.3041  0.2667  0.2986
 5002SOL    HW115826   2.524   4.311   5.048  1.7070 -2.1391  1.0003
 5002SOL    HW215827   2.598   4.403   5.161 -0.0892  0.3133  0.2838
 5003SOL     OW15828   0.117   2.282   4.404  0.1696  0.9824  0.6534
 5003SOL    HW115829   0.048   2.211   4.407  1.0587 -0.0014 -0.8444
 5003SOL    HW215830   0.143   2.308   4.497  1.2177 -2.0625  1.3250
 5004SOL     OW15831   1.292   2.942   5.720  0.1071  0.7080  0.8682
 5004SOL    HW115832   1.310   2.882   5.798  1.0367 -0.8123 -0.4233
 5004SOL    HW215833   1.248   2.890   5.647 -0.6145  2.0497  0.3010
 5005SOL     OW15834   4.997   0.849   3.483 -0.6896  0.1240 -0.0778
 5005SOL    HW115835   5.071   0.904   3.443 -1.7412  1.6875  0.0581
 5005SOL    HW215836   4.986   0.873   3.579  0.6477 -2.3608  0.7869
 5006SOL     OW15837   0.422   2.166   5.494  0.0869 -1.0282 -0.7348
 5006SOL    HW115838   0.413   2.067   5.506 -3.4260 -0.6338  0.8926
 5006SOL    HW215839   0.441   2.209   5.582  1.2465 -0.1752 -1.3716
 5007SOL     OW15840   6.871   4.067   5.696  0.2687  0.4912 -0.5062
 5007SOL    HW115841   6.957   4.113   5.673  0.3962  0.8959  0.7265
 5007SOL    HW215842   6.795   4.120   5.659  0.5659 -0.5349 -2.7129
 5008SOL     OW15843   0.843   3.802   5.790 -0.6351 -0.0300 -0.2990
 5008SOL    HW115844   0.745   3.824   5.792 -0.4414  0.9513 -0.7201
 5008SOL    HW215845   0.879   3.820   5.698  0.3003  1.3702  0.2983
 5009SOL     OW15846   6.786   0.429   6.855  0.3552 -0.1322 -0.0405
 5009SOL    HW115847   6.807   0.525   6.839 -1.5591  0.1653 -0.9447
 5009SOL    HW215848   6.760   0.417   6.951  0.3825  0.2979  0.0252
 5010SOL     OW15849   6.080   4.962   3.753  0.9210 -0.5998 -0.5076
 5010SOL    HW115850   6.089   4.865   3.730 -0.7799 -0.7704 -0.5943
 5010SOL    HW215851   6.154   4.989   3.815  0.4594 -2.3951  0.9188
 5011SOL     OW15852   2.160   0.267   3.295 -0.0876  0.0785 -0.2599
 5011SOL    HW115853   2.178   0.361   3.267 -2.5881  0.7018 -0.0099
 5011SOL    HW215854   2.246   0.220   3.312  1.2665  1.8267 -1.9217
 5012SOL     OW15855   2.245   2.319   0.053 -0.3787 -0.3340  0.0524
 5012SOL    HW115856   2.165   2.295   0.108 -0.5031  0.0905  0.0606
 5012SOL    HW215857   2.215   2.362  -0.032 -0.1911 -0.9951 -0.3287
 5013SOL     OW15858   3.450   0.327   0.781 -0.4153  0.6295 -0.3707
 5013SOL    HW115859   3.452   0.371   0.691 -4.8079  0.2933 -0.8808
 5013SOL    HW215860   3.419   0.232   0.771 -0.5338  0.4480  1.4478
 5014SOL     OW15861   2.782   4.990   3.720 -0.0100 -0.1530 -0.1422
 5014SOL    HW115862   2.708   5.058   3.723 -0.3130 -0.3718 -1.6273
 5014SOL    HW215863   2.809   4.976   3.625  1.9331 -0.1118  0.3796
 5015SOL     OW15864   6.501   6.406   2.480 -0.0436 -0.2945 -0.2935
 5015SOL    HW115865   6.492   6.329   2.543 -1.2064  0.4151  0.4132
 5015SOL    HW215866   6.428   6.403   2.412  0.0219  0.0801 -0.3865
 5016SOL     OW15867   1.998   4.833   6.557  0.5282 -0.4299  0.2649
 5016SOL    HW115868   1.943   4.903   6.603  0.3826 -1.2070  1.2974
 5016SOL    HW215869   1.952   4.804   6.473 -1.2517 -1.8275  1.6110
 5017SOL     OW15870   1.546   3.928   1.835 -0.6198 -0.1472 -0.1987
 5017SOL    HW115871   1.596   3.942   1.921  3.2779  3.3795 -2.6810
 5017SOL    HW215872   1.572   3.840   1.795 -0.7163 -0.7850  1.0584
 5018SOL     OW15873   6.802   3.203   2.793  0.3469  0.4581  0.1421
 5018SOL    HW115874   6.828   3.178   2.886  0.3868  0.1392  0.0454
 5018SOL    HW215875   6.799   3.122   2.735  1.3932  0.7831 -0.4071
 5019SOL     OW15876   5.024   4.647   6.637  0.0960  0.1457 -0.2729
 5019SOL    HW115877   5.006   4.611   6.729  0.4949 -0.6468 -0.4999
 5019SOL    HW215878   5.042   4.571   6.574 -0.1243  0.6885 -0.9972
 5020SOL     OW15879   5.398   0.001   2.851  0.1094  0.5605  0.0613
 5020SOL    HW115880   5.354   0.018   2.762 -0.1676 -0.1662  0.0572
 5020SOL    HW215881   5.354   0.058   2.921 -0.5748  0.1062 -0.0080
 5021SOL     OW15882   3.460   1.515   6.673 -0.0772  0.1180  0.0632
 5021SOL    HW115883   3.532   1.531   6.740 -0.4402  1.5904  0.1307
 5021SOL    HW215884   3.392   1.588   6.679 -0.2684  0.1084 -1.7121
 5022SOL     OW15885   3.927   3.817   5.772 -0.3543  0.1862 -0.7342
 5022SOL    HW115886   3.917   3.837   5.675 -0.2201 -2.1256 -1.2690
 5022SOL    HW215887   3.840   3.787   5.809 -0.3971  1.0195 -0.1126
 5023SOL     OW15888   5.667   6.104   0.380 -0.1072 -0.1555  0.6438
 5023SOL    HW115889   5.736   6.085   0.310  0.5713  0.4209  1.1376
 5023SOL    HW215890   5.678   6.040   0.456 -0.9611 -0.9033  0.1482
 5024SOL     OW15891   6.404   0.423   1.768  0.0700  0.0833  0.1964
 5024SOL    HW115892   6.392   0.388   1.861  0.1502  0.3471  0.3082
 5024SOL    HW215893   6.322   0.473   1.740  0.5434  1.1254  0.6190
 5025SOL     OW15894   3.853   4.563   6.468  0.0170  0.3359  0.2686
 5025SOL    HW115895   3.871   4.567   6.369  1.3410 -0.1553  0.4639
 5025SOL    HW215896   3.878   4.651   6.509  0.4828  0.1879  0.3097
 5026SOL     OW15897   5.081   0.876   1.509 -0.1807  0.2457  0.7862
 5026SOL    HW115898   5.133   0.961   1.499  0.3322  0.0464  1.5852
 5026SOL    HW215899   5.142   0.803   1.540 -0.7970 -0.1637  1.0753
 5027SOL     OW15900   2.781   2.215   4.795 -0.2679  0.5286 -0.0861
 5027SOL    HW115901   2.745   2.146   4.733 -0.3565  0.0928  0.4342
 5027SOL    HW215902   2.867   2.182   4.835 -2.0084 -0.8746  2.8275
 5028SOL     OW15903   3.706   5.370   1.436  0.4707 -0.3381  0.2353
 5028SOL    HW115904   3.784   5.412   1.389 -0.4396  1.4074  0.2045
 5028SOL    HW215905   3.677   5.289   1.385  0.9544  0.1973 -0.9404
 5029SOL     OW15906   4.353   3.436   5.695  0.0994 -0.1682  0.2459
 5029SOL    HW115907   4.410   3.406   5.619 -0.2125  0.1345 -0.1123
 5029SOL    HW215908   4.362   3.535   5.706  0.9134 -0.3368  1.2441
 5030SOL     OW15909   2.426   3.976   1.601 -0.2253 -0.3334  0.0299
 5030SOL    HW115910   2.471   4.065   1.592 -2.0706  0.4589 -2.5584
 5030SOL    HW215911   2.445   3.920   1.520 -2.4824 -0.5743 -0.4282
 5031SOL     OW15912   4.306   2.509   2.801  0.4775 -0.3888 -0.2265
 5031SOL    HW115913   4.336   2.420   2.766  0.8419 -0.6138  0.6226
 5031SOL    HW215914   4.382   2.574   2.798  0.0199  0.1233 -1.5185
 5032SOL     OW15915   6.179   6.457   6.744 -0.6679 -0.1205  0.8626
 5032SOL    HW115916   6.104   6.390   6.743 -0.8639  0.0991  0.3796
 5032SOL    HW215917   6.230   6.451   6.658  1.6237 -2.1939  2.2574
 5033SOL     OW15918   6.587   2.207   3.983 -0.4277 -0.7586  0.3757
 5033SOL    HW115919   6.502   2.221   4.033 -0.4452  1.2240 -0.1517
 5033SOL    HW215920   6.611   2.289   3.931  0.6322 -2.0320 -1.3070
 5034SOL     OW15921   3.620   5.088   0.355 -0.3451  0.1073 -0.2870
 5034SOL    HW115922   3.631   5.179   0.395  0.1165  0.3579 -0.9592
 5034SOL    HW215923   3.554   5.036   0.409 -0.8445  0.9394 -0.0703
 5035SOL     OW15924   5.388   5.272   6.821  0.3614  0.0968 -0.0261
 5035SOL    HW115925   5.384   5.210   6.900  1.2413  1.6217  1.2726
 5035SOL    HW215926   5.408   5.219   6.738  0.5430 -1.4176  0.9398
 5036SOL     OW15927   4.588   6.407   3.578  0.4030 -0.1361  0.4894
 5036SOL    HW115928   4.581   6.372   3.671 -0.8195 -1.2893  0.0062
 5036SOL    HW215929   4.533   6.490   3.570  1.3176  0.5319  1.0375
 5037SOL     OW15930   4.887   6.594   3.271 -0.0296  0.0276  0.3631
 5037SOL    HW115931   4.930   6.622   3.185  0.5790  1.2854  1.0539
 5037SOL    HW215932   4.790   6.621   3.270 -0.3299 -1.0277 -0.3899
 5038SOL     OW15933   6.053   1.189   4.258  0.3871  0.0459  0.3395
 5038SOL    HW115934   6.056   1.124   4.334  1.2172  0.4466  0.6643
 5038SOL    HW215935   6.146   1.216   4.233  0.0707  1.0039  0.1260
 5039SOL     OW15936   1.652   6.585   2.744 -0.3413 -0.2852 -0.1550
 5039SOL    HW115937   1.609   6.584   2.834 -4.0841  0.7978 -1.7282
 5039SOL    HW215938   1.727   6.520   2.741  0.0297 -0.2179  3.7456
 5040SOL     OW15939   5.443   5.645   5.522 -0.3406  0.1130  0.1865
 5040SOL    HW115940   5.462   5.694   5.607  0.9843  1.9154 -1.0902
 5040SOL    HW215941   5.499   5.563   5.518  0.0096  0.3156  0.7754
 5041SOL     OW15942   6.888   5.023   4.338 -0.2833  0.3786  0.3540
 5041SOL    HW115943   6.916   4.988   4.428 -0.6598  1.1352  0.7816
 5041SOL    HW215944   6.954   4.993   4.269  0.4907  0.4825  1.0189
 5042SOL     OW15945   0.578   6.452   4.055  0.2056 -0.0341  0.1286
 5042SOL    HW115946   0.645   6.402   4.000  0.5664  0.2006  0.3498
 5042SOL    HW215947   0.625   6.502   4.128 -0.0393  1.3032 -0.5845
 5043SOL     OW15948   5.825   2.104   5.656 -0.5575  0.3812 -0.8870
 5043SOL    HW115949   5.832   2.065   5.564 -1.4440  0.4224 -0.9766
 5043SOL    HW215950   5.738   2.078   5.697 -0.3422  0.6982 -0.2122
 5044SOL     OW15951   4.462   2.699   3.686  0.0172 -0.2225  0.0250
 5044SOL    HW115952   4.414   2.737   3.607  1.7830  1.3625 -0.3628
 5044SOL    HW215953   4.404   2.631   3.731 -1.9433  0.5095 -1.2695
 5045SOL     OW15954   3.806   5.895   1.379 -0.1621  0.8394  0.4825
 5045SOL    HW115955   3.728   5.863   1.432 -1.0944 -0.2217 -1.4041
 5045SOL    HW215956   3.830   5.826   1.311  0.0031  2.7243 -1.4756
 5046SOL     OW15957   4.219   4.680   1.923  0.0244  0.7696  0.2206
 5046SOL    HW115958   4.268   4.592   1.926  0.0797  0.8045  0.3809
 5046SOL    HW215959   4.143   4.678   1.987 -0.6622  0.4305 -0.5858
 5047SOL     OW15960   3.487   6.311   5.524 -0.0056 -0.3186  0.1378
 5047SOL    HW115961   3.423   6.388   5.512 -0.0815 -0.2458  0.9574
 5047SOL    HW215962   3.437   6.225   5.518 -0.2032 -0.2607  0.8256
 5048SOL     OW15963   2.811   0.081   3.971 -0.4016 -0.1920  0.2776
 5048SOL    HW115964   2.853   0.166   3.938 -0.8530  0.2089  0.7237
 5048SOL    HW215965   2.870   0.040   4.040  0.3198 -0.7891 -0.6601
 5049SOL     OW15966   2.677   2.073   0.693 -0.0712  0.6185 -0.2588
 5049SOL    HW115967   2.750   2.139   0.711 -1.2462  2.4759 -1.9129
 5049SOL    HW215968   2.705   1.983   0.726  1.7517  1.8216  1.7657
 5050SOL     OW15969   0.867   4.735   6.608 -0.5188  0.3137  0.1710
 5050SOL    HW115970   0.945   4.689   6.650 -0.2011 -0.5487 -1.2594
 5050SOL    HW215971   0.782   4.696   6.643 -0.2708 -0.1447  0.2722
 5051SOL     OW15972   2.278   1.381   1.418  0.4898 -0.1521  0.0066
 5051SOL    HW115973   2.331   1.459   1.453  0.8243 -0.5377  0.3818
 5051SOL    HW215974   2.183   1.388   1.448  0.7348 -0.3840  0.8576
 5052SOL     OW15975   2.524   0.246   0.232  0.1423  0.7296 -0.2539
 5052SOL    HW115976   2.589   0.220   0.160  0.0328  0.8542 -0.3976
 5052SOL    HW215977   2.455   0.307   0.194 -1.2721 -1.0016 -0.6274
 5053SOL     OW15978   2.556   6.716   0.532 -0.6334  0.2419 -0.3404
 5053SOL    HW115979   2.588   6.662   0.609 -0.6856  2.4140  1.3112
 5053SOL    HW215980   2.557   6.661   0.449  2.6717 -1.2263  0.5450
 5054SOL     OW15981   2.428   2.272   5.764 -0.6140  0.6202  0.2068
 5054SOL    HW115982   2.367   2.345   5.796 -0.0670  0.3016  2.0990
 5054SOL    HW215983   2.374   2.192   5.738 -1.0485  0.6741  0.9306
 5055SOL     OW15984   4.639   3.233   5.734  0.3772 -0.0464  0.1317
 5055SOL    HW115985   4.731   3.194   5.724  0.8408 -0.1027  3.6012
 5055SOL    HW215986   4.642   3.308   5.800 -2.0656 -0.0228  0.3027
 5056SOL     OW15987   3.506   4.889   1.410  0.0158 -0.0797 -0.0321
 5056SOL    HW115988   3.565   4.814   1.382 -0.9965 -0.3011 -1.7538
 5056SOL    HW215989   3.412   4.868   1.383 -0.4523  1.3016  0.4840
 5057SOL     OW15990   5.444   3.661   4.492  0.3467 -0.2200 -0.4820
 5057SOL    HW115991   5.359   3.713   4.494  0.6490  0.3517 -1.8233
 5057SOL    HW215992   5.454   3.615   4.404  1.5769 -0.0107 -0.4648
 5058SOL     OW15993   3.192   1.703   2.118  0.8689 -0.0959  0.6308
 5058SOL    HW115994   3.263   1.726   2.052  0.2150 -0.9322 -0.3919
 5058SOL    HW215995   3.119   1.771   2.114  0.9284 -0.0326  0.6297
 5059SOL     OW15996   5.375   5.371   0.457 -0.7536 -0.3213  0.4532
 5059SOL    HW115997   5.314   5.425   0.399  0.2356  0.8500  0.4456
 5059SOL    HW215998   5.422   5.303   0.400 -1.0890 -0.3647  0.2235
 5060SOL     OW15999   1.371   3.848   2.638 -0.3821  0.2146  0.4968
 5060SOL    HW116000   1.318   3.933   2.636 -0.1996  0.4419  2.6106
 5060SOL    HW216001   1.308   3.770   2.650 -0.5024  0.0761 -0.8748
 5061SOL     OW16002   5.158   0.205   1.091 -0.1341  0.7162  0.7954
 5061SOL    HW116003   5.203   0.262   1.022  0.4764 -1.8071 -0.9912
 5061SOL    HW216004   5.191   0.231   1.182  1.3712  2.0607 -0.0874
 5062SOL     OW16005   5.505   3.930   6.612 -0.6959 -0.3014 -0.1082
 5062SOL    HW116006   5.500   3.837   6.577  0.9141 -0.9661  1.3036
 5062SOL    HW216007   5.487   3.929   6.711  0.0510  0.7705  0.0503
 5063SOL     OW16008   2.988   2.515   1.445 -0.8798 -0.0510 -0.2488
 5063SOL    HW116009   2.946   2.514   1.354 -0.8050 -0.1273 -0.2827
 5063SOL    HW216010   3.088   2.513   1.435 -0.8873 -1.5640 -0.1335
 5064SOL     OW16011   5.479   2.920   1.303  0.8340  0.1194 -0.1210
 5064SOL    HW116012   5.406   2.933   1.237 -0.1880  0.0208  0.9622
 5064SOL    HW216013   5.556   2.979   1.280 -0.7960  2.6274  0.4951
 5065SOL     OW16014   5.911   4.609   5.527  0.0246  0.4906  0.3398
 5065SOL    HW116015   5.916   4.510   5.543 -1.4999 -0.3373 -3.3400
 5065SOL    HW216016   5.991   4.639   5.476 -0.4136  0.7187 -0.2361
 5066SOL     OW16017   4.969   1.558   2.508  0.2520  0.0660  0.3296
 5066SOL    HW116018   4.926   1.642   2.541  0.1645  0.4098 -0.6488
 5066SOL    HW216019   4.938   1.537   2.416  0.3815 -0.9721  0.5038
 5067SOL     OW16020   0.153   5.518   6.908  0.4178 -0.6065  0.2099
 5067SOL    HW116021   0.122   5.522   7.003 -2.3848 -1.8450 -0.5524
 5067SOL    HW216022   0.163   5.422   6.881  0.9550 -0.2749 -0.8193
 5068SOL     OW16023   1.159   0.891   5.331  0.4138 -0.1962  0.0362
 5068SOL    HW116024   1.119   0.890   5.239  2.1282 -0.2057 -0.7634
 5068SOL    HW216025   1.144   0.981   5.372 -0.1128 -0.0804 -0.3897
 5069SOL     OW16026   4.595   0.010   5.965 -1.0312 -0.2397 -0.0689
 5069SOL    HW116027   4.555   0.067   6.037 -0.2993 -1.1894  1.1403
 5069SOL    HW216028   4.678   0.053   5.931 -0.3462 -0.6338  1.0141
 5070SOL     OW16029   1.706   6.630   1.707 -0.8937 -0.8025 -0.0582
 5070SOL    HW116030   1.735   6.588   1.793 -0.3356  0.6941  0.5275
 5070SOL    HW216031   1.678   6.725   1.725 -0.8035 -0.4788 -1.5283
 5071SOL     OW16032   5.386   5.383   5.724 -0.3120 -0.1272 -0.3128
 5071SOL    HW116033   5.424   5.376   5.632  0.1125 -0.3857 -0.1159
 5071SOL    HW216034   5.307   5.445   5.723  1.3166  2.0625 -0.3327
 5072SOL     OW16035   5.137   5.509   6.494 -0.2201 -0.3535 -0.9895
 5072SOL    HW116036   5.107   5.491   6.588 -0.0565 -2.6319 -1.3347
 5072SOL    HW216037   5.062   5.549   6.442 -0.1570  1.4736  0.1943
 5073SOL     OW16038   3.295   1.326   3.818 -0.1429 -0.0077  0.1096
 5073SOL    HW116039   3.278   1.358   3.911  1.9386 -2.4683  1.4513
 5073SOL    HW216040   3.223   1.261   3.791 -0.9333  0.9540 -0.2036
 5074SOL     OW16041   4.503   1.057   0.901  0.0862 -0.2312 -0.8091
 5074SOL    HW116042   4.509   1.083   0.804 -0.8604  0.2154 -0.7587
 5074SOL    HW216043   4.582   1.001   0.925  0.6528  0.1643 -1.6890
 5075SOL     OW16044   4.416   4.942   6.384  0.1600 -0.3320 -0.1034
 5075SOL    HW116045   4.397   5.039   6.368 -0.5187 -0.2967  0.8343
 5075SOL    HW216046   4.450   4.929   6.477  2.7516 -0.6908 -1.0058
 5076SOL     OW16047   2.650   0.015   5.596  0.5706  0.2588  0.7864
 5076SOL    HW116048   2.714   0.088   5.572 -0.0529 -0.0279 -1.9783
 5076SOL    HW216049   2.695  -0.074   5.583 -0.6853  0.0340 -2.4681
 5077SOL     OW16050   3.918   6.897   6.027 -0.1743  0.3673  0.1326
 5077SOL    HW116051   3.991   6.833   6.054 -0.7896 -0.0747  0.7710
 5077SOL    HW216052   3.831   6.848   6.026 -0.4608  0.8866 -0.6712
 5078SOL     OW16053   0.571   2.123   0.537 -0.2977 -0.5300  0.1861
 5078SOL    HW116054   0.520   2.087   0.615  1.3916  0.2738  1.7070
 5078SOL    HW216055   0.511   2.124   0.456 -2.1644 -1.1432  1.4954
 5079SOL     OW16056   6.437   3.179   0.538  0.9978  0.1901  0.7899
 5079SOL    HW116057   6.393   3.262   0.504 -0.0762 -0.3649  0.7778
 5079SOL    HW216058   6.368   3.116   0.573  1.4536 -1.9897 -1.9098
 5080SOL     OW16059   0.567   2.186   5.249 -0.3993  0.2152  0.5472
 5080SOL    HW116060   0.502   2.191   5.172 -1.1508 -1.9264  0.9709
 5080SOL    HW216061   0.522   2.217   5.332  0.0028  1.3112  0.3621
 5081SOL     OW16062   3.249   3.844   0.750  0.3313 -0.2780  0.2468
 5081SOL    HW116063   3.243   3.815   0.654 -1.9807 -0.6164  0.4469
 5081SOL    HW216064   3.263   3.764   0.808 -0.0369 -0.2940  0.3185
 5082SOL     OW16065   1.317   0.684   2.872 -0.2293  0.7241  0.2252
 5082SOL    HW116066   1.411   0.718   2.873  0.3252 -0.6843 -0.3352
 5082SOL    HW216067   1.295   0.647   2.962 -0.4998  1.6543  0.5542
 5083SOL     OW16068   3.828   1.881   5.015 -0.4648  0.5123  0.2797
 5083SOL    HW116069   3.854   1.939   4.938 -0.5307  1.6279  1.0727
 5083SOL    HW216070   3.788   1.937   5.088 -1.1081 -0.6080  0.8321
 5084SOL     OW16071   0.296   4.627   5.570  1.2277  0.5698  0.8184
 5084SOL    HW116072   0.367   4.595   5.507  0.6723  1.4016 -0.2717
 5084SOL    HW216073   0.340   4.668   5.651  1.9954  1.0387  0.1810
 5085SOL     OW16074   1.731   3.002   0.292  0.6312 -0.4445  0.4697
 5085SOL    HW116075   1.714   3.063   0.369  0.7460 -1.9066  1.7307
 5085SOL    HW216076   1.671   2.922   0.300  0.2626 -0.3702 -1.2903
 5086SOL     OW16077   3.229   3.205   4.019 -0.1702 -0.3275  0.5937
 5086SOL    HW116078   3.288   3.276   3.979  0.9970 -1.1277  0.8582
 5086SOL    HW216079   3.256   3.188   4.113 -0.3411 -1.2301  0.4897
 5087SOL     OW16080   1.713   2.786   6.120 -0.1689  0.0759  0.0503
 5087SOL    HW116081   1.799   2.736   6.127  0.0639  0.2976 -1.0164
 5087SOL    HW216082   1.659   2.748   6.044 -1.8927 -1.3321  1.8423
 5088SOL     OW16083   0.422   2.474   6.000  0.0061  0.0194 -0.2740
 5088SOL    HW116084   0.428   2.417   5.918 -1.2110 -0.2994 -0.1602
 5088SOL    HW216085   0.354   2.436   6.062  0.2105  0.8039  0.4495
 5089SOL     OW16086   0.727   2.502   1.139  0.1132  0.2387 -0.0224
 5089SOL    HW116087   0.628   2.488   1.151  0.0620  1.8864  2.0055
 5089SOL    HW216088   0.771   2.414   1.118 -1.7753 -0.4978 -1.1668
 5090SOL     OW16089   2.874   6.135   5.659 -0.1171 -0.2579 -0.1101
 5090SOL    HW116090   2.830   6.134   5.570 -1.9342 -2.2553  0.6944
 5090SOL    HW216091   2.973   6.150   5.648 -0.5126  1.1136 -2.2692
 5091SOL     OW16092   1.341   6.778   5.380 -0.2649  0.1259  0.6014
 5091SOL    HW116093   1.319   6.855   5.441  1.0030  0.6414  0.4312
 5091SOL    HW216094   1.297   6.695   5.414  0.3154  0.4264  2.1688
 5092SOL     OW16095   5.657   0.675   1.893  0.1649  0.0179 -0.0013
 5092SOL    HW116096   5.650   0.659   1.795 -1.8626  0.1093  0.0894
 5092SOL    HW216097   5.665   0.773   1.910  1.2314 -0.0403 -0.0760
 5093SOL     OW16098   0.799   3.548   4.203  0.4725 -0.4702  0.0879
 5093SOL    HW116099   0.771   3.538   4.108  1.6801  0.6058 -0.4061
 5093SOL    HW216100   0.724   3.588   4.256  0.0140 -0.4907 -0.5302
 5094SOL     OW16101   6.188   4.092   4.554 -0.4213 -0.0710 -0.6256
 5094SOL    HW116102   6.093   4.080   4.523 -1.1649  2.4790  0.4920
 5094SOL    HW216103   6.192   4.084   4.653  0.1411  1.8216 -0.4651
 5095SOL     OW16104   5.824   4.413   6.555 -0.2616  0.2470  0.3468
 5095SOL    HW116105   5.923   4.409   6.564 -0.2471  1.6301  1.1273
 5095SOL    HW216106   5.795   4.507   6.538 -1.3293 -0.3792 -1.5785
 5096SOL     OW16107   4.118   2.145   5.162 -0.0208  0.4875 -0.1518
 5096SOL    HW116108   4.144   2.126   5.257 -0.3614  1.1240  0.0743
 5096SOL    HW216109   4.042   2.209   5.161 -1.0481 -0.7031 -0.8360
 5097SOL     OW16110   5.347   1.325   1.952  0.1973  0.2456 -0.0916
 5097SOL    HW116111   5.359   1.408   2.006  0.7088  0.5943 -0.7200
 5097SOL    HW216112   5.354   1.245   2.011  0.0322  0.6371  0.4682
 5098SOL     OW16113   1.094   1.564   0.607  0.3213  0.0040  0.5764
 5098SOL    HW116114   1.061   1.560   0.702 -1.6951 -2.0156 -0.1388
 5098SOL    HW216115   1.105   1.471   0.572  0.9630  0.7277 -1.2113
 5099SOL     OW16116   3.977   4.891   1.947 -0.1418 -0.0146 -0.1211
 5099SOL    HW116117   4.045   4.914   1.877  0.1055  0.6572  0.3178
 5099SOL    HW216118   3.894   4.945   1.932  0.3886  1.1276  0.8445
 5100SOL     OW16119   0.060   1.970   5.430 -0.0460 -0.0949 -0.3205
 5100SOL    HW116120  -0.035   1.959   5.400 -0.0548 -0.7343 -0.0048
 5100SOL    HW216121   0.115   1.896   5.393 -0.2552 -1.4090  1.8154
 5101SOL     OW16122   5.883   0.421   1.105 -0.5584  0.1964 -0.0758
 5101SOL    HW116123   5.975   0.381   1.109 -0.9826 -0.6808  1.6451
 5101SOL    HW216124   5.851   0.420   1.010  0.1704 -1.9387 -0.3610
 5102SOL     OW16125   4.009   0.826   6.120  0.2861 -0.0538  0.3442
 5102SOL    HW116126   4.082   0.765   6.088  1.6466  1.7809 -0.2434
 5102SOL    HW216127   4.041   0.875   6.201 -0.6750  0.0940  0.6336
 5103SOL     OW16128   0.570   1.537   3.703 -0.0862  0.2820 -0.1764
 5103SOL    HW116129   0.483   1.492   3.722 -0.5742  1.2567 -0.0303
 5103SOL    HW216130   0.562   1.593   3.621 -0.9538  3.6938  2.0016
 5104SOL     OW16131   5.934   6.635   5.159  0.4515  0.1746  0.1470
 5104SOL    HW116132   5.986   6.668   5.080  0.7910 -0.2646  0.1793
 5104SOL    HW216133   5.933   6.705   5.230  1.8953 -0.1913  0.5563
 5105SOL     OW16134   4.414   5.572   4.305 -0.1878  0.1957 -0.0391
 5105SOL    HW116135   4.449   5.645   4.364  2.0668 -0.1389 -0.8671
 5105SOL    HW216136   4.466   5.488   4.322 -0.2854 -0.2191 -1.6132
 5106SOL     OW16137   4.418   0.697   4.585 -0.6982  0.2027 -0.1965
 5106SOL    HW116138   4.399   0.655   4.674 -3.1147  0.7800 -0.3888
 5106SOL    HW216139   4.420   0.627   4.514 -0.1289 -0.0900  0.0974
 5107SOL     OW16140   2.678   4.141   6.490 -0.7608  0.1280  0.1303
 5107SOL    HW116141   2.657   4.187   6.577  0.5258 -0.4075  0.7697
 5107SOL    HW216142   2.598   4.090   6.459 -1.4035  0.7288  0.7470
 5108SOL     OW16143   6.217   5.407   0.064  0.3100  0.2450  0.2232
 5108SOL    HW116144   6.210   5.307   0.058  2.8320 -0.0149  0.5502
 5108SOL    HW216145   6.231   5.444  -0.028  3.3394 -0.1759  0.4360
 5109SOL     OW16146   2.306   2.625   1.043  0.1691  0.2388  0.1497
 5109SOL    HW116147   2.383   2.666   1.092  0.0354  0.0995  0.4753
 5109SOL    HW216148   2.329   2.530   1.019  0.1388  0.2304  0.1540
 5110SOL     OW16149   5.431   2.163   6.235  0.2084  0.1755  0.3377
 5110SOL    HW116150   5.350   2.219   6.220 -0.6242 -1.4056 -1.4905
 5110SOL    HW216151   5.449   2.156   6.333 -1.4378  1.1331  0.7453
 5111SOL     OW16152   4.631   3.070   0.405 -0.4010 -0.2156 -0.5671
 5111SOL    HW116153   4.626   3.068   0.305  0.1295  0.3801 -0.6166
 5111SOL    HW216154   4.702   3.135   0.433  1.2266 -2.2172  0.1546
 5112SOL     OW16155   0.433   3.461   4.015 -0.1432 -0.0085 -0.2894
 5112SOL    HW116156   0.333   3.470   4.018 -0.1252  0.0350  0.5611
 5112SOL    HW216157   0.472   3.540   3.968 -0.4836  0.1760 -0.2734
 5113SOL     OW16158   0.582   3.715   1.240  0.4886 -0.7928 -0.6602
 5113SOL    HW116159   0.649   3.692   1.310  1.0542  0.4097 -0.7846
 5113SOL    HW216160   0.627   3.720   1.151  0.7734  2.2894 -0.4304
 5114SOL     OW16161   5.202   6.759   5.826 -0.0608 -0.4527  0.1977
 5114SOL    HW116162   5.131   6.766   5.756  0.9152 -1.4710 -0.9423
 5114SOL    HW216163   5.171   6.803   5.910 -1.9700 -0.7617 -0.3102
 5115SOL     OW16164   4.134   0.636   5.056 -0.2158 -0.0449 -1.1154
 5115SOL    HW116165   4.097   0.693   4.982  1.6993  1.3330 -1.1056
 5115SOL    HW216166   4.232   0.654   5.066 -0.4250 -0.0688  1.8669
 5116SOL     OW16167   2.196   5.878   1.378  0.9724  0.3970 -0.1964
 5116SOL    HW116168   2.281   5.836   1.409  1.3307  2.2534  1.5322
 5116SOL    HW216169   2.214   5.970   1.343 -0.3565  1.0569  0.7480
 5117SOL     OW16170   4.458   1.641   1.897  0.2815 -0.5426  0.3631
 5117SOL    HW116171   4.444   1.584   1.816 -0.2508 -0.2630  0.2568
 5117SOL    HW216172   4.371   1.682   1.925  0.3873 -0.9377  1.3015
 5118SOL     OW16173   2.764   1.138   3.582 -0.4051 -0.3630 -0.2385
 5118SOL    HW116174   2.665   1.127   3.586 -0.2554 -1.4919  1.1322
 5118SOL    HW216175   2.807   1.085   3.655  1.1805  0.5996 -0.4174
 5119SOL     OW16176   6.698   2.897   0.059  0.4047 -0.5492 -0.2283
 5119SOL    HW116177   6.752   2.838   0.119  1.8627 -0.3105 -1.2407
 5119SOL    HW216178   6.715   2.993   0.082 -0.3616 -0.4703  0.0640
 5120SOL     OW16179   0.707   0.033   4.356  0.3862  0.5710  0.0796
 5120SOL    HW116180   0.672   0.120   4.322 -0.6597 -0.5446 -1.8809
 5120SOL    HW216181   0.665  -0.042   4.304  0.9443 -1.1091  1.9673
 5121SOL     OW16182   6.498   0.216   5.435  0.1307 -0.0568 -0.3272
 5121SOL    HW116183   6.548   0.175   5.512  0.7751  0.6379 -0.3654
 5121SOL    HW216184   6.420   0.268   5.471  1.2736  1.5091  0.0120
 5122SOL     OW16185   3.690   1.372   5.266  0.5462  0.8165  0.1147
 5122SOL    HW116186   3.633   1.442   5.310  0.4801  0.6467  0.3009
 5122SOL    HW216187   3.638   1.329   5.192  0.3645  0.5287  0.4085
 5123SOL     OW16188   1.674   1.307   3.356 -0.3356  0.2376  0.7968
 5123SOL    HW116189   1.702   1.287   3.450  0.5596 -0.6774  0.3554
 5123SOL    HW216190   1.662   1.406   3.346  0.8849  0.4979  1.5284
 5124SOL     OW16191   5.549   6.668   1.909 -0.0236  0.6018  0.1810
 5124SOL    HW116192   5.592   6.579   1.917 -1.5078 -0.1846 -0.2581
 5124SOL    HW216193   5.607   6.737   1.952  0.4741 -0.7907  1.8957
 5125SOL     OW16194   1.923   0.393   1.924  0.3174  0.2338 -0.2538
 5125SOL    HW116195   1.917   0.414   2.022 -0.8694 -2.3659  0.3089
 5125SOL    HW216196   2.013   0.355   1.904  0.0392 -0.6805  0.1769
 5126SOL     OW16197   3.724   3.845   6.561  0.1453  0.2009 -0.1513
 5126SOL    HW116198   3.789   3.912   6.523  0.6010  0.6354  1.3460
 5126SOL    HW216199   3.746   3.754   6.525 -0.5701  0.8471 -2.3272
 5127SOL     OW16200   4.663   2.317   2.453  0.0087  0.0384  0.2483
 5127SOL    HW116201   4.643   2.228   2.411 -0.5255 -0.2274  1.0495
 5127SOL    HW216202   4.758   2.342   2.434  0.7852 -1.6303  1.6578
 5128SOL     OW16203   2.809   2.890   1.216 -0.2731 -0.1313 -0.1856
 5128SOL    HW116204   2.777   2.826   1.145  1.5547  0.0583 -1.2533
 5128SOL    HW216205   2.821   2.980   1.175  1.1035 -0.0914  0.2765
 5129SOL     OW16206   2.476   4.488   3.215 -0.1749 -0.2612 -0.0093
 5129SOL    HW116207   2.557   4.544   3.194 -0.6415  1.0714  1.5490
 5129SOL    HW216208   2.458   4.490   3.313 -1.4060 -1.5614 -0.1665
 5130SOL     OW16209   6.050   1.495   4.240 -0.2231 -0.7502  0.0096
 5130SOL    HW116210   6.047   1.401   4.206  2.1229 -0.4500 -1.2203
 5130SOL    HW216211   6.137   1.509   4.289 -0.3289  0.8959 -0.2425
 5131SOL     OW16212   2.587   3.803   6.375  0.0213  0.1954 -0.4124
 5131SOL    HW116213   2.529   3.884   6.380  1.7130  1.4119  0.5086
 5131SOL    HW216214   2.656   3.815   6.303  1.5270  0.4889  1.0140
 5132SOL     OW16215   6.172   1.858   1.030 -0.6874 -0.0922  0.0645
 5132SOL    HW116216   6.153   1.902   0.942 -1.9187  0.7750  0.7211
 5132SOL    HW216217   6.222   1.922   1.089 -1.4403  0.0235  0.6017
 5133SOL     OW16218   6.131   4.427   4.030 -0.3752 -0.2014 -0.8715
 5133SOL    HW116219   6.105   4.354   3.967  0.2591  0.6016 -2.1139
 5133SOL    HW216220   6.151   4.510   3.977 -1.0094  0.8538  0.4931
 5134SOL     OW16221   0.799   5.700   5.190  0.2728 -0.6850 -0.4332
 5134SOL    HW116222   0.745   5.640   5.131 -1.9721  0.8669 -0.0241
 5134SOL    HW216223   0.777   5.682   5.286 -1.3583  1.4945 -0.3170
 5135SOL     OW16224   4.763   6.633   1.732 -0.2201 -0.1413  0.0018
 5135SOL    HW116225   4.686   6.624   1.794 -0.5208  2.4815  0.1150
 5135SOL    HW216226   4.734   6.609   1.639 -0.8617 -0.2567  0.2318
 5136SOL     OW16227   1.033   6.988   6.581  0.0321  0.0489  0.5473
 5136SOL    HW116228   0.978   7.033   6.511  0.8703  0.0845 -0.0978
 5136SOL    HW216229   1.113   7.045   6.602  0.5778 -0.6816  0.4548
 5137SOL     OW16230   6.336   3.874   4.858  0.0808 -0.2149  0.4926
 5137SOL    HW116231   6.279   3.791   4.858 -0.4912  0.1718  0.7144
 5137SOL    HW216232   6.277   3.955   4.855  0.6459  0.1898 -1.7984
 5138SOL     OW16233   5.373   4.416   4.982  0.3960  0.0538  0.3595
 5138SOL    HW116234   5.431   4.334   4.977 -0.4407 -0.7168  2.1505
 5138SOL    HW216235   5.292   4.403   4.925  0.1888 -0.4529  0.7552
 5139SOL     OW16236   6.984   1.427   3.106 -0.1627 -0.3033 -0.1525
 5139SOL    HW116237   7.068   1.472   3.076 -0.3216 -0.9881 -1.5715
 5139SOL    HW216238   6.991   1.405   3.203  0.7393  0.8844  0.0709
 5140SOL     OW16239   1.529   5.302   1.657  0.0187 -0.5480 -0.3207
 5140SOL    HW116240   1.454   5.263   1.603  0.0727 -1.1796  0.0474
 5140SOL    HW216241   1.588   5.356   1.598 -0.5235 -0.3458 -0.6861
 5141SOL     OW16242   2.151   5.321   3.948  0.7079 -0.9192  0.1815
 5141SOL    HW116243   2.166   5.245   3.885  0.7310  0.0968 -1.1103
 5141SOL    HW216244   2.222   5.323   4.018  0.2465 -2.5340  0.7243
 5142SOL     OW16245   6.739   2.867   6.764 -0.6516  0.1755  0.5162
 5142SOL    HW116246   6.656   2.920   6.744 -1.3870 -1.2219 -0.2903
 5142SOL    HW216247   6.733   2.830   6.856 -1.3144 -0.5686  0.1892
 5143SOL     OW16248   1.651   0.960   2.142 -0.8467  0.3922 -0.1280
 5143SOL    HW116249   1.619   0.867   2.121  0.9707 -0.3779  0.3293
 5143SOL    HW216250   1.673   1.008   2.057 -2.9279  0.8788 -0.4440
 5144SOL     OW16251   3.468   1.141   0.980 -0.1124  0.2489 -0.0618
 5144SOL    HW116252   3.533   1.130   1.056  0.8323  0.5043 -0.8085
 5144SOL    HW216253   3.518   1.165   0.897 -1.1980  0.6289 -0.6233
 5145SOL     OW16254   3.371   4.772   0.141  0.5974 -0.1761  0.0961
 5145SOL    HW116255   3.273   4.758   0.136  0.4075  1.1356 -0.0529
 5145SOL    HW216256   3.412   4.701   0.199 -0.5277 -0.2568  0.8185
 5146SOL     OW16257   3.736   2.220   2.612  0.2540 -0.0590  0.8974
 5146SOL    HW116258   3.643   2.238   2.579  0.1826 -0.1917  1.0246
 5146SOL    HW216259   3.799   2.221   2.534  0.0080 -0.8989  0.6798
 5147SOL     OW16260   6.357   6.353   1.411  0.2100 -0.7872 -0.5614
 5147SOL    HW116261   6.300   6.368   1.330  0.1772 -0.2757 -0.4485
 5147SOL    HW216262   6.300   6.359   1.493  0.3471 -0.7087 -0.4708
 5148SOL     OW16263   1.633   0.237   4.304  0.0340  0.9580  0.3965
 5148SOL    HW116264   1.596   0.145   4.289  2.6476 -0.2925  0.9688
 5148SOL    HW216265   1.717   0.248   4.251  2.3193  1.2365  3.7312
 5149SOL     OW16266   3.688   0.706   3.274 -0.5298  0.1550 -0.8239
 5149SOL    HW116267   3.783   0.731   3.253 -0.2322 -0.0312  0.2161
 5149SOL    HW216268   3.684   0.609   3.298 -0.7804  0.4011  0.1955
 5150SOL     OW16269   6.100   6.946   2.781 -0.1909  0.5086  0.7883
 5150SOL    HW116270   6.097   6.885   2.702 -0.0119  0.7827  0.5667
 5150SOL    HW216271   6.090   7.041   2.750  1.6927  0.7566  0.8837
 5151SOL     OW16272   4.162   3.740   1.420  0.0433  0.2561  0.4225
 5151SOL    HW116273   4.202   3.783   1.339 -0.2853  0.7271  0.5051
 5151SOL    HW216274   4.064   3.758   1.422  0.0173  0.0848  0.8240
 5152SOL     OW16275   1.095   2.260   1.337  0.5808 -0.3562  0.4317
 5152SOL    HW116276   1.124   2.172   1.300  1.4799  0.5397 -1.0806
 5152SOL    HW216277   1.154   2.286   1.414 -0.7065 -1.7811  1.9971
 5153SOL     OW16278   1.144   2.920   3.640  0.6580 -0.0805  0.1565
 5153SOL    HW116279   1.156   2.979   3.560 -1.8788  0.7717  0.3166
 5153SOL    HW216280   1.158   2.825   3.613  2.1731  0.3529 -0.7250
 5154SOL     OW16281   4.549   4.787   2.945 -0.1620 -0.1352 -0.2369
 5154SOL    HW116282   4.492   4.846   3.003  0.0915 -1.2509  1.2279
 5154SOL    HW216283   4.617   4.842   2.898 -0.5490  0.8635  0.3229
 5155SOL     OW16284   4.695   5.148   2.054  0.5064  0.1023 -0.1661
 5155SOL    HW116285   4.708   5.196   1.967 -0.7854  2.0406  0.6267
 5155SOL    HW216286   4.777   5.158   2.110  0.6922  0.4309 -0.4840
 5156SOL     OW16287   6.024   1.301   3.567  0.1754 -0.0226  0.0021
 5156SOL    HW116288   5.988   1.268   3.479  0.4912 -0.1689 -0.0739
 5156SOL    HW216289   5.948   1.318   3.629  0.0144 -1.3958  0.2228
 5157SOL     OW16290   3.333   0.965   3.543  0.0462 -0.0857  0.1175
 5157SOL    HW116291   3.379   0.877   3.559  0.1717 -0.0610 -0.0978
 5157SOL    HW216292   3.278   0.959   3.460 -0.0692 -0.0080  0.1862
 5158SOL     OW16293   2.376   3.174   3.013 -0.0501 -0.1137  0.4607
 5158SOL    HW116294   2.333   3.264   3.017  0.2995  0.2288 -2.1667
 5158SOL    HW216295   2.474   3.183   3.030  0.0248  0.0413 -0.0478
 5159SOL     OW16296   5.010   6.504   5.852 -0.4006  0.3235 -0.0803
 5159SOL    HW116297   5.027   6.429   5.915 -1.5982  0.5437  0.5376
 5159SOL    HW216298   4.936   6.562   5.887  1.2402  2.4951  0.0682
 5160SOL     OW16299   4.172   1.284   5.146  0.4600  0.0497  0.2178
 5160SOL    HW116300   4.106   1.354   5.119  2.2869  1.0543 -1.9879
 5160SOL    HW216301   4.172   1.211   5.079  0.0477 -1.0779  1.4098
 5161SOL     OW16302   4.960   0.768   6.306  0.1792 -0.1120  0.4533
 5161SOL    HW116303   4.967   0.764   6.207 -3.9680  0.4113 -0.0232
 5161SOL    HW216304   4.993   0.682   6.346  2.5221 -0.0746 -1.2253
 5162SOL     OW16305   3.779   3.741   2.102 -0.4668 -0.7326 -0.0008
 5162SOL    HW116306   3.723   3.705   2.176  0.9161 -1.9878  0.4802
 5162SOL    HW216307   3.876   3.726   2.123  0.1755  2.3783 -0.2775
 5163SOL     OW16308   0.153   1.518   5.691 -0.4124  0.8420  0.1575
 5163SOL    HW116309   0.201   1.532   5.605 -0.3258  0.6219  0.1656
 5163SOL    HW216310   0.086   1.592   5.704  0.4198  1.5555  0.4974
 5164SOL     OW16311   6.503   2.175   4.905  0.1853 -0.1441  0.2698
 5164SOL    HW116312   6.426   2.113   4.918 -0.3532  0.4911  0.2261
 5164SOL    HW216313   6.471   2.258   4.858  0.3879  1.0820  2.1452
 5165SOL     OW16314   3.580   2.276   5.289 -0.0333 -0.3451  0.0751
 5165SOL    HW116315   3.481   2.285   5.280 -0.0602 -0.7807 -0.0791
 5165SOL    HW216316   3.607   2.304   5.381 -0.1688  0.8139 -0.2188
 5166SOL     OW16317   4.220   2.921   6.537  0.8474  0.2243  0.3698
 5166SOL    HW116318   4.189   2.832   6.569 -0.4214  0.2524 -0.7206
 5166SOL    HW216319   4.145   2.969   6.492  1.5439  1.7927  0.7981
 5167SOL     OW16320   2.518   2.887   5.109  0.0886  0.9819  0.1914
 5167SOL    HW116321   2.568   2.801   5.100  0.3849  1.3279 -1.9415
 5167SOL    HW216322   2.569   2.949   5.170  0.8325  0.3283  0.2486
 5168SOL     OW16323   5.340   6.233   3.198  0.4077 -0.4929 -0.2136
 5168SOL    HW116324   5.409   6.204   3.132  1.8623  0.9281  0.6174
 5168SOL    HW216325   5.251   6.195   3.173  1.4424 -2.2477 -1.3982
 5169SOL     OW16326   4.744   6.025   3.842 -0.1633 -0.6046 -0.0415
 5169SOL    HW116327   4.680   6.099   3.859 -0.5213 -0.6755 -0.9728
 5169SOL    HW216328   4.821   6.059   3.788  0.1390 -0.7078  0.3284
 5170SOL     OW16329   0.346   0.509   4.569  0.2254  0.3096  0.6882
 5170SOL    HW116330   0.379   0.603   4.564 -0.5128  0.5459  0.1902
 5170SOL    HW216331   0.270   0.503   4.633 -0.7590  0.3736 -0.4262
 5171SOL     OW16332   1.706   6.073   2.294 -0.0599  0.6676  0.2622
 5171SOL    HW116333   1.756   6.012   2.232 -0.4155 -0.4008  0.9796
 5171SOL    HW216334   1.607   6.059   2.282 -0.1536  1.3347  0.2173
 5172SOL     OW16335   5.530   1.133   5.693 -0.0851  0.1122 -0.2378
 5172SOL    HW116336   5.456   1.114   5.757 -2.7050  2.9422 -2.1503
 5172SOL    HW216337   5.541   1.232   5.684  3.3129 -0.1885 -0.8717
 5173SOL     OW16338   4.587   5.988   2.809  0.2270  0.8185  0.4335
 5173SOL    HW116339   4.565   6.069   2.755 -0.0903  0.2426 -0.3284
 5173SOL    HW216340   4.668   5.943   2.770 -1.2077 -0.7590 -0.8945
 5174SOL     OW16341   2.368   6.950   3.817  0.1832  0.2273  1.0368
 5174SOL    HW116342   2.381   7.016   3.891 -0.7755  0.7714  0.7248
 5174SOL    HW216343   2.273   6.950   3.788  0.6931  0.6688 -0.8013
 5175SOL     OW16344   3.665   2.749   4.069  0.0874 -0.6488 -0.3112
 5175SOL    HW116345   3.722   2.669   4.050 -0.3384 -1.1087  0.3374
 5175SOL    HW216346   3.594   2.756   3.999 -0.5029 -1.4329  0.1849
 5176SOL     OW16347   0.617   3.596   2.029 -0.1219  0.3381  0.5344
 5176SOL    HW116348   0.575   3.672   2.077  0.3265  1.0869 -0.2245
 5176SOL    HW216349   0.713   3.587   2.056 -0.4674 -0.7216  1.5009
 5177SOL     OW16350   1.114   0.299   3.145 -0.2398  0.4518 -0.3298
 5177SOL    HW116351   1.086   0.393   3.130 -1.4847 -0.0380 -1.2837
 5177SOL    HW216352   1.180   0.295   3.220  0.2637  2.1282 -0.6460
 5178SOL     OW16353   6.617   1.992   2.166 -0.1130 -0.1891 -0.0677
 5178SOL    HW116354   6.562   1.935   2.105  1.1003 -0.0838 -1.3404
 5178SOL    HW216355   6.598   2.089   2.147 -0.4031 -0.1537  0.3851
 5179SOL     OW16356   4.699   5.193   4.254  0.3129 -0.0846  0.3439
 5179SOL    HW116357   4.604   5.222   4.250  0.7108  1.3001  0.4356
 5179SOL    HW216358   4.735   5.208   4.346  0.7005 -0.3445  0.2385
 5180SOL     OW16359   1.630   0.607   1.914  0.2441 -0.0957 -0.2082
 5180SOL    HW116360   1.582   0.654   1.988  1.7061  0.3680  0.4871
 5180SOL    HW216361   1.698   0.545   1.952  1.8836  1.0475 -1.1124
 5181SOL     OW16362   5.797   1.235   3.712  0.0316  0.2029 -0.4553
 5181SOL    HW116363   5.742   1.160   3.675  1.1475 -0.5608 -0.6164
 5181SOL    HW216364   5.764   1.322   3.675 -0.2176 -0.3461 -1.5894
 5182SOL     OW16365   0.116   4.260   3.400  0.2956 -0.1041 -0.4430
 5182SOL    HW116366   0.087   4.181   3.347  0.2940 -0.1471 -0.3772
 5182SOL    HW216367   0.140   4.335   3.338 -0.7572  0.2190 -0.4876
 5183SOL     OW16368   1.699   3.924   7.000  0.7691 -0.0641 -0.0140
 5183SOL    HW116369   1.600   3.939   7.004  0.9761  1.3316  0.3530
 5183SOL    HW216370   1.719   3.854   6.932 -0.4073  0.3189 -0.7806
 5184SOL     OW16371   6.901   1.667   6.023  0.1171 -0.4363  0.6920
 5184SOL    HW116372   6.866   1.760   6.038  2.5896  0.5715  0.7781
 5184SOL    HW216373   6.874   1.608   6.099 -3.5159 -0.5205 -0.5048
 5185SOL     OW16374   4.458   5.584   4.930 -0.9634 -0.2795  0.3837
 5185SOL    HW116375   4.460   5.644   4.850  1.0692  0.6437  1.0515
 5185SOL    HW216376   4.398   5.624   5.000 -0.9564  0.1142  0.1710
 5186SOL     OW16377   3.262   3.064   1.531  0.3744  0.3499  0.6028
 5186SOL    HW116378   3.238   3.160   1.547 -0.9121  0.1348  0.0645
 5186SOL    HW216379   3.268   3.016   1.619  0.1062  0.7143  0.8251
 5187SOL     OW16380   4.025   5.412   5.484 -0.6409  0.8051 -0.6887
 5187SOL    HW116381   4.086   5.355   5.540 -1.4860 -0.3966 -0.9455
 5187SOL    HW216382   3.985   5.356   5.412 -0.2579  2.1310 -1.9629
 5188SOL     OW16383   2.550   5.648   3.525  0.1510 -0.1190 -0.7861
 5188SOL    HW116384   2.649   5.634   3.525  0.1012 -0.4524 -0.2212
 5188SOL    HW216385   2.510   5.609   3.608 -0.7074 -1.7747 -1.9294
 5189SOL     OW16386   0.114   0.958   3.046  0.0529 -0.0781  0.7007
 5189SOL    HW116387   0.105   0.917   3.137  0.1603 -3.6073 -0.7596
 5189SOL    HW216388   0.026   0.999   3.019  0.1073  1.2963  2.4381
 5190SOL     OW16389   2.116   4.498   0.135  0.2878  0.2191  0.8007
 5190SOL    HW116390   2.179   4.508   0.057 -0.8407 -0.4333 -0.2337
 5190SOL    HW216391   2.125   4.578   0.195  2.9222 -0.3647  1.3530
 5191SOL     OW16392   4.149   0.727   4.306  0.1448 -0.7809  0.5136
 5191SOL    HW116393   4.161   0.634   4.341 -1.4750 -0.5389  1.8947
 5191SOL    HW216394   4.084   0.776   4.364 -1.2105  0.3219 -1.7652
 5192SOL     OW16395   3.862   5.024   0.491  0.7327 -0.3890  0.5477
 5192SOL    HW116396   3.926   4.950   0.472  0.2167 -1.0072  1.1776
 5192SOL    HW216397   3.782   5.015   0.430  0.7324 -0.2595  0.5251
 5193SOL     OW16398   3.606   1.551   4.987 -0.7099  0.5303  0.3833
 5193SOL    HW116399   3.557   1.469   4.959 -1.0628  1.2184 -1.1713
 5193SOL    HW216400   3.542   1.627   4.999 -0.1818  1.2129 -0.7914
 5194SOL     OW16401   3.145   2.725   3.262  0.1978 -0.2854 -0.0140
 5194SOL    HW116402   3.201   2.798   3.301 -0.3904  0.6661 -0.9137
 5194SOL    HW216403   3.068   2.707   3.323 -0.0492  0.3543 -0.1258
 5195SOL     OW16404   3.206   5.258   6.256  0.1599 -0.0625  0.5232
 5195SOL    HW116405   3.246   5.292   6.171  1.9624 -2.1963  0.4159
 5195SOL    HW216406   3.139   5.187   6.236  0.1600 -0.1652  0.8743
 5196SOL     OW16407   6.671   4.515   3.771  0.1905 -0.0023 -0.0074
 5196SOL    HW116408   6.579   4.516   3.731 -0.4005 -1.0960  1.2600
 5196SOL    HW216409   6.679   4.441   3.837  1.5955  0.8278  0.8212
 5197SOL     OW16410   2.360   6.804   1.319 -0.0525 -0.2885 -0.3260
 5197SOL    HW116411   2.387   6.709   1.337  1.9635  0.5124  1.1348
 5197SOL    HW216412   2.420   6.866   1.369 -0.0314  1.8585 -2.8410
 5198SOL     OW16413   6.747   1.035   1.785  0.0784 -0.2184  0.1468
 5198SOL    HW116414   6.681   0.986   1.729  0.8601  0.8202 -1.7370
 5198SOL    HW216415   6.837   1.031   1.743  1.2077 -1.3072  2.4903
 5199SOL     OW16416   6.482   1.020   5.537 -0.1263  0.7646 -0.4244
 5199SOL    HW116417   6.577   1.024   5.568 -0.1883  1.7245 -0.3351
 5199SOL    HW216418   6.479   0.978   5.446  0.4966  1.5921 -0.8440
 5200SOL     OW16419   1.038   5.299   5.638 -0.7852 -0.4796  0.0339
 5200SOL    HW116420   1.006   5.261   5.552  2.8358 -2.1594 -0.8039
 5200SOL    HW216421   1.109   5.367   5.621 -1.0906  0.3239  1.6895
 5201SOL     OW16422   5.188   3.407   4.432  0.3501 -0.0179  0.6379
 5201SOL    HW116423   5.159   3.457   4.350  1.9771 -0.8680 -0.5033
 5201SOL    HW216424   5.141   3.445   4.512 -1.2645  0.8521 -0.6589
 5202SOL     OW16425   6.542   5.787   0.384 -0.3485 -0.2918  0.3214
 5202SOL    HW116426   6.450   5.751   0.403 -0.4685 -0.1938 -0.0634
 5202SOL    HW216427   6.578   5.832   0.466 -2.0047  2.6452 -0.4471
 5203SOL     OW16428   4.818   5.187   0.234 -0.2175 -0.0402  0.3228
 5203SOL    HW116429   4.834   5.089   0.224 -0.3176 -0.0041 -0.1983
 5203SOL    HW216430   4.902   5.231   0.267  0.0339 -0.2096 -0.0736
 5204SOL     OW16431   5.838   4.065   3.079 -0.0045  0.2699 -0.1426
 5204SOL    HW116432   5.790   4.075   2.992 -0.9292  1.4773  0.4714
 5204SOL    HW216433   5.809   3.981   3.124  1.2543 -0.9268 -1.4377
 5205SOL     OW16434   3.858   5.075   3.551 -0.0954 -0.5284  0.0145
 5205SOL    HW116435   3.945   5.029   3.569  0.4184  0.7122  0.8393
 5205SOL    HW216436   3.870   5.142   3.477 -0.3138 -0.2909  0.1864
 5206SOL     OW16437   0.714   6.912   0.064 -0.4134  0.2959 -0.0484
 5206SOL    HW116438   0.765   6.957  -0.009 -0.3618 -0.8167 -0.7259
 5206SOL    HW216439   0.616   6.920   0.047 -0.5670  2.7129  1.4190
 5207SOL     OW16440   3.393   5.578   5.193 -0.3144  0.1555 -0.3006
 5207SOL    HW116441   3.398   5.664   5.143  0.4884  0.2715 -0.0442
 5207SOL    HW216442   3.398   5.502   5.129 -0.0749  0.3061 -0.4652
 5208SOL     OW16443   5.733   6.553   6.981 -0.4508  0.3126 -0.4897
 5208SOL    HW116444   5.731   6.604   7.066 -0.3071  0.4116 -0.5701
 5208SOL    HW216445   5.817   6.573   6.931 -0.3452 -0.0550 -0.4633
 5209SOL     OW16446   5.312   0.645   2.616  0.7540  0.2875 -0.1628
 5209SOL    HW116447   5.410   0.644   2.601  1.2546  2.1696  2.2700
 5209SOL    HW216448   5.285   0.564   2.668  1.2491  0.3555  0.2126
 5210SOL     OW16449   6.518   2.015   0.301 -0.4327 -0.3244  0.4536
 5210SOL    HW116450   6.441   2.079   0.305 -1.0108 -1.0867  2.7568
 5210SOL    HW216451   6.498   1.943   0.235 -1.6692 -0.4549  0.9474
 5211SOL     OW16452   3.219   4.014   4.568  0.4602  0.5001  0.6485
 5211SOL    HW116453   3.122   3.997   4.583  0.5776 -0.5213  0.4091
 5211SOL    HW216454   3.263   4.039   4.654 -0.0695  1.3234  0.6889
 5212SOL     OW16455   5.690   5.041   4.873 -0.1825  0.1610  0.2026
 5212SOL    HW116456   5.727   5.133   4.888 -0.2851  0.2618 -0.1467
 5212SOL    HW216457   5.663   5.001   4.960  0.6552  0.1277  0.4539
 5213SOL     OW16458   1.986   0.732   3.140  0.2906  0.8080 -0.5199
 5213SOL    HW116459   1.947   0.778   3.220 -0.0651 -0.3880  0.0070
 5213SOL    HW216460   2.023   0.801   3.077  0.9015  1.7573  0.8251
 5214SOL     OW16461   5.957   3.139   3.562 -0.2156  0.0652  0.1251
 5214SOL    HW116462   5.859   3.155   3.551  0.0793  0.8148 -1.8587
 5214SOL    HW216463   5.977   3.043   3.542 -0.5444 -0.1083  0.6077
 5215SOL     OW16464   0.798   4.919   1.157 -0.0573 -0.2241 -0.1210
 5215SOL    HW116465   0.856   4.855   1.106 -0.3378 -0.9925  0.4994
 5215SOL    HW216466   0.749   4.978   1.093  1.5035  0.5495 -0.6447
 5216SOL     OW16467   6.858   3.317   3.239 -0.0140 -0.2568  0.1478
 5216SOL    HW116468   6.919   3.286   3.166 -0.7265  0.2587 -0.6916
 5216SOL    HW216469   6.765   3.322   3.204 -0.3683 -0.0269  1.1079
 5217SOL     OW16470   0.420   1.180   3.682  0.5554 -0.2404 -0.2528
 5217SOL    HW116471   0.417   1.253   3.751  0.2052 -1.8568  1.5022
 5217SOL    HW216472   0.330   1.170   3.640  1.0167  1.4287 -1.7324
 5218SOL     OW16473   0.222   4.321   2.876  0.0971  0.0837  0.1526
 5218SOL    HW116474   0.227   4.277   2.786  1.5026 -1.1968  0.8052
 5218SOL    HW216475   0.169   4.406   2.869  1.3098  0.7451 -2.1895
 5219SOL     OW16476   0.548   3.226   6.845  0.3530 -0.5830  0.3715
 5219SOL    HW116477   0.508   3.310   6.810 -0.7245 -1.5907 -0.9503
 5219SOL    HW216478   0.627   3.200   6.790  0.3332 -0.7452  0.4120
 5220SOL     OW16479   0.145   0.108   0.430 -0.4672  0.3080  0.0414
 5220SOL    HW116480   0.126   0.173   0.503  0.5925  0.7923 -0.1113
 5220SOL    HW216481   0.144   0.156   0.342 -2.7517 -0.4269 -0.4365
 5221SOL     OW16482   2.162   5.063   6.473 -0.0727  0.3299 -0.3911
 5221SOL    HW116483   2.098   4.993   6.441 -1.4384  1.0277  0.6656
 5221SOL    HW216484   2.237   5.072   6.407 -0.9113 -0.7180 -1.5541
 5222SOL     OW16485   4.553   4.458   4.126 -0.6617 -0.0872  0.9955
 5222SOL    HW116486   4.510   4.542   4.093  0.7977  0.3742  0.1632
 5222SOL    HW216487   4.565   4.464   4.225 -0.7283  0.5976  0.9743
 5223SOL     OW16488   1.557   5.857   1.520  0.4969  0.0316  0.1681
 5223SOL    HW116489   1.575   5.912   1.602 -2.5391  1.3944  0.1121
 5223SOL    HW216490   1.547   5.918   1.441  0.2030 -0.9208 -0.5560
 5224SOL     OW16491   1.495   3.233   1.148 -0.5194 -0.0855 -0.3508
 5224SOL    HW116492   1.426   3.165   1.124 -0.2699 -0.3060 -0.4433
 5224SOL    HW216493   1.572   3.188   1.191 -0.2812  0.1216 -0.5602
 5225SOL     OW16494   3.619   4.225   3.109 -0.2246  0.3188  0.5509
 5225SOL    HW116495   3.658   4.235   3.200  0.1390  0.8984  0.3423
 5225SOL    HW216496   3.609   4.315   3.067 -3.2769  0.3555  1.1757
 5226SOL     OW16497   2.018   1.721   5.052 -0.1666 -0.5013 -0.1891
 5226SOL    HW116498   2.088   1.664   5.008 -0.4010 -0.2300 -0.9077
 5226SOL    HW216499   2.022   1.813   5.015 -1.3831 -0.6663 -0.7559
 5227SOL     OW16500   6.417   0.099   6.927  0.2897  0.9198 -0.0415
 5227SOL    HW116501   6.474   0.072   7.004 -0.9679 -0.4191  0.4597
 5227SOL    HW216502   6.367   0.183   6.950  0.7274  1.1208  0.1746
 5228SOL     OW16503   1.844   1.953   1.919 -0.2760 -0.1887 -0.2805
 5228SOL    HW116504   1.792   2.024   1.872  1.8892  1.1187 -0.8712
 5228SOL    HW216505   1.817   1.950   2.016 -1.2140  0.6198 -0.5006
 5229SOL     OW16506   1.965   4.117   6.605  0.1467 -0.0922 -0.9839
 5229SOL    HW116507   1.966   4.184   6.679 -2.1768 -1.1160  0.0510
 5229SOL    HW216508   2.056   4.077   6.596  1.0091  1.5414 -0.1208
 5230SOL     OW16509   0.049   5.275   0.148  0.1677 -0.1450 -0.8023
 5230SOL    HW116510   0.028   5.371   0.164  1.9373 -0.1027  1.8211
 5230SOL    HW216511  -0.008   5.218   0.207  1.0574 -0.5249 -0.2827
 5231SOL     OW16512   3.429   0.872   1.781  0.0878 -0.0653 -0.2102
 5231SOL    HW116513   3.411   0.782   1.742  0.9389 -0.3704  0.0732
 5231SOL    HW216514   3.510   0.867   1.840 -0.5748  0.6043  0.7839
 5232SOL     OW16515   3.718   2.421   6.626 -0.0577  0.1097 -0.5960
 5232SOL    HW116516   3.742   2.461   6.715 -0.6215 -0.7618 -0.0360
 5232SOL    HW216517   3.658   2.483   6.577  1.9387  1.5878 -1.3206
 5233SOL     OW16518   6.992   2.396   5.889 -0.1876 -0.1130 -0.1239
 5233SOL    HW116519   6.942   2.370   5.807 -1.2437  0.8475  0.2057
 5233SOL    HW216520   6.983   2.323   5.957 -1.6009  0.2789  0.1323
 5234SOL     OW16521   2.593   2.183   0.211 -0.1167 -0.3310  0.3581
 5234SOL    HW116522   2.531   2.131   0.153 -2.0306  2.6046 -0.4707
 5234SOL    HW216523   2.568   2.169   0.307 -0.4362 -1.1005  0.1705
 5235SOL     OW16524   0.940   2.737   6.171 -0.1607 -0.0061 -0.3559
 5235SOL    HW116525   0.911   2.811   6.110  1.8185  0.2526 -1.0153
 5235SOL    HW216526   0.904   2.754   6.263  0.2687  1.7877 -0.4883
 5236SOL     OW16527   5.305   6.388   2.416  0.4706  0.3906 -0.4496
 5236SOL    HW116528   5.366   6.444   2.360  1.7880 -0.3618  0.1710
 5236SOL    HW216529   5.349   6.300   2.434 -1.3919 -0.7244 -1.1040
 5237SOL     OW16530   1.027   4.454   6.467  0.2317 -0.0226 -0.0800
 5237SOL    HW116531   1.046   4.532   6.407 -2.2758  0.4954 -0.2909
 5237SOL    HW216532   0.932   4.426   6.457  1.0962 -3.3308 -0.2055
 5238SOL     OW16533   6.416   0.485   2.585 -0.1694  0.7963  0.1452
 5238SOL    HW116534   6.423   0.466   2.682  1.5712  0.0184 -0.0884
 5238SOL    HW216535   6.424   0.584   2.569 -1.9226  1.0730  0.8731
 5239SOL     OW16536   2.314   2.679   0.623 -0.1177  0.1111  0.0267
 5239SOL    HW116537   2.223   2.665   0.584 -0.0656 -1.8251  0.5040
 5239SOL    HW216538   2.384   2.651   0.557  0.0854 -0.0153  0.2925
 5240SOL     OW16539   5.226   5.610   0.676 -0.0943  0.4347 -0.2722
 5240SOL    HW116540   5.268   5.524   0.647 -3.5162 -2.2896  2.0992
 5240SOL    HW216541   5.283   5.653   0.746  1.5192  0.0443 -1.2796
 5241SOL     OW16542   0.891   6.473   1.140 -0.1579  0.0878 -0.2590
 5241SOL    HW116543   0.954   6.536   1.184  0.0556 -0.8293  0.8052
 5241SOL    HW216544   0.920   6.454   1.047  0.0780  1.1166 -0.3986
 5242SOL     OW16545   4.079   6.055   1.089 -0.0907  0.1660 -0.3388
 5242SOL    HW116546   4.086   6.071   1.187  1.6313  1.6642 -0.6605
 5242SOL    HW216547   4.142   5.983   1.062  3.0386  2.8608 -0.9121
 5243SOL     OW16548   6.250   0.711   6.848 -0.3625  0.0824 -0.0379
 5243SOL    HW116549   6.341   0.671   6.837 -0.8833 -1.6978  1.4390
 5243SOL    HW216550   6.256   0.810   6.844  1.3798 -0.0220 -1.5708
 5244SOL     OW16551   4.817   2.377   3.188  0.2406  0.0591 -0.3359
 5244SOL    HW116552   4.786   2.467   3.217  1.7541  0.2928  0.6484
 5244SOL    HW216553   4.737   2.318   3.173 -0.7650  1.5338 -1.0146
 5245SOL     OW16554   5.762   4.156   2.210  0.4388  0.5632 -0.2195
 5245SOL    HW116555   5.795   4.224   2.275 -0.1248  0.3306  0.3235
 5245SOL    HW216556   5.728   4.076   2.259 -1.4405  1.0034 -0.6773
 5246SOL     OW16557   0.853   4.420   1.936 -0.1629  0.2948 -0.1759
 5246SOL    HW116558   0.870   4.331   1.978 -2.5620  0.1414  0.6143
 5246SOL    HW216559   0.876   4.415   1.838  1.6672 -0.5340  0.2421
 5247SOL     OW16560   0.152   4.795   0.980 -0.0631  0.2124 -0.5261
 5247SOL    HW116561   0.249   4.770   0.974 -0.2646 -0.4853 -1.0298
 5247SOL    HW216562   0.098   4.732   0.925 -1.3270 -2.2453  3.2113
 5248SOL     OW16563   2.122   0.813   6.489  0.6041  0.3982 -0.5635
 5248SOL    HW116564   2.164   0.800   6.400 -1.7346  1.0867 -1.8370
 5248SOL    HW216565   2.032   0.769   6.490  0.3213  0.9338  1.2520
 5249SOL     OW16566   0.977   1.473   6.586 -0.2783  0.2634 -0.4410
 5249SOL    HW116567   1.028   1.510   6.508 -0.5995  0.8626 -0.3751
 5249SOL    HW216568   0.931   1.547   6.634 -1.2912 -0.2697 -0.5613
 5250SOL     OW16569   5.525   4.439   0.286  0.8331  0.5251 -0.0052
 5250SOL    HW116570   5.442   4.475   0.244 -0.1237 -0.8741  0.6078
 5250SOL    HW216571   5.563   4.368   0.227  0.9938  0.4239  0.2223
 5251SOL     OW16572   4.977   6.155   1.448  0.1413  0.0173  0.1929
 5251SOL    HW116573   4.929   6.236   1.414 -1.4735 -0.8646  0.2754
 5251SOL    HW216574   4.992   6.164   1.546 -1.9689 -0.6583  0.6252
 5252SOL     OW16575   2.502   5.864   3.951  0.4506 -0.7225 -0.2380
 5252SOL    HW116576   2.439   5.800   3.995 -1.2261  0.0877 -1.3922
 5252SOL    HW216577   2.573   5.891   4.016 -1.2223 -0.5257  1.5778
 5253SOL     OW16578   1.192   1.461   4.684  0.5753  0.1122  0.6050
 5253SOL    HW116579   1.290   1.459   4.661  0.6513 -2.0003  0.8953
 5253SOL    HW216580   1.140   1.411   4.615 -0.2960  0.9098  0.6440
 5254SOL     OW16581   1.729   6.912   0.703 -0.1783  0.5184  0.4471
 5254SOL    HW116582   1.790   6.913   0.783 -0.6543 -1.7836  0.9278
 5254SOL    HW216583   1.781   6.936   0.621  1.1564 -0.3859  0.9913
 5255SOL     OW16584   2.518   2.321   6.330  0.2911 -0.2227 -0.9499
 5255SOL    HW116585   2.597   2.260   6.323  0.1571 -0.7031  1.2121
 5255SOL    HW216586   2.506   2.351   6.425 -1.7380  0.3592 -1.3280
 5256SOL     OW16587   2.161   1.634   6.517  0.3208 -0.1352 -0.2664
 5256SOL    HW116588   2.078   1.641   6.463  0.6073 -0.2699 -0.7296
 5256SOL    HW216589   2.238   1.609   6.458  0.6672 -0.1223  0.1720
 5257SOL     OW16590   5.394   5.589   1.498 -0.3281 -0.2909  0.2795
 5257SOL    HW116591   5.429   5.524   1.565 -1.3168 -0.1474  0.9628
 5257SOL    HW216592   5.298   5.611   1.519  0.2549  2.1674  0.6977
 5258SOL     OW16593   1.272   0.255   5.625  0.3548  0.2353  0.2579
 5258SOL    HW116594   1.272   0.336   5.566  0.5082 -0.0676 -0.1591
 5258SOL    HW216595   1.196   0.195   5.599 -0.4351  0.7497  1.2782
 5259SOL     OW16596   2.396   2.044   0.860 -0.5200 -0.5123 -0.4771
 5259SOL    HW116597   2.301   2.071   0.874 -0.0410  0.6575  0.6652
 5259SOL    HW216598   2.439   2.104   0.793  0.3992  1.3595  1.6800
 5260SOL     OW16599   6.549   6.527   4.674  1.0734  0.5995 -0.4327
 5260SOL    HW116600   6.452   6.518   4.699  1.0283  1.9912  0.0086
 5260SOL    HW216601   6.557   6.579   4.589  1.4351  0.6605 -0.3640
 5261SOL     OW16602   2.222   5.713   0.493 -0.2604 -0.6104  0.0627
 5261SOL    HW116603   2.233   5.753   0.584  0.2717 -0.6739  0.0311
 5261SOL    HW216604   2.275   5.628   0.487 -1.7323 -1.5676  0.2714
 5262SOL     OW16605   5.274   4.589   3.233 -0.1311 -0.0101 -0.0214
 5262SOL    HW116606   5.191   4.629   3.272 -0.3919 -0.2796 -0.2886
 5262SOL    HW216607   5.252   4.498   3.197 -0.0555  0.4796 -1.3699
 5263SOL     OW16608   4.976   2.218   3.016 -1.0568 -0.6160 -0.6401
 5263SOL    HW116609   4.948   2.243   2.924 -0.6495 -0.2235 -0.6650
 5263SOL    HW216610   4.943   2.287   3.081  2.1994  1.4948 -0.9946
 5264SOL     OW16611   3.016   1.006   1.853 -0.2326 -0.0855 -0.2329
 5264SOL    HW116612   2.924   0.998   1.814 -0.0829 -0.3988 -0.5212
 5264SOL    HW216613   3.084   0.978   1.785 -0.1246 -4.6359  1.3624
 5265SOL     OW16614   4.539   5.391   5.129  0.0987  0.4138  0.5794
 5265SOL    HW116615   4.538   5.407   5.228  2.3817  1.6411  0.4786
 5265SOL    HW216616   4.530   5.478   5.081  2.3397  0.2783 -0.1976
 5266SOL     OW16617   6.750   4.314   6.320 -0.5194 -0.3185 -0.2705
 5266SOL    HW116618   6.745   4.411   6.296 -0.5730 -0.4354 -0.7513
 5266SOL    HW216619   6.670   4.289   6.375 -0.6345 -0.1413 -0.3544
 5267SOL     OW16620   6.145   5.457   4.836 -0.1781  0.4106 -0.1401
 5267SOL    HW116621   6.125   5.403   4.755  0.6789  0.4584 -0.3976
 5267SOL    HW216622   6.238   5.495   4.830 -0.7203  1.8817  0.0368
 5268SOL     OW16623   0.198   4.248   6.117  0.2212  0.3281 -0.5471
 5268SOL    HW116624   0.224   4.192   6.038 -0.5031  0.2979 -0.7650
 5268SOL    HW216625   0.272   4.245   6.185 -0.8531 -3.1503  0.6843
 5269SOL     OW16626   0.460   1.336   4.570  0.1909 -0.0305  0.2879
 5269SOL    HW116627   0.525   1.277   4.522 -1.4826 -1.3057 -0.4927
 5269SOL    HW216628   0.452   1.423   4.521  0.7806 -0.1160  0.0269
 5270SOL     OW16629   4.368   4.609   2.297 -0.3906 -0.2520  0.1732
 5270SOL    HW116630   4.344   4.637   2.389 -0.5931 -0.2184  0.1148
 5270SOL    HW216631   4.434   4.673   2.258  0.1382 -0.5833  0.5045
 5271SOL     OW16632   6.696   3.835   6.975  0.0885  0.0052 -0.6972
 5271SOL    HW116633   6.599   3.858   6.972  0.2747  1.0434  0.5705
 5271SOL    HW216634   6.710   3.757   7.036  0.2984  1.4627  1.1794
 5272SOL     OW16635   2.339   4.335   4.817 -0.4137 -0.3238 -0.0513
 5272SOL    HW116636   2.306   4.241   4.816 -3.0352  0.4527  1.5094
 5272SOL    HW216637   2.282   4.389   4.879  0.8557  2.3556 -1.0624
 5273SOL     OW16638   0.976   0.412   5.934  0.1952 -0.2971  0.1120
 5273SOL    HW116639   0.896   0.440   5.881  0.4795  1.6974  0.6537
 5273SOL    HW216640   0.972   0.452   6.025  1.5647 -0.5378  0.3019
 5274SOL     OW16641   5.492   0.472   1.999  0.1491  0.5388 -0.1209
 5274SOL    HW116642   5.551   0.540   1.955  0.8632 -1.6930 -2.8816
 5274SOL    HW216643   5.396   0.499   1.987  0.4370  1.5574 -0.2672
 5275SOL     OW16644   2.905   2.975   4.425 -0.6396 -1.3426  0.0348
 5275SOL    HW116645   2.812   2.959   4.457 -0.5109 -1.2333  0.4750
 5275SOL    HW216646   2.909   3.062   4.376 -1.0941 -2.0709 -1.3485
 5276SOL     OW16647   4.275   1.428   2.163  0.2356  0.3751 -0.4504
 5276SOL    HW116648   4.292   1.340   2.120 -0.4408 -0.5286  1.0122
 5276SOL    HW216649   4.360   1.464   2.201  0.1930 -0.6886  0.7395
 5277SOL     OW16650   5.258   6.503   4.398 -0.1885 -0.0533  0.3015
 5277SOL    HW116651   5.224   6.499   4.492  1.4025  0.3555  0.9278
 5277SOL    HW216652   5.240   6.416   4.353 -1.9956  0.1337  0.5931
 5278SOL     OW16653   4.402   0.173   3.659  0.3063 -0.7464 -1.0466
 5278SOL    HW116654   4.407   0.079   3.625  2.0823 -0.7747 -0.7907
 5278SOL    HW216655   4.332   0.179   3.730  1.7889 -2.4491  0.6380
 5279SOL     OW16656   0.956   1.871   6.420  0.5293  0.5418  0.5998
 5279SOL    HW116657   0.868   1.826   6.436  1.1886 -0.1024  2.7377
 5279SOL    HW216658   0.944   1.970   6.421 -0.2938  0.4598 -0.0328
 5280SOL     OW16659   5.824   6.070   2.031  0.3958  0.2682  0.1120
 5280SOL    HW116660   5.801   5.990   2.088 -2.1076  1.0113  0.2691
 5280SOL    HW216661   5.825   6.152   2.087 -0.9178  0.8523 -0.6799
 5281SOL     OW16662   4.926   2.023   5.145 -0.6550 -0.6084  0.4979
 5281SOL    HW116663   5.021   2.013   5.175 -0.3623  0.9185  0.2043
 5281SOL    HW216664   4.917   2.109   5.094 -2.3350 -0.4460  1.0239
 5282SOL     OW16665   0.230   6.962   2.014 -0.7299  0.3852  0.1671
 5282SOL    HW116666   0.202   6.899   1.942 -1.5309 -0.4646  1.1999
 5282SOL    HW216667   0.195   7.054   1.993  0.8867  0.6185 -1.6059
 5283SOL     OW16668   6.207   5.644   6.444 -0.1125 -0.0210 -0.3371
 5283SOL    HW116669   6.282   5.599   6.396 -0.4812  0.5407 -1.4644
 5283SOL    HW216670   6.149   5.692   6.378 -0.8825  0.4046  0.6275
 5284SOL     OW16671   0.119   6.088   1.708  0.1950 -0.1915  0.4339
 5284SOL    HW116672   0.068   6.016   1.660  0.1076 -0.2179  0.5658
 5284SOL    HW216673   0.189   6.125   1.647 -0.4557  0.3460  0.0121
 5285SOL     OW16674   4.663   5.263   6.503  0.5993  0.2445 -0.3159
 5285SOL    HW116675   4.584   5.281   6.561  0.0431 -0.1881 -0.9255
 5285SOL    HW216676   4.747   5.266   6.558  0.1936  1.0488  0.2694
 5286SOL     OW16677   1.631   3.674   3.796  0.3353 -0.8709 -0.7388
 5286SOL    HW116678   1.616   3.720   3.708 -0.1597 -0.9653 -0.7066
 5286SOL    HW216679   1.565   3.600   3.807 -2.0111  1.3636  1.2506
 5287SOL     OW16680   4.543   0.078   1.865  0.3081 -0.4304  0.0929
 5287SOL    HW116681   4.623   0.090   1.806  0.8832 -0.5193  0.8308
 5287SOL    HW216682   4.536  -0.018   1.892  0.2847 -0.3203  0.4826
 5288SOL     OW16683   2.228   6.201   5.409  0.4961  0.3735 -0.3575
 5288SOL    HW116684   2.303   6.183   5.472 -0.7185  0.6171  1.2122
 5288SOL    HW216685   2.239   6.144   5.327  0.9695 -1.6215  1.0047
 5289SOL     OW16686   5.005   0.622   5.658  0.0687  0.0030  0.3001
 5289SOL    HW116687   4.932   0.667   5.709 -1.2397  0.3671 -1.7572
 5289SOL    HW216688   5.049   0.688   5.596  0.5861 -0.7343 -0.1318
 5290SOL     OW16689   2.217   0.956   3.610 -0.6539  0.3251  0.1830
 5290SOL    HW116690   2.220   0.875   3.551 -0.6544  1.0778 -0.8934
 5290SOL    HW216691   2.308   0.998   3.613 -1.0515  1.3436 -0.8480
 5291SOL     OW16692   6.265   3.358   0.417  0.4066  0.1017 -0.2866
 5291SOL    HW116693   6.243   3.342   0.321  1.0318  2.0291 -0.7996
 5291SOL    HW216694   6.295   3.453   0.429  3.4271 -0.8938  1.2296
 5292SOL     OW16695   5.643   0.715   3.844 -0.8646  0.0427 -0.0705
 5292SOL    HW116696   5.737   0.743   3.826 -1.2697  0.3426 -1.9195
 5292SOL    HW216697   5.630   0.620   3.814 -1.3447  0.2689 -0.6058
 5293SOL     OW16698   6.065   5.402   1.920  0.1266  0.2782 -0.7557
 5293SOL    HW116699   6.003   5.325   1.907  1.3620 -0.6785 -1.0663
 5293SOL    HW216700   6.054   5.467   1.845 -0.2576 -0.0430 -0.9799
 5294SOL     OW16701   5.733   4.277   1.539  0.2776 -0.2455 -0.3078
 5294SOL    HW116702   5.769   4.348   1.478 -2.2963  0.5997 -0.9556
 5294SOL    HW216703   5.777   4.285   1.629  2.3892  0.0243 -1.3128
 5295SOL     OW16704   1.612   5.293   5.215  0.2523 -0.4067 -0.2280
 5295SOL    HW116705   1.630   5.195   5.205  1.8774 -0.3249  1.3645
 5295SOL    HW216706   1.689   5.345   5.178  1.1118  0.1352  2.1729
 5296SOL     OW16707   3.573   5.200   1.826  0.2515 -0.0527  0.1028
 5296SOL    HW116708   3.510   5.173   1.899  1.0572 -1.4940  0.3215
 5296SOL    HW216709   3.545   5.157   1.740  0.4979 -0.0869  0.0360
 5297SOL     OW16710   4.604   2.408   5.201 -0.2478  0.1894 -0.1340
 5297SOL    HW116711   4.534   2.353   5.157 -0.8305 -0.6536  1.7716
 5297SOL    HW216712   4.691   2.359   5.199  0.2859  1.0530 -2.1107
 5298SOL     OW16713   0.525   2.743   3.096 -0.2182  0.5315  0.0424
 5298SOL    HW116714   0.470   2.822   3.125  0.2482 -0.3387  3.9334
 5298SOL    HW216715   0.477   2.659   3.119  1.0582 -0.2860 -0.1563
 5299SOL     OW16716   2.049   5.358   4.707  0.6036  0.3007  0.5633
 5299SOL    HW116717   2.114   5.428   4.679 -0.7596  1.3581 -0.0646
 5299SOL    HW216718   2.054   5.281   4.643 -0.9148  1.7376 -1.4222
 5300SOL     OW16719   2.017   5.333   5.621 -0.4470  0.3561  0.5195
 5300SOL    HW116720   2.005   5.337   5.720 -1.0176  1.4889  0.4242
 5300SOL    HW216721   2.023   5.238   5.592  0.8465  0.0152  1.7512
 5301SOL     OW16722   1.494   0.068   3.559 -0.0052 -0.1826 -0.6922
 5301SOL    HW116723   1.567   0.091   3.624 -0.6525 -0.6949  0.2489
 5301SOL    HW216724   1.411   0.120   3.581  0.3409  1.1736 -2.3846
 5302SOL     OW16725   1.779   2.104   6.298 -0.5246  0.4685 -0.0977
 5302SOL    HW116726   1.854   2.040   6.281 -1.2406 -0.1896 -0.8479
 5302SOL    HW216727   1.726   2.071   6.376 -0.5558  0.4693 -0.1180
 5303SOL     OW16728   2.081   1.353   5.853  0.7770 -0.3923  0.4515
 5303SOL    HW116729   2.013   1.361   5.926  0.7076  1.7627  0.2349
 5303SOL    HW216730   2.103   1.445   5.819 -0.1859 -1.3777 -3.2125
 5304SOL     OW16731   2.104   6.951   3.709 -0.1082 -0.0772 -0.2769
 5304SOL    HW116732   2.058   6.950   3.620  0.3405  0.0513 -0.5121
 5304SOL    HW216733   2.044   6.911   3.778 -0.3075 -0.5533 -0.7111
 5305SOL     OW16734   0.036   4.937   3.785  0.4960 -0.1994  0.0359
 5305SOL    HW116735   0.005   4.957   3.692 -0.8284  1.5131  0.7898
 5305SOL    HW216736  -0.036   4.890   3.835  0.5794  0.3436  0.6602
 5306SOL     OW16737   1.545   6.020   6.441 -0.6881 -1.2301 -0.1687
 5306SOL    HW116738   1.446   6.001   6.438 -0.8071 -0.9157  1.2909
 5306SOL    HW216739   1.595   5.938   6.413 -1.3517 -1.1226 -1.8595
 5307SOL     OW16740   5.119   0.719   2.412 -0.0948  0.3398  0.1393
 5307SOL    HW116741   5.064   0.638   2.391 -1.8916  1.5215  0.0200
 5307SOL    HW216742   5.194   0.694   2.473 -0.9342 -1.3070  0.5454
 5308SOL     OW16743   5.077   0.239   4.229  0.1356 -0.5406 -0.3025
 5308SOL    HW116744   5.146   0.308   4.251 -0.5782  0.2890 -0.5899
 5308SOL    HW216745   4.999   0.248   4.291  0.1272 -1.2478 -0.1952
 5309SOL     OW16746   2.302   6.464   0.753  0.6605  0.2808  0.4516
 5309SOL    HW116747   2.242   6.544   0.757 -0.1345 -0.0625 -2.3493
 5309SOL    HW216748   2.341   6.456   0.661  1.6682 -1.8798  1.0009
 5310SOL     OW16749   2.543   1.191   0.176 -0.2301  0.2167 -0.0438
 5310SOL    HW116750   2.512   1.226   0.087 -2.3055  0.0182  0.5513
 5310SOL    HW216751   2.464   1.176   0.235  0.6999 -3.2406  0.5596
 5311SOL     OW16752   5.880   5.983   5.718  0.2603 -0.0881  0.3607
 5311SOL    HW116753   5.825   6.026   5.789  0.0606  0.1068  0.0862
 5311SOL    HW216754   5.913   5.894   5.751  0.5453  0.1981  0.8714
 5312SOL     OW16755   1.047   1.245   6.946  0.0897  0.0830 -0.0469
 5312SOL    HW116756   1.012   1.307   7.017  0.4876  2.3958 -1.7566
 5312SOL    HW216757   0.980   1.239   6.872  0.7200 -0.2749 -0.5912
 5313SOL     OW16758   5.119   3.652   1.696  0.3530 -0.2519 -0.6042
 5313SOL    HW116759   5.081   3.744   1.688  1.6567  0.2945 -0.6690
 5313SOL    HW216760   5.085   3.594   1.622 -1.5439 -0.2178  0.2034
 5314SOL     OW16761   4.609   2.256   2.044  0.5770  0.2155  0.2566
 5314SOL    HW116762   4.547   2.256   2.121 -0.2625 -1.7620 -0.3521
 5314SOL    HW216763   4.587   2.180   1.983  2.7957  0.1981 -0.6416
 5315SOL     OW16764   5.043   6.086   4.711  0.5826 -0.6745 -0.5454
 5315SOL    HW116765   5.088   6.134   4.787 -1.0898 -0.4911  0.3797
 5315SOL    HW216766   5.108   6.076   4.635  2.3848 -1.0886  0.9836
 5316SOL     OW16767   6.264   6.461   3.046 -0.4274  0.0881  0.1488
 5316SOL    HW116768   6.170   6.450   3.075 -0.3671 -1.4225 -0.1391
 5316SOL    HW216769   6.267   6.517   2.963 -1.1333 -0.3532 -0.1834
 5317SOL     OW16770   0.260   6.405   2.918 -0.1821 -0.3043 -0.6495
 5317SOL    HW116771   0.335   6.370   2.974 -0.9152 -0.5195  0.2139
 5317SOL    HW216772   0.269   6.505   2.910 -0.1141 -0.2575 -0.0734
 5318SOL     OW16773   2.021   6.143   1.781 -0.4298 -0.4369  0.1759
 5318SOL    HW116774   1.982   6.137   1.689  2.6065  0.5947 -1.3562
 5318SOL    HW216775   2.065   6.056   1.804 -0.1462 -0.3095  0.1162
 5319SOL     OW16776   5.462   3.332   4.596 -0.7371 -0.3438 -0.2112
 5319SOL    HW116777   5.376   3.380   4.578 -0.4381 -0.8834 -3.6028
 5319SOL    HW216778   5.532   3.399   4.625 -1.4668  0.6192 -0.5972
 5320SOL     OW16779   6.458   1.881   1.773  0.8763  0.0731 -0.2875
 5320SOL    HW116780   6.481   1.820   1.697 -1.8634  1.4806 -2.4257
 5320SOL    HW216781   6.497   1.971   1.756  1.9116 -0.1018  1.0323
 5321SOL     OW16782   2.411   1.353   0.490  0.5972  0.0487  0.4246
 5321SOL    HW116783   2.355   1.337   0.571 -1.6475  1.2321 -0.8314
 5321SOL    HW216784   2.464   1.270   0.470  0.0082 -0.7960  2.1685
 5322SOL     OW16785   2.301   5.786   6.548 -0.1659 -0.3972 -0.3030
 5322SOL    HW116786   2.389   5.815   6.509  1.1448 -0.3571  2.4451
 5322SOL    HW216787   2.312   5.698   6.593 -1.9909 -1.1615 -1.2801
 5323SOL     OW16788   0.645   3.100   3.775 -0.3896  0.1702 -0.1224
 5323SOL    HW116789   0.613   3.187   3.814  3.7032  0.8986  2.2017
 5323SOL    HW216790   0.721   3.118   3.713  0.7735 -1.7008  0.6934
 5324SOL     OW16791   6.336   6.862   4.607  0.2386 -0.0245 -0.0910
 5324SOL    HW116792   6.387   6.894   4.527 -0.0757 -1.8418 -1.0482
 5324SOL    HW216793   6.394   6.872   4.688  1.6377 -0.8029 -0.9515
 5325SOL     OW16794   6.181   3.040   4.136 -0.1350 -0.1682 -0.6216
 5325SOL    HW116795   6.241   3.070   4.062 -2.3086 -2.2599 -3.5028
 5325SOL    HW216796   6.236   3.000   4.209  2.0922  0.1188 -2.0139
 5326SOL     OW16797   1.170   1.280   0.632 -0.0675  0.4118 -0.2601
 5326SOL    HW116798   1.204   1.313   0.720  0.2565 -1.6862  0.4516
 5326SOL    HW216799   1.124   1.192   0.645  1.6931 -0.9653 -2.3826
 5327SOL     OW16800   5.864   2.681   6.247 -0.4717  0.5167  0.0105
 5327SOL    HW116801   5.843   2.704   6.342 -0.3174 -1.0428  0.4412
 5327SOL    HW216802   5.928   2.605   6.244 -0.5328  0.4905 -1.3478
 5328SOL     OW16803   6.730   3.526   0.450 -0.7704 -0.1387 -0.1527
 5328SOL    HW116804   6.762   3.443   0.496 -0.2642 -0.4202 -0.9928
 5328SOL    HW216805   6.745   3.605   0.509 -0.7876 -0.5754  0.4504
 5329SOL     OW16806   4.149   4.380   5.210  0.2119 -0.3207 -0.0563
 5329SOL    HW116807   4.052   4.366   5.194  0.0260 -0.1625  0.9143
 5329SOL    HW216808   4.202   4.319   5.150 -0.5151 -1.8763  0.8317
 5330SOL     OW16809   4.318   3.571   1.587 -0.1854 -0.5689  0.8626
 5330SOL    HW116810   4.311   3.621   1.673  3.9224  3.7724 -0.8597
 5330SOL    HW216811   4.265   3.618   1.516 -0.5141 -1.8372  0.2214
 5331SOL     OW16812   2.762   5.124   2.340  0.5662 -0.1592  0.9291
 5331SOL    HW116813   2.843   5.137   2.283 -0.1550 -0.1952 -0.1381
 5331SOL    HW216814   2.685   5.173   2.300  0.1916  0.3615  2.2525
 5332SOL     OW16815   5.976   0.663   3.030  0.3072 -0.3596 -0.1273
 5332SOL    HW116816   5.994   0.703   3.120  1.6778 -0.4691 -0.3322
 5332SOL    HW216817   5.911   0.588   3.040  0.8388 -0.7245  0.8707
 5333SOL     OW16818   2.708   6.570   4.045 -0.6614 -0.2983 -0.3729
 5333SOL    HW116819   2.666   6.633   3.980 -1.0187  0.6316  0.7037
 5333SOL    HW216820   2.643   6.550   4.119  0.2530 -0.0146  0.5405
 5334SOL     OW16821   3.329   6.759   6.935 -0.4100  0.2815 -0.1483
 5334SOL    HW116822   3.316   6.675   6.882 -0.6115 -0.5769  1.2278
 5334SOL    HW216823   3.424   6.763   6.968 -1.2043 -1.0626  2.4848
 5335SOL     OW16824   1.703   0.488   6.894  0.3319 -0.3396  0.3838
 5335SOL    HW116825   1.799   0.461   6.902  0.4833  0.4917  1.8645
 5335SOL    HW216826   1.646   0.407   6.879  1.1959 -0.9028  0.0916
 5336SOL     OW16827   5.085   1.360   3.880 -0.2081  0.3160  0.6949
 5336SOL    HW116828   5.040   1.301   3.947  0.0544  0.3912  0.9407
 5336SOL    HW216829   5.184   1.346   3.884 -0.2014  0.2094  0.2137
 5337SOL     OW16830   2.401   5.613   5.691 -0.6838  0.1506  0.3502
 5337SOL    HW116831   2.460   5.661   5.627  0.0822 -0.1216  0.8314
 5337SOL    HW216832   2.320   5.668   5.711 -0.0305  1.0425  0.5752
 5338SOL     OW16833   5.026   2.159   1.435  0.1392 -0.0658 -0.2527
 5338SOL    HW116834   5.028   2.157   1.535 -0.3026 -2.6623 -0.2417
 5338SOL    HW216835   5.082   2.085   1.398 -0.0885  0.5427 -1.9385
 5339SOL     OW16836   4.887   2.975   1.872  0.0861 -0.0239 -0.4540
 5339SOL    HW116837   4.858   2.938   1.784 -0.0605  0.2060 -0.5020
 5339SOL    HW216838   4.846   2.920   1.946  2.1507 -1.7798 -0.5098
 5340SOL     OW16839   2.875   4.327   2.961  0.1309  0.5265  0.0040
 5340SOL    HW116840   2.814   4.249   2.970  1.8460 -0.6813  2.2320
 5340SOL    HW216841   2.881   4.376   3.047  2.1166  0.6654 -0.1418
 5341SOL     OW16842   3.391   0.418   3.949 -0.0986  0.6773  0.2172
 5341SOL    HW116843   3.385   0.346   3.879 -1.1113  1.1230 -0.1741
 5341SOL    HW216844   3.456   0.487   3.918  0.2709  0.3310  0.2112
 5342SOL     OW16845   0.365   4.487   5.840  0.4769  0.0348 -0.4159
 5342SOL    HW116846   0.271   4.471   5.812  1.1505  0.0581 -2.8321
 5342SOL    HW216847   0.427   4.446   5.773  2.1965  1.8937 -0.0454
 5343SOL     OW16848   4.605   6.887   5.033 -0.0992  0.4462  0.5428
 5343SOL    HW116849   4.687   6.838   5.006 -0.8078 -1.6518  1.8628
 5343SOL    HW216850   4.590   6.875   5.132 -0.9029  2.5038  0.7289
 5344SOL     OW16851   4.746   2.656   2.956  0.2315 -0.5372 -0.4262
 5344SOL    HW116852   4.837   2.622   2.932 -0.1353 -1.1830 -1.0114
 5344SOL    HW216853   4.734   2.653   3.055  0.6885 -0.8699 -0.3757
 5345SOL     OW16854   3.098   6.364   1.645  0.1908  0.5536 -0.1319
 5345SOL    HW116855   3.124   6.286   1.702 -2.1403  0.2445  0.6387
 5345SOL    HW216856   3.123   6.449   1.691 -1.0402  0.2963  1.0595
 5346SOL     OW16857   3.293   5.290   1.041  0.0499 -0.0607 -0.4023
 5346SOL    HW116858   3.301   5.257   0.946  1.3686  0.4497 -0.5055
 5346SOL    HW216859   3.232   5.369   1.044  1.3257  1.0058 -1.1633
 5347SOL     OW16860   6.455   2.086   2.594  0.0166  0.0521  0.0262
 5347SOL    HW116861   6.377   2.141   2.564  0.5929  0.9110  0.0518
 5347SOL    HW216862   6.479   2.022   2.521  1.0108  1.6990 -1.1665
 5348SOL     OW16863   5.387   5.245   2.645 -0.1353  0.0518  0.1368
 5348SOL    HW116864   5.451   5.184   2.691 -0.6330 -4.5574 -4.4710
 5348SOL    HW216865   5.300   5.245   2.694  0.1262 -2.3979  0.7222
 5349SOL     OW16866   0.545   3.609   5.935  0.2308 -0.3033 -0.6216
 5349SOL    HW116867   0.517   3.661   5.854  0.1259  0.5706 -0.0306
 5349SOL    HW216868   0.633   3.564   5.916 -0.8578 -1.9670 -2.0015
 5350SOL     OW16869   0.501   0.300   6.254  0.1338 -0.1961  0.6507
 5350SOL    HW116870   0.442   0.238   6.202  0.9119 -0.7952  0.4531
 5350SOL    HW216871   0.457   0.323   6.341 -0.9041  0.3244 -0.0026
 5351SOL     OW16872   3.805   1.623   3.942  0.3836 -0.2347  0.8168
 5351SOL    HW116873   3.836   1.672   3.861 -1.0932  1.4444  1.2126
 5351SOL    HW216874   3.878   1.564   3.976  1.2830 -0.3681 -1.2552
 5352SOL     OW16875   5.619   5.473   2.527  0.2546  0.1396  0.0129
 5352SOL    HW116876   5.717   5.474   2.512  0.3435 -2.1051  0.0777
 5352SOL    HW216877   5.572   5.495   2.442  0.8390 -1.2325 -0.7018
 5353SOL     OW16878   5.965   6.660   3.799 -0.6498 -0.6134  0.6328
 5353SOL    HW116879   5.978   6.607   3.715  1.8654 -0.4909  0.8730
 5353SOL    HW216880   5.908   6.608   3.862  0.2825 -2.3034  0.1695
 5354SOL     OW16881   1.115   3.171   0.548  0.0791 -0.4529 -0.0284
 5354SOL    HW116882   1.201   3.124   0.567  0.5958  0.6312  0.3983
 5354SOL    HW216883   1.076   3.137   0.463  0.9431 -0.9294 -0.2394
 5355SOL     OW16884   4.390   2.388   1.156  0.1752 -0.0409 -0.4570
 5355SOL    HW116885   4.373   2.297   1.117 -2.2261 -0.8606  2.1422
 5355SOL    HW216886   4.457   2.382   1.229 -0.0062  0.2706 -0.2599
 5356SOL     OW16887   0.115   4.499   5.708  0.1160  0.3793 -0.4972
 5356SOL    HW116888   0.173   4.551   5.645  0.1806 -0.0053 -0.7613
 5356SOL    HW216889   0.026   4.543   5.717  0.4311  0.9620 -0.1164
 5357SOL     OW16890   4.015   2.441   5.947 -0.5036  0.2848  0.1750
 5357SOL    HW116891   4.052   2.378   6.015  0.6552  0.7908  0.0325
 5357SOL    HW216892   4.087   2.466   5.882 -1.0470  1.4294 -0.0084
 5358SOL     OW16893   2.291   4.650   5.079  0.3063  0.3833 -0.2194
 5358SOL    HW116894   2.376   4.683   5.121  0.2998  1.3041 -0.9446
 5358SOL    HW216895   2.213   4.690   5.127  0.2423 -0.9927  0.8972
 5359SOL     OW16896   5.844   4.692   6.018 -0.6866  0.1490  0.4428
 5359SOL    HW116897   5.889   4.745   6.089 -1.4912  0.5855  0.6460
 5359SOL    HW216898   5.831   4.598   6.049  0.4907 -0.0985  0.1989
 5360SOL     OW16899   3.085   1.556   6.316  0.5840  0.4341  0.8044
 5360SOL    HW116900   3.024   1.542   6.238 -0.3665 -0.7633  1.7198
 5360SOL    HW216901   3.043   1.620   6.380  0.9295  0.6813  0.7881
 5361SOL     OW16902   2.527   1.309   6.941  0.4329  0.0154 -0.4152
 5361SOL    HW116903   2.590   1.265   6.877  1.5730  0.9128  0.0450
 5361SOL    HW216904   2.436   1.315   6.900  0.7376 -0.9267 -1.2699
 5362SOL     OW16905   1.306   0.235   2.797 -0.2702 -0.0278  0.3913
 5362SOL    HW116906   1.382   0.280   2.751 -0.1492 -0.8431 -0.2241
 5362SOL    HW216907   1.229   0.298   2.803  0.6907  1.0792  1.7296
 5363SOL     OW16908   4.312   5.765   5.130  0.2638 -0.3841  0.0292
 5363SOL    HW116909   4.295   5.863   5.121  0.4286 -0.3116  0.5211
 5363SOL    HW216910   4.230   5.714   5.100 -0.5772 -0.0531  1.6565
 5364SOL     OW16911   2.338   4.901   3.450  0.3264 -0.2323 -0.0692
 5364SOL    HW116912   2.372   4.987   3.490  0.5837 -0.6145  0.5626
 5364SOL    HW216913   2.255   4.872   3.499  1.2600 -1.2780  0.9644
 5365SOL     OW16914   4.013   5.427   2.853  0.6647 -0.2705  0.2737
 5365SOL    HW116915   4.075   5.442   2.776  1.1572  2.1076  1.0390
 5365SOL    HW216916   4.062   5.379   2.926  0.8045 -0.7619 -0.1432
 5366SOL     OW16917   4.971   5.838   1.809  0.2161  0.6175 -0.1110
 5366SOL    HW116918   4.923   5.750   1.808  0.9640  0.1833 -2.5650
 5366SOL    HW216919   4.913   5.907   1.851 -1.6400 -0.3938 -0.9195
 5367SOL     OW16920   6.452   4.833   6.609  0.6532  0.0454  0.0547
 5367SOL    HW116921   6.412   4.914   6.653  1.1009  0.9034 -1.0701
 5367SOL    HW216922   6.551   4.841   6.608  0.7551 -0.9611  0.7413
 5368SOL     OW16923   3.454   2.975   0.943 -0.3819  0.0207  0.0619
 5368SOL    HW116924   3.447   2.919   0.860  0.4681  0.8273 -0.5861
 5368SOL    HW216925   3.401   3.058   0.931 -2.4341 -1.0085  1.3978
 5369SOL     OW16926   4.558   6.686   6.938 -0.1908  0.1693  0.1594
 5369SOL    HW116927   4.553   6.753   7.013 -0.4543  1.9238 -1.3743
 5369SOL    HW216928   4.491   6.709   6.868  1.4290 -0.1931 -1.5992
 5370SOL     OW16929   3.251   2.755   1.469  0.0805  0.7376  0.0183
 5370SOL    HW116930   3.163   2.800   1.457 -0.2450 -0.1586 -1.1922
 5370SOL    HW216931   3.264   2.688   1.396  2.5912  2.1745 -0.9672
 5371SOL     OW16932   0.747   6.130   3.064 -0.3270 -0.2917  0.0096
 5371SOL    HW116933   0.809   6.106   2.988  0.8220  2.9319 -0.2376
 5371SOL    HW216934   0.801   6.143   3.147 -0.8388  1.2829  0.1139
 5372SOL     OW16935   2.032   5.483   3.296  0.0582 -0.6539  0.6024
 5372SOL    HW116936   2.028   5.573   3.341  0.9733 -0.2175 -0.1495
 5372SOL    HW216937   2.108   5.483   3.230  0.8032 -2.3643  1.4103
 5373SOL     OW16938   2.538   5.223   0.914  0.2647 -0.0619  0.5328
 5373SOL    HW116939   2.452   5.182   0.883 -0.9757  2.8426 -0.2707
 5373SOL    HW216940   2.524   5.268   1.002  0.5803  1.4385 -0.1546
 5374SOL     OW16941   0.870   3.128   3.641  0.3671 -0.3651 -0.0028
 5374SOL    HW116942   0.915   3.108   3.728 -0.1373 -1.4180  0.0407
 5374SOL    HW216943   0.939   3.130   3.568  0.6887 -0.3179  0.2978
 5375SOL     OW16944   2.345   4.373   2.816  0.2670  0.1164 -0.4501
 5375SOL    HW116945   2.299   4.326   2.741  0.7072  0.3535 -0.8693
 5375SOL    HW216946   2.443   4.382   2.796  0.3615  0.3406  0.0673
 5376SOL     OW16947   5.643   3.563   4.659 -0.0487 -0.2552 -0.0852
 5376SOL    HW116948   5.676   3.614   4.738  2.5310 -0.1796 -1.1328
 5376SOL    HW216949   5.590   3.624   4.600  0.7250  0.5318  0.0144
 5377SOL     OW16950   4.760   6.432   3.891 -0.1767 -0.3766 -0.5462
 5377SOL    HW116951   4.857   6.429   3.867  0.2361 -0.8758  1.0541
 5377SOL    HW216952   4.731   6.527   3.901  0.9153 -0.2098  1.7050
 5378SOL     OW16953   6.070   2.749   5.613 -0.2979 -0.1355  0.0116
 5378SOL    HW116954   6.082   2.739   5.712 -0.2843 -0.9788 -0.0718
 5378SOL    HW216955   6.137   2.692   5.565 -1.0061 -0.5710 -0.4781
 5379SOL     OW16956   3.680   3.002   6.338 -0.0858 -0.5069 -0.4533
 5379SOL    HW116957   3.688   3.020   6.240  0.0940  1.6191 -0.0967
 5379SOL    HW216958   3.614   2.929   6.354 -2.8716  1.4891 -2.0056
 5380SOL     OW16959   5.451   1.717   6.304 -0.0885  0.3180  0.1188
 5380SOL    HW116960   5.407   1.789   6.250  1.1232  1.4186  0.5758
 5380SOL    HW216961   5.549   1.718   6.288 -0.1607 -1.9076 -0.6346
 5381SOL     OW16962   2.513   6.107   4.668 -0.6734  0.2511 -0.0855
 5381SOL    HW116963   2.594   6.084   4.723 -0.2758  2.5544  0.3899
 5381SOL    HW216964   2.490   6.029   4.609  0.9728 -1.0129  0.8448
 5382SOL     OW16965   2.275   1.456   5.200  0.1488 -0.1706 -0.1570
 5382SOL    HW116966   2.204   1.441   5.269  0.9369  0.3662  0.7990
 5382SOL    HW216967   2.364   1.430   5.238  0.5162 -0.5346 -1.2214
 5383SOL     OW16968   6.095   5.251   4.322  0.8351  0.4169  0.3736
 5383SOL    HW116969   6.181   5.200   4.324 -0.1801 -1.3843  1.8115
 5383SOL    HW216970   6.040   5.219   4.245  0.6182  0.0806  0.6669
 5384SOL     OW16971   2.437   0.842   5.738  0.0649  0.0080  0.0447
 5384SOL    HW116972   2.441   0.823   5.836  1.7977 -1.1911 -0.1904
 5384SOL    HW216973   2.377   0.775   5.693  0.0538 -0.0721  0.1776
 5385SOL     OW16974   4.785   2.378   5.635 -0.7492 -0.4750 -0.0499
 5385SOL    HW116975   4.746   2.470   5.641 -1.1297 -0.7176  2.2343
 5385SOL    HW216976   4.789   2.350   5.540 -1.1872  1.6598 -0.7665
 5386SOL     OW16977   1.178   3.345   5.636  0.6969  0.0699  0.0679
 5386SOL    HW116978   1.178   3.441   5.664  0.3741 -0.4051  1.7831
 5386SOL    HW216979   1.140   3.337   5.544  1.2036  1.6330 -0.3033
 5387SOL     OW16980   6.023   6.220   2.160  0.5142 -0.7533 -0.5598
 5387SOL    HW116981   6.006   6.318   2.168 -0.3536 -0.5397 -3.5095
 5387SOL    HW216982   6.027   6.179   2.251 -2.6838  1.3729  0.7446
 5388SOL     OW16983   0.048   0.105   4.777  0.4151 -0.0830  0.7068
 5388SOL    HW116984  -0.050   0.088   4.780  0.6176 -1.0859  0.9423
 5388SOL    HW216985   0.088   0.086   4.867  0.4792  2.6704  1.3599
 5389SOL     OW16986   1.287   2.747   5.927  0.7048  0.6346  0.1299
 5389SOL    HW116987   1.273   2.700   6.015  0.4423  0.3207 -0.0789
 5389SOL    HW216988   1.203   2.745   5.874  1.2167 -0.3488 -0.6912
 5390SOL     OW16989   1.607   5.653   5.921  0.2634 -0.1195 -0.0372
 5390SOL    HW116990   1.670   5.729   5.903  1.7478 -1.3407 -0.1339
 5390SOL    HW216991   1.596   5.599   5.837  0.1654 -0.6997  0.3508
 5391SOL     OW16992   4.032   1.198   3.169  0.1006 -0.9277 -0.5842
 5391SOL    HW116993   3.935   1.205   3.191 -0.0081  0.5453 -1.3549
 5391SOL    HW216994   4.064   1.106   3.191 -1.1309 -1.0461  0.9272
 5392SOL     OW16995   3.669   3.545   1.934  0.4467  0.0637  0.2967
 5392SOL    HW116996   3.742   3.527   1.868 -1.8183 -0.0609 -2.3275
 5392SOL    HW216997   3.694   3.624   1.990  1.7010  1.3606 -1.9744
 5393SOL     OW16998   0.708   1.177   4.041 -0.2477  0.4999 -0.1087
 5393SOL    HW116999   0.691   1.272   4.069  0.7852  0.3810  1.0382
 5393SOL    HW217000   0.802   1.168   4.008 -0.2113 -0.2041  0.1696
 5394SOL     OW17001   0.718   4.236   4.227 -0.0851 -0.1462  0.2756
 5394SOL    HW117002   0.620   4.217   4.237 -0.1018  0.0028  0.3909
 5394SOL    HW217003   0.766   4.150   4.207 -0.1354 -0.3554  1.0060
 5395SOL     OW17004   3.051   0.582   5.779  0.6718  0.2223 -0.1339
 5395SOL    HW117005   2.968   0.603   5.831  0.5872 -0.1412 -0.1218
 5395SOL    HW217006   3.053   0.485   5.757  0.5524  0.4214 -1.0741
 5396SOL     OW17007   2.191   1.012   1.339  0.2110  0.4081 -0.2060
 5396SOL    HW117008   2.228   1.092   1.291  0.7119 -0.5687 -1.5258
 5396SOL    HW217009   2.101   0.990   1.302  0.1263  0.3039  0.0626
 5397SOL     OW17010   2.208   6.482   4.293  0.3345  0.3609 -0.2124
 5397SOL    HW117011   2.109   6.490   4.307  0.0378 -2.4998 -0.1299
 5397SOL    HW217012   2.256   6.546   4.354 -1.3917  0.1706  1.4236
 5398SOL     OW17013   4.428   1.607   5.272 -0.1689  0.2071 -0.8960
 5398SOL    HW117014   4.387   1.578   5.359  2.6650 -0.2121  0.3985
 5398SOL    HW217015   4.411   1.704   5.258 -1.1805  0.1486 -0.2133
 5399SOL     OW17016   5.323   4.062   4.372  0.3409  0.7711  0.3820
 5399SOL    HW117017   5.414   4.053   4.414  0.4837  0.4477  0.0119
 5399SOL    HW217018   5.319   4.006   4.289 -0.5132 -0.0023  0.9246
 5400SOL     OW17019   0.362   3.566   4.615  0.0521  0.0668 -0.1531
 5400SOL    HW117020   0.429   3.499   4.581 -0.7554 -0.9519  0.2053
 5400SOL    HW217021   0.408   3.652   4.636  0.9030  0.0688 -1.8802
 5401SOL     OW17022   6.857   5.742   3.760 -0.2360 -0.2834  0.0508
 5401SOL    HW117023   6.929   5.693   3.809 -0.2660 -0.3890 -0.0085
 5401SOL    HW217024   6.870   5.731   3.661 -0.8150 -1.0098  0.0451
 5402SOL     OW17025   4.050   3.486   0.355  0.4709 -0.4006  0.7540
 5402SOL    HW117026   3.951   3.479   0.348  0.4753  0.7479 -1.6964
 5402SOL    HW217027   4.075   3.576   0.391  0.6168 -0.0978 -0.0859
 5403SOL     OW17028   4.461   2.130   6.593 -0.3174  0.4009  0.0081
 5403SOL    HW117029   4.476   2.047   6.645 -1.2453  1.8609  2.7985
 5403SOL    HW217030   4.547   2.161   6.552  0.5199 -0.6867  0.8942
 5404SOL     OW17031   5.031   0.692   6.045  0.2973 -0.8086  0.6215
 5404SOL    HW117032   5.011   0.744   5.962  0.4985  0.0534  1.0963
 5404SOL    HW217033   5.116   0.641   6.032 -0.3428 -1.7158 -0.1544
 5405SOL     OW17034   4.787   3.420   3.707  0.5744 -0.4718  0.0221
 5405SOL    HW117035   4.769   3.344   3.769  0.3313 -1.1804 -0.9074
 5405SOL    HW217036   4.715   3.425   3.638  1.8756 -0.9143 -1.3935
 5406SOL     OW17037   1.594   0.427   6.113  0.1132 -0.2631  0.3809
 5406SOL    HW117038   1.557   0.509   6.071  1.1839 -0.0389 -0.1771
 5406SOL    HW217039   1.604   0.442   6.212  1.7163  0.8687  0.0910
 5407SOL     OW17040   6.000   4.687   0.572  0.1783  0.1070  0.4560
 5407SOL    HW117041   6.072   4.754   0.554 -0.2178  0.0906 -1.2920
 5407SOL    HW217042   5.929   4.695   0.502 -0.2958 -1.5758  0.7110
 5408SOL     OW17043   0.445   5.590   4.209 -0.6884  0.2205 -0.2896
 5408SOL    HW117044   0.479   5.580   4.302 -0.7118 -3.0376 -0.5078
 5408SOL    HW217045   0.354   5.632   4.211 -0.2709  1.1437  1.0204
 5409SOL     OW17046   0.867   6.260   4.174 -0.5978 -0.4417  0.0129
 5409SOL    HW117047   0.850   6.270   4.076 -0.3278 -0.3487 -0.0284
 5409SOL    HW217048   0.796   6.203   4.215 -0.5937 -0.6636 -0.2812
 5410SOL     OW17049   5.267   4.023   6.223  0.3336 -0.2518 -0.2028
 5410SOL    HW117050   5.206   4.101   6.209  0.9147  0.1067 -0.8399
 5410SOL    HW217051   5.356   4.043   6.181  0.2274 -1.5925 -1.1481
 5411SOL     OW17052   1.062   6.524   5.684  0.1551 -0.1292  0.0862
 5411SOL    HW117053   0.965   6.516   5.707  0.3074  0.0197  0.8107
 5411SOL    HW217054   1.117   6.480   5.755  0.5764 -1.4125 -0.9961
 5412SOL     OW17055   2.512   1.696   2.424 -0.0431 -0.1100  0.1690
 5412SOL    HW117056   2.495   1.790   2.455  1.0759  0.3990 -0.7176
 5412SOL    HW217057   2.586   1.695   2.357 -0.2445 -1.5993 -0.0730
 5413SOL     OW17058   5.361   0.421   0.997 -0.1393 -0.8620 -0.0230
 5413SOL    HW117059   5.375   0.384   1.089  1.1653 -0.6738 -0.1247
 5413SOL    HW217060   5.376   0.520   0.998 -0.5131 -0.7976 -0.3604
 5414SOL     OW17061   3.826   6.092   6.180 -0.1665 -0.1108  0.0948
 5414SOL    HW117062   3.805   6.057   6.271  1.3668  2.5433  1.5699
 5414SOL    HW217063   3.743   6.089   6.124 -1.2371 -1.4410  1.6435
 5415SOL     OW17064   5.261   0.088   6.070  0.3767 -0.5105  0.0917
 5415SOL    HW117065   5.355   0.123   6.069  0.3956 -0.4956  1.1384
 5415SOL    HW217066   5.197   0.165   6.080  0.3137 -0.6026  0.4251
 5416SOL     OW17067   1.547   1.099   0.381  0.1432  0.0003  0.1368
 5416SOL    HW117068   1.604   1.129   0.457  0.4531  0.6707 -0.3391
 5416SOL    HW217069   1.508   1.010   0.401 -1.9034  1.2553  2.1951
 5417SOL     OW17070   5.315   3.715   6.167  0.3233  0.0526  0.2755
 5417SOL    HW117071   5.282   3.809   6.181 -2.1906 -0.6815 -0.1340
 5417SOL    HW217072   5.248   3.651   6.206  0.5048 -1.6452 -2.0188
 5418SOL     OW17073   5.241   0.669   1.937 -0.1189  0.1569  1.1564
 5418SOL    HW117074   5.153   0.623   1.949  0.5449 -1.7299 -0.4846
 5418SOL    HW217075   5.243   0.713   1.847  2.0515 -3.6950 -0.9456
 5419SOL     OW17076   2.087   3.223   0.778  0.9214 -0.1571  0.2980
 5419SOL    HW117077   2.008   3.198   0.721 -1.2552  1.0155  2.5951
 5419SOL    HW217078   2.105   3.150   0.844  3.0210 -1.2295 -1.3399
 5420SOL     OW17079   0.876   5.464   6.577  0.3212 -0.8070 -0.0967
 5420SOL    HW117080   0.946   5.527   6.544  0.9785 -1.1944  0.5193
 5420SOL    HW217081   0.807   5.514   6.629  0.2749 -0.4528 -0.4944
 5421SOL     OW17082   0.148   2.034   4.231 -0.1753 -0.0253 -0.0955
 5421SOL    HW117083   0.229   1.991   4.271 -0.9403 -1.0068  0.4336
 5421SOL    HW217084   0.161   2.133   4.229  0.3134 -0.0235  1.6407
 5422SOL     OW17085   2.572   4.794   2.539 -0.6247 -0.1830  0.3879
 5422SOL    HW117086   2.615   4.822   2.626  0.9812  0.6918 -0.6338
 5422SOL    HW217087   2.474   4.782   2.553 -0.5310  0.7568  2.1433
 5423SOL     OW17088   0.939   6.572   4.028  0.2822 -0.1861 -0.6788
 5423SOL    HW117089   0.947   6.517   4.111 -2.1142 -2.4473 -1.7873
 5423SOL    HW217090   0.888   6.656   4.048  0.1839 -0.4587  0.2580
 5424SOL     OW17091   6.219   3.738   1.304 -0.0382  0.0842 -0.5238
 5424SOL    HW117092   6.169   3.825   1.312  1.5800  0.8755  2.4942
 5424SOL    HW217093   6.293   3.749   1.237  0.3149  1.1666  0.0133
 5425SOL     OW17094   2.206   2.437   2.291 -0.0575  0.0374  0.1983
 5425SOL    HW117095   2.178   2.425   2.386 -1.6458 -1.0148 -0.3688
 5425SOL    HW217096   2.223   2.348   2.250 -0.7859  0.3853 -0.8929
 5426SOL     OW17097   3.820   0.618   0.937  0.5848  0.2282 -0.3679
 5426SOL    HW117098   3.886   0.621   1.012 -1.2095  1.6292  1.2576
 5426SOL    HW217099   3.795   0.523   0.919  1.4297 -0.1603  0.4183
 5427SOL     OW17100   6.905   6.140   5.452  0.4836 -0.5242 -0.4124
 5427SOL    HW117101   6.901   6.063   5.515 -1.1207 -1.3894 -1.5032
 5427SOL    HW217102   6.872   6.223   5.497  1.6352 -0.5629  0.5760
 5428SOL     OW17103   6.309   3.227   6.868 -0.1857  0.7145  0.2775
 5428SOL    HW117104   6.260   3.294   6.812  0.9523 -0.1686 -1.8625
 5428SOL    HW217105   6.247   3.154   6.895 -0.7001  1.0109 -0.0837
 5429SOL     OW17106   4.464   5.713   0.073 -0.1880  0.2694 -0.0312
 5429SOL    HW117107   4.401   5.635   0.068  0.1742  0.0249 -0.8443
 5429SOL    HW217108   4.512   5.723  -0.014  2.6176 -0.9798  1.2446
 5430SOL     OW17109   1.765   4.266   0.678  0.0112  0.2207  0.8093
 5430SOL    HW117110   1.786   4.253   0.581  0.6763  1.5995  0.7457
 5430SOL    HW217111   1.845   4.242   0.733 -0.5214 -1.0204  1.0710
 5431SOL     OW17112   3.528   3.502   3.724 -0.2157  0.0287  0.7420
 5431SOL    HW117113   3.546   3.592   3.763  0.9348  1.0879 -1.9963
 5431SOL    HW217114   3.607   3.443   3.737  0.7889  0.8728 -1.1310
 5432SOL     OW17115   0.788   4.695   4.908  0.2600  0.1940  0.1227
 5432SOL    HW117116   0.734   4.775   4.935 -0.5385  0.6947 -2.6011
 5432SOL    HW217117   0.754   4.661   4.820  2.7306 -1.0902 -0.4332
 5433SOL     OW17118   5.680   3.584   6.063  0.2727 -0.4377 -0.4885
 5433SOL    HW117119   5.708   3.558   6.156  0.3320  1.2819  0.0159
 5433SOL    HW217120   5.757   3.570   6.001  0.7649 -0.1470  0.0335
 5434SOL     OW17121   3.969   4.091   0.964  0.2088 -0.0013 -0.3172
 5434SOL    HW117122   3.898   4.160   0.957  1.2482  1.1420  0.0317
 5434SOL    HW217123   4.032   4.100   0.886  0.1408 -0.8058 -0.4743
 5435SOL     OW17124   3.078   0.091   2.578  0.2716 -0.1504 -0.0414
 5435SOL    HW117125   3.114   0.183   2.560  0.2026  0.5367  2.8230
 5435SOL    HW217126   3.048   0.085   2.673 -0.0479 -3.0654 -0.2300
 5436SOL     OW17127   0.440   2.780   4.885 -0.3500  0.5527  0.1819
 5436SOL    HW117128   0.455   2.682   4.885  1.1405  0.7217 -1.3840
 5436SOL    HW217129   0.502   2.825   4.949 -0.5430  0.5343  0.3838
 5437SOL     OW17130   2.856   4.176   1.966  0.2123 -0.0165 -0.1011
 5437SOL    HW117131   2.860   4.125   1.880  1.1561  0.7980 -0.5651
 5437SOL    HW217132   2.790   4.133   2.027 -0.6937 -0.4544 -1.3340
 5438SOL     OW17133   6.069   3.284   1.341 -0.0093 -0.4745  0.3094
 5438SOL    HW117134   5.988   3.310   1.393  0.5310 -0.3512  1.1279
 5438SOL    HW217135   6.128   3.227   1.398 -0.4265 -2.2086 -0.9327
 5439SOL     OW17136   6.628   0.964   3.398  0.0750  0.0740 -0.2186
 5439SOL    HW117137   6.628   1.021   3.479  0.2845 -1.2069  0.7289
 5439SOL    HW217138   6.571   1.005   3.327  0.5677  1.6300  0.2621
 5440SOL     OW17139   4.570   0.642   0.581 -0.0559 -0.4039 -0.2974
 5440SOL    HW117140   4.624   0.614   0.660  2.2165 -2.0916 -2.2851
 5440SOL    HW217141   4.483   0.593   0.580 -0.0733 -0.4289  1.0612
 5441SOL     OW17142   4.071   3.517   0.751 -0.0973 -0.7897  0.3075
 5441SOL    HW117143   4.162   3.551   0.729  0.8566 -3.0349  0.4743
 5441SOL    HW217144   4.043   3.553   0.841  0.6207 -0.0863  0.2611
 5442SOL     OW17145   0.443   0.283   6.892  0.0807  0.0658 -1.0730
 5442SOL    HW117146   0.450   0.216   6.966  0.8555 -0.0837 -1.2654
 5442SOL    HW217147   0.460   0.238   6.804 -1.4982  0.1038 -1.4263
 5443SOL     OW17148   3.329   0.671   4.509 -0.3844  0.1180 -0.0843
 5443SOL    HW117149   3.400   0.606   4.536 -2.1622 -2.0393 -0.2222
 5443SOL    HW217150   3.297   0.720   4.590  1.7872  1.7775 -0.1587
 5444SOL     OW17151   3.289   6.715   2.055 -0.5451  0.0250 -0.6344
 5444SOL    HW117152   3.345   6.755   1.984  0.3623  0.8268  0.4906
 5444SOL    HW217153   3.259   6.786   2.119 -1.4057 -0.6529 -0.2461
 5445SOL     OW17154   5.897   0.442   2.226 -0.4444  0.3048  0.1041
 5445SOL    HW117155   5.855   0.525   2.262 -1.5835  0.1224 -0.7337
 5445SOL    HW217156   5.889   0.442   2.126 -0.3829 -0.7687  0.0921
 5446SOL     OW17157   2.033   1.560   2.519  0.0493  0.5978 -0.0837
 5446SOL    HW117158   2.130   1.537   2.524 -0.0651  0.3704  1.3755
 5446SOL    HW217159   1.979   1.477   2.517 -0.1875  0.7275  0.8760
 5447SOL     OW17160   0.737   4.588   4.650  0.0281 -0.5015  0.2657
 5447SOL    HW117161   0.808   4.519   4.663  0.5079  0.1662  1.2565
 5447SOL    HW217162   0.689   4.569   4.564  1.9866 -0.4568 -0.9034
 5448SOL     OW17163   2.071   3.026   2.315 -0.5040 -0.8453 -0.1359
 5448SOL    HW117164   2.161   2.990   2.340 -0.7940 -1.0830  0.6136
 5448SOL    HW217165   2.007   3.009   2.390 -0.9745  0.0702 -0.3152
 5449SOL     OW17166   6.484   6.558   5.850  0.0390 -0.0808 -1.0991
 5449SOL    HW117167   6.470   6.536   5.946 -1.3096  0.1739 -1.2275
 5449SOL    HW217168   6.582   6.556   5.830  0.4330  0.9823  0.5450
 5450SOL     OW17169   5.046   0.496   1.686  0.0688  0.0187  0.1282
 5450SOL    HW117170   5.021   0.587   1.654  1.1082  0.1795 -0.2356
 5450SOL    HW217171   5.049   0.495   1.785 -1.9340 -0.1568  0.2370
 5451SOL     OW17172   2.905   1.546   3.748 -0.0145  0.5866 -0.2193
 5451SOL    HW117173   2.833   1.520   3.684  0.1966 -1.0353  0.1497
 5451SOL    HW217174   2.994   1.542   3.703  0.1997 -1.1737  0.2923
 5452SOL     OW17175   2.414   0.545   5.349 -0.3531  0.1234  0.3677
 5452SOL    HW117176   2.467   0.629   5.354 -0.2147  0.2392 -1.8499
 5452SOL    HW217177   2.462   0.479   5.291 -1.3521 -0.7924  0.5416
 5453SOL     OW17178   1.037   0.378   1.736 -0.7374 -0.4084  0.6839
 5453SOL    HW117179   0.990   0.298   1.773  2.8191 -2.6440  0.8869
 5453SOL    HW217180   1.126   0.389   1.781  0.5095  1.4510 -1.9375
 5454SOL     OW17181   1.779   2.616   6.859 -0.4297  0.3513 -0.6894
 5454SOL    HW117182   1.696   2.661   6.827  0.2236  1.1207 -1.3619
 5454SOL    HW217183   1.815   2.667   6.937 -1.6345 -1.1118  0.8857
 5455SOL     OW17184   4.723   5.853   6.006  0.5477  0.3880  0.2631
 5455SOL    HW117185   4.667   5.884   5.929  2.3379  0.5102 -1.0549
 5455SOL    HW217186   4.680   5.774   6.049 -0.8791  0.7969 -0.3619
 5456SOL     OW17187   0.690   1.460   5.234 -0.4335 -0.4585 -0.1836
 5456SOL    HW117188   0.783   1.483   5.264 -0.1661 -1.7549  0.0234
 5456SOL    HW217189   0.627   1.464   5.311 -0.6467  0.7560 -0.3847
 5457SOL     OW17190   2.830   2.164   6.093 -0.4164  0.1811 -0.3031
 5457SOL    HW117191   2.749   2.212   6.058 -0.6403 -0.5655 -0.8153
 5457SOL    HW217192   2.826   2.068   6.067  0.1185 -0.0898  0.5695
 5458SOL     OW17193   6.772   0.815   2.172 -0.1034  0.0653 -0.4929
 5458SOL    HW117194   6.833   0.787   2.098  2.6349  0.2324  1.5495
 5458SOL    HW217195   6.754   0.913   2.165 -0.5645 -0.0592 -1.3476
 5459SOL     OW17196   2.001   3.293   4.661  0.9236 -0.5216  0.4193
 5459SOL    HW117197   1.976   3.208   4.614  1.4806 -0.4115 -0.0892
 5459SOL    HW217198   2.075   3.273   4.726  2.8346 -0.0200 -1.4665
 5460SOL     OW17199   0.195   1.462   0.817  0.3879 -0.0816  0.4031
 5460SOL    HW117200   0.148   1.396   0.758 -0.6631  0.5419  0.5054
 5460SOL    HW217201   0.146   1.468   0.904 -0.6466  2.1708 -0.2676
 5461SOL     OW17202   2.404   7.006   2.028 -0.2216  0.4671 -0.5133
 5461SOL    HW117203   2.473   7.028   2.097  0.4809  0.9830 -1.3581
 5461SOL    HW217204   2.396   6.907   2.019 -1.4991  0.3455  1.4820
 5462SOL     OW17205   2.125   6.503   4.673  0.4732 -0.0848 -0.2875
 5462SOL    HW117206   2.074   6.586   4.695  0.7068  0.2747 -1.0895
 5462SOL    HW217207   2.124   6.441   4.752  0.7359  0.8904  0.4925
 5463SOL     OW17208   1.510   5.865   6.897 -0.5910  0.0435 -0.4586
 5463SOL    HW117209   1.444   5.900   6.831 -1.5362  0.0582  0.4625
 5463SOL    HW217210   1.525   5.934   6.969  1.5523  0.6464 -1.3801
 5464SOL     OW17211   5.927   6.479   2.195 -0.1305 -0.2331 -0.3702
 5464SOL    HW117212   6.006   6.528   2.231  0.9042 -1.2257 -1.2397
 5464SOL    HW217213   5.876   6.539   2.134  0.2123  0.2711 -0.1681
 5465SOL     OW17214   3.999   2.464   1.027 -0.1199 -0.3450  0.1206
 5465SOL    HW117215   4.074   2.414   0.983  0.3839  0.4444  0.0499
 5465SOL    HW217216   3.980   2.424   1.117  1.4109  0.3631  0.7904
 5466SOL     OW17217   6.166   5.497   5.878 -0.0057  0.0109  0.2885
 5466SOL    HW117218   6.231   5.529   5.947  1.0190 -2.9983  0.9026
 5466SOL    HW217219   6.178   5.549   5.794  1.2643  1.3559  1.2404
 5467SOL     OW17220   2.325   5.575   6.777  0.6922 -0.0866 -0.4444
 5467SOL    HW117221   2.417   5.612   6.767  1.0069  0.1454  2.5412
 5467SOL    HW217222   2.301   5.569   6.874 -2.1844 -0.8169 -1.0931
 5468SOL     OW17223   3.897   1.572   2.722  0.6023  0.2212  0.3734
 5468SOL    HW117224   3.872   1.515   2.643 -0.6526  1.3208 -0.0643
 5468SOL    HW217225   3.851   1.538   2.803  1.2662 -0.4411  0.4787
 5469SOL     OW17226   2.176   3.031   2.612  0.2893  0.4138  0.6596
 5469SOL    HW117227   2.266   3.042   2.654  1.4918  1.2313 -1.8676
 5469SOL    HW217228   2.152   2.934   2.609  0.9205  0.2107  1.6519
 5470SOL     OW17229   2.546   3.311   1.068 -0.0615 -0.0541 -0.3201
 5470SOL    HW117230   2.506   3.403   1.074 -0.1338  0.3180 -3.7811
 5470SOL    HW217231   2.498   3.249   1.130 -0.4136  2.0766  1.6751
 5471SOL     OW17232   6.885   3.175   6.847  0.4534  0.2781  0.4039
 5471SOL    HW117233   6.909   3.145   6.755  0.4059  2.4247 -0.3716
 5471SOL    HW217234   6.801   3.130   6.876  0.0225  0.1561 -0.9539
 5472SOL     OW17235   0.941   2.913   0.150  0.0852  0.0954  0.5538
 5472SOL    HW117236   0.987   2.993   0.111  0.7761  0.0663  1.2983
 5472SOL    HW217237   0.842   2.920   0.133  0.2777  0.4610 -0.5151
 5473SOL     OW17238   3.808   5.900   4.482  0.5657  0.5987 -0.2256
 5473SOL    HW117239   3.786   5.807   4.452  1.2864  0.3636 -0.0352
 5473SOL    HW217240   3.724   5.948   4.505  0.2576 -0.4751  1.0556
 5474SOL     OW17241   1.590   5.969   4.035  0.4491  0.0325 -0.5575
 5474SOL    HW117242   1.611   5.992   3.940  1.2893  1.2301 -0.1073
 5474SOL    HW217243   1.665   5.997   4.094 -1.0653  1.5619  0.7616
 5475SOL     OW17244   0.254   0.325   5.042 -0.1101 -0.1554  0.2951
 5475SOL    HW117245   0.287   0.279   5.125  0.6282  0.9896  0.6724
 5475SOL    HW217246   0.251   0.260   4.967  0.7541 -0.8602  0.8391
 5476SOL     OW17247   4.851   6.703   0.411  0.4783 -0.1530  0.1016
 5476SOL    HW117248   4.771   6.761   0.424  1.1471  0.9265 -0.3748
 5476SOL    HW217249   4.878   6.705   0.314  1.0353 -0.5490  0.2447
 5477SOL     OW17250   3.979   0.482   5.592  0.0561  0.0180  0.0719
 5477SOL    HW117251   3.983   0.556   5.524 -2.6353  1.1846  1.0543
 5477SOL    HW217252   4.039   0.505   5.669 -0.7541  1.2503  0.3720
 5478SOL     OW17253   1.910   6.282   4.563  0.4911  0.3144  0.2853
 5478SOL    HW117254   1.874   6.202   4.612  0.6127  0.1517  0.1073
 5478SOL    HW217255   1.995   6.312   4.607  0.7751 -0.0274 -0.0210
 5479SOL     OW17256   5.170   0.639   3.883  0.3189  0.6970  0.3849
 5479SOL    HW117257   5.188   0.544   3.858 -1.8282 -0.0594  1.4618
 5479SOL    HW217258   5.243   0.673   3.943 -0.4894 -1.3681  2.6692
 5480SOL     OW17259   0.770   5.831   2.214  0.1552  0.8011 -0.6839
 5480SOL    HW117260   0.747   5.761   2.147 -0.2658  1.1690 -0.9286
 5480SOL    HW217261   0.691   5.891   2.229 -0.3421 -0.3080  1.4453
 5481SOL     OW17262   2.300   4.706   6.789 -0.0051 -0.2556  0.0579
 5481SOL    HW117263   2.202   4.688   6.781 -0.1704  0.0429  1.2518
 5481SOL    HW217264   2.314   4.796   6.832  0.7878 -0.3550  0.0189
 5482SOL     OW17265   2.415   1.912   1.423 -0.1086 -0.0536 -0.0339
 5482SOL    HW117266   2.420   1.999   1.472 -1.4282  0.5995 -0.9811
 5482SOL    HW217267   2.346   1.919   1.351  0.2997 -1.6537 -0.6183
 5483SOL     OW17268   5.872   3.062   3.260  0.3841 -0.0722 -0.2305
 5483SOL    HW117269   5.903   2.998   3.331  0.2446  0.7842  0.6237
 5483SOL    HW217270   5.795   3.116   3.294 -0.5507 -0.5569 -1.5201
 5484SOL     OW17271   1.399   2.122   6.312 -0.1238  0.0786  0.5549
 5484SOL    HW117272   1.325   2.107   6.378 -1.2568  1.1709 -0.4186
 5484SOL    HW217273   1.463   2.190   6.349 -0.2262 -0.0285  0.9337
 5485SOL     OW17274   5.008   4.869   3.091  0.7274  0.5179 -0.4128
 5485SOL    HW117275   5.029   4.777   3.123  1.4449  0.5303 -0.8374
 5485SOL    HW217276   4.908   4.881   3.088  0.6382  0.0203  0.3646
 5486SOL     OW17277   3.806   0.798   2.878  0.4063  0.1620  0.5574
 5486SOL    HW117278   3.718   0.835   2.848 -0.1700 -1.3520  0.3183
 5486SOL    HW217279   3.824   0.827   2.972 -0.3945  0.4189  0.6366
 5487SOL     OW17280   4.734   0.496   3.869  0.2499 -0.4117 -0.5489
 5487SOL    HW117281   4.783   0.548   3.938  2.7984 -1.7285 -1.2326
 5487SOL    HW217282   4.658   0.550   3.834 -0.7703  0.5460  2.7617
 5488SOL     OW17283   6.222   5.730   6.884 -0.1427  0.4206 -0.1764
 5488SOL    HW117284   6.315   5.765   6.894  0.7523 -2.0651  1.0318
 5488SOL    HW217285   6.176   5.730   6.973  0.1776 -2.0587  0.0449
 5489SOL     OW17286   0.834   2.460   6.405 -1.0181  0.1578 -0.1314
 5489SOL    HW117287   0.824   2.516   6.487 -1.2493 -0.6591  0.4156
 5489SOL    HW217288   0.753   2.469   6.347 -0.4171  1.5456 -0.7936
 5490SOL     OW17289   6.746   4.379   4.011  0.1868  0.2212  0.2689
 5490SOL    HW117290   6.672   4.319   4.040 -0.1092 -0.8370 -2.3858
 5490SOL    HW217291   6.813   4.388   4.084 -0.6021 -2.0040  1.3558
 5491SOL     OW17292   2.821   0.353   5.265  0.1350  0.0753  0.3629
 5491SOL    HW117293   2.833   0.432   5.325 -1.6212  1.8303 -1.4422
 5491SOL    HW217294   2.726   0.347   5.236  0.6796 -1.3720 -1.3356
 5492SOL     OW17295   6.017   6.119   2.411 -0.2592 -0.3054  0.5179
 5492SOL    HW117296   6.066   6.124   2.498  0.9402 -2.1774 -0.0103
 5492SOL    HW217297   5.940   6.056   2.419  2.1157 -3.6694 -0.6785
 5493SOL     OW17298   2.050   4.562   5.483 -0.2653  0.2458  0.4434
 5493SOL    HW117299   1.950   4.565   5.491 -0.2880  2.1001 -0.3035
 5493SOL    HW217300   2.075   4.499   5.409 -1.0481  2.1224 -1.5320
 5494SOL     OW17301   4.546   4.015   0.230 -0.0762 -0.2103  0.0137
 5494SOL    HW117302   4.486   3.966   0.293 -1.2767 -0.6470 -1.4082
 5494SOL    HW217303   4.490   4.075   0.173  1.1511  1.3068  0.3567
 5495SOL     OW17304   1.473   3.291   5.368  0.3052  0.4915  0.8884
 5495SOL    HW117305   1.396   3.249   5.321  0.4939 -0.1511  1.1410
 5495SOL    HW217306   1.448   3.383   5.400  0.0186  0.7416 -0.0337
 5496SOL     OW17307   0.076   1.611   1.917 -1.0068  0.3630 -0.3106
 5496SOL    HW117308   0.132   1.544   1.965 -1.0753  0.1411 -0.5303
 5496SOL    HW217309   0.088   1.600   1.818  1.1928  2.5471 -0.3829
 5497SOL     OW17310   4.035   1.769   1.526  1.0629  0.0361  0.1599
 5497SOL    HW117311   4.061   1.860   1.492  1.3249  0.8082  2.2937
 5497SOL    HW217312   4.042   1.768   1.625 -1.2204 -1.6319  0.3533
 5498SOL     OW17313   0.577   0.374   4.727 -0.2873  0.4868 -0.6021
 5498SOL    HW117314   0.478   0.373   4.720 -0.3137 -0.7399 -0.2391
 5498SOL    HW217315   0.617   0.332   4.645 -0.1245 -0.1450 -0.2120
 5499SOL     OW17316   3.415   4.378   6.547 -0.6106  0.1007  0.0901
 5499SOL    HW117317   3.394   4.425   6.633 -0.0533 -2.4271  1.7364
 5499SOL    HW217318   3.514   4.376   6.533 -0.7451  1.9550 -1.5766
 5500SOL     OW17319   4.395   2.310   1.672  0.4819 -0.1775 -0.2915
 5500SOL    HW117320   4.393   2.355   1.762  0.4842 -0.8399  0.0515
 5500SOL    HW217321   4.305   2.318   1.629 -0.0927 -1.4437  0.5990
 5501SOL     OW17322   2.703   3.603   6.506  0.3066 -0.6284  0.1804
 5501SOL    HW117323   2.676   3.686   6.456 -0.6465 -0.8058  0.3813
 5501SOL    HW217324   2.802   3.600   6.513  0.3466  1.5166  1.8377
 5502SOL     OW17325   5.609   3.208   6.621 -0.4699  0.3506 -0.7091
 5502SOL    HW117326   5.539   3.222   6.551  0.0087  0.9531 -1.0795
 5502SOL    HW217327   5.567   3.212   6.712 -0.9726  0.3214 -0.9382
 5503SOL     OW17328   4.495   0.550   0.896  1.0783 -0.1188  0.1673
 5503SOL    HW117329   4.467   0.616   0.965  0.6610 -1.3406  1.2003
 5503SOL    HW217330   4.554   0.481   0.937  1.7179 -0.2593 -0.9501
 5504SOL     OW17331   6.022   0.140   6.553 -0.2387 -0.2562  0.2679
 5504SOL    HW117332   6.067   0.097   6.631 -4.3002 -3.1437  1.3911
 5504SOL    HW217333   5.976   0.224   6.582 -1.4208 -1.1220  0.9605
 5505SOL     OW17334   2.927   6.126   2.853 -0.5137  0.7851 -0.3832
 5505SOL    HW117335   3.004   6.155   2.796 -0.9980  1.5434 -0.6790
 5505SOL    HW217336   2.863   6.202   2.863 -1.2275  0.1706 -0.1500
 5506SOL     OW17337   5.664   5.947   5.061 -0.0635 -0.1599 -0.3352
 5506SOL    HW117338   5.730   5.975   5.131 -0.1337 -3.7785  1.3838
 5506SOL    HW217339   5.573   5.940   5.102 -0.4831 -0.4585 -1.2844
 5507SOL     OW17340   1.969   2.365   1.620 -0.5398 -0.4779 -0.8308
 5507SOL    HW117341   1.987   2.449   1.569  0.1845  0.1717  0.4289
 5507SOL    HW217342   2.047   2.345   1.679 -1.3328 -1.1614  0.0441
 5508SOL     OW17343   4.042   2.105   2.158  0.3684 -0.4070 -0.5614
 5508SOL    HW117344   4.006   2.067   2.073 -0.6509  0.6967 -0.6512
 5508SOL    HW217345   4.103   2.181   2.138 -0.5830  0.4473 -0.3085
 5509SOL     OW17346   6.993   4.323   0.684  0.1206  0.0482 -0.0693
 5509SOL    HW117347   7.066   4.301   0.619  1.8214  1.3717  1.3031
 5509SOL    HW217348   7.033   4.369   0.764 -2.2209  0.4227  0.9472
 5510SOL     OW17349   1.465   1.276   6.524  0.1459 -0.2387  0.2872
 5510SOL    HW117350   1.396   1.348   6.514  0.2726  0.0182  1.2062
 5510SOL    HW217351   1.557   1.316   6.514  0.1877 -0.4791 -0.3473
 5511SOL     OW17352   0.393   0.786   2.182  0.1902 -0.0240 -0.0232
 5511SOL    HW117353   0.347   0.734   2.253  0.7178 -2.3218 -1.2332
 5511SOL    HW217354   0.477   0.739   2.156 -0.4348  0.1842 -2.7474
 5512SOL     OW17355   0.319   2.922   0.942  0.0075  0.0009  0.7705
 5512SOL    HW117356   0.222   2.921   0.919  0.0454  2.3512  0.2205
 5512SOL    HW217357   0.366   2.988   0.883  1.6587 -0.0336  1.9736
 5513SOL     OW17358   2.287   4.417   1.508  0.0389  0.0522  0.5995
 5513SOL    HW117359   2.266   4.366   1.591 -0.7822  0.6843  0.7994
 5513SOL    HW217360   2.334   4.502   1.531  0.9471 -0.3652  0.3120
 5514SOL     OW17361   3.097   4.162   1.654  0.7618 -0.0621  0.1961
 5514SOL    HW117362   3.130   4.174   1.560  0.5850 -1.7302 -0.1129
 5514SOL    HW217363   3.121   4.242   1.708  1.5835  0.5835 -1.0668
 5515SOL     OW17364   6.068   2.825   1.137 -0.0816 -0.9862 -0.1325
 5515SOL    HW117365   6.045   2.873   1.052 -0.1283 -1.0846 -0.1769
 5515SOL    HW217366   5.993   2.837   1.203 -0.6142 -1.9439 -0.5459
 5516SOL     OW17367   2.008   1.673   1.162 -0.6311 -0.5262  0.4261
 5516SOL    HW117368   1.959   1.638   1.082  0.5865  0.6104 -0.8830
 5516SOL    HW217369   1.952   1.662   1.243 -3.6100  1.8327 -1.1225
 5517SOL     OW17370   1.599   6.425   1.536 -0.3755  0.1430  0.4813
 5517SOL    HW117371   1.511   6.397   1.574 -0.6800  0.2435 -0.1356
 5517SOL    HW217372   1.640   6.495   1.593 -0.9188  0.4336  0.5220
 5518SOL     OW17373   1.759   1.416   1.151  0.1204 -0.0507 -0.2001
 5518SOL    HW117374   1.842   1.369   1.184 -0.1333 -0.1502  0.3102
 5518SOL    HW217375   1.780   1.466   1.068  0.1485 -2.0533 -1.4662
 5519SOL     OW17376   0.793   4.789   4.332 -0.1932 -0.2113 -0.1420
 5519SOL    HW117377   0.729   4.747   4.267 -1.5973 -0.2642  1.2238
 5519SOL    HW217378   0.774   4.887   4.338 -0.4194 -0.2892  0.5416
 5520SOL     OW17379   5.978   0.486   4.800 -0.7066  0.2024 -0.3023
 5520SOL    HW117380   6.025   0.573   4.814 -0.9107  0.2444  0.1281
 5520SOL    HW217381   6.039   0.423   4.750  0.8125 -0.6362  2.3908
 5521SOL     OW17382   3.738   5.558   3.745  0.0462 -0.2979  0.5341
 5521SOL    HW117383   3.665   5.619   3.777 -0.1824 -0.6429  0.6760
 5521SOL    HW217384   3.804   5.544   3.819  0.7928  0.8161  0.1043
 5522SOL     OW17385   4.391   5.559   4.013  0.0680 -0.0939  0.2626
 5522SOL    HW117386   4.378   5.548   4.111  1.4892 -2.2357  0.2788
 5522SOL    HW217387   4.375   5.472   3.967 -0.6444  0.8869 -1.4551
 5523SOL     OW17388   6.417   6.126   3.913 -0.0776  0.3924  0.1432
 5523SOL    HW117389   6.346   6.138   3.982  0.0841 -0.0986  0.4030
 5523SOL    HW217390   6.443   6.215   3.876 -2.3744  0.4411 -1.5526
 5524SOL     OW17391   2.324   0.501   2.760  0.7670 -0.2994 -0.1903
 5524SOL    HW117392   2.229   0.505   2.794  0.4076 -1.2557 -1.0293
 5524SOL    HW217393   2.363   0.412   2.783  1.0940 -0.3162 -0.8037
 5525SOL     OW17394   5.941   4.658   1.732 -0.1601 -0.0922  0.3531
 5525SOL    HW117395   6.034   4.691   1.749  1.2586 -3.0605 -1.0086
 5525SOL    HW217396   5.914   4.681   1.639 -0.3008 -0.3469  0.3302
 5526SOL     OW17397   6.577   3.812   3.982  0.1396  0.4159  1.1429
 5526SOL    HW117398   6.663   3.858   4.005  0.7940 -1.0608  1.7387
 5526SOL    HW217399   6.594   3.714   3.968 -1.1537  0.3729 -0.4438
 5527SOL     OW17400   3.816   0.392   6.680  0.2796 -1.0183 -0.3247
 5527SOL    HW117401   3.863   0.369   6.766 -0.4751 -0.7242  0.1804
 5527SOL    HW217402   3.718   0.399   6.697 -0.0072 -2.0636 -1.4546
 5528SOL     OW17403   0.802   5.318   1.891  0.3545 -0.0326 -0.0207
 5528SOL    HW117404   0.724   5.377   1.914  0.0994  0.1278 -1.2457
 5528SOL    HW217405   0.797   5.234   1.943 -1.0967 -0.3725 -0.6721
 5529SOL     OW17406   4.620   2.175   0.343  0.0020 -0.6797  1.0920
 5529SOL    HW117407   4.563   2.185   0.424  0.5007 -1.8829  1.6143
 5529SOL    HW217408   4.674   2.258   0.330 -2.3139  0.7892  0.1739
 5530SOL     OW17409   1.534   0.243   0.816 -0.1268  0.2145 -0.5822
 5530SOL    HW117410   1.515   0.331   0.860 -2.1598 -0.2132 -0.4980
 5530SOL    HW217411   1.633   0.227   0.816  0.0724  0.5637  3.2337
 5531SOL     OW17412   6.338   4.811   3.494 -0.2630  0.4673 -0.1983
 5531SOL    HW117413   6.375   4.788   3.584  2.4206 -0.2906 -1.3843
 5531SOL    HW217414   6.287   4.897   3.499  2.1732  1.9642  1.5936
 5532SOL     OW17415   6.154   4.621   6.894  0.1490 -0.4980 -0.3846
 5532SOL    HW117416   6.174   4.662   6.805 -0.7563 -2.0601 -1.3682
 5532SOL    HW217417   6.059   4.642   6.918  0.4781  0.1746  0.4039
 5533SOL     OW17418   5.112   5.817   0.510  0.0975 -0.1516 -0.1630
 5533SOL    HW117419   5.142   5.748   0.576 -0.2330 -1.7933 -1.6612
 5533SOL    HW217420   5.190   5.875   0.486  0.4000 -0.0211  1.0549
 5534SOL     OW17421   1.751   5.607   4.260  0.0074  0.1157 -0.7068
 5534SOL    HW117422   1.778   5.531   4.320 -0.5427  0.3922 -0.0845
 5534SOL    HW217423   1.831   5.664   4.242  0.2118 -0.0391 -0.3221
 5535SOL     OW17424   5.506   2.175   0.610 -0.0411 -0.4222 -0.7207
 5535SOL    HW117425   5.470   2.241   0.544 -1.1104  0.6609  0.9086
 5535SOL    HW217426   5.475   2.198   0.702  2.2058 -1.3295  0.3393
 5536SOL     OW17427   6.434   6.835   0.419 -0.1340 -0.1746 -0.0032
 5536SOL    HW117428   6.459   6.769   0.347 -0.8344  2.1158 -2.4940
 5536SOL    HW217429   6.517   6.879   0.453  0.0999 -0.2525 -0.4528
 5537SOL     OW17430   2.404   6.119   3.215 -0.0984 -0.3638 -0.4714
 5537SOL    HW117431   2.378   6.034   3.261  1.5013 -0.3741  0.5507
 5537SOL    HW217432   2.496   6.110   3.178  0.3435  1.0871  0.1735
 5538SOL     OW17433   2.444   6.555   2.813  0.7825  0.0839  0.4389
 5538SOL    HW117434   2.348   6.577   2.794  1.7435  2.4498 -2.4441
 5538SOL    HW217435   2.481   6.622   2.877  1.3814  1.3829 -1.2286
 5539SOL     OW17436   0.217   4.391   4.077  0.8669 -0.2905 -0.5558
 5539SOL    HW117437   0.216   4.329   4.155 -0.0682  0.3692 -0.0123
 5539SOL    HW217438   0.306   4.437   4.073  0.9119 -0.2979  0.1457
 5540SOL     OW17439   6.790   4.629   6.289 -0.0995  0.7748 -0.3492
 5540SOL    HW117440   6.846   4.648   6.208  0.9815  1.0984  0.4519
 5540SOL    HW217441   6.845   4.642   6.371 -0.6670 -1.2346  0.4104
 5541SOL     OW17442   3.107   0.991   1.258  0.1666 -0.4519  0.4596
 5541SOL    HW117443   3.036   0.936   1.215 -0.1778  0.4872 -0.2174
 5541SOL    HW217444   3.145   1.054   1.191  1.0075 -0.3073  1.0508
 5542SOL     OW17445   1.799   5.802   0.608 -0.0742  0.6703 -0.3060
 5542SOL    HW117446   1.889   5.826   0.644  0.4992  0.9781 -1.8728
 5542SOL    HW217447   1.803   5.796   0.508 -2.0041  1.6168 -0.4921
 5543SOL     OW17448   1.783   4.198   1.968  0.3359 -0.6515 -0.3791
 5543SOL    HW117449   1.685   4.209   1.952 -0.3890 -3.3341  1.3535
 5543SOL    HW217450   1.815   4.272   2.027 -0.9650 -0.3969  0.0575
 5544SOL     OW17451   5.908   3.006   4.172 -0.9264  0.2010  0.1393
 5544SOL    HW117452   5.892   3.002   4.270 -1.3729  0.0049  0.0620
 5544SOL    HW217453   6.000   3.039   4.154 -0.9024  0.4046  0.6206
 5545SOL     OW17454   1.301   0.873   4.195  0.0213 -0.0319  0.1364
 5545SOL    HW117455   1.341   0.922   4.118 -0.8553 -0.3504 -0.5612
 5545SOL    HW217456   1.339   0.906   4.281  0.2354  1.1030 -0.3708
 5546SOL     OW17457   2.243   5.937   0.028  0.8504 -0.3848 -0.3182
 5546SOL    HW117458   2.228   5.942   0.127  0.3801 -0.0309 -0.4050
 5546SOL    HW217459   2.315   5.870   0.009  1.4278  0.0253  0.3423
 5547SOL     OW17460   3.004   0.568   5.465  0.5044 -1.0584 -0.4271
 5547SOL    HW117461   3.029   0.628   5.390  0.9189  2.6206  2.3804
 5547SOL    HW217462   2.908   0.583   5.489  0.8603 -0.7591  0.8993
 5548SOL     OW17463   4.372   1.662   3.125  0.3640 -0.1270  0.0230
 5548SOL    HW117464   4.273   1.650   3.128  0.5427 -1.6162  1.1154
 5548SOL    HW217465   4.399   1.733   3.190  0.0287  0.2499 -0.2413
 5549SOL     OW17466   3.125   3.609   1.437 -0.0945 -0.4904  0.2616
 5549SOL    HW117467   3.057   3.682   1.442 -0.9083 -1.3432  2.3400
 5549SOL    HW217468   3.217   3.649   1.443 -0.4882  0.4553  0.1453
 5550SOL     OW17469   4.461   3.746   5.328  0.1114  0.1685 -0.1136
 5550SOL    HW117470   4.414   3.676   5.274 -0.1196 -1.1520  1.6682
 5550SOL    HW217471   4.559   3.726   5.330 -0.0847 -0.9100  1.3678
 5551SOL     OW17472   4.894   0.570   4.311 -0.1013  0.2856 -0.2735
 5551SOL    HW117473   4.878   0.484   4.358 -1.5800  0.6580 -0.0775
 5551SOL    HW217474   4.881   0.646   4.374  0.8134  0.6813 -0.5436
 5552SOL     OW17475   2.162   4.756   0.226 -0.1451  0.3372  0.4438
 5552SOL    HW117476   2.134   4.846   0.192 -1.6029 -0.7811 -1.5425
 5552SOL    HW217477   2.208   4.767   0.314 -0.5165  2.9800  0.4096
 5553SOL     OW17478   5.384   1.318   4.586  0.1672 -0.8413 -0.5427
 5553SOL    HW117479   5.414   1.413   4.575  0.6079 -0.7027  1.5164
 5553SOL    HW217480   5.324   1.294   4.510 -0.7198  1.3852 -0.6380
 5554SOL     OW17481   6.235   5.243   1.422  0.0049  0.0972  0.0659
 5554SOL    HW117482   6.213   5.146   1.410  1.0863 -0.0835 -0.5581
 5554SOL    HW217483   6.279   5.256   1.511  1.1348 -0.2331 -0.4245
 5555SOL     OW17484   3.409   0.578   1.755 -0.2172  0.0696 -0.3964
 5555SOL    HW117485   3.472   0.517   1.803 -0.4322 -0.1759 -0.4156
 5555SOL    HW217486   3.316   0.564   1.790 -0.5891 -1.0280 -1.7166
 5556SOL     OW17487   5.487   4.632   1.324  0.1236  0.1847 -0.2581
 5556SOL    HW117488   5.467   4.594   1.415 -1.3687 -4.6036 -2.2825
 5556SOL    HW217489   5.587   4.635   1.311  0.3640 -2.4876  0.4256
 5557SOL     OW17490   0.557   4.285   3.142  0.1918  0.1950 -0.5556
 5557SOL    HW117491   0.590   4.267   3.234 -0.0552 -1.4018 -0.7580
 5557SOL    HW217492   0.489   4.359   3.144 -0.4076 -0.3772  0.6508
 5558SOL     OW17493   0.639   4.602   0.459  0.5880  0.2863  0.0239
 5558SOL    HW117494   0.679   4.678   0.408 -2.1824  0.7879 -1.5964
 5558SOL    HW217495   0.638   4.520   0.402 -1.0555  0.4155 -0.1625
 5559SOL     OW17496   5.080   6.521   2.608 -0.2459 -0.1095 -0.7539
 5559SOL    HW117497   5.125   6.575   2.678 -0.1849  0.3538 -1.1461
 5559SOL    HW217498   5.143   6.452   2.573 -0.6205 -1.0763  0.4146
 5560SOL     OW17499   0.352   2.815   0.320 -0.1431  0.4213  0.4517
 5560SOL    HW117500   0.391   2.850   0.235 -2.7143  2.1656 -0.1348
 5560SOL    HW217501   0.413   2.746   0.359  0.9005 -0.8205 -3.0123
 5561SOL     OW17502   1.908   3.089   1.791  0.0588  0.0046  0.3196
 5561SOL    HW117503   1.874   3.057   1.703  3.0158 -0.5139 -0.7763
 5561SOL    HW217504   2.008   3.087   1.790  0.2004 -0.1288  3.7597
 5562SOL     OW17505   1.523   1.282   1.569 -0.2107 -0.1368  0.6661
 5562SOL    HW117506   1.519   1.379   1.546 -0.1997 -0.5054 -1.0816
 5562SOL    HW217507   1.619   1.255   1.583 -0.1275 -0.0468  0.3059
 5563SOL     OW17508   1.353   4.651   3.991  0.2649 -0.1955 -0.1053
 5563SOL    HW117509   1.412   4.730   3.972  2.1259 -1.6091 -0.5539
 5563SOL    HW217510   1.290   4.675   4.065  0.0514  2.0098 -0.9042
 5564SOL     OW17511   4.664   0.774   5.588  0.6653  0.0950 -0.1779
 5564SOL    HW117512   4.667   0.704   5.517  0.7898  0.1394 -0.2161
 5564SOL    HW217513   4.661   0.730   5.678  1.8349  0.0430 -0.1457
 5565SOL     OW17514   4.328   0.708   2.262 -0.2193 -0.6974 -0.4298
 5565SOL    HW117515   4.324   0.789   2.321  1.0673  0.4449 -1.8272
 5565SOL    HW217516   4.386   0.727   2.183  0.4261 -3.1214 -0.6213
 5566SOL     OW17517   0.897   5.160   1.691 -0.3048 -0.2528 -0.4977
 5566SOL    HW117518   0.854   5.236   1.739 -0.2974  0.5831 -1.7740
 5566SOL    HW217519   0.983   5.135   1.737 -1.5119 -1.1661  1.3863
 5567SOL     OW17520   1.539   6.047   3.250 -0.3017  0.3379 -0.2059
 5567SOL    HW117521   1.606   6.074   3.319 -0.0118  0.5645 -0.5677
 5567SOL    HW217522   1.579   5.977   3.190 -0.1017  1.0412 -0.9094
 5568SOL     OW17523   4.747   6.989   0.895  0.2612  0.0825  0.0355
 5568SOL    HW117524   4.650   7.009   0.908  0.1765  1.1403 -1.8425
 5568SOL    HW217525   4.759   6.936   0.810  1.3701  0.5664 -0.1287
 5569SOL     OW17526   2.904   1.909   4.813  0.3527  0.2952  0.4759
 5569SOL    HW117527   2.811   1.915   4.849 -0.4441  1.9663 -1.6603
 5569SOL    HW217528   2.956   1.989   4.842  1.0857 -0.4581  1.3630
 5570SOL     OW17529   6.377   4.988   0.870 -0.0579 -0.1551  0.1423
 5570SOL    HW117530   6.385   5.042   0.786  0.9792  0.4367  0.5901
 5570SOL    HW217531   6.281   4.984   0.898 -0.5692 -1.1713 -1.5585
 5571SOL     OW17532   3.149   6.137   1.799  0.2329  0.5350  0.0359
 5571SOL    HW117533   3.203   6.054   1.784 -2.7429 -1.5034 -0.3930
 5571SOL    HW217534   3.144   6.157   1.897 -2.6317 -2.6709  0.7598
 5572SOL     OW17535   3.326   3.114   6.803  0.1188  0.3648 -0.5775
 5572SOL    HW117536   3.303   3.211   6.802  0.6425  0.4887 -0.8244
 5572SOL    HW217537   3.422   3.102   6.776 -0.2807 -0.3197 -1.7231
 5573SOL     OW17538   6.467   1.505   1.618  0.0434  0.0710 -0.6187
 5573SOL    HW117539   6.514   1.420   1.642  0.9998  0.6349 -0.4221
 5573SOL    HW217540   6.534   1.573   1.589 -0.7767  0.5204 -1.5620
 5574SOL     OW17541   0.653   0.186   1.983  0.2615 -0.2994 -0.6853
 5574SOL    HW117542   0.575   0.241   2.011 -0.5676 -0.4042 -2.6027
 5574SOL    HW217543   0.737   0.241   1.991 -0.2227  0.3917 -0.1729
 5575SOL     OW17544   5.414   2.305   1.935 -0.2753 -0.0912  0.4547
 5575SOL    HW117545   5.503   2.344   1.962  0.9886 -1.5588 -1.3135
 5575SOL    HW217546   5.393   2.332   1.842 -1.6500  0.1411  0.8211
 5576SOL     OW17547   1.301   1.099   6.369  0.9068 -0.9377  0.2415
 5576SOL    HW117548   1.345   1.046   6.296 -1.6765 -0.9169 -1.4242
 5576SOL    HW217549   1.367   1.166   6.405  2.0907 -0.3850 -2.6091
 5577SOL     OW17550   2.002   6.122   1.116  0.2079  0.3755  0.0138
 5577SOL    HW117551   1.908   6.148   1.140 -0.5559 -2.3790  0.4994
 5577SOL    HW217552   2.003   6.079   1.026  1.1638  1.0458 -0.3136
 5578SOL     OW17553   3.872   2.856   1.832 -0.2785  0.6536 -0.3531
 5578SOL    HW117554   3.825   2.768   1.839 -2.2384  1.6088 -0.7579
 5578SOL    HW217555   3.933   2.855   1.754 -0.0868 -0.4457 -0.2046
 5579SOL     OW17556   1.460   6.448   3.905 -0.1117  0.1481 -0.1284
 5579SOL    HW117557   1.400   6.371   3.930  1.5050 -0.4849  2.0694
 5579SOL    HW217558   1.405   6.530   3.893 -1.7680 -1.0907 -1.5334
 5580SOL     OW17559   0.612   0.273   4.987  0.2501  0.2572  0.1822
 5580SOL    HW117560   0.637   0.358   5.035 -1.4950 -0.3515  2.3315
 5580SOL    HW217561   0.572   0.296   4.898  2.5022  1.4874 -0.5843
 5581SOL     OW17562   6.590   3.088   3.759 -0.4881 -0.2340 -0.7061
 5581SOL    HW117563   6.637   3.157   3.814 -0.0544 -0.2245 -1.0748
 5581SOL    HW217564   6.632   3.085   3.668  0.1095 -1.6086 -0.4111
 5582SOL     OW17565   1.235   7.004   6.353  0.0457  0.5009  0.2654
 5582SOL    HW117566   1.249   7.072   6.424  0.8576  1.4887 -0.8288
 5582SOL    HW217567   1.151   7.026   6.302 -0.3328 -0.0062  0.6675
 5583SOL     OW17568   2.150   1.753   6.960  0.0480  0.6346 -0.6729
 5583SOL    HW117569   2.062   1.785   6.926  1.0817  2.2462 -1.9993
 5583SOL    HW217570   2.140   1.660   6.996 -2.0375  0.5352 -1.3498
 5584SOL     OW17571   3.213   1.054   0.094  0.6073  0.0591  0.5086
 5584SOL    HW117572   3.204   0.974   0.034  0.6268  0.5484 -0.1513
 5584SOL    HW217573   3.279   1.033   0.167  2.6853  0.3629 -1.1919
 5585SOL     OW17574   1.181   3.378   2.265  0.2632 -0.5468 -0.1824
 5585SOL    HW117575   1.222   3.462   2.231  0.0511 -1.0644 -1.8501
 5585SOL    HW217576   1.206   3.302   2.204 -0.0212 -1.5670  0.9476
 5586SOL     OW17577   0.902   1.912   6.779  0.1021 -0.5422 -0.1803
 5586SOL    HW117578   0.990   1.902   6.827 -0.4260 -1.0711  0.7101
 5586SOL    HW217579   0.884   1.830   6.725  0.3319 -0.2733 -0.6667
 5587SOL     OW17580   3.007   3.158   6.109 -0.1812  0.1570 -0.4378
 5587SOL    HW117581   3.073   3.185   6.039  0.1996  1.9717  0.5644
 5587SOL    HW217582   2.916   3.150   6.067  0.2115  0.2040 -1.3216
 5588SOL     OW17583   0.938   4.087   1.784 -0.4137  0.3694 -0.3540
 5588SOL    HW117584   0.910   4.179   1.758  0.4064  1.1760  1.4062
 5588SOL    HW217585   0.981   4.042   1.706 -0.8474  1.4676 -1.2520
 5589SOL     OW17586   2.149   0.527   3.219 -0.4915 -0.3419  0.4142
 5589SOL    HW117587   2.094   0.603   3.184 -0.3105  0.2979  1.4734
 5589SOL    HW217588   2.240   0.532   3.178 -0.6455 -0.3123  0.0670
 5590SOL     OW17589   5.108   5.941   6.718 -0.0797  0.1401 -0.6651
 5590SOL    HW117590   5.045   5.869   6.688  0.2926  1.0469 -3.9986
 5590SOL    HW217591   5.055   6.018   6.756 -0.5683 -1.1353  1.3949
 5591SOL     OW17592   6.055   5.869   0.744  0.1331  0.5558  0.5033
 5591SOL    HW117593   5.964   5.848   0.779 -0.0119 -0.8257 -0.5880
 5591SOL    HW217594   6.119   5.880   0.820  0.3244 -4.3212  1.4108
 5592SOL     OW17595   2.459   6.400   1.781 -0.4296 -0.1262  0.4303
 5592SOL    HW117596   2.360   6.414   1.787 -0.8886 -2.3619 -0.5677
 5592SOL    HW217597   2.477   6.324   1.718  2.0391  1.4989 -0.9660
 5593SOL     OW17598   6.378   5.894   5.181 -0.2783  0.2455  0.6658
 5593SOL    HW117599   6.475   5.914   5.176 -0.4187  1.4577  2.0417
 5593SOL    HW217600   6.331   5.937   5.104  0.3209 -0.9074 -0.3849
 5594SOL     OW17601   6.006   6.992   0.948  0.3943 -0.6696  0.3112
 5594SOL    HW117602   6.005   7.062   0.877 -0.3836  1.0306  1.9296
 5594SOL    HW217603   6.060   7.024   1.026 -0.2134 -1.7849  1.2286
 5595SOL     OW17604   6.223   3.210   0.855  0.0429  0.0154 -0.1772
 5595SOL    HW117605   6.308   3.205   0.908 -0.6822 -0.3352  0.9928
 5595SOL    HW217606   6.223   3.138   0.786  0.7770  0.1374 -0.3190
 5596SOL     OW17607   2.096   5.252   1.406  0.3482  0.6284 -0.5504
 5596SOL    HW117608   2.176   5.307   1.379  1.1800 -0.1073  0.3120
 5596SOL    HW217609   2.103   5.161   1.365  1.4144 -0.3639  1.6565
 5597SOL     OW17610   0.142   4.540   3.266  0.0001  0.1177  0.0039
 5597SOL    HW117611   0.043   4.549   3.257  0.1142  0.1223 -1.7276
 5597SOL    HW217612   0.176   4.607   3.332 -0.7258  3.3955 -2.6359
 5598SOL     OW17613   4.608   5.607   2.486  0.3529  0.3987 -0.0807
 5598SOL    HW117614   4.558   5.648   2.562  2.2613  2.5190  0.1453
 5598SOL    HW217615   4.687   5.663   2.464  2.0376 -2.1940 -1.1513
 5599SOL     OW17616   5.511   4.762   1.634 -0.4256 -0.0817  0.0555
 5599SOL    HW117617   5.447   4.836   1.610  0.9729  0.9921 -0.4913
 5599SOL    HW217618   5.464   4.674   1.627 -1.8538  0.6723 -0.2745
 5600SOL     OW17619   2.714   5.042   5.058  0.5496 -0.7878 -0.0011
 5600SOL    HW117620   2.746   5.131   5.091 -1.0991 -0.2348  0.2036
 5600SOL    HW217621   2.646   5.056   4.986 -0.2314 -1.8628  0.5023
 5601SOL     OW17622   1.490   2.426   2.740  0.2598  0.2259  0.2310
 5601SOL    HW117623   1.485   2.512   2.792 -1.0176  1.4791 -1.8274
 5601SOL    HW217624   1.402   2.378   2.747  1.2869 -1.5576  2.2472
 5602SOL     OW17625   3.754   1.556   1.728  0.3554  0.0973  0.2133
 5602SOL    HW117626   3.766   1.547   1.629  0.7455 -1.0203  0.3473
 5602SOL    HW217627   3.748   1.465   1.769 -0.5388  0.5503  1.1334
 5603SOL     OW17628   6.302   2.819   3.742 -0.1852  0.0857  0.0394
 5603SOL    HW117629   6.296   2.915   3.716 -1.8881 -0.1769 -0.6585
 5603SOL    HW217630   6.399   2.793   3.750  0.3005  1.9950  0.8691
 5604SOL     OW17631   6.057   0.433   2.457  0.9901 -0.0517  0.1966
 5604SOL    HW117632   6.101   0.344   2.467  0.6528 -0.0930  1.4255
 5604SOL    HW217633   6.001   0.433   2.374  2.2177 -0.4442 -0.6522
 5605SOL     OW17634   2.983   4.782   6.892  0.4689  0.6276 -0.0012
 5605SOL    HW117635   3.014   4.753   6.983  1.2674 -1.8681 -0.9800
 5605SOL    HW217636   3.051   4.754   6.824 -0.6726  1.3992 -1.5065
 5606SOL     OW17637   3.934   6.530   0.812 -0.0864  0.2862  0.1203
 5606SOL    HW117638   3.963   6.496   0.901 -0.5071 -1.4642 -0.3741
 5606SOL    HW217639   3.894   6.455   0.759  1.5232  0.9047 -2.1114
 5607SOL     OW17640   6.724   0.711   5.082  0.3283  0.5401 -0.1797
 5607SOL    HW117641   6.633   0.668   5.082  0.7555 -0.3929 -0.2562
 5607SOL    HW217642   6.794   0.640   5.083  1.0809  1.1419 -2.5807
 5608SOL     OW17643   0.312   1.905   1.631  0.4477 -0.3811  0.4048
 5608SOL    HW117644   0.321   1.868   1.539  0.9441 -0.4722  0.4837
 5608SOL    HW217645   0.216   1.924   1.651  0.3318 -0.4183 -0.1073
 5609SOL     OW17646   3.859   4.736   2.828  0.5628 -0.0385 -0.0256
 5609SOL    HW117647   3.817   4.814   2.874 -0.0168 -0.1678 -0.3332
 5609SOL    HW217648   3.897   4.674   2.896  0.2461  0.0735  0.2574
 5610SOL     OW17649   4.279   1.766   6.076  0.0163 -0.6176 -0.2289
 5610SOL    HW117650   4.342   1.844   6.078 -0.3667 -0.2901 -0.6378
 5610SOL    HW217651   4.320   1.689   6.125  0.8483 -0.4966 -0.7069
 5611SOL     OW17652   5.398   6.442   3.994  0.0883 -0.1840 -0.4260
 5611SOL    HW117653   5.379   6.540   3.994  1.9258  0.2051 -0.6549
 5611SOL    HW217654   5.335   6.396   4.057  1.3883  1.6057  2.4082
 5612SOL     OW17655   6.365   0.210   3.301  0.4342  0.3812 -0.7393
 5612SOL    HW117656   6.300   0.135   3.287  1.2896 -0.3687 -0.8040
 5612SOL    HW217657   6.435   0.182   3.366 -0.2977  1.8210  0.7423
 5613SOL     OW17658   2.706   3.968   2.173  0.0048  0.5114  0.3453
 5613SOL    HW117659   2.667   4.058   2.155  0.2813  0.6940  0.6388
 5613SOL    HW217660   2.764   3.972   2.255 -0.4329 -0.0663  0.6926
 5614SOL     OW17661   3.398   4.211   2.937 -0.2558 -0.0999  0.0497
 5614SOL    HW117662   3.343   4.269   2.997 -0.6623 -0.2107 -0.2128
 5614SOL    HW217663   3.491   4.205   2.972 -0.3677  0.2317  0.4013
 5615SOL     OW17664   0.389   0.982   0.672 -0.1830  0.9874  0.2724
 5615SOL    HW117665   0.456   1.040   0.625  1.2006  0.0699  1.0479
 5615SOL    HW217666   0.314   0.960   0.608 -0.1193  2.5616 -0.4091
 5616SOL     OW17667   5.274   4.804   2.413  0.4103 -0.4692 -0.6310
 5616SOL    HW117668   5.299   4.857   2.494 -1.1583  0.4814 -0.7270
 5616SOL    HW217669   5.356   4.784   2.359  0.9891  3.4435 -1.5168
 5617SOL     OW17670   2.956   1.403   6.113 -0.2172  0.0356 -0.2473
 5617SOL    HW117671   2.861   1.403   6.146 -0.1217 -1.7509  0.0842
 5617SOL    HW217672   2.985   1.310   6.093  1.1710  0.6515 -1.2985
 5618SOL     OW17673   0.808   3.532   2.975  0.2677  0.1633 -0.5808
 5618SOL    HW117674   0.771   3.539   3.068  1.6326 -1.0905  0.1067
 5618SOL    HW217675   0.764   3.599   2.916 -1.4546  0.2223  0.6986
 5619SOL     OW17676   5.638   5.467   3.219  0.9190 -0.1349  0.0621
 5619SOL    HW117677   5.546   5.496   3.244  0.9111  0.2164 -0.3417
 5619SOL    HW217678   5.641   5.368   3.206  0.7961 -0.2482  0.8911
 5620SOL     OW17679   0.129   4.914   5.865  0.1784  0.0740  0.1343
 5620SOL    HW117680   0.204   4.850   5.846 -0.5782 -0.9091  0.3908
 5620SOL    HW217681   0.119   4.977   5.788  0.1717 -0.8737 -0.6570
 5621SOL     OW17682   3.054   0.115   0.341 -0.3513 -0.4510  0.2932
 5621SOL    HW117683   3.046   0.139   0.437  0.7139 -1.2007  0.5877
 5621SOL    HW217684   3.059   0.198   0.285  1.4377  0.0181  1.1011
 5622SOL     OW17685   5.396   2.842   4.354  0.6953 -0.0601  0.7042
 5622SOL    HW117686   5.401   2.808   4.448 -1.4469 -1.7073  0.2825
 5622SOL    HW217687   5.301   2.847   4.325  1.2287  1.8349 -0.9230
 5623SOL     OW17688   6.252   2.641   1.082 -0.1754 -0.4730 -0.7319
 5623SOL    HW117689   6.194   2.713   1.120  1.1954  0.2264  0.1313
 5623SOL    HW217690   6.308   2.679   1.009 -0.3088 -0.9699 -1.0935
 5624SOL     OW17691   0.817   1.525   1.194 -0.1357  0.3578 -0.1337
 5624SOL    HW117692   0.882   1.479   1.254  0.4266  0.2802 -0.7963
 5624SOL    HW217693   0.771   1.457   1.137 -0.1900  0.4970 -0.2572
 5625SOL     OW17694   5.968   6.417   2.533  0.0484  0.4294 -0.6060
 5625SOL    HW117695   6.003   6.455   2.447 -0.1735  3.6792  0.5899
 5625SOL    HW217696   6.041   6.414   2.601 -0.6900  2.3182  0.3705
 5626SOL     OW17697   3.959   5.415   6.641 -0.0706 -0.2110  0.4138
 5626SOL    HW117698   3.875   5.362   6.634  0.2149 -0.4408 -2.0196
 5626SOL    HW217699   3.941   5.509   6.612  0.1936  0.1522  1.3821
 5627SOL     OW17700   2.201   2.305   1.779 -0.0772 -0.0160 -0.3478
 5627SOL    HW117701   2.160   2.225   1.823  0.9076 -1.1662 -1.4284
 5627SOL    HW217702   2.178   2.388   1.831 -1.2366 -0.9732  0.7216
 5628SOL     OW17703   0.519   4.583   3.413 -0.1940 -0.0829 -0.2381
 5628SOL    HW117704   0.517   4.619   3.320  0.3264  1.0030  0.1475
 5628SOL    HW217705   0.426   4.566   3.444 -0.3927 -0.1054 -0.8289
 5629SOL     OW17706   6.130   4.510   4.291  0.1640 -0.4926 -0.2604
 5629SOL    HW117707   6.150   4.481   4.197  1.6929 -1.6178  0.3635
 5629SOL    HW217708   6.182   4.594   4.311  0.8332 -0.9415 -0.0524
 5630SOL     OW17709   4.200   4.592   3.865 -0.0872 -0.1107 -0.1091
 5630SOL    HW117710   4.120   4.652   3.870 -0.8923 -1.2341  1.1241
 5630SOL    HW217711   4.192   4.533   3.784 -0.6349 -0.3953  0.1486
 5631SOL     OW17712   1.058   4.076   5.402 -0.0156 -0.3953  0.0559
 5631SOL    HW117713   1.103   4.089   5.490 -0.1181 -3.0188  0.5901
 5631SOL    HW217714   1.124   4.040   5.336 -0.7737 -2.1985  0.2295
 5632SOL     OW17715   1.908   2.697   3.301  0.5134  0.1994 -0.3464
 5632SOL    HW117716   2.002   2.717   3.327 -0.1063  2.7593  0.0734
 5632SOL    HW217717   1.846   2.722   3.375 -0.7350  1.4628 -1.7586
 5633SOL     OW17718   1.448   0.499   3.863 -0.2774 -0.0572  0.5095
 5633SOL    HW117719   1.354   0.465   3.858  0.2357 -1.4694  0.0316
 5633SOL    HW217720   1.508   0.428   3.901  0.6908  0.6257  0.3023
 5634SOL     OW17721   1.880   1.724   4.307  0.1664  0.2388 -0.2998
 5634SOL    HW117722   1.901   1.821   4.314  0.2723  0.2117 -0.2421
 5634SOL    HW217723   1.822   1.708   4.227 -2.1381  0.7414  1.1743
 5635SOL     OW17724   5.224   6.765   4.538  0.6870  0.7942  0.0473
 5635SOL    HW117725   5.314   6.764   4.582  0.8676  1.3565 -0.2991
 5635SOL    HW217726   5.217   6.689   4.473 -0.2625 -1.2027  2.3528
 5636SOL     OW17727   2.670   0.159   0.012  0.0923 -0.7275  0.2440
 5636SOL    HW117728   2.623   0.118  -0.066  0.4713 -0.8388  0.0930
 5636SOL    HW217729   2.712   0.086   0.067  0.9873 -0.5707 -0.2113
 5637SOL     OW17730   3.475   1.546   2.096  0.0225 -0.0653 -0.0271
 5637SOL    HW117731   3.423   1.562   2.012  0.1247 -1.8518 -0.4553
 5637SOL    HW217732   3.524   1.630   2.120 -1.9617  1.2479 -0.3294
 5638SOL     OW17733   4.486   1.449   3.269 -0.2607  0.7464 -0.1207
 5638SOL    HW117734   4.558   1.405   3.214 -0.9962  0.5436 -0.9403
 5638SOL    HW217735   4.449   1.527   3.219 -2.5835 -0.8345 -1.0460
 5639SOL     OW17736   5.227   0.857   6.210  0.1620  0.6400 -0.0038
 5639SOL    HW117737   5.227   0.888   6.305 -0.3395  0.7581 -0.0450
 5639SOL    HW217738   5.174   0.772   6.203  0.2501  0.5984 -0.1697
 5640SOL     OW17739   4.194   0.295   4.104  0.4191 -0.2423  0.2140
 5640SOL    HW117740   4.193   0.240   4.188  1.7863  1.1942  1.2344
 5640SOL    HW217741   4.288   0.323   4.085 -0.0721  0.6224 -1.0419
 5641SOL     OW17742   0.831   2.215   5.364  0.4057 -0.2035  0.2193
 5641SOL    HW117743   0.735   2.208   5.337  0.5410  2.4902 -1.2760
 5641SOL    HW217744   0.889   2.192   5.286  0.9485 -0.2001  0.6157
 5642SOL     OW17745   0.921   0.176   0.374  0.0567 -0.1354 -0.4320
 5642SOL    HW117746   0.888   0.082   0.386  2.5793 -0.9475  0.6664
 5642SOL    HW217747   1.019   0.179   0.392  0.3463  2.4381 -2.0791
 5643SOL     OW17748   2.572   5.763   0.635 -0.4354  0.2658  0.4432
 5643SOL    HW117749   2.604   5.691   0.573 -0.7693  1.8186 -1.6329
 5643SOL    HW217750   2.472   5.758   0.643 -0.3508 -0.2816  1.3640
 5644SOL     OW17751   3.793   3.642   2.738 -0.5380  0.3499 -0.0116
 5644SOL    HW117752   3.833   3.669   2.825 -0.6216  0.0679  0.1177
 5644SOL    HW217753   3.835   3.556   2.708 -0.1015  0.7335 -0.5296
 5645SOL     OW17754   3.104   0.353   3.346  0.0817  0.9351  0.4221
 5645SOL    HW117755   3.185   0.404   3.317 -0.5649  1.2041 -1.0344
 5645SOL    HW217756   3.031   0.366   3.278 -1.1434  0.6121  1.6307
 5646SOL     OW17757   6.620   2.538   4.136 -0.0158  0.1886  0.0737
 5646SOL    HW117758   6.647   2.529   4.041 -0.5288  1.5680 -0.2379
 5646SOL    HW217759   6.544   2.603   4.143  0.3436  0.5098  1.4765
 5647SOL     OW17760   5.041   3.350   5.554  1.1657  0.4918  0.3711
 5647SOL    HW117761   5.099   3.352   5.635  0.1964  1.0654  1.0688
 5647SOL    HW217762   4.966   3.414   5.565 -0.2680 -1.0348 -0.0353
 5648SOL     OW17763   2.541   1.099   2.972  0.2845 -0.2127  0.5992
 5648SOL    HW117764   2.501   1.180   2.930 -1.3197 -0.6866  1.1834
 5648SOL    HW217765   2.491   1.075   3.055  0.7991 -1.7510  0.5035
 5649SOL     OW17766   2.762   1.071   5.622  0.5487 -0.4042  0.9906
 5649SOL    HW117767   2.773   1.094   5.719  1.2829  1.7388  0.4528
 5649SOL    HW217768   2.730   1.151   5.572 -3.5389 -2.4424 -0.0167
 5650SOL     OW17769   6.695   4.793   2.531 -0.5027  0.2211 -0.5902
 5650SOL    HW117770   6.713   4.749   2.619  2.5318  0.4208 -1.0215
 5650SOL    HW217771   6.618   4.857   2.541 -0.8306 -0.4400  1.6518
 5651SOL     OW17772   0.040   4.015   4.333 -0.1862  0.0871  0.4967
 5651SOL    HW117773  -0.053   4.049   4.325  0.1107  0.8560  0.5453
 5651SOL    HW217774   0.056   3.944   4.265 -0.9958 -0.4913  0.8978
 5652SOL     OW17775   4.318   1.244   3.080 -0.0241 -0.1235 -0.2025
 5652SOL    HW117776   4.220   1.225   3.075 -0.5672  2.1203  0.5416
 5652SOL    HW217777   4.368   1.159   3.095 -1.8768 -1.2916 -0.2938
 5653SOL     OW17778   6.692   6.249   3.730  0.3478  0.1264  0.7528
 5653SOL    HW117779   6.719   6.157   3.757 -0.1898  0.5724  3.0433
 5653SOL    HW217780   6.658   6.247   3.636  0.3342 -2.0106  0.7444
 5654SOL     OW17781   1.122   1.876   6.966  0.4061 -0.2997 -0.5449
 5654SOL    HW117782   1.158   1.786   6.942  0.1346 -0.5376 -0.0674
 5654SOL    HW217783   1.047   1.866   7.031  0.4712  0.2787 -0.3985
 5655SOL     OW17784   3.822   1.407   5.003  0.0448 -0.3563  0.2204
 5655SOL    HW117785   3.800   1.320   5.047  0.3668 -0.0429  1.0221
 5655SOL    HW217786   3.742   1.467   5.006 -0.7375 -1.1762 -1.8038
 5656SOL     OW17787   1.152   4.001   3.200 -0.0603  0.5006  0.0551
 5656SOL    HW117788   1.124   3.916   3.242 -0.8548  1.1750  0.9224
 5656SOL    HW217789   1.221   3.982   3.129 -1.7765 -1.0646 -1.2883
 5657SOL     OW17790   2.917   6.461   0.376 -0.9984 -0.7204  0.0088
 5657SOL    HW117791   2.936   6.463   0.278 -1.9612  0.7704 -0.1805
 5657SOL    HW217792   2.993   6.417   0.424 -1.4068 -3.2926 -1.5605
 5658SOL     OW17793   5.599   6.880   2.723 -0.3779  0.0487  0.0358
 5658SOL    HW117794   5.606   6.944   2.647 -1.2187 -1.3759 -1.3117
 5658SOL    HW217795   5.523   6.906   2.783  1.2902  2.0998  1.3411
 5659SOL     OW17796   5.261   0.490   2.246 -0.1478  0.3919  0.1174
 5659SOL    HW117797   5.344   0.546   2.255 -0.1172  0.2647  0.7313
 5659SOL    HW217798   5.185   0.536   2.292 -0.4793  0.6190 -0.6413
 5660SOL     OW17799   5.850   4.282   0.947 -0.6684  0.3044  0.5515
 5660SOL    HW117800   5.931   4.299   1.003  0.0732  0.0419 -0.4153
 5660SOL    HW217801   5.783   4.230   1.000  0.3583 -0.6557  0.9480
 5661SOL     OW17802   0.996   4.843   2.752 -0.3217 -0.2035  0.0202
 5661SOL    HW117803   1.025   4.773   2.817 -2.3379 -0.4884  0.6746
 5661SOL    HW217804   0.924   4.807   2.694 -0.6084  0.9776 -0.3948
 5662SOL     OW17805   4.545   2.635   0.901  0.3593 -0.4635 -0.3044
 5662SOL    HW117806   4.466   2.636   0.963 -0.4635  2.3956 -1.2750
 5662SOL    HW217807   4.526   2.572   0.826 -0.0422 -1.4360  0.5736
 5663SOL     OW17808   4.178   5.662   4.683  0.5514  0.2297  0.1854
 5663SOL    HW117809   4.144   5.742   4.635  0.4281 -0.0108 -0.1419
 5663SOL    HW217810   4.170   5.582   4.623  1.7141  0.1690  0.0929
 5664SOL     OW17811   0.590   6.172   2.695 -0.0220  0.2839  0.1004
 5664SOL    HW117812   0.516   6.127   2.647  1.0674  0.2489 -1.6748
 5664SOL    HW217813   0.567   6.268   2.709 -0.4361  0.2652 -0.4103
 5665SOL     OW17814   6.669   2.860   1.509 -0.0491  0.4579  0.3095
 5665SOL    HW117815   6.718   2.944   1.532  1.4226 -0.6793  1.4960
 5665SOL    HW217816   6.580   2.860   1.555 -1.5328  2.7619 -2.2600
 5666SOL     OW17817   3.500   5.546   0.808 -0.1359 -0.1380 -0.0529
 5666SOL    HW117818   3.543   5.615   0.749  2.9713 -0.7784  1.2701
 5666SOL    HW217819   3.457   5.591   0.886  1.2345  0.3852  0.4234
 5667SOL     OW17820   4.040   6.311   2.674  0.5889  0.2769  0.3958
 5667SOL    HW117821   4.065   6.216   2.690 -0.3687  0.5311  4.2708
 5667SOL    HW217822   4.114   6.358   2.626  0.6765 -2.5347 -2.5322
 5668SOL     OW17823   0.070   1.162   6.255 -0.3600  0.1089 -0.1212
 5668SOL    HW117824   0.077   1.149   6.354 -1.1379 -0.8986 -0.1814
 5668SOL    HW217825  -0.017   1.206   6.232  0.5647  1.9395 -0.2529
 5669SOL     OW17826   0.487   2.766   5.947  0.4558 -0.3890  0.4791
 5669SOL    HW117827   0.487   2.667   5.933  0.9379 -0.5880  1.6820
 5669SOL    HW217828   0.540   2.810   5.875  0.5477 -1.0405  0.1440
 5670SOL     OW17829   6.076   5.071   5.516 -0.3011 -0.1679  0.0161
 5670SOL    HW117830   6.016   5.007   5.468 -1.4281  0.1096  1.0214
 5670SOL    HW217831   6.166   5.029   5.529 -1.3358 -2.0473  1.6602
 5671SOL     OW17832   3.409   4.759   3.702  0.9123 -0.0970  0.1696
 5671SOL    HW117833   3.407   4.764   3.802 -0.0983 -0.2390  0.1619
 5671SOL    HW217834   3.501   4.734   3.672  1.3927  0.5760  1.0378
 5672SOL     OW17835   5.033   4.588   5.610  0.2334  0.1626  0.1862
 5672SOL    HW117836   4.954   4.625   5.660  0.3515 -1.5719  1.7919
 5672SOL    HW217837   5.008   4.573   5.514 -1.4835 -0.4881  0.6890
 5673SOL     OW17838   6.883   0.589   5.679 -0.0254  0.0100  0.3223
 5673SOL    HW117839   6.962   0.577   5.739  0.7471 -0.1799 -0.6995
 5673SOL    HW217840   6.817   0.516   5.696  0.5685 -0.5354  0.3837
 5674SOL     OW17841   1.629   3.096   6.179  0.2986  0.0472 -0.4731
 5674SOL    HW117842   1.660   3.183   6.142  0.2823 -0.3065 -1.3208
 5674SOL    HW217843   1.562   3.055   6.117  0.1068 -0.4447  0.0517
 5675SOL     OW17844   6.871   6.603   4.591 -1.0857  0.1907  0.3358
 5675SOL    HW117845   6.849   6.509   4.614 -1.6256  0.6105  1.5901
 5675SOL    HW217846   6.970   6.615   4.588 -1.0165 -0.4452  0.0231
 5676SOL     OW17847   5.606   1.293   6.296  0.1876 -0.1128  0.7763
 5676SOL    HW117848   5.669   1.317   6.223 -0.5905 -1.3827 -0.3428
 5676SOL    HW217849   5.514   1.279   6.258 -0.4991  0.3486  2.1747
 5677SOL     OW17850   5.237   1.994   3.678  0.2496  0.0353 -0.3746
 5677SOL    HW117851   5.179   1.955   3.607  0.7766 -1.1216 -0.2098
 5677SOL    HW217852   5.180   2.039   3.747 -0.4278 -0.7965 -0.3779
 5678SOL     OW17853   2.584   2.890   2.955  0.5549 -0.1639 -0.4155
 5678SOL    HW117854   2.635   2.811   2.990 -1.1045 -0.3449  1.8050
 5678SOL    HW217855   2.590   2.965   3.020  0.3615  0.8214 -1.5074
 5679SOL     OW17856   1.289   0.408   4.621 -0.1743  0.0830  0.0552
 5679SOL    HW117857   1.350   0.437   4.548 -0.6003  1.2275  0.1421
 5679SOL    HW217858   1.268   0.311   4.610  2.9025 -0.7952  0.9126
 5680SOL     OW17859   6.837   2.250   4.495 -0.6755  0.1250 -0.2337
 5680SOL    HW117860   6.871   2.161   4.526  1.4200  0.7983 -0.4352
 5680SOL    HW217861   6.872   2.322   4.556  1.6956  1.2457 -2.7108
 5681SOL     OW17862   0.733   1.991   1.831  0.4877 -0.2421  0.5399
 5681SOL    HW117863   0.797   2.005   1.755 -1.4937 -1.2813 -1.4194
 5681SOL    HW217864   0.676   2.072   1.841  0.0085 -0.5231  0.1462
 5682SOL     OW17865   4.635   6.906   0.428 -0.1961  0.2851  0.2485
 5682SOL    HW117866   4.561   6.946   0.481  0.3742  0.6786  0.7680
 5682SOL    HW217867   4.665   6.970   0.358 -1.4789 -0.5289 -1.1072
 5683SOL     OW17868   1.099   6.847   3.198 -0.0233 -0.0630  0.3264
 5683SOL    HW117869   1.029   6.912   3.167  1.1449 -0.1362 -2.9162
 5683SOL    HW217870   1.058   6.758   3.213 -0.7643  0.0661 -0.8496
 5684SOL     OW17871   4.605   6.336   6.701  1.2572  0.0105  0.3189
 5684SOL    HW117872   4.538   6.277   6.655  2.0289 -1.1453  0.6398
 5684SOL    HW217873   4.665   6.377   6.632  0.6549  0.5034  0.0854
 5685SOL     OW17874   6.973   2.962   2.924  0.3547  0.5231 -0.1670
 5685SOL    HW117875   6.911   2.929   2.853  0.0705  0.1964  0.2312
 5685SOL    HW217876   7.065   2.973   2.885 -0.0067  1.2314 -0.8165
 5686SOL     OW17877   5.979   6.075   1.042 -0.1813  0.1547  0.0116
 5686SOL    HW117878   5.933   5.986   1.046  0.5272 -0.1931  0.8141
 5686SOL    HW217879   5.939   6.130   0.968  0.5169 -1.4976 -1.6989
 5687SOL     OW17880   4.505   0.068   4.663  0.6160 -0.0222  0.0717
 5687SOL    HW117881   4.552   0.149   4.700  0.4896  0.0396  0.1009
 5687SOL    HW217882   4.408   0.088   4.655  0.8027  0.3804 -1.4379
 5688SOL     OW17883   6.532   5.851   5.532 -0.2100  0.0003 -0.4987
 5688SOL    HW117884   6.527   5.858   5.631 -2.5028 -0.7404 -0.4942
 5688SOL    HW217885   6.521   5.756   5.504  1.2933  0.0655 -1.4719
 5689SOL     OW17886   6.886   3.701   5.306 -0.4086  0.1005  0.1939
 5689SOL    HW117887   6.874   3.645   5.388  0.5927 -1.0596 -0.4203
 5689SOL    HW217888   6.981   3.730   5.299 -0.7065  1.0557 -0.0297
 5690SOL     OW17889   6.570   5.646   0.930 -0.5929 -0.1233  0.2269
 5690SOL    HW117890   6.573   5.550   0.957  1.8903  0.2646  1.6739
 5690SOL    HW217891   6.628   5.660   0.850 -2.0345 -0.0240 -0.8276
 5691SOL     OW17892   3.319   0.386   1.215 -0.7781  0.6390  0.1936
 5691SOL    HW117893   3.247   0.441   1.172  0.5417  1.3736 -1.1583
 5691SOL    HW217894   3.408   0.425   1.192  0.2289 -2.0739 -0.8065
 5692SOL     OW17895   5.126   6.036   6.371  0.0318 -0.5109  0.0861
 5692SOL    HW117896   5.211   6.066   6.413 -0.2164 -0.5884  0.6561
 5692SOL    HW217897   5.129   5.938   6.354  1.4198 -0.0418 -3.0968
 5693SOL     OW17898   5.147   6.178   4.960 -0.1476 -1.0624  0.3638
 5693SOL    HW117899   5.145   6.276   4.984 -0.9285 -0.3993 -2.1115
 5693SOL    HW217900   5.131   6.124   5.042  0.5075  0.8710  1.8527
 5694SOL     OW17901   0.044   4.976   3.072  0.3121 -0.6123 -0.0215
 5694SOL    HW117902   0.004   4.905   3.014  1.5096 -1.0391 -0.3208
 5694SOL    HW217903   0.125   4.941   3.118  1.2362  0.6871 -0.5973
 5695SOL     OW17904   2.836   6.720   2.372  0.2988  0.2369 -0.2060
 5695SOL    HW117905   2.819   6.648   2.439  0.7047  0.6178  0.3125
 5695SOL    HW217906   2.924   6.763   2.390  0.3166  0.4887 -0.8584
 5696SOL     OW17907   6.242   4.342   4.558 -0.6329 -0.2841  0.4543
 5696SOL    HW117908   6.165   4.398   4.588 -1.1191 -1.0130  0.6081
 5696SOL    HW217909   6.210   4.249   4.540 -0.5622  0.2726 -3.0944
 5697SOL     OW17910   5.825   1.380   1.968  0.4500 -0.2042 -0.1542
 5697SOL    HW117911   5.772   1.307   2.013  1.5775  1.1482  3.7533
 5697SOL    HW217912   5.803   1.468   2.010  1.3801  1.3377 -2.6748
 5698SOL     OW17913   1.945   1.330   6.421  0.6431 -0.3554  0.5481
 5698SOL    HW117914   2.007   1.273   6.475  1.6203  0.1134 -0.0490
 5698SOL    HW217915   1.963   1.318   6.324 -1.3758 -1.4984  0.2379
 5699SOL     OW17916   1.030   6.639   1.275  0.2067  0.6129 -0.0873
 5699SOL    HW117917   0.996   6.665   1.365  0.7582  2.6688 -0.4288
 5699SOL    HW217918   1.128   6.621   1.281  0.1031  0.0071 -0.1463
 5700SOL     OW17919   2.109   5.843   6.360 -0.5076 -0.4693  0.0718
 5700SOL    HW117920   2.092   5.921   6.420 -0.6603 -0.3998 -0.0586
 5700SOL    HW217921   2.190   5.793   6.391  0.6195  0.7073 -0.7935
 5701SOL     OW17922   1.045   1.259   0.370 -0.7746 -0.1330  0.5368
 5701SOL    HW117923   1.049   1.289   0.275  0.3444 -1.7556  0.0337
 5701SOL    HW217924   1.114   1.308   0.423 -0.7895  0.1232  0.3220
 5702SOL     OW17925   1.251   5.958   1.396 -0.4495  0.3003 -0.0800
 5702SOL    HW117926   1.220   5.942   1.302 -2.8934  1.5711  0.4133
 5702SOL    HW217927   1.291   5.874   1.433 -1.3380 -0.8341 -1.5753
 5703SOL     OW17928   1.465   0.505   0.931  0.4135 -0.3301 -0.0058
 5703SOL    HW117929   1.492   0.600   0.947 -1.1529  0.3735 -1.2654
 5703SOL    HW217930   1.367   0.496   0.946  0.6999 -1.9922  1.0326
 5704SOL     OW17931   5.258   1.933   3.191 -0.0139 -0.0754  0.5038
 5704SOL    HW117932   5.354   1.954   3.210 -0.0495  0.4360  0.1511
 5704SOL    HW217933   5.251   1.842   3.149  0.3266 -0.0667  0.4236
 5705SOL     OW17934   1.055   6.880   2.578 -0.1776  0.5389 -1.0999
 5705SOL    HW117935   1.148   6.883   2.615 -0.2562  0.8820 -0.9073
 5705SOL    HW217936   1.054   6.921   2.487  0.1996 -1.2143 -1.9093
 5706SOL     OW17937   6.796   0.852   1.398 -0.4249 -0.4357 -0.5015
 5706SOL    HW117938   6.732   0.892   1.464  0.4894  0.0336  0.1250
 5706SOL    HW217939   6.747   0.788   1.339 -1.6809  0.7092 -0.7457
 5707SOL     OW17940   5.636   3.899   4.267 -0.4496 -0.2739  0.1424
 5707SOL    HW117941   5.645   3.961   4.189 -0.6208  1.6055  1.5678
 5707SOL    HW217942   5.540   3.875   4.279 -0.5997  0.4931  0.5443
 5708SOL     OW17943   7.013   6.478   5.295 -0.3549 -0.4180  0.4075
 5708SOL    HW117944   6.944   6.550   5.294  1.5265  1.4514  0.7006
 5708SOL    HW217945   7.023   6.441   5.203 -0.8383  0.1977  0.0955
 5709SOL     OW17946   1.871   4.987   3.788  0.3581  0.0253  0.0759
 5709SOL    HW117947   1.896   4.892   3.770 -0.6010 -0.0941 -0.6928
 5709SOL    HW217948   1.815   5.022   3.713 -1.9676  0.2251  1.7922
 5710SOL     OW17949   4.065   7.006   4.493  0.3528 -0.2722  0.2649
 5710SOL    HW117950   3.998   7.036   4.561 -0.2805 -0.7848 -0.1122
 5710SOL    HW217951   4.086   6.909   4.507 -2.3149 -1.3709 -2.2029
 5711SOL     OW17952   0.624   1.617   3.436 -0.4219  0.6932 -0.2549
 5711SOL    HW117953   0.656   1.540   3.380  2.8636  1.2361  0.6319
 5711SOL    HW217954   0.699   1.682   3.449 -2.6297  3.2969  0.3637
 5712SOL     OW17955   3.255   0.208   2.958 -0.0548 -0.0740 -0.1116
 5712SOL    HW117956   3.328   0.173   2.898 -1.0122 -1.4756 -0.5049
 5712SOL    HW217957   3.166   0.195   2.913 -0.6926  0.0454  1.0858
 5713SOL     OW17958   1.256   6.336   6.079  0.3170  0.1468  0.4400
 5713SOL    HW117959   1.264   6.290   6.167 -1.3042  1.3214  1.2680
 5713SOL    HW217960   1.305   6.423   6.082  0.6641 -0.0317  0.0079
 5714SOL     OW17961   6.538   3.856   6.716 -0.1569 -0.3263  0.1493
 5714SOL    HW117962   6.484   3.891   6.793 -0.6530 -1.2604  0.2408
 5714SOL    HW217963   6.629   3.831   6.747  0.2465  0.9789  0.0594
 5715SOL     OW17964   2.054   5.778   1.134 -0.0662  0.2621 -0.3836
 5715SOL    HW117965   2.098   5.844   1.194 -0.8877  0.8888 -0.4699
 5715SOL    HW217966   2.037   5.693   1.184  2.4466 -0.5108 -0.6926
 5716SOL     OW17967   6.673   5.829   3.975  0.3214 -0.3775  0.5489
 5716SOL    HW117968   6.722   5.789   3.897 -0.2202  1.1215 -0.6109
 5716SOL    HW217969   6.575   5.815   3.963  0.2594 -0.5206  1.1942
 5717SOL     OW17970   1.138   4.871   0.534 -0.3426 -0.8699 -0.0527
 5717SOL    HW117971   1.125   4.905   0.627 -0.8998  1.3878 -0.8919
 5717SOL    HW217972   1.094   4.782   0.525  1.5005 -2.1281  2.3655
 5718SOL     OW17973   1.445   5.642   2.748  0.6153  0.5065 -0.0152
 5718SOL    HW117974   1.474   5.585   2.672  2.1836 -1.1654  1.7418
 5718SOL    HW217975   1.462   5.738   2.727 -0.2034  0.2112 -2.2355
 5719SOL     OW17976   0.924   4.781   2.343 -0.4909  0.3067  0.2801
 5719SOL    HW117977   0.998   4.747   2.402  0.6804 -0.0911 -1.3467
 5719SOL    HW217978   0.846   4.719   2.349 -0.0707 -0.1944  0.7886
 5720SOL     OW17979   0.123   0.159   2.819 -0.2955 -0.1381 -0.3361
 5720SOL    HW117980   0.096   0.242   2.868  0.3882 -0.5341  0.7542
 5720SOL    HW217981   0.209   0.125   2.856 -0.8945 -1.7114 -0.3069
 5721SOL     OW17982   5.841   2.954   7.007  0.2854 -0.4751 -0.0555
 5721SOL    HW117983   5.767   2.982   6.945 -0.3577 -0.8709  0.5230
 5721SOL    HW217984   5.914   2.912   6.954  1.1796  2.0354 -0.9476
 5722SOL     OW17985   6.788   5.010   6.812  0.0707 -0.1558  0.7200
 5722SOL    HW117986   6.720   5.045   6.877  1.8090  1.2269  1.9207
 5722SOL    HW217987   6.840   5.087   6.774  0.4296 -1.0905 -0.8278
 5723SOL     OW17988   1.713   6.636   3.953  0.4246 -0.1436  0.3680
 5723SOL    HW117989   1.670   6.571   4.015  0.8098 -0.0083  0.7881
 5723SOL    HW217990   1.808   6.651   3.980  0.8632 -0.7172 -0.7548
 5724SOL     OW17991   0.509   1.337   1.300 -0.5498 -0.7629 -0.3587
 5724SOL    HW117992   0.430   1.397   1.316 -1.1677 -1.8646  0.8704
 5724SOL    HW217993   0.549   1.359   1.211 -0.2923  1.9675  0.3316
 5725SOL     OW17994   4.136   4.859   6.397 -0.6261 -0.1829  0.0016
 5725SOL    HW117995   4.098   4.812   6.477 -0.9616  0.1517  0.0417
 5725SOL    HW217996   4.224   4.899   6.420 -0.0815 -1.2404 -0.1776
 5726SOL     OW17997   0.949   4.695   1.050  0.5671  0.0533 -1.2844
 5726SOL    HW117998   1.030   4.663   1.099  2.1723  2.6625 -2.0711
 5726SOL    HW217999   0.892   4.617   1.026  0.8794 -1.5613  2.5704
 5727SOL     OW18000   2.740   1.327   5.469 -0.2273  0.8233 -0.2906
 5727SOL    HW118001   2.782   1.316   5.379 -0.9859 -0.7289 -0.4932
 5727SOL    HW218002   2.785   1.401   5.519  0.2405  1.6751 -1.9188
 5728SOL     OW18003   5.958   2.859   2.816 -0.6215  0.2361 -0.2089
 5728SOL    HW118004   5.960   2.937   2.754 -0.6390  0.1131 -0.3639
 5728SOL    HW218005   5.875   2.806   2.801 -0.0192 -0.5139 -0.9593
 5729SOL     OW18006   5.677   6.771   0.147 -0.8610  0.7088  0.0612
 5729SOL    HW118007   5.709   6.781   0.241 -2.0579  0.0146  0.5544
 5729SOL    HW218008   5.751   6.797   0.084  0.1495  0.6092  1.1713
 5730SOL     OW18009   0.553   3.367   1.363  0.2477  0.2899 -0.6112
 5730SOL    HW118010   0.629   3.399   1.421  1.2129 -0.0166 -1.6572
 5730SOL    HW218011   0.586   3.294   1.303 -0.9842 -0.0918 -0.8424
 5731SOL     OW18012   6.838   6.020   3.309 -0.4205 -0.0683 -0.0935
 5731SOL    HW118013   6.901   6.074   3.365 -2.2539 -0.9781  3.1449
 5731SOL    HW218014   6.891   5.960   3.248  1.6682  2.1256 -0.5790
 5732SOL     OW18015   2.579   0.567   0.867 -0.0735  0.2223 -0.5966
 5732SOL    HW118016   2.637   0.642   0.899 -0.4194  0.4968 -0.5974
 5732SOL    HW218017   2.601   0.484   0.920 -0.6083  0.6575  0.3507
 5733SOL     OW18018   3.110   6.848   3.901 -0.1029 -0.4556  0.0884
 5733SOL    HW118019   3.120   6.860   3.802 -1.2139  0.8711  0.1028
 5733SOL    HW218020   3.015   6.827   3.922  0.0535 -0.3799  0.8994
 5734SOL     OW18021   2.953   3.096   3.221  0.0314  0.8689 -0.1639
 5734SOL    HW118022   2.957   3.014   3.277 -1.8822  0.4655 -0.5299
 5734SOL    HW218023   2.944   3.176   3.280  0.3070  0.6567  0.1743
 5735SOL     OW18024   0.541   1.988   0.224 -0.3996 -0.3440 -0.3500
 5735SOL    HW118025   0.531   1.890   0.208  1.8599 -0.5292 -0.8843
 5735SOL    HW218026   0.636   2.015   0.211 -0.9786  1.9508 -0.2769
 5736SOL     OW18027   3.222   4.712   1.106 -0.2598 -0.0431  0.5273
 5736SOL    HW118028   3.281   4.679   1.032 -0.2557  0.6482  0.2081
 5736SOL    HW218029   3.128   4.721   1.072 -0.0294  1.4989  0.2085
 5737SOL     OW18030   4.239   1.941   0.699 -0.1717  0.0110 -0.6334
 5737SOL    HW118031   4.220   1.967   0.605 -1.0516 -1.3860 -0.8657
 5737SOL    HW218032   4.154   1.912   0.744  0.2739  0.4139  0.5156
 5738SOL     OW18033   0.431   1.682   2.405 -0.4576 -0.4488  0.2300
 5738SOL    HW118034   0.426   1.647   2.312  1.7089 -2.7954  0.8842
 5738SOL    HW218035   0.520   1.726   2.419 -0.1890 -1.3176  1.4981
 5739SOL     OW18036   2.001   2.383   1.194  0.0768 -0.3398  0.1718
 5739SOL    HW118037   1.964   2.469   1.231  1.3057  0.6513 -0.7834
 5739SOL    HW218038   1.972   2.373   1.099  2.4557  0.6752 -0.7361
 5740SOL     OW18039   3.525   0.094   3.114 -0.3508  0.5057 -0.6022
 5740SOL    HW118040   3.537   0.153   3.034  1.5649  1.8780  0.6153
 5740SOL    HW218041   3.536   0.148   3.197  1.8237 -1.5837  0.5854
 5741SOL     OW18042   0.912   5.795   1.787  0.0441 -0.4277  0.1270
 5741SOL    HW118043   0.914   5.793   1.687 -0.9939 -0.8584  0.0974
 5741SOL    HW218044   0.937   5.705   1.823  0.8762 -0.1468  0.2800
 5742SOL     OW18045   6.923   0.966   5.970  0.0097  0.4141 -0.2747
 5742SOL    HW118046   6.875   0.914   5.900  1.2384 -0.7706 -0.2906
 5742SOL    HW218047   7.015   0.989   5.937  0.4583  0.1987  0.7950
 5743SOL     OW18048   2.325   0.242   6.852  0.5076 -0.3545  0.8120
 5743SOL    HW118049   2.253   0.235   6.920 -1.1677  1.4385 -0.6847
 5743SOL    HW218050   2.379   0.325   6.869  0.1493  0.0429  0.0392
 5744SOL     OW18051   4.683   1.713   3.354  0.7304 -0.1165  0.1515
 5744SOL    HW118052   4.707   1.674   3.443 -0.6034 -0.5863  0.3161
 5744SOL    HW218053   4.723   1.657   3.282  2.1562  0.4891  0.4331
 5745SOL     OW18054   2.059   4.138   5.945 -0.3331 -0.6218 -0.3963
 5745SOL    HW118055   1.964   4.166   5.956 -0.4840 -0.9975 -0.6886
 5745SOL    HW218056   2.062   4.051   5.894  0.1824 -0.3589 -0.8319
 5746SOL     OW18057   6.362   1.305   6.347 -0.5753 -0.3985  0.4018
 5746SOL    HW118058   6.357   1.355   6.433  0.1361 -0.3089  0.3968
 5746SOL    HW218059   6.422   1.225   6.358 -0.0950 -0.1232 -0.1338
 5747SOL     OW18060   1.623   2.830   1.669 -0.5642 -0.3632  0.2619
 5747SOL    HW118061   1.553   2.893   1.701 -0.8401 -0.2248 -0.5842
 5747SOL    HW218062   1.599   2.737   1.698 -2.1206 -0.6120 -1.5898
 5748SOL     OW18063   5.078   1.973   5.671 -0.0417  0.0112  0.0764
 5748SOL    HW118064   5.139   2.032   5.619  0.5884 -0.4843  0.2404
 5748SOL    HW218065   5.019   2.029   5.730  0.6899  0.4626  0.3923
 5749SOL     OW18066   4.754   4.290   3.727  0.3492 -0.7608  0.1462
 5749SOL    HW118067   4.802   4.327   3.806 -0.8594 -0.5599  0.8235
 5749SOL    HW218068   4.678   4.233   3.758 -0.3563 -0.4007 -0.8512
 5750SOL     OW18069   1.275   5.206   1.585 -0.1076 -0.3236 -0.0438
 5750SOL    HW118070   1.274   5.106   1.587  0.2711 -0.3257  2.0102
 5750SOL    HW218071   1.237   5.242   1.670 -0.7803  1.3043 -0.9922
 5751SOL     OW18072   2.465   6.602   0.236  0.0011 -0.2576 -0.2816
 5751SOL    HW118073   2.463   6.646   0.147 -0.5125 -1.5350 -0.9320
 5751SOL    HW218074   2.372   6.579   0.264  0.2505 -0.9035  0.0490
 5752SOL     OW18075   4.063   1.357   2.940 -0.3894 -0.4228 -0.2160
 5752SOL    HW118076   4.072   1.456   2.957  0.4831 -0.3351 -1.1025
 5752SOL    HW218077   4.034   1.312   3.024  0.9334  0.3720  0.7228
 5753SOL     OW18078   5.880   0.140   0.741  0.1788 -1.2918 -0.0927
 5753SOL    HW118079   5.842   0.053   0.710  0.9198 -2.1255  1.2221
 5753SOL    HW218080   5.819   0.180   0.809  0.5196 -1.5393  0.3815
 5754SOL     OW18081   0.370   6.151   5.014  0.2410 -0.4171  0.3272
 5754SOL    HW118082   0.348   6.081   4.946 -0.4727 -0.0269  0.1404
 5754SOL    HW218083   0.436   6.214   4.975 -0.9702  0.4338 -0.4225
 5755SOL     OW18084   6.388   2.919   1.020 -0.1364  0.2012  0.0279
 5755SOL    HW118085   6.424   2.871   1.100 -0.5258  0.2946  0.2708
 5755SOL    HW218086   6.393   3.017   1.036  2.6369  0.3585 -1.3362
 5756SOL     OW18087   3.539   0.269   3.310 -0.2776 -0.2705 -0.1884
 5756SOL    HW118088   3.481   0.345   3.338 -0.7128 -1.0060  1.0133
 5756SOL    HW218089   3.632   0.302   3.293 -0.7161  0.6929 -0.7886
 5757SOL     OW18090   6.023   3.640   5.070 -1.1044  0.1970 -0.2984
 5757SOL    HW118091   5.958   3.585   5.122 -1.5354 -0.1313 -1.1556
 5757SOL    HW218092   6.104   3.658   5.126 -1.3104 -0.6156  0.2849
 5758SOL     OW18093   4.631   4.436   2.005  0.4654 -0.0906 -0.3260
 5758SOL    HW118094   4.714   4.483   1.975  0.6947  0.4425  1.0581
 5758SOL    HW218095   4.629   4.432   2.105 -2.1636  1.7758 -0.1930
 5759SOL     OW18096   3.786   5.339   3.135 -0.2639  0.2666 -0.1301
 5759SOL    HW118097   3.731   5.421   3.152  0.3969  0.8531 -0.7694
 5759SOL    HW218098   3.781   5.314   3.038  1.2966  0.8665 -0.4003
 5760SOL     OW18099   6.777   4.716   4.580 -0.0996  0.6613 -0.0561
 5760SOL    HW118100   6.691   4.741   4.536  0.6553  0.2182 -1.8703
 5760SOL    HW218101   6.775   4.745   4.676 -1.4333  2.5544 -0.5958
 5761SOL     OW18102   5.969   3.585   0.572 -0.0245 -0.5322  0.0299
 5761SOL    HW118103   6.019   3.609   0.489  0.6247 -1.4206  0.1427
 5761SOL    HW218104   6.034   3.558   0.643 -0.4523  1.6054  1.3385
 5762SOL     OW18105   2.642   4.579   3.762  0.0655  0.1055  0.1188
 5762SOL    HW118106   2.567   4.513   3.753  1.7587 -1.8739 -0.4479
 5762SOL    HW218107   2.698   4.578   3.679  1.2638  0.8290  0.8728
 5763SOL     OW18108   6.812   3.534   6.585 -0.0641  0.2791  0.2370
 5763SOL    HW118109   6.725   3.573   6.555  0.3138  0.6811 -0.3690
 5763SOL    HW218110   6.852   3.593   6.655  1.0583  1.6879 -1.4851
 5764SOL     OW18111   2.653   0.540   6.204  0.5692 -0.1043  0.4425
 5764SOL    HW118112   2.569   0.500   6.241 -0.1449 -0.0101 -0.9910
 5764SOL    HW218113   2.681   0.489   6.122  2.0900 -0.3168  1.0624
 5765SOL     OW18114   6.068   3.655   6.921  0.1509 -0.1389  0.3961
 5765SOL    HW118115   6.114   3.707   6.993  0.6914  0.7006 -0.5315
 5765SOL    HW218116   5.990   3.708   6.887  1.1599  0.4351 -1.0818
 5766SOL     OW18117   4.767   4.439   2.554 -0.1789 -0.0304 -0.0458
 5766SOL    HW118118   4.721   4.525   2.531 -0.2805  0.3290  1.4257
 5766SOL    HW218119   4.718   4.395   2.629  1.6790  0.2244  1.3793
 5767SOL     OW18120   1.925   3.907   5.860 -0.2162 -0.2416  0.5278
 5767SOL    HW118121   1.848   3.925   5.798 -0.4808 -1.3289  0.5307
 5767SOL    HW218122   1.893   3.851   5.936  0.3515  0.1941  1.0949
 5768SOL     OW18123   1.710   5.330   6.044  0.0311 -0.3355 -0.0856
 5768SOL    HW118124   1.669   5.412   6.002  0.8954 -0.7090 -1.7670
 5768SOL    HW218125   1.637   5.265   6.067 -0.7694  1.1673  2.0827
 5769SOL     OW18126   6.583   5.992   3.440  0.1530 -0.3655  0.7610
 5769SOL    HW118127   6.547   5.904   3.409  0.1845  0.5327 -2.1224
 5769SOL    HW218128   6.665   6.014   3.388 -0.1672  1.6193  1.0370
 5770SOL     OW18129   6.064   1.708   5.360  0.5612 -0.0645  0.3588
 5770SOL    HW118130   5.969   1.687   5.381  0.7617  0.3015  1.7211
 5770SOL    HW218131   6.119   1.625   5.363  0.2972 -0.2846 -0.4741
 5771SOL     OW18132   0.506   1.033   2.289 -0.1309 -0.8693 -0.3176
 5771SOL    HW118133   0.601   1.052   2.314 -0.4674 -0.1315  0.4263
 5771SOL    HW218134   0.485   0.938   2.311  0.2882 -0.8973 -0.0334
 5772SOL     OW18135   3.819   0.111   6.093 -0.5012  0.3576 -0.2957
 5772SOL    HW118136   3.743   0.124   6.029  0.2606  1.7588 -0.9516
 5772SOL    HW218137   3.871   0.030   6.067 -2.2383 -1.1374  0.6645
 5773SOL     OW18138   6.621   0.765   4.522 -0.3779 -0.3732  0.5023
 5773SOL    HW118139   6.536   0.718   4.545  0.3142 -0.9372  2.0074
 5773SOL    HW218140   6.682   0.701   4.474  0.1511 -0.7337  1.6215
 5774SOL     OW18141   4.922   3.102   4.079  0.4534  0.0107 -0.0335
 5774SOL    HW118142   4.970   3.184   4.112 -0.8687  0.8868 -0.2242
 5774SOL    HW218143   4.974   3.062   4.004  1.5076  0.2273  0.5547
 5775SOL     OW18144   0.176   1.574   1.679  0.2012  0.2409 -0.4959
 5775SOL    HW118145   0.111   1.579   1.603  0.0171 -0.6901 -0.3995
 5775SOL    HW218146   0.268   1.589   1.644  0.2691 -1.4835 -1.1281
 5776SOL     OW18147   1.867   4.496   3.963 -0.2206 -0.0423 -0.4571
 5776SOL    HW118148   1.800   4.423   3.951 -0.3396  0.0523 -0.3787
 5776SOL    HW218149   1.822   4.576   4.003 -0.3149  0.4282 -1.4732
 5777SOL     OW18150   6.228   5.908   1.742  0.1352 -0.3402  0.2633
 5777SOL    HW118151   6.280   5.974   1.688  1.8210 -0.7621  1.3069
 5777SOL    HW218152   6.132   5.934   1.743  0.8551  2.6101  1.3606
 5778SOL     OW18153   6.342   0.796   3.375  0.4864  0.4702  0.2464
 5778SOL    HW118154   6.430   0.752   3.355 -0.7331 -1.9984 -0.0862
 5778SOL    HW218155   6.301   0.829   3.289 -0.5862 -1.8609 -0.2183
 5779SOL     OW18156   2.507   4.223   5.538 -0.1384  0.2228  0.2224
 5779SOL    HW118157   2.577   4.170   5.586  0.5167  1.0207  0.1803
 5779SOL    HW218158   2.466   4.288   5.601  0.3230  0.8811 -0.1418
 5780SOL     OW18159   0.127   6.522   1.516  0.1447  0.6272  0.7678
 5780SOL    HW118160   0.116   6.464   1.435 -0.9648  2.3200 -0.3471
 5780SOL    HW218161   0.068   6.489   1.589 -1.3217  0.9785 -0.2351
 5781SOL     OW18162   4.548   3.682   6.487 -0.0696 -0.8471 -0.2712
 5781SOL    HW118163   4.463   3.645   6.525 -0.4713  0.1426 -0.1922
 5781SOL    HW218164   4.606   3.716   6.562 -1.2598  1.9621 -0.5182
 5782SOL     OW18165   5.745   1.495   3.648  0.1123  0.0403 -0.1520
 5782SOL    HW118166   5.770   1.580   3.695  0.4285 -0.2672  0.2561
 5782SOL    HW218167   5.648   1.496   3.627 -0.0539  0.1696  0.5643
 5783SOL     OW18168   1.909   3.836   5.334  0.5456 -0.0494  0.3190
 5783SOL    HW118169   1.855   3.809   5.414 -0.2842 -1.0073 -0.5373
 5783SOL    HW218170   2.000   3.794   5.339  0.0663 -1.1397  0.1637
 5784SOL     OW18171   4.406   3.021   6.960 -0.6815  0.7833 -0.5245
 5784SOL    HW118172   4.374   3.002   6.867  0.0929  1.3142 -0.9140
 5784SOL    HW218173   4.392   3.118   6.981 -0.7693  0.6888 -0.1251
 5785SOL     OW18174   4.799   1.332   2.657  0.1122 -0.4019  0.2159
 5785SOL    HW118175   4.851   1.256   2.696 -0.6332 -0.4592  1.1500
 5785SOL    HW218176   4.861   1.400   2.618  0.7918 -1.4170 -0.4971
 5786SOL     OW18177   1.212   0.619   1.553 -0.1853 -0.2254 -0.0796
 5786SOL    HW118178   1.254   0.598   1.465  0.1934  0.5822 -0.0867
 5786SOL    HW218179   1.282   0.621   1.625 -0.1478  1.4599 -0.1426
 5787SOL     OW18180   2.123   3.708   1.879 -0.2827 -0.4160  0.0360
 5787SOL    HW118181   2.143   3.639   1.948  1.3855  1.0354  1.0902
 5787SOL    HW218182   2.204   3.724   1.824  0.1000  2.1447  1.1981
 5788SOL     OW18183   6.091   4.333   2.743 -0.2399 -0.4715 -0.0457
 5788SOL    HW118184   6.067   4.320   2.839  0.0190 -0.8403 -0.0276
 5788SOL    HW218185   6.040   4.267   2.686  0.5531 -1.1218 -0.0277
 5789SOL     OW18186   3.284   1.744   5.786  0.1729 -0.3393  0.2811
 5789SOL    HW118187   3.248   1.829   5.824  0.5477 -0.2297  0.3964
 5789SOL    HW218188   3.256   1.737   5.690  0.8781  0.3492  0.0103
 5790SOL     OW18189   6.864   1.700   3.819 -0.0796 -0.2853  0.3331
 5790SOL    HW118190   6.959   1.733   3.824 -0.1417 -0.0965  0.2496
 5790SOL    HW218191   6.805   1.759   3.874 -0.4406  0.6213 -0.9866
 5791SOL     OW18192   5.320   5.360   4.274  0.4605 -0.6147 -0.1543
 5791SOL    HW118193   5.356   5.331   4.363  1.6170  5.0518  1.6459
 5791SOL    HW218194   5.392   5.351   4.204  1.6729  0.4464  0.9151
 5792SOL     OW18195   1.464   4.823   6.157 -0.1235  0.6388 -0.0838
 5792SOL    HW118196   1.458   4.816   6.257  1.0582 -2.7965 -0.1082
 5792SOL    HW218197   1.375   4.801   6.117  0.0853 -0.9047  0.2269
 5793SOL     OW18198   5.986   4.325   5.569  0.1419  0.0812  0.0458
 5793SOL    HW118199   6.085   4.334   5.562  0.3035 -0.1725  1.4851
 5793SOL    HW218200   5.954   4.255   5.506  0.8911  0.1076 -0.3767
 5794SOL     OW18201   1.302   6.808   5.105 -0.2783 -0.2287 -0.4240
 5794SOL    HW118202   1.337   6.886   5.052 -1.1760  1.2986  1.1060
 5794SOL    HW218203   1.348   6.804   5.194  0.8213 -2.4190 -1.0279
 5795SOL     OW18204   3.085   2.084   6.901  0.0109  0.1713  0.2717
 5795SOL    HW118205   3.009   2.063   6.840  1.1638 -0.6344 -0.9668
 5795SOL    HW218206   3.092   2.013   6.972 -0.9527  0.7695  0.9789
 5796SOL     OW18207   5.833   4.798   4.273  0.0508 -0.0958  0.1154
 5796SOL    HW118208   5.764   4.869   4.260  1.0425  0.8560 -0.0883
 5796SOL    HW218209   5.792   4.721   4.322 -0.5686  1.4654  2.2204
 5797SOL     OW18210   4.720   4.671   0.008  0.0417  0.4452  0.0044
 5797SOL    HW118211   4.765   4.740  -0.050 -0.5200  0.8121  0.0196
 5797SOL    HW218212   4.740   4.691   0.104 -0.8405  1.1578  0.0511
 5798SOL     OW18213   5.696   2.928   2.576  0.2136  0.3599 -0.6513
 5798SOL    HW118214   5.739   2.881   2.498  0.2261 -0.4690 -0.1522
 5798SOL    HW218215   5.702   3.027   2.562 -1.5154  0.2696 -2.6706
 5799SOL     OW18216   4.858   1.448   0.609  0.5624 -0.2537  0.2008
 5799SOL    HW118217   4.912   1.527   0.638 -0.8320  0.4511  1.0550
 5799SOL    HW218218   4.812   1.469   0.523 -0.0742  0.0430  0.5941
 5800SOL     OW18219   5.900   2.846   4.786  0.2548  0.2002  0.1774
 5800SOL    HW118220   5.984   2.824   4.736  0.7613  0.8579  0.7126
 5800SOL    HW218221   5.915   2.829   4.884 -0.5716 -0.6400  0.1644
 5801SOL     OW18222   0.112   2.513   3.461  0.0284  0.4957 -0.5925
 5801SOL    HW118223   0.070   2.444   3.521  0.8714 -1.1499 -1.8106
 5801SOL    HW218224   0.198   2.544   3.501  1.1893 -1.4674 -1.4037
 5802SOL     OW18225   2.340   6.321   1.435 -0.2658  0.1602  0.2049
 5802SOL    HW118226   2.405   6.283   1.501 -0.0774  0.2493  0.0706
 5802SOL    HW218227   2.305   6.248   1.377  0.7067  0.3128 -0.5873
 5803SOL     OW18228   3.366   4.623   0.883  0.3732 -0.1972  0.5441
 5803SOL    HW118229   3.374   4.695   0.813  0.1987  0.4011  1.1336
 5803SOL    HW218230   3.300   4.554   0.852  0.5273 -0.1031 -0.0191
 5804SOL     OW18231   4.182   0.109   4.290 -0.2628 -0.3923 -0.6200
 5804SOL    HW118232   4.264   0.052   4.283  0.9070  1.0735  0.3889
 5804SOL    HW218233   4.126   0.079   4.367 -0.1386 -0.7499 -0.6697
 5805SOL     OW18234   5.337   4.952   1.558  0.0193  0.5078  0.4170
 5805SOL    HW118235   5.266   5.011   1.596 -0.4452  0.3108 -0.1218
 5805SOL    HW218236   5.340   4.963   1.459 -0.3669 -0.6681  0.2513
 5806SOL     OW18237   5.261   4.624   6.853 -0.0256 -0.3990 -0.4801
 5806SOL    HW118238   5.183   4.563   6.863 -0.6704  0.2796 -1.2180
 5806SOL    HW218239   5.312   4.601   6.770 -0.0645 -0.1555 -0.5725
 5807SOL     OW18240   2.448   4.633   5.505  0.0852  0.0106  0.3686
 5807SOL    HW118241   2.462   4.603   5.599  0.4520 -2.5216 -0.4133
 5807SOL    HW218242   2.368   4.693   5.500 -1.4954 -1.8270  1.9593
 5808SOL     OW18243   5.647   1.850   6.949  0.3503 -0.0465  0.1996
 5808SOL    HW118244   5.741   1.816   6.939  0.4307  0.2810 -0.1736
 5808SOL    HW218245   5.582   1.777   6.928  0.5181 -0.2164  0.2620
 5809SOL     OW18246   3.294   2.924   4.699 -0.5907  0.9244  0.1616
 5809SOL    HW118247   3.387   2.937   4.733  0.1483 -0.0469 -1.3399
 5809SOL    HW218248   3.232   2.989   4.743  0.9987  2.3161  0.4343
 5810SOL     OW18249   0.435   5.785   0.503  0.4360 -0.5707 -0.3529
 5810SOL    HW118250   0.457   5.687   0.509 -1.2076 -0.9036  1.2335
 5810SOL    HW218251   0.337   5.798   0.517  0.9694  1.4924  2.0933
 5811SOL     OW18252   4.950   5.884   5.083 -0.1902  0.1626 -0.5586
 5811SOL    HW118253   4.861   5.914   5.117 -0.7883 -1.0976 -0.9461
 5811SOL    HW218254   4.951   5.892   4.983 -0.5786 -1.5251 -0.7395
 5812SOL     OW18255   6.593   0.627   6.608 -0.2040 -0.4599  0.3410
 5812SOL    HW118256   6.572   0.613   6.705 -1.2441 -1.0890  0.0423
 5812SOL    HW218257   6.565   0.546   6.557 -1.0909  0.4777 -0.7037
 5813SOL     OW18258   4.894   5.425   2.131 -0.3227  0.3082  0.2762
 5813SOL    HW118259   4.938   5.336   2.143  0.5396  0.7392  0.3787
 5813SOL    HW218260   4.805   5.412   2.087 -0.3074 -0.6203  0.4897
 5814SOL     OW18261   2.245   2.872   1.935  0.2709 -0.5771 -0.8017
 5814SOL    HW118262   2.206   2.805   1.998  0.5642 -0.5899 -0.6347
 5814SOL    HW218263   2.344   2.865   1.936  0.5146  1.6009  1.2016
 5815SOL     OW18264   6.762   4.918   3.908  0.8466 -0.4493  0.0638
 5815SOL    HW118265   6.709   4.890   3.988 -2.5907  1.0996 -1.4646
 5815SOL    HW218266   6.784   5.015   3.915  0.5576 -0.3157 -0.8279
 5816SOL     OW18267   0.518   2.628   0.458  0.1639  0.7120  0.0111
 5816SOL    HW118268   0.475   2.538   0.469  3.7103 -1.1893 -0.3837
 5816SOL    HW218269   0.562   2.654   0.544  0.4922  1.3526 -0.3461
 5817SOL     OW18270   1.823   6.372   0.299 -0.0445 -0.3946 -0.0410
 5817SOL    HW118271   1.898   6.434   0.322 -0.7248  0.1707  0.7240
 5817SOL    HW218272   1.846   6.279   0.328  0.8061 -0.4448 -0.8214
 5818SOL     OW18273   5.430   4.003   5.177  0.1886 -0.0006  0.1149
 5818SOL    HW118274   5.387   3.935   5.235  0.7158 -1.2882 -0.9462
 5818SOL    HW218275   5.397   4.094   5.202 -1.6241 -0.7617  0.6261
 5819SOL     OW18276   2.472   3.361   0.745  0.2298  0.2129 -0.4302
 5819SOL    HW118277   2.493   3.301   0.822 -0.4950 -0.3951 -0.6837
 5819SOL    HW218278   2.374   3.384   0.746  0.3323  0.7183 -0.8116
 5820SOL     OW18279   2.490   1.094   0.460 -0.3856 -0.6140 -0.1617
 5820SOL    HW118280   2.433   1.056   0.388  0.4422  0.0840 -1.2229
 5820SOL    HW218281   2.573   1.039   0.469 -1.6231 -2.2698  2.1027
 5821SOL     OW18282   5.366   0.544   4.682 -0.3431  0.4183 -0.3862
 5821SOL    HW118283   5.398   0.507   4.595 -0.8549  0.9246 -0.8038
 5821SOL    HW218284   5.268   0.523   4.694 -0.4088  0.8151 -0.1883
 5822SOL     OW18285   2.575   1.326   1.525 -0.1737  0.3657  0.1072
 5822SOL    HW118286   2.595   1.403   1.464 -0.0801 -0.6146 -1.1453
 5822SOL    HW218287   2.476   1.323   1.543 -0.5318 -0.5643 -1.7668
 5823SOL     OW18288   0.733   3.521   3.260  0.1775  0.4521  0.3447
 5823SOL    HW118289   0.695   3.455   3.324 -1.9672 -0.6013 -1.8521
 5823SOL    HW218290   0.689   3.610   3.274  1.2359  0.7811  1.6616
 5824SOL     OW18291   6.445   5.267   6.095 -0.1334 -0.1597  0.5022
 5824SOL    HW118292   6.524   5.253   6.035  2.2905  0.3565  3.3210
 5824SOL    HW218293   6.413   5.361   6.085  0.6518  0.1172  0.4502
 5825SOL     OW18294   2.980   2.441   3.597  0.3472 -0.1151 -0.2073
 5825SOL    HW118295   3.065   2.452   3.648 -0.1509  1.8287  0.2965
 5825SOL    HW218296   2.904   2.429   3.660  0.1600 -1.3728 -0.6395
 5826SOL     OW18297   2.856   1.634   0.459  0.4654 -0.1966 -0.4179
 5826SOL    HW118298   2.789   1.572   0.500  0.7302 -1.1379 -1.3638
 5826SOL    HW218299   2.948   1.596   0.470  0.5735 -0.3052 -1.5673
 5827SOL     OW18300   0.177   1.977   0.199  0.0707  0.0032  0.3715
 5827SOL    HW118301   0.219   1.886   0.199  1.9569  0.7294  3.3483
 5827SOL    HW218302   0.082   1.971   0.229 -0.6330 -1.1655 -1.8713
 5828SOL     OW18303   0.073   5.722   1.397  0.7970 -0.0747  0.2482
 5828SOL    HW118304   0.024   5.732   1.310 -1.0560  0.5666  1.2944
 5828SOL    HW218305   0.148   5.656   1.386  0.5625 -0.0733 -1.7876
 5829SOL     OW18306   1.385   2.226   6.958  0.1931  0.3135 -0.1005
 5829SOL    HW118307   1.447   2.164   7.007  0.1125  0.5912  0.3601
 5829SOL    HW218308   1.302   2.177   6.933 -0.0659  0.3368  0.6586
 5830SOL     OW18309   0.347   2.975   0.557  0.2844  0.0439 -0.2594
 5830SOL    HW118310   0.269   3.036   0.571  1.8164  1.7572  1.2019
 5830SOL    HW218311   0.334   2.925   0.471 -2.3995  0.2449 -0.0657
 5831SOL     OW18312   4.564   1.183   5.369  0.5929  1.0435  0.3674
 5831SOL    HW118313   4.589   1.146   5.280 -1.1826 -0.9761  0.6325
 5831SOL    HW218314   4.625   1.259   5.392  3.2355 -0.5332 -1.0545
 5832SOL     OW18315   3.012   3.535   1.725  0.4232  0.5109 -0.2097
 5832SOL    HW118316   2.914   3.519   1.728  0.1621  2.0459  0.5401
 5832SOL    HW218317   3.037   3.572   1.635  0.2041  0.7157 -0.1909
 5833SOL     OW18318   4.975   3.568   0.745 -0.5075  0.0570 -0.0764
 5833SOL    HW118319   4.901   3.512   0.782  0.7383 -1.5894  0.0605
 5833SOL    HW218320   4.978   3.556   0.645 -1.1782  1.1380 -0.2558
 5834SOL     OW18321   2.387   5.484   0.506 -0.1897 -0.3207 -0.1080
 5834SOL    HW118322   2.354   5.392   0.530  0.1006 -0.1772  0.9140
 5834SOL    HW218323   2.486   5.483   0.498 -0.1537 -0.0407  0.2268
 5835SOL     OW18324   3.079   0.242   4.168 -0.0507  0.1850 -0.5531
 5835SOL    HW118325   3.101   0.158   4.120  0.4177  0.6001 -1.0801
 5835SOL    HW218326   3.074   0.318   4.103  2.1370  1.0563  0.1778
 5836SOL     OW18327   2.691   6.298   4.863  0.1856 -0.1017 -0.5846
 5836SOL    HW118328   2.699   6.200   4.849 -2.0365 -0.6733  1.4536
 5836SOL    HW218329   2.638   6.338   4.788  1.5938 -0.2892 -1.7302
 5837SOL     OW18330   1.244   5.915   0.251 -0.0413  0.2744  0.3992
 5837SOL    HW118331   1.315   5.847   0.233 -0.0711  0.2669  0.3074
 5837SOL    HW218332   1.204   5.898   0.341 -1.0060 -0.6792 -0.1942
 5838SOL     OW18333   3.427   4.648   6.759  0.8076  0.5457 -0.2672
 5838SOL    HW118334   3.506   4.605   6.802  1.8896  1.9297 -0.7757
 5838SOL    HW218335   3.355   4.580   6.745  0.9047 -0.2469  2.5030
 5839SOL     OW18336   2.078   3.764   6.307  0.4043  0.0774  0.2199
 5839SOL    HW118337   2.031   3.741   6.392  1.4565 -2.1633  0.2847
 5839SOL    HW218338   2.173   3.788   6.326  0.5198  0.0318 -0.2738
 5840SOL     OW18339   6.466   3.476   2.574  0.3642 -0.2727  0.6131
 5840SOL    HW118340   6.556   3.455   2.611  0.1473 -2.4326  0.0433
 5840SOL    HW218341   6.476   3.516   2.482  0.7474 -1.7223 -0.0041
 5841SOL     OW18342   5.815   2.005   0.355  0.2276  0.0497  0.2026
 5841SOL    HW118343   5.756   1.988   0.276 -1.1546 -1.4641  1.4882
 5841SOL    HW218344   5.779   2.083   0.406  0.4979  0.3638 -0.0838
 5842SOL     OW18345   0.133   5.454   2.398 -0.2458  0.2664  0.2599
 5842SOL    HW118346   0.157   5.396   2.320 -1.5623  0.4148 -0.2723
 5842SOL    HW218347   0.200   5.440   2.471 -0.2185 -1.5204 -0.0646
 5843SOL     OW18348   6.692   6.432   5.158 -0.0858  0.2755 -0.1214
 5843SOL    HW118349   6.730   6.515   5.198 -2.4425  1.7783 -0.6908
 5843SOL    HW218350   6.695   6.439   5.058 -2.1650  0.7045 -0.2007
 5844SOL     OW18351   6.959   3.535   2.532  0.2597  0.0147 -0.2244
 5844SOL    HW118352   6.980   3.570   2.623 -0.7260 -0.4052  0.1864
 5844SOL    HW218353   6.901   3.600   2.483  2.4103  1.1887 -1.3655
 5845SOL     OW18354   5.789   5.756   2.786  0.0055  0.4016  0.8193
 5845SOL    HW118355   5.842   5.809   2.720 -0.1492 -0.6943 -0.2335
 5845SOL    HW218356   5.849   5.693   2.834  0.0979  1.1174  1.6616
 5846SOL     OW18357   4.868   6.828   6.108  0.1974 -0.3393 -0.1306
 5846SOL    HW118358   4.876   6.917   6.152  2.2752 -0.5380  0.0038
 5846SOL    HW218359   4.776   6.792   6.123 -0.8400  1.9533 -0.5926
 5847SOL     OW18360   0.248   4.836   3.921 -0.4592 -0.0315 -0.6763
 5847SOL    HW118361   0.184   4.884   3.861 -0.9448 -0.3718 -0.4442
 5847SOL    HW218362   0.206   4.750   3.951 -0.7653  0.7246  1.2045
 5848SOL     OW18363   6.543   3.094   2.278 -0.2007 -0.3818 -0.1331
 5848SOL    HW118364   6.551   3.055   2.370 -0.7935  1.7750  0.9114
 5848SOL    HW218365   6.446   3.109   2.257  0.0011  2.1127  0.3279
 5849SOL     OW18366   1.819   3.063   5.677 -0.7048  0.2285 -0.3206
 5849SOL    HW118367   1.770   3.068   5.764 -1.1599 -0.3231 -0.5380
 5849SOL    HW218368   1.769   3.004   5.614  0.5962 -0.9275 -0.3172
 5850SOL     OW18369   0.747   2.625   0.647 -0.2625  0.1142  0.0678
 5850SOL    HW118370   0.698   2.712   0.649 -0.6127 -0.0067  3.4615
 5850SOL    HW218371   0.792   2.610   0.735  4.4608 -0.6777 -2.1571
 5851SOL     OW18372   1.807   0.834   2.453 -0.0221 -0.4808 -0.3180
 5851SOL    HW118373   1.708   0.819   2.453 -0.3073  1.1429 -0.0239
 5851SOL    HW218374   1.853   0.754   2.416 -1.4634 -1.2016 -0.6281
 5852SOL     OW18375   0.993   2.542   2.324 -0.0695 -0.1843 -1.3487
 5852SOL    HW118376   1.044   2.573   2.404  2.6071 -1.6372 -2.4150
 5852SOL    HW218377   1.024   2.592   2.243 -0.8695 -0.5751 -1.9130
 5853SOL     OW18378   0.074   1.804   4.482  0.2703 -0.1388 -0.0584
 5853SOL    HW118379  -0.004   1.866   4.472  1.3382  1.0291 -1.7193
 5853SOL    HW218380   0.151   1.853   4.522  0.5850 -0.9054  0.3049
 5854SOL     OW18381   2.166   6.416   1.777  0.1232 -0.5081 -0.6224
 5854SOL    HW118382   2.149   6.514   1.764 -1.6177 -0.6186  0.5317
 5854SOL    HW218383   2.152   6.367   1.691 -0.4880  0.0596 -0.8443
 5855SOL     OW18384   0.808   2.314   4.952 -0.5904 -0.2159 -0.3559
 5855SOL    HW118385   0.727   2.371   4.964 -1.1395 -1.2420  1.0738
 5855SOL    HW218386   0.805   2.269   4.862 -2.9492 -2.1985  0.5899
 5856SOL     OW18387   6.531   6.675   0.196 -0.4841 -0.2918  0.2121
 5856SOL    HW118388   6.535   6.697   0.099 -1.4426 -0.5570  0.0956
 5856SOL    HW218389   6.454   6.613   0.213 -0.9651  0.5537  1.2842
 5857SOL     OW18390   3.875   5.725   1.193  0.2399 -0.1932 -0.1147
 5857SOL    HW118391   3.807   5.660   1.158 -1.5988  1.2577  0.5625
 5857SOL    HW218392   3.959   5.717   1.141 -1.6756  0.4936 -3.6579
 5858SOL     OW18393   0.013   2.994   4.495  0.0840 -0.0411 -0.1634
 5858SOL    HW118394   0.063   2.951   4.419 -1.1481  1.3105 -1.8206
 5858SOL    HW218395   0.044   3.088   4.506  0.3482 -0.2643  1.1558
 5859SOL     OW18396   3.097   1.396   4.881 -0.5026  0.4464 -0.2697
 5859SOL    HW118397   3.121   1.489   4.854 -0.4878  0.5140 -0.0354
 5859SOL    HW218398   3.086   1.339   4.800  1.0816  0.2556 -0.3947
 5860SOL     OW18399   4.017   5.287   2.017 -0.0836  0.3400 -0.4120
 5860SOL    HW118400   3.982   5.264   1.926 -0.7573 -0.2006 -0.0190
 5860SOL    HW218401   4.011   5.207   2.077  0.5958  0.6211  0.0404
 5861SOL     OW18402   2.806   1.778   6.241 -0.2941 -0.1247 -0.1423
 5861SOL    HW118403   2.732   1.831   6.281  0.4060 -0.0864  1.1565
 5861SOL    HW218404   2.884   1.777   6.303  0.9557  0.1520 -1.6314
 5862SOL     OW18405   0.895   0.561   6.169  0.5730  0.3455 -0.2464
 5862SOL    HW118406   0.864   0.497   6.240 -0.8653  2.6941  1.3523
 5862SOL    HW218407   0.928   0.645   6.211  1.5668  1.0602 -2.3254
 5863SOL     OW18408   0.647   0.755   1.311 -0.4697  0.7435  0.2922
 5863SOL    HW118409   0.673   0.708   1.395 -1.0066  0.2570  0.1928
 5863SOL    HW218410   0.593   0.694   1.254  0.7207  0.7115 -0.8848
 5864SOL     OW18411   3.294   1.755   2.691 -0.0855  0.2115  0.0662
 5864SOL    HW118412   3.239   1.832   2.725 -0.4462  0.7886 -1.6945
 5864SOL    HW218413   3.307   1.689   2.764 -3.9949 -0.4594  0.3766
 5865SOL     OW18414   2.589   2.892   1.534  0.7106 -0.3705  0.2116
 5865SOL    HW118415   2.647   2.888   1.453 -0.2890 -3.1412 -0.4539
 5865SOL    HW218416   2.637   2.852   1.612  0.3538 -1.0643  0.0819
 5866SOL     OW18417   4.830   4.878   2.573 -0.3792 -0.0230 -0.0709
 5866SOL    HW118418   4.890   4.811   2.530 -1.7655 -0.5347 -1.3007
 5866SOL    HW218419   4.853   4.970   2.542  0.6616 -0.0620  0.5690
 5867SOL     OW18420   3.581   0.205   2.423 -0.2872 -0.3459  0.2886
 5867SOL    HW118421   3.504   0.266   2.442 -1.6186 -2.3936  1.9244
 5867SOL    HW218422   3.634   0.241   2.346 -2.2599  1.6625 -0.2330
 5868SOL     OW18423   5.349   4.544   6.595  0.3033  0.5437 -0.4424
 5868SOL    HW118424   5.290   4.463   6.591  1.5639 -0.3906 -0.8186
 5868SOL    HW218425   5.345   4.593   6.508 -0.0642  0.5908 -0.4004
 5869SOL     OW18426   4.791   0.063   3.658 -0.0397  0.2579 -0.0948
 5869SOL    HW118427   4.743   0.000   3.597  0.0303  0.7814 -0.6831
 5869SOL    HW218428   4.724   0.112   3.714 -0.0671 -0.6721  0.7082
 5870SOL     OW18429   0.341   3.945   6.726 -0.4321 -0.8063 -0.4365
 5870SOL    HW118430   0.323   3.998   6.809  0.2115 -1.7537  0.3261
 5870SOL    HW218431   0.439   3.923   6.722 -0.9440 -3.4350  0.1797
 5871SOL     OW18432   4.447   2.254   0.535 -0.4005  0.5287  0.1701
 5871SOL    HW118433   4.353   2.289   0.528 -0.0239  1.5439 -0.0837
 5871SOL    HW218434   4.451   2.181   0.602 -1.5288 -0.0614 -0.3833
 5872SOL     OW18435   1.728   2.436   5.316  0.5207  0.2607  0.3088
 5872SOL    HW118436   1.714   2.533   5.293 -0.1080  0.2158  0.4610
 5872SOL    HW218437   1.752   2.386   5.233  0.9457  0.5500  0.2432
 5873SOL     OW18438   4.302   2.637   1.471 -0.2979  0.0290 -0.4502
 5873SOL    HW118439   4.288   2.650   1.569  0.4711  0.3866 -0.3790
 5873SOL    HW218440   4.400   2.628   1.453 -0.4616 -0.4214 -1.1417
 5874SOL     OW18441   5.592   3.160   0.746 -0.4783  0.3749  0.2652
 5874SOL    HW118442   5.673   3.193   0.699 -1.3542  1.5287 -0.4804
 5874SOL    HW218443   5.573   3.217   0.826 -0.2178 -0.2754  0.8083
 5875SOL     OW18444   2.221   6.012   2.874  0.5659  0.0557  0.4874
 5875SOL    HW118445   2.224   6.047   2.780 -2.1177  0.9367  0.6424
 5875SOL    HW218446   2.252   6.083   2.937  2.3615 -0.5328  0.3255
 5876SOL     OW18447   4.806   2.064   2.235 -0.3233  0.7116 -0.2533
 5876SOL    HW118448   4.719   2.034   2.274 -0.6130 -0.8022 -1.9731
 5876SOL    HW218449   4.803   2.058   2.136  0.9134  3.0518 -0.5343
 5877SOL     OW18450   3.026   0.768   3.906  0.0510 -0.3314 -0.0641
 5877SOL    HW118451   3.094   0.842   3.903 -1.1649  0.8586  0.4559
 5877SOL    HW218452   3.000   0.752   4.001 -1.0361 -0.1570 -0.3276
 5878SOL     OW18453   3.595   3.922   1.238  0.6681 -0.1353 -0.1023
 5878SOL    HW118454   3.687   3.922   1.278  1.4908 -2.6731 -1.7552
 5878SOL    HW218455   3.533   3.869   1.297  0.0715  1.9590  1.2492
 5879SOL     OW18456   6.270   3.137   1.480 -0.4026 -0.3260  0.6558
 5879SOL    HW118457   6.270   3.049   1.433  1.7159 -0.2493  0.4612
 5879SOL    HW218458   6.363   3.163   1.505 -1.2420  0.5671  3.1784
 5880SOL     OW18459   2.316   2.077   1.626  0.1637  0.5230  0.2146
 5880SOL    HW118460   2.284   2.157   1.677 -1.3682 -0.7042  1.2777
 5880SOL    HW218461   2.272   1.995   1.663 -0.2280 -0.5486 -2.4314
 5881SOL     OW18462   0.670   6.310   1.079  0.5288  0.0191 -0.1169
 5881SOL    HW118463   0.750   6.368   1.093  1.6685 -1.3937 -0.4135
 5881SOL    HW218464   0.676   6.231   1.140 -1.2360  0.4374  0.6413
 5882SOL     OW18465   5.205   2.186   5.557 -0.4739 -0.4299  0.1968
 5882SOL    HW118466   5.183   2.245   5.479 -0.7531  1.2681  1.4875
 5882SOL    HW218467   5.304   2.176   5.565 -0.4068  0.2208  0.2069
 5883SOL     OW18468   3.351   2.637   3.614  0.0886  0.1111  0.0727
 5883SOL    HW118469   3.289   2.715   3.600 -1.5055 -1.3137 -1.1385
 5883SOL    HW218470   3.379   2.600   3.525 -1.0708 -2.1197  0.5648
 5884SOL     OW18471   2.874   0.587   1.247  0.0978 -0.0205  0.2578
 5884SOL    HW118472   2.881   0.680   1.210 -0.4399 -0.2753 -0.5088
 5884SOL    HW218473   2.788   0.578   1.298  1.6465  0.9268  3.3964
 5885SOL     OW18474   1.355   3.337   1.932  0.3049 -0.3769 -0.5758
 5885SOL    HW118475   1.450   3.369   1.940 -0.4202  1.3823  1.7747
 5885SOL    HW218476   1.293   3.414   1.940 -1.4005 -1.6521 -0.9657
 5886SOL     OW18477   1.424   2.591   0.546 -0.6704  0.0679 -0.6623
 5886SOL    HW118478   1.430   2.541   0.460 -4.1357 -1.9971  0.1170
 5886SOL    HW218479   1.340   2.646   0.546  1.0798  2.9386  0.0911
 5887SOL     OW18480   3.147   4.405   1.809 -0.2011  0.4116  0.2979
 5887SOL    HW118481   3.195   4.479   1.762 -0.2750 -0.2568 -0.8545
 5887SOL    HW218482   3.122   4.435   1.901  1.9540  0.9735  0.7658
 5888SOL     OW18483   1.574   6.412   6.110  0.1504  0.2580  0.0174
 5888SOL    HW118484   1.492   6.469   6.103  0.2661  0.2614 -1.7791
 5888SOL    HW218485   1.557   6.335   6.171 -0.9121  0.7111  0.3068
 5889SOL     OW18486   1.283   6.039   4.783  0.7221  0.2426 -0.6657
 5889SOL    HW118487   1.337   6.000   4.857  1.1969  0.9580 -0.6286
 5889SOL    HW218488   1.272   6.137   4.797 -0.4001  0.1483 -0.7959
 5890SOL     OW18489   6.249   0.575   4.926 -0.1426  0.0015  0.8880
 5890SOL    HW118490   6.262   0.670   4.899 -1.1964 -0.3607 -1.0641
 5890SOL    HW218491   6.189   0.571   5.006 -3.3374  0.9367 -1.2479
 5891SOL     OW18492   1.148   5.271   5.903 -0.3276  0.6736  0.3861
 5891SOL    HW118493   1.104   5.286   5.815  2.4266 -0.8123 -1.3702
 5891SOL    HW218494   1.119   5.183   5.940  0.4027  0.1501 -0.2772
 5892SOL     OW18495   5.599   4.576   6.709  0.5596  0.5527  0.5909
 5892SOL    HW118496   5.501   4.569   6.688  0.9158 -0.0425 -1.0353
 5892SOL    HW218497   5.650   4.591   6.624  1.9771 -0.2982  1.2641
 5893SOL     OW18498   6.939   2.982   6.614 -0.2826 -0.2540 -0.0461
 5893SOL    HW118499   6.861   2.920   6.626 -0.1827 -0.3736 -0.0212
 5893SOL    HW218500   7.011   2.958   6.678  0.7181 -1.6763 -1.6399
 5894SOL     OW18501   5.181   4.618   2.016 -0.4141 -0.7724 -0.0507
 5894SOL    HW118502   5.211   4.698   2.068  0.5963  0.2457 -2.0864
 5894SOL    HW218503   5.197   4.535   2.070  1.5817  0.1366  0.8725
 5895SOL     OW18504   0.758   3.071   6.393  0.0512  0.0547 -0.1234
 5895SOL    HW118505   0.839   3.123   6.367  0.2250  0.4484  1.1309
 5895SOL    HW218506   0.683   3.093   6.331 -0.3101  2.9848  1.1526
 5896SOL     OW18507   1.763   2.337   0.236  0.0152  0.1024 -0.0144
 5896SOL    HW118508   1.732   2.261   0.294  0.1996  0.6970  0.9084
 5896SOL    HW218509   1.685   2.374   0.185 -0.3763  0.2503  0.6772
 5897SOL     OW18510   2.280   1.351   6.869  0.4340 -0.0333 -0.3355
 5897SOL    HW118511   2.236   1.398   6.792  0.8297  0.7111 -0.1147
 5897SOL    HW218512   2.238   1.380   6.954 -0.6161 -1.5363 -0.3096
 5898SOL     OW18513   0.913   1.202   4.903 -0.0536 -0.4103  0.3511
 5898SOL    HW118514   0.894   1.264   4.827  0.0654 -0.1578  0.5265
 5898SOL    HW218515   0.828   1.162   4.935 -0.3094  0.7713  1.1836
 5899SOL     OW18516   6.370   2.286   2.996 -0.0040  0.0771  0.6324
 5899SOL    HW118517   6.443   2.234   3.039 -0.4312 -1.3966 -0.3496
 5899SOL    HW218518   6.321   2.339   3.065  1.5141  0.5235  1.3969
 5900SOL     OW18519   0.038   1.143   1.833  0.2249  0.3674 -0.0238
 5900SOL    HW118520   0.124   1.182   1.800 -0.8772  2.3269 -0.7645
 5900SOL    HW218521  -0.002   1.204   1.902 -2.4354  1.6797 -2.5169
 5901SOL     OW18522   4.581   1.675   2.575 -0.2324  0.0260 -0.0508
 5901SOL    HW118523   4.602   1.612   2.500  0.8725  0.4698 -0.1258
 5901SOL    HW218524   4.595   1.628   2.662  0.7825  0.2089 -0.1022
 5902SOL     OW18525   1.755   0.608   5.042  0.2607  0.1263 -0.2360
 5902SOL    HW118526   1.756   0.624   5.141 -0.4780 -0.0382 -0.1924
 5902SOL    HW218527   1.845   0.629   5.004  0.4225  0.6501  0.3986
 5903SOL     OW18528   1.879   4.159   3.646 -0.0173 -0.0678 -0.2024
 5903SOL    HW118529   1.813   4.231   3.624  0.0091 -0.4622 -1.6901
 5903SOL    HW218530   1.865   4.081   3.584 -1.5671 -2.3966  2.7129
 5904SOL     OW18531   3.045   5.388   5.555  0.0365  0.1641 -0.5219
 5904SOL    HW118532   2.977   5.346   5.615  1.1854 -1.5697 -0.3265
 5904SOL    HW218533   3.132   5.397   5.604  0.2009  1.4809 -1.0310
 5905SOL     OW18534   1.237   3.495   6.125 -0.1570 -0.8485 -0.1708
 5905SOL    HW118535   1.291   3.550   6.189 -1.1909 -1.1585  1.0108
 5905SOL    HW218536   1.286   3.488   6.038  1.8636 -1.4075  0.9433
 5906SOL     OW18537   3.004   6.458   5.954  0.1935 -0.4956  0.2456
 5906SOL    HW118538   2.911   6.436   5.927 -0.0847  0.4590  0.4102
 5906SOL    HW218539   3.067   6.391   5.913 -0.7603 -2.7211  2.2580
 5907SOL     OW18540   4.246   6.314   2.084 -0.3185 -0.1102  0.4474
 5907SOL    HW118541   4.224   6.399   2.133  0.6173 -0.4351  1.4466
 5907SOL    HW218542   4.180   6.243   2.110  0.4181 -0.4038  1.6000
 5908SOL     OW18543   0.410   3.391   6.022 -0.0330 -0.1583 -0.4849
 5908SOL    HW118544   0.442   3.346   6.106 -1.9564  0.2323  0.5178
 5908SOL    HW218545   0.464   3.474   6.007  1.6037 -1.2303 -0.7314
 5909SOL     OW18546   3.782   6.822   3.166 -0.1264 -0.0338 -0.2624
 5909SOL    HW118547   3.849   6.863   3.104 -0.3741 -1.0968 -1.2570
 5909SOL    HW218548   3.692   6.825   3.123 -0.6980  1.1153  0.9452
 5910SOL     OW18549   2.990   1.880   2.091 -0.1364 -0.5756 -0.3294
 5910SOL    HW118550   3.027   1.961   2.045  0.6735 -1.2421 -0.8556
 5910SOL    HW218551   2.949   1.819   2.024  1.5381 -1.8288 -0.2880
 5911SOL     OW18552   5.886   1.356   0.084  0.0082 -0.3154 -0.8915
 5911SOL    HW118553   5.953   1.313   0.145 -0.0874  0.0546 -0.5257
 5911SOL    HW218554   5.903   1.325  -0.010 -0.3623 -1.5209 -0.5772
 5912SOL     OW18555   0.523   3.617   0.274  0.2579  0.0771  0.3914
 5912SOL    HW118556   0.582   3.648   0.199  1.4163 -0.1304  1.1954
 5912SOL    HW218557   0.485   3.527   0.251  4.5113 -2.4167  1.9565
 5913SOL     OW18558   0.047   1.565   2.308 -0.5563 -0.3282 -0.1278
 5913SOL    HW118559   0.114   1.529   2.373 -2.1660 -2.4557  0.4754
 5913SOL    HW218560   0.072   1.537   2.215  0.3664  0.5265 -0.1618
 5914SOL     OW18561   6.033   5.816   5.122  0.4469  0.1838 -0.5180
 5914SOL    HW118562   6.011   5.718   5.115  0.4292  0.2013 -0.7999
 5914SOL    HW218563   6.078   5.833   5.210 -0.2607  0.0530 -0.1175
 5915SOL     OW18564   0.355   6.587   4.396  0.3770 -0.4881  0.1373
 5915SOL    HW118565   0.428   6.609   4.461  1.3950 -0.0710 -1.0917
 5915SOL    HW218566   0.366   6.494   4.363  0.3954 -0.3942 -0.1240
 5916SOL     OW18567   1.849   5.731   5.698  0.2533 -0.9664  0.4191
 5916SOL    HW118568   1.902   5.691   5.773  1.8180 -1.0618 -0.6895
 5916SOL    HW218569   1.823   5.659   5.633 -0.3962 -0.7641  0.4347
 5917SOL     OW18570   5.104   0.309   5.997 -0.3096  0.6460  0.2719
 5917SOL    HW118571   5.091   0.371   5.919  1.0812  0.3140 -0.2692
 5917SOL    HW218572   5.020   0.304   6.050 -1.8586 -0.3738 -2.0916
 5918SOL     OW18573   3.228   0.912   6.677  0.1990 -0.5968  0.5481
 5918SOL    HW118574   3.177   0.844   6.624 -2.3055  0.2244  1.7249
 5918SOL    HW218575   3.223   0.889   6.774 -0.0601  0.8160  0.9036
 5919SOL     OW18576   3.872   5.281   1.768 -0.4913  0.5437  0.6078
 5919SOL    HW118577   3.791   5.337   1.786 -0.3926  1.1454 -0.7433
 5919SOL    HW218578   3.855   5.223   1.688 -0.3176 -0.8456  1.5440
 5920SOL     OW18579   4.260   0.112   1.608  0.4588 -0.1991 -0.5765
 5920SOL    HW118580   4.336   0.177   1.612 -0.2194  0.7316 -1.9387
 5920SOL    HW218581   4.210   0.115   1.695  1.2303  0.1055 -0.1330
 5921SOL     OW18582   1.434   3.986   2.235 -0.0498 -0.2960  0.2598
 5921SOL    HW118583   1.364   4.057   2.233  0.4100  0.1497 -0.5679
 5921SOL    HW218584   1.470   3.977   2.328 -0.9300 -0.2711  0.6119
 5922SOL     OW18585   3.384   2.845   6.407 -0.4139  0.5324 -0.3694
 5922SOL    HW118586   3.406   2.819   6.313  2.5529 -3.2728  1.1505
 5922SOL    HW218587   3.292   2.813   6.430  0.9546 -4.0541 -0.4027
 5923SOL     OW18588   0.267   4.835   0.468 -0.4343  0.5255  0.3401
 5923SOL    HW118589   0.336   4.905   0.485  1.3460 -1.2504  0.8380
 5923SOL    HW218590   0.297   4.777   0.392 -1.2726 -0.4144  0.7135
 5924SOL     OW18591   0.717   2.777   2.340 -0.3453 -0.2416  0.1615
 5924SOL    HW118592   0.696   2.691   2.293 -2.2300  0.6562 -0.7516
 5924SOL    HW218593   0.632   2.819   2.372  0.5852  1.0515  1.0313
 5925SOL     OW18594   4.385   0.455   2.984 -1.1854  0.3096  0.4347
 5925SOL    HW118595   4.313   0.402   2.940  0.8236 -1.1028 -1.4491
 5925SOL    HW218596   4.403   0.418   3.075 -2.1956  0.0801  0.5490
 5926SOL     OW18597   0.329   5.836   1.110 -0.0288 -0.6741  0.0482
 5926SOL    HW118598   0.377   5.836   1.198  0.8860 -2.0993 -0.4264
 5926SOL    HW218599   0.241   5.884   1.121  0.3521 -0.2458  1.5563
 5927SOL     OW18600   1.191   6.010   3.868 -0.0342 -0.1052 -0.6733
 5927SOL    HW118601   1.127   5.952   3.918  0.2799 -0.8245 -1.0780
 5927SOL    HW218602   1.222   5.961   3.786  0.3176  0.6035 -0.9686
 5928SOL     OW18603   0.241   6.862   1.732  0.0458 -0.4555 -0.5396
 5928SOL    HW118604   0.338   6.870   1.753 -0.4203 -0.6256  2.1091
 5928SOL    HW218605   0.216   6.927   1.661  1.6568  1.2763  0.4082
 5929SOL     OW18606   2.877   1.527   1.307  0.8738  0.6125  0.6225
 5929SOL    HW118607   2.881   1.482   1.396 -0.5831  0.9875  0.9182
 5929SOL    HW218608   2.895   1.460   1.235  0.2343 -0.1232  1.1254
 5930SOL     OW18609   4.822   0.571   4.688  0.3565 -0.0098  0.8358
 5930SOL    HW118610   4.784   0.599   4.777 -1.6790 -0.1013  0.0637
 5930SOL    HW218611   4.780   0.626   4.616  1.4039 -0.4726 -0.1414
 5931SOL     OW18612   4.919   2.800   2.583  0.2591 -0.1618 -0.2135
 5931SOL    HW118613   4.870   2.714   2.597 -3.3798  1.8464  0.7615
 5931SOL    HW218614   4.929   2.818   2.486 -3.6787  0.5183 -0.6684
 5932SOL     OW18615   6.280   1.431   1.866 -0.0822  0.2867  0.1716
 5932SOL    HW118616   6.211   1.426   1.794 -1.0270 -0.0341  1.0697
 5932SOL    HW218617   6.342   1.507   1.847  0.4666 -0.5656 -1.6234
 5933SOL     OW18618   5.532   6.193   6.478 -0.0270  0.0938 -0.0640
 5933SOL    HW118619   5.618   6.238   6.502 -0.5163  2.0266 -1.7211
 5933SOL    HW218620   5.531   6.172   6.380 -1.5076  0.2979 -0.1134
 5934SOL     OW18621   6.024   3.329   6.265 -0.2719 -0.0627  0.3895
 5934SOL    HW118622   6.089   3.293   6.333  1.0747  0.4017 -0.6142
 5934SOL    HW218623   5.963   3.256   6.236 -0.5230 -0.4136  1.6746
 5935SOL     OW18624   0.047   2.937   4.761  0.3939  0.1994  0.0681
 5935SOL    HW118625   0.033   2.944   4.662  1.2520 -0.4718 -0.1142
 5935SOL    HW218626  -0.028   2.982   4.809 -1.6146 -2.0164 -0.8378
 5936SOL     OW18627   0.403   6.751   2.626  0.3963 -0.2640 -0.1086
 5936SOL    HW118628   0.348   6.683   2.577  0.1611 -0.0631 -0.1268
 5936SOL    HW218629   0.399   6.733   2.724 -0.0471 -0.0030 -0.0734
 5937SOL     OW18630   5.232   6.471   0.245  0.3742 -0.1840 -0.3135
 5937SOL    HW118631   5.332   6.463   0.241  0.3678 -1.0542  0.6863
 5937SOL    HW218632   5.207   6.539   0.315  0.2605  0.1667 -0.6902
 5938SOL     OW18633   4.145   0.921   2.939  0.6586  0.2092  0.0777
 5938SOL    HW118634   4.172   0.835   2.895  0.8298 -0.2280  1.0094
 5938SOL    HW218635   4.109   0.984   2.870  0.1807 -0.7444 -0.5599
 5939SOL     OW18636   0.639   3.085   3.351  0.0499  0.2217  0.1812
 5939SOL    HW118637   0.737   3.076   3.333  0.6235  3.9506  0.6739
 5939SOL    HW218638   0.613   3.026   3.428  2.0815 -0.1945  0.6055
 5940SOL     OW18639   1.916   4.581   1.673  0.1857  0.1307  0.1230
 5940SOL    HW118640   1.921   4.483   1.690  0.3781  0.1727  0.3255
 5940SOL    HW218641   1.953   4.602   1.583  0.3783  0.0443  0.1791
 5941SOL     OW18642   1.739   1.129   1.898  0.5969  0.6887 -0.0554
 5941SOL    HW118643   1.650   1.167   1.876 -0.0884  1.0513  2.9529
 5941SOL    HW218644   1.811   1.194   1.874 -0.0636  1.0870 -0.9748
 5942SOL     OW18645   4.180   1.255   0.660 -0.0787 -0.1265  0.2168
 5942SOL    HW118646   4.260   1.314   0.667  0.0152 -0.0474 -1.2169
 5942SOL    HW218647   4.206   1.168   0.616 -1.0621  0.5813 -1.9035
 5943SOL     OW18648   0.392   1.836   0.444 -0.3826 -0.2640  0.0302
 5943SOL    HW118649   0.371   1.901   0.516  1.8377  1.1492 -0.4689
 5943SOL    HW218650   0.474   1.784   0.469 -0.3745 -0.7294 -0.8783
 5944SOL     OW18651   6.662   6.714   3.629  0.1296  0.0087 -0.2376
 5944SOL    HW118652   6.638   6.734   3.724  0.1492  0.8223 -0.4019
 5944SOL    HW218653   6.712   6.628   3.625 -1.3466 -0.9002  0.2981
 5945SOL     OW18654   6.050   1.593   2.188 -0.6110 -0.2346  0.5272
 5945SOL    HW118655   6.127   1.646   2.221 -1.6178  1.1387  0.7898
 5945SOL    HW218656   6.074   1.550   2.101  0.2327  0.7250  0.2618
 5946SOL     OW18657   0.764   3.143   6.682 -0.1708 -0.2998 -0.0987
 5946SOL    HW118658   0.861   3.134   6.703 -0.1150 -2.0890 -0.8927
 5946SOL    HW218659   0.752   3.149   6.583 -0.6882  3.7747  0.0328
 5947SOL     OW18660   0.809   6.502   2.799  0.4184 -0.6688 -0.0626
 5947SOL    HW118661   0.849   6.428   2.745  1.1508 -0.1755 -0.2137
 5947SOL    HW218662   0.821   6.589   2.750  0.5631 -0.2979  0.6241
 5948SOL     OW18663   1.071   4.466   4.471 -0.4542 -0.4991 -0.5642
 5948SOL    HW118664   0.974   4.462   4.446 -0.9949 -2.5491  1.4960
 5948SOL    HW218665   1.090   4.551   4.520 -1.7788 -0.9905  0.8848
 5949SOL     OW18666   0.832   5.092   4.643  0.4770  0.3881  0.0477
 5949SOL    HW118667   0.753   5.031   4.647 -1.1651  2.2403 -1.5446
 5949SOL    HW218668   0.912   5.046   4.682 -0.8990 -2.2862 -0.0293
 5950SOL     OW18669   0.052   3.865   5.828  0.1893  0.1299 -0.1675
 5950SOL    HW118670   0.025   3.811   5.748  0.8865 -1.1279  0.3959
 5950SOL    HW218671  -0.002   3.948   5.833 -1.5772 -0.9477 -0.5926
 5951SOL     OW18672   5.132   4.966   6.351  0.0747  0.3668 -0.0109
 5951SOL    HW118673   5.068   5.027   6.304  1.0688  0.8489 -0.7826
 5951SOL    HW218674   5.219   4.964   6.301  0.0048 -1.8929 -0.1635
 5952SOL     OW18675   3.893   1.039   5.343  0.0388 -0.8567 -0.5564
 5952SOL    HW118676   3.845   1.018   5.428 -1.8376 -0.1252 -1.3578
 5952SOL    HW218677   3.965   0.972   5.327  0.5754 -0.8872  1.6819
 5953SOL     OW18678   1.107   1.016   6.564 -0.1984 -0.1060  0.2620
 5953SOL    HW118679   1.118   0.922   6.598  1.8925  1.0621  3.2150
 5953SOL    HW218680   1.182   1.039   6.502  0.7509  0.3900  1.5715
 5954SOL     OW18681   4.536   5.235   0.553  0.1217  0.0252 -0.4506
 5954SOL    HW118682   4.561   5.263   0.460  0.5045 -0.8116 -0.6021
 5954SOL    HW218683   4.596   5.281   0.618 -0.9582  1.6174 -0.5067
 5955SOL     OW18684   1.030   3.972   1.560  0.7397  0.1138 -0.1948
 5955SOL    HW118685   1.124   3.970   1.526  0.2972 -0.4422 -1.4470
 5955SOL    HW218686   0.967   3.986   1.483 -0.4790 -4.1238 -0.2015
 5956SOL     OW18687   0.511   0.726   5.289 -0.3743  0.2806  0.4975
 5956SOL    HW118688   0.598   0.742   5.242 -0.7295 -1.1608 -0.7202
 5956SOL    HW218689   0.447   0.800   5.266 -0.3298 -0.0546 -0.8061
 5957SOL     OW18690   4.141   4.260   0.093  0.0433  0.2995 -0.3095
 5957SOL    HW118691   4.041   4.269   0.086  0.0239  0.0251 -0.4199
 5957SOL    HW218692   4.164   4.206   0.175  0.0766 -0.1040 -0.5839
 5958SOL     OW18693   6.290   2.675   0.566 -0.0365  0.5106 -0.4126
 5958SOL    HW118694   6.382   2.643   0.545  0.5648  1.7922  0.1135
 5958SOL    HW218695   6.239   2.602   0.613  0.9228 -0.0098 -0.1452
 5959SOL     OW18696   6.663   5.711   0.168 -0.1800 -0.1137 -0.1996
 5959SOL    HW118697   6.661   5.780   0.095  1.9147  0.7976  0.5233
 5959SOL    HW218698   6.615   5.746   0.248 -2.1977 -0.9874 -0.9380
 5960SOL     OW18699   1.625   4.723   6.495  0.7928 -0.5815 -0.5730
 5960SOL    HW118700   1.652   4.714   6.591  1.9597 -3.3291 -1.0622
 5960SOL    HW218701   1.695   4.773   6.445 -0.6392  2.4636  0.2232
 5961SOL     OW18702   1.699   2.204   6.039  0.2356 -0.3438  0.4656
 5961SOL    HW118703   1.687   2.150   6.123  0.8691 -0.3006  0.5908
 5961SOL    HW218704   1.778   2.264   6.049 -0.1795  0.2709  0.1490
 5962SOL     OW18705   0.986   6.724   1.565  0.1833 -0.5140 -0.4073
 5962SOL    HW118706   0.953   6.817   1.550  0.6375 -0.3132 -0.1920
 5962SOL    HW218707   0.952   6.690   1.653  0.7394 -0.2154 -0.0705
 5963SOL     OW18708   1.101   1.138   3.014 -0.4141 -0.3673  0.1822
 5963SOL    HW118709   1.006   1.162   3.034 -0.1880  2.2590 -1.3723
 5963SOL    HW218710   1.158   1.162   3.093 -0.8499 -0.5456  0.5606
 5964SOL     OW18711   1.666   3.339   0.387  0.4889  0.2412  0.2268
 5964SOL    HW118712   1.659   3.438   0.370  0.6617  0.3066  0.5416
 5964SOL    HW218713   1.574   3.299   0.384  0.6358 -0.0336 -2.5813
 5965SOL     OW18714   3.425   5.816   5.052  0.3050  0.6332  0.0066
 5965SOL    HW118715   3.332   5.825   5.015  0.4523 -0.8293 -0.7981
 5965SOL    HW218716   3.490   5.808   4.977  1.0968  1.5205  0.5669
 5966SOL     OW18717   6.755   6.720   1.662 -0.5046 -0.2270  1.0245
 5966SOL    HW118718   6.696   6.800   1.680  0.1331  0.2187  1.1981
 5966SOL    HW218719   6.703   6.636   1.680 -0.8867  0.1640  1.8271
 5967SOL     OW18720   1.818   3.605   5.020  0.0651 -0.1240 -0.4515
 5967SOL    HW118721   1.823   3.576   5.116  1.0421  0.6125 -0.2687
 5967SOL    HW218722   1.794   3.526   4.963 -1.0769 -0.4567  0.4401
 5968SOL     OW18723   6.246   5.180   3.267 -0.2550  0.5758  0.2435
 5968SOL    HW118724   6.224   5.138   3.354 -0.1019  0.7464  0.3664
 5968SOL    HW218725   6.301   5.117   3.212  2.5864  1.6789  1.6247
 5969SOL     OW18726   1.591   4.635   0.184  0.1454  0.6050 -0.3330
 5969SOL    HW118727   1.676   4.582   0.180 -1.0036 -1.2541 -2.3457
 5969SOL    HW218728   1.548   4.621   0.273  1.1218  0.2622  0.1180
 5970SOL     OW18729   3.556   5.231   1.071  0.3609 -0.1476  0.6745
 5970SOL    HW118730   3.457   5.241   1.081  0.4561  0.2161  1.4003
 5970SOL    HW218731   3.583   5.252   0.977 -0.4783 -2.2362 -0.0901
 5971SOL     OW18732   2.665   5.462   0.178  0.2820 -0.1959  0.1368
 5971SOL    HW118733   2.696   5.395   0.111  0.0220 -0.2445  0.0639
 5971SOL    HW218734   2.730   5.538   0.181  0.4430 -0.3274  0.0313
 5972SOL     OW18735   4.921   6.317   1.803  0.5646  0.0021  0.2748
 5972SOL    HW118736   4.880   6.345   1.890 -0.5154 -1.4443  0.2732
 5972SOL    HW218737   5.020   6.325   1.809  0.6486 -1.7282  2.2787
 5973SOL     OW18738   0.356   4.237   4.763 -0.1748  0.1246 -0.5931
 5973SOL    HW118739   0.329   4.326   4.726 -0.7724 -0.2024 -0.9616
 5973SOL    HW218740   0.447   4.244   4.803  0.5224  0.4958 -2.1465
 5974SOL     OW18741   3.074   6.027   3.401 -0.1949  0.0396  0.4629
 5974SOL    HW118742   2.991   6.053   3.352 -0.9009 -2.4744  0.2136
 5974SOL    HW218743   3.150   6.019   3.337  0.2788  2.2199  0.6736
 5975SOL     OW18744   1.854   0.196   4.653 -0.2397 -0.1211  0.4774
 5975SOL    HW118745   1.834   0.143   4.736 -0.9996  0.2283  0.5220
 5975SOL    HW218746   1.769   0.232   4.615 -0.0226 -1.1254 -1.0409
 5976SOL     OW18747   4.616   6.818   5.288  0.1732  0.5164 -0.2115
 5976SOL    HW118748   4.562   6.865   5.358 -0.5399  0.7770 -0.8957
 5976SOL    HW218749   4.710   6.852   5.290  0.6955 -0.8512  1.8615
 5977SOL     OW18750   6.757   0.985   5.624 -0.6508  0.0529  0.0469
 5977SOL    HW118751   6.811   0.924   5.567 -1.9873  0.1795 -1.4292
 5977SOL    HW218752   6.777   1.080   5.599 -2.8159  0.0875 -1.8489
 5978SOL     OW18753   1.952   6.412   4.083  0.0136  0.5327  0.3938
 5978SOL    HW118754   1.954   6.379   4.177 -1.7406 -0.4196  0.1453
 5978SOL    HW218755   1.865   6.386   4.041  0.1086  2.2968 -1.0102
 5979SOL     OW18756   5.570   1.840   6.578  0.0357  0.5865  0.7063
 5979SOL    HW118757   5.583   1.772   6.505  1.6223  1.4136  0.1846
 5979SOL    HW218758   5.532   1.924   6.539  0.6183  0.9332  0.8728
 5980SOL     OW18759   1.698   4.380   6.686 -0.6909 -0.5455 -0.3029
 5980SOL    HW118760   1.771   4.379   6.618 -1.0740  1.3222 -0.7838
 5980SOL    HW218761   1.629   4.312   6.661  1.0853 -2.7642  0.4715
 5981SOL     OW18762   5.885   3.097   6.186 -0.1564 -0.6459  0.0230
 5981SOL    HW118763   5.790   3.118   6.213 -0.0179  1.4711 -0.9322
 5981SOL    HW218764   5.885   3.021   6.121 -1.2431 -0.4226 -0.2702
 5982SOL     OW18765   5.881   6.043   5.197 -0.8358  0.2085 -0.5328
 5982SOL    HW118766   5.932   6.129   5.189  0.7630 -0.3593  2.4189
 5982SOL    HW218767   5.940   5.967   5.169 -0.5767 -0.2985  1.2811
 5983SOL     OW18768   6.169   5.497   6.749  0.1055  0.3856  0.2205
 5983SOL    HW118769   6.202   5.582   6.789 -0.9153  0.1980  1.5263
 5983SOL    HW218770   6.118   5.517   6.666  0.3069  1.0065  0.2469
 5984SOL     OW18771   0.404   2.929   1.867 -0.0891 -0.7141 -0.1939
 5984SOL    HW118772   0.418   3.015   1.816  2.1988 -0.3698  0.8857
 5984SOL    HW218773   0.327   2.940   1.929 -1.1802 -0.2008 -1.5770
 5985SOL     OW18774   6.838   0.015   2.080 -0.5834 -0.0605  0.0948
 5985SOL    HW118775   6.839   0.082   2.006 -1.9346 -0.5347 -0.3863
 5985SOL    HW218776   6.895  -0.063   2.055 -0.2960  0.2177 -0.0395
 5986SOL     OW18777   5.422   0.687   2.919 -0.0845 -0.1357  0.2584
 5986SOL    HW118778   5.469   0.601   2.904  0.2836  0.0048  0.6032
 5986SOL    HW218779   5.409   0.734   2.831 -1.6663 -1.2497 -0.1533
 5987SOL     OW18780   0.354   5.640   1.651 -0.1702 -0.0905  1.1848
 5987SOL    HW118781   0.333   5.634   1.554 -1.0732  0.2265  1.3501
 5987SOL    HW218782   0.279   5.603   1.704  0.1087  0.1723  1.7767
 5988SOL     OW18783   3.355   5.067   6.342 -0.2175  0.2945  0.2701
 5988SOL    HW118784   3.306   5.151   6.319  0.4834  0.7143  0.3030
 5988SOL    HW218785   3.303   5.017   6.413 -2.0132 -0.6467 -1.5925
 5989SOL     OW18786   2.951   6.971   4.181 -0.0365  0.4176  0.5408
 5989SOL    HW118787   2.963   7.009   4.273  1.1189  1.1174  0.1106
 5989SOL    HW218788   2.937   6.872   4.188  1.2077  0.2790  1.4537
 5990SOL     OW18789   2.789   0.300   6.066 -0.2284  0.0448 -0.1513
 5990SOL    HW118790   2.881   0.313   6.031 -0.9800 -0.4644 -2.4592
 5990SOL    HW218791   2.744   0.226   6.017 -1.5121 -0.4570  1.6867
 5991SOL     OW18792   1.169   4.388   5.865 -0.2218  0.3241  0.4470
 5991SOL    HW118793   1.134   4.297   5.845 -1.0100  0.9485 -1.1521
 5991SOL    HW218794   1.269   4.387   5.863 -0.2228 -0.4983  0.4624
 5992SOL     OW18795   1.344   0.420   2.485 -0.3891 -0.5862 -0.2389
 5992SOL    HW118796   1.302   0.507   2.510  1.4441  1.4218 -3.4804
 5992SOL    HW218797   1.402   0.388   2.560 -0.3761  1.4854  0.6822
 5993SOL     OW18798   6.671   4.018   3.364 -0.4608 -0.6204  0.0632
 5993SOL    HW118799   6.706   4.019   3.458  0.3490 -1.9295 -0.1804
 5993SOL    HW218800   6.727   4.079   3.307 -1.1359  0.4008  0.4756
 5994SOL     OW18801   2.291   4.026   5.332  0.6082  0.5759  0.5942
 5994SOL    HW118802   2.388   4.003   5.329  0.7934  1.2899  0.9204
 5994SOL    HW218803   2.279   4.118   5.369 -0.2477  0.1431  1.4374
 5995SOL     OW18804   5.567   6.608   0.786 -0.2475  0.0527  0.2876
 5995SOL    HW118805   5.584   6.706   0.796  0.4113  0.0585 -0.8078
 5995SOL    HW218806   5.478   6.586   0.826 -0.7537  1.2250 -0.1473
 5996SOL     OW18807   0.998   3.479   2.701  0.0507 -0.0747 -0.6387
 5996SOL    HW118808   0.960   3.489   2.793 -0.1188  0.4473 -0.7617
 5996SOL    HW218809   0.997   3.382   2.675  0.7637 -0.3231  0.1894
 5997SOL     OW18810   4.339   6.999   2.900 -0.1153 -0.3862 -0.0872
 5997SOL    HW118811   4.258   6.941   2.900 -0.7451  0.4328  1.5898
 5997SOL    HW218812   4.388   6.986   2.986  1.7399 -1.1105 -1.1930
 5998SOL     OW18813   6.895   0.779   5.491  0.0745 -0.1401 -0.4173
 5998SOL    HW118814   6.943   0.750   5.409  2.1890 -0.0439  0.7193
 5998SOL    HW218815   6.895   0.704   5.558  1.2294  0.7521  0.6605
 5999SOL     OW18816   4.317   3.055   5.759 -0.2025 -0.2528  0.1021
 5999SOL    HW118817   4.381   3.013   5.695  0.5029 -0.4832  0.9383
 5999SOL    HW218818   4.367   3.089   5.839 -0.8438  1.6075 -0.2563
 6000SOL     OW18819   2.487   1.760   0.205  0.4955  0.5657 -0.3107
 6000SOL    HW118820   2.526   1.697   0.137 -1.8245 -0.1469 -1.0625
 6000SOL    HW218821   2.478   1.712   0.293  0.5629  0.4753 -0.3517
 6001SOL     OW18822   1.609   0.512   3.229 -0.6981  0.5585 -0.1902
 6001SOL    HW118823   1.558   0.597   3.245 -0.8786  0.2136  1.1350
 6001SOL    HW218824   1.552   0.449   3.176 -0.7572  1.0599 -0.7347
 6002SOL     OW18825   1.026   0.459   2.220  0.1032  0.4361 -0.3971
 6002SOL    HW118826   1.038   0.540   2.163  0.0347  0.9692  0.3321
 6002SOL    HW218827   0.930   0.450   2.246  0.2056  0.4316 -0.0175
 6003SOL     OW18828   6.899   1.931   1.043  0.1247 -0.4074  0.6420
 6003SOL    HW118829   6.911   1.848   0.988  2.1212 -1.4156  2.4211
 6003SOL    HW218830   6.869   2.006   0.985  0.0286 -1.9341 -1.3816
 6004SOL     OW18831   6.552   0.215   0.941  0.0181 -0.1364  0.1768
 6004SOL    HW118832   6.610   0.139   0.910  1.0619  0.8266 -0.3149
 6004SOL    HW218833   6.458   0.198   0.913  0.6660 -0.0021 -2.2993
 6005SOL     OW18834   3.438   1.501   5.242 -0.1479 -0.1522  0.2482
 6005SOL    HW118835   3.467   1.575   5.180 -1.3360  1.0023  1.0167
 6005SOL    HW218836   3.348   1.468   5.214 -0.4892  0.0564  1.0678
 6006SOL     OW18837   5.110   3.217   2.850 -0.5209  0.3400  0.3640
 6006SOL    HW118838   5.047   3.154   2.805 -1.9065  1.1805  1.0486
 6006SOL    HW218839   5.185   3.166   2.891 -1.1472 -0.7726  0.1553
 6007SOL     OW18840   2.735   6.080   4.069 -0.1019  0.2996 -0.3724
 6007SOL    HW118841   2.756   6.159   4.011  1.9540  0.7022  0.8213
 6007SOL    HW218842   2.817   6.024   4.078 -1.2739 -1.4996 -0.4255
 6008SOL     OW18843   2.812   2.834   0.345 -0.3969 -0.2601  0.3444
 6008SOL    HW118844   2.761   2.749   0.354  0.3822 -0.6962  0.8186
 6008SOL    HW218845   2.781   2.900   0.413 -2.0913  0.4393 -1.0180
 6009SOL     OW18846   2.052   1.104   0.769 -0.1680 -0.4247  0.3237
 6009SOL    HW118847   2.040   1.022   0.712 -0.1672  1.0937 -1.9614
 6009SOL    HW218848   1.978   1.108   0.837 -1.2977 -1.3185 -0.7997
 6010SOL     OW18849   3.603   3.630   6.941 -0.3368 -0.4408  0.4578
 6010SOL    HW118850   3.610   3.539   6.980  0.1245 -1.1384 -1.1874
 6010SOL    HW218851   3.695   3.666   6.923 -0.5310 -0.0056  0.3114
 6011SOL     OW18852   4.274   0.606   6.055  1.1034 -0.1983  0.1156
 6011SOL    HW118853   4.230   0.605   6.146  1.7435 -2.5455  0.4522
 6011SOL    HW218854   4.370   0.631   6.065  1.6697 -2.2932  0.4044
 6012SOL     OW18855   3.858   5.455   2.542 -0.1442 -0.7527 -0.4507
 6012SOL    HW118856   3.881   5.365   2.506  0.5988 -1.0800  0.8150
 6012SOL    HW218857   3.914   5.475   2.622 -0.1452  0.9360 -0.8442
 6013SOL     OW18858   3.235   4.404   0.751  0.8388 -0.1123 -0.2180
 6013SOL    HW118859   3.284   4.359   0.676 -0.9274 -3.5336  0.5008
 6013SOL    HW218860   3.248   4.352   0.835 -0.2488  1.5434  1.0147
 6014SOL     OW18861   1.887   4.885   4.465  0.1123 -0.3446  0.6564
 6014SOL    HW118862   1.838   4.799   4.450  1.7696 -1.6553  2.2528
 6014SOL    HW218863   1.949   4.902   4.389 -1.2424  0.2388 -0.3621
 6015SOL     OW18864   0.693   0.594   4.627  0.0491  0.4156 -0.3950
 6015SOL    HW118865   0.634   0.537   4.684 -0.0278 -0.5175 -1.3781
 6015SOL    HW218866   0.710   0.681   4.673 -2.0101  0.6805 -0.0408
 6016SOL     OW18867   5.996   5.542   5.054 -0.4106 -0.0184  0.3970
 6016SOL    HW118868   5.991   5.474   5.126 -2.8433 -0.7621 -0.3449
 6016SOL    HW218869   6.033   5.501   4.971  0.1082  0.1567  0.5412
 6017SOL     OW18870   5.111   5.952   3.497  0.6786  0.1415 -0.3968
 6017SOL    HW118871   5.088   5.948   3.400  1.2917 -0.5335 -0.5249
 6017SOL    HW218872   5.177   6.026   3.512  1.6764 -0.6508 -0.7452
 6018SOL     OW18873   6.771   1.477   5.835  0.3738 -0.0901  0.4636
 6018SOL    HW118874   6.759   1.571   5.804 -1.4082 -0.5565 -0.3587
 6018SOL    HW218875   6.770   1.474   5.935 -0.6321  0.6481  0.4860
 6019SOL     OW18876   0.109   4.040   3.263  0.3248  0.1322  0.1786
 6019SOL    HW118877   0.055   3.964   3.226  0.2580  0.3758 -0.2291
 6019SOL    HW218878   0.204   4.030   3.232  0.0293  1.0006 -1.0916
 6020SOL     OW18879   5.066   5.626   2.230 -0.0226  0.4175  0.4458
 6020SOL    HW118880   5.098   5.596   2.320  1.4489 -1.8628 -0.7238
 6020SOL    HW218881   5.012   5.554   2.188  0.3263  0.9377 -0.9539
 6021SOL     OW18882   3.091   2.811   0.816  0.3724 -0.0832 -0.6793
 6021SOL    HW118883   3.186   2.841   0.807  1.2364 -2.7212 -1.1964
 6021SOL    HW218884   3.063   2.763   0.733 -1.0860 -0.1944 -0.1528
 6022SOL     OW18885   5.634   2.498   3.481  0.4505 -0.2518  0.1904
 6022SOL    HW118886   5.646   2.597   3.474  0.6623 -0.1963  1.2547
 6022SOL    HW218887   5.537   2.475   3.468  0.4237  0.0554 -0.2367
 6023SOL     OW18888   4.487   0.844   5.885 -0.2119 -0.0627  0.0161
 6023SOL    HW118889   4.471   0.808   5.794 -0.5756 -0.5190  0.2539
 6023SOL    HW218890   4.409   0.901   5.913 -0.5194 -0.6545  0.3906
 6024SOL     OW18891   3.318   2.330   6.382 -1.0536 -0.5486 -0.0924
 6024SOL    HW118892   3.260   2.377   6.449 -0.1324 -1.2494  1.2328
 6024SOL    HW218893   3.321   2.384   6.298 -0.4335  1.5558  1.1795
 6025SOL     OW18894   1.031   3.713   3.647  0.2052  0.4007 -0.2195
 6025SOL    HW118895   1.081   3.753   3.724  1.2091 -1.4713  0.1795
 6025SOL    HW218896   0.934   3.732   3.657  0.3788  0.6802  1.2186
 6026SOL     OW18897   1.054   1.963   3.417  0.0600  0.3033  0.7630
 6026SOL    HW118898   1.135   1.964   3.357  1.0964 -1.8943  2.0214
 6026SOL    HW218899   1.054   2.045   3.474 -0.3963  1.9290 -1.4547
 6027SOL     OW18900   5.131   3.565   2.280 -0.0691 -0.6844  0.1967
 6027SOL    HW118901   5.157   3.531   2.370 -0.4583  1.2964  1.0914
 6027SOL    HW218902   5.151   3.495   2.211  0.4764 -2.1275  1.7688
 6028SOL     OW18903   4.283   5.817   6.619  0.2832 -0.7406  0.5710
 6028SOL    HW118904   4.232   5.887   6.568  0.1440 -1.8841 -0.9401
 6028SOL    HW218905   4.377   5.813   6.585  0.4940 -0.7846  1.1595
 6029SOL     OW18906   5.096   3.623   4.262  0.2932 -0.0123  0.2586
 6029SOL    HW118907   5.123   3.685   4.336 -1.4466 -0.8688  1.6567
 6029SOL    HW218908   5.065   3.676   4.184  0.3076  0.9012  0.8567
 6030SOL     OW18909   1.726   3.995   6.529 -0.0410  0.2720 -0.2673
 6030SOL    HW118910   1.814   4.042   6.545 -0.7224  1.6131 -0.3134
 6030SOL    HW218911   1.652   4.063   6.529 -0.9285 -0.6505 -1.6120
 6031SOL     OW18912   0.272   2.869   6.543  0.2416 -0.0250  0.4476
 6031SOL    HW118913   0.341   2.797   6.542  2.2258  1.8126  0.5903
 6031SOL    HW218914   0.293   2.936   6.614  0.0418  2.1580 -1.4479
 6032SOL     OW18915   0.878   6.889   3.924  0.2360  0.7554 -0.1509
 6032SOL    HW118916   0.825   6.956   3.872  0.3310  1.7353  0.9555
 6032SOL    HW218917   0.963   6.869   3.876  0.1700  1.3744 -0.5504
 6033SOL     OW18918   1.509   3.965   0.515  0.2366 -0.2388  0.3034
 6033SOL    HW118919   1.488   3.873   0.479 -0.3820 -0.7533  1.9229
 6033SOL    HW218920   1.564   3.956   0.597 -0.3281  0.8308  0.8120
 6034SOL     OW18921   6.863   1.842   0.153 -0.5556  0.2932 -0.3113
 6034SOL    HW118922   6.886   1.939   0.149  2.4855 -0.3451 -0.9549
 6034SOL    HW218923   6.852   1.806   0.060 -0.1579 -0.2660 -0.1488
 6035SOL     OW18924   2.703   4.806   1.242  0.1550 -0.4634 -0.1912
 6035SOL    HW118925   2.701   4.802   1.342  1.3837 -0.3366 -0.1412
 6035SOL    HW218926   2.699   4.714   1.204  1.3013 -0.6195  0.0377
 6036SOL     OW18927   4.716   5.113   6.865  0.8033 -0.1394 -0.2750
 6036SOL    HW118928   4.751   5.145   6.777 -1.8435 -0.2337 -1.4543
 6036SOL    HW218929   4.676   5.190   6.914 -0.6914 -0.6114 -0.6887
 6037SOL     OW18930   3.725   5.230   6.212 -0.2478  0.2246  0.0524
 6037SOL    HW118931   3.725   5.306   6.277  1.3264  0.8127 -0.5787
 6037SOL    HW218932   3.636   5.225   6.167 -1.6899 -0.7252  2.7668
 6038SOL     OW18933   4.053   3.621   4.639 -0.0433 -0.4172 -0.1351
 6038SOL    HW118934   4.053   3.718   4.617 -1.8517 -0.6867 -1.5497
 6038SOL    HW218935   4.141   3.581   4.611  0.1044  0.5033 -1.0370
 6039SOL     OW18936   0.112   3.444   3.645  0.6526  0.1011 -0.7002
 6039SOL    HW118937   0.078   3.516   3.706 -1.3701 -2.1639  1.0291
 6039SOL    HW218938   0.209   3.428   3.663  0.5597  0.8321  0.5479
 6040SOL     OW18939   3.346   2.208   0.326 -0.2870 -0.0109 -0.0470
 6040SOL    HW118940   3.340   2.127   0.267 -2.1784  1.0214 -1.3988
 6040SOL    HW218941   3.269   2.268   0.306  0.5942  1.7284  1.5423
 6041SOL     OW18942   6.593   5.150   1.323  0.7215  0.2401  0.1251
 6041SOL    HW118943   6.674   5.092   1.328 -1.1043 -2.3474  2.0141
 6041SOL    HW218944   6.541   5.127   1.240 -0.2599 -1.3016  1.1244
 6042SOL     OW18945   2.566   0.866   5.290  0.2388  0.4639  0.1864
 6042SOL    HW118946   2.605   0.848   5.381  0.6329 -0.2078 -0.1081
 6042SOL    HW218947   2.578   0.785   5.233 -2.9030 -0.3350  0.5000
 6043SOL     OW18948   0.377   5.074   2.881 -0.2952 -0.6924 -0.2754
 6043SOL    HW118949   0.466   5.046   2.844 -1.1298 -3.3439 -0.4632
 6043SOL    HW218950   0.390   5.118   2.970  1.2598 -0.1503 -0.7468
 6044SOL     OW18951   4.672   6.259   3.056 -0.1699 -1.1799  0.3458
 6044SOL    HW118952   4.584   6.287   3.016  0.6317 -0.2544 -0.8852
 6044SOL    HW218953   4.672   6.161   3.072 -0.3939 -1.7708 -2.5755
 6045SOL     OW18954   5.129   6.485   5.597 -0.3815  0.2904 -0.0488
 6045SOL    HW118955   5.088   6.533   5.674 -0.3408  1.9594 -1.0119
 6045SOL    HW218956   5.169   6.399   5.628  0.3269  1.2698  1.9388
 6046SOL     OW18957   1.395   1.156   3.547 -0.1072 -0.0749  0.0876
 6046SOL    HW118958   1.305   1.125   3.517  0.3583 -1.0365 -0.3849
 6046SOL    HW218959   1.451   1.076   3.570  0.4358  0.5355  0.9186
 6047SOL     OW18960   4.837   5.288   1.805  0.2273  0.4013 -0.3173
 6047SOL    HW118961   4.808   5.315   1.713 -3.4559  0.2786  0.6785
 6047SOL    HW218962   4.883   5.365   1.850  1.5679  0.6301 -2.0029
 6048SOL     OW18963   5.602   6.402   6.786 -0.1642 -0.1921  0.5808
 6048SOL    HW118964   5.520   6.446   6.751 -0.1512 -0.9082 -0.3738
 6048SOL    HW218965   5.629   6.445   6.872 -0.1746  1.6147 -0.2957
 6049SOL     OW18966   3.846   2.030   5.867  0.0823 -0.1649 -0.1344
 6049SOL    HW118967   3.790   2.072   5.796  0.7996 -0.5229 -0.9453
 6049SOL    HW218968   3.817   1.935   5.881 -1.2200  0.4014  1.3498
 6050SOL     OW18969   5.318   2.672   1.316 -0.0200 -0.2340 -0.2762
 6050SOL    HW118970   5.396   2.731   1.297 -0.3556  0.1810 -0.3653
 6050SOL    HW218971   5.351   2.585   1.354  0.5229 -0.2795 -0.8105
 6051SOL     OW18972   0.373   6.425   1.841  0.4759  0.3647 -0.0165
 6051SOL    HW118973   0.445   6.466   1.784  0.5335  2.0161  1.1667
 6051SOL    HW218974   0.286   6.470   1.823 -0.0583 -0.8661 -0.6239
 6052SOL     OW18975   0.219   0.822   4.188 -0.1057  0.2092  0.0867
 6052SOL    HW118976   0.245   0.814   4.092  0.7869 -0.6823  0.3847
 6052SOL    HW218977   0.300   0.809   4.246 -0.4764  1.5503  0.9484
 6053SOL     OW18978   2.025   6.268   5.863 -0.5009 -0.1328  1.0304
 6053SOL    HW118979   1.947   6.323   5.894 -0.7165  0.0507  0.1749
 6053SOL    HW218980   2.009   6.237   5.770  0.3422 -0.3106  0.9385
 6054SOL     OW18981   0.828   3.689   1.714  0.2326  0.0142 -0.0895
 6054SOL    HW118982   0.901   3.632   1.753  1.6920  2.0698  0.3305
 6054SOL    HW218983   0.820   3.773   1.767 -0.5135  1.0923 -1.8396
 6055SOL     OW18984   5.436   6.640   6.958  0.2433  0.1906  0.0012
 6055SOL    HW118985   5.405   6.600   7.044  0.8605  1.2267  0.7206
 6055SOL    HW218986   5.533   6.662   6.965  0.3920 -0.0714 -1.1192
 6056SOL     OW18987   4.134   3.737   0.486 -0.0614 -0.2877  0.6130
 6056SOL    HW118988   4.196   3.690   0.549 -0.6662  0.8238  2.0818
 6056SOL    HW218989   4.069   3.792   0.538 -0.5158  0.7654 -0.9916
 6057SOL     OW18990   2.451   4.052   6.385  0.1887 -0.3496  0.1887
 6057SOL    HW118991   2.385   4.055   6.310  0.0702  0.8048  0.3177
 6057SOL    HW218992   2.405   4.030   6.470 -0.3381  1.8356  0.5381
 6058SOL     OW18993   3.154   0.502   1.857  0.5947 -0.3436  0.0582
 6058SOL    HW118994   3.083   0.571   1.863  0.7371 -0.1197 -0.7266
 6058SOL    HW218995   3.112   0.412   1.842  0.4970  0.0009 -2.0938
 6059SOL     OW18996   4.105   6.228   4.206 -0.2303  0.8849  0.1157
 6059SOL    HW118997   4.013   6.266   4.195 -1.0184 -0.6420  1.0905
 6059SOL    HW218998   4.136   6.242   4.300  0.5235  1.3403 -0.1921
 6060SOL     OW18999   5.972   3.176   0.382  0.2990 -0.0359 -0.2028
 6060SOL    HW119000   5.877   3.150   0.395  0.3351 -0.5135 -0.8441
 6060SOL    HW219001   5.977   3.272   0.354 -0.0712 -0.3207 -1.2587
 6061SOL     OW19002   5.551   0.465   6.812  0.7029 -0.9090  0.4912
 6061SOL    HW119003   5.461   0.424   6.824  0.4779 -0.7360 -0.5217
 6061SOL    HW219004   5.542   0.564   6.801  0.6710 -1.1839 -2.7186
 6062SOL     OW19005   1.538   6.011   1.809 -0.1444 -0.0338 -0.4796
 6062SOL    HW119006   1.446   5.998   1.774 -0.4209 -1.0491  0.5702
 6062SOL    HW219007   1.550   5.956   1.892  1.9825 -1.3441 -1.5927
 6063SOL     OW19008   4.314   1.850   5.197  0.0027 -0.2459  0.3436
 6063SOL    HW119009   4.248   1.777   5.212  0.4170 -0.3600  1.6879
 6063SOL    HW219010   4.294   1.926   5.258  2.2109 -1.0447  2.1559
 6064SOL     OW19011   4.422   6.411   0.175  0.6578 -0.0633  0.4798
 6064SOL    HW119012   4.459   6.416   0.082  1.9133 -1.7026  0.8479
 6064SOL    HW219013   4.497   6.411   0.241 -0.1539 -0.3494  1.4108
 6065SOL     OW19014   2.759   4.461   2.251 -0.0911 -0.0965 -0.7192
 6065SOL    HW119015   2.822   4.522   2.300 -1.5286  0.6787  0.2422
 6065SOL    HW219016   2.685   4.515   2.211  0.3289 -0.8824 -2.6255
 6066SOL     OW19017   1.352   5.636   4.646  0.0960 -0.2306  0.4190
 6066SOL    HW119018   1.340   5.574   4.569  0.9959 -0.6686  0.6343
 6066SOL    HW219019   1.401   5.718   4.616  1.0390 -0.6943  0.6674
 6067SOL     OW19020   2.205   4.396   5.051 -0.1149 -0.0572 -0.1574
 6067SOL    HW119021   2.106   4.404   5.067 -0.0281  0.7550  0.0221
 6067SOL    HW219022   2.248   4.484   5.067  0.7843 -0.6608  0.8113
 6068SOL     OW19023   2.262   0.744   0.160  0.0702 -0.3289  0.0684
 6068SOL    HW119024   2.266   0.660   0.215  0.2149 -0.4508 -0.1215
 6068SOL    HW219025   2.243   0.721   0.065 -2.0916  0.0182  0.3737
 6069SOL     OW19026   4.627   3.045   0.124 -0.7806  0.0293 -0.2944
 6069SOL    HW119027   4.548   3.041   0.063  0.0638 -1.0870 -1.3645
 6069SOL    HW219028   4.663   2.953   0.139 -0.0317  0.4567  0.6473
 6070SOL     OW19029   5.706   0.878   4.214 -0.2968  0.0122 -0.1099
 6070SOL    HW119030   5.704   0.882   4.114  0.6035  0.7801 -0.1046
 6070SOL    HW219031   5.773   0.810   4.242  1.4498  1.6864 -0.0352
 6071SOL     OW19032   1.042   6.020   2.579  0.2715  0.1973 -0.1970
 6071SOL    HW119033   0.996   6.098   2.620  1.1148  0.4186  0.3671
 6071SOL    HW219034   0.980   5.973   2.517  0.1765  2.1894 -1.7269
 6072SOL     OW19035   3.301   1.836   1.712 -0.0612 -0.1141 -0.4101
 6072SOL    HW119036   3.240   1.803   1.641 -0.5611  0.3699 -0.2117
 6072SOL    HW219037   3.364   1.903   1.672 -1.8523  1.9270  0.0350
 6073SOL     OW19038   2.360   1.019   3.186 -0.3825  0.5898 -0.6661
 6073SOL    HW119039   2.341   0.927   3.154 -1.1511  0.1260  1.0286
 6073SOL    HW219040   2.274   1.067   3.205  0.0183  1.5264 -1.1297
 6074SOL     OW19041   5.300   5.665   0.251  0.2624 -0.0238  0.3094
 6074SOL    HW119042   5.206   5.681   0.221  0.8842  0.9011 -1.2879
 6074SOL    HW219043   5.350   5.752   0.251  1.7443 -0.8097 -1.1869
 6075SOL     OW19044   1.468   6.627   3.563  0.7671  0.1802 -0.0720
 6075SOL    HW119045   1.566   6.614   3.578  1.1740  2.8629  0.1387
 6075SOL    HW219046   1.454   6.703   3.500 -1.2032 -0.0632  0.0064
 6076SOL     OW19047   3.347   0.870   0.360  0.3036  0.1296  0.2580
 6076SOL    HW119048   3.382   0.777   0.351  1.0800  0.2936  1.3863
 6076SOL    HW219049   3.247   0.869   0.350  0.0913 -1.1156  2.0433
 6077SOL     OW19050   1.542   6.735   1.353 -0.3574 -0.8558  0.2858
 6077SOL    HW119051   1.532   6.831   1.325  1.6696 -0.4680  0.7240
 6077SOL    HW219052   1.455   6.688   1.341 -1.8701  1.4053  1.5685
 6078SOL     OW19053   3.613   1.613   6.261 -1.1444 -0.2384 -0.4373
 6078SOL    HW119054   3.680   1.648   6.196  0.8407  0.5711  1.8676
 6078SOL    HW219055   3.526   1.661   6.248  0.2782  2.7120 -0.1334
 6079SOL     OW19056   5.373   2.529   0.015 -0.1553  0.2405 -0.2680
 6079SOL    HW119057   5.418   2.459   0.070 -0.9790  0.2905  0.5090
 6079SOL    HW219058   5.428   2.613   0.017 -0.7704  0.6657  1.6154
 6080SOL     OW19059   0.096   2.739   0.391 -0.0009  0.3504 -0.3414
 6080SOL    HW119060   0.178   2.790   0.365 -0.0655  0.1174 -1.0078
 6080SOL    HW219061   0.122   2.646   0.418  0.1339  0.7484  0.9984
 6081SOL     OW19062   0.910   6.802   3.625 -0.2663 -0.1206 -0.3134
 6081SOL    HW119063   0.936   6.887   3.577 -0.9467  0.0852 -0.3227
 6081SOL    HW219064   0.822   6.815   3.670  0.8587  0.0784  1.9956
 6082SOL     OW19065   6.302   2.974   0.151 -0.4524  0.4198  0.0925
 6082SOL    HW119066   6.350   3.060   0.170 -1.3465  0.7929  0.7720
 6082SOL    HW219067   6.368   2.899   0.153  0.3664  1.0858 -0.6152
 6083SOL     OW19068   5.779   0.877   4.741 -0.0280  0.4036  0.1251
 6083SOL    HW119069   5.693   0.916   4.707 -0.3153  0.2854  0.7113
 6083SOL    HW219070   5.779   0.778   4.725 -0.3304  0.2850  0.8016
 6084SOL     OW19071   0.003   5.059   6.083 -0.1326 -0.5262  0.1457
 6084SOL    HW119072   0.050   5.147   6.084  0.3941 -0.8058  0.5076
 6084SOL    HW219073   0.060   4.991   6.038 -0.8052 -0.5484 -0.7102
 6085SOL     OW19074   0.142   5.188   4.861  0.5387  0.6284  0.0191
 6085SOL    HW119075   0.189   5.138   4.789  0.8669  1.1140 -0.1092
 6085SOL    HW219076   0.207   5.246   4.910  0.2854  0.4484  0.5847
 6086SOL     OW19077   3.953   3.080   1.283 -0.2137 -0.3768 -0.2931
 6086SOL    HW119078   3.940   3.127   1.196  1.8120  1.5010  0.3229
 6086SOL    HW219079   4.031   3.019   1.277  0.9178  0.9229  0.5820
 6087SOL     OW19080   2.729   0.218   3.000  0.2255 -0.1914  0.0608
 6087SOL    HW119081   2.631   0.224   3.019  0.5070  0.9803  1.3394
 6087SOL    HW219082   2.777   0.290   3.051  1.7492 -0.7178 -0.5727
 6088SOL     OW19083   4.525   3.973   0.659 -0.0581 -0.3143  0.5405
 6088SOL    HW119084   4.593   3.902   0.678 -0.7704 -0.9781  0.6421
 6088SOL    HW219085   4.509   4.027   0.741  1.1402  0.5586  0.2329
 6089SOL     OW19086   6.716   1.124   0.811 -0.0053 -0.1145  0.2197
 6089SOL    HW119087   6.750   1.142   0.719 -1.3467 -0.2277 -0.3190
 6089SOL    HW219088   6.769   1.178   0.877  1.0673 -0.1389 -0.5888
 6090SOL     OW19089   2.111   0.374   1.112  0.4085 -0.5078  0.5160
 6090SOL    HW119090   2.034   0.429   1.145  0.6768  0.2025 -0.0210
 6090SOL    HW219091   2.195   0.429   1.114  0.2708 -0.0587 -2.2601
 6091SOL     OW19092   1.660   2.195   5.767  0.5063 -0.0844  0.5428
 6091SOL    HW119093   1.698   2.285   5.746 -1.3151  0.5181 -0.3349
 6091SOL    HW219094   1.658   2.182   5.866  5.9440 -1.5426  0.8050
 6092SOL     OW19095   6.118   5.232   3.990  0.3723 -0.7682 -0.2190
 6092SOL    HW119096   6.022   5.212   4.011  0.4620  0.1345  1.2053
 6092SOL    HW219097   6.163   5.148   3.960 -0.7836 -1.2758 -0.6095
 6093SOL     OW19098   1.031   4.939   4.734 -0.4113 -0.0243 -0.0172
 6093SOL    HW119099   1.091   5.012   4.766 -0.2173 -0.6118  0.9859
 6093SOL    HW219100   1.043   4.858   4.791 -1.8777 -0.2887 -0.0371
 6094SOL     OW19101   3.503   4.004   0.734 -0.1578  0.5898  0.1979
 6094SOL    HW119102   3.405   3.986   0.745 -0.3288 -0.6729 -2.8106
 6094SOL    HW219103   3.516   4.098   0.703 -0.4933  0.4900 -0.2557
 6095SOL     OW19104   5.126   0.139   3.979 -0.4558 -0.6085 -0.5135
 6095SOL    HW119105   5.077   0.158   4.064  1.7157  2.5400  0.1917
 6095SOL    HW219106   5.072   0.170   3.901  0.0134  2.4041  0.2138
 6096SOL     OW19107   3.728   5.291   6.608 -0.4198 -0.3368 -0.4753
 6096SOL    HW119108   3.675   5.319   6.527 -2.0363  1.2573  1.0460
 6096SOL    HW219109   3.666   5.257   6.678  0.7267  0.0015  0.7555
 6097SOL     OW19110   2.976   1.870   0.563  0.1571 -0.0752  0.1409
 6097SOL    HW119111   3.061   1.872   0.511 -0.0752 -2.3167 -0.4097
 6097SOL    HW219112   2.915   1.801   0.525 -0.8189 -0.4113  2.1770
 6098SOL     OW19113   4.482   0.719   6.200 -0.5720 -0.0224  0.0998
 6098SOL    HW119114   4.578   0.743   6.194 -0.2631 -0.1061  3.0861
 6098SOL    HW219115   4.473   0.625   6.235 -1.7245 -0.1405 -0.4825
 6099SOL     OW19116   3.527   3.707   3.921 -0.8993  0.3379 -0.5198
 6099SOL    HW119117   3.514   3.651   4.002  0.8585  1.6673  0.7609
 6099SOL    HW219118   3.481   3.795   3.932  0.7115  1.1896 -0.1633
 6100SOL     OW19119   4.647   6.101   0.794 -0.3988  0.1218 -0.1162
 6100SOL    HW119120   4.662   6.092   0.695  0.6702 -2.5678  0.2033
 6100SOL    HW219121   4.549   6.105   0.812 -0.6104  2.0249 -1.3145
 6101SOL     OW19122   3.132   5.876   0.453  0.6012 -0.3045  0.0983
 6101SOL    HW119123   3.107   5.901   0.359 -0.5640 -2.1332 -0.1121
 6101SOL    HW219124   3.221   5.831   0.452  0.9807  0.4260 -0.0040
 6102SOL     OW19125   0.837   5.806   6.058 -0.3632 -0.1142  0.3595
 6102SOL    HW119126   0.868   5.901   6.062 -0.8052  0.0921 -0.7595
 6102SOL    HW219127   0.882   5.760   5.982  0.7228 -1.1454  1.5840
 6103SOL     OW19128   1.836   6.231   1.557 -0.2822 -0.3710  0.3229
 6103SOL    HW119129   1.764   6.300   1.564 -0.3155 -0.6219  3.4471
 6103SOL    HW219130   1.920   6.274   1.524 -0.9923  0.5784 -0.2958
 6104SOL     OW19131   6.824   5.475   4.386  0.4910  0.1451 -0.1805
 6104SOL    HW119132   6.890   5.527   4.333  0.1037  1.7551  0.8224
 6104SOL    HW219133   6.775   5.537   4.448  1.1804 -1.6525  2.3200
 6105SOL     OW19134   1.304   1.480   6.460 -0.1500 -0.1747 -0.1125
 6105SOL    HW119135   1.346   1.548   6.519  1.7920 -0.0635 -1.5405
 6105SOL    HW219136   1.225   1.520   6.414  0.5471  0.9032 -0.4009
 6106SOL     OW19137   5.661   4.866   3.084 -0.0467 -0.0282  0.3045
 6106SOL    HW119138   5.639   4.787   3.141  0.0963  0.6736  1.3495
 6106SOL    HW219139   5.576   4.909   3.053 -0.1528  0.2635  0.9572
 6107SOL     OW19140   6.061   0.301   5.554  0.0242 -0.1641 -0.9993
 6107SOL    HW119141   6.006   0.374   5.595  0.9781  0.6397 -1.0838
 6107SOL    HW219142   6.158   0.321   5.570  0.3007 -1.3894 -1.0954
 6108SOL     OW19143   3.511   0.209   2.854  0.5524  0.4567  0.6681
 6108SOL    HW119144   3.561   0.146   2.795  1.8773  2.2479 -0.2335
 6108SOL    HW219145   3.479   0.287   2.801  0.6079  1.4842  2.0596
 6109SOL     OW19146   5.465   4.113   3.401 -0.3964  0.0914  0.1780
 6109SOL    HW119147   5.551   4.147   3.363  1.2726 -0.6948  2.9786
 6109SOL    HW219148   5.399   4.188   3.406  0.9239  1.3185  0.1148
 6110SOL     OW19149   0.628   6.516   0.761 -0.8324  0.2482  0.1957
 6110SOL    HW119150   0.678   6.508   0.675 -2.8392 -1.5074 -0.8837
 6110SOL    HW219151   0.595   6.426   0.789 -1.0755  0.9384  2.3128
 6111SOL     OW19152   4.946   1.942   0.593 -0.4074 -0.2013  0.1768
 6111SOL    HW119153   5.028   1.981   0.551  0.5131 -0.3257  1.7736
 6111SOL    HW219154   4.877   1.927   0.523  0.9412 -0.1188 -1.2241
 6112SOL     OW19155   4.629   6.440   0.345  0.2881 -0.4732  0.2159
 6112SOL    HW119156   4.726   6.433   0.368  0.4907 -0.4171 -0.5756
 6112SOL    HW219157   4.590   6.522   0.386  0.3675 -0.9399  1.2424
 6113SOL     OW19158   1.957   1.661   6.334 -0.3801 -0.4005  0.2378
 6113SOL    HW119159   1.861   1.655   6.360 -1.1705  0.5334 -2.2268
 6113SOL    HW219160   1.989   1.573   6.298 -0.6149 -0.4070  0.0489
 6114SOL     OW19161   5.394   2.295   1.216 -0.0211  0.2687  0.6516
 6114SOL    HW119162   5.418   2.201   1.241  2.5662  0.8430  0.5993
 6114SOL    HW219163   5.366   2.346   1.297  0.4223 -0.0306  0.9890
 6115SOL     OW19164   5.728   4.640   1.170 -0.0936 -0.3886 -0.4413
 6115SOL    HW119165   5.828   4.653   1.171 -0.1859  0.5383 -1.7526
 6115SOL    HW219166   5.701   4.594   1.085 -0.8926  0.3664 -0.6109
 6116SOL     OW19167   6.399   5.308   4.638 -0.7677  0.0465 -0.1658
 6116SOL    HW119168   6.416   5.401   4.672 -0.7578  0.2408 -0.6954
 6116SOL    HW219169   6.428   5.242   4.707 -1.5974  0.4456  0.5996
 6117SOL     OW19170   6.735   5.664   2.833  0.3558  0.8075 -0.7028
 6117SOL    HW119171   6.753   5.584   2.891  0.5563  0.6185 -1.0179
 6117SOL    HW219172   6.813   5.726   2.837 -0.5941  1.9787  1.1014
 6118SOL     OW19173   4.125   1.407   6.279  1.1483  0.3454  0.6260
 6118SOL    HW119174   4.056   1.336   6.298  0.2240  1.2728  0.8440
 6118SOL    HW219175   4.085   1.479   6.224  1.6272  1.4519  1.6748
 6119SOL     OW19176   4.790   1.575   3.144 -0.3490 -0.2191  0.1034
 6119SOL    HW119177   4.858   1.579   3.070  0.6860  1.5119  1.0812
 6119SOL    HW219178   4.782   1.481   3.176  0.7973 -0.6392 -0.7686
 6120SOL     OW19179   0.718   1.888   2.097 -0.0686  0.3733  0.4622
 6120SOL    HW119180   0.724   1.896   1.997  0.7121  0.7191  0.5234
 6120SOL    HW219181   0.662   1.809   2.121 -1.8517  1.3641 -0.2294
 6121SOL     OW19182   4.776   2.954   6.116 -0.5247  0.2084  1.4413
 6121SOL    HW119183   4.688   2.954   6.069 -0.1043 -0.1920  0.6381
 6121SOL    HW219184   4.772   3.017   6.193 -1.6062 -0.0317  1.5974
 6122SOL     OW19185   2.479   3.472   0.201  0.4217  0.0210  0.7362
 6122SOL    HW119186   2.498   3.375   0.182  1.0820  0.0927  1.0357
 6122SOL    HW219187   2.531   3.529   0.137  0.5573  0.1953  1.0024
 6123SOL     OW19188   3.236   6.345   5.300  0.1025 -0.0910 -0.1595
 6123SOL    HW119189   3.304   6.350   5.227  0.7667  0.4610  0.4816
 6123SOL    HW219190   3.192   6.434   5.310  1.6149  0.5107  1.5962
 6124SOL     OW19191   1.999   3.265   5.670  0.0535  0.4248  0.0395
 6124SOL    HW119192   1.934   3.192   5.690  0.5054  0.3292  1.2488
 6124SOL    HW219193   2.057   3.238   5.594 -1.8753  0.8835 -1.6971
 6125SOL     OW19194   0.041   6.902   2.886  0.2590  0.0333 -0.0799
 6125SOL    HW119195   0.035   6.997   2.853  0.7888 -0.0497 -0.4323
 6125SOL    HW219196   0.004   6.841   2.816 -0.8262  0.0384  0.4808
 6126SOL     OW19197   1.999   5.888   3.274  0.4030  0.2798  0.0830
 6126SOL    HW119198   2.046   5.858   3.357  1.4334  1.7403  0.0589
 6126SOL    HW219199   2.057   5.872   3.194 -0.6824 -1.3429 -0.4336
 6127SOL     OW19200   0.694   2.164   2.872  0.2265  0.1128 -0.3955
 6127SOL    HW119201   0.718   2.193   2.780  0.5185  1.9023  0.1870
 6127SOL    HW219202   0.620   2.221   2.907  0.7174  0.0896  0.7709
 6128SOL     OW19203   5.520   0.639   6.155  0.2252 -0.2576  0.6343
 6128SOL    HW119204   5.428   0.635   6.117 -0.7354  2.9614  2.2014
 6128SOL    HW219205   5.580   0.577   6.105 -2.3488 -1.0729 -1.6733
 6129SOL     OW19206   3.361   1.496   4.049  0.0505  0.0420 -0.5080
 6129SOL    HW119207   3.430   1.568   4.040  0.0965 -0.1680 -2.2175
 6129SOL    HW219208   3.406   1.410   4.074  0.3118  0.0789 -0.8428
 6130SOL     OW19209   2.972   5.763   1.493  0.9320  0.6080 -0.5751
 6130SOL    HW119210   2.910   5.690   1.523  2.9492 -0.4399  1.3374
 6130SOL    HW219211   2.964   5.841   1.555  1.3706  0.5251 -0.3977
 6131SOL     OW19212   0.168   2.260   6.551  0.0907  0.1871  0.2371
 6131SOL    HW119213   0.107   2.335   6.523  0.4760  0.5012  0.2270
 6131SOL    HW219214   0.145   2.177   6.500  0.4128  0.6077 -0.6214
 6132SOL     OW19215   4.641   3.683   0.510  0.2353  0.1767 -0.0598
 6132SOL    HW119216   4.583   3.617   0.559  1.9671 -1.4237 -0.0731
 6132SOL    HW219217   4.624   3.675   0.412  0.4366 -0.2332 -0.0613
 6133SOL     OW19218   4.966   4.144   0.721 -0.0150  0.3846 -0.3524
 6133SOL    HW119219   4.949   4.066   0.780  0.6494  0.1475 -0.4753
 6133SOL    HW219220   5.064   4.160   0.713 -0.1422  1.2363 -0.3204
 6134SOL     OW19221   0.569   4.528   1.778 -0.0617 -0.0357  0.2288
 6134SOL    HW119222   0.588   4.580   1.861  0.0133 -0.9326  0.7782
 6134SOL    HW219223   0.562   4.431   1.799 -0.8972 -0.1934 -0.6725
 6135SOL     OW19224   2.958   4.782   1.018 -0.7214 -0.4762 -0.0840
 6135SOL    HW119225   2.899   4.840   1.074  0.8114 -0.4164  1.5356
 6135SOL    HW219226   2.941   4.686   1.041 -0.1750 -0.4580  0.3962
 6136SOL     OW19227   0.731   2.498   2.263  0.3294  0.3052 -0.6169
 6136SOL    HW119228   0.733   2.425   2.194  0.5577  0.0993 -0.3950
 6136SOL    HW219229   0.825   2.530   2.280  0.2748  0.3536 -0.4010
 6137SOL     OW19230   6.875   4.430   5.201 -0.2242  0.9598 -0.0373
 6137SOL    HW119231   6.930   4.474   5.130  1.0743  2.8237  2.0326
 6137SOL    HW219232   6.783   4.412   5.165  0.0538  2.8338 -1.8441
 6138SOL     OW19233   3.777   0.796   2.137  0.0225  0.3137  0.6527
 6138SOL    HW119234   3.814   0.887   2.125  0.1599  0.4060  1.7562
 6138SOL    HW219235   3.740   0.786   2.229  0.7988 -1.0228  0.8539
 6139SOL     OW19236   3.668   3.825   0.558  0.0205  0.0597 -0.8289
 6139SOL    HW119237   3.623   3.877   0.630  0.3968  0.4604 -0.8726
 6139SOL    HW219238   3.618   3.740   0.541  1.3466 -1.3940  1.7685
 6140SOL     OW19239   6.241   4.371   1.353  0.3227 -0.3126 -0.2004
 6140SOL    HW119240   6.242   4.454   1.408  1.5162  0.1929 -0.9361
 6140SOL    HW219241   6.147   4.335   1.348 -0.6472  2.1327 -1.5479
 6141SOL     OW19242   6.440   6.999   6.312  0.4674  0.2923 -0.2778
 6141SOL    HW119243   6.433   6.988   6.213  2.2486  1.9101 -0.6241
 6141SOL    HW219244   6.519   7.055   6.334 -0.6790  1.0942  2.0073
 6142SOL     OW19245   2.014   5.316   2.509 -0.4061  0.1372 -0.3772
 6142SOL    HW119246   1.932   5.337   2.456 -0.4837 -0.6414 -0.5785
 6142SOL    HW219247   2.046   5.224   2.486 -0.5730 -0.3056  1.1049
 6143SOL     OW19248   4.756   0.588   6.550  0.0312  0.3987  0.1287
 6143SOL    HW119249   4.785   0.500   6.587 -0.8031  0.1980  0.3358
 6143SOL    HW219250   4.656   0.592   6.548  0.0472  0.7648 -1.2402
 6144SOL     OW19251   5.825   4.942   3.881 -0.2133 -0.5387 -0.2235
 6144SOL    HW119252   5.905   4.978   3.834  0.3843 -0.2445  0.9943
 6144SOL    HW219253   5.850   4.860   3.933 -0.6507 -0.3235  0.3344
 6145SOL     OW19254   2.001   5.977   4.435 -0.0902 -0.5091 -0.0935
 6145SOL    HW119255   1.967   5.998   4.527  1.4232  0.1489  0.3374
 6145SOL    HW219256   2.061   6.050   4.403  1.9657 -2.1906 -0.2859
 6146SOL     OW19257   6.060   5.593   0.682  0.1620 -0.1770 -0.0925
 6146SOL    HW119258   6.076   5.692   0.687  0.3640 -0.2185  0.1265
 6146SOL    HW219259   6.145   5.544   0.701 -0.0714 -0.3991  0.3937
 6147SOL     OW19260   6.843   2.697   4.148  0.2219  0.4661  0.5915
 6147SOL    HW119261   6.781   2.618   4.150 -0.2131  0.8055  1.8877
 6147SOL    HW219262   6.914   2.683   4.079 -2.0131  0.6316 -1.8295
 6148SOL     OW19263   0.587   4.666   6.675  0.4252 -0.5123 -0.1260
 6148SOL    HW119264   0.584   4.706   6.584 -0.0511 -1.3400 -0.4835
 6148SOL    HW219265   0.505   4.693   6.726  1.1577  0.7659  0.4274
 6149SOL     OW19266   3.982   2.572   1.728 -0.2830 -0.2381 -0.4741
 6149SOL    HW119267   3.974   2.590   1.630 -0.6938 -0.3619 -0.4678
 6149SOL    HW219268   3.890   2.564   1.768 -0.1229 -1.5960 -0.3453
 6150SOL     OW19269   2.981   2.711   4.126  0.0749 -0.1415 -0.1407
 6150SOL    HW119270   2.971   2.808   4.104  0.4718  0.1910  1.0770
 6150SOL    HW219271   3.003   2.701   4.223 -3.7242 -1.6314  0.7304
 6151SOL     OW19272   2.280   1.314   6.478  0.6463  0.3256 -0.0637
 6151SOL    HW119273   2.282   1.395   6.537  0.2516  0.1207  0.2389
 6151SOL    HW219274   2.218   1.331   6.401 -0.3134 -0.0760  0.5917
 6152SOL     OW19275   2.118   0.806   5.879  0.3171 -0.1665  0.2910
 6152SOL    HW119276   2.203   0.816   5.930  0.0428 -0.4285  0.8116
 6152SOL    HW219277   2.136   0.765   5.790  0.5153 -2.1898  1.1866
 6153SOL     OW19278   1.850   6.401   6.049 -0.3060  0.3459  0.4436
 6153SOL    HW119279   1.751   6.403   6.063 -0.4858 -0.7823 -0.5883
 6153SOL    HW219280   1.895   6.438   6.130 -1.4100 -2.4934  2.5117
 6154SOL     OW19281   5.044   0.730   3.130  0.2411  0.2550  0.1085
 6154SOL    HW119282   4.976   0.658   3.144  1.6372 -1.4580 -1.3621
 6154SOL    HW219283   5.108   0.730   3.207 -1.1743  1.6810  1.3552
 6155SOL     OW19284   1.460   2.385   6.519 -0.0713 -0.1296 -0.2002
 6155SOL    HW119285   1.508   2.318   6.575  2.6998 -0.1558 -2.4015
 6155SOL    HW219286   1.506   2.474   6.525 -2.4688  1.1398  1.0506
 6156SOL     OW19287   5.547   1.677   5.546 -0.5725 -0.6240  0.0559
 6156SOL    HW119288   5.520   1.601   5.487  0.5918 -2.9545  2.2699
 6156SOL    HW219289   5.465   1.727   5.576 -1.3811 -0.9997 -1.4335
 6157SOL     OW19290   4.468   0.285   5.855 -0.4391 -0.1832  0.0874
 6157SOL    HW119291   4.427   0.205   5.810 -0.0343 -0.8560  0.8864
 6157SOL    HW219292   4.468   0.271   5.954  0.4051  0.4426  0.1867
 6158SOL     OW19293   1.862   1.375   6.026 -0.1543  0.4420 -0.2803
 6158SOL    HW119294   1.848   1.283   5.990  1.5316  0.1903 -0.3406
 6158SOL    HW219295   1.776   1.408   6.065 -0.1915 -2.2313  2.2152
 6159SOL     OW19296   4.706   2.781   0.206 -0.1816 -0.0056 -0.0740
 6159SOL    HW119297   4.714   2.689   0.167 -0.4036 -0.2094  0.3492
 6159SOL    HW219298   4.742   2.780   0.299  0.3443  0.4742 -0.2682
 6160SOL     OW19299   2.356   5.235   3.087 -0.3293  0.2445 -0.7901
 6160SOL    HW119300   2.443   5.219   3.132 -1.8099 -1.3976  1.7159
 6160SOL    HW219301   2.329   5.331   3.098  0.7872  0.5876 -0.9591
 6161SOL     OW19302   3.564   5.630   2.730 -0.2620 -0.4539  0.6593
 6161SOL    HW119303   3.627   5.625   2.652 -2.3007 -0.0998 -1.1206
 6161SOL    HW219304   3.470   5.622   2.696 -1.3328  1.6533  2.8595
 6162SOL     OW19305   1.805   6.443   5.707  0.4519 -0.2089  0.0100
 6162SOL    HW119306   1.714   6.483   5.711  0.3435 -0.1351 -1.9931
 6162SOL    HW219307   1.870   6.510   5.670  1.0320 -0.7000  0.1140
 6163SOL     OW19308   1.538   1.306   1.264 -1.0426  0.3847 -0.1126
 6163SOL    HW119309   1.533   1.234   1.333 -3.2976 -2.4234 -2.8842
 6163SOL    HW219310   1.631   1.311   1.227 -0.8324 -1.1538  0.1432
 6164SOL     OW19311   2.171   4.430   2.172  0.0151 -0.2890  0.0634
 6164SOL    HW119312   2.176   4.446   2.271 -1.7633  0.2743  0.0909
 6164SOL    HW219313   2.232   4.494   2.125 -1.3511  1.4742  0.6385
 6165SOL     OW19314   6.631   1.721   5.354 -0.1552 -0.1394 -0.4391
 6165SOL    HW119315   6.663   1.726   5.449 -0.8440 -2.6034  0.0010
 6165SOL    HW219316   6.644   1.627   5.320  1.5954  1.0356 -3.3619
 6166SOL     OW19317   6.229   1.668   0.173 -0.1416  0.3755 -0.2364
 6166SOL    HW119318   6.272   1.654   0.261 -0.5291  0.0495 -0.0918
 6166SOL    HW219319   6.135   1.701   0.186 -0.3852 -0.1914 -0.5046
 6167SOL     OW19320   5.097   6.318   6.904 -0.5417 -0.4058 -0.1372
 6167SOL    HW119321   5.109   6.411   6.940  0.7188 -0.5796 -0.0507
 6167SOL    HW219322   5.013   6.279   6.941 -1.6287  1.0523 -0.9576
 6168SOL     OW19323   6.465   1.485   4.700 -0.1747 -0.4232 -0.1725
 6168SOL    HW119324   6.435   1.398   4.663  0.2011 -0.3565 -0.6507
 6168SOL    HW219325   6.564   1.483   4.715 -0.2380 -0.2575  0.3051
 6169SOL     OW19326   5.946   3.499   2.363 -0.1112 -0.1832  0.5881
 6169SOL    HW119327   5.971   3.487   2.459  0.3734  0.7517  0.5845
 6169SOL    HW219328   5.954   3.595   2.338 -0.9488 -0.3011 -0.1954
 6170SOL     OW19329   5.897   4.893   0.739 -0.0563 -0.9872 -0.2816
 6170SOL    HW119330   5.954   4.824   0.694  0.8091  1.1216 -2.6272
 6170SOL    HW219331   5.845   4.943   0.670  0.5416  1.7322  1.1562
 6171SOL     OW19332   5.444   3.133   5.230 -0.7412  0.2822 -0.9631
 6171SOL    HW119333   5.503   3.062   5.192  0.0589  1.1809 -1.4724
 6171SOL    HW219334   5.500   3.211   5.259 -1.6413  0.9792 -1.0441
 6172SOL     OW19335   4.395   4.879   4.885  0.4334 -0.3747  0.2665
 6172SOL    HW119336   4.339   4.799   4.903 -1.4163  0.7809 -0.1656
 6172SOL    HW219337   4.458   4.859   4.810  0.9194 -1.8178  1.0197
 6173SOL     OW19338   5.198   6.548   3.142 -0.4319 -0.9837  0.2279
 6173SOL    HW119339   5.232   6.479   3.078 -1.4894 -0.3973 -1.0125
 6173SOL    HW219340   5.204   6.512   3.235  1.0993 -1.8786 -0.1760
 6174SOL     OW19341   1.585   4.265   0.885  0.1883 -0.6032  0.0270
 6174SOL    HW119342   1.612   4.177   0.924  1.8693 -0.4870 -0.7331
 6174SOL    HW219343   1.623   4.273   0.792  0.6800  1.2042  0.3442
 6175SOL     OW19344   0.839   1.188   3.082  0.0511 -0.1168 -0.5202
 6175SOL    HW119345   0.842   1.221   3.177  0.8152 -1.2650 -0.1180
 6175SOL    HW219346   0.761   1.228   3.035  0.3154  1.3848  0.2449
 6176SOL     OW19347   5.881   5.517   3.379  0.4653  0.2485 -0.8745
 6176SOL    HW119348   5.811   5.535   3.310  1.4504  1.3000 -1.6419
 6176SOL    HW219349   5.877   5.587   3.451  0.5706  0.1854 -0.8046
 6177SOL     OW19350   4.965   5.900   2.197  0.0341  0.1165 -0.1841
 6177SOL    HW119351   4.939   5.939   2.109 -0.3472  0.1490 -0.0581
 6177SOL    HW219352   4.975   5.801   2.188 -0.4064  0.0663 -0.1726
 6178SOL     OW19353   6.295   2.596   2.141  0.0526  0.4517 -0.2118
 6178SOL    HW119354   6.363   2.546   2.193  0.3131  0.1134 -0.8629
 6178SOL    HW219355   6.220   2.623   2.202  0.3229  0.0354  0.3225
 6179SOL     OW19356   6.940   6.350   3.923  0.1020 -0.0153  0.2818
 6179SOL    HW119357   6.988   6.283   3.865  2.0350  0.3414  1.3734
 6179SOL    HW219358   6.866   6.304   3.972  0.5801 -1.0912  0.0456
 6180SOL     OW19359   6.280   1.837   3.356 -0.7329 -0.1669  0.0580
 6180SOL    HW119360   6.297   1.787   3.272  0.4436 -0.1409  0.2616
 6180SOL    HW219361   6.271   1.934   3.337 -0.9236 -0.2112 -0.0853
 6181SOL     OW19362   3.438   6.901   1.526  0.0203 -1.1167 -0.0793
 6181SOL    HW119363   3.351   6.950   1.536  0.5329 -0.3085  0.5147
 6181SOL    HW219364   3.428   6.809   1.562 -0.5801 -1.0152  0.0329
 6182SOL     OW19365   6.453   3.557   2.982 -0.7394 -0.2148  0.4020
 6182SOL    HW119366   6.483   3.607   2.902  0.8679 -0.2531  0.9576
 6182SOL    HW219367   6.356   3.531   2.971 -0.4726 -0.4978 -1.6328
 6183SOL     OW19368   0.097   3.215   3.906  0.6787  0.1583  0.0120
 6183SOL    HW119369   0.122   3.138   3.965 -0.3260  0.6479  1.1281
 6183SOL    HW219370   0.153   3.214   3.823 -0.6545 -2.9334 -0.9561
 6184SOL     OW19371   4.906   3.103   0.085  0.0449 -0.1809 -0.5431
 6184SOL    HW119372   4.955   3.171   0.141 -0.8541  0.1688 -0.1787
 6184SOL    HW219373   4.814   3.090   0.121  0.3887 -2.0408 -0.2557
 6185SOL     OW19374   0.286   2.739   2.352 -0.2312 -0.5094 -0.7604
 6185SOL    HW119375   0.196   2.701   2.373  0.2976 -0.6753  1.5153
 6185SOL    HW219376   0.349   2.665   2.330  0.1923 -0.7709  1.2056
 6186SOL     OW19377   6.298   0.509   6.151  0.0550 -0.3791  0.4925
 6186SOL    HW119378   6.253   0.421   6.166  1.4391 -1.4949 -1.2778
 6186SOL    HW219379   6.255   0.579   6.207 -1.1755 -2.1462  1.8923
 6187SOL     OW19380   5.808   6.062   0.154  0.4289 -0.2857 -0.6914
 6187SOL    HW119381   5.852   6.037   0.068 -0.7532 -1.5550 -0.9611
 6187SOL    HW219382   5.771   6.155   0.147  0.3968 -0.3533 -1.5313
 6188SOL     OW19383   0.712   2.639   5.359  0.3264 -0.1182 -0.5900
 6188SOL    HW119384   0.627   2.676   5.321  1.2392  0.0377 -2.5946
 6188SOL    HW219385   0.766   2.712   5.399 -0.0411 -0.0565 -0.2088
 6189SOL     OW19386   6.867   5.515   2.338 -0.3379  0.1923 -0.2846
 6189SOL    HW119387   6.831   5.575   2.408  1.4926  1.9432 -0.7621
 6189SOL    HW219388   6.949   5.469   2.372 -1.5736 -1.9473 -0.0046
 6190SOL     OW19389   0.084   4.836   2.583 -0.1408 -0.0963  0.2498
 6190SOL    HW119390   0.143   4.841   2.502 -0.5862 -0.9468 -0.1541
 6190SOL    HW219391   0.067   4.740   2.606 -0.8753  0.1400  0.7219
 6191SOL     OW19392   0.229   0.674   5.600 -0.1602 -0.3581 -0.0016
 6191SOL    HW119393   0.205   0.582   5.629  0.8590 -1.1456 -1.5419
 6191SOL    HW219394   0.187   0.692   5.511  1.5159 -0.2209 -0.7901
 6192SOL     OW19395   4.139   4.809   0.025  0.2976  0.6773 -0.1823
 6192SOL    HW119396   4.092   4.891  -0.006  0.4905  0.1715 -1.8800
 6192SOL    HW219397   4.148   4.811   0.125 -1.5257  1.7148 -0.0178
 6193SOL     OW19398   1.500   0.925   1.654  0.2719  0.3563 -0.0764
 6193SOL    HW119399   1.475   0.941   1.559  1.6017  0.9455 -0.3491
 6193SOL    HW219400   1.598   0.908   1.660  0.3351  1.0780  1.2671
 6194SOL     OW19401   0.946   5.518   2.459  0.1068  0.1269  0.1189
 6194SOL    HW119402   0.909   5.467   2.381 -1.3425  0.9932  0.2104
 6194SOL    HW219403   0.946   5.459   2.540  1.2109 -0.6390 -0.4170
 6195SOL     OW19404   6.121   2.775   1.859 -0.2854  0.1646 -0.4597
 6195SOL    HW119405   6.061   2.779   1.779  1.3936 -1.2077 -1.9157
 6195SOL    HW219406   6.194   2.843   1.850 -0.8977  1.0133  0.6949
 6196SOL     OW19407   1.310   6.595   4.657  0.1140 -0.2690 -0.3994
 6196SOL    HW119408   1.359   6.607   4.743 -1.2819  1.3685  0.2042
 6196SOL    HW219409   1.280   6.500   4.649  0.6653 -0.5511  0.7099
 6197SOL     OW19410   6.775   6.273   1.048 -0.2748  0.4211  0.0413
 6197SOL    HW119411   6.696   6.248   1.105 -1.8102  0.2011 -2.0683
 6197SOL    HW219412   6.775   6.372   1.033 -0.2290  0.4026 -0.1011
 6198SOL     OW19413   4.658   5.322   4.825  0.3049 -0.1250 -0.2727
 6198SOL    HW119414   4.639   5.321   4.923 -0.2471 -1.3720 -0.3747
 6198SOL    HW219415   4.607   5.397   4.782  3.1412  2.6563  0.8312
 6199SOL     OW19416   2.855   6.482   2.497 -0.5657 -0.2691 -0.1218
 6199SOL    HW119417   2.826   6.388   2.518 -0.4485  0.0456  1.5708
 6199SOL    HW219418   2.933   6.507   2.555  0.7021  0.2193 -1.9347
 6200SOL     OW19419   6.136   3.112   0.593  0.2875  0.3490 -0.5926
 6200SOL    HW119420   6.116   3.134   0.498 -0.7613  1.8374 -0.0728
 6200SOL    HW219421   6.122   3.015   0.609 -3.1208  0.6262 -1.1896
 6201SOL     OW19422   4.407   1.254   1.099  0.0331  0.0245  0.0639
 6201SOL    HW119423   4.446   1.192   1.030  0.3129  2.1595 -1.8417
 6201SOL    HW219424   4.474   1.270   1.171  1.3753  0.7781 -1.2778
 6202SOL     OW19425   0.102   3.797   4.198 -0.0805 -0.1510 -0.0992
 6202SOL    HW119426   0.139   3.765   4.285 -0.8619  0.7948  0.6009
 6202SOL    HW219427   0.040   3.728   4.161  1.4709 -1.2722 -0.7422
 6203SOL     OW19428   3.609   1.045   5.302  1.4094  0.4087  0.4260
 6203SOL    HW119429   3.704   1.052   5.271  1.0391  1.5396 -0.5875
 6203SOL    HW219430   3.593   0.953   5.339  2.6333 -0.1330 -0.2848
 6204SOL     OW19431   6.768   3.496   6.126  0.2507  1.2322 -0.0252
 6204SOL    HW119432   6.758   3.460   6.033  1.0262  0.2959  0.2450
 6204SOL    HW219433   6.839   3.445   6.174 -1.8219  0.0211  1.9310
 6205SOL     OW19434   6.414   2.363   0.608  0.2520  0.2226 -0.0373
 6205SOL    HW119435   6.425   2.264   0.605  0.5306  0.2777 -2.3784
 6205SOL    HW219436   6.459   2.399   0.690  0.4597 -1.5390  0.6625
 6206SOL     OW19437   1.952   0.717   1.041  0.3746  0.1964 -0.3978
 6206SOL    HW119438   1.904   0.710   0.953  0.4351 -0.9308 -0.3626
 6206SOL    HW219439   1.912   0.651   1.105  0.8869  0.4177  0.1543
 6207SOL     OW19440   6.800   5.027   5.176  0.5222  0.0961  0.0877
 6207SOL    HW119441   6.778   5.118   5.211 -1.3371 -1.1015  2.2778
 6207SOL    HW219442   6.823   5.034   5.079 -0.9549  2.7045 -0.1803
 6208SOL     OW19443   0.514   5.830   1.752  0.4103 -0.2025  0.5396
 6208SOL    HW119444   0.578   5.865   1.683 -1.6262  0.5738 -1.0388
 6208SOL    HW219445   0.444   5.775   1.708 -0.7233 -0.0507  2.0580
 6209SOL     OW19446   0.298   3.214   1.624 -0.3259  0.2248 -0.2341
 6209SOL    HW119447   0.322   3.286   1.690 -2.2123  1.0772 -0.4281
 6209SOL    HW219448   0.264   3.255   1.540 -0.7149 -0.9075 -0.6513
 6210SOL     OW19449   6.982   1.457   5.047  0.4344  0.2458 -0.3300
 6210SOL    HW119450   6.890   1.494   5.031 -1.7302 -3.4971  1.9305
 6210SOL    HW219451   7.030   1.515   5.113  0.3920  3.0381 -2.5689
 6211SOL     OW19452   3.181   0.894   2.879  0.0937  0.0551 -0.1503
 6211SOL    HW119453   3.221   0.859   2.794 -1.0771 -0.2726 -0.5902
 6211SOL    HW219454   3.159   0.991   2.868 -0.7764 -0.1708 -0.5178
 6212SOL     OW19455   6.317   2.778   3.410  0.5613  0.8073 -0.0228
 6212SOL    HW119456   6.283   2.691   3.443  1.9862  0.3580  0.3420
 6212SOL    HW219457   6.272   2.801   3.323 -0.6233  0.2676  0.4326
 6213SOL     OW19458   3.635   0.666   0.640 -0.7987 -0.1387  0.4275
 6213SOL    HW119459   3.683   0.700   0.721  0.3136  1.2233 -0.7308
 6213SOL    HW219460   3.541   0.698   0.640 -1.1784 -1.1869  1.7681
 6214SOL     OW19461   2.051   6.566   6.598  0.1239 -0.9403  0.0450
 6214SOL    HW119462   1.963   6.561   6.551 -0.7660 -2.3453  1.7634
 6214SOL    HW219463   2.110   6.631   6.550 -1.8121  0.0247 -1.1653
 6215SOL     OW19464   6.353   4.869   1.646  1.0655 -0.2668  0.0409
 6215SOL    HW119465   6.414   4.917   1.710  0.4935 -2.0885  2.0305
 6215SOL    HW219466   6.289   4.811   1.696 -2.9513  2.0697 -1.8411
 6216SOL     OW19467   4.190   0.487   5.814  0.0649  0.5605 -0.4202
 6216SOL    HW119468   4.206   0.535   5.900  1.3326  0.7649 -0.7538
 6216SOL    HW219469   4.260   0.418   5.801 -1.1764 -0.7641 -0.4025
 6217SOL     OW19470   6.621   1.283   1.734 -0.1522  0.6781  0.2545
 6217SOL    HW119471   6.703   1.227   1.720  0.0608  1.2280 -0.9239
 6217SOL    HW219472   6.541   1.224   1.738  0.0523  0.2845 -1.0727
 6218SOL     OW19473   1.089   1.997   0.393 -0.0759  0.0595  0.8112
 6218SOL    HW119474   1.091   2.097   0.395  1.1556  0.0703  0.3792
 6218SOL    HW219475   1.001   1.965   0.428 -0.3334  1.2773  1.3778
 6219SOL     OW19476   6.395   4.210   0.014 -0.1383  0.7344  0.4821
 6219SOL    HW119477   6.470   4.237   0.074 -0.1773  1.5283  0.1862
 6219SOL    HW219478   6.316   4.269   0.031 -1.1780 -0.9218  1.7208
 6220SOL     OW19479   1.845   1.439   1.867  0.0757 -0.4773 -0.7767
 6220SOL    HW119480   1.908   1.365   1.842  1.2356  0.1062  0.3004
 6220SOL    HW219481   1.844   1.450   1.966 -0.3800  0.6970 -0.8959
 6221SOL     OW19482   5.446   2.953   0.151  0.0459  0.2497 -0.5655
 6221SOL    HW119483   5.485   3.039   0.183 -1.2697  0.4380  0.6230
 6221SOL    HW219484   5.454   2.884   0.222 -0.2408 -0.1847 -0.9439
 6222SOL     OW19485   0.891   4.340   6.143  0.2390  0.4197 -0.1769
 6222SOL    HW119486   0.959   4.269   6.127  1.4179  1.5845 -0.4555
 6222SOL    HW219487   0.827   4.344   6.066  0.0676 -0.4242 -0.0859
 6223SOL     OW19488   2.351   5.467   0.873 -0.2378 -0.0655 -0.1401
 6223SOL    HW119489   2.409   5.392   0.839 -0.6668 -0.8905  0.9017
 6223SOL    HW219490   2.273   5.478   0.811 -0.6682 -1.1110  0.1976
 6224SOL     OW19491   0.342   3.756   4.033 -0.2174 -0.3949  0.1962
 6224SOL    HW119492   0.271   3.722   4.095 -1.3099  0.7168 -0.4201
 6224SOL    HW219493   0.303   3.770   3.942  1.1827 -1.2698 -0.5624
 6225SOL     OW19494   0.287   6.021   4.064 -0.6012  0.4272 -0.0555
 6225SOL    HW119495   0.259   6.112   4.097 -1.1224  0.1255  0.3730
 6225SOL    HW219496   0.243   6.003   3.976 -0.4462  0.6150 -0.1757
 6226SOL     OW19497   6.001   4.922   5.283  0.0242 -0.0594  0.2636
 6226SOL    HW119498   6.033   4.849   5.223  0.6448 -0.6383  1.2692
 6226SOL    HW219499   5.919   4.893   5.331 -0.4813  0.4067 -0.2989
 6227SOL     OW19500   7.002   1.016   1.378 -0.3320  0.0373 -0.5227
 6227SOL    HW119501   6.918   0.963   1.384 -0.7313  0.8851  1.9817
 6227SOL    HW219502   7.081   0.958   1.399 -0.5484 -0.1696 -0.2840
 6228SOL     OW19503   4.890   2.772   3.790  0.3718  0.2540 -0.2346
 6228SOL    HW119504   4.825   2.825   3.734  0.9958  1.0279 -0.2398
 6228SOL    HW219505   4.840   2.721   3.859 -0.1847  1.4662  0.2764
 6229SOL     OW19506   4.598   0.255   5.223 -0.4933  0.0518  0.2293
 6229SOL    HW119507   4.676   0.214   5.271  1.7683  1.4614 -2.0471
 6229SOL    HW219508   4.575   0.343   5.266 -0.6670 -0.2331  0.7263
 6230SOL     OW19509   4.057   3.640   2.249  0.0507 -0.6778  0.4599
 6230SOL    HW119510   4.119   3.705   2.204 -0.6095 -0.6828 -0.5000
 6230SOL    HW219511   4.083   3.547   2.222  0.0194 -0.7139  0.5575
 6231SOL     OW19512   1.613   0.381   1.147  0.3322 -0.1620 -0.3737
 6231SOL    HW119513   1.560   0.348   1.225  0.9180 -1.4871 -0.4911
 6231SOL    HW219514   1.554   0.391   1.068 -0.1877  0.7747  0.1276
 6232SOL     OW19515   1.150   5.679   1.601  0.1623  0.9013 -0.1645
 6232SOL    HW119516   1.088   5.622   1.656 -0.9276  0.8545 -1.3744
 6232SOL    HW219517   1.221   5.621   1.561 -1.9587 -0.0944 -2.8568
 6233SOL     OW19518   4.641   4.278   2.726  0.1188  0.0549  0.1792
 6233SOL    HW119519   4.630   4.209   2.655 -0.1960  1.2883 -1.0192
 6233SOL    HW219520   4.551   4.302   2.763  0.0748  0.8378 -0.4198
 6234SOL     OW19521   2.977   2.879   6.007  0.4541 -0.0738  0.3254
 6234SOL    HW119522   2.913   2.839   6.073 -1.4518  0.8905 -0.8275
 6234SOL    HW219523   3.016   2.963   6.045 -1.9184  1.4186 -0.2424
 6235SOL     OW19524   0.523   0.760   1.825  0.2764 -0.5278  0.1020
 6235SOL    HW119525   0.563   0.669   1.813  0.1463 -0.4225 -1.3143
 6235SOL    HW219526   0.436   0.765   1.775  0.4963  0.5033 -0.2029
 6236SOL     OW19527   6.688   5.800   4.250  0.0468 -0.1958  0.0341
 6236SOL    HW119528   6.601   5.769   4.288  0.0677 -0.7713 -0.3626
 6236SOL    HW219529   6.676   5.825   4.154  0.3779 -0.5203 -0.0932
 6237SOL     OW19530   3.765   1.315   1.107  0.0022  0.1475 -0.4597
 6237SOL    HW119531   3.734   1.379   1.177  1.9894 -0.3007  0.9046
 6237SOL    HW219532   3.716   1.228   1.117  0.6103 -0.0800  0.7492
 6238SOL     OW19533   5.332   1.843   5.681 -0.5501 -0.4732  0.4402
 6238SOL    HW119534   5.371   1.855   5.773  0.4876  2.1519 -0.2592
 6238SOL    HW219535   5.235   1.868   5.683 -0.4297 -0.0227  0.7277
 6239SOL     OW19536   2.849   5.913   0.275 -0.5308 -0.2673 -0.3973
 6239SOL    HW119537   2.884   6.003   0.249 -0.8766 -0.0452 -0.1064
 6239SOL    HW219538   2.792   5.922   0.356 -0.8634 -0.6987 -0.5796
 6240SOL     OW19539   3.594   6.261   4.386 -0.5013  0.2526  0.1921
 6240SOL    HW119540   3.616   6.330   4.316 -1.8517 -0.2922 -0.7989
 6240SOL    HW219541   3.679   6.219   4.418  0.4780  2.9780  1.5046
 6241SOL     OW19542   6.604   2.659   2.000 -0.2430  0.0446  0.0857
 6241SOL    HW119543   6.639   2.695   1.914 -0.8527  0.3183 -0.0582
 6241SOL    HW219544   6.529   2.717   2.032  0.6557  0.5768  1.3518
 6242SOL     OW19545   4.509   6.773   4.055  0.2788 -0.4565  0.4245
 6242SOL    HW119546   4.436   6.840   4.065  0.6892  0.2144 -0.8909
 6242SOL    HW219547   4.472   6.681   4.068 -0.4967 -0.0506  1.1986
 6243SOL     OW19548   1.228   0.800   4.549 -0.1089 -0.6493 -0.2636
 6243SOL    HW119549   1.234   0.897   4.571  1.7526 -0.4696 -1.2497
 6243SOL    HW219550   1.136   0.766   4.569 -0.9597  1.4171 -0.3632
 6244SOL     OW19551   4.706   1.563   1.991 -0.3418 -0.2245  0.1237
 6244SOL    HW119552   4.631   1.618   1.953  0.4126  0.8846  0.1930
 6244SOL    HW219553   4.726   1.486   1.930 -1.0485 -0.1056 -0.2625
 6245SOL     OW19554   7.006   6.771   0.124 -0.1231  0.1371  0.0218
 6245SOL    HW119555   6.978   6.696   0.064 -1.4216 -0.0862  0.8698
 6245SOL    HW219556   6.938   6.784   0.196  0.1678  2.0368  0.0053
 6246SOL     OW19557   6.269   5.464   0.731  0.1810 -0.1800  0.4506
 6246SOL    HW119558   6.278   5.426   0.823  1.1945 -1.1493 -0.0289
 6246SOL    HW219559   6.343   5.430   0.674  0.6574  1.9078 -0.2283
 6247SOL     OW19560   1.892   0.279   3.332  0.4064 -0.3120 -0.1606
 6247SOL    HW119561   1.859   0.213   3.264  0.3865 -0.8821  0.3906
 6247SOL    HW219562   1.991   0.289   3.322  0.6452 -1.5676  0.7096
 6248SOL     OW19563   0.755   6.530   5.764  0.3457  0.2014  0.1533
 6248SOL    HW119564   0.711   6.579   5.689  1.9747 -0.2115 -1.1444
 6248SOL    HW219565   0.759   6.432   5.741  1.1618  0.1221  0.6043
 6249SOL     OW19566   1.163   1.259   5.980 -0.4972 -0.1688 -0.0690
 6249SOL    HW119567   1.217   1.287   6.059 -1.7655 -0.3133  0.8796
 6249SOL    HW219568   1.210   1.286   5.896  1.8171 -1.6799  0.6517
 6250SOL     OW19569   0.455   2.714   1.400  0.5540 -0.1767  0.9789
 6250SOL    HW119570   0.483   2.795   1.452  0.9777  0.4019 -0.1318
 6250SOL    HW219571   0.466   2.633   1.458 -1.3074  0.6793  2.6298
 6251SOL     OW19572   2.970   0.191   4.410  0.2031 -0.2738  0.4245
 6251SOL    HW119573   2.876   0.219   4.426  0.1483  0.0505 -0.4052
 6251SOL    HW219574   3.004   0.232   4.325  0.9850 -0.6343  0.5467
 6252SOL     OW19575   5.280   5.675   4.078 -0.2491  0.2611 -0.0204
 6252SOL    HW119576   5.265   5.581   4.049  0.2185 -0.0147  0.5963
 6252SOL    HW219577   5.311   5.729   4.000 -0.8207 -0.0180 -0.4522
 6253SOL     OW19578   0.743   3.946   2.242  0.6700 -0.2840 -0.3719
 6253SOL    HW119579   0.679   3.871   2.258 -0.0559  0.5657  0.7984
 6253SOL    HW219580   0.812   3.947   2.314  0.8455  0.0131 -0.5436
 6254SOL     OW19581   4.062   6.829   6.991 -0.6169  0.0682 -0.0212
 6254SOL    HW119582   4.093   6.924   6.995 -0.0028 -0.1290 -0.0860
 6254SOL    HW219583   3.962   6.828   6.979 -0.7654  0.6924  1.0687
 6255SOL     OW19584   2.062   4.499   4.285 -0.1113  0.3469 -0.1618
 6255SOL    HW119585   2.123   4.553   4.227  1.9675 -0.0498  1.5262
 6255SOL    HW219586   2.104   4.410   4.304 -1.1385  0.1124  1.1797
 6256SOL     OW19587   6.220   4.703   6.639  0.1736  0.5373  0.2601
 6256SOL    HW119588   6.171   4.764   6.577  0.1788 -0.0806 -0.3612
 6256SOL    HW219589   6.316   4.728   6.642  0.1224  0.7378  0.2270
 6257SOL     OW19590   1.105   6.926   4.852 -0.2435 -0.2377 -0.0786
 6257SOL    HW119591   1.082   6.842   4.804 -0.6071 -1.0649  1.4904
 6257SOL    HW219592   1.086   6.916   4.949 -0.2116  1.6347  0.1705
 6258SOL     OW19593   1.887   2.956   2.502  0.0088  0.3310 -0.5872
 6258SOL    HW119594   1.841   2.867   2.495  0.3542 -0.0410  1.2411
 6258SOL    HW219595   1.854   3.003   2.584  1.3086  1.0030 -0.4337
 6259SOL     OW19596   5.978   3.119   2.606 -0.1435  0.6537 -0.0657
 6259SOL    HW119597   5.897   3.168   2.638  0.0716  2.3156 -1.8282
 6259SOL    HW219598   5.959   3.078   2.516  0.7160  0.3928 -0.1390
 6260SOL     OW19599   3.576   6.157   3.644 -0.0452 -0.1627  0.6807
 6260SOL    HW119600   3.535   6.247   3.631  0.7419  0.3060  1.4405
 6260SOL    HW219601   3.589   6.139   3.741 -1.9838 -1.9187  0.7229
 6261SOL     OW19602   2.666   4.038   1.435  0.5367 -0.2032  0.2988
 6261SOL    HW119603   2.728   4.066   1.508  0.2777 -0.3295  0.5668
 6261SOL    HW219604   2.599   4.110   1.418 -0.9919 -1.1660  1.9260
 6262SOL     OW19605   1.521   4.604   1.478 -0.1120 -0.2259 -0.2632
 6262SOL    HW119606   1.458   4.664   1.428  0.3536 -0.4135 -1.1012
 6262SOL    HW219607   1.613   4.644   1.477  0.3829 -1.3072 -1.5413
 6263SOL     OW19608   3.918   5.789   2.726 -0.1590 -0.4321  0.8220
 6263SOL    HW119609   4.013   5.766   2.702 -0.5399 -2.7236  1.1726
 6263SOL    HW219610   3.902   5.764   2.821 -1.2023 -0.3863  0.6660
 6264SOL     OW19611   5.766   1.791   3.483 -0.2325  0.1390  0.2627
 6264SOL    HW119612   5.764   1.867   3.418  0.3192  0.3421  0.4794
 6264SOL    HW219613   5.764   1.828   3.576  2.3639  0.0094  0.4259
 6265SOL     OW19614   3.649   5.783   0.280 -0.0591 -0.2112  0.0575
 6265SOL    HW119615   3.554   5.754   0.298  0.0012 -0.8458 -0.5876
 6265SOL    HW219616   3.669   5.866   0.333 -0.8273 -0.3247  0.5527
 6266SOL     OW19617   2.751   6.411   0.953 -0.1509 -0.0108  0.0299
 6266SOL    HW119618   2.723   6.329   1.002 -1.3719  1.7267  2.4342
 6266SOL    HW219619   2.793   6.476   1.017 -1.5308  2.2760 -1.2377
 6267SOL     OW19620   0.872   0.613   4.167 -0.0921  0.5740 -0.0429
 6267SOL    HW119621   0.914   0.545   4.227 -1.5523  1.5710  2.2606
 6267SOL    HW219622   0.797   0.571   4.117  0.6126 -0.0795 -0.5735
 6268SOL     OW19623   1.457   2.165   3.153  0.0806 -0.9755  0.2712
 6268SOL    HW119624   1.389   2.237   3.168  1.4371  0.1284  1.6115
 6268SOL    HW219625   1.545   2.208   3.132  0.7333 -2.2920  0.2589
 6269SOL     OW19626   4.527   3.465   0.663  0.0975  0.3395  0.3005
 6269SOL    HW119627   4.495   3.380   0.621 -0.0022  1.0690 -1.1783
 6269SOL    HW219628   4.614   3.450   0.708  0.0066 -0.5782  0.1816
 6270SOL     OW19629   4.606   1.138   4.466 -0.6207  0.0243 -0.4618
 6270SOL    HW119630   4.582   1.190   4.548 -0.6880  0.8295 -0.9784
 6270SOL    HW219631   4.539   1.065   4.452 -0.1420 -0.6587  0.6568
 6271SOL     OW19632   2.868   4.980   5.711 -0.3227  0.4743 -0.3633
 6271SOL    HW119633   2.837   4.968   5.806  0.8152 -0.1325 -0.0470
 6271SOL    HW219634   2.793   4.961   5.649 -0.4880 -1.4139  0.3620
 6272SOL     OW19635   4.670   1.886   2.729  0.7078 -0.3506 -0.1415
 6272SOL    HW119636   4.642   1.808   2.673  0.0050  0.4352 -0.9346
 6272SOL    HW219637   4.698   1.855   2.819  0.6010 -1.5309 -0.5056
 6273SOL     OW19638   1.838   2.030   1.556  0.6109  0.2667 -0.1775
 6273SOL    HW119639   1.912   1.975   1.597 -1.4423 -1.9304  0.8290
 6273SOL    HW219640   1.772   2.054   1.626 -2.2553 -2.3090 -1.7370
 6274SOL     OW19641   2.344   2.791   1.484  0.1456 -0.6828  0.5176
 6274SOL    HW119642   2.433   2.836   1.489  0.0098 -0.3196 -0.3346
 6274SOL    HW219643   2.358   2.692   1.487  0.5775 -0.6297  0.3961
 6275SOL     OW19644   5.734   3.877   3.822  0.3683  0.1655  0.0149
 6275SOL    HW119645   5.659   3.815   3.847  0.7498 -1.5882 -2.6676
 6275SOL    HW219646   5.715   3.917   3.732  2.7692 -0.6746 -0.9321
 6276SOL     OW19647   6.660   5.820   1.484 -0.4394 -0.2330  0.0494
 6276SOL    HW119648   6.751   5.790   1.456 -0.3356 -0.4712  0.6348
 6276SOL    HW219649   6.624   5.886   1.418 -0.7124 -1.7016 -1.3075
 6277SOL     OW19650   2.666   6.710   5.112 -0.0205  0.4821  0.2304
 6277SOL    HW119651   2.587   6.709   5.173  0.0086 -0.4874  0.2650
 6277SOL    HW219652   2.743   6.665   5.157  0.6605  1.6724  0.3162
 6278SOL     OW19653   4.608   4.334   6.950  0.8587 -0.5514  0.0274
 6278SOL    HW119654   4.588   4.397   7.025  1.9286 -0.0953 -0.0840
 6278SOL    HW219655   4.545   4.353   6.874  1.3021  0.5585 -0.0824
 6279SOL     OW19656   5.488   6.897   4.204  0.6510 -0.5795  0.4572
 6279SOL    HW119657   5.535   6.940   4.281 -1.0217  0.3937  1.0173
 6279SOL    HW219658   5.474   6.800   4.224  1.3502 -0.6221  0.8017
 6280SOL     OW19659   0.818   4.883   5.600  0.6831 -0.3503  0.2754
 6280SOL    HW119660   0.884   4.945   5.643  1.9769 -1.6616  0.2128
 6280SOL    HW219661   0.753   4.851   5.669 -0.3816  1.4909  0.2050
 6281SOL     OW19662   4.242   5.319   1.686 -0.0452  0.0729 -0.0712
 6281SOL    HW119663   4.306   5.251   1.720  1.4081  1.7459  0.7064
 6281SOL    HW219664   4.240   5.398   1.748 -0.5038  1.4000 -1.6713
 6282SOL     OW19665   4.475   2.795   3.041 -0.1851 -0.1891 -0.5000
 6282SOL    HW119666   4.542   2.794   3.115  0.9646 -1.4963 -1.5163
 6282SOL    HW219667   4.394   2.743   3.068 -1.1582  1.9878  1.0033
 6283SOL     OW19668   3.917   6.688   6.359  0.2284 -0.2467 -0.0687
 6283SOL    HW119669   3.960   6.625   6.424  0.3128 -0.6989 -0.5499
 6283SOL    HW219670   3.974   6.696   6.278 -0.5356 -0.7886 -0.6752
 6284SOL     OW19671   0.222   3.233   0.789  0.5843  0.3353 -0.5825
 6284SOL    HW119672   0.318   3.206   0.794  0.3886 -0.1494  1.0907
 6284SOL    HW219673   0.174   3.176   0.723  0.6514 -2.0322  1.2915
 6285SOL     OW19674   1.747   5.626   2.655  0.6176  0.3114 -0.2486
 6285SOL    HW119675   1.692   5.592   2.731  1.4595  4.1900  2.3948
 6285SOL    HW219676   1.688   5.644   2.576 -1.1477  0.3163  1.0081
 6286SOL     OW19677   4.486   2.757   1.223 -0.0987 -0.0604 -0.5433
 6286SOL    HW119678   4.564   2.694   1.226  0.1440  0.2302 -0.7081
 6286SOL    HW219679   4.415   2.719   1.164  0.9196  0.7923 -2.4139
 6287SOL     OW19680   0.665   0.950   6.425 -0.0133 -0.3626 -0.2798
 6287SOL    HW119681   0.760   0.981   6.421 -0.4860  1.3997  0.8895
 6287SOL    HW219682   0.633   0.951   6.520 -1.7897  1.1373 -0.8295
 6288SOL     OW19683   2.603   6.637   6.031  0.0334 -0.1674  0.1125
 6288SOL    HW119684   2.551   6.688   5.962 -1.4928  0.3849  1.5992
 6288SOL    HW219685   2.614   6.543   6.000 -1.6041 -0.2341 -0.4200
 6289SOL     OW19686   3.109   0.727   3.477  0.1832 -0.2474  0.3463
 6289SOL    HW119687   3.129   0.657   3.407  0.6605  0.3687 -0.1490
 6289SOL    HW219688   3.092   0.815   3.432 -0.2751 -0.0064  0.9725
 6290SOL     OW19689   2.197   1.381   2.296 -0.8024 -0.0160 -0.4067
 6290SOL    HW119690   2.254   1.308   2.335  0.7740  1.3079 -0.1263
 6290SOL    HW219691   2.105   1.374   2.333 -0.8103 -2.0775 -0.6653
 6291SOL     OW19692   0.192   2.137   1.093 -0.1661  0.3949 -0.3712
 6291SOL    HW119693   0.145   2.225   1.086  1.2719  1.3030  0.7856
 6291SOL    HW219694   0.153   2.086   1.170 -0.2340  0.5183 -0.3207
 6292SOL     OW19695   4.506   6.661   0.442  0.3064  0.3467  0.7495
 6292SOL    HW119696   4.514   6.758   0.416  3.0445  0.0089 -0.0245
 6292SOL    HW219697   4.499   6.654   0.541 -0.8957  1.3588  0.7642
 6293SOL     OW19698   4.379   5.866   1.357  0.1510  0.3838  0.6382
 6293SOL    HW119699   4.412   5.777   1.389 -1.6625 -0.1934  1.0346
 6293SOL    HW219700   4.310   5.901   1.421 -0.4167  1.2469 -0.4124
 6294SOL     OW19701   2.614   0.553   1.615  0.0933 -0.0775  0.3717
 6294SOL    HW119702   2.667   0.633   1.643  0.5178 -0.1848 -0.1167
 6294SOL    HW219703   2.627   0.479   1.682 -1.4524  0.7303  1.6182
 6295SOL     OW19704   0.234   1.056   6.055  0.3053  1.1434  0.5630
 6295SOL    HW119705   0.179   1.108   6.120  0.1502  2.0897 -0.3069
 6295SOL    HW219706   0.210   1.083   5.962  1.0858  0.3806  0.1295
 6296SOL     OW19707   3.981   0.783   2.647 -0.4771  0.5168  0.1807
 6296SOL    HW119708   4.069   0.743   2.675 -2.5955 -4.2730  0.9075
 6296SOL    HW219709   3.917   0.780   2.724 -2.7167 -1.0531 -1.5929
 6297SOL     OW19710   6.226   4.805   2.720 -0.3412 -0.3667 -0.7914
 6297SOL    HW119711   6.195   4.824   2.813 -1.5029 -0.7531 -1.0799
 6297SOL    HW219712   6.159   4.839   2.655 -0.9164 -2.5260 -1.4003
 6298SOL     OW19713   4.225   5.493   1.932 -0.2037 -0.8286 -0.5150
 6298SOL    HW119714   4.143   5.440   1.955 -0.3669 -0.4553 -0.2251
 6298SOL    HW219715   4.307   5.439   1.954 -0.3636 -0.7308  0.3302
 6299SOL     OW19716   3.511   1.579   0.746  0.2958 -0.3095  0.4417
 6299SOL    HW119717   3.492   1.666   0.701  2.0166 -0.8690 -1.4958
 6299SOL    HW219718   3.557   1.596   0.833  1.1282  0.6970 -0.1813
 6300SOL     OW19719   5.644   2.950   6.420 -0.4114  0.0259  0.3895
 6300SOL    HW119720   5.603   3.005   6.493 -0.8837  0.3284 -0.0978
 6300SOL    HW219721   5.617   2.987   6.331 -1.2748 -1.3676  0.0444
 6301SOL     OW19722   4.262   5.042   5.820  0.2759 -0.3006  0.0011
 6301SOL    HW119723   4.202   4.962   5.826  0.7238 -0.8412 -1.9589
 6301SOL    HW219724   4.354   5.017   5.850 -0.1133  0.1528  1.6673
 6302SOL     OW19725   2.105   4.400   0.862  0.3377  0.6679  1.3076
 6302SOL    HW119726   2.059   4.439   0.941  1.4197  3.4495  0.6811
 6302SOL    HW219727   2.050   4.326   0.824 -0.3059 -0.5755  4.4790
 6303SOL     OW19728   0.510   0.075   6.721 -0.0767  0.4704  0.2281
 6303SOL    HW119729   0.447   0.006   6.757  0.7188  1.1694  3.1531
 6303SOL    HW219730   0.603   0.038   6.722  0.2695  1.3494  1.2160
 6304SOL     OW19731   0.794   3.531   5.829  0.3811  0.3418  0.2972
 6304SOL    HW119732   0.818   3.480   5.746  0.1036 -0.9335  0.9795
 6304SOL    HW219733   0.840   3.620   5.828  0.9446  0.0548 -0.8771
 6305SOL     OW19734   0.035   1.923   3.898  0.2329  0.6320  0.1642
 6305SOL    HW119735  -0.018   1.938   3.981 -1.9633 -1.9028 -0.6616
 6305SOL    HW219736   0.133   1.930   3.918 -0.2333 -0.1438  3.0554
 6306SOL     OW19737   3.506   4.962   2.018 -0.0025  0.2099  0.2346
 6306SOL    HW119738   3.410   4.939   2.002  0.5017 -0.9878 -1.3341
 6306SOL    HW219739   3.523   4.972   2.116 -1.7784  0.7269  0.5033
 6307SOL     OW19740   0.781   0.578   5.384 -0.3002 -0.1186  0.8215
 6307SOL    HW119741   0.867   0.539   5.416 -0.0582  0.0825  0.4127
 6307SOL    HW219742   0.770   0.670   5.422 -0.2103 -0.0423  0.6634
 6308SOL     OW19743   2.659   2.912   5.541  0.0542 -0.1195  0.4100
 6308SOL    HW119744   2.611   2.824   5.545 -0.4451  0.0938 -0.6313
 6308SOL    HW219745   2.696   2.933   5.632  1.1397 -1.9279  0.4390
 6309SOL     OW19746   5.226   6.943   5.113  0.1918  0.2347 -0.4482
 6309SOL    HW119747   5.140   6.898   5.088 -0.1239 -0.2450  1.3852
 6309SOL    HW219748   5.295   6.874   5.131  0.6283  0.5890 -0.7500
 6310SOL     OW19749   3.088   5.143   4.099 -0.6000 -0.8964 -0.1581
 6310SOL    HW119750   3.117   5.047   4.097 -0.1314 -0.7512 -0.6310
 6310SOL    HW219751   3.085   5.178   4.005  0.9909  0.0722  0.1134
 6311SOL     OW19752   3.378   4.551   0.367  0.2329  0.0570 -0.0388
 6311SOL    HW119753   3.357   4.579   0.461 -0.7739 -0.8872  0.0339
 6311SOL    HW219754   3.306   4.490   0.334  0.8857 -0.0892 -1.2222
 6312SOL     OW19755   1.270   0.439   6.775 -0.5469  1.1264  0.0882
 6312SOL    HW119756   1.349   0.399   6.823  0.7741  0.4563 -2.4664
 6312SOL    HW219757   1.293   0.451   6.678 -2.7417  3.3392 -0.2322
 6313SOL     OW19758   1.873   1.645   1.503  0.5304  0.0516 -0.7633
 6313SOL    HW119759   1.874   1.675   1.599  1.0027 -3.1504  0.3266
 6313SOL    HW219760   1.781   1.657   1.466 -0.5295 -1.5360  1.1398
 6314SOL     OW19761   2.728   5.265   1.404  0.4900 -0.3312  0.2215
 6314SOL    HW119762   2.664   5.196   1.438 -0.8352 -0.1926 -1.8128
 6314SOL    HW219763   2.810   5.220   1.368  0.2113 -0.7458  0.0990
 6315SOL     OW19764   0.361   6.003   4.786 -0.1814 -0.1318  0.8715
 6315SOL    HW119765   0.383   5.953   4.702 -1.6202 -1.9641  1.5155
 6315SOL    HW219766   0.298   5.949   4.841  0.6748  1.0446  3.1357
 6316SOL     OW19767   4.388   2.368   6.257 -0.5563  0.3788  0.6895
 6316SOL    HW119768   4.464   2.367   6.323 -0.2933  1.9247  0.4590
 6316SOL    HW219769   4.418   2.327   6.171  0.0118  0.8157  0.6585
 6317SOL     OW19770   2.051   4.903   4.238  0.4505  0.2105 -0.2097
 6317SOL    HW119771   1.978   4.919   4.172 -0.1228 -0.8040  0.1339
 6317SOL    HW219772   2.124   4.850   4.194  0.5346  0.3986 -0.2964
 6318SOL     OW19773   4.437   6.591   2.609 -0.0451 -0.5052 -0.2413
 6318SOL    HW119774   4.355   6.542   2.579  0.1679 -0.6041 -0.6829
 6318SOL    HW219775   4.475   6.545   2.689  1.1471 -2.1719 -1.6769
 6319SOL     OW19776   6.669   0.704   1.022  0.5021 -0.0533 -0.0859
 6319SOL    HW119777   6.715   0.617   1.001 -0.9661 -0.7027 -0.7486
 6319SOL    HW219778   6.647   0.706   1.120 -0.9019 -1.1811 -0.3516
 6320SOL     OW19779   2.246   6.254   1.989 -0.3827  0.2172 -0.1188
 6320SOL    HW119780   2.228   6.308   2.072 -1.4824 -0.0294 -0.1878
 6320SOL    HW219781   2.219   6.307   1.909 -0.6179 -0.0827 -0.2390
 6321SOL     OW19782   2.860   5.126   1.858 -0.1502 -0.0183  0.2525
 6321SOL    HW119783   2.883   5.131   1.955 -0.8620  0.0002  0.4264
 6321SOL    HW219784   2.834   5.216   1.825  1.5355  0.2841 -0.3394
 6322SOL     OW19785   3.522   3.208   0.264 -0.4751  0.4718  0.2690
 6322SOL    HW119786   3.506   3.145   0.187  0.5073 -0.0974  0.5208
 6322SOL    HW219787   3.615   3.196   0.298 -1.1410  0.1215  2.0824
 6323SOL     OW19788   4.149   6.038   6.866 -0.0171  0.1345 -0.1690
 6323SOL    HW119789   4.200   6.085   6.938 -0.0695  0.0707 -0.0910
 6323SOL    HW219790   4.171   6.080   6.777  0.6739 -0.3166 -0.2208
 6324SOL     OW19791   2.501   4.935   4.059 -0.1317  0.3672  0.0057
 6324SOL    HW119792   2.428   4.905   3.998 -0.2546  0.7207 -0.0233
 6324SOL    HW219793   2.587   4.941   4.008 -0.2805  0.8890 -0.1974
 6325SOL     OW19794   2.238   1.871   0.169 -0.3664 -0.5147  0.6476
 6325SOL    HW119795   2.208   1.847   0.077 -0.2801 -0.2410  0.5480
 6325SOL    HW219796   2.332   1.839   0.183 -0.2824 -0.3164  0.5455
 6326SOL     OW19797   6.557   4.867   3.100  0.2300 -0.3346  0.0765
 6326SOL    HW119798   6.481   4.835   3.155  0.0917 -1.1158 -0.5363
 6326SOL    HW219799   6.542   4.962   3.075 -0.3707 -0.3742  0.2555
 6327SOL     OW19800   0.422   1.119   1.864 -0.1172 -0.3840  0.0498
 6327SOL    HW119801   0.458   1.052   1.800 -0.8790 -0.1974 -0.5923
 6327SOL    HW219802   0.377   1.193   1.813  0.0406  0.2258  0.7685
 6328SOL     OW19803   1.394   1.435   6.772  0.3876 -0.1477 -0.7011
 6328SOL    HW119804   1.411   1.380   6.690  1.0273 -0.0754 -0.6285
 6328SOL    HW219805   1.361   1.377   6.846  2.6257 -0.7651 -0.1172
 6329SOL     OW19806   2.857   0.691   2.557  0.1786 -0.2591  0.1244
 6329SOL    HW119807   2.782   0.628   2.576 -0.8622  0.4165 -1.5743
 6329SOL    HW219808   2.934   0.640   2.518 -0.1036 -0.6892  0.1196
 6330SOL     OW19809   5.575   6.961   6.042  0.7563 -0.1056  0.7388
 6330SOL    HW119810   5.645   7.000   6.103  0.6783  1.1453  0.0530
 6330SOL    HW219811   5.498   6.927   6.096  1.2679 -0.2119  1.4184
 6331SOL     OW19812   6.512   3.620   3.368 -0.6304 -0.2059 -0.4711
 6331SOL    HW119813   6.413   3.620   3.353 -0.5662  0.0902 -0.9049
 6331SOL    HW219814   6.559   3.623   3.280 -0.2414  0.1902 -0.2550
 6332SOL     OW19815   5.424   1.994   2.192 -0.3430  0.1718 -0.1542
 6332SOL    HW119816   5.451   1.964   2.100  0.4048 -0.2042  0.1794
 6332SOL    HW219817   5.376   1.920   2.239 -0.8559  0.4137 -0.2867
 6333SOL     OW19818   3.587   1.161   6.670  0.0065  0.1784  0.3808
 6333SOL    HW119819   3.559   1.071   6.702  0.3158 -0.1015 -0.1394
 6333SOL    HW219820   3.583   1.226   6.747  1.4741 -0.6465  1.1852
 6334SOL     OW19821   3.758   6.194   6.930  0.3021  0.3224  0.6515
 6334SOL    HW119822   3.779   6.255   6.853  0.2063 -0.6675 -0.1643
 6334SOL    HW219823   3.689   6.238   6.988 -0.1235  0.8063 -0.1793
 6335SOL     OW19824   1.987   3.056   6.241 -0.5754 -0.2498 -0.4943
 6335SOL    HW119825   1.897   3.014   6.253  0.1680 -2.0388 -0.9122
 6335SOL    HW219826   2.004   3.072   6.144 -1.6234  2.9657 -0.2882
 6336SOL     OW19827   6.622   2.995   2.539  0.0398  0.0648  0.6700
 6336SOL    HW119828   6.549   3.009   2.607 -0.3282 -1.3588  0.6044
 6336SOL    HW219829   6.618   2.901   2.506  1.2560  0.2820 -0.1292
 6337SOL     OW19830   0.216   4.786   2.344 -0.0460 -0.0073  0.5498
 6337SOL    HW119831   0.301   4.737   2.360  0.3878  1.2891  2.5658
 6337SOL    HW219832   0.213   4.816   2.249  1.3623 -0.7697  0.2384
 6338SOL     OW19833   0.452   6.086   3.681 -0.1642  0.6843  0.3565
 6338SOL    HW119834   0.489   6.078   3.588 -0.3670 -1.5269  0.4239
 6338SOL    HW219835   0.425   6.181   3.698  1.7384  1.5530 -1.1165
 6339SOL     OW19836   3.459   5.905   3.646 -0.0234  0.1193 -0.2820
 6339SOL    HW119837   3.440   5.853   3.564 -0.6419  0.1071 -0.1335
 6339SOL    HW219838   3.501   5.992   3.622 -0.4708  0.2410 -0.6283
 6340SOL     OW19839   1.706   5.403   6.652 -0.3538  0.0652  0.2871
 6340SOL    HW119840   1.718   5.484   6.596  1.6985 -1.5650 -1.8609
 6340SOL    HW219841   1.640   5.342   6.608 -0.5965 -0.1674  0.9658
 6341SOL     OW19842   4.630   3.066   3.484 -0.1773 -0.4678 -0.2428
 6341SOL    HW119843   4.598   3.158   3.506  2.2351  0.0024  1.7370
 6341SOL    HW219844   4.680   3.067   3.398 -1.3793 -0.2547 -0.9539
 6342SOL     OW19845   2.257   4.732   6.468 -0.0022 -0.0059  0.3298
 6342SOL    HW119846   2.209   4.771   6.546  1.6818 -2.7276  2.9729
 6342SOL    HW219847   2.344   4.780   6.455  0.9922 -1.2238  2.0493
 6343SOL     OW19848   3.923   1.274   1.990 -0.1423  0.1659 -0.4166
 6343SOL    HW119849   3.835   1.306   2.026 -1.3554 -3.0031 -0.3187
 6343SOL    HW219850   3.910   1.240   1.897  0.8020 -1.0587 -0.1188
 6344SOL     OW19851   1.530   1.886   3.885  0.2158 -0.1033 -0.1709
 6344SOL    HW119852   1.451   1.923   3.835  1.0283 -0.4447 -1.7452
 6344SOL    HW219853   1.523   1.787   3.890  0.2849 -0.0944  0.1629
 6345SOL     OW19854   2.887   4.493   3.178  0.3111 -0.2917 -0.3847
 6345SOL    HW119855   2.826   4.571   3.193  0.0814 -0.6788  0.8460
 6345SOL    HW219856   2.961   4.496   3.245  1.4569 -0.0345 -1.6232
 6346SOL     OW19857   4.608   3.409   5.933  1.1577  0.1062  0.6130
 6346SOL    HW119858   4.538   3.462   5.980  0.0450 -0.8617  0.0911
 6346SOL    HW219859   4.672   3.471   5.888 -0.8785  1.0722 -1.1655
 6347SOL     OW19860   2.098   0.091   2.325  0.2630 -0.5090  0.0978
 6347SOL    HW119861   2.016   0.142   2.349 -0.3458 -0.9439 -0.9242
 6347SOL    HW219862   2.110   0.091   2.226 -0.1749 -2.9187 -0.0160
 6348SOL     OW19863   1.216   2.146   1.784  0.0474 -0.0891  0.3230
 6348SOL    HW119864   1.312   2.135   1.812  0.4332 -1.0303 -1.2558
 6348SOL    HW219865   1.161   2.166   1.865  1.4772 -0.0769  1.3585
 6349SOL     OW19866   2.653   1.597   6.064  0.1528  0.2449  0.4973
 6349SOL    HW119867   2.640   1.682   6.014  1.5763  0.3821  0.3085
 6349SOL    HW219868   2.689   1.617   6.155  2.2025 -0.1784 -0.1602
 6350SOL     OW19869   3.984   0.525   0.242  0.1899  0.0792 -0.1793
 6350SOL    HW119870   4.046   0.588   0.197 -0.0245 -0.6901 -1.6366
 6350SOL    HW219871   3.906   0.575   0.281 -0.3774  0.6633 -1.9968
 6351SOL     OW19872   4.373   6.117   0.824 -0.3736  0.1481  0.5462
 6351SOL    HW119873   4.349   6.045   0.759 -0.9832 -0.0909  1.0281
 6351SOL    HW219874   4.359   6.206   0.781 -0.2752 -0.0100  0.1772
 6352SOL     OW19875   1.256   1.350   1.283 -0.5718 -0.4042 -0.5175
 6352SOL    HW119876   1.352   1.356   1.257 -0.6902 -0.5635 -1.0002
 6352SOL    HW219877   1.231   1.254   1.296  0.0129 -0.2904  2.1989
 6353SOL     OW19878   5.920   2.282   5.857  0.1859  0.8385  0.2377
 6353SOL    HW119879   5.877   2.203   5.813  1.9686 -0.5114  0.8248
 6353SOL    HW219880   5.871   2.365   5.829 -0.9032 -0.2987 -1.4820
 6354SOL     OW19881   0.025   5.196   1.888  0.1496  0.5620  0.2538
 6354SOL    HW119882   0.109   5.160   1.848  0.4414  0.3167  1.0641
 6354SOL    HW219883   0.046   5.241   1.975 -0.3479  1.8140 -0.2448
 6355SOL     OW19884   5.473   3.372   5.777 -0.0967  0.0752  1.3377
 6355SOL    HW119885   5.533   3.320   5.839  0.1331 -1.3346  0.0082
 6355SOL    HW219886   5.378   3.357   5.803 -0.0243 -0.8989  1.1055
 6356SOL     OW19887   2.126   0.014   2.051  0.0646 -0.1760  0.0275
 6356SOL    HW119888   2.216  -0.025   2.031 -0.5153 -1.9952  0.8030
 6356SOL    HW219889   2.055  -0.054   2.033 -1.1290  1.0199  0.1010
 6357SOL     OW19890   5.885   0.186   4.015  0.5468  0.1292 -0.5887
 6357SOL    HW119891   5.932   0.115   4.066 -1.2478  0.7017  2.0505
 6357SOL    HW219892   5.950   0.259   3.991  1.3100  0.2589  1.7127
 6358SOL     OW19893   6.369   1.806   0.624 -0.1522 -0.2713 -0.4306
 6358SOL    HW119894   6.275   1.840   0.617 -0.1786 -0.4144 -0.7692
 6358SOL    HW219895   6.396   1.802   0.720 -0.4455 -0.1005 -0.3399
 6359SOL     OW19896   2.795   3.746   2.041 -1.1068 -0.2246 -0.0645
 6359SOL    HW119897   2.736   3.665   2.045 -2.2576  0.6280  2.0608
 6359SOL    HW219898   2.754   3.819   2.095  0.8709  1.1574 -0.3207
 6360SOL     OW19899   0.772   3.811   2.676 -0.2118  0.4414  0.7398
 6360SOL    HW119900   0.793   3.864   2.594  1.3389 -2.2116 -0.7081
 6360SOL    HW219901   0.823   3.849   2.753  1.9816  0.2861 -0.5425
 6361SOL     OW19902   5.889   1.825   6.611 -0.4660 -0.4048  0.0609
 6361SOL    HW119903   5.888   1.920   6.644  1.6198 -0.3400  0.0968
 6361SOL    HW219904   5.870   1.764   6.688 -1.3968 -0.0568  0.1253
 6362SOL     OW19905   0.199   6.346   0.140  0.1027 -0.2615 -0.4098
 6362SOL    HW119906   0.215   6.310   0.048  0.1211  0.4400 -0.6895
 6362SOL    HW219907   0.152   6.434   0.134  2.2414  1.0067  0.1140
 6363SOL     OW19908   6.643   4.254   1.456 -0.1586 -0.8287 -0.1726
 6363SOL    HW119909   6.721   4.195   1.436 -0.7192 -0.8841 -2.3358
 6363SOL    HW219910   6.660   4.345   1.420  0.2313  0.0991  2.1761
 6364SOL     OW19911   5.096   3.795   3.581  0.0882  0.3898 -0.1500
 6364SOL    HW119912   5.180   3.841   3.608  1.4314 -2.0551  0.1110
 6364SOL    HW219913   5.118   3.715   3.525 -2.1379  0.2198 -0.9028
 6365SOL     OW19914   2.669   2.975   3.777  0.2324 -0.1668  0.1492
 6365SOL    HW119915   2.718   2.889   3.761  0.9310  0.4445 -1.1839
 6365SOL    HW219916   2.571   2.958   3.779  0.1870 -0.6769 -2.7193
 6366SOL     OW19917   3.434   5.363   0.607  0.1645  0.3953  0.1461
 6366SOL    HW119918   3.460   5.419   0.686  0.5604 -0.6256  0.7705
 6366SOL    HW219919   3.504   5.371   0.537 -0.3854  1.6295 -0.2920
 6367SOL     OW19920   1.246   1.066   2.674 -0.1770  0.0444  0.3150
 6367SOL    HW119921   1.182   1.143   2.668  0.6164  0.6223 -1.4918
 6367SOL    HW219922   1.315   1.086   2.744 -0.6020  0.4932  0.6092
 6368SOL     OW19923   0.723   2.763   6.907  0.3143 -0.5310 -0.2869
 6368SOL    HW119924   0.705   2.827   6.981 -1.4321  0.6546 -1.6443
 6368SOL    HW219925   0.769   2.682   6.943  1.7033  1.0347  1.6459
 6369SOL     OW19926   2.183   0.489   6.409 -0.3072  0.4716 -0.1560
 6369SOL    HW119927   2.186   0.571   6.353 -2.0816  0.4873 -0.2909
 6369SOL    HW219928   2.224   0.508   6.498 -0.4031  1.4127 -0.3041
 6370SOL     OW19929   1.285   5.011   1.997 -0.3212 -0.3690  0.0451
 6370SOL    HW119930   1.227   4.934   2.024  0.4123 -1.2186 -0.7585
 6370SOL    HW219931   1.303   5.006   1.899 -1.1483  1.4471 -0.2536
 6371SOL     OW19932   0.823   6.635   6.352  0.2429 -0.3221 -0.3575
 6371SOL    HW119933   0.823   6.679   6.262  1.9899 -0.1130 -0.2847
 6371SOL    HW219934   0.914   6.598   6.371 -0.3976 -1.3458  0.8717
 6372SOL     OW19935   1.484   2.792   5.564  0.0133  0.0779  0.1405
 6372SOL    HW119936   1.419   2.725   5.528  1.3368 -0.2706 -1.7830
 6372SOL    HW219937   1.435   2.860   5.618 -1.7632 -0.8409 -0.2120
 6373SOL     OW19938   1.253   5.104   4.304  0.5583 -0.1446  0.4159
 6373SOL    HW119939   1.283   5.175   4.240 -1.0654 -0.5284 -0.8357
 6373SOL    HW219940   1.324   5.034   4.312  1.3335  0.5852  0.0698
 6374SOL     OW19941   5.874   3.297   5.761 -0.5522  0.0163 -0.1538
 6374SOL    HW119942   5.958   3.242   5.765 -1.8139 -2.0236 -0.3094
 6374SOL    HW219943   5.897   3.393   5.777  1.6590 -0.6125  0.9006
 6375SOL     OW19944   3.057   3.727   2.138 -0.8056  0.2151  0.5792
 6375SOL    HW119945   3.101   3.646   2.098 -0.7372 -0.0641  1.1936
 6375SOL    HW219946   2.966   3.738   2.100  0.1537  1.4195 -1.5157
 6376SOL     OW19947   0.909   7.011   5.429 -0.0320  0.1470  0.4307
 6376SOL    HW119948   0.904   7.031   5.331  0.7660  1.1086  0.5739
 6376SOL    HW219949   0.907   6.912   5.443 -0.1270 -0.0016 -0.5899
 6377SOL     OW19950   1.574   3.388   6.833  0.3061 -0.3087  0.4939
 6377SOL    HW119951   1.602   3.292   6.822 -0.8955 -0.6012 -0.1336
 6377SOL    HW219952   1.644   3.436   6.886  1.8851 -1.0674 -0.7727
 6378SOL     OW19953   1.420   6.259   0.096  0.7734 -0.1770  0.0507
 6378SOL    HW119954   1.388   6.246   0.002  0.1258  3.2518 -0.3073
 6378SOL    HW219955   1.483   6.337   0.098 -0.7914  1.1353  2.7169
 6379SOL     OW19956   0.528   4.501   4.418  0.1415 -0.0619  0.4510
 6379SOL    HW119957   0.542   4.410   4.379 -0.2511 -0.5761  1.4532
 6379SOL    HW219958   0.513   4.567   4.344 -2.1361 -1.2637 -0.2376
 6380SOL     OW19959   2.378   6.548   4.923 -0.1509  0.0355 -0.3862
 6380SOL    HW119960   2.423   6.572   4.837 -0.6565  0.8980 -0.4155
 6380SOL    HW219961   2.358   6.631   4.975 -1.6718 -0.3273 -0.3424
 6381SOL     OW19962   5.828   6.976   3.211  0.3191 -0.5782  0.1451
 6381SOL    HW119963   5.819   7.067   3.170  1.0894 -0.9768 -0.9214
 6381SOL    HW219964   5.778   6.973   3.298 -0.0625  0.7260 -0.0028
 6382SOL     OW19965   1.827   6.367   5.077 -0.1907  0.3361  0.3450
 6382SOL    HW119966   1.859   6.442   5.135  0.8134  0.7450 -0.7146
 6382SOL    HW219967   1.782   6.405   4.996 -0.3849 -0.2283  0.1880
 6383SOL     OW19968   1.108   6.128   1.590 -0.6033 -0.7908  0.3000
 6383SOL    HW119969   1.098   6.093   1.684  0.3337  0.3643  0.8488
 6383SOL    HW219970   1.160   6.063   1.536  0.4616 -0.6318  1.1001
 6384SOL     OW19971   6.910   0.917   6.282  0.2482  0.3230 -0.0697
 6384SOL    HW119972   6.940   0.986   6.217  0.5826  1.8425  1.6126
 6384SOL    HW219973   6.948   0.828   6.257  3.3195  1.4838 -0.0445
 6385SOL     OW19974   2.175   4.813   2.167 -0.0362  0.0106  0.1261
 6385SOL    HW119975   2.103   4.841   2.103 -0.7382 -0.6782  0.5956
 6385SOL    HW219976   2.260   4.861   2.144 -0.4939  0.4273 -0.7766
 6386SOL     OW19977   4.543   0.304   4.473  0.0032 -0.0490 -0.0581
 6386SOL    HW119978   4.489   0.227   4.507  0.0430  0.3128  0.8469
 6386SOL    HW219979   4.482   0.381   4.452 -0.0493 -0.3490 -1.0553
 6387SOL     OW19980   3.510   1.160   2.033  0.0804  0.4742 -0.1773
 6387SOL    HW119981   3.462   1.223   2.094 -2.1602 -0.8856 -0.4343
 6387SOL    HW219982   3.562   1.094   2.088 -1.3087 -0.2775  0.2747
 6388SOL     OW19983   5.172   4.345   0.393 -0.5565 -0.1478 -0.2646
 6388SOL    HW119984   5.075   4.366   0.398 -0.3450  1.0551 -1.0147
 6388SOL    HW219985   5.207   4.365   0.302  0.4883 -0.1932  0.1103
 6389SOL     OW19986   4.192   4.406   6.363  0.6683 -0.3696 -0.2604
 6389SOL    HW119987   4.199   4.483   6.299  2.3909 -0.9620 -0.8487
 6389SOL    HW219988   4.154   4.439   6.449 -1.5541  0.4956 -1.4370
 6390SOL     OW19989   1.244   0.483   5.430  1.0127  0.3285  0.9675
 6390SOL    HW119990   1.165   0.502   5.489  0.6069 -0.6765  0.7788
 6390SOL    HW219991   1.219   0.497   5.335  1.4427  1.1955  0.9666
 6391SOL     OW19992   5.911   0.724   3.771 -0.2108  0.5859 -0.2869
 6391SOL    HW119993   5.960   0.637   3.764 -1.6896 -0.3457  0.2946
 6391SOL    HW219994   5.976   0.800   3.765  1.1116 -0.5489 -0.8508
 6392SOL     OW19995   6.831   0.446   5.091  0.2891  0.1356  0.4072
 6392SOL    HW119996   6.763   0.407   5.154  1.3948  0.0872  1.6134
 6392SOL    HW219997   6.921   0.442   5.133  0.9121  1.0554 -0.7901
 6393SOL     OW19998   3.575   5.429   5.990 -0.1813 -0.0285  0.0546
 6393SOL    HW119999   3.597   5.333   5.972 -0.4880 -0.1256  0.1923
 6393SOL    HW220000   3.563   5.478   5.903  0.4824  0.0039 -0.0210
 6394SOL     OW20001   6.197   2.258   2.564  0.2016 -0.2111  0.4583
 6394SOL    HW120002   6.208   2.356   2.581  2.7605 -0.6229  1.7769
 6394SOL    HW220003   6.178   2.243   2.467  1.0839  1.5304 -0.0288
 6395SOL     OW20004   4.244   6.154   2.827 -0.3632  0.3212  0.5268
 6395SOL    HW120005   4.332   6.180   2.788 -0.8251  1.2263  0.0308
 6395SOL    HW220006   4.196   6.094   2.764 -0.2131  0.0512  0.6698
 6396SOL     OW20007   1.650   0.657   4.057  0.3040  0.3656  0.0081
 6396SOL    HW120008   1.714   0.583   4.078 -0.5618 -0.4430 -0.1307
 6396SOL    HW220009   1.693   0.723   3.996  0.6998 -0.6691 -0.8629
 6397SOL     OW20010   6.141   5.346   5.479 -0.7547 -0.8399  0.9772
 6397SOL    HW120011   6.093   5.341   5.392 -0.9140 -1.5332  1.0984
 6397SOL    HW220012   6.154   5.253   5.515 -0.3145 -0.5867  1.4833
 6398SOL     OW20013   1.894   2.420   3.194 -0.3471  0.1810 -0.4656
 6398SOL    HW120014   1.947   2.359   3.253 -0.6424 -1.0226 -1.4025
 6398SOL    HW220015   1.884   2.509   3.239  0.6701 -0.2301  0.6411
 6399SOL     OW20016   5.295   6.134   3.620  0.3192 -0.7722 -0.2070
 6399SOL    HW120017   5.380   6.183   3.602 -0.7623  0.7359 -1.5282
 6399SOL    HW220018   5.274   6.139   3.717  0.8641  0.3452 -0.1308
 6400SOL     OW20019   6.268   4.012   1.903  0.4231 -0.0788 -0.8343
 6400SOL    HW120020   6.248   3.932   1.846 -0.3821 -0.2623 -0.3117
 6400SOL    HW220021   6.294   4.089   1.845  0.1330 -0.4132 -1.4104
 6401SOL     OW20022   0.718   4.282   0.600 -0.2328  0.7180 -0.0759
 6401SOL    HW120023   0.663   4.324   0.672  1.0542 -0.3378  1.5905
 6401SOL    HW220024   0.694   4.186   0.590  2.2577 -0.2009  1.7910
 6402SOL     OW20025   2.759   3.867   6.180  0.2695 -0.1260 -0.7421
 6402SOL    HW120026   2.769   3.837   6.085  0.7776 -1.8604 -0.1867
 6402SOL    HW220027   2.757   3.967   6.184  3.3893  0.1338 -2.3619
 6403SOL     OW20028   0.609   1.895   3.051  0.4764  0.5293 -0.0466
 6403SOL    HW120029   0.569   1.975   3.095  2.2221  0.4741  1.7822
 6403SOL    HW220030   0.662   1.925   2.971  0.7131  1.1231  0.3256
 6404SOL     OW20031   3.510   1.160   5.764 -0.6547 -0.6198 -0.1284
 6404SOL    HW120032   3.473   1.227   5.827 -1.7875  0.2322 -1.6365
 6404SOL    HW220033   3.597   1.193   5.727 -0.0928 -1.0271  0.8045
 6405SOL     OW20034   3.346   2.464   0.903  0.0842  0.6469  0.1330
 6405SOL    HW120035   3.255   2.504   0.915  0.3963  1.8440 -1.1709
 6405SOL    HW220036   3.409   2.503   0.971 -0.1483  0.5600  0.4012
 6406SOL     OW20037   1.386   2.779   2.559  0.2908 -0.4250  0.2749
 6406SOL    HW120038   1.461   2.763   2.495 -0.2481  0.6194 -0.6651
 6406SOL    HW220039   1.318   2.706   2.550  1.5261 -1.7977  1.6888
 6407SOL     OW20040   1.881   1.811   6.933 -0.3775  0.1922  0.1497
 6407SOL    HW120041   1.838   1.763   7.009  0.0400  0.5209  0.5946
 6407SOL    HW220042   1.911   1.902   6.962 -1.4565  0.8818 -0.7545
 6408SOL     OW20043   3.737   4.357   4.938 -0.0288 -0.2078  0.8869
 6408SOL    HW120044   3.655   4.316   4.977 -0.3457 -0.5350 -0.1016
 6408SOL    HW220045   3.817   4.305   4.966 -0.4356 -1.7117 -0.5333
 6409SOL     OW20046   1.270   4.171   0.856  0.3531 -0.3578  0.0942
 6409SOL    HW120047   1.281   4.158   0.954  1.4508 -1.8037 -0.2033
 6409SOL    HW220048   1.173   4.187   0.835  0.2038  0.7137  1.4693
 6410SOL     OW20049   1.054   5.073   6.054 -0.2579 -1.0077 -0.1298
 6410SOL    HW120050   1.055   5.124   6.140  0.4432 -0.0544 -0.6815
 6410SOL    HW220051   1.003   4.988   6.066 -1.4509 -0.1916  0.8273
 6411SOL     OW20052   4.785   5.194   2.422  0.4357  0.2339  0.7284
 6411SOL    HW120053   4.817   5.172   2.330  1.1036  1.6037  0.6239
 6411SOL    HW220054   4.688   5.173   2.429 -0.0349  1.6873 -0.8292
 6412SOL     OW20055   6.183   6.276   6.289 -0.3514  0.4427  0.1127
 6412SOL    HW120056   6.272   6.240   6.261 -0.3405 -1.3550  2.2039
 6412SOL    HW220057   6.110   6.227   6.241 -0.2548  1.1120 -0.7350
 6413SOL     OW20058   1.720   2.701   5.265  0.1833  0.2665 -0.2935
 6413SOL    HW120059   1.754   2.741   5.350  0.3761 -0.4507 -0.0298
 6413SOL    HW220060   1.664   2.769   5.217 -1.1890  0.1997  1.1298
 6414SOL     OW20061   6.533   2.775   4.741 -0.6222 -0.5743  0.1311
 6414SOL    HW120062   6.448   2.780   4.689 -0.7426 -0.7011  0.3090
 6414SOL    HW220063   6.520   2.715   4.820 -0.9966  0.9319  1.2897
 6415SOL     OW20064   0.132   3.831   1.511  0.3474 -0.4578 -0.1008
 6415SOL    HW120065   0.101   3.741   1.481 -0.1898 -0.3683  0.1783
 6415SOL    HW220066   0.202   3.864   1.448  0.6969 -1.1595 -0.0950
 6416SOL     OW20067   5.459   3.082   4.217  0.2616 -0.0372 -0.3721
 6416SOL    HW120068   5.452   3.012   4.288  3.8681 -0.3459 -0.1820
 6416SOL    HW220069   5.483   3.170   4.258 -0.1258  0.3833 -1.0215
 6417SOL     OW20070   5.868   3.247   0.694  0.0803 -0.4215  0.4033
 6417SOL    HW120071   5.921   3.259   0.779  1.7856  0.0690 -0.6693
 6417SOL    HW220072   5.918   3.187   0.632 -1.2314 -0.9194 -0.1947
 6418SOL     OW20073   5.492   5.141   1.812  0.7754 -0.2340 -0.1219
 6418SOL    HW120074   5.502   5.190   1.725  0.5865 -0.3429 -0.2060
 6418SOL    HW220075   5.448   5.201   1.880 -0.6572 -0.6939 -0.6027
 6419SOL     OW20076   2.967   4.340   6.614 -0.2923  0.4772 -0.1967
 6419SOL    HW120077   2.980   4.253   6.567 -0.3170  0.2963  0.1258
 6419SOL    HW220078   2.893   4.391   6.571 -0.8421 -0.0330  0.1415
 6420SOL     OW20079   6.145   6.151   6.546  0.4268  0.0006  0.0257
 6420SOL    HW120080   6.149   6.190   6.454  2.1866  0.4958  0.2784
 6420SOL    HW220081   6.178   6.056   6.544  0.2441 -0.0676  0.1163
 6421SOL     OW20082   1.074   2.374   0.117  0.1196  0.7363  0.0753
 6421SOL    HW120083   1.140   2.449   0.107  0.2147  0.5268 -0.9937
 6421SOL    HW220084   1.093   2.304   0.048 -0.2183 -0.0920  0.8087
 6422SOL     OW20085   2.618   3.351   6.436 -1.1163 -0.4866 -0.0168
 6422SOL    HW120086   2.655   3.304   6.516 -0.4006 -2.6637 -1.5108
 6422SOL    HW220087   2.633   3.449   6.445  1.0928 -0.8717  1.4358
 6423SOL     OW20088   5.088   6.341   2.244 -0.4037  0.2005 -0.3208
 6423SOL    HW120089   5.165   6.377   2.296 -0.4074  0.7630 -0.6967
 6423SOL    HW220090   5.122   6.300   2.159 -0.2582 -1.8448  0.6631
 6424SOL     OW20091   3.487   2.236   1.977 -0.6364  0.1591 -0.2867
 6424SOL    HW120092   3.446   2.243   1.886 -0.5376  1.5407 -0.2495
 6424SOL    HW220093   3.586   2.252   1.970 -0.3636 -1.2549 -0.1248
 6425SOL     OW20094   2.179   0.394   0.671 -0.0770  0.0770 -0.6065
 6425SOL    HW120095   2.210   0.470   0.729  0.3254 -0.1671 -0.4841
 6425SOL    HW220096   2.259   0.348   0.632 -0.0378 -2.3201  1.9229
 6426SOL     OW20097   6.063   0.098   6.263 -0.4827  0.2718 -0.2190
 6426SOL    HW120098   6.065   0.117   6.361 -1.2762 -0.9892  0.0610
 6426SOL    HW220099   6.062  -0.001   6.249  0.8823  0.4398 -1.5390
 6427SOL     OW20100   6.446   4.562   6.840 -0.3738 -0.2654  0.3852
 6427SOL    HW120101   6.404   4.505   6.769  0.7121 -2.6122  1.4861
 6427SOL    HW220102   6.384   4.569   6.918 -0.0453 -1.0583  0.7396
 6428SOL     OW20103   4.758   1.088   1.432  0.3013  0.3938 -0.9381
 6428SOL    HW120104   4.748   1.028   1.512 -0.2022  0.4048 -0.9869
 6428SOL    HW220105   4.843   1.140   1.440 -0.2643  1.2094  0.1618
 6429SOL     OW20106   1.056   3.912   0.666  0.5108  0.2683  0.2842
 6429SOL    HW120107   1.013   3.980   0.726  1.1074 -0.0768  1.1346
 6429SOL    HW220108   1.111   3.849   0.721  1.0739 -0.0735 -0.6352
 6430SOL     OW20109   2.781   3.137   1.086 -0.2387 -0.2367 -0.5540
 6430SOL    HW120110   2.851   3.207   1.102 -0.7806 -0.1058  1.5351
 6430SOL    HW220111   2.692   3.181   1.072 -0.8193 -0.4642  2.0462
 6431SOL     OW20112   2.656   2.059   4.630 -0.3929  0.1475  0.2083
 6431SOL    HW120113   2.605   1.982   4.667 -2.0934  0.9225 -0.4105
 6431SOL    HW220114   2.716   2.028   4.556 -1.9003 -0.4634 -0.8164
 6432SOL     OW20115   3.778   1.724   1.405 -0.6233  0.4752 -0.1772
 6432SOL    HW120116   3.743   1.796   1.465 -0.7007  1.0862 -0.9319
 6432SOL    HW220117   3.875   1.710   1.422 -1.0243 -0.6464  1.3561
 6433SOL     OW20118   4.360   0.910   5.272 -0.8512 -0.6276  0.2281
 6433SOL    HW120119   4.415   0.960   5.205 -2.3248 -0.1060 -0.6227
 6433SOL    HW220120   4.340   0.969   5.350  0.4873 -1.0885  0.9518
 6434SOL     OW20121   0.537   5.508   4.726 -0.1953 -0.0742  0.0382
 6434SOL    HW120122   0.458   5.557   4.762 -1.0206 -0.9148 -0.5513
 6434SOL    HW220123   0.507   5.418   4.692  1.3473 -1.2639  1.6604
 6435SOL     OW20124   0.444   3.101   4.610  0.5859  0.5365 -0.2731
 6435SOL    HW120125   0.489   3.141   4.690 -0.8201  1.3778  0.1290
 6435SOL    HW220126   0.369   3.161   4.580 -0.1962 -0.7488 -0.9965
 6436SOL     OW20127   0.444   2.450   1.536 -0.5384 -0.1235 -0.2955
 6436SOL    HW120128   0.430   2.518   1.607 -1.3098  0.6586 -1.1638
 6436SOL    HW220129   0.493   2.372   1.573 -1.5003 -0.0261  1.2582
 6437SOL     OW20130   6.282   3.109   3.370 -0.1286 -0.0097  0.3625
 6437SOL    HW120131   6.225   3.032   3.340  0.7424 -0.4271 -0.2711
 6437SOL    HW220132   6.303   3.099   3.467  1.8943 -1.8980 -0.1735
 6438SOL     OW20133   0.139   0.646   6.765  0.2623  0.1600 -0.4456
 6438SOL    HW120134   0.116   0.576   6.697 -1.5353 -0.0200  0.2981
 6438SOL    HW220135   0.115   0.736   6.729 -1.6969 -0.0219  0.3029
 6439SOL     OW20136   3.704   5.590   6.169 -0.2940 -1.2483 -0.2817
 6439SOL    HW120137   3.671   5.540   6.088 -1.0197 -0.1874 -0.6788
 6439SOL    HW220138   3.794   5.628   6.150 -0.9681  0.0180 -1.0740
 6440SOL     OW20139   2.489   7.012   1.023 -0.5406 -0.1723  0.2167
 6440SOL    HW120140   2.506   6.971   1.112  0.1843  1.8592  1.0646
 6440SOL    HW220141   2.448   7.103   1.034  1.7066  1.1401 -1.3479
 6441SOL     OW20142   5.532   5.389   5.502  0.4569 -0.2184  0.2352
 6441SOL    HW120143   5.540   5.290   5.509  2.2616 -0.0440  1.1812
 6441SOL    HW220144   5.620   5.428   5.476 -0.0985  1.1933  0.3844
 6442SOL     OW20145   0.147   6.582   1.810  0.0717  0.1702 -0.1058
 6442SOL    HW120146   0.049   6.564   1.809  0.0056  0.5094 -1.1695
 6442SOL    HW220147   0.163   6.679   1.792  0.5607  0.4104  1.5089
 6443SOL     OW20148   0.579   6.843   4.218  0.2174 -0.4533 -0.2555
 6443SOL    HW120149   0.582   6.743   4.215  0.4779 -0.4309 -0.8615
 6443SOL    HW220150   0.488   6.874   4.188 -0.2287 -0.5398  0.9744
 6444SOL     OW20151   4.673   4.261   0.270 -0.5416 -0.2615 -0.6615
 6444SOL    HW120152   4.648   4.167   0.290 -2.9586  0.7923  1.8625
 6444SOL    HW220153   4.594   4.309   0.232  0.5720  0.8690 -1.6595
 6445SOL     OW20154   4.635   4.680   2.531  0.2115 -0.2450  0.4016
 6445SOL    HW120155   4.699   4.746   2.568 -0.0972 -0.2853  1.0195
 6445SOL    HW220156   4.624   4.696   2.432 -0.6783  1.3152  0.7231
 6446SOL     OW20157   4.100   5.117   1.545  0.2305  0.3638 -0.3472
 6446SOL    HW120158   4.145   5.188   1.600  1.1474  0.6922 -1.4936
 6446SOL    HW220159   4.012   5.151   1.513  0.2907  0.6776 -0.1881
 6447SOL     OW20160   1.148   3.563   5.191 -0.2988  0.1523  0.1486
 6447SOL    HW120161   1.074   3.597   5.132 -1.5739 -0.8003  1.1561
 6447SOL    HW220162   1.221   3.526   5.134 -1.7896 -1.3493 -0.8592
 6448SOL     OW20163   2.260   5.104   1.646  0.4941  0.0163 -0.4799
 6448SOL    HW120164   2.171   5.074   1.612  0.1002  2.2878 -1.6475
 6448SOL    HW220165   2.262   5.096   1.746 -0.0598 -2.4151 -0.6181
 6449SOL     OW20166   0.929   1.830   0.153 -0.3597 -0.3199 -0.5275
 6449SOL    HW120167   0.915   1.922   0.189  0.1751 -0.1302 -0.7924
 6449SOL    HW220168   0.941   1.766   0.229 -2.6937 -0.5278 -0.2777
 6450SOL     OW20169   4.687   6.010   3.146 -0.4001  0.0092  0.1641
 6450SOL    HW120170   4.694   5.976   3.239  1.1909 -0.0367  0.0676
 6450SOL    HW220171   4.686   5.933   3.082 -0.0822  0.0600  0.0918
 6451SOL     OW20172   2.190   2.694   2.485  0.0237  0.3531 -0.6602
 6451SOL    HW120173   2.161   2.653   2.398 -0.1468  0.0498 -0.4612
 6451SOL    HW220174   2.264   2.759   2.467  1.7562 -1.5621 -0.7680
 6452SOL     OW20175   1.160   0.749   6.675 -0.3153  0.1963  0.0535
 6452SOL    HW120176   1.259   0.740   6.669 -0.3910 -1.3252  0.7695
 6452SOL    HW220177   1.121   0.668   6.719 -1.7345  1.4377  1.2347
 6453SOL     OW20178   4.529   5.266   5.752  0.3200 -0.0944  0.3451
 6453SOL    HW120179   4.450   5.247   5.693  0.2189  0.8252  0.1625
 6453SOL    HW220180   4.613   5.239   5.704  0.1103 -1.3457  0.6553
 6454SOL     OW20181   6.080   1.878   3.547  0.2499 -0.4835 -0.3239
 6454SOL    HW120182   6.141   1.879   3.467 -1.4464 -2.4714 -1.7737
 6454SOL    HW220183   6.088   1.789   3.593 -0.5162 -0.2229  0.3244
 6455SOL     OW20184   3.915   6.465   5.514 -0.2378 -0.0332 -0.3302
 6455SOL    HW120185   3.822   6.469   5.477 -0.5720 -0.2436  0.4623
 6455SOL    HW220186   3.965   6.390   5.472 -0.4887 -0.0273 -0.6391
 6456SOL     OW20187   3.982   3.022   6.077  0.1241  0.9351 -0.1627
 6456SOL    HW120188   4.052   3.018   6.005 -1.5260 -2.6427 -1.7626
 6456SOL    HW220189   4.001   2.952   6.146 -1.6907  0.0706 -0.4931
 6457SOL     OW20190   3.069   5.173   3.797  0.1188 -0.3421 -0.6459
 6457SOL    HW120191   3.028   5.104   3.738  0.5912  0.0359 -1.4345
 6457SOL    HW220192   3.025   5.261   3.781  1.4223  0.1366 -1.7237
 6458SOL     OW20193   0.456   4.244   1.843 -0.5925  0.2221 -0.0351
 6458SOL    HW120194   0.454   4.289   1.933  1.3486  1.1174 -0.3826
 6458SOL    HW220195   0.492   4.152   1.853 -1.1371  0.0284  0.1963
 6459SOL     OW20196   4.012   4.826   1.159  0.5474  0.4059 -0.2206
 6459SOL    HW120197   3.966   4.905   1.199 -0.5946 -0.1449 -0.3870
 6459SOL    HW220198   4.092   4.802   1.213 -0.2235  0.4831  0.9848
 6460SOL     OW20199   4.817   5.510   3.946 -0.3766  0.5709  0.2727
 6460SOL    HW120200   4.872   5.513   3.863 -0.6605  0.9016  0.0952
 6460SOL    HW220201   4.841   5.429   3.999  1.5440  1.5696  1.0399
 6461SOL     OW20202   4.477   1.541   5.862  0.4038 -0.3674 -0.2847
 6461SOL    HW120203   4.435   1.474   5.922  1.0720 -0.9349 -0.4378
 6461SOL    HW220204   4.559   1.502   5.820 -1.2031 -0.8371 -3.3079
 6462SOL     OW20205   3.649   0.553   6.293 -0.0240  0.1812  0.3189
 6462SOL    HW120206   3.682   0.646   6.274 -0.5185  0.1259 -0.9390
 6462SOL    HW220207   3.717   0.487   6.262  0.1064  0.1055  0.7535
 6463SOL     OW20208   6.222   6.160   0.446  0.2409 -0.4241 -0.0962
 6463SOL    HW120209   6.168   6.079   0.420 -0.1212 -0.0619 -0.5116
 6463SOL    HW220210   6.319   6.137   0.445  0.2381 -0.5053 -1.5930
 6464SOL     OW20211   5.691   3.362   3.329  0.3400  0.2387  0.1958
 6464SOL    HW120212   5.748   3.353   3.411  0.3090  0.4600  0.2481
 6464SOL    HW220213   5.600   3.328   3.348  0.3455  0.2407  0.2362
 6465SOL     OW20214   0.235   5.317   0.697  0.3994 -0.0398  0.2483
 6465SOL    HW120215   0.220   5.270   0.610  0.4419  0.8023 -0.2187
 6465SOL    HW220216   0.323   5.366   0.694 -0.4123  1.4613  0.1009
 6466SOL     OW20217   1.099   6.642   3.498 -0.3505 -0.4775  0.4372
 6466SOL    HW120218   1.035   6.693   3.555 -0.2249 -1.5379  1.5730
 6466SOL    HW220219   1.176   6.701   3.474 -0.6323  0.1293  0.9970
 6467SOL     OW20220   5.606   6.918   4.689  0.2034  0.3242 -0.3192
 6467SOL    HW120221   5.694   6.878   4.715 -0.7231 -0.6212  1.5704
 6467SOL    HW220222   5.548   6.926   4.770 -1.6521  0.4327 -1.5992
 6468SOL     OW20223   3.306   6.589   2.352 -0.8427  0.1491  0.4568
 6468SOL    HW120224   3.304   6.639   2.266  1.1915  0.8693  0.7515
 6468SOL    HW220225   3.365   6.508   2.342 -2.0571 -0.7984  0.6932
 6469SOL     OW20226   0.018   2.698   3.284 -0.1224  1.1601  0.0551
 6469SOL    HW120227   0.048   2.788   3.315 -0.6070  1.5203 -0.4977
 6469SOL    HW220228   0.040   2.629   3.353  0.2420  1.7073  0.4819
 6470SOL     OW20229   2.052   3.404   6.422 -0.1814  0.3723  0.1786
 6470SOL    HW120230   2.064   3.309   6.449 -0.2490  0.8524  2.0666
 6470SOL    HW220231   2.142   3.447   6.408 -0.1505  0.0460 -0.6382
 6471SOL     OW20232   5.188   0.798   5.262  0.7309  0.7997  0.3551
 6471SOL    HW120233   5.270   0.777   5.209 -1.3413 -2.4682 -1.8973
 6471SOL    HW220234   5.131   0.862   5.211  1.1347  1.9961  1.3136
 6472SOL     OW20235   4.187   5.134   4.254  0.4267  0.4629 -0.5138
 6472SOL    HW120236   4.140   5.160   4.170  0.1236  0.1192 -0.4495
 6472SOL    HW220237   4.196   5.035   4.259  3.3338  0.5577 -1.7075
 6473SOL     OW20238   5.645   1.402   2.384  0.0420  0.1819 -0.3800
 6473SOL    HW120239   5.629   1.413   2.482  2.2740 -1.8480  0.3262
 6473SOL    HW220240   5.559   1.379   2.338 -0.6240 -1.3662  1.5355
 6474SOL     OW20241   2.189   4.811   3.178 -0.2672  0.2694  0.5949
 6474SOL    HW120242   2.201   4.759   3.263 -1.7202  0.2212  0.8070
 6474SOL    HW220243   2.095   4.847   3.175 -0.6656 -0.8191 -1.5920
 6475SOL     OW20244   0.460   1.705   4.936  0.0857  0.5927 -0.6904
 6475SOL    HW120245   0.408   1.756   5.005  1.2407  0.4828  0.3132
 6475SOL    HW220246   0.405   1.693   4.854 -1.2758  0.8794  0.1541
 6476SOL     OW20247   3.092   6.385   6.577 -0.2025 -0.1105 -0.7676
 6476SOL    HW120248   3.184   6.347   6.564  1.2329  2.1377  1.9183
 6476SOL    HW220249   3.045   6.387   6.489  2.1999 -1.5686 -2.2034
 6477SOL     OW20250   4.253   2.631   3.076 -0.0342  0.0633 -0.2888
 6477SOL    HW120251   4.201   2.585   3.148 -0.2503  1.4208  0.4617
 6477SOL    HW220252   4.206   2.621   2.989 -1.1418  0.5630  0.2294
 6478SOL     OW20253   2.892   4.776   4.607  0.5936  0.3547 -0.4158
 6478SOL    HW120254   2.914   4.762   4.703  1.1520 -1.6994 -0.7978
 6478SOL    HW220255   2.970   4.819   4.561 -0.2126  2.7051  0.2882
 6479SOL     OW20256   0.744   4.550   5.153  0.7036  0.4824 -0.2364
 6479SOL    HW120257   0.725   4.607   5.073 -0.0965  1.3175  0.5162
 6479SOL    HW220258   0.799   4.602   5.218 -0.7860  0.7699  0.8568
 6480SOL     OW20259   6.898   2.362   3.288  0.3918  0.4685 -0.3379
 6480SOL    HW120260   6.866   2.383   3.380 -0.2564 -1.0586 -0.1775
 6480SOL    HW220261   6.996   2.344   3.290 -0.0589 -2.5448  0.7225
 6481SOL     OW20262   0.515   5.247   2.015 -0.7265  0.1526  0.5996
 6481SOL    HW120263   0.532   5.158   2.059 -0.6759  0.4626  1.2277
 6481SOL    HW220264   0.446   5.297   2.067 -0.7143  0.5030  0.2825
 6482SOL     OW20265   6.064   4.417   0.580  0.6773  0.4569  0.3155
 6482SOL    HW120266   6.038   4.509   0.610  0.3325 -0.0197  1.5390
 6482SOL    HW220267   5.993   4.352   0.606 -0.0316  0.0886 -2.2565
 6483SOL     OW20268   2.967   0.920   0.251  0.0440  0.0278 -0.0644
 6483SOL    HW120269   2.991   1.009   0.212 -1.4850 -0.1196 -1.4568
 6483SOL    HW220270   2.911   0.869   0.186 -0.2188 -1.4212  1.2372
 6484SOL     OW20271   4.012   1.722   6.241 -0.4777  0.6831 -0.1635
 6484SOL    HW120272   3.984   1.676   6.157 -1.3645  0.5785  0.1804
 6484SOL    HW220273   4.076   1.796   6.219  0.1440 -0.0339 -0.8203
 6485SOL     OW20274   4.049   4.157   5.791  0.5327  0.5067 -0.0107
 6485SOL    HW120275   4.122   4.225   5.799  0.6502  0.2679  1.3957
 6485SOL    HW220276   4.087   4.065   5.807  0.1827  0.2224 -0.7614
 6486SOL     OW20277   1.462   4.005   4.159 -0.0906 -0.2618 -0.2452
 6486SOL    HW120278   1.436   3.983   4.065 -0.9095 -0.6860  0.0688
 6486SOL    HW220279   1.501   3.924   4.203  3.8781  0.8421 -1.3356
 6487SOL     OW20280   0.760   0.740   0.872  0.1478  0.4713  0.2994
 6487SOL    HW120281   0.810   0.660   0.840 -0.8389  0.2878 -0.8770
 6487SOL    HW220282   0.662   0.721   0.870 -0.0272  1.1068  1.7422
 6488SOL     OW20283   0.980   0.307   3.441  0.2041  0.3981 -0.4206
 6488SOL    HW120284   0.930   0.320   3.526 -1.6149 -1.9607 -1.0330
 6488SOL    HW220285   1.069   0.264   3.460  0.3090  0.9283  0.3421
 6489SOL     OW20286   2.674   1.887   1.524 -0.6952 -0.0166  0.2029
 6489SOL    HW120287   2.744   1.851   1.463  0.0335  0.2406  0.8748
 6489SOL    HW220288   2.584   1.872   1.484 -0.3597 -1.7771  0.0573
 6490SOL     OW20289   2.395   5.590   4.028  0.1172 -0.4196 -0.0992
 6490SOL    HW120290   2.299   5.612   4.015 -0.0594 -1.4324 -0.5783
 6490SOL    HW220291   2.405   5.495   4.057  1.0365 -0.6998 -1.2597
 6491SOL     OW20292   1.897   5.512   6.229  0.0613 -0.5944 -0.4320
 6491SOL    HW120293   1.916   5.600   6.186  0.7428 -1.3422 -1.7141
 6491SOL    HW220294   1.837   5.459   6.170  0.9459 -1.6005 -0.4488
 6492SOL     OW20295   6.378   2.296   1.037  0.0626 -0.3175  0.1741
 6492SOL    HW120296   6.376   2.347   0.951  0.2844  0.2366  0.4920
 6492SOL    HW220297   6.394   2.359   1.113  0.0650 -0.8263  0.6018
 6493SOL     OW20298   1.061   6.143   6.686 -0.0849  0.1252  0.3060
 6493SOL    HW120299   1.005   6.172   6.608  0.2558 -0.2250 -0.0780
 6493SOL    HW220300   1.004   6.133   6.767 -0.3536  1.0471  0.2470
 6494SOL     OW20301   1.030   1.926   2.191 -0.3688  0.3401  0.2832
 6494SOL    HW120302   0.965   1.926   2.268 -1.1538 -2.1166 -0.2726
 6494SOL    HW220303   0.993   1.982   2.117 -0.6855  0.9154  0.8644
 6495SOL     OW20304   4.885   2.743   0.436 -0.2618  0.7096 -0.5534
 6495SOL    HW120305   4.965   2.764   0.492 -0.2442  1.0340 -0.7008
 6495SOL    HW220306   4.823   2.684   0.488  0.2112  0.2052 -0.5444
 6496SOL     OW20307   3.661   5.921   6.908  0.6455 -0.1725 -0.2585
 6496SOL    HW120308   3.576   5.942   6.860 -0.1025 -2.9992 -0.3773
 6496SOL    HW220309   3.719   6.002   6.912 -1.8727  1.7479 -0.5087
 6497SOL     OW20310   3.272   1.730   6.713 -0.1246 -0.1183  0.6992
 6497SOL    HW120311   3.212   1.658   6.678 -0.6124  0.5991 -0.0077
 6497SOL    HW220312   3.247   1.817   6.670  0.1276  0.5683  1.8959
 6498SOL     OW20313   3.411   2.807   0.177  0.4135  0.2194 -0.1808
 6498SOL    HW120314   3.391   2.749   0.255  2.0524  0.1167  0.1883
 6498SOL    HW220315   3.371   2.767   0.094  0.6338 -0.8912  0.2392
 6499SOL     OW20316   5.478   1.682   6.811  0.1082 -0.6519 -0.3960
 6499SOL    HW120317   5.516   1.590   6.809 -0.1356 -0.7567 -0.4309
 6499SOL    HW220318   5.504   1.731   6.728  0.6575 -0.5153 -0.1422
 6500SOL     OW20319   5.922   2.214   1.146 -0.4468  0.1651 -0.0672
 6500SOL    HW120320   5.898   2.167   1.060  1.2794 -3.5222  1.2775
 6500SOL    HW220321   5.913   2.312   1.134  0.1925 -0.1598 -4.6233
 6501SOL     OW20322   0.864   4.108   3.507  0.1635 -0.1920 -0.1451
 6501SOL    HW120323   0.837   4.075   3.597  2.6343 -0.9493  0.4049
 6501SOL    HW220324   0.939   4.174   3.517  1.0850 -0.9604 -1.6547
 6502SOL     OW20325   0.667   4.226   2.669  0.5556 -0.7578 -0.6025
 6502SOL    HW120326   0.607   4.306   2.679  0.3199 -1.0368  0.2795
 6502SOL    HW220327   0.757   4.255   2.637  0.0352 -0.3007 -1.7303
 6503SOL     OW20328   3.310   4.260   0.999  0.1919 -0.1338  0.8155
 6503SOL    HW120329   3.356   4.233   1.083 -0.2812 -1.2883  0.7257
 6503SOL    HW220330   3.239   4.194   0.976 -1.2066  1.3383  0.6856
 6504SOL     OW20331   6.630   3.150   5.869  0.2154  0.1872 -0.0193
 6504SOL    HW120332   6.687   3.232   5.860  0.1820  0.6131  2.7954
 6504SOL    HW220333   6.551   3.159   5.808  0.4943  1.9968 -0.1767
 6505SOL     OW20334   4.960   3.509   3.451 -0.4843  0.0556 -0.2851
 6505SOL    HW120335   4.934   3.480   3.543 -0.3665 -1.5899 -0.7477
 6505SOL    HW220336   5.059   3.499   3.439 -0.0288  2.7661  0.2251
 6506SOL     OW20337   2.304   0.405   5.088  0.2973 -0.2247  0.5661
 6506SOL    HW120338   2.223   0.388   5.145  0.2909 -1.6452  0.1873
 6506SOL    HW220339   2.303   0.499   5.056 -0.7010  0.0548  1.3546
 6507SOL     OW20340   3.823   4.981   4.400 -0.1711  0.4838 -0.1000
 6507SOL    HW120341   3.818   5.000   4.302 -0.6494 -0.2028 -0.2146
 6507SOL    HW220342   3.731   4.971   4.437 -0.0752  2.3639  0.7668
 6508SOL     OW20343   2.256   6.264   2.988 -0.1968  0.3307  0.0969
 6508SOL    HW120344   2.329   6.254   3.055  0.2592 -3.1863 -0.7421
 6508SOL    HW220345   2.178   6.312   3.030  1.6222  2.0141  1.7350
 6509SOL     OW20346   1.475   6.423   1.282  0.2024  0.3916  0.0082
 6509SOL    HW120347   1.442   6.329   1.274 -1.1668  0.8901 -0.3283
 6509SOL    HW220348   1.541   6.428   1.358  0.9752 -1.0032 -0.5412
 6510SOL     OW20349   2.815   2.058   1.820 -0.1270  0.2363 -0.6836
 6510SOL    HW120350   2.724   2.077   1.782 -0.3328 -0.4894 -0.5430
 6510SOL    HW220351   2.831   2.119   1.898 -0.9378 -0.3747 -0.0136
 6511SOL     OW20352   0.737   3.975   1.463 -0.3785 -0.2869  0.1567
 6511SOL    HW120353   0.774   3.900   1.408  1.4049 -0.9655  2.1934
 6511SOL    HW220354   0.642   3.953   1.487 -0.8812 -0.4264 -1.7423
 6512SOL     OW20355   6.910   1.262   6.605  0.1554 -0.5787 -0.7130
 6512SOL    HW120356   6.906   1.162   6.602  0.0222 -0.5776 -0.6203
 6512SOL    HW220357   7.005   1.291   6.593  0.1829 -0.7100 -0.8400
 6513SOL     OW20358   3.928   5.540   2.104 -0.0342 -0.7812  0.0666
 6513SOL    HW120359   3.830   5.552   2.115 -0.3331 -1.4994 -1.5815
 6513SOL    HW220360   3.948   5.448   2.073  1.1140 -0.4477 -0.2370
 6514SOL     OW20361   5.231   1.930   6.582  0.1159 -1.0783  0.4203
 6514SOL    HW120362   5.257   1.843   6.624 -0.6997 -0.4006  2.4323
 6514SOL    HW220363   5.170   1.980   6.644 -0.7398  0.2259 -1.3876
 6515SOL     OW20364   3.325   4.120   6.156 -0.3598 -0.6553 -0.3431
 6515SOL    HW120365   3.345   4.031   6.115  2.4849  0.6408 -2.0669
 6515SOL    HW220366   3.226   4.132   6.165 -0.8472 -3.4451 -1.2077
 6516SOL     OW20367   0.124   6.610   2.159 -0.6470  1.1648 -0.8414
 6516SOL    HW120368   0.105   6.651   2.070 -0.4757  1.7014 -0.6418
 6516SOL    HW220369   0.203   6.550   2.153  0.1233  2.1532 -0.7976
 6517SOL     OW20370   3.608   4.226   1.942 -0.0064 -0.5015 -0.1651
 6517SOL    HW120371   3.557   4.175   2.011  0.6709  0.8437  1.4116
 6517SOL    HW220372   3.687   4.270   1.985  0.5758  0.1962 -1.8618
 6518SOL     OW20373   3.106   6.578   2.899 -0.6232 -0.2658  0.2942
 6518SOL    HW120374   3.158   6.511   2.952 -1.0405 -1.0854 -0.3118
 6518SOL    HW220375   3.118   6.669   2.940  0.8999 -0.5023  0.4486
 6519SOL     OW20376   0.266   3.734   6.985  0.6821  0.5318  0.3840
 6519SOL    HW120377   0.206   3.806   6.950  0.1590 -1.2470 -2.7490
 6519SOL    HW220378   0.361   3.763   6.978  0.4407  1.3963  0.5001
 6520SOL     OW20379   0.097   5.406   0.914 -0.1019 -0.4287  0.3560
 6520SOL    HW120380   0.154   5.459   0.977  0.8795 -0.2365 -0.6677
 6520SOL    HW220381   0.154   5.365   0.843 -1.3000  0.3553 -1.1199
 6521SOL     OW20382   4.888   6.096   3.374  0.0740  0.2676  0.0491
 6521SOL    HW120383   4.892   6.185   3.419 -3.2635  0.0320  1.0244
 6521SOL    HW220384   4.879   6.109   3.275 -0.0382  0.9889  0.1496
 6522SOL     OW20385   1.964   3.793   4.838 -0.5419 -0.0532 -0.0975
 6522SOL    HW120386   1.932   3.886   4.823 -3.3299 -0.8918  0.0502
 6522SOL    HW220387   1.910   3.751   4.912 -0.1675 -2.1595 -0.9554
 6523SOL     OW20388   2.440   3.068   0.906 -0.3134 -0.3312 -0.5950
 6523SOL    HW120389   2.435   2.969   0.899 -1.8139 -0.3082 -0.1032
 6523SOL    HW220390   2.499   3.093   0.982 -3.2112 -0.9653  2.0233
 6524SOL     OW20391   5.705   3.010   5.638 -0.7893 -0.4853 -0.7817
 6524SOL    HW120392   5.654   3.007   5.552 -2.6914  1.8942  0.1756
 6524SOL    HW220393   5.776   3.080   5.632 -0.9260 -0.3124 -0.4205
 6525SOL     OW20394   4.348   6.102   1.929 -0.9309 -0.1747  0.3772
 6525SOL    HW120395   4.303   6.186   1.961 -0.6083 -0.1698  0.8101
 6525SOL    HW220396   4.355   6.036   2.003  0.4013  0.0864  0.5126
 6526SOL     OW20397   5.280   0.107   4.854 -0.4771  0.1342 -0.3534
 6526SOL    HW120398   5.377   0.080   4.858 -0.2865  0.7752 -0.5098
 6526SOL    HW220399   5.243   0.113   4.947 -0.0983  0.7998 -0.2351
 6527SOL     OW20400   3.633   5.133   1.313 -0.5402 -0.2895  0.0353
 6527SOL    HW120401   3.599   5.155   1.222 -0.2649 -0.9170 -0.2290
 6527SOL    HW220402   3.603   5.040   1.337  0.1783 -0.4919  0.1827
 6528SOL     OW20403   6.287   6.466   6.479  1.0097 -0.0218 -0.3606
 6528SOL    HW120404   6.263   6.406   6.403  0.1612 -1.9761  1.3358
 6528SOL    HW220405   6.372   6.434   6.521  1.8605  1.4751 -0.9204
 6529SOL     OW20406   6.170   2.694   5.190  0.5258 -0.2650 -0.2769
 6529SOL    HW120407   6.123   2.637   5.258  1.4484  0.1694  0.7458
 6529SOL    HW220408   6.266   2.667   5.184  0.6991  0.3931 -0.6667
 6530SOL     OW20409   5.625   4.231   1.095 -0.1254  0.1947 -0.7205
 6530SOL    HW120410   5.594   4.325   1.084 -2.0529 -0.3571 -0.4148
 6530SOL    HW220411   5.575   4.172   1.031 -0.1440 -0.8381  0.2104
 6531SOL     OW20412   2.323   5.377   1.350 -0.0302  0.1870  0.3249
 6531SOL    HW120413   2.416   5.371   1.314  0.6870  1.8007  1.7690
 6531SOL    HW220414   2.324   5.425   1.438 -2.2622  0.5054  0.2420
 6532SOL     OW20415   2.376   2.771   5.518 -0.4702  0.4060 -0.1206
 6532SOL    HW120416   2.393   2.683   5.474 -0.2196 -0.5707  1.7870
 6532SOL    HW220417   2.278   2.778   5.539 -0.6314  0.9794 -1.0447
 6533SOL     OW20418   3.886   4.356   5.200  0.3279 -0.0036 -0.4180
 6533SOL    HW120419   3.872   4.437   5.257  0.0453  0.7063 -1.4634
 6533SOL    HW220420   3.822   4.285   5.227 -1.3970  1.1413 -1.3338
 6534SOL     OW20421   3.548   3.767   0.135  0.0063 -0.3795  0.6568
 6534SOL    HW120422   3.531   3.696   0.204 -3.1905  0.6816  1.0918
 6534SOL    HW220423   3.564   3.724   0.046 -1.7262 -1.7241  0.9433
 6535SOL     OW20424   0.651   1.765   0.550  0.2372 -0.0074 -0.1036
 6535SOL    HW120425   0.698   1.695   0.603 -0.7923 -0.0615  0.7732
 6535SOL    HW220426   0.701   1.852   0.558 -0.2883  0.1786  1.6184
 6536SOL     OW20427   1.261   2.553   5.149 -0.7325  0.8024  0.5352
 6536SOL    HW120428   1.277   2.511   5.238  0.2158 -0.5829 -0.2509
 6536SOL    HW220429   1.169   2.529   5.117 -1.0171  1.1751  1.0543
 6537SOL     OW20430   2.984   6.466   6.288  0.0365 -0.0582 -0.0969
 6537SOL    HW120431   3.003   6.503   6.197  0.3333 -1.5684 -0.6759
 6537SOL    HW220432   2.940   6.376   6.278 -1.4553  0.4857  1.2503
 6538SOL     OW20433   1.162   4.691   5.628 -0.1666  0.0316 -0.3908
 6538SOL    HW120434   1.081   4.682   5.687  1.2799 -1.4316  1.5210
 6538SOL    HW220435   1.156   4.776   5.576 -2.2172  0.7053  0.8216
 6539SOL     OW20436   0.515   2.503   4.869 -0.0223 -0.2681 -0.4539
 6539SOL    HW120437   0.547   2.490   4.963  0.9634 -0.1025 -0.7631
 6539SOL    HW220438   0.430   2.452   4.856  1.1222 -2.3487 -0.1970
 6540SOL     OW20439   4.328   6.858   2.285  0.0516 -0.3696 -0.1044
 6540SOL    HW120440   4.367   6.805   2.210  0.5466  1.6607 -1.3368
 6540SOL    HW220441   4.393   6.863   2.360  0.1098 -1.2483 -0.0895
 6541SOL     OW20442   0.756   0.941   1.138 -0.0465 -0.1787  0.1467
 6541SOL    HW120443   0.783   0.882   1.061 -2.4002 -1.0390 -0.0925
 6541SOL    HW220444   0.716   0.885   1.210 -0.5673  0.9292  0.7351
 6542SOL     OW20445   5.517   3.496   1.872 -0.4325 -0.1629  0.2248
 6542SOL    HW120446   5.461   3.558   1.817  0.2381  1.8803  1.7675
 6542SOL    HW220447   5.596   3.545   1.909  0.5424 -2.1364  0.9037
 6543SOL     OW20448   3.685   5.266   3.983  0.1363 -0.1536 -0.1260
 6543SOL    HW120449   3.609   5.290   3.923  1.2378  0.6586 -1.2529
 6543SOL    HW220450   3.732   5.349   4.012  1.0187 -0.6773 -0.0048
 6544SOL     OW20451   5.942   0.329   2.863  0.0767  0.2546 -0.1630
 6544SOL    HW120452   5.907   0.275   2.939  1.2436 -1.5856 -0.8395
 6544SOL    HW220453   6.040   0.347   2.877  0.2845 -0.0338 -1.1772
 6545SOL     OW20454   5.424   0.788   5.063 -0.1139  0.6510  0.1515
 6545SOL    HW120455   5.514   0.780   5.019  0.6978  0.5394  1.7505
 6545SOL    HW220456   5.354   0.754   5.001  1.0486 -0.1576 -0.7729
 6546SOL     OW20457   5.866   2.115   4.801  0.1698  0.3510  0.6696
 6546SOL    HW120458   5.896   2.207   4.826  2.5397 -0.3518  0.7354
 6546SOL    HW220459   5.867   2.105   4.702 -0.0701  0.3843  0.6606
 6547SOL     OW20460   6.381   2.023   1.389 -0.4485  0.0281 -0.0369
 6547SOL    HW120461   6.300   2.064   1.348 -0.9859 -0.1875  0.7670
 6547SOL    HW220462   6.449   2.004   1.319  0.0224  2.7027 -0.3952
 6548SOL     OW20463   3.442   3.589   1.256 -1.0128  0.0363  0.0209
 6548SOL    HW120464   3.484   3.599   1.345  1.3533 -0.8689 -0.9235
 6548SOL    HW220465   3.490   3.517   1.204 -2.2594  0.5829 -1.9954
 6549SOL     OW20466   6.611   5.603   1.645 -0.9601 -0.3268  0.2872
 6549SOL    HW120467   6.615   5.665   1.566 -1.3019 -0.0246  0.4952
 6549SOL    HW220468   6.525   5.618   1.694 -0.2263  0.3923  1.4216
 6550SOL     OW20469   1.730   0.808   0.297  0.2379  0.3310 -0.4346
 6550SOL    HW120470   1.799   0.869   0.257  2.4866 -2.5846 -1.3301
 6550SOL    HW220471   1.680   0.762   0.223 -1.3118  0.8666  0.2313
 6551SOL     OW20472   1.030   6.289   1.893 -0.5756  0.2123 -0.2994
 6551SOL    HW120473   1.058   6.311   1.986  1.1649 -1.6863 -0.2953
 6551SOL    HW220474   0.959   6.218   1.896  0.4791 -0.8798 -0.3896
 6552SOL     OW20475   0.412   6.565   6.922 -0.2939  0.2282 -0.3680
 6552SOL    HW120476   0.372   6.546   6.832  0.8925  1.5678 -1.2229
 6552SOL    HW220477   0.479   6.639   6.914 -0.4029  0.6280  1.6938
 6553SOL     OW20478   1.309   1.484   4.345 -0.2666 -0.1857  0.0905
 6553SOL    HW120479   1.216   1.461   4.316 -0.4128 -0.2656  0.6189
 6553SOL    HW220480   1.319   1.468   4.443 -0.4987  2.3242  0.5963
 6554SOL     OW20481   3.403   0.433   3.481 -0.1121  0.1125  0.3797
 6554SOL    HW120482   3.421   0.531   3.471 -0.7448  0.2195  0.2150
 6554SOL    HW220483   3.324   0.420   3.541 -0.7089 -0.2429 -0.4652
 6555SOL     OW20484   0.691   0.743   3.867 -0.5855 -0.1802  0.2709
 6555SOL    HW120485   0.730   0.664   3.915  0.0708 -1.6290 -2.4167
 6555SOL    HW220486   0.603   0.717   3.828 -1.2923  1.0761  1.0180
 6556SOL     OW20487   3.984   1.025   2.090 -0.0022 -0.3120  0.1097
 6556SOL    HW120488   3.974   1.118   2.055 -2.1424 -0.4323  0.2728
 6556SOL    HW220489   4.019   1.028   2.184  3.1104  0.1266 -0.9502
 6557SOL     OW20490   3.093   1.800   4.641 -0.1758  0.1917 -0.5463
 6557SOL    HW120491   3.020   1.849   4.688  1.6731  1.2713  1.4522
 6557SOL    HW220492   3.121   1.721   4.696 -1.3638 -1.6430 -2.4573
 6558SOL     OW20493   2.393   3.269   1.975 -0.0272 -0.0611  0.1392
 6558SOL    HW120494   2.375   3.352   1.922  2.4228  0.8526  0.6041
 6558SOL    HW220495   2.308   3.239   2.019 -0.6706  3.3352  1.5148
 6559SOL     OW20496   5.259   5.791   5.381 -0.3764 -0.5952  0.0406
 6559SOL    HW120497   5.273   5.762   5.286 -0.2264  0.3198 -0.2254
 6559SOL    HW220498   5.307   5.728   5.442  0.1631 -0.7608 -0.5386
 6560SOL     OW20499   5.823   0.220   3.095 -0.1169  0.4255  0.2335
 6560SOL    HW120500   5.835   0.312   3.134 -0.1292  1.3402 -1.7743
 6560SOL    HW220501   5.740   0.217   3.040  0.3781 -0.5017 -0.4995
 6561SOL     OW20502   1.862   3.507   2.169 -0.0559  0.4358 -0.1748
 6561SOL    HW120503   1.941   3.491   2.110 -1.3820  0.8523 -2.1558
 6561SOL    HW220504   1.857   3.435   2.238  1.2677 -0.3907 -0.8944
 6562SOL     OW20505   3.165   6.249   3.571 -0.4555 -0.1080 -0.5427
 6562SOL    HW120506   3.094   6.195   3.527 -0.5786  1.2137 -2.0392
 6562SOL    HW220507   3.243   6.259   3.508 -0.7378  2.0418 -0.6250
 6563SOL     OW20508   0.990   1.122   4.019  0.0985  0.1179  0.6324
 6563SOL    HW120509   1.004   1.142   3.923  1.5125  0.6704  0.9351
 6563SOL    HW220510   0.990   1.023   4.033  0.7552  0.0435  0.1706
 6564SOL     OW20511   5.563   3.096   6.177 -0.1814 -0.4697 -0.2264
 6564SOL    HW120512   5.473   3.058   6.154 -0.6269  1.2176 -1.5130
 6564SOL    HW220513   5.620   3.099   6.095  1.3294 -2.0816  0.6861
 6565SOL     OW20514   4.822   2.633   4.019  0.1021  0.4183  0.8240
 6565SOL    HW120515   4.788   2.644   4.113  1.3703  2.3630  1.1095
 6565SOL    HW220516   4.804   2.539   3.988 -2.0243  0.2641  2.3066
 6566SOL     OW20517   0.309   0.730   6.971  0.6284 -0.1680  0.0186
 6566SOL    HW120518   0.325   0.675   7.054 -0.1648 -1.3825 -0.6221
 6566SOL    HW220519   0.291   0.669   6.894 -0.4654  0.9597 -0.6651
 6567SOL     OW20520   6.386   0.689   3.051 -0.1337 -0.2548  0.3692
 6567SOL    HW120521   6.436   0.651   3.130  2.0604  0.5885 -0.5450
 6567SOL    HW220522   6.417   0.644   2.968 -1.4747 -0.2148 -0.1718
 6568SOL     OW20523   1.218   2.346   2.760 -0.2038  0.3760  0.0958
 6568SOL    HW120524   1.209   2.249   2.783  1.1617 -0.1815 -1.4956
 6568SOL    HW220525   1.152   2.399   2.814 -3.3390 -1.7438 -1.2584
 6569SOL     OW20526   0.898   1.565   3.249  0.0117  0.4519  0.4246
 6569SOL    HW120527   0.877   1.649   3.298 -0.9597 -0.6760  2.0081
 6569SOL    HW220528   0.814   1.516   3.227  0.5194  0.2131 -1.0912
 6570SOL     OW20529   3.668   1.868   3.669  0.4231  0.2249  0.4463
 6570SOL    HW120530   3.584   1.829   3.707 -0.3832  0.9934 -0.4945
 6570SOL    HW220531   3.720   1.913   3.742  0.2945 -0.7076  1.1380
 6571SOL     OW20532   1.517   4.076   3.265 -0.6174  0.0118  0.3061
 6571SOL    HW120533   1.494   4.173   3.258  1.2934  0.7013  2.4366
 6571SOL    HW220534   1.605   4.058   3.221 -0.6620 -0.6312  0.4598
 6572SOL     OW20535   2.005   1.475   3.546 -0.3253  0.0622  0.8087
 6572SOL    HW120536   1.991   1.548   3.614 -2.4742 -1.0821  1.6426
 6572SOL    HW220537   1.990   1.386   3.589 -0.3186 -0.7639 -0.8485
 6573SOL     OW20538   4.714   3.544   2.420 -0.2372 -0.7342  0.6445
 6573SOL    HW120539   4.725   3.643   2.412 -0.8628 -0.5588  1.6744
 6573SOL    HW220540   4.623   3.523   2.457 -0.1454 -1.6957  0.3581
 6574SOL     OW20541   6.292   0.551   1.217  0.1771 -0.3071 -0.5653
 6574SOL    HW120542   6.307   0.550   1.315 -1.0899 -0.6273 -0.3692
 6574SOL    HW220543   6.305   0.644   1.182  0.1633 -0.1039 -0.0258
 6575SOL     OW20544   6.898   5.353   1.063  0.6450  0.2943  0.2636
 6575SOL    HW120545   6.981   5.372   1.012  0.7455 -0.1678  0.2322
 6575SOL    HW220546   6.916   5.363   1.161  0.6828  0.3862  0.2468
 6576SOL     OW20547   3.967   4.563   5.783  0.6835 -0.0063  0.3875
 6576SOL    HW120548   4.050   4.511   5.766  0.7598 -0.3876  1.8158
 6576SOL    HW220549   3.903   4.507   5.836  0.7162  1.2792  1.8342
 6577SOL     OW20550   4.509   2.833   1.830  0.2970 -0.1161  0.0673
 6577SOL    HW120551   4.562   2.860   1.911  0.5598  0.3758 -0.2604
 6577SOL    HW220552   4.424   2.885   1.827 -0.0145 -0.6053  0.3741
 6578SOL     OW20553   4.546   5.879   4.481 -0.1320 -0.4147 -0.1767
 6578SOL    HW120554   4.645   5.870   4.487 -0.1569 -0.5697  0.0607
 6578SOL    HW220555   4.521   5.929   4.399  0.1798  0.1753  0.0871
 6579SOL     OW20556   2.333   4.479   6.945 -0.7741 -0.3521  0.4341
 6579SOL    HW120557   2.372   4.548   6.884  2.6225 -2.5846 -0.2007
 6579SOL    HW220558   2.260   4.430   6.897 -0.3851  0.0612 -0.6128
 6580SOL     OW20559   0.324   3.520   5.607  0.0410  0.1140 -0.2565
 6580SOL    HW120560   0.257   3.511   5.533  0.6298 -1.7624 -0.6083
 6580SOL    HW220561   0.292   3.588   5.673 -0.4589  1.9546 -2.2842
 6581SOL     OW20562   6.521   3.443   4.150 -0.1232  0.3630 -0.4361
 6581SOL    HW120563   6.477   3.518   4.200 -2.2440 -0.5362 -0.8454
 6581SOL    HW220564   6.591   3.401   4.207  0.8177  2.3435 -0.0355
 6582SOL     OW20565   6.774   5.024   5.922 -0.7047 -0.7210  0.0902
 6582SOL    HW120566   6.849   5.040   5.987 -3.5626  2.7408  2.9869
 6582SOL    HW220567   6.803   5.052   5.830  1.1099  2.1441  1.3891
 6583SOL     OW20568   0.628   1.664   1.675 -0.0234 -0.7088  0.0696
 6583SOL    HW120569   0.595   1.740   1.730 -0.6070 -1.3982  0.6928
 6583SOL    HW220570   0.717   1.634   1.708  0.5576  0.1727 -0.6525
 6584SOL     OW20571   6.062   4.038   2.313 -0.3539 -0.3863 -0.2996
 6584SOL    HW120572   6.100   4.094   2.240  0.9219  0.1470  0.7039
 6584SOL    HW220573   6.028   4.097   2.386  0.1661 -0.8779  0.3672
 6585SOL     OW20574   1.364   0.819   0.851  0.0812  0.7649  0.3844
 6585SOL    HW120575   1.321   0.796   0.764 -0.6734  1.4796  0.5532
 6585SOL    HW220576   1.306   0.788   0.927 -1.3332  3.5765  0.6367
 6586SOL     OW20577   4.918   4.298   3.259  0.5260 -0.1025  0.5672
 6586SOL    HW120578   4.879   4.387   3.235  0.4688 -0.1881  0.3394
 6586SOL    HW220579   4.920   4.240   3.178 -0.4475 -0.6813  0.9359
 6587SOL     OW20580   2.929   3.785   1.498  0.2372 -0.2937  0.6442
 6587SOL    HW120581   2.836   3.774   1.463  0.0168 -0.5305  1.2768
 6587SOL    HW220582   2.926   3.807   1.596  0.8663 -2.1113  1.1248
 6588SOL     OW20583   2.153   4.120   5.565  0.2773  0.2926 -0.5893
 6588SOL    HW120584   2.073   4.169   5.529  0.6430  1.5144  0.1940
 6588SOL    HW220585   2.143   4.022   5.547 -1.5077  0.3932 -0.2977
 6589SOL     OW20586   6.512   6.222   0.162  0.1327  0.0983  0.0995
 6589SOL    HW120587   6.542   6.193   0.253  1.8812  0.1968 -0.4134
 6589SOL    HW220588   6.546   6.314   0.143  1.9828 -0.8557 -1.6082
 6590SOL     OW20589   0.725   6.364   2.003  0.2912 -0.5965 -0.0885
 6590SOL    HW120590   0.715   6.464   2.008 -1.1672 -0.7125 -0.5897
 6590SOL    HW220591   0.700   6.332   1.912  1.7050 -1.3356 -0.2452
 6591SOL     OW20592   0.749   6.655   2.426 -0.0920  0.2192 -0.0240
 6591SOL    HW120593   0.768   6.710   2.508 -1.1855  0.8654 -0.1860
 6591SOL    HW220594   0.664   6.688   2.384  1.8162  1.6841 -2.9645
 6592SOL     OW20595   0.667   4.377   0.311 -0.6460 -0.4816  0.2454
 6592SOL    HW120596   0.707   4.327   0.388  0.7739  1.8045  1.0787
 6592SOL    HW220597   0.715   4.352   0.227  1.4429  0.8473  0.9527
 6593SOL     OW20598   3.731   1.627   4.234 -0.5254 -0.2112  0.0726
 6593SOL    HW120599   3.678   1.544   4.223  0.1160 -0.4840 -1.1069
 6593SOL    HW220600   3.804   1.630   4.166  1.5932 -0.3109  2.1946
 6594SOL     OW20601   2.721   5.615   1.657  0.0423 -0.9927  0.3661
 6594SOL    HW120602   2.713   5.517   1.643 -0.9127 -0.8806  0.0676
 6594SOL    HW220603   2.641   5.649   1.706  0.6316 -0.4572  0.9929
 6595SOL     OW20604   2.801   5.099   6.439  0.3044  0.3186 -0.5987
 6595SOL    HW120605   2.829   5.047   6.519 -1.3588 -1.8462 -1.3130
 6595SOL    HW220606   2.750   5.180   6.468 -1.6037 -1.2205  0.6155
 6596SOL     OW20607   5.519   6.017   4.061 -0.3577 -0.6261  0.1291
 6596SOL    HW120608   5.506   6.096   4.001 -0.3689 -0.5866  0.1812
 6596SOL    HW220609   5.489   5.934   4.013 -1.6064 -0.4385  0.5598
 6597SOL     OW20610   1.756   6.785   4.848 -0.0550  0.4991  0.0496
 6597SOL    HW120611   1.779   6.690   4.828 -1.6784 -0.2249  1.4013
 6597SOL    HW220612   1.697   6.822   4.777  1.1677  0.7705 -0.8593
 6598SOL     OW20613   5.805   1.688   1.961 -0.1635 -1.1103 -0.1455
 6598SOL    HW120614   5.902   1.674   1.944  0.5914  0.7753  2.0900
 6598SOL    HW220615   5.782   1.658   2.053 -1.5367 -0.7893 -0.3586
 6599SOL     OW20616   0.446   4.190   3.645 -0.1329 -0.4293 -0.0944
 6599SOL    HW120617   0.510   4.208   3.570  1.7391  3.4098  2.1078
 6599SOL    HW220618   0.497   4.158   3.725 -1.6426 -1.4070  0.5233
 6600SOL     OW20619   6.704   2.120   6.136  0.5581  0.1207 -0.5009
 6600SOL    HW120620   6.779   2.059   6.162 -0.4990 -1.1304 -0.2869
 6600SOL    HW220621   6.679   2.177   6.215  1.3982  0.7089 -0.6379
 6601SOL     OW20622   0.642   5.109   6.740 -0.1013  0.4400 -0.3321
 6601SOL    HW120623   0.581   5.086   6.664  0.8958  2.5505 -1.8301
 6601SOL    HW220624   0.595   5.170   6.804 -0.5944 -0.5334  0.2701
 6602SOL     OW20625   6.769   1.815   3.531  0.1052  0.1628  0.0169
 6602SOL    HW120626   6.669   1.811   3.527  0.0941 -1.0738  0.9641
 6602SOL    HW220627   6.805   1.722   3.536  1.2388  0.6329  0.9450
 6603SOL     OW20628   6.852   4.743   2.313 -0.1343  0.0784 -0.3302
 6603SOL    HW120629   6.813   4.784   2.396  0.7889 -0.1494  0.2327
 6603SOL    HW220630   6.824   4.647   2.306  0.2656 -0.0635  0.0281
 6604SOL     OW20631   5.728   2.050   4.256  0.5804 -0.4468  0.0808
 6604SOL    HW120632   5.798   2.051   4.185  1.0064 -0.8502  0.4858
 6604SOL    HW220633   5.665   1.974   4.239 -0.2388  0.3932 -0.7300
 6605SOL     OW20634   5.332   1.896   4.048  0.0343  0.1238  0.3977
 6605SOL    HW120635   5.334   1.982   3.996 -0.8545 -0.1339 -0.0937
 6605SOL    HW220636   5.249   1.892   4.103 -0.0189 -0.4888  0.2887
 6606SOL     OW20637   6.927   2.627   6.113  0.2537  0.3780  0.0289
 6606SOL    HW120638   6.893   2.718   6.089 -1.0238 -0.2741 -0.7599
 6606SOL    HW220639   6.957   2.580   6.031 -2.9827 -1.4044 -0.3145
 6607SOL     OW20640   0.603   6.980   2.890  0.1112 -0.0691  0.2101
 6607SOL    HW120641   0.601   6.893   2.940  0.0493 -0.6852 -0.7937
 6607SOL    HW220642   0.658   7.046   2.939  2.3177 -1.5116 -0.1832
 6608SOL     OW20643   0.912   0.617   1.115 -0.2322  0.0201  0.0162
 6608SOL    HW120644   0.961   0.530   1.120 -1.0225 -0.4248  0.1230
 6608SOL    HW220645   0.817   0.600   1.090 -0.3161  0.8799 -0.2577
 6609SOL     OW20646   5.940   3.357   2.895  0.4192  0.3138  0.1228
 6609SOL    HW120647   5.945   3.393   2.802  1.0267 -0.0524  0.0143
 6609SOL    HW220648   5.892   3.269   2.894  2.7571 -1.0443 -0.2586
 6610SOL     OW20649   2.471   4.718   0.863 -0.3186 -0.1282 -0.5549
 6610SOL    HW120650   2.535   4.796   0.867  1.8377 -1.8149 -0.3366
 6610SOL    HW220651   2.499   4.656   0.790 -2.2943 -0.5089 -1.0482
 6611SOL     OW20652   5.145   6.009   3.919 -0.5616 -0.9605  0.0153
 6611SOL    HW120653   5.087   6.044   3.846 -0.0795 -1.7619 -0.7825
 6611SOL    HW220654   5.237   5.992   3.884  0.2776  0.5969  1.3402
 6612SOL     OW20655   5.769   1.227   6.520 -0.3581 -0.4221  0.2818
 6612SOL    HW120656   5.689   1.196   6.570 -0.9412  0.7551  0.1153
 6612SOL    HW220657   5.742   1.255   6.428 -0.0381  1.4276  0.7237
 6613SOL     OW20658   5.308   1.182   5.855 -0.0699 -0.4918 -0.3214
 6613SOL    HW120659   5.232   1.206   5.795  0.3965  0.4201 -0.5716
 6613SOL    HW220660   5.349   1.265   5.893  0.6608 -0.9743 -0.0187
 6614SOL     OW20661   1.589   2.172   6.634  0.7448  0.2724 -0.2316
 6614SOL    HW120662   1.579   2.078   6.602 -0.6085  0.4548 -0.4009
 6614SOL    HW220663   1.686   2.194   6.645  1.2116 -0.2245 -2.9014
 6615SOL     OW20664   4.858   1.698   6.225 -0.0210  0.1358 -0.0200
 6615SOL    HW120665   4.866   1.773   6.290  0.6256 -0.2478  0.3583
 6615SOL    HW220666   4.881   1.731   6.133  0.1090  0.4299  0.1151
 6616SOL     OW20667   2.147   1.208   4.405  0.1289 -0.2344  0.5587
 6616SOL    HW120668   2.120   1.302   4.383  0.4416 -0.0964  0.7424
 6616SOL    HW220669   2.144   1.196   4.505  3.6554  0.7413  0.9306
 6617SOL     OW20670   0.815   4.999   2.969  0.3578  0.4497  1.0347
 6617SOL    HW120671   0.827   5.046   3.057  0.0866  1.4365  0.5726
 6617SOL    HW220672   0.903   4.967   2.936  0.4916  0.2544  1.5661
 6618SOL     OW20673   4.891   5.250   6.659  0.2120 -0.3044 -0.2235
 6618SOL    HW120674   4.941   5.335   6.674  1.1345 -0.6389 -1.2717
 6618SOL    HW220675   4.956   5.174   6.655 -0.3416 -0.7277 -1.9106
 6619SOL     OW20676   6.985   3.928   6.425  0.2975  0.3622 -0.1919
 6619SOL    HW120677   6.943   3.999   6.481  0.7672  1.3136 -1.0069
 6619SOL    HW220678   6.933   3.842   6.434  0.1584  0.5948  1.3721
 6620SOL     OW20679   1.135   1.037   1.854 -0.2287 -0.6206 -0.7567
 6620SOL    HW120680   1.038   1.048   1.875 -0.7633 -0.5801 -2.9278
 6620SOL    HW220681   1.146   1.020   1.756  2.1390  2.2587 -1.1740
 6621SOL     OW20682   0.052   2.156   6.064 -0.0247  0.4134  0.1362
 6621SOL    HW120683  -0.018   2.092   6.097  0.3929  0.0815  0.3381
 6621SOL    HW220684   0.142   2.112   6.068  0.0742  0.4801 -1.0748
 6622SOL     OW20685   5.914   0.839   6.593  0.0545  0.2469 -0.1318
 6622SOL    HW120686   5.898   0.815   6.498  1.1163 -3.4082  0.4786
 6622SOL    HW220687   5.938   0.936   6.599 -1.6913  1.0110 -3.3056
 6623SOL     OW20688   1.681   3.170   0.086 -0.1891 -0.2488 -0.6630
 6623SOL    HW120689   1.652   3.136  -0.003  0.7472  0.1430 -1.1208
 6623SOL    HW220690   1.689   3.093   0.150 -1.6721 -0.4386 -0.6642
 6624SOL     OW20691   3.456   0.756   1.040 -0.0055  0.3612  0.1445
 6624SOL    HW120692   3.548   0.775   1.004  0.4634  0.3602  1.2722
 6624SOL    HW220693   3.418   0.676   0.994  0.4156  0.5520 -0.5655
 6625SOL     OW20694   4.813   3.258   0.473 -0.3123 -0.1863  0.1861
 6625SOL    HW120695   4.887   3.241   0.409  2.1770  2.3027  2.1496
 6625SOL    HW220696   4.788   3.355   0.472 -1.9568 -0.5365  1.2359
 6626SOL     OW20697   5.188   2.809   2.782 -0.6274  0.4851 -0.0026
 6626SOL    HW120698   5.283   2.795   2.810 -0.9219 -0.9126  0.3282
 6626SOL    HW220699   5.151   2.724   2.745 -1.3087  1.3916 -1.5095
 6627SOL     OW20700   4.809   1.556   2.252  0.5890  0.6514 -0.5027
 6627SOL    HW120701   4.736   1.520   2.311  2.5567 -2.1317  0.4038
 6627SOL    HW220702   4.772   1.573   2.160 -1.5249  0.8063  0.3314
 6628SOL     OW20703   2.826   2.712   5.309  0.6789  0.0252 -0.1701
 6628SOL    HW120704   2.760   2.713   5.384 -0.9569  0.3600 -1.5399
 6628SOL    HW220705   2.868   2.802   5.300 -0.5099  0.5471 -0.7760
 6629SOL     OW20706   5.597   0.033   2.500  0.1334 -0.1695 -0.7305
 6629SOL    HW120707   5.677   0.077   2.458  0.5926  2.1935  2.2982
 6629SOL    HW220708   5.519   0.094   2.494 -0.4882 -0.9177 -0.4182
 6630SOL     OW20709   6.271   0.252   2.554 -0.2160  0.2650  0.2732
 6630SOL    HW120710   6.307   0.165   2.586 -0.8547  0.0991  0.5468
 6630SOL    HW220711   6.334   0.326   2.579  0.7661 -0.1987 -0.7061
 6631SOL     OW20712   0.288   1.009   2.074 -0.1132  0.0454  0.7532
 6631SOL    HW120713   0.338   0.938   2.124 -0.2032  0.1326  0.9716
 6631SOL    HW220714   0.348   1.048   2.004 -0.0542 -0.2333  0.6468
 6632SOL     OW20715   6.972   4.669   1.686  0.0377  0.2380  0.1329
 6632SOL    HW120716   7.041   4.742   1.684 -0.7545  0.9628 -0.8837
 6632SOL    HW220717   7.018   4.581   1.694  0.9612  0.8392  2.4219
 6633SOL     OW20718   6.871   0.187   5.552  0.0063 -0.0307 -0.5691
 6633SOL    HW120719   6.900   0.190   5.456 -0.6502  0.5485 -0.7530
 6633SOL    HW220720   6.949   0.164   5.610 -0.1464 -3.4541 -1.5046
 6634SOL     OW20721   3.047   2.215   1.418  0.1887 -0.5360  0.0523
 6634SOL    HW120722   3.015   2.309   1.430 -2.0194 -1.3009  0.6949
 6634SOL    HW220723   3.118   2.212   1.348 -0.9956  1.3909 -1.3473
 6635SOL     OW20724   2.374   1.805   0.982  0.1966  0.3708  0.1034
 6635SOL    HW120725   2.329   1.810   1.071  1.1540 -0.0435  0.6399
 6635SOL    HW220726   2.382   1.897   0.944 -2.5515  0.3090 -0.8086
 6636SOL     OW20727   4.175   2.313   0.547 -0.6615 -0.2296  0.0214
 6636SOL    HW120728   4.146   2.404   0.518 -0.1718 -0.5626 -1.5665
 6636SOL    HW220729   4.107   2.245   0.519 -3.5588 -0.0235  5.2662
 6637SOL     OW20730   6.531   5.005   5.726 -0.6287  0.0214  0.4427
 6637SOL    HW120731   6.626   4.998   5.695 -1.5027 -0.0350 -2.4916
 6637SOL    HW220732   6.525   4.981   5.823  2.1018 -1.5846  0.2934
 6638SOL     OW20733   3.095   0.012   0.767 -0.0981 -0.1653  0.5004
 6638SOL    HW120734   3.018   0.067   0.734 -0.1097 -0.3821  0.1559
 6638SOL    HW220735   3.102  -0.071   0.711 -1.0788 -1.3122  1.9870
 6639SOL     OW20736   3.750   2.178   5.641  0.1863  0.9414 -0.2235
 6639SOL    HW120737   3.749   2.102   5.576 -1.0620  1.4623 -0.8631
 6639SOL    HW220738   3.717   2.261   5.596 -1.4437  1.1632  1.2374
 6640SOL     OW20739   3.365   6.071   0.304 -0.2520  0.2956 -0.3411
 6640SOL    HW120740   3.310   6.154   0.294  2.4786  1.9492 -4.8280
 6640SOL    HW220741   3.351   6.011   0.226  1.0135 -1.3687  0.6313
 6641SOL     OW20742   1.617   5.813   3.610 -0.7283 -0.2425  0.4715
 6641SOL    HW120743   1.544   5.753   3.578 -0.4000 -0.1372 -0.5089
 6641SOL    HW220744   1.669   5.847   3.532  0.3484 -0.2846  1.1436
 6642SOL     OW20745   0.638   4.175   5.835  0.0493  0.1412 -0.6488
 6642SOL    HW120746   0.734   4.165   5.863  0.1081 -0.7093 -1.1265
 6642SOL    HW220747   0.622   4.121   5.753 -1.0361 -0.3400 -0.1323
 6643SOL     OW20748   3.158   3.884   1.316  0.1245 -0.4417 -0.0032
 6643SOL    HW120749   3.077   3.861   1.369  1.6352 -0.8640  2.2359
 6643SOL    HW220750   3.174   3.814   1.247 -2.6665  0.8182 -2.1357
 6644SOL     OW20751   0.438   5.063   6.516 -0.6211 -0.9986  0.4661
 6644SOL    HW120752   0.356   5.007   6.529  0.3160 -1.8535  3.2846
 6644SOL    HW220753   0.509   5.009   6.470 -1.1399 -0.6514 -0.8130
 6645SOL     OW20754   3.035   4.443   5.883  0.3544 -0.3274  0.0224
 6645SOL    HW120755   3.042   4.541   5.905 -2.1472 -0.4627  1.7729
 6645SOL    HW220756   2.954   4.428   5.826  2.4001 -1.0735 -2.9114
 6646SOL     OW20757   4.983   2.993   2.770  0.1320 -0.1812 -0.1139
 6646SOL    HW120758   5.047   2.926   2.808  3.0667  1.3639 -1.9460
 6646SOL    HW220759   4.940   2.955   2.688 -0.0476 -0.7022  0.2232
 6647SOL     OW20760   3.390   5.677   1.024 -0.2764  0.0654  0.5126
 6647SOL    HW120761   3.465   5.739   1.048  2.6845 -2.8083 -0.5758
 6647SOL    HW220762   3.372   5.616   1.102  0.1936 -0.7560 -0.0079
 6648SOL     OW20763   4.089   4.144   5.409  0.3178 -0.0474 -0.7332
 6648SOL    HW120764   4.180   4.184   5.414  0.8822 -1.0692 -2.1995
 6648SOL    HW220765   4.076   4.101   5.320 -1.6118  0.0808 -0.5676
 6649SOL     OW20766   2.206   2.254   2.775 -0.5796  0.1290  0.2845
 6649SOL    HW120767   2.232   2.326   2.840 -1.1656 -0.5406  1.2942
 6649SOL    HW220768   2.274   2.249   2.702  2.2385 -1.4729  2.7570
 6650SOL     OW20769   1.929   2.808   5.781  0.0446  0.0286 -1.0645
 6650SOL    HW120770   1.911   2.901   5.750 -2.3472 -0.3960 -1.1123
 6650SOL    HW220771   1.852   2.749   5.757  0.5532 -1.4953  0.8327
 6651SOL     OW20772   4.056   0.930   1.846 -0.1461  0.6433  0.2780
 6651SOL    HW120773   4.041   0.930   1.945  0.9850 -0.8678  0.4817
 6651SOL    HW220774   4.002   1.002   1.804 -1.1358  0.8981  1.9259
 6652SOL     OW20775   2.491   3.231   6.219 -0.0107 -0.0520  0.0482
 6652SOL    HW120776   2.391   3.235   6.223  0.0115  1.9204 -0.6590
 6652SOL    HW220777   2.529   3.262   6.306  0.0109 -0.7775  0.3092
 6653SOL     OW20778   0.476   2.794   2.742  0.0074 -0.6513 -0.5396
 6653SOL    HW120779   0.493   2.875   2.798  2.3905  0.8710 -3.2030
 6653SOL    HW220780   0.556   2.734   2.743 -0.6190 -1.5200 -0.8379
 6654SOL     OW20781   5.843   1.330   3.966  0.6102 -0.3015  0.0216
 6654SOL    HW120782   5.834   1.311   3.868  0.5004  0.1977 -0.0660
 6654SOL    HW220783   5.769   1.390   3.996 -0.1008 -1.4711  0.6872
 6655SOL     OW20784   3.231   6.610   6.723  0.4061 -0.1189 -0.1642
 6655SOL    HW120785   3.170   6.558   6.663 -1.0130 -0.3436  1.4055
 6655SOL    HW220786   3.260   6.694   6.677 -1.2081  0.0677 -0.9155
 6656SOL     OW20787   3.952   1.503   3.269  0.1296 -0.6179  0.3763
 6656SOL    HW120788   3.946   1.558   3.353  0.4221 -0.3894  0.2535
 6656SOL    HW220789   4.023   1.434   3.280  2.9215  1.8260 -0.9935
 6657SOL     OW20790   5.138   6.012   5.880 -0.0752  0.5746 -0.0437
 6657SOL    HW120791   5.084   5.935   5.845 -0.3420  0.2649  1.0213
 6657SOL    HW220792   5.215   5.977   5.934 -2.2199  0.9699  3.5657
 6658SOL     OW20793   3.868   1.650   6.483  0.0967  0.3729  0.0080
 6658SOL    HW120794   3.913   1.669   6.396  0.5920  0.9861  0.3889
 6658SOL    HW220795   3.828   1.735   6.519 -0.8051 -0.0344 -0.0077
 6659SOL     OW20796   5.912   5.780   6.432  0.7193  0.2585 -0.3104
 6659SOL    HW120797   5.881   5.874   6.425  0.7505  0.3903  1.0830
 6659SOL    HW220798   5.928   5.757   6.528 -0.0393 -1.4057 -0.5527
 6660SOL     OW20799   0.678   2.404   6.143 -0.3321  0.2903 -0.0162
 6660SOL    HW120800   0.758   2.441   6.097 -0.5311 -1.6888 -2.2094
 6660SOL    HW220801   0.596   2.426   6.089 -1.1337  1.2727  1.5483
 6661SOL     OW20802   5.992   4.477   4.636  0.2570  0.0574 -0.3652
 6661SOL    HW120803   5.926   4.439   4.570 -1.2330  1.9970 -0.0493
 6661SOL    HW220804   5.993   4.576   4.628  0.7621  0.2679  1.9024
 6662SOL     OW20805   5.494   6.162   6.213 -1.0055 -0.4971  0.3724
 6662SOL    HW120806   5.398   6.176   6.237 -1.2378 -1.9234  0.3293
 6662SOL    HW220807   5.527   6.240   6.159 -1.8419  0.4666  1.2071
 6663SOL     OW20808   5.652   2.052   2.373  0.3320 -0.3135  0.5685
 6663SOL    HW120809   5.584   2.062   2.300 -0.0897  2.4995  1.2504
 6663SOL    HW220810   5.724   1.989   2.343 -1.0164 -1.0806 -1.3033
 6664SOL     OW20811   3.095   3.066   1.304  1.0317  0.1599 -0.1685
 6664SOL    HW120812   3.160   3.036   1.374  0.6299  1.4017  0.7590
 6664SOL    HW220813   3.066   3.159   1.324 -0.2666 -0.0223 -1.1427
 6665SOL     OW20814   4.487   1.906   4.308 -0.2263  0.0683  0.3906
 6665SOL    HW120815   4.418   1.920   4.379  0.1678 -0.9621  1.0053
 6665SOL    HW220816   4.578   1.918   4.348 -0.0125  1.7918 -0.4925
 6666SOL     OW20817   4.391   3.856   0.404  0.2788 -0.5632  0.5857
 6666SOL    HW120818   4.455   3.857   0.481  0.1262 -2.2799  0.7956
 6666SOL    HW220819   4.306   3.813   0.433 -0.1772 -0.2487 -0.2609
 6667SOL     OW20820   6.627   0.085   2.391  0.0828  0.1068  0.7807
 6667SOL    HW120821   6.652   0.093   2.294 -2.5268  3.1805  0.2001
 6667SOL    HW220822   6.617  -0.012   2.415  1.0513 -0.7379 -1.9000
 6668SOL     OW20823   1.292   5.474   6.637  0.3006 -0.0553  0.2483
 6668SOL    HW120824   1.375   5.528   6.651  1.7309 -2.1417  0.0740
 6668SOL    HW220825   1.247   5.457   6.725  1.4419 -1.0051  0.6821
 6669SOL     OW20826   5.185   3.446   2.540 -0.3226  0.6092 -0.1933
 6669SOL    HW120827   5.120   3.444   2.616  0.8092 -0.7298  0.7830
 6669SOL    HW220828   5.199   3.353   2.505  1.5649  0.7718  0.0655
 6670SOL     OW20829   5.116   1.193   2.470 -0.3982 -0.6093  0.3631
 6670SOL    HW120830   5.039   1.157   2.523  0.4732  0.0913  2.2144
 6670SOL    HW220831   5.082   1.257   2.401 -1.4074  0.6918  2.0021
 6671SOL     OW20832   7.009   6.134   3.756 -0.0081  0.2737 -0.6960
 6671SOL    HW120833   6.944   6.065   3.787  0.0627  0.3972 -0.2662
 6671SOL    HW220834   6.996   6.151   3.659 -0.8520  0.5240 -0.5509
 6672SOL     OW20835   3.572   5.820   6.285  0.1237 -0.6002  0.5511
 6672SOL    HW120836   3.596   5.735   6.238  0.0234 -1.6182  2.2391
 6672SOL    HW220837   3.652   5.879   6.291 -0.0128 -0.1210 -1.4220
 6673SOL     OW20838   0.183   7.008   4.992 -0.1642  0.3030  0.0894
 6673SOL    HW120839   0.281   7.029   4.995  0.1661 -0.9717 -0.9140
 6673SOL    HW220840   0.156   6.963   5.077 -0.0394  1.2270  0.6361
 6674SOL     OW20841   5.797   1.781   5.433  0.1921 -0.0281  0.3597
 6674SOL    HW120842   5.798   1.874   5.397 -0.6564 -1.2883 -3.5075
 6674SOL    HW220843   5.705   1.759   5.467  0.5319  0.6401  1.7849
 6675SOL     OW20844   3.641   4.043   5.575 -0.3519 -1.1635 -0.6125
 6675SOL    HW120845   3.728   4.003   5.546  0.0240 -0.0719 -1.0524
 6675SOL    HW220846   3.654   4.139   5.599 -1.5670 -0.7822 -1.3837
 6676SOL     OW20847   0.778   0.562   0.522  0.0576 -0.3819  0.0627
 6676SOL    HW120848   0.835   0.597   0.448  0.6008 -0.7615  0.3019
 6676SOL    HW220849   0.682   0.588   0.505  0.3854  0.8259  0.0097
 6677SOL     OW20850   0.049   2.626   2.453 -0.1578 -0.2027 -0.1012
 6677SOL    HW120851  -0.010   2.689   2.402  0.5830  0.4526 -0.1563
 6677SOL    HW220852   0.025   2.532   2.428 -0.5866  0.0743 -0.7864
 6678SOL     OW20853   3.813   3.798   5.320  0.3584 -0.0074 -0.3416
 6678SOL    HW120854   3.741   3.776   5.384 -0.1961  0.5687 -0.7511
 6678SOL    HW220855   3.825   3.722   5.255  0.6592 -0.4291  0.2068
 6679SOL     OW20856   1.702   6.125   3.472  0.2814 -0.4138  0.1540
 6679SOL    HW120857   1.770   6.068   3.518  1.3134 -0.5058 -1.4471
 6679SOL    HW220858   1.747   6.204   3.432  0.0997 -2.0289 -3.6650
 6680SOL     OW20859   0.705   2.447   5.619  0.5052 -0.4303 -0.2666
 6680SOL    HW120860   0.710   2.465   5.521 -0.4170 -1.8812 -0.6136
 6680SOL    HW220861   0.781   2.386   5.646 -1.0209 -2.7255 -0.7891
 6681SOL     OW20862   0.490   1.445   6.051 -0.7847 -0.3112  0.6349
 6681SOL    HW120863   0.402   1.427   6.095 -1.5414  0.0763 -0.6755
 6681SOL    HW220864   0.550   1.366   6.063 -2.1647 -1.5699 -0.4896
 6682SOL     OW20865   4.602   0.132   6.759  0.0538 -0.0160 -0.3092
 6682SOL    HW120866   4.538   0.127   6.836  1.3441 -0.5585  0.7592
 6682SOL    HW220867   4.693   0.103   6.789  1.1211  1.9397 -1.4524
 6683SOL     OW20868   2.861   2.729   6.228 -0.2523 -0.2931 -0.5665
 6683SOL    HW120869   2.801   2.717   6.308 -0.1928 -0.9986 -0.6237
 6683SOL    HW220870   2.956   2.722   6.257 -0.2200 -3.5916 -1.1044
 6684SOL     OW20871   5.083   5.741   4.391 -0.1924 -0.0684 -0.1700
 6684SOL    HW120872   4.990   5.770   4.414  0.0685  0.4299  0.3254
 6684SOL    HW220873   5.115   5.792   4.311 -1.0403 -1.6635 -1.5850
 6685SOL     OW20874   0.932   6.720   6.073  0.2157 -0.6060 -0.0674
 6685SOL    HW120875   0.923   6.622   6.092 -1.0940 -0.6171 -0.6293
 6685SOL    HW220876   0.945   6.735   5.975 -0.5856 -0.1980 -0.1339
 6686SOL     OW20877   1.330   6.409   0.535 -0.5772  0.2746 -0.0783
 6686SOL    HW120878   1.423   6.441   0.515 -0.5411 -0.1946 -0.6969
 6686SOL    HW220879   1.305   6.338   0.469 -1.7617  1.1112 -0.5586
 6687SOL     OW20880   1.429   0.072   5.777 -0.0526  0.0520  0.1673
 6687SOL    HW120881   1.378   0.052   5.860 -0.4269  1.0999  0.1976
 6687SOL    HW220882   1.375   0.130   5.716  1.0381  1.1087  0.1566
 6688SOL     OW20883   3.294   5.436   2.261  0.4754  0.3390 -0.2357
 6688SOL    HW120884   3.322   5.351   2.307  0.8751  0.5413 -0.0949
 6688SOL    HW220885   3.334   5.438   2.169  0.5497  0.4215 -0.2032
 6689SOL     OW20886   0.014   3.295   0.370 -0.2361 -0.6791  0.4516
 6689SOL    HW120887   0.064   3.325   0.289  0.1738 -0.5375  0.7596
 6689SOL    HW220888  -0.070   3.247   0.341  0.5852 -1.7845 -0.0742
 6690SOL     OW20889   6.985   0.249   3.534 -0.6313 -0.0201 -0.7683
 6690SOL    HW120890   6.973   0.331   3.589 -1.4454 -1.1965  0.8799
 6690SOL    HW220891   7.054   0.190   3.576  2.0552  0.9851 -3.4283
 6691SOL     OW20892   4.971   1.936   4.673 -0.1909  0.4278 -0.2650
 6691SOL    HW120893   5.055   1.973   4.631 -0.4690  1.6010  0.1705
 6691SOL    HW220894   4.984   1.839   4.693  0.2589  0.0542 -2.2482
 6692SOL     OW20895   4.577   4.453   6.256  0.7001 -0.0217 -0.2056
 6692SOL    HW120896   4.531   4.542   6.261  1.3761  0.4333 -1.3804
 6692SOL    HW220897   4.510   4.380   6.270 -0.0371  0.6463 -0.1265
 6693SOL     OW20898   6.074   6.776   4.953 -0.1275  0.4620 -0.8126
 6693SOL    HW120899   6.084   6.693   4.897 -0.4531  0.6472 -1.1517
 6693SOL    HW220900   6.149   6.781   5.019  0.0084  0.0022 -0.9274
 6694SOL     OW20901   3.086   5.847   6.790 -0.0541  0.3299  0.0525
 6694SOL    HW120902   3.146   5.790   6.846  0.1508  1.3279  0.8954
 6694SOL    HW220903   3.027   5.901   6.849  0.0849  1.3324 -0.6922
 6695SOL     OW20904   0.728   6.948   4.599  0.0331  0.1424  0.4022
 6695SOL    HW120905   0.714   6.972   4.503 -1.4972 -0.7425  0.3592
 6695SOL    HW220906   0.788   7.016   4.642  1.3369  0.1626 -1.3228
 6696SOL     OW20907   4.598   3.901   2.188  0.2562  0.2020  0.0400
 6696SOL    HW120908   4.525   3.852   2.237 -0.7562  1.1315 -0.4966
 6696SOL    HW220909   4.557   3.963   2.121  1.4785  1.7381  0.6531
 6697SOL     OW20910   6.259   4.611   1.476 -0.5250  0.0715  0.0467
 6697SOL    HW120911   6.176   4.655   1.443  0.5032  0.4200 -2.3363
 6697SOL    HW220912   6.339   4.658   1.437  0.6669 -2.7705 -1.2573
 6698SOL     OW20913   5.087   0.815   5.503  0.0971 -0.3646  0.3780
 6698SOL    HW120914   5.126   0.810   5.412  2.4318  3.1985  1.0012
 6698SOL    HW220915   5.011   0.880   5.503  0.1351 -0.3104  0.9740
 6699SOL     OW20916   3.555   5.971   4.557  0.0331  0.5714 -0.6418
 6699SOL    HW120917   3.513   5.883   4.580 -0.9947  1.3675  0.6767
 6699SOL    HW220918   3.484   6.034   4.523  0.9434  0.5664 -2.7472
 6700SOL     OW20919   6.264   4.414   0.399  0.2823  0.2114 -0.0005
 6700SOL    HW120920   6.193   4.417   0.469  2.0137  0.2922  1.8714
 6700SOL    HW220921   6.313   4.501   0.399  1.4743 -0.4481 -0.0257
 6701SOL     OW20922   6.893   6.202   1.982 -0.3011 -0.0636  0.4376
 6701SOL    HW120923   6.966   6.133   1.982  0.5587  0.8217  0.4334
 6701SOL    HW220924   6.928   6.287   2.023 -1.5353  0.1746  1.0404
 6702SOL     OW20925   1.112   0.736   5.577  0.0023 -0.0566 -0.0821
 6702SOL    HW120926   1.145   0.774   5.491  0.0257 -1.7001 -0.8549
 6702SOL    HW220927   1.012   0.729   5.575 -0.0809  0.9133  0.4739
 6703SOL     OW20928   0.785   1.986   6.166 -0.6105  0.4352  0.2554
 6703SOL    HW120929   0.806   1.959   6.260 -0.3262  0.4129  0.1882
 6703SOL    HW220930   0.868   2.018   6.121 -0.8604  1.0072  0.1929
 6704SOL     OW20931   0.620   4.020   0.551 -0.4218  0.1295 -0.3895
 6704SOL    HW120932   0.683   3.967   0.495 -0.8900 -1.5806  0.6158
 6704SOL    HW220933   0.527   4.012   0.514 -0.4900  0.2732 -0.2537
 6705SOL     OW20934   3.475   0.414   5.912 -0.2309 -0.0775  0.1606
 6705SOL    HW120935   3.502   0.468   5.832  0.7291 -1.1802 -0.2926
 6705SOL    HW220936   3.388   0.448   5.948 -1.0300  0.0076 -1.7678
 6706SOL     OW20937   2.229   3.832   4.863  0.0982 -0.2570 -0.0608
 6706SOL    HW120938   2.213   3.865   4.955 -0.8580 -0.8583  0.0053
 6706SOL    HW220939   2.145   3.793   4.826  0.9675 -1.8624 -0.4349
 6707SOL     OW20940   2.422   0.097   5.429 -0.1787  0.4407  0.5640
 6707SOL    HW120941   2.504   0.065   5.476 -0.7703 -1.3853  0.4260
 6707SOL    HW220942   2.374   0.163   5.487 -0.1515 -0.7137  1.9372
 6708SOL     OW20943   6.756   3.397   5.857 -0.3164  0.1791 -0.0412
 6708SOL    HW120944   6.852   3.425   5.845 -0.0770 -0.9517 -1.0662
 6708SOL    HW220945   6.697   3.461   5.808  0.2899 -1.4640 -3.2699
 6709SOL     OW20946   3.710   1.935   5.491  0.2205  0.7468  0.2048
 6709SOL    HW120947   3.632   1.873   5.489 -0.4809  1.6490 -0.5957
 6709SOL    HW220948   3.789   1.886   5.529 -0.3389 -0.6070 -0.2891
 6710SOL     OW20949   5.841   6.087   2.874  0.3585  0.1643  0.5404
 6710SOL    HW120950   5.913   6.018   2.872 -0.9358 -1.3417  2.3979
 6710SOL    HW220951   5.864   6.158   2.941  0.3746 -0.0288  0.7428
 6711SOL     OW20952   5.592   2.073   6.773 -0.4204 -0.0919  0.0635
 6711SOL    HW120953   5.600   2.160   6.821 -3.6114  0.2618  0.1785
 6711SOL    HW220954   5.631   2.000   6.829  2.0327  1.1463  0.0890
 6712SOL     OW20955   4.894   1.950   6.321 -0.0392 -0.1349 -0.4136
 6712SOL    HW120956   4.844   1.984   6.241  0.8446  1.8184 -0.1944
 6712SOL    HW220957   4.984   1.993   6.324  0.0640 -0.3998  1.4662
 6713SOL     OW20958   2.538   1.595   0.484  0.4017 -0.1965  0.1321
 6713SOL    HW120959   2.483   1.511   0.479 -1.1140  0.8406 -2.0689
 6713SOL    HW220960   2.533   1.632   0.577 -1.4238 -0.9221  0.3607
 6714SOL     OW20961   3.076   5.697   3.371  0.3822 -0.5154  0.2185
 6714SOL    HW120962   3.101   5.794   3.376 -0.1674 -0.3189 -0.6000
 6714SOL    HW220963   3.093   5.663   3.278  0.0574 -1.0602  0.3513
 6715SOL     OW20964   2.612   0.009   6.811 -0.0740 -0.3784 -0.3521
 6715SOL    HW120965   2.628   0.064   6.729  0.8950 -0.0767  0.0247
 6715SOL    HW220966   2.522  -0.034   6.806  0.6714 -1.8488 -2.4600
 6716SOL     OW20967   5.781   6.480   3.922  0.2539  0.7113  0.3476
 6716SOL    HW120968   5.736   6.476   3.833  1.3072  2.9571 -0.3633
 6716SOL    HW220969   5.724   6.530   3.987  0.4849  1.0980  0.2558
 6717SOL     OW20970   6.215   2.555   6.907  0.5118  0.2306 -0.6970
 6717SOL    HW120971   6.283   2.608   6.857  1.8069 -0.4676  0.2578
 6717SOL    HW220972   6.220   2.459   6.879 -2.4282  0.6530 -3.0777
 6718SOL     OW20973   2.467   6.251   2.182 -0.0218  0.4530 -0.0266
 6718SOL    HW120974   2.546   6.259   2.121 -0.4904 -0.3356 -0.7727
 6718SOL    HW220975   2.422   6.339   2.189  0.4571  0.7195 -0.2400
 6719SOL     OW20976   2.391   1.985   4.387  0.4950  0.7633 -0.3708
 6719SOL    HW120977   2.318   2.053   4.395 -1.4971 -1.1922 -1.0986
 6719SOL    HW220978   2.383   1.937   4.300  2.4455  0.2137 -0.2947
 6720SOL     OW20979   6.680   0.176   3.136  0.2398 -0.0439 -0.3676
 6720SOL    HW120980   6.744   0.120   3.083 -0.2589  0.2701 -1.3055
 6720SOL    HW220981   6.675   0.267   3.096 -1.8024 -0.4464 -1.1199
 6721SOL     OW20982   2.965   6.005   1.632  0.1389 -0.3750  0.2859
 6721SOL    HW120983   2.912   6.076   1.585 -1.3187 -0.4608  1.7149
 6721SOL    HW220984   3.023   6.048   1.701  0.7136 -0.4262 -0.1570
 6722SOL     OW20985   5.182   0.055   6.865 -0.4499  0.1411 -0.1865
 6722SOL    HW120986   5.138  -0.035   6.875 -0.3436  0.0999 -0.2977
 6722SOL    HW220987   5.211   0.087   6.955  0.1387 -0.2553 -0.2309
 6723SOL     OW20988   3.679   6.706   5.424 -0.2479  0.2190 -0.4506
 6723SOL    HW120989   3.739   6.777   5.461  0.2579 -0.8766  0.9032
 6723SOL    HW220990   3.732   6.644   5.366 -0.5539  0.5484 -1.0993
 6724SOL     OW20991   5.141   1.089   1.811  0.0892  0.2995  0.1461
 6724SOL    HW120992   5.132   1.107   1.909  0.5235 -1.9176  0.6485
 6724SOL    HW220993   5.069   1.026   1.782  0.6641  0.0071 -0.6900
 6725SOL     OW20994   2.629   6.594   0.780  0.1299 -0.4440 -0.0803
 6725SOL    HW120995   2.592   6.657   0.849  0.7920  0.5941 -0.6516
 6725SOL    HW220996   2.673   6.516   0.826 -2.5800 -1.6779  0.6300
 6726SOL     OW20997   4.321   3.257   4.897 -0.6548 -0.4349  0.5679
 6726SOL    HW120998   4.278   3.252   4.987 -0.8623  0.8379  0.5557
 6726SOL    HW220999   4.264   3.211   4.830 -2.3348  1.6898  0.4529
 6727SOL     OW21000   1.139   1.877   5.543  0.7214 -0.2191  0.3886
 6727SOL    HW121001   1.046   1.914   5.542  0.9058  0.3782  2.0476
 6727SOL    HW221002   1.136   1.780   5.521 -0.0914  0.1339 -1.2287
 6728SOL     OW21003   6.177   1.936   3.972 -1.0344  0.4380  0.4009
 6728SOL    HW121004   6.231   1.962   4.052 -2.1628 -0.2581  1.4359
 6728SOL    HW221005   6.205   1.990   3.893  2.5208 -1.2472  0.3115
 6729SOL     OW21006   5.833   2.550   3.981 -0.5045  0.2499  0.0508
 6729SOL    HW121007   5.817   2.459   3.944  0.8221  0.1316 -0.2826
 6729SOL    HW221008   5.765   2.613   3.945 -1.4830 -0.6170  0.3503
 6730SOL     OW21009   6.922   6.642   6.682  0.0046 -0.8262  0.4680
 6730SOL    HW121010   6.897   6.564   6.625  1.5428 -0.9418 -0.0949
 6730SOL    HW221011   6.864   6.720   6.659  0.1998 -1.0435 -0.8116
 6731SOL     OW21012   2.329   6.894   0.245  0.1081 -0.1193  0.2772
 6731SOL    HW121013   2.264   6.852   0.308  0.2269 -0.4168  0.1999
 6731SOL    HW221014   2.421   6.892   0.284  0.0792  0.2708  0.3719
 6732SOL     OW21015   2.079   2.563   4.837  0.3078  0.6176  0.4019
 6732SOL    HW121016   2.130   2.649   4.836 -1.3678  1.6562 -0.5861
 6732SOL    HW221017   2.134   2.491   4.795  1.2282  1.5066  0.0527
 6733SOL     OW21018   4.997   5.169   6.226 -0.2171 -0.2139 -0.0775
 6733SOL    HW121019   5.012   5.153   6.128  0.8243  0.5234 -0.0583
 6733SOL    HW221020   4.900   5.160   6.247 -0.5212  0.0637 -1.2773
 6734SOL     OW21021   0.576   0.472   1.838  0.2633 -0.0237  0.3568
 6734SOL    HW121022   0.540   0.423   1.917  1.2432 -1.4743 -0.0538
 6734SOL    HW221023   0.664   0.515   1.862  1.3424 -1.7576 -0.3099
 6735SOL     OW21024   6.338   0.798   1.138  0.2511  0.4263  0.1107
 6735SOL    HW121025   6.417   0.856   1.120  0.7675  0.1870  1.4735
 6735SOL    HW221026   6.273   0.848   1.197  0.9428 -0.5138  1.7396
 6736SOL     OW21027   0.181   0.664   4.777  0.0727 -1.4384 -0.7484
 6736SOL    HW121028   0.109   0.597   4.759 -0.4947 -1.3190  0.8874
 6736SOL    HW221029   0.247   0.624   4.841 -0.9877 -0.0684  1.3334
 6737SOL     OW21030   4.640   1.299   6.215 -0.5774  0.2064 -0.3777
 6737SOL    HW121031   4.618   1.350   6.298 -0.6280  1.1050 -0.9249
 6737SOL    HW221032   4.664   1.205   6.238 -1.6099  0.1499  0.5669
 6738SOL     OW21033   4.120   0.100   6.924 -0.1251  0.2171 -0.4780
 6738SOL    HW121034   4.029   0.092   6.884  0.9218 -0.2060 -2.9685
 6738SOL    HW221035   4.133   0.192   6.961 -0.7977  1.0425 -2.2001
 6739SOL     OW21036   5.121   5.548   2.492 -0.0200 -1.0227  0.1549
 6739SOL    HW121037   5.220   5.551   2.501  0.2767 -1.1255 -2.5272
 6739SOL    HW221038   5.080   5.622   2.546  1.5782 -0.2840  0.3811
 6740SOL     OW21039   6.298   2.463   3.168  0.1381  0.1517 -0.3149
 6740SOL    HW121040   6.205   2.431   3.189  0.2037  0.0394 -0.1927
 6740SOL    HW221041   6.351   2.470   3.253  0.5606 -0.7797 -0.4980
 6741SOL     OW21042   6.608   3.445   6.785  0.0164  0.1716  0.2022
 6741SOL    HW121043   6.602   3.349   6.809 -0.8843 -0.2224 -1.4132
 6741SOL    HW221044   6.639   3.454   6.690 -0.6713  1.4199  0.0645
 6742SOL     OW21045   2.469   0.966   1.177 -0.1132 -0.5321  0.5010
 6742SOL    HW121046   2.452   0.974   1.275  1.5348 -2.0816  0.9672
 6742SOL    HW221047   2.385   0.939   1.131 -1.1272  1.0767  1.3249
 6743SOL     OW21048   3.528   1.481   2.730  0.1279 -0.7257 -0.2476
 6743SOL    HW121049   3.474   1.404   2.697  0.8603 -1.2236 -0.3344
 6743SOL    HW221050   3.542   1.547   2.656 -1.1954 -0.0919  0.0448
 6744SOL     OW21051   0.268   6.620   0.122 -0.2250  0.1063  0.0773
 6744SOL    HW121052   0.276   6.717   0.099  0.6038  0.3841  1.4283
 6744SOL    HW221053   0.323   6.566   0.058  0.5004  0.6693  0.2105
 6745SOL     OW21054   2.480   2.744   6.391  0.4515  0.2959  0.0338
 6745SOL    HW121055   2.469   2.835   6.351 -1.6001  0.0668 -0.0009
 6745SOL    HW221056   2.406   2.726   6.456  1.0977 -1.1660  0.4220
 6746SOL     OW21057   3.157   3.528   6.674 -0.0589  0.1160  0.1516
 6746SOL    HW121058   3.208   3.565   6.597  0.6792  1.3218  1.1817
 6746SOL    HW221059   3.069   3.576   6.682 -0.3116 -0.2831 -0.1588
 6747SOL     OW21060   3.167   1.961   6.584  0.2201  0.4931  0.1466
 6747SOL    HW121061   3.247   2.017   6.561 -0.0825  0.6981 -0.4288
 6747SOL    HW221062   3.090   2.021   6.608  0.0906  0.3059  0.2100
 6748SOL     OW21063   6.038   0.678   1.270 -0.1133  0.6786  0.0976
 6748SOL    HW121064   6.106   0.616   1.230 -0.7792  0.1630 -0.2509
 6748SOL    HW221065   6.020   0.650   1.364 -0.1195  0.5786  0.0678
 6749SOL     OW21066   4.602   1.977   6.218  0.0090  0.7720  0.7046
 6749SOL    HW121067   4.560   1.898   6.263 -0.1896  1.6530  2.1086
 6749SOL    HW221068   4.607   1.960   6.119  0.6185 -1.2777  1.0469
 6750SOL     OW21069   3.139   3.421   4.346  0.0549  0.0713 -0.0644
 6750SOL    HW121070   3.071   3.425   4.420  0.5488 -0.4569  0.4247
 6750SOL    HW221071   3.166   3.514   4.321 -0.7738  0.2858 -0.1989
 6751SOL     OW21072   0.856   4.804   0.803 -0.5604 -0.3655  0.0633
 6751SOL    HW121073   0.901   4.779   0.888  1.0650  1.3057 -0.2760
 6751SOL    HW221074   0.846   4.903   0.797 -1.7918 -0.5248 -1.1502
 6752SOL     OW21075   6.104   0.787   5.078 -0.1493  0.7280 -0.2398
 6752SOL    HW121076   6.025   0.777   5.138 -0.5128 -2.0441 -1.0648
 6752SOL    HW221077   6.073   0.811   4.986  0.2134  2.3289  0.0297
 6753SOL     OW21078   6.397   0.363   0.066  1.0858 -0.3852 -0.0691
 6753SOL    HW121079   6.302   0.371   0.038  1.0407 -0.4926  0.0523
 6753SOL    HW221080   6.402   0.342   0.164  1.2518  1.5070  0.3878
 6754SOL     OW21081   5.423   6.451   2.760  0.2500 -0.0283 -0.3270
 6754SOL    HW121082   5.447   6.430   2.665  1.1713  3.6482 -1.0707
 6754SOL    HW221083   5.505   6.448   2.817  0.3071  0.8765 -0.3472
 6755SOL     OW21084   5.059   5.316   5.349  0.2022 -0.3079  0.4514
 6755SOL    HW121085   5.063   5.232   5.402 -0.0674  0.0750  1.0956
 6755SOL    HW221086   5.151   5.353   5.338  0.0702  1.1169  3.1711
 6756SOL     OW21087   0.578   4.422   2.206 -0.0950 -0.4722  0.2100
 6756SOL    HW121088   0.521   4.497   2.173  0.7592 -0.6154 -1.7184
 6756SOL    HW221089   0.637   4.455   2.279 -1.0484  0.2271  0.6948
 6757SOL     OW21090   5.623   3.870   1.445 -0.5410 -0.1090  0.7434
 6757SOL    HW121091   5.635   3.833   1.353 -0.4512  0.1499  0.6507
 6757SOL    HW221092   5.643   3.798   1.513 -0.7105 -0.3292  0.5607
 6758SOL     OW21093   1.468   1.404   3.728  0.0616  0.7499  0.4806
 6758SOL    HW121094   1.391   1.411   3.791 -1.3695 -0.8922 -1.0042
 6758SOL    HW221095   1.458   1.323   3.670  2.4692  0.9698 -0.3646
 6759SOL     OW21096   2.010   3.010   3.258 -0.1307  0.4178 -0.3603
 6759SOL    HW121097   1.956   3.092   3.234 -1.2043 -0.3778 -0.7706
 6759SOL    HW221098   2.027   2.957   3.175  0.2674  0.0506 -0.0457
 6760SOL     OW21099   4.751   0.488   1.394  0.1143 -0.6893 -0.1163
 6760SOL    HW121100   4.851   0.499   1.397  0.1094 -0.8884  1.5177
 6760SOL    HW221101   4.713   0.552   1.328  1.2419 -0.0436 -0.1777
 6761SOL     OW21102   2.224   6.131   2.592 -0.2373 -0.4254  0.3194
 6761SOL    HW121103   2.299   6.123   2.526 -1.0760  0.0684 -0.7299
 6761SOL    HW221104   2.222   6.225   2.627  0.3877 -0.7634  1.2819
 6762SOL     OW21105   6.077   4.347   5.293 -0.4848 -0.3935 -0.2966
 6762SOL    HW121106   6.171   4.325   5.265 -0.8885 -2.8816  0.0974
 6762SOL    HW221107   6.037   4.269   5.341 -1.8665  1.5377  1.9499
 6763SOL     OW21108   0.714   1.536   4.461 -0.4138  0.1679  0.0266
 6763SOL    HW121109   0.616   1.548   4.475 -0.6098 -2.0199  1.0795
 6763SOL    HW221110   0.734   1.532   4.363 -1.8573 -2.1956 -0.2366
 6764SOL     OW21111   5.150   2.904   6.532 -0.1652 -0.0987 -0.3738
 6764SOL    HW121112   5.239   2.863   6.515 -0.7766 -1.4001 -0.5651
 6764SOL    HW221113   5.159   2.976   6.600  1.3802  1.3148 -1.9804
 6765SOL     OW21114   3.796   3.252   6.473  0.1775 -0.4208 -0.1492
 6765SOL    HW121115   3.740   3.322   6.517  0.0923 -1.3321  1.2712
 6765SOL    HW221116   3.738   3.173   6.450  0.5020 -0.5759 -0.4684
 6766SOL     OW21117   6.314   6.767   6.415 -0.1865  0.3844  0.4316
 6766SOL    HW121118   6.355   6.680   6.441  1.4947  1.4223  1.4791
 6766SOL    HW221119   6.384   6.823   6.369 -1.3722  1.0010 -0.6664
 6767SOL     OW21120   3.901   3.802   2.964 -0.3572  0.5946 -0.4149
 6767SOL    HW121121   3.840   3.859   3.019 -0.5637 -0.5828  0.6368
 6767SOL    HW221122   3.974   3.766   3.023  0.1110  0.2624 -1.1859
 6768SOL     OW21123   1.387   6.291   1.678 -0.3598 -0.3275  0.4534
 6768SOL    HW121124   1.428   6.297   1.769  1.0855 -1.7723 -0.0491
 6768SOL    HW221125   1.346   6.201   1.665  1.6905 -1.1301 -1.1418
 6769SOL     OW21126   1.754   5.803   3.366 -0.4151 -0.1087 -0.4543
 6769SOL    HW121127   1.693   5.813   3.287 -0.6393  0.7886 -0.1805
 6769SOL    HW221128   1.844   5.842   3.344 -1.6625  4.2634  1.0471
 6770SOL     OW21129   1.565   1.540   4.267 -0.3708  0.1743 -0.0210
 6770SOL    HW121130   1.603   1.600   4.337  0.1104  1.8613 -1.6267
 6770SOL    HW221131   1.467   1.525   4.284 -0.6283  1.8594  0.1565
 6771SOL     OW21132   4.836   4.020   4.909  0.2256  0.4550 -0.7725
 6771SOL    HW121133   4.797   3.970   4.831  0.3241 -2.5135  0.9373
 6771SOL    HW221134   4.936   4.018   4.903  0.2299  0.5599 -0.7578
 6772SOL     OW21135   6.505   1.833   4.327 -0.0631 -0.4976 -0.3080
 6772SOL    HW121136   6.490   1.746   4.279  1.4127 -0.1816 -1.4207
 6772SOL    HW221137   6.471   1.908   4.271  1.0752 -0.1621 -0.5692
 6773SOL     OW21138   4.334   4.763   1.581 -0.6546  0.0565  0.1257
 6773SOL    HW121139   4.311   4.685   1.523  0.7255 -0.4235  0.1902
 6773SOL    HW221140   4.408   4.815   1.539 -1.4978  1.3062  0.1253
 6774SOL     OW21141   0.957   1.531   5.375 -0.6389  0.4176 -0.2967
 6774SOL    HW121142   1.048   1.512   5.410 -1.0194  0.0034  0.5070
 6774SOL    HW221143   0.962   1.553   5.278  0.0568 -1.9236 -0.8427
 6775SOL     OW21144   4.047   6.297   3.864  0.1353  0.4445  0.0794
 6775SOL    HW121145   4.041   6.198   3.863 -0.3172  0.4327 -2.0971
 6775SOL    HW221146   3.963   6.335   3.902  0.2289  0.0100  0.7368
 6776SOL     OW21147   4.421   1.186   2.354 -0.2262 -0.1229 -0.6900
 6776SOL    HW121148   4.382   1.094   2.350 -1.3925  0.3869 -2.1636
 6776SOL    HW221149   4.446   1.216   2.262  0.1950  1.0018 -0.2302
 6777SOL     OW21150   3.827   5.997   1.730 -0.0164 -0.1612  0.5774
 6777SOL    HW121151   3.926   6.005   1.738 -0.0026 -1.3470  2.2781
 6777SOL    HW221152   3.803   5.921   1.670  0.1635 -0.9236  1.4415
 6778SOL     OW21153   5.074   0.751   2.872  0.4044 -0.4558 -0.4840
 6778SOL    HW121154   5.065   0.742   2.971 -2.2582 -0.5434 -0.6748
 6778SOL    HW221155   5.144   0.819   2.851  0.6487 -0.0452  1.4624
 6779SOL     OW21156   3.033   4.640   0.381 -0.1648  0.2874 -0.3193
 6779SOL    HW121157   2.993   4.585   0.455 -0.1889  0.0749 -0.4872
 6779SOL    HW221158   3.050   4.733   0.414  0.3320  0.0456  0.1242
 6780SOL     OW21159   1.416   6.282   3.336 -0.1575 -0.0786  0.2796
 6780SOL    HW121160   1.415   6.312   3.431  0.5268 -0.4113  0.4002
 6780SOL    HW221161   1.477   6.203   3.327  0.3864  0.4354 -0.5802
 6781SOL     OW21162   2.661   1.500   4.182  0.0381  0.4857 -0.1281
 6781SOL    HW121163   2.640   1.436   4.256 -1.8242  0.3539 -0.7008
 6781SOL    HW221164   2.685   1.449   4.100 -1.8516  0.4460 -0.7043
 6782SOL     OW21165   4.716   6.710   3.886 -0.0560  0.1485 -0.1818
 6782SOL    HW121166   4.800   6.732   3.936 -0.8337  2.9789  0.0156
 6782SOL    HW221167   4.637   6.724   3.944 -0.8122  0.4288 -1.2469
 6783SOL     OW21168   6.681   1.093   6.087  0.6944 -0.3430  0.5561
 6783SOL    HW121169   6.732   1.015   6.050  0.9958 -0.1487  0.5574
 6783SOL    HW221170   6.594   1.061   6.125 -0.5398 -0.3481 -2.0328
 6784SOL     OW21171   4.115   6.541   5.249 -0.0731  0.0970  0.1547
 6784SOL    HW121172   4.208   6.553   5.284  0.0002 -2.4696  1.0721
 6784SOL    HW221173   4.105   6.449   5.212 -2.1720  0.4148 -0.2005
 6785SOL     OW21174   1.822   1.301   5.452 -0.4361 -0.0962  0.9394
 6785SOL    HW121175   1.839   1.209   5.416 -0.8173  0.2359 -0.1493
 6785SOL    HW221176   1.732   1.332   5.421  0.5144  1.4327 -0.4754
 6786SOL     OW21177   5.195   5.195   1.644 -0.2100  0.0202  0.0676
 6786SOL    HW121178   5.185   5.128   1.717  3.2829  0.5982  1.2353
 6786SOL    HW221179   5.150   5.281   1.670 -1.0045 -0.5031  0.4463
 6787SOL     OW21180   5.411   2.662   2.880 -0.0755 -0.5390  0.0338
 6787SOL    HW121181   5.404   2.715   2.964 -0.3745  0.2457 -0.4750
 6787SOL    HW221182   5.438   2.568   2.902 -0.0537 -0.3197  0.9894
 6788SOL     OW21183   5.226   0.177   2.711  0.0991 -0.2482  0.4705
 6788SOL    HW121184   5.244   0.275   2.721  3.1755 -0.8163  1.5777
 6788SOL    HW221185   5.127   0.163   2.702 -0.3891  3.0470 -1.7201
 6789SOL     OW21186   5.718   5.228   2.133 -0.3595  0.5329  0.6598
 6789SOL    HW121187   5.692   5.320   2.104 -0.4000  0.2859 -0.1217
 6789SOL    HW221188   5.708   5.219   2.232 -1.2291  1.0900  0.6303
 6790SOL     OW21189   0.743   0.443   3.643 -0.1911  0.0728 -0.1344
 6790SOL    HW121190   0.685   0.373   3.600  1.2809  0.2654 -2.5397
 6790SOL    HW221191   0.716   0.533   3.611 -0.5390  0.4486  1.1550
 6791SOL     OW21192   5.858   2.068   5.375  0.3670 -0.1309  0.0448
 6791SOL    HW121193   5.859   2.168   5.367  0.0760  0.0013  1.3700
 6791SOL    HW221194   5.897   2.027   5.293  1.0325  1.0880 -0.2676
 6792SOL     OW21195   0.556   3.983   1.853 -0.0208  0.5166  0.2985
 6792SOL    HW121196   0.519   3.907   1.908  0.5775 -0.2101 -0.2744
 6792SOL    HW221197   0.536   3.967   1.757  2.2895 -0.2560 -0.1292
 6793SOL     OW21198   3.315   5.893   2.572 -0.2665  0.0531 -0.0527
 6793SOL    HW121199   3.235   5.953   2.580  0.9650  1.9190 -1.0896
 6793SOL    HW221200   3.308   5.839   2.488 -0.3602  0.2802 -0.1925
 6794SOL     OW21201   1.301   4.573   4.865 -0.1884  0.4110  0.5286
 6794SOL    HW121202   1.358   4.652   4.842  1.3391 -0.5519  0.8777
 6794SOL    HW221203   1.205   4.596   4.851  0.2569  2.1580  0.1348
 6795SOL     OW21204   4.587   6.899   0.105 -0.5439 -0.1791 -0.2888
 6795SOL    HW121205   4.637   6.967   0.158  0.4105 -0.4989 -0.7682
 6795SOL    HW221206   4.496   6.887   0.145  0.2365 -0.6094  1.4410
 6796SOL     OW21207   5.320   4.898   6.573 -0.0292  0.6711 -0.1907
 6796SOL    HW121208   5.228   4.905   6.535 -1.0277  0.7812  2.0385
 6796SOL    HW221209   5.347   4.802   6.579 -0.3715  0.5845 -0.0311
 6797SOL     OW21210   4.798   2.847   3.430  0.3343  0.6765 -0.1987
 6797SOL    HW121211   4.780   2.766   3.487 -2.1950  0.1086 -1.6377
 6797SOL    HW221212   4.778   2.929   3.482  3.3871  0.5116  1.4440
 6798SOL     OW21213   5.117   5.534   1.018 -1.4837 -0.0709 -0.5650
 6798SOL    HW121214   5.053   5.600   1.057  0.5537  0.6587  1.7181
 6798SOL    HW221215   5.190   5.583   0.971 -0.4802 -0.7098  0.3029
 6799SOL     OW21216   4.558   5.527   5.800 -0.3450 -0.1259  0.1068
 6799SOL    HW121217   4.644   5.559   5.761 -0.0948 -0.0521  0.7067
 6799SOL    HW221218   4.548   5.429   5.784 -0.9202  0.1450 -1.3850
 6800SOL     OW21219   1.185   2.724   6.903  0.2240 -0.3691  0.0084
 6800SOL    HW121220   1.185   2.626   6.923 -1.0682 -0.2785  0.5311
 6800SOL    HW221221   1.250   2.771   6.963 -0.6677 -0.6423  1.2270
 6801SOL     OW21222   4.673   1.941   3.794 -0.0489 -0.3158  0.0164
 6801SOL    HW121223   4.709   1.847   3.795 -0.3148 -0.4262 -0.4089
 6801SOL    HW221224   4.653   1.968   3.700 -0.0588  0.1385  0.1466
 6802SOL     OW21225   2.025   5.876   2.119  0.2539 -0.2506  0.7297
 6802SOL    HW121226   1.990   5.798   2.067  0.9331  0.4610 -0.8427
 6802SOL    HW221227   1.953   5.945   2.129  0.6134  0.3534 -0.7738
 6803SOL     OW21228   4.710   3.309   7.003 -0.2248  0.5312 -0.3477
 6803SOL    HW121229   4.705   3.350   7.094  1.0173 -0.8902  0.4089
 6803SOL    HW221230   4.636   3.244   6.991  0.0641  0.1419 -0.0451
 6804SOL     OW21231   2.529   3.887   5.620  0.5784 -0.3149 -0.4124
 6804SOL    HW121232   2.440   3.853   5.648  1.1119 -0.9397  0.6013
 6804SOL    HW221233   2.550   3.855   5.528 -0.0331 -0.5768 -0.4657
 6805SOL     OW21234   1.530   1.001   2.369  0.1793  0.6161 -0.3266
 6805SOL    HW121235   1.582   1.002   2.283  1.1962  1.3145  0.2785
 6805SOL    HW221236   1.516   1.095   2.400  0.4444  0.3420  0.6367
 6806SOL     OW21237   4.425   5.766   4.726 -0.0266 -0.0117  0.2401
 6806SOL    HW121238   4.340   5.727   4.689 -0.2813 -1.2097  1.9922
 6806SOL    HW221239   4.487   5.788   4.651 -1.6340  0.3082 -1.0458
 6807SOL     OW21240   5.469   1.550   0.921 -0.3101 -0.2430 -0.3132
 6807SOL    HW121241   5.514   1.512   1.002 -0.6258  1.3703  0.6554
 6807SOL    HW221242   5.460   1.649   0.931 -0.3225  0.0114 -2.3532
 6808SOL     OW21243   0.016   0.295   2.373 -0.1892  0.1282 -0.5872
 6808SOL    HW121244  -0.010   0.358   2.300  1.3223  0.4477 -0.8918
 6808SOL    HW221245   0.084   0.230   2.337  0.2302  0.0065  0.4068
 6809SOL     OW21246   3.329   6.070   5.513 -0.0598  0.4465 -0.3377
 6809SOL    HW121247   3.388   6.009   5.461 -1.1260 -2.0483  1.1628
 6809SOL    HW221248   3.242   6.082   5.465 -1.3550 -2.4891  0.9785
 6810SOL     OW21249   6.040   5.206   2.267  0.4788 -0.1609  0.0160
 6810SOL    HW121250   6.113   5.268   2.296  0.0734  0.2384  0.1798
 6810SOL    HW221251   5.956   5.258   2.252 -0.3577 -0.8935  1.8934
 6811SOL     OW21252   0.898   2.413   4.269  0.2941  0.1109  0.5623
 6811SOL    HW121253   0.938   2.503   4.284 -1.0035  0.4554  2.3708
 6811SOL    HW221254   0.960   2.342   4.304  0.7704  0.4093  0.3119
 6812SOL     OW21255   4.300   4.126   6.700 -0.2927  0.3448 -0.0070
 6812SOL    HW121256   4.345   4.209   6.734  0.4343 -0.5975  1.3927
 6812SOL    HW221257   4.369   4.055   6.687 -1.0524 -0.3564 -0.2052
 6813SOL     OW21258   1.248   3.130   5.321 -0.1872  0.4507 -0.4174
 6813SOL    HW121259   1.177   3.200   5.333 -2.5903 -1.6202 -1.5543
 6813SOL    HW221260   1.231   3.055   5.385  1.8502  0.4514  0.2072
 6814SOL     OW21261   0.116   4.819   1.341  0.3344 -0.5188  0.3480
 6814SOL    HW121262   0.102   4.918   1.334  1.2059 -0.4503 -0.7612
 6814SOL    HW221263   0.037   4.777   1.385 -0.3612  0.5852  0.1815
 6815SOL     OW21264   3.722   4.333   2.395 -0.3727 -0.1320 -0.2310
 6815SOL    HW121265   3.724   4.429   2.368  1.3028 -0.2254 -0.5850
 6815SOL    HW221266   3.723   4.276   2.313  1.8001 -0.4182 -0.0742
 6816SOL     OW21267   6.772   5.786   5.307  0.0134 -0.3505  0.0632
 6816SOL    HW121268   6.867   5.818   5.300 -0.0203 -0.1978  0.2940
 6816SOL    HW221269   6.730   5.825   5.388 -0.7316  0.8638 -0.8632
 6817SOL     OW21270   6.055   5.632   1.763  0.4349 -0.5413 -0.1849
 6817SOL    HW121271   6.066   5.658   1.667  0.8286  1.6653  0.3937
 6817SOL    HW221272   6.135   5.663   1.815 -0.6533  0.0959  1.1711
 6818SOL     OW21273   6.623   2.427   3.810 -0.5400  0.0763  0.6523
 6818SOL    HW121274   6.552   2.459   3.746 -0.4134 -2.7473 -1.1010
 6818SOL    HW221275   6.697   2.494   3.814 -2.2455  2.0526  0.7748
 6819SOL     OW21276   2.477   2.699   2.213 -0.3614  0.2983 -0.3715
 6819SOL    HW121277   2.518   2.737   2.130  0.7095 -0.3436 -0.1519
 6819SOL    HW221278   2.385   2.666   2.193  0.1466 -0.4952 -1.4845
 6820SOL     OW21279   6.392   2.382   1.491 -0.3180  0.1941 -0.4685
 6820SOL    HW121280   6.383   2.456   1.558 -1.0199 -1.1660  0.9988
 6820SOL    HW221281   6.486   2.348   1.492 -0.2797  0.2998 -0.3352
 6821SOL     OW21282   0.963   4.384   0.586 -0.1781  0.7874  0.2970
 6821SOL    HW121283   1.014   4.326   0.523  3.8408  1.4982  2.5396
 6821SOL    HW221284   0.867   4.358   0.585  0.5874 -2.6545 -2.2053
 6822SOL     OW21285   0.142   1.150   3.550 -0.0405 -0.0875  0.5164
 6822SOL    HW121286   0.172   1.201   3.469 -0.3312 -0.2770  0.2845
 6822SOL    HW221287   0.042   1.151   3.554 -0.4064 -4.2381 -1.9443
 6823SOL     OW21288   2.652   5.903   5.832  0.0201  0.2289  0.2814
 6823SOL    HW121289   2.588   5.933   5.903  0.8884  1.6107  0.5263
 6823SOL    HW221290   2.619   5.935   5.742 -0.3679 -0.3324  0.2156
 6824SOL     OW21291   3.503   4.922   5.793  0.1022  0.1829  0.1676
 6824SOL    HW121292   3.550   4.935   5.706  1.4451  1.1136  0.9966
 6824SOL    HW221293   3.563   4.872   5.856  0.3493  2.0275  1.5010
 6825SOL     OW21294   1.234   1.244   3.216 -0.9568 -0.0586 -0.1042
 6825SOL    HW121295   1.202   1.218   3.307  2.0880  1.3134  1.5378
 6825SOL    HW221296   1.303   1.178   3.185 -0.3880  0.6531 -0.3952
 6826SOL     OW21297   6.099   6.034   3.788 -0.3223  0.0145  1.0441
 6826SOL    HW121298   6.047   6.016   3.871  1.0546  1.9438  2.4205
 6826SOL    HW221299   6.156   6.115   3.801  2.9631 -1.8486 -0.3779
 6827SOL     OW21300   0.041   1.503   1.044  0.0462  0.4821 -0.2008
 6827SOL    HW121301   0.044   1.528   1.141  1.7884  0.2025 -0.1622
 6827SOL    HW221302  -0.026   1.429   1.031  1.6042 -1.2457  1.2361
 6828SOL     OW21303   3.908   1.647   4.582  0.3394 -0.3155 -0.0842
 6828SOL    HW121304   3.846   1.666   4.658  0.5881 -0.2487  0.1024
 6828SOL    HW221305   3.866   1.678   4.496  0.6616  0.9068  0.1907
 6829SOL     OW21306   5.135   2.562   0.638  0.2603  0.0150  0.5782
 6829SOL    HW121307   5.080   2.480   0.655  0.2921  0.0355  0.7919
 6829SOL    HW221308   5.115   2.630   0.710 -0.2527  0.4480  0.0390
 6830SOL     OW21309   1.576   4.605   2.576  0.0969 -0.3433  0.1785
 6830SOL    HW121310   1.674   4.625   2.576  0.0337  0.0411 -1.1778
 6830SOL    HW221311   1.534   4.649   2.656  1.1848 -1.4586  1.3941
 6831SOL     OW21312   0.998   0.838   4.133 -0.1258 -0.0510  0.8858
 6831SOL    HW121313   0.952   0.751   4.116 -2.1216  1.3982 -1.9108
 6831SOL    HW221314   1.096   0.823   4.140 -0.4729 -2.5779  1.1498
 6832SOL     OW21315   1.022   4.856   1.674  0.2044 -0.4207 -0.4339
 6832SOL    HW121316   1.113   4.892   1.658  0.2000 -0.9441 -1.6943
 6832SOL    HW221317   0.959   4.892   1.605 -0.7051  0.4823  0.8214
 6833SOL     OW21318   2.744   1.028   1.908 -0.2572 -0.1568  0.0498
 6833SOL    HW121319   2.657   0.997   1.947 -0.6261  1.3309  0.4918
 6833SOL    HW221320   2.732   1.119   1.869  1.4850  0.8687  1.7117
 6834SOL     OW21321   5.198   1.051   3.419  0.3670  0.6903 -0.1818
 6834SOL    HW121322   5.162   1.122   3.479  2.1291  0.3361  1.3951
 6834SOL    HW221323   5.232   1.092   3.334  1.4841  1.7973  0.7594
 6835SOL     OW21324   4.220   6.760   0.474 -0.0204 -0.0109 -1.3117
 6835SOL    HW121325   4.220   6.691   0.401  0.4641 -1.5860  0.1232
 6835SOL    HW221326   4.311   6.766   0.514 -0.6313 -0.4069  0.2482
 6836SOL     OW21327   3.406   1.153   4.474  0.0518 -0.3736 -0.2381
 6836SOL    HW121328   3.441   1.084   4.411 -2.0880 -1.5294 -0.2437
 6836SOL    HW221329   3.329   1.201   4.432 -0.3925 -0.0480  0.8979
 6837SOL     OW21330   6.193   2.789   3.171 -0.2724  0.1011  0.5643
 6837SOL    HW121331   6.109   2.739   3.189  0.6354 -0.9410  2.0420
 6837SOL    HW221332   6.253   2.734   3.113  0.8224 -0.7120  2.3798
 6838SOL     OW21333   1.594   1.154   4.442 -0.2852  0.4762 -0.2802
 6838SOL    HW121334   1.678   1.135   4.492 -0.1460 -1.5380 -1.1569
 6838SOL    HW221335   1.535   1.074   4.444 -2.6837  2.1735  1.1366
 6839SOL     OW21336   3.496   0.696   6.933  0.2080  0.5142 -0.0208
 6839SOL    HW121337   3.497   0.624   7.003 -3.4834  0.3775  0.0158
 6839SOL    HW221338   3.536   0.659   6.849 -0.4049 -1.1635  0.3808
 6840SOL     OW21339   5.173   6.461   4.978 -0.1689 -0.4458 -0.0746
 6840SOL    HW121340   5.262   6.493   5.011 -0.0214  0.7208 -1.4935
 6840SOL    HW221341   5.101   6.492   5.041  0.3132 -0.4334  0.4804
 6841SOL     OW21342   6.345   0.234   3.634  0.1496  0.2268  0.0355
 6841SOL    HW121343   6.387   0.292   3.704 -1.3022  0.7431  0.5119
 6841SOL    HW221344   6.260   0.276   3.603 -1.0696 -1.7295  0.5761
 6842SOL     OW21345   1.187   2.820   5.484  0.0687  0.8916 -0.2467
 6842SOL    HW121346   1.251   2.832   5.408  0.7879 -0.2680  0.1496
 6842SOL    HW221347   1.201   2.730   5.525 -0.4436  1.4280  1.1501
 6843SOL     OW21348   6.594   1.685   6.626  0.0405  0.5221  0.7588
 6843SOL    HW121349   6.540   1.660   6.706  0.2248 -1.5405  0.2935
 6843SOL    HW221350   6.691   1.668   6.643  0.3532  2.1978  0.8419
 6844SOL     OW21351   4.996   4.018   3.771  0.1746 -1.0037  0.1082
 6844SOL    HW121352   4.902   4.004   3.804 -0.3118  1.4178 -0.1493
 6844SOL    HW221353   4.995   4.076   3.690  1.8273 -2.0244 -0.6837
 6845SOL     OW21354   5.730   0.642   5.490  0.6443 -0.3503 -0.1031
 6845SOL    HW121355   5.669   0.642   5.411  0.6380  1.3936 -0.1548
 6845SOL    HW221356   5.798   0.714   5.479  2.3469 -1.8289  0.2580
 6846SOL     OW21357   2.179   3.858   1.327 -0.0432  0.0953 -0.3584
 6846SOL    HW121358   2.181   3.860   1.427 -0.5232 -0.4546 -0.3305
 6846SOL    HW221359   2.177   3.763   1.295  0.8638  0.2460 -0.9099
 6847SOL     OW21360   1.023   6.218   5.989  1.0411 -0.3652 -0.2610
 6847SOL    HW121361   1.112   6.259   6.012  1.2023  0.4020 -2.1301
 6847SOL    HW221362   1.003   6.145   6.055  2.5299  0.1748  0.8644
 6848SOL     OW21363   0.062   3.007   1.302  0.2293 -0.6180 -0.2758
 6848SOL    HW121364  -0.008   3.038   1.237  0.5360  1.3626  0.2988
 6848SOL    HW221365   0.126   2.946   1.255 -0.7888 -0.9741 -1.2692
 6849SOL     OW21366   0.657   0.670   3.497 -0.2307 -0.1539  0.5434
 6849SOL    HW121367   0.630   0.762   3.525 -0.1521 -0.3536  1.3090
 6849SOL    HW221368   0.659   0.664   3.398 -1.0070  0.4427  0.4855
 6850SOL     OW21369   6.888   1.834   2.526 -0.7997 -0.1598  0.0622
 6850SOL    HW121370   6.955   1.908   2.519 -1.8685  0.9287  0.9285
 6850SOL    HW221371   6.878   1.807   2.622  0.8391 -2.6945 -0.3755
 6851SOL     OW21372   4.638   2.174   3.919 -0.3411  0.2220  0.2472
 6851SOL    HW121373   4.539   2.165   3.920 -0.3476  0.2522 -0.0018
 6851SOL    HW221374   4.678   2.101   3.864 -0.1396 -0.5361  1.3840
 6852SOL     OW21375   1.208   2.679   6.201  0.1457  0.0358  0.1918
 6852SOL    HW121376   1.108   2.682   6.207  0.1023  0.3198 -0.5832
 6852SOL    HW221377   1.247   2.759   6.248 -0.1159  1.3459 -1.6868
 6853SOL     OW21378   4.431   4.975   3.094 -1.0944  0.3115 -0.2155
 6853SOL    HW121379   4.460   5.018   3.179 -0.8533  0.8726 -0.5782
 6853SOL    HW221380   4.379   5.041   3.039  1.1847  0.8976 -1.7908
 6854SOL     OW21381   1.841   2.251   6.684  0.4169 -0.5329  0.5091
 6854SOL    HW121382   1.918   2.194   6.654  0.3777 -1.0552  1.3390
 6854SOL    HW221383   1.859   2.284   6.777  0.0996  0.1977  0.3184
 6855SOL     OW21384   5.067   5.233   4.485 -0.6375  0.4269 -0.3689
 6855SOL    HW121385   5.074   5.301   4.558  0.8578 -0.0492 -0.0418
 6855SOL    HW221386   5.102   5.272   4.400  0.0977  0.1206 -0.2120
 6856SOL     OW21387   6.552   1.109   6.394  0.3193  0.0579  1.3824
 6856SOL    HW121388   6.599   1.027   6.363  0.5837 -0.0644  2.0944
 6856SOL    HW221389   6.620   1.180   6.415  0.3012 -0.5271  3.6372
 6857SOL     OW21390   3.544   6.371   6.018  0.3152 -0.1960  0.0532
 6857SOL    HW121391   3.622   6.350   5.958 -0.2789  0.0991 -0.8303
 6857SOL    HW221392   3.561   6.330   6.108  1.2454 -0.5990 -0.2822
 6858SOL     OW21393   6.170   0.042   6.786 -0.4673 -0.0740 -0.1421
 6858SOL    HW121394   6.085   0.075   6.828 -0.5430  0.8267 -0.9699
 6858SOL    HW221395   6.239   0.029   6.856 -0.5347  1.5620  0.2772
 6859SOL     OW21396   0.393   0.587   4.959  0.0646 -0.0117  0.2994
 6859SOL    HW121397   0.383   0.498   5.004  3.4234  0.5707  2.5605
 6859SOL    HW221398   0.490   0.611   4.954 -0.5021  2.1747 -3.1958
 6860SOL     OW21399   0.816   5.751   1.241 -0.1340 -0.4329  0.1903
 6860SOL    HW121400   0.784   5.830   1.189 -0.4091 -1.1746 -0.8189
 6860SOL    HW221401   0.908   5.727   1.211  0.1677 -0.1922  0.8799
 6861SOL     OW21402   1.567   2.805   0.358 -0.1218  0.0013  0.0730
 6861SOL    HW121403   1.581   2.807   0.457  3.4450 -1.6325 -0.2456
 6861SOL    HW221404   1.548   2.711   0.329 -1.7755  0.5642 -0.8039
 6862SOL     OW21405   2.855   6.426   0.096 -0.1204  0.4595 -0.0262
 6862SOL    HW121406   2.876   6.378   0.010  1.9008 -0.7701  1.0726
 6862SOL    HW221407   2.794   6.503   0.077 -1.4782 -1.0383 -2.2308
 6863SOL     OW21408   1.968   2.929   2.981 -0.4469  0.9161 -0.0363
 6863SOL    HW121409   1.871   2.906   2.968 -1.0618  2.4708  1.4237
 6863SOL    HW221410   1.995   3.000   2.915 -0.1899  0.2813 -0.6330
 6864SOL     OW21411   6.509   6.375   6.595 -0.8994  0.1005  0.0650
 6864SOL    HW121412   6.506   6.277   6.573  0.0876  0.4345 -1.8289
 6864SOL    HW221413   6.520   6.387   6.694 -1.6131 -1.6765  0.3964
 6865SOL     OW21414   6.399   5.040   0.086 -0.5030  0.0404 -0.4008
 6865SOL    HW121415   6.450   5.005   0.164 -0.3172  1.0863 -0.0322
 6865SOL    HW221416   6.309   5.074   0.117 -0.6262  0.0063 -0.7153
 6866SOL     OW21417   3.129   6.243   2.617 -0.0290  0.2730 -0.4306
 6866SOL    HW121418   3.114   6.342   2.622 -2.6321 -0.1345  1.7435
 6866SOL    HW221419   3.212   6.220   2.667 -0.4471  1.2168  0.7607
 6867SOL     OW21420   4.267   1.897   3.855  0.3624  0.4011  0.6360
 6867SOL    HW121421   4.315   1.926   3.937  3.0782  0.9629 -1.0472
 6867SOL    HW221422   4.312   1.816   3.817  0.2318  1.1520 -1.2042
 6868SOL     OW21423   0.400   0.282   0.605  0.2356 -0.1549 -0.4920
 6868SOL    HW121424   0.453   0.209   0.649  1.1912  0.1587 -1.0807
 6868SOL    HW221425   0.312   0.292   0.651  1.4358  0.5980  1.7898
 6869SOL     OW21426   1.653   0.532   5.728  0.7546  0.0499 -0.2652
 6869SOL    HW121427   1.630   0.545   5.825 -0.1796 -0.5760 -0.3888
 6869SOL    HW221428   1.572   0.551   5.672  1.0656 -0.3877 -0.8653
 6870SOL     OW21429   6.410   1.728   1.290 -0.1875  0.2999 -0.1366
 6870SOL    HW121430   6.381   1.799   1.354  2.2011  0.6569  0.6619
 6870SOL    HW221431   6.475   1.766   1.225 -0.7602 -0.6105 -1.2704
 6871SOL     OW21432   2.410   1.111   6.591  0.0339 -0.1675 -0.2299
 6871SOL    HW121433   2.501   1.130   6.628 -0.0872 -0.2350  0.1088
 6871SOL    HW221434   2.377   1.190   6.539  0.5468 -0.3772 -0.8848
 6872SOL     OW21435   5.461   1.819   2.851 -0.9313  0.3433  0.2480
 6872SOL    HW121436   5.543   1.794   2.902  0.7648 -0.3892 -2.6339
 6872SOL    HW221437   5.458   1.918   2.839  0.3636  0.2817 -0.8302
 6873SOL     OW21438   5.902   5.500   2.445 -0.3322 -0.2249  0.5100
 6873SOL    HW121439   5.911   5.487   2.346 -0.2746  2.3225  0.1156
 6873SOL    HW221440   5.985   5.467   2.490 -0.2417 -1.1642 -0.2900
 6874SOL     OW21441   0.282   3.292   2.235  0.1516  0.0264 -0.9431
 6874SOL    HW121442   0.236   3.271   2.149 -0.9672  2.1737 -0.9286
 6874SOL    HW221443   0.229   3.256   2.312 -0.6599  1.0758 -1.0038
 6875SOL     OW21444   4.399   2.772   0.066  0.1918 -0.2849 -0.8429
 6875SOL    HW121445   4.452   2.696   0.029  1.0708 -0.9453  1.6218
 6875SOL    HW221446   4.424   2.856   0.016  2.3378 -0.8723 -0.8842
 6876SOL     OW21447   3.760   6.286   2.946  0.2463 -0.4509 -0.3113
 6876SOL    HW121448   3.769   6.358   3.014  2.3725 -0.4708 -0.5182
 6876SOL    HW221449   3.778   6.324   2.855 -0.6311 -0.8216 -0.6441
 6877SOL     OW21450   1.105   4.572   3.266  0.2521 -0.2113 -0.0813
 6877SOL    HW121451   1.115   4.631   3.346  1.8121  0.8144 -0.9639
 6877SOL    HW221452   1.189   4.519   3.253 -0.7887 -2.0419  0.1850
 6878SOL     OW21453   3.890   5.050   2.554 -0.9440 -0.2677  0.1494
 6878SOL    HW121454   3.938   4.996   2.484  2.4750  2.0640  0.4338
 6878SOL    HW221455   3.952   5.067   2.631 -2.4579  2.4785  0.8963
 6879SOL     OW21456   2.036   2.072   6.910 -0.9691 -0.4961 -0.4004
 6879SOL    HW121457   1.999   2.149   6.962  0.4529  0.3375 -0.5548
 6879SOL    HW221458   2.071   2.105   6.822 -0.2568 -1.3075 -0.4291
 6880SOL     OW21459   5.488   5.657   4.363  0.3271  0.0722  0.4132
 6880SOL    HW121460   5.413   5.595   4.338  0.4146 -0.4751  1.4515
 6880SOL    HW221461   5.455   5.751   4.361 -0.2689 -0.1282  0.4730
 6881SOL     OW21462   0.456   7.000   3.522 -0.1385  0.4143  0.2227
 6881SOL    HW121463   0.387   6.990   3.450 -0.4427  0.6996  0.4588
 6881SOL    HW221464   0.519   6.923   3.521  0.1353  0.6469 -0.6623
 6882SOL     OW21465   1.052   5.674   1.141  0.3292 -0.1691  0.0333
 6882SOL    HW121466   1.034   5.637   1.050 -1.3467  0.6210  0.0067
 6882SOL    HW221467   1.119   5.749   1.134  1.0648 -0.8463 -0.3697
 6883SOL     OW21468   0.434   0.397   3.896  0.0408  0.6909 -0.2959
 6883SOL    HW121469   0.446   0.459   3.974 -0.1230  2.5775 -1.7055
 6883SOL    HW221470   0.455   0.303   3.925  0.7079  1.4195  1.8039
 6884SOL     OW21471   1.637   2.534   4.301  0.0428 -0.1619 -0.2620
 6884SOL    HW121472   1.544   2.498   4.289 -0.4745  1.6964 -2.4191
 6884SOL    HW221473   1.645   2.574   4.392 -1.0893 -0.8098  0.1533
 6885SOL     OW21474   0.446   3.187   3.203  0.1951 -0.1117  0.0658
 6885SOL    HW121475   0.522   3.142   3.249  1.6351  0.0711 -1.9788
 6885SOL    HW221476   0.402   3.251   3.266  2.1956  0.3080  1.1132
 6886SOL     OW21477   5.969   0.734   1.941  0.3057 -0.3845  0.1207
 6886SOL    HW121478   5.945   0.639   1.961  0.5104 -0.4385  0.1158
 6886SOL    HW221479   5.959   0.789   2.023 -0.8489 -0.2029 -0.1259
 6887SOL     OW21480   6.937   0.579   1.130 -0.5704 -0.1846  0.6723
 6887SOL    HW121481   6.975   0.671   1.117  0.9485 -0.6659  1.3568
 6887SOL    HW221482   6.905   0.544   1.042 -0.1726  0.5980  0.2049
 6888SOL     OW21483   1.086   4.193   6.413 -0.4896 -0.1282  0.8506
 6888SOL    HW121484   1.045   4.138   6.340  0.6607 -0.2151  0.2443
 6888SOL    HW221485   1.035   4.279   6.422 -0.7814 -0.2095  0.0867
 6889SOL     OW21486   3.340   1.126   5.408 -0.1386 -0.4756 -0.3453
 6889SOL    HW121487   3.439   1.134   5.411 -0.1169 -1.0389  1.4885
 6889SOL    HW221488   3.313   1.034   5.437 -1.2218 -0.1592 -0.2812
 6890SOL     OW21489   6.694   6.435   4.885 -0.3785  0.1625 -0.0744
 6890SOL    HW121490   6.769   6.496   4.910 -0.0671  0.8634 -2.4373
 6890SOL    HW221491   6.651   6.468   4.800 -3.7589  0.1195  1.4245
 6891SOL     OW21492   3.049   1.574   4.481  0.2410  0.1601 -0.0688
 6891SOL    HW121493   3.093   1.662   4.498 -1.1396  0.8712 -0.0174
 6891SOL    HW221494   3.068   1.545   4.388  1.8677 -0.1931  0.3471
 6892SOL     OW21495   6.067   5.928   0.451  0.1589  0.1399 -0.1250
 6892SOL    HW121496   6.024   5.845   0.416  1.4703 -0.6377  0.0687
 6892SOL    HW221497   6.047   5.937   0.549  0.4295 -0.2153 -0.0364
 6893SOL     OW21498   6.204   4.396   0.085 -0.4974 -0.1605 -0.0497
 6893SOL    HW121499   6.160   4.420   0.171 -0.0957 -0.3614  0.2141
 6893SOL    HW221500   6.197   4.472   0.021  0.3517  0.4825  0.6147
 6894SOL     OW21501   6.679   5.310   0.281 -0.3416  0.5864  0.0678
 6894SOL    HW121502   6.596   5.344   0.238 -0.2409  0.1461 -0.4945
 6894SOL    HW221503   6.758   5.358   0.244 -0.1610 -0.5283 -1.0500
 6895SOL     OW21504   3.825   1.652   1.977 -0.9451  0.2314  0.1050
 6895SOL    HW121505   3.797   1.638   1.882  2.2868  0.9209 -1.0879
 6895SOL    HW221506   3.908   1.599   1.996 -2.1783 -0.9042  3.0355
 6896SOL     OW21507   6.892   3.324   4.222  0.0109 -0.1413  0.3638
 6896SOL    HW121508   6.947   3.328   4.305 -1.6098 -1.4283  1.5713
 6896SOL    HW221509   6.843   3.237   4.219  1.3187 -0.9033 -2.8310
 6897SOL     OW21510   4.817   2.244   1.252 -0.3987  0.0621  0.1282
 6897SOL    HW121511   4.881   2.201   1.316  0.0828 -1.3755 -1.2671
 6897SOL    HW221512   4.860   2.323   1.210 -0.6121  0.8419  1.3295
 6898SOL     OW21513   3.748   3.760   4.093 -0.7905 -0.3536  0.3451
 6898SOL    HW121514   3.733   3.795   4.001  0.3641 -0.3214  0.1447
 6898SOL    HW221515   3.704   3.820   4.160  0.7172  1.2479 -0.0303
 6899SOL     OW21516   0.441   5.111   5.163  0.6161  0.6681  0.4748
 6899SOL    HW121517   0.385   5.055   5.224 -0.5121 -0.9695 -1.8886
 6899SOL    HW221518   0.534   5.073   5.159  0.2371 -0.2559 -0.0430
 6900SOL     OW21519   1.541   2.582   1.759  0.5592  0.1568  0.1381
 6900SOL    HW121520   1.544   2.572   1.858 -1.2244 -0.2534  0.1834
 6900SOL    HW221521   1.598   2.512   1.717 -0.6003 -1.2771  0.8448
 6901SOL     OW21522   4.523   3.004   5.605 -0.2893  0.6060 -0.5941
 6901SOL    HW121523   4.580   2.967   5.532 -0.3112 -0.0255 -0.3024
 6901SOL    HW221524   4.548   3.099   5.622  0.2834  0.5095 -0.8640
 6902SOL     OW21525   1.317   1.293   5.753  0.7131  0.1311 -0.2013
 6902SOL    HW121526   1.413   1.316   5.769  0.7420 -0.9525  1.4588
 6902SOL    HW221527   1.279   1.355   5.685  2.3497  1.1356 -0.2677
 6903SOL     OW21528   6.062   6.686   5.590 -0.2235  0.5553  0.1771
 6903SOL    HW121529   6.112   6.706   5.675 -0.2939 -1.5208  0.7530
 6903SOL    HW221530   6.085   6.594   5.559 -2.1816  0.2960 -0.6289
 6904SOL     OW21531   1.480   5.314   6.481  0.1081  0.6266 -0.1705
 6904SOL    HW121532   1.423   5.367   6.543 -1.5663 -1.7676  0.4677
 6904SOL    HW221533   1.429   5.293   6.398  0.6464 -0.2177 -0.3041
 6905SOL     OW21534   5.262   1.814   2.381 -0.1587  0.3073 -0.6102
 6905SOL    HW121535   5.280   1.721   2.413 -0.1505  0.4932 -0.0709
 6905SOL    HW221536   5.166   1.822   2.355 -0.3414  0.3496  0.0438
 6906SOL     OW21537   3.114   0.474   4.024  0.0240  0.6649  0.3500
 6906SOL    HW121538   3.203   0.451   3.983 -0.2603  0.4784 -0.1757
 6906SOL    HW221539   3.121   0.561   4.072  0.2105  1.2253 -0.6551
 6907SOL     OW21540   0.729   3.046   0.720 -0.1781 -0.7959  0.1829
 6907SOL    HW121541   0.766   3.112   0.654  0.4898 -0.0053  1.3119
 6907SOL    HW221542   0.803   2.988   0.753 -0.3620 -0.7322  0.7349
 6908SOL     OW21543   4.357   6.291   5.389  0.3932  0.0363  0.1149
 6908SOL    HW121544   4.265   6.269   5.355  0.2662  0.6049  0.0666
 6908SOL    HW221545   4.393   6.369   5.338  1.5708 -1.1595 -0.9709
 6909SOL     OW21546   0.039   1.604   1.344 -0.6371 -0.0242  0.2813
 6909SOL    HW121547   0.020   1.699   1.319  0.9883  0.4993  0.8486
 6909SOL    HW221548  -0.035   1.569   1.402 -2.1335  0.2527 -1.4082
 6910SOL     OW21549   0.136   0.527   3.254 -0.3130  0.7272 -0.1314
 6910SOL    HW121550   0.085   0.503   3.172 -0.7951 -4.3633  1.2990
 6910SOL    HW221551   0.232   0.501   3.244 -0.2132  0.7503  0.6367
 6911SOL     OW21552   5.620   5.416   6.493 -0.0170  0.3596  0.2838
 6911SOL    HW121553   5.531   5.433   6.534 -0.0177  1.1687 -0.0251
 6911SOL    HW221554   5.617   5.332   6.439 -0.5535  0.3281  0.3570
 6912SOL     OW21555   3.234   0.825   6.952  0.7681  0.1738  0.3028
 6912SOL    HW121556   3.321   0.778   6.967  0.4511 -0.0264  1.6640
 6912SOL    HW221557   3.159   0.759   6.960  0.4938  0.3387 -0.8818
 6913SOL     OW21558   4.718   0.277   4.071 -0.0003  0.0612 -0.6729
 6913SOL    HW121559   4.690   0.266   3.976 -1.1776  2.9168 -0.7864
 6913SOL    HW221560   4.785   0.352   4.077  1.3564 -1.2044  0.5827
 6914SOL     OW21561   5.722   0.146   1.194  0.0593  0.4978 -0.2108
 6914SOL    HW121562   5.691   0.229   1.239 -1.4959 -1.2819  2.2038
 6914SOL    HW221563   5.786   0.097   1.254 -2.9335 -2.5286  0.7813
 6915SOL     OW21564   3.438   1.374   4.827 -0.3683 -0.5129 -0.5152
 6915SOL    HW121565   3.430   1.383   4.728 -2.4666  0.4614 -0.3255
 6915SOL    HW221566   3.361   1.321   4.862  0.9204 -1.7724  0.5171
 6916SOL     OW21567   0.069   2.955   3.318  0.3401  0.3355 -0.7011
 6916SOL    HW121568   0.120   2.985   3.237  2.8532 -0.0738  0.6388
 6916SOL    HW221569   0.073   3.026   3.388  1.1977 -0.6547  0.3002
 6917SOL     OW21570   5.295   2.374   1.689  0.1992  0.5828 -0.6434
 6917SOL    HW121571   5.335   2.423   1.612  1.8892 -0.3783 -0.4333
 6917SOL    HW221572   5.269   2.282   1.661  0.2603  0.4300 -0.2231
 6918SOL     OW21573   1.799   0.817   0.560 -0.0267  0.1083  0.1267
 6918SOL    HW121574   1.751   0.793   0.475 -0.9100  0.1668  0.5926
 6918SOL    HW221575   1.743   0.880   0.613  1.5272  1.9263 -0.2831
 6919SOL     OW21576   0.692   4.459   3.556  0.2491 -0.4761 -0.1638
 6919SOL    HW121577   0.647   4.519   3.490 -0.9155 -3.9740 -2.8540
 6919SOL    HW221578   0.703   4.507   3.643 -0.1264  3.6739 -2.1611
 6920SOL     OW21579   4.058   2.021   3.237 -0.2284 -0.3706 -1.0326
 6920SOL    HW121580   4.044   2.045   3.141 -1.2575 -0.2911 -0.8770
 6920SOL    HW221581   3.970   1.997   3.279  0.1251  0.1228  0.0344
 6921SOL     OW21582   0.129   0.197   0.155 -0.0750  0.1248 -0.1499
 6921SOL    HW121583   0.179   0.275   0.118 -1.2038  0.6230 -0.6865
 6921SOL    HW221584   0.057   0.171   0.091  1.1520 -2.2642 -0.6552
 6922SOL     OW21585   1.282   1.989   3.776  0.1377  0.1251 -0.6119
 6922SOL    HW121586   1.227   2.070   3.797 -0.7036 -0.4306 -0.5431
 6922SOL    HW221587   1.221   1.911   3.759  0.8706 -0.1440 -2.2108
 6923SOL     OW21588   2.712   6.480   1.777  0.0919 -0.1923  0.1328
 6923SOL    HW121589   2.615   6.461   1.763  0.5444 -1.6575 -1.3976
 6923SOL    HW221590   2.751   6.414   1.842  0.0504  0.4793  0.8533
 6924SOL     OW21591   5.436   5.905   0.229 -0.4652 -0.0265 -0.4115
 6924SOL    HW121592   5.534   5.884   0.231 -0.3370  0.5912 -0.0396
 6924SOL    HW221593   5.422   6.004   0.232 -1.1252 -0.1411  0.6371
 6925SOL     OW21594   1.112   2.737   1.758 -0.3123 -0.3173  0.6506
 6925SOL    HW121595   1.113   2.754   1.659 -0.3021 -0.2808  0.6566
 6925SOL    HW221596   1.196   2.773   1.799 -0.8732  0.7950  0.8573
 6926SOL     OW21597   5.155   0.693   4.265 -0.2191 -0.7138  0.5039
 6926SOL    HW121598   5.215   0.613   4.258 -1.3059 -1.4793 -0.5693
 6926SOL    HW221599   5.060   0.663   4.274 -0.7466  0.4169 -0.8583
 6927SOL     OW21600   6.544   3.584   5.775 -0.6297 -0.1732 -0.0805
 6927SOL    HW121601   6.492   3.632   5.845 -1.3195 -1.0992  0.0546
 6927SOL    HW221602   6.482   3.551   5.704 -0.0142  0.1959 -0.8077
 6928SOL     OW21603   1.178   1.997   1.327  0.0786 -0.3322  0.3614
 6928SOL    HW121604   1.261   1.979   1.381 -1.5446 -0.4102  3.0155
 6928SOL    HW221605   1.099   1.957   1.373 -1.4364 -0.7214 -2.3512
 6929SOL     OW21606   3.723   3.422   4.721 -0.0566 -0.4749  0.2309
 6929SOL    HW121607   3.786   3.413   4.644 -0.8505  0.5447 -0.5763
 6929SOL    HW221608   3.634   3.383   4.696 -0.3806  0.0416  0.5565
 6930SOL     OW21609   0.164   3.701   5.185 -0.2462  0.0103  0.1741
 6930SOL    HW121610   0.211   3.620   5.152  1.0152  1.0779 -0.7340
 6930SOL    HW221611   0.226   3.756   5.241 -0.6294  1.0474 -0.3870
 6931SOL     OW21612   1.025   3.232   0.229  0.1481  0.0619 -0.1940
 6931SOL    HW121613   1.080   3.315   0.226 -1.6246  1.2381 -1.3490
 6931SOL    HW221614   1.043   3.178   0.147 -0.3410  0.3874 -0.5145
 6932SOL     OW21615   1.612   0.659   0.097 -0.0705  0.2861 -0.0045
 6932SOL    HW121616   1.516   0.633   0.111  0.1516  0.0870  1.2062
 6932SOL    HW221617   1.649   0.606   0.020 -0.1522 -1.7440  1.2729
 6933SOL     OW21618   5.325   2.763   3.638 -1.3146  0.1816  0.4845
 6933SOL    HW121619   5.380   2.844   3.624 -0.4292 -0.5123 -0.0864
 6933SOL    HW221620   5.233   2.777   3.601 -0.6001  0.2442 -1.3272
 6934SOL     OW21621   3.810   5.549   4.023 -0.1734  0.1841  0.0705
 6934SOL    HW121622   3.721   5.589   4.045 -2.1815 -3.6490 -0.2036
 6934SOL    HW221623   3.851   5.512   4.106 -0.0432 -0.2459 -0.1829
 6935SOL     OW21624   4.854   6.404   3.480 -0.2966  0.2927 -0.3725
 6935SOL    HW121625   4.758   6.408   3.508 -0.7368 -1.3538 -1.5276
 6935SOL    HW221626   4.871   6.474   3.410 -0.8198  0.1704 -0.6254
 6936SOL     OW21627   5.762   1.696   1.097 -0.0470  0.4368 -0.9908
 6936SOL    HW121628   5.756   1.597   1.110  0.2438  0.1503 -2.8813
 6936SOL    HW221629   5.673   1.737   1.120 -0.7223 -0.4779 -1.8500
 6937SOL     OW21630   5.566   3.403   5.219 -0.6090  0.6666  0.4365
 6937SOL    HW121631   5.509   3.422   5.300 -1.4080  0.0927  0.0282
 6937SOL    HW221632   5.544   3.469   5.147  0.2541  1.3104  0.7527
 6938SOL     OW21633   1.170   2.573   2.580 -0.1205 -0.0948  0.4498
 6938SOL    HW121634   1.203   2.482   2.606  0.5971  0.0757  0.1703
 6938SOL    HW221635   1.118   2.613   2.656 -1.5986 -1.2806  0.0702
 6939SOL     OW21636   3.738   0.419   4.104  0.0852  0.2625  0.3647
 6939SOL    HW121637   3.783   0.508   4.098  1.4896 -0.4459  0.0017
 6939SOL    HW221638   3.710   0.389   4.013  1.1078 -0.3947  0.2542
 6940SOL     OW21639   0.784   0.869   5.118  0.0164  0.3497 -0.2623
 6940SOL    HW121640   0.742   0.949   5.162  0.4852 -0.1509  1.2053
 6940SOL    HW221641   0.883   0.882   5.115  0.1097 -0.2166  0.1235
 6941SOL     OW21642   3.897   2.266   5.322 -0.4040  0.2622  0.0483
 6941SOL    HW121643   3.799   2.286   5.309 -0.5575 -0.6025 -0.1599
 6941SOL    HW221644   3.923   2.288   5.416 -0.7621  0.6442  0.0626
 6942SOL     OW21645   2.117   6.936   1.710  0.1107 -0.6500  0.6080
 6942SOL    HW121646   2.121   6.864   1.780 -0.9008 -0.0590  1.2986
 6942SOL    HW221647   2.025   6.939   1.671  1.0124 -1.9133 -1.7988
 6943SOL     OW21648   2.555   6.801   3.350 -0.1701  0.2275  0.0679
 6943SOL    HW121649   2.487   6.857   3.399  0.1313  0.5910  0.0814
 6943SOL    HW221650   2.607   6.860   3.288 -1.0975 -0.3553 -1.2986
 6944SOL     OW21651   6.562   3.625   6.524 -0.2907  0.3478  0.2974
 6944SOL    HW121652   6.517   3.699   6.575  0.1493  1.0349 -0.2803
 6944SOL    HW221653   6.564   3.648   6.427  1.3270  0.3603  0.2990
 6945SOL     OW21654   3.627   1.753   2.208  0.5703  0.3279 -0.0454
 6945SOL    HW121655   3.712   1.711   2.175  0.2792 -1.2878  1.1632
 6945SOL    HW221656   3.638   1.777   2.304  0.3745  2.1730 -0.4430
 6946SOL     OW21657   3.533   1.634   4.445  0.2278  0.1249 -0.4435
 6946SOL    HW121658   3.533   1.566   4.518 -0.1739  0.5721 -0.0137
 6946SOL    HW221659   3.600   1.609   4.375  0.0060 -0.7605 -0.3524
 6947SOL     OW21660   0.960   3.499   4.789  0.4498 -0.0704  0.2542
 6947SOL    HW121661   1.016   3.434   4.738  0.6817 -0.8036  1.4119
 6947SOL    HW221662   0.865   3.494   4.757  0.2529 -1.7251  0.9978
 6948SOL     OW21663   1.251   1.805   3.253  0.2426  0.7157 -0.0441
 6948SOL    HW121664   1.261   1.733   3.184 -0.7710  1.5390 -1.0940
 6948SOL    HW221665   1.183   1.775   3.321  0.8685  0.1157  0.3401
 6949SOL     OW21666   3.240   1.802   2.434 -0.3958  0.2787 -0.4952
 6949SOL    HW121667   3.255   1.735   2.508 -0.1801  1.3339  0.4508
 6949SOL    HW221668   3.147   1.838   2.440 -0.0173  1.2118  0.0026
 6950SOL     OW21669   2.563   2.534   6.927  0.0383 -0.1204  0.6663
 6950SOL    HW121670   2.471   2.500   6.950  0.1081  0.0701  1.2530
 6950SOL    HW221671   2.621   2.528   7.008  0.2745  0.6659  0.5636
 6951SOL     OW21672   0.229   0.515   2.031  0.5000 -0.0511 -0.0151
 6951SOL    HW121673   0.148   0.494   2.085 -0.4140 -0.1032 -1.3360
 6951SOL    HW221674   0.231   0.612   2.010 -0.3974 -0.3696 -1.7383
 6952SOL     OW21675   2.608   5.654   5.493 -0.4634 -0.5998 -0.5165
 6952SOL    HW121676   2.708   5.664   5.498 -0.4518 -1.1100  0.3874
 6952SOL    HW221677   2.570   5.732   5.442  0.5710 -1.4409 -2.7172
 6953SOL     OW21678   2.932   2.960   4.070 -0.2225  0.1868 -0.0451
 6953SOL    HW121679   2.931   3.022   4.148 -0.1247  0.4958 -0.2868
 6953SOL    HW221680   2.884   3.002   3.993 -0.7950 -0.3368  0.0156
 6954SOL     OW21681   3.923   4.593   0.795  0.2884 -0.1996 -0.1643
 6954SOL    HW121682   4.018   4.570   0.813  0.7364  0.7551 -1.2078
 6954SOL    HW221683   3.868   4.509   0.793  1.2838 -0.8594 -0.5544
 6955SOL     OW21684   3.939   6.568   0.140 -0.1906  0.2117  0.5295
 6955SOL    HW121685   3.882   6.553   0.059  0.4837  1.2436 -0.1663
 6955SOL    HW221686   3.973   6.662   0.139 -0.6628  0.4475  2.3469
 6956SOL     OW21687   4.437   0.946   1.552 -0.4237 -0.1300 -0.4004
 6956SOL    HW121688   4.382   1.021   1.516  0.0068  0.3832 -0.0161
 6956SOL    HW221689   4.423   0.864   1.496 -2.8036 -0.4851  0.6160
 6957SOL     OW21690   4.599   0.949   2.026  0.1730 -0.3924 -0.2758
 6957SOL    HW121691   4.694   0.927   2.048  0.1630 -0.8336 -0.6375
 6957SOL    HW221692   4.597   1.028   1.965  0.2403  0.3617  0.6951
 6958SOL     OW21693   3.975   4.258   6.258  0.0009  0.3130  0.1761
 6958SOL    HW121694   4.050   4.308   6.301  0.8210 -0.1797 -0.6504
 6958SOL    HW221695   3.893   4.317   6.257  0.7493  1.4058 -0.1801
 6959SOL     OW21696   6.139   1.541   5.744  0.0067 -0.0046  0.2358
 6959SOL    HW121697   6.188   1.621   5.778 -0.3782  0.1384  0.4739
 6959SOL    HW221698   6.063   1.570   5.686  0.6836 -0.2482 -0.8146
 6960SOL     OW21699   0.197   5.176   3.528 -0.7346 -0.0640  0.2927
 6960SOL    HW121700   0.233   5.085   3.508 -0.1187  0.3357 -0.4603
 6960SOL    HW221701   0.270   5.244   3.523 -1.8094  1.0637 -3.1866
 6961SOL     OW21702   0.256   5.702   2.250 -0.2729 -0.5035 -0.8055
 6961SOL    HW121703   0.220   5.739   2.335  2.4523  0.4659  0.0293
 6961SOL    HW221704   0.211   5.746   2.172 -0.3762  1.1736  0.1644
 6962SOL     OW21705   4.290   0.102   6.289  0.1719  0.4829  0.7128
 6962SOL    HW121706   4.340   0.150   6.361 -0.4522 -0.0401  1.5160
 6962SOL    HW221707   4.192   0.113   6.304  0.0042 -1.3190  1.1060
 6963SOL     OW21708   3.410   2.550   0.380  0.3201 -0.8049  0.1747
 6963SOL    HW121709   3.363   2.483   0.437  1.4652 -0.6211  1.3916
 6963SOL    HW221710   3.447   2.505   0.299  0.9548 -1.6384  0.9067
 6964SOL     OW21711   3.669   6.174   5.675  0.2564  0.4629 -0.0602
 6964SOL    HW121712   3.593   6.232   5.643  0.5779  0.7138 -0.3925
 6964SOL    HW221713   3.703   6.210   5.762  0.9281  1.2174 -0.6162
 6965SOL     OW21714   6.276   3.072   6.295  0.2677 -0.1432 -0.3817
 6965SOL    HW121715   6.370   3.082   6.264  0.0727 -0.2234 -1.0061
 6965SOL    HW221716   6.254   2.974   6.302 -0.1204 -0.1281 -1.3183
 6966SOL     OW21717   0.104   1.574   5.231 -0.4231  0.2775 -0.0003
 6966SOL    HW121718   0.111   1.669   5.262 -0.8452 -0.6684  3.4079
 6966SOL    HW221719   0.195   1.533   5.229 -0.4552  0.1645  0.6679
 6967SOL     OW21720   0.947   3.098   1.712  0.0317 -0.2124 -0.6096
 6967SOL    HW121721   0.858   3.081   1.670  0.1129  0.3860 -1.0341
 6967SOL    HW221722   0.958   3.196   1.727  0.1278 -0.3782  0.5279
 6968SOL     OW21723   3.296   5.068   1.812 -0.3545  0.6019 -0.2294
 6968SOL    HW121724   3.243   4.985   1.831  1.7382 -0.1474  3.1134
 6968SOL    HW221725   3.318   5.072   1.714 -1.0646 -2.4443 -0.6022
 6969SOL     OW21726   1.289   5.902   0.850  0.0879 -0.0532  0.6028
 6969SOL    HW121727   1.223   5.845   0.801 -0.3108 -0.1829  1.2662
 6969SOL    HW221728   1.382   5.877   0.821 -0.0126 -1.7615  1.5816
 6970SOL     OW21729   3.092   0.568   2.444 -0.3381 -0.7723  0.0739
 6970SOL    HW121730   3.120   0.484   2.490  1.6323 -0.3072 -0.2181
 6970SOL    HW221731   3.172   0.616   2.409 -1.5791  0.2942 -1.4242
 6971SOL     OW21732   1.485   6.515   1.037 -0.5141  0.3019 -0.4306
 6971SOL    HW121733   1.466   6.476   1.127 -1.9639  1.1020 -0.3607
 6971SOL    HW221734   1.411   6.491   0.974 -0.0147  0.5955 -1.1454
 6972SOL     OW21735   5.125   1.120   2.090 -0.5595 -0.4340  0.2852
 6972SOL    HW121736   5.183   1.079   2.160 -1.8401 -0.8063  1.1437
 6972SOL    HW221737   5.082   1.203   2.126 -0.6004 -0.1807 -0.3281
 6973SOL     OW21738   0.814   6.955   1.817  0.0868 -0.3576 -0.7961
 6973SOL    HW121739   0.764   7.037   1.844 -1.5708 -1.5353 -0.1400
 6973SOL    HW221740   0.833   6.957   1.719 -1.2146  0.1854 -1.0572
 6974SOL     OW21741   3.421   1.739   1.122 -0.2728 -0.2470  0.2400
 6974SOL    HW121742   3.374   1.681   1.188 -1.4237 -0.9132 -1.1086
 6974SOL    HW221743   3.466   1.682   1.053 -0.9949  0.4268 -0.8296
 6975SOL     OW21744   1.043   5.791   5.015  0.0428 -0.4279 -0.0373
 6975SOL    HW121745   0.980   5.757   5.084  1.0214  0.9362  1.6285
 6975SOL    HW221746   1.135   5.755   5.034  0.2699 -0.2791 -0.8159
 6976SOL     OW21747   2.433   3.352   6.784 -0.0984 -0.5276  0.1661
 6976SOL    HW121748   2.525   3.353   6.746  0.4202  0.3560  1.3823
 6976SOL    HW221749   2.424   3.278   6.850 -0.0027 -0.1426  0.6190
 6977SOL     OW21750   0.390   2.057   2.028  0.1237  0.6205 -0.4236
 6977SOL    HW121751   0.305   2.019   1.991  0.3954  0.3420 -0.7755
 6977SOL    HW221752   0.465   2.042   1.963  0.6263  0.0598  0.2694
 6978SOL     OW21753   5.810   6.527   1.602  0.0556 -0.0303 -0.5850
 6978SOL    HW121754   5.808   6.521   1.702 -1.2670 -0.9747 -0.6444
 6978SOL    HW221755   5.837   6.439   1.564  0.9277  0.4314 -1.0682
 6979SOL     OW21756   1.925   4.408   6.509  0.3372 -0.4675 -0.2203
 6979SOL    HW121757   2.022   4.407   6.534  0.5459 -1.0261 -1.0164
 6979SOL    HW221758   1.912   4.461   6.425  0.2255 -1.8001 -1.0789
 6980SOL     OW21759   0.609   5.606   5.003  0.2510 -0.5587  0.4250
 6980SOL    HW121760   0.625   5.697   4.963 -1.5526 -0.0427  0.8411
 6980SOL    HW221761   0.594   5.540   4.929 -0.4717 -0.1088  0.1448
 6981SOL     OW21762   3.743   3.643   4.350 -0.0738 -0.6837  0.4343
 6981SOL    HW121763   3.706   3.618   4.261 -1.6189  0.6657  0.6551
 6981SOL    HW221764   3.820   3.705   4.338  0.0503 -0.9072  0.0438
 6982SOL     OW21765   4.204   1.297   1.695  0.0113  0.3084  0.7955
 6982SOL    HW121766   4.254   1.379   1.667  0.5460 -0.2411  0.0781
 6982SOL    HW221767   4.246   1.259   1.778  0.2136  0.3497  0.7135
 6983SOL     OW21768   5.431   1.130   2.186  0.3202  0.3316 -0.2463
 6983SOL    HW121769   5.440   1.058   2.255 -1.7017  1.4874  1.3080
 6983SOL    HW221770   5.393   1.212   2.228  0.8729  1.7500 -2.3614
 6984SOL     OW21771   3.666   5.157   5.148 -0.4741 -0.0703  0.3458
 6984SOL    HW121772   3.592   5.155   5.215 -2.5029 -1.5863 -1.7738
 6984SOL    HW221773   3.701   5.064   5.135  2.0777  0.6230  1.4350
 6985SOL     OW21774   3.385   6.378   6.896  0.1994  0.3516 -0.0629
 6985SOL    HW121775   3.334   6.317   6.834 -0.0237 -0.5755  0.9979
 6985SOL    HW221776   3.460   6.421   6.845 -0.3713  0.1242 -1.1337
 6986SOL     OW21777   4.129   2.271   6.127 -0.0535  0.1158  0.2614
 6986SOL    HW121778   4.159   2.267   6.223 -0.3672 -1.3818  0.3176
 6986SOL    HW221779   4.092   2.182   6.100  0.6468  0.3095 -1.4615
 6987SOL     OW21780   5.868   1.126   1.558 -0.7291  0.2169 -0.2403
 6987SOL    HW121781   5.816   1.201   1.598 -1.0263  0.1572 -0.5176
 6987SOL    HW221782   5.953   1.162   1.519 -0.5169  0.3008  0.2852
 6988SOL     OW21783   5.891   1.308   4.810 -0.1961  0.0176 -0.1071
 6988SOL    HW121784   5.972   1.260   4.845  0.2166  0.7597 -0.0172
 6988SOL    HW221785   5.849   1.360   4.884 -0.7555 -0.3589 -0.1574
 6989SOL     OW21786   5.496   2.951   1.603  0.3478 -0.5082 -0.1957
 6989SOL    HW121787   5.428   2.892   1.647  0.1560 -0.5956 -0.5995
 6989SOL    HW221788   5.473   2.962   1.507  0.1444  0.5718 -0.0319
 6990SOL     OW21789   4.801   5.548   1.195  0.2716 -0.4271  0.3030
 6990SOL    HW121790   4.769   5.578   1.105  0.5954 -0.3182  0.2239
 6990SOL    HW221791   4.747   5.470   1.225  2.7062 -3.1951 -1.8185
 6991SOL     OW21792   4.275   5.817   3.972 -0.0727  0.3355 -0.5243
 6991SOL    HW121793   4.371   5.814   3.941 -0.3457  0.7845 -1.4452
 6991SOL    HW221794   4.252   5.730   4.016  1.6561  1.2773  2.5490
 6992SOL     OW21795   1.187   3.757   4.365 -0.2834 -0.0036  0.5425
 6992SOL    HW121796   1.264   3.713   4.318  1.2867  1.3432  1.7225
 6992SOL    HW221797   1.219   3.794   4.452 -2.1407  1.1922  0.7612
 6993SOL     OW21798   1.484   6.867   2.003 -0.0631  0.1650  0.1909
 6993SOL    HW121799   1.501   6.853   1.905 -2.1408  1.7643 -0.4972
 6993SOL    HW221800   1.391   6.903   2.015  0.1748  0.0775  2.7702
 6994SOL     OW21801   0.392   4.704   0.262  0.8634  0.0739  0.3392
 6994SOL    HW121802   0.402   4.605   0.271 -0.3617  0.0135  1.3047
 6994SOL    HW221803   0.480   4.744   0.235  1.8289 -1.0925  1.6022
 6995SOL     OW21804   2.409   5.986   2.159  0.0085 -0.1533 -0.4372
 6995SOL    HW121805   2.403   5.959   2.063  1.5406  1.2560 -0.9639
 6995SOL    HW221806   2.420   6.085   2.165 -0.4024 -0.1917  1.2172
 6996SOL     OW21807   1.289   5.205   0.722 -0.7400 -0.0041 -0.5759
 6996SOL    HW121808   1.384   5.181   0.701 -0.8872 -0.8401 -0.2947
 6996SOL    HW221809   1.288   5.282   0.786 -0.2714  0.7644 -1.4491
 6997SOL     OW21810   4.075   6.953   2.265 -0.6560 -0.0006  0.1198
 6997SOL    HW121811   4.057   7.031   2.205 -0.6731  1.0450  1.4699
 6997SOL    HW221812   4.172   6.932   2.263 -0.1926  1.6809  1.5761
 6998SOL     OW21813   5.763   3.888   6.052  0.0346  0.3666 -0.6323
 6998SOL    HW121814   5.750   3.789   6.043  1.8418  0.1595 -1.4141
 6998SOL    HW221815   5.849   3.905   6.100 -0.8196  1.5734  0.5062
 6999SOL     OW21816   1.442   0.233   1.962  0.3376 -0.0609 -0.0499
 6999SOL    HW121817   1.516   0.241   2.029  0.4712  0.1100 -0.2172
 6999SOL    HW221818   1.421   0.137   1.947 -0.8893 -0.0741  1.5575
 7000SOL     OW21819   4.102   2.694   6.595  0.0742 -0.2364  0.5799
 7000SOL    HW121820   4.004   2.711   6.606  0.1470  0.6955 -0.1261
 7000SOL    HW221821   4.115   2.614   6.536 -0.2914  1.0913 -1.4024
 7001SOL     OW21822   1.912   6.007   3.590 -0.0672 -0.6640 -0.1779
 7001SOL    HW121823   1.947   5.961   3.672 -1.0449 -3.2226 -1.1031
 7001SOL    HW221824   1.988   6.039   3.534  0.6372 -0.0134  1.1093
 7002SOL     OW21825   3.407   6.423   2.948 -0.0435 -0.3644 -0.1541
 7002SOL    HW121826   3.480   6.450   3.010  0.9825 -1.6587 -0.7456
 7002SOL    HW221827   3.428   6.456   2.856  0.4907 -1.8491 -0.5933
 7003SOL     OW21828   4.206   1.042   1.129 -0.2021 -0.1756 -0.1754
 7003SOL    HW121829   4.164   1.007   1.045  1.0010 -1.1554 -0.3919
 7003SOL    HW221830   4.282   1.103   1.105  0.3051 -0.6491  0.1823
 7004SOL     OW21831   0.396   6.806   5.528 -0.3652  0.3665  0.2760
 7004SOL    HW121832   0.485   6.793   5.485  0.5777  0.4636  2.0652
 7004SOL    HW221833   0.333   6.736   5.495  1.0603 -1.1914  0.6645
 7005SOL     OW21834   6.072   1.787   0.671 -0.2133  0.0440 -0.2776
 7005SOL    HW121835   5.972   1.784   0.678 -0.1571  0.6324  0.9778
 7005SOL    HW221836   6.109   1.698   0.699 -0.3048  0.4784  1.3271
 7006SOL     OW21837   4.408   1.619   5.579  0.2698 -0.1534  0.0342
 7006SOL    HW121838   4.392   1.640   5.675  1.2694  0.0568  0.1626
 7006SOL    HW221839   4.391   1.521   5.563  0.3542 -0.2397  0.4757
 7007SOL     OW21840   0.842   2.512   0.003 -0.6091  0.1417  0.3386
 7007SOL    HW121841   0.773   2.534   0.072  0.8721  0.3084  1.8175
 7007SOL    HW221842   0.916   2.460   0.046  0.3096  0.1633 -1.1905
 7008SOL     OW21843   5.607   6.738   5.380 -0.1916 -0.3374 -0.1316
 7008SOL    HW121844   5.670   6.763   5.454  1.5849 -0.7178 -1.4642
 7008SOL    HW221845   5.557   6.655   5.405  1.1464 -1.0534  0.2398
 7009SOL     OW21846   6.346   0.536   4.235 -0.1441 -0.6407  0.4430
 7009SOL    HW121847   6.347   0.559   4.332 -1.5732  2.6291 -0.1885
 7009SOL    HW221848   6.265   0.481   4.215  0.1005 -1.2439  1.0548
 7010SOL     OW21849   3.936   3.281   1.462  0.0467  0.2034  0.0761
 7010SOL    HW121850   3.999   3.251   1.534  1.9262  0.9488 -1.1742
 7010SOL    HW221851   3.936   3.214   1.388 -1.2893 -0.1879  0.4067
 7011SOL     OW21852   4.666   4.461   1.300  0.3235 -0.6687 -0.0973
 7011SOL    HW121853   4.640   4.556   1.282  1.6787 -0.2669 -0.0713
 7011SOL    HW221854   4.745   4.438   1.243  1.4780 -1.0130  1.5956
 7012SOL     OW21855   6.091   2.490   6.285 -0.3817  0.5290 -0.3420
 7012SOL    HW121856   6.047   2.428   6.220 -0.4173 -0.2426  0.3908
 7012SOL    HW221857   6.096   2.446   6.375  1.1070  0.9373 -0.1897
 7013SOL     OW21858   2.672   0.567   6.911 -0.3128  0.1096 -0.4816
 7013SOL    HW121859   2.705   0.659   6.893 -1.3450  0.3435 -1.2843
 7013SOL    HW221860   2.621   0.566   6.998  2.7201 -0.5218  1.4431
 7014SOL     OW21861   2.668   0.822   0.491  0.3091 -0.6179  0.5595
 7014SOL    HW121862   2.704   0.840   0.400 -0.6194 -0.5057  0.2016
 7014SOL    HW221863   2.590   0.759   0.484 -1.0475  0.9305  1.0479
 7015SOL     OW21864   6.966   1.817   5.111  0.7181  0.2138  0.5586
 7015SOL    HW121865   6.905   1.743   5.082  2.4523 -1.5926  1.3467
 7015SOL    HW221866   6.922   1.869   5.184 -0.1634 -0.6361  0.6597
 7016SOL     OW21867   0.718   0.369   5.786 -0.3466  0.0738 -0.3562
 7016SOL    HW121868   0.687   0.357   5.691  0.9473 -1.9766 -0.5683
 7016SOL    HW221869   0.639   0.363   5.847 -0.8170 -2.0829 -1.0962
 7017SOL     OW21870   5.964   1.670   4.793 -0.7594  0.8274 -0.0682
 7017SOL    HW121871   5.872   1.659   4.831 -1.5023  0.0711 -1.9574
 7017SOL    HW221872   5.960   1.661   4.694  1.4987 -0.2617 -0.1330
 7018SOL     OW21873   0.623   5.769   4.093 -0.1812 -0.0515 -0.4349
 7018SOL    HW121874   0.568   5.711   4.154 -0.7101  0.2431 -0.6287
 7018SOL    HW221875   0.581   5.859   4.087  0.5417  0.3050 -0.2679
 7019SOL     OW21876   2.563   5.153   2.598 -0.3732  0.9531 -0.0625
 7019SOL    HW121877   2.568   5.078   2.665  0.2443  2.6592  1.9119
 7019SOL    HW221878   2.622   5.131   2.520  1.0689  0.0510  1.2097
 7020SOL     OW21879   6.903   1.936   6.182 -0.0148  0.0970 -0.0231
 7020SOL    HW121880   6.892   1.955   6.280 -0.5469 -0.2075 -0.0210
 7020SOL    HW221881   6.964   1.858   6.170 -0.0366  0.0605  0.0737
 7021SOL     OW21882   3.208   0.285   6.301 -0.6381  0.5132  0.2130
 7021SOL    HW121883   3.136   0.269   6.369 -2.3502  1.6175 -1.2292
 7021SOL    HW221884   3.169   0.338   6.225  1.1980 -0.6736 -1.6304
 7022SOL     OW21885   0.177   2.927   2.527  0.3987  0.5745 -0.0291
 7022SOL    HW121886   0.164   3.017   2.486  2.1442  0.6990 -0.3809
 7022SOL    HW221887   0.225   2.868   2.462  2.2932  0.4531  1.4109
 7023SOL     OW21888   0.672   3.664   0.955 -0.0912 -0.3770  0.0271
 7023SOL    HW121889   0.636   3.571   0.967 -1.3527  0.3639  2.4647
 7023SOL    HW221890   0.768   3.659   0.927  0.1439 -2.4383  1.0040
 7024SOL     OW21891   0.544   2.854   4.620 -0.2638  0.5310  0.2641
 7024SOL    HW121892   0.507   2.945   4.599 -1.6594 -0.2353 -0.8501
 7024SOL    HW221893   0.498   2.818   4.701 -2.0517 -0.3679 -1.0417
 7025SOL     OW21894   3.646   6.685   3.924  0.2988  0.3063 -0.1963
 7025SOL    HW121895   3.609   6.601   3.884 -0.2481  0.5035 -0.1176
 7025SOL    HW221896   3.618   6.763   3.869 -1.4349  0.7100  1.1335
 7026SOL     OW21897   3.305   1.946   4.500  0.2137 -0.1724 -0.2410
 7026SOL    HW121898   3.322   1.923   4.404 -0.2215 -2.9031  0.2403
 7026SOL    HW221899   3.224   1.898   4.532 -1.0255  2.4989  0.9483
 7027SOL     OW21900   6.678   6.213   1.363  0.0363 -0.3063 -0.1367
 7027SOL    HW121901   6.625   6.133   1.333  1.0594 -0.4070 -1.7937
 7027SOL    HW221902   6.748   6.184   1.428 -0.5206 -0.5039  0.3913
 7028SOL     OW21903   3.759   2.915   5.879  0.0614 -0.0030 -0.4206
 7028SOL    HW121904   3.717   2.989   5.933  1.4971  0.5705 -0.0604
 7028SOL    HW221905   3.807   2.852   5.940  0.5576 -0.1137 -0.9135
 7029SOL     OW21906   3.362   0.864   2.226 -0.1613 -0.0142 -0.4277
 7029SOL    HW121907   3.281   0.861   2.167  1.3137 -0.6701 -2.5666
 7029SOL    HW221908   3.346   0.928   2.301 -1.9754  1.3212 -1.8373
 7030SOL     OW21909   6.815   2.413   5.195 -0.4363 -0.1246 -0.2238
 7030SOL    HW121910   6.822   2.483   5.266  3.1642 -3.0916  2.7586
 7030SOL    HW221911   6.748   2.344   5.223 -1.1850  0.1884 -1.2186
 7031SOL     OW21912   5.879   4.330   5.101  0.4820  0.0551  0.1936
 7031SOL    HW121913   5.884   4.385   5.018 -2.1972  1.5269  0.8917
 7031SOL    HW221914   5.947   4.363   5.167  0.1683  1.3143 -0.0909
 7032SOL     OW21915   6.705   3.859   5.779  0.0167  0.1017 -0.0087
 7032SOL    HW121916   6.747   3.815   5.858  0.5135 -2.4623 -1.6204
 7032SOL    HW221917   6.761   3.937   5.751  1.5533 -0.8343  0.3091
 7033SOL     OW21918   4.785   0.102   3.203  0.0830  0.4719 -0.5132
 7033SOL    HW121919   4.845   0.150   3.267  0.0195 -0.1756  0.0514
 7033SOL    HW221920   4.840   0.048   3.140  0.1150  0.4016 -0.4255
 7034SOL     OW21921   6.627   5.441   1.358 -0.3532  0.5819 -0.5325
 7034SOL    HW121922   6.630   5.447   1.458 -0.4147  0.6529 -0.5348
 7034SOL    HW221923   6.622   5.345   1.331  0.5207  0.5131 -0.4888
 7035SOL     OW21924   3.589   6.416   3.823  0.0988 -0.7118  0.4138
 7035SOL    HW121925   3.654   6.355   3.869  0.7339  0.4005  1.0644
 7035SOL    HW221926   3.497   6.379   3.831  0.4639 -1.5677  0.8127
 7036SOL     OW21927   0.575   5.678   0.289 -0.3709  0.4372  0.2534
 7036SOL    HW121928   0.527   5.591   0.279 -0.4025  0.2202  1.9870
 7036SOL    HW221929   0.517   5.744   0.336 -0.5754  1.6408 -1.5865
 7037SOL     OW21930   2.011   1.215   1.853 -0.2930 -0.5116 -0.2878
 7037SOL    HW121931   2.048   1.141   1.798  0.3175  2.1438 -3.8170
 7037SOL    HW221932   2.085   1.261   1.902 -0.1000 -0.2190 -0.8321
 7038SOL     OW21933   1.519   4.174   6.519  0.5207 -0.0578  0.3353
 7038SOL    HW121934   1.484   4.189   6.427  1.2246 -3.0047 -0.5091
 7038SOL    HW221935   1.443   4.148   6.580  0.3880 -0.5488 -0.0326
 7039SOL     OW21936   5.714   3.873   4.795  0.5943  0.3939 -0.0712
 7039SOL    HW121937   5.745   3.834   4.882  1.8100 -0.4783 -0.8777
 7039SOL    HW221938   5.790   3.881   4.732 -0.6419 -1.0625 -1.8478
 7040SOL     OW21939   1.657   4.044   1.015  0.2474  0.2219  0.0176
 7040SOL    HW121940   1.732   3.981   0.994  1.6298  1.0364  2.1769
 7040SOL    HW221941   1.629   4.032   1.111 -2.3717  0.0035 -0.6987
 7041SOL     OW21942   3.144   4.042   5.876  0.6663 -0.1030  0.7962
 7041SOL    HW121943   3.180   4.102   5.805  0.1342 -1.7207 -0.9354
 7041SOL    HW221944   3.080   4.093   5.934  0.9928  1.2191  0.0539
 7042SOL     OW21945   3.866   1.363   1.479 -0.3359  0.0707  0.3139
 7042SOL    HW121946   3.779   1.330   1.443 -1.3155  2.2777  0.4979
 7042SOL    HW221947   3.932   1.372   1.405 -0.9094  0.2860 -0.1738
 7043SOL     OW21948   4.090   6.713   5.034 -0.5346  0.0260  0.0946
 7043SOL    HW121949   4.093   6.648   5.109 -0.6460  0.1515  0.2125
 7043SOL    HW221950   4.183   6.738   5.007 -0.4628 -0.9688 -0.6467
 7044SOL     OW21951   6.480   3.571   2.320 -0.0555 -0.5996 -0.1126
 7044SOL    HW121952   6.503   3.668   2.319 -1.2489 -0.2544  2.0685
 7044SOL    HW221953   6.465   3.539   2.226 -0.3304  1.4822 -0.7983
 7045SOL     OW21954   2.367   6.387   3.768  0.4530  0.3312  0.0371
 7045SOL    HW121955   2.312   6.307   3.792  0.5470  0.5737  1.0796
 7045SOL    HW221956   2.436   6.361   3.700 -0.2414 -0.2119 -0.4787
 7046SOL     OW21957   6.118   3.852   5.305 -0.1749 -0.2327  0.3904
 7046SOL    HW121958   6.097   3.867   5.401 -2.8102  1.9766 -0.4244
 7046SOL    HW221959   6.038   3.871   5.249  1.5662 -0.3885 -2.3602
 7047SOL     OW21960   0.349   0.558   0.171 -0.0697 -0.3949 -0.8826
 7047SOL    HW121961   0.376   0.511   0.255  0.8396 -1.1157 -1.5538
 7047SOL    HW221962   0.306   0.493   0.109 -0.4936  0.0746 -1.0820
 7048SOL     OW21963   2.361   1.576   5.586  0.5578 -0.1133  0.0508
 7048SOL    HW121964   2.429   1.647   5.568  2.6532 -1.7881  0.9592
 7048SOL    HW221965   2.394   1.489   5.550 -1.5931 -0.8349 -0.3389
 7049SOL     OW21966   4.034   5.006   5.408  0.0390  0.0216  0.5426
 7049SOL    HW121967   3.944   5.041   5.431 -0.2185 -0.4438  0.2618
 7049SOL    HW221968   4.040   4.909   5.432 -0.1103 -0.3838 -0.9002
 7050SOL     OW21969   6.703   6.010   2.830 -0.2990 -0.4114 -0.0483
 7050SOL    HW121970   6.720   6.108   2.840  1.7977 -0.4988 -2.0745
 7050SOL    HW221971   6.623   5.996   2.771 -1.4992  0.0457  1.4334
 7051SOL     OW21972   2.745   7.013   0.594  0.1786 -0.2635  0.0448
 7051SOL    HW121973   2.753   6.917   0.623 -0.7862 -0.3167  0.0942
 7051SOL    HW221974   2.680   7.019   0.518  1.5932  0.1300 -1.1751
 7052SOL     OW21975   3.164   2.533   6.514  0.3315 -0.3665 -0.4144
 7052SOL    HW121976   3.251   2.531   6.564  0.2146  0.1680 -0.1824
 7052SOL    HW221977   3.158   2.616   6.460  0.7466 -1.2509 -1.8658
 7053SOL     OW21978   1.005   4.396   1.325 -0.2383  0.4192 -0.2775
 7053SOL    HW121979   1.046   4.421   1.413 -0.1178 -1.0004  0.0965
 7053SOL    HW221980   0.930   4.332   1.340 -0.1692  0.0983 -1.2262
 7054SOL     OW21981   0.420   4.963   1.827 -0.6192 -0.0692  0.3718
 7054SOL    HW121982   0.503   4.920   1.793 -0.8687  0.4706 -0.9459
 7054SOL    HW221983   0.384   5.026   1.758 -2.0064 -0.1351  1.0140
 7055SOL     OW21984   6.016   3.773   5.883 -0.1717  0.1742  0.0269
 7055SOL    HW121985   6.063   3.859   5.901 -0.4075  0.2203  0.4260
 7055SOL    HW221986   6.041   3.706   5.954 -0.3395  0.0557 -0.0243
 7056SOL     OW21987   4.147   6.361   6.834 -0.4562  0.5009  0.1296
 7056SOL    HW121988   4.158   6.305   6.915 -2.2811  0.4429  0.3699
 7056SOL    HW221989   4.160   6.305   6.752 -2.1403 -0.2719  0.3638
 7057SOL     OW21990   3.151   3.394   4.673 -0.1372 -0.2772  0.0022
 7057SOL    HW121991   3.107   3.304   4.665 -0.9327  0.0994  0.0455
 7057SOL    HW221992   3.231   3.397   4.613 -1.0818 -0.4422 -1.3204
 7058SOL     OW21993   1.563   3.703   0.899  0.3503 -0.1053 -0.2631
 7058SOL    HW121994   1.563   3.795   0.859  0.2691 -0.5529 -1.3096
 7058SOL    HW221995   1.532   3.637   0.831 -1.6198 -0.6563  1.0987
 7059SOL     OW21996   1.605   5.066   4.105 -0.5763 -0.8386  0.4974
 7059SOL    HW121997   1.571   5.034   4.193  0.7220 -2.6144  0.4233
 7059SOL    HW221998   1.639   5.160   4.114 -0.3671 -1.0363  1.9104
 7060SOL     OW21999   6.927   0.010   3.389  0.1315 -0.4320 -0.1356
 7060SOL    HW122000   6.853  -0.045   3.428  0.5837  0.0935  1.5267
 7060SOL    HW222001   6.941   0.092   3.445  1.1719  0.0851 -1.1001
 7061SOL     OW22002   2.503   1.102   2.441 -0.4945 -0.1037 -0.0807
 7061SOL    HW122003   2.588   1.100   2.389  0.0108  1.8367  0.5604
 7061SOL    HW222004   2.493   1.192   2.485 -1.9486 -0.9315  1.4078
 7062SOL     OW22005   2.682   2.427   0.915  0.0415  0.0882  0.1009
 7062SOL    HW122006   2.718   2.468   0.832  2.2438  0.1881  1.0556
 7062SOL    HW222007   2.750   2.367   0.956 -2.8379 -4.5592 -1.0911
 7063SOL     OW22008   6.268   1.303   6.796 -0.3860 -0.7090 -0.8125
 7063SOL    HW122009   6.202   1.357   6.849 -1.3406 -1.1281 -1.5390
 7063SOL    HW222010   6.310   1.362   6.727 -0.7961 -0.6990 -1.0525
 7064SOL     OW22011   6.228   5.486   4.035  0.2669 -0.1224  0.1740
 7064SOL    HW122012   6.179   5.403   4.060  0.0240  0.4818  1.8423
 7064SOL    HW222013   6.311   5.494   4.092  0.3711  0.6970 -0.0727
 7065SOL     OW22014   5.120   6.131   3.098  0.7523  0.5936 -0.0810
 7065SOL    HW122015   5.039   6.188   3.112  2.3497  2.8581  0.3971
 7065SOL    HW222016   5.155   6.145   3.006  0.1139 -1.0900 -0.6089
 7066SOL     OW22017   4.746   2.575   6.509  0.1195 -0.1572  0.0723
 7066SOL    HW122018   4.807   2.636   6.458  0.5551 -1.4198 -1.0106
 7066SOL    HW222019   4.791   2.544   6.592  0.5471 -0.2590 -0.1942
 7067SOL     OW22020   4.983   1.517   5.847  0.6302 -0.4963 -0.3810
 7067SOL    HW122021   4.996   1.550   5.753  0.4372 -0.1093 -0.2721
 7067SOL    HW222022   5.049   1.561   5.907 -0.7360  1.0001  0.0656
 7068SOL     OW22023   0.735   5.586   2.104  0.1839  0.2246  0.5401
 7068SOL    HW122024   0.718   5.572   2.006 -0.5524 -1.0425  0.8157
 7068SOL    HW222025   0.650   5.617   2.147  0.6697  1.3894  0.6869
 7069SOL     OW22026   0.391   4.844   6.252  0.6414 -0.1168  0.4235
 7069SOL    HW122027   0.336   4.923   6.224 -0.3717 -0.3991  1.5472
 7069SOL    HW222028   0.332   4.765   6.264  1.5545 -0.8874 -0.0124
 7070SOL     OW22029   0.176   3.730   6.388 -0.1274 -0.7910 -0.0305
 7070SOL    HW122030   0.087   3.771   6.408  0.1262 -0.2852  0.0732
 7070SOL    HW222031   0.166   3.630   6.381 -0.7757 -0.7115 -0.4288
 7071SOL     OW22032   2.220   1.812   1.989 -0.1829  0.4927 -0.1171
 7071SOL    HW122033   2.202   1.732   2.046 -0.0598  0.1632 -0.5391
 7071SOL    HW222034   2.309   1.851   2.014  0.5444 -0.4951 -1.0330
 7072SOL     OW22035   5.760   6.465   3.626 -0.2874  0.8221 -0.0199
 7072SOL    HW122036   5.768   6.564   3.617  3.6122  1.2720  4.6365
 7072SOL    HW222037   5.832   6.421   3.571 -1.2042  0.6085 -1.0763
 7073SOL     OW22038   2.629   0.205   1.252  0.0397  0.1306 -0.1113
 7073SOL    HW122039   2.689   0.135   1.291  0.6577  1.1459  0.8022
 7073SOL    HW222040   2.535   0.190   1.282  0.3896  0.4849  1.2329
 7074SOL     OW22041   5.593   1.500   0.641 -0.9072 -0.4956 -0.3843
 7074SOL    HW122042   5.524   1.458   0.583 -0.1514  1.7459 -3.1094
 7074SOL    HW222043   5.550   1.537   0.723 -2.1202 -3.0657  0.2540
 7075SOL     OW22044   4.199   6.366   4.867  0.1968 -0.4301  0.3139
 7075SOL    HW122045   4.265   6.429   4.910  0.0458 -0.1393  0.1298
 7075SOL    HW222046   4.248   6.297   4.814  0.3670 -0.4518  0.4998
 7076SOL     OW22047   1.320   6.200   0.322 -0.2278 -0.0305 -0.1675
 7076SOL    HW122048   1.353   6.243   0.238 -0.1890  0.6234  0.1754
 7076SOL    HW222049   1.283   6.110   0.302  1.0839 -0.4682 -0.6761
 7077SOL     OW22050   5.475   3.560   3.021  0.0126  0.4134 -0.6512
 7077SOL    HW122051   5.552   3.585   2.962 -0.0045  0.0977 -0.8070
 7077SOL    HW222052   5.398   3.621   3.002  1.1632  2.7421  1.5901
 7078SOL     OW22053   6.465   2.525   2.526 -0.5294  0.0154 -0.0241
 7078SOL    HW122054   6.422   2.516   2.616  0.4520  0.0383  0.4617
 7078SOL    HW222055   6.500   2.436   2.497 -0.7987  0.0195 -0.3672
 7079SOL     OW22056   3.384   2.480   5.564  0.1068 -0.6435 -0.5210
 7079SOL    HW122057   3.331   2.411   5.613 -0.3457  0.7915  1.1221
 7079SOL    HW222058   3.323   2.539   5.512  0.4489 -1.1671 -1.5413
 7080SOL     OW22059   4.093   5.645   4.951  0.3064 -0.1107  0.6577
 7080SOL    HW122060   4.140   5.565   4.915 -0.1347  0.2216 -0.7144
 7080SOL    HW222061   4.095   5.718   4.884  0.3631  0.9111  1.7411
 7081SOL     OW22062   5.531   6.269   3.603 -0.0482 -0.5094  0.0353
 7081SOL    HW122063   5.535   6.236   3.509  1.0680  0.4787 -0.2793
 7081SOL    HW222064   5.602   6.337   3.618 -0.4301 -0.3993  1.5060
 7082SOL     OW22065   5.739   4.337   6.908  0.0208 -0.0361 -0.6159
 7082SOL    HW122066   5.687   4.265   6.863  0.1015  0.0096 -0.7845
 7082SOL    HW222067   5.755   4.412   6.844  1.0628 -0.4290 -0.8349
 7083SOL     OW22068   5.621   4.843   2.054 -0.1542  0.2058  0.0744
 7083SOL    HW122069   5.678   4.918   2.019  0.7041 -0.4622  0.0176
 7083SOL    HW222070   5.609   4.774   1.983  0.7218 -0.6532  0.7358
 7084SOL     OW22071   0.283   2.825   3.464  0.0442 -0.4860  0.0431
 7084SOL    HW122072   0.382   2.833   3.466 -0.0479  0.8124  0.4945
 7084SOL    HW222073   0.249   2.843   3.371  0.1109  1.0509  0.2963
 7085SOL     OW22074   2.541   4.551   4.497  0.5397  0.1583 -0.3884
 7085SOL    HW122075   2.618   4.587   4.444 -0.0737  1.2562 -0.5509
 7085SOL    HW222076   2.568   4.545   4.594  0.7172  0.8835 -0.3890
 7086SOL     OW22077   6.645   4.933   1.673 -0.4452  0.2936 -0.8500
 7086SOL    HW122078   6.661   4.847   1.721 -0.0228  0.6253 -0.3881
 7086SOL    HW222079   6.730   4.963   1.629  0.5892  2.5002  2.2798
 7087SOL     OW22080   4.147   4.913   1.735  0.6021  0.0176 -0.6185
 7087SOL    HW122081   4.227   4.857   1.714 -0.3778 -1.1224 -1.4851
 7087SOL    HW222082   4.131   4.977   1.660  0.5868  0.1094 -0.5377
 7088SOL     OW22083   1.013   4.721   1.375 -0.5841 -0.6867  0.0835
 7088SOL    HW122084   0.984   4.816   1.367 -0.8683 -0.7935 -0.1874
 7088SOL    HW222085   0.943   4.661   1.338 -1.7225 -1.2061  2.8324
 7089SOL     OW22086   1.728   1.501   3.841  0.1405  0.2977 -0.1498
 7089SOL    HW122087   1.766   1.560   3.770 -0.3119  0.8429  0.0511
 7089SOL    HW222088   1.650   1.450   3.804  0.7025 -0.4028 -0.4030
 7090SOL     OW22089   2.451   6.767   1.915 -0.3610 -0.1057  0.3229
 7090SOL    HW122090   2.417   6.673   1.929 -0.1894 -0.0917  0.8420
 7090SOL    HW222091   2.493   6.774   1.824  1.0357 -0.9544  0.8801
 7091SOL     OW22092   3.724   4.583   0.172 -0.4459  0.1306  0.3278
 7091SOL    HW122093   3.682   4.591   0.262 -2.2779  1.6494 -0.5998
 7091SOL    HW222094   3.754   4.674   0.141 -3.4034  0.4074 -2.1685
 7092SOL     OW22095   6.503   4.815   1.412  0.6372  0.7999 -0.1470
 7092SOL    HW122096   6.516   4.819   1.511  0.6023 -1.5202  0.0146
 7092SOL    HW222097   6.592   4.823   1.367  0.9883 -0.6350  0.2355
 7093SOL     OW22098   6.960   3.592   3.842  0.2488  0.4609 -0.3522
 7093SOL    HW122099   6.889   3.535   3.802 -0.4824  0.9424  0.2471
 7093SOL    HW222100   6.944   3.688   3.818  0.7898  0.5627 -0.3459
 7094SOL     OW22101   3.427   0.709   3.387 -0.4006 -0.3874  0.5372
 7094SOL    HW122102   3.351   0.685   3.326  0.7070 -0.2549 -0.9546
 7094SOL    HW222103   3.506   0.737   3.332  0.6262 -0.1931  2.0596
 7095SOL     OW22104   3.613   3.924   5.038  0.1856  0.1218 -0.3788
 7095SOL    HW122105   3.576   3.834   5.062 -0.9609  0.5176 -0.5794
 7095SOL    HW222106   3.575   3.953   4.949 -1.8893  2.0663  1.0164
 7096SOL     OW22107   5.634   4.050   4.034  0.2083  0.2355  0.0918
 7096SOL    HW122108   5.705   4.032   3.966  0.5717  0.8826  0.2995
 7096SOL    HW222109   5.547   4.066   3.987  0.3641  0.2405 -0.2006
 7097SOL     OW22110   1.707   6.836   3.705  0.2411 -0.0370 -0.4953
 7097SOL    HW122111   1.614   6.849   3.740 -0.1708 -1.7781 -0.8877
 7097SOL    HW222112   1.703   6.798   3.613  1.3546  2.1887 -1.5475
 7098SOL     OW22113   4.637   3.884   5.962  0.2365 -0.0498 -0.3409
 7098SOL    HW122114   4.593   3.864   6.050  1.0924 -1.5464 -0.1970
 7098SOL    HW222115   4.585   3.954   5.914 -0.1564  0.9623  1.4305
 7099SOL     OW22116   6.966   5.072   2.632 -0.0649  0.3013 -0.1195
 7099SOL    HW122117   7.024   5.119   2.699  1.0337  2.2536 -2.2888
 7099SOL    HW222118   7.021   5.003   2.584  0.3021  1.5359 -1.5535
 7100SOL     OW22119   6.418   2.903   2.713 -0.2789  0.2529 -0.1212
 7100SOL    HW122120   6.341   2.956   2.747 -0.2092  0.0356  0.3983
 7100SOL    HW222121   6.461   2.855   2.790  2.0754  2.5444  0.1287
 7101SOL     OW22122   1.310   6.427   5.787 -0.0849 -0.1809  0.0956
 7101SOL    HW122123   1.329   6.332   5.760 -0.2591 -0.6559  1.5382
 7101SOL    HW222124   1.346   6.443   5.879 -0.3358  1.0728 -0.0042
 7102SOL     OW22125   1.583   3.865   2.463  0.5432  0.3989 -0.2224
 7102SOL    HW122126   1.672   3.843   2.502  0.3159 -0.8267 -0.3805
 7102SOL    HW222127   1.513   3.861   2.535  0.6593  1.8064  0.0046
 7103SOL     OW22128   2.133   4.746   0.499  0.4385  0.4204 -0.1505
 7103SOL    HW122129   2.173   4.706   0.582 -0.6533 -1.3400 -0.4106
 7103SOL    HW222130   2.068   4.681   0.459  0.1164  1.6812 -1.7872
 7104SOL     OW22131   6.159   0.462   0.799 -0.3079  0.0547  0.1242
 7104SOL    HW122132   6.182   0.417   0.885 -1.9025  0.1163  0.6134
 7104SOL    HW222133   6.214   0.546   0.789 -1.1097  0.8312  1.8052
 7105SOL     OW22134   5.458   1.934   0.504  0.1662  0.8057 -0.1636
 7105SOL    HW122135   5.483   1.917   0.409 -0.1504 -0.6436 -0.0022
 7105SOL    HW222136   5.489   2.026   0.530  2.2621  0.4015 -0.9736
 7106SOL     OW22137   7.007   3.952   2.927  0.1840  0.0852 -0.0950
 7106SOL    HW122138   7.000   4.041   2.972 -0.7955 -0.3408  0.6419
 7106SOL    HW222139   7.099   3.941   2.890  0.8192  0.8102  1.1437
 7107SOL     OW22140   2.517   4.526   6.128  0.0669  0.2757 -0.0528
 7107SOL    HW122141   2.483   4.561   6.040  0.6150 -0.5241 -0.5952
 7107SOL    HW222142   2.470   4.441   6.151  0.0733  0.3728  0.3309
 7108SOL     OW22143   6.930   2.930   5.444  0.0483  0.0969  0.5879
 7108SOL    HW122144   6.997   2.892   5.508 -0.2904  0.5112  1.1953
 7108SOL    HW222145   6.976   2.959   5.360  1.0256  2.5699  1.9097
 7109SOL     OW22146   4.310   2.607   1.041 -0.4913  0.1205 -0.5011
 7109SOL    HW122147   4.256   2.568   0.967  1.2259 -0.8989 -1.2919
 7109SOL    HW222148   4.353   2.532   1.093 -0.8637  0.8537  0.9073
 7110SOL     OW22149   5.195   2.312   6.261 -0.1653  0.5033 -0.2051
 7110SOL    HW122150   5.160   2.249   6.192 -2.4413 -0.3756  1.6261
 7110SOL    HW222151   5.152   2.402   6.250  0.2864  0.6802 -0.5604
 7111SOL     OW22152   2.008   0.840   0.201 -0.1872 -0.3744 -0.2647
 7111SOL    HW122153   2.001   0.911   0.130  0.9373  0.9766  0.9209
 7111SOL    HW222154   2.104   0.816   0.215 -0.4962 -1.5989 -0.0804
 7112SOL     OW22155   1.534   3.212   1.502  0.0228 -0.1449  0.3259
 7112SOL    HW122156   1.609   3.200   1.438 -0.2689 -1.3197  0.1840
 7112SOL    HW222157   1.558   3.171   1.590 -1.1797 -2.3775 -0.3074
 7113SOL     OW22158   1.858   2.484   1.929  0.4749 -0.0637  0.2840
 7113SOL    HW122159   1.841   2.447   1.838  1.8324 -0.1390  0.0474
 7113SOL    HW222160   1.889   2.579   1.922  1.5975 -0.3892  0.5826
 7114SOL     OW22161   2.819   5.027   3.981  0.2164 -0.2079 -0.4150
 7114SOL    HW122162   2.786   5.116   4.012  1.2183  0.4290 -1.1144
 7114SOL    HW222163   2.816   5.023   3.882  0.7313 -0.7363 -0.4131
 7115SOL     OW22164   4.983   6.731   3.504 -0.4834  0.2239  0.7472
 7115SOL    HW122165   4.977   6.689   3.413 -1.8394 -2.5022  1.9542
 7115SOL    HW222166   5.078   6.753   3.525 -0.1356  0.8589 -1.2533
 7116SOL     OW22167   1.502   1.910   3.256 -0.0633 -0.6264  0.2843
 7116SOL    HW122168   1.503   1.999   3.210  1.0175 -1.3516 -1.1731
 7116SOL    HW222169   1.408   1.879   3.267 -0.3675 -0.9242 -2.5228
 7117SOL     OW22170   5.249   1.662   4.718 -0.9299  0.2111 -0.2864
 7117SOL    HW122171   5.311   1.735   4.748 -1.1088  0.0413  0.5233
 7117SOL    HW222172   5.261   1.582   4.777 -0.7745 -0.4007 -1.1346
 7118SOL     OW22173   3.822   1.003   0.432  0.9438  0.2681 -0.4758
 7118SOL    HW122174   3.889   0.935   0.404  1.0627  0.5401 -0.8693
 7118SOL    HW222175   3.862   1.064   0.499  0.1918 -1.3206  1.5344
 7119SOL     OW22176   5.668   4.500   0.954  0.6354 -0.5457 -0.0455
 7119SOL    HW122177   5.613   4.518   0.872 -0.4053 -1.2133  0.4852
 7119SOL    HW222178   5.754   4.457   0.927  1.0929  0.8434 -0.9194
 7120SOL     OW22179   4.657   6.325   1.673  0.3977  0.4317  0.0128
 7120SOL    HW122180   4.747   6.306   1.713 -0.4589 -1.3474  1.2421
 7120SOL    HW222181   4.647   6.273   1.588  0.6023  0.7823 -0.2272
 7121SOL     OW22182   5.703   2.765   1.577  0.3368  0.7330 -0.8846
 7121SOL    HW122183   5.663   2.692   1.633  1.2057  1.7960  1.2082
 7121SOL    HW222184   5.636   2.839   1.566  0.9183  1.5241  0.7147
 7122SOL     OW22185   5.528   1.886   3.197 -0.0225 -0.1734 -0.3644
 7122SOL    HW122186   5.599   1.944   3.158 -1.3381  0.0081 -2.6123
 7122SOL    HW222187   5.563   1.794   3.211  1.2182  0.4076  0.5043
 7123SOL     OW22188   2.909   3.595   0.586 -0.4525  0.0739  0.0027
 7123SOL    HW122189   2.969   3.563   0.660  0.9605  0.3243 -0.9969
 7123SOL    HW222190   2.819   3.553   0.596 -0.4737  0.5093  2.1553
 7124SOL     OW22191   0.014   5.535   5.317 -0.1944 -0.0429  0.2406
 7124SOL    HW122192  -0.011   5.586   5.235 -1.7330 -0.3497  0.4912
 7124SOL    HW222193   0.101   5.489   5.303 -0.8971 -0.8706 -1.6112
 7125SOL     OW22194   4.902   0.073   4.600  0.2019 -0.5087  0.3895
 7125SOL    HW122195   5.000   0.059   4.611  0.5866  0.1329 -1.7018
 7125SOL    HW222196   4.873   0.038   4.511 -1.0006  1.3510 -0.0147
 7126SOL     OW22197   5.651   4.431   5.213  0.3653 -0.3513  0.5779
 7126SOL    HW122198   5.736   4.398   5.171 -0.2888 -0.8853 -0.3555
 7126SOL    HW222199   5.607   4.497   5.152  2.1214  3.2152  2.7802
 7127SOL     OW22200   1.307   2.818   5.211 -0.9003  0.0272  0.1827
 7127SOL    HW122201   1.394   2.856   5.179 -1.2278 -0.2205 -1.0478
 7127SOL    HW222202   1.299   2.723   5.180 -1.2921 -0.1898  0.9216
 7128SOL     OW22203   0.501   1.017   2.609 -0.8009 -0.0154  0.1831
 7128SOL    HW122204   0.531   1.001   2.703 -0.1427  1.8445  0.3442
 7128SOL    HW222205   0.401   1.014   2.604 -0.8123 -0.9277  0.7603
 7129SOL     OW22206   5.983   1.927   5.181  0.4421  0.3991 -0.0328
 7129SOL    HW122207   6.025   1.852   5.231  2.5044  2.4631  1.5383
 7129SOL    HW222208   5.973   1.901   5.085  0.3038 -2.1232  0.5968
 7130SOL     OW22209   4.045   6.227   5.447 -0.1303 -0.4754  0.4350
 7130SOL    HW122210   3.949   6.200   5.439  0.2360 -1.3162 -1.6277
 7130SOL    HW222211   4.085   6.184   5.528 -1.5359  0.1713  1.5310
 7131SOL     OW22212   5.963   0.843   5.707  0.3896 -0.4730 -0.0892
 7131SOL    HW122213   5.869   0.879   5.705 -0.9328 -3.5969 -0.6450
 7131SOL    HW222214   5.989   0.813   5.615  0.5523 -2.6689  0.6152
 7132SOL     OW22215   2.355   5.415   4.567  0.0355 -0.2723  0.2809
 7132SOL    HW122216   2.325   5.474   4.642  1.4167 -0.9644  1.4324
 7132SOL    HW222217   2.347   5.319   4.595  2.6717 -0.5216  0.4684
 7133SOL     OW22218   4.846   0.038   6.858  0.1097  0.1416 -0.1067
 7133SOL    HW122219   4.886   0.014   6.947  0.8449 -0.1110 -0.4966
 7133SOL    HW222220   4.915   0.083   6.802 -0.7493  1.5571 -0.0560
 7134SOL     OW22221   3.212   6.069   4.743  1.2634 -0.0141  0.0371
 7134SOL    HW122222   3.238   6.165   4.746  2.4193 -0.2869 -0.6145
 7134SOL    HW222223   3.228   6.027   4.832  2.2339  0.0257 -0.1191
 7135SOL     OW22224   6.832   4.253   3.774  0.7968 -0.4179  0.0246
 7135SOL    HW122225   6.805   4.293   3.862  0.2417  0.2737 -0.4405
 7135SOL    HW222226   6.911   4.302   3.738  1.6422 -1.3242  0.5698
 7136SOL     OW22227   6.135   3.454   1.708  0.1793  0.3848  1.2707
 7136SOL    HW122228   6.199   3.489   1.639 -0.9440 -1.3643 -0.7758
 7136SOL    HW222229   6.042   3.486   1.687 -0.6636 -2.4274  0.1383
 7137SOL     OW22230   0.676   3.643   0.069 -0.6526 -0.0219  0.2794
 7137SOL    HW122231   0.743   3.694   0.016 -1.7055  2.0593  0.8770
 7137SOL    HW222232   0.696   3.545   0.063  1.1470  0.4038 -1.2726
 7138SOL     OW22233   4.881   2.789   6.934  0.3339 -0.7899 -0.1599
 7138SOL    HW122234   4.894   2.885   6.908 -0.6855 -0.2809  1.0773
 7138SOL    HW222235   4.914   2.776   7.028  0.2230 -1.5951 -0.2550
 7139SOL     OW22236   0.780   4.181   2.125  0.2351  0.5059 -0.5426
 7139SOL    HW122237   0.714   4.246   2.164 -1.6189 -1.0331 -0.9676
 7139SOL    HW222238   0.745   4.088   2.135  2.2668 -0.3602 -1.0361
 7140SOL     OW22239   1.310   4.692   1.321 -0.6765 -0.7215  0.1843
 7140SOL    HW122240   1.212   4.711   1.324 -0.4633  0.3970  3.2219
 7140SOL    HW222241   1.357   4.767   1.275 -1.0804 -0.2688  0.4960
 7141SOL     OW22242   1.143   0.706   4.905  0.7702 -0.3000  0.3732
 7141SOL    HW122243   1.125   0.623   4.853 -0.5537 -1.6738  2.8451
 7141SOL    HW222244   1.235   0.740   4.883 -0.0054 -0.1860 -3.4720
 7142SOL     OW22245   4.959   3.733   4.052 -0.6890  0.5165  0.1814
 7142SOL    HW122246   4.904   3.790   4.113 -1.5571  0.7021 -0.7438
 7142SOL    HW222247   4.908   3.717   3.967 -0.0830 -0.9087  0.0702
 7143SOL     OW22248   3.460   0.161   0.187 -0.1277 -0.3060  0.0773
 7143SOL    HW122249   3.523   0.169   0.109 -2.0284 -0.0076 -1.5053
 7143SOL    HW222250   3.428   0.066   0.194 -1.0180 -0.0577 -0.4117
 7144SOL     OW22251   5.310   1.627   1.161 -0.8023  0.7521 -0.0864
 7144SOL    HW122252   5.347   1.559   1.224 -2.7903 -0.6845 -0.3856
 7144SOL    HW222253   5.384   1.688   1.130  0.7923 -0.4864  1.1367
 7145SOL     OW22254   5.149   5.307   0.099 -0.5284 -0.6541  0.4849
 7145SOL    HW122255   5.165   5.402   0.072 -0.5707 -0.0860  2.3548
 7145SOL    HW222256   5.109   5.305   0.191  0.6884 -2.5458  1.0125
 7146SOL     OW22257   2.808   6.229   2.548  0.1763  0.3179  0.3466
 7146SOL    HW122258   2.874   6.154   2.546  0.0443  0.2177 -0.5576
 7146SOL    HW222259   2.734   6.206   2.611 -0.5699 -0.9329 -0.9414
 7147SOL     OW22260   0.849   0.784   6.637 -0.4404  0.4319 -0.3796
 7147SOL    HW122261   0.946   0.779   6.660 -0.2329  0.3317 -1.2659
 7147SOL    HW222262   0.813   0.874   6.663 -0.0298  0.5917 -0.3632
 7148SOL     OW22263   1.718   5.935   5.788 -0.0358 -0.0891  0.0688
 7148SOL    HW122264   1.766   5.858   5.747  1.2252  0.1575  1.0118
 7148SOL    HW222265   1.743   6.019   5.741 -0.1154 -0.0478  0.0983
 7149SOL     OW22266   6.956   3.954   6.134  0.3707  0.1988 -0.1400
 7149SOL    HW122267   6.896   4.026   6.099 -3.6027 -3.1202 -1.0342
 7149SOL    HW222268   6.967   3.965   6.233  2.5316  3.5307 -0.5676
 7150SOL     OW22269   4.556   6.208   2.344 -0.1431 -0.3535 -0.0160
 7150SOL    HW122270   4.551   6.289   2.287 -2.3425  0.1739  0.8394
 7150SOL    HW222271   4.643   6.208   2.395  1.0860  0.0259 -1.9766
 7151SOL     OW22272   2.257   6.728   2.996  0.5541 -0.4391 -0.0823
 7151SOL    HW122273   2.296   6.818   3.019  0.8999 -0.7562  0.6034
 7151SOL    HW222274   2.178   6.741   2.936  1.3118  0.2654 -0.9945
 7152SOL     OW22275   3.744   1.953   0.669 -0.9833  0.0698  0.1700
 7152SOL    HW122276   3.807   1.882   0.698  0.4424  1.4772  0.6917
 7152SOL    HW222277   3.704   1.928   0.580  1.6116 -0.1275 -1.0362
 7153SOL     OW22278   0.546   6.447   2.725  0.6860  0.0365  0.0825
 7153SOL    HW122279   0.477   6.489   2.784  0.5562  1.8202 -1.2449
 7153SOL    HW222280   0.636   6.484   2.748  0.9471 -0.9051  0.5959
 7154SOL     OW22281   3.209   0.970   3.831 -0.5026 -0.0681  0.3201
 7154SOL    HW122282   3.259   0.925   3.756  0.0986  0.3050  0.4894
 7154SOL    HW222283   3.165   1.052   3.797  0.1569  0.3549  0.4697
 7155SOL     OW22284   6.829   2.672   5.030 -0.0163 -0.0068 -0.2223
 7155SOL    HW122285   6.887   2.689   4.950  0.7671  0.7682  0.4971
 7155SOL    HW222286   6.834   2.575   5.054 -0.3296 -0.2646 -1.1526
 7156SOL     OW22287   2.777   6.726   2.119  0.0224 -0.2129 -0.2648
 7156SOL    HW122288   2.786   6.728   2.218  3.2276 -1.3704 -0.4345
 7156SOL    HW222289   2.790   6.633   2.085 -0.5532  0.2254 -1.7993
 7157SOL     OW22290   4.674   1.452   0.806  0.3068  0.2312  0.2712
 7157SOL    HW122291   4.728   1.426   0.725  0.8428  0.5950  0.5071
 7157SOL    HW222292   4.705   1.540   0.840 -0.3556  0.3844  0.4926
 7158SOL     OW22293   3.157   5.921   3.724  0.0557 -0.0068 -0.3357
 7158SOL    HW122294   3.252   5.934   3.696 -0.2781  0.4922 -1.2808
 7158SOL    HW222295   3.123   6.005   3.768 -0.2286  0.1363 -0.8273
 7159SOL     OW22296   1.235   5.545   4.898  0.1388 -0.1925 -0.6884
 7159SOL    HW122297   1.256   5.577   4.806 -1.5364  0.4617 -0.8931
 7159SOL    HW222298   1.246   5.620   4.964  1.2691 -0.6369 -0.3623
 7160SOL     OW22299   1.739   2.668   3.043  0.4096  0.1094 -0.1063
 7160SOL    HW122300   1.813   2.621   2.994 -0.4432 -1.1911 -0.1866
 7160SOL    HW222301   1.756   2.664   3.141 -0.0611 -1.1238 -0.0577
 7161SOL     OW22302   5.147   2.865   4.264 -0.0947 -0.0527  0.5015
 7161SOL    HW122303   5.050   2.890   4.261 -0.3561 -1.0905  0.0479
 7161SOL    HW222304   5.195   2.911   4.189 -0.5988 -0.9733 -0.4093
 7162SOL     OW22305   4.384   3.536   6.050  0.3359  0.3094 -0.4635
 7162SOL    HW122306   4.319   3.591   6.103 -0.4695  0.1217 -1.2383
 7162SOL    HW222307   4.359   3.537   5.954  0.1022 -1.6308 -0.4785
 7163SOL     OW22308   4.723   3.637   5.831  0.3528 -0.0832 -0.3855
 7163SOL    HW122309   4.663   3.713   5.858  1.4166  0.7345 -0.2990
 7163SOL    HW222310   4.797   3.627   5.898  0.7271 -0.6244 -0.8717
 7164SOL     OW22311   1.836   4.610   0.867  0.3499  0.1750  0.2306
 7164SOL    HW122312   1.864   4.696   0.825 -0.2916  2.0663  3.4333
 7164SOL    HW222313   1.913   4.570   0.916 -0.3657  1.1098  2.1764
 7165SOL     OW22314   7.008   6.207   3.481  0.3685  0.2919  0.2412
 7165SOL    HW122315   7.093   6.226   3.432  0.2893  0.1016  0.0789
 7165SOL    HW222316   6.948   6.286   3.475 -0.6046 -0.5705 -1.9635
 7166SOL     OW22317   1.231   2.355   1.566 -0.1901 -0.1247 -0.1643
 7166SOL    HW122318   1.276   2.434   1.608  1.8268 -1.2108 -0.2061
 7166SOL    HW222319   1.199   2.293   1.638  0.1446 -0.3111 -0.1785
 7167SOL     OW22320   5.087   4.879   6.821  0.0594  0.6973  0.2454
 7167SOL    HW122321   5.126   4.790   6.842 -1.9607 -0.0631  1.1049
 7167SOL    HW222322   5.140   4.951   6.867  0.9110 -0.1738  0.6675
 7168SOL     OW22323   1.035   0.474   2.505  0.4625  0.1038 -0.6697
 7168SOL    HW122324   1.059   0.439   2.415 -2.4928 -0.3941 -1.3852
 7168SOL    HW222325   0.975   0.554   2.495 -0.7651 -0.5707  0.7784
 7169SOL     OW22326   4.992   2.638   4.329  0.3292  0.0634 -0.0990
 7169SOL    HW122327   5.008   2.619   4.426 -0.3997  1.2083  0.2583
 7169SOL    HW222328   5.046   2.718   4.301 -1.0831  1.0497 -0.0791
 7170SOL     OW22329   1.323   1.626   3.049 -0.2034  0.4272  0.1691
 7170SOL    HW122330   1.259   1.555   3.077 -0.1520  0.9951  1.8053
 7170SOL    HW222331   1.281   1.683   2.978 -0.8379 -0.2564 -0.0061
 7171SOL     OW22332   6.142   1.414   5.381  0.2749  0.4240 -0.2449
 7171SOL    HW122333   6.226   1.430   5.434  0.6779 -1.0072 -0.4120
 7171SOL    HW222334   6.159   1.344   5.312 -0.3435  1.9800 -2.0716
 7172SOL     OW22335   4.330   5.608   2.207 -0.2571  0.7074  0.0934
 7172SOL    HW122336   4.374   5.519   2.214  0.9731  1.2479 -0.4152
 7172SOL    HW222337   4.232   5.599   2.225 -0.0991 -0.6890  0.3251
 7173SOL     OW22338   6.003   6.228   5.919  0.2756 -0.1349 -0.1813
 7173SOL    HW122339   5.909   6.193   5.920 -0.3509  1.3519 -1.3521
 7173SOL    HW222340   6.001   6.327   5.903  1.9333  0.4818  2.6751
 7174SOL     OW22341   2.723   3.504   6.769  0.3891 -0.8096  0.4900
 7174SOL    HW122342   2.736   3.422   6.713 -0.8461 -0.6754 -0.0303
 7174SOL    HW222343   2.707   3.583   6.710  0.1560 -0.4671  1.0026
 7175SOL     OW22344   2.448   2.541   6.175 -0.4263  0.0553 -0.1263
 7175SOL    HW122345   2.470   2.450   6.210  0.9196  0.3992 -0.0251
 7175SOL    HW222346   2.454   2.608   6.248 -0.1413  0.4132 -0.4751
 7176SOL     OW22347   0.745   3.147   2.599 -0.3254  0.2466  0.5648
 7176SOL    HW122348   0.800   3.209   2.656  0.5437  0.4236 -0.4391
 7176SOL    HW222349   0.800   3.068   2.574 -1.0060 -0.2867  0.7181
 7177SOL     OW22350   1.915   4.699   3.748  0.4826 -0.2411 -0.0896
 7177SOL    HW122351   1.832   4.695   3.692  1.0482  1.9664 -1.1674
 7177SOL    HW222352   1.913   4.623   3.814 -1.1824 -1.7075 -1.6889
 7178SOL     OW22353   2.526   3.377   5.861  0.0347 -0.0388 -0.4851
 7178SOL    HW122354   2.556   3.402   5.953 -1.8814 -0.2137  0.2445
 7178SOL    HW222355   2.445   3.430   5.837 -1.7757 -2.5655 -0.4646
 7179SOL     OW22356   5.436   5.276   5.136 -0.0532  0.1569 -0.6635
 7179SOL    HW122357   5.417   5.265   5.038 -0.1457  0.9558 -0.7570
 7179SOL    HW222358   5.535   5.286   5.150 -0.1833  2.2004 -0.9487
 7180SOL     OW22359   1.212   5.913   4.584 -0.4075 -0.1832 -0.1554
 7180SOL    HW122360   1.225   5.980   4.511 -0.3170  0.7682  0.7149
 7180SOL    HW222361   1.239   5.953   4.671  1.0407 -1.8387  0.2132
 7181SOL     OW22362   1.398   6.441   3.108  0.0210 -0.1292  0.3497
 7181SOL    HW122363   1.425   6.533   3.137 -0.6844 -0.0739  0.8729
 7181SOL    HW222364   1.381   6.384   3.189 -2.3187  0.1104  0.0836
 7182SOL     OW22365   3.973   0.048   3.548  0.1195 -0.1253  0.2600
 7182SOL    HW122366   3.933   0.004   3.629 -1.2022  1.3313  0.4522
 7182SOL    HW222367   3.910   0.041   3.471  1.3097 -1.3733 -0.6530
 7183SOL     OW22368   0.737   3.971   4.763 -0.0536 -0.2369  0.0548
 7183SOL    HW122369   0.758   4.062   4.727 -0.9087 -0.2038 -0.3962
 7183SOL    HW222370   0.638   3.962   4.773 -0.0335 -1.3576 -0.5593
 7184SOL     OW22371   1.824   2.662   2.602  0.1189  0.5597  0.7605
 7184SOL    HW122372   1.898   2.708   2.652 -1.0628  0.4937  2.6380
 7184SOL    HW222373   1.818   2.567   2.631 -0.4923  0.4773  0.3790
 7185SOL     OW22374   4.028   4.941   4.646 -0.6671  0.0491  0.3351
 7185SOL    HW122375   4.029   4.887   4.731  0.9718 -1.6832 -0.6822
 7185SOL    HW222376   3.939   4.930   4.601 -0.5306 -1.4750  0.3841
 7186SOL     OW22377   5.637   2.586   6.950 -0.3387  0.4112 -0.7258
 7186SOL    HW122378   5.720   2.552   6.994 -1.0734  0.4576  0.7695
 7186SOL    HW222379   5.597   2.514   6.894  0.3823  0.2019 -0.9797
 7187SOL     OW22380   5.461   0.197   3.300 -0.1711  0.1889 -0.0105
 7187SOL    HW122381   5.380   0.251   3.324 -1.0257 -1.2608  0.5992
 7187SOL    HW222382   5.436   0.100   3.300  1.2179 -0.2061 -1.3381
 7188SOL     OW22383   4.567   2.638   5.376  0.1299  0.3647 -0.3465
 7188SOL    HW122384   4.614   2.561   5.333 -0.1523  0.8691 -1.6264
 7188SOL    HW222385   4.619   2.721   5.362 -0.2320  0.6284 -0.1641
 7189SOL     OW22386   3.797   6.064   4.160 -0.5802  0.4392  0.1495
 7189SOL    HW122387   3.814   5.966   4.154 -2.9436 -0.1192  1.4938
 7189SOL    HW222388   3.832   6.098   4.247  0.0264  0.7570 -0.2125
 7190SOL     OW22389   6.425   2.730   4.057 -0.0862  0.7907 -0.1376
 7190SOL    HW122390   6.480   2.765   3.982 -1.5094  1.0443 -1.1115
 7190SOL    HW222391   6.361   2.660   4.022  2.1944 -2.4162  1.6032
 7191SOL     OW22392   0.833   0.520   2.901  0.1505 -0.4262 -0.2119
 7191SOL    HW122393   0.878   0.593   2.850  1.3623 -0.7257  0.3833
 7191SOL    HW222394   0.838   0.435   2.849 -0.4660 -0.2885 -0.5061
 7192SOL     OW22395   2.762   6.951   3.724  0.1568 -0.7676 -0.3095
 7192SOL    HW122396   2.710   6.998   3.796 -0.4388 -1.3111 -0.4061
 7192SOL    HW222397   2.803   7.020   3.664 -0.1416 -0.3733 -0.0472
 7193SOL     OW22398   2.775   4.444   6.468  0.3489  1.2243  0.0009
 7193SOL    HW122399   2.751   4.416   6.375  0.4269  0.5788  0.1747
 7193SOL    HW222400   2.702   4.501   6.506  0.3307  1.5182 -0.4635
 7194SOL     OW22401   3.676   0.838   0.903  0.6545  0.0891  0.0162
 7194SOL    HW122402   3.721   0.925   0.921 -1.0638  1.2671 -1.1028
 7194SOL    HW222403   3.742   0.763   0.916  2.6577  1.6333 -0.7551
 7195SOL     OW22404   0.121   0.896   0.638 -0.3312 -0.3066 -0.2629
 7195SOL    HW122405   0.107   0.908   0.736  1.7787 -0.6666  0.1343
 7195SOL    HW222406   0.032   0.899   0.591 -1.4027 -0.3171  1.6419
 7196SOL     OW22407   4.327   4.948   1.036  0.0056  0.0167  0.4392
 7196SOL    HW122408   4.359   4.853   1.036 -0.9050 -0.2998 -0.4351
 7196SOL    HW222409   4.280   4.967   1.122 -1.2686 -0.8360 -0.0450
 7197SOL     OW22410   0.266   0.778   5.891 -0.9729 -0.1191  0.1622
 7197SOL    HW122411   0.215   0.862   5.908 -1.1717  0.0084 -0.9836
 7197SOL    HW222412   0.310   0.783   5.801  0.0074 -0.7505  0.5860
 7198SOL     OW22413   2.521   2.571   1.433  0.4017 -0.3263 -0.1514
 7198SOL    HW122414   2.597   2.513   1.461  0.4633 -0.3598 -0.3635
 7198SOL    HW222415   2.436   2.518   1.438  0.2717 -0.0261  0.9282
 7199SOL     OW22416   1.666   5.817   6.313 -0.3814 -0.2487  0.1587
 7199SOL    HW122417   1.686   5.852   6.222 -1.5774 -3.1231 -1.3117
 7199SOL    HW222418   1.748   5.772   6.349 -0.0992  0.3225  0.2413
 7200SOL     OW22419   4.235   6.464   1.792 -0.1076 -0.0614  0.2610
 7200SOL    HW122420   4.206   6.549   1.749  0.6382  0.7528  1.3144
 7200SOL    HW222421   4.171   6.439   1.864  0.4804  0.4477  0.9775
 7201SOL     OW22422   4.455   0.827   6.665  0.1610  0.3562 -0.3977
 7201SOL    HW122423   4.443   0.886   6.745 -0.6734  1.3428 -1.2208
 7201SOL    HW222424   4.549   0.835   6.631  0.0989  1.1227 -0.4089
 7202SOL     OW22425   2.592   6.207   4.239  0.2833 -0.3332  0.3450
 7202SOL    HW122426   2.645   6.153   4.174  0.2147 -1.2716  1.0384
 7202SOL    HW222427   2.639   6.210   4.327 -0.0811  0.0992  0.5302
 7203SOL     OW22428   1.967   5.021   1.585 -0.3218 -0.2164 -0.2528
 7203SOL    HW122429   1.920   4.933   1.579 -0.6081 -0.1554  0.8762
 7203SOL    HW222430   1.926   5.085   1.519 -0.4674 -0.7555 -0.6970
 7204SOL     OW22431   2.166   6.378   2.737 -0.4179  0.3338  0.0085
 7204SOL    HW122432   2.170   6.477   2.719 -1.7037  0.4147  0.1080
 7204SOL    HW222433   2.198   6.360   2.830 -5.2797  1.3762  2.2130
 7205SOL     OW22434   2.731   1.057   2.317 -0.7172 -0.0740 -0.2173
 7205SOL    HW122435   2.784   1.105   2.246  0.5320 -0.6137  0.3093
 7205SOL    HW222436   2.688   0.976   2.277 -0.6299  0.0329 -0.5320
 7206SOL     OW22437   5.689   5.631   6.340  0.0291 -0.7158 -0.2495
 7206SOL    HW122438   5.656   5.563   6.406 -0.8659  0.7787  0.8924
 7206SOL    HW222439   5.776   5.668   6.371  0.9284 -1.8526 -1.2849
 7207SOL     OW22440   1.104   3.726   1.704  0.0292  0.3504 -0.1491
 7207SOL    HW122441   1.039   3.783   1.654 -0.4267 -0.3078 -0.3102
 7207SOL    HW222442   1.192   3.774   1.711 -0.4689  1.2625  0.0888
 7208SOL     OW22443   5.164   7.010   0.866 -0.1979 -0.1984 -0.1070
 7208SOL    HW122444   5.082   7.001   0.809 -0.6790  0.7715  0.3919
 7208SOL    HW222445   5.151   7.084   0.932  0.7721 -0.6114  0.5543
 7209SOL     OW22446   6.149   1.428   6.250  0.3370  0.2324 -0.5519
 7209SOL    HW122447   6.217   1.376   6.301  0.6772  0.7928 -0.4256
 7209SOL    HW222448   6.094   1.366   6.194  0.8929 -0.2293 -0.5859
 7210SOL     OW22449   4.144   5.533   4.304 -0.0052  0.2337 -0.0972
 7210SOL    HW122450   4.123   5.492   4.393  0.4274 -1.4335 -0.7256
 7210SOL    HW222451   4.237   5.569   4.305 -0.0649  0.3826  0.2010
 7211SOL     OW22452   2.003   1.410   1.435 -0.1787 -0.6847 -0.2588
 7211SOL    HW122453   1.959   1.493   1.470 -1.8840 -1.1336 -1.1418
 7211SOL    HW222454   1.993   1.408   1.335  0.5875 -1.5490 -0.3246
 7212SOL     OW22455   2.948   3.814   5.888  0.4041 -0.2801  0.3522
 7212SOL    HW122456   3.022   3.881   5.875 -0.5555  0.6244 -0.6608
 7212SOL    HW222457   2.860   3.859   5.872 -0.2699 -1.7949 -0.3359
 7213SOL     OW22458   1.460   4.716   0.693  0.6729 -0.3295  0.1660
 7213SOL    HW122459   1.528   4.644   0.697  0.8933 -0.0872  1.3455
 7213SOL    HW222460   1.450   4.749   0.599  1.7876 -0.7377 -0.1063
 7214SOL     OW22461   2.398   5.735   3.173 -0.2218 -0.7382  0.0334
 7214SOL    HW122462   2.477   5.704   3.119  1.3130 -0.2333  1.8580
 7214SOL    HW222463   2.431   5.777   3.258 -2.3639  2.1607 -0.4356
 7215SOL     OW22464   6.900   6.525   0.423 -0.2902 -0.3681  0.3361
 7215SOL    HW122465   6.869   6.614   0.388 -0.4517 -0.8313 -0.7207
 7215SOL    HW222466   6.998   6.516   0.411 -0.5050 -0.9913 -1.0895
 7216SOL     OW22467   3.675   3.828   4.555  0.1343 -0.4271  0.4071
 7216SOL    HW122468   3.656   3.914   4.507 -1.4277 -0.9393  0.0708
 7216SOL    HW222469   3.723   3.766   4.493  1.7969  0.3775  0.8298
 7217SOL     OW22470   0.919   0.112   6.935 -0.4397  0.0038 -0.2631
 7217SOL    HW122471   0.978   0.084   7.010 -2.7743 -1.6178  1.0759
 7217SOL    HW222472   0.966   0.181   6.879  0.2198  3.9258  4.5300
 7218SOL     OW22473   3.880   3.810   0.905 -0.2837 -0.2599  0.2773
 7218SOL    HW122474   3.915   3.899   0.935  0.1098 -0.3778  0.1676
 7218SOL    HW222475   3.780   3.808   0.916 -0.1498 -0.3221  1.6302
 7219SOL     OW22476   6.458   5.254   4.368 -0.1759  0.0713 -0.1261
 7219SOL    HW122477   6.417   5.298   4.449 -1.4829 -2.4671  0.7318
 7219SOL    HW222478   6.551   5.224   4.390 -0.7836 -1.2630  0.7484
 7220SOL     OW22479   0.463   4.683   3.129  0.0117  0.9760 -0.3840
 7220SOL    HW122480   0.406   4.765   3.137  0.0227  0.9111  0.4678
 7220SOL    HW222481   0.416   4.615   3.073  0.2983  1.8033 -1.6734
 7221SOL     OW22482   0.898   1.178   6.008 -0.0303  0.4057  0.1169
 7221SOL    HW122483   0.899   1.079   5.994  0.9527  0.0764  2.1635
 7221SOL    HW222484   0.992   1.211   6.014 -0.3374  1.0872  1.6204
 7222SOL     OW22485   4.229   4.156   4.729 -0.6102 -0.1590  0.0732
 7222SOL    HW122486   4.328   4.165   4.715 -0.4911 -2.3930 -0.7428
 7222SOL    HW222487   4.211   4.088   4.800 -1.5578 -1.4305 -1.3093
 7223SOL     OW22488   2.401   5.151   6.313  0.2491 -0.3303 -0.0261
 7223SOL    HW122489   2.467   5.166   6.239 -0.8259 -0.9472 -1.1309
 7223SOL    HW222490   2.372   5.239   6.350  0.4424  0.0111 -0.6620
 7224SOL     OW22491   6.524   0.474   2.327 -0.5477  0.0174  0.0290
 7224SOL    HW122492   6.464   0.430   2.394 -1.1727 -1.1862 -1.2241
 7224SOL    HW222493   6.483   0.559   2.295 -1.6769 -0.8381 -0.8850
 7225SOL     OW22494   3.476   3.895   6.589 -0.4837 -0.6451 -0.2860
 7225SOL    HW122495   3.452   3.981   6.545  0.1464 -0.3510 -0.0701
 7225SOL    HW222496   3.575   3.880   6.581 -0.5645 -1.2613 -0.1681
 7226SOL     OW22497   0.444   6.603   4.869 -0.3626 -0.1242 -0.1273
 7226SOL    HW122498   0.413   6.642   4.956  0.8159  0.3995  0.0825
 7226SOL    HW222499   0.500   6.670   4.820 -0.6809 -0.5569 -1.1132
 7227SOL     OW22500   1.948   5.077   1.849 -0.4113 -0.4084  0.2478
 7227SOL    HW122501   1.965   5.071   1.751 -2.3707 -1.9596 -0.0498
 7227SOL    HW222502   1.861   5.124   1.864 -0.0372 -0.0247  1.2598
 7228SOL     OW22503   1.509   0.896   3.360  0.3649 -0.2278 -0.2076
 7228SOL    HW122504   1.461   0.809   3.365 -2.5280  1.2597  0.3603
 7228SOL    HW222505   1.540   0.922   3.451 -0.8620  0.3643  0.0673
 7229SOL     OW22506   2.377   5.017   3.790  0.0026 -0.2924  0.1981
 7229SOL    HW122507   2.290   5.058   3.762  0.1459  0.7414  1.1757
 7229SOL    HW222508   2.452   5.078   3.767  0.1903  0.2392  2.0051
 7230SOL     OW22509   4.917   2.495   6.745 -0.2576 -0.5873  0.5593
 7230SOL    HW122510   5.007   2.459   6.770  0.4631  0.5549 -0.3343
 7230SOL    HW222511   4.877   2.542   6.824  0.1425 -0.6497  0.8045
 7231SOL     OW22512   5.404   0.806   3.989 -0.1333  0.2951 -0.5468
 7231SOL    HW122513   5.463   0.887   3.988 -0.7552  0.8093  1.1735
 7231SOL    HW222514   5.446   0.734   3.935  2.3155  0.4981  0.9377
 7232SOL     OW22515   2.907   4.788   4.893  0.8645  0.1322  0.0436
 7232SOL    HW122516   2.821   4.816   4.935  0.4789 -1.6914  0.5636
 7232SOL    HW222517   2.982   4.802   4.958  0.7279  0.1988  0.1894
 7233SOL     OW22518   4.424   2.281   2.281  0.3152  0.1585  0.0441
 7233SOL    HW122519   4.325   2.278   2.266  0.1809 -0.4925  0.9191
 7233SOL    HW222520   4.449   2.367   2.325 -0.0323 -0.1383  0.8397
 7234SOL     OW22521   1.277   0.423   1.840  0.2167  0.1083 -1.2461
 7234SOL    HW122522   1.337   0.350   1.874  0.1911  1.4017  2.0079
 7234SOL    HW222523   1.326   0.510   1.842 -0.4803  0.5622 -2.7825
 7235SOL     OW22524   0.404   1.797   1.115 -0.4409 -0.3959  0.2067
 7235SOL    HW122525   0.373   1.703   1.127 -1.8030 -0.1581 -1.1428
 7235SOL    HW222526   0.347   1.842   1.046  0.3278  1.3580  0.6744
 7236SOL     OW22527   3.523   5.662   0.017  0.0198 -0.0418 -0.3268
 7236SOL    HW122528   3.594   5.731   0.032  0.4485 -0.3861 -0.7299
 7236SOL    HW222529   3.524   5.597   0.092  1.4216 -1.1370 -1.2449
 7237SOL     OW22530   2.448   4.789   3.057 -0.0945  0.0080  0.3199
 7237SOL    HW122531   2.356   4.765   3.091  0.9096 -0.0950  3.2254
 7237SOL    HW222532   2.499   4.835   3.129  2.8277 -1.6542 -0.5449
 7238SOL     OW22533   2.924   2.722   2.787 -0.3408 -0.8529 -0.2279
 7238SOL    HW122534   2.858   2.755   2.720 -0.3551 -2.2320 -0.9228
 7238SOL    HW222535   2.912   2.624   2.800 -0.8062 -0.5349  2.3352
 7239SOL     OW22536   0.954   4.822   6.069 -0.2047  0.2189 -0.4700
 7239SOL    HW122537   0.958   4.744   6.007 -0.6402 -0.0199 -0.2075
 7239SOL    HW222538   0.986   4.793   6.160  0.6383  0.6165 -0.6325
 7240SOL     OW22539   3.752   5.962   0.608 -0.1406  0.4644  0.5282
 7240SOL    HW122540   3.717   5.995   0.520 -1.2512 -0.0164  0.7668
 7240SOL    HW222541   3.786   6.040   0.661 -0.3523  0.8860  0.0597
 7241SOL     OW22542   0.977   5.686   0.832 -0.1286  0.2373 -0.6419
 7241SOL    HW122543   0.932   5.772   0.807 -1.6006 -0.7125 -1.3787
 7241SOL    HW222544   1.057   5.672   0.773  0.2554  1.1993 -0.3633
 7242SOL     OW22545   0.750   5.523   0.786 -0.1396  0.5079  0.2826
 7242SOL    HW122546   0.769   5.514   0.688 -1.2371  1.7096 -0.0724
 7242SOL    HW222547   0.821   5.577   0.829 -0.8225  1.9522 -0.3323
 7243SOL     OW22548   2.033   3.542   0.447  0.1711  0.9641  0.2140
 7243SOL    HW122549   1.936   3.523   0.434  0.4030 -0.2188  0.1090
 7243SOL    HW222550   2.060   3.619   0.389 -0.9017  1.9618  0.9681
 7244SOL     OW22551   2.332   5.166   6.649 -0.4439  0.6081 -0.4014
 7244SOL    HW122552   2.265   5.108   6.602 -0.4727  1.0083 -0.8652
 7244SOL    HW222553   2.299   5.186   6.741 -0.2953 -0.3504 -0.1265
 7245SOL     OW22554   5.610   6.932   6.505 -0.1820 -0.3973 -0.2738
 7245SOL    HW122555   5.520   6.923   6.547 -0.1887 -0.8699 -0.3789
 7245SOL    HW222556   5.634   6.847   6.459 -0.0093 -0.0195 -0.9043
 7246SOL     OW22557   0.075   2.637   1.239 -0.5920  0.4694  0.0695
 7246SOL    HW122558   0.082   2.582   1.323 -1.2922 -0.7667 -0.6366
 7246SOL    HW222559   0.143   2.710   1.241  0.6332 -0.6381  0.9144
 7247SOL     OW22560   2.034   6.391   3.116  0.0067  0.1826 -0.1538
 7247SOL    HW122561   2.044   6.433   3.206  0.1332  0.1200 -0.1374
 7247SOL    HW222562   1.993   6.300   3.126  2.0429 -0.7579  0.0411
 7248SOL     OW22563   1.242   3.866   0.186 -0.2057 -0.0266 -0.6551
 7248SOL    HW122564   1.219   3.790   0.125  0.5726  0.2048 -1.2543
 7248SOL    HW222565   1.288   3.831   0.268  0.6448 -0.1777 -1.1761
 7249SOL     OW22566   0.338   1.091   4.315  1.1588 -0.4226  0.1204
 7249SOL    HW122567   0.271   1.102   4.387 -0.5916 -0.0241 -1.5114
 7249SOL    HW222568   0.355   0.994   4.299  0.4118 -0.5395  0.0367
 7250SOL     OW22569   1.902   3.336   0.120  0.5433 -0.5746  0.1357
 7250SOL    HW122570   2.000   3.321   0.131  0.5933  0.6423  2.0112
 7250SOL    HW222571   1.852   3.262   0.166  0.5898 -0.8233 -0.2104
 7251SOL     OW22572   5.843   5.043   3.589  0.3372  0.1367  0.0144
 7251SOL    HW122573   5.927   5.020   3.639 -1.0552 -0.6660  2.1223
 7251SOL    HW222574   5.859   5.122   3.531  3.1644 -1.3117 -1.4086
 7252SOL     OW22575   4.811   1.467   5.008 -0.5902  0.0708 -0.0336
 7252SOL    HW122576   4.863   1.417   5.077 -1.4780 -1.5748 -0.4886
 7252SOL    HW222577   4.719   1.427   5.001 -1.5564  2.1589 -0.0261
 7253SOL     OW22578   3.434   5.560   6.531  0.1601  0.2387 -0.1283
 7253SOL    HW122579   3.336   5.547   6.520 -0.1961  1.8586  0.8158
 7253SOL    HW222580   3.459   5.545   6.627  1.3993 -3.1836 -0.8359
 7254SOL     OW22581   4.416   1.313   6.016  0.0686 -0.4475  0.4589
 7254SOL    HW122582   4.508   1.306   6.055  0.7356 -0.6057 -1.0719
 7254SOL    HW222583   4.348   1.304   6.089  1.2596  0.2242  1.6932
 7255SOL     OW22584   6.032   6.432   0.027  0.7244 -0.1207  0.4539
 7255SOL    HW122585   6.068   6.381   0.105 -0.1516  0.3343  1.1790
 7255SOL    HW222586   6.047   6.530   0.041  2.1404 -0.1080 -0.7981
 7256SOL     OW22587   3.002   1.195   3.477  0.8323 -0.1997 -0.4989
 7256SOL    HW122588   3.007   1.295   3.479  1.4041 -0.1922 -1.6284
 7256SOL    HW222589   2.918   1.165   3.521 -0.4690  0.8980 -2.1408
 7257SOL     OW22590   3.035   5.041   6.277  0.0646  0.2525  0.6553
 7257SOL    HW122591   2.945   5.051   6.320 -0.0673 -1.6495  0.9073
 7257SOL    HW222592   3.029   4.973   6.204  1.0722  0.8716 -0.0102
 7258SOL     OW22593   5.072   0.570   3.461 -0.4891 -0.2789  0.1663
 7258SOL    HW122594   5.037   0.663   3.450  1.4311  0.5398  0.6546
 7258SOL    HW222595   5.059   0.540   3.555  0.6732  0.2877  0.5229
 7259SOL     OW22596   4.103   4.066   0.725 -0.3308 -0.1470 -0.1060
 7259SOL    HW122597   4.090   4.159   0.688 -0.5179 -0.6884 -1.4820
 7259SOL    HW222598   4.050   4.001   0.670  0.7049 -1.2124  0.1196
 7260SOL     OW22599   2.806   7.012   2.065 -0.3706 -0.4598 -0.1116
 7260SOL    HW122600   2.795   6.913   2.073 -2.0137 -0.2871 -0.2401
 7260SOL    HW222601   2.800   7.039   1.969 -1.2899 -0.0948  0.0451
 7261SOL     OW22602   0.495   1.657   4.204  0.0638 -0.3854  0.1717
 7261SOL    HW122603   0.578   1.713   4.208  0.2053 -0.5686 -0.1367
 7261SOL    HW222604   0.467   1.646   4.108 -0.2391 -0.4286  0.2625
 7262SOL     OW22605   0.396   3.002   1.474 -0.5762  0.1240 -0.1560
 7262SOL    HW122606   0.318   2.939   1.475 -0.4055 -0.0838  0.2737
 7262SOL    HW222607   0.371   3.087   1.521 -0.0279 -0.5782  1.5086
 7263SOL     OW22608   4.336   5.593   0.815  0.2095 -0.1006 -0.0175
 7263SOL    HW122609   4.249   5.632   0.843  0.5167  1.6154 -1.2549
 7263SOL    HW222610   4.321   5.525   0.744 -0.1934 -0.5139  0.4662
 7264SOL     OW22611   4.718   3.902   3.080 -0.4492 -0.5568  0.2669
 7264SOL    HW122612   4.655   3.828   3.058  1.0947 -1.6170 -0.8853
 7264SOL    HW222613   4.698   3.981   3.022  0.5897 -1.6608 -1.6938
 7265SOL     OW22614   4.257   5.888   0.664 -0.2689 -0.1173 -0.4565
 7265SOL    HW122615   4.269   5.828   0.585 -0.0869 -0.2054 -0.3626
 7265SOL    HW222616   4.299   5.846   0.744 -2.1933 -1.0002  0.1637
 7266SOL     OW22617   4.874   2.876   4.203  0.0392  0.2823  0.0300
 7266SOL    HW122618   4.881   2.951   4.138  1.3307  1.4663  1.4644
 7266SOL    HW222619   4.843   2.794   4.156 -1.8406  1.7737 -1.5098
 7267SOL     OW22620   4.987   3.111   5.147 -0.1678 -0.2344 -0.2683
 7267SOL    HW122621   5.052   3.145   5.215  0.0833 -1.2647  0.0247
 7267SOL    HW222622   5.035   3.059   5.077 -0.7665 -1.8642  0.4960
 7268SOL     OW22623   1.010   1.893   3.044 -0.1386 -0.1013  0.0087
 7268SOL    HW122624   1.020   1.874   3.141  1.4869  1.2889  0.1566
 7268SOL    HW222625   0.925   1.944   3.029 -0.9153 -1.1934  0.5321
 7269SOL     OW22626   5.200   1.127   1.202  0.2923  0.1101  0.1475
 7269SOL    HW122627   5.194   1.195   1.129  1.3684 -0.7174 -0.7525
 7269SOL    HW222628   5.296   1.103   1.216  0.1837  0.7936  2.3672
 7270SOL     OW22629   6.397   7.007   5.293 -0.1249 -0.2170  0.2213
 7270SOL    HW122630   6.299   7.020   5.311 -0.2572  1.5582 -1.3904
 7270SOL    HW222631   6.447   7.088   5.325  0.7416 -0.8593  0.5139
 7271SOL     OW22632   6.228   1.148   2.962 -0.4103 -0.0031 -0.5385
 7271SOL    HW122633   6.193   1.202   3.038 -0.1157  0.5296 -0.7750
 7271SOL    HW222634   6.205   1.193   2.876  0.3204  0.0343 -0.7218
 7272SOL     OW22635   6.835   3.297   1.201  0.8134  0.8819 -0.4694
 7272SOL    HW122636   6.771   3.258   1.266  0.0347 -0.0145 -1.7193
 7272SOL    HW222637   6.876   3.380   1.239 -1.7280  1.9910  0.0464
 7273SOL     OW22638   1.801   0.096   0.073  0.0335  0.7476 -0.4725
 7273SOL    HW122639   1.876   0.126   0.132  1.0769  1.2696 -1.9838
 7273SOL    HW222640   1.830   0.015   0.022 -0.8325  0.3258 -0.3120
 7274SOL     OW22641   5.121   4.179   1.923 -0.3567 -0.2080 -0.8701
 7274SOL    HW122642   5.130   4.080   1.913 -0.0538 -0.3201  0.3969
 7274SOL    HW222643   5.078   4.217   1.841 -0.6979 -1.4142 -1.2617
 7275SOL     OW22644   4.712   2.052   6.913 -0.0984 -0.2207  0.3521
 7275SOL    HW122645   4.628   2.072   6.964  0.2692 -0.5845  1.1108
 7275SOL    HW222646   4.786   2.111   6.946 -0.5581  1.7132 -1.8460
 7276SOL     OW22647   4.043   3.403   6.220 -0.6894 -0.6705 -0.3362
 7276SOL    HW122648   3.961   3.421   6.167 -0.5766 -2.0062 -1.0197
 7276SOL    HW222649   4.115   3.467   6.193 -1.1196 -0.3002 -0.6218
 7277SOL     OW22650   1.058   4.803   1.967 -0.1379 -0.5986 -0.5904
 7277SOL    HW122651   1.059   4.791   1.867  1.9735  0.3906 -0.7438
 7277SOL    HW222652   0.970   4.841   1.994 -0.0436  1.0614 -2.3671
 7278SOL     OW22653   4.264   5.111   6.798 -0.0645 -0.0610  0.4429
 7278SOL    HW122654   4.347   5.079   6.843 -0.2380 -0.3025  0.5921
 7278SOL    HW222655   4.202   5.034   6.785 -0.2212  0.1010  0.2368
 7279SOL     OW22656   1.327   3.763   0.436 -0.4547 -0.2374 -0.1158
 7279SOL    HW122657   1.342   3.813   0.522  3.0069 -0.9143 -0.1907
 7279SOL    HW222658   1.276   3.679   0.456 -0.3302 -0.0403  1.1577
 7280SOL     OW22659   6.061   6.496   5.904  0.0636 -0.5445 -0.2054
 7280SOL    HW122660   6.005   6.573   5.873  1.1338 -0.4294 -1.9792
 7280SOL    HW222661   6.077   6.504   6.003 -2.0899 -0.0075  0.1445
 7281SOL     OW22662   3.914   4.729   3.829 -0.5424  0.1371 -0.1761
 7281SOL    HW122663   3.841   4.739   3.896 -0.1378  3.2634 -0.0376
 7281SOL    HW222664   3.876   4.742   3.737 -0.4030  0.4040 -0.1988
 7282SOL     OW22665   0.754   6.929   6.472  0.1988 -0.5930 -0.0362
 7282SOL    HW122666   0.774   7.005   6.410  0.4322  2.0455  3.0019
 7282SOL    HW222667   0.827   6.861   6.465  2.3310  1.5213 -0.0081
 7283SOL     OW22668   4.652   6.821   1.463 -0.0187  0.1199  0.5461
 7283SOL    HW122669   4.564   6.867   1.478 -0.7893 -0.9487 -0.4569
 7283SOL    HW222670   4.641   6.722   1.476  1.0754 -0.0127  0.5755
 7284SOL     OW22671   2.525   5.404   3.319  0.1937  0.1436  0.4301
 7284SOL    HW122672   2.598   5.412   3.251  1.3892 -0.7018  1.5734
 7284SOL    HW222673   2.481   5.493   3.331 -1.0406  0.0272 -2.4770
 7285SOL     OW22674   0.430   4.809   6.889  0.0056  0.5750 -0.9460
 7285SOL    HW122675   0.358   4.878   6.902 -0.6688 -0.0410 -1.3829
 7285SOL    HW222676   0.512   4.838   6.938 -0.6750  1.0839 -0.0741
 7286SOL     OW22677   5.790   3.747   4.397 -0.2110 -0.6393 -0.2874
 7286SOL    HW122678   5.780   3.758   4.496  2.2650 -1.1731  0.0639
 7286SOL    HW222679   5.736   3.818   4.351  0.9064  1.5509  1.5395
 7287SOL     OW22680   2.883   2.934   6.943  0.5605 -0.2474 -0.5992
 7287SOL    HW122681   2.918   2.867   7.008  1.7342 -0.3596 -1.3454
 7287SOL    HW222682   2.783   2.933   6.944  0.5443  0.0295  1.4680
 7288SOL     OW22683   0.428   4.417   0.281 -0.5604 -0.0160  0.3269
 7288SOL    HW122684   0.392   4.345   0.340  1.5523  0.3427  2.1902
 7288SOL    HW222685   0.528   4.408   0.274 -0.3076  2.2973  0.0497
 7289SOL     OW22686   0.796   6.121   3.348 -0.6947 -0.3375  0.1627
 7289SOL    HW122687   0.705   6.094   3.379  0.3998 -3.7520  0.8102
 7289SOL    HW222688   0.861   6.111   3.423  0.4455  0.9588 -0.5941
 7290SOL     OW22689   4.245   5.852   1.592 -0.5362 -0.0575 -0.3013
 7290SOL    HW122690   4.220   5.784   1.661  1.4702 -1.1707 -0.5810
 7290SOL    HW222691   4.336   5.888   1.612 -0.9954  1.5511 -0.9386
 7291SOL     OW22692   5.701   1.659   4.884  0.3825  0.3244 -0.3934
 7291SOL    HW122693   5.648   1.612   4.954  0.7649  0.0265 -0.3002
 7291SOL    HW222694   5.702   1.757   4.902 -1.1152  0.4828 -1.0404
 7292SOL     OW22695   4.786   6.822   4.339 -0.2731  0.6451  0.4677
 7292SOL    HW122696   4.868   6.876   4.320 -0.2182 -0.2365 -2.1021
 7292SOL    HW222697   4.705   6.873   4.307 -0.5029  0.5345  0.8754
 7293SOL     OW22698   1.797   6.441   1.074 -0.3355  0.1585  0.1931
 7293SOL    HW122699   1.714   6.489   1.045  0.3680  0.4961 -1.3924
 7293SOL    HW222700   1.866   6.508   1.102  1.2241  0.3665 -3.5518
 7294SOL     OW22701   1.119   4.152   6.094 -0.4197 -0.1074 -0.7441
 7294SOL    HW122702   1.153   4.070   6.139 -0.4436 -0.0297 -0.5861
 7294SOL    HW222703   1.190   4.223   6.095 -0.1234 -0.3718 -1.5349
 7295SOL     OW22704   5.602   3.433   3.778  0.1273  0.2179  0.2536
 7295SOL    HW122705   5.531   3.413   3.711  0.4780 -0.5271  0.1027
 7295SOL    HW222706   5.647   3.349   3.806  2.5265  0.8523 -1.3786
 7296SOL     OW22707   0.572   6.239   0.821  0.3481  0.1769  0.4648
 7296SOL    HW122708   0.510   6.160   0.823 -0.3409  0.7306  1.1905
 7296SOL    HW222709   0.582   6.276   0.913  0.5695  1.0189  0.1066
 7297SOL     OW22710   6.847   3.566   3.324  0.0468 -0.0913  0.1660
 7297SOL    HW122711   6.765   3.595   3.274 -0.3296  0.1421  0.9193
 7297SOL    HW222712   6.869   3.472   3.300 -2.2902 -1.2699  2.3481
 7298SOL     OW22713   1.684   2.902   2.900 -0.3267 -0.2016 -0.5700
 7298SOL    HW122714   1.589   2.915   2.874 -0.7247  1.5799  1.5643
 7298SOL    HW222715   1.692   2.823   2.961 -0.7379  0.5916  0.5451
 7299SOL     OW22716   5.854   1.800   3.940 -0.0702  0.2562 -0.0793
 7299SOL    HW122717   5.818   1.709   3.964 -0.9191  1.0706  1.9702
 7299SOL    HW222718   5.778   1.864   3.928  0.5706  1.3381  1.3644
 7300SOL     OW22719   4.064   6.312   1.275 -0.5339  0.6049  0.6925
 7300SOL    HW122720   4.079   6.248   1.349 -0.4638 -1.2669 -0.8719
 7300SOL    HW222721   3.971   6.348   1.280 -1.6379 -1.9697 -0.1036
 7301SOL     OW22722   1.754   0.791   3.578 -0.0016 -0.2789  0.2543
 7301SOL    HW122723   1.807   0.847   3.514  0.6220 -0.5676  0.5097
 7301SOL    HW222724   1.747   0.698   3.544 -1.1827 -0.0158 -0.2506
 7302SOL     OW22725   1.003   1.944   3.952 -0.3932 -0.3580  0.2887
 7302SOL    HW122726   1.063   1.901   4.019  0.9464 -2.2698 -1.9542
 7302SOL    HW222727   1.047   2.027   3.916 -0.3180 -0.2620  0.5969
 7303SOL     OW22728   0.705   3.460   3.675 -0.3325 -0.1252  0.4505
 7303SOL    HW122729   0.639   3.421   3.611  1.1550 -0.8476 -0.7147
 7303SOL    HW222730   0.706   3.560   3.666  0.1491 -0.2294 -1.0203
 7304SOL     OW22731   0.971   5.930   6.386  0.1873 -0.2740  0.4673
 7304SOL    HW122732   0.915   5.950   6.466 -2.8955 -0.0359 -1.6379
 7304SOL    HW222733   0.963   5.833   6.362 -0.1886 -0.0259 -0.4578
 7305SOL     OW22734   3.747   1.250   5.663  0.3254  0.6553  0.0769
 7305SOL    HW122735   3.800   1.279   5.584  1.4779 -0.9470  0.1971
 7305SOL    HW222736   3.805   1.194   5.723 -0.3484  2.2275  2.3191
 7306SOL     OW22737   1.754   5.174   2.751  0.1736  0.3105 -0.0125
 7306SOL    HW122738   1.810   5.166   2.669  0.8519  1.9012  0.2552
 7306SOL    HW222739   1.752   5.086   2.799 -0.4015 -0.7082 -1.8085
 7307SOL     OW22740   2.389   5.372   0.153 -0.1354 -0.7851  0.1700
 7307SOL    HW122741   2.346   5.330   0.232  0.4373  0.2066  1.0215
 7307SOL    HW222742   2.473   5.418   0.180 -1.0317  1.4347 -0.5875
 7308SOL     OW22743   6.766   4.679   0.684 -0.3801 -0.4835  0.0292
 7308SOL    HW122744   6.674   4.687   0.644  0.2651  0.5096 -1.3153
 7308SOL    HW222745   6.834   4.670   0.611  1.0449  3.3114  0.6870
 7309SOL     OW22746   3.747   2.341   5.850  0.8772 -0.3235 -0.1097
 7309SOL    HW122747   3.841   2.364   5.874  1.8505 -2.3430 -1.7310
 7309SOL    HW222748   3.747   2.275   5.774 -1.7380 -2.7323  1.7863
 7310SOL     OW22749   1.166   3.872   5.833  0.3878 -0.4598 -0.2146
 7310SOL    HW122750   1.253   3.856   5.879 -0.1703  0.2263  1.1111
 7310SOL    HW222751   1.094   3.886   5.900 -0.4903  0.3996 -1.2887
 7311SOL     OW22752   4.293   5.029   5.348  0.3125  0.1506  0.1356
 7311SOL    HW122753   4.205   5.025   5.396  0.6863 -0.1383  0.8114
 7311SOL    HW222754   4.278   5.016   5.250 -0.5651  1.6368  0.0446
 7312SOL     OW22755   3.350   2.054   2.115 -0.9629 -0.1425 -0.7685
 7312SOL    HW122756   3.347   2.032   2.212 -2.3456 -0.3556 -0.8310
 7312SOL    HW222757   3.403   2.137   2.101  1.8769 -1.7127 -0.2116
 7313SOL     OW22758   6.105   0.183   5.081 -0.0560 -0.0039  0.6914
 7313SOL    HW122759   6.055   0.268   5.099  2.3317  1.2509  1.8214
 7313SOL    HW222760   6.157   0.193   4.996  0.9381  0.0288  1.2931
 7314SOL     OW22761   1.957   5.480   3.813 -0.5960  0.5144  0.3668
 7314SOL    HW122762   2.017   5.432   3.877  1.7757  0.2890 -1.8540
 7314SOL    HW222763   1.889   5.416   3.776  0.2199 -0.2282  0.1252
 7315SOL     OW22764   5.021   5.710   1.227  0.2087 -0.0598 -0.7930
 7315SOL    HW122765   5.028   5.757   1.316  2.1508  1.5099 -1.6880
 7315SOL    HW222766   4.941   5.650   1.227  0.5274 -0.6467  2.2451
 7316SOL     OW22767   1.383   4.673   1.884  0.0394 -0.1694  0.4885
 7316SOL    HW122768   1.315   4.627   1.941  1.3218  0.6006  2.8533
 7316SOL    HW222769   1.469   4.622   1.887  0.3540  0.3086 -0.1358
 7317SOL     OW22770   0.956   5.704   5.824  0.4065 -0.1055  0.4592
 7317SOL    HW122771   0.904   5.618   5.835  0.2471 -0.8993 -4.3754
 7317SOL    HW222772   1.051   5.682   5.802  0.5120  0.9390 -0.1622
 7318SOL     OW22773   5.323   6.370   6.620  0.2191  0.4818 -0.6533
 7318SOL    HW122774   5.380   6.288   6.624 -1.7006 -0.9898 -1.6737
 7318SOL    HW222775   5.229   6.343   6.600 -0.4952  2.9511 -0.8237
 7319SOL     OW22776   6.209   2.363   4.614 -0.2608  0.1593 -0.0052
 7319SOL    HW122777   6.129   2.422   4.624 -0.8259 -0.6627  0.4189
 7319SOL    HW222778   6.183   2.268   4.631  0.6651 -0.2033 -0.5581
 7320SOL     OW22779   0.081   6.641   3.564  0.5234  0.2979 -0.6543
 7320SOL    HW122780  -0.006   6.621   3.519  0.8292  1.5725 -1.8449
 7320SOL    HW222781   0.078   6.610   3.659 -0.9596 -0.3105 -0.8776
 7321SOL     OW22782   4.309   0.324   3.458 -0.6787 -0.0823  0.3380
 7321SOL    HW122783   4.355   0.258   3.518 -1.1681  0.2761  1.1247
 7321SOL    HW222784   4.214   0.335   3.487 -0.3076  1.7969  0.9310
 7322SOL     OW22785   2.237   0.701   1.061  0.2311  0.3903  0.5659
 7322SOL    HW122786   2.279   0.775   1.007 -0.2518 -0.0185 -0.4032
 7322SOL    HW222787   2.138   0.714   1.062  0.0350 -0.8864 -0.6139
 7323SOL     OW22788   0.193   6.198   6.073 -0.1254 -0.5703  0.4111
 7323SOL    HW122789   0.234   6.152   6.152  2.5462  1.0542  0.0943
 7323SOL    HW222790   0.252   6.185   5.994 -0.6269  1.2173 -0.2959
 7324SOL     OW22791   4.613   4.821   4.685 -0.4518  0.2035 -0.8518
 7324SOL    HW122792   4.655   4.906   4.718  0.6856 -0.2157 -1.1858
 7324SOL    HW222793   4.556   4.841   4.606 -0.7254  0.7547 -0.5254
 7325SOL     OW22794   1.877   4.975   3.394 -0.2885 -0.7174 -0.0875
 7325SOL    HW122795   1.790   4.959   3.441 -0.8141  1.0732 -0.3906
 7325SOL    HW222796   1.897   5.072   3.394  1.3872 -1.0377 -0.6509
 7326SOL     OW22797   6.635   5.586   4.577  0.4032  0.3337 -0.7775
 7326SOL    HW122798   6.619   5.537   4.663 -0.0451  0.4547 -0.7860
 7326SOL    HW222799   6.712   5.648   4.588  2.1756 -1.6697 -1.2957
 7327SOL     OW22800   4.247   1.003   5.978  0.2505 -0.2240  0.7848
 7327SOL    HW122801   4.183   0.955   5.916 -0.4468  0.7049  0.7697
 7327SOL    HW222802   4.210   1.001   6.071  0.0508  0.5631  0.7267
 7328SOL     OW22803   4.748   1.411   1.760  0.4573 -0.2653  0.3622
 7328SOL    HW122804   4.837   1.391   1.719  1.0637  0.4791  1.2815
 7328SOL    HW222805   4.702   1.483   1.708  1.7961  1.6253  1.6626
 7329SOL     OW22806   4.953   3.781   1.343  0.2816 -0.2123 -0.2488
 7329SOL    HW122807   4.889   3.760   1.269 -0.9143  0.3009  0.5906
 7329SOL    HW222808   4.919   3.861   1.394  0.8983 -0.7443  1.0278
 7330SOL     OW22809   6.522   4.987   0.326 -0.0644  0.1328  0.3477
 7330SOL    HW122810   6.552   4.902   0.282  0.9221  1.2831 -1.3166
 7330SOL    HW222811   6.579   5.005   0.406  0.2656 -0.3256  0.2217
 7331SOL     OW22812   2.880   6.575   5.660 -0.9836 -0.4625  0.4526
 7331SOL    HW122813   2.823   6.552   5.581 -0.8210 -0.2683  0.2753
 7331SOL    HW222814   2.843   6.532   5.742 -0.2127 -2.0671 -0.0005
 7332SOL     OW22815   4.444   5.321   2.006  0.1944  0.0759 -0.1112
 7332SOL    HW122816   4.424   5.309   2.104  1.3988  0.9737  0.2708
 7332SOL    HW222817   4.451   5.231   1.963  2.4318 -0.4902  1.2446
 7333SOL     OW22818   4.080   3.213   5.735  0.1827  0.4090 -0.0163
 7333SOL    HW122819   4.160   3.162   5.768 -0.7948 -0.2125  1.4667
 7333SOL    HW222820   4.104   3.309   5.724  0.9854  0.3205  0.8861
 7334SOL     OW22821   3.513   4.989   3.324 -0.2559  0.7409  0.3430
 7334SOL    HW122822   3.598   4.941   3.345 -0.9600 -1.6634 -1.7954
 7334SOL    HW222823   3.455   4.992   3.406 -0.3844 -2.7042  0.5392
 7335SOL     OW22824   5.548   0.960   1.913  0.1629  0.6836  0.4141
 7335SOL    HW122825   5.613   1.027   1.947 -0.6652  0.9979  1.4294
 7335SOL    HW222826   5.488   0.930   1.987 -1.1370  0.7353 -0.5697
 7336SOL     OW22827   5.406   3.814   4.971  0.0567  0.4186  0.7196
 7336SOL    HW122828   5.415   3.877   4.895  2.4280  0.4800  1.0064
 7336SOL    HW222829   5.453   3.851   5.051 -0.8849 -0.4455  1.6938
 7337SOL     OW22830   2.598   1.736   5.254 -1.0254  0.3089  0.3680
 7337SOL    HW122831   2.506   1.711   5.284 -0.8164  2.0904  2.7313
 7337SOL    HW222832   2.601   1.835   5.236  0.5339  0.3289  0.6706
 7338SOL     OW22833   2.158   1.581   3.929 -0.0513 -0.8271  0.2997
 7338SOL    HW122834   2.140   1.679   3.944 -1.1979 -0.7922 -1.0653
 7338SOL    HW222835   2.242   1.571   3.876 -0.7130 -0.4564 -0.8801
 7339SOL     OW22836   4.368   5.524   0.319  0.0758 -0.6449  0.3258
 7339SOL    HW122837   4.454   5.474   0.329  0.5651  0.1492  0.3137
 7339SOL    HW222838   4.342   5.528   0.223 -0.4342 -1.6023  0.4101
 7340SOL     OW22839   2.479   5.591   1.822  0.0005 -0.5079 -0.5801
 7340SOL    HW122840   2.484   5.690   1.811  1.6378 -0.4501  0.2453
 7340SOL    HW222841   2.451   5.569   1.915  0.5026 -0.7815 -0.4837
 7341SOL     OW22842   0.309   4.908   3.141  0.2200  0.3527  0.5496
 7341SOL    HW122843   0.287   4.910   3.238  0.0300 -2.4362  0.6491
 7341SOL    HW222844   0.343   4.998   3.112  1.7533  0.8439  3.5169
 7342SOL     OW22845   3.998   5.781   0.408 -0.0693  0.6420  0.0732
 7342SOL    HW122846   3.940   5.721   0.464  0.2565 -0.2454 -0.5264
 7342SOL    HW222847   3.961   5.787   0.316  0.9870 -0.2353 -0.4253
 7343SOL     OW22848   1.658   4.905   3.542 -0.1444 -0.0053 -0.5124
 7343SOL    HW122849   1.579   4.941   3.592 -0.9360 -1.2743 -0.8097
 7343SOL    HW222850   1.657   4.805   3.546  0.6823 -0.0728 -1.6767
 7344SOL     OW22851   1.008   3.381   1.745  0.1658 -0.1356 -0.1487
 7344SOL    HW122852   1.003   3.393   1.844 -0.0565 -1.5646  0.0440
 7344SOL    HW222853   1.102   3.399   1.714  0.2226  0.3623  0.3140
 7345SOL     OW22854   1.058   2.369   5.948 -0.0846  0.1841 -0.2377
 7345SOL    HW122855   0.990   2.440   5.964 -1.2432 -0.5866 -1.4533
 7345SOL    HW222856   1.097   2.340   6.035 -0.0866  1.8077  0.3303
 7346SOL     OW22857   6.040   5.794   2.061  0.6762  0.1093  0.2911
 7346SOL    HW122858   6.084   5.877   2.095 -0.2393 -0.1259  2.1395
 7346SOL    HW222859   6.101   5.716   2.076 -0.0235 -0.1226  2.2928
 7347SOL     OW22860   5.035   1.703   1.670 -0.2491 -0.0686 -0.1628
 7347SOL    HW122861   5.088   1.700   1.585 -1.2327  1.1281 -0.8540
 7347SOL    HW222862   4.951   1.650   1.659 -0.2686 -0.1024  0.1364
 7348SOL     OW22863   3.100   0.975   3.355  0.7497 -0.0596  0.5030
 7348SOL    HW122864   3.120   1.000   3.260  0.1628  1.0479  0.6571
 7348SOL    HW222865   3.061   1.054   3.403 -0.3576 -1.0259  1.2590
 7349SOL     OW22866   5.425   6.563   5.519 -0.1241 -0.1341 -0.2324
 7349SOL    HW122867   5.473   6.478   5.541 -0.0659 -0.0305  0.0420
 7349SOL    HW222868   5.328   6.553   5.540 -0.3043 -0.4880 -1.1769
 7350SOL     OW22869   0.716   3.763   4.477  0.0519 -0.4296 -0.0892
 7350SOL    HW122870   0.645   3.779   4.545  0.5566  1.1108  0.1048
 7350SOL    HW222871   0.802   3.740   4.524  0.5791  1.3311 -0.1388
 7351SOL     OW22872   4.486   6.283   5.791  0.0901 -0.5032  0.5178
 7351SOL    HW122873   4.506   6.372   5.749  0.9310 -0.8516  0.1574
 7351SOL    HW222874   4.404   6.291   5.847 -0.6061  0.1836 -0.5546
 7352SOL     OW22875   4.767   2.094   4.760  0.3217  0.0345 -0.3892
 7352SOL    HW122876   4.789   2.132   4.850 -0.7414 -2.4716  1.0186
 7352SOL    HW222877   4.847   2.049   4.722  0.7211  0.9423 -0.6696
 7353SOL     OW22878   5.741   6.477   0.949 -0.3259  0.5482 -0.2997
 7353SOL    HW122879   5.682   6.519   0.879 -1.2420  2.1090  1.3019
 7353SOL    HW222880   5.708   6.503   1.040  0.3669 -2.0194  0.7890
 7354SOL     OW22881   5.422   3.178   6.423  0.3787 -0.0760 -0.8354
 7354SOL    HW122882   5.332   3.221   6.417 -0.5580 -1.7742  0.2636
 7354SOL    HW222883   5.453   3.153   6.331 -0.8492 -0.5660 -1.1332
 7355SOL     OW22884   1.612   5.825   3.095  0.1419 -0.0980 -0.3459
 7355SOL    HW122885   1.634   5.728   3.086 -0.2553 -0.4620  2.0162
 7355SOL    HW222886   1.525   5.844   3.050 -0.6781 -1.2470  0.7025
 7356SOL     OW22887   2.034   0.238   5.544 -0.0026 -0.4629 -0.3322
 7356SOL    HW122888   1.965   0.256   5.615 -0.2689  1.1665 -0.9645
 7356SOL    HW222889   2.004   0.279   5.458  0.8675 -1.4207 -1.1040
 7357SOL     OW22890   6.706   1.561   3.457  0.2595 -0.3131 -0.1459
 7357SOL    HW122891   6.625   1.620   3.454 -1.0345 -2.0024 -1.4333
 7357SOL    HW222892   6.762   1.578   3.376  0.6769  0.1564  0.2352
 7358SOL     OW22893   5.863   5.007   2.957 -0.0445 -0.0270 -0.2976
 7358SOL    HW122894   5.792   4.961   3.011  1.2593 -1.4187  0.2994
 7358SOL    HW222895   5.906   5.079   3.013 -0.9833  0.8641 -0.6813
 7359SOL     OW22896   6.962   2.316   1.222 -0.0258 -0.3212 -0.1769
 7359SOL    HW122897   6.984   2.219   1.223 -0.8305 -0.5134 -0.3342
 7359SOL    HW222898   6.882   2.333   1.279 -0.2800  0.1567 -0.6588
 7360SOL     OW22899   1.703   4.484   4.779  0.3970 -0.4368  0.1891
 7360SOL    HW122900   1.658   4.499   4.691 -1.2773 -0.6669  0.9481
 7360SOL    HW222901   1.758   4.564   4.803 -1.6949  1.0229  0.3699
 7361SOL     OW22902   1.028   0.987   4.736 -0.0907 -0.4293  0.2256
 7361SOL    HW122903   0.993   1.060   4.795  0.0956  0.5911 -0.8566
 7361SOL    HW222904   1.098   1.025   4.675  0.4471 -1.6704  0.0392
 7362SOL     OW22905   6.196   6.264   0.163 -0.1361 -0.1983  0.2006
 7362SOL    HW122906   6.261   6.236   0.234  0.8573  1.2375 -0.1113
 7362SOL    HW222907   6.202   6.199   0.087 -0.6665 -1.3188  1.0828
 7363SOL     OW22908   6.252   0.036   5.572 -0.3574 -0.2783 -0.3055
 7363SOL    HW122909   6.193   0.054   5.651  0.7303 -0.3940  0.5756
 7363SOL    HW222910   6.198   0.039   5.488 -1.6315 -0.5795  0.4698
 7364SOL     OW22911   2.764   1.416   3.533 -0.3828 -0.2520 -0.6262
 7364SOL    HW122912   2.748   1.319   3.549  0.3851 -0.2999 -0.0831
 7364SOL    HW222913   2.859   1.430   3.504 -0.1654  0.4387  0.3612
 7365SOL     OW22914   0.441   4.920   5.550 -0.9585 -0.5520 -0.5487
 7365SOL    HW122915   0.494   4.943   5.468  1.2743 -0.2685  0.8943
 7365SOL    HW222916   0.479   4.837   5.591 -1.7379 -0.4125  0.4747
 7366SOL     OW22917   6.498   4.586   5.668 -0.0622  0.0455  0.3553
 7366SOL    HW122918   6.414   4.634   5.643 -0.4772 -0.4290  0.8260
 7366SOL    HW222919   6.575   4.625   5.617 -0.4666  0.8929  0.3775
 7367SOL     OW22920   3.245   1.283   3.051  0.1509 -0.7415 -0.0977
 7367SOL    HW122921   3.173   1.215   3.050 -0.4836 -0.1553  1.6157
 7367SOL    HW222922   3.282   1.292   3.143  1.3215  0.1050 -0.6163
 7368SOL     OW22923   1.258   3.854   2.053 -0.0197 -0.2098  0.2777
 7368SOL    HW122924   1.260   3.862   1.954  2.7041 -2.2439  0.0579
 7368SOL    HW222925   1.333   3.906   2.093  3.5868 -4.9326  0.5080
 7369SOL     OW22926   6.804   6.447   6.535  0.0229 -0.0532  0.3045
 7369SOL    HW122927   6.821   6.396   6.450 -1.1318  2.2951 -1.4566
 7369SOL    HW222928   6.725   6.407   6.582 -0.3537 -0.4102 -0.5956
 7370SOL     OW22929   3.413   0.090   6.876 -0.5381  0.0817 -0.1687
 7370SOL    HW122930   3.350   0.043   6.938  0.5793  0.7321  1.5576
 7370SOL    HW222931   3.449   0.172   6.922  1.0920  0.0472 -1.3083
 7371SOL     OW22932   1.652   5.452   4.522  0.1364 -0.3773  0.4857
 7371SOL    HW122933   1.566   5.413   4.488 -0.5528  0.6848  0.9520
 7371SOL    HW222934   1.728   5.413   4.471 -0.8338  1.0283 -2.2675
 7372SOL     OW22935   2.357   1.942   6.638 -0.1849  0.1868  0.1655
 7372SOL    HW122936   2.373   1.871   6.706 -0.5367  0.4686  0.5484
 7372SOL    HW222937   2.444   1.979   6.607  0.0885 -1.3605 -1.0701
 7373SOL     OW22938   5.223   6.324   1.743 -0.1112  0.2647 -0.3144
 7373SOL    HW122939   5.286   6.253   1.711  2.8185  2.0809  1.0295
 7373SOL    HW222940   5.215   6.395   1.673 -1.7953 -0.5899 -1.0234
 7374SOL     OW22941   1.490   3.485   0.612 -0.4068  0.8391 -0.2956
 7374SOL    HW122942   1.480   3.437   0.699  0.1219  0.3368 -0.5023
 7374SOL    HW222943   1.460   3.426   0.537 -0.3831  1.0831 -0.5056
 7375SOL     OW22944   2.834   4.687   5.373 -0.2853  0.3234 -0.5229
 7375SOL    HW122945   2.810   4.664   5.279 -3.6867 -0.9333  0.5190
 7375SOL    HW222946   2.832   4.604   5.429 -0.9260  1.4225  1.1423
 7376SOL     OW22947   0.669   1.622   3.043 -0.2099 -0.5486  0.0586
 7376SOL    HW122948   0.762   1.649   3.068 -0.8607  0.0424  2.0702
 7376SOL    HW222949   0.606   1.698   3.059 -1.3304 -1.5833  0.7766
 7377SOL     OW22950   6.493   6.137   0.498 -0.4743 -0.1936  0.2939
 7377SOL    HW122951   6.538   6.060   0.543 -1.1924  0.5379  2.4195
 7377SOL    HW222952   6.555   6.216   0.497 -0.3040 -0.3358 -0.4099
 7378SOL     OW22953   0.686   2.426   6.774 -0.1393 -0.5986 -0.4506
 7378SOL    HW122954   0.722   2.444   6.866  1.0824 -0.9872 -0.8228
 7378SOL    HW222955   0.715   2.499   6.712 -0.2740 -0.7471 -0.6896
 7379SOL     OW22956   4.809   5.890   2.691 -0.2730 -0.0486  0.0777
 7379SOL    HW122957   4.837   5.802   2.729  0.1699  0.2596  0.4733
 7379SOL    HW222958   4.793   5.880   2.593  0.1971 -0.4693  0.0391
 7380SOL     OW22959   5.949   6.249   3.085  0.2439  0.1495 -0.2812
 7380SOL    HW122960   5.866   6.223   3.134 -0.3732 -0.8482 -1.8093
 7380SOL    HW222961   5.963   6.348   3.095  0.6169 -0.1149  2.5578
 7381SOL     OW22962   4.579   2.239   3.125  0.1960 -0.1304 -0.1767
 7381SOL    HW122963   4.554   2.316   3.067  0.9311 -0.5040 -1.0011
 7381SOL    HW222964   4.518   2.236   3.205 -3.0416 -1.4754 -2.4677
 7382SOL     OW22965   1.592   1.888   1.083 -0.3737 -0.3604  0.1907
 7382SOL    HW122966   1.539   1.959   1.130 -0.1689 -1.3235  2.0013
 7382SOL    HW222967   1.540   1.853   1.006  0.1565  2.8167 -1.8388
 7383SOL     OW22968   4.734   1.456   5.755  0.5559  0.0405 -0.6381
 7383SOL    HW122969   4.706   1.360   5.749  0.2304  0.1155 -0.3549
 7383SOL    HW222970   4.817   1.463   5.810 -0.9799  0.1930  1.8106
 7384SOL     OW22971   2.464   6.109   1.888  0.1778  0.3902 -0.0940
 7384SOL    HW122972   2.407   6.166   1.947  2.1703  1.5142  0.8918
 7384SOL    HW222973   2.553   6.096   1.932  0.7694 -1.0816 -1.6422
 7385SOL     OW22974   0.426   0.192   2.263  0.3684 -0.0718  0.4627
 7385SOL    HW122975   0.483   0.162   2.340 -0.4408 -0.9219  0.7478
 7385SOL    HW222976   0.336   0.149   2.268  0.1292  0.2269 -0.7046
 7386SOL     OW22977   0.574   5.751   5.572 -0.4495 -0.5263 -0.1354
 7386SOL    HW122978   0.616   5.791   5.654  0.8925 -1.0835 -0.5218
 7386SOL    HW222979   0.618   5.663   5.552 -0.9517 -0.5218 -1.3079
 7387SOL     OW22980   2.176   3.586   1.226 -0.2094 -0.5382 -0.1682
 7387SOL    HW122981   2.222   3.532   1.296 -0.4909 -0.6435 -0.0630
 7387SOL    HW222982   2.194   3.546   1.136  2.4785  1.1171 -0.5289
 7388SOL     OW22983   5.491   3.497   2.278 -0.3323  0.2951 -0.7106
 7388SOL    HW122984   5.574   3.441   2.286  0.1625  1.2645  1.7485
 7388SOL    HW222985   5.438   3.466   2.200  2.0159 -0.7840 -1.9849
 7389SOL     OW22986   6.412   3.256   3.992  0.2929  0.0670 -0.3817
 7389SOL    HW122987   6.488   3.206   3.950 -0.2107 -1.4044  0.4159
 7389SOL    HW222988   6.448   3.335   4.042  1.0455  0.8699 -2.1126
 7390SOL     OW22989   5.568   5.892   0.788 -0.0129  0.0758 -0.3382
 7390SOL    HW122990   5.551   5.974   0.842  0.0151 -0.0959 -0.0639
 7390SOL    HW222991   5.636   5.911   0.718  0.4020  0.1407  0.0761
 7391SOL     OW22992   0.219   3.633   5.834 -0.0176 -0.4786 -0.3660
 7391SOL    HW122993   0.197   3.730   5.835  0.7715 -0.2875  0.5997
 7391SOL    HW222994   0.217   3.598   5.928 -0.0212 -1.3241 -0.6774
 7392SOL     OW22995   0.991   2.142   5.118  0.9562 -0.0040  0.9049
 7392SOL    HW122996   1.088   2.140   5.092  0.8581 -1.0632  0.5899
 7392SOL    HW222997   0.942   2.205   5.059  1.5659  1.0852  1.4976
 7393SOL     OW22998   5.768   2.618   0.255  0.6350  0.3327 -0.4929
 7393SOL    HW122999   5.676   2.617   0.294  0.2290  0.0414 -1.4277
 7393SOL    HW223000   5.804   2.711   0.255  0.0173  0.5745 -0.8563
 7394SOL     OW23001   4.447   1.382   0.646  0.3383 -0.1589 -0.2131
 7394SOL    HW123002   4.512   1.406   0.718  0.4016 -0.7658 -0.0627
 7394SOL    HW223003   4.460   1.443   0.568  0.7191  0.0730  0.0296
 7395SOL     OW23004   5.513   6.292   5.922  0.2396  0.5251  0.2324
 7395SOL    HW123005   5.492   6.259   5.830  1.3691  1.4461 -0.3695
 7395SOL    HW223006   5.440   6.353   5.953 -0.7436 -0.7172  0.4553
 7396SOL     OW23007   5.464   3.076   4.779 -0.0845 -0.0641  0.1554
 7396SOL    HW123008   5.428   3.114   4.864 -2.1213  0.0494 -0.6838
 7396SOL    HW223009   5.481   3.150   4.714  1.3237 -0.1626  0.3852
 7397SOL     OW23010   2.759   5.381   2.967 -0.1804  0.2433  0.0155
 7397SOL    HW123011   2.809   5.326   3.033 -2.9305 -0.5652  1.5732
 7397SOL    HW223012   2.724   5.322   2.894 -1.5915  0.1698  0.7135
 7398SOL     OW23013   6.731   1.937   3.013 -0.4565  0.3714 -0.0318
 7398SOL    HW123014   6.751   1.854   3.065 -2.2478 -1.1835 -1.6686
 7398SOL    HW223015   6.668   1.995   3.065 -1.5499 -0.7440 -0.0621
 7399SOL     OW23016   5.985   4.304   1.362 -0.7889  0.8331 -0.1454
 7399SOL    HW123017   5.923   4.360   1.416 -1.4284 -0.7918  0.8860
 7399SOL    HW223018   5.932   4.238   1.308  0.0136 -0.5554  0.7209
 7400SOL     OW23019   6.554   5.548   5.768  0.6373  0.3300 -0.2651
 7400SOL    HW123020   6.477   5.606   5.742  0.7150  0.0544 -1.1327
 7400SOL    HW223021   6.536   5.454   5.738  1.5652  0.3741 -1.0158
 7401SOL     OW23022   6.961   5.094   0.355 -0.0492  0.7016 -0.4000
 7401SOL    HW123023   6.905   5.142   0.423 -0.1224  1.6648 -1.0915
 7401SOL    HW223024   6.933   4.999   0.350 -1.1594  0.9993 -0.2247
 7402SOL     OW23025   0.273   2.868   3.876 -0.2403 -0.6753 -0.2621
 7402SOL    HW123026   0.267   2.941   3.943  0.0622 -1.7687  0.9990
 7402SOL    HW223027   0.201   2.879   3.808 -0.5644  0.4514  0.2389
 7403SOL     OW23028   1.766   2.845   6.402 -0.1607 -0.3363 -0.7048
 7403SOL    HW123029   1.848   2.790   6.419  0.9100  1.1142 -0.9150
 7403SOL    HW223030   1.731   2.825   6.311  0.8727  0.1072 -1.2200
 7404SOL     OW23031   5.250   5.310   2.951 -0.0695  0.3222 -0.9387
 7404SOL    HW123032   5.346   5.303   2.979  0.1317  0.3458 -1.6081
 7404SOL    HW223033   5.206   5.220   2.959 -0.5279  0.6726  1.2053
 7405SOL     OW23034   5.274   0.157   3.037  0.7494 -0.1230 -0.4109
 7405SOL    HW123035   5.233   0.248   3.028  0.2740 -0.2400  0.4614
 7405SOL    HW223036   5.211   0.098   3.087  1.7205 -0.4991  0.3821
 7406SOL     OW23037   2.566   4.530   0.690  0.5171 -0.3210  0.8494
 7406SOL    HW123038   2.584   4.462   0.762  1.8098 -2.6399 -1.5191
 7406SOL    HW223039   2.494   4.496   0.630  0.6753  0.7593  0.0332
 7407SOL     OW23040   5.577   3.183   0.277  0.2553 -0.3212  0.2798
 7407SOL    HW123041   5.638   3.240   0.222 -0.7061 -0.4761 -0.9716
 7407SOL    HW223042   5.632   3.128   0.341  1.2594  1.1431  0.7210
 7408SOL     OW23043   6.062   0.572   0.375  0.0489  0.1316  0.1999
 7408SOL    HW123044   5.969   0.559   0.339  0.4585 -0.5242 -0.6709
 7408SOL    HW223045   6.128   0.563   0.300  1.0192 -2.3217  1.2449
 7409SOL     OW23046   6.403   0.577   4.523  0.1584  0.1434 -0.1872
 7409SOL    HW123047   6.452   0.512   4.582  0.7644  0.6847 -0.0787
 7409SOL    HW223048   6.312   0.593   4.560 -1.1860 -2.9276 -1.8256
 7410SOL     OW23049   2.873   6.725   0.386  0.1920 -0.5262  0.0303
 7410SOL    HW123050   2.896   6.628   0.396  2.3486 -0.0254  0.3957
 7410SOL    HW223051   2.806   6.750   0.456  0.8972 -1.3755  1.0518
 7411SOL     OW23052   2.241   3.428   3.226 -0.3194 -0.3813 -0.3735
 7411SOL    HW123053   2.164   3.391   3.174 -1.9232  1.7100  0.3425
 7411SOL    HW223054   2.209   3.455   3.317  2.1306 -2.8679  1.3823
 7412SOL     OW23055   5.447   2.468   1.467  0.4553  0.6181 -0.3625
 7412SOL    HW123056   5.521   2.447   1.404  1.3381 -1.3069  1.2269
 7412SOL    HW223057   5.484   2.499   1.554 -0.5919  0.1462  0.2852
 7413SOL     OW23058   5.956   1.348   6.085  0.3673  0.7639 -0.4765
 7413SOL    HW123059   5.900   1.273   6.118  0.3813  0.8520 -0.2439
 7413SOL    HW223060   5.977   1.335   5.988  0.2710  0.5310 -0.4690
 7414SOL     OW23061   2.767   0.634   6.473  0.6001 -0.2098 -0.5089
 7414SOL    HW123062   2.729   0.567   6.409 -1.7618  0.8247 -0.3358
 7414SOL    HW223063   2.800   0.713   6.422 -0.6146  0.3056 -0.5327
 7415SOL     OW23064   4.142   0.160   0.220  0.4590  0.1353  0.1794
 7415SOL    HW123065   4.211   0.201   0.160  0.1770  0.1524 -0.1419
 7415SOL    HW223066   4.060   0.216   0.220  0.4602  0.1441  0.5959
 7416SOL     OW23067   4.512   6.454   1.880  0.3300 -0.3530 -0.0579
 7416SOL    HW123068   4.557   6.380   1.831 -0.0592  0.6340 -1.9556
 7416SOL    HW223069   4.418   6.463   1.848  0.1365  0.4913  0.7102
 7417SOL     OW23070   0.022   5.764   5.521  0.2289  0.9317 -0.3955
 7417SOL    HW123071   0.030   5.835   5.451 -0.3383 -0.0079 -1.4289
 7417SOL    HW223072  -0.012   5.680   5.480  1.8335 -0.2660  0.6339
 7418SOL     OW23073   1.264   3.722   0.735  0.1757 -0.1967 -0.1407
 7418SOL    HW123074   1.352   3.769   0.739 -0.2305  0.6138 -0.5560
 7418SOL    HW223075   1.273   3.639   0.679  0.3063  0.7760 -1.6462
 7419SOL     OW23076   2.398   3.584   0.430  0.2318  0.0912 -0.0678
 7419SOL    HW123077   2.439   3.549   0.346  1.0671  1.6943 -0.3604
 7419SOL    HW223078   2.321   3.526   0.457  1.9077 -2.3058 -0.1880
 7420SOL     OW23079   3.318   0.373   6.915 -0.2946  0.0841 -0.9496
 7420SOL    HW123080   3.334   0.382   7.013 -0.3352 -0.9329 -0.8627
 7420SOL    HW223081   3.257   0.295   6.897  2.7638 -2.3126 -1.9671
 7421SOL     OW23082   3.011   0.342   0.184  0.3402  0.1157  0.2497
 7421SOL    HW123083   2.975   0.360   0.092  0.2185 -0.3773  0.1932
 7421SOL    HW223084   2.945   0.372   0.252 -1.2321 -2.7172  0.1396
 7422SOL     OW23085   4.160   3.653   2.780 -0.0833 -0.5415  0.4393
 7422SOL    HW123086   4.106   3.659   2.697  0.8644 -0.4105 -0.1978
 7422SOL    HW223087   4.190   3.745   2.807 -1.6083 -0.4190  1.7689
 7423SOL     OW23088   5.672   6.933   1.581  0.1546 -0.4399 -0.1690
 7423SOL    HW123089   5.677   6.873   1.501 -2.1777 -0.6766 -0.2165
 7423SOL    HW223090   5.682   7.028   1.551 -0.5515 -0.5369 -0.7530
 7424SOL     OW23091   5.543   0.896   0.043 -0.2075  0.5908  0.0607
 7424SOL    HW123092   5.629   0.914   0.091  1.5210  0.1205 -2.6647
 7424SOL    HW223093   5.494   0.983   0.028 -0.2258  0.8665  1.5877
 7425SOL     OW23094   4.935   4.304   2.076  0.7242 -0.1243 -0.3426
 7425SOL    HW123095   4.937   4.396   2.038  1.7000 -1.1661 -3.1791
 7425SOL    HW223096   5.000   4.246   2.026 -1.5413 -2.9309 -0.3453
 7426SOL     OW23097   0.415   5.730   6.361  0.4630  0.6400  0.0517
 7426SOL    HW123098   0.501   5.725   6.413 -0.0129 -1.9104  0.7277
 7426SOL    HW223099   0.403   5.644   6.310 -1.3826  1.2173 -0.5400
 7427SOL     OW23100   3.255   1.641   3.131  0.3936  0.1428 -0.7999
 7427SOL    HW123101   3.282   1.737   3.131 -0.3131  0.3438 -0.5119
 7427SOL    HW223102   3.296   1.595   3.052  0.2075  0.8231 -1.3001
 7428SOL     OW23103   6.641   3.132   6.527  0.2305 -0.2697  0.7888
 7428SOL    HW123104   6.688   3.057   6.479  1.2058  0.0923  1.1463
 7428SOL    HW223105   6.633   3.211   6.466  1.1040  0.0500  1.0677
 7429SOL     OW23106   6.561   5.406   6.569  0.0965  0.3021 -0.2827
 7429SOL    HW123107   6.544   5.469   6.493  0.2169 -0.9495 -1.3739
 7429SOL    HW223108   6.476   5.361   6.595 -0.5038  2.4887  2.0366
 7430SOL     OW23109   6.218   5.966   4.920  0.1640  0.2389  0.0034
 7430SOL    HW123110   6.141   5.930   4.974 -1.3520  1.8177 -0.9923
 7430SOL    HW223111   6.225   6.065   4.935  2.8871 -0.0479  1.0751
 7431SOL     OW23112   6.028   4.821   0.210 -0.1967 -0.2918 -0.0049
 7431SOL    HW123113   5.991   4.784   0.125 -0.4708 -1.0312  0.4259
 7431SOL    HW223114   5.957   4.821   0.280 -0.1155  0.7773  0.0954
 7432SOL     OW23115   5.947   4.444   0.270  0.0610 -0.4552  0.5231
 7432SOL    HW123116   5.974   4.447   0.366 -1.3515  0.2490  0.9309
 7432SOL    HW223117   5.869   4.505   0.256  1.2814  0.7635 -1.4201
 7433SOL     OW23118   5.354   1.906   0.069 -0.1643  0.3119 -1.1317
 7433SOL    HW123119   5.375   1.937  -0.024 -2.5312  2.8434 -0.9865
 7433SOL    HW223120   5.297   1.975   0.114 -0.9872 -1.8730  1.4194
 7434SOL     OW23121   4.236   4.532   1.435  0.1676 -0.4820 -0.3872
 7434SOL    HW123122   4.141   4.551   1.411  0.0356  1.9231  1.6350
 7434SOL    HW223123   4.240   4.492   1.526  1.0785  3.7938  1.7446
 7435SOL     OW23124   5.215   3.194   2.392 -0.2272 -0.0181  0.0253
 7435SOL    HW123125   5.152   3.195   2.315 -0.6894 -1.3234  0.3746
 7435SOL    HW223126   5.185   3.128   2.460  0.3854  0.8343  1.1696
 7436SOL     OW23127   0.677   3.033   6.038  0.3554 -0.4585  0.2110
 7436SOL    HW123128   0.773   3.021   6.063  0.5136  1.5753  0.7292
 7436SOL    HW223129   0.632   3.092   6.104 -0.7132  0.3737 -1.2087
 7437SOL     OW23130   5.327   2.920   5.087  0.1623 -0.1136  0.1213
 7437SOL    HW123131   5.415   2.875   5.100  0.4610 -0.1413 -1.7451
 7437SOL    HW223132   5.314   2.989   5.159  1.8370  0.1378  0.2295
 7438SOL     OW23133   4.967   5.831   0.878  0.0467 -0.5453  0.1568
 7438SOL    HW123134   4.906   5.763   0.920 -0.2611  0.2334  0.9726
 7438SOL    HW223135   4.942   5.841   0.781 -1.5376  0.2106  0.6171
 7439SOL     OW23136   4.184   0.382   5.217 -0.2483 -0.0587 -0.4335
 7439SOL    HW123137   4.107   0.343   5.165  0.3662 -1.3297 -0.4236
 7439SOL    HW223138   4.211   0.469   5.175  0.9684 -1.5718 -2.9828
 7440SOL     OW23139   5.097   0.466   4.726  0.0130 -0.3549  0.7203
 7440SOL    HW123140   5.016   0.507   4.684  1.7276  2.1320 -0.4286
 7440SOL    HW223141   5.082   0.455   4.824 -1.0085  2.0958  0.9143
 7441SOL     OW23142   6.148   6.286   1.611  0.2096  0.6693  0.2587
 7441SOL    HW123143   6.218   6.217   1.596  0.2986  0.9501 -0.6358
 7441SOL    HW223144   6.091   6.259   1.689 -0.3054 -0.8514 -0.6227
 7442SOL     OW23145   1.476   5.911   2.680 -0.8166  0.1452  0.0407
 7442SOL    HW123146   1.398   5.966   2.651 -1.4400 -0.9104 -0.3742
 7442SOL    HW223147   1.558   5.939   2.631 -1.4028 -0.1694 -1.1414
 7443SOL     OW23148   6.460   2.595   3.640 -0.7271  0.0878  0.2063
 7443SOL    HW123149   6.485   2.677   3.589 -2.6366  0.9922  0.6351
 7443SOL    HW223150   6.360   2.587   3.642 -0.5939 -2.7889 -0.6374
 7444SOL     OW23151   3.105   3.509   1.974  0.6899 -0.1635 -0.2134
 7444SOL    HW123152   3.059   3.525   1.887  1.3482  3.2929 -0.0701
 7444SOL    HW223153   3.202   3.533   1.965  0.5181  1.5516  1.7398
 7445SOL     OW23154   3.979   1.937   1.920 -0.1949  0.4188  0.1759
 7445SOL    HW123155   4.060   1.878   1.918  1.1323  2.1513  0.5313
 7445SOL    HW223156   3.897   1.882   1.903  1.2012 -1.1431 -2.0591
 7446SOL     OW23157   6.229   0.564   1.471  0.6995  0.3101  0.3835
 7446SOL    HW123158   6.208   0.467   1.485 -1.0045  0.6288  0.2364
 7446SOL    HW223159   6.181   0.619   1.539  1.7653  1.0671  0.5522
 7447SOL     OW23160   4.581   4.476   0.994 -0.5611  0.0432  0.1549
 7447SOL    HW123161   4.531   4.480   0.908 -1.3097 -0.6474  0.5448
 7447SOL    HW223162   4.523   4.438   1.066  0.0930  0.4741  0.9388
 7448SOL     OW23163   5.942   0.521   5.769  0.0946  0.2711 -0.4336
 7448SOL    HW123164   5.949   0.620   5.778  0.4141  0.1836  0.3959
 7448SOL    HW223165   5.847   0.496   5.749 -0.2897  0.6526  0.8250
 7449SOL     OW23166   3.200   0.804   5.714  0.1980 -0.1726 -0.6096
 7449SOL    HW123167   3.145   0.722   5.733 -0.5816  0.5965  0.6202
 7449SOL    HW223168   3.263   0.821   5.789  0.8727 -0.0431 -1.1927
 7450SOL     OW23169   5.125   0.529   0.084  0.6081  0.1750 -0.1258
 7450SOL    HW123170   5.202   0.593   0.092 -0.4543  1.3097  2.5807
 7450SOL    HW223171   5.046   0.578   0.049  0.5080 -0.3864 -0.6848
 7451SOL     OW23172   0.465   0.898   0.358  0.3724 -0.3500  0.4015
 7451SOL    HW123173   0.486   0.816   0.411  0.4548 -1.0267 -0.6751
 7451SOL    HW223174   0.501   0.978   0.407  0.1746 -0.9163  1.5228
 7452SOL     OW23175   5.758   3.655   5.311 -0.0140 -0.1852  0.2643
 7452SOL    HW123176   5.846   3.636   5.355  0.4344 -1.1534 -0.9580
 7452SOL    HW223177   5.707   3.569   5.302  0.7401 -0.4629 -2.7182
 7453SOL     OW23178   0.899   0.013   0.708  0.1348  0.6117  0.1259
 7453SOL    HW123179   0.834  -0.051   0.749  0.7402 -0.0918  0.0082
 7453SOL    HW223180   0.931  -0.024   0.620  1.6567  0.3254  0.7699
 7454SOL     OW23181   1.799   6.721   1.477  0.5471 -0.2278  0.0940
 7454SOL    HW123182   1.801   6.676   1.566  1.8072  2.0819  1.2923
 7454SOL    HW223183   1.707   6.714   1.439 -0.4518  0.1477  2.3143
 7455SOL     OW23184   5.800   3.779   0.615 -0.3903  0.7814  0.0093
 7455SOL    HW123185   5.857   3.697   0.612 -1.7699 -0.2198 -1.2531
 7455SOL    HW223186   5.855   3.859   0.593  0.9080  0.1550  0.8502
 7456SOL     OW23187   1.968   2.035   5.463 -0.2986 -0.4267  0.5808
 7456SOL    HW123188   1.892   1.989   5.509 -0.1595 -2.4051 -1.0254
 7456SOL    HW223189   2.018   1.969   5.408  1.1130  1.3353 -0.3413
 7457SOL     OW23190   2.070   5.255   0.190  0.0642 -0.6006 -0.4258
 7457SOL    HW123191   1.972   5.276   0.190  0.2625  0.4042  0.3761
 7457SOL    HW223192   2.087   5.177   0.250  0.1549  1.4694  2.4155
 7458SOL     OW23193   3.797   1.307   0.373 -0.4233 -0.8912  0.6471
 7458SOL    HW123194   3.845   1.247   0.437 -0.1380  0.2385  1.5092
 7458SOL    HW223195   3.829   1.288   0.280  0.7678 -1.0335  1.0646
 7459SOL     OW23196   4.536   5.902   4.924  0.2020 -0.1733  0.1203
 7459SOL    HW123197   4.513   5.840   4.848 -0.6407  0.8332 -0.4842
 7459SOL    HW223198   4.461   5.903   4.990 -1.6604  2.9856 -1.7617
 7460SOL     OW23199   3.126   0.849   4.202  0.1165 -0.0325  0.0597
 7460SOL    HW123200   3.191   0.773   4.203 -0.8005 -0.8604 -1.0721
 7460SOL    HW223201   3.090   0.862   4.295 -1.4913 -2.5940 -0.0732
 7461SOL     OW23202   5.294   1.044   3.735  0.1734 -0.3888 -0.2278
 7461SOL    HW123203   5.339   1.108   3.673 -1.3281  0.5236 -0.4232
 7461SOL    HW223204   5.308   1.074   3.829  0.0191 -0.1431 -0.2832
 7462SOL     OW23205   3.562   0.804   5.440 -0.3086 -0.0498  0.2026
 7462SOL    HW123206   3.468   0.772   5.428  0.4946 -2.0117 -1.6585
 7462SOL    HW223207   3.624   0.726   5.429  1.5145  0.9499  2.6211
 7463SOL     OW23208   5.456   3.620   6.851 -0.5292  0.8912 -0.0992
 7463SOL    HW123209   5.485   3.585   6.940  0.3572 -2.5910 -1.5810
 7463SOL    HW223210   5.537   3.642   6.796 -0.8968 -0.3389 -1.1923
 7464SOL     OW23211   1.898   3.810   1.784  0.2200  0.6438 -0.1656
 7464SOL    HW123212   1.975   3.753   1.813 -0.4876 -0.1849  0.1264
 7464SOL    HW223213   1.903   3.898   1.831  1.6141  1.0554 -1.0127
 7465SOL     OW23214   0.885   2.794   5.009  0.1336  0.0521 -0.2674
 7465SOL    HW123215   0.912   2.698   5.005 -0.5189 -0.1758  0.3931
 7465SOL    HW223216   0.944   2.843   5.074 -0.6329 -0.3166  0.7441
 7466SOL     OW23217   5.744   5.896   0.555  0.0825 -0.1283  0.1317
 7466SOL    HW123218   5.686   5.819   0.527  0.4097 -1.1970  2.2608
 7466SOL    HW223219   5.838   5.879   0.525 -0.3535  0.8741 -1.9567
 7467SOL     OW23220   3.554   0.389   1.888  0.3201  0.7443 -0.2902
 7467SOL    HW123221   3.544   0.348   1.979 -0.0724 -1.7388 -1.3627
 7467SOL    HW223222   3.514   0.328   1.820  0.6644  2.5076 -2.1702
 7468SOL     OW23223   1.812   1.006   6.416  0.3351  0.2124  0.7202
 7468SOL    HW123224   1.873   0.957   6.478 -1.2026 -1.1961  1.1792
 7468SOL    HW223225   1.736   1.045   6.468 -0.6652 -0.4757 -0.1833
 7469SOL     OW23226   4.792   2.003   1.984 -0.0238  0.3531 -0.1361
 7469SOL    HW123227   4.837   1.920   1.952 -0.1163  0.1815  0.1840
 7469SOL    HW223228   4.701   2.010   1.943 -0.4239 -0.2192  0.6310
 7470SOL     OW23229   1.983   4.648   1.989  0.1940 -0.1497  0.1620
 7470SOL    HW123230   2.071   4.670   2.032  1.1025 -0.7295 -1.3468
 7470SOL    HW223231   1.996   4.631   1.892 -1.7872  0.9581 -0.3677
 7471SOL     OW23232   5.728   6.349   2.335  0.0275 -0.5175  0.0562
 7471SOL    HW123233   5.795   6.400   2.282 -0.0588  0.5042  0.8854
 7471SOL    HW223234   5.773   6.299   2.408 -0.1146  0.4371  0.8233
 7472SOL     OW23235   2.426   5.540   3.753 -0.0357  0.0091 -0.0398
 7472SOL    HW123236   2.413   5.441   3.751  1.7103 -0.2475 -1.6215
 7472SOL    HW223237   2.418   5.573   3.847  0.7727 -1.8629  0.7467
 7473SOL     OW23238   0.155   0.343   6.062  0.1151  0.1011 -0.5984
 7473SOL    HW123239   0.192   0.399   6.136  0.5251  0.5713 -1.1486
 7473SOL    HW223240   0.110   0.402   5.995 -0.5496 -0.3507 -0.5628
 7474SOL     OW23241   5.833   5.636   3.100 -0.1411 -0.1046 -0.0128
 7474SOL    HW123242   5.777   5.573   3.154  0.7694 -0.8950  0.0332
 7474SOL    HW223243   5.860   5.592   3.015 -0.6311  0.7362 -0.6180
 7475SOL     OW23244   5.753   5.138   0.493  0.4145 -0.2099 -0.5710
 7475SOL    HW123245   5.672   5.151   0.435 -1.0772 -2.5790  0.8238
 7475SOL    HW223246   5.771   5.221   0.544 -1.2437  0.3341 -0.8023
 7476SOL     OW23247   2.996   3.059   6.471 -0.2402 -0.3929 -0.0602
 7476SOL    HW123248   3.045   3.054   6.384 -0.4105  0.6991 -0.2499
 7476SOL    HW223249   2.994   3.154   6.502 -2.4645 -0.3377 -0.2091
 7477SOL     OW23250   2.166   2.497   3.090 -0.5014  0.2632  0.2179
 7477SOL    HW123251   2.214   2.409   3.089 -0.2076  0.3626 -2.2218
 7477SOL    HW223252   2.068   2.482   3.088 -0.4954 -0.2089 -3.1722
 7478SOL     OW23253   5.371   0.029   0.685  0.2389 -0.6394  0.1086
 7478SOL    HW123254   5.372   0.093   0.607  0.0429 -1.2147 -0.3651
 7478SOL    HW223255   5.291   0.047   0.741  1.3801  1.1190  1.2976
 7479SOL     OW23256   5.334   1.919   5.300  0.2197 -0.3526  0.1110
 7479SOL    HW123257   5.347   1.892   5.396  1.9856  1.4388  0.4284
 7479SOL    HW223258   5.406   1.879   5.244  0.4229  0.2984 -0.1016
 7480SOL     OW23259   6.944   6.875   4.490 -0.0626 -0.3254 -0.0480
 7480SOL    HW123260   7.026   6.888   4.546 -1.0042 -0.4271  1.3665
 7480SOL    HW223261   6.901   6.788   4.515 -0.3230 -0.5152 -1.1356
 7481SOL     OW23262   2.044   6.753   4.797 -0.6640  0.3695  0.1340
 7481SOL    HW123263   2.115   6.816   4.765 -1.1247  1.9511  2.0373
 7481SOL    HW223264   2.051   6.743   4.897 -0.6172 -2.6715 -0.0785
 7482SOL     OW23265   6.963   4.941   1.117  0.3646  0.7521 -0.2370
 7482SOL    HW123266   7.039   4.891   1.075  0.3279  0.8878 -0.4225
 7482SOL    HW223267   6.915   4.993   1.047 -0.0470  0.4759 -0.1647
 7483SOL     OW23268   1.017   4.619   5.886  0.2961 -0.1437 -0.1419
 7483SOL    HW123269   1.078   4.545   5.857 -0.9769 -0.4735 -2.1860
 7483SOL    HW223270   0.922   4.588   5.883 -0.1101  0.8311  1.4737
 7484SOL     OW23271   6.175   3.439   0.688 -0.3030 -0.5059  0.0861
 7484SOL    HW123272   6.206   3.357   0.735 -0.3167 -0.7695 -0.3610
 7484SOL    HW223273   6.162   3.419   0.591  0.1626  0.1460 -0.1194
 7485SOL     OW23274   3.293   5.365   2.801  0.9225  0.0496 -0.0958
 7485SOL    HW123275   3.203   5.407   2.792  0.0668 -1.7009 -0.0493
 7485SOL    HW223276   3.303   5.326   2.892  1.6769  0.0852 -0.1559
 7486SOL     OW23277   5.814   6.161   1.249  0.8451 -0.4776  0.4967
 7486SOL    HW123278   5.750   6.084   1.249 -0.6968  0.7525  0.5151
 7486SOL    HW223279   5.877   6.153   1.172 -0.3080 -0.9503 -0.4319
 7487SOL     OW23280   6.986   6.352   1.668 -0.2841  0.0834 -0.0470
 7487SOL    HW123281   6.893   6.339   1.701 -0.3589 -0.2923 -0.3853
 7487SOL    HW223282   7.028   6.263   1.650 -0.7837  0.2657 -2.3322
 7488SOL     OW23283   3.366   5.924   1.267  0.3430 -0.0046 -0.1621
 7488SOL    HW123284   3.321   5.978   1.195 -0.0649 -0.4541 -0.2510
 7488SOL    HW223285   3.444   5.876   1.228 -1.1389 -2.0060 -0.8703
 7489SOL     OW23286   5.939   2.442   0.418 -0.4491 -0.0079  0.0969
 7489SOL    HW123287   5.874   2.511   0.385  0.1844  1.2475  1.3724
 7489SOL    HW223288   5.914   2.352   0.381 -3.2262  0.3287  0.9551
 7490SOL     OW23289   1.021   0.347   6.842 -0.0544 -0.4775 -0.9077
 7490SOL    HW123290   0.999   0.410   6.917 -0.1809 -0.8292 -0.6442
 7490SOL    HW223291   1.116   0.362   6.815 -0.4953  0.8608 -1.8493
 7491SOL     OW23292   0.738   3.669   2.428 -0.7881  0.2155 -0.4339
 7491SOL    HW123293   0.782   3.580   2.426  0.4228  0.7619 -2.7721
 7491SOL    HW223294   0.761   3.717   2.513 -0.7933 -1.3332  0.4762
 7492SOL     OW23295   4.261   2.587   6.215 -0.5302  0.3118 -0.0507
 7492SOL    HW123296   4.317   2.505   6.225  2.2525  1.9645 -0.9924
 7492SOL    HW223297   4.276   2.627   6.124 -1.9099  1.7910  0.3266
 7493SOL     OW23298   4.385   3.070   2.701 -0.0810  0.0072  0.0809
 7493SOL    HW123299   4.428   3.063   2.791  3.0680  0.4738 -1.2467
 7493SOL    HW223300   4.334   2.986   2.682  1.4548 -1.2365  1.2254
 7494SOL     OW23301   2.242   5.487   2.850  0.2934 -0.0822  0.1840
 7494SOL    HW123302   2.145   5.463   2.846  0.1769  0.3960  0.0595
 7494SOL    HW223303   2.255   5.580   2.815  0.7354  0.0262  0.6200
 7495SOL     OW23304   0.852   2.815   1.773 -0.1996  0.0170  0.0597
 7495SOL    HW123305   0.858   2.915   1.772 -0.1659  0.0505  1.8096
 7495SOL    HW223306   0.944   2.776   1.760 -0.3799  0.1511 -2.0370
 7496SOL     OW23307   3.613   2.102   0.873  0.0540 -0.6585  0.2961
 7496SOL    HW123308   3.626   2.037   0.797 -0.5132  0.3146 -0.6659
 7496SOL    HW223309   3.661   2.187   0.853 -0.3718 -0.2683  0.8789
 7497SOL     OW23310   4.383   3.462   0.285  0.1317 -0.1683  0.1768
 7497SOL    HW123311   4.381   3.394   0.358 -0.3098  0.0881  0.4078
 7497SOL    HW223312   4.291   3.496   0.269  0.3069  0.1665 -0.1377
 7498SOL     OW23313   4.918   0.962   3.066  0.3020  0.5051  0.0460
 7498SOL    HW123314   4.967   0.879   3.093  1.9221  1.9984  2.0335
 7498SOL    HW223315   4.984   1.028   3.030 -0.9526  0.9892 -1.4764
 7499SOL     OW23316   3.244   1.980   5.972  0.4961  0.6000 -0.3240
 7499SOL    HW123317   3.251   2.079   5.967 -0.7107  0.7099 -0.1557
 7499SOL    HW223318   3.221   1.952   6.065 -0.4498  0.2614 -0.6449
 7500SOL     OW23319   2.651   5.328   6.498 -0.0269 -0.2994 -0.1732
 7500SOL    HW123320   2.570   5.351   6.444 -0.6928  0.0652  0.9519
 7500SOL    HW223321   2.712   5.407   6.502 -0.7393  0.2053  0.9356
 7501SOL     OW23322   0.573   5.290   3.931  0.2141  0.0336  0.5466
 7501SOL    HW123323   0.585   5.389   3.939 -0.1310  0.1086  0.2009
 7501SOL    HW223324   0.658   5.244   3.957 -0.1597  0.3314  2.4185
 7502SOL     OW23325   4.751   1.665   1.595 -0.1048 -0.5021  0.2121
 7502SOL    HW123326   4.697   1.603   1.539  0.4377 -1.2208  0.4513
 7502SOL    HW223327   4.745   1.758   1.559 -1.0040 -0.6753 -0.1059
 7503SOL     OW23328   2.843   1.853   1.023  0.3136 -0.2146 -0.3876
 7503SOL    HW123329   2.754   1.830   1.063 -0.4306  2.9259 -0.0757
 7503SOL    HW223330   2.836   1.853   0.923 -0.3209  0.9135 -0.3562
 7504SOL     OW23331   4.291   3.784   6.614  0.0121  0.0620  0.0063
 7504SOL    HW123332   4.279   3.835   6.529  0.4193  0.9702  0.4781
 7504SOL    HW223333   4.388   3.787   6.641 -0.0638 -0.4578  0.3576
 7505SOL     OW23334   1.290   4.133   1.140  0.1275  0.7649  0.2024
 7505SOL    HW123335   1.284   4.228   1.171  1.5280  0.6201  1.0049
 7505SOL    HW223336   1.378   4.094   1.169 -0.9454 -1.1885  1.0252
 7506SOL     OW23337   2.981   3.619   4.652 -0.1801 -0.4397  0.1466
 7506SOL    HW123338   3.024   3.700   4.691 -1.1645  1.0554 -1.7337
 7506SOL    HW223339   3.028   3.537   4.684 -0.1075  0.7330  3.3393
 7507SOL     OW23340   0.364   3.538   1.306  0.3331 -0.5425  0.2647
 7507SOL    HW123341   0.431   3.465   1.325  2.9918  1.4779 -0.7297
 7507SOL    HW223342   0.412   3.620   1.277 -2.5089  1.8067  1.6789
 7508SOL     OW23343   4.946   6.723   4.048  0.1446  0.2344 -0.4824
 7508SOL    HW123344   5.010   6.774   3.991  1.2727  0.5635  0.9998
 7508SOL    HW223345   4.921   6.778   4.128 -1.1944 -0.3002 -0.5040
 7509SOL     OW23346   2.597   1.328   4.390 -0.2381  0.2735  0.3247
 7509SOL    HW123347   2.659   1.315   4.467  0.6822  1.8709 -0.0988
 7509SOL    HW223348   2.548   1.242   4.372  1.4354 -0.8729  0.9986
 7510SOL     OW23349   5.220   6.061   2.610  0.3739 -0.0687  0.5932
 7510SOL    HW123350   5.213   6.022   2.518  0.3189 -0.9017  0.9341
 7510SOL    HW223351   5.128   6.076   2.647  0.3918  0.7983  0.3031
 7511SOL     OW23352   5.043   5.028   6.601 -0.2374  0.5614  0.7047
 7511SOL    HW123353   5.089   4.972   6.670 -0.8468 -0.8673 -0.0031
 7511SOL    HW223354   5.067   4.994   6.510 -1.1972  1.0055  0.2819
 7512SOL     OW23355   5.461   3.197   3.341  0.0324 -0.4356 -0.2196
 7512SOL    HW123356   5.461   3.223   3.244 -0.1479  0.3622 -0.0216
 7512SOL    HW223357   5.389   3.129   3.357  1.8265 -2.6648 -1.1306
 7513SOL     OW23358   2.274   2.662   6.551 -0.0525  0.1590 -0.7439
 7513SOL    HW123359   2.176   2.682   6.542  0.1449  0.8154 -1.5934
 7513SOL    HW223360   2.292   2.568   6.523 -0.4189  0.0873 -0.7459
 7514SOL     OW23361   6.631   2.374   2.068 -0.0908 -0.2412  0.2501
 7514SOL    HW123362   6.627   2.474   2.059 -0.5967 -0.1238  1.4937
 7514SOL    HW223363   6.726   2.346   2.079  0.2604 -0.1228 -2.0419
 7515SOL     OW23364   5.621   4.717   0.535 -0.3514  0.2816 -0.2907
 7515SOL    HW123365   5.577   4.764   0.612  1.3772  1.1903  0.1944
 7515SOL    HW223366   5.631   4.619   0.557 -1.3512  0.2270 -0.0582
 7516SOL     OW23367   5.148   4.834   1.276 -0.4021  0.4881  0.9460
 7516SOL    HW123368   5.224   4.899   1.284 -0.0344  0.4590 -1.4907
 7516SOL    HW223369   5.152   4.769   1.352  1.9200  0.5968  0.9823
 7517SOL     OW23370   5.239   3.143   4.480  0.1981  0.4447  0.2986
 7517SOL    HW123371   5.286   3.094   4.407  2.6159  0.4480  1.7660
 7517SOL    HW223372   5.203   3.230   4.444  2.4288  1.0461 -0.6438
 7518SOL     OW23373   5.616   2.048   5.817  0.4214  0.4352 -0.0296
 7518SOL    HW123374   5.563   1.964   5.809  3.1663 -1.4752  0.8364
 7518SOL    HW223375   5.632   2.069   5.913  1.0474  1.1186 -0.2695
 7519SOL     OW23376   0.178   6.902   4.627 -0.1166  0.0582 -0.1320
 7519SOL    HW123377   0.228   6.960   4.562 -0.0513  1.1832  0.8636
 7519SOL    HW223378   0.170   6.951   4.714 -1.2129 -0.9288  0.3403
 7520SOL     OW23379   5.736   4.882   5.390  0.4363  0.2291 -0.0544
 7520SOL    HW123380   5.736   4.893   5.489  1.8115 -0.0213 -0.0000
 7520SOL    HW223381   5.712   4.788   5.366  0.3227  0.2313  0.0472
 7521SOL     OW23382   1.207   6.723   6.441  0.8801  0.3550 -0.1325
 7521SOL    HW123383   1.174   6.742   6.533 -0.1123  0.8327 -0.5620
 7521SOL    HW223384   1.239   6.808   6.399 -0.3770  0.4853 -0.8629
 7522SOL     OW23385   3.834   6.572   5.241 -0.4278 -0.1850  0.3992
 7522SOL    HW123386   3.933   6.566   5.255 -0.6215 -0.1878  1.8772
 7522SOL    HW223387   3.810   6.525   5.156  0.7645 -0.6394  0.2913
 7523SOL     OW23388   3.948   2.945   2.622  0.3259 -0.0414 -0.3144
 7523SOL    HW123389   3.978   2.969   2.714 -0.7983 -0.2732  0.1263
 7523SOL    HW223390   3.938   2.846   2.615 -0.2819  0.0229 -0.4554
 7524SOL     OW23391   0.747   6.037   5.301 -0.0200  0.5396 -0.2459
 7524SOL    HW123392   0.774   6.082   5.215  1.7391  2.1875  1.0625
 7524SOL    HW223393   0.816   5.969   5.326 -0.0057  0.7567  0.3310
 7525SOL     OW23394   4.925   6.319   3.133 -0.1996 -0.2455 -0.4760
 7525SOL    HW123395   4.832   6.304   3.098  0.3164 -0.9582 -1.6052
 7525SOL    HW223396   4.943   6.418   3.138 -2.2516  0.0889  3.2473
 7526SOL     OW23397   1.210   4.697   3.660  0.1086  0.1721 -0.1706
 7526SOL    HW123398   1.256   4.754   3.728  0.9652 -1.6002  0.8115
 7526SOL    HW223399   1.157   4.626   3.707 -0.2204 -0.3900 -1.3526
 7527SOL     OW23400   5.055   0.979   6.716 -0.4074 -0.1159  0.1222
 7527SOL    HW123401   5.041   0.913   6.790  0.0430 -0.5758 -0.1907
 7527SOL    HW223402   4.971   0.987   6.662 -0.3711 -0.6680 -0.0242
 7528SOL     OW23403   3.768   6.505   0.361 -0.3901 -0.1704 -0.5781
 7528SOL    HW123404   3.721   6.570   0.420  0.3557  0.6159 -0.8196
 7528SOL    HW223405   3.812   6.554   0.285  3.4346 -0.3474  1.2716
 7529SOL     OW23406   5.834   2.795   2.357  0.0202  0.2446  0.2316
 7529SOL    HW123407   5.911   2.816   2.297 -0.4813  0.2914 -0.4023
 7529SOL    HW223408   5.800   2.704   2.337 -0.8460  0.6765 -0.3274
 7530SOL     OW23409   4.894   4.728   5.408  0.2420  0.0887  0.1758
 7530SOL    HW123410   4.831   4.683   5.346  0.9793 -1.2608  0.3671
 7530SOL    HW223411   4.958   4.784   5.356  0.0821 -0.0467 -0.1707
 7531SOL     OW23412   1.879   1.992   2.807 -0.4610  0.1918 -0.2364
 7531SOL    HW123413   1.901   1.920   2.742  0.4614 -0.1445  0.4324
 7531SOL    HW223414   1.904   2.081   2.769 -1.9836  0.2337 -1.2338
 7532SOL     OW23415   1.603   1.395   5.356  0.2614 -0.1150 -0.0281
 7532SOL    HW123416   1.542   1.408   5.278 -0.8352  0.7743  0.9353
 7532SOL    HW223417   1.571   1.451   5.433  2.6149  0.8016  0.3461
 7533SOL     OW23418   2.219   0.564   2.163  0.2662 -0.5836 -0.1327
 7533SOL    HW123419   2.261   0.483   2.122 -0.7806 -2.0194  1.4673
 7533SOL    HW223420   2.223   0.556   2.263 -0.5130  0.9998  0.0472
 7534SOL     OW23421   5.518   0.455   4.906 -0.1945  0.1274 -0.2135
 7534SOL    HW123422   5.452   0.424   4.975 -0.6964  0.2527 -0.6292
 7534SOL    HW223423   5.474   0.458   4.817 -0.2139  2.1320 -0.1825
 7535SOL     OW23424   3.406   6.307   4.079 -0.3787 -0.5505  0.2869
 7535SOL    HW123425   3.450   6.393   4.108  0.3008 -0.6705 -0.3571
 7535SOL    HW223426   3.326   6.328   4.023  1.6735 -0.2523 -2.7703
 7536SOL     OW23427   4.183   2.056   1.708  0.8431  0.3641  0.0939
 7536SOL    HW123428   4.163   2.068   1.610 -0.0601  1.0335  0.3579
 7536SOL    HW223429   4.099   2.062   1.761  1.5526  1.8439  1.0917
 7537SOL     OW23430   6.340   6.511   3.674 -0.2313  0.2379 -0.1162
 7537SOL    HW123431   6.252   6.465   3.672 -0.5852  0.9117 -0.3255
 7537SOL    HW223432   6.337   6.593   3.618 -0.5693  2.1817  2.5253
 7538SOL     OW23433   6.214   0.429   2.025  0.0407  0.7298 -0.0217
 7538SOL    HW123434   6.211   0.509   2.085 -3.2506  0.7327  0.0009
 7538SOL    HW223435   6.168   0.451   1.939 -1.8780 -1.3366  0.3816
 7539SOL     OW23436   0.718   4.330   3.931  0.0168  0.1564 -0.5832
 7539SOL    HW123437   0.714   4.417   3.881  1.5226 -0.2289 -1.4041
 7539SOL    HW223438   0.756   4.345   4.022 -1.6985  0.6728  0.0941
 7540SOL     OW23439   1.122   2.147   6.906  0.0920  0.6036 -0.1288
 7540SOL    HW123440   1.026   2.157   6.930  0.7073  0.2952  2.9739
 7540SOL    HW223441   1.154   2.056   6.933  1.7946  1.5767  1.4434
 7541SOL     OW23442   3.262   2.761   1.973 -0.1266  0.1606  0.5738
 7541SOL    HW123443   3.305   2.821   2.041 -1.4729  1.3096  0.4347
 7541SOL    HW223444   3.190   2.708   2.016  1.0873 -1.4821  0.7160
 7542SOL     OW23445   1.047   2.558   4.757 -0.7023  0.7082 -0.3135
 7542SOL    HW123446   1.117   2.626   4.776 -0.5149  0.6999 -0.9528
 7542SOL    HW223447   1.030   2.503   4.839  0.0549  0.6859 -0.1659
 7543SOL     OW23448   2.123   3.953   0.982  0.1355  0.1427  0.0320
 7543SOL    HW123449   2.035   3.907   0.966  0.2163 -0.0772  0.2198
 7543SOL    HW223450   2.116   4.010   1.063  0.5828 -0.9710  0.8847
 7544SOL     OW23451   5.142   2.794   1.531 -0.0350 -0.5931 -0.1700
 7544SOL    HW123452   5.166   2.746   1.615 -0.3757 -1.2138 -0.4182
 7544SOL    HW223453   5.177   2.744   1.452  2.9404  1.5463 -0.3246
 7545SOL     OW23454   4.491   6.327   5.081  0.5550  0.4713 -0.4036
 7545SOL    HW123455   4.505   6.259   5.009 -0.6218 -1.0281  0.7158
 7545SOL    HW223456   4.453   6.410   5.042 -0.3157 -0.4055 -1.4982
 7546SOL     OW23457   6.415   0.801   2.739 -0.2653  0.2697  0.3301
 7546SOL    HW123458   6.328   0.844   2.764 -0.5041  0.7163 -1.1430
 7546SOL    HW223459   6.410   0.771   2.643  1.6872  1.5892 -0.2519
 7547SOL     OW23460   3.540   3.892   2.737  0.3053 -0.3641  0.0982
 7547SOL    HW123461   3.463   3.949   2.708  1.1607  0.6003 -0.3504
 7547SOL    HW223462   3.554   3.901   2.836 -1.0191 -1.6501  0.4353
 7548SOL     OW23463   4.096   0.653   3.214 -0.0291  0.2573  0.2304
 7548SOL    HW123464   4.073   0.662   3.311  0.5222  0.1196  0.3786
 7548SOL    HW223465   4.185   0.696   3.197  1.4258 -2.4723  0.4313
 7549SOL     OW23466   6.840   2.028   1.873 -0.5096 -0.2653 -0.1449
 7549SOL    HW123467   6.777   2.076   1.935 -1.8715 -1.7346 -0.3178
 7549SOL    HW223468   6.816   1.931   1.869  0.6983 -0.5579 -1.5949
 7550SOL     OW23469   2.794   3.673   0.299 -0.2826 -0.2315 -0.0385
 7550SOL    HW123470   2.800   3.582   0.340 -0.3357 -0.0779  0.3170
 7550SOL    HW223471   2.778   3.741   0.371  0.1838  0.1068 -0.2506
 7551SOL     OW23472   2.822   6.808   5.483  0.0581 -0.2417 -0.4370
 7551SOL    HW123473   2.842   6.726   5.535 -0.9011  0.5961  1.3681
 7551SOL    HW223474   2.896   6.874   5.494  0.3730 -0.4811 -1.0775
 7552SOL     OW23475   6.114   0.304   1.571 -0.3011  0.3071  0.5624
 7552SOL    HW123476   6.153   0.212   1.579  1.5507  1.0630  0.7896
 7552SOL    HW223477   6.040   0.303   1.504  0.4945 -1.1037 -0.3637
 7553SOL     OW23478   4.849   6.855   4.846 -0.5633 -0.6488 -0.5216
 7553SOL    HW123479   4.909   6.791   4.798  0.6603  1.0030 -1.3409
 7553SOL    HW223480   4.777   6.886   4.783 -0.8792 -0.8475 -0.2706
 7554SOL     OW23481   2.638   5.750   4.754  0.0540 -0.1048  0.1407
 7554SOL    HW123482   2.544   5.784   4.764  0.1613  0.6919 -1.2951
 7554SOL    HW223483   2.641   5.652   4.774 -0.4598  0.4258  3.4293
 7555SOL     OW23484   1.720   4.952   3.016 -0.4710  0.3111 -0.1094
 7555SOL    HW123485   1.729   5.044   3.055  0.3738 -0.1791  0.9006
 7555SOL    HW223486   1.623   4.931   3.004 -0.7530  0.6118  1.4293
 7556SOL     OW23487   0.826   5.900   0.796 -0.1129 -0.1301 -0.2736
 7556SOL    HW123488   0.851   5.993   0.825  0.2629 -0.6610  1.1929
 7556SOL    HW223489   0.732   5.882   0.822 -0.1142 -0.2411 -0.3516
 7557SOL     OW23490   5.014   4.452   2.403 -0.3877  0.2495 -0.0743
 7557SOL    HW123491   5.073   4.388   2.451 -0.5065  0.1104 -0.1126
 7557SOL    HW223492   4.921   4.447   2.440 -0.6630 -0.4172 -0.8355
 7558SOL     OW23493   1.782   1.574   0.327  0.4146  0.4500  0.1475
 7558SOL    HW123494   1.793   1.621   0.414  1.9650  0.2059  0.1204
 7558SOL    HW223495   1.814   1.479   0.336 -0.4065  0.1129 -0.4044
 7559SOL     OW23496   0.444   5.283   1.325  0.3004  0.0135 -0.1857
 7559SOL    HW123497   0.541   5.305   1.315  0.2865  0.9286  1.2942
 7559SOL    HW223498   0.403   5.268   1.235  1.6085  0.4929 -0.8960
 7560SOL     OW23499   4.676   6.827   6.337  0.2538 -0.9458  0.0854
 7560SOL    HW123500   4.603   6.864   6.395 -0.7640 -1.3654 -0.8889
 7560SOL    HW223501   4.759   6.813   6.393 -0.8357 -1.8327  1.5615
 7561SOL     OW23502   5.008   4.728   2.381 -0.5741  0.1824  0.4051
 7561SOL    HW123503   5.091   4.768   2.421 -0.5401  0.9735 -0.4255
 7561SOL    HW223504   5.007   4.630   2.400  0.0039  0.3462  1.3580
 7562SOL     OW23505   3.810   1.969   3.905 -0.1452 -0.7088 -0.0375
 7562SOL    HW123506   3.906   1.998   3.897  0.7307 -3.3698 -0.1072
 7562SOL    HW223507   3.789   1.948   4.000 -0.3744 -1.0100 -0.1510
 7563SOL     OW23508   0.789   2.808   6.397  0.2393  0.4165 -0.6747
 7563SOL    HW123509   0.702   2.771   6.363 -0.1555  1.0621 -0.3894
 7563SOL    HW223510   0.782   2.907   6.404  0.9840  0.4670 -0.5843
 7564SOL     OW23511   5.906   4.650   6.993 -0.1096  0.8890  0.0295
 7564SOL    HW123512   5.833   4.613   7.050  0.6362 -1.5092 -0.4619
 7564SOL    HW223513   5.867   4.694   6.913 -1.1290 -1.3811 -0.8258
 7565SOL     OW23514   3.716   3.933   6.167  0.3934 -0.1547  0.7492
 7565SOL    HW123515   3.705   4.032   6.157 -1.2095 -0.5165 -2.0440
 7565SOL    HW223516   3.630   3.894   6.199 -0.2787 -0.9664 -1.8264
 7566SOL     OW23517   1.893   0.402   2.210 -0.2124  0.5348  0.4968
 7566SOL    HW123518   1.884   0.355   2.297  1.8410 -1.0229 -0.0629
 7566SOL    HW223519   1.923   0.496   2.226 -1.0970  0.6656  1.4976
 7567SOL     OW23520   6.809   1.943   5.316 -0.0167 -0.3349 -0.0275
 7567SOL    HW123521   6.740   1.871   5.317 -0.1098 -0.3298 -1.5689
 7567SOL    HW223522   6.766   2.029   5.287  0.6183 -0.3714 -1.1684
 7568SOL     OW23523   1.870   6.629   2.325 -0.3831 -0.0935  0.4371
 7568SOL    HW123524   1.858   6.551   2.387 -0.6766 -0.1300  0.3348
 7568SOL    HW223525   1.814   6.705   2.356 -0.1877  0.0376  0.4700
 7569SOL     OW23526   5.829   0.080   0.156 -0.1205 -0.0585 -0.3807
 7569SOL    HW123527   5.885   0.036   0.226 -1.2410  0.3901  0.8499
 7569SOL    HW223528   5.819   0.018   0.078  1.4703 -0.4226 -0.3388
 7570SOL     OW23529   2.786   0.388   3.559  0.1814  0.3260  0.3161
 7570SOL    HW123530   2.811   0.484   3.571  1.7329  0.1197 -1.0126
 7570SOL    HW223531   2.734   0.377   3.475  1.0187 -0.1577 -0.1456
 7571SOL     OW23532   5.655   2.424   6.017 -0.3550  0.4971  0.3400
 7571SOL    HW123533   5.661   2.392   5.922 -1.2049  0.1715  0.3860
 7571SOL    HW223534   5.570   2.475   6.029  0.2780  1.4805  0.6562
 7572SOL     OW23535   2.253   6.217   0.516 -0.2203  0.3417 -0.6823
 7572SOL    HW123536   2.253   6.238   0.613 -1.0024  1.8098 -0.9757
 7572SOL    HW223537   2.311   6.137   0.499 -1.4612 -1.0436  1.1995
 7573SOL     OW23538   3.032   1.130   2.834  0.0997 -0.2817  0.1441
 7573SOL    HW123539   3.058   1.227   2.827 -0.1808 -0.2675 -0.8265
 7573SOL    HW223540   2.940   1.118   2.798  0.4857 -1.0540 -0.6329
 7574SOL     OW23541   3.499   6.446   5.125 -0.6997  0.2537  0.4590
 7574SOL    HW123542   3.498   6.537   5.166 -1.7825  0.7299 -0.5609
 7574SOL    HW223543   3.495   6.454   5.025  0.4052 -0.9061  0.2919
 7575SOL     OW23544   6.879   5.852   1.246  0.0293 -0.3355 -0.1158
 7575SOL    HW123545   6.878   5.909   1.329  1.5058 -0.9811  0.3745
 7575SOL    HW223546   6.789   5.809   1.234 -1.4743  2.7921 -1.0439
 7576SOL     OW23547   3.728   6.732   0.863 -0.0878 -0.0457  0.2232
 7576SOL    HW123548   3.795   6.728   0.937  0.0347  0.6746  0.1533
 7576SOL    HW223549   3.768   6.693   0.780  0.3132  0.5629  0.1287
 7577SOL     OW23550   3.442   3.939   6.962  0.4556 -0.0204 -0.7309
 7577SOL    HW123551   3.390   3.885   6.895  0.8197 -1.2326 -0.0599
 7577SOL    HW223552   3.461   3.884   7.042 -1.3723  1.8797  1.0992
 7578SOL     OW23553   1.279   2.472   3.147  0.4679 -0.0039  0.7847
 7578SOL    HW123554   1.314   2.521   3.067  1.5549 -1.1730  0.5054
 7578SOL    HW223555   1.255   2.537   3.218 -0.8098  1.0766 -0.5932
 7579SOL     OW23556   4.243   0.348   2.640  0.4966  0.8450  0.6737
 7579SOL    HW123557   4.203   0.328   2.729 -0.3798 -1.6577 -0.2101
 7579SOL    HW223558   4.332   0.303   2.633 -0.1510 -0.3319 -0.2692
 7580SOL     OW23559   0.350   4.267   5.474 -0.1489  0.4875 -0.2610
 7580SOL    HW123560   0.412   4.305   5.542  1.5500 -1.0723 -0.8408
 7580SOL    HW223561   0.374   4.302   5.383  0.1013 -0.3235 -0.5247
 7581SOL     OW23562   5.500   6.189   2.992  0.4867  0.2023 -0.3405
 7581SOL    HW123563   5.416   6.207   2.940 -0.1590  0.6261  0.8157
 7581SOL    HW223564   5.570   6.256   2.967 -0.3711  1.4621  0.5375
 7582SOL     OW23565   2.906   4.477   5.530  0.3456  0.0920  0.4313
 7582SOL    HW123566   2.852   4.466   5.614 -0.8752 -0.3111 -0.3773
 7582SOL    HW223567   2.951   4.391   5.507  0.0438 -0.0205  0.2547
 7583SOL     OW23568   5.025   6.590   1.062  0.1776  0.3882 -0.2213
 7583SOL    HW123569   5.055   6.512   1.117  0.9978  0.4113 -0.6119
 7583SOL    HW223570   5.083   6.669   1.080  0.0731  0.5743 -0.6637
 7584SOL     OW23571   0.987   6.504   4.521 -0.0765  0.1937 -0.0109
 7584SOL    HW123572   0.995   6.492   4.620 -1.2876  0.8396  0.1827
 7584SOL    HW223573   1.009   6.418   4.474 -0.7105 -0.4716  0.8888
 7585SOL     OW23574   2.802   2.324   0.453  0.5498 -0.0876 -0.2008
 7585SOL    HW123575   2.820   2.250   0.517  1.3028  1.0746  0.9796
 7585SOL    HW223576   2.856   2.310   0.370  0.7045 -0.8365  0.0172
 7586SOL     OW23577   6.593   3.172   1.295 -0.0973 -0.5485  0.9243
 7586SOL    HW123578   6.530   3.138   1.226 -0.2444  0.9813  0.2639
 7586SOL    HW223579   6.561   3.144   1.386  0.1526 -2.6643  0.4214
 7587SOL     OW23580   3.072   0.479   4.527 -0.0433 -0.0157  0.4523
 7587SOL    HW123581   3.122   0.476   4.440  1.2936 -0.9482  1.2150
 7587SOL    HW223582   3.094   0.398   4.581 -2.4701 -0.4979  0.8233
 7588SOL     OW23583   4.247   3.080   2.048  0.2152 -0.2899 -0.3667
 7588SOL    HW123584   4.255   3.080   1.948  1.1391 -0.8245 -0.3031
 7588SOL    HW223585   4.160   3.121   2.074  0.0754  0.0951 -1.3837
 7589SOL     OW23586   0.632   6.194   5.497  0.1906 -0.1518  0.4525
 7589SOL    HW123587   0.675   6.131   5.432 -2.7425 -1.2520 -0.5830
 7589SOL    HW223588   0.673   6.181   5.588  1.2249 -1.9449 -0.2177
 7590SOL     OW23589   1.555   5.128   0.981 -0.5674  0.3614 -0.2428
 7590SOL    HW123590   1.609   5.060   0.932 -0.9846  0.0453 -0.2643
 7590SOL    HW223591   1.487   5.082   1.039 -0.1441  0.7274  0.5651
 7591SOL     OW23592   2.594   0.073   2.218  0.3727 -0.1808  0.4840
 7591SOL    HW123593   2.671   0.063   2.155  2.0405 -0.7226  2.5027
 7591SOL    HW223594   2.606   0.154   2.274 -0.9379  0.1317  0.3596
 7592SOL     OW23595   4.897   2.083   3.375 -0.1147  0.0422 -0.1523
 7592SOL    HW123596   4.859   2.065   3.284 -1.0348 -1.6296  0.5052
 7592SOL    HW223597   4.829   2.058   3.444  1.0901 -0.0941  1.0227
 7593SOL     OW23598   6.645   3.355   0.980 -0.8133  0.2510 -0.1739
 7593SOL    HW123599   6.696   3.349   1.066 -1.2327  0.4432  0.0957
 7593SOL    HW223600   6.709   3.353   0.903 -0.3020  1.5320  0.1758
 7594SOL     OW23601   6.472   5.785   2.851 -0.2093 -0.1657  0.0292
 7594SOL    HW123602   6.405   5.720   2.886 -0.7634 -0.7529 -1.9825
 7594SOL    HW223603   6.564   5.749   2.864 -0.4473 -0.7568  0.1187
 7595SOL     OW23604   0.285   5.652   4.711 -0.4666 -1.2955  0.5952
 7595SOL    HW123605   0.201   5.603   4.688 -1.5465 -0.2099  2.0491
 7595SOL    HW223606   0.268   5.714   4.787  1.3761 -0.1697  0.1612
 7596SOL     OW23607   5.158   4.158   1.073  0.6595  0.0220 -0.2541
 7596SOL    HW123608   5.142   4.255   1.058  0.3947  0.0958  0.4286
 7596SOL    HW223609   5.250   4.145   1.111 -0.8187  0.5708  4.2010
 7597SOL     OW23610   4.303   1.162   3.484  0.3420  0.3174 -0.7791
 7597SOL    HW123611   4.368   1.122   3.419 -0.6231  0.8695 -2.1110
 7597SOL    HW223612   4.334   1.253   3.512  0.2957  0.4477 -1.1555
 7598SOL     OW23613   6.400   2.841   6.502 -0.0101  0.0884  0.0806
 7598SOL    HW123614   6.352   2.783   6.435 -0.9651  1.2748 -0.2903
 7598SOL    HW223615   6.475   2.888   6.456  0.0850 -0.0068  0.1338
 7599SOL     OW23616   2.626   6.775   6.464  0.0738  0.1961 -0.2559
 7599SOL    HW123617   2.564   6.720   6.408  0.7702  0.3562 -1.1989
 7599SOL    HW223618   2.719   6.767   6.430  0.6244 -0.1599  1.2454
 7600SOL     OW23619   1.795   5.033   6.621 -0.3355  0.2550  0.0633
 7600SOL    HW123620   1.710   5.044   6.672 -0.3025  0.6606  0.0307
 7600SOL    HW223621   1.800   5.102   6.548 -1.6649 -1.9427 -2.2775
 7601SOL     OW23622   1.874   3.299   2.360  0.7243 -0.9858 -0.5267
 7601SOL    HW123623   1.958   3.308   2.413  0.1951  0.7954  0.1063
 7601SOL    HW223624   1.823   3.219   2.391  0.8456 -0.4792  1.0959
 7602SOL     OW23625   1.875   6.143   6.298  0.2005  0.1808 -0.1954
 7602SOL    HW123626   1.912   6.153   6.390 -0.3147  1.7546 -0.1355
 7602SOL    HW223627   1.776   6.159   6.299  0.4853  2.4196 -1.2937
 7603SOL     OW23628   3.821   0.709   2.429  0.1968  0.5305  0.0533
 7603SOL    HW123629   3.870   0.747   2.508  0.7672  0.7874 -0.3971
 7603SOL    HW223630   3.878   0.640   2.385 -0.3642 -0.0321  0.2045
 7604SOL     OW23631   4.305   3.517   6.530  0.1101 -0.2078 -0.2170
 7604SOL    HW123632   4.226   3.571   6.502 -0.6637 -0.2836  1.7307
 7604SOL    HW223633   4.334   3.459   6.453 -3.0881 -1.8249 -0.3361
 7605SOL     OW23634   3.563   3.126   4.353 -0.1546 -0.5168  0.3081
 7605SOL    HW123635   3.583   3.035   4.316 -2.7691 -1.0385  0.0081
 7605SOL    HW223636   3.607   3.195   4.295 -0.5749 -1.5003 -1.2683
 7606SOL     OW23637   0.470   0.125   1.668 -0.0558 -0.5156 -0.4747
 7606SOL    HW123638   0.417   0.077   1.598  0.3600 -0.1207 -1.0732
 7606SOL    HW223639   0.496   0.061   1.740 -0.2211 -1.0042 -0.8454
 7607SOL     OW23640   1.754   0.577   3.441 -0.1806 -0.0736 -0.2077
 7607SOL    HW123641   1.771   0.492   3.491 -1.9127  0.6575  1.7559
 7607SOL    HW223642   1.698   0.558   3.361  0.7197 -0.9509 -0.6679
 7608SOL     OW23643   1.640   1.580   3.419 -0.4739 -0.6038  0.6874
 7608SOL    HW123644   1.540   1.586   3.414 -0.4409  0.2881  0.9227
 7608SOL    HW223645   1.674   1.646   3.487  0.3485 -0.1502 -0.1399
 7609SOL     OW23646   4.241   2.421   3.588  0.3370 -0.3192  0.0683
 7609SOL    HW123647   4.152   2.386   3.615 -0.1551  1.1407  0.4427
 7609SOL    HW223648   4.299   2.431   3.669  0.1091  0.6435  0.1414
 7610SOL     OW23649   1.429   0.627   5.576  0.0739 -0.5627 -0.6298
 7610SOL    HW123650   1.370   0.570   5.519 -0.8243  1.2521 -1.6157
 7610SOL    HW223651   1.377   0.706   5.610  1.6632  0.5539 -0.6782
 7611SOL     OW23652   2.085   0.561   2.881 -0.6561 -0.8233 -0.0161
 7611SOL    HW123653   2.028   0.529   2.956 -0.6157  1.3872  1.0542
 7611SOL    HW223654   2.063   0.657   2.861  1.5695 -0.3732 -0.6254
 7612SOL     OW23655   6.006   4.624   1.187  0.3065 -0.2517  0.2647
 7612SOL    HW123656   6.027   4.531   1.155  0.3337 -0.0334 -0.3597
 7612SOL    HW223657   6.082   4.685   1.165  1.1492 -0.4604  2.3958
 7613SOL     OW23658   0.447   1.274   2.461  0.4184 -0.3249  0.2904
 7613SOL    HW123659   0.404   1.192   2.424 -0.9896  0.0867  0.9328
 7613SOL    HW223660   0.484   1.254   2.552  0.4925 -0.3757  0.2499
 7614SOL     OW23661   2.994   2.962   2.930 -0.1692 -0.3612 -0.2104
 7614SOL    HW123662   3.071   2.929   2.983  0.6307  0.5748 -0.7542
 7614SOL    HW223663   2.960   2.889   2.871 -0.0292 -0.9240  0.3956
 7615SOL     OW23664   3.096   4.904   3.312  0.2639  0.5952 -0.2961
 7615SOL    HW123665   3.162   4.937   3.380 -0.7926  0.6610  0.7329
 7615SOL    HW223666   3.004   4.907   3.351 -0.2221 -0.5625 -1.3122
 7616SOL     OW23667   0.960   0.726   2.764  0.6325  0.1735 -0.3133
 7616SOL    HW123668   0.972   0.822   2.789  1.0327 -0.4973  2.4342
 7616SOL    HW223669   1.043   0.693   2.718 -0.1789  1.5118 -2.9384
 7617SOL     OW23670   5.433   6.235   5.554 -0.2983 -0.1274  0.2913
 7617SOL    HW123671   5.523   6.266   5.523 -0.6224  0.1500 -0.3984
 7617SOL    HW223672   5.395   6.171   5.487  0.7594 -2.8408  2.1271
 7618SOL     OW23673   0.514   0.936   6.024  0.4892 -0.1268 -0.3903
 7618SOL    HW123674   0.423   0.957   6.061  0.5393 -0.3243 -0.1485
 7618SOL    HW223675   0.554   0.860   6.076  0.4349 -0.6107 -1.0574
 7619SOL     OW23676   5.326   3.308   0.337  0.1757 -0.4002  0.1854
 7619SOL    HW123677   5.405   3.254   0.306  0.5379  1.0273 -1.5974
 7619SOL    HW223678   5.358   3.394   0.376 -0.3850  1.9126 -3.9079
 7620SOL     OW23679   6.700   2.461   1.038  0.0565 -0.1417  0.6869
 7620SOL    HW123680   6.639   2.466   1.117 -0.2803 -0.0949  0.4306
 7620SOL    HW223681   6.768   2.534   1.044  0.7302 -0.8205  1.4937
 7621SOL     OW23682   3.224   0.497   5.998  0.3969  0.1546  0.1630
 7621SOL    HW123683   3.157   0.532   5.933 -0.0086 -1.0975 -0.1220
 7621SOL    HW223684   3.249   0.569   6.063 -0.2774  0.9950 -0.4888
 7622SOL     OW23685   2.895   4.045   0.068  0.3568  0.1114  0.4222
 7622SOL    HW123686   2.985   4.068   0.106  0.8693  0.0596 -0.7161
 7622SOL    HW223687   2.870   4.111  -0.002 -0.2061 -0.2318  0.3205
 7623SOL     OW23688   2.989   5.713   6.093  0.5951  0.2400 -0.0959
 7623SOL    HW123689   2.968   5.686   5.999  0.1735  0.5194 -0.0836
 7623SOL    HW223690   3.013   5.810   6.095 -0.6444  0.5505  0.2672
 7624SOL     OW23691   2.437   2.008   2.739  0.0817 -0.4653  0.8019
 7624SOL    HW123692   2.343   2.009   2.775 -0.2899 -1.4033 -0.0924
 7624SOL    HW223693   2.487   2.086   2.775 -1.7236  1.4118 -0.4449
 7625SOL     OW23694   3.629   6.038   0.384 -0.0738 -0.1865 -0.3913
 7625SOL    HW123695   3.547   6.087   0.356  0.7432  1.1486 -0.5477
 7625SOL    HW223696   3.706   6.064   0.326  0.3139 -1.9989 -0.7473
 7626SOL     OW23697   2.420   5.764   1.535  0.5157 -0.5965 -0.1110
 7626SOL    HW123698   2.454   5.785   1.627 -1.6276  2.0864  0.2099
 7626SOL    HW223699   2.374   5.675   1.536 -0.9944  0.1231  1.9341
 7627SOL     OW23700   2.188   6.370   0.246 -0.1280  0.2993 -0.0562
 7627SOL    HW123701   2.210   6.293   0.306 -1.9256 -1.2798 -1.3102
 7627SOL    HW223702   2.221   6.352   0.154 -0.1646  1.2291 -0.2593
 7628SOL     OW23703   4.178   2.121   4.511  0.2992  0.1994 -0.3521
 7628SOL    HW123704   4.207   2.194   4.572  1.1179 -0.0902 -0.3782
 7628SOL    HW223705   4.244   2.046   4.515  0.3479  0.1600 -1.5634
 7629SOL     OW23706   6.463   6.339   0.884  0.0228  0.0011 -0.3617
 7629SOL    HW123707   6.465   6.308   0.979 -0.5605 -0.7114 -0.5761
 7629SOL    HW223708   6.421   6.269   0.827 -0.2696  0.7169 -1.0387
 7630SOL     OW23709   1.221   6.554   5.459  0.7774  0.1181  0.6877
 7630SOL    HW123710   1.201   6.467   5.413  0.1825  0.4169  0.3623
 7630SOL    HW223711   1.187   6.550   5.553 -1.7310  0.9144 -0.0965
 7631SOL     OW23712   3.764   5.869   3.259 -0.4252 -0.2468 -0.0398
 7631SOL    HW123713   3.807   5.886   3.170 -2.6855  0.9770 -1.0047
 7631SOL    HW223714   3.809   5.925   3.329 -0.5138  1.1515 -1.0383
 7632SOL     OW23715   4.939   5.219   0.546 -0.0760  0.0238 -0.2535
 7632SOL    HW123716   4.876   5.250   0.617  0.9860  1.0086  0.2827
 7632SOL    HW223717   4.923   5.122   0.527 -1.7706  0.2497 -0.1701
 7633SOL     OW23718   4.785   1.557   1.121 -0.2379  0.1955 -0.8991
 7633SOL    HW123719   4.688   1.536   1.139 -0.1396 -0.7549 -1.4463
 7633SOL    HW223720   4.841   1.521   1.196 -0.1156 -1.1360 -1.5801
 7634SOL     OW23721   5.777   0.206   5.218  0.0301 -0.4024  0.2862
 7634SOL    HW123722   5.821   0.192   5.307  2.2259  0.1178 -0.6618
 7634SOL    HW223723   5.681   0.179   5.224  0.7002 -2.6726  2.1645
 7635SOL     OW23724   3.892   5.526   0.853 -0.2435 -0.1928 -0.0015
 7635SOL    HW123725   3.822   5.514   0.924 -0.6085  1.3356 -0.0628
 7635SOL    HW223726   3.969   5.465   0.871 -1.0468 -1.0008  0.7792
 7636SOL     OW23727   6.463   2.770   0.023 -0.0417  0.6720 -0.5463
 7636SOL    HW123728   6.540   2.834   0.032  0.2888  0.2733 -0.4595
 7636SOL    HW223729   6.444   2.755  -0.074 -0.4915  1.3296 -0.5402
 7637SOL     OW23730   5.874   2.816   0.709 -0.3902  0.3764  0.0094
 7637SOL    HW123731   5.937   2.816   0.631 -0.8164 -3.0081 -0.4755
 7637SOL    HW223732   5.922   2.850   0.790  2.2014 -2.1149 -0.3201
 7638SOL     OW23733   6.919   1.597   4.581  0.3093  0.1845 -0.7270
 7638SOL    HW123734   6.975   1.669   4.538  1.9976 -0.4446  0.2848
 7638SOL    HW223735   6.926   1.514   4.526  1.0093 -0.1069 -0.2146
 7639SOL     OW23736   6.873   1.109   5.281  0.3093  0.0313 -0.2740
 7639SOL    HW123737   6.959   1.154   5.255 -0.4136  0.6365 -1.7108
 7639SOL    HW223738   6.843   1.048   5.207 -1.9661  2.0149 -1.1195
 7640SOL     OW23739   5.765   4.173   3.319  0.4287 -0.0683 -0.4559
 7640SOL    HW123740   5.809   4.163   3.230  0.5807 -0.5056 -0.3339
 7640SOL    HW223741   5.801   4.105   3.382  1.4577  1.2071  0.3997
 7641SOL     OW23742   2.004   0.281   6.923 -0.3012  0.1473  0.8263
 7641SOL    HW123743   2.009   0.310   6.827  2.9374 -0.7432  0.5878
 7641SOL    HW223744   1.964   0.190   6.928 -1.2550  0.5391  0.4127
 7642SOL     OW23745   0.564   2.534   4.595 -0.0299 -0.3588  0.4711
 7642SOL    HW123746   0.566   2.529   4.695  0.8029 -1.4451  0.4156
 7642SOL    HW223747   0.654   2.561   4.561 -0.4849  0.6829  0.0228
 7643SOL     OW23748   0.061   6.897   5.479  0.7452  0.4634  0.1841
 7643SOL    HW123749   0.088   6.912   5.574  0.2427 -0.6137  0.5144
 7643SOL    HW223750  -0.019   6.836   5.476  0.4245  0.9429 -0.9063
 7644SOL     OW23751   6.013   2.000   2.610  0.0180  0.2139 -0.4039
 7644SOL    HW123752   5.987   2.085   2.565 -0.6442  0.6523  0.7296
 7644SOL    HW223753   6.110   2.001   2.632 -0.4158  1.7595  1.7206
 7645SOL     OW23754   6.717   6.809   4.706 -0.2728 -0.8705  0.7651
 7645SOL    HW123755   6.621   6.796   4.731 -1.1599  0.2213 -1.6448
 7645SOL    HW223756   6.755   6.722   4.673 -1.0952 -0.9272 -0.1100
 7646SOL     OW23757   4.810   0.488   2.884 -0.5036  0.0684  0.3249
 7646SOL    HW123758   4.740   0.548   2.846 -0.0368  0.0987 -0.4875
 7646SOL    HW223759   4.834   0.417   2.818  1.8738  1.3912 -0.3790
 7647SOL     OW23760   4.986   1.222   1.358  0.2351 -0.1328 -0.2757
 7647SOL    HW123761   5.025   1.172   1.280 -0.6448 -0.8467 -0.2905
 7647SOL    HW223762   5.019   1.316   1.357  3.6205 -1.1754  0.9607
 7648SOL     OW23763   4.073   1.523   0.223  0.2113  0.0489 -0.4879
 7648SOL    HW123764   4.068   1.511   0.322 -4.2572 -2.5184 -0.7867
 7648SOL    HW223765   4.008   1.595   0.195  0.0689 -0.5126 -1.6699
 7649SOL     OW23766   3.562   1.385   4.238 -0.3736  0.5011  0.2452
 7649SOL    HW123767   3.528   1.315   4.176  0.5962  1.1576 -1.0824
 7649SOL    HW223768   3.506   1.386   4.321 -0.9100 -1.2638 -0.0496
 7650SOL     OW23769   1.647   0.242   2.161 -0.8310  0.0158  0.5482
 7650SOL    HW123770   1.721   0.309   2.166 -1.3240  0.5266  1.3900
 7650SOL    HW223771   1.686   0.150   2.162 -0.1588  0.2817 -0.2272
 7651SOL     OW23772   6.115   2.805   0.261 -0.0210 -0.1487 -0.2083
 7651SOL    HW123773   6.175   2.881   0.233  0.4192 -0.8079 -1.1187
 7651SOL    HW223774   6.160   2.718   0.240 -0.7850 -0.6673  0.2484
 7652SOL     OW23775   2.619   1.797   1.158  0.1297 -0.3391  0.1217
 7652SOL    HW123776   2.550   1.725   1.164 -0.6882  0.5544  2.0158
 7652SOL    HW223777   2.576   1.885   1.141  0.7696  0.2347  1.3184
 7653SOL     OW23778   3.464   1.763   4.748  0.9482 -0.0824 -0.4980
 7653SOL    HW123779   3.538   1.824   4.775  1.8590 -0.1467 -2.6411
 7653SOL    HW223780   3.457   1.762   4.648 -1.8804 -0.1753 -0.3668
 7654SOL     OW23781   6.775   3.826   2.947 -0.5705 -0.3676 -0.5171
 7654SOL    HW123782   6.867   3.862   2.961 -0.4735 -1.4400  2.0841
 7654SOL    HW223783   6.715   3.899   2.917  0.2953  1.3289  1.6417
 7655SOL     OW23784   4.267   3.889   6.350 -0.0429  0.6950  0.3673
 7655SOL    HW123785   4.359   3.925   6.338  0.4369 -0.7314 -0.6852
 7655SOL    HW223786   4.204   3.934   6.286  0.7003 -0.7632 -1.4882
 7656SOL     OW23787   1.931   5.917   5.395 -0.1750 -0.3191 -0.2846
 7656SOL    HW123788   1.835   5.888   5.394  0.2911 -2.0781  1.6435
 7656SOL    HW223789   1.935   6.017   5.399 -1.8731 -0.1469 -1.6950
 7657SOL     OW23790   2.681   1.312   0.748  0.4948 -0.8258  0.7877
 7657SOL    HW123791   2.750   1.269   0.807  0.8651 -1.7482 -0.2944
 7657SOL    HW223792   2.608   1.247   0.730  0.2960 -0.4926  0.3842
 7658SOL     OW23793   0.219   0.038   2.292  0.1460 -0.2492  0.4668
 7658SOL    HW123794   0.155  -0.000   2.359 -1.1271  0.8531 -0.0890
 7658SOL    HW223795   0.192   0.008   2.200  0.9024 -0.3969  0.2917
 7659SOL     OW23796   3.806   5.590   0.168  0.3275 -0.2289 -0.4726
 7659SOL    HW123797   3.751   5.646   0.229  0.2409 -0.7224 -0.0985
 7659SOL    HW223798   3.835   5.646   0.090 -1.6327 -0.2288 -1.2831
 7660SOL     OW23799   2.751   0.278   4.521 -0.6422 -0.0226 -0.4222
 7660SOL    HW123800   2.775   0.215   4.595  1.0466 -0.2965 -1.1612
 7660SOL    HW223801   2.771   0.371   4.548  0.8829 -0.2061 -0.8608
 7661SOL     OW23802   3.747   6.000   6.431 -0.3825  0.1591 -0.1100
 7661SOL    HW123803   3.797   5.944   6.497  0.2030  0.5159 -0.2448
 7661SOL    HW223804   3.652   6.008   6.460 -0.9369 -2.3819 -1.0073
 7662SOL     OW23805   5.676   5.083   6.654  0.0194  0.6018  0.3058
 7662SOL    HW123806   5.603   5.102   6.588 -0.6816  4.3058  1.8845
 7662SOL    HW223807   5.638   5.078   6.746  1.5677  1.2252  1.0192
 7663SOL     OW23808   5.926   4.488   4.892 -0.3933  0.1371 -0.0236
 7663SOL    HW123809   5.957   4.472   4.798  1.3721  0.9246  0.3780
 7663SOL    HW223810   5.868   4.570   4.893  0.9742  1.1590 -0.2291
 7664SOL     OW23811   4.465   5.408   6.198  0.0874 -0.4837 -0.1144
 7664SOL    HW123812   4.484   5.488   6.142  0.7807  0.1108  0.9499
 7664SOL    HW223813   4.481   5.325   6.144 -2.2261  0.0383 -1.7840
 7665SOL     OW23814   2.511   3.497   6.120 -0.0603 -0.0371  1.1498
 7665SOL    HW123815   2.423   3.544   6.124 -0.2890 -0.5110  1.9879
 7665SOL    HW223816   2.501   3.404   6.157  0.2120 -1.0583 -1.2099
 7666SOL     OW23817   0.099   5.526   0.422  0.5301  0.2135 -0.2107
 7666SOL    HW123818   0.166   5.567   0.485  0.1199  0.2589  0.1985
 7666SOL    HW223819   0.009   5.526   0.464  0.2911  0.1586 -0.7664
 7667SOL     OW23820   3.750   2.679   0.836  0.2007  0.3531  0.1835
 7667SOL    HW123821   3.708   2.714   0.753 -0.0988 -0.3573  0.0407
 7667SOL    HW223822   3.684   2.683   0.911 -0.0442 -0.5078  0.0201
 7668SOL     OW23823   2.875   6.707   4.217  0.1991 -0.5776  0.5273
 7668SOL    HW123824   2.780   6.715   4.246 -0.6476 -0.6198 -2.0722
 7668SOL    HW223825   2.880   6.658   4.130  2.5504  0.0064  0.2681
 7669SOL     OW23826   0.147   0.209   1.970 -0.3774 -0.0668  0.2087
 7669SOL    HW123827   0.105   0.253   2.050 -0.9094 -1.2674  0.6110
 7669SOL    HW223828   0.164   0.277   1.899 -0.6168  0.8801  1.0452
 7670SOL     OW23829   0.044   6.083   4.913  0.5063  0.4186  0.2986
 7670SOL    HW123830   0.079   6.140   4.988 -1.8631  0.7032  1.2747
 7670SOL    HW223831  -0.030   6.132   4.866  0.0830 -0.8867 -0.4136
 7671SOL     OW23832   1.429   5.099   3.107  0.1270  0.6643 -0.3808
 7671SOL    HW123833   1.508   5.161   3.104  1.1667 -0.2380  2.9517
 7671SOL    HW223834   1.446   5.021   3.046  0.7843  1.5208 -1.3407
 7672SOL     OW23835   5.455   3.527   4.246  0.1978  0.2616 -0.7538
 7672SOL    HW123836   5.475   3.440   4.291 -0.5138  0.1204 -0.6951
 7672SOL    HW223837   5.457   3.514   4.147  0.4366  0.2630 -0.7528
 7673SOL     OW23838   6.600   0.718   4.072 -0.3034  0.0334 -0.7031
 7673SOL    HW123839   6.523   0.779   4.090 -1.5046 -1.6901  0.3387
 7673SOL    HW223840   6.578   0.659   3.994  0.5756  0.4789 -1.3016
 7674SOL     OW23841   6.871   5.162   3.203 -0.1176  0.2617 -1.0336
 7674SOL    HW123842   6.922   5.090   3.156 -1.1308 -0.8155 -0.5269
 7674SOL    HW223843   6.930   5.241   3.215  2.4725 -1.8616  1.9648
 7675SOL     OW23844   2.223   6.278   6.992 -0.3635  0.8403 -0.3485
 7675SOL    HW123845   2.189   6.325   6.911  1.6746 -0.9731 -2.3526
 7675SOL    HW223846   2.199   6.181   6.988  1.3231  0.3453  0.2682
 7676SOL     OW23847   0.436   6.254   0.243  0.2215 -0.1452  0.7247
 7676SOL    HW123848   0.440   6.223   0.338  1.2018  2.8457  1.7671
 7676SOL    HW223849   0.341   6.275   0.219 -0.0166 -0.8077  1.0699
 7677SOL     OW23850   0.430   4.277   0.972 -0.2291  0.6423  0.8068
 7677SOL    HW123851   0.520   4.293   1.014  0.2812  0.6305 -0.2629
 7677SOL    HW223852   0.359   4.310   1.034  0.5179  0.8750  1.5644
 7678SOL     OW23853   4.860   5.502   5.070 -0.0854 -0.5651  0.9192
 7678SOL    HW123854   4.930   5.526   5.137  0.5317 -1.0339  0.4489
 7678SOL    HW223855   4.879   5.412   5.032 -0.5980 -0.4345  0.3290
 7679SOL     OW23856   5.081   5.282   2.508  0.1936  0.6550 -0.2049
 7679SOL    HW123857   5.085   5.382   2.504  0.9989  0.6225 -0.2285
 7679SOL    HW223858   4.987   5.252   2.488 -0.2238  1.4334  0.5360
 7680SOL     OW23859   3.684   3.956   0.334 -0.3870  0.0954 -0.5597
 7680SOL    HW123860   3.658   3.884   0.269 -0.8471  0.4309 -0.7515
 7680SOL    HW223861   3.681   3.919   0.427 -2.6711  0.3981 -0.4629
 7681SOL     OW23862   6.639   0.339   5.244 -0.0002 -0.1459 -0.1937
 7681SOL    HW123863   6.577   0.313   5.318 -1.4480  0.7948 -1.0191
 7681SOL    HW223864   6.601   0.416   5.194  0.7537 -0.9687 -2.1490
 7682SOL     OW23865   0.158   2.500   4.804  0.4450  0.1813  0.5408
 7682SOL    HW123866   0.088   2.571   4.807  0.0510 -0.2291  2.0194
 7682SOL    HW223867   0.208   2.505   4.717  0.1930  2.0328  0.4739
 7683SOL     OW23868   4.014   5.047   0.211  0.0251 -0.0299  0.2588
 7683SOL    HW123869   4.041   4.957   0.246  0.5081  0.8304  2.2439
 7683SOL    HW223870   4.082   5.115   0.239 -0.9220  1.1444 -0.2079
 7684SOL     OW23871   5.185   4.340   5.610 -0.0654  0.3853 -0.0346
 7684SOL    HW123872   5.246   4.324   5.688  0.0406 -0.2945 -0.2462
 7684SOL    HW223873   5.171   4.438   5.598  0.6378  0.5314  0.2947
 7685SOL     OW23874   1.919   4.501   3.432  0.0668  0.0767 -0.0740
 7685SOL    HW123875   1.865   4.417   3.432  0.2823 -0.0634  0.0293
 7685SOL    HW223876   2.016   4.478   3.442  0.0493  0.3956  0.8815
 7686SOL     OW23877   1.280   2.155   0.957 -0.6284  0.6330 -0.5340
 7686SOL    HW123878   1.212   2.083   0.970 -0.5000  0.5383 -0.3625
 7686SOL    HW223879   1.316   2.150   0.864 -1.9517  1.6375 -1.1359
 7687SOL     OW23880   1.811   3.510   6.949 -0.4044 -1.0650  0.7896
 7687SOL    HW123881   1.870   3.444   6.996  1.4364 -1.3883 -1.8090
 7687SOL    HW223882   1.866   3.584   6.911 -1.5190 -1.5490 -2.0355
 7688SOL     OW23883   1.429   1.962   2.736 -0.1169  0.4450  0.2911
 7688SOL    HW123884   1.509   2.001   2.781 -1.6314  2.0161  1.7722
 7688SOL    HW223885   1.391   1.889   2.794  0.7770 -1.0446 -0.8997
 7689SOL     OW23886   5.591   2.994   2.289 -0.6511 -0.3408  0.4147
 7689SOL    HW123887   5.679   3.040   2.295 -0.6695 -0.2846  0.2556
 7689SOL    HW223888   5.592   2.930   2.211 -0.9710  0.1345  0.0128
 7690SOL     OW23889   1.018   3.115   2.309  0.1879 -0.3855 -0.5558
 7690SOL    HW123890   0.921   3.120   2.286  0.1695 -2.5998 -1.2502
 7690SOL    HW223891   1.069   3.180   2.253 -0.7641 -0.0648 -1.0695
 7691SOL     OW23892   3.891   3.999   0.007  0.2414  0.1698 -0.3056
 7691SOL    HW123893   3.824   3.996  -0.067  0.8083  0.7217 -0.8156
 7691SOL    HW223894   3.979   4.031  -0.028  0.0209  2.3696  0.9807
 7692SOL     OW23895   0.156   1.870   1.999  0.3382 -0.3721 -0.3569
 7692SOL    HW123896   0.122   1.777   1.981  2.6717 -1.3688  0.0186
 7692SOL    HW223897   0.152   1.924   1.915  3.8072 -2.5219 -2.1356
 7693SOL     OW23898   2.604   5.051   5.354  0.2347  0.0854  0.4535
 7693SOL    HW123899   2.585   5.148   5.341 -2.0800 -0.1724  1.5506
 7693SOL    HW223900   2.662   5.018   5.279  1.5765  2.3997  0.3655
 7694SOL     OW23901   2.561   5.343   1.193 -0.0310 -0.0336 -0.0272
 7694SOL    HW123902   2.611   5.285   1.257 -0.4831  0.3764  0.7076
 7694SOL    HW223903   2.601   5.435   1.193 -0.2170  0.0484 -0.1116
 7695SOL     OW23904   2.176   5.143   3.294  0.1256 -0.1740 -0.3459
 7695SOL    HW123905   2.248   5.157   3.226  0.6851 -1.2150 -0.0083
 7695SOL    HW223906   2.166   5.045   3.312 -1.6773 -0.0815 -0.6739
 7696SOL     OW23907   4.122   6.282   3.598 -0.4411  0.3473  0.1653
 7696SOL    HW123908   4.125   6.182   3.594 -0.2944  0.3253  0.8069
 7696SOL    HW223909   4.091   6.311   3.689  0.5937  0.8986  0.3555
 7697SOL     OW23910   6.730   0.682   3.658 -0.2439  0.0829 -0.3504
 7697SOL    HW123911   6.695   0.767   3.698 -2.0695 -0.4444 -0.7784
 7697SOL    HW223912   6.654   0.623   3.633  0.9712 -1.1083 -1.3353
 7698SOL     OW23913   6.442   1.964   5.937  0.5267  0.0579 -0.5092
 7698SOL    HW123914   6.484   1.873   5.943  0.8884  0.2885  1.0198
 7698SOL    HW223915   6.500   2.030   5.985 -1.7656  0.3192  2.1000
 7699SOL     OW23916   5.852   2.861   0.229 -0.3720  0.3318 -0.0469
 7699SOL    HW123917   5.824   2.885   0.136  1.0640  4.0323  0.2983
 7699SOL    HW223918   5.948   2.836   0.229 -0.8574 -1.6510  0.2300
 7700SOL     OW23919   0.744   0.920   1.750 -0.0173 -0.2825 -0.7328
 7700SOL    HW123920   0.656   0.892   1.788 -0.8158  2.8872 -0.0410
 7700SOL    HW223921   0.812   0.925   1.823  0.0432 -0.1396 -0.7984
 7701SOL     OW23922   0.325   6.300   0.592 -0.6505  0.7490 -0.0234
 7701SOL    HW123923   0.300   6.359   0.669 -2.0840  0.3084 -0.1311
 7701SOL    HW223924   0.425   6.295   0.585 -0.4923  2.5888  0.4237
 7702SOL     OW23925   4.412   3.273   5.324  0.2138 -0.1069  0.0232
 7702SOL    HW123926   4.482   3.301   5.390  0.9919 -0.1386 -0.7650
 7702SOL    HW223927   4.456   3.234   5.243 -0.6114  1.4785 -1.2708
 7703SOL     OW23928   5.167   4.241   0.080 -0.2998  0.0387  0.1913
 7703SOL    HW123929   5.086   4.241   0.138 -0.1858  0.2295  0.3540
 7703SOL    HW223930   5.219   4.157   0.094  0.1318  0.4234  0.9428
 7704SOL     OW23931   1.162   0.177   2.540  0.0640  0.0166  0.0103
 7704SOL    HW123932   1.220   0.252   2.508 -0.5575  1.0502  1.2553
 7704SOL    HW223933   1.193   0.146   2.629 -0.5262 -0.2855  0.1162
 7705SOL     OW23934   1.352   4.488   6.156  0.1574 -0.1227  0.0964
 7705SOL    HW123935   1.353   4.554   6.081  0.3593  0.9014  0.9890
 7705SOL    HW223936   1.404   4.524   6.233  0.1981 -1.2958  0.6271
 7706SOL     OW23937   4.940   2.362   4.647 -0.0224 -0.3271 -0.3609
 7706SOL    HW123938   4.873   2.313   4.591 -1.9265  1.8050 -0.0645
 7706SOL    HW223939   4.893   2.421   4.713  2.0858  2.2648 -0.9859
 7707SOL     OW23940   1.621   1.710   2.868  0.3563  0.0240  0.6206
 7707SOL    HW123941   1.618   1.738   2.964  0.6659  0.4368  0.5103
 7707SOL    HW223942   1.588   1.616   2.860  0.1333  0.0565  1.1053
 7708SOL     OW23943   3.304   5.384   4.084 -0.2418  0.6183  0.0347
 7708SOL    HW123944   3.261   5.294   4.098 -1.2303  1.0738  0.0832
 7708SOL    HW223945   3.245   5.454   4.124  0.5662  1.2850  0.0750
 7709SOL     OW23946   4.212   4.571   2.961  0.3165 -0.3987  0.5820
 7709SOL    HW123947   4.258   4.592   2.875 -0.3620 -0.9177  0.0843
 7709SOL    HW223948   4.245   4.484   2.997 -0.1225 -0.6677  0.3350
 7710SOL     OW23949   6.480   5.981   2.276 -0.2213 -0.1544  0.2150
 7710SOL    HW123950   6.538   5.901   2.258  0.2254 -0.2708  1.9711
 7710SOL    HW223951   6.401   5.953   2.330 -2.1397 -0.0453 -2.3402
 7711SOL     OW23952   5.886   3.443   0.317  0.0179  0.0850  0.9660
 7711SOL    HW123953   5.840   3.480   0.398 -2.6305  0.9197 -0.8249
 7711SOL    HW223954   5.955   3.508   0.287 -0.6521  0.9127  1.1616
 7712SOL     OW23955   4.758   5.413   2.618  0.4134 -0.2721  0.4124
 7712SOL    HW123956   4.709   5.477   2.559  1.3027  0.7035  0.7084
 7712SOL    HW223957   4.778   5.329   2.567 -4.1381 -2.0428  1.0879
 7713SOL     OW23958   6.917   1.119   4.047  0.1655 -0.0195  0.3485
 7713SOL    HW123959   6.992   1.146   3.987 -1.8340  1.6541 -1.5808
 7713SOL    HW223960   6.905   1.020   4.043  1.4980 -0.1793 -0.2060
 7714SOL     OW23961   0.890   1.711   2.361  0.5416  0.0854  0.3350
 7714SOL    HW123962   0.824   1.672   2.298  0.5503  0.0811  0.3285
 7714SOL    HW223963   0.845   1.729   2.449  0.6520 -0.3941  0.4954
 7715SOL     OW23964   6.268   2.091   3.250  0.3500  0.6487 -0.1006
 7715SOL    HW123965   6.358   2.124   3.222  0.5498  0.7080  0.5668
 7715SOL    HW223966   6.202   2.108   3.178  1.2061 -1.0426 -1.3899
 7716SOL     OW23967   1.117   5.200   0.294  0.5985 -0.5306  0.0744
 7716SOL    HW123968   1.047   5.269   0.275  0.7140 -0.4583 -0.0881
 7716SOL    HW223969   1.112   5.128   0.225 -0.4607 -1.4153  1.0297
 7717SOL     OW23970   4.987   4.163   5.339 -0.8550  0.0287  0.6905
 7717SOL    HW123971   5.015   4.257   5.319 -1.4602  0.0437 -0.1581
 7717SOL    HW223972   5.051   4.122   5.403  0.8379  0.1935 -0.8386
 7718SOL     OW23973   4.778   1.428   6.538  0.0901  0.1645 -0.2236
 7718SOL    HW123974   4.861   1.472   6.573 -0.5296 -0.1790  1.8497
 7718SOL    HW223975   4.769   1.337   6.578 -2.3797  1.0308  1.4032
 7719SOL     OW23976   0.185   4.658   6.285  0.5581 -0.1016 -0.1399
 7719SOL    HW123977   0.113   4.650   6.216  0.7356 -0.9325 -0.2443
 7719SOL    HW223978   0.150   4.627   6.373  0.1067  1.6190  0.3494
 7720SOL     OW23979   3.631   3.503   5.285 -0.2462 -0.6490  0.7608
 7720SOL    HW123980   3.656   3.560   5.363  3.0493 -1.0873  0.2040
 7720SOL    HW223981   3.621   3.408   5.314  2.1372 -1.0137  0.5917
 7721SOL     OW23982   2.377   0.979   0.246  0.1599 -0.2247 -0.3962
 7721SOL    HW123983   2.336   0.894   0.216 -2.3982  1.5053 -2.1236
 7721SOL    HW223984   2.307   1.050   0.255  2.3191  2.0379 -0.1454
 7722SOL     OW23985   4.609   1.504   1.416  0.1994 -0.3703 -0.1920
 7722SOL    HW123986   4.552   1.550   1.348 -0.9140 -0.9060  0.3552
 7722SOL    HW223987   4.646   1.420   1.377 -0.1854 -0.5188 -0.2389
 7723SOL     OW23988   2.840   5.659   0.162 -0.0666  0.7997 -0.4378
 7723SOL    HW123989   2.933   5.634   0.134  0.0273  0.1399  0.4143
 7723SOL    HW223990   2.841   5.749   0.206  0.5807 -0.1537  1.6095
 7724SOL     OW23991   2.074   6.392   1.502  0.2998  0.2576 -0.0050
 7724SOL    HW123992   2.086   6.491   1.508 -0.9665  0.4441 -0.2783
 7724SOL    HW223993   2.163   6.349   1.482  0.5940  1.4875 -1.4968
 7725SOL     OW23994   3.615   4.533   6.918 -0.0802 -0.2931 -0.4107
 7725SOL    HW123995   3.602   4.545   7.017  0.4870  0.9649 -0.4983
 7725SOL    HW223996   3.676   4.455   6.902 -1.1346 -1.2656  0.1680
 7726SOL     OW23997   0.597   0.532   6.831 -0.3811  0.1395  0.0751
 7726SOL    HW123998   0.669   0.471   6.798 -0.8744 -0.8380  0.7505
 7726SOL    HW223999   0.517   0.478   6.855 -0.7793  1.0539  0.8448
 7727SOL     OW24000   1.684   2.946   5.449  0.2689  0.0821 -0.3221
 7727SOL    HW124001   1.605   2.887   5.465  1.1682 -0.8098  1.0363
 7727SOL    HW224002   1.657   3.024   5.392 -1.6230 -0.1212  0.2343
 7728SOL     OW24003   6.943   3.284   2.331 -0.3606 -0.0796 -0.2082
 7728SOL    HW124004   6.854   3.312   2.297 -1.6424 -2.9820  0.4629
 7728SOL    HW224005   6.977   3.350   2.398 -3.1153 -0.0740  1.2762
 7729SOL     OW24006   4.101   1.661   3.053  0.7572 -0.6129  0.7951
 7729SOL    HW124007   4.042   1.719   2.998  0.8223 -1.2698  0.0007
 7729SOL    HW224008   4.045   1.607   3.116  0.7053  0.3624  1.6091
 7730SOL     OW24009   3.868   5.267   5.295  0.4712  0.1724 -0.1475
 7730SOL    HW124010   3.783   5.252   5.245  0.5789  1.0752 -0.6253
 7730SOL    HW224011   3.945   5.255   5.233  0.5839  2.1200 -0.4635
 7731SOL     OW24012   4.252   0.207   4.618 -0.3304  0.1156  0.2646
 7731SOL    HW124013   4.191   0.191   4.541  0.5087  1.5969 -0.7563
 7731SOL    HW224014   4.250   0.304   4.642  0.7043 -0.0311  1.0011
 7732SOL     OW24015   5.139   5.467   1.760  0.2067 -0.4532 -0.4373
 7732SOL    HW124016   5.046   5.502   1.758 -0.2963 -1.6719  0.2231
 7732SOL    HW224017   5.195   5.523   1.822 -0.0085  0.4202 -1.0125
 7733SOL     OW24018   2.146   4.183   0.529  0.2574 -0.3118 -0.1283
 7733SOL    HW124019   2.181   4.112   0.469  2.3567  1.5761 -1.3008
 7733SOL    HW224020   2.092   4.249   0.476  0.8607  0.5703  0.3208
 7734SOL     OW24021   3.095   0.650   4.735  0.0663  0.2548 -0.0850
 7734SOL    HW124022   3.122   0.744   4.715 -0.1356  0.2761 -0.2647
 7734SOL    HW224023   3.083   0.600   4.649 -1.1384  0.4352 -0.0390
 7735SOL     OW24024   1.036   5.321   0.586  0.7485  0.1415  0.0395
 7735SOL    HW124025   1.073   5.389   0.522  0.7906  1.4316  1.3582
 7735SOL    HW224026   1.111   5.265   0.621  0.5587 -1.4941 -2.0015
 7736SOL     OW24027   2.276   1.040   4.695 -0.2871 -0.0715 -0.6164
 7736SOL    HW124028   2.365   1.080   4.673  0.3232 -1.5448 -0.9086
 7736SOL    HW224029   2.204   1.105   4.669  0.4716 -0.6015 -4.7780
 7737SOL     OW24030   0.098   0.195   4.511 -0.4364 -0.0716 -0.2620
 7737SOL    HW124031   0.022   0.195   4.446 -1.7204  0.3544  1.1708
 7737SOL    HW224032   0.064   0.168   4.601  0.6684  2.0897  0.8810
 7738SOL     OW24033   0.735   6.456   3.338 -0.3538  0.2739  0.5434
 7738SOL    HW124034   0.732   6.424   3.243  0.4646  0.1663  0.5471
 7738SOL    HW224035   0.653   6.425   3.386  1.1696 -3.3957  1.0572
 7739SOL     OW24036   4.838   4.416   1.093  0.3229 -0.4527 -0.4100
 7739SOL    HW124037   4.758   4.447   1.041 -0.3809 -2.5173 -0.6517
 7739SOL    HW224038   4.922   4.443   1.045 -0.2251  1.0656 -0.5566
 7740SOL     OW24039   5.568   3.569   4.962 -0.1856 -0.0836  0.0223
 7740SOL    HW124040   5.667   3.584   4.952 -0.1135 -1.0066 -0.7478
 7740SOL    HW224041   5.522   3.658   4.968  0.4661  0.4300 -1.8351
 7741SOL     OW24042   6.414   5.792   1.084  0.5378 -0.2495 -0.7824
 7741SOL    HW124043   6.374   5.867   1.031  0.8199  0.0869 -0.5247
 7741SOL    HW224044   6.476   5.739   1.027  0.5951 -0.0840 -0.8734
 7742SOL     OW24045   1.110   4.142   0.519  0.0630 -0.5133 -0.7871
 7742SOL    HW124046   1.102   4.054   0.567  0.4639 -0.3251 -0.3579
 7742SOL    HW224047   1.184   4.195   0.561  1.4789 -0.9603 -2.5900
 7743SOL     OW24048   6.107   5.958   5.973  0.6706 -0.4765 -0.1020
 7743SOL    HW124049   6.160   5.980   5.891  1.7152  1.2509  0.9576
 7743SOL    HW224050   6.056   6.039   6.003 -0.9115 -1.5107  0.1247
 7744SOL     OW24051   1.023   5.025   5.264 -0.2029  0.1248  0.0673
 7744SOL    HW124052   0.978   4.939   5.240  1.3674 -1.5969  2.8591
 7744SOL    HW224053   1.048   5.074   5.180 -2.9700 -1.0258 -1.5965
 7745SOL     OW24054   3.987   2.607   0.025 -0.3182 -0.2264 -0.1332
 7745SOL    HW124055   4.046   2.531  -0.003  0.4156 -1.7537  4.7201
 7745SOL    HW224056   4.044   2.687   0.046 -0.1423 -0.8080  1.8306
 7746SOL     OW24057   3.095   1.169   6.025 -0.6784  0.1926 -0.2245
 7746SOL    HW124058   3.075   1.216   5.939  0.2051 -3.7296 -2.8436
 7746SOL    HW224059   3.189   1.133   6.023 -1.3969 -2.0360  1.2884
 7747SOL     OW24060   0.128   5.876   0.134 -0.4353  0.1543  0.0836
 7747SOL    HW124061   0.212   5.931   0.135 -0.5159  0.2903 -0.2827
 7747SOL    HW224062   0.070   5.905   0.059 -0.0551 -1.0986 -0.7209
 7748SOL     OW24063   6.406   4.230   6.735  0.4461  0.2560  0.0250
 7748SOL    HW124064   6.400   4.246   6.834 -1.4903  0.1736 -0.0502
 7748SOL    HW224065   6.330   4.173   6.706  2.6842 -2.4234 -1.0547
 7749SOL     OW24066   0.041   1.511   3.723  0.3889  0.5306  0.5334
 7749SOL    HW124067   0.100   1.514   3.803  1.1157  3.5885 -0.0043
 7749SOL    HW224068  -0.044   1.560   3.742 -0.7682 -1.3201  0.3425
 7750SOL     OW24069   4.470   1.900   3.287  0.1073 -0.6134 -0.1337
 7750SOL    HW124070   4.422   1.934   3.369  2.9154  0.8228  1.0417
 7750SOL    HW224071   4.550   1.847   3.315  1.1080 -0.1369 -1.9408
 7751SOL     OW24072   3.459   5.553   0.270  0.0701 -0.2318 -0.4524
 7751SOL    HW124073   3.398   5.624   0.304 -0.0633  0.2162 -1.5674
 7751SOL    HW224074   3.405   5.474   0.241  0.1240 -0.3487 -0.2315
 7752SOL     OW24075   3.937   4.179   0.351  0.5731  0.3579  0.4478
 7752SOL    HW124076   4.030   4.140   0.350  0.3751 -0.2733 -2.5593
 7752SOL    HW224077   3.872   4.109   0.323 -0.3967  1.6077 -0.5796
 7753SOL     OW24078   2.285   3.502   5.730  0.1889  0.0304 -0.3102
 7753SOL    HW124079   2.237   3.414   5.740 -1.6013  0.4124 -3.7890
 7753SOL    HW224080   2.242   3.570   5.789 -2.1158 -0.2048 -1.6159
 7754SOL     OW24081   2.836   0.972   4.212 -0.0333  0.4421 -0.1537
 7754SOL    HW124082   2.905   0.945   4.280  1.3275  0.4439 -1.4563
 7754SOL    HW224083   2.824   0.898   4.147 -0.9228  0.6390 -0.2205
 7755SOL     OW24084   0.985   0.240   0.818 -0.0427 -0.4551  0.2317
 7755SOL    HW124085   0.992   0.237   0.918 -0.9626  0.1849  0.3302
 7755SOL    HW224086   0.937   0.159   0.785 -0.1594 -0.4411  0.3637
 7756SOL     OW24087   1.653   4.388   1.535 -0.3314  0.4021 -0.0314
 7756SOL    HW124088   1.599   4.472   1.531 -0.5992  0.2243 -0.0968
 7756SOL    HW224089   1.595   4.311   1.561  0.3707  0.6390  2.4745
 7757SOL     OW24090   2.873   3.674   4.396  0.6966  0.4856  0.0398
 7757SOL    HW124091   2.888   3.597   4.335  0.0583  0.1977  0.2389
 7757SOL    HW224092   2.894   3.648   4.490 -0.9558  0.0589  0.3349
 7758SOL     OW24093   4.913   0.997   6.090 -0.2257  0.0938 -0.5617
 7758SOL    HW124094   5.003   0.957   6.105  0.6008  0.6940 -3.2388
 7758SOL    HW224095   4.923   1.095   6.068 -1.6438  0.4377  0.1959
 7759SOL     OW24096   1.959   6.055   6.055 -0.4128 -0.0831 -0.3623
 7759SOL    HW124097   1.973   6.134   5.996  0.0774  0.9492  1.0872
 7759SOL    HW224098   1.926   6.085   6.144  0.8842 -1.3935  0.6062
 7760SOL     OW24099   0.992   3.965   6.801  0.0568 -0.1968  0.5865
 7760SOL    HW124100   1.079   3.933   6.763 -0.5005 -1.7197  0.5483
 7760SOL    HW224101   1.009   4.036   6.869  1.4080 -1.2633  1.4001
 7761SOL     OW24102   6.257   3.571   5.206 -0.1383  0.4552  0.0079
 7761SOL    HW124103   6.295   3.660   5.230  0.7353 -0.3848  1.9837
 7761SOL    HW224104   6.330   3.511   5.172 -0.7050  0.4601 -1.2514
 7762SOL     OW24105   5.120   2.534   2.697 -0.0310 -0.1989 -0.0613
 7762SOL    HW124106   5.070   2.546   2.611 -0.5490  0.4942  0.3291
 7762SOL    HW224107   5.117   2.437   2.723 -1.0713 -0.1921 -0.1061
 7763SOL     OW24108   6.174   6.941   0.475  0.0158  0.0107 -0.1647
 7763SOL    HW124109   6.253   6.896   0.433 -0.2894  0.2890 -1.0579
 7763SOL    HW224110   6.205   7.006   0.545  0.4900 -1.1362  0.7143
 7764SOL     OW24111   5.482   0.148   6.374  0.5726  0.7510  0.3188
 7764SOL    HW124112   5.533   0.064   6.390  0.2410  0.2442 -1.1239
 7764SOL    HW224113   5.545   0.221   6.349  0.7078  0.4482 -0.2434
 7765SOL     OW24114   5.659   5.175   3.232 -0.5157  0.8339  0.3542
 7765SOL    HW124115   5.604   5.117   3.292 -1.8328  0.9133 -0.6948
 7765SOL    HW224116   5.754   5.148   3.236 -0.7009  0.3490  1.8659
 7766SOL     OW24117   3.526   6.354   1.332  0.0902  0.1734  0.3101
 7766SOL    HW124118   3.457   6.345   1.404 -0.0737  0.0961  0.1443
 7766SOL    HW224119   3.584   6.273   1.331  0.8083  0.6678  1.0967
 7767SOL     OW24120   1.629   0.560   4.595 -0.1945 -0.1436  0.4104
 7767SOL    HW124121   1.718   0.592   4.561 -0.5243 -0.1143 -0.4547
 7767SOL    HW224122   1.616   0.590   4.689  0.3530  0.5865  0.2641
 7768SOL     OW24123   1.492   1.172   1.808 -0.2875  0.3241 -0.0139
 7768SOL    HW124124   1.484   1.074   1.789 -0.8153  0.2578  0.5106
 7768SOL    HW224125   1.502   1.222   1.722 -0.9655 -0.1051 -0.3478
 7769SOL     OW24126   6.052   2.147   1.999  0.0307  0.5025  0.0926
 7769SOL    HW124127   5.960   2.170   1.966 -1.2345 -1.4067  2.0069
 7769SOL    HW224128   6.089   2.224   2.052 -0.8024  0.9833 -0.0081
 7770SOL     OW24129   1.721   0.744   1.696  0.3611 -0.4001  0.8363
 7770SOL    HW124130   1.717   0.685   1.616 -0.8936 -0.3140  0.8152
 7770SOL    HW224131   1.695   0.692   1.777  0.8938 -0.2978  1.0766
 7771SOL     OW24132   3.592   1.929   6.323  0.1651 -0.0744  0.0142
 7771SOL    HW124133   3.565   1.853   6.264 -1.3130  0.8948 -0.6138
 7771SOL    HW224134   3.657   1.987   6.275  0.7614 -0.5543  0.2337
 7772SOL     OW24135   5.453   0.567   6.443 -0.4122 -0.3442  0.4723
 7772SOL    HW124136   5.548   0.536   6.437 -0.8639 -1.5845 -0.5258
 7772SOL    HW224137   5.418   0.588   6.351 -1.7498 -1.9565  0.5674
 7773SOL     OW24138   6.557   6.472   3.058  0.7019  0.5308 -0.2551
 7773SOL    HW124139   6.539   6.490   3.154  1.3719  1.3181 -0.2634
 7773SOL    HW224140   6.472   6.483   3.006  0.1370 -0.8099  0.3593
 7774SOL     OW24141   0.560   3.167   4.175  0.0833  0.1264 -0.1652
 7774SOL    HW124142   0.619   3.179   4.255 -2.3848 -3.4500  2.5531
 7774SOL    HW224143   0.543   3.256   4.132  1.0129  2.3964  3.6930
 7775SOL     OW24144   4.717   0.789   6.067  0.0756 -0.4704  0.1638
 7775SOL    HW124145   4.638   0.811   6.010  0.0553  0.7891  0.6659
 7775SOL    HW224146   4.776   0.869   6.075 -0.6026 -0.1659  3.0259
 7776SOL     OW24147   6.908   1.704   6.475  0.4099 -0.5274 -0.9801
 7776SOL    HW124148   6.989   1.723   6.529  0.9409 -0.7857 -1.6567
 7776SOL    HW224149   6.860   1.789   6.454 -0.7340 -0.5480  1.2449
 7777SOL     OW24150   1.696   6.550   4.580 -0.4445 -0.1513  0.3206
 7777SOL    HW124151   1.766   6.621   4.589  1.4800 -1.6979 -1.3855
 7777SOL    HW224152   1.652   6.557   4.491  1.1804 -2.1530 -0.7433
 7778SOL     OW24153   0.912   2.266   1.114  0.1129 -0.3332 -0.2033
 7778SOL    HW124154   0.972   2.271   1.035  0.6341  0.0336  0.2081
 7778SOL    HW224155   0.965   2.280   1.198 -1.0974  4.8050  0.0557
 7779SOL     OW24156   1.604   3.614   6.394  0.1520  0.3691 -0.0411
 7779SOL    HW124157   1.666   3.555   6.343  0.4513  0.2194  0.4796
 7779SOL    HW224158   1.622   3.710   6.370  0.9701  0.3678  0.4926
 7780SOL     OW24159   0.995   6.853   0.518  0.2465  0.4126 -0.0153
 7780SOL    HW124160   1.091   6.824   0.521 -0.4787 -2.1768  0.6675
 7780SOL    HW224161   0.955   6.826   0.430 -0.3362 -0.2660  0.4481
 7781SOL     OW24162   0.798   1.321   6.369  0.3464  0.0693 -0.3894
 7781SOL    HW124163   0.733   1.255   6.405 -0.5398  0.9684 -0.3232
 7781SOL    HW224164   0.817   1.391   6.438  0.3403  0.5682 -0.8816
 7782SOL     OW24165   3.359   3.234   6.205 -0.0951  0.3118 -0.2331
 7782SOL    HW124166   3.304   3.318   6.202 -0.2955  0.1455 -2.2542
 7782SOL    HW224167   3.410   3.231   6.291 -1.9036  1.3106  0.9297
 7783SOL     OW24168   3.550   6.845   3.032 -0.2501 -0.1335 -0.2987
 7783SOL    HW124169   3.517   6.839   2.938  1.5135  0.9767 -1.0450
 7783SOL    HW224170   3.528   6.935   3.069 -0.3200 -0.3144  0.1002
 7784SOL     OW24171   2.779   6.028   0.821 -0.3723  0.6564 -0.3294
 7784SOL    HW124172   2.823   5.941   0.794  1.8098  1.2990  0.9021
 7784SOL    HW224173   2.740   6.071   0.740  0.2104 -0.5608 -1.3132
 7785SOL     OW24174   1.635   4.950   0.744 -0.3017  0.0877 -0.2615
 7785SOL    HW124175   1.590   5.025   0.695  0.5229  0.5315 -0.3577
 7785SOL    HW224176   1.580   4.867   0.737 -1.1378  0.6369 -0.3112
 7786SOL     OW24177   0.444   2.258   1.036  0.3329  0.0136  0.3270
 7786SOL    HW124178   0.377   2.191   1.067  1.1609 -0.7171  0.5827
 7786SOL    HW224179   0.456   2.329   1.106 -0.2449  0.2116  0.2302
 7787SOL     OW24180   1.560   3.930   2.834  0.4447 -0.0960 -0.5263
 7787SOL    HW124181   1.540   3.873   2.754 -0.5995  0.7661 -0.8923
 7787SOL    HW224182   1.509   4.015   2.828 -1.2458 -0.8427  2.0378
 7788SOL     OW24183   3.859   0.399   4.354  0.0062 -0.2934  0.4612
 7788SOL    HW124184   3.825   0.388   4.261 -0.3993 -0.3762  0.6165
 7788SOL    HW224185   3.851   0.312   4.403 -0.5462 -0.0531  0.8183
 7789SOL     OW24186   3.847   1.790   2.868 -0.1462  0.0084 -0.4018
 7789SOL    HW124187   3.858   1.718   2.799  0.5138  0.8662 -1.2245
 7789SOL    HW224188   3.756   1.830   2.858 -0.9052 -1.3507  0.7209
 7790SOL     OW24189   1.097   2.491   6.673  0.0159 -0.0013 -0.0338
 7790SOL    HW124190   1.012   2.530   6.640  0.6103  0.6350 -0.8471
 7790SOL    HW224191   1.091   2.391   6.671 -0.8437  0.0350  0.2940
 7791SOL     OW24192   0.524   5.260   0.905 -0.1649 -0.0249  0.0413
 7791SOL    HW124193   0.618   5.292   0.914  0.6805 -1.1758 -3.3678
 7791SOL    HW224194   0.497   5.212   0.989  2.6386 -0.6088  0.7216
 7792SOL     OW24195   2.832   3.573   3.237 -0.0737  0.0234  0.2119
 7792SOL    HW124196   2.926   3.588   3.267 -0.4743 -1.6985  2.5805
 7792SOL    HW224197   2.769   3.618   3.301 -0.9162 -0.3210 -0.3634
 7793SOL     OW24198   4.213   5.225   0.283  0.4187  0.1881 -0.0171
 7793SOL    HW124199   4.158   5.308   0.282  0.9343  0.5492 -1.4473
 7793SOL    HW224200   4.291   5.236   0.222  0.5775 -1.2956 -0.1222
 7794SOL     OW24201   1.093   5.910   2.940  0.1002 -0.6589 -0.3342
 7794SOL    HW124202   1.064   5.897   3.035  2.4529  1.6330  0.8441
 7794SOL    HW224203   1.061   5.999   2.908  2.4875  0.2859 -0.2764
 7795SOL     OW24204   6.067   6.811   6.197  0.5005  0.5016  0.2787
 7795SOL    HW124205   6.057   6.778   6.291  0.6075 -2.4806 -0.6274
 7795SOL    HW224206   5.982   6.793   6.147 -0.0816  3.3618  0.0686
 7796SOL     OW24207   3.042   6.468   2.256  0.2372 -0.1733 -0.0185
 7796SOL    HW124208   3.115   6.528   2.288  0.4292  0.1074 -0.9533
 7796SOL    HW224209   2.958   6.488   2.307  0.6494 -0.0828  0.6425
 7797SOL     OW24210   1.976   2.218   4.736  0.2946  0.5729  0.1064
 7797SOL    HW124211   2.023   2.296   4.693  1.5492  0.6082  1.4581
 7797SOL    HW224212   1.989   2.222   4.835  0.3820 -1.3569  0.2069
 7798SOL     OW24213   6.876   3.687   6.364  0.2653  0.3520 -0.1640
 7798SOL    HW124214   6.852   3.600   6.408  0.9115  0.4534  0.4061
 7798SOL    HW224215   6.797   3.722   6.314 -0.4325  0.1240  0.7476
 7799SOL     OW24216   5.815   3.359   1.460 -0.4826  0.6102  0.4572
 7799SOL    HW124217   5.729   3.393   1.423  0.0443  1.7243  0.1626
 7799SOL    HW224218   5.797   3.300   1.539 -1.6665 -2.0356 -1.6365
 7800SOL     OW24219   0.496   2.733   3.935 -0.4873 -0.3193  0.0770
 7800SOL    HW124220   0.404   2.773   3.931  0.5062  2.1213 -0.9028
 7800SOL    HW224221   0.563   2.807   3.944  1.3673 -2.1006  1.9667
 7801SOL     OW24222   0.438   3.837   6.388 -0.1684 -0.4307  0.3694
 7801SOL    HW124223   0.349   3.792   6.395  0.1857 -0.8955  2.1759
 7801SOL    HW224224   0.430   3.932   6.417 -0.2040 -0.2903 -0.0952
 7802SOL     OW24225   2.858   1.094   0.019 -0.2118  0.0293 -0.1715
 7802SOL    HW124226   2.782   1.031   0.033 -1.4147  1.3954 -0.4236
 7802SOL    HW224227   2.861   1.160   0.094  1.4077 -0.6557  0.4063
 7803SOL     OW24228   6.453   1.917   5.645 -0.2164 -0.0312  0.0123
 7803SOL    HW124229   6.397   1.906   5.562 -0.7510  1.8501  0.0729
 7803SOL    HW224230   6.397   1.959   5.717  0.6971 -0.1128  0.7894
 7804SOL     OW24231   5.412   0.283   2.485 -0.4419 -0.5668 -0.0945
 7804SOL    HW124232   5.316   0.272   2.513 -0.3375  0.4726  0.7177
 7804SOL    HW224233   5.415   0.312   2.389 -1.0185  1.0476  0.3408
 7805SOL     OW24234   2.364   4.546   1.998 -0.3070 -0.3694  0.3580
 7805SOL    HW124235   2.388   4.452   1.974 -1.9133 -0.7885  0.2743
 7805SOL    HW224236   2.324   4.592   1.918  1.1858  0.6727  0.1594
 7806SOL     OW24237   5.602   6.553   1.213 -0.3237  0.2905 -0.1726
 7806SOL    HW124238   5.622   6.484   1.283 -2.0773  0.7882  0.8595
 7806SOL    HW224239   5.517   6.600   1.235 -1.8179 -0.6022 -3.4443
 7807SOL     OW24240   5.801   3.970   5.659 -0.1856  0.0832 -0.4969
 7807SOL    HW124241   5.740   3.918   5.718  1.0146 -1.4510 -0.5639
 7807SOL    HW224242   5.841   4.046   5.711 -1.9458  0.9812 -0.4037
 7808SOL     OW24243   6.045   1.090   3.260  0.3705 -0.4793 -0.1142
 7808SOL    HW124244   5.978   1.049   3.322 -0.0579  0.0011 -0.2449
 7808SOL    HW224245   6.074   1.021   3.193  1.4751 -1.2646  1.1056
 7809SOL     OW24246   6.552   1.182   2.415  0.7797 -0.0033 -0.6462
 7809SOL    HW124247   6.547   1.174   2.315  1.5391 -2.0322 -0.5724
 7809SOL    HW224248   6.586   1.097   2.454 -2.4081 -0.4749  1.6056
 7810SOL     OW24249   3.171   3.958   2.167 -0.0679 -0.3838  0.0783
 7810SOL    HW124250   3.123   3.875   2.138 -0.0731 -0.5198  0.4833
 7810SOL    HW224251   3.260   3.934   2.205 -0.4277 -0.2719  1.0039
 7811SOL     OW24252   6.076   5.727   4.035  0.2115 -0.0303  0.8533
 7811SOL    HW124253   6.119   5.646   4.074  3.3510  1.8290  1.6104
 7811SOL    HW224254   6.109   5.740   3.941 -1.0885 -0.1242  0.3561
 7812SOL     OW24255   6.227   4.788   1.158 -0.7334 -0.4690  0.1329
 7812SOL    HW124256   6.180   4.827   1.079 -0.4726  0.5156  0.4455
 7812SOL    HW224257   6.301   4.729   1.127 -0.9801 -0.5282 -0.3611
 7813SOL     OW24258   2.868   1.229   0.940 -0.2223 -0.4955 -0.1252
 7813SOL    HW124259   2.943   1.179   0.896  1.4747 -0.1974  2.2444
 7813SOL    HW224260   2.830   1.175   1.014 -1.2535  0.0493 -0.2351
 7814SOL     OW24261   1.580   6.600   4.346  0.5897 -0.1891  0.5529
 7814SOL    HW124262   1.556   6.695   4.363  1.8101  0.0699  0.9363
 7814SOL    HW224263   1.499   6.549   4.317 -0.2018  0.8234  0.9493
 7815SOL     OW24264   6.990   2.689   4.809 -0.0997  0.4858 -0.0682
 7815SOL    HW124265   7.040   2.775   4.808 -0.5351  0.7454  0.1392
 7815SOL    HW224266   6.911   2.695   4.748 -0.5624  0.5003  0.5266
 7816SOL     OW24267   4.394   4.400   6.786 -0.4038 -0.1370 -0.1354
 7816SOL    HW124268   4.341   4.454   6.850 -1.3629 -0.5952 -0.5063
 7816SOL    HW224269   4.414   4.454   6.704 -0.6213 -0.0756 -0.1479
 7817SOL     OW24270   3.748   1.785   6.069  0.0614 -0.2219  0.2999
 7817SOL    HW124271   3.818   1.775   5.998 -1.8151  1.8999 -2.0786
 7817SOL    HW224272   3.683   1.857   6.041 -2.3399 -1.1728  2.9562
 7818SOL     OW24273   0.661   6.406   4.653 -0.1104 -0.4996 -0.1173
 7818SOL    HW124274   0.587   6.375   4.593 -0.4453 -0.7377  0.4159
 7818SOL    HW224275   0.731   6.336   4.658 -1.3305 -1.6918  1.9098
 7819SOL     OW24276   4.407   0.515   4.374  0.3347  0.2438 -0.3362
 7819SOL    HW124277   4.438   0.551   4.286 -0.8532 -1.3487 -1.4453
 7819SOL    HW224278   4.322   0.464   4.361 -0.1422  0.3989  1.8321
 7820SOL     OW24279   1.245   5.833   2.307 -0.2183 -0.3594  0.2891
 7820SOL    HW124280   1.244   5.821   2.406 -0.2600 -1.4853  0.1710
 7820SOL    HW224281   1.166   5.886   2.278  0.3429  0.8937  0.9475
 7821SOL     OW24282   0.650   2.456   2.549 -0.1054  0.3092 -0.1471
 7821SOL    HW124283   0.553   2.438   2.541 -0.6980  2.8594  0.3556
 7821SOL    HW224284   0.680   2.515   2.474  0.5470  1.2813  0.8515
 7822SOL     OW24285   5.640   4.293   5.867  0.2537 -0.7758 -0.0356
 7822SOL    HW124286   5.721   4.235   5.859  0.9646  0.3906 -1.6720
 7822SOL    HW224287   5.571   4.264   5.801  0.8849  0.6195 -1.3682
 7823SOL     OW24288   6.712   6.661   1.133 -0.6070  0.0376 -0.2279
 7823SOL    HW124289   6.691   6.672   1.036  0.3141 -1.6957 -0.6620
 7823SOL    HW224290   6.662   6.583   1.169 -0.1545  0.0477  0.4326
 7824SOL     OW24291   0.978   1.747   4.321 -0.3783  0.6587  0.3081
 7824SOL    HW124292   0.882   1.759   4.294 -0.4916  0.9602  0.8353
 7824SOL    HW224293   0.983   1.725   4.419 -0.2700 -4.3038 -0.5603
 7825SOL     OW24294   5.150   0.078   5.774  0.4822 -0.3502  0.0829
 7825SOL    HW124295   5.122   0.134   5.852  1.1903  0.0965  0.0248
 7825SOL    HW224296   5.246   0.051   5.785  0.7760  0.2300 -0.9243
 7826SOL     OW24297   2.307   2.895   5.909  0.1969 -0.0649 -0.4974
 7826SOL    HW124298   2.332   2.811   5.861 -0.7830  0.4532 -2.0189
 7826SOL    HW224299   2.359   2.972   5.873  0.2641  0.1588  0.0704
 7827SOL     OW24300   6.160   5.413   3.762  0.6966  0.0715 -0.0224
 7827SOL    HW124301   6.172   5.376   3.854 -1.2982  0.8760  0.6242
 7827SOL    HW224302   6.163   5.513   3.765  1.7266  0.0882 -1.0362
 7828SOL     OW24303   2.890   0.865   1.173 -0.4270 -0.2024  0.1424
 7828SOL    HW124304   2.851   0.829   1.088  0.2198  1.3106 -0.8300
 7828SOL    HW224305   2.829   0.935   1.211 -0.9822 -1.2387  1.2634
 7829SOL     OW24306   6.843   1.960   6.868 -0.5459 -0.5388 -0.6653
 7829SOL    HW124307   6.889   2.004   6.945  0.3967 -1.0255 -0.9237
 7829SOL    HW224308   6.824   2.029   6.798 -0.5742 -0.2514 -0.3822
 7830SOL     OW24309   4.496   5.949   6.878  0.0965 -0.3129  0.3021
 7830SOL    HW124310   4.547   6.006   6.942  1.0991 -0.5754 -0.2367
 7830SOL    HW224311   4.399   5.973   6.882  0.2722  0.3128  1.2316
 7831SOL     OW24312   3.827   4.683   0.484  0.2694  0.2507  0.0926
 7831SOL    HW124313   3.732   4.652   0.473  0.2142  0.8629 -1.4880
 7831SOL    HW224314   3.846   4.698   0.581 -1.1060 -0.3174  0.4821
 7832SOL     OW24315   0.582   4.432   4.830 -0.1334 -0.1019  0.3803
 7832SOL    HW124316   0.618   4.496   4.761 -1.7096  0.0360 -0.3757
 7832SOL    HW224317   0.512   4.477   4.884  0.4328 -0.5036  1.4677
 7833SOL     OW24318   1.942   5.987   0.284 -0.1869  0.2647  0.5454
 7833SOL    HW124319   1.930   6.033   0.196  2.2420 -1.1289 -0.6378
 7833SOL    HW224320   1.964   6.054   0.355  0.1762  1.1911 -0.4312
 7834SOL     OW24321   4.036   5.213   4.720  0.8626 -0.0914  0.3213
 7834SOL    HW124322   3.995   5.150   4.787 -1.0118 -1.0865 -1.6301
 7834SOL    HW224323   4.037   5.169   4.630  4.2458  0.8040 -0.2124
 7835SOL     OW24324   1.431   1.134   2.866  0.1101  0.5223  0.3469
 7835SOL    HW124325   1.472   1.222   2.890  1.0900  0.4480 -0.8651
 7835SOL    HW224326   1.420   1.078   2.948  0.5474  1.3438  0.9881
 7836SOL     OW24327   5.676   6.543   3.138 -0.3838  0.4733  0.3949
 7836SOL    HW124328   5.654   6.623   3.082 -1.5979  0.1729  0.4079
 7836SOL    HW224329   5.612   6.537   3.215 -0.8779 -0.9580 -0.0757
 7837SOL     OW24330   5.450   0.849   1.286  0.3578  0.1290  0.3038
 7837SOL    HW124331   5.526   0.896   1.332 -1.8209  2.2084  1.9380
 7837SOL    HW224332   5.418   0.906   1.209  0.1540 -0.5432 -0.1157
 7838SOL     OW24333   3.899   1.141   6.088  0.0374 -0.5345  0.3993
 7838SOL    HW124334   3.976   1.142   6.151 -1.7311  0.7084  2.6797
 7838SOL    HW224335   3.886   1.232   6.049  1.1954 -1.3135 -2.0181
 7839SOL     OW24336   2.721   2.200   5.533 -0.0784  0.6958 -0.0427
 7839SOL    HW124337   2.785   2.173   5.604 -0.3140  0.4652  0.0832
 7839SOL    HW224338   2.760   2.275   5.480 -0.4411  1.7505  1.1398
 7840SOL     OW24339   5.220   6.071   4.514 -0.3375 -0.0797 -0.1015
 7840SOL    HW124340   5.295   6.129   4.545 -0.9466  0.6451  0.0462
 7840SOL    HW224341   5.257   5.991   4.466  0.5641 -0.4419  1.1714
 7841SOL     OW24342   6.119   4.174   6.685 -0.0687 -0.1465  0.5728
 7841SOL    HW124343   6.081   4.264   6.664  1.2822  0.7562  1.8814
 7841SOL    HW224344   6.052   4.122   6.739 -1.3348 -0.4174 -1.1860
 7842SOL     OW24345   6.579   3.674   6.207 -0.2375 -0.5012 -0.1886
 7842SOL    HW124346   6.610   3.765   6.182 -0.2828 -0.2238  0.7168
 7842SOL    HW224347   6.648   3.606   6.182  0.6082 -0.0139  0.7513
 7843SOL     OW24348   6.360   5.905   0.232 -0.2142  0.1994 -0.1101
 7843SOL    HW124349   6.293   5.852   0.284  0.1703  0.8505  1.0772
 7843SOL    HW224350   6.452   5.888   0.268  0.4514 -1.3499 -2.2364
 7844SOL     OW24351   1.212   5.118   4.793  0.1421  0.0123 -0.3319
 7844SOL    HW124352   1.196   5.171   4.709  0.5158 -1.6360 -1.4781
 7844SOL    HW224353   1.283   5.164   4.847  0.9780  0.3150 -1.6316
 7845SOL     OW24354   0.145   5.713   6.439  0.0317  0.1745 -0.0735
 7845SOL    HW124355   0.243   5.718   6.421  0.0151 -0.1017 -0.2677
 7845SOL    HW224356   0.096   5.699   6.352 -0.1962  0.5533 -0.0091
 7846SOL     OW24357   2.219   2.359   5.280  0.0365  0.4401 -0.4166
 7846SOL    HW124358   2.194   2.290   5.348 -2.5648 -1.3238 -2.9175
 7846SOL    HW224359   2.275   2.317   5.209 -0.1017  1.3463 -1.0775
 7847SOL     OW24360   2.255   6.757   4.396 -0.2457 -0.1824 -0.7706
 7847SOL    HW124361   2.324   6.788   4.330 -0.0207 -0.7873 -0.8309
 7847SOL    HW224362   2.238   6.829   4.463 -0.7271  0.5871 -1.6765
 7848SOL     OW24363   1.550   4.043   5.384  0.4246  0.2248 -0.7286
 7848SOL    HW124364   1.531   3.955   5.428  0.5302  0.1060 -0.9158
 7848SOL    HW224365   1.631   4.034   5.325  0.8730  0.6362 -0.1955
 7849SOL     OW24366   0.524   5.857   5.315 -0.4852  0.0442  0.3306
 7849SOL    HW124367   0.591   5.930   5.300 -1.8329  1.6817  1.7917
 7849SOL    HW224368   0.529   5.827   5.410 -1.1692 -0.5151  0.1955
 7850SOL     OW24369   2.003   4.156   0.775  0.2905 -0.5265 -0.0658
 7850SOL    HW124370   2.060   4.162   0.693 -0.6681 -1.7909 -0.8576
 7850SOL    HW224371   2.041   4.086   0.836 -0.5873 -1.6518 -0.7718
 7851SOL     OW24372   2.286   0.937   0.952 -0.1062 -0.3715  0.1545
 7851SOL    HW124373   2.366   0.977   0.907  0.7702 -0.7411  1.3057
 7851SOL    HW224374   2.203   0.977   0.914  0.6600  1.0483 -0.1187
 7852SOL     OW24375   0.264   4.086   6.484  0.1251  0.7453  0.3176
 7852SOL    HW124376   0.168   4.071   6.461  0.7722 -0.6081 -1.7271
 7852SOL    HW224377   0.280   4.059   6.579 -1.1280 -0.8478  0.1218
 7853SOL     OW24378   3.628   1.396   3.283  0.5325 -0.5197  0.0370
 7853SOL    HW124379   3.673   1.315   3.246  0.3293  0.3062 -2.0979
 7853SOL    HW224380   3.659   1.477   3.234 -0.8787  0.4437  0.6845
 7854SOL     OW24381   0.162   3.466   4.030  1.3325  0.1139 -0.6235
 7854SOL    HW124382   0.102   3.531   3.984 -0.8413 -0.9374  0.5079
 7854SOL    HW224383   0.160   3.379   3.982 -1.0656 -1.0400  1.3439
 7855SOL     OW24384   6.559   6.828   6.078  0.3348  0.2433 -0.7903
 7855SOL    HW124385   6.510   6.742   6.078 -0.2579  0.5502  0.6771
 7855SOL    HW224386   6.652   6.813   6.044  0.5255 -1.1437  0.2657
 7856SOL     OW24387   0.943   2.519   1.818 -1.3145 -0.4457 -0.0416
 7856SOL    HW124388   0.933   2.519   1.917 -2.9204 -0.3680 -0.1772
 7856SOL    HW224389   1.023   2.572   1.792 -0.3175 -1.2583  1.2429
 7857SOL     OW24390   1.344   5.903   6.661  0.6813  0.1506  0.3349
 7857SOL    HW124391   1.357   5.971   6.589  0.5200  1.1888  1.2546
 7857SOL    HW224392   1.268   5.843   6.636  0.4869  0.6268 -0.2562
 7858SOL     OW24393   6.873   5.299   5.586  0.6737  0.0078 -0.1590
 7858SOL    HW124394   6.958   5.274   5.540  1.2649  2.6145 -0.6804
 7858SOL    HW224395   6.830   5.375   5.537 -0.3180  0.8047  1.8287
 7859SOL     OW24396   4.196   6.201   6.616 -0.0951 -0.3567  0.3145
 7859SOL    HW124397   4.292   6.220   6.594  0.2633 -0.7012  1.5041
 7859SOL    HW224398   4.164   6.124   6.561  0.7303 -1.1147  0.8672
 7860SOL     OW24399   3.869   1.991   6.258 -0.2755 -0.2722 -0.6340
 7860SOL    HW124400   3.926   2.002   6.340  1.9263 -0.5731 -2.0545
 7860SOL    HW224401   3.850   1.894   6.244  1.3787 -0.4812 -1.7260
 7861SOL     OW24402   5.543   0.631   0.582  0.4619  0.0107  0.2132
 7861SOL    HW124403   5.444   0.627   0.595  0.3868 -0.7619 -0.5151
 7861SOL    HW224404   5.586   0.553   0.628  0.6516 -0.1098 -0.1648
 7862SOL     OW24405   6.725   2.099   4.188  0.5018  0.2809 -0.1018
 7862SOL    HW124406   6.671   2.128   4.110  0.4641  0.8536  0.1341
 7862SOL    HW224407   6.696   2.148   4.270 -0.5775 -1.4813  0.6301
 7863SOL     OW24408   1.139   4.953   0.793 -0.5122 -0.0848  0.0079
 7863SOL    HW124409   1.178   4.878   0.845 -0.2661  0.5573  0.7680
 7863SOL    HW224410   1.199   5.033   0.799 -0.6738  0.1298 -0.9355
 7864SOL     OW24411   2.096   6.351   6.737 -0.1496 -0.2193  0.0557
 7864SOL    HW124412   2.025   6.354   6.808  0.5875 -0.2773  0.8219
 7864SOL    HW224413   2.093   6.435   6.684 -3.1004 -1.6160 -2.3165
 7865SOL     OW24414   0.911   4.018   1.187 -0.0795 -0.0984 -0.6136
 7865SOL    HW124415   0.838   3.977   1.134 -0.0547  1.1113 -1.6198
 7865SOL    HW224416   0.988   3.954   1.193 -0.7483 -0.9097 -0.5531
 7866SOL     OW24417   1.842   5.947   2.939 -0.0348 -0.2804  0.3127
 7866SOL    HW124418   1.750   5.928   2.974 -0.5339 -0.3072 -0.9510
 7866SOL    HW224419   1.898   5.864   2.947 -0.8780 -1.0362 -1.1224
 7867SOL     OW24420   4.382   3.772   0.091  0.5966 -0.8080  0.0303
 7867SOL    HW124421   4.428   3.738   0.009 -1.1469 -1.4137 -0.7568
 7867SOL    HW224422   4.449   3.796   0.160  2.1761  0.3955 -1.8154
 7868SOL     OW24423   1.998   3.253   5.211 -1.0246 -0.3890  0.2956
 7868SOL    HW124424   2.045   3.227   5.296 -0.1907 -2.1904 -0.6764
 7868SOL    HW224425   2.034   3.341   5.179 -0.0086 -0.5868  0.8291
 7869SOL     OW24426   2.814   4.937   2.967  0.3776 -0.1732  0.4383
 7869SOL    HW124427   2.869   4.854   2.957 -0.3200 -0.6150  0.1213
 7869SOL    HW224428   2.870   5.017   2.947  0.6202 -0.6819 -1.0342
 7870SOL     OW24429   1.049   6.978   6.124  0.1218 -0.2570 -0.4011
 7870SOL    HW124430   0.980   7.035   6.078  1.8864  0.0178 -2.8728
 7870SOL    HW224431   1.022   6.882   6.116 -1.2809 -0.0257  0.9971
 7871SOL     OW24432   5.938   0.170   6.887 -0.2683 -0.1957  0.0516
 7871SOL    HW124433   5.881   0.252   6.888 -0.3485 -0.2204 -0.7606
 7871SOL    HW224434   5.963   0.146   6.980 -1.3761 -0.0395  0.4209
 7872SOL     OW24435   1.524   5.970   0.401  0.1792 -0.0769 -0.1986
 7872SOL    HW124436   1.585   6.011   0.469  0.2352 -1.3650  0.5523
 7872SOL    HW224437   1.440   6.025   0.395 -0.8118 -1.0755  2.5989
 7873SOL     OW24438   4.393   5.640   3.632  0.4801 -0.0430 -0.2795
 7873SOL    HW124439   4.444   5.701   3.692  0.4147 -1.4319  1.2808
 7873SOL    HW224440   4.420   5.545   3.650 -4.8394 -1.3770  3.2636
 7874SOL     OW24441   5.526   3.789   0.596  0.8842  0.2235 -0.6256
 7874SOL    HW124442   5.626   3.793   0.602  0.8343  3.3517 -0.1750
 7874SOL    HW224443   5.486   3.794   0.688  0.2773 -1.3632 -0.7691
 7875SOL     OW24444   0.458   2.537   2.318  0.3948  0.0518  0.4167
 7875SOL    HW124445   0.546   2.512   2.277 -0.1968 -1.0565 -0.2333
 7875SOL    HW224446   0.437   2.474   2.392  0.2849  0.5061  0.7753
 7876SOL     OW24447   0.948   5.189   6.451 -0.0939 -0.4090  0.2380
 7876SOL    HW124448   0.984   5.134   6.526  2.8260  0.4344 -0.4384
 7876SOL    HW224449   0.945   5.285   6.479  1.4217 -0.0316 -0.8214
 7877SOL     OW24450   2.411   2.692   3.261  0.2629 -0.4730 -0.6345
 7877SOL    HW124451   2.508   2.715   3.257  0.2826 -0.5314 -0.5553
 7877SOL    HW224452   2.377   2.675   3.168  0.4498 -0.9431 -0.6230
 7878SOL     OW24453   1.213   4.765   2.970 -0.1123 -0.2403 -0.4401
 7878SOL    HW124454   1.196   4.860   2.999 -0.6040 -0.8245  1.3064
 7878SOL    HW224455   1.135   4.708   2.996  1.4811 -1.6895  1.4182
 7879SOL     OW24456   6.148   3.806   6.389  0.0617  0.0164 -0.2335
 7879SOL    HW124457   6.152   3.805   6.488  2.3535 -0.1740 -0.2647
 7879SOL    HW224458   6.225   3.858   6.352 -0.2884 -0.5800 -1.9181
 7880SOL     OW24459   1.864   1.658   5.827  0.7940  0.6724  0.2837
 7880SOL    HW124460   1.789   1.627   5.767  0.5730 -1.0297  1.3642
 7880SOL    HW224461   1.947   1.607   5.806  1.3516  1.6558 -0.0347
 7881SOL     OW24462   2.946   6.434   0.708 -0.6158  0.4117  0.2602
 7881SOL    HW124463   2.953   6.356   0.769  0.9114  0.8103  0.6225
 7881SOL    HW224464   2.945   6.518   0.762  0.3268  0.7513 -0.2331
 7882SOL     OW24465   3.538   1.484   3.814 -0.3098  0.3799  0.3165
 7882SOL    HW124466   3.473   1.417   3.849  0.6344 -1.0255 -0.4924
 7882SOL    HW224467   3.624   1.476   3.864  0.3338 -0.1443 -0.8377
 7883SOL     OW24468   4.974   0.243   3.777  0.5313 -0.6387 -0.1909
 7883SOL    HW124469   4.935   0.191   3.701 -0.4835  1.0894 -0.9148
 7883SOL    HW224470   4.902   0.298   3.820  1.0177 -1.7048  2.2126
 7884SOL     OW24471   4.533   3.860   4.740 -0.3440 -0.5846  0.3960
 7884SOL    HW124472   4.607   3.818   4.792 -0.5046 -0.0508  1.0773
 7884SOL    HW224473   4.464   3.791   4.718  0.7690 -1.2859 -1.0333
 7885SOL     OW24474   3.474   3.276   1.294  0.5790  0.2724 -0.0717
 7885SOL    HW124475   3.555   3.310   1.342  0.6165  0.4929 -0.2912
 7885SOL    HW224476   3.466   3.177   1.308 -0.4212  0.5677  1.9374
 7886SOL     OW24477   6.278   4.657   2.415 -0.3098 -0.1231  0.2108
 7886SOL    HW124478   6.233   4.746   2.426  0.4525  0.4929 -1.3455
 7886SOL    HW224479   6.338   4.660   2.335  0.5421 -1.7247  0.7557
 7887SOL     OW24480   1.934   4.557   0.384  0.1813 -0.0785 -0.1658
 7887SOL    HW124481   2.015   4.500   0.374  1.5781  1.8088 -0.1920
 7887SOL    HW224482   1.887   4.564   0.295 -0.1397 -1.3412 -0.1052
 7888SOL     OW24483   3.373   2.460   6.152  0.2199 -0.2946  0.0180
 7888SOL    HW124484   3.307   2.526   6.115 -0.8266 -0.5037  1.4339
 7888SOL    HW224485   3.464   2.479   6.115 -0.2664  1.2592 -0.4481
 7889SOL     OW24486   0.925   4.062   4.214  0.3126  0.1056  0.2345
 7889SOL    HW124487   0.929   3.964   4.231 -0.0028  0.2838  1.4453
 7889SOL    HW224488   1.000   4.108   4.261  0.0959  0.5165  0.1897
 7890SOL     OW24489   4.945   2.273   0.299 -0.1958  0.1246  0.1003
 7890SOL    HW124490   4.895   2.347   0.344 -0.5306 -0.3090  0.4395
 7890SOL    HW224491   5.001   2.225   0.366 -0.1801 -0.0974 -0.0704
 7891SOL     OW24492   4.813   3.082   0.958 -0.3405  0.6566 -0.0782
 7891SOL    HW124493   4.720   3.071   0.992 -0.9001  0.6554 -1.5558
 7891SOL    HW224494   4.838   3.002   0.903 -0.1387  1.4576 -1.1799
 7892SOL     OW24495   3.736   3.418   6.720  0.2462  0.1845  0.1197
 7892SOL    HW124496   3.833   3.438   6.725  0.2659 -0.1514  1.8044
 7892SOL    HW224497   3.686   3.500   6.692  1.1089 -0.0097 -2.0960
 7893SOL     OW24498   1.975   4.173   2.814 -0.1718  0.6042 -0.0821
 7893SOL    HW124499   1.991   4.233   2.891 -0.8397 -0.9058  1.2889
 7893SOL    HW224500   2.019   4.084   2.831 -2.4934 -0.6343 -0.2084
 7894SOL     OW24501   6.803   2.656   1.335  0.5555  0.0410 -0.2879
 7894SOL    HW124502   6.894   2.652   1.295  0.8013 -0.1043  0.2687
 7894SOL    HW224503   6.799   2.731   1.401 -0.0471  0.7068 -1.0653
 7895SOL     OW24504   3.415   2.506   2.007  0.8341  0.1393  0.6753
 7895SOL    HW124505   3.421   2.412   1.974 -1.7313  0.1095  0.1193
 7895SOL    HW224506   3.338   2.552   1.964  0.9611  1.9697  2.2715
 7896SOL     OW24507   5.186   2.008   0.938 -0.4584  0.4816  0.3291
 7896SOL    HW124508   5.234   1.928   0.903 -1.0164 -0.7336  2.2029
 7896SOL    HW224509   5.250   2.085   0.945  0.3642 -0.1191 -0.4090
 7897SOL     OW24510   5.078   6.161   0.736 -0.1289  0.1241  0.0783
 7897SOL    HW124511   5.077   6.107   0.820 -2.7151  2.0592  1.4271
 7897SOL    HW224512   5.008   6.126   0.673  0.3725 -0.0362 -0.3938
 7898SOL     OW24513   2.771   4.559   1.111  0.2965  0.1078 -0.7310
 7898SOL    HW124514   2.762   4.481   1.173 -1.6678  0.1534 -0.8936
 7898SOL    HW224515   2.709   4.548   1.034  2.1305  0.4389 -2.3348
 7899SOL     OW24516   6.757   5.702   0.735  0.3852  0.1085  0.0910
 7899SOL    HW124517   6.797   5.666   0.651 -0.6558  0.2561 -0.4793
 7899SOL    HW224518   6.814   5.675   0.813  0.9881 -0.6142 -0.5790
 7900SOL     OW24519   2.318   6.968   4.774  0.2544 -0.1349 -0.6486
 7900SOL    HW124520   2.296   7.057   4.814 -1.6175 -0.5441 -0.7459
 7900SOL    HW224521   2.354   6.907   4.845 -2.7668 -0.7219  0.5411
 7901SOL     OW24522   5.928   1.797   7.004  0.4125  0.2151 -0.0184
 7901SOL    HW124523   5.904   1.763   7.094  1.6412  1.5209  0.8295
 7901SOL    HW224524   5.934   1.721   6.939  0.0653 -0.8048  1.1188
 7902SOL     OW24525   1.305   3.618   0.082 -0.0278  0.4870 -0.1165
 7902SOL    HW124526   1.274   3.613  -0.013  0.1977 -2.3507 -0.1431
 7902SOL    HW224527   1.383   3.557   0.094 -0.0362  0.8029  1.8810
 7903SOL     OW24528   5.882   6.064   6.481  0.3369  0.1123 -0.5455
 7903SOL    HW124529   5.805   6.119   6.513  0.9085  1.4419 -1.3972
 7903SOL    HW224530   5.963   6.086   6.535  0.1642 -1.2514  0.3170
 7904SOL     OW24531   3.317   2.947   4.438 -0.2887 -0.3837  0.0358
 7904SOL    HW124532   3.314   2.926   4.536  0.9430 -0.9742 -0.0388
 7904SOL    HW224533   3.410   2.937   4.404 -0.4156  1.2355 -0.8999
 7905SOL     OW24534   5.448   4.553   6.005  0.3262  0.4670  0.3339
 7905SOL    HW124535   5.502   4.586   5.928  1.4335  0.8920  1.2640
 7905SOL    HW224536   5.395   4.472   5.976  0.1954  1.0094 -1.0315
 7906SOL     OW24537   0.108   5.318   6.068  0.3834  0.2631 -0.1505
 7906SOL    HW124538   0.162   5.389   6.114  1.7708 -0.8169 -0.0570
 7906SOL    HW224539   0.070   5.355   5.983 -1.0372  1.8712  1.1109
 7907SOL     OW24540   6.383   5.850   3.977  0.1037  0.2964 -0.2510
 7907SOL    HW124541   6.354   5.809   3.891 -1.6958  1.4004 -0.2300
 7907SOL    HW224542   6.388   5.949   3.968 -2.1576  0.6645  1.3660
 7908SOL     OW24543   1.746   4.784   1.606  0.2464 -0.0110  0.3487
 7908SOL    HW124544   1.744   4.834   1.693 -1.7731 -1.1309  1.0339
 7908SOL    HW224545   1.798   4.699   1.617  0.3852  0.0737  0.3371
 7909SOL     OW24546   4.629   0.249   1.418 -0.0138  0.1195  0.2386
 7909SOL    HW124547   4.677   0.175   1.371  0.4282 -0.3358  1.3754
 7909SOL    HW224548   4.685   0.332   1.414 -0.1053  0.1598 -0.2748
 7910SOL     OW24549   5.105   1.902   4.183  0.0428 -0.4040  0.1030
 7910SOL    HW124550   5.061   1.857   4.105 -0.2247  2.1715 -1.3623
 7910SOL    HW224551   5.050   1.980   4.212  2.2657  1.3182 -0.0571
 7911SOL     OW24552   2.562   2.450   0.548  0.4684 -0.1820 -0.0852
 7911SOL    HW124553   2.624   2.393   0.496 -1.7666 -0.9487 -2.1163
 7911SOL    HW224554   2.522   2.398   0.623  2.4248  0.4241  1.4648
 7912SOL     OW24555   4.061   3.166   2.522  0.7085  0.1257 -0.1926
 7912SOL    HW124556   4.142   3.137   2.471 -0.5496 -1.3084 -1.4902
 7912SOL    HW224557   4.006   3.086   2.545 -1.3011  1.1685 -1.0653
 7913SOL     OW24558   2.861   1.204   2.116  0.5410 -0.5641 -0.0173
 7913SOL    HW124559   2.875   1.301   2.092  4.4786 -0.9946 -0.0960
 7913SOL    HW224560   2.874   1.148   2.034 -2.7190 -1.2225 -0.1957
 7914SOL     OW24561   1.308   6.845   2.709  0.1704 -0.1830 -0.5546
 7914SOL    HW124562   1.403   6.853   2.677 -0.3340  2.3106 -1.6349
 7914SOL    HW224563   1.303   6.776   2.780  2.6259 -1.0408 -1.1225
 7915SOL     OW24564   2.705   4.654   6.832  0.1794 -0.2121  0.0988
 7915SOL    HW124565   2.793   4.682   6.793 -0.4639  1.6202 -0.1405
 7915SOL    HW224566   2.721   4.601   6.915  1.5088  1.0718  0.7003
 7916SOL     OW24567   1.603   2.463   0.041  0.5014 -0.9853 -0.0233
 7916SOL    HW124568   1.670   2.483  -0.031 -0.9877  1.4175 -0.8571
 7916SOL    HW224569   1.535   2.399   0.007  0.3128 -0.5540 -0.4469
 7917SOL     OW24570   1.305   6.107   2.619 -0.3315 -0.1558  0.2019
 7917SOL    HW124571   1.212   6.075   2.605 -0.2374 -1.4521  2.1797
 7917SOL    HW224572   1.307   6.207   2.610 -2.2706  0.0824  1.5594
 7918SOL     OW24573   1.199   5.682   5.694  0.4512  0.1972 -0.7351
 7918SOL    HW124574   1.246   5.769   5.679  1.3895 -0.5061 -2.1908
 7918SOL    HW224575   1.252   5.608   5.652 -0.9712 -0.9111 -0.6723
 7919SOL     OW24576   3.819   5.883   2.215 -0.0495 -0.1776 -0.7741
 7919SOL    HW124577   3.832   5.852   2.309 -2.0213 -0.3288 -0.5092
 7919SOL    HW224578   3.878   5.831   2.154  2.0203  0.6044  0.4440
 7920SOL     OW24579   6.485   5.288   5.408  0.0130 -0.8618  0.2250
 7920SOL    HW124580   6.402   5.247   5.369 -0.3691  1.3226 -1.4143
 7920SOL    HW224581   6.565   5.255   5.358 -0.1899 -0.4784 -0.3638
 7921SOL     OW24582   6.738   0.817   5.813 -0.0822 -0.1460 -0.0764
 7921SOL    HW124583   6.746   0.871   5.729  0.9974 -1.4023 -0.8194
 7921SOL    HW224584   6.770   0.724   5.795  1.7141 -0.0153  2.1374
 7922SOL     OW24585   2.756   4.770   1.861  0.3718  0.2458 -0.4637
 7922SOL    HW124586   2.699   4.852   1.854  1.7314  1.2944  0.2466
 7922SOL    HW224587   2.705   4.697   1.908 -0.9758  0.5474 -1.4008
 7923SOL     OW24588   3.731   3.238   5.251 -0.0420 -0.3600 -0.2515
 7923SOL    HW124589   3.802   3.233   5.180  0.6648  0.7511  0.3449
 7923SOL    HW224590   3.774   3.226   5.341 -0.0666  3.0730  0.3628
 7924SOL     OW24591   6.877   2.808   3.586 -0.4239  0.2457 -0.2317
 7924SOL    HW124592   6.864   2.903   3.557  0.2842  0.3423 -0.2514
 7924SOL    HW224593   6.866   2.747   3.508 -2.6224  0.1438  0.0985
 7925SOL     OW24594   1.630   1.716   2.190  0.9586 -0.5116  0.1974
 7925SOL    HW124595   1.554   1.722   2.126  0.7706  3.1000  0.5508
 7925SOL    HW224596   1.701   1.657   2.153 -0.7356 -1.5440 -1.5437
 7926SOL     OW24597   2.453   4.261   5.991  0.7547 -0.2874  0.0294
 7926SOL    HW124598   2.532   4.204   5.967  0.3537 -0.6464 -0.4403
 7926SOL    HW224599   2.376   4.240   5.931 -0.0846 -0.7673  1.2227
 7927SOL     OW24600   2.544   3.602   5.488 -0.3689 -0.0288  0.0056
 7927SOL    HW124601   2.575   3.664   5.416 -1.2370  0.4137 -0.0117
 7927SOL    HW224602   2.463   3.553   5.457 -1.8276  1.4483  1.2509
 7928SOL     OW24603   6.201   2.073   6.495  0.2485  0.8009 -0.8856
 7928SOL    HW124604   6.221   1.999   6.559 -1.9761  0.2730 -0.7329
 7928SOL    HW224605   6.158   2.036   6.413  0.4212  1.7920 -1.4412
 7929SOL     OW24606   1.999   2.337   0.513 -0.0600  0.4389 -0.2660
 7929SOL    HW124607   2.067   2.399   0.552  0.8778 -0.9644  0.4123
 7929SOL    HW224608   1.910   2.355   0.555  0.5289  0.2793  1.0914
 7930SOL     OW24609   6.630   6.763   3.926  0.3386  0.0232  0.7173
 7930SOL    HW124610   6.695   6.838   3.931  0.5501 -0.1378  0.3552
 7930SOL    HW224611   6.672   6.680   3.962 -0.0531  0.1838  1.5707
 7931SOL     OW24612   4.268   3.935   2.297  0.3937  0.3390  0.3819
 7931SOL    HW124613   4.313   3.846   2.293 -1.2038 -0.4996 -0.5046
 7931SOL    HW224614   4.290   3.987   2.215 -0.6525 -0.3388 -0.3775
 7932SOL     OW24615   3.603   0.877   0.089  0.4065  0.5551 -0.1220
 7932SOL    HW124616   3.610   0.804   0.021  1.0810  1.0378 -0.5831
 7932SOL    HW224617   3.614   0.966   0.043  2.7150  0.8454  0.8547
 7933SOL     OW24618   0.676   3.113   5.103 -0.2937 -0.7246 -0.2748
 7933SOL    HW124619   0.639   3.023   5.081 -1.6512 -0.0717 -0.7577
 7933SOL    HW224620   0.602   3.172   5.138  0.6594  0.0683  0.4627
 7934SOL     OW24621   2.820   3.770   4.090 -0.2295 -0.7301 -0.4315
 7934SOL    HW124622   2.720   3.768   4.090 -0.3817  1.5270  1.5445
 7934SOL    HW224623   2.855   3.745   4.181  0.6844  2.5430  0.2495
 7935SOL     OW24624   4.870   4.703   3.633  0.6073  0.4617  0.0553
 7935SOL    HW124625   4.915   4.793   3.639  1.0292  0.2395  0.2988
 7935SOL    HW224626   4.917   4.638   3.693 -0.6763  0.4697  1.1160
 7936SOL     OW24627   6.844   1.736   1.899 -0.3741 -0.4349 -0.1532
 7936SOL    HW124628   6.826   1.741   1.997 -0.5464  0.8097 -0.2292
 7936SOL    HW224629   6.933   1.694   1.883 -0.2702 -0.4860  0.5433
 7937SOL     OW24630   1.948   2.712   4.511 -0.1213 -0.1224 -0.1103
 7937SOL    HW124631   1.991   2.773   4.578 -1.1370  1.7156 -1.0473
 7937SOL    HW224632   1.890   2.766   4.450 -0.5719 -1.9818 -1.4007
 7938SOL     OW24633   6.008   4.715   5.754 -0.6040  0.0673 -0.1549
 7938SOL    HW124634   5.956   4.734   5.837  0.5539 -0.1502  0.6478
 7938SOL    HW224635   5.954   4.659   5.692 -0.9412 -1.0471  1.1075
 7939SOL     OW24636   1.703   5.082   5.487 -0.2902  0.1326  0.0582
 7939SOL    HW124637   1.689   5.129   5.400  1.6973  0.9972  0.1569
 7939SOL    HW224638   1.709   5.150   5.561  0.0048 -0.4545  0.5945
 7940SOL     OW24639   4.265   6.282   1.581  0.4424 -0.5533 -0.2505
 7940SOL    HW124640   4.255   6.355   1.648  0.1281  0.7662 -1.6680
 7940SOL    HW224641   4.324   6.313   1.506  2.6996 -2.7866  0.4592
 7941SOL     OW24642   0.743   0.135   1.035  0.4773 -0.5502  0.5238
 7941SOL    HW124643   0.832   0.138   1.080  0.8618  0.9912 -0.2365
 7941SOL    HW224644   0.754   0.107   0.940 -0.0506 -1.7112  0.7886
 7942SOL     OW24645   5.568   5.841   6.828 -0.0957  0.4867  0.6048
 7942SOL    HW124646   5.624   5.798   6.899 -0.7913 -0.3361  0.6845
 7942SOL    HW224647   5.569   5.940   6.841  1.1033  0.4664  0.7612
 7943SOL     OW24648   4.010   3.003   2.879  0.1105 -0.1940  0.2019
 7943SOL    HW124649   4.055   2.976   2.965  3.3920 -0.6051 -1.4746
 7943SOL    HW224650   4.027   3.099   2.861  0.9076 -0.4985 -0.7526
 7944SOL     OW24651   4.119   0.808   1.599  0.0259 -0.0761  0.6796
 7944SOL    HW124652   4.116   0.865   1.681  0.5300  1.9174 -0.6370
 7944SOL    HW224653   4.184   0.733   1.613  2.5117  2.0449  1.0136
 7945SOL     OW24654   5.731   4.201   3.811 -0.1865 -0.1294  0.2911
 7945SOL    HW124655   5.660   4.271   3.808  1.3006  1.5396  1.2029
 7945SOL    HW224656   5.754   4.173   3.718 -0.3533  1.1507 -0.1621
 7946SOL     OW24657   4.089   5.443   3.506  0.0211 -0.2054 -0.4963
 7946SOL    HW124658   4.088   5.514   3.576  1.1504 -1.1672  0.5255
 7946SOL    HW224659   4.014   5.460   3.442 -0.4059  1.2788  0.3276
 7947SOL     OW24660   5.580   3.918   5.848  0.0539  0.7936  0.4526
 7947SOL    HW124661   5.660   3.939   5.904  0.6314  2.2954 -0.8928
 7947SOL    HW224662   5.531   3.840   5.889  1.6166  0.4826  1.8407
 7948SOL     OW24663   1.617   5.068   0.265 -0.5406  0.4097 -0.5450
 7948SOL    HW124664   1.551   5.037   0.334  0.1485 -0.8783 -0.4084
 7948SOL    HW224665   1.602   5.017   0.180  0.1960  0.1582 -0.5377
 7949SOL     OW24666   4.786   3.293   5.087  0.4732  0.4299 -0.3685
 7949SOL    HW124667   4.865   3.232   5.083  1.2797  1.4471 -0.6215
 7949SOL    HW224668   4.702   3.239   5.099  1.2272 -0.6501  0.2687
 7950SOL     OW24669   1.326   6.692   1.750  0.0676  0.0511  0.2848
 7950SOL    HW124670   1.306   6.605   1.705  1.2128  0.6780 -1.5422
 7950SOL    HW224671   1.246   6.720   1.804 -0.9885 -1.2424 -0.5397
 7951SOL     OW24672   4.129   4.049   6.180 -0.1721 -0.3572 -0.4874
 7951SOL    HW124673   4.062   4.123   6.173 -0.9136 -0.8911  0.7334
 7951SOL    HW224674   4.221   4.086   6.165 -0.6622  0.5149 -1.4454
 7952SOL     OW24675   6.864   3.254   5.343  0.1866 -0.0036 -0.1223
 7952SOL    HW124676   6.809   3.172   5.355  0.4503 -0.6248 -2.5898
 7952SOL    HW224677   6.876   3.272   5.245  5.3016 -0.5337  0.1777
 7953SOL     OW24678   0.365   4.975   3.420 -0.2947  0.0395 -0.3075
 7953SOL    HW124679   0.438   5.027   3.377 -0.5806  1.9568  1.3983
 7953SOL    HW224680   0.400   4.931   3.503 -1.1027  1.3753  0.7946
 7954SOL     OW24681   4.801   4.899   4.183  0.3555 -0.1603 -0.0270
 7954SOL    HW124682   4.871   4.910   4.253 -0.6306  1.2719  0.7841
 7954SOL    HW224683   4.788   4.985   4.134 -1.3363 -0.1862  0.3282
 7955SOL     OW24684   1.788   6.129   4.139 -0.1853  0.0567 -0.0800
 7955SOL    HW124685   1.780   6.148   4.236  0.3553 -1.7416  0.3655
 7955SOL    HW224686   1.772   6.212   4.086 -1.5666  0.8269  1.4914
 7956SOL     OW24687   0.295   5.515   3.455 -0.1984  0.2701 -0.1504
 7956SOL    HW124688   0.199   5.504   3.480  0.2688 -2.5989  0.6780
 7956SOL    HW224689   0.352   5.466   3.521  1.7481  0.7587 -1.4230
 7957SOL     OW24690   4.509   2.130   0.088  0.0312  0.1897  0.3171
 7957SOL    HW124691   4.507   2.228   0.071  2.7512  0.2493 -0.1122
 7957SOL    HW224692   4.564   2.111   0.170 -0.3556 -0.9659  0.3212
 7958SOL     OW24693   0.927   1.027   6.329  0.0099  0.5007 -0.0140
 7958SOL    HW124694   0.954   1.104   6.270 -0.8040  0.4738 -0.4362
 7958SOL    HW224695   0.980   1.030   6.413  2.7709 -0.6920 -1.5658
 7959SOL     OW24696   5.040   6.335   6.636  0.6879 -0.1593 -0.0827
 7959SOL    HW124697   4.994   6.250   6.610  0.1687  0.0398  0.1615
 7959SOL    HW224698   5.053   6.336   6.735  0.3706  0.1981 -0.0415
 7960SOL     OW24699   0.308   1.702   4.731  0.2994  0.2448 -0.0556
 7960SOL    HW124700   0.232   1.637   4.740  0.6018 -0.1661 -0.4006
 7960SOL    HW224701   0.272   1.792   4.705  0.0522 -0.3987 -2.1096
 7961SOL     OW24702   3.851   0.386   0.549 -0.1825  0.0659 -0.0817
 7961SOL    HW124703   3.806   0.338   0.625  0.0762  0.5371  0.3787
 7961SOL    HW224704   3.860   0.323   0.472 -1.4821 -0.0929 -0.1339
 7962SOL     OW24705   3.248   6.480   1.169  0.2828 -0.7926 -0.1609
 7962SOL    HW124706   3.331   6.481   1.113  0.5703 -3.1253  0.1294
 7962SOL    HW224707   3.197   6.395   1.152 -2.2465  0.6728 -0.5524
 7963SOL     OW24708   6.107   3.082   3.788  0.6306  0.5354 -0.0324
 7963SOL    HW124709   6.063   3.147   3.850  1.0466  0.7672  0.0273
 7963SOL    HW224710   6.067   3.089   3.697 -2.0984 -1.8653  0.8320
 7964SOL     OW24711   3.757   0.932   1.522 -0.0186  0.5164  0.1425
 7964SOL    HW124712   3.707   0.848   1.542  1.0980 -0.0844  0.5130
 7964SOL    HW224713   3.838   0.937   1.581  0.0463  1.7457 -0.0331
 7965SOL     OW24714   5.424   1.309   3.950  0.7043  0.1140 -0.2762
 7965SOL    HW124715   5.464   1.372   4.017 -2.3902  1.9864  0.0193
 7965SOL    HW224716   5.375   1.236   3.998  0.2162  0.2771 -0.5186
 7966SOL     OW24717   4.344   1.378   6.759 -0.1015  0.2916  0.0654
 7966SOL    HW124718   4.288   1.363   6.678 -0.2480  1.6638 -0.1230
 7966SOL    HW224719   4.383   1.471   6.755  0.5052  0.1036  1.1958
 7967SOL     OW24720   1.395   4.263   3.787 -0.1770  0.4869 -0.0961
 7967SOL    HW124721   1.384   4.267   3.886  0.9982  0.4890  0.0479
 7967SOL    HW224722   1.306   4.266   3.743 -0.9536 -2.4917  1.0394
 7968SOL     OW24723   4.894   2.265   5.016  0.2834 -0.3069  0.1287
 7968SOL    HW124724   4.829   2.326   4.970  0.8247  0.3668  0.2474
 7968SOL    HW224725   4.981   2.312   5.028  0.8777 -1.2865 -0.2385
 7969SOL     OW24726   1.008   0.097   2.336  0.4626  0.1904 -0.8518
 7969SOL    HW124727   1.053   0.118   2.249 -0.1176  2.5370 -0.6468
 7969SOL    HW224728   1.076   0.094   2.409  0.7968 -0.6116 -1.1780
 7970SOL     OW24729   3.599   0.267   6.352 -0.1352  0.0489 -0.0964
 7970SOL    HW124730   3.609   0.359   6.314 -3.2045  1.1094  1.3140
 7970SOL    HW224731   3.533   0.216   6.297 -0.1767 -0.4640  0.4149
 7971SOL     OW24732   1.465   4.140   4.401  0.2343  0.1556  0.2919
 7971SOL    HW124733   1.551   4.165   4.355  0.9747 -0.5695  1.2469
 7971SOL    HW224734   1.405   4.095   4.335  0.4033  1.0414 -0.4999
 7972SOL     OW24735   2.393   1.130   4.380  0.0620 -0.0884  0.2657
 7972SOL    HW124736   2.301   1.166   4.394 -0.2560 -0.4480 -0.8169
 7972SOL    HW224737   2.390   1.031   4.371  0.5785 -0.1253  0.4421
 7973SOL     OW24738   1.632   4.949   1.395 -0.5366  0.4530 -0.4009
 7973SOL    HW124739   1.688   5.031   1.399 -0.3339  0.2998 -0.0663
 7973SOL    HW224740   1.653   4.890   1.473 -0.5913  0.0264 -0.7027
 7974SOL     OW24741   5.397   6.715   5.128 -0.0409 -0.1673  0.1691
 7974SOL    HW124742   5.380   6.617   5.140 -0.3683 -0.2251 -0.6568
 7974SOL    HW224743   5.496   6.732   5.128  0.0458 -0.6222 -0.5830
 7975SOL     OW24744   0.912   4.743   0.297 -0.2615  0.5591 -0.1497
 7975SOL    HW124745   0.911   4.716   0.393  0.2585 -0.4478 -0.4098
 7975SOL    HW224746   0.970   4.679   0.245 -1.6117  0.2521 -1.3615
 7976SOL     OW24747   1.503   2.954   4.562 -0.2984 -0.5895 -0.2565
 7976SOL    HW124748   1.517   2.855   4.566  1.4339 -0.3349  1.6259
 7976SOL    HW224749   1.577   2.996   4.510  0.1294 -0.1487  0.6659
 7977SOL     OW24750   2.452   0.625   0.427  0.3786 -0.3533  0.2260
 7977SOL    HW124751   2.385   0.680   0.476 -0.3299  0.7899 -1.8584
 7977SOL    HW224752   2.482   0.549   0.484 -2.6829 -0.9277  1.2498
 7978SOL     OW24753   1.285   3.547   2.846  0.3710  0.7804  0.0990
 7978SOL    HW124754   1.324   3.461   2.878  1.0113  1.0518  0.0589
 7978SOL    HW224755   1.226   3.529   2.767  0.4890  0.3755  0.1000
 7979SOL     OW24756   2.340   1.356   3.212  0.7269  0.2707 -0.6017
 7979SOL    HW124757   2.241   1.366   3.209  0.4910 -1.7935 -1.3764
 7979SOL    HW224758   2.383   1.429   3.160 -0.5475 -0.3561 -2.6271
 7980SOL     OW24759   6.589   2.028   3.767 -0.4264  0.0052  0.1069
 7980SOL    HW124760   6.606   2.097   3.838 -0.4055 -1.4668  1.6114
 7980SOL    HW224761   6.634   1.943   3.793 -0.1379 -0.4873 -1.8914
 7981SOL     OW24762   3.660   0.270   2.144 -0.0343 -0.5144 -0.7062
 7981SOL    HW124763   3.734   0.318   2.098  0.5963 -0.2545  0.5221
 7981SOL    HW224764   3.665   0.172   2.125  0.3379 -0.4325 -1.0312
 7982SOL     OW24765   4.715   2.444   0.393  0.4704 -0.1553  0.2294
 7982SOL    HW124766   4.638   2.507   0.386  0.0927 -0.6653 -0.2955
 7982SOL    HW224767   4.743   2.435   0.489  0.3265  0.5662  0.3398
 7983SOL     OW24768   2.595   0.433   2.041 -0.1652 -0.6794 -0.2019
 7983SOL    HW124769   2.555   0.524   2.033 -2.0549 -1.5168 -0.5631
 7983SOL    HW224770   2.641   0.409   1.955 -2.1096 -1.1808 -1.1294
 7984SOL     OW24771   6.775   2.636   2.863  0.1294 -0.8977 -0.0723
 7984SOL    HW124772   6.822   2.677   2.785 -0.9737 -0.1875 -0.3851
 7984SOL    HW224773   6.815   2.670   2.948 -0.0279 -0.0706 -0.3314
 7985SOL     OW24774   0.396   2.587   3.699 -0.4328  0.0056  0.4118
 7985SOL    HW124775   0.432   2.605   3.790  1.3399  0.0838 -0.2581
 7985SOL    HW224776   0.411   2.667   3.641 -1.0747 -0.2202 -0.0814
 7986SOL     OW24777   1.814   1.071   4.638  0.5654 -0.1721 -0.0612
 7986SOL    HW124778   1.821   0.988   4.583 -1.5036 -0.1858 -0.3762
 7986SOL    HW224779   1.824   1.048   4.734  1.1278 -0.6082 -0.2185
 7987SOL     OW24780   5.968   3.588   5.451 -0.5492  0.3926 -0.1838
 7987SOL    HW124781   6.049   3.611   5.504 -0.9318 -1.4006  1.2747
 7987SOL    HW224782   5.983   3.502   5.403 -1.0499  0.8558 -1.2236
 7988SOL     OW24783   1.975   0.033   2.831 -0.7926 -0.0006  0.0719
 7988SOL    HW124784   1.993   0.094   2.909  1.7359 -1.3847  0.6531
 7988SOL    HW224785   2.028   0.064   2.752 -1.8719  0.2765 -0.5708
 7989SOL     OW24786   2.779   6.584   1.388  0.4890 -0.0896  0.1359
 7989SOL    HW124787   2.809   6.613   1.297  2.0126  0.7283  0.8605
 7989SOL    HW224788   2.831   6.502   1.415  1.4453  0.7936  1.0309
 7990SOL     OW24789   4.257   3.166   2.991 -0.0765 -0.2857 -0.2396
 7990SOL    HW124790   4.351   3.187   2.966  0.5518 -1.6685  0.8066
 7990SOL    HW224791   4.241   3.067   2.980 -0.8452 -0.3634  1.2794
 7991SOL     OW24792   6.251   6.956   1.814  0.5019  0.0663  0.2746
 7991SOL    HW124793   6.181   6.909   1.868  1.0302 -1.9711 -0.6852
 7991SOL    HW224794   6.283   7.037   1.863 -1.8215  0.4974  1.1513
 7992SOL     OW24795   2.067   2.805   1.637  0.0025  0.6192  0.0271
 7992SOL    HW124796   2.025   2.892   1.612  0.2955  1.3370  1.8284
 7992SOL    HW224797   2.164   2.807   1.616 -0.1831  0.2655 -0.9589
 7993SOL     OW24798   1.058   6.434   0.481 -0.0884 -0.9449  0.0474
 7993SOL    HW124799   1.130   6.442   0.551 -1.6604  1.3822  1.5481
 7993SOL    HW224800   1.098   6.399   0.397  2.8663  0.3748  0.7595
 7994SOL     OW24801   4.798   4.625   4.060  0.0199 -0.4828  0.7477
 7994SOL    HW124802   4.708   4.589   4.083 -0.6897  0.4453 -0.3962
 7994SOL    HW224803   4.805   4.720   4.092 -0.6635  0.5330 -1.8495
 7995SOL     OW24804   1.410   0.894   0.539  0.3063 -0.0298  0.5368
 7995SOL    HW124805   1.474   0.905   0.615  0.1341 -2.2919  1.0899
 7995SOL    HW224806   1.328   0.846   0.572  0.0369 -0.6396 -0.9731
 7996SOL     OW24807   3.892   0.382   2.724 -0.1701 -0.1139 -0.0164
 7996SOL    HW124808   3.957   0.361   2.650  0.1574 -1.2984  0.5701
 7996SOL    HW224809   3.925   0.462   2.774 -0.2239  0.5083 -0.9360
 7997SOL     OW24810   5.732   6.326   0.131  0.4051  0.4309  0.1188
 7997SOL    HW124811   5.651   6.361   0.178  0.3790  0.6293 -0.0650
 7997SOL    HW224812   5.763   6.394   0.063  1.2362  0.7500  0.7972
 7998SOL     OW24813   0.572   4.039   5.577  0.1421 -0.0058 -0.5169
 7998SOL    HW124814   0.665   4.044   5.542  0.1285  0.4369 -0.5026
 7998SOL    HW224815   0.510   4.083   5.512  0.0019  0.0573 -0.3421
 7999SOL     OW24816   2.787   1.845   0.756  0.1634  0.5514 -0.2252
 7999SOL    HW124817   2.753   1.756   0.726 -0.2241 -0.2269  2.3113
 7999SOL    HW224818   2.876   1.864   0.713  0.2113 -1.0189 -0.8488
 8000SOL     OW24819   1.360   2.013   3.493 -0.1398  0.3984  0.2554
 8000SOL    HW124820   1.328   1.954   3.568  1.6238 -0.1440  0.6434
 8000SOL    HW224821   1.436   1.967   3.446 -0.3186  1.3503 -0.9938
 8001SOL     OW24822   5.135   5.002   4.646  0.0293  1.1116 -0.1130
 8001SOL    HW124823   5.234   4.988   4.646  0.1581  1.6787 -1.8946
 8001SOL    HW224824   5.114   5.090   4.604 -1.2685  0.4898 -0.8484
 8002SOL     OW24825   5.426   4.382   4.325  0.3426  0.2657  0.2525
 8002SOL    HW124826   5.517   4.349   4.300  0.5541  0.4714  0.7306
 8002SOL    HW224827   5.435   4.461   4.385 -0.1137 -1.0114  2.0848
 8003SOL     OW24828   2.488   5.923   5.440  0.0993  0.0102 -0.2400
 8003SOL    HW124829   2.474   5.946   5.537 -0.8618  0.0076 -0.3737
 8003SOL    HW224830   2.400   5.920   5.393  0.6163  0.6351 -1.2643
 8004SOL     OW24831   4.061   1.132   2.783 -0.7009 -0.6432  0.6219
 8004SOL    HW124832   4.022   1.142   2.691 -1.7390 -0.5267  1.0592
 8004SOL    HW224833   4.066   1.223   2.826 -1.5412 -0.8609  1.1976
 8005SOL     OW24834   3.372   1.812   1.957  0.4302 -0.5123  0.2366
 8005SOL    HW124835   3.353   1.840   1.862  0.9720 -0.5585  0.1105
 8005SOL    HW224836   3.373   1.894   2.015  1.5991 -0.2944 -0.0610
 8006SOL     OW24837   3.755   4.291   1.216  0.4246  0.0624  0.0613
 8006SOL    HW124838   3.789   4.283   1.309 -1.2159 -1.0584  0.6181
 8006SOL    HW224839   3.696   4.372   1.209  0.1324 -0.1318  0.1744
 8007SOL     OW24840   1.157   5.861   1.988  0.1678 -0.0591 -0.1571
 8007SOL    HW124841   1.117   5.770   1.976  0.3761 -0.0961 -0.6194
 8007SOL    HW224842   1.085   5.928   2.008  0.0655 -0.4086  0.7040
 8008SOL     OW24843   4.926   4.460   4.399  0.1753 -0.0018 -0.4187
 8008SOL    HW124844   4.890   4.541   4.445  1.1383  0.6512 -0.7810
 8008SOL    HW224845   5.020   4.478   4.369 -0.0621 -0.7995 -1.6874
 8009SOL     OW24846   0.258   3.962   4.503  0.4761  0.0660  0.2135
 8009SOL    HW124847   0.185   3.968   4.434  1.6395 -0.3203 -1.1030
 8009SOL    HW224848   0.221   3.987   4.592 -1.1099  0.5098 -0.5207
 8010SOL     OW24849   1.139   0.992   0.386  0.4214  0.4564  0.2440
 8010SOL    HW124850   1.230   0.989   0.427  0.1928  2.2706  0.9965
 8010SOL    HW224851   1.106   1.087   0.384 -0.4334  0.1933 -2.3395
 8011SOL     OW24852   6.950   3.322   6.220 -0.4985  0.3041 -0.7022
 8011SOL    HW124853   6.935   3.229   6.252 -0.4037 -0.5740 -3.0360
 8011SOL    HW224854   7.040   3.354   6.251  0.8876 -1.6401 -2.4516
 8012SOL     OW24855   0.090   0.728   5.308  0.1870 -0.4366 -0.0654
 8012SOL    HW124856   0.092   0.633   5.277  1.7604 -0.4379 -0.0661
 8012SOL    HW224857   0.153   0.782   5.252 -0.9491  0.6873 -0.2890
 8013SOL     OW24858   2.877   3.426   3.705  0.4243  0.6510  0.4758
 8013SOL    HW124859   2.803   3.360   3.717 -0.2406  0.7835 -2.2647
 8013SOL    HW224860   2.961   3.389   3.744 -0.2882 -1.1283  0.4150
 8014SOL     OW24861   4.708   0.660   4.940 -0.1898 -0.1274  0.0545
 8014SOL    HW124862   4.777   0.729   4.963 -0.3705  0.0877 -0.0394
 8014SOL    HW224863   4.629   0.705   4.900  0.4411 -0.5747 -1.7428
 8015SOL     OW24864   0.194   1.971   6.918  0.1587  0.4919  0.3121
 8015SOL    HW124865   0.176   2.001   7.012 -2.7400  1.3923 -0.4196
 8015SOL    HW224866   0.222   2.050   6.863 -1.0092  0.5940 -0.1722
 8016SOL     OW24867   1.676   4.674   4.075 -0.1515  0.2334 -0.2985
 8016SOL    HW124868   1.608   4.604   4.094 -0.6384  0.5379 -0.8883
 8016SOL    HW224869   1.642   4.736   4.005  0.4124  0.8608 -0.0361
 8017SOL     OW24870   0.523   6.204   6.046 -0.1883  0.1180  0.1601
 8017SOL    HW124871   0.584   6.240   6.117  1.1199  0.3228 -1.0333
 8017SOL    HW224872   0.485   6.279   5.993  0.5493 -0.1255 -0.7279
 8018SOL     OW24873   1.466   3.496   1.458  0.1373  0.1994  0.2637
 8018SOL    HW124874   1.553   3.546   1.449  0.6683 -0.8736 -0.6890
 8018SOL    HW224875   1.484   3.398   1.459 -0.8655 -0.0267  2.4070
 8019SOL     OW24876   0.672   4.577   3.790  0.5571  0.2710 -0.9897
 8019SOL    HW124877   0.715   4.667   3.797  1.9193 -0.3570 -1.0263
 8019SOL    HW224878   0.578   4.582   3.823 -0.0555  2.1521 -2.7956
 8020SOL     OW24879   5.659   2.932   0.895  0.1198 -0.2124  0.6680
 8020SOL    HW124880   5.621   3.012   0.847  0.6078 -0.6960 -0.5702
 8020SOL    HW224881   5.757   2.926   0.876  0.2025 -0.7464  1.2644
 8021SOL     OW24882   3.309   5.378   5.999  0.3814 -0.2709 -0.6809
 8021SOL    HW124883   3.292   5.475   6.019  0.9693 -0.2985  0.0650
 8021SOL    HW224884   3.408   5.363   5.993  0.3049 -0.8775 -0.5009
 8022SOL     OW24885   4.058   0.774   4.610  0.2987 -0.2402  0.3774
 8022SOL    HW124886   4.054   0.674   4.609  0.1903 -0.3718  3.7693
 8022SOL    HW224887   4.063   0.806   4.705 -3.0084  3.0700 -0.3269
 8023SOL     OW24888   5.536   4.678   2.327  0.0700 -0.4320 -0.0443
 8023SOL    HW124889   5.528   4.579   2.315  0.2744 -0.2825 -1.7054
 8023SOL    HW224890   5.576   4.718   2.245  1.1653  0.9035  1.1097
 8024SOL     OW24891   6.935   4.009   2.652 -0.3054 -0.0405  0.0826
 8024SOL    HW124892   6.964   3.972   2.740  0.9296 -0.7287 -0.5724
 8024SOL    HW224893   6.867   3.948   2.610  0.1857 -0.4835 -0.0748
 8025SOL     OW24894   3.092   6.792   3.089 -0.1765 -0.1284 -0.3012
 8025SOL    HW124895   3.143   6.862   3.139 -0.5527  0.0111 -0.1118
 8025SOL    HW224896   2.998   6.822   3.074 -0.2166 -0.3993 -0.6215
 8026SOL     OW24897   5.465   4.058   5.485  0.2763  0.5624  0.5874
 8026SOL    HW124898   5.469   3.961   5.463 -0.9133  0.5843  0.2372
 8026SOL    HW224899   5.550   4.102   5.455 -0.6440  0.3225 -2.7034
 8027SOL     OW24900   5.171   5.040   2.962 -0.1814 -0.0469 -0.0162
 8027SOL    HW124901   5.131   5.046   2.870  1.5504  0.2100 -0.7825
 8027SOL    HW224902   5.114   4.982   3.019 -1.6748  0.3490 -1.0375
 8028SOL     OW24903   1.567   5.238   2.426 -0.5337 -0.1342 -0.0351
 8028SOL    HW124904   1.606   5.146   2.430  1.6849  0.5730 -2.2573
 8028SOL    HW224905   1.484   5.236   2.369 -0.1752 -0.6778 -0.5520
 8029SOL     OW24906   4.075   2.040   6.432  0.1181 -0.3492 -0.1489
 8029SOL    HW124907   4.086   1.987   6.517  0.5483  1.3210  0.8813
 8029SOL    HW224908   4.155   2.025   6.374 -0.0715 -1.3309 -0.1688
 8030SOL     OW24909   6.023   0.482   5.345 -0.4428  0.4589 -0.1247
 8030SOL    HW124910   6.056   0.404   5.398  1.1626  0.2968 -1.2407
 8030SOL    HW224911   6.017   0.457   5.248 -2.2306  1.0552 -0.2072
 8031SOL     OW24912   2.780   3.016   0.600  0.0317 -0.6493  0.1786
 8031SOL    HW124913   2.695   2.964   0.602 -1.0897  1.1583  1.5011
 8031SOL    HW224914   2.820   3.016   0.692  0.0804  0.7137  0.1587
 8032SOL     OW24915   6.236   4.008   2.939 -1.0855 -0.1201  0.1204
 8032SOL    HW124916   6.266   4.091   2.985  0.2340  0.2161 -1.2447
 8032SOL    HW224917   6.308   3.977   2.877 -1.1888 -2.7481  1.1502
 8033SOL     OW24918   6.288   6.441   0.511 -0.0333 -0.3970 -0.0407
 8033SOL    HW124919   6.277   6.344   0.490  0.6540 -0.6278  0.5958
 8033SOL    HW224920   6.209   6.492   0.478  0.0989 -1.0037 -1.3802
 8034SOL     OW24921   2.979   3.033   3.603 -0.0262 -0.0305 -0.0625
 8034SOL    HW124922   2.921   3.046   3.522 -0.7177 -1.3807  0.1903
 8034SOL    HW224923   2.930   2.979   3.671  0.7889  0.5387  1.0048
 8035SOL     OW24924   5.217   4.694   3.627 -0.0034 -0.0550 -0.6942
 8035SOL    HW124925   5.242   4.764   3.693  1.5416 -1.3969  0.2191
 8035SOL    HW224926   5.297   4.671   3.570 -0.3277 -1.3854 -0.6515
 8036SOL     OW24927   4.037   1.476   3.986 -0.8924  0.1451 -0.5637
 8036SOL    HW124928   4.003   1.390   4.022 -3.4023  1.1455 -0.3713
 8036SOL    HW224929   4.119   1.458   3.930  0.5754 -1.9156  2.0455
 8037SOL     OW24930   4.536   2.288   4.866  0.2253  0.5871  0.4734
 8037SOL    HW124931   4.522   2.278   4.964  0.5552 -0.6342  0.4163
 8037SOL    HW224932   4.502   2.207   4.819 -0.5667  1.4552 -0.4985
 8038SOL     OW24933   0.101   3.965   5.439 -0.1403  0.1581 -0.0444
 8038SOL    HW124934   0.183   3.929   5.395 -0.1669  1.6779 -1.4518
 8038SOL    HW224935   0.127   4.020   5.518  0.0113 -1.3006  0.9609
 8039SOL     OW24936   1.312   3.289   6.306 -0.2208  0.2479  1.1517
 8039SOL    HW124937   1.275   3.349   6.235  1.4868  0.8282  0.6780
 8039SOL    HW224938   1.347   3.344   6.382 -0.0893 -0.2426  1.4551
 8040SOL     OW24939   5.201   1.256   5.102 -0.5166 -0.5774  0.1599
 8040SOL    HW124940   5.230   1.278   5.009 -2.5941 -0.7776 -0.5996
 8040SOL    HW224941   5.265   1.192   5.144  0.1893 -0.8638 -1.3141
 8041SOL     OW24942   4.504   2.675   2.774  0.3402  0.1911  0.0130
 8041SOL    HW124943   4.594   2.682   2.733 -0.5174 -0.5858 -2.1588
 8041SOL    HW224944   4.501   2.727   2.859  2.4491  1.2087 -0.4903
 8042SOL     OW24945   0.575   6.664   4.532  0.9072 -0.1547 -0.1621
 8042SOL    HW124946   0.588   6.757   4.568  0.6718 -0.5284  0.9282
 8042SOL    HW224947   0.624   6.599   4.589  0.6848 -0.7550 -0.6458
 8043SOL     OW24948   6.595   4.012   1.770 -0.1370  0.2321 -0.5516
 8043SOL    HW124949   6.673   4.074   1.780  0.1960 -0.2640 -0.0471
 8043SOL    HW224950   6.510   4.064   1.786 -0.0380  1.1325 -2.6850
 8044SOL     OW24951   6.209   3.121   2.760  0.0422  0.0183  0.0442
 8044SOL    HW124952   6.182   3.108   2.855  0.8819 -1.0933  0.1452
 8044SOL    HW224953   6.134   3.093   2.700  0.4688 -1.9209  0.3434
 8045SOL     OW24954   2.683   5.155   6.214 -0.1236 -0.0371 -0.5504
 8045SOL    HW124955   2.723   5.153   6.305  1.7581  0.5674 -1.3381
 8045SOL    HW224956   2.665   5.250   6.188 -0.3710 -0.1869 -0.9375
 8046SOL     OW24957   2.233   6.650   6.024  1.0016 -1.0432  0.5014
 8046SOL    HW124958   2.165   6.685   5.960  0.2651  0.9983  2.2541
 8046SOL    HW224959   2.236   6.550   6.019 -0.5783 -1.0548 -1.1308
 8047SOL     OW24960   0.885   0.210   1.422 -0.1220 -0.0887 -0.0961
 8047SOL    HW124961   0.850   0.260   1.343 -1.2342 -1.4901 -0.5399
 8047SOL    HW224962   0.836   0.241   1.504 -0.8897 -0.5080 -0.3835
 8048SOL     OW24963   3.772   0.928   5.564 -0.1830  0.1490 -0.0709
 8048SOL    HW124964   3.772   0.946   5.663  2.4060  2.5360 -0.3882
 8048SOL    HW224965   3.678   0.919   5.532 -1.1407  0.7929  2.3564
 8049SOL     OW24966   1.623   4.967   2.448  0.5743 -0.3061 -0.0082
 8049SOL    HW124967   1.692   4.926   2.507  0.6199 -0.5862 -0.2484
 8049SOL    HW224968   1.579   4.895   2.394 -0.3450 -0.2107  0.5915
 8050SOL     OW24969   2.781   2.926   3.395 -0.0443 -0.1903  0.1161
 8050SOL    HW124970   2.777   2.826   3.398 -0.3641 -0.1938 -0.2811
 8050SOL    HW224971   2.688   2.963   3.388  0.0526  0.1470  0.4971
 8051SOL     OW24972   2.176   0.797   4.147 -0.5203 -0.1367 -0.0749
 8051SOL    HW124973   2.079   0.807   4.169 -0.4266  0.1026  0.2600
 8051SOL    HW224974   2.230   0.839   4.220 -0.0760 -2.7668  1.2407
 8052SOL     OW24975   0.389   6.642   2.894  0.4103 -0.9453  0.6592
 8052SOL    HW124976   0.314   6.668   2.955  1.6767 -0.2070  1.9593
 8052SOL    HW224977   0.476   6.669   2.935  1.4401 -2.2544 -0.5708
 8053SOL     OW24978   1.804   3.638   5.519 -0.2700  0.2477  0.0625
 8053SOL    HW124979   1.815   3.574   5.443 -0.6486 -0.0400  0.2447
 8053SOL    HW224980   1.860   3.607   5.597  1.8146  1.6971 -0.7907
 8054SOL     OW24981   1.085   5.688   0.099 -0.6037  0.2123  0.0763
 8054SOL    HW124982   1.168   5.689   0.155 -0.9187  0.8494  0.5520
 8054SOL    HW224983   1.057   5.782   0.078 -1.1396  0.0074 -0.1766
 8055SOL     OW24984   5.344   2.585   4.671  0.2214  0.3076 -0.2148
 8055SOL    HW124985   5.393   2.507   4.631 -0.4998 -1.2716  1.8618
 8055SOL    HW224986   5.410   2.648   4.712  0.6977 -0.7727  0.7679
 8056SOL     OW24987   4.515   2.493   5.973  0.0521  0.1442 -0.7239
 8056SOL    HW124988   4.539   2.439   6.054 -0.0209  1.5831  0.3030
 8056SOL    HW224989   4.598   2.512   5.920  0.5711  1.5208  0.5241
 8057SOL     OW24990   1.709   6.686   7.002 -0.0214 -0.4525 -0.1460
 8057SOL    HW124991   1.774   6.697   6.928  0.7213 -0.0059  0.5622
 8057SOL    HW224992   1.624   6.734   6.980 -0.8383 -2.5194 -1.8767
 8058SOL     OW24993   6.159   2.719   5.886  0.4460 -0.0591 -0.2970
 8058SOL    HW124994   6.165   2.776   5.968 -1.4808  0.8023 -0.6877
 8058SOL    HW224995   6.237   2.657   5.882  1.3221  0.8690  1.4312
 8059SOL     OW24996   3.964   3.869   0.652  1.3148  0.5125  0.1609
 8059SOL    HW124997   3.891   3.881   0.585  0.6473 -1.6682  0.4157
 8059SOL    HW224998   3.930   3.814   0.729  3.2750 -0.8488  0.1352
 8060SOL     OW24999   6.473   5.483   4.199 -1.0172 -0.1680  0.7482
 8060SOL    HW125000   6.480   5.565   4.255  0.9327 -0.1958  0.5913
 8060SOL    HW225001   6.461   5.403   4.259  0.7101 -0.1632  1.1937
 8061SOL     OW25002   0.882   4.155   5.888 -0.3097 -0.1990  0.5523
 8061SOL    HW125003   0.935   4.084   5.935  0.1369 -0.5447 -0.4468
 8061SOL    HW225004   0.944   4.224   5.852 -0.7784  1.1175  2.1266
 8062SOL     OW25005   2.128   0.122   1.220 -0.0211 -0.2611 -0.2051
 8062SOL    HW125006   2.072   0.121   1.303 -0.6548  1.0145 -0.5940
 8062SOL    HW225007   2.126   0.214   1.180 -0.5631 -1.0929 -2.1955
 8063SOL     OW25008   6.111   3.298   2.289  0.2288  0.0392  0.3810
 8063SOL    HW125009   6.056   3.378   2.316  0.8247  0.4491  0.4089
 8063SOL    HW225010   6.183   3.283   2.358  0.9939  0.3448 -0.3249
 8064SOL     OW25011   2.766   0.091   5.897  0.1395  0.8010 -0.3250
 8064SOL    HW125012   2.771   0.007   5.951  0.5307  1.4150  0.6157
 8064SOL    HW225013   2.846   0.097   5.837 -0.3530  0.0632 -1.1005
 8065SOL     OW25014   6.944   2.048   3.639  0.0554  0.5144 -0.4616
 8065SOL    HW125015   6.977   2.012   3.726 -0.7197  0.8891 -0.0037
 8065SOL    HW225016   6.876   1.986   3.601 -0.0067  0.6243 -0.5315
 8066SOL     OW25017   6.094   2.850   0.537  0.2079 -0.2735  0.2915
 8066SOL    HW125018   6.084   2.856   0.438 -1.1122  0.8768  0.4595
 8066SOL    HW225019   6.172   2.792   0.559 -0.3786 -1.8097 -1.3921
 8067SOL     OW25020   0.286   0.940   5.238  0.1789 -0.3913 -0.2208
 8067SOL    HW125021   0.262   1.014   5.175  0.9998  0.2866  0.2468
 8067SOL    HW225022   0.234   0.949   5.323  0.1270 -0.4769 -0.2428
 8068SOL     OW25023   0.127   5.772   0.874 -0.4457  0.0294 -0.2534
 8068SOL    HW125024   0.179   5.822   0.943  0.8775 -2.7696  0.9124
 8068SOL    HW225025   0.059   5.714   0.920 -1.4638  0.1901 -1.5015
 8069SOL     OW25026   4.435   3.587   4.557 -0.1741  0.1830 -0.0989
 8069SOL    HW125027   4.387   3.667   4.522 -0.8311 -0.0266  0.2921
 8069SOL    HW225028   4.519   3.573   4.505  0.1074  1.2990  0.0313
 8070SOL     OW25029   2.427   6.146   0.195  0.1017 -0.5369 -0.4800
 8070SOL    HW125030   2.498   6.218   0.191 -1.6334  1.2369 -1.0977
 8070SOL    HW225031   2.380   6.142   0.107 -0.5524 -1.6998 -0.0852
 8071SOL     OW25032   6.252   1.355   2.105  0.3486  0.1966  0.2837
 8071SOL    HW125033   6.247   1.368   2.006  0.2580 -0.2777  0.2255
 8071SOL    HW225034   6.325   1.413   2.142  0.1032  0.6950  0.0011
 8072SOL     OW25035   6.277   1.209   0.539  0.3095 -0.9876 -0.5370
 8072SOL    HW125036   6.241   1.253   0.457  2.1690  0.6952 -0.5202
 8072SOL    HW225037   6.202   1.190   0.602 -1.1091 -1.9975 -2.4285
 8073SOL     OW25038   2.072   2.684   2.727  0.1961  0.3125  0.3436
 8073SOL    HW125039   2.138   2.722   2.793  1.6734 -0.2223 -0.7615
 8073SOL    HW225040   2.120   2.661   2.642 -1.4485 -0.1007 -0.5090
 8074SOL     OW25041   4.812   3.366   6.138  0.5360  0.7867  0.3168
 8074SOL    HW125042   4.725   3.363   6.089  0.5422 -0.6751  0.3703
 8074SOL    HW225043   4.810   3.440   6.205 -1.0219  0.1943  0.9666
 8075SOL     OW25044   6.084   0.767   0.582 -0.0595  0.3426  0.6691
 8075SOL    HW125045   6.051   0.699   0.516  0.5148 -0.4557  1.1689
 8075SOL    HW225046   6.176   0.741   0.613  0.1687  1.3566  0.8829
 8076SOL     OW25047   0.638   1.897   4.605  0.4683  0.3921  0.4963
 8076SOL    HW125048   0.601   1.805   4.589  1.3672 -0.2919  2.0470
 8076SOL    HW225049   0.565   1.964   4.599 -0.6453 -0.6870  1.5214
 8077SOL     OW25050   2.961   6.725   1.847  0.0413  0.7728  0.1230
 8077SOL    HW125051   2.906   6.739   1.765 -0.5457  1.1961  0.5797
 8077SOL    HW225052   2.902   6.727   1.928  0.4989 -0.3470  0.5199
 8078SOL     OW25053   1.560   5.624   0.040 -0.2636  0.1949 -0.1157
 8078SOL    HW125054   1.528   5.702  -0.015 -0.2141  0.4129  0.1921
 8078SOL    HW225055   1.658   5.612   0.026  0.2337  1.7220  1.7252
 8079SOL     OW25056   6.477   5.452   0.208  0.0694 -0.0615 -0.5993
 8079SOL    HW125057   6.518   5.529   0.160  0.2845 -0.7189 -1.4878
 8079SOL    HW225058   6.383   5.439   0.176 -0.1513  0.1635 -0.0555
 8080SOL     OW25059   5.268   3.077   5.457  0.0237 -0.3126 -0.3498
 8080SOL    HW125060   5.340   3.103   5.393  1.1152 -0.6943  0.6795
 8080SOL    HW225061   5.184   3.126   5.434  1.7403  3.6882  1.0128
 8081SOL     OW25062   4.440   0.776   1.044 -0.3916  0.1107  0.5871
 8081SOL    HW125063   4.487   0.832   0.976 -0.0818 -0.1420  0.5887
 8081SOL    HW225064   4.341   0.790   1.036 -0.3108  0.7964  0.7172
 8082SOL     OW25065   1.833   0.273   5.777 -0.0981 -0.3970 -0.0729
 8082SOL    HW125066   1.780   0.329   5.713  1.0191  0.5680 -0.1585
 8082SOL    HW225067   1.859   0.328   5.856  1.2687 -0.7095 -0.2976
 8083SOL     OW25068   6.545   5.587   6.367  0.1835 -0.4324  0.4081
 8083SOL    HW125069   6.500   5.670   6.332 -0.0133 -0.5752  0.3200
 8083SOL    HW225070   6.604   5.549   6.295 -0.5867 -0.9977  0.0673
 8084SOL     OW25071   1.072   2.356   6.327  0.7440  0.1016  0.0541
 8084SOL    HW125072   0.985   2.404   6.335 -0.1438 -1.3999 -0.2078
 8084SOL    HW225073   1.131   2.382   6.403 -0.7799 -0.5397  1.5076
 8085SOL     OW25074   1.125   1.977   4.568  0.1193  0.0052  0.5845
 8085SOL    HW125075   1.042   1.936   4.606 -0.9164  0.1598 -1.4246
 8085SOL    HW225076   1.189   1.904   4.543 -0.8460 -0.3258 -1.0169
 8086SOL     OW25077   5.478   1.148   3.546  0.1727 -0.3056 -0.2059
 8086SOL    HW125078   5.463   1.232   3.599  0.3025 -0.4933  0.1429
 8086SOL    HW225079   5.451   1.163   3.451  1.3629  0.5306 -0.4527
 8087SOL     OW25080   5.750   5.715   5.979 -0.5446 -0.4309  0.3161
 8087SOL    HW125081   5.680   5.673   5.921 -0.3768 -0.6375  0.2634
 8087SOL    HW225082   5.837   5.719   5.929 -0.3259 -0.8686  0.6471
 8088SOL     OW25083   4.642   1.557   6.343 -0.4548  0.2131 -0.4800
 8088SOL    HW125084   4.688   1.510   6.418  0.7109 -0.6020 -1.6703
 8088SOL    HW225085   4.708   1.612   6.292 -1.3558  1.2584 -0.5528
 8089SOL     OW25086   3.583   4.542   1.094  0.2917 -0.1685 -0.5167
 8089SOL    HW125087   3.665   4.598   1.089 -0.8152  1.7602  1.0448
 8089SOL    HW225088   3.526   4.558   1.013  1.1335 -1.0345 -1.2996
 8090SOL     OW25089   4.438   6.768   3.757  0.1859 -0.0192  0.0259
 8090SOL    HW125090   4.522   6.751   3.809 -0.2657 -0.2991  0.6749
 8090SOL    HW225091   4.368   6.805   3.819  0.2070  1.3523 -0.7465
 8091SOL     OW25092   6.980   3.837   0.169 -0.3953  0.0385  0.3239
 8091SOL    HW125093   7.046   3.766   0.194 -1.1586 -1.0155 -0.5884
 8091SOL    HW225094   6.999   3.868   0.075 -0.6910  0.3173  0.3548
 8092SOL     OW25095   1.706   5.978   2.557  0.0700 -0.3648 -0.1179
 8092SOL    HW125096   1.701   6.024   2.469 -2.4239 -0.7763 -0.2496
 8092SOL    HW225097   1.802   5.963   2.581  0.8200  0.1892 -2.5025
 8093SOL     OW25098   4.990   1.310   4.317 -0.4487 -0.5462  0.2093
 8093SOL    HW125099   4.935   1.298   4.400 -0.5449 -2.0093 -0.0434
 8093SOL    HW225100   4.988   1.406   4.289 -3.2085 -0.6168 -0.0271
 8094SOL     OW25101   0.990   4.301   3.922  0.5797  0.1612 -0.3040
 8094SOL    HW125102   0.894   4.273   3.928  0.8858 -1.2160 -1.2637
 8094SOL    HW225103   1.045   4.244   3.983  0.5730  2.3573  1.9043
 8095SOL     OW25104   1.384   5.121   5.568 -0.3147 -0.8941 -0.2282
 8095SOL    HW125105   1.357   5.164   5.482  0.4524  1.0249  0.4284
 8095SOL    HW225106   1.335   5.034   5.578 -1.0445 -0.7781 -2.1844
 8096SOL     OW25107   0.010   2.026   2.173 -0.3548  0.0235 -0.6451
 8096SOL    HW125108   0.065   2.038   2.255  0.2889  2.7349 -1.3832
 8096SOL    HW225109   0.057   1.966   2.109 -0.6770 -1.7854  0.7418
 8097SOL     OW25110   2.370   1.138   5.646  0.4231 -0.0110  0.3414
 8097SOL    HW125111   2.444   1.076   5.671  0.4321  0.3719  1.3506
 8097SOL    HW225112   2.302   1.139   5.719 -0.3939 -0.0749 -0.4088
 8098SOL     OW25113   1.504   0.293   6.872 -0.4566 -0.6237  0.6971
 8098SOL    HW125114   1.521   0.232   6.795 -1.3911 -1.4605  1.1401
 8098SOL    HW225115   1.534   0.250   6.957 -0.1688 -0.0327  0.9033
 8099SOL     OW25116   0.475   3.828   3.567  0.4497  0.5083 -0.0071
 8099SOL    HW125117   0.468   3.902   3.500 -4.0813 -0.2311 -0.6574
 8099SOL    HW225118   0.414   3.846   3.643  2.1638 -0.8045  1.7835
 8100SOL     OW25119   1.243   4.033   5.198 -0.1951 -0.2834  0.9464
 8100SOL    HW125120   1.238   3.984   5.112 -0.8641  1.4278 -0.0412
 8100SOL    HW225121   1.339   4.045   5.224  0.0559  0.0576 -0.0994
 8101SOL     OW25122   3.087   1.468   2.239  0.3333 -1.2292  0.3046
 8101SOL    HW125123   3.150   1.545   2.226 -0.4165 -0.8098 -0.9498
 8101SOL    HW225124   3.008   1.478   2.178 -0.4355 -2.2989  1.0857
 8102SOL     OW25125   6.683   2.932   3.250 -0.2992 -0.5849 -0.2143
 8102SOL    HW125126   6.656   2.972   3.163  2.6566 -0.4959 -1.1984
 8102SOL    HW225127   6.773   2.890   3.241 -0.3191 -1.4601  2.5649
 8103SOL     OW25128   2.150   0.260   1.917 -0.2699 -0.1385 -0.3241
 8103SOL    HW125129   2.130   0.167   1.949 -0.6436  0.4208  1.1949
 8103SOL    HW225130   2.244   0.283   1.940 -0.7684  0.5458  1.2203
 8104SOL     OW25131   5.863   6.841   4.725  0.0519 -0.2695  0.0216
 8104SOL    HW125132   5.861   6.746   4.758  2.5142 -0.3212  0.1902
 8104SOL    HW225133   5.918   6.846   4.642  0.4833  1.0889  0.3572
 8105SOL     OW25134   2.312   4.185   2.241 -0.2337  0.0515  0.3084
 8105SOL    HW125135   2.264   4.261   2.198 -0.3319  0.1043  0.5042
 8105SOL    HW225136   2.254   4.145   2.312  0.3376  0.6796  1.1570
 8106SOL     OW25137   3.902   5.659   6.559  0.0973  0.2025 -0.4711
 8106SOL    HW125138   3.938   5.687   6.470 -0.0836  1.1188 -0.2634
 8106SOL    HW225139   3.875   5.740   6.611  2.2962 -0.1454  1.3164
 8107SOL     OW25140   4.426   4.638   0.443  0.3035  0.0994  0.3842
 8107SOL    HW125141   4.375   4.552   0.434  0.6997 -0.2475  1.4023
 8107SOL    HW225142   4.369   4.707   0.486  0.3709 -0.0080  0.6502
 8108SOL     OW25143   6.247   1.112   2.541  0.1268 -0.2040 -0.2152
 8108SOL    HW125144   6.220   1.052   2.466 -1.3122  2.1014 -1.6379
 8108SOL    HW225145   6.327   1.165   2.515  2.2735 -2.3286  1.5580
 8109SOL     OW25146   1.291   0.911   2.427 -0.2133  0.1970 -0.2305
 8109SOL    HW125147   1.383   0.919   2.388 -0.3335  0.4194 -0.4863
 8109SOL    HW225148   1.286   0.965   2.511  0.6053 -1.8055  1.1657
 8110SOL     OW25149   5.923   5.394   0.259  0.0979 -0.6942 -0.4773
 8110SOL    HW125150   6.019   5.419   0.250  0.9265 -3.0768  0.7713
 8110SOL    HW225151   5.890   5.419   0.350 -0.8107  1.0147 -1.2349
 8111SOL     OW25152   4.608   6.960   2.178  0.3583  0.5297  0.0704
 8111SOL    HW125153   4.511   6.967   2.199  0.4136 -2.3610  1.8190
 8111SOL    HW225154   4.620   6.917   2.089  0.0147  0.7051 -0.0621
 8112SOL     OW25155   3.091   6.135   3.894  0.3271 -0.1878  0.2856
 8112SOL    HW125156   3.134   6.223   3.911  1.8104 -0.8481  0.1472
 8112SOL    HW225157   3.065   6.094   3.982  2.7659 -1.0654  0.7136
 8113SOL     OW25158   0.592   4.197   4.923 -0.8781  0.3575 -0.6610
 8113SOL    HW125159   0.594   4.295   4.902  0.2786  1.0838  2.3780
 8113SOL    HW225160   0.673   4.172   4.976 -2.7522 -1.4930  1.5665
 8114SOL     OW25161   4.895   1.079   2.684  0.3163 -0.2933 -0.1082
 8114SOL    HW125162   4.913   0.986   2.717  1.8864  0.6312  1.8470
 8114SOL    HW225163   4.821   1.076   2.617 -0.8155 -2.7351  1.1033
 8115SOL     OW25164   3.547   1.964   6.004  0.2495  0.3706 -0.2508
 8115SOL    HW125165   3.557   1.900   5.927 -1.1114  0.1741 -0.3020
 8115SOL    HW225166   3.471   1.934   6.062  1.0247  0.7153  0.9962
 8116SOL     OW25167   3.526   6.701   5.188 -0.0880 -0.4871  0.2680
 8116SOL    HW125168   3.550   6.751   5.271  0.1502 -1.4983  0.8273
 8116SOL    HW225169   3.545   6.758   5.108 -0.8914  0.7280  0.9228
 8117SOL     OW25170   4.704   6.533   6.492 -0.1582  0.1114  0.1665
 8117SOL    HW125171   4.770   6.554   6.564 -0.3808  0.4678  0.2709
 8117SOL    HW225172   4.753   6.499   6.411  0.0015 -1.5276  0.9155
 8118SOL     OW25173   4.115   4.803   4.140 -0.4627 -0.4459 -0.2348
 8118SOL    HW125174   4.076   4.843   4.223  1.2762 -0.2689  0.5519
 8118SOL    HW225175   4.076   4.848   4.060 -1.2319  0.2888  0.5262
 8119SOL     OW25176   3.508   6.635   3.656 -0.0160  0.0393  0.2442
 8119SOL    HW125177   3.505   6.551   3.710 -2.0319 -0.0527  0.0513
 8119SOL    HW225178   3.452   6.624   3.574  2.4040  0.4179 -1.5764
 8120SOL     OW25179   1.167   5.405   6.183 -0.0814 -0.0729  0.3261
 8120SOL    HW125180   1.239   5.372   6.244  0.3737 -1.2194 -0.7963
 8120SOL    HW225181   1.176   5.361   6.094 -0.9035  1.3532 -0.5006
 8121SOL     OW25182   3.585   5.010   2.273 -0.1067  0.4512  0.2848
 8121SOL    HW125183   3.629   5.078   2.331  1.2203 -1.2065  1.3194
 8121SOL    HW225184   3.539   4.942   2.331 -3.5785  1.7244 -0.7267
 8122SOL     OW25185   4.510   5.519   3.219 -0.7601  0.0110 -0.0018
 8122SOL    HW125186   4.451   5.588   3.260 -0.2778 -0.0306  0.7630
 8122SOL    HW225187   4.502   5.433   3.269 -1.5760 -0.5857 -1.1231
 8123SOL     OW25188   0.026   2.531   0.678 -0.1669 -0.4871 -0.2232
 8123SOL    HW125189  -0.038   2.470   0.725 -1.7142 -1.4042 -3.2530
 8123SOL    HW225190   0.035   2.502   0.582  1.1419  2.4535 -1.1117
 8124SOL     OW25191   1.862   6.957   1.591 -0.0062  0.2025 -0.9093
 8124SOL    HW125192   1.820   6.878   1.546 -0.9001  0.0153  0.2142
 8124SOL    HW225193   1.822   6.968   1.682  2.7114 -0.2641  0.4420
 8125SOL     OW25194   5.164   2.579   5.430  0.2241 -0.3790 -0.0160
 8125SOL    HW125195   5.120   2.566   5.519  2.1498 -1.3583  0.8287
 8125SOL    HW225196   5.105   2.636   5.372 -2.3173 -1.9436  0.8967
 8126SOL     OW25197   4.292   2.722   0.314  0.0995  0.2108  0.0421
 8126SOL    HW125198   4.328   2.786   0.382 -0.4049 -0.4801  0.9830
 8126SOL    HW225199   4.337   2.738   0.226  1.1417  0.7858  0.6609
 8127SOL     OW25200   3.206   5.249   4.341  0.2127  0.2382 -0.0647
 8127SOL    HW125201   3.158   5.227   4.257 -0.0404  0.0181  0.1386
 8127SOL    HW225202   3.275   5.180   4.360  0.8614  0.7340 -0.5433
 8128SOL     OW25203   4.981   1.393   1.622 -0.0249  0.3632 -0.4910
 8128SOL    HW125204   5.022   1.309   1.586 -0.2951  0.2939 -0.6485
 8128SOL    HW225205   5.015   1.410   1.715 -1.1644 -0.7933  0.1680
 8129SOL     OW25206   2.936   5.925   4.676 -0.2005  0.3067  0.5128
 8129SOL    HW125207   3.010   5.911   4.609  1.0631 -1.8340  2.2411
 8129SOL    HW225208   2.865   5.856   4.662 -0.3559  0.4063  0.8108
 8130SOL     OW25209   4.323   5.088   0.479  0.1128  0.3171  0.2134
 8130SOL    HW125210   4.386   5.138   0.539  2.8202 -1.0933 -1.2604
 8130SOL    HW225211   4.273   5.153   0.421  0.6520  1.4792  1.0149
 8131SOL     OW25212   3.497   1.084   1.549  0.0517  0.1600 -1.4624
 8131SOL    HW125213   3.474   1.034   1.633 -0.0729  3.1582  0.4312
 8131SOL    HW225214   3.571   1.037   1.502  0.0726 -1.6892  0.2825
 8132SOL     OW25215   1.586   2.779   1.350 -0.3347  0.1348 -0.1412
 8132SOL    HW125216   1.646   2.835   1.293 -2.0918  0.2033 -2.0181
 8132SOL    HW225217   1.520   2.838   1.397  1.7926  0.2216  3.0442
 8133SOL     OW25218   6.396   4.776   3.801 -0.2383 -0.1621 -0.2910
 8133SOL    HW125219   6.471   4.830   3.763 -1.4428  1.2706 -0.7644
 8133SOL    HW225220   6.404   4.681   3.771  0.4266  0.3287 -1.7544
 8134SOL     OW25221   3.302   0.193   4.935  0.1485  0.2946  0.0554
 8134SOL    HW125222   3.289   0.096   4.957  0.1474  0.2839  0.0135
 8134SOL    HW225223   3.221   0.244   4.963  0.7373  0.5191  1.3979
 8135SOL     OW25224   1.115   4.126   0.219 -0.3101 -0.5972 -0.2580
 8135SOL    HW125225   1.167   4.042   0.203 -1.8104 -1.8714  1.1654
 8135SOL    HW225226   1.128   4.155   0.314  0.3724  0.9701 -0.7824
 8136SOL     OW25227   6.183   2.083   5.602 -0.1488  0.4219  0.0242
 8136SOL    HW125228   6.087   2.110   5.605  0.0431  1.3275 -1.3441
 8136SOL    HW225229   6.238   2.152   5.649 -0.0407  0.5584 -0.3003
 8137SOL     OW25230   5.414   1.493   1.371  0.0379  0.1010 -0.1910
 8137SOL    HW125231   5.369   1.498   1.460  1.1660  1.9926  0.3325
 8137SOL    HW225232   5.474   1.414   1.369  2.2058  1.5419  1.9171
 8138SOL     OW25233   5.078   4.467   6.415 -0.4309  0.6417  0.2517
 8138SOL    HW125234   5.034   4.379   6.432 -0.6913  1.3991  4.4585
 8138SOL    HW225235   5.160   4.454   6.360 -1.0481 -2.0572 -0.1083
 8139SOL     OW25236   6.049   2.366   3.234  0.3278  1.0307 -0.0569
 8139SOL    HW125237   6.034   2.384   3.331  0.7158  0.3401  0.1408
 8139SOL    HW225238   6.031   2.269   3.214 -0.7160  1.3763 -0.8752
 8140SOL     OW25239   4.819   6.591   2.585 -0.1120  0.7527 -0.4312
 8140SOL    HW125240   4.821   6.674   2.530  1.8800  0.6352 -0.5742
 8140SOL    HW225241   4.910   6.551   2.590 -0.4728  0.0759  1.9511
 8141SOL     OW25242   2.035   6.517   0.388  0.0265 -0.2564 -0.2771
 8141SOL    HW125243   2.097   6.565   0.450 -1.2400  0.4191  0.5186
 8141SOL    HW225244   2.088   6.468   0.318  1.3984  1.9276 -0.8645
 8142SOL     OW25245   0.022   3.796   4.653 -0.2050 -0.1970 -0.0871
 8142SOL    HW125246  -0.059   3.761   4.699  0.9758 -2.2581  0.5078
 8142SOL    HW225247   0.052   3.880   4.698 -1.7826  0.4157 -0.1167
 8143SOL     OW25248   4.540   1.109   3.797 -0.0919  0.5997 -0.0036
 8143SOL    HW125249   4.618   1.051   3.771  0.0486  2.1068 -3.5099
 8143SOL    HW225250   4.469   1.102   3.728 -1.9750  1.3285  1.7653
 8144SOL     OW25251   1.279   6.405   0.787 -0.4389  0.4088  0.0902
 8144SOL    HW125252   1.305   6.390   0.691  0.5837  0.1513  0.4005
 8144SOL    HW225253   1.334   6.346   0.846 -1.0190  0.6108  0.8500
 8145SOL     OW25254   6.865   4.282   2.648  0.5777  0.1579 -0.2866
 8145SOL    HW125255   6.857   4.329   2.560  2.4648 -0.9662 -1.1074
 8145SOL    HW225256   6.908   4.193   2.634  1.1805  0.0761  1.8318
 8146SOL     OW25257   0.114   6.850   5.221  0.2859  0.1779  0.1031
 8146SOL    HW125258   0.175   6.774   5.198  1.4036  1.4455 -1.2672
 8146SOL    HW225259   0.117   6.865   5.320  4.3424  1.8284 -0.0846
 8147SOL     OW25260   4.124   5.295   5.136  0.3511 -0.0957 -0.1589
 8147SOL    HW125261   4.166   5.208   5.110  0.1540 -0.7700  1.6219
 8147SOL    HW225262   4.140   5.363   5.064  3.1067 -0.7579 -0.2863
 8148SOL     OW25263   0.460   1.420   2.228  0.2597  0.3073 -0.4267
 8148SOL    HW125264   0.463   1.394   2.324  0.6617  1.4009 -0.1239
 8148SOL    HW225265   0.500   1.347   2.172 -2.9084 -1.8306 -0.1485
 8149SOL     OW25266   2.178   2.285   6.068 -0.3440 -0.3157  0.0332
 8149SOL    HW125267   2.112   2.225   6.023  1.1809 -1.0171 -1.4038
 8149SOL    HW225268   2.204   2.245   6.156 -3.4927  1.1603  1.8072
 8150SOL     OW25269   3.966   4.823   4.906  0.1752 -0.2773  0.4845
 8150SOL    HW125270   3.902   4.774   4.965 -0.0992 -0.6101 -0.0812
 8150SOL    HW225271   3.940   4.919   4.901 -0.8110 -0.5795 -0.4423
 8151SOL     OW25272   3.140   6.257   1.081  0.3327 -0.3900 -0.3315
 8151SOL    HW125273   3.079   6.209   1.144  1.5958 -2.0268 -0.2935
 8151SOL    HW225274   3.092   6.273   0.995 -1.1984  1.2858  0.7631
 8152SOL     OW25275   5.228   1.703   6.715  0.7921 -0.2412 -0.3866
 8152SOL    HW125276   5.164   1.697   6.791  0.7494  1.6969 -0.2386
 8152SOL    HW225277   5.316   1.665   6.742  1.4258  2.2428  1.4028
 8153SOL     OW25278   5.662   3.466   2.738 -0.5599  0.3293 -0.0575
 8153SOL    HW125279   5.720   3.547   2.743  0.7225 -0.5914  0.3475
 8153SOL    HW225280   5.580   3.487   2.683  0.2139  1.5969 -0.7703
 8154SOL     OW25281   0.200   6.491   4.815 -0.0515 -0.3590  0.4640
 8154SOL    HW125282   0.169   6.536   4.731 -1.3469  0.5322  1.4059
 8154SOL    HW225283   0.281   6.539   4.850 -0.4321  0.2126  0.5658
 8155SOL     OW25284   4.896   5.532   0.037 -0.6714 -0.2892  0.4244
 8155SOL    HW125285   4.957   5.605   0.069  2.2349 -3.1281  1.9896
 8155SOL    HW225286   4.945   5.473  -0.027 -2.0364 -2.3220  1.1671
 8156SOL     OW25287   2.853   1.757   1.861 -0.2563  0.1460  0.0686
 8156SOL    HW125288   2.918   1.744   1.786 -0.8969 -0.9535 -0.3254
 8156SOL    HW225289   2.793   1.834   1.840 -0.6987 -0.4042 -0.7744
 8157SOL     OW25290   1.462   4.532   6.410 -0.0086  0.4979  0.6566
 8157SOL    HW125291   1.536   4.573   6.462  0.7587  0.4451 -0.3564
 8157SOL    HW225292   1.386   4.511   6.472  0.4034  1.4744  1.5487
 8158SOL     OW25293   1.479   4.233   0.030  0.5918 -0.0134  0.4805
 8158SOL    HW125294   1.471   4.264   0.125  1.8221 -0.2012  0.6697
 8158SOL    HW225295   1.487   4.133   0.028  0.7621  0.0031  0.1993
 8159SOL     OW25296   5.317   4.700   0.368  0.2996  0.4116  0.2139
 8159SOL    HW125297   5.225   4.683   0.405  0.1259  0.2522 -0.2732
 8159SOL    HW225298   5.352   4.617   0.325 -0.5882  1.2144 -2.2867
 8160SOL     OW25299   3.029   0.657   0.372 -0.2251  0.0572 -0.4043
 8160SOL    HW125300   3.003   0.733   0.432 -1.1659 -0.4855 -0.1005
 8160SOL    HW225301   2.964   0.652   0.296  1.6038  1.4517 -2.1579
 8161SOL     OW25302   4.438   4.612   2.778 -0.3362 -0.3039  0.0819
 8161SOL    HW125303   4.509   4.545   2.757  0.7356  1.4035 -2.2713
 8161SOL    HW225304   4.472   4.679   2.844  0.0792  0.1869 -0.6148
 8162SOL     OW25305   3.263   6.517   4.303 -0.0964 -0.1586 -0.2506
 8162SOL    HW125306   3.227   6.477   4.219  0.2268 -0.0758 -0.4314
 8162SOL    HW225307   3.266   6.448   4.375  0.1110 -0.3573 -0.4515
 8163SOL     OW25308   2.383   0.313   0.510 -0.0926  0.6948 -0.0555
 8163SOL    HW125309   2.461   0.355   0.556 -0.6969  2.9114 -0.9518
 8163SOL    HW225310   2.410   0.285   0.417  0.0485 -0.0595  0.2036
 8164SOL     OW25311   0.208   2.129   2.412 -0.0696  0.0423 -0.0628
 8164SOL    HW125312   0.197   2.100   2.507  0.1368 -1.6978 -0.5302
 8164SOL    HW225313   0.287   2.081   2.371 -0.6759  0.1006 -1.3590
 8165SOL     OW25314   4.402   0.534   2.451  0.6596 -0.3065  0.4325
 8165SOL    HW125315   4.397   0.439   2.421 -1.3758  0.2941 -1.3612
 8165SOL    HW225316   4.373   0.594   2.377 -0.5929  1.5719  2.3395
 8166SOL     OW25317   6.858   0.713   6.562  0.1084 -0.0576  0.3772
 8166SOL    HW125318   6.771   0.668   6.581  0.3049 -0.7368 -0.2020
 8166SOL    HW225319   6.931   0.644   6.562  0.6601  0.5109  0.9366
 8167SOL     OW25320   6.788   6.749   0.301 -0.0882 -0.7033  0.2898
 8167SOL    HW125321   6.750   6.788   0.385 -0.2747 -2.9994  1.3560
 8167SOL    HW225322   6.714   6.717   0.242  0.0936 -0.8917  0.1602
 8168SOL     OW25323   5.491   4.573   4.503  0.0646  0.2979 -0.4043
 8168SOL    HW125324   5.473   4.671   4.514  2.2107  0.8230 -1.1575
 8168SOL    HW225325   5.526   4.535   4.588 -1.5488 -0.0427  0.1416
 8169SOL     OW25326   0.194   6.112   6.684  0.3659 -0.0049  0.5682
 8169SOL    HW125327   0.149   6.023   6.684 -0.8246  0.5768  0.8444
 8169SOL    HW225328   0.227   6.132   6.777  2.5356 -1.0546  0.0869
 8170SOL     OW25329   5.083   1.719   5.569  0.4255  0.0166  0.2862
 8170SOL    HW125330   5.070   1.812   5.603  1.0685  0.1454  0.1817
 8170SOL    HW225331   5.045   1.712   5.476  1.6766  0.5868 -0.2939
 8171SOL     OW25332   5.074   1.725   2.856  0.1148 -0.1539  0.4489
 8171SOL    HW125333   5.109   1.708   2.949 -0.5705  0.7116  0.8841
 8171SOL    HW225334   5.078   1.823   2.836  1.4875 -0.4504 -0.9592
 8172SOL     OW25335   0.627   5.125   1.649 -0.3435  0.5725 -0.3686
 8172SOL    HW125336   0.727   5.121   1.658 -0.4228 -0.1441  0.2445
 8172SOL    HW225337   0.601   5.085   1.561 -0.1762 -0.5502  0.0720
 8173SOL     OW25338   3.240   4.815   1.933  0.4465 -0.2559 -0.7132
 8173SOL    HW125339   3.194   4.781   2.015 -3.5500 -1.4519 -3.1605
 8173SOL    HW225340   3.300   4.744   1.897  0.9864 -0.3161  0.2776
 8174SOL     OW25341   0.027   6.401   5.017 -0.4879 -0.4896 -0.6138
 8174SOL    HW125342   0.116   6.425   4.979 -0.4349 -0.1660 -0.2927
 8174SOL    HW225343  -0.040   6.470   4.990 -0.2596  0.1686  0.5156
 8175SOL     OW25344   6.899   3.646   2.796 -0.1016  0.8878  0.2651
 8175SOL    HW125345   6.862   3.721   2.851  1.0344  2.8812 -1.5381
 8175SOL    HW225346   6.993   3.628   2.823 -0.1152  0.6407  0.1569
 8176SOL     OW25347   3.254   1.329   1.668 -0.1538  0.0148  0.3520
 8176SOL    HW125348   3.274   1.408   1.726  0.3727 -0.4266  0.7851
 8176SOL    HW225349   3.263   1.245   1.721 -1.0826 -0.3288 -0.0012
 8177SOL     OW25350   5.597   1.793   1.804 -0.9527  0.4315  0.1797
 8177SOL    HW125351   5.672   1.750   1.853  1.4443  1.1730 -2.5452
 8177SOL    HW225352   5.580   1.884   1.842 -1.6295 -0.3304  1.8091
 8178SOL     OW25353   6.828   3.717   2.382 -0.0461  0.1534 -0.0537
 8178SOL    HW125354   6.823   3.660   2.300 -2.4302  0.2374 -0.0541
 8178SOL    HW225355   6.856   3.810   2.357  0.9755 -0.2535 -0.4767
 8179SOL     OW25356   6.334   0.701   3.827 -0.2878  0.2718 -0.0598
 8179SOL    HW125357   6.389   0.768   3.778  1.0919 -0.2198  0.7512
 8179SOL    HW225358   6.393   0.625   3.856 -1.6893 -1.0183 -0.4392
 8180SOL     OW25359   4.295   4.775   5.635  0.2256 -0.1789  0.6770
 8180SOL    HW125360   4.250   4.784   5.725 -0.5962 -0.7542  0.3401
 8180SOL    HW225361   4.364   4.846   5.625 -0.2085  0.3706  1.4619
 8181SOL     OW25362   5.519   2.231   4.278 -0.3623  0.3671 -0.3269
 8181SOL    HW125363   5.591   2.162   4.274  1.4751  2.0859  1.1078
 8181SOL    HW225364   5.559   2.322   4.275 -2.7748  1.4894 -3.3692
 8182SOL     OW25365   3.640   4.635   2.370 -0.5485  0.1676  0.6014
 8182SOL    HW125366   3.707   4.662   2.301 -2.1699  0.3313 -1.0046
 8182SOL    HW225367   3.659   4.683   2.455  2.4932 -1.2104  0.8586
 8183SOL     OW25368   1.238   5.512   2.392 -0.0524  0.3110 -0.4182
 8183SOL    HW125369   1.296   5.571   2.448 -0.4771 -0.2353  0.6560
 8183SOL    HW225370   1.143   5.522   2.422 -0.2240 -0.3678 -0.7051
 8184SOL     OW25371   6.984   6.759   1.504  0.4874  0.0845 -0.5619
 8184SOL    HW125372   7.031   6.672   1.492 -0.5926 -0.2687 -2.4787
 8184SOL    HW225373   6.907   6.746   1.566  0.8519 -0.1370 -0.1490
 8185SOL     OW25374   1.358   3.662   4.871 -0.5180  0.1403 -0.0069
 8185SOL    HW125375   1.449   3.685   4.904 -1.2233  0.6039  1.7492
 8185SOL    HW225376   1.356   3.565   4.845  0.5382  0.2051 -0.4061
 8186SOL     OW25377   2.752   6.737   3.530 -0.0829  0.0635 -0.0485
 8186SOL    HW125378   2.760   6.805   3.604  1.4561 -0.4095  0.2447
 8186SOL    HW225379   2.674   6.761   3.472  1.6094  3.3834 -1.2132
 8187SOL     OW25380   5.344   1.534   6.494  0.1973 -0.1167  0.4748
 8187SOL    HW125381   5.270   1.573   6.549  0.9793 -0.6605  1.9692
 8187SOL    HW225382   5.379   1.604   6.430 -0.2164  0.7798  1.1972
 8188SOL     OW25383   4.905   5.307   4.111  0.1442  0.8972  0.5829
 8188SOL    HW125384   4.825   5.269   4.157 -0.2600  1.5739  0.4433
 8188SOL    HW225385   4.940   5.384   4.164  0.5991  0.7168  0.5514
 8189SOL     OW25386   5.669   3.997   3.555  0.1990 -0.4466  0.3698
 8189SOL    HW125387   5.732   3.941   3.501  2.2932  0.0199  2.1705
 8189SOL    HW225388   5.592   4.026   3.498  1.0386 -1.9568 -1.6387
 8190SOL     OW25389   5.975   0.727   4.202 -0.5000 -0.6512 -0.0997
 8190SOL    HW125390   5.915   0.684   4.134  0.0912 -0.4537 -0.7538
 8190SOL    HW225391   6.048   0.776   4.156 -0.0331 -0.5933  0.6898
 8191SOL     OW25392   6.539   0.040   6.698 -0.6902  0.2696  0.3982
 8191SOL    HW125393   6.462   0.066   6.640 -1.0300  3.3486  2.0294
 8191SOL    HW225394   6.510   0.039   6.794  0.6721 -1.2638  0.8324
 8192SOL     OW25395   3.698   2.162   6.556 -0.4607 -0.5452  0.2399
 8192SOL    HW125396   3.647   2.172   6.470 -0.1519 -0.1956  0.0925
 8192SOL    HW225397   3.742   2.249   6.579 -1.3227 -0.3431  1.2509
 8193SOL     OW25398   2.751   1.388   2.672 -0.4377 -0.0505  0.3727
 8193SOL    HW125399   2.743   1.294   2.707  1.7002 -0.0831  0.8868
 8193SOL    HW225400   2.770   1.386   2.574  0.2470 -0.1844  0.5038
 8194SOL     OW25401   2.912   4.610   2.404  0.0735 -0.7705  0.1874
 8194SOL    HW125402   2.874   4.700   2.428 -0.4735 -0.5503 -1.3878
 8194SOL    HW225403   3.000   4.598   2.451 -0.6138 -0.1156  1.6979
 8195SOL     OW25404   6.244   6.912   5.996 -0.1103 -0.2171  0.6739
 8195SOL    HW125405   6.249   6.837   5.930 -1.7028  0.6519 -0.5048
 8195SOL    HW225406   6.200   6.881   6.079  0.5783 -0.9505  0.7742
 8196SOL     OW25407   4.342   3.170   6.226  0.0138  0.9925 -0.1300
 8196SOL    HW125408   4.254   3.168   6.274 -0.0660 -1.5545 -0.2478
 8196SOL    HW225409   4.395   3.088   6.249  1.0111  0.8947 -2.4953
 8197SOL     OW25410   5.413   0.694   1.008 -0.0826  0.4205  0.4862
 8197SOL    HW125411   5.389   0.780   0.963 -0.6249  1.5366  2.7551
 8197SOL    HW225412   5.497   0.707   1.060  1.2493 -1.2082 -1.1574
 8198SOL     OW25413   5.135   5.505   2.800  0.6464  0.3784  0.0812
 8198SOL    HW125414   5.206   5.531   2.735 -0.1080 -1.1410 -1.4679
 8198SOL    HW225415   5.166   5.428   2.856 -0.5477 -2.1341 -2.4458
 8199SOL     OW25416   2.075   0.200   6.001  0.8081  0.0730  0.4189
 8199SOL    HW125417   2.127   0.219   5.917  0.4869 -0.5608  0.0745
 8199SOL    HW225418   1.997   0.262   6.005  0.3258 -0.4850 -0.1977
 8200SOL     OW25419   4.737   1.145   2.951  0.4131  0.6685  0.8419
 8200SOL    HW125420   4.797   1.067   2.970 -0.1028  0.3360  1.1492
 8200SOL    HW225421   4.749   1.174   2.856  2.0545  1.4873  1.2743
 8201SOL     OW25422   3.393   4.834   4.008  0.2626 -0.0607 -0.6536
 8201SOL    HW125423   3.333   4.802   4.082  1.6151 -0.5397  0.2811
 8201SOL    HW225424   3.355   4.917   3.967 -1.1257 -0.4612 -0.2365
 8202SOL     OW25425   2.515   4.821   0.480 -0.2970 -0.3336 -0.5836
 8202SOL    HW125426   2.535   4.741   0.422  0.0972  0.3841 -1.4843
 8202SOL    HW225427   2.600   4.863   0.509 -0.4986  0.3532 -0.9648
 8203SOL     OW25428   0.904   4.021   6.294 -0.1712  0.1046  0.3399
 8203SOL    HW125429   0.817   4.069   6.283 -0.3034  0.1930  1.6100
 8203SOL    HW225430   0.889   3.936   6.344  0.4379 -0.0281  0.3128
 8204SOL     OW25431   4.365   2.432   6.861  0.0153 -0.6960 -0.2184
 8204SOL    HW125432   4.397   2.414   6.768  2.5570 -0.6328  0.5541
 8204SOL    HW225433   4.441   2.418   6.925 -0.9711  1.6106  1.6078
 8205SOL     OW25434   6.630   4.293   5.862 -0.3268 -0.0717 -0.3958
 8205SOL    HW125435   6.650   4.274   5.766  0.7042 -0.7510 -0.0566
 8205SOL    HW225436   6.652   4.388   5.882  1.6217 -0.4820 -0.3175
 8206SOL     OW25437   2.145   1.148   0.267 -0.0050 -0.5412 -0.1079
 8206SOL    HW125438   2.074   1.163   0.336  0.1481 -2.0013  0.3835
 8206SOL    HW225439   2.109   1.171   0.177 -1.0072 -0.9799  0.1693
 8207SOL     OW25440   2.830   4.889   2.432 -0.3157 -0.2979  0.0965
 8207SOL    HW125441   2.768   4.856   2.502 -0.3621 -0.4485 -0.0158
 8207SOL    HW225442   2.794   4.974   2.392 -0.0670  0.0369  0.5638
 8208SOL     OW25443   3.807   4.598   3.264 -0.2223 -0.2746 -0.0807
 8208SOL    HW125444   3.881   4.579   3.199 -0.7799  0.3442 -0.9282
 8208SOL    HW225445   3.785   4.515   3.314  0.6599 -0.6084 -0.2274
 8209SOL     OW25446   5.407   3.361   3.582  0.0407 -0.9802 -0.2938
 8209SOL    HW125447   5.429   3.311   3.498 -1.2417 -2.1460  0.0208
 8209SOL    HW225448   5.358   3.300   3.644 -2.4874  0.9214 -0.2855
 8210SOL     OW25449   4.045   5.471   0.253 -0.2942  0.0735  1.2714
 8210SOL    HW125450   3.964   5.487   0.196  0.1412  1.5333  1.0028
 8210SOL    HW225451   4.101   5.554   0.255  1.2688 -0.9370  1.3455
 8211SOL     OW25452   4.531   2.496   4.075  0.3587 -0.3632  0.1499
 8211SOL    HW125453   4.601   2.535   4.134 -0.8370  0.7614  0.8790
 8211SOL    HW225454   4.469   2.440   4.130 -0.3049  0.0535 -0.1567
 8212SOL     OW25455   2.608   2.579   3.890 -0.3368 -0.7674  0.4821
 8212SOL    HW125456   2.595   2.643   3.966  0.5927  0.5663 -0.4188
 8212SOL    HW225457   2.697   2.535   3.899  1.0302  1.4326 -1.1647
 8213SOL     OW25458   4.168   6.655   0.979 -0.3185 -0.3825 -0.3880
 8213SOL    HW125459   4.144   6.557   0.981  0.2222 -0.5810 -1.9179
 8213SOL    HW225460   4.121   6.699   0.902 -0.5902  0.5978  0.3085
 8214SOL     OW25461   5.809   0.413   6.877 -0.0453  0.6321 -0.2236
 8214SOL    HW125462   5.850   0.504   6.871 -0.0464  0.5449 -1.7168
 8214SOL    HW225463   5.712   0.419   6.853 -0.1367  0.3009  0.0564
 8215SOL     OW25464   5.420   4.352   6.969  0.1411  0.4517 -0.0198
 8215SOL    HW125465   5.498   4.415   6.978 -1.8407  3.0005  0.7065
 8215SOL    HW225466   5.357   4.388   6.900  0.3575 -2.4912 -1.8999
 8216SOL     OW25467   4.447   5.352   3.704 -0.7312 -0.0809 -0.2826
 8216SOL    HW125468   4.455   5.315   3.797  1.0027 -2.0614 -1.1250
 8216SOL    HW225469   4.382   5.296   3.652 -0.2807 -0.1691 -0.7671
 8217SOL     OW25470   5.233   6.977   0.328 -0.5484  0.0319 -0.1589
 8217SOL    HW125471   5.193   7.026   0.405 -0.4429 -1.6890  1.0164
 8217SOL    HW225472   5.330   6.959   0.345 -0.5906 -0.6031 -0.5341
 8218SOL     OW25473   0.776   4.512   5.821 -0.1437 -0.0689 -0.2969
 8218SOL    HW125474   0.776   4.458   5.737 -0.6459  0.0920 -0.4040
 8218SOL    HW225475   0.711   4.473   5.886  3.0623 -2.6755  1.6604
 8219SOL     OW25476   3.233   4.449   6.730 -0.0896 -0.2363  0.1243
 8219SOL    HW125477   3.240   4.368   6.788 -0.1765 -0.8582 -0.7240
 8219SOL    HW225478   3.140   4.458   6.695 -0.0589  0.1869  0.1404
 8220SOL     OW25479   5.079   5.093   5.525  0.4107  0.3562 -0.8601
 8220SOL    HW125480   5.149   5.134   5.584  0.6752 -1.0200 -0.1756
 8220SOL    HW225481   5.038   5.014   5.572 -1.8949  1.3447 -1.0710
 8221SOL     OW25482   2.434   0.759   2.666 -0.2973  0.0100  0.8977
 8221SOL    HW125483   2.354   0.801   2.709 -0.1199  0.6292  0.6249
 8221SOL    HW225484   2.428   0.659   2.676 -1.6283 -0.0343 -0.0149
 8222SOL     OW25485   0.547   3.345   2.232  0.3247 -0.0983  0.9101
 8222SOL    HW125486   0.451   3.319   2.244 -0.0345 -0.2520 -1.6538
 8222SOL    HW225487   0.552   3.422   2.169  1.9126 -0.2279  0.8562
 8223SOL     OW25488   4.259   6.182   0.065  0.4074  0.3823 -0.1765
 8223SOL    HW125489   4.278   6.091   0.102 -0.4214  0.2487 -0.0463
 8223SOL    HW225490   4.281   6.252   0.133  0.0279  0.2090  0.1266
 8224SOL     OW25491   0.355   6.281   6.558 -0.0406 -0.5836 -0.6194
 8224SOL    HW125492   0.442   6.288   6.606 -0.8628  0.9907  0.7570
 8224SOL    HW225493   0.293   6.220   6.608 -1.0794  1.4580  0.7794
 8225SOL     OW25494   4.868   5.617   2.730 -0.3182 -0.6287  0.2845
 8225SOL    HW125495   4.959   5.577   2.741  0.0832  0.2861  0.3704
 8225SOL    HW225496   4.808   5.551   2.684  0.4854 -1.1015 -0.1082
 8226SOL     OW25497   3.913   4.808   6.572 -0.8390 -0.0664  0.0306
 8226SOL    HW125498   3.885   4.891   6.525 -0.0634  0.4984  0.5421
 8226SOL    HW225499   3.862   4.798   6.657  0.5592  1.0452  1.0434
 8227SOL     OW25500   4.189   0.469   4.698  0.2726  0.0047 -0.1335
 8227SOL    HW125501   4.103   0.486   4.746 -0.5588  0.3400 -1.6711
 8227SOL    HW225502   4.264   0.508   4.751 -0.3237 -1.3770  1.8735
 8228SOL     OW25503   0.103   6.297   0.405  0.0256 -0.0330  0.3514
 8228SOL    HW125504   0.123   6.333   0.314 -0.4956  1.5814  0.8305
 8228SOL    HW225505   0.179   6.320   0.467 -0.5404  0.7153  0.7835
 8229SOL     OW25506   6.825   2.627   3.804 -0.3349  0.4774 -0.6839
 8229SOL    HW125507   6.851   2.676   3.721  1.2907  0.5060 -0.1855
 8229SOL    HW225508   6.902   2.625   3.868 -1.3080 -0.1979  0.5222
 8230SOL     OW25509   4.965   5.822   4.773 -0.0626  0.3413  0.2192
 8230SOL    HW125510   5.049   5.775   4.746  0.7513  1.4885  0.6434
 8230SOL    HW225511   4.970   5.917   4.744 -1.8035  0.1400 -0.9028
 8231SOL     OW25512   2.800   1.934   5.520 -0.0006 -0.4055  0.0764
 8231SOL    HW125513   2.797   2.031   5.542  0.0231 -0.6643  1.3143
 8231SOL    HW225514   2.816   1.922   5.422  2.5661  0.8127  0.2676
 8232SOL     OW25515   4.062   4.931   6.126  0.6584  0.4299  0.4193
 8232SOL    HW125516   4.022   5.022   6.132  0.0925  0.2224 -0.1058
 8232SOL    HW225517   4.075   4.894   6.218 -2.3755 -0.3741  0.6467
 8233SOL     OW25518   0.481   6.875   6.394  0.2784 -0.0223  0.3978
 8233SOL    HW125519   0.392   6.915   6.414 -0.1709 -0.9327  0.2664
 8233SOL    HW225520   0.553   6.938   6.423 -0.3745  1.8505 -1.7829
 8234SOL     OW25521   5.771   5.646   4.393  0.2198  0.6523  0.1197
 8234SOL    HW125522   5.784   5.548   4.405  2.5434  0.5173 -2.4673
 8234SOL    HW225523   5.676   5.664   4.365 -0.2831 -0.7990  0.7874
 8235SOL     OW25524   1.845   3.940   4.217 -0.2933  0.2494  0.0042
 8235SOL    HW125525   1.799   3.884   4.286 -0.7163 -0.0636 -0.5283
 8235SOL    HW225526   1.854   3.889   4.132 -0.5470  0.9255 -0.4447
 8236SOL     OW25527   4.684   6.977   1.229  0.0199  0.0685 -0.1506
 8236SOL    HW125528   4.682   6.912   1.305  0.0891 -0.4595 -0.5921
 8236SOL    HW225529   4.698   6.927   1.143 -1.1638  0.5394 -0.6384
 8237SOL     OW25530   0.670   5.350   5.185 -0.0317 -0.4359  0.1730
 8237SOL    HW125531   0.684   5.281   5.256  1.1720 -1.3033 -0.8652
 8237SOL    HW225532   0.623   5.429   5.225  0.7252 -0.8408  1.9662
 8238SOL     OW25533   6.241   1.170   5.532 -0.2574  0.1942  0.8907
 8238SOL    HW125534   6.339   1.152   5.541 -0.2666  0.3948  1.4236
 8238SOL    HW225535   6.192   1.133   5.611 -0.7039 -0.5303  0.2894
 8239SOL     OW25536   0.515   5.949   6.617 -0.0482  0.4754 -0.0414
 8239SOL    HW125537   0.418   5.944   6.644 -0.0827  1.0293 -0.0210
 8239SOL    HW225538   0.520   5.962   6.517  0.0976 -2.7138 -0.5261
 8240SOL     OW25539   3.992   4.227   4.628 -0.2029 -0.7150 -0.4965
 8240SOL    HW125540   3.951   4.318   4.640 -0.9929 -1.2496  1.2115
 8240SOL    HW225541   4.083   4.225   4.670 -0.4749 -0.8841  0.1054
 8241SOL     OW25542   4.554   2.240   6.079  0.1896 -0.1114 -0.0279
 8241SOL    HW125543   4.570   2.158   6.135  0.2266  0.2845  0.5479
 8241SOL    HW225544   4.539   2.212   5.984 -2.1706 -1.0267  0.5105
 8242SOL     OW25545   6.510   2.114   1.611 -0.2326  0.3172 -0.0687
 8242SOL    HW125546   6.460   2.084   1.530 -0.0121 -1.0588  0.2728
 8242SOL    HW225547   6.446   2.151   1.678 -1.0801 -2.7137  0.9521
 8243SOL     OW25548   2.100   4.086   4.507  0.1021  0.2604  0.1012
 8243SOL    HW125549   2.003   4.064   4.499 -0.2996  1.4015  1.3527
 8243SOL    HW225550   2.126   4.150   4.434 -0.1460  0.1438 -0.0895
 8244SOL     OW25551   6.450   6.968   4.367  0.2573  0.2325 -0.1600
 8244SOL    HW125552   6.451   6.926   4.276  0.7582  1.0329 -0.5443
 8244SOL    HW225553   6.543   6.987   4.397  0.0935 -0.0214  0.5240
 8245SOL     OW25554   1.999   6.970   6.910 -0.1194 -0.4370  0.2340
 8245SOL    HW125555   2.068   6.957   6.981  0.4386  0.3214 -0.1424
 8245SOL    HW225556   1.971   6.881   6.874 -0.3284 -0.8206  1.3211
 8246SOL     OW25557   1.378   2.613   1.535  0.0543 -0.3278 -0.1977
 8246SOL    HW125558   1.331   2.700   1.526 -0.0804 -0.2912  0.7393
 8246SOL    HW225559   1.445   2.618   1.610  0.2869 -0.9202 -0.3554
 8247SOL     OW25560   6.285   5.270   2.765 -1.0714  0.0324  0.5557
 8247SOL    HW125561   6.349   5.347   2.765  0.9547 -1.5387 -1.0233
 8247SOL    HW225562   6.216   5.284   2.694  1.6727 -1.2889 -2.6372
 8248SOL     OW25563   4.655   4.026   1.735 -0.1545  0.5953  0.0894
 8248SOL    HW125564   4.694   3.936   1.754  0.5540  0.5546 -1.3937
 8248SOL    HW225565   4.683   4.090   1.807 -0.0966 -0.2045  0.7921
 8249SOL     OW25566   3.910   6.153   2.075  0.5862 -0.2293 -0.6005
 8249SOL    HW125567   3.931   6.056   2.064  0.0447 -0.1994 -2.3121
 8249SOL    HW225568   3.949   6.204   1.998 -0.5376  0.6789 -0.5954
 8250SOL     OW25569   2.873   5.637   5.520 -0.9035  0.3770  0.1416
 8250SOL    HW125570   2.890   5.637   5.619 -0.2039  2.5906  0.0787
 8250SOL    HW225571   2.943   5.582   5.474 -0.7927 -0.0437  0.8044
 8251SOL     OW25572   1.690   4.346   3.423 -0.0469  1.1080  0.1268
 8251SOL    HW125573   1.599   4.349   3.382 -0.3652  1.3825  0.8370
 8251SOL    HW225574   1.754   4.302   3.359 -0.5818  1.2893 -0.5471
 8252SOL     OW25575   4.853   5.958   6.237 -0.5137 -0.1967  0.5732
 8252SOL    HW125576   4.952   5.969   6.245 -0.7621  2.2797  1.1640
 8252SOL    HW225577   4.832   5.907   6.154  1.2113  2.5045 -1.7493
 8253SOL     OW25578   0.467   5.832   1.327 -0.2379 -0.3725 -0.7326
 8253SOL    HW125579   0.517   5.865   1.407 -2.5349  3.0842 -0.5129
 8253SOL    HW225580   0.482   5.734   1.316  1.9891 -0.5378  2.5428
 8254SOL     OW25581   4.435   4.257   6.350 -0.4985  0.3567 -0.3860
 8254SOL    HW125582   4.347   4.299   6.327 -0.5893  0.5132  0.2079
 8254SOL    HW225583   4.420   4.168   6.391 -0.2980 -0.3756 -1.8371
 8255SOL     OW25584   2.607   2.235   5.963 -0.3585  0.4563  0.3976
 8255SOL    HW125585   2.616   2.333   5.981 -1.9998  0.5668  0.7257
 8255SOL    HW225586   2.539   2.220   5.891  0.0069 -0.4372  0.2196
 8256SOL     OW25587   6.829   2.854   2.687  0.6060 -0.3570 -0.5299
 8256SOL    HW125588   6.752   2.862   2.623  0.9866  1.3204 -0.8232
 8256SOL    HW225589   6.913   2.834   2.636  0.4827 -1.6812 -0.2623
 8257SOL     OW25590   2.263   6.651   1.019  0.3466 -0.3066 -0.0402
 8257SOL    HW125591   2.236   6.739   1.059 -0.5142 -0.5938  0.0294
 8257SOL    HW225592   2.212   6.577   1.062  0.6773 -0.7910 -0.4640
 8258SOL     OW25593   4.710   5.324   0.024  0.1368 -0.2887  0.3465
 8258SOL    HW125594   4.738   5.265   0.099  0.9033  0.0337  0.3232
 8258SOL    HW225595   4.769   5.404   0.021 -1.9992  1.4308  1.5290
 8259SOL     OW25596   3.209   4.618   1.517  0.2841  0.5604 -0.6649
 8259SOL    HW125597   3.286   4.595   1.458  0.7814  0.6796 -0.0777
 8259SOL    HW225598   3.129   4.564   1.491  0.4471  0.7312 -1.5467
 8260SOL     OW25599   4.816   0.122   2.851  0.0578 -0.5126 -0.4916
 8260SOL    HW125600   4.850   0.186   2.781  0.1514  2.0706  1.7641
 8260SOL    HW225601   4.736   0.162   2.896 -0.0633 -2.1521  0.8206
 8261SOL     OW25602   3.957   1.491   6.068 -0.0158 -0.2457 -0.3804
 8261SOL    HW125603   3.863   1.463   6.048  0.2550  0.0343 -2.1409
 8261SOL    HW225604   4.008   1.503   5.983  1.7686 -0.8452  0.5584
 8262SOL     OW25605   3.805   4.758   6.877  0.2313  0.7086 -0.2273
 8262SOL    HW125606   3.777   4.853   6.870  0.5611  0.7229 -1.8928
 8262SOL    HW225607   3.724   4.699   6.871  0.2761  0.8023 -3.3490
 8263SOL     OW25608   3.177   5.662   7.000  0.3292  0.3366  0.3108
 8263SOL    HW125609   3.162   5.653   7.099 -4.0217  0.2899 -0.1921
 8263SOL    HW225610   3.158   5.574   6.956  1.7076  0.4974 -0.6363
 8264SOL     OW25611   5.190   6.278   6.223 -0.2054  0.5295 -0.4444
 8264SOL    HW125612   5.157   6.353   6.281 -2.3903 -1.0760  0.5128
 8264SOL    HW225613   5.157   6.191   6.259 -0.6430 -0.6571 -3.4537
 8265SOL     OW25614   0.897   2.070   1.633  1.0116  0.6090  0.1775
 8265SOL    HW125615   0.978   2.024   1.671  1.2094 -0.4872 -1.4780
 8265SOL    HW225616   0.902   2.069   1.533 -1.4452 -0.2148  0.0028
 8266SOL     OW25617   1.299   0.916   5.934  0.1953 -0.3924  0.0892
 8266SOL    HW125618   1.281   0.834   5.880  2.5660 -0.4471 -0.7684
 8266SOL    HW225619   1.333   0.889   6.024  0.3764 -0.3529  0.0338
 8267SOL     OW25620   3.948   2.417   1.313 -0.3390  0.1967 -0.1189
 8267SOL    HW125621   3.851   2.418   1.287 -0.7403  2.1368  1.2176
 8267SOL    HW225622   3.986   2.326   1.296 -2.8523 -1.1371  0.8705
 8268SOL     OW25623   5.368   0.818   3.421  0.1568 -0.2630 -0.5243
 8268SOL    HW125624   5.401   0.819   3.516 -1.5859 -0.6061  0.1230
 8268SOL    HW225625   5.303   0.893   3.408 -1.8706 -1.9326 -0.5606
 8269SOL     OW25626   1.709   2.482   2.381 -0.2657 -0.7159  0.1371
 8269SOL    HW125627   1.748   2.539   2.453  2.5521 -2.2151 -0.0754
 8269SOL    HW225628   1.704   2.535   2.296  0.2455 -0.1301  0.4621
 8270SOL     OW25629   5.691   6.337   5.536  0.8448  0.4441  0.0823
 8270SOL    HW125630   5.704   6.412   5.601  0.0945  1.7474 -1.2204
 8270SOL    HW225631   5.768   6.274   5.542  1.8301  1.6701  0.7379
 8271SOL     OW25632   3.167   3.966   1.836 -0.7865  0.1700 -0.4122
 8271SOL    HW125633   3.165   4.047   1.777 -2.4044  0.2336 -0.3078
 8271SOL    HW225634   3.191   3.994   1.929  1.4796  0.1078 -0.9075
 8272SOL     OW25635   1.938   0.794   4.878 -0.3339 -0.0128  0.3608
 8272SOL    HW125636   1.961   0.737   4.799  0.3050  1.8027 -0.8305
 8272SOL    HW225637   2.022   0.830   4.918 -0.7514  0.6171  0.6704
 8273SOL     OW25638   3.046   1.092   3.126 -0.1190 -0.2323  0.4124
 8273SOL    HW125639   2.956   1.127   3.151 -0.5859 -1.8737  1.1381
 8273SOL    HW225640   3.046   1.068   3.029  0.1144  1.3951 -0.0236
 8274SOL     OW25641   2.336   4.946   6.949  0.2957 -0.6792  0.6166
 8274SOL    HW125642   2.358   4.929   7.045 -0.5138  0.4900  1.0074
 8274SOL    HW225643   2.282   5.030   6.941  1.4728 -0.0047 -0.9852
 8275SOL     OW25644   2.519   3.077   1.799 -0.0025 -0.0779 -0.3852
 8275SOL    HW125645   2.484   3.068   1.705 -1.2255 -1.6479  0.1644
 8275SOL    HW225646   2.456   3.134   1.852  1.1855  1.6092 -0.7120
 8276SOL     OW25647   3.316   2.951   1.779 -0.3484  0.0444  0.0976
 8276SOL    HW125648   3.415   2.963   1.772 -0.3400 -0.1407 -0.1396
 8276SOL    HW225649   3.295   2.897   1.861 -0.3532  1.3563  0.9875
 8277SOL     OW25650   2.599   5.201   3.756 -0.1106 -0.0760  0.2588
 8277SOL    HW125651   2.626   5.274   3.693  0.5230 -0.9250 -0.4898
 8277SOL    HW225652   2.614   5.230   3.850 -0.6355  1.0531  0.0074
 8278SOL     OW25653   4.534   3.386   3.025  0.2402 -0.4456 -0.2860
 8278SOL    HW125654   4.618   3.420   2.983 -0.5832  0.8102 -0.9708
 8278SOL    HW225655   4.456   3.408   2.966 -0.8389  0.4884  1.4346
 8279SOL     OW25656   5.395   6.836   5.637  0.4416  0.4661 -0.2431
 8279SOL    HW125657   5.434   6.786   5.560  2.3623  0.9112  0.3831
 8279SOL    HW225658   5.345   6.773   5.696  0.6068 -0.2306 -0.8316
 8280SOL     OW25659   4.105   4.065   1.913 -0.2291  0.1826  0.5545
 8280SOL    HW125660   4.016   4.019   1.917  0.2792 -0.8554  0.3292
 8280SOL    HW225661   4.170   4.009   1.861  1.0174  0.1251  2.0910
 8281SOL     OW25662   6.135   5.596   3.324  0.2148  0.2934  0.0295
 8281SOL    HW125663   6.044   5.555   3.317  0.7567 -0.8037 -0.8445
 8281SOL    HW225664   6.131   5.690   3.289 -0.5498  0.2172 -0.1125
 8282SOL     OW25665   0.991   5.684   4.406  0.6033  0.2547  0.6448
 8282SOL    HW125666   0.971   5.782   4.411 -0.0597  0.3833 -2.5285
 8282SOL    HW225667   1.040   5.656   4.489  1.1608  3.2978  1.4858
 8283SOL     OW25668   2.433   3.949   2.060 -0.4878  0.1671  0.4159
 8283SOL    HW125669   2.405   4.043   2.078 -3.3193  0.0888 -2.6455
 8283SOL    HW225670   2.520   3.931   2.105 -0.5983  3.7074  2.3976
 8284SOL     OW25671   6.583   2.838   3.865  0.7378 -0.0080 -0.1579
 8284SOL    HW125672   6.584   2.933   3.832  1.0137  0.3443  0.8200
 8284SOL    HW225673   6.610   2.777   3.791  0.5180  0.6748 -0.8172
 8285SOL     OW25674   2.778   6.868   6.948 -0.4611 -0.0144 -0.0783
 8285SOL    HW125675   2.818   6.793   6.896  1.1106  0.7088  0.0395
 8285SOL    HW225676   2.754   6.943   6.886  2.3686  1.2714  0.2532
 8286SOL     OW25677   5.375   2.834   0.865 -0.2117 -0.0448  0.2272
 8286SOL    HW125678   5.292   2.789   0.898 -1.1257  1.7825  0.5261
 8286SOL    HW225679   5.419   2.883   0.941  0.5118 -0.0555 -0.1767
 8287SOL     OW25680   5.272   3.377   2.093 -0.1927  0.1092 -0.7468
 8287SOL    HW125681   5.222   3.398   2.009 -1.2407 -0.6513 -0.3289
 8287SOL    HW225682   5.277   3.278   2.105  0.2932  0.2035 -0.1161
 8288SOL     OW25683   6.721   3.215   1.851 -0.3433 -0.0040 -0.1965
 8288SOL    HW125684   6.752   3.155   1.925  1.7947 -0.7322 -1.5849
 8288SOL    HW225685   6.622   3.212   1.845 -0.9310  1.8262  4.0573
 8289SOL     OW25686   1.174   1.086   2.263 -0.1164  0.2028 -0.1176
 8289SOL    HW125687   1.242   1.108   2.194  0.4791 -1.2886 -0.0404
 8289SOL    HW225688   1.212   1.019   2.327 -1.6727 -0.6990 -0.0926
 8290SOL     OW25689   2.611   1.540   1.341 -0.4894 -0.3349 -0.4790
 8290SOL    HW125690   2.553   1.532   1.261  0.6549  1.0966 -1.5029
 8290SOL    HW225691   2.707   1.537   1.314 -0.0221 -2.2744  1.1333
 8291SOL     OW25692   5.615   5.396   6.981 -0.3321  0.1106  0.1343
 8291SOL    HW125693   5.555   5.351   6.914 -0.0149  2.8293 -2.1989
 8291SOL    HW225694   5.698   5.428   6.935 -0.1287  2.1925  1.8207
 8292SOL     OW25695   3.916   3.052   5.096 -0.3512  0.2773  0.1567
 8292SOL    HW125696   3.932   2.976   5.159 -0.6669  0.7650  0.8348
 8292SOL    HW225697   3.823   3.048   5.061  0.1363 -0.6029 -1.1301
 8293SOL     OW25698   2.261   4.861   6.060 -0.1987  0.0461  0.0716
 8293SOL    HW125699   2.198   4.788   6.087  1.4193 -1.4834 -0.0863
 8293SOL    HW225700   2.353   4.840   6.093  0.0322  2.9811  1.6441
 8294SOL     OW25701   1.157   0.336   0.203 -0.3944 -0.0703 -0.1858
 8294SOL    HW125702   1.155   0.375   0.295  0.8269 -0.4280 -0.0038
 8294SOL    HW225703   1.131   0.239   0.208 -1.3935  0.1740 -0.3730
 8295SOL     OW25704   3.549   1.710   2.501  0.3138 -0.2803 -0.4253
 8295SOL    HW125705   3.462   1.673   2.467  1.0531 -1.1126 -1.5004
 8295SOL    HW225706   3.533   1.800   2.542 -0.9900 -0.2249 -0.9817
 8296SOL     OW25707   1.888   0.135   6.246  0.2153 -0.2680 -0.5549
 8296SOL    HW125708   1.968   0.106   6.298  0.7749  1.4349 -0.3940
 8296SOL    HW225709   1.912   0.212   6.187 -1.2995  0.2983 -0.4978
 8297SOL     OW25710   4.543   6.255   3.861  0.1956 -0.6945  0.0291
 8297SOL    HW125711   4.614   6.324   3.875  0.0444 -0.3225 -1.0119
 8297SOL    HW225712   4.469   6.269   3.927  0.6758 -0.5383  0.5393
 8298SOL     OW25713   6.401   2.499   2.796 -0.0321  0.5785  0.1958
 8298SOL    HW125714   6.386   2.422   2.858  3.4659 -1.6529 -1.4331
 8298SOL    HW225715   6.469   2.561   2.835 -1.2120  1.7481  0.5032
 8299SOL     OW25716   1.769   4.455   5.266 -0.8281 -0.5380  0.3610
 8299SOL    HW125717   1.805   4.422   5.178  0.5528  0.5739  0.4637
 8299SOL    HW225718   1.747   4.552   5.258 -2.0276 -0.7494  0.8786
 8300SOL     OW25719   6.295   6.672   6.868  0.0940  0.3180  0.3945
 8300SOL    HW125720   6.268   6.598   6.807  0.5396 -1.2009  1.9738
 8300SOL    HW225721   6.214   6.706   6.918  0.2856 -1.0635  1.7183
 8301SOL     OW25722   2.284   1.514   3.584 -0.4452  0.3013 -0.2804
 8301SOL    HW125723   2.197   1.509   3.535  0.0999 -0.5508 -1.1972
 8301SOL    HW225724   2.346   1.443   3.550 -0.3960 -1.0705  2.3719
 8302SOL     OW25725   4.557   4.408   3.560 -0.1070 -0.3791 -0.5465
 8302SOL    HW125726   4.638   4.360   3.595 -0.0440  0.3491  0.3391
 8302SOL    HW225727   4.512   4.456   3.635  0.2919  1.6530 -1.5194
 8303SOL     OW25728   0.281   1.134   1.101 -0.5667  0.2466  0.1197
 8303SOL    HW125729   0.296   1.168   1.009  1.0235  1.3651  0.7353
 8303SOL    HW225730   0.324   1.044   1.111  0.3500  0.6719  0.0990
 8304SOL     OW25731   1.499   4.613   2.849  0.0773  0.3213  0.2400
 8304SOL    HW125732   1.590   4.592   2.884  0.4094 -0.8060 -1.1981
 8304SOL    HW225733   1.485   4.712   2.852  1.1918  0.4812  0.8694
 8305SOL     OW25734   0.658   1.613   2.171  0.4097 -0.6358  0.3073
 8305SOL    HW125735   0.571   1.569   2.192 -0.5900  0.3326 -1.5552
 8305SOL    HW225736   0.717   1.548   2.123  0.1255 -0.8420  0.2328
 8306SOL     OW25737   3.828   6.283   0.667 -0.1744  0.1171  0.1902
 8306SOL    HW125738   3.898   6.247   0.728  0.0161  0.8265  0.4097
 8306SOL    HW225739   3.859   6.274   0.572 -0.2643 -0.5592  0.2233
 8307SOL     OW25740   5.190   6.815   1.075  0.0326  0.2123  0.0272
 8307SOL    HW125741   5.178   6.890   1.010  0.7539  0.2978 -0.0193
 8307SOL    HW225742   5.241   6.848   1.154 -1.5209  0.3191  1.0373
 8308SOL     OW25743   1.249   5.776   4.249  0.1859 -0.0070 -0.0929
 8308SOL    HW125744   1.346   5.780   4.271 -0.1171  0.5598  1.2686
 8308SOL    HW225745   1.214   5.685   4.270  0.2208  0.0914  0.4190
 8309SOL     OW25746   3.618   5.566   2.449 -0.7065 -0.6781  0.2148
 8309SOL    HW125747   3.699   5.509   2.460 -0.4413 -0.5378 -0.8564
 8309SOL    HW225748   3.540   5.524   2.495  0.1623 -0.3382  2.0735
 8310SOL     OW25749   0.928   3.370   0.483 -0.1441  0.7120 -0.4174
 8310SOL    HW125750   0.891   3.339   0.395 -1.1933 -2.3034  0.9715
 8310SOL    HW225751   1.006   3.313   0.508 -0.4651  0.8860  1.0570
 8311SOL     OW25752   5.070   0.890   3.775  0.0077  0.3428 -0.1217
 8311SOL    HW125753   5.120   0.815   3.821  1.4989  1.5572  0.3411
 8311SOL    HW225754   5.136   0.955   3.738 -1.1989  0.1510 -2.8178
 8312SOL     OW25755   4.262   0.981   5.558 -0.0325  0.3449 -0.5919
 8312SOL    HW125756   4.224   1.053   5.501  1.4037  1.6352 -0.0119
 8312SOL    HW225757   4.347   1.013   5.600 -0.1984 -1.1075  0.9987
 8313SOL     OW25758   1.793   2.166   4.176 -0.2892 -0.7914  0.1103
 8313SOL    HW125759   1.700   2.200   4.188  0.4149  1.2297  0.4160
 8313SOL    HW225760   1.795   2.099   4.102 -2.1422 -1.6576  0.7970
 8314SOL     OW25761   0.747   5.379   0.253 -0.6279 -0.6977  0.1201
 8314SOL    HW125762   0.758   5.328   0.168 -0.2727 -0.9475  0.3121
 8314SOL    HW225763   0.651   5.401   0.268 -0.6608 -0.4469 -0.4668
 8315SOL     OW25764   3.151   6.967   3.657  0.3960  0.2542 -0.0200
 8315SOL    HW125765   3.144   6.975   3.558 -3.3687  1.5590  0.2109
 8315SOL    HW225766   3.198   7.047   3.695  1.0189  0.1671 -0.6522
 8316SOL     OW25767   2.761   4.714   4.372  0.2042  0.5522  0.3071
 8316SOL    HW125768   2.821   4.713   4.292 -0.1855  3.2006 -0.0887
 8316SOL    HW225769   2.814   4.737   4.453  0.0109  1.3113  0.2229
 8317SOL     OW25770   4.649   6.443   5.638 -0.3619 -0.0733 -0.6363
 8317SOL    HW125771   4.655   6.474   5.543  2.5828  1.8862  0.0393
 8317SOL    HW225772   4.694   6.355   5.647  0.9245  0.5597 -0.7711
 8318SOL     OW25773   3.096   0.298   5.670  0.4263 -0.1388  0.2669
 8318SOL    HW125774   3.186   0.332   5.642  0.0335  0.5557 -0.2049
 8318SOL    HW225775   3.102   0.263   5.764  1.2738 -0.4673  0.1047
 8319SOL     OW25776   5.762   6.502   6.127  0.3679 -0.8584  0.5183
 8319SOL    HW125777   5.799   6.481   6.217 -1.1166  1.2488  1.6828
 8319SOL    HW225778   5.663   6.490   6.127  0.1920  0.3544 -0.4359
 8320SOL     OW25779   0.631   3.776   3.271  0.0084 -0.2015 -0.0986
 8320SOL    HW125780   0.727   3.802   3.282  0.0580 -0.5382  0.3248
 8320SOL    HW225781   0.572   3.846   3.310  0.0785 -0.0172 -0.3154
 8321SOL     OW25782   3.024   4.761   5.559 -0.4829  0.7108  0.6314
 8321SOL    HW125783   2.973   4.691   5.508 -2.2885  1.2930  1.5312
 8321SOL    HW225784   3.023   4.846   5.507  0.0812  0.5659  0.3848
 8322SOL     OW25785   5.344   3.018   0.666  0.5635 -0.0842  0.2901
 8322SOL    HW125786   5.427   3.073   0.667  1.4684 -1.4057 -0.5322
 8322SOL    HW225787   5.352   2.944   0.733 -0.3610  0.3095  0.8784
 8323SOL     OW25788   0.085   0.807   3.279  0.2743  0.5813 -0.5497
 8323SOL    HW125789   0.003   0.816   3.335 -0.3316  0.7723 -1.4478
 8323SOL    HW225790   0.099   0.710   3.256  0.4553  0.5158 -0.1631
 8324SOL     OW25791   0.657   4.862   4.670 -0.0715 -0.5015  0.2435
 8324SOL    HW125792   0.577   4.852   4.729  0.9884  0.6438  1.9545
 8324SOL    HW225793   0.684   4.772   4.635 -0.8989 -1.1781  1.2770
 8325SOL     OW25794   1.364   6.285   2.151 -0.1004  0.4914 -0.5905
 8325SOL    HW125795   1.268   6.310   2.144  0.0511  0.9571 -1.1218
 8325SOL    HW225796   1.403   6.276   2.059 -0.1527 -1.7950 -0.4759
 8326SOL     OW25797   4.722   3.941   1.108 -0.2543  0.2110  0.0837
 8326SOL    HW125798   4.765   3.852   1.124  0.3592  0.4154 -0.3259
 8326SOL    HW225799   4.735   3.967   1.012 -1.0477  0.4256  0.0305
 8327SOL     OW25800   0.401   6.403   5.201 -0.0259 -0.0781 -0.4169
 8327SOL    HW125801   0.391   6.335   5.128  0.5123 -2.1729  1.3413
 8327SOL    HW225802   0.377   6.360   5.289  0.5686  1.9725  0.8029
 8328SOL     OW25803   4.825   3.109   3.224  0.1852 -0.0052  0.2423
 8328SOL    HW125804   4.876   3.194   3.220 -0.3506  0.3919  1.4409
 8328SOL    HW225805   4.830   3.063   3.135 -2.2145  2.8246 -1.5313
 8329SOL     OW25806   1.119   3.467   6.829  0.2867  0.6167  0.9097
 8329SOL    HW125807   1.073   3.433   6.747 -0.1780 -0.5055  1.6024
 8329SOL    HW225808   1.163   3.391   6.877 -0.6087  0.9870  2.4092
 8330SOL     OW25809   3.054   5.500   2.749  0.2863  0.5726  0.7839
 8330SOL    HW125810   2.985   5.532   2.814  0.9387  0.3850  1.5887
 8330SOL    HW225811   3.010   5.442   2.680 -0.0919 -1.3457  2.5311
 8331SOL     OW25812   0.746   6.495   1.370  0.2114 -0.3751  0.0843
 8331SOL    HW125813   0.799   6.480   1.286  0.0766 -1.6299  0.2025
 8331SOL    HW225814   0.802   6.467   1.448  0.4942  1.1777  0.4604
 8332SOL     OW25815   3.807   5.084   5.762  0.5358 -0.8586  0.1580
 8332SOL    HW125816   3.792   5.091   5.664  1.0283 -0.1079  0.1234
 8332SOL    HW225817   3.786   4.991   5.792  0.1126 -1.0246 -0.6030
 8333SOL     OW25818   0.964   2.968   4.811 -0.3939  0.2526  0.1093
 8333SOL    HW125819   0.909   2.919   4.878 -2.0061 -0.4607 -1.6610
 8333SOL    HW225820   0.917   2.969   4.722  1.2688  1.8870 -0.8333
 8334SOL     OW25821   5.999   0.468   5.066 -0.2640  0.7921 -0.2756
 8334SOL    HW125822   5.900   0.477   5.073 -0.0998  2.4285  0.2554
 8334SOL    HW225823   6.024   0.447   4.971 -1.2209 -1.8961 -0.0342
 8335SOL     OW25824   0.855   6.413   2.440 -0.1707  1.4155  0.1939
 8335SOL    HW125825   0.843   6.355   2.359  0.6177  0.6144  0.6350
 8335SOL    HW225826   0.794   6.492   2.433 -3.6864 -1.0068  1.0253
 8336SOL     OW25827   0.926   5.327   4.551 -0.6184  0.1828  0.5307
 8336SOL    HW125828   0.886   5.242   4.587  1.1843  0.0588  2.4313
 8336SOL    HW225829   0.896   5.404   4.608  0.4612  0.3180  0.9263
 8337SOL     OW25830   3.530   5.246   6.808  0.2633 -0.0247  0.1223
 8337SOL    HW125831   3.492   5.324   6.759  0.3086 -0.3163 -0.3761
 8337SOL    HW225832   3.566   5.277   6.896 -1.1434  0.2508  0.6285
 8338SOL     OW25833   2.703   0.447   3.822 -0.3238  0.6030 -0.6214
 8338SOL    HW125834   2.711   0.416   3.727 -0.9735 -1.4699 -0.0661
 8338SOL    HW225835   2.789   0.429   3.870 -0.4951  0.2402 -0.4485
 8339SOL     OW25836   1.922   0.995   1.174 -0.2206  0.5735 -0.5023
 8339SOL    HW125837   1.924   0.905   1.130 -1.2610  0.7715 -0.9883
 8339SOL    HW225838   1.872   0.988   1.260  1.9708  0.1465  0.8021
 8340SOL     OW25839   1.025   4.213   5.091 -0.2997  0.3750 -0.5390
 8340SOL    HW125840   1.058   4.229   4.998 -2.0523 -0.6063 -1.3973
 8340SOL    HW225841   1.090   4.154   5.140 -0.5918 -1.3050 -2.0601
 8341SOL     OW25842   1.400   2.417   6.255 -0.3169 -0.0765 -0.2394
 8341SOL    HW125843   1.333   2.491   6.253 -1.9736 -1.4811  0.1555
 8341SOL    HW225844   1.413   2.387   6.350 -1.4716 -1.7866 -0.5761
 8342SOL     OW25845   5.144   6.339   1.103 -0.0230 -0.1009 -0.9809
 8342SOL    HW125846   5.112   6.244   1.106  1.7657 -0.7297  0.4526
 8342SOL    HW225847   5.127   6.378   1.013 -2.6062 -1.0906 -0.9960
 8343SOL     OW25848   6.454   5.125   1.585 -0.1760 -0.7224  0.3188
 8343SOL    HW125849   6.411   5.035   1.579 -0.7855 -0.4346  0.2378
 8343SOL    HW225850   6.505   5.143   1.501  0.5854 -1.3031  0.6489
 8344SOL     OW25851   5.900   6.288   1.490 -0.1592  0.7229 -0.0556
 8344SOL    HW125852   5.892   6.239   1.404  1.1670  1.2611 -0.4996
 8344SOL    HW225853   5.996   6.290   1.519 -0.5500  0.7872  1.2869
 8345SOL     OW25854   6.743   6.215   4.074  0.3710  0.4723  0.2624
 8345SOL    HW125855   6.712   6.288   4.135  0.2898 -1.2900  2.5006
 8345SOL    HW225856   6.665   6.175   4.027  0.2172  0.8247  0.2171
 8346SOL     OW25857   5.515   6.227   4.392  0.1584  0.2040 -0.2184
 8346SOL    HW125858   5.588   6.160   4.410  0.1403  0.0520 -0.6859
 8346SOL    HW225859   5.455   6.233   4.472  1.0270  0.7873  0.4197
 8347SOL     OW25860   5.949   4.845   3.357 -0.9901 -0.2574 -0.3166
 8347SOL    HW125861   5.920   4.882   3.445  0.2861  1.7498 -0.6713
 8347SOL    HW225862   5.872   4.800   3.312 -1.3973 -2.4394  2.3137
 8348SOL     OW25863   2.389   4.657   5.894  0.3116 -0.1774  0.0369
 8348SOL    HW125864   2.294   4.661   5.864 -0.3752 -1.1946  1.8407
 8348SOL    HW225865   2.442   4.729   5.849 -1.4536  0.8604 -0.4879
 8349SOL     OW25866   4.471   0.289   1.632  0.1830 -0.2761 -0.0377
 8349SOL    HW125867   4.513   0.222   1.570  0.2504  1.0907 -1.5256
 8349SOL    HW225868   4.507   0.380   1.613  1.3310  0.0420  3.0526
 8350SOL     OW25869   4.105   0.901   3.988 -0.5160  0.2717  0.4093
 8350SOL    HW125870   4.006   0.887   4.001 -0.2646 -1.0249  1.0760
 8350SOL    HW225871   4.130   0.876   3.894 -0.7990  0.5237  0.2634
 8351SOL     OW25872   6.497   1.756   4.745  0.6057 -0.4258  0.3470
 8351SOL    HW125873   6.438   1.784   4.820 -0.1090  0.3575 -0.4809
 8351SOL    HW225874   6.477   1.662   4.718 -1.4296  0.3150 -0.9545
 8352SOL     OW25875   2.364   2.212   6.760 -0.2797  0.0053  0.2855
 8352SOL    HW125876   2.349   2.117   6.733  0.6806  0.4225 -1.9277
 8352SOL    HW225877   2.437   2.216   6.829 -0.5318 -0.8830  0.6152
 8353SOL     OW25878   4.890   6.890   5.294 -0.0922 -0.5827 -0.1464
 8353SOL    HW125879   4.936   6.881   5.206  0.6801 -1.9474  0.3771
 8353SOL    HW225880   4.926   6.823   5.358 -1.3794 -0.3095  0.9088
 8354SOL     OW25881   5.207   4.343   3.129 -0.1390  0.0700  0.2566
 8354SOL    HW125882   5.195   4.244   3.127  1.5964 -0.2537  2.2972
 8354SOL    HW225883   5.123   4.388   3.099 -2.2610 -2.0001  2.6167
 8355SOL     OW25884   4.415   1.239   0.167 -0.0357 -0.0573 -0.0764
 8355SOL    HW125885   4.382   1.223   0.074 -0.1627  0.0347 -0.0468
 8355SOL    HW225886   4.399   1.157   0.222 -0.8752  0.2333  0.1296
 8356SOL     OW25887   3.182   4.590   2.503  0.2440  0.3333  0.2278
 8356SOL    HW125888   3.225   4.654   2.566 -1.1680  1.5279  0.0189
 8356SOL    HW225889   3.164   4.504   2.550  1.3189  0.3882  0.7703
 8357SOL     OW25890   0.391   3.808   1.988 -0.5764 -0.0768  0.4809
 8357SOL    HW125891   0.397   3.762   1.900  1.8102 -0.0879  0.5887
 8357SOL    HW225892   0.345   3.749   2.054 -1.0903 -0.6482 -0.3699
 8358SOL     OW25893   2.067   0.511   0.020  0.0402 -0.4936  0.3053
 8358SOL    HW125894   2.024   0.431  -0.022 -1.5526  0.7757 -0.6186
 8358SOL    HW225895   2.120   0.561  -0.049  0.5325 -0.4215  0.7563
 8359SOL     OW25896   5.022   6.620   2.267 -0.2702  0.3676 -0.0527
 8359SOL    HW125897   5.114   6.613   2.229 -0.9270  0.3893 -1.7508
 8359SOL    HW225898   4.999   6.535   2.313 -0.5283 -0.9061 -2.3762
 8360SOL     OW25899   0.498   4.338   5.220  0.2140  0.7067 -0.1871
 8360SOL    HW125900   0.580   4.310   5.171 -0.1435  0.7676 -0.8289
 8360SOL    HW225901   0.424   4.356   5.155 -0.2651  0.8050  0.3715
 8361SOL     OW25902   4.617   0.328   0.415 -0.2518  0.2254 -0.0437
 8361SOL    HW125903   4.618   0.351   0.513  0.7767 -1.0679  0.2673
 8361SOL    HW225904   4.525   0.339   0.380 -0.7379  0.2838  1.1848
 8362SOL     OW25905   6.590   4.910   3.677  0.0868 -0.5652  0.3968
 8362SOL    HW125906   6.615   4.967   3.599  1.2151 -1.8983 -0.2445
 8362SOL    HW225907   6.664   4.910   3.744  0.2330 -1.5038  0.2470
 8363SOL     OW25908   2.349   1.638   6.302 -0.1214  0.0260 -0.3233
 8363SOL    HW125909   2.342   1.639   6.202  0.5986 -0.4567 -0.3867
 8363SOL    HW225910   2.440   1.605   6.328 -0.3016  0.1713  0.4899
 8364SOL     OW25911   4.423   5.112   1.794 -0.0289 -0.0844  0.9798
 8364SOL    HW125912   4.491   5.110   1.721 -2.5753  1.0473 -1.6085
 8364SOL    HW225913   4.404   5.019   1.825  3.5877 -0.3628  2.8358
 8365SOL     OW25914   6.560   0.685   5.424  0.0528 -0.0009 -0.1098
 8365SOL    HW125915   6.649   0.697   5.468  0.8407 -1.2962 -1.2670
 8365SOL    HW225916   6.546   0.758   5.357 -0.9182  1.6676  1.7927
 8366SOL     OW25917   3.329   5.161   0.390 -0.0059 -0.1063 -0.0753
 8366SOL    HW125918   3.327   5.249   0.437  2.2175  0.1229 -0.2993
 8366SOL    HW225919   3.336   5.175   0.291  1.8367 -0.4335 -0.0432
 8367SOL     OW25920   1.149   3.719   5.459  0.6634 -0.3000 -0.3949
 8367SOL    HW125921   1.067   3.767   5.488 -0.2577 -2.6975  1.4339
 8367SOL    HW225922   1.141   3.693   5.363 -0.5215 -0.1069 -0.3570
 8368SOL     OW25923   0.050   6.909   2.439  0.2140  0.0613  0.4504
 8368SOL    HW125924   0.071   6.829   2.495 -2.8432 -0.7864  0.5914
 8368SOL    HW225925  -0.005   6.974   2.492  2.9138  2.5384  0.4510
 8369SOL     OW25926   3.660   2.022   2.090 -0.1193  0.6255  0.0967
 8369SOL    HW125927   3.607   2.025   2.006 -2.2712 -0.0696  1.3645
 8369SOL    HW225928   3.645   1.935   2.137  0.6710  1.1684  1.4424
 8370SOL     OW25929   0.863   6.075   1.867  0.7880  0.7843  0.1097
 8370SOL    HW125930   0.768   6.072   1.897  0.8303  1.8839  0.3842
 8370SOL    HW225931   0.894   5.982   1.844 -0.0310  0.2775  0.9954
 8371SOL     OW25932   1.601   2.507   2.025 -1.0081 -0.2812  0.3904
 8371SOL    HW125933   1.559   2.427   2.067 -1.1442  0.1994  1.1900
 8371SOL    HW225934   1.684   2.480   1.977 -1.3902 -0.9958  0.1214
 8372SOL     OW25935   0.643   6.138   4.338 -0.0858 -0.0338  0.5372
 8372SOL    HW125936   0.586   6.058   4.321  0.0341 -0.6979  2.9013
 8372SOL    HW225937   0.588   6.210   4.380  0.2360  0.3735  0.2706
 8373SOL     OW25938   5.256   0.433   4.322 -0.0494  0.4520  0.4009
 8373SOL    HW125939   5.249   0.380   4.406  0.6175  2.7894  2.0466
 8373SOL    HW225940   5.333   0.498   4.330 -1.2117  2.1243 -1.1743
 8374SOL     OW25941   5.677   0.136   0.430 -0.7389  0.1429  1.1039
 8374SOL    HW125942   5.759   0.086   0.400  0.4444  2.8094 -0.4677
 8374SOL    HW225943   5.705   0.219   0.479 -2.5854  0.0621  2.4006
 8375SOL     OW25944   5.410   4.943   0.382 -0.6483 -0.2396 -0.2205
 8375SOL    HW125945   5.364   4.856   0.365 -0.6808 -0.0109 -1.3802
 8375SOL    HW225946   5.443   4.945   0.476 -2.5398 -0.6266  0.5053
 8376SOL     OW25947   3.193   5.770   4.014  0.2347  0.3799  0.2890
 8376SOL    HW125948   3.280   5.820   4.008  0.1871  0.4531  0.2044
 8376SOL    HW225949   3.189   5.702   3.941 -0.5198  1.5466 -0.7932
 8377SOL     OW25950   6.434   3.937   6.958  0.1868  0.0612  0.1674
 8377SOL    HW125951   6.421   4.032   6.988  1.2986  0.0604  0.7049
 8377SOL    HW225952   6.386   3.876   7.021 -1.8019  0.2879 -0.9994
 8378SOL     OW25953   5.044   5.077   0.798 -0.0472 -0.9038  0.3055
 8378SOL    HW125954   5.105   5.145   0.757 -1.4400  1.9493  2.6311
 8378SOL    HW225955   5.088   5.036   0.878 -0.9380  0.9805  1.8406
 8379SOL     OW25956   5.867   1.179   5.611  0.0374  0.2398 -0.0215
 8379SOL    HW125957   5.896   1.099   5.559  0.9996 -0.9789  2.2088
 8379SOL    HW225958   5.781   1.159   5.657 -0.0540  0.7609  0.0520
 8380SOL     OW25959   1.753   6.180   1.133  0.1329 -0.2157  0.8468
 8380SOL    HW125960   1.695   6.132   1.067  1.3930  0.0810 -0.5152
 8380SOL    HW225961   1.757   6.277   1.110 -1.2659  0.3459  2.7590
 8381SOL     OW25962   4.001   0.908   0.086 -0.7463 -0.2180  0.3835
 8381SOL    HW125963   4.093   0.874   0.066 -1.0448 -0.6560 -0.2915
 8381SOL    HW225964   3.990   0.918   0.185  0.2724  0.5629  0.4371
 8382SOL     OW25965   2.636   0.834   3.412 -0.5405  0.0468  0.3223
 8382SOL    HW125966   2.638   0.930   3.383 -1.5505 -0.0029  0.0258
 8382SOL    HW225967   2.690   0.823   3.495 -0.7607  0.9611  0.5995
 8383SOL     OW25968   4.034   0.395   1.956 -0.3062  0.5280 -0.2325
 8383SOL    HW125969   4.074   0.471   1.904 -0.0041  0.0251 -0.7466
 8383SOL    HW225970   3.943   0.422   1.989 -0.8028  0.6112 -1.6149
 8384SOL     OW25971   4.266   5.488   6.650 -0.0236  0.4797 -0.3191
 8384SOL    HW125972   4.172   5.466   6.677 -0.3379  0.3570 -1.4821
 8384SOL    HW225973   4.274   5.586   6.631  0.3467  0.6719  0.7837
 8385SOL     OW25974   6.746   3.400   3.772  0.3681  0.1508 -0.0859
 8385SOL    HW125975   6.791   3.324   3.820 -1.5791  0.2061  1.9784
 8385SOL    HW225976   6.740   3.378   3.675 -0.8869 -2.7775  0.5428
 8386SOL     OW25977   6.176   6.002   2.143  0.3823  0.0899 -0.6919
 8386SOL    HW125978   6.127   6.080   2.105  0.0888  0.4784  0.4586
 8386SOL    HW225979   6.255   5.981   2.085 -0.5000  0.1485 -1.9557
 8387SOL     OW25980   6.636   1.745   5.765  0.3517 -0.0357 -0.0290
 8387SOL    HW125981   6.686   1.720   5.682 -0.9333  0.3798 -0.9609
 8387SOL    HW225982   6.564   1.811   5.742 -0.9746 -1.0209  1.1628
 8388SOL     OW25983   2.708   6.419   2.113  0.3840 -0.4711 -0.1951
 8388SOL    HW125984   2.740   6.368   2.193 -0.1935  0.2205  0.4940
 8388SOL    HW225985   2.634   6.480   2.140 -3.3945 -3.6941 -2.1403
 8389SOL     OW25986   6.626   2.981   0.561  0.6181  0.4426 -0.1731
 8389SOL    HW125987   6.562   3.057   0.560 -0.1771 -0.2200 -0.4032
 8389SOL    HW225988   6.651   2.957   0.467 -0.8213 -0.9613 -0.2384
 8390SOL     OW25989   0.120   0.254   0.697  0.1710 -0.6434 -0.0812
 8390SOL    HW125990   0.112   0.161   0.733 -0.6363 -0.5314  0.0487
 8390SOL    HW225991   0.037   0.306   0.720  0.0331 -0.2941 -1.3241
 8391SOL     OW25992   5.104   5.872   3.189 -0.3218  0.0192  0.0089
 8391SOL    HW125993   5.119   5.963   3.152  1.5587  0.0749  0.7918
 8391SOL    HW225994   5.087   5.808   3.114  0.4822  0.6448 -0.7359
 8392SOL     OW25995   3.978   0.404   5.953 -0.2497  0.2391 -0.4109
 8392SOL    HW125996   3.889   0.448   5.937  0.0384  2.0610  2.3025
 8392SOL    HW225997   4.048   0.449   5.898 -0.5892  0.4860 -0.6493
 8393SOL     OW25998   2.776   4.575   5.103 -0.2761 -0.2343  0.2879
 8393SOL    HW125999   2.849   4.603   5.042 -0.6746  0.4808  0.1261
 8393SOL    HW226000   2.743   4.485   5.077 -2.2993  1.1347 -2.3319
 8394SOL     OW26001   2.492   3.915   1.045  0.5322 -0.3293  0.5565
 8394SOL    HW126002   2.419   3.855   1.013  0.5289  0.0494 -0.1629
 8394SOL    HW226003   2.571   3.906   0.986  0.2846  0.8784  0.0311
 8395SOL     OW26004   5.926   3.656   1.694 -0.0148  0.1055  0.7687
 8395SOL    HW126005   5.829   3.634   1.689 -0.2792  1.4230 -3.0513
 8395SOL    HW226006   5.938   3.755   1.685  1.6711 -0.2132 -1.0373
 8396SOL     OW26007   3.076   4.571   6.406 -0.3728 -0.1198  0.1393
 8396SOL    HW126008   3.098   4.584   6.310 -0.6696  2.2116  0.3300
 8396SOL    HW226009   3.033   4.481   6.419 -0.4670 -0.4106 -1.9115
 8397SOL     OW26010   1.091   0.422   1.164  0.5812 -0.3507 -0.0778
 8397SOL    HW126011   1.165   0.409   1.230  1.8308 -1.4981 -1.6576
 8397SOL    HW226012   1.129   0.438   1.073 -1.1205  0.3091 -0.7129
 8398SOL     OW26013   2.164   4.429   3.441  0.4852 -0.2315  0.8055
 8398SOL    HW126014   2.258   4.457   3.419  0.4520 -0.2277  0.6681
 8398SOL    HW226015   2.166   4.358   3.512  0.6077 -0.4834  0.5542
 8399SOL     OW26016   3.176   5.311   3.088  0.2761 -0.3391 -0.2621
 8399SOL    HW126017   3.169   5.411   3.091  1.8041 -0.1922 -0.9861
 8399SOL    HW226018   3.213   5.277   3.174  1.1489 -0.1299 -0.5397
 8400SOL     OW26019   0.207   1.685   6.944  0.3709  0.3722  0.5233
 8400SOL    HW126020   0.190   1.783   6.943 -1.1706  0.2041 -2.8077
 8400SOL    HW226021   0.270   1.661   6.870 -1.3288 -1.3682 -0.4499
 8401SOL     OW26022   6.637   0.167   6.397  0.2746 -0.3726 -0.0966
 8401SOL    HW126023   6.720   0.120   6.367  1.5002  0.8878  1.1849
 8401SOL    HW226024   6.634   0.171   6.496 -0.5568  0.9218 -0.1475
 8402SOL     OW26025   0.446   2.040   2.306 -0.0188  0.5376 -0.5013
 8402SOL    HW126026   0.428   1.992   2.221 -0.2766 -2.4714  1.1240
 8402SOL    HW226027   0.544   2.060   2.313 -0.0373  1.0451 -1.5803
 8403SOL     OW26028   3.022   0.220   1.154  0.0772  0.2957  0.2933
 8403SOL    HW126029   3.088   0.163   1.104 -0.9222 -0.2123 -0.4736
 8403SOL    HW226030   2.940   0.167   1.174 -1.0562  1.5512 -0.7915
 8404SOL     OW26031   2.021   0.175   0.241  0.1220 -0.5710  0.7560
 8404SOL    HW126032   2.052   0.126   0.322 -0.3713  0.7722  1.8049
 8404SOL    HW226033   2.031   0.274   0.256  0.2572 -0.2990 -0.9248
 8405SOL     OW26034   5.913   2.071   3.642  0.8160  0.3895  0.4937
 8405SOL    HW126035   5.958   2.135   3.704  1.5557  1.6497 -1.2266
 8405SOL    HW226036   5.981   2.010   3.602  0.3623 -0.3594  0.8307
 8406SOL     OW26037   6.419   2.569   1.676 -0.8156 -1.1344 -0.3177
 8406SOL    HW126038   6.405   2.668   1.680  1.9773 -0.5984 -1.1532
 8406SOL    HW226039   6.382   2.526   1.759  1.9807  1.3018  2.4460
 8407SOL     OW26040   6.331   1.404   4.925 -0.0730 -0.4267 -0.1987
 8407SOL    HW126041   6.256   1.461   4.959  2.4536  2.4057  0.9959
 8407SOL    HW226042   6.381   1.455   4.855  1.6736 -1.6277  0.1305
 8408SOL     OW26043   2.021   5.862   6.674  0.4988  0.0990 -0.3185
 8408SOL    HW126044   1.927   5.860   6.709 -0.5051 -0.5445 -2.8120
 8408SOL    HW226045   2.060   5.771   6.678  0.4234  0.0464 -0.7883
 8409SOL     OW26046   0.497   6.405   3.439 -0.0547  0.0382 -0.4793
 8409SOL    HW126047   0.440   6.438   3.363  0.9253 -0.6692 -1.5490
 8409SOL    HW226048   0.442   6.404   3.523 -1.9571 -1.5438 -1.6379
 8410SOL     OW26049   6.419   5.020   4.542  0.3369 -0.0764  0.5426
 8410SOL    HW126050   6.325   5.033   4.574  0.9386  0.0996  2.2933
 8410SOL    HW226051   6.463   5.109   4.531  0.1807 -0.1368 -0.7087
 8411SOL     OW26052   2.583   4.897   3.303 -0.7401  0.0961  0.6792
 8411SOL    HW126053   2.505   4.906   3.365  0.4278  3.7558  1.8495
 8411SOL    HW226054   2.597   4.983   3.254  1.5163 -1.0573 -0.9101
 8412SOL     OW26055   1.443   0.041   4.247 -0.2801  0.0355 -0.3484
 8412SOL    HW126056   1.458   0.036   4.148 -1.6124 -2.5411 -0.4934
 8412SOL    HW226057   1.370   0.106   4.266 -0.3927  0.1377 -1.0770
 8413SOL     OW26058   4.660   3.190   1.955 -0.2710  0.0578  0.4110
 8413SOL    HW126059   4.739   3.249   1.976 -1.3917  1.7977 -0.0387
 8413SOL    HW226060   4.650   3.182   1.856 -1.5103  1.1448  0.4092
 8414SOL     OW26061   5.789   4.091   1.809  0.3245  0.4015 -0.3369
 8414SOL    HW126062   5.842   4.035   1.746  1.6526 -0.6703  1.6401
 8414SOL    HW226063   5.847   4.162   1.848 -0.4245  0.9495 -0.1707
 8415SOL     OW26064   3.319   3.914   5.110  0.1414  0.2982  0.4444
 8415SOL    HW126065   3.366   3.826   5.109  0.9447  0.6315 -2.9464
 8415SOL    HW226066   3.236   3.908   5.055 -0.1756  1.4997  0.7593
 8416SOL     OW26067   4.124   4.966   3.551  0.5126  0.5907  0.4877
 8416SOL    HW126068   4.086   4.960   3.459  0.4149  0.9636  0.4970
 8416SOL    HW226069   4.193   4.895   3.564 -0.6578 -0.5284  0.6927
 8417SOL     OW26070   1.644   4.473   4.469 -0.0093 -0.2800 -0.5317
 8417SOL    HW126071   1.567   4.456   4.407  0.4186 -1.6688 -0.7374
 8417SOL    HW226072   1.720   4.512   4.419 -0.8766  2.0040 -0.1431
 8418SOL     OW26073   5.564   4.037   0.923  0.6553  0.0210  0.2944
 8418SOL    HW126074   5.656   4.008   0.897  0.5220  0.7447 -1.0999
 8418SOL    HW226075   5.497   3.995   0.861  0.2426  1.1884 -0.0686
 8419SOL     OW26076   1.709   6.983   2.134  0.2084 -0.0954 -0.1185
 8419SOL    HW126077   1.733   6.922   2.210 -0.7368 -0.1248  0.1640
 8419SOL    HW226078   1.632   6.944   2.084  0.7750 -0.0341 -1.0548
 8420SOL     OW26079   2.272   1.226   1.189 -0.3082 -0.1964  0.5955
 8420SOL    HW126080   2.314   1.265   1.271 -1.2626 -1.5315  1.7831
 8420SOL    HW226081   2.340   1.220   1.116  1.0009 -0.3994  1.7917
 8421SOL     OW26082   6.717   1.313   5.353  0.0644 -0.0998  0.3404
 8421SOL    HW126083   6.667   1.356   5.279  1.0028 -0.9173 -0.8030
 8421SOL    HW226084   6.762   1.230   5.319  0.0654 -0.7977  1.9495
 8422SOL     OW26085   1.058   3.467   3.054  0.1022  0.3804  0.2980
 8422SOL    HW126086   1.115   3.549   3.062 -1.1581  1.0840  3.9204
 8422SOL    HW226087   0.968   3.492   3.019  0.7526 -0.1440 -1.9336
 8423SOL     OW26088   6.929   3.840   3.240 -0.4774  0.2708 -0.5355
 8423SOL    HW126089   6.917   3.751   3.284 -0.0016 -0.2973 -1.5054
 8423SOL    HW226090   6.844   3.892   3.246  0.0954  1.0235  2.7027
 8424SOL     OW26091   4.559   5.524   6.880 -0.4410  0.4645 -0.4341
 8424SOL    HW126092   4.600   5.458   6.943  1.2567  0.1821 -1.7558
 8424SOL    HW226093   4.521   5.475   6.801 -0.0168  1.0153 -0.9904
 8425SOL     OW26094   3.313   5.287   1.518 -0.1109  0.0614  0.4472
 8425SOL    HW126095   3.295   5.225   1.441  3.9687  0.3130 -0.9461
 8425SOL    HW226096   3.285   5.380   1.493 -0.1144 -0.0964 -0.1548
 8426SOL     OW26097   4.332   5.876   6.067  0.3216  0.4910 -0.0439
 8426SOL    HW126098   4.348   5.963   6.115 -1.5565  1.4016 -0.9761
 8426SOL    HW226099   4.311   5.895   5.971  3.5582 -1.2600 -1.2623
 8427SOL     OW26100   4.113   5.348   1.044  0.3188  0.0634 -0.0901
 8427SOL    HW126101   4.190   5.310   1.096 -0.7489 -0.3535  1.2349
 8427SOL    HW226102   4.126   5.329   0.946  1.5739 -0.5741  0.1816
 8428SOL     OW26103   5.423   2.623   5.748  0.4891  0.3686  0.1300
 8428SOL    HW126104   5.432   2.704   5.806 -3.5433 -0.2005  1.8550
 8428SOL    HW226105   5.327   2.607   5.727  1.1275 -3.7863 -0.4587
 8429SOL     OW26106   2.818   0.249   5.572  0.0190 -0.1333 -0.4073
 8429SOL    HW126107   2.732   0.296   5.589 -0.9790 -2.1208  0.3293
 8429SOL    HW226108   2.894   0.314   5.581 -1.4419  2.0902 -2.9156
 8430SOL     OW26109   5.102   0.955   0.995 -0.3752 -0.9604  0.3287
 8430SOL    HW126110   5.004   0.959   0.974 -0.5153  0.4505  1.0590
 8430SOL    HW226111   5.120   1.009   1.078  1.1968 -0.0790 -0.5312
 8431SOL     OW26112   5.351   6.196   0.014 -0.5882 -0.4406 -0.4085
 8431SOL    HW126113   5.270   6.248  -0.011 -1.6757 -1.1768  1.3795
 8431SOL    HW226114   5.374   6.213   0.109  1.2331 -0.4149 -0.8203
 8432SOL     OW26115   6.294   1.241   4.168 -0.0581 -0.1362 -0.0033
 8432SOL    HW126116   6.346   1.223   4.084 -0.2311  0.4317 -0.2403
 8432SOL    HW226117   6.347   1.211   4.247  0.5641  0.2765 -0.2493
 8433SOL     OW26118   1.420   0.347   6.367  0.0104 -0.0445  0.0436
 8433SOL    HW126119   1.509   0.311   6.338  0.5224  1.0046  0.2697
 8433SOL    HW226120   1.347   0.295   6.323  0.7468 -0.2911 -0.9227
 8434SOL     OW26121   0.110   0.904   6.738 -0.7316  0.3961 -0.4034
 8434SOL    HW126122   0.119   0.957   6.823 -3.9431  2.6247 -1.2458
 8434SOL    HW226123   0.173   0.941   6.670 -0.4589  0.8238  0.0717
 8435SOL     OW26124   1.613   0.761   0.960  0.4504 -0.2876  0.3361
 8435SOL    HW126125   1.676   0.750   0.882 -0.2862 -0.9589 -0.1860
 8435SOL    HW226126   1.525   0.794   0.927  0.8686  1.8847  1.2065
 8436SOL     OW26127   1.233   6.043   4.341  0.0533  0.0061  0.1432
 8436SOL    HW126128   1.293   6.087   4.275  0.2946 -0.1344  0.2648
 8436SOL    HW226129   1.219   5.947   4.315  2.7605 -0.9848  1.9956
 8437SOL     OW26130   4.825   3.319   2.524  0.6830 -0.2295  0.0465
 8437SOL    HW126131   4.744   3.265   2.550 -0.0732  0.3394 -1.0155
 8437SOL    HW226132   4.795   3.406   2.485  1.8654  0.6769  1.0818
 8438SOL     OW26133   4.925   6.612   6.655 -0.4533  0.3058 -0.0681
 8438SOL    HW126134   4.892   6.624   6.749  0.0539 -0.6564  0.2530
 8438SOL    HW226135   5.019   6.579   6.657 -0.4716  0.1824 -0.9104
 8439SOL     OW26136   4.939   1.398   3.337 -0.1159  0.4956 -0.3513
 8439SOL    HW126137   4.960   1.483   3.384  0.6322  0.1306 -0.0074
 8439SOL    HW226138   5.000   1.388   3.258 -2.0025  1.5942 -2.0447
 8440SOL     OW26139   5.441   0.313   5.758  0.4568  0.3171 -0.6167
 8440SOL    HW126140   5.450   0.214   5.766 -0.2348  0.3630  1.3512
 8440SOL    HW226141   5.350   0.335   5.723 -0.6817  0.2450  2.0418
 8441SOL     OW26142   0.893   1.879   4.693  0.1986  0.2317 -0.1740
 8441SOL    HW126143   0.895   1.805   4.761  0.0593 -0.4263 -0.8651
 8441SOL    HW226144   0.802   1.882   4.651  1.1108 -1.4230 -2.5248
 8442SOL     OW26145   0.730   6.314   6.244 -0.3018 -0.3178 -0.6749
 8442SOL    HW126146   0.691   6.373   6.315 -0.3228 -0.7843 -0.2852
 8442SOL    HW226147   0.783   6.369   6.179  1.5902 -0.0967  0.9385
 8443SOL     OW26148   5.081   4.481   3.754  0.7404  0.8005 -0.1442
 8443SOL    HW126149   5.151   4.550   3.736 -0.6802  2.2658 -0.3843
 8443SOL    HW226150   5.073   4.420   3.675  1.8350  0.5206 -0.0465
 8444SOL     OW26151   4.901   0.681   0.006 -0.1276 -0.2652  0.2891
 8444SOL    HW126152   4.913   0.696  -0.092  1.3921  0.4717  0.5807
 8444SOL    HW226153   4.818   0.628   0.022 -0.8889  0.3934 -1.3258
 8445SOL     OW26154   5.347   4.909   2.641  0.2830  0.4030 -0.3309
 8445SOL    HW126155   5.336   4.868   2.731 -0.7268  0.7020 -0.2931
 8445SOL    HW226156   5.443   4.905   2.614  1.0049  2.1828  1.6908
 8446SOL     OW26157   4.851   4.999   1.797  0.0058  0.1736 -0.0361
 8446SOL    HW126158   4.853   5.098   1.783  1.1635  0.2558  0.6006
 8446SOL    HW226159   4.855   4.953   1.708 -0.2143  0.6963 -0.3220
 8447SOL     OW26160   4.211   0.461   6.868  0.0244  0.0767 -0.1506
 8447SOL    HW126161   4.116   0.469   6.899  0.4702  0.0278  1.2982
 8447SOL    HW226162   4.228   0.528   6.796 -1.3279 -0.4726 -1.0043
 8448SOL     OW26163   6.709   6.714   3.337 -0.0753  0.2640 -0.0438
 8448SOL    HW126164   6.636   6.645   3.330  0.7260 -0.6470  0.3231
 8448SOL    HW226165   6.669   6.805   3.346 -1.1826 -0.2978  0.9902
 8449SOL     OW26166   5.543   3.271   2.029  0.0876 -0.3464 -0.2154
 8449SOL    HW126167   5.490   3.334   1.972 -0.1369 -2.0819 -1.9985
 8449SOL    HW226168   5.630   3.313   2.054 -0.8191  1.3666  0.2350
 8450SOL     OW26169   2.844   1.307   5.206 -0.1383  0.2252 -0.0306
 8450SOL    HW126170   2.808   1.319   5.113  0.9673 -0.7526 -0.6178
 8450SOL    HW226171   2.942   1.288   5.201 -0.1888 -0.4616  1.3043
 8451SOL     OW26172   6.100   2.322   1.488 -0.4502 -0.5913 -0.1702
 8451SOL    HW126173   6.198   2.335   1.500 -0.5519  0.7577 -0.6508
 8451SOL    HW226174   6.070   2.242   1.539  0.3271  0.8962  2.8562
 8452SOL     OW26175   6.180   2.505   4.062  0.2084 -0.0846 -0.7534
 8452SOL    HW126176   6.134   2.540   4.144 -0.7467  0.4113 -1.4869
 8452SOL    HW226177   6.151   2.556   3.982  1.7082 -0.0542 -1.3290
 8453SOL     OW26178   2.641   4.224   0.482  0.0415 -0.5501 -0.1114
 8453SOL    HW126179   2.651   4.228   0.582  0.5882 -0.3017 -0.1709
 8453SOL    HW226180   2.643   4.129   0.452 -0.5572 -0.6486  0.1597
 8454SOL     OW26181   4.135   4.405   2.627  0.7234  0.1513  0.3670
 8454SOL    HW126182   4.149   4.359   2.539 -0.1265 -0.5054  0.5602
 8454SOL    HW226183   4.065   4.476   2.617  0.0603 -0.4470  0.6887
 8455SOL     OW26184   3.166   5.012   6.704  0.0818 -0.2853  0.2265
 8455SOL    HW126185   3.138   4.948   6.632 -0.3093  0.1790 -0.0449
 8455SOL    HW226186   3.234   4.968   6.762  0.2621 -0.7470 -0.3140
 8456SOL     OW26187   1.802   5.493   5.535  0.0534 -0.5517  0.0447
 8456SOL    HW126188   1.883   5.436   5.547  0.5195  0.1110  0.1313
 8456SOL    HW226189   1.802   5.534   5.444  0.7326  0.8005  0.6092
 8457SOL     OW26190   4.877   5.895   1.412 -0.2420 -1.1311 -0.5472
 8457SOL    HW126191   4.838   5.902   1.320 -2.1258  0.8261  0.3158
 8457SOL    HW226192   4.905   5.986   1.443 -0.9105 -1.4938  1.2893
 8458SOL     OW26193   0.129   2.522   4.287  0.4885 -0.0687  0.0208
 8458SOL    HW126194   0.119   2.435   4.335  1.4672  0.1157  0.5969
 8458SOL    HW226195   0.039   2.561   4.268  0.0705 -0.4929  1.0702
 8459SOL     OW26196   5.353   4.300   4.033  0.0026 -0.5310  0.5014
 8459SOL    HW126197   5.370   4.296   4.131 -0.3875 -0.5318  0.5742
 8459SOL    HW226198   5.424   4.356   3.989  0.2841 -0.6813  0.7546
 8460SOL     OW26199   1.859   4.038   4.756 -0.4834  0.4571 -0.4717
 8460SOL    HW126200   1.848   4.067   4.661 -0.3970  2.0269 -0.0302
 8460SOL    HW226201   1.887   4.117   4.812 -0.3023 -0.4902  0.8152
 8461SOL     OW26202   4.197   1.936   5.616  0.0015 -0.1823 -0.0617
 8461SOL    HW126203   4.217   1.866   5.685  3.4583  1.9006  1.3031
 8461SOL    HW226204   4.143   2.009   5.657 -0.7165 -0.4289 -0.5352
 8462SOL     OW26205   4.214   3.708   1.019 -0.5825  0.2042 -0.3301
 8462SOL    HW126206   4.127   3.660   1.013 -0.2040 -0.9317  2.0284
 8462SOL    HW226207   4.288   3.640   1.027  0.1834  1.1511  0.9921
 8463SOL     OW26208   6.792   1.705   6.906  0.2021 -0.1635 -0.0682
 8463SOL    HW126209   6.797   1.804   6.893 -2.2113 -0.0650 -0.6462
 8463SOL    HW226210   6.856   1.660   6.844  0.3509  0.9920 -0.7898
 8464SOL     OW26211   2.522   1.795   5.567 -0.7884  0.3692 -0.4967
 8464SOL    HW126212   2.454   1.868   5.559 -0.1608  0.8450 -1.9068
 8464SOL    HW226213   2.613   1.836   5.575 -0.6462 -0.2560  1.2319
 8465SOL     OW26214   6.682   1.025   6.956 -0.1807  0.4107 -0.1143
 8465SOL    HW126215   6.694   0.968   6.876 -0.8030  0.8011 -0.4967
 8465SOL    HW226216   6.603   1.086   6.942  0.9832  1.9939 -0.1268
 8466SOL     OW26217   6.506   0.855   5.930  0.1124 -0.3573 -0.1840
 8466SOL    HW126218   6.594   0.840   5.885  0.5354 -0.9938  0.8217
 8466SOL    HW226219   6.437   0.875   5.861  0.9854 -0.1103 -1.0133
 8467SOL     OW26220   3.533   0.199   4.498  0.2305  0.3657 -0.4703
 8467SOL    HW126221   3.475   0.261   4.445  0.7873  1.9413  0.7036
 8467SOL    HW226222   3.617   0.180   4.448 -0.5097 -0.5947 -1.4331
 8468SOL     OW26223   5.330   1.571   2.130 -0.1004  0.6905 -0.2815
 8468SOL    HW126224   5.399   1.620   2.183  1.0051  0.2574 -1.2958
 8468SOL    HW226225   5.249   1.630   2.119 -0.1697  0.9819  1.4093
 8469SOL     OW26226   1.297   4.007   1.506  0.4005 -0.0596  0.2257
 8469SOL    HW126227   1.332   3.957   1.427 -0.3808 -1.6899  0.8561
 8469SOL    HW226228   1.336   4.099   1.507 -0.1348  0.2915 -2.4715
 8470SOL     OW26229   0.914   4.780   6.960 -0.0883 -0.4828  0.4495
 8470SOL    HW126230   0.993   4.756   6.903  0.7159  0.2951  1.1964
 8470SOL    HW226231   0.905   4.713   7.035  0.2146 -0.2497  0.6700
 8471SOL     OW26232   0.510   1.254   6.614  0.1593 -0.2779 -0.2291
 8471SOL    HW126233   0.558   1.179   6.659 -1.9585 -0.6036  1.6986
 8471SOL    HW226234   0.456   1.219   6.537  0.5547 -0.4641 -0.4219
 8472SOL     OW26235   4.992   0.748   1.281  0.6414  0.5681 -0.1885
 8472SOL    HW126236   5.029   0.655   1.286 -0.8296 -0.0297 -0.0269
 8472SOL    HW226237   5.042   0.807   1.345  1.3332 -0.1939 -0.0031
 8473SOL     OW26238   2.927   5.383   2.017  0.2610  0.2686  0.4937
 8473SOL    HW126239   2.947   5.304   2.075 -1.1170 -0.9187 -0.5764
 8473SOL    HW226240   2.864   5.444   2.065 -0.5456 -0.4988  0.4366
 8474SOL     OW26241   3.577   3.285   3.549 -0.1934  0.1531  0.0930
 8474SOL    HW126242   3.594   3.344   3.470  0.2477 -0.5781 -0.3845
 8474SOL    HW226243   3.516   3.331   3.613 -0.9588  0.5765 -0.9083
 8475SOL     OW26244   3.448   5.259   3.595 -0.1689  0.4065  0.3618
 8475SOL    HW126245   3.433   5.324   3.669  0.7124  0.2810  0.6676
 8475SOL    HW226246   3.542   5.268   3.562 -0.5421  0.4320 -0.7175
 8476SOL     OW26247   4.711   5.152   4.539  0.2778  0.0770  0.0772
 8476SOL    HW126248   4.768   5.229   4.569 -1.7118  2.3906 -1.6393
 8476SOL    HW226249   4.770   5.079   4.503  2.2306  2.2089 -1.3826
 8477SOL     OW26250   4.890   3.126   5.604  0.6282 -0.0833  0.0965
 8477SOL    HW126251   4.964   3.185   5.572  0.3048  1.0902  1.3849
 8477SOL    HW226252   4.916   3.083   5.690  0.4509 -1.0136 -0.3017
 8478SOL     OW26253   0.694   2.869   4.277 -0.0619  0.5301  0.0118
 8478SOL    HW126254   0.618   2.832   4.330  1.7263 -0.7005  1.8426
 8478SOL    HW226255   0.665   2.885   4.183 -2.3134 -0.7316  0.4478
 8479SOL     OW26256   1.775   3.994   1.518  0.1374  0.1598 -0.4463
 8479SOL    HW126257   1.730   4.072   1.562 -3.7878 -1.0829 -1.8380
 8479SOL    HW226258   1.831   3.946   1.585 -0.6456  1.8036  1.4906
 8480SOL     OW26259   0.660   2.321   4.409 -0.4270 -0.3526  0.5011
 8480SOL    HW126260   0.717   2.369   4.342 -0.6937 -2.7560 -1.5968
 8480SOL    HW226261   0.592   2.385   4.446  0.5594  1.3720 -0.5284
 8481SOL     OW26262   6.833   6.398   5.507  0.0857  0.6344 -0.0690
 8481SOL    HW126263   6.766   6.473   5.507 -1.2307 -0.4756  1.0631
 8481SOL    HW226264   6.899   6.412   5.433 -1.0023  2.1239 -0.8085
 8482SOL     OW26265   0.062   0.568   5.888 -0.1840 -0.2903 -0.1291
 8482SOL    HW126266   0.001   0.604   5.959  0.8875  0.3058  0.5260
 8482SOL    HW226267   0.150   0.613   5.895  1.0798 -2.6253  0.3685
 8483SOL     OW26268   0.271   4.215   0.623  0.2311 -0.0603  0.0924
 8483SOL    HW126269   0.360   4.240   0.663 -0.4493  2.9343 -0.0868
 8483SOL    HW226270   0.278   4.214   0.523  0.3609 -1.2105  0.0969
 8484SOL     OW26271   1.876   3.016   0.676 -0.1869 -0.3695 -0.2867
 8484SOL    HW126272   1.869   3.102   0.624  0.7691 -0.7195 -1.0513
 8484SOL    HW226273   1.886   2.940   0.612  1.3384 -0.7892  0.3988
 8485SOL     OW26274   2.711   2.488   6.701 -0.0115 -0.0024 -0.2936
 8485SOL    HW126275   2.664   2.497   6.789  0.0559  0.7800 -0.3328
 8485SOL    HW226276   2.810   2.490   6.716  0.0189 -0.9614 -0.2823
 8486SOL     OW26277   0.460   0.789   0.863  0.2540  0.3824  0.2576
 8486SOL    HW126278   0.482   0.702   0.817 -1.9234 -0.2197  0.2422
 8486SOL    HW226279   0.452   0.861   0.795  0.6253  0.3030  0.1181
 8487SOL     OW26280   6.874   6.336   4.643  0.3113 -0.1732 -0.3379
 8487SOL    HW126281   6.811   6.265   4.610  0.5778 -2.0512  2.8374
 8487SOL    HW226282   6.967   6.312   4.615  0.2558 -0.3454 -0.3815
 8488SOL     OW26283   3.932   5.706   6.042  0.3691 -0.3507  0.7683
 8488SOL    HW126284   4.016   5.718   5.988  1.2819 -0.8676  2.0244
 8488SOL    HW226285   3.862   5.770   6.009  0.6784 -1.0761 -1.4113
 8489SOL     OW26286   5.591   1.466   2.631 -0.2650  0.0279  0.0610
 8489SOL    HW126287   5.494   1.474   2.656 -0.3010 -0.9148  0.2788
 8489SOL    HW226288   5.637   1.405   2.696  0.4290  0.3109 -0.1574
 8490SOL     OW26289   1.618   5.709   2.428  0.1000  0.2064 -0.1258
 8490SOL    HW126290   1.614   5.794   2.481 -2.5592  0.8549 -1.1647
 8490SOL    HW226291   1.641   5.729   2.333 -0.8653 -0.1484 -0.4508
 8491SOL     OW26292   0.954   6.959   4.209 -0.2750 -0.2902  0.4188
 8491SOL    HW126293   0.916   6.917   4.127  0.8062 -0.4614 -0.0114
 8491SOL    HW226294   0.880   6.993   4.267 -1.1055 -1.2987 -0.0228
 8492SOL     OW26295   0.745   0.117   5.143 -0.0760 -0.1452  0.4835
 8492SOL    HW126296   0.731   0.148   5.237  1.8333  1.3205  0.3408
 8492SOL    HW226297   0.709   0.185   5.079  1.6362  0.5546  0.1846
 8493SOL     OW26298   1.047   2.520   2.885  0.2352 -0.0750  0.5843
 8493SOL    HW126299   1.018   2.430   2.917 -1.2488  0.0115 -0.4199
 8493SOL    HW226300   0.978   2.588   2.911  2.6250  1.3776  3.8522
 8494SOL     OW26301   3.229   4.383   3.075  1.1889 -0.0407  0.8283
 8494SOL    HW126302   3.248   4.468   3.124  1.4060 -0.2188  1.0567
 8494SOL    HW226303   3.131   4.367   3.073  1.0981  0.5874  0.1587
 8495SOL     OW26304   3.036   6.136   3.104  0.3704 -1.3583  0.0361
 8495SOL    HW126305   3.113   6.073   3.118 -0.8002 -2.8693 -0.0033
 8495SOL    HW226306   3.006   6.132   3.009  1.8970  1.2481 -0.6195
 8496SOL     OW26307   0.353   6.415   5.931 -0.1658 -0.4906 -0.1921
 8496SOL    HW126308   0.278   6.402   5.866  1.2703 -1.1935 -1.7874
 8496SOL    HW226309   0.395   6.505   5.915 -0.0662 -0.4919  0.0545
 8497SOL     OW26310   6.697   2.006   3.328 -0.4433 -0.1151 -0.4204
 8497SOL    HW126311   6.788   2.025   3.292 -0.0601 -1.9745 -0.5273
 8497SOL    HW226312   6.703   1.936   3.399 -1.6000  1.0198  0.8527
 8498SOL     OW26313   2.822   0.234   6.653 -0.1517  0.5989 -0.4526
 8498SOL    HW126314   2.833   0.177   6.572 -3.3641  1.6696 -1.8598
 8498SOL    HW226315   2.907   0.283   6.671  0.0330  2.6081 -5.1066
 8499SOL     OW26316   1.442   5.952   4.986 -0.0483 -0.3523 -0.4689
 8499SOL    HW126317   1.433   6.019   5.060 -1.3552 -0.6399 -0.3469
 8499SOL    HW226318   1.537   5.921   4.981  0.4583  1.0760 -0.1614
 8500SOL     OW26319   3.625   0.159   1.242  0.0571 -0.0667 -0.3355
 8500SOL    HW126320   3.682   0.138   1.162 -0.4121 -0.4532 -0.5700
 8500SOL    HW226321   3.656   0.245   1.283  0.4092  0.0474 -0.8331
 8501SOL     OW26322   0.944   3.800   4.218 -0.2311 -0.2396 -0.0558
 8501SOL    HW126323   0.888   3.718   4.235 -1.0548  0.6776  1.9664
 8501SOL    HW226324   1.039   3.781   4.244  0.0665 -1.1990 -1.6869
 8502SOL     OW26325   0.202   3.446   6.416 -0.1642 -0.1589 -0.5801
 8502SOL    HW126326   0.126   3.412   6.470  0.0648  0.2386  0.0025
 8502SOL    HW226327   0.280   3.385   6.425  0.1411  0.3256  0.2030
 8503SOL     OW26328   3.587   5.832   1.148 -0.5527  0.2145  0.6023
 8503SOL    HW126329   3.610   5.745   1.192  0.4920  0.4899  0.6334
 8503SOL    HW226330   3.649   5.849   1.072 -0.6825  0.9845  0.6572
 8504SOL     OW26331   4.646   2.875   5.199  0.5007  0.0060 -0.4965
 8504SOL    HW126332   4.658   2.941   5.274 -1.5564  1.1019 -1.0597
 8504SOL    HW226333   4.724   2.882   5.137  0.3316  2.0040 -0.5651
 8505SOL     OW26334   0.269   5.947   5.217 -0.1042 -0.0557  0.1749
 8505SOL    HW126335   0.332   5.996   5.157  0.0593  0.7506  0.9834
 8505SOL    HW226336   0.319   5.877   5.269 -0.4256 -1.4986 -1.3567
 8506SOL     OW26337   0.630   2.867   5.057  0.6130  0.5029  0.8218
 8506SOL    HW126338   0.712   2.812   5.046 -0.9529 -1.9269  0.8263
 8506SOL    HW226339   0.570   2.825   5.125 -2.1985  0.2301 -1.6160
 8507SOL     OW26340   1.256   6.267   3.915  0.3912 -0.3177  0.4145
 8507SOL    HW126341   1.175   6.326   3.908  0.1020 -0.7450  0.0230
 8507SOL    HW226342   1.227   6.171   3.903  0.7951 -0.5713  1.3753
 8508SOL     OW26343   3.767   6.289   1.689  0.2221  0.2380  0.2423
 8508SOL    HW126344   3.804   6.198   1.707 -1.9342 -1.2525 -2.1164
 8508SOL    HW226345   3.680   6.300   1.737 -0.8613 -0.0800 -1.5634
 8509SOL     OW26346   4.901   3.335   1.178 -0.2385 -0.1724 -0.2252
 8509SOL    HW126347   4.949   3.249   1.198 -1.6333 -1.0999 -0.6903
 8509SOL    HW226348   4.803   3.317   1.170 -0.2021  0.5078 -5.1309
 8510SOL     OW26349   2.749   4.827   6.368  0.1546  0.5505  0.4599
 8510SOL    HW126350   2.784   4.903   6.422 -2.0597  1.4997  0.6885
 8510SOL    HW226351   2.683   4.775   6.423  0.1673 -0.3363 -0.3458
 8511SOL     OW26352   4.544   5.190   6.047  0.3581 -0.1551  0.6581
 8511SOL    HW126353   4.526   5.092   6.045  2.0201 -0.4764 -0.8535
 8511SOL    HW226354   4.528   5.228   5.956  0.8086  0.7739  0.9563
 8512SOL     OW26355   3.186   5.406   6.894 -0.4453 -0.2445  0.0471
 8512SOL    HW126356   3.157   5.357   6.812 -0.2103 -1.6718  0.7867
 8512SOL    HW226357   3.252   5.351   6.945 -0.5491  0.6253  1.1694
 8513SOL     OW26358   0.661   0.179   3.550  0.1899 -0.3060 -0.1179
 8513SOL    HW126359   0.564   0.176   3.529  0.3205  0.1827 -0.8303
 8513SOL    HW226360   0.710   0.115   3.491  0.3703 -0.1143 -0.1813
 8514SOL     OW26361   0.673   4.928   6.958  0.1986 -0.3119 -0.2093
 8514SOL    HW126362   0.701   4.981   6.879 -1.3380  0.1796 -0.4604
 8514SOL    HW226363   0.748   4.867   6.986  0.7752 -0.4818 -2.0281
 8515SOL     OW26364   4.125   2.486   6.418 -0.0690  0.1099 -0.8011
 8515SOL    HW126365   4.183   2.520   6.344 -1.6304  0.6754 -1.8119
 8515SOL    HW226366   4.049   2.434   6.379 -0.1437 -0.8141  0.5010
 8516SOL     OW26367   2.921   1.029   2.526  0.4556 -0.3980  0.1120
 8516SOL    HW126368   2.874   1.011   2.613  0.6933  1.6656  0.7225
 8516SOL    HW226369   2.853   1.052   2.457  0.3613 -0.6795  0.1069
 8517SOL     OW26370   0.287   0.009   4.080 -0.1119  0.3406 -0.3785
 8517SOL    HW126371   0.196   0.050   4.076 -0.0259  0.7564  1.2125
 8517SOL    HW226372   0.286  -0.068   4.144  0.9199  1.1401  0.6019
 8518SOL     OW26373   0.810   5.206   4.047 -0.2270 -0.2462 -0.0304
 8518SOL    HW126374   0.897   5.166   4.074  0.5433  0.5839 -1.1989
 8518SOL    HW226375   0.804   5.300   4.078 -0.5292 -0.1688 -0.3120
 8519SOL     OW26376   6.543   5.278   5.679  0.0098 -0.1562 -0.3865
 8519SOL    HW126377   6.530   5.279   5.580 -1.3180  0.0595 -0.2236
 8519SOL    HW226378   6.542   5.183   5.712  0.7741 -0.2501 -0.6078
 8520SOL     OW26379   2.182   4.696   4.832  0.4070 -0.3874  0.2909
 8520SOL    HW126380   2.251   4.717   4.763 -0.0525 -0.9830 -0.3625
 8520SOL    HW226381   2.225   4.690   4.922  1.1887 -0.6311 -0.0890
 8521SOL     OW26382   6.703   1.320   6.422 -0.0654 -0.0751  0.4803
 8521SOL    HW126383   6.768   1.336   6.497  0.1364 -0.3317  0.3620
 8521SOL    HW226384   6.753   1.319   6.335 -0.5124  1.9981  0.1386
 8522SOL     OW26385   0.674   2.896   1.092 -0.4633 -0.4228 -0.5418
 8522SOL    HW126386   0.748   2.873   1.156  0.8120  2.0257 -0.9899
 8522SOL    HW226387   0.649   2.815   1.039  1.5634 -1.4529 -0.0272
 8523SOL     OW26388   3.471   5.386   3.833  0.0566  0.0225  1.3546
 8523SOL    HW126389   3.500   5.480   3.814  1.0823 -0.2662  1.4742
 8523SOL    HW226390   3.394   5.388   3.897  0.5551  0.7689  1.9592
 8524SOL     OW26391   3.891   1.159   0.091  0.7040  0.1525 -0.0059
 8524SOL    HW126392   3.939   1.231   0.040  1.4285  0.1823  0.6863
 8524SOL    HW226393   3.938   1.072   0.078  1.6207  0.3685  1.5072
 8525SOL     OW26394   4.978   6.109   2.709 -0.6196 -0.3259  0.4015
 8525SOL    HW126395   4.935   6.179   2.766 -1.2508  0.5864 -1.1505
 8525SOL    HW226396   4.920   6.028   2.707 -1.2773  0.1426 -0.0204
 8526SOL     OW26397   6.627   1.860   5.012  0.2535 -0.7400 -0.2287
 8526SOL    HW126398   6.585   1.878   5.101  1.6983 -1.1557  0.5772
 8526SOL    HW226399   6.614   1.940   4.953 -1.8666 -0.9523 -0.1507
 8527SOL     OW26400   2.363   0.125   4.274 -0.3556 -0.4727  0.2253
 8527SOL    HW126401   2.421   0.062   4.223 -0.5613 -0.7529  0.3340
 8527SOL    HW226402   2.267   0.110   4.250 -0.4183 -0.3037  0.3647
 8528SOL     OW26403   6.208   3.069   5.084 -0.1596  0.4843  0.3563
 8528SOL    HW126404   6.123   3.040   5.128 -0.1896  0.4291  0.2650
 8528SOL    HW226405   6.269   2.990   5.075 -0.0778  0.5348  0.4683
 8529SOL     OW26406   6.178   0.722   5.918 -0.3553  0.0413 -0.1606
 8529SOL    HW126407   6.174   0.652   5.989  0.8955 -0.7408 -0.8277
 8529SOL    HW226408   6.257   0.706   5.859 -0.5129  1.5474 -0.8295
 8530SOL     OW26409   4.854   0.959   5.491 -0.3666  0.5508  0.2557
 8530SOL    HW126410   4.792   0.885   5.517  2.0503 -0.7153  2.8436
 8530SOL    HW226411   4.871   1.018   5.570  2.1382  0.5190 -0.2009
 8531SOL     OW26412   6.611   4.416   5.119  0.3350 -0.6494  0.0576
 8531SOL    HW126413   6.617   4.410   5.019  2.5240  1.5218 -0.0399
 8531SOL    HW226414   6.529   4.467   5.144  0.4220 -0.0979 -0.7132
 8532SOL     OW26415   2.051   0.384   4.754  0.3641  0.1878  0.2709
 8532SOL    HW126416   2.133   0.328   4.747 -0.8218 -1.6876  0.8373
 8532SOL    HW226417   1.974   0.336   4.714 -0.8160  1.1665  1.2891
 8533SOL     OW26418   6.034   4.018   0.777 -0.0056  0.2431  0.5672
 8533SOL    HW126419   6.065   4.015   0.872  0.5008  0.6172  0.4173
 8533SOL    HW226420   5.937   4.042   0.774 -0.9279 -2.9061  1.1682
 8534SOL     OW26421   0.792   4.175   4.560 -0.3395 -0.0744 -0.3142
 8534SOL    HW126422   0.696   4.151   4.547 -0.6371  1.1944 -0.6483
 8534SOL    HW226423   0.831   4.203   4.472 -0.1451  1.0320  0.1068
 8535SOL     OW26424   3.929   6.553   2.878  0.5604 -0.0339 -0.6009
 8535SOL    HW126425   3.977   6.640   2.863 -1.4450  0.7633 -3.0577
 8535SOL    HW226426   3.944   6.492   2.800 -0.6389 -0.6191 -0.3986
 8536SOL     OW26427   4.597   0.533   1.614 -0.4777 -0.5904  0.3496
 8536SOL    HW126428   4.544   0.616   1.595 -1.3646 -1.0953  0.5505
 8536SOL    HW226429   4.655   0.512   1.536 -1.0544 -0.3852 -0.1451
 8537SOL     OW26430   1.129   1.611   3.925 -0.2916  0.3728 -0.1345
 8537SOL    HW126431   1.107   1.676   3.998 -0.8579  0.2009 -0.1421
 8537SOL    HW226432   1.059   1.617   3.854  0.6763  1.1004 -1.0397
 8538SOL     OW26433   6.353   6.563   5.252 -0.4633  0.5244  0.3747
 8538SOL    HW126434   6.269   6.509   5.259  1.1002 -2.0103  1.4318
 8538SOL    HW226435   6.395   6.550   5.162 -0.0580 -0.0894  0.6489
 8539SOL     OW26436   4.408   1.546   1.638 -0.0821 -0.7311 -0.8592
 8539SOL    HW126437   4.496   1.507   1.612 -0.7714 -2.8642 -0.2859
 8539SOL    HW226438   4.343   1.536   1.562 -0.0090  0.2914 -1.0714
 8540SOL     OW26439   2.240   0.687   5.629  0.1630 -0.2844  0.6792
 8540SOL    HW126440   2.230   0.743   5.546  0.7127  0.6991  1.2596
 8540SOL    HW226441   2.252   0.591   5.603 -1.7639 -0.2957 -0.3091
 8541SOL     OW26442   1.354   5.280   3.773 -0.2551  0.0641  0.2260
 8541SOL    HW126443   1.358   5.326   3.684  0.0536 -1.1872 -0.4317
 8541SOL    HW226444   1.447   5.266   3.807 -0.4154  1.8936  1.4841
 8542SOL     OW26445   0.655   2.159   5.856 -0.2237 -0.1105  0.2415
 8542SOL    HW126446   0.598   2.171   5.937  0.0474 -1.6278  0.6969
 8542SOL    HW226447   0.642   2.066   5.819  2.6190 -0.8896  0.9405
 8543SOL     OW26448   6.164   0.346   1.061 -0.1677  0.5589  0.4380
 8543SOL    HW126449   6.156   0.265   1.119  0.4187  0.8807  0.9834
 8543SOL    HW226450   6.208   0.420   1.112 -1.7882  1.6412  0.3931
 8544SOL     OW26451   4.077   3.512   5.782  0.2235 -0.1380 -1.1991
 8544SOL    HW126452   4.176   3.510   5.796 -0.1490 -0.4903  2.3745
 8544SOL    HW226453   4.044   3.606   5.789  0.2172 -0.1232 -1.4313
 8545SOL     OW26454   1.265   0.599   3.131 -0.3292  0.4958  0.0396
 8545SOL    HW126455   1.309   0.595   3.221 -0.0880  2.0729  0.0058
 8545SOL    HW226456   1.170   0.567   3.140 -0.0906 -0.0609  0.6966
 8546SOL     OW26457   4.229   6.884   3.568  0.0840  0.3316  0.1392
 8546SOL    HW126458   4.259   6.836   3.650 -0.7121 -0.0917  0.1857
 8546SOL    HW226459   4.133   6.910   3.578 -0.0482  0.1759 -0.7076
 8547SOL     OW26460   4.537   5.113   5.092  0.1786 -0.0877 -0.2569
 8547SOL    HW126461   4.530   5.209   5.118  1.5427  0.2566 -1.0673
 8547SOL    HW226462   4.600   5.066   5.154 -2.0406 -0.9982  1.4360
 8548SOL     OW26463   0.121   1.557   6.396 -0.3442 -0.4487  0.2897
 8548SOL    HW126464   0.147   1.496   6.470 -0.8697  0.6778  1.4347
 8548SOL    HW226465   0.025   1.585   6.407  0.0150  0.9681  0.0846
 8549SOL     OW26466   5.142   4.244   1.424  0.0008 -0.9744  0.2199
 8549SOL    HW126467   5.056   4.260   1.375  0.9052  1.1387 -0.8208
 8549SOL    HW226468   5.191   4.169   1.381  0.6904  0.7162 -2.1436
 8550SOL     OW26469   5.288   4.720   4.196 -0.0155 -0.0718  0.0131
 8550SOL    HW126470   5.304   4.663   4.116  1.4651  1.2194 -0.6627
 8550SOL    HW226471   5.262   4.812   4.166 -0.1104  0.2419  1.0305
 8551SOL     OW26472   3.082   1.124   2.260  0.4060  0.4935  0.0173
 8551SOL    HW126473   3.118   1.077   2.180  0.3430  2.1761 -1.0728
 8551SOL    HW226474   2.989   1.155   2.240 -0.0999 -0.1918  1.2455
 8552SOL     OW26475   0.801   3.896   1.887 -0.1404 -0.0944  0.2632
 8552SOL    HW126476   0.857   3.973   1.858 -0.4096 -0.3223 -0.8953
 8552SOL    HW226477   0.706   3.924   1.894 -0.0963 -0.0732  0.8196
 8553SOL     OW26478   7.012   1.501   6.961  0.8034 -0.1774  1.0478
 8553SOL    HW126479   7.084   1.568   6.979  1.2902 -0.3711 -0.0646
 8553SOL    HW226480   6.957   1.487   7.043  0.0784  2.3154  1.0198
 8554SOL     OW26481   2.603   6.860   1.460  0.0897  0.1120  0.2500
 8554SOL    HW126482   2.618   6.764   1.484  3.5175  0.8490  1.5465
 8554SOL    HW226483   2.582   6.912   1.543 -1.2497  0.6049 -0.3720
 8555SOL     OW26484   3.925   0.497   4.772 -0.0788 -0.1387  0.0630
 8555SOL    HW126485   3.876   0.577   4.807  0.9997  0.1780  0.8781
 8555SOL    HW226486   3.873   0.414   4.794 -0.4021  0.2121  0.6557
 8556SOL     OW26487   0.625   1.374   1.051 -0.2575 -0.7602 -0.3467
 8556SOL    HW126488   0.547   1.422   1.011 -0.7394  0.0179  1.4375
 8556SOL    HW226489   0.625   1.278   1.022 -0.9242 -0.3789 -1.6602
 8557SOL     OW26490   6.506   6.077   4.776 -0.1092 -0.0607  0.1272
 8557SOL    HW126491   6.481   5.981   4.774  2.0386 -0.7072 -3.0248
 8557SOL    HW226492   6.424   6.134   4.771 -1.3386 -1.7085  0.8262
 8558SOL     OW26493   5.900   2.192   2.393  0.0265  0.0372 -0.0044
 8558SOL    HW126494   5.941   2.114   2.347 -0.0865 -0.2907  0.4492
 8558SOL    HW226495   5.801   2.179   2.400 -0.1241  0.6399 -0.7329
 8559SOL     OW26496   5.322   2.982   6.197  0.3183  0.6669 -0.2859
 8559SOL    HW126497   5.240   2.990   6.254  0.4310 -1.0479  0.1760
 8559SOL    HW226498   5.361   2.890   6.208  1.2985  0.8642 -1.8496
 8560SOL     OW26499   5.398   3.057   5.681 -0.0256  0.0344 -0.8653
 8560SOL    HW126500   5.356   3.082   5.594  1.9243 -0.7289 -2.1165
 8560SOL    HW226501   5.497   3.054   5.670  0.2062 -1.5537  1.0191
 8561SOL     OW26502   4.245   6.019   5.093 -0.1287 -0.3676 -0.1619
 8561SOL    HW126503   4.257   6.104   5.041  0.2613 -0.1165  0.3289
 8561SOL    HW226504   4.149   6.008   5.117 -0.1503  0.0487 -0.0490
 8562SOL     OW26505   1.982   6.585   1.233 -0.3878  0.3556  0.4150
 8562SOL    HW126506   1.962   6.577   1.330  1.4576  1.4849  0.9593
 8562SOL    HW226507   2.010   6.679   1.213  0.0306 -0.0503 -1.0465
 8563SOL     OW26508   5.102   0.060   2.436 -0.0042 -0.4999  0.3535
 8563SOL    HW126509   5.186   0.030   2.482  0.9546  1.2051 -0.2150
 8563SOL    HW226510   5.099   0.020   2.345  0.0432 -0.7902  0.4763
 8564SOL     OW26511   0.916   2.698   4.310 -0.0849 -0.4498 -0.2691
 8564SOL    HW126512   0.995   2.755   4.335 -0.1344 -0.8598  0.8924
 8564SOL    HW226513   0.832   2.751   4.321 -0.0158 -0.2077 -0.8711
 8565SOL     OW26514   5.120   1.709   1.354 -0.1901  0.0649 -0.4035
 8565SOL    HW126515   5.089   1.791   1.305 -1.3267 -0.7836 -1.1858
 8565SOL    HW226516   5.197   1.668   1.305  0.6785  0.8905  0.2386
 8566SOL     OW26517   5.838   5.783   1.863 -0.0929  0.3528  0.0442
 8566SOL    HW126518   5.882   5.714   1.805  0.3755  1.6684 -1.2195
 8566SOL    HW226519   5.899   5.806   1.939  0.1034 -0.0232  0.0070
 8567SOL     OW26520   6.186   2.170   2.835 -0.0088  0.1025  0.0876
 8567SOL    HW126521   6.258   2.203   2.895 -0.0396  0.2208  0.0620
 8567SOL    HW226522   6.202   2.203   2.742 -0.4850  0.7504  0.2223
 8568SOL     OW26523   2.303   1.655   6.029 -0.1093 -0.4624 -0.4753
 8568SOL    HW126524   2.333   1.582   5.967 -0.7839 -0.3101 -0.9930
 8568SOL    HW226525   2.335   1.743   5.995  2.1485 -0.6233  1.0330
 8569SOL     OW26526   3.136   6.602   5.352  0.2258 -0.2269  0.1602
 8569SOL    HW126527   3.149   6.690   5.307 -0.0939  0.1209  0.7323
 8569SOL    HW226528   3.142   6.614   5.451 -0.2701 -0.7622  0.2645
 8570SOL     OW26529   5.527   7.011   5.390 -0.0064 -0.2034 -0.1297
 8570SOL    HW126530   5.589   7.008   5.468  3.1117  0.7906 -2.3497
 8570SOL    HW226531   5.494   6.918   5.370 -0.3949 -0.5111  1.8996
 8571SOL     OW26532   1.687   1.415   3.055 -0.2330 -0.4490 -0.0681
 8571SOL    HW126533   1.610   1.423   2.992 -0.3232  1.1444  0.1878
 8571SOL    HW226534   1.682   1.328   3.103 -0.8742 -1.1356 -1.3336
 8572SOL     OW26535   6.004   4.698   3.699 -0.6784 -0.1688  0.2710
 8572SOL    HW126536   6.031   4.607   3.667  0.1037  0.3385 -0.5582
 8572SOL    HW226537   5.921   4.726   3.651  0.5358  0.6279 -1.4799
 8573SOL     OW26538   6.112   2.429   0.620 -0.0875  0.0967 -0.2302
 8573SOL    HW126539   6.199   2.386   0.597 -0.0278  1.1751 -2.1718
 8573SOL    HW226540   6.061   2.449   0.537 -2.6563 -1.3217  0.8543
 8574SOL     OW26541   1.564   0.576   4.854  0.1740 -0.7503  0.4292
 8574SOL    HW126542   1.492   0.511   4.879 -0.9277  0.2371 -0.0972
 8574SOL    HW226543   1.619   0.597   4.934  0.3366 -2.0722  0.6803
 8575SOL     OW26544   3.085   4.777   1.694 -0.4371  0.5170 -0.0045
 8575SOL    HW126545   3.145   4.723   1.635 -1.9430  0.2519 -1.3559
 8575SOL    HW226546   3.087   4.739   1.787  0.0992 -0.5898 -0.4535
 8576SOL     OW26547   1.008   2.936   3.965  0.6083 -0.1446 -0.5137
 8576SOL    HW126548   1.106   2.933   3.945  0.7476  1.4783 -0.2541
 8576SOL    HW226549   0.974   3.029   3.950 -1.5304 -1.2622 -3.3435
 8577SOL     OW26550   1.030   0.845   0.936  0.0250 -0.1543 -0.3954
 8577SOL    HW126551   0.952   0.782   0.930 -1.6106  1.7121  0.3206
 8577SOL    HW226552   1.089   0.817   1.012 -0.7799 -0.7335  0.0364
 8578SOL     OW26553   6.300   5.198   1.814 -0.0389 -0.1929 -0.2711
 8578SOL    HW126554   6.370   5.176   1.746  1.7181 -0.5502  1.5346
 8578SOL    HW226555   6.260   5.287   1.793  2.0719  0.7478 -0.5639
 8579SOL     OW26556   0.953   0.862   6.969  0.3450 -0.4767  0.2433
 8579SOL    HW126557   0.892   0.941   6.972  1.4738  0.4046  0.6079
 8579SOL    HW226558   0.973   0.839   6.873  1.8815  1.2086  0.0912
 8580SOL     OW26559   3.581   5.025   4.543 -0.0046 -0.0328 -0.0772
 8580SOL    HW126560   3.487   5.006   4.570 -0.2132  1.0267  0.0155
 8580SOL    HW226561   3.582   5.101   4.478  0.8356  0.4606  0.4848
 8581SOL     OW26562   3.334   0.437   2.071 -0.7659 -0.2408  0.1662
 8581SOL    HW126563   3.280   0.473   1.995  0.5631 -0.8915 -1.1017
 8581SOL    HW226564   3.406   0.502   2.095 -0.0586 -0.8371 -0.3292
 8582SOL     OW26565   1.513   4.488   4.197  0.2925 -0.1923  0.1922
 8582SOL    HW126566   1.506   4.414   4.131  1.2117 -0.4145  0.3459
 8582SOL    HW226567   1.452   4.468   4.275  0.7789 -0.9595  0.3930
 8583SOL     OW26568   4.004   3.522   6.604 -0.3606 -0.2959  0.0876
 8583SOL    HW126569   4.037   3.569   6.685 -1.2270 -0.1170  0.3391
 8583SOL    HW226570   4.029   3.425   6.610  0.0406 -0.1827  0.3097
 8584SOL     OW26571   6.174   3.356   5.855  0.4169 -0.1325  0.1405
 8584SOL    HW126572   6.107   3.426   5.880  0.4419  0.2475 -0.7849
 8584SOL    HW226573   6.231   3.334   5.934  0.0668  0.5142  0.5846
 8585SOL     OW26574   3.278   3.612   6.423  0.2521 -0.0685  0.5360
 8585SOL    HW126575   3.375   3.622   6.401  0.2635 -0.3588  0.4464
 8585SOL    HW226576   3.237   3.545   6.361 -0.2410  0.8002 -0.1004
 8586SOL     OW26577   5.760   4.977   5.693  0.3372 -0.0128  0.4051
 8586SOL    HW126578   5.711   4.925   5.763 -0.4378  1.4528  0.9898
 8586SOL    HW226579   5.818   5.045   5.736  0.7653  0.1198 -0.3608
 8587SOL     OW26580   4.746   1.377   5.440 -0.2670  0.1524 -0.3043
 8587SOL    HW126581   4.744   1.423   5.529  0.2889  0.6499 -0.5315
 8587SOL    HW226582   4.837   1.389   5.399  0.4771 -2.5851  0.3528
 8588SOL     OW26583   4.500   5.127   5.483  0.8000 -0.0486 -0.9239
 8588SOL    HW126584   4.415   5.087   5.450  0.5190  0.0646 -0.3381
 8588SOL    HW226585   4.507   5.221   5.450 -0.0270  0.4513  0.2563
 8589SOL     OW26586   0.042   6.888   0.963  0.6411  0.4044 -0.0595
 8589SOL    HW126587   0.089   6.829   1.030  2.4563  1.2395 -0.5470
 8589SOL    HW226588  -0.017   6.831   0.906 -0.0864 -0.4840  1.5064
 8590SOL     OW26589   4.399   2.684   2.257 -0.3580  0.2013 -0.0053
 8590SOL    HW126590   4.340   2.723   2.328 -1.6463 -0.4807 -0.6643
 8590SOL    HW226591   4.494   2.703   2.279 -0.8694  3.2608  0.0297
 8591SOL     OW26592   5.626   1.441   6.776  0.4210 -0.3479 -0.6006
 8591SOL    HW126593   5.668   1.469   6.690  0.0379  0.4368 -0.5428
 8591SOL    HW226594   5.632   1.342   6.785  1.9322 -0.2930 -0.7618
 8592SOL     OW26595   5.927   4.078   4.453 -0.2142 -0.0575  0.6209
 8592SOL    HW126596   5.883   4.161   4.487  2.3763  1.0821  1.3650
 8592SOL    HW226597   5.961   4.095   4.360 -0.0651 -0.4345  0.6057
 8593SOL     OW26598   5.358   5.319   2.357 -0.3942  0.1664  0.6342
 8593SOL    HW126599   5.368   5.278   2.448  0.0383 -1.5184 -0.1517
 8593SOL    HW226600   5.272   5.291   2.317  0.9422 -2.0491 -0.8869
 8594SOL     OW26601   3.723   1.263   2.572 -0.4852 -0.5284 -0.5505
 8594SOL    HW126602   3.668   1.188   2.534 -1.1332 -0.5378  0.3819
 8594SOL    HW226603   3.722   1.340   2.507  0.7087 -1.5197 -1.8095
 8595SOL     OW26604   1.050   2.846   1.514 -0.5506  0.1418 -0.2608
 8595SOL    HW126605   1.017   2.932   1.554  1.1501  0.2949  0.8801
 8595SOL    HW226606   1.086   2.864   1.422  0.6057  0.8406  0.3111
 8596SOL     OW26607   0.623   5.197   5.451 -0.2017  0.8319 -0.5809
 8596SOL    HW126608   0.647   5.178   5.547  0.2534  0.1868 -0.8166
 8596SOL    HW226609   0.538   5.250   5.449 -0.5489  0.3461  0.1707
 8597SOL     OW26610   4.734   5.965   3.521 -0.5045 -0.1774 -0.1552
 8597SOL    HW126611   4.741   5.962   3.621 -2.8067 -0.6617  0.0494
 8597SOL    HW226612   4.818   6.001   3.482  0.7857 -0.8696  1.9015
 8598SOL     OW26613   1.869   1.724   3.712  0.1791  0.2608 -0.0770
 8598SOL    HW126614   1.855   1.795   3.643  1.1717  0.7637  0.2009
 8598SOL    HW226615   1.898   1.766   3.797 -0.2212 -0.4070  0.4095
 8599SOL     OW26616   6.388   0.152   0.698 -0.6242 -0.1399  0.2849
 8599SOL    HW126617   6.303   0.204   0.702 -1.4222 -1.3215 -0.7973
 8599SOL    HW226618   6.464   0.213   0.677 -1.3480  0.7828  0.3328
 8600SOL     OW26619   5.021   5.250   5.098  0.0905 -0.0471 -0.0079
 8600SOL    HW126620   5.016   5.153   5.072  1.3797 -0.4108  0.9983
 8600SOL    HW226621   5.057   5.258   5.191  0.1067  1.4175 -0.1132
 8601SOL     OW26622   1.669   6.768   1.006  0.0894  0.0611 -0.3358
 8601SOL    HW126623   1.663   6.736   1.101  0.5488 -1.3169 -0.7547
 8601SOL    HW226624   1.650   6.691   0.944  1.7428  0.4574 -1.3954
 8602SOL     OW26625   5.968   0.553   4.403 -0.4017  0.6604 -0.1988
 8602SOL    HW126626   5.962   0.631   4.340 -1.6619  0.7325 -0.0243
 8602SOL    HW226627   6.016   0.478   4.358  3.3453  2.3878  0.5563
 8603SOL     OW26628   4.170   6.625   6.834  0.4142 -0.0667  0.0825
 8603SOL    HW126629   4.136   6.671   6.916  0.1297 -0.9426  0.4681
 8603SOL    HW226630   4.171   6.526   6.849  1.4766 -0.1685 -0.5559
 8604SOL     OW26631   4.203   5.714   1.131  0.3287  0.2173  0.1447
 8604SOL    HW126632   4.301   5.723   1.114  0.0475  1.2099 -1.1217
 8604SOL    HW226633   4.184   5.734   1.228  1.1525  2.0800 -0.0293
 8605SOL     OW26634   3.304   1.118   1.861 -0.6754 -0.1456 -0.2732
 8605SOL    HW126635   3.364   1.161   1.930  0.2713  0.6955 -1.5577
 8605SOL    HW226636   3.327   1.022   1.853  0.3410  0.1097 -0.5701
 8606SOL     OW26637   0.093   5.914   5.984  0.4643 -0.4575  0.4577
 8606SOL    HW126638   0.104   5.894   5.886 -0.1992 -0.5647  0.4035
 8606SOL    HW226639   0.058   6.007   5.995  0.9015 -0.3029  0.6169
 8607SOL     OW26640   0.143   4.191   1.165  0.6122 -0.6102 -0.2864
 8607SOL    HW126641   0.100   4.257   1.226  0.4273 -1.2616  0.2909
 8607SOL    HW226642   0.072   4.140   1.116  0.7584  0.3086 -1.4952
 8608SOL     OW26643   1.500   2.021   2.225  0.1088  0.1042 -0.1614
 8608SOL    HW126644   1.423   1.959   2.205 -1.1598  1.7289 -0.5125
 8608SOL    HW226645   1.508   2.032   2.324 -0.7695  0.7048 -0.1480
 8609SOL     OW26646   4.634   3.288   1.263  0.4149 -0.9283 -1.0493
 8609SOL    HW126647   4.668   3.196   1.283 -1.1934 -1.0201  1.7140
 8609SOL    HW226648   4.540   3.281   1.228 -0.1068 -0.3432  0.1768
 8610SOL     OW26649   0.621   4.343   1.144  1.0314  0.1161  0.4497
 8610SOL    HW126650   0.680   4.299   1.212  1.7355  1.6043  0.8335
 8610SOL    HW226651   0.548   4.392   1.190  0.1895 -0.7211  0.0191
 8611SOL     OW26652   6.949   1.349   4.460 -0.1220  0.0232  0.3938
 8611SOL    HW126653   6.936   1.278   4.391 -1.1393 -0.4556  1.0466
 8611SOL    HW226654   7.046   1.352   4.486 -0.0846 -1.1606  0.3773
 8612SOL     OW26655   3.210   2.628   6.043 -0.3932 -0.0512 -0.4188
 8612SOL    HW126656   3.271   2.687   5.991  0.2511  0.4424  0.8452
 8612SOL    HW226657   3.134   2.598   5.985 -0.3426  1.4177 -1.2869
 8613SOL     OW26658   3.926   1.627   3.542 -0.3133  0.3759  0.1966
 8613SOL    HW126659   3.926   1.720   3.580 -1.4626 -0.0270  1.2624
 8613SOL    HW226660   3.851   1.575   3.584  0.3122 -1.0270 -0.3911
 8614SOL     OW26661   5.706   2.306   2.829  0.0184 -0.4597 -0.3001
 8614SOL    HW126662   5.803   2.327   2.838 -0.2965  1.9006 -1.7793
 8614SOL    HW226663   5.693   2.245   2.750  0.3326 -1.5422  0.4434
 8615SOL     OW26664   4.113   1.608   2.563 -0.1206  0.6064  0.6855
 8615SOL    HW126665   4.113   1.697   2.518  1.8490  0.6840  0.7598
 8615SOL    HW226666   4.049   1.609   2.640  0.7987  2.4091  1.4806
 8616SOL     OW26667   4.106   0.368   0.990 -0.1456  0.4071 -0.2031
 8616SOL    HW126668   4.085   0.367   0.892 -2.3028  1.2188  0.1890
 8616SOL    HW226669   4.063   0.290   1.034 -0.6307  0.9745  0.3467
 8617SOL     OW26670   6.326   6.615   2.831  0.3658  0.2309 -0.1056
 8617SOL    HW126671   6.307   6.698   2.882  2.7525  0.3442  0.7187
 8617SOL    HW226672   6.382   6.636   2.751  0.4140 -0.4996 -0.2807
 8618SOL     OW26673   3.255   6.536   0.096 -0.5927 -0.3165 -0.3100
 8618SOL    HW126674   3.274   6.477   0.017  2.7771  0.4971 -0.2682
 8618SOL    HW226675   3.214   6.622   0.065 -2.1428 -1.1643 -0.7488
 8619SOL     OW26676   5.870   4.364   3.475 -0.2676 -0.0488  0.0520
 8619SOL    HW126677   5.933   4.315   3.535  0.2713 -0.4804 -0.8370
 8619SOL    HW226678   5.815   4.299   3.423 -1.4636  0.3280  0.8205
 8620SOL     OW26679   1.079   6.647   5.159 -0.3637 -0.1501 -0.1350
 8620SOL    HW126680   1.166   6.681   5.123  1.6030 -2.5636  2.0262
 8620SOL    HW226681   1.087   6.550   5.179 -3.8133 -0.6086 -0.3921
 8621SOL     OW26682   4.211   0.076   4.889 -0.0857 -0.8499 -0.0518
 8621SOL    HW126683   4.218   0.119   4.799 -1.1792  2.5393  1.2984
 8621SOL    HW226684   4.295   0.091   4.940 -0.2608 -0.8331  0.2350
 8622SOL     OW26685   6.314   2.612   0.203 -0.4988 -0.2860  0.2763
 8622SOL    HW126686   6.359   2.680   0.145  1.0012 -1.1541  0.3443
 8622SOL    HW226687   6.364   2.604   0.289 -1.2483 -0.7681  0.6741
 8623SOL     OW26688   6.672   3.142   4.246  0.0124 -0.2485  0.0562
 8623SOL    HW126689   6.574   3.133   4.263  0.3189 -2.3546  1.1079
 8623SOL    HW226690   6.697   3.085   4.168  0.0739  2.2421 -1.8554
 8624SOL     OW26691   0.837   6.736   2.663  0.0977 -0.1006 -0.7868
 8624SOL    HW126692   0.922   6.783   2.640 -0.4885  0.8090 -1.1997
 8624SOL    HW226693   0.764   6.804   2.675 -0.5380 -0.8505 -0.3280
 8625SOL     OW26694   5.559   0.033   4.939 -0.0346  0.2069 -0.9051
 8625SOL    HW126695   5.654   0.005   4.951  1.0309  2.7819 -2.6129
 8625SOL    HW226696   5.530   0.088   5.018 -0.1005 -0.4922 -0.4322
 8626SOL     OW26697   5.971   4.209   6.966 -0.2026  0.2868 -0.5239
 8626SOL    HW126698   6.048   4.270   6.984 -0.4620 -0.1742  2.8928
 8626SOL    HW226699   5.893   4.262   6.934  0.9167  1.0275 -2.1868
 8627SOL     OW26700   0.944   6.116   1.339 -0.7206 -0.0587 -0.3152
 8627SOL    HW126701   0.958   6.133   1.437 -0.7410  0.7871 -0.4576
 8627SOL    HW226702   0.991   6.186   1.286 -0.8988 -0.3860 -0.9134
 8628SOL     OW26703   2.398   0.389   6.258 -0.2003  0.1914  0.2280
 8628SOL    HW126704   2.315   0.425   6.301  0.0171  0.6199  0.2924
 8628SOL    HW226705   2.443   0.325   6.320 -0.9226 -0.6952 -0.1290
 8629SOL     OW26706   2.193   5.125   5.136 -0.0166  0.3948  0.3033
 8629SOL    HW126707   2.244   5.097   5.055  0.8735  0.8118  0.7010
 8629SOL    HW226708   2.233   5.082   5.217 -1.7561 -1.1412  0.4131
 8630SOL     OW26709   5.002   2.220   2.348  0.1292 -0.0089  0.4685
 8630SOL    HW126710   5.081   2.195   2.292  0.9942 -0.4985  1.8680
 8630SOL    HW226711   4.920   2.175   2.311  0.7161 -0.4934 -0.2763
 8631SOL     OW26712   6.763   6.558   5.782  0.3981  0.2776  0.1008
 8631SOL    HW126713   6.788   6.499   5.706 -0.5367  0.2220 -0.1826
 8631SOL    HW226714   6.843   6.579   5.837  1.2023  0.7844 -1.2252
 8632SOL     OW26715   3.397   3.540   1.839 -0.0878  0.0875 -0.3394
 8632SOL    HW126716   3.485   3.583   1.859 -0.5963  1.4703 -0.9192
 8632SOL    HW226717   3.409   3.441   1.831  1.3661  0.2288 -0.1220
 8633SOL     OW26718   3.242   5.966   3.172 -0.3267  0.1688  0.1151
 8633SOL    HW126719   3.234   5.924   3.082 -0.2444  1.0034 -0.2898
 8633SOL    HW226720   3.337   5.990   3.190 -0.2302 -0.5965  0.7175
 8634SOL     OW26721   5.741   0.592   4.724  0.5981 -0.3530 -0.4408
 8634SOL    HW126722   5.676   0.551   4.788 -0.4200  0.9342 -0.6045
 8634SOL    HW226723   5.830   0.549   4.735 -0.0049 -1.4011  0.5667
 8635SOL     OW26724   5.272   4.023   6.496 -0.1996  0.0436  0.3880
 8635SOL    HW126725   5.355   3.977   6.529 -0.6936 -0.3884  1.0566
 8635SOL    HW226726   5.266   4.014   6.397 -0.2370 -1.2811  0.4817
 8636SOL     OW26727   0.883   3.854   3.349  0.1672  0.2196 -0.0487
 8636SOL    HW126728   0.896   3.951   3.372  0.2714 -0.0132  0.9137
 8636SOL    HW226729   0.973   3.811   3.338  0.1601 -0.2504  1.6416
 8637SOL     OW26730   2.198   4.440   0.432  0.0754  0.2317  0.5748
 8637SOL    HW126731   2.258   4.435   0.511  0.8857  2.6540  0.1829
 8637SOL    HW226732   2.248   4.413   0.350 -0.1925 -0.3685  0.5998
 8638SOL     OW26733   4.852   4.868   1.549  0.7839  0.3607 -0.1037
 8638SOL    HW126734   4.841   4.935   1.476  3.0375  0.9652  0.0299
 8638SOL    HW226735   4.925   4.804   1.526 -2.5597 -3.4870 -1.1790
 8639SOL     OW26736   2.519   6.131   6.632 -0.4992 -0.4409  0.2466
 8639SOL    HW126737   2.489   6.201   6.567 -1.2643 -2.1986 -1.4321
 8639SOL    HW226738   2.439   6.081   6.665  0.1695 -2.5572 -1.1095
 8640SOL     OW26739   6.291   1.540   3.593  0.6129  0.1711  0.9713
 8640SOL    HW126740   6.210   1.531   3.535  1.3460 -0.6490  0.0431
 8640SOL    HW226741   6.291   1.631   3.636  0.4446  1.1103 -0.9169
 8641SOL     OW26742   0.692   5.186   5.738  0.3951  0.2741 -0.0530
 8641SOL    HW126743   0.621   5.128   5.778 -0.9171  2.4465  0.9698
 8641SOL    HW226744   0.778   5.136   5.736 -0.9763 -2.2851 -0.8381
 8642SOL     OW26745   2.544   6.216   0.711 -0.6201  0.4327  0.0982
 8642SOL    HW126746   2.590   6.245   0.627 -0.4708 -2.0845 -0.7784
 8642SOL    HW226747   2.588   6.260   0.790  0.7779  1.0538 -0.9815
 8643SOL     OW26748   2.377   4.428   4.130  0.6043 -0.5795  0.0165
 8643SOL    HW126749   2.470   4.463   4.119 -0.4256  2.6534  0.6515
 8643SOL    HW226750   2.327   4.439   4.044 -0.2144  1.1928  0.6822
 8644SOL     OW26751   6.186   2.103   1.185  0.8196  0.1729  0.1353
 8644SOL    HW126752   6.096   2.145   1.190  0.6754 -0.2637  2.0598
 8644SOL    HW226753   6.245   2.157   1.125  0.0479  2.0368  0.9621
 8645SOL     OW26754   0.093   2.105   1.396  0.4191  0.3620  1.0099
 8645SOL    HW126755   0.176   2.158   1.413 -0.6453  1.6284  2.4079
 8645SOL    HW226756   0.019   2.137   1.455 -1.7160  0.7452 -1.6590
 8646SOL     OW26757   2.990   3.155   0.471 -0.2734  0.2395 -0.1220
 8646SOL    HW126758   2.917   3.116   0.527 -0.3538 -0.5236 -0.7398
 8646SOL    HW226759   2.953   3.180   0.381  0.3212 -0.6912 -0.6526
 8647SOL     OW26760   4.046   2.085   3.891 -0.0145 -0.7433  0.2205
 8647SOL    HW126761   4.127   2.027   3.884  0.0481 -1.0130  2.4344
 8647SOL    HW226762   4.053   2.142   3.973 -1.1646  0.7008 -0.6279
 8648SOL     OW26763   1.018   1.554   1.631  0.2218 -0.0417 -0.2267
 8648SOL    HW126764   0.953   1.606   1.686  0.7818  1.4863 -0.9569
 8648SOL    HW226765   1.023   1.460   1.666  1.1076  1.0121  2.8503
 8649SOL     OW26766   3.311   3.100   3.728  0.0202  0.1595  0.2225
 8649SOL    HW126767   3.388   3.079   3.667  0.6304  1.8871  0.3541
 8649SOL    HW226768   3.315   3.039   3.807  0.1748 -0.9920 -0.6226
 8650SOL     OW26769   1.239   1.327   0.903  0.8085  0.5035  0.1844
 8650SOL    HW126770   1.279   1.409   0.944  1.0101  1.2042 -1.3701
 8650SOL    HW226771   1.144   1.319   0.931  0.7734  1.3001  0.3169
 8651SOL     OW26772   7.001   4.569   2.596 -0.0311  0.3557 -0.2763
 8651SOL    HW126773   7.022   4.521   2.681 -0.2942 -3.0395 -1.9941
 8651SOL    HW226774   7.066   4.542   2.525 -2.1254  0.0752 -2.1585
 8652SOL     OW26775   4.697   3.783   3.603 -0.2897 -0.0350  0.2710
 8652SOL    HW126776   4.759   3.839   3.548  0.3073 -0.8823  0.0432
 8652SOL    HW226777   4.690   3.821   3.695  0.9876 -0.2042  0.4552
 8653SOL     OW26778   3.769   0.147   4.352  0.9161 -0.3883  0.5939
 8653SOL    HW126779   3.776   0.150   4.253 -1.1473  0.2996  0.4284
 8653SOL    HW226780   3.790   0.054   4.384 -0.2277 -1.1243 -0.6768
 8654SOL     OW26781   3.638   1.155   0.747  0.1678  0.2814 -0.5655
 8654SOL    HW126782   3.639   1.086   0.675 -1.4006 -0.9012  0.5221
 8654SOL    HW226783   3.724   1.150   0.799  0.6638  0.1286 -1.3895
 8655SOL     OW26784   3.851   4.730   2.184 -0.3183 -0.0324 -0.6238
 8655SOL    HW126785   3.872   4.672   2.105  0.5934 -1.0498  0.3321
 8655SOL    HW226786   3.833   4.823   2.153  0.0689 -0.3956 -2.0250
 8656SOL     OW26787   6.960   4.168   4.899  0.1858 -0.6915 -0.1376
 8656SOL    HW126788   6.925   4.077   4.877 -0.0056 -0.4661 -0.7855
 8656SOL    HW226789   7.012   4.164   4.984 -0.4288 -1.2630  0.2220
 8657SOL     OW26790   2.851   0.612   4.395 -0.2077 -0.1432 -0.2900
 8657SOL    HW126791   2.886   0.666   4.319 -0.4801  0.1653 -0.1964
 8657SOL    HW226792   2.912   0.534   4.411 -0.1555 -0.2167 -0.8305
 8658SOL     OW26793   5.466   6.332   1.051  0.1150  0.7734 -0.0220
 8658SOL    HW126794   5.539   6.393   1.081  1.1455 -0.2931 -0.2422
 8658SOL    HW226795   5.378   6.379   1.056  1.0723  3.0760 -2.3154
 8659SOL     OW26796   5.218   3.254   3.747  0.3636 -0.6932 -0.2697
 8659SOL    HW126797   5.206   3.167   3.794  1.9667 -0.6121  0.3718
 8659SOL    HW226798   5.164   3.325   3.794  2.0935 -0.5657  1.6784
 8660SOL     OW26799   5.578   1.059   2.511  0.3272 -0.0758 -0.6825
 8660SOL    HW126800   5.550   0.977   2.461  2.0566 -1.5951  0.6894
 8660SOL    HW226801   5.508   1.081   2.579  0.4744 -1.3285 -0.0773
 8661SOL     OW26802   3.670   6.122   3.880 -0.5504  0.9409  0.0580
 8661SOL    HW126803   3.603   6.084   3.944 -0.3953  0.9512  0.2282
 8661SOL    HW226804   3.753   6.146   3.929  0.8260 -2.0056 -0.5998
 8662SOL     OW26805   3.826   5.608   5.490  0.0747 -0.8889 -0.0126
 8662SOL    HW126806   3.871   5.694   5.515  0.5961 -1.5170  1.2378
 8662SOL    HW226807   3.893   5.535   5.487 -0.7151 -1.6752  1.0687
 8663SOL     OW26808   0.792   4.584   1.299  0.3931  0.1610 -0.6101
 8663SOL    HW126809   0.744   4.570   1.386  1.7706 -0.5043  0.0868
 8663SOL    HW226810   0.830   4.497   1.267  0.0995  0.4432 -1.7748
 8664SOL     OW26811   4.404   1.421   4.091 -0.1837 -0.4571  0.1035
 8664SOL    HW126812   4.346   1.437   4.171 -1.0886 -0.5566 -0.5044
 8664SOL    HW226813   4.489   1.472   4.100 -0.6732  0.2792  0.7002
 8665SOL     OW26814   1.808   5.896   1.770 -0.2137  0.0286 -0.3049
 8665SOL    HW126815   1.843   5.886   1.676  0.4807 -3.6186  0.1914
 8665SOL    HW226816   1.721   5.946   1.768  0.3780  1.1214 -2.7050
 8666SOL     OW26817   1.708   5.175   1.880  0.0899  1.0266  0.0348
 8666SOL    HW126818   1.647   5.148   1.954  0.0107  1.2245  0.0454
 8666SOL    HW226819   1.654   5.209   1.802  0.2076  2.4651  0.5445
 8667SOL     OW26820   0.086   4.404   4.550 -0.0915 -0.5320 -0.2801
 8667SOL    HW126821   0.006   4.386   4.608 -0.5492 -0.1437 -0.8085
 8667SOL    HW226822   0.168   4.408   4.606 -0.5321 -0.3010  0.3626
 8668SOL     OW26823   4.402   2.430   1.911 -0.0374 -0.1065  0.0617
 8668SOL    HW126824   4.361   2.517   1.936  0.6655  0.2665 -0.0812
 8668SOL    HW226825   4.501   2.434   1.922  0.1361 -0.4787 -1.1547
 8669SOL     OW26826   3.043   5.963   2.253 -0.1710 -0.7029 -0.0237
 8669SOL    HW126827   3.122   5.939   2.196  0.7093 -1.0423  1.3127
 8669SOL    HW226828   3.047   6.061   2.276  0.6758 -1.0231  1.2521
 8670SOL     OW26829   5.376   5.968   6.019  0.6762 -0.0645  0.1735
 8670SOL    HW126830   5.401   5.889   6.075  1.3329 -0.5489 -0.7769
 8670SOL    HW226831   5.438   6.044   6.040 -0.2500  0.3866  1.4310
 8671SOL     OW26832   3.141   5.869   4.960  0.8437 -0.2514  0.3538
 8671SOL    HW126833   3.073   5.798   4.941  1.0649 -0.2530 -0.4763
 8671SOL    HW226834   3.103   5.936   5.024 -0.1277  0.0256 -0.4912
 8672SOL     OW26835   6.757   3.023   2.045 -0.3153 -0.3384 -0.0829
 8672SOL    HW126836   6.803   2.935   2.048 -0.7746 -0.5503  1.5034
 8672SOL    HW226837   6.663   3.013   2.078 -1.0774  0.3589 -1.9025
 8673SOL     OW26838   2.582   1.954   0.014  0.0726  0.0005 -0.1688
 8673SOL    HW126839   2.562   1.885   0.084  0.5148  1.2409  1.2469
 8673SOL    HW226840   2.498   2.004  -0.007  0.0021 -0.1639 -0.2776
 8674SOL     OW26841   6.008   5.252   6.286  0.4195  0.5187 -0.0659
 8674SOL    HW126842   5.946   5.239   6.363  0.4662  0.1399 -0.0926
 8674SOL    HW226843   6.003   5.347   6.255  1.6058  1.1180  1.4566
 8675SOL     OW26844   4.082   7.008   0.451 -0.3609 -0.2810  0.1520
 8675SOL    HW126845   4.142   6.933   0.479 -0.5603 -0.4555  0.0456
 8675SOL    HW226846   4.122   7.055   0.372 -1.8044 -2.3574 -1.9410
 8676SOL     OW26847   6.306   5.310   2.380 -0.1594 -0.5227  0.0674
 8676SOL    HW126848   6.406   5.306   2.376 -0.2342 -2.6378 -1.0002
 8676SOL    HW226849   6.278   5.397   2.420  2.0973  0.1616  0.3008
 8677SOL     OW26850   1.400   2.618   1.239  0.1144 -0.2535 -0.0518
 8677SOL    HW126851   1.477   2.639   1.299 -0.1737  3.2494 -0.7106
 8677SOL    HW226852   1.315   2.648   1.282 -0.7499 -2.1301 -0.2595
 8678SOL     OW26853   6.245   6.419   1.127  0.0680  0.1012 -0.0179
 8678SOL    HW126854   6.316   6.490   1.131  1.4201 -1.2757  1.3351
 8678SOL    HW226855   6.159   6.460   1.095  1.1704  2.0328 -0.6482
 8679SOL     OW26856   1.212   5.802   2.563 -0.3013 -0.3129 -0.5523
 8679SOL    HW126857   1.153   5.883   2.563 -0.4736 -0.4377 -0.2994
 8679SOL    HW226858   1.206   5.756   2.651  1.9990  0.9892  0.3695
 8680SOL     OW26859   0.164   5.797   0.575  0.1120 -0.1970  0.0037
 8680SOL    HW126860   0.136   5.790   0.670 -1.6681  2.3250 -0.2275
 8680SOL    HW226861   0.150   5.891   0.543 -0.7959 -1.2816 -3.1692
 8681SOL     OW26862   5.380   4.302   5.263  0.1241  0.5922 -0.8577
 8681SOL    HW126863   5.332   4.389   5.271  1.0676  0.9993  0.7736
 8681SOL    HW226864   5.478   4.317   5.272  0.1772 -0.8643  1.7183
 8682SOL     OW26865   0.561   4.946   5.993  0.2321 -0.4968  0.2658
 8682SOL    HW126866   0.509   5.003   5.930 -1.1975 -1.0053  0.9301
 8682SOL    HW226867   0.587   4.999   6.074  0.6648 -0.2640 -0.0261
 8683SOL     OW26868   4.428   0.946   2.760 -0.1675 -0.1672  0.0199
 8683SOL    HW126869   4.415   1.037   2.721  1.8791 -0.3036 -1.1293
 8683SOL    HW226870   4.475   0.888   2.693  1.2884 -1.1397  1.8033
 8684SOL     OW26871   0.258   4.889   2.059 -0.2248 -0.2442  0.1592
 8684SOL    HW126872   0.197   4.813   2.033 -2.3289  2.0090 -2.1368
 8684SOL    HW226873   0.290   4.935   1.976 -1.0051  2.7901  1.3887
 8685SOL     OW26874   1.243   3.278   2.500  0.0429 -1.1356  0.3498
 8685SOL    HW126875   1.340   3.298   2.484  0.0862 -1.9733 -0.5111
 8685SOL    HW226876   1.187   3.337   2.443  0.0124 -0.2761  1.2350
 8686SOL     OW26877   2.545   4.671   0.239  0.1894 -0.1613  0.3959
 8686SOL    HW126878   2.545   4.590   0.181 -0.0232  0.5551 -0.6237
 8686SOL    HW226879   2.516   4.751   0.186  1.2701  0.7642  1.1325
 8687SOL     OW26880   5.032   5.279   1.075 -0.0198 -0.4530  0.1811
 8687SOL    HW126881   5.058   5.373   1.058  3.2001 -1.2846 -0.0052
 8687SOL    HW226882   5.053   5.255   1.169  1.1916 -1.5815 -0.3641
 8688SOL     OW26883   4.533   4.214   3.846  0.6673  0.2046  0.0692
 8688SOL    HW126884   4.527   4.223   3.946  0.4607  0.7144  0.0118
 8688SOL    HW226885   4.454   4.164   3.812  0.2032  0.9247  0.0544
 8689SOL     OW26886   1.147   3.569   3.874  0.1020  0.5377 -0.2100
 8689SOL    HW126887   1.099   3.529   3.796 -1.1830  1.9532 -0.2042
 8689SOL    HW226888   1.125   3.518   3.957 -0.1163  0.2175 -0.4642
 8690SOL     OW26889   2.861   5.071   0.884 -0.0568  0.7774  0.7632
 8690SOL    HW126890   2.834   5.166   0.871 -0.6852  0.5409  0.2576
 8690SOL    HW226891   2.872   5.052   0.981 -2.0973  0.8003  1.0459
 8691SOL     OW26892   6.190   6.730   3.937 -0.3184  0.3381 -0.2396
 8691SOL    HW126893   6.116   6.714   3.872  0.1167  0.8421 -0.8868
 8691SOL    HW226894   6.248   6.804   3.903  0.0012  0.5106  0.6647
 8692SOL     OW26895   5.560   4.467   0.707  0.4750  0.2597 -0.4133
 8692SOL    HW126896   5.460   4.473   0.710  0.5353  1.0905  2.4908
 8692SOL    HW226897   5.587   4.386   0.656 -1.7036 -0.6002 -0.3101
 8693SOL     OW26898   6.633   1.460   2.377 -0.3381 -0.6488 -0.3886
 8693SOL    HW126899   6.644   1.360   2.379 -0.2309 -0.6525 -1.0037
 8693SOL    HW226900   6.712   1.503   2.422 -0.2421 -0.8304 -0.3826
 8694SOL     OW26901   0.074   2.257   5.135  0.0621  0.7370  0.0685
 8694SOL    HW126902   0.117   2.248   5.225 -0.7463  0.7480  0.4639
 8694SOL    HW226903  -0.020   2.288   5.146 -0.5780 -0.9508 -0.6742
 8695SOL     OW26904   1.980   5.312   5.901 -0.2568 -0.5856 -0.8410
 8695SOL    HW126905   1.903   5.287   5.959  0.6205  0.1614  0.6949
 8695SOL    HW226906   2.059   5.256   5.925  0.3216  0.2329 -0.8281
 8696SOL     OW26907   0.586   1.629   5.644 -0.1436  0.1788 -0.0117
 8696SOL    HW126908   0.630   1.704   5.595 -0.2504  0.6742  0.6245
 8696SOL    HW226909   0.518   1.585   5.585 -3.1060  3.2185  0.8330
 8697SOL     OW26910   3.074   4.253   6.289  0.3084  0.6943  0.6560
 8697SOL    HW126911   3.080   4.189   6.365  0.8328  0.2074  0.2185
 8697SOL    HW226912   3.154   4.312   6.289 -0.1316  1.3063  1.0060
 8698SOL     OW26913   3.124   6.400   4.018  0.0697  0.2543  0.0826
 8698SOL    HW126914   3.104   6.478   3.959 -0.8503 -0.7631 -1.0007
 8698SOL    HW226915   3.043   6.378   4.073  1.2337  1.8745  2.6369
 8699SOL     OW26916   3.760   4.882   6.181  0.5863  0.1886 -0.2752
 8699SOL    HW126917   3.678   4.871   6.238 -0.6387  0.9323 -1.7867
 8699SOL    HW226918   3.792   4.976   6.188  0.2113  0.3788 -1.0884
 8700SOL     OW26919   3.398   6.507   0.579 -1.1380 -0.3507 -0.1082
 8700SOL    HW126920   3.464   6.464   0.639 -0.6841  0.6795  0.1586
 8700SOL    HW226921   3.382   6.601   0.609 -0.0343  0.5849 -2.2149
 8701SOL     OW26922   6.104   0.485   1.774  0.0724  0.0498 -0.2739
 8701SOL    HW126923   6.105   0.422   1.696 -0.0708  1.1896 -1.2156
 8701SOL    HW226924   6.024   0.544   1.769  0.7503  1.0230  0.0022
 8702SOL     OW26925   0.403   4.677   2.765 -0.1182  0.1747  0.6203
 8702SOL    HW126926   0.474   4.745   2.783  0.0525  0.4459 -0.9117
 8702SOL    HW226927   0.318   4.706   2.810 -0.8140  2.9161 -2.0904
 8703SOL     OW26928   5.175   0.517   5.309  0.0403 -0.0700 -0.5139
 8703SOL    HW126929   5.265   0.535   5.350 -0.0012  0.6958 -0.7283
 8703SOL    HW226930   5.131   0.604   5.288 -1.2937 -0.3955  0.7535
 8704SOL     OW26931   5.863   2.853   6.041  0.3978  0.2951  0.1694
 8704SOL    HW126932   5.804   2.841   5.961  0.2807 -0.0774  0.3131
 8704SOL    HW226933   5.845   2.780   6.107 -1.1073  1.8220  1.5344
 8705SOL     OW26934   3.538   1.740   4.063 -0.2678 -0.5707  0.4808
 8705SOL    HW126935   3.498   1.787   4.141 -0.4733  2.4921 -1.2881
 8705SOL    HW226936   3.636   1.726   4.078 -0.3892 -0.4077  1.4613
 8706SOL     OW26937   3.173   0.395   3.596 -0.5707 -0.0081 -0.5405
 8706SOL    HW126938   3.122   0.379   3.512 -0.0265  3.0499 -1.5949
 8706SOL    HW226939   3.127   0.465   3.651  1.0610  0.8739 -0.2141
 8707SOL     OW26940   6.806   6.645   5.257 -1.1921  0.2412 -0.3487
 8707SOL    HW126941   6.819   6.729   5.205 -3.1047  0.7145 -0.1667
 8707SOL    HW226942   6.733   6.659   5.324 -1.2825 -1.4606 -0.0428
 8708SOL     OW26943   5.423   5.926   6.561 -0.6206 -0.0501  0.1513
 8708SOL    HW126944   5.469   6.014   6.545 -2.4346  1.0311  0.6032
 8708SOL    HW226945   5.469   5.878   6.636  0.8118  0.1637 -0.5536
 8709SOL     OW26946   0.403   0.867   1.118  0.2245  0.1525  0.3734
 8709SOL    HW126947   0.456   0.811   1.181  0.1669  0.0578  0.3391
 8709SOL    HW226948   0.426   0.843   1.024 -0.2862 -0.2792  0.3554
 8710SOL     OW26949   3.628   5.458   1.854 -0.6237  0.1478 -0.3565
 8710SOL    HW126950   3.546   5.514   1.866  0.6066  1.4242  3.3525
 8710SOL    HW226951   3.603   5.361   1.857 -2.0098  0.4975  1.4423
 8711SOL     OW26952   3.492   5.700   4.613 -0.1132  1.1864  0.7761
 8711SOL    HW126953   3.406   5.688   4.663  0.0737 -0.1779  0.7890
 8711SOL    HW226954   3.505   5.624   4.549  0.3307  2.1907 -0.3782
 8712SOL     OW26955   1.395   4.840   6.453  0.1024 -0.3008 -0.1606
 8712SOL    HW126956   1.362   4.837   6.547  2.1438 -0.9878  0.5847
 8712SOL    HW226957   1.490   4.809   6.450  0.1443 -0.1142 -2.4320
 8713SOL     OW26958   4.666   6.265   1.394 -0.2533  0.3827  0.0191
 8713SOL    HW126959   4.700   6.322   1.319  1.2181  0.7502  0.9233
 8713SOL    HW226960   4.631   6.179   1.357 -0.6901  1.0527 -1.1913
 8714SOL     OW26961   0.556   6.951   6.059 -0.6937  0.0175 -0.1529
 8714SOL    HW126962   0.558   6.869   6.117 -3.0125 -0.1050 -0.1586
 8714SOL    HW226963   0.462   6.983   6.050 -0.0845  1.4385 -1.8994
 8715SOL     OW26964   6.128   6.335   5.243  0.0746  0.7789 -0.0658
 8715SOL    HW126965   6.204   6.289   5.197  0.5143  1.2494  0.1738
 8715SOL    HW226966   6.056   6.354   5.176  0.7259  1.4871 -0.5866
 8716SOL     OW26967   5.256   4.408   0.665 -0.1797 -0.1211  0.2918
 8716SOL    HW126968   5.267   4.410   0.565 -1.3176  0.4928  0.1648
 8716SOL    HW226969   5.279   4.316   0.699 -1.3002 -0.8027 -0.7288
 8717SOL     OW26970   6.600   4.405   4.834 -0.3593 -0.4681  0.3466
 8717SOL    HW126971   6.529   4.476   4.840  0.6099  0.6211 -0.5120
 8717SOL    HW226972   6.577   4.342   4.760  0.2379  0.7229 -0.9146
 8718SOL     OW26973   4.051   6.885   2.704 -0.0578  0.1157 -0.1330
 8718SOL    HW126974   4.071   6.815   2.635 -0.0667  0.5674 -0.6011
 8718SOL    HW226975   4.003   6.962   2.661 -2.1636 -0.5992  0.8078
 8719SOL     OW26976   4.964   6.885   3.803 -0.6006  0.5418 -0.2537
 8719SOL    HW126977   4.880   6.835   3.786 -0.5484  0.2029  0.4756
 8719SOL    HW226978   4.943   6.982   3.816 -0.7452  0.6577 -1.2570
 8720SOL     OW26979   5.406   0.093   1.494 -0.3283 -0.7961 -0.2623
 8720SOL    HW126980   5.382   0.075   1.590 -1.5553  0.4717 -0.3114
 8720SOL    HW226981   5.496   0.137   1.491 -1.1234  1.0014  0.5090
 8721SOL     OW26982   1.094   5.266   5.107  0.8056  0.4854 -0.1150
 8721SOL    HW126983   1.171   5.259   5.042 -1.8793 -2.0572 -3.4421
 8721SOL    HW226984   1.016   5.307   5.061 -1.0708 -0.8589  1.7051
 8722SOL     OW26985   5.924   6.751   5.887 -0.0096 -0.2317 -0.8604
 8722SOL    HW126986   5.884   6.749   5.979  1.1723  0.5367 -0.3154
 8722SOL    HW226987   5.872   6.814   5.829  0.7827  1.2843  0.0342
 8723SOL     OW26988   6.489   6.247   1.137 -0.5667 -0.8162  0.1835
 8723SOL    HW126989   6.424   6.173   1.156 -2.0380  0.4738  0.3774
 8723SOL    HW226990   6.524   6.282   1.224  2.1022 -2.8562  0.0821
 8724SOL     OW26991   3.644   4.302   5.631  0.6481  0.1826 -0.1010
 8724SOL    HW126992   3.658   4.295   5.730  1.7659 -1.4511 -0.3405
 8724SOL    HW226993   3.732   4.312   5.585  0.0326  3.1550 -0.8475
 8725SOL     OW26994   3.448   5.553   6.800 -0.0293  0.1048  0.0250
 8725SOL    HW126995   3.490   5.603   6.876 -2.1327  0.7848  0.8316
 8725SOL    HW226996   3.352   5.534   6.823 -0.0215 -1.9585 -1.4090
 8726SOL     OW26997   3.373   6.369   1.581 -0.6632 -0.4595 -0.2451
 8726SOL    HW126998   3.276   6.355   1.599 -0.4275 -0.8584  0.8272
 8726SOL    HW226999   3.426   6.329   1.656  0.2883  0.7432 -0.2442
 8727SOL     OW27000   6.466   5.125   4.850 -0.1130  0.2975 -0.4326
 8727SOL    HW127001   6.373   5.149   4.878 -0.3589 -0.5889 -0.4760
 8727SOL    HW227002   6.479   5.027   4.857  1.0728  0.4862  0.2979
 8728SOL     OW27003   0.644   3.273   1.819 -0.1260 -0.1846  0.0335
 8728SOL    HW127004   0.709   3.339   1.857  1.3310 -0.4670 -1.7515
 8728SOL    HW227005   0.665   3.259   1.722  0.7407 -4.4455  0.6329
 8729SOL     OW27006   5.626   1.277   0.379  0.2156 -0.5938  0.3413
 8729SOL    HW127007   5.573   1.353   0.341 -0.6274 -2.0802 -1.6039
 8729SOL    HW227008   5.711   1.267   0.328 -1.4299 -3.3142 -2.1749
 8730SOL     OW27009   1.479   4.481   1.013 -0.1518  0.1995 -0.6896
 8730SOL    HW127010   1.520   4.408   0.958 -2.4676 -1.1083 -0.7711
 8730SOL    HW227011   1.398   4.516   0.967  0.1744  1.9735 -0.0168
 8731SOL     OW27012   2.335   6.080   0.809  0.2952  0.4292  0.3661
 8731SOL    HW127013   2.402   6.135   0.759 -0.6761  0.0528 -1.4466
 8731SOL    HW227014   2.371   6.057   0.899  2.0652  1.2694 -0.0836
 8732SOL     OW27015   5.043   1.269   4.723 -0.0677 -0.6505  0.2451
 8732SOL    HW127016   5.056   1.176   4.688 -0.0967 -1.0818  1.3752
 8732SOL    HW227017   4.963   1.310   4.678  0.3045 -0.9412 -0.7073
 8733SOL     OW27018   1.430   1.668   0.144  0.2426  0.1094  0.1317
 8733SOL    HW127019   1.356   1.707   0.197  0.4632  0.9463 -0.1611
 8733SOL    HW227020   1.422   1.568   0.143  0.5633  0.0334  2.1812
 8734SOL     OW27021   2.728   0.010   3.232  0.4109  0.1285  0.1807
 8734SOL    HW127022   2.700   0.097   3.192 -2.9617 -0.4534  1.0165
 8734SOL    HW227023   2.735   0.019   3.331  2.4889 -0.0192  0.1037
 8735SOL     OW27024   1.885   6.271   3.703  0.4148  0.1776  0.2789
 8735SOL    HW127025   1.915   6.183   3.666  0.5384 -0.5249  1.9377
 8735SOL    HW227026   1.955   6.308   3.763  0.0440  1.0153  0.2078
 8736SOL     OW27027   4.894   6.421   4.647 -0.1215 -0.7548 -0.0057
 8736SOL    HW127028   4.827   6.371   4.592  0.2965 -1.6276  0.2696
 8736SOL    HW227029   4.860   6.428   4.741  1.0562 -2.9842  0.6358
 8737SOL     OW27030   1.580   0.794   2.863 -0.0225 -0.1208  0.0717
 8737SOL    HW127031   1.593   0.868   2.797 -1.6224  1.4877  1.4475
 8737SOL    HW227032   1.630   0.816   2.947  0.3805 -1.1733  0.1254
 8738SOL     OW27033   2.586   0.871   4.765 -0.0906  0.2274  0.1765
 8738SOL    HW127034   2.593   0.888   4.863 -1.6017 -0.7925  0.4914
 8738SOL    HW227035   2.544   0.950   4.721 -1.1570 -0.0607  0.6483
 8739SOL     OW27036   0.975   0.640   0.357 -0.5668  0.2225  0.2545
 8739SOL    HW127037   1.037   0.565   0.382  0.9994  0.2782 -3.0135
 8739SOL    HW227038   1.006   0.682   0.273 -5.0543  0.2754 -1.6555
 8740SOL     OW27039   3.284   1.229   6.649 -0.0115 -0.2809 -0.2204
 8740SOL    HW127040   3.382   1.215   6.638 -0.0191  0.7263 -1.9441
 8740SOL    HW227041   3.267   1.323   6.680 -0.4367 -0.4514  0.0751
 8741SOL     OW27042   6.492   3.429   1.396 -0.3423 -0.2886 -0.0291
 8741SOL    HW127043   6.533   3.344   1.364 -0.7058 -0.1217 -0.9880
 8741SOL    HW227044   6.558   3.504   1.383 -1.5295  0.3673 -3.5884
 8742SOL     OW27045   3.679   2.416   0.569 -0.0143  0.0239 -0.5089
 8742SOL    HW127046   3.659   2.338   0.510 -2.3020  2.0857 -2.7114
 8742SOL    HW227047   3.697   2.497   0.513 -2.0196  2.0450  1.5020
 8743SOL     OW27048   5.648   0.159   3.784 -0.0301  0.5743 -0.0147
 8743SOL    HW127049   5.723   0.122   3.839 -0.3689  0.3582  0.3109
 8743SOL    HW227050   5.682   0.181   3.692  0.8858  2.2614  0.6739
 8744SOL     OW27051   5.770   2.200   0.526 -0.4462 -0.0191  0.3702
 8744SOL    HW127052   5.843   2.207   0.594 -1.1640  1.1232  1.0542
 8744SOL    HW227053   5.681   2.217   0.570 -1.0096 -0.1746 -0.6785
 8745SOL     OW27054   4.050   4.568   0.368  0.4758  0.0887 -0.4592
 8745SOL    HW127055   3.974   4.618   0.409 -1.0246 -1.0882 -1.7116
 8745SOL    HW227056   4.021   4.528   0.281  2.2235 -1.3011 -0.4489
 8746SOL     OW27057   1.329   2.868   0.088  0.0010 -0.2445 -0.1646
 8746SOL    HW127058   1.277   2.952   0.078 -0.1996 -0.4436 -0.8351
 8746SOL    HW227059   1.425   2.886   0.068  0.0311 -0.0842  0.1136
 8747SOL     OW27060   6.863   6.491   0.811  0.0378 -0.5921  0.1789
 8747SOL    HW127061   6.894   6.453   0.724  1.5766  0.1184  0.3870
 8747SOL    HW227062   6.933   6.477   0.881  0.2464  1.6868  0.5150
 8748SOL     OW27063   6.520   3.496   5.131 -0.1890  0.0436  0.3077
 8748SOL    HW127064   6.535   3.435   5.053 -2.0150 -0.0355 -0.0417
 8748SOL    HW227065   6.513   3.591   5.099  2.2731  0.4568  0.8035
 8749SOL     OW27066   0.504   2.875   2.464  0.1206 -0.3950 -0.1229
 8749SOL    HW127067   0.500   2.854   2.562 -1.4619 -0.9755 -0.2900
 8749SOL    HW227068   0.422   2.840   2.419 -0.1148  1.5729 -1.3291
 8750SOL     OW27069   1.169   1.769   1.108  0.0457  0.0323  0.7157
 8750SOL    HW127070   1.071   1.762   1.092 -0.0379  0.3066  1.0839
 8750SOL    HW227071   1.187   1.846   1.170  0.4871 -0.0283  0.6693
 8751SOL     OW27072   3.622   0.718   1.593 -0.1936 -0.1798 -0.2115
 8751SOL    HW127073   3.522   0.718   1.601 -0.0681 -0.3559  3.7671
 8751SOL    HW227074   3.659   0.640   1.644  2.0224 -1.3805 -3.3556
 8752SOL     OW27075   6.586   1.900   1.177 -0.2926  0.7821  0.3686
 8752SOL    HW127076   6.681   1.871   1.168 -0.5186  0.0556  0.2197
 8752SOL    HW227077   6.569   1.977   1.114 -0.0993  0.1598 -0.4681
 8753SOL     OW27078   2.281   5.494   2.365  0.0147  0.1401 -0.2749
 8753SOL    HW127079   2.253   5.471   2.458  0.5791 -1.1700 -0.3970
 8753SOL    HW227080   2.237   5.579   2.336 -0.7501  0.1637  0.9150
 8754SOL     OW27081   5.430   0.775   3.675  0.3401 -0.2146  0.1369
 8754SOL    HW127082   5.360   0.831   3.720  0.6054  1.0216 -0.9083
 8754SOL    HW227083   5.503   0.755   3.740  0.0506  0.3451  0.6472
 8755SOL     OW27084   4.010   0.645   1.155 -0.1322  0.4335 -0.0111
 8755SOL    HW127085   3.995   0.559   1.204  0.8404 -0.3233 -0.9931
 8755SOL    HW227086   4.042   0.715   1.219  1.7520 -0.7029  0.3663
 8756SOL     OW27087   3.739   2.614   1.867 -0.4358 -0.2458  0.1537
 8756SOL    HW127088   3.718   2.567   1.953 -1.0286 -1.1289 -0.4441
 8756SOL    HW227089   3.656   2.618   1.811 -0.2784  1.1386  0.0033
 8757SOL     OW27090   3.032   5.083   2.528 -0.0033  0.2216  0.0175
 8757SOL    HW127091   2.977   5.068   2.445 -0.5743  0.3524  0.3562
 8757SOL    HW227092   3.044   4.996   2.575 -1.3563  0.4423  0.8091
 8758SOL     OW27093   0.167   2.834   4.304 -0.2407  0.3724  0.0091
 8758SOL    HW127094   0.266   2.816   4.303 -0.3573 -0.5411 -1.8330
 8758SOL    HW227095   0.119   2.749   4.325 -0.6406  0.5558 -0.1534
 8759SOL     OW27096   2.997   5.641   4.882 -0.4874 -0.0744 -0.1855
 8759SOL    HW127097   2.933   5.633   4.806 -0.0062 -0.8682 -0.5116
 8759SOL    HW227098   3.040   5.552   4.900 -0.9477 -0.0272  1.3153
 8760SOL     OW27099   5.518   4.640   5.056  0.6123 -0.3961  0.2911
 8760SOL    HW127100   5.465   4.723   5.071  1.8598  0.4780 -0.0049
 8760SOL    HW227101   5.461   4.571   5.011  0.4533  1.4521 -2.5808
 8761SOL     OW27102   2.377   0.286   2.083  0.1584 -0.4002 -0.5587
 8761SOL    HW127103   2.456   0.347   2.080 -0.0659 -0.1279 -1.5218
 8761SOL    HW227104   2.408   0.191   2.074  0.5874 -0.5460  1.8160
 8762SOL     OW27105   4.488   2.303   3.373  0.2618  0.4497  0.7176
 8762SOL    HW127106   4.538   2.297   3.460 -0.5258  1.2046  1.2240
 8762SOL    HW227107   4.398   2.261   3.383  1.0763 -1.7871 -0.4579
 8763SOL     OW27108   1.496   3.328   2.394  0.1443 -0.3689  0.3391
 8763SOL    HW127109   1.541   3.238   2.391 -0.4366 -0.6375 -0.8414
 8763SOL    HW227110   1.563   3.400   2.376  0.1140 -0.7748 -1.5789
 8764SOL     OW27111   5.926   3.105   2.337  0.5973  0.5309  0.4542
 8764SOL    HW127112   5.989   3.182   2.335  1.8049 -0.2233  3.3635
 8764SOL    HW227113   5.950   3.040   2.265  1.1765  1.6777 -0.4238
 8765SOL     OW27114   2.246   5.492   3.138 -0.5185 -0.3797  0.7218
 8765SOL    HW127115   2.275   5.582   3.172 -1.0677 -0.0082  0.2384
 8765SOL    HW227116   2.232   5.497   3.039 -1.5933 -0.7036  0.8385
 8766SOL     OW27117   6.092   5.121   1.013 -0.7630  0.2578 -0.5759
 8766SOL    HW127118   6.063   5.083   1.101  0.2530 -1.4685 -0.9543
 8766SOL    HW227119   6.031   5.089   0.941  0.0674 -0.6818 -0.8873
 8767SOL     OW27120   5.337   3.985   2.688 -0.1744 -0.2380 -0.1237
 8767SOL    HW127121   5.377   4.076   2.689 -1.5186  0.4036 -1.1678
 8767SOL    HW227122   5.407   3.917   2.707  0.6048  1.0802  2.0426
 8768SOL     OW27123   5.205   6.630   2.846 -0.2778 -0.1318 -0.0038
 8768SOL    HW127124   5.228   6.663   2.938  0.0400 -1.4778  0.4238
 8768SOL    HW227125   5.279   6.572   2.812 -0.0349  0.9806 -1.4525
 8769SOL     OW27126   5.529   1.704   2.278  0.0893 -0.3241  0.1425
 8769SOL    HW127127   5.623   1.697   2.243  0.0519  1.7748 -0.4921
 8769SOL    HW227128   5.531   1.702   2.378  0.6471 -1.6101  0.1335
 8770SOL     OW27129   2.294   4.748   2.593 -0.1229 -0.2228  0.1640
 8770SOL    HW127130   2.215   4.755   2.532  0.8258  2.6168 -0.8443
 8770SOL    HW227131   2.263   4.744   2.688 -1.4925 -0.2462 -0.2696
 8771SOL     OW27132   6.355   4.610   4.550  0.3994  0.6469 -0.2199
 8771SOL    HW127133   6.272   4.662   4.528  0.4954  0.7026 -0.4497
 8771SOL    HW227134   6.334   4.512   4.550  0.2185  0.6770  0.2063
 8772SOL     OW27135   5.355   1.410   5.989  0.3652 -0.2048  0.1345
 8772SOL    HW127136   5.289   1.484   6.000 -0.3451 -0.2034 -3.1204
 8772SOL    HW227137   5.445   1.441   6.021  0.1083  2.1719 -1.1983
 8773SOL     OW27138   5.673   3.151   5.906 -0.5879  0.3684 -0.4005
 8773SOL    HW127139   5.687   3.067   5.854  0.0165 -1.2609  2.1727
 8773SOL    HW227140   5.743   3.217   5.880 -0.4475 -0.2863 -1.7948
 8774SOL     OW27141   0.451   4.070   5.257  0.1786  0.4878  0.1813
 8774SOL    HW127142   0.537   4.035   5.220  0.7781  1.6419  0.4468
 8774SOL    HW227143   0.456   4.170   5.265 -1.3462  0.6220 -0.2106
 8775SOL     OW27144   7.001   1.731   5.790  0.2955 -0.4549 -0.2112
 8775SOL    HW127145   6.947   1.715   5.873 -0.4749 -1.5670 -0.8905
 8775SOL    HW227146   7.017   1.829   5.779  2.3632 -0.3995  2.4257
 8776SOL     OW27147   6.331   5.033   6.802  0.1325  0.3585  0.5146
 8776SOL    HW127148   6.364   5.038   6.896 -0.0872  0.1813  0.6032
 8776SOL    HW227149   6.233   5.016   6.802  0.4066 -1.3847  0.2641
 8777SOL     OW27150   0.759   3.168   2.218 -0.8146  0.6276  0.2561
 8777SOL    HW127151   0.744   3.081   2.170 -0.7554  1.4381 -1.2907
 8777SOL    HW227152   0.671   3.211   2.236 -0.7781  1.5442 -1.5216
 8778SOL     OW27153   5.875   2.140   4.477  0.0763  0.0052  0.5524
 8778SOL    HW127154   5.873   2.239   4.488  0.6595  0.1090 -0.1909
 8778SOL    HW227155   5.841   2.116   4.386  0.5642 -0.4281  0.4751
 8779SOL     OW27156   5.957   3.573   1.310 -0.0809 -0.0979 -0.2425
 8779SOL    HW127157   6.039   3.624   1.336  0.4274 -1.1369  0.2520
 8779SOL    HW227158   5.930   3.512   1.385 -1.1201 -0.0022 -0.5253
 8780SOL     OW27159   4.345   4.515   5.965 -0.6356  0.0639 -0.3727
 8780SOL    HW127160   4.425   4.456   5.964  0.4773  1.5244 -2.1605
 8780SOL    HW227161   4.366   4.603   5.922 -2.3027  1.7229  1.9048
 8781SOL     OW27162   5.530   1.747   2.555  0.0695  0.4742 -0.4612
 8781SOL    HW127163   5.492   1.817   2.616 -0.4149  1.1963 -1.5453
 8781SOL    HW227164   5.600   1.695   2.604 -0.8074  0.5323  0.9300
 8782SOL     OW27165   2.373   0.673   1.652 -0.0035 -0.6935  0.0673
 8782SOL    HW127166   2.298   0.612   1.627  0.0367 -0.0856 -1.7121
 8782SOL    HW227167   2.460   0.624   1.645 -0.1815 -1.2941  1.7632
 8783SOL     OW27168   5.258   0.431   3.286 -0.3223  0.1546 -1.1239
 8783SOL    HW127169   5.334   0.495   3.294  1.0195 -1.4819  0.0306
 8783SOL    HW227170   5.181   0.463   3.341  1.2093 -0.3644  1.4825
 8784SOL     OW27171   6.164   2.702   2.888 -0.5104  0.0558  0.1971
 8784SOL    HW127172   6.200   2.661   2.804  1.0759  2.0086 -0.1870
 8784SOL    HW227173   6.082   2.755   2.868 -1.4390 -1.2735  0.3439
 8785SOL     OW27174   1.687   0.841   3.119  0.0411 -0.0277  0.0270
 8785SOL    HW127175   1.754   0.773   3.146  0.6533  0.0278 -1.3196
 8785SOL    HW227176   1.623   0.857   3.195  0.1112 -1.8108  0.4929
 8786SOL     OW27177   3.561   5.574   1.306 -0.0244  0.7893 -0.1417
 8786SOL    HW127178   3.596   5.505   1.370 -0.4436  0.4128 -0.3126
 8786SOL    HW227179   3.463   5.560   1.293  0.2652  0.0039 -1.8784
 8787SOL     OW27180   4.949   3.352   3.211  0.3698 -0.8605  0.2160
 8787SOL    HW127181   5.026   3.380   3.154 -1.3918  0.3844 -1.6771
 8787SOL    HW227182   4.944   3.412   3.291  0.8032 -0.3010 -0.1666
 8788SOL     OW27183   3.579   0.926   2.806 -0.0510  0.4114  0.4217
 8788SOL    HW127184   3.602   0.996   2.738  0.6705 -1.5414 -1.4334
 8788SOL    HW227185   3.512   0.964   2.870 -1.8364  1.9514 -2.1327
 8789SOL     OW27186   1.602   2.627   5.001 -0.2329 -0.0386 -0.0162
 8789SOL    HW127187   1.554   2.675   5.074  1.0314  0.3040  0.6069
 8789SOL    HW227188   1.595   2.679   4.916 -1.5017 -0.3203 -0.0979
 8790SOL     OW27189   0.919   3.707   6.883 -0.5481 -0.1398  0.4318
 8790SOL    HW127190   0.949   3.800   6.864 -0.0842 -0.6956 -1.9400
 8790SOL    HW227191   0.988   3.642   6.850 -3.3587 -1.4190 -3.9044
 8791SOL     OW27192   5.233   4.805   4.438 -0.0670  0.4787 -0.1988
 8791SOL    HW127193   5.239   4.763   4.347 -0.0335 -0.2077  0.1114
 8791SOL    HW227194   5.316   4.858   4.455  1.1168 -1.4331  0.4057
 8792SOL     OW27195   3.467   5.714   3.444  0.5899  0.3502  0.2941
 8792SOL    HW127196   3.400   5.642   3.466  2.4897 -1.1240  1.5819
 8792SOL    HW227197   3.482   5.716   3.345  2.0233 -2.5979  0.3538
 8793SOL     OW27198   3.214   5.700   5.650  0.4662  0.1082 -0.0038
 8793SOL    HW127199   3.174   5.741   5.568 -0.6136  1.6993  1.2567
 8793SOL    HW227200   3.303   5.661   5.628 -0.5277 -1.0611 -2.3008
 8794SOL     OW27201   5.632   0.355   2.608 -0.1751 -0.0899 -0.0119
 8794SOL    HW127202   5.716   0.303   2.592  0.4946  0.3422  1.7787
 8794SOL    HW227203   5.558   0.317   2.554  0.6796 -1.8365 -0.0363
 8795SOL     OW27204   2.085   6.719   1.880 -0.4653  0.8612 -0.1687
 8795SOL    HW127205   1.989   6.723   1.905 -0.6583  1.2445 -0.9581
 8795SOL    HW227206   2.140   6.702   1.963 -1.0881  1.9524  0.4916
 8796SOL     OW27207   0.131   3.757   3.511  0.0554 -0.1414  0.2550
 8796SOL    HW127208   0.153   3.854   3.507  2.3918 -0.6350 -0.9974
 8796SOL    HW227209   0.032   3.745   3.517 -0.2765  2.2818  0.5199
 8797SOL     OW27210   6.375   4.188   1.733  0.0952  0.4617 -0.4414
 8797SOL    HW127211   6.396   4.135   1.652 -0.1150 -0.1301 -0.1222
 8797SOL    HW227212   6.318   4.266   1.708 -0.6481 -0.1661 -0.7673
 8798SOL     OW27213   3.966   1.354   0.896  0.1504  0.6168  0.6342
 8798SOL    HW127214   3.936   1.313   0.983  0.5678 -0.9112  0.0988
 8798SOL    HW227215   4.057   1.320   0.873 -1.0164 -1.2056 -1.7244
 8799SOL     OW27216   3.842   2.984   2.290  0.3339 -0.1752  0.2005
 8799SOL    HW127217   3.794   2.991   2.377 -0.3852  2.4046 -0.3180
 8799SOL    HW227218   3.857   2.887   2.268 -0.6411 -0.9283  2.5076
 8800SOL     OW27219   4.775   3.849   2.388 -0.2359  0.1635 -0.2280
 8800SOL    HW127220   4.726   3.875   2.304 -0.6468 -0.4502 -0.1836
 8800SOL    HW227221   4.872   3.837   2.367 -0.2132  0.7173 -0.4627
 8801SOL     OW27222   3.042   3.256   1.856  0.2551  0.1304 -0.2963
 8801SOL    HW127223   3.023   3.351   1.881  1.0143  0.6843 -1.6945
 8801SOL    HW227224   3.108   3.218   1.921 -0.2770  0.4493  0.4472
 8802SOL     OW27225   1.415   2.956   4.884  0.3967  0.2357 -0.3792
 8802SOL    HW127226   1.354   3.009   4.943 -0.6748 -0.2168 -1.0538
 8802SOL    HW227227   1.475   3.018   4.834  0.2129  0.7126 -0.0259
 8803SOL     OW27228   3.583   1.976   4.558  0.0971 -0.2568  0.1976
 8803SOL    HW127229   3.489   1.951   4.539 -0.1739  0.0077  1.1500
 8803SOL    HW227230   3.590   2.017   4.649  0.6991  2.0853 -0.8269
 8804SOL     OW27231   5.358   4.155   0.495  0.2637 -0.2916 -0.4732
 8804SOL    HW127232   5.346   4.069   0.445  0.3005  0.3025 -1.5342
 8804SOL    HW227233   5.286   4.219   0.468  1.0758  0.5011 -0.7815
 8805SOL     OW27234   4.214   1.712   1.942  0.5478 -0.2074 -0.4342
 8805SOL    HW127235   4.221   1.765   2.027  0.2706 -0.6584 -0.1239
 8805SOL    HW227236   4.135   1.651   1.947  0.7777 -0.5522 -0.8387
 8806SOL     OW27237   5.601   4.913   2.489  0.5754 -0.0326 -0.4929
 8806SOL    HW127238   5.657   4.909   2.572 -2.4521  0.2822  1.7372
 8806SOL    HW227239   5.577   4.820   2.461 -1.4392 -0.1660  1.3615
 8807SOL     OW27240   0.950   4.352   6.793 -0.1874  0.0286 -0.6740
 8807SOL    HW127241   0.930   4.281   6.861 -0.6318  0.5897 -0.2162
 8807SOL    HW227242   0.868   4.374   6.742 -0.2979  0.9240 -0.1346
 8808SOL     OW27243   2.732   3.164   3.947  0.6962 -0.6817  0.6741
 8808SOL    HW127244   2.821   3.196   3.915 -0.6162  2.8118  0.1611
 8808SOL    HW227245   2.703   3.086   3.892  3.4707 -2.1840  1.0845
 8809SOL     OW27246   2.033   4.678   6.769  0.0947 -0.0528 -0.6351
 8809SOL    HW127247   1.948   4.688   6.821 -1.5765 -1.9470 -2.7922
 8809SOL    HW227248   2.021   4.721   6.679  1.8477  0.5911 -0.5931
 8810SOL     OW27249   6.406   1.068   1.387  0.1649  0.4937  0.3206
 8810SOL    HW127250   6.342   1.017   1.445 -1.1861  0.3954 -1.1874
 8810SOL    HW227251   6.380   1.164   1.386 -0.6595  0.2889 -1.1176
 8811SOL     OW27252   3.850   5.831   3.935  0.1540 -0.1831 -0.1807
 8811SOL    HW127253   3.826   5.739   3.965 -0.9432  0.3168  0.5442
 8811SOL    HW227254   3.769   5.890   3.938  0.1695  0.1584 -3.2998
 8812SOL     OW27255   2.005   1.463   5.297 -0.2806  0.1530 -0.8100
 8812SOL    HW127256   1.913   1.430   5.319 -0.8931  2.0413 -0.4029
 8812SOL    HW227257   2.009   1.491   5.201 -0.4937  1.1545 -0.5399
 8813SOL     OW27258   4.004   2.296   1.723  0.4323 -0.1853 -0.4405
 8813SOL    HW127259   4.026   2.383   1.766  2.3409 -1.4442  1.3581
 8813SOL    HW227260   4.069   2.277   1.649  0.9885 -0.7456  0.1826
 8814SOL     OW27261   6.511   0.423   6.438  0.4488  0.3255 -0.1595
 8814SOL    HW127262   6.411   0.421   6.444  0.3636 -0.3445 -1.4513
 8814SOL    HW227263   6.544   0.335   6.402  1.5555  0.3022  0.8609
 8815SOL     OW27264   4.065   2.133   3.609 -0.6825  0.1079 -0.3119
 8815SOL    HW127265   4.055   2.133   3.708  0.5333 -0.0501 -0.1769
 8815SOL    HW227266   4.007   2.061   3.570  0.0451 -0.9371  0.4450
 8816SOL     OW27267   1.408   1.012   5.637  0.3278  0.6141  0.0769
 8816SOL    HW127268   1.499   0.982   5.666 -0.6490 -1.4599  1.2170
 8816SOL    HW227269   1.350   1.023   5.718 -0.8090  0.6351 -0.7202
 8817SOL     OW27270   0.585   6.743   5.144  0.3989  0.7529  0.1467
 8817SOL    HW127271   0.603   6.727   5.241  0.7882  0.6227  0.0537
 8817SOL    HW227272   0.659   6.799   5.105  0.4411  0.4822 -0.1652
 8818SOL     OW27273   5.976   1.743   3.110  0.0647 -0.3939 -0.0372
 8818SOL    HW127274   5.991   1.647   3.085  0.0165  0.0879 -2.1001
 8818SOL    HW227275   6.060   1.781   3.146 -0.0692 -1.3452  1.3666
 8819SOL     OW27276   6.745   6.416   6.985  0.0717 -0.5648  0.0631
 8819SOL    HW127277   6.654   6.456   6.994 -0.6757 -2.0477 -0.4460
 8819SOL    HW227278   6.769   6.370   7.071  0.5052  0.1232  0.2940
 8820SOL     OW27279   4.126   3.705   6.799  0.3850  0.2488 -0.3306
 8820SOL    HW127280   4.122   3.772   6.873 -0.4243  1.6664 -1.6090
 8820SOL    HW227281   4.189   3.736   6.729 -0.5733  0.0631 -1.2986
 8821SOL     OW27282   5.208   5.784   5.110  0.0553 -0.1303 -0.3239
 8821SOL    HW127283   5.127   5.819   5.065 -1.9446 -4.1715 -0.3379
 8821SOL    HW227284   5.255   5.720   5.049  1.3286 -0.4110  0.8820
 8822SOL     OW27285   6.507   6.386   3.852 -0.2889 -0.5419 -0.6395
 8822SOL    HW127286   6.578   6.341   3.798 -0.3626  0.5550 -1.7045
 8822SOL    HW227287   6.457   6.451   3.794 -2.2540 -1.3627  0.0510
 8823SOL     OW27288   5.879   2.443   1.624 -0.0064 -0.6459 -0.4301
 8823SOL    HW127289   5.956   2.424   1.562 -0.1379  1.1559 -1.1964
 8823SOL    HW227290   5.799   2.471   1.571  0.0675  1.6096  0.5168
 8824SOL     OW27291   5.312   2.742   2.116  0.3659  0.2852 -0.4250
 8824SOL    HW127292   5.267   2.809   2.175 -0.2591 -1.0753  0.7179
 8824SOL    HW227293   5.243   2.697   2.059  0.3835 -1.0544  0.5522
 8825SOL     OW27294   1.158   3.891   1.148  0.1119 -0.2862  0.2770
 8825SOL    HW127295   1.198   3.982   1.142 -1.0808  0.4310  2.3015
 8825SOL    HW227296   1.231   3.822   1.148  1.0757  0.6998 -0.1396
 8826SOL     OW27297   5.455   1.120   6.926  0.0568 -0.2857 -0.0298
 8826SOL    HW127298   5.542   1.169   6.918  0.0622 -0.3338 -0.2909
 8826SOL    HW227299   5.407   1.123   6.838 -0.3347 -0.0184  0.1899
 8827SOL     OW27300   3.703   5.916   5.127  0.4188 -0.5820 -0.0386
 8827SOL    HW127301   3.697   5.922   5.028  2.1496 -1.9688 -0.2845
 8827SOL    HW227302   3.681   5.822   5.156  0.3467 -0.3037  0.8456
 8828SOL     OW27303   6.583   6.013   6.977  0.6905  0.1799 -0.5239
 8828SOL    HW127304   6.674   6.009   7.019  0.4998  0.4518 -0.1045
 8828SOL    HW227305   6.529   6.083   7.023  0.5842  0.6996 -1.4543
 8829SOL     OW27306   1.335   0.800   7.010 -0.6720  0.4673 -0.0663
 8829SOL    HW127307   1.312   0.714   6.965 -2.3301  0.6470  0.3174
 8829SOL    HW227308   1.284   0.807   7.096  0.5728  1.2151  0.6212
 8830SOL     OW27309   5.172   2.360   6.529 -0.0604 -0.1532 -0.3587
 8830SOL    HW127310   5.207   2.359   6.435  0.9490 -1.7066  0.0010
 8830SOL    HW227311   5.074   2.337   6.528 -0.0722 -0.1108 -1.0195
 8831SOL     OW27312   2.828   5.208   4.277 -0.2608 -0.0354 -0.0394
 8831SOL    HW127313   2.876   5.145   4.217 -2.9673 -0.1988 -2.3023
 8831SOL    HW227314   2.834   5.301   4.239  1.6849  0.7257  1.9533
 8832SOL     OW27315   2.827   5.244   0.084 -0.3545  0.2265 -0.0154
 8832SOL    HW127316   2.729   5.226   0.076 -0.2403  0.0687 -1.2741
 8832SOL    HW227317   2.877   5.187   0.019  0.6991 -0.6396  1.5042
 8833SOL     OW27318   1.711   5.580   3.031  0.6315 -0.3826 -0.1465
 8833SOL    HW127319   1.792   5.630   3.002  0.8901 -1.0389 -0.5924
 8833SOL    HW227320   1.681   5.520   2.957 -1.4336  1.2602 -0.7393
 8834SOL     OW27321   1.924   6.337   1.961  0.0401 -0.0151 -0.0954
 8834SOL    HW127322   1.985   6.277   1.908 -1.1875 -2.1795  0.8334
 8834SOL    HW227323   1.979   6.392   2.025  1.1072 -1.6589  0.4800
 8835SOL     OW27324   4.766   4.302   4.249  0.2320 -0.0741  0.1648
 8835SOL    HW127325   4.748   4.321   4.153 -1.1641 -0.4024  0.3412
 8835SOL    HW227326   4.818   4.378   4.289 -1.4750  1.3802 -0.2069
 8836SOL     OW27327   0.810   2.981   4.557  0.4064 -0.1619  0.5049
 8836SOL    HW127328   0.743   2.917   4.594 -1.6822  2.4572  1.5698
 8836SOL    HW227329   0.806   2.979   4.457  1.8276 -3.0056  0.4213
 8837SOL     OW27330   5.277   0.649   5.972  0.1311  0.3584 -0.5767
 8837SOL    HW127331   5.303   0.742   5.945  1.2255 -0.2515 -1.7001
 8837SOL    HW227332   5.257   0.594   5.891 -0.9778 -0.2867  0.0994
 8838SOL     OW27333   3.814   0.048   6.835  0.1893  0.0398 -0.3970
 8838SOL    HW127334   3.758   0.037   6.753 -0.6121  0.8495  0.0248
 8838SOL    HW227335   3.792  -0.024   6.900 -0.6627  0.5974 -0.0777
 8839SOL     OW27336   6.523   2.723   2.952 -0.0226  0.1155  0.1514
 8839SOL    HW127337   6.516   2.725   3.051  0.3335 -2.3480  0.2843
 8839SOL    HW227338   6.615   2.694   2.925 -0.5831 -0.8558 -0.8296
 8840SOL     OW27339   1.688   4.685   5.124  0.2745  0.2103 -0.2932
 8840SOL    HW127340   1.729   4.750   5.061 -0.2744  0.0096 -0.8594
 8840SOL    HW227341   1.592   4.709   5.139  0.0431 -0.5097 -0.5728
 8841SOL     OW27342   0.433   1.977   2.784 -0.1532  0.1550 -0.1669
 8841SOL    HW127343   0.522   2.004   2.748 -0.0732  2.3935  1.5126
 8841SOL    HW227344   0.441   1.953   2.880 -1.2289 -0.5254 -0.2284
 8842SOL     OW27345   3.073   1.144   1.470  0.4734 -0.1417 -0.0685
 8842SOL    HW127346   3.159   1.181   1.506  0.1776 -0.6290  1.2334
 8842SOL    HW227347   3.089   1.104   1.380  1.5019  0.2194 -0.0632
 8843SOL     OW27348   6.137   2.670   2.324 -0.5611  0.4747  0.1359
 8843SOL    HW127349   6.190   2.720   2.393 -0.2606  1.2116 -0.6117
 8843SOL    HW227350   6.070   2.612   2.371  1.2451 -0.9341  1.1252
 8844SOL     OW27351   5.793   6.764   1.401  0.1961 -0.2016 -0.5423
 8844SOL    HW127352   5.758   6.726   1.315 -3.3354 -1.7561  1.3072
 8844SOL    HW227353   5.814   6.689   1.464  1.5428  0.8944  0.3650
 8845SOL     OW27354   4.957   6.993   0.089 -0.2032  0.1264  0.0589
 8845SOL    HW127355   4.965   7.070   0.152 -1.1319 -1.0331  1.6372
 8845SOL    HW227356   5.045   6.947   0.081  0.3811  1.3644 -0.9690
 8846SOL     OW27357   1.876   2.149   1.306 -0.3511 -0.3508 -0.0877
 8846SOL    HW127358   1.877   2.107   1.397 -2.0545 -0.6257 -0.1651
 8846SOL    HW227359   1.933   2.231   1.306 -0.9605  0.0916  1.4603
 8847SOL     OW27360   4.565   3.702   2.977 -0.4241 -0.1878 -0.5573
 8847SOL    HW127361   4.626   3.624   2.993  1.0334  0.9522 -0.3432
 8847SOL    HW227362   4.559   3.719   2.878  1.5766  1.1297 -0.5178
 8848SOL     OW27363   2.630   2.460   5.702 -0.1013  0.0713  0.2914
 8848SOL    HW127364   2.555   2.394   5.709 -0.4057  0.3587 -0.2517
 8848SOL    HW227365   2.670   2.474   5.793  0.3689 -1.3171  0.3231
 8849SOL     OW27366   5.136   0.773   0.425  0.1174 -0.3331 -0.0277
 8849SOL    HW127367   5.236   0.766   0.425  0.0553 -1.1838 -0.2825
 8849SOL    HW227368   5.095   0.682   0.417 -0.6758  0.0829 -0.8739
 8850SOL     OW27369   3.475   0.693   2.657  0.0000 -0.2396 -0.0023
 8850SOL    HW127370   3.495   0.781   2.699 -0.1855 -0.7470  1.1748
 8850SOL    HW227371   3.559   0.640   2.648  0.2053  0.2750 -1.2436
 8851SOL     OW27372   6.581   4.876   5.278 -0.9824 -0.1261 -0.4653
 8851SOL    HW127373   6.648   4.945   5.252 -1.6858  0.9529  0.4515
 8851SOL    HW227374   6.490   4.905   5.248 -1.3534 -0.4034  0.3438
 8852SOL     OW27375   2.466   3.153   2.320  0.0512 -0.4698 -0.4798
 8852SOL    HW127376   2.537   3.134   2.253 -0.1733 -1.5564 -0.4238
 8852SOL    HW227377   2.395   3.210   2.278  0.7445  0.2833 -0.6497
 8853SOL     OW27378   6.718   6.999   1.137 -0.5521  0.2732  0.9877
 8853SOL    HW127379   6.719   7.009   1.038 -1.2335  1.6299  1.1007
 8853SOL    HW227380   6.764   6.914   1.162 -0.8653 -0.3686 -0.5155
 8854SOL     OW27381   4.308   2.206   4.016 -0.5506 -0.0627 -0.4839
 8854SOL    HW127382   4.238   2.225   4.084 -1.1306 -0.0305 -1.0802
 8854SOL    HW227383   4.358   2.123   4.042 -1.1208 -0.3518 -0.3006
 8855SOL     OW27384   6.663   1.757   0.840 -0.3691  0.5829  0.1375
 8855SOL    HW127385   6.572   1.793   0.864 -1.1146 -0.1515 -1.4461
 8855SOL    HW227386   6.712   1.825   0.786  0.3030  1.2111  1.4629
 8856SOL     OW27387   1.928   2.540   2.916  0.3941 -0.0663 -0.5316
 8856SOL    HW127388   1.986   2.596   2.856 -2.2373  1.7100 -1.6309
 8856SOL    HW227389   1.871   2.480   2.859 -1.1080  0.5878  0.2348
 8857SOL     OW27390   6.535   5.678   3.756  0.0237 -0.3046  0.0016
 8857SOL    HW127391   6.522   5.606   3.689 -0.9530 -0.1638  0.0247
 8857SOL    HW227392   6.518   5.767   3.713 -0.9931 -0.2407  0.5238
 8858SOL     OW27393   2.731   6.070   5.422 -0.2322  0.3303 -0.3961
 8858SOL    HW127394   2.803   6.019   5.376  0.0116  0.9510 -0.7301
 8858SOL    HW227395   2.645   6.020   5.416 -0.3796  0.7270 -2.2196
 8859SOL     OW27396   4.472   0.989   3.030 -0.1660 -0.3275 -0.1171
 8859SOL    HW127397   4.448   0.956   2.939  0.8973 -1.8772  0.1216
 8859SOL    HW227398   4.557   1.042   3.024 -1.2190  1.4155 -0.3119
 8860SOL     OW27399   6.678   5.279   5.944  1.2900  0.4791  0.6129
 8860SOL    HW127400   6.689   5.180   5.944  2.0671  0.5402 -0.8470
 8860SOL    HW227401   6.635   5.308   5.858  3.3307  1.5982 -0.0836
 8861SOL     OW27402   4.539   5.860   0.529 -0.2385  0.1575 -0.2757
 8861SOL    HW127403   4.557   5.819   0.440 -1.0148 -0.5205 -0.1319
 8861SOL    HW227404   4.466   5.928   0.521 -0.7154 -0.3279 -0.0468
 8862SOL     OW27405   0.159   1.524   4.370  0.2363  0.2260 -0.4571
 8862SOL    HW127406   0.180   1.606   4.423  0.0997 -0.2924  0.4248
 8862SOL    HW227407   0.095   1.546   4.297  1.5917  1.2582 -1.3709
 8863SOL     OW27408   4.695   4.606   3.433 -0.3279 -0.8195 -0.0585
 8863SOL    HW127409   4.635   4.544   3.484 -0.1398 -0.4686  0.6057
 8863SOL    HW227410   4.762   4.646   3.496 -0.2421 -0.1896 -0.5440
 8864SOL     OW27411   5.037   5.502   6.739  0.1928 -0.1807  0.5281
 8864SOL    HW127412   5.001   5.593   6.722  0.1282 -0.2316  0.3869
 8864SOL    HW227413   5.115   5.507   6.801  1.9894  0.2791 -1.6421
 8865SOL     OW27414   5.182   2.584   6.862  0.4773  0.4301 -0.7796
 8865SOL    HW127415   5.125   2.663   6.880 -1.7264 -1.0537 -0.8915
 8865SOL    HW227416   5.255   2.578   6.931  0.6869  2.4928 -0.7877
 8866SOL     OW27417   7.006   0.417   2.138  0.0993  0.0872  0.5723
 8866SOL    HW127418   6.978   0.513   2.149 -0.5261 -0.0108 -0.0370
 8866SOL    HW227419   6.945   0.373   2.072  2.9791  0.4326 -2.6252
 8867SOL     OW27420   5.813   0.944   3.360  0.2461 -0.1351 -0.6071
 8867SOL    HW127421   5.794   0.861   3.414  2.2144 -0.6869 -0.7054
 8867SOL    HW227422   5.774   0.933   3.268  0.5069 -0.9577 -0.6275
 8868SOL     OW27423   0.650   5.960   0.563 -0.5235  0.4187 -0.5705
 8868SOL    HW127424   0.585   5.891   0.532 -1.0077  0.7273 -0.2560
 8868SOL    HW227425   0.724   5.916   0.614 -2.1100  0.3174  1.8053
 8869SOL     OW27426   4.189   2.339   2.155  0.2220  0.5113 -0.7508
 8869SOL    HW127427   4.125   2.386   2.216 -0.6461 -0.6702 -0.7325
 8869SOL    HW227428   4.220   2.403   2.084  0.2605  1.5399  0.1578
 8870SOL     OW27429   0.599   5.556   3.908 -0.3819  0.1331 -0.4224
 8870SOL    HW127430   0.630   5.629   3.970 -1.8607 -0.0848  0.6442
 8870SOL    HW227431   0.664   5.545   3.834  1.3552  0.5743  0.9650
 8871SOL     OW27432   6.858   5.858   2.195  0.4812 -0.0737  0.4335
 8871SOL    HW127433   6.908   5.806   2.125  0.4960 -1.0346  1.1450
 8871SOL    HW227434   6.884   5.825   2.286 -0.0803  0.6735  0.8681
 8872SOL     OW27435   3.272   0.730   6.140  0.5713  0.1941 -0.4894
 8872SOL    HW127436   3.317   0.755   6.226 -2.4864  1.2867  0.9425
 8872SOL    HW227437   3.307   0.788   6.066  2.1259  0.3152  0.3005
 8873SOL     OW27438   4.539   1.033   5.081  0.5617 -0.6699 -0.2302
 8873SOL    HW127439   4.493   0.988   5.005 -0.0080 -0.8515  0.2057
 8873SOL    HW227440   4.583   1.117   5.049  1.4884 -1.4439 -1.0216
 8874SOL     OW27441   1.939   0.977   3.488 -0.6887 -0.1654 -0.3301
 8874SOL    HW127442   2.034   0.977   3.519 -0.6579  1.4068 -0.3673
 8874SOL    HW227443   1.884   1.037   3.546 -1.2710  0.3843 -1.4214
 8875SOL     OW27444   4.979   4.726   0.501 -0.0844 -0.3721 -0.0700
 8875SOL    HW127445   4.956   4.717   0.404  2.8045  2.4927 -1.2242
 8875SOL    HW227446   4.912   4.786   0.545  0.8472  1.9134 -1.5216
 8876SOL     OW27447   3.266   3.654   2.321 -0.0957 -0.1784  0.7583
 8876SOL    HW127448   3.316   3.615   2.244 -0.2798 -2.4828  1.7342
 8876SOL    HW227449   3.169   3.635   2.310 -0.2912  0.6842  0.9016
 8877SOL     OW27450   5.330   1.924   6.148 -0.1880 -0.3567  0.0291
 8877SOL    HW127451   5.232   1.935   6.133 -0.3618 -2.5532 -0.7870
 8877SOL    HW227452   5.365   2.002   6.200 -2.2775  0.6517  0.0086
 8878SOL     OW27453   6.373   3.940   6.319 -0.2050 -0.3939  0.2057
 8878SOL    HW127454   6.451   3.960   6.260  0.7570  0.3705  1.6765
 8878SOL    HW227455   6.344   4.024   6.365  0.7756 -1.3507  2.7970
 8879SOL     OW27456   4.532   1.676   4.127 -0.0539 -0.0428 -0.2293
 8879SOL    HW127457   4.608   1.725   4.084  0.0069 -0.1317 -0.2220
 8879SOL    HW227458   4.492   1.733   4.199  0.8647 -0.5339  0.6969
 8880SOL     OW27459   6.692   0.214   4.065  0.0369 -0.6535  0.6239
 8880SOL    HW127460   6.779   0.256   4.038 -0.0174 -1.2174 -0.4490
 8880SOL    HW227461   6.635   0.283   4.110  0.3614  0.1603 -0.1924
 8881SOL     OW27462   2.669   0.818   4.013  0.1508 -0.0366  1.1800
 8881SOL    HW127463   2.622   0.902   4.042  0.2074  0.3668  0.1440
 8881SOL    HW227464   2.656   0.805   3.915  3.0649  0.6519  0.5985
 8882SOL     OW27465   1.573   0.083   1.565 -0.2952  0.4304  0.2250
 8882SOL    HW127466   1.538   0.034   1.485  0.7467  0.7855 -0.4765
 8882SOL    HW227467   1.666   0.115   1.546  0.9761 -1.6063  2.4228
 8883SOL     OW27468   5.009   4.610   0.177 -0.1995 -0.5643  0.6329
 8883SOL    HW127469   4.988   4.537   0.242 -1.5392 -2.5294 -1.8470
 8883SOL    HW227470   4.942   4.609   0.103  1.3440  1.4351 -0.8976
 8884SOL     OW27471   0.137   2.567   1.501 -0.8151 -0.5099 -0.0114
 8884SOL    HW127472   0.228   2.539   1.473 -0.0741  2.2835 -0.7312
 8884SOL    HW227473   0.115   2.528   1.590  1.0176 -1.3338  0.1031
 8885SOL     OW27474   6.669   0.870   6.726 -0.2044 -0.6000  0.0892
 8885SOL    HW127475   6.607   0.808   6.678 -1.7805  1.7657 -1.1224
 8885SOL    HW227476   6.698   0.943   6.663 -0.8129  1.5492  2.1756
 8886SOL     OW27477   0.199   4.257   2.357 -0.4384  0.3228  0.1142
 8886SOL    HW127478   0.260   4.230   2.282  1.4035 -1.4077  2.0610
 8886SOL    HW227479   0.193   4.357   2.360 -1.1288  0.4590 -2.6680
 8887SOL     OW27480   1.759   6.881   2.392  0.1936  0.0917  0.3817
 8887SOL    HW127481   1.813   6.960   2.422  0.1051 -0.4376  2.0332
 8887SOL    HW227482   1.683   6.868   2.456 -1.2839  0.1752 -1.2821
 8888SOL     OW27483   1.231   1.360   3.858 -0.6843  0.3898 -0.4936
 8888SOL    HW127484   1.193   1.450   3.879 -1.0690 -0.1965  1.5074
 8888SOL    HW227485   1.160   1.303   3.816 -0.8037  0.6139 -0.5971
 8889SOL     OW27486   5.695   2.762   3.582 -0.0378  0.0511  0.1374
 8889SOL    HW127487   5.782   2.772   3.534 -0.1794  1.3970  0.1385
 8889SOL    HW227488   5.711   2.760   3.681 -0.0949  1.4143  0.1822
 8890SOL     OW27489   4.506   2.102   1.131  0.4718 -0.1554  0.2998
 8890SOL    HW127490   4.553   2.148   1.206  1.7640 -1.0426  0.0777
 8890SOL    HW227491   4.538   2.007   1.124 -0.7650 -0.5561 -0.4063
 8891SOL     OW27492   5.690   2.288   0.866 -0.3725  0.0592  0.6484
 8891SOL    HW127493   5.763   2.225   0.840 -0.4294 -0.0650  0.7858
 8891SOL    HW227494   5.727   2.380   0.876 -0.5132  0.3110 -0.8167
 8892SOL     OW27495   6.913   2.153   1.603  0.1043  0.0246  0.1825
 8892SOL    HW127496   6.908   2.108   1.692  1.0115  0.1635  0.3135
 8892SOL    HW227497   6.839   2.219   1.594  2.2239  2.9856  2.5028
 8893SOL     OW27498   3.110   6.512   2.654 -0.4638  0.1541 -0.2262
 8893SOL    HW127499   3.189   6.567   2.628 -1.0498  0.5265 -1.2566
 8893SOL    HW227500   3.095   6.519   2.753 -0.8624  2.2771 -0.3955
 8894SOL     OW27501   5.150   5.397   4.914 -0.4372 -0.3210 -0.0261
 8894SOL    HW127502   5.210   5.463   4.959  0.7571 -2.1038  1.1112
 8894SOL    HW227503   5.105   5.340   4.983 -3.6149  1.0333 -0.8358
 8895SOL     OW27504   1.608   1.832   5.161 -0.2333 -0.0033 -0.5165
 8895SOL    HW127505   1.519   1.835   5.116  0.8515  1.3489 -2.7775
 8895SOL    HW227506   1.638   1.925   5.182  0.7839 -0.4076 -0.0661
 8896SOL     OW27507   5.091   4.285   4.111  0.0020 -0.0486  0.0498
 8896SOL    HW127508   5.093   4.354   4.184  0.7099  2.0267 -1.8064
 8896SOL    HW227509   5.184   4.271   4.077 -0.3236 -0.8786 -0.5388
 8897SOL     OW27510   0.716   1.919   3.951 -0.3949 -0.0092  0.4043
 8897SOL    HW127511   0.816   1.926   3.950 -0.3475  0.2531 -2.0844
 8897SOL    HW227512   0.690   1.825   3.929 -0.6878  0.0788  0.3754
 8898SOL     OW27513   3.366   4.124   6.436  0.3471  0.2825  0.1076
 8898SOL    HW127514   3.393   4.202   6.492  0.4104  0.3297  0.0119
 8898SOL    HW227515   3.381   4.145   6.340 -1.3191  0.8238 -0.0641
 8899SOL     OW27516   3.699   6.154   1.324 -0.5018  0.9250  0.0798
 8899SOL    HW127517   3.762   6.225   1.358 -1.0700  0.8898  1.2585
 8899SOL    HW227518   3.746   6.066   1.322 -0.1484  1.1142 -0.2558
 8900SOL     OW27519   1.415   4.859   1.104  0.5329  0.5941  0.3369
 8900SOL    HW127520   1.501   4.806   1.098  0.3996 -0.0033  2.6346
 8900SOL    HW227521   1.360   4.842   1.023  2.6896  1.1948 -1.3265
 8901SOL     OW27522   1.243   6.985   6.909  0.3779  0.0534  0.5964
 8901SOL    HW127523   1.219   7.045   6.985  1.1582  1.3124 -0.1222
 8901SOL    HW227524   1.194   6.899   6.917 -0.7104  0.7513  1.7287
 8902SOL     OW27525   6.974   0.545   0.453 -0.1364  0.0991  0.3023
 8902SOL    HW127526   6.929   0.472   0.400 -0.2186 -0.7796  1.5310
 8902SOL    HW227527   7.040   0.592   0.394  0.3886 -1.4058 -0.3739
 8903SOL     OW27528   6.186   0.441   2.902  0.1784 -0.4005 -0.0686
 8903SOL    HW127529   6.252   0.375   2.937  0.0224 -0.6188 -0.1700
 8903SOL    HW227530   6.233   0.527   2.879  0.2415 -0.1735  0.8832
 8904SOL     OW27531   2.798   1.893   5.994  0.0350 -0.0819 -0.5670
 8904SOL    HW127532   2.860   1.873   5.918 -0.5541  0.1147 -1.1121
 8904SOL    HW227533   2.827   1.843   6.075 -0.1539 -1.4172 -1.3032
 8905SOL     OW27534   1.056   6.207   5.459  0.0461 -0.0052 -0.3097
 8905SOL    HW127535   1.044   6.285   5.399 -1.4136 -0.1898 -0.2859
 8905SOL    HW227536   1.018   6.125   5.416 -0.8075 -0.1857  0.7438
 8906SOL     OW27537   6.430   4.375   1.165 -0.3675 -0.2646 -0.0293
 8906SOL    HW127538   6.373   4.382   1.247 -0.6855 -2.3284 -0.0243
 8906SOL    HW227539   6.499   4.304   1.178 -0.0029 -0.1791 -1.3277
 8907SOL     OW27540   2.192   1.506   4.945 -0.0605 -0.1961 -0.4523
 8907SOL    HW127541   2.207   1.473   5.038 -1.0950 -0.2751 -0.3128
 8907SOL    HW227542   2.280   1.533   4.905  0.8297 -2.6944 -0.3973
 8908SOL     OW27543   2.552   6.748   0.984  0.3584  0.1799 -0.6147
 8908SOL    HW127544   2.485   6.682   1.020 -1.3166  0.1929 -3.4515
 8908SOL    HW227545   2.514   6.840   0.989  1.3653  0.5671  0.3141
 8909SOL     OW27546   1.919   5.101   6.107  0.0079  0.5958 -0.5976
 8909SOL    HW127547   1.900   5.009   6.073 -1.2715  1.0887 -1.2847
 8909SOL    HW227548   1.867   5.117   6.191 -0.4343  0.9756 -0.9374
 8910SOL     OW27549   6.968   6.614   5.957 -0.1298  0.4726 -0.8406
 8910SOL    HW127550   7.056   6.653   5.929 -0.0231  0.5210 -0.3795
 8910SOL    HW227551   6.963   6.612   6.057  0.2375 -1.5048 -0.8006
 8911SOL     OW27552   0.165   5.115   1.303  0.1557 -0.4629 -0.1276
 8911SOL    HW127553   0.093   5.183   1.316  0.5611 -0.1289  0.3981
 8911SOL    HW227554   0.245   5.158   1.261  0.3578 -0.6472  0.0614
 8912SOL     OW27555   1.432   5.921   5.741 -0.5285  0.3544 -0.0638
 8912SOL    HW127556   1.517   5.951   5.784 -0.0152  0.5050 -1.1545
 8912SOL    HW227557   1.371   6.000   5.731 -0.4037  0.4412 -0.1604
 8913SOL     OW27558   4.659   1.533   2.798  0.2211  0.0736  0.6681
 8913SOL    HW127559   4.681   1.457   2.738 -0.1622  0.0277  0.5829
 8913SOL    HW227560   4.586   1.507   2.861 -1.6191  1.0982 -0.9431
 8914SOL     OW27561   0.480   2.137   3.124 -0.2616  0.2508  0.0098
 8914SOL    HW127562   0.408   2.081   3.082  0.0503  0.4425 -0.8153
 8914SOL    HW227563   0.478   2.229   3.085 -0.5840  0.7480  1.1545
 8915SOL     OW27564   1.427   6.710   2.229 -0.0287  0.0376 -0.4903
 8915SOL    HW127565   1.447   6.775   2.156  0.6783  0.0851 -0.2603
 8915SOL    HW227566   1.483   6.628   2.216 -0.3725 -0.2234 -0.3582
 8916SOL     OW27567   3.957   1.935   4.217 -0.4917 -0.2205  0.0179
 8916SOL    HW127568   4.000   1.845   4.223 -2.2575 -1.1274 -0.2431
 8916SOL    HW227569   3.881   1.940   4.281  0.1085  1.4374  0.6604
 8917SOL     OW27570   5.603   4.109   6.855 -0.1763 -0.2921  0.4562
 8917SOL    HW127571   5.531   4.144   6.916  2.0389  1.8173  2.0834
 8917SOL    HW227572   5.654   4.037   6.902  0.9169  0.6570  0.7838
 8918SOL     OW27573   5.465   1.227   3.278 -0.6303 -0.1144 -0.0048
 8918SOL    HW127574   5.446   1.322   3.256  0.9649  0.1781 -0.2495
 8918SOL    HW227575   5.471   1.174   3.194 -0.1552 -0.1499  0.0501
 8919SOL     OW27576   2.198   6.454   5.663  0.0432  0.1967 -0.1182
 8919SOL    HW127577   2.166   6.431   5.755  0.0534  1.4818  0.2333
 8919SOL    HW227578   2.120   6.485   5.608  0.0412 -0.5483 -0.5528
 8920SOL     OW27579   6.524   1.199   2.954 -0.5844 -0.1115  0.3663
 8920SOL    HW127580   6.581   1.158   2.883  0.7737 -0.0559  1.3928
 8920SOL    HW227581   6.436   1.152   2.957 -0.2918 -0.7612 -0.6777
 8921SOL     OW27582   1.351   5.193   6.262 -0.0689 -0.4242 -0.1495
 8921SOL    HW127583   1.275   5.131   6.280 -0.2998 -0.6748 -1.8018
 8921SOL    HW227584   1.421   5.145   6.209  1.2065 -0.1547  1.2181
 8922SOL     OW27585   3.679   6.777   5.847  0.4715  0.5529 -0.4958
 8922SOL    HW127586   3.660   6.760   5.943 -2.0842 -2.2650 -1.3692
 8922SOL    HW227587   3.670   6.875   5.827 -1.8492  0.8157  1.5637
 8923SOL     OW27588   2.315   0.471   4.639  0.0974 -0.6213 -0.2561
 8923SOL    HW127589   2.365   0.405   4.584  1.0038 -0.4087  0.2950
 8923SOL    HW227590   2.234   0.502   4.589 -0.0824 -1.7881 -0.7138
 8924SOL     OW27591   4.789   6.201   5.615 -0.0148  0.5895  0.3237
 8924SOL    HW127592   4.857   6.135   5.583 -0.1923  1.2230 -1.5004
 8924SOL    HW227593   4.698   6.159   5.615  0.0146  0.5275  0.2431
 8925SOL     OW27594   5.026   3.556   0.393  0.7903  0.3891  0.0175
 8925SOL    HW127595   5.096   3.523   0.456  1.8406 -0.1007 -1.3545
 8925SOL    HW227596   5.041   3.516   0.302  0.8106  2.8776 -1.1814
 8926SOL     OW27597   4.202   6.114   4.685 -0.2339 -0.2364 -0.5607
 8926SOL    HW127598   4.276   6.073   4.738 -1.1210 -0.9088  0.1939
 8926SOL    HW227599   4.143   6.041   4.650 -1.4153  0.3354  0.1701
 8927SOL     OW27600   6.700   1.030   2.789  0.2262 -0.4725  0.5503
 8927SOL    HW127601   6.728   0.946   2.836  0.0609 -0.2953  0.9762
 8927SOL    HW227602   6.677   1.009   2.694 -0.2081 -0.9842  0.7608
 8928SOL     OW27603   2.092   3.564   4.915  0.5055 -0.0039 -0.1880
 8928SOL    HW127604   2.100   3.504   4.835  1.4461 -0.0645 -0.0684
 8928SOL    HW227605   2.007   3.617   4.910  0.7612  0.3175 -1.4410
 8929SOL     OW27606   5.898   3.309   5.248  0.2111  0.8637 -0.4898
 8929SOL    HW127607   5.832   3.327   5.321 -0.7753  2.4385 -1.6934
 8929SOL    HW227608   5.991   3.317   5.284 -0.2590  1.0853  0.6981
 8930SOL     OW27609   2.565   5.600   2.365 -0.1388  0.3047  0.5392
 8930SOL    HW127610   2.474   5.573   2.332  0.3344 -2.6533  1.3616
 8930SOL    HW227611   2.582   5.555   2.453  3.3689 -1.8879 -1.0875
 8931SOL     OW27612   5.297   3.873   0.478 -0.4737 -0.4916  0.1392
 8931SOL    HW127613   5.374   3.831   0.526 -0.5317  0.7577  1.3624
 8931SOL    HW227614   5.221   3.886   0.542 -0.8202  0.5339 -0.4664
 8932SOL     OW27615   3.778   6.381   2.642  0.3533 -0.2775  0.1184
 8932SOL    HW127616   3.873   6.350   2.648  0.2800 -0.7048 -0.6638
 8932SOL    HW227617   3.776   6.480   2.629  0.7110 -0.2967 -0.0992
 8933SOL     OW27618   4.415   1.019   6.868  0.3363 -0.2856  0.0994
 8933SOL    HW127619   4.496   1.070   6.837 -0.5641 -0.3307 -2.4630
 8933SOL    HW227620   4.348   1.083   6.905  1.1708 -0.1697  1.4909
 8934SOL     OW27621   4.372   1.843   2.439 -0.1850 -0.4923  0.2689
 8934SOL    HW127622   4.417   1.788   2.509 -1.3304 -0.1335  1.3068
 8934SOL    HW227623   4.293   1.889   2.479 -0.5897  0.0730 -1.1574
 8935SOL     OW27624   6.957   3.506   4.886 -0.2930  0.4858  0.2546
 8935SOL    HW127625   6.909   3.557   4.957  0.8421  0.8320  0.7966
 8935SOL    HW227626   7.056   3.516   4.898 -0.0889  0.9455 -1.6677
 8936SOL     OW27627   4.298   1.883   1.240  0.2073  0.5616 -0.2382
 8936SOL    HW127628   4.259   1.961   1.190 -0.3412  0.3940 -0.0796
 8936SOL    HW227629   4.381   1.852   1.193  0.7533  1.5922  0.0010
 8937SOL     OW27630   3.869   1.074   5.822 -0.4587  0.4567  0.4793
 8937SOL    HW127631   3.840   1.076   5.917  0.1783  1.1004  0.6613
 8937SOL    HW227632   3.954   1.022   5.813 -0.1524  0.9634  0.3695
 8938SOL     OW27633   3.036   1.050   6.279 -0.1200 -0.3338 -0.3490
 8938SOL    HW127634   3.027   1.082   6.184  1.2109  0.5692 -0.1882
 8938SOL    HW227635   3.133   1.037   6.301 -0.2799  1.2521  1.4611
 8939SOL     OW27636   4.077   2.403   6.914 -0.5006 -0.4646 -0.2494
 8939SOL    HW127637   4.172   2.380   6.933 -0.3297  0.4911  0.0911
 8939SOL    HW227638   4.054   2.374   6.821  0.1760 -0.5190 -0.4034
 8940SOL     OW27639   4.206   5.073   2.594  0.1146  0.0787 -0.0999
 8940SOL    HW127640   4.150   5.068   2.676 -1.0439 -1.9885 -0.9367
 8940SOL    HW227641   4.289   5.018   2.606 -0.6215 -1.1945 -0.6833
 8941SOL     OW27642   2.568   4.792   6.146  0.1190 -0.2047 -0.3700
 8941SOL    HW127643   2.628   4.810   6.224 -0.4553  0.2266 -0.0179
 8941SOL    HW227644   2.537   4.697   6.148 -1.3015  0.2521  0.9389
 8942SOL     OW27645   1.489   2.766   1.979 -0.4234 -0.9172 -0.6051
 8942SOL    HW127646   1.400   2.753   2.022  0.1494 -1.3564  0.4711
 8942SOL    HW227647   1.550   2.692   2.006  1.1537  0.8924  0.9936
 8943SOL     OW27648   4.668   3.704   0.180 -0.1089  0.1533 -0.4636
 8943SOL    HW127649   4.693   3.796   0.210 -0.2856  0.3743 -0.9739
 8943SOL    HW227650   4.723   3.679   0.101  1.5221 -1.0726  0.9601
 8944SOL     OW27651   2.988   0.211   2.859 -0.4746  0.1002 -0.6820
 8944SOL    HW127652   2.970   0.308   2.838 -0.2575  0.4118  0.5187
 8944SOL    HW227653   2.914   0.176   2.917 -1.4204 -0.9362 -2.4406
 8945SOL     OW27654   6.358   2.287   4.142  0.1901  0.2956 -0.6494
 8945SOL    HW127655   6.365   2.307   4.240  0.5686 -1.6412 -0.2468
 8945SOL    HW227656   6.288   2.346   4.101 -0.4724  0.6345  0.9105
 8946SOL     OW27657   4.403   6.988   0.630  0.8094  0.2832  0.3679
 8946SOL    HW127658   4.373   7.075   0.590 -1.8966 -0.6004  0.2974
 8946SOL    HW227659   4.414   7.000   0.729 -2.7883  0.0865  0.9431
 8947SOL     OW27660   2.096   0.208   6.459 -0.2269 -0.1733  0.0831
 8947SOL    HW127661   2.138   0.298   6.461 -2.4158  0.9064  0.0495
 8947SOL    HW227662   2.126   0.159   6.377  0.2230  0.9254 -0.4256
 8948SOL     OW27663   5.623   6.255   1.701 -0.3287  0.3813  1.0300
 8948SOL    HW127664   5.648   6.160   1.717  0.9350  0.8880  2.2623
 8948SOL    HW227665   5.574   6.262   1.614  0.3829 -1.2394  0.4536
 8949SOL     OW27666   1.931   2.240   2.098  0.1631  0.1817 -0.4492
 8949SOL    HW127667   1.910   2.325   2.051  1.1754  0.4561 -0.4313
 8949SOL    HW227668   2.007   2.194   2.052 -0.1065 -0.5001 -0.2205
 8950SOL     OW27669   3.475   2.527   2.295  0.1811 -0.5987 -0.3425
 8950SOL    HW127670   3.505   2.614   2.332  1.5146 -1.1578 -0.0587
 8950SOL    HW227671   3.447   2.538   2.200  0.9723  0.0153 -0.5112
 8951SOL     OW27672   4.195   1.277   4.683  0.0561 -0.3432  0.1861
 8951SOL    HW127673   4.181   1.210   4.610  1.1293  1.3184 -1.6804
 8951SOL    HW227674   4.108   1.320   4.706 -0.3746 -1.2102  0.2110
 8952SOL     OW27675   2.484   0.694   1.960  0.0642  0.9694  0.5238
 8952SOL    HW127676   2.420   0.749   2.013 -0.0876  0.8536  0.4618
 8952SOL    HW227677   2.438   0.656   1.880  0.7752  2.6847 -0.7526
 8953SOL     OW27678   0.152   2.594   6.278 -0.2302 -0.1833  0.3232
 8953SOL    HW127679   0.177   2.502   6.247 -0.2385 -0.8656  2.1922
 8953SOL    HW227680   0.087   2.635   6.214  0.7459 -0.9127 -1.2493
 8954SOL     OW27681   6.806   3.580   2.150  0.0003  0.0548  0.3859
 8954SOL    HW127682   6.735   3.613   2.087  0.3219  0.0695  0.0276
 8954SOL    HW227683   6.773   3.497   2.195 -0.0146 -0.2800 -0.2217
 8955SOL     OW27684   5.315   3.815   5.329 -0.1525 -0.4802 -0.0821
 8955SOL    HW127685   5.385   3.747   5.349  0.8501  0.5192 -0.0520
 8955SOL    HW227686   5.225   3.775   5.343  0.4181 -1.2946  1.7362
 8956SOL     OW27687   4.096   0.876   3.708  0.7192 -0.0180  0.2920
 8956SOL    HW127688   4.025   0.808   3.727 -0.5238  1.8338  2.8481
 8956SOL    HW227689   4.055   0.954   3.662  1.6154  0.1714 -0.2157
 8957SOL     OW27690   5.680   1.431   1.110 -0.0706  0.0516 -0.4184
 8957SOL    HW127691   5.701   1.342   1.069  0.3980  0.2825 -0.6970
 8957SOL    HW227692   5.646   1.418   1.203 -1.2088 -0.4850 -0.9026
 8958SOL     OW27693   5.323   3.835   4.192 -0.0980 -0.1216  0.0673
 8958SOL    HW127694   5.282   3.853   4.103 -0.6710  0.9405  0.5333
 8958SOL    HW227695   5.370   3.746   4.190 -0.8073 -0.4870 -1.0397
 8959SOL     OW27696   1.298   4.946   1.581  0.4955  1.0815  0.4728
 8959SOL    HW127697   1.324   4.919   1.489  0.8444 -0.0834  0.9008
 8959SOL    HW227698   1.376   4.932   1.643  0.5193  2.5843  0.8053
 8960SOL     OW27699   6.114   6.552   1.724 -0.2034  0.0095 -0.1331
 8960SOL    HW127700   6.114   6.627   1.657  0.3956 -1.1291 -1.4757
 8960SOL    HW227701   6.140   6.467   1.678  0.2217 -0.8319  1.5769
 8961SOL     OW27702   4.669   5.406   2.875  0.7284  0.0751  0.1871
 8961SOL    HW127703   4.680   5.319   2.922 -0.1367 -0.6894 -0.9553
 8961SOL    HW227704   4.685   5.393   2.777  0.2388  1.1211 -0.0480
 8962SOL     OW27705   2.543   5.603   2.976 -0.4212 -0.3307  0.0681
 8962SOL    HW127706   2.572   5.510   2.954 -1.3054 -0.2685 -1.5118
 8962SOL    HW227707   2.502   5.645   2.895  1.5417  2.0775  0.1936
 8963SOL     OW27708   1.637   2.102   2.858 -0.4792 -0.5825 -0.5504
 8963SOL    HW127709   1.637   2.176   2.925 -1.6426  0.9525 -2.1511
 8963SOL    HW227710   1.729   2.063   2.851  0.0725  0.4511  0.5657
 8964SOL     OW27711   0.322   5.273   1.101  0.0895 -0.0795  0.4157
 8964SOL    HW127712   0.294   5.368   1.087  0.8138  0.0370 -0.3401
 8964SOL    HW227713   0.296   5.219   1.021  0.9318 -0.2091  0.2183
 8965SOL     OW27714   2.905   2.509   3.910  0.2541  0.0147  0.5104
 8965SOL    HW127715   2.923   2.556   3.996 -0.6266  1.0395  0.1549
 8965SOL    HW227716   2.991   2.469   3.876  1.0047  1.1904  0.9321
 8966SOL     OW27717   1.425   3.044   5.981 -0.3424 -0.5108 -0.2475
 8966SOL    HW127718   1.406   3.110   5.909 -1.8814  0.1036  0.6620
 8966SOL    HW227719   1.365   2.965   5.970  1.0473 -1.5163 -0.9603
 8967SOL     OW27720   5.277   1.011   0.624 -0.2062 -0.0880 -0.0413
 8967SOL    HW127721   5.312   1.032   0.533  0.8006 -1.3282  0.0403
 8967SOL    HW227722   5.229   1.091   0.661 -0.4150  0.5058 -1.5495
 8968SOL     OW27723   1.286   3.894   6.752 -0.4350 -0.1596 -0.2413
 8968SOL    HW127724   1.268   3.971   6.691 -0.9634 -1.3216 -1.6149
 8968SOL    HW227725   1.359   3.837   6.714  0.6279  0.1398  1.2419
 8969SOL     OW27726   4.060   6.493   5.970  0.2868 -0.3353 -0.1604
 8969SOL    HW127727   4.011   6.521   5.888  0.5008  1.5775  0.3477
 8969SOL    HW227728   4.158   6.513   5.960  0.2750  0.1965  0.6575
 8970SOL     OW27729   2.764   5.367   0.849 -0.1340 -0.5337 -0.3663
 8970SOL    HW127730   2.796   5.403   0.936  1.4580 -2.2727 -0.1901
 8970SOL    HW227731   2.675   5.324   0.861  0.1742 -0.9638  0.4542
 8971SOL     OW27732   2.930   4.301   0.948 -0.0120  0.1958  0.3329
 8971SOL    HW127733   3.011   4.283   1.003 -0.6879  2.1038  2.0704
 8971SOL    HW227734   2.939   4.389   0.902  0.0538 -0.8503 -1.7976
 8972SOL     OW27735   6.970   4.572   6.943 -0.2876 -0.7655 -0.3904
 8972SOL    HW127736   6.967   4.481   6.904  2.4378 -1.4759  0.8066
 8972SOL    HW227737   7.061   4.590   6.980 -1.9958  0.5606  3.7999
 8973SOL     OW27738   3.881   4.690   5.542 -0.3031  0.0034  0.2546
 8973SOL    HW127739   3.906   4.663   5.634 -0.8018  1.3577  0.8181
 8973SOL    HW227740   3.962   4.694   5.484  0.1963  0.3618  0.9704
 8974SOL     OW27741   1.615   6.394   2.960 -0.4928 -0.1852  0.1504
 8974SOL    HW127742   1.645   6.310   2.915  0.7272 -0.3351  1.1917
 8974SOL    HW227743   1.527   6.378   3.004  0.1220 -1.1851  1.0476
 8975SOL     OW27744   3.082   4.102   1.079  0.2145 -0.3155  0.3315
 8975SOL    HW127745   3.101   4.047   1.160 -2.2072  0.0930  1.2684
 8975SOL    HW227746   3.051   4.042   1.005 -2.0805 -0.3994  1.2407
 8976SOL     OW27747   6.141   1.495   3.247 -0.1102  0.4658 -0.5847
 8976SOL    HW127748   6.184   1.569   3.196  2.1359  0.5483  1.3033
 8976SOL    HW227749   6.079   1.533   3.316 -0.2591  0.5185 -0.7486
 8977SOL     OW27750   0.616   4.683   0.720 -0.2650 -0.0293 -0.2830
 8977SOL    HW127751   0.609   4.683   0.621  0.1340  0.5030 -0.3182
 8977SOL    HW227752   0.701   4.729   0.748 -1.3402  1.6446  0.3511
 8978SOL     OW27753   1.775   6.813   0.439  0.1651 -0.5864  0.0194
 8978SOL    HW127754   1.797   6.742   0.506 -0.2134 -0.5930  0.1414
 8978SOL    HW227755   1.847   6.882   0.437  0.5910 -1.0327 -0.1804
 8979SOL     OW27756   5.277   0.411   6.190 -0.0615  0.0914  0.2716
 8979SOL    HW127757   5.367   0.380   6.159 -1.1729 -0.5141 -2.6099
 8979SOL    HW227758   5.206   0.375   6.130 -2.0187  2.9742  0.6224
 8980SOL     OW27759   1.094   5.137   2.500  0.2921  0.9307 -0.0117
 8980SOL    HW127760   1.082   5.117   2.598 -1.7943 -1.8722 -0.6910
 8980SOL    HW227761   1.004   5.143   2.457  0.8737 -3.8102 -2.6632
 8981SOL     OW27762   2.667   2.764   2.677  0.3208 -0.0668 -0.0832
 8981SOL    HW127763   2.635   2.843   2.624  1.5409  0.9409  0.6293
 8981SOL    HW227764   2.641   2.776   2.773  2.0311  0.3807  0.3583
 8982SOL     OW27765   4.389   6.586   5.314  0.3697 -0.2587 -0.1988
 8982SOL    HW127766   4.481   6.577   5.352  0.4858  0.5129 -0.2789
 8982SOL    HW227767   4.363   6.683   5.312 -1.5740 -0.5921  2.4594
 8983SOL     OW27768   3.623   6.960   5.064 -0.0709  0.7947  0.3796
 8983SOL    HW127769   3.637   7.049   5.108  1.8604 -0.1073  1.6340
 8983SOL    HW227770   3.703   6.937   5.009 -1.1412  0.4214 -1.0833
 8984SOL     OW27771   0.822   0.918   0.488 -0.3646 -0.2700 -0.2352
 8984SOL    HW127772   0.798   0.822   0.506 -0.1896 -0.1581  0.6304
 8984SOL    HW227773   0.914   0.922   0.449 -0.5800 -0.4905 -0.7829
 8985SOL     OW27774   2.074   2.395   4.545  0.2952 -0.4872  0.6308
 8985SOL    HW127775   2.001   2.388   4.476  3.2464 -0.6598 -2.7736
 8985SOL    HW227776   2.090   2.492   4.567 -0.6896 -0.4299  1.1332
 8986SOL     OW27777   4.636   5.295   3.377  0.6348  0.3902  0.0790
 8986SOL    HW127778   4.696   5.332   3.306 -0.3598 -0.7597 -1.4170
 8986SOL    HW227779   4.673   5.317   3.467  0.9482  3.5434 -0.7167
 8987SOL     OW27780   4.167   1.134   5.383  0.3016 -0.1120 -0.6956
 8987SOL    HW127781   4.216   1.187   5.313  0.4602  0.8847  0.1403
 8987SOL    HW227782   4.070   1.159   5.382  0.0759 -0.9611 -1.3256
 8988SOL     OW27783   0.682   1.202   5.163  0.2013  0.0067  0.4477
 8988SOL    HW127784   0.676   1.301   5.158 -1.5269 -0.1197 -0.7077
 8988SOL    HW227785   0.737   1.176   5.243 -1.1200  1.8494  2.0356
 8989SOL     OW27786   0.934   0.613   3.416  0.9112  0.2062  0.2485
 8989SOL    HW127787   0.850   0.647   3.457  0.9088  0.8432 -0.2643
 8989SOL    HW227788   0.952   0.520   3.450  0.2288  0.2164  0.6769
 8990SOL     OW27789   0.802   1.195   0.466 -0.0343  0.2165  0.5362
 8990SOL    HW127790   0.804   1.098   0.491  1.4478  0.5697  1.8718
 8990SOL    HW227791   0.889   1.221   0.424 -0.9223  0.6773 -1.1260
 8991SOL     OW27792   4.098   6.853   5.750 -0.0017 -0.3213  0.1209
 8991SOL    HW127793   4.096   6.783   5.678  0.4663 -0.7940  0.5557
 8991SOL    HW227794   4.076   6.810   5.838  0.9990 -0.0678  0.5020
 8992SOL     OW27795   1.079   4.422   5.554 -0.1851  0.5494  0.1359
 8992SOL    HW127796   1.157   4.407   5.494  1.2576 -0.2020  2.0916
 8992SOL    HW227797   1.101   4.492   5.622  0.2128 -2.0378  2.8831
 8993SOL     OW27798   3.587   6.563   3.071 -0.2547  0.3612 -0.5143
 8993SOL    HW127799   3.680   6.547   3.105 -0.6708 -0.7126  0.1562
 8993SOL    HW227800   3.574   6.660   3.055  1.2294  0.4688 -1.2988
 8994SOL     OW27801   4.023   4.953   3.281 -0.0036 -0.7619 -0.2521
 8994SOL    HW127802   3.985   5.034   3.237  0.4063 -0.4451 -0.0312
 8994SOL    HW227803   4.076   4.901   3.214  2.9948  1.1530  0.4190
 8995SOL     OW27804   0.731   0.396   1.276  0.0909 -0.2358 -0.2492
 8995SOL    HW127805   0.706   0.424   1.183  0.4555 -0.6763 -0.4807
 8995SOL    HW227806   0.683   0.454   1.342  0.2626  0.4456 -0.7186
 8996SOL     OW27807   1.953   4.903   3.152  0.0024 -0.2118  0.2864
 8996SOL    HW127808   1.889   4.915   3.076  0.6414  1.3083 -0.0460
 8996SOL    HW227809   1.912   4.940   3.236  0.4566  0.8731  0.0508
 8997SOL     OW27810   0.166   3.913   0.798  0.0406  0.8232 -0.2083
 8997SOL    HW127811   0.229   3.913   0.720  0.2823  1.3015 -0.0174
 8997SOL    HW227812   0.104   3.991   0.789 -0.9133  0.0170 -0.7044
 8998SOL     OW27813   5.078   1.677   2.117 -0.2012 -0.1014 -0.0600
 8998SOL    HW127814   5.020   1.682   2.199 -2.1219  0.2691 -1.3680
 8998SOL    HW227815   5.041   1.736   2.046  0.8937 -1.0790 -1.5103
 8999SOL     OW27816   3.758   0.574   5.086 -0.2786 -0.1599  0.0548
 8999SOL    HW127817   3.789   0.581   5.180  1.8027 -0.9252 -0.5038
 8999SOL    HW227818   3.677   0.516   5.082  0.2607 -1.0511  1.2576
 9000SOL     OW27819   5.984   0.660   6.790  0.6167  0.0049  0.1466
 9000SOL    HW127820   6.080   0.676   6.815  0.7379  0.0448 -0.3396
 9000SOL    HW227821   5.955   0.729   6.724 -0.5197  1.5807  2.1746
 9001SOL     OW27822   0.416   3.289   6.499 -0.1480 -0.5294 -0.6148
 9001SOL    HW127823   0.414   3.196   6.535  0.0080 -0.2713  0.0766
 9001SOL    HW227824   0.454   3.350   6.568  0.2410 -0.0348 -1.2557
 9002SOL     OW27825   1.536   4.313   5.256  0.4361 -0.1346 -0.3513
 9002SOL    HW127826   1.616   4.372   5.263  0.4046 -0.2685  1.8437
 9002SOL    HW227827   1.550   4.231   5.312 -1.3283 -0.0373  0.3007
 9003SOL     OW27828   4.338   4.119   2.103  0.1663  0.0490 -0.0134
 9003SOL    HW127829   4.245   4.123   2.068  0.5194  1.4664 -0.8543
 9003SOL    HW227830   4.357   4.200   2.158  0.8653 -0.2869  0.2543
 9004SOL     OW27831   6.830   6.492   3.683 -0.4137  0.0948  0.1572
 9004SOL    HW127832   6.787   6.434   3.752 -0.9928 -0.7896 -0.9102
 9004SOL    HW227833   6.829   6.445   3.594  2.4052  0.2200 -0.0349
 9005SOL     OW27834   1.737   2.913   1.139  0.1337 -0.3603  0.0538
 9005SOL    HW127835   1.798   2.834   1.138 -0.0110 -0.4834  0.5507
 9005SOL    HW227836   1.747   2.964   1.054  2.0207  0.4727  0.7295
 9006SOL     OW27837   6.779   3.656   4.726 -0.1985  0.3211 -0.0993
 9006SOL    HW127838   6.840   3.605   4.787 -0.9786  0.3680  0.7424
 9006SOL    HW227839   6.699   3.600   4.705  0.9155 -0.4992 -2.6974
 9007SOL     OW27840   6.130   3.357   5.357  0.6963 -0.2988  0.5144
 9007SOL    HW127841   6.179   3.298   5.421  0.3113 -3.5664 -1.8930
 9007SOL    HW227842   6.195   3.414   5.307  1.3672 -0.2653  1.4130
 9008SOL     OW27843   6.202   6.093   3.156  0.2580  0.6575  0.5733
 9008SOL    HW127844   6.126   6.152   3.128  0.6218  1.0132  0.3189
 9008SOL    HW227845   6.287   6.128   3.116  0.5736  0.3426  0.9680
 9009SOL     OW27846   5.890   1.769   5.915 -0.0415  0.4981  0.1807
 9009SOL    HW127847   5.888   1.858   5.960 -0.5445 -0.8841  3.0394
 9009SOL    HW227848   5.968   1.716   5.949 -0.4284 -0.6126 -0.5983
 9010SOL     OW27849   5.780   1.373   2.845  0.4117 -0.3417 -0.6000
 9010SOL    HW127850   5.821   1.460   2.817 -0.4800  0.6097  0.8625
 9010SOL    HW227851   5.832   1.334   2.921 -0.4554  0.0896  0.2459
 9011SOL     OW27852   6.358   6.179   6.801 -0.0943  0.0083  0.0157
 9011SOL    HW127853   6.343   6.147   6.895 -0.5768 -0.0780 -0.0894
 9011SOL    HW227854   6.280   6.152   6.744 -1.2011  2.4972  0.2129
 9012SOL     OW27855   1.663   3.155   4.393 -0.6313  0.3609 -0.0931
 9012SOL    HW127856   1.666   3.237   4.450  1.6174 -0.0156  0.4028
 9012SOL    HW227857   1.600   3.170   4.317  0.2340  2.8092 -0.3926
 9013SOL     OW27858   1.984   4.505   1.093 -0.4084 -0.1978 -0.4916
 9013SOL    HW127859   1.984   4.418   1.143  1.8785 -0.0829 -0.1904
 9013SOL    HW227860   2.024   4.576   1.149  0.0423  0.4817 -1.6343
 9014SOL     OW27861   3.200   5.540   1.514 -0.0364 -0.0033  0.8577
 9014SOL    HW127862   3.226   5.637   1.509  0.4184 -0.1681 -0.2294
 9014SOL    HW227863   3.130   5.528   1.584 -1.6041  1.4568 -0.3940
 9015SOL     OW27864   1.515   6.809   6.612 -0.1460 -0.6379 -0.3425
 9015SOL    HW127865   1.473   6.839   6.527 -0.4087 -0.0034  0.0047
 9015SOL    HW227866   1.451   6.750   6.662 -1.8664  2.5122  1.5116
 9016SOL     OW27867   6.930   5.852   2.869 -0.1973 -0.6008  0.0315
 9016SOL    HW127868   6.858   5.918   2.846  0.0647  0.1428  1.2402
 9016SOL    HW227869   7.015   5.879   2.825 -0.2545 -0.5396 -0.0425
 9017SOL     OW27870   5.711   6.629   4.152  0.0309  0.3660 -0.1356
 9017SOL    HW127871   5.624   6.606   4.195  0.0849 -0.5004 -0.4573
 9017SOL    HW227872   5.778   6.652   4.222  0.4055 -2.0110  0.3843
 9018SOL     OW27873   5.388   5.317   2.025  0.0211 -0.1997 -0.1733
 9018SOL    HW127874   5.344   5.393   1.979 -0.1728 -0.7101 -0.8474
 9018SOL    HW227875   5.449   5.352   2.096 -1.0535  0.5397  0.4158
 9019SOL     OW27876   6.555   3.653   0.918 -0.4506  0.4012  0.4371
 9019SOL    HW127877   6.522   3.662   0.824 -1.0399  1.0283  0.6855
 9019SOL    HW227878   6.581   3.558   0.936 -3.2926 -0.4616  0.5968
 9020SOL     OW27879   4.872   6.229   0.013 -0.2337  0.6210  0.0506
 9020SOL    HW127880   4.879   6.299   0.084  1.9872 -0.9667  1.5358
 9020SOL    HW227881   4.777   6.199   0.005 -0.9888  2.7476  0.3628
 9021SOL     OW27882   3.691   6.748   3.503  0.0360 -0.1150 -0.2593
 9021SOL    HW127883   3.617   6.776   3.442  1.2329  2.5037 -0.6097
 9021SOL    HW227884   3.657   6.680   3.568 -2.1337 -0.4422 -1.6658
 9022SOL     OW27885   0.775   3.330   1.565  0.0757  0.5775  0.4518
 9022SOL    HW127886   0.853   3.362   1.618  2.2722 -2.1807 -0.8236
 9022SOL    HW227887   0.802   3.322   1.468 -2.1274  0.4258 -0.2120
 9023SOL     OW27888   4.122   3.235   0.346 -0.4853 -0.1451 -0.0378
 9023SOL    HW127889   4.096   3.332   0.348 -0.3316 -0.0892 -0.6584
 9023SOL    HW227890   4.136   3.206   0.252  0.4583 -0.5027  0.1881
 9024SOL     OW27891   5.496   6.451   0.533 -0.0416 -0.5160 -0.2634
 9024SOL    HW127892   5.439   6.373   0.559  0.6889 -0.6303  1.1067
 9024SOL    HW227893   5.485   6.525   0.600  1.0902 -0.3875 -0.1944
 9025SOL     OW27894   6.822   5.187   2.417  0.0760  0.2731  0.5246
 9025SOL    HW127895   6.759   5.117   2.383 -1.5661  1.4950  0.9072
 9025SOL    HW227896   6.876   5.150   2.492  0.3022 -1.0020 -0.2377
 9026SOL     OW27897   6.489   2.642   6.071 -0.4990 -0.8136 -0.8373
 9026SOL    HW127898   6.499   2.741   6.071 -1.7613 -0.6645 -1.7174
 9026SOL    HW227899   6.548   2.603   6.000 -0.8709 -0.5724 -1.2913
 9027SOL     OW27900   3.677   5.328   0.017 -0.4139  0.8825 -0.0218
 9027SOL    HW127901   3.697   5.416   0.060  2.0258  1.4936 -2.1158
 9027SOL    HW227902   3.763   5.278   0.003 -1.5471 -0.9855 -0.6019
 9028SOL     OW27903   1.050   1.045   0.757  0.4363  0.0239  0.4257
 9028SOL    HW127904   1.058   0.972   0.825 -1.5144  0.3463  1.0511
 9028SOL    HW227905   0.956   1.080   0.757  0.7762  1.0253 -1.4233
 9029SOL     OW27906   5.541   0.143   0.163  0.2326  0.0774  0.3184
 9029SOL    HW127907   5.608   0.138   0.090 -2.8363  1.2806 -2.9138
 9029SOL    HW227908   5.587   0.156   0.251  4.1473 -1.8588 -1.2372
 9030SOL     OW27909   6.757   0.276   1.923 -0.1601 -0.3275  0.3561
 9030SOL    HW127910   6.820   0.308   1.852  1.2141 -0.8775  1.2936
 9030SOL    HW227911   6.692   0.211   1.883 -0.0761  0.1543 -0.6032
 9031SOL     OW27912   3.473   0.257   1.636  0.0184 -0.3912  0.6047
 9031SOL    HW127913   3.448   0.347   1.601  0.5263 -0.5768 -0.2629
 9031SOL    HW227914   3.557   0.226   1.591  0.4902 -0.7967  1.7433
 9032SOL     OW27915   4.228   1.925   0.386  0.7092 -0.4630 -0.8187
 9032SOL    HW127916   4.248   1.834   0.422  0.9898 -0.3253 -0.6109
 9032SOL    HW227917   4.278   1.939   0.301  1.6308 -0.0735 -0.2408
 9033SOL     OW27918   6.656   1.459   3.852 -0.0316 -0.8015 -0.2326
 9033SOL    HW127919   6.718   1.531   3.818 -0.7079 -0.8053 -1.5393
 9033SOL    HW227920   6.564   1.497   3.863  0.0810 -0.9123  1.2629
 9034SOL     OW27921   4.734   4.263   6.136  0.8201 -0.2782  0.1172
 9034SOL    HW127922   4.695   4.331   6.197  1.0016  0.6240 -0.7553
 9034SOL    HW227923   4.706   4.282   6.042  2.1249 -0.5045 -0.3313
 9035SOL     OW27924   0.219   6.525   5.477  0.2231  0.7146 -0.3517
 9035SOL    HW127925   0.138   6.512   5.420  0.5645 -1.2992 -0.4619
 9035SOL    HW227926   0.285   6.451   5.458  0.5214  0.1949  2.3641
 9036SOL     OW27927   6.224   5.079   3.535 -0.7414  0.7667 -0.1505
 9036SOL    HW127928   6.144   5.050   3.588  0.0717 -0.3458  0.5358
 9036SOL    HW227929   6.272   5.152   3.583  0.1849 -0.4717  0.8605
 9037SOL     OW27930   6.649   6.221   6.071  0.2552 -0.0853  0.1460
 9037SOL    HW127931   6.745   6.249   6.069  0.2137  0.1700  1.0675
 9037SOL    HW227932   6.617   6.201   5.978  1.1191  0.0951 -0.1944
 9038SOL     OW27933   5.320   3.965   3.615  0.3308 -0.2892  1.0596
 9038SOL    HW127934   5.308   4.036   3.684 -0.1139 -0.2873  0.9853
 9038SOL    HW227935   5.356   4.006   3.531 -2.4298  0.3721  0.0886
 9039SOL     OW27936   2.015   2.648   6.692 -0.1341 -0.0612 -0.4332
 9039SOL    HW127937   1.962   2.687   6.768  0.9433  0.0330  0.2831
 9039SOL    HW227938   1.953   2.602   6.629 -1.0541 -0.1052  0.4775
 9040SOL     OW27939   2.155   0.737   3.430 -0.1368 -0.1656 -0.1551
 9040SOL    HW127940   2.219   0.671   3.390  1.2930 -0.5857  2.6240
 9040SOL    HW227941   2.077   0.688   3.470  0.6374 -0.1637  1.3998
 9041SOL     OW27942   4.261   4.120   2.959  0.5620  0.3229 -0.7706
 9041SOL    HW127943   4.248   4.063   2.878 -1.2456 -0.8819  0.2947
 9041SOL    HW227944   4.172   4.153   2.992  0.5024 -3.0910  3.3478
 9042SOL     OW27945   5.673   3.674   2.006 -0.4409  0.3076 -0.1037
 9042SOL    HW127946   5.762   3.721   1.999 -0.7958  0.8126 -2.7436
 9042SOL    HW227947   5.604   3.739   2.038 -0.1351  0.3693  0.4311
 9043SOL     OW27948   4.598   6.403   2.167 -0.6757 -0.0415 -0.5567
 9043SOL    HW127949   4.583   6.419   2.070 -0.5588 -0.6871 -0.6863
 9043SOL    HW227950   4.548   6.471   2.220  0.3065  1.1348 -1.0813
 9044SOL     OW27951   0.999   1.526   5.086 -0.5205  0.0491  0.0212
 9044SOL    HW127952   0.992   1.590   5.010  0.4509  1.1582  0.8414
 9044SOL    HW227953   1.049   1.444   5.056 -2.6888 -0.8701 -1.3283
 9045SOL     OW27954   6.832   4.459   5.472  0.1974 -0.2228 -0.2090
 9045SOL    HW127955   6.858   4.443   5.377 -2.6242  0.9168 -1.2802
 9045SOL    HW227956   6.777   4.543   5.478  0.2297 -0.3145  2.4063
 9046SOL     OW27957   6.354   2.244   0.183 -0.0022  0.7471  0.5590
 9046SOL    HW127958   6.272   2.295   0.210 -0.1456  0.8900 -0.1267
 9046SOL    HW227959   6.370   2.256   0.085 -0.6295 -1.3561  0.1605
 9047SOL     OW27960   5.788   4.512   1.415  0.3605  0.4247  0.8096
 9047SOL    HW127961   5.766   4.519   1.318  0.6790 -0.3710  0.6661
 9047SOL    HW227962   5.780   4.602   1.458 -0.7101  0.6078  0.2560
 9048SOL     OW27963   3.254   2.251   6.013 -0.1741  0.2071  0.0554
 9048SOL    HW127964   3.171   2.286   6.057 -0.2649  1.4515 -1.0230
 9048SOL    HW227965   3.335   2.293   6.055 -0.2023  0.5202 -0.1891
 9049SOL     OW27966   1.127   1.778   3.607 -0.0383 -0.5466 -0.1737
 9049SOL    HW127967   1.044   1.726   3.622 -1.0392  1.1004  0.2010
 9049SOL    HW227968   1.107   1.857   3.549  1.3455 -0.3049 -0.3799
 9050SOL     OW27969   3.631   0.109   0.615  0.1967  0.5725  0.0072
 9050SOL    HW127970   3.543   0.108   0.661  0.0459  1.9916 -0.2097
 9050SOL    HW227971   3.629   0.045   0.538 -1.3687  2.0677 -1.2801
 9051SOL     OW27972   3.313   4.802   2.649 -0.1664 -0.0625 -0.4045
 9051SOL    HW127973   3.219   4.803   2.684 -0.3242 -0.9391 -0.7982
 9051SOL    HW227974   3.372   4.852   2.712 -1.1490  1.8467 -0.9021
 9052SOL     OW27975   3.065   3.303   6.526  0.2014 -0.1838 -0.1822
 9052SOL    HW127976   2.993   3.368   6.503  0.8368  0.7429  0.3669
 9052SOL    HW227977   3.126   3.344   6.594  0.1732 -1.6501  0.7758
 9053SOL     OW27978   5.543   6.870   0.848  0.2093 -0.0176 -0.8738
 9053SOL    HW127979   5.489   6.932   0.790 -0.1999  0.6687  0.2010
 9053SOL    HW227980   5.543   6.904   0.942  0.6880 -1.2130 -0.4179
 9054SOL     OW27981   2.302   6.475   5.361  0.2586  0.6236 -0.0247
 9054SOL    HW127982   2.220   6.523   5.330  0.5218  1.7665  0.9369
 9054SOL    HW227983   2.279   6.382   5.388 -0.9883  1.2937  1.3820
 9055SOL     OW27984   6.549   1.091   0.383  0.1507  1.0789 -0.5244
 9055SOL    HW127985   6.526   1.050   0.471  1.6509  0.1201 -0.5519
 9055SOL    HW227986   6.469   1.091   0.324  0.2677 -2.7930 -0.8901
 9056SOL     OW27987   0.759   5.261   7.009 -0.1809  0.5511 -0.3543
 9056SOL    HW127988   0.675   5.304   6.975  0.3351  0.0246 -2.3546
 9056SOL    HW227989   0.743   5.162   7.020  0.5062  0.2551 -1.9025
 9057SOL     OW27990   0.011   4.369   5.952 -0.6056 -0.0639  0.3533
 9057SOL    HW127991   0.040   4.355   5.857 -0.9665  0.2476  0.1950
 9057SOL    HW227992   0.073   4.321   6.013  0.0484  0.3226  0.0021
 9058SOL     OW27993   5.647   6.306   4.158 -0.2493  0.0992 -0.2883
 9058SOL    HW127994   5.574   6.333   4.096 -0.6717  1.0882  0.6044
 9058SOL    HW227995   5.608   6.263   4.240  0.3710 -2.4267 -1.2590
 9059SOL     OW27996   6.626   2.433   3.207 -0.3097 -0.2786  0.4115
 9059SOL    HW127997   6.594   2.526   3.189  0.1808 -0.4327 -1.4695
 9059SOL    HW227998   6.726   2.431   3.200 -0.3433 -1.0191  0.1090
 9060SOL     OW27999   4.898   1.459   0.059  0.2031  0.5844 -0.3563
 9060SOL    HW128000   4.988   1.429   0.090  0.0901  0.8395  0.2636
 9060SOL    HW228001   4.828   1.408   0.109 -0.0337 -0.8599 -2.0496
 9061SOL     OW28002   4.040   6.027   0.571  0.0113 -0.8256  0.2921
 9061SOL    HW128003   3.987   5.970   0.508  0.6767  0.0561 -1.1248
 9061SOL    HW228004   4.116   5.974   0.608  1.0774 -0.7360 -1.5935
 9062SOL     OW28005   3.212   3.667   4.285 -0.2055 -0.3092  0.2812
 9062SOL    HW128006   3.143   3.739   4.293 -0.2853 -0.0049 -2.2281
 9062SOL    HW228007   3.300   3.700   4.319 -0.5106  0.5719  0.2216
 9063SOL     OW28008   6.436   2.650   5.299 -0.0568  0.3193  0.0890
 9063SOL    HW128009   6.514   2.653   5.360  1.0029  0.3363 -1.2181
 9063SOL    HW228010   6.462   2.688   5.210 -1.1008 -1.0888 -0.8549
 9064SOL     OW28011   0.143   3.000   6.138  0.1273 -0.0335  0.0791
 9064SOL    HW128012   0.232   2.990   6.183 -0.3017 -1.2254  0.7130
 9064SOL    HW228013   0.150   3.071   6.067  1.1844  0.9471  1.1006
 9065SOL     OW28014   6.959   3.520   1.044 -0.4795 -0.2868  0.4419
 9065SOL    HW128015   7.017   3.448   1.082 -1.8658 -1.8391 -0.2719
 9065SOL    HW228016   7.013   3.582   0.988  0.4696 -1.6569 -0.1725
 9066SOL     OW28017   0.522   0.979   4.763 -0.7018 -0.3738  0.1413
 9066SOL    HW128018   0.538   1.078   4.765 -0.4493 -0.4177  0.8547
 9066SOL    HW228019   0.486   0.950   4.852  1.6878 -1.3134  0.9029
 9067SOL     OW28020   1.774   3.788   4.446  0.1371  0.3216  0.3894
 9067SOL    HW128021   1.866   3.785   4.483 -0.1100 -0.2875  0.9833
 9067SOL    HW228022   1.710   3.822   4.515 -0.2665 -0.4576  0.4264
 9068SOL     OW28023   0.959   1.288   0.987  0.5769  0.2356  0.1359
 9068SOL    HW128024   0.871   1.262   0.948  2.3521 -2.1496 -2.7018
 9068SOL    HW228025   0.962   1.258   1.083 -1.3684 -0.3340  0.0751
 9069SOL     OW28026   6.161   3.802   0.636  0.1504  0.0385 -0.4840
 9069SOL    HW128027   6.116   3.845   0.558 -1.0771 -0.7160 -0.2346
 9069SOL    HW228028   6.141   3.853   0.719 -1.5505 -1.0967 -0.1409
 9070SOL     OW28029   2.553   3.780   5.271 -0.0148 -0.2286 -0.0626
 9070SOL    HW128030   2.506   3.759   5.186  1.2809  0.4010 -0.9732
 9070SOL    HW228031   2.581   3.876   5.271  0.6427 -0.4024  0.7466
 9071SOL     OW28032   2.219   1.844   1.182  0.1254 -0.2352 -0.0844
 9071SOL    HW128033   2.141   1.785   1.160  0.8823 -0.9651 -0.8304
 9071SOL    HW228034   2.189   1.940   1.180 -0.1216 -0.2964 -3.1959
 9072SOL     OW28035   0.970   4.146   7.004  0.8320  0.7082 -0.3892
 9072SOL    HW128036   0.886   4.197   7.023 -0.5229 -1.2387 -0.9005
 9072SOL    HW228037   1.019   4.130   7.090 -0.4230  0.0662  0.2387
 9073SOL     OW28038   5.555   1.666   3.372 -0.0168  0.0334  0.1959
 9073SOL    HW128039   5.489   1.729   3.414 -1.3172 -0.9673 -0.2860
 9073SOL    HW228040   5.647   1.690   3.402 -0.7199  0.5965  2.0229
 9074SOL     OW28041   2.496   6.183   1.617 -0.9830  0.0241 -0.3019
 9074SOL    HW128042   2.580   6.171   1.565  0.5270  1.0134  1.7529
 9074SOL    HW228043   2.512   6.154   1.712 -2.6995  1.0238  0.3268
 9075SOL     OW28044   3.916   6.526   4.219 -0.1448  0.2955 -0.9803
 9075SOL    HW128045   3.931   6.505   4.315  0.0697  1.5553 -0.7151
 9075SOL    HW228046   3.950   6.618   4.199 -2.0439  0.8819 -1.7865
 9076SOL     OW28047   5.063   6.892   2.174 -0.0542  0.0896  0.4156
 9076SOL    HW128048   5.058   6.807   2.227 -0.7867  0.4355  0.9207
 9076SOL    HW228049   4.989   6.894   2.107  1.5223 -0.8637 -1.4576
 9077SOL     OW28050   6.113   4.854   0.896  0.4188 -0.0983  0.3781
 9077SOL    HW128051   6.027   4.859   0.846  1.0828  3.7577 -0.7525
 9077SOL    HW228052   6.162   4.771   0.870 -1.7686 -1.0801 -0.9332
 9078SOL     OW28053   3.398   2.807   6.732 -0.3927  0.3036  0.2364
 9078SOL    HW128054   3.318   2.855   6.697 -0.9243 -0.5683  0.2244
 9078SOL    HW228055   3.474   2.871   6.741 -0.5939  0.7908 -1.3612
 9079SOL     OW28056   1.171   5.700   6.535 -0.0906 -0.9464  0.2476
 9079SOL    HW128057   1.214   5.610   6.543 -0.6028 -1.5050 -2.2161
 9079SOL    HW228058   1.167   5.726   6.438 -0.4963  1.4869  0.8583
 9080SOL     OW28059   1.248   1.398   2.133  0.1560 -0.6525 -0.1439
 9080SOL    HW128060   1.148   1.410   2.129  0.2558  0.0592 -0.7772
 9080SOL    HW228061   1.273   1.314   2.085 -0.0046  0.0887 -1.5964
 9081SOL     OW28062   4.470   4.145   0.904 -0.0895  0.7383 -0.1161
 9081SOL    HW128063   4.388   4.090   0.919  0.5977 -0.0053  0.9784
 9081SOL    HW228064   4.498   4.188   0.989  0.7056  0.9197 -0.4589
 9082SOL     OW28065   3.584   2.757   1.382 -0.3308 -0.0561  0.2656
 9082SOL    HW128066   3.545   2.722   1.467 -2.4354 -1.7381 -1.2916
 9082SOL    HW228067   3.555   2.852   1.369 -0.8513 -0.1207  0.9228
 9083SOL     OW28068   4.402   0.563   4.842 -0.2425  0.2132  0.0875
 9083SOL    HW128069   4.465   0.485   4.844 -2.0898 -1.3789 -0.5691
 9083SOL    HW228070   4.387   0.596   4.936 -1.6788 -2.1975  0.8020
 9084SOL     OW28071   1.934   1.119   4.259  0.0139  0.8131  0.1100
 9084SOL    HW128072   1.893   1.207   4.238  0.5046  1.0539  0.1542
 9084SOL    HW228073   2.003   1.130   4.330  1.7862  0.8195 -1.5252
 9085SOL     OW28074   1.776   5.284   0.164 -0.8321  0.6081  0.0702
 9085SOL    HW128075   1.762   5.285   0.065 -2.1550  0.0908  0.2335
 9085SOL    HW228076   1.705   5.229   0.207  0.3811 -0.1462  1.2266
 9086SOL     OW28077   3.974   6.955   3.008  0.0215  0.2577 -0.0787
 9086SOL    HW128078   3.943   7.044   2.974  1.2500  0.4890 -0.5651
 9086SOL    HW228079   4.004   6.899   2.931  0.4372 -0.1104  0.3477
 9087SOL     OW28080   1.228   0.745   1.109  0.4510  0.7601  0.3291
 9087SOL    HW128081   1.243   0.649   1.132 -1.0022  0.4157 -0.0121
 9087SOL    HW228082   1.159   0.784   1.170 -0.7531  0.8683 -1.0296
 9088SOL     OW28083   4.596   6.616   4.799 -0.6164 -0.2900  0.2200
 9088SOL    HW128084   4.655   6.538   4.820 -1.8964 -1.2715  0.2892
 9088SOL    HW228085   4.646   6.682   4.743  0.5973 -0.9832  0.4508
 9089SOL     OW28086   3.170   4.640   3.623  0.3737  0.3128 -0.3883
 9089SOL    HW128087   3.106   4.685   3.686  0.9091 -0.4603  0.7440
 9089SOL    HW228088   3.264   4.655   3.653  0.5965 -4.1761  2.1326
 9090SOL     OW28089   6.994   0.481   4.704 -0.0146 -0.4618 -0.0712
 9090SOL    HW128090   6.975   0.502   4.608  0.1704 -0.5166 -0.1159
 9090SOL    HW228091   6.920   0.425   4.741 -0.3738  0.1040  0.0237
 9091SOL     OW28092   3.251   3.161   4.272 -0.0648  0.7515  0.0472
 9091SOL    HW128093   3.271   3.106   4.353  1.2535  0.7594 -0.2588
 9091SOL    HW228094   3.229   3.254   4.300 -2.9731 -0.0229  0.6213
 9092SOL     OW28095   6.510   5.373   4.996 -0.6262  0.2046 -0.2275
 9092SOL    HW128096   6.429   5.422   5.030 -0.9718 -1.0627  0.9019
 9092SOL    HW228097   6.485   5.278   4.978  0.8003 -0.4433  1.0177
 9093SOL     OW28098   6.755   2.706   0.374 -0.2229 -0.4355 -0.3466
 9093SOL    HW128099   6.847   2.724   0.410 -0.0297 -1.5171 -0.2512
 9093SOL    HW228100   6.762   2.651   0.291 -0.7746 -0.1361 -0.5947
 9094SOL     OW28101   1.026   0.130   5.633  0.0490  0.0857 -0.0635
 9094SOL    HW128102   0.970   0.081   5.566  0.0077  1.8162 -1.3354
 9094SOL    HW228103   0.997   0.103   5.725 -0.2730 -1.9024 -0.6839
 9095SOL     OW28104   3.687   0.534   2.609  0.6421 -1.0891  0.5693
 9095SOL    HW128105   3.743   0.455   2.634  1.5170 -0.7361 -0.2234
 9095SOL    HW228106   3.731   0.584   2.534 -0.1577 -0.1450  0.7088
 9096SOL     OW28107   3.391   5.850   6.564  0.2674  0.1981  0.2092
 9096SOL    HW128108   3.360   5.871   6.471 -1.8946  1.6789  1.1539
 9096SOL    HW228109   3.390   5.751   6.578  2.3748 -0.1771 -1.8579
 9097SOL     OW28110   1.455   3.978   3.836  0.7969 -0.2513  0.2697
 9097SOL    HW128111   1.550   3.963   3.808  0.2312 -1.0003 -1.4617
 9097SOL    HW228112   1.420   4.060   3.790  0.7133  0.2686  1.2385
 9098SOL     OW28113   2.844   5.324   5.747 -1.1807  0.3542  0.8321
 9098SOL    HW128114   2.840   5.254   5.819 -3.1855  0.1675  0.6131
 9098SOL    HW228115   2.759   5.321   5.694 -0.5960  1.8662 -0.2560
 9099SOL     OW28116   6.792   5.623   6.513 -0.1125 -0.4212 -0.2413
 9099SOL    HW128117   6.701   5.596   6.481  0.0980 -2.6513  0.9032
 9099SOL    HW228118   6.861   5.568   6.465  0.4884 -0.2484  0.4211
 9100SOL     OW28119   4.732   2.657   3.243 -0.0723  0.4824  0.4089
 9100SOL    HW128120   4.758   2.730   3.306 -0.2590 -1.1973  2.5111
 9100SOL    HW228121   4.633   2.642   3.249  0.2023 -1.1174  1.3417
 9101SOL     OW28122   6.820   3.744   6.002  0.2559  0.5466  0.4569
 9101SOL    HW128123   6.895   3.807   6.023  1.9701 -0.8033 -1.2523
 9101SOL    HW228124   6.835   3.656   6.047  0.2368 -0.0419 -0.6396
 9102SOL     OW28125   1.743   6.267   4.356  0.5471  0.3776  0.1639
 9102SOL    HW128126   1.810   6.268   4.429 -0.3156 -0.9444  1.0101
 9102SOL    HW228127   1.655   6.236   4.391  0.2254 -0.7726 -1.5185
 9103SOL     OW28128   3.499   5.798   2.010 -0.0966 -0.5658  0.0041
 9103SOL    HW128129   3.544   5.740   2.078 -2.1674 -0.6676  1.4128
 9103SOL    HW228130   3.445   5.742   1.948  0.3750 -0.3274 -0.6426
 9104SOL     OW28131   1.189   6.471   1.633 -0.1090 -0.0041  0.8407
 9104SOL    HW128132   1.130   6.490   1.711 -0.7536 -0.3784  0.4572
 9104SOL    HW228133   1.252   6.397   1.656 -1.0561 -0.8907  0.6518
 9105SOL     OW28134   1.188   1.782   2.864  0.4988 -0.3166 -0.3268
 9105SOL    HW128135   1.117   1.833   2.911  0.1544 -1.2173  0.1578
 9105SOL    HW228136   1.151   1.741   2.780  0.3182 -1.1000  0.1177
 9106SOL     OW28137   4.489   6.113   5.546  0.2009  0.9966 -0.0496
 9106SOL    HW128138   4.476   6.164   5.631  1.9004  2.8829 -0.8322
 9106SOL    HW228139   4.470   6.173   5.468 -0.5097 -0.4348 -1.0088
 9107SOL     OW28140   1.718   2.684   2.198  0.2776 -0.2387  0.1206
 9107SOL    HW128141   1.693   2.615   2.130  1.3552 -1.4844  0.9436
 9107SOL    HW228142   1.813   2.713   2.182  0.3334 -0.0884  0.7192
 9108SOL     OW28143   3.793   5.059   0.751  0.1230  0.1770  0.0342
 9108SOL    HW128144   3.845   4.993   0.805 -1.8989 -2.4244 -1.0170
 9108SOL    HW228145   3.820   5.054   0.655 -0.7168  0.1744 -0.2121
 9109SOL     OW28146   3.055   5.130   5.901 -0.2522  0.3927 -0.1852
 9109SOL    HW128147   3.002   5.088   5.828 -0.4914  1.3065 -0.5494
 9109SOL    HW228148   3.041   5.079   5.986 -0.6878 -0.1410 -0.5687
 9110SOL     OW28149   5.370   6.646   1.334 -0.7793  0.2043  0.0825
 9110SOL    HW128150   5.419   6.684   1.412  1.2332  1.3750 -1.6373
 9110SOL    HW228151   5.310   6.572   1.365  0.3555  0.2314  2.6163
 9111SOL     OW28152   7.011   4.356   1.354  0.0388  0.1754 -0.0677
 9111SOL    HW128153   6.973   4.264   1.355 -3.1814  1.3708  1.3492
 9111SOL    HW228154   6.949   4.418   1.306  1.4019  1.9031  0.2847
 9112SOL     OW28155   6.851   4.133   6.551  0.0231 -0.1997 -0.1431
 9112SOL    HW128156   6.761   4.173   6.538  0.0301 -0.1706 -0.1038
 9112SOL    HW228157   6.921   4.204   6.546  0.1215 -0.3385 -1.0748
 9113SOL     OW28158   6.284   1.431   4.452  0.1478  0.6270  0.6646
 9113SOL    HW128159   6.365   1.475   4.489  0.1057  1.3693 -0.1018
 9113SOL    HW228160   6.238   1.379   4.524 -0.0287  2.1477  1.6769
 9114SOL     OW28161   4.338   1.477   0.189  0.3712  0.1462  0.0493
 9114SOL    HW128162   4.370   1.383   0.174  0.1325  0.2920 -1.8101
 9114SOL    HW228163   4.238   1.479   0.188  0.3124  0.7015 -2.8585
 9115SOL     OW28164   2.333   1.831   4.144  0.2711  0.2190 -0.0434
 9115SOL    HW128165   2.266   1.826   4.071 -0.2015 -1.7181  0.4279
 9115SOL    HW228166   2.423   1.805   4.109  0.4795  1.2900 -0.3413
 9116SOL     OW28167   3.859   0.279   5.460  0.3557  0.2083  0.0784
 9116SOL    HW128168   3.915   0.237   5.389  1.1482  0.7678  0.3580
 9116SOL    HW228169   3.911   0.351   5.505  0.3108 -0.8748  2.0075
 9117SOL     OW28170   3.750   1.445   2.890 -0.4357  0.0291 -0.3767
 9117SOL    HW128171   3.785   1.352   2.900 -0.5094  0.0998  0.7074
 9117SOL    HW228172   3.667   1.445   2.835 -1.6402 -0.8658  1.3560
 9118SOL     OW28173   6.213   4.119   4.845  0.4373 -0.2364 -0.5233
 9118SOL    HW128174   6.144   4.192   4.849 -0.0467 -0.7217  0.4618
 9118SOL    HW228175   6.273   4.126   4.925  1.3717  0.0186 -1.2408
 9119SOL     OW28176   0.476   0.386   0.377  0.4598  0.7708  0.2529
 9119SOL    HW128177   0.549   0.333   0.333 -0.9515 -0.8746 -0.2274
 9119SOL    HW228178   0.447   0.339   0.460 -0.1898  1.2833  0.3202
 9120SOL     OW28179   1.083   2.290   3.060 -0.2525  0.3035  0.1495
 9120SOL    HW128180   1.154   2.360   3.065  0.4533 -0.4485  1.1575
 9120SOL    HW228181   1.125   2.202   3.036 -1.3253  0.4789 -2.6040
 9121SOL     OW28182   4.816   1.664   4.842  0.3453 -0.0499  0.2227
 9121SOL    HW128183   4.878   1.648   4.766 -0.7239  0.9408 -0.9164
 9121SOL    HW228184   4.827   1.592   4.910  0.8171 -1.3839 -1.2151
 9122SOL     OW28185   0.912   5.812   3.156  0.1087  0.3552  0.1443
 9122SOL    HW128186   0.978   5.881   3.185 -1.5752  1.3975  1.7418
 9122SOL    HW228187   0.820   5.852   3.155 -0.8157 -1.6407  0.3209
 9123SOL     OW28188   5.072   2.979   3.871 -0.1692 -0.0714 -0.1520
 9123SOL    HW128189   5.157   2.956   3.917 -0.7167 -0.7854  0.5375
 9123SOL    HW228190   5.027   2.895   3.840 -1.0206  0.2427  0.2184
 9124SOL     OW28191   7.004   1.135   2.424 -0.0647  0.4760 -0.0948
 9124SOL    HW128192   6.907   1.139   2.398 -0.1127  0.2182  0.1364
 9124SOL    HW228193   7.027   1.216   2.479  0.1958  1.2417 -1.2898
 9125SOL     OW28194   3.491   4.251   2.498 -0.1105  0.3921  0.7319
 9125SOL    HW128195   3.573   4.284   2.451  0.0366 -0.8947  0.0165
 9125SOL    HW228196   3.413   4.253   2.435 -0.0582 -0.7351  0.6041
 9126SOL     OW28197   6.870   1.123   3.561 -0.0647 -0.0432  0.0360
 9126SOL    HW128198   6.889   1.106   3.658  0.0438  1.3080  0.2854
 9126SOL    HW228199   6.781   1.168   3.551 -1.5736 -2.9923 -0.8097
 9127SOL     OW28200   5.659   0.369   0.654 -0.0024 -0.1482  0.0850
 9127SOL    HW128201   5.749   0.411   0.670 -1.0706  1.4816  2.5053
 9127SOL    HW228202   5.635   0.313   0.733 -0.4493 -2.0121 -1.2961
 9128SOL     OW28203   1.834   1.549   0.936 -0.3355 -0.0531 -0.0526
 9128SOL    HW128204   1.741   1.549   0.898  0.1052 -0.3358 -1.1751
 9128SOL    HW228205   1.900   1.544   0.861  0.6100  0.7605  0.6914
 9129SOL     OW28206   0.503   3.182   6.219 -0.6085 -0.5994 -0.1855
 9129SOL    HW128207   0.514   3.232   6.305  0.3993  0.4541 -0.8860
 9129SOL    HW228208   0.439   3.106   6.232 -0.7072 -0.2808  1.4022
 9130SOL     OW28209   3.873   3.469   4.498 -0.2569 -0.0212  0.3000
 9130SOL    HW128210   3.959   3.513   4.522 -0.6440  0.4419  0.8584
 9130SOL    HW228211   3.816   3.533   4.445  0.2720 -0.7691 -1.2151
 9131SOL     OW28212   2.923   1.393   1.520 -0.3590  0.1481 -0.2882
 9131SOL    HW128213   2.975   1.325   1.468  1.4718  1.2616  0.0245
 9131SOL    HW228214   2.848   1.347   1.568  0.4157 -1.5354 -0.6161
 9132SOL     OW28215   4.772   0.937   3.787 -0.1476 -0.0539  0.0124
 9132SOL    HW128216   4.871   0.923   3.781 -0.0968  0.7663 -2.3243
 9132SOL    HW228217   4.730   0.914   3.699 -2.1248 -0.8791  1.1189
 9133SOL     OW28218   4.051   3.576   5.465 -0.4586  0.4117 -0.1771
 9133SOL    HW128219   4.084   3.564   5.559  2.1515 -2.0750 -1.2690
 9133SOL    HW228220   4.073   3.669   5.434 -2.6611  1.7906  2.0295
 9134SOL     OW28221   2.997   2.377   6.141 -0.4474  0.0023 -0.4183
 9134SOL    HW128222   2.977   2.398   6.236  1.8349 -0.3351  0.2178
 9134SOL    HW228223   2.967   2.284   6.119  0.2055 -0.4349  0.4269
 9135SOL     OW28224   0.711   6.241   5.780  0.6895 -0.1845  0.2575
 9135SOL    HW128225   0.790   6.179   5.792 -0.3573 -1.4583  0.8026
 9135SOL    HW228226   0.632   6.202   5.827 -0.4955  0.6527 -1.0075
 9136SOL     OW28227   2.071   0.410   0.390 -0.5672  0.1083  0.0596
 9136SOL    HW128228   2.012   0.483   0.359 -0.6717 -0.3748 -0.9477
 9136SOL    HW228229   2.076   0.410   0.490 -2.4747 -0.0159  0.1899
 9137SOL     OW28230   2.246   0.416   5.552 -0.3234  0.2589 -0.2272
 9137SOL    HW128231   2.166   0.357   5.542 -1.0884  1.0327  1.0131
 9137SOL    HW228232   2.271   0.454   5.463  0.1218 -1.8049 -1.0309
 9138SOL     OW28233   5.955   1.297   3.065  0.3417  0.4980  0.1063
 9138SOL    HW128234   5.919   1.370   3.124 -0.2315 -0.9542  1.6527
 9138SOL    HW228235   5.972   1.215   3.120  1.2999 -0.4518 -1.5129
 9139SOL     OW28236   4.906   1.822   2.629 -0.2354  0.1142  0.9434
 9139SOL    HW128237   4.983   1.876   2.661 -0.3358  1.4850 -0.9210
 9139SOL    HW228238   4.820   1.866   2.657 -0.3599  2.2977 -2.3408
 9140SOL     OW28239   1.961   6.193   5.391 -0.4665 -0.7590 -0.0759
 9140SOL    HW128240   1.955   6.243   5.304 -1.3639 -1.7419 -0.5941
 9140SOL    HW228241   2.051   6.208   5.431  0.2380 -0.8893 -1.5434
 9141SOL     OW28242   4.139   0.614   6.307  0.3099  0.0959 -0.1645
 9141SOL    HW128243   4.048   0.608   6.348  0.1249 -1.2461 -0.7427
 9141SOL    HW228244   4.196   0.675   6.362 -0.5968  0.0727  0.8322
 9142SOL     OW28245   2.284   6.026   6.707  0.1377 -0.0060  0.2650
 9142SOL    HW128246   2.229   5.998   6.786  0.4815  0.0697  0.5324
 9142SOL    HW228247   2.275   5.957   6.635 -0.6610  0.2261  0.1331
 9143SOL     OW28248   3.103   3.580   3.323  0.4364 -0.1559  0.2247
 9143SOL    HW128249   3.169   3.504   3.324  0.5320 -0.2401  4.0444
 9143SOL    HW228250   3.132   3.650   3.388 -3.1944 -0.2379  2.1794
 9144SOL     OW28251   3.179   0.358   5.378 -0.6612  0.5405 -0.0082
 9144SOL    HW128252   3.219   0.373   5.468 -0.7625 -0.4646  0.2169
 9144SOL    HW228253   3.095   0.412   5.369  0.7618  2.7640 -0.5272
 9145SOL     OW28254   2.540   5.813   2.653  0.0202 -0.1816 -0.0702
 9145SOL    HW128255   2.538   5.859   2.564 -0.0345 -2.1361 -1.1238
 9145SOL    HW228256   2.620   5.754   2.658  1.5307  1.8380  2.2748
 9146SOL     OW28257   0.029   0.115   1.138 -0.1530 -0.0899 -0.2126
 9146SOL    HW128258  -0.027   0.065   1.205  0.4106  0.7205  0.8634
 9146SOL    HW228259   0.037   0.060   1.055 -2.0989 -0.4597 -0.2132
 9147SOL     OW28260   3.545   2.436   0.152 -0.3515 -0.1952 -0.1129
 9147SOL    HW128261   3.642   2.439   0.175 -0.9611  0.5872  2.6803
 9147SOL    HW228262   3.519   2.343   0.126  0.7262 -0.9191  1.2693
 9148SOL     OW28263   3.006   3.239   2.919 -0.1666  0.4146  0.3920
 9148SOL    HW128264   2.998   3.147   2.956  0.8002  0.2517  0.2413
 9148SOL    HW228265   3.093   3.249   2.871 -0.0272  1.5515  0.8092
 9149SOL     OW28266   6.822   6.579   4.014 -0.3089 -0.0918 -0.3691
 9149SOL    HW128267   6.858   6.497   3.968 -0.6606 -0.1380 -0.5582
 9149SOL    HW228268   6.899   6.637   4.041  0.0142 -0.8621  0.4930
 9150SOL     OW28269   6.879   4.596   5.734 -0.0751  0.6307  0.1346
 9150SOL    HW128270   6.802   4.614   5.794 -0.4522 -1.3117  0.3563
 9150SOL    HW228271   6.847   4.546   5.653  0.7954  0.8538 -0.3637
 9151SOL     OW28272   2.314   5.214   2.353  0.9891 -0.0361  0.4801
 9151SOL    HW128273   2.309   5.149   2.429 -2.9496  0.0187  0.5022
 9151SOL    HW228274   2.310   5.307   2.388 -0.9034 -0.0088  0.3515
 9152SOL     OW28275   4.752   3.576   2.115 -0.6862  0.1902 -0.0256
 9152SOL    HW128276   4.741   3.562   2.214 -0.1348  1.1877  0.1923
 9152SOL    HW228277   4.813   3.653   2.099 -2.1821  1.2097 -1.1409
 9153SOL     OW28278   2.956   0.020   4.979 -0.2090  0.2268  0.3521
 9153SOL    HW128279   2.950   0.059   5.071 -0.5846  0.9385  0.0379
 9153SOL    HW228280   2.940   0.092   4.912  0.5915 -0.1780 -0.2864
 9154SOL     OW28281   1.983   0.637   4.678  0.4201  0.1683  0.0300
 9154SOL    HW128282   2.017   0.563   4.735  1.5874  0.0276 -0.7748
 9154SOL    HW228283   1.941   0.599   4.596  0.7036  0.3901 -0.2221
 9155SOL     OW28284   4.786   5.596   0.897  0.0501 -0.0926  0.0275
 9155SOL    HW128285   4.714   5.653   0.858 -0.8311 -0.7704  0.6386
 9155SOL    HW228286   4.850   5.570   0.825 -1.1932 -0.7968 -0.8466
 9156SOL     OW28287   6.551   4.785   4.471 -0.2063  0.3037  0.5449
 9156SOL    HW128288   6.490   4.731   4.530 -0.5029  0.4421  0.3702
 9156SOL    HW228289   6.521   4.880   4.472 -1.0556  0.0886 -0.8982
 9157SOL     OW28290   0.694   4.564   2.456  0.0791 -0.6986  0.9865
 9157SOL    HW128291   0.770   4.499   2.450  0.5558 -0.1512  1.0792
 9157SOL    HW228292   0.718   4.638   2.518  0.7910  1.2024 -1.4092
 9158SOL     OW28293   2.917   5.852   5.361  0.1552  0.0883 -0.1610
 9158SOL    HW128294   2.893   5.783   5.429 -0.8753 -1.2290 -1.7598
 9158SOL    HW228295   3.016   5.862   5.356  0.3062 -1.0492  0.3116
 9159SOL     OW28296   1.925   2.294   2.379  0.4071 -0.6589  0.8723
 9159SOL    HW128297   1.931   2.266   2.283  1.8261 -0.6289  0.9430
 9159SOL    HW228298   1.857   2.367   2.387 -0.3943 -1.2923  0.0435
 9160SOL     OW28299   3.185   2.998   0.368  0.0313  0.1284  0.2063
 9160SOL    HW128300   3.186   2.901   0.392 -0.5584 -0.0002 -0.2647
 9160SOL    HW228301   3.097   3.037   0.396 -0.2921  0.1985 -0.8851
 9161SOL     OW28302   2.952   5.873   4.117 -0.0933  0.0143 -0.1453
 9161SOL    HW128303   2.916   5.823   4.196  2.2890 -1.0823  0.3523
 9161SOL    HW228304   3.047   5.845   4.101  0.0081  1.4275 -2.4156
 9162SOL     OW28305   1.868   2.512   5.036 -0.3749 -0.0615 -0.8233
 9162SOL    HW128306   1.780   2.559   5.028  0.0011  0.5078 -1.7256
 9162SOL    HW228307   1.930   2.544   4.965 -0.4252 -2.6736 -2.1271
 9163SOL     OW28308   3.575   6.301   6.301 -0.3491  0.3348  0.3883
 9163SOL    HW128309   3.497   6.354   6.269  0.7048  0.1898 -2.7246
 9163SOL    HW228310   3.649   6.363   6.328  0.8251  0.6301 -3.1023
 9164SOL     OW28311   3.169   4.403   0.321  0.4100  0.2944  0.0380
 9164SOL    HW128312   3.116   4.486   0.337  1.2624  0.9504 -0.4256
 9164SOL    HW228313   3.129   4.352   0.246  0.4754  0.8405 -0.3783
 9165SOL     OW28314   6.784   1.352   0.977  0.6812  0.0049  0.7712
 9165SOL    HW128315   6.718   1.381   1.046  1.7737 -0.0564  1.8647
 9165SOL    HW228316   6.776   1.411   0.897  0.7350  1.3611  1.7285
 9166SOL     OW28317   4.709   0.173   6.373 -0.3687  0.2113  0.0901
 9166SOL    HW128318   4.621   0.125   6.375 -0.9289  1.1541 -0.8291
 9166SOL    HW228319   4.745   0.172   6.280 -0.1724  1.1548  0.1466
 9167SOL     OW28320   1.300   0.530   6.506  0.2291 -0.3653 -0.5899
 9167SOL    HW128321   1.354   0.612   6.486  1.4267 -0.7869  0.7280
 9167SOL    HW228322   1.335   0.453   6.453  0.5573 -0.5100 -0.1672
 9168SOL     OW28323   2.719   4.962   6.024  0.7071  0.0383  0.3965
 9168SOL    HW128324   2.715   5.029   6.099  1.4351  0.6423 -0.0949
 9168SOL    HW228325   2.657   4.886   6.044 -0.0134  0.7805  1.0439
 9169SOL     OW28326   0.700   0.630   3.195 -0.1745  0.4952  0.2655
 9169SOL    HW128327   0.614   0.638   3.144  0.1753 -1.0572 -0.6621
 9169SOL    HW228328   0.759   0.708   3.172 -0.1584  0.0070 -1.4862
 9170SOL     OW28329   5.635   5.379   3.523  0.2132 -0.2693 -0.2951
 9170SOL    HW128330   5.576   5.458   3.541  0.2501 -0.3602  0.2652
 9170SOL    HW228331   5.722   5.411   3.487  0.2220 -0.0427 -0.0949
 9171SOL     OW28332   0.043   3.083   0.051 -0.1471 -0.4145 -0.8414
 9171SOL    HW128333  -0.020   3.128  -0.012 -0.4935  0.3900  0.0702
 9171SOL    HW228334   0.093   3.153   0.103 -1.2517 -0.9879  1.1291
 9172SOL     OW28335   4.854   4.389   4.725 -0.4293 -0.5525  0.3601
 9172SOL    HW128336   4.816   4.457   4.788 -0.2561 -1.0527  1.0269
 9172SOL    HW228337   4.950   4.411   4.706 -0.2373 -0.8600  0.9470
 9173SOL     OW28338   4.934   0.129   0.757 -0.4327  0.0268 -0.6355
 9173SOL    HW128339   4.929   0.211   0.814 -1.3233 -0.1336 -0.4637
 9173SOL    HW228340   4.872   0.060   0.793  1.3609 -1.2816  0.0690
 9174SOL     OW28341   2.273   0.410   0.198 -0.2335  0.2161  0.3830
 9174SOL    HW128342   2.208   0.449   0.132  0.1965  1.8151  0.8797
 9174SOL    HW228343   2.223   0.379   0.278 -0.5896 -0.3269 -0.0399
 9175SOL     OW28344   4.818   0.678   0.782 -0.6363  0.2113  0.4947
 9175SOL    HW128345   4.902   0.732   0.779 -1.6668  1.9834  1.1227
 9175SOL    HW228346   4.757   0.715   0.852 -2.1569 -0.6153 -0.3155
 9176SOL     OW28347   3.974   1.808   3.749 -0.2428 -0.9829  0.0771
 9176SOL    HW128348   4.068   1.815   3.783 -0.5300 -1.3934  1.0086
 9176SOL    HW228349   3.922   1.889   3.776  0.3565  0.2331 -2.2211
 9177SOL     OW28350   5.570   5.623   1.277  0.2103  0.4403 -0.0152
 9177SOL    HW128351   5.523   5.650   1.360  0.9990  2.1022 -0.0772
 9177SOL    HW228352   5.511   5.564   1.223 -0.1433 -1.0871  1.9176
 9178SOL     OW28353   4.962   6.535   5.182  0.1145 -0.1921 -0.1577
 9178SOL    HW128354   4.878   6.482   5.189  1.3594 -2.0705  1.3110
 9178SOL    HW228355   4.974   6.591   5.264  0.2423  0.1466 -0.4023
 9179SOL     OW28356   1.333   3.603   2.228  0.5141  0.3434  0.4041
 9179SOL    HW128357   1.428   3.585   2.252  0.7698  1.6683  0.4792
 9179SOL    HW228358   1.329   3.683   2.168 -0.6316  0.9430  1.2393
 9180SOL     OW28359   0.165   6.686   3.071  0.0222  0.1241 -0.5468
 9180SOL    HW128360   0.091   6.668   3.135  1.9174  1.0285  2.0955
 9180SOL    HW228361   0.147   6.771   3.022 -1.0835 -0.1250 -0.5854
 9181SOL     OW28362   1.443   0.774   6.440 -0.1141  0.4970  0.3609
 9181SOL    HW128363   1.530   0.733   6.413  0.1060  0.9411  0.3956
 9181SOL    HW228364   1.459   0.863   6.482 -0.3105 -0.7270  3.2498
 9182SOL     OW28365   1.065   4.061   2.695 -0.0633 -0.1664 -0.2647
 9182SOL    HW128366   1.043   3.971   2.733  1.7077 -0.4801  0.0645
 9182SOL    HW228367   1.062   4.130   2.768  0.6789 -0.3125 -0.0960
 9183SOL     OW28368   0.334   6.661   5.177 -0.8167 -0.2648 -0.1474
 9183SOL    HW128369   0.364   6.565   5.180  1.1373  0.3130  0.3667
 9183SOL    HW228370   0.412   6.719   5.155 -2.2685  1.1253 -1.8772
 9184SOL     OW28371   5.828   1.655   0.643  0.4720  0.6440 -0.2746
 9184SOL    HW128372   5.855   1.676   0.549  0.8421 -3.1193 -1.1783
 9184SOL    HW228373   5.750   1.593   0.642  0.5773  0.4062  1.9380
 9185SOL     OW28374   1.918   2.349   6.919  0.2247  0.1879 -0.0477
 9185SOL    HW128375   1.854   2.418   6.953  1.3988  0.4266  1.8185
 9185SOL    HW228376   2.010   2.388   6.916  0.8584 -1.2008  0.7196
 9186SOL     OW28377   5.385   6.954   3.269  0.0031  0.2603 -0.3492
 9186SOL    HW128378   5.298   6.993   3.238 -0.0398  1.0005  0.6169
 9186SOL    HW228379   5.432   6.912   3.192 -0.1968  1.8173 -1.3858
 9187SOL     OW28380   6.443   0.028   1.197 -0.4597  0.6538  0.7027
 9187SOL    HW128381   6.520  -0.015   1.151  0.3064  1.6968  0.9836
 9187SOL    HW228382   6.436  -0.007   1.291  0.9000  1.9559  1.3360
 9188SOL     OW28383   1.571   2.669   4.551  0.3038 -0.0344 -0.5030
 9188SOL    HW128384   1.517   2.604   4.604  0.5484  0.5308  0.4620
 9188SOL    HW228385   1.652   2.695   4.604  1.7308 -1.1537 -2.0630
 9189SOL     OW28386   6.099   4.884   2.496 -0.3686  0.1961  0.2948
 9189SOL    HW128387   6.123   4.957   2.432 -2.3192  0.3217 -0.3767
 9189SOL    HW228388   6.022   4.832   2.459 -0.2412 -1.0085  1.6487
 9190SOL     OW28389   6.973   4.786   2.842  0.8060 -0.4409  0.9165
 9190SOL    HW128390   6.999   4.863   2.784 -0.5465 -0.4988  0.2010
 9190SOL    HW228391   6.873   4.786   2.855  0.8566 -1.6839  1.4460
 9191SOL     OW28392   5.655   0.202   0.932  0.4587 -0.3492  0.1224
 9191SOL    HW128393   5.560   0.171   0.926 -0.2336  1.5580  0.5301
 9191SOL    HW228394   5.691   0.183   1.023  0.4066 -0.8658  0.0405
 9192SOL     OW28395   0.944   0.883   4.405 -0.6960 -0.2925  0.1880
 9192SOL    HW128396   0.961   0.817   4.332  0.7892  0.2895 -0.0422
 9192SOL    HW228397   0.970   0.843   4.493  1.0005  0.2270 -0.0431
 9193SOL     OW28398   6.904   3.398   0.015  0.4198  0.5295 -0.3443
 9193SOL    HW128399   6.867   3.348  -0.064  0.3390  0.8805 -0.5026
 9193SOL    HW228400   7.004   3.391   0.015  0.3307 -1.6287  0.9383
 9194SOL     OW28401   1.189   4.210   4.085  0.0820 -0.1371 -0.3382
 9194SOL    HW128402   1.174   4.207   4.184 -1.3291  2.1042 -0.4034
 9194SOL    HW228403   1.280   4.249   4.066  0.1574 -0.1014  0.0826
 9195SOL     OW28404   4.287   5.700   3.329  0.1244 -0.2718  0.2638
 9195SOL    HW128405   4.290   5.685   3.428  1.7526 -0.3779  0.2203
 9195SOL    HW228406   4.192   5.698   3.298 -0.4343  0.0191  1.8627
 9196SOL     OW28407   2.955   6.656   6.658  0.1823  0.0633 -1.0692
 9196SOL    HW128408   2.990   6.581   6.714  1.3745  2.2268  1.2957
 9196SOL    HW228409   2.855   6.658   6.664  0.2568  0.1772  1.0574
 9197SOL     OW28410   2.296   3.824   0.433  0.0605 -0.2545  0.4390
 9197SOL    HW128411   2.378   3.875   0.455  1.1618 -1.8374  0.1717
 9197SOL    HW228412   2.316   3.726   0.435 -1.4493 -0.6374 -1.0868
 9198SOL     OW28413   6.878   2.399   5.622 -0.4030 -0.1430 -0.6958
 9198SOL    HW128414   6.858   2.497   5.628 -0.7542 -0.1809 -1.1469
 9198SOL    HW228415   6.836   2.363   5.539  1.4754 -0.2404 -1.6245
 9199SOL     OW28416   5.933   3.282   1.839 -0.3713  0.2603  0.0868
 9199SOL    HW128417   5.928   3.212   1.769 -0.5089  1.6666 -1.3610
 9199SOL    HW228418   6.007   3.346   1.818  1.4833 -0.8261  2.7494
 9200SOL     OW28419   0.190   4.563   1.144  0.3299  0.0725  0.0595
 9200SOL    HW128420   0.212   4.517   1.230  0.4969  1.1108  0.5854
 9200SOL    HW228421   0.170   4.659   1.162 -0.3275  0.1392 -0.9782
 9201SOL     OW28422   6.800   6.101   2.461  0.1050 -0.1194 -0.3888
 9201SOL    HW128423   6.873   6.150   2.508  0.5050  0.2907 -1.3992
 9201SOL    HW228424   6.784   6.142   2.371  0.4546 -1.8379 -1.2985
 9202SOL     OW28425   0.705   1.016   6.981 -0.2862  0.0686  0.0665
 9202SOL    HW128426   0.681   0.936   7.037 -1.7818  0.3762 -0.1154
 9202SOL    HW228427   0.724   1.094   7.041  0.5083 -0.2051  0.1728
 9203SOL     OW28428   6.810   1.812   2.158  0.1092 -0.6255  0.8704
 9203SOL    HW128429   6.898   1.852   2.182 -0.4414  0.6281  0.8647
 9203SOL    HW228430   6.739   1.883   2.159 -0.8258 -1.5220  0.4513
 9204SOL     OW28431   0.547   3.303   3.508  0.4221  0.1445 -0.1944
 9204SOL    HW128432   0.459   3.294   3.462 -1.0433 -1.1742  2.6091
 9204SOL    HW228433   0.609   3.232   3.474 -0.5075 -0.6287 -0.3236
 9205SOL     OW28434   5.294   3.547   5.408  0.3143  0.8861 -0.0054
 9205SOL    HW128435   5.281   3.521   5.312 -0.6587  0.4853  0.2207
 9205SOL    HW228436   5.207   3.579   5.446  0.8288  1.6470  0.5710
 9206SOL     OW28437   3.814   3.604   6.441  0.2602 -0.7177  0.6820
 9206SOL    HW128438   3.888   3.569   6.498  1.0852 -0.6178 -0.2928
 9206SOL    HW228439   3.851   3.634   6.353 -1.0342 -1.2904 -0.0940
 9207SOL     OW28440   0.700   6.621   3.772 -0.2864 -0.2584 -0.2563
 9207SOL    HW128441   0.729   6.648   3.863  1.2366 -0.0786 -0.7687
 9207SOL    HW228442   0.779   6.589   3.720 -0.6028  2.0948 -2.3844
 9208SOL     OW28443   2.688   0.882   3.060 -0.1436 -0.1444  0.4179
 9208SOL    HW128444   2.700   0.883   3.159  2.2419  0.7072  0.1825
 9208SOL    HW228445   2.648   0.968   3.029  0.2405  0.0807  0.5421
 9209SOL     OW28446   6.642   5.615   5.157 -0.0533  0.6139  0.1043
 9209SOL    HW128447   6.668   5.607   5.060  1.8041 -2.2268  0.7346
 9209SOL    HW228448   6.712   5.667   5.205 -0.0056  0.3956  0.2697
 9210SOL     OW28449   2.725   0.005   2.780  0.4746  0.1216 -0.2488
 9210SOL    HW128450   2.698   0.096   2.809 -0.4625 -0.4004  0.4923
 9210SOL    HW228451   2.792   0.012   2.706  2.4688  1.3863  1.5631
 9211SOL     OW28452   5.717   2.819   3.872 -0.3560  0.9146 -0.1952
 9211SOL    HW128453   5.814   2.846   3.872 -0.2652  0.6765 -2.0549
 9211SOL    HW228454   5.665   2.882   3.929  1.0850  0.2016  2.0729
 9212SOL     OW28455   0.292   6.098   6.308  0.5529 -0.3333 -0.1602
 9212SOL    HW128456   0.385   6.062   6.299  0.0873 -2.0250  1.2878
 9212SOL    HW228457   0.286   6.156   6.390  1.2591  3.1816 -2.3668
 9213SOL     OW28458   5.074   5.474   4.278  0.1922  0.2293  0.2096
 9213SOL    HW128459   5.160   5.428   4.257 -0.0968 -0.1411 -0.1791
 9213SOL    HW228460   5.092   5.571   4.296  0.5412  0.4472 -1.1683
 9214SOL     OW28461   0.217   1.789   5.350 -0.2070  1.0726 -0.1206
 9214SOL    HW128462   0.263   1.800   5.262 -0.4746  0.9561 -0.2795
 9214SOL    HW228463   0.265   1.842   5.420  1.1718 -0.4110  0.0926
 9215SOL     OW28464   6.611   6.119   5.510 -0.2527  0.5304 -0.3721
 9215SOL    HW128465   6.700   6.134   5.468  0.2821 -0.5836  0.3136
 9215SOL    HW228466   6.593   6.021   5.516 -0.9678  0.7111  0.6700
 9216SOL     OW28467   1.216   3.480   1.593 -0.2753 -0.7356 -0.5120
 9216SOL    HW128468   1.312   3.472   1.567 -0.7310 -2.1322 -1.9521
 9216SOL    HW228469   1.201   3.565   1.643  1.3087  0.4887 -2.0568
 9217SOL     OW28470   1.600   3.986   5.941  0.0769 -0.4764 -0.0457
 9217SOL    HW128471   1.542   3.957   5.865  0.3565  1.1563 -0.9368
 9217SOL    HW228472   1.544   3.995   6.024 -0.8950  0.7030 -0.8014
 9218SOL     OW28473   5.189   3.066   6.734 -0.1073 -0.3018 -0.1348
 9218SOL    HW128474   5.217   3.159   6.710 -1.3645  0.8029  2.2690
 9218SOL    HW228475   5.255   3.026   6.797  0.2933 -1.0006 -0.9597
 9219SOL     OW28476   5.250   4.660   5.771  0.1132  0.3458  0.0770
 9219SOL    HW128477   5.168   4.657   5.716  0.3977 -0.8307 -0.3058
 9219SOL    HW228478   5.328   4.690   5.715 -0.1645  2.1538  0.6091
 9220SOL     OW28479   2.698   6.398   0.548 -0.1601  0.1393 -0.3277
 9220SOL    HW128480   2.775   6.409   0.610 -0.0105 -0.7894 -0.3333
 9220SOL    HW228481   2.723   6.430   0.457 -0.1166  0.7615 -0.1018
 9221SOL     OW28482   0.674   5.919   1.540 -0.1272  0.1600  0.5596
 9221SOL    HW128483   0.713   6.002   1.580  0.8490  0.1963 -0.4531
 9221SOL    HW228484   0.746   5.863   1.499 -1.2175  0.9446 -2.6857
 9222SOL     OW28485   2.868   1.576   2.427  0.5653 -0.0958 -0.0186
 9222SOL    HW128486   2.946   1.556   2.368  1.9172 -1.4678  2.0918
 9222SOL    HW228487   2.816   1.493   2.444 -2.7296  1.0865 -2.9745
 9223SOL     OW28488   1.605   6.869   5.300  0.1358  0.0373 -0.2827
 9223SOL    HW128489   1.509   6.860   5.323  0.4816 -2.1838  0.4459
 9223SOL    HW228490   1.658   6.888   5.382  0.3883  0.8587 -0.6209
 9224SOL     OW28491   6.631   3.356   3.085  0.0176  0.7738  0.3792
 9224SOL    HW128492   6.554   3.301   3.053 -1.0213  1.0583  2.2214
 9224SOL    HW228493   6.622   3.449   3.050 -0.1680  0.6705  0.1472
 9225SOL     OW28494   2.901   4.086   0.748 -0.0428  0.2191  0.1245
 9225SOL    HW128495   2.929   4.120   0.659 -1.4084  1.4532  0.1340
 9225SOL    HW228496   2.883   4.163   0.809  2.6078 -0.5514  2.1084
 9226SOL     OW28497   5.009   4.491   3.014 -0.0752  0.3617  0.3294
 9226SOL    HW128498   5.002   4.462   2.919 -0.8945  1.6691 -0.0333
 9226SOL    HW228499   4.934   4.553   3.036  0.0085 -0.0218  1.8854
 9227SOL     OW28500   1.565   1.462   5.014 -0.1998 -0.1464  0.2908
 9227SOL    HW128501   1.635   1.510   5.066  1.7960 -1.2726 -1.2087
 9227SOL    HW228502   1.485   1.446   5.073  0.3954  1.9441  1.8017
 9228SOL     OW28503   4.030   0.154   2.112 -0.0303  0.6931  0.1378
 9228SOL    HW128504   4.013   0.132   2.016 -1.1880  0.8466  0.2841
 9228SOL    HW228505   4.029   0.254   2.124  1.3608  0.7203  0.1091
 9229SOL     OW28506   0.303   1.618   3.583 -0.2541  0.1253  0.4555
 9229SOL    HW128507   0.315   1.614   3.484  1.5428 -0.1174  0.6495
 9229SOL    HW228508   0.213   1.583   3.607 -0.5125 -0.3116 -1.0441
 9230SOL     OW28509   6.051   3.795   4.350  0.5876 -0.0959 -0.8617
 9230SOL    HW128510   5.956   3.763   4.353  0.5811 -0.0114  0.0964
 9230SOL    HW228511   6.098   3.769   4.434  1.3612  0.0327 -1.2445
 9231SOL     OW28512   3.358   2.187   0.999  0.2855 -0.0767 -0.1675
 9231SOL    HW128513   3.337   2.264   0.939  2.1486  1.0580  0.5520
 9231SOL    HW228514   3.447   2.148   0.974 -0.4769 -1.8615 -0.3264
 9232SOL     OW28515   2.654   0.326   3.328 -0.7917 -0.9398 -0.5660
 9232SOL    HW128516   2.565   0.290   3.356 -1.8413  2.3619  0.7512
 9232SOL    HW228517   2.642   0.392   3.254  0.4214  0.1232  0.1432
 9233SOL     OW28518   3.766   5.033   3.809  0.0123 -0.1762 -0.0864
 9233SOL    HW128519   3.758   5.125   3.847  0.4548 -0.6878  1.3197
 9233SOL    HW228520   3.796   5.038   3.714  0.3388  1.1157  0.0692
 9234SOL     OW28521   3.336   6.104   4.399 -0.3521 -0.0167 -0.2086
 9234SOL    HW128522   3.262   6.099   4.332  0.5881  0.6655 -1.3601
 9234SOL    HW228523   3.416   6.146   4.356  0.4552 -0.0233  1.2213
 9235SOL     OW28524   2.037   2.063   2.457  0.1495 -0.1137 -0.0105
 9235SOL    HW128525   2.025   1.998   2.383  0.2861 -0.3360  0.1642
 9235SOL    HW228526   1.976   2.141   2.442 -1.3124 -1.0824  0.6766
 9236SOL     OW28527   6.894   4.928   5.425  0.2235  0.1598 -0.0677
 9236SOL    HW128528   6.857   4.956   5.336  0.0560 -1.2660 -0.4805
 9236SOL    HW228529   6.965   4.859   5.411 -0.7450 -1.0890  0.9421
 9237SOL     OW28530   6.168   2.182   3.507  0.4496 -0.3511 -0.0949
 9237SOL    HW128531   6.199   2.158   3.415  2.5492 -0.5174  0.6059
 9237SOL    HW228532   6.071   2.205   3.505  1.2890  4.0654 -3.1824
 9238SOL     OW28533   4.347   4.624   4.084  0.4753  0.2166  0.3919
 9238SOL    HW128534   4.299   4.595   4.001 -0.4165 -0.7497  1.2130
 9238SOL    HW228535   4.287   4.681   4.140  0.7518  0.1366  0.7779
 9239SOL     OW28536   4.977   2.766   5.301 -0.2053 -0.1143 -0.9915
 9239SOL    HW128537   4.916   2.787   5.378 -0.7130 -1.8476 -0.8827
 9239SOL    HW228538   5.025   2.849   5.273  1.2590  0.2771  2.2912
 9240SOL     OW28539   1.602   3.415   5.110 -0.5049  0.5721 -0.2728
 9240SOL    HW128540   1.503   3.405   5.111 -0.7699  2.7723  0.4910
 9240SOL    HW228541   1.637   3.393   5.019 -1.4641 -1.6477 -0.1782
 9241SOL     OW28542   6.845   0.879   0.863  0.7321  0.0091 -0.1736
 9241SOL    HW128543   6.807   0.970   0.877  1.0909 -0.1492  2.1217
 9241SOL    HW228544   6.778   0.810   0.892  1.0302 -0.4226 -0.4898
 9242SOL     OW28545   6.636   3.672   3.137  0.3781  0.2096  0.0062
 9242SOL    HW128546   6.699   3.733   3.089 -2.3668  3.4152  0.0637
 9242SOL    HW228547   6.552   3.662   3.084  0.0074 -2.1989  0.8955
 9243SOL     OW28548   3.074   1.187   3.748  0.0704  0.5386  0.2649
 9243SOL    HW128549   3.076   1.183   3.648 -0.3124 -0.6018  0.2896
 9243SOL    HW228550   2.984   1.159   3.781  0.1125  1.1418  0.9272
 9244SOL     OW28551   2.630   3.506   0.578  0.1256  0.0433 -0.8276
 9244SOL    HW128552   2.585   3.471   0.661  1.2938 -1.3625 -0.7359
 9244SOL    HW228553   2.572   3.574   0.535 -0.9764  0.0545  0.5975
 9245SOL     OW28554   1.344   4.254   6.282  0.3761  0.4100  0.6922
 9245SOL    HW128555   1.274   4.250   6.354  0.5293  3.4322  1.1197
 9245SOL    HW228556   1.346   4.346   6.243 -0.0589 -1.1896 -3.6285
 9246SOL     OW28557   5.606   6.773   3.653  0.1137  0.1021 -0.3095
 9246SOL    HW128558   5.575   6.771   3.748  0.4257  0.6506 -0.1884
 9246SOL    HW228559   5.527   6.776   3.592 -0.0750  1.3036 -0.0170
 9247SOL     OW28560   2.430   6.691   5.279  0.0095  0.9663 -0.6237
 9247SOL    HW128561   2.383   6.622   5.335  1.8765  0.2661  0.1803
 9247SOL    HW228562   2.381   6.702   5.193 -0.4343 -1.3272 -0.7659
 9248SOL     OW28563   5.839   2.704   6.677  0.3841 -0.0305 -0.3828
 9248SOL    HW128564   5.872   2.748   6.593  1.5502 -0.8164 -0.3643
 9248SOL    HW228565   5.753   2.657   6.660 -0.6399  1.7937 -0.5401
 9249SOL     OW28566   3.907   5.076   4.931  0.2104  0.3371  0.1231
 9249SOL    HW128567   3.807   5.084   4.928  0.1366 -0.6119 -0.1141
 9249SOL    HW228568   3.939   5.099   5.023 -0.3868 -0.9524  0.6806
 9250SOL     OW28569   1.930   6.383   6.960  0.9313  0.6055 -0.4338
 9250SOL    HW128570   1.848   6.435   6.936  0.0012  0.5233  2.1358
 9250SOL    HW228571   1.989   6.439   7.018 -0.2144 -1.0694  2.5971
 9251SOL     OW28572   3.989   6.465   4.475  0.0017 -0.1018  0.1863
 9251SOL    HW128573   3.960   6.509   4.561 -0.9796  0.7473 -0.5512
 9251SOL    HW228574   4.073   6.414   4.491  1.9477  3.0350  0.8696
 9252SOL     OW28575   2.833   5.313   3.250  0.1539 -0.0297 -0.2587
 9252SOL    HW128576   2.905   5.306   3.320 -0.5139 -0.6544  0.3868
 9252SOL    HW228577   2.800   5.407   3.245 -0.1478 -0.0796  0.6361
 9253SOL     OW28578   0.669   4.452   1.509 -0.1464 -0.0979 -0.0502
 9253SOL    HW128579   0.637   4.502   1.589  0.2508  0.8594 -0.4728
 9253SOL    HW228580   0.606   4.377   1.490  0.3404 -1.0205  1.7823
 9254SOL     OW28581   0.392   5.347   3.677 -0.8352 -0.4187 -0.1760
 9254SOL    HW128582   0.453   5.268   3.671 -1.2496 -0.7018 -0.7726
 9254SOL    HW228583   0.407   5.394   3.764 -0.3612 -0.9663  0.0456
 9255SOL     OW28584   6.239   5.579   2.052 -0.3159  0.2250  0.3287
 9255SOL    HW128585   6.291   5.533   2.123  1.9758  0.2340 -1.2328
 9255SOL    HW228586   6.169   5.516   2.016 -0.0229 -0.5440  1.0771
 9256SOL     OW28587   3.484   3.845   6.236 -0.1332 -0.5641  0.7477
 9256SOL    HW128588   3.498   3.764   6.293 -1.9987 -1.0303  0.6056
 9256SOL    HW228589   3.402   3.833   6.180  1.3638  0.0524 -1.7554
 9257SOL     OW28590   0.137   5.351   1.555  0.0567 -0.0167 -0.0912
 9257SOL    HW128591   0.197   5.368   1.633  2.2768 -1.9839 -1.2860
 9257SOL    HW228592   0.083   5.268   1.572  0.5393 -0.4447 -0.6245
 9258SOL     OW28593   5.340   0.882   5.868 -0.4930  0.2011  0.1878
 9258SOL    HW128594   5.313   0.976   5.889  0.4081  0.5041  0.0522
 9258SOL    HW228595   5.321   0.862   5.772 -0.3691  0.3722  0.1221
 9259SOL     OW28596   0.809   0.254   2.466 -0.3950  0.5499  0.8230
 9259SOL    HW128597   0.883   0.206   2.419 -1.6681  0.4113 -1.1209
 9259SOL    HW228598   0.835   0.267   2.562  1.2224 -1.4159  0.7314
 9260SOL     OW28599   5.686   1.151   6.798 -0.7056  0.3279 -0.1598
 9260SOL    HW128600   5.783   1.170   6.816 -0.6964 -1.0490  1.4556
 9260SOL    HW228601   5.677   1.061   6.755 -1.2906  0.3203 -0.0299
 9261SOL     OW28602   0.209   6.052   0.473 -0.3649 -0.0161  0.0172
 9261SOL    HW128603   0.157   6.109   0.410  1.2047 -0.1024 -1.4194
 9261SOL    HW228604   0.263   6.110   0.533  1.1595  0.0840 -1.3822
 9262SOL     OW28605   2.010   5.871   1.578  0.0530  0.6133 -0.5078
 9262SOL    HW128606   2.065   5.849   1.657 -0.1136  1.4524 -0.1467
 9262SOL    HW228607   2.068   5.878   1.497  0.5047  1.5817 -0.1150
 9263SOL     OW28608   5.476   4.021   4.754  0.2191 -0.4013  0.2995
 9263SOL    HW128609   5.475   4.031   4.654  1.1728  0.8970  0.3857
 9263SOL    HW228610   5.554   3.964   4.780 -1.1137 -2.3533  0.2301
 9264SOL     OW28611   4.746   3.523   1.726  0.2387 -0.1366 -0.2698
 9264SOL    HW128612   4.814   3.498   1.794  1.2662  1.1597 -0.7870
 9264SOL    HW228613   4.725   3.443   1.669  2.4616 -0.2157 -1.0538
 9265SOL     OW28614   1.502   3.802   4.340 -0.2056  0.2544 -0.1927
 9265SOL    HW128615   1.503   3.717   4.286 -1.0450 -0.5207  0.9638
 9265SOL    HW228616   1.576   3.800   4.407  0.1776  0.7454 -0.5878
 9266SOL     OW28617   0.647   6.780   4.796  0.4277 -0.3410 -0.4862
 9266SOL    HW128618   0.687   6.819   4.712 -1.0547 -0.2655 -1.1862
 9266SOL    HW228619   0.701   6.809   4.875  0.9346  0.8798 -1.2520
 9267SOL     OW28620   3.454   3.667   5.078 -0.0893  0.4677  0.3686
 9267SOL    HW128621   3.475   3.603   5.152 -0.4808 -0.9484 -0.7123
 9267SOL    HW228622   3.416   3.617   5.000 -0.0613  1.9793 -0.6492
 9268SOL     OW28623   5.685   6.954   4.412 -0.4550  0.2252  0.0163
 9268SOL    HW128624   5.700   7.052   4.394  0.5225  0.2129  0.8197
 9268SOL    HW228625   5.666   6.941   4.509 -1.2587 -0.3153 -0.2109
 9269SOL     OW28626   0.450   3.962   5.980  0.1373  0.5564  0.3209
 9269SOL    HW128627   0.366   3.929   6.023 -0.3467 -0.8620 -1.5555
 9269SOL    HW228628   0.515   3.989   6.050 -0.6674 -1.4238  1.9316
 9270SOL     OW28629   6.464   6.524   0.691  0.2244  0.6546 -0.0118
 9270SOL    HW128630   6.474   6.450   0.758  1.6781  0.2334 -0.6729
 9270SOL    HW228631   6.402   6.495   0.619  0.5056  0.2243 -0.0804
 9271SOL     OW28632   0.339   2.209   1.447 -0.4268  0.1224  0.2271
 9271SOL    HW128633   0.414   2.155   1.408  0.6102  0.0644  2.1509
 9271SOL    HW228634   0.367   2.305   1.452  0.3886 -0.1805  2.7607
 9272SOL     OW28635   5.068   3.669   2.744 -0.4732 -0.3559  0.1506
 9272SOL    HW128636   5.027   3.578   2.751 -1.3782 -0.0783 -1.1105
 9272SOL    HW228637   5.097   3.685   2.650 -1.6484  1.2000  0.0170
 9273SOL     OW28638   1.393   2.958   1.423 -0.1044  0.1884 -0.1037
 9273SOL    HW128639   1.298   2.945   1.392 -0.9707  0.4939  2.2416
 9273SOL    HW228640   1.411   3.056   1.434  0.3028  0.0924  0.0948
 9274SOL     OW28641   3.247   5.285   3.402  0.5891  0.9367 -0.6428
 9274SOL    HW128642   3.282   5.349   3.333  1.5719  0.5397 -0.5361
 9274SOL    HW228643   3.323   5.246   3.453 -0.0631  0.4116 -0.0428
 9275SOL     OW28644   5.666   4.684   1.832  0.6223  0.1525 -0.1656
 9275SOL    HW128645   5.760   4.700   1.802  0.3712  3.9621  0.4945
 9275SOL    HW228646   5.605   4.684   1.753  0.9731 -0.5327 -0.4464
 9276SOL     OW28647   6.103   3.961   1.034 -0.7592  0.4404  0.7576
 9276SOL    HW128648   6.177   4.001   1.089  1.9320 -1.2466 -1.3910
 9276SOL    HW228649   6.091   3.865   1.059 -0.4560  0.0360 -0.5877
 9277SOL     OW28650   3.382   1.150   6.026  0.5022 -0.0946 -0.0673
 9277SOL    HW128651   3.473   1.111   6.044  0.4300 -0.8879 -1.2539
 9277SOL    HW228652   3.350   1.200   6.106  0.0790 -3.5170  2.0780
 9278SOL     OW28653   1.229   1.750   0.307 -0.0396  0.1271  0.2139
 9278SOL    HW128654   1.226   1.689   0.387  0.3215  0.6229  0.6128
 9278SOL    HW228655   1.156   1.818   0.316 -0.6441 -0.4203 -0.3848
 9279SOL     OW28656   1.564   5.493   5.709  0.2196  0.7995  0.7360
 9279SOL    HW128657   1.516   5.412   5.743 -0.3489  0.6965 -0.2882
 9279SOL    HW228658   1.644   5.464   5.657 -0.2290  0.8773 -0.0031
 9280SOL     OW28659   1.946   1.214   0.512 -0.1519  0.0905  0.7894
 9280SOL    HW128660   1.975   1.302   0.473 -0.5337 -0.5357 -1.0085
 9280SOL    HW228661   2.003   1.193   0.591  0.2300  1.7503  1.0030
 9281SOL     OW28662   0.096   3.417   1.672  0.2431 -0.0584 -0.3481
 9281SOL    HW128663   0.022   3.382   1.729 -0.0288 -0.5808 -0.9920
 9281SOL    HW228664   0.081   3.389   1.577  0.3329  1.3563 -0.8043
 9282SOL     OW28665   4.695   0.844   6.549  0.6374 -0.0705 -0.4476
 9282SOL    HW128666   4.719   0.747   6.550 -0.3904 -0.3351  0.2640
 9282SOL    HW228667   4.763   0.895   6.497  0.6936 -1.3021 -1.6237
 9283SOL     OW28668   6.421   1.804   2.060  0.1016  0.0293 -0.2741
 9283SOL    HW128669   6.420   1.798   1.960 -1.0159 -0.4506 -0.2422
 9283SOL    HW228670   6.445   1.714   2.098  0.4627  0.1949 -0.1019
 9284SOL     OW28671   5.712   2.729   2.759  0.6183 -0.2326  0.5928
 9284SOL    HW128672   5.687   2.801   2.694 -1.3297 -0.1596  1.3437
 9284SOL    HW228673   5.643   2.656   2.756  0.2993 -0.0926  2.7250
 9285SOL     OW28674   4.433   1.974   4.049 -0.2934 -0.4109  0.1577
 9285SOL    HW128675   4.505   1.931   3.994  1.0890  0.5754  1.1177
 9285SOL    HW228676   4.451   1.957   4.146 -1.3607 -0.1362  0.4108
 9286SOL     OW28677   1.045   0.486   4.755  0.2148  0.5118  0.0621
 9286SOL    HW128678   0.977   0.426   4.798 -1.5362  1.3626 -1.4091
 9286SOL    HW228679   1.128   0.433   4.736  0.8140 -0.0881  3.6617
 9287SOL     OW28680   3.695   5.470   5.707  0.0669  0.0287 -0.5851
 9287SOL    HW128681   3.759   5.540   5.676  0.8364 -0.7908 -0.8568
 9287SOL    HW228682   3.744   5.401   5.760 -0.3734 -1.2562 -1.8106
 9288SOL     OW28683   6.103   4.867   2.945  0.3688  0.0212 -0.2285
 9288SOL    HW128684   6.111   4.810   3.027  0.1126  0.7461  0.3084
 9288SOL    HW228685   6.006   4.886   2.927  0.5014  2.3748  1.0952
 9289SOL     OW28686   3.876   1.965   0.190 -0.4104 -0.4983 -0.3407
 9289SOL    HW128687   3.849   2.038   0.127  0.1373  0.1912  0.2068
 9289SOL    HW228688   3.915   2.006   0.273 -0.1524 -1.4186 -0.0032
 9290SOL     OW28689   2.477   0.129   2.571 -0.1946 -0.6636 -0.0730
 9290SOL    HW128690   2.432   0.179   2.497  1.5416  1.7055  0.3627
 9290SOL    HW228691   2.572   0.113   2.547  0.1915 -0.5698  1.3286
 9291SOL     OW28692   1.999   6.679   3.995 -0.0315  0.4917  0.6915
 9291SOL    HW128693   1.985   6.598   4.053  0.1741 -0.9555 -1.1780
 9291SOL    HW228694   2.097   6.693   3.982 -0.0816  0.5606  0.3788
 9292SOL     OW28695   3.163   0.350   2.582 -0.7932 -0.4695 -0.2266
 9292SOL    HW128696   3.183   0.390   2.671 -0.3073 -0.4961 -0.3173
 9292SOL    HW228697   3.248   0.331   2.534 -1.0663  0.9692 -1.3382
 9293SOL     OW28698   6.412   1.052   6.073  0.4472 -0.2190 -0.3217
 9293SOL    HW128699   6.434   0.975   6.014 -1.8214 -0.9636 -0.3249
 9293SOL    HW228700   6.313   1.069   6.069  0.8602  2.6149 -0.2095
 9294SOL     OW28701   2.722   2.625   6.449  0.0557  0.1610  0.4551
 9294SOL    HW128702   2.717   2.563   6.528 -0.2012  1.0639  1.1722
 9294SOL    HW228703   2.631   2.663   6.431  0.2312  0.4197  0.0988
 9295SOL     OW28704   2.923   1.580   0.916  0.1874  0.5582  0.1225
 9295SOL    HW128705   2.939   1.670   0.956  0.9960  0.3563  0.2851
 9295SOL    HW228706   2.905   1.514   0.989 -1.7013  0.8080 -0.0623
 9296SOL     OW28707   1.261   2.111   5.461  0.2300 -0.0754 -0.0890
 9296SOL    HW128708   1.297   2.164   5.537  2.1422 -0.7588 -0.4865
 9296SOL    HW228709   1.227   2.023   5.494 -0.4869  0.2990  0.1912
 9297SOL     OW28710   2.383   3.071   0.619 -0.2018 -0.3098 -0.3344
 9297SOL    HW128711   2.451   3.124   0.568 -2.4750  1.5407 -1.6709
 9297SOL    HW228712   2.399   3.083   0.717  0.2187  1.8072 -0.5952
 9298SOL     OW28713   5.749   3.200   3.830  0.0678 -0.2436 -0.3732
 9298SOL    HW128714   5.702   3.143   3.898 -0.5124  0.1695 -0.4241
 9298SOL    HW228715   5.845   3.208   3.855  0.3896 -2.0577 -0.8786
 9299SOL     OW28716   3.013   4.800   0.725  0.1692  0.0766  0.0169
 9299SOL    HW128717   3.024   4.782   0.822 -0.1404  0.2745  0.0932
 9299SOL    HW228718   3.100   4.833   0.687  0.6696 -1.2813 -0.0660
 9300SOL     OW28719   4.818   3.708   1.118  0.9786 -0.3981  0.3182
 9300SOL    HW128720   4.896   3.657   1.081  0.5517 -0.2590 -0.7885
 9300SOL    HW228721   4.758   3.645   1.167  0.9727 -0.8015 -0.1880
 9301SOL     OW28722   0.081   6.252   4.489 -0.3628  0.1582  0.6050
 9301SOL    HW128723   0.079   6.194   4.408 -1.4160  0.6955  0.2309
 9301SOL    HW228724   0.174   6.258   4.524 -0.1826 -1.4587  0.4484
 9302SOL     OW28725   5.502   7.005   6.866 -0.1669 -0.0609 -0.4975
 9302SOL    HW128726   5.462   6.966   6.783  1.0792 -1.0222 -0.6699
 9302SOL    HW228727   5.432   7.058   6.914 -1.7141 -1.8993 -0.6575
 9303SOL     OW28728   3.050   1.186   6.865  0.2658  0.1169 -0.6549
 9303SOL    HW128729   3.121   1.117   6.877  1.0255  0.8985 -0.5101
 9303SOL    HW228730   2.971   1.164   6.922  0.0461 -1.2088 -1.4378
 9304SOL     OW28731   5.284   5.639   3.691  0.1612  0.5807  0.2525
 9304SOL    HW128732   5.246   5.674   3.606 -0.6879  1.1869  0.8472
 9304SOL    HW228733   5.301   5.540   3.683  1.0530  0.8162 -0.9305
 9305SOL     OW28734   2.058   4.410   4.529  0.4447  0.4176 -0.3162
 9305SOL    HW128735   2.153   4.428   4.551  0.6151 -0.4023 -0.3627
 9305SOL    HW228736   2.032   4.462   4.447  1.0164  0.1762 -0.6481
 9306SOL     OW28737   1.630   2.217   2.113 -0.5461 -0.0523 -0.2180
 9306SOL    HW128738   1.605   2.135   2.166 -0.4403  1.0911  1.7015
 9306SOL    HW228739   1.729   2.221   2.102 -0.6361 -0.8889 -1.5805
 9307SOL     OW28740   0.003   5.916   5.266  0.1804 -0.5942 -0.3912
 9307SOL    HW128741  -0.051   5.991   5.229 -0.4320 -0.2626  1.1501
 9307SOL    HW228742   0.098   5.927   5.237 -0.2515 -0.2687 -1.7540
 9308SOL     OW28743   1.739   1.326   4.295 -0.6672 -0.1387  0.4220
 9308SOL    HW128744   1.686   1.411   4.291  0.4208  0.5644  0.6097
 9308SOL    HW228745   1.686   1.256   4.344 -2.1674 -0.0363 -0.9774
 9309SOL     OW28746   5.042   4.288   1.675 -0.1799  0.3052 -0.6695
 9309SOL    HW128747   4.955   4.323   1.640 -1.2252 -0.7407  0.7512
 9309SOL    HW228748   5.104   4.271   1.598 -0.6551  2.4252 -1.6120
 9310SOL     OW28749   3.683   0.548   5.449 -0.6907  0.0058 -0.5730
 9310SOL    HW128750   3.777   0.583   5.441 -1.3710  1.6233 -2.3422
 9310SOL    HW228751   3.684   0.449   5.443  0.9569 -0.0574  0.0566
 9311SOL     OW28752   6.459   2.355   5.516  0.3923  0.0725 -0.2197
 9311SOL    HW128753   6.397   2.347   5.438 -1.8246 -0.1628  1.4514
 9311SOL    HW228754   6.510   2.270   5.527 -1.0237 -0.8053 -0.0771
 9312SOL     OW28755   2.120   5.356   1.675 -0.3457 -0.3246 -0.0108
 9312SOL    HW128756   2.075   5.302   1.605  1.2188 -0.1440 -1.2191
 9312SOL    HW228757   2.139   5.448   1.639  0.3900 -0.1972  0.6640
 9313SOL     OW28758   5.977   2.356   2.846  0.4394  0.0942 -0.6567
 9313SOL    HW128759   6.052   2.290   2.847 -1.3855 -2.1011 -0.8298
 9313SOL    HW228760   6.007   2.440   2.800  2.7643 -0.6629 -0.6600
 9314SOL     OW28761   0.378   3.970   1.000 -0.3696  0.4212 -0.3123
 9314SOL    HW128762   0.382   4.069   0.984  0.3476  0.4640  0.0624
 9314SOL    HW228763   0.337   3.925   0.921 -0.1271  0.9575 -0.7555
 9315SOL     OW28764   1.867   4.936   4.744  0.1814  0.1999  0.8426
 9315SOL    HW128765   1.903   4.911   4.654  3.2021  0.3300  1.9094
 9315SOL    HW228766   1.844   5.034   4.744 -3.5728 -0.4746 -0.7870
 9316SOL     OW28767   6.089   1.545   0.428  0.2788  0.5627  0.3872
 9316SOL    HW128768   6.026   1.618   0.455  1.9893  2.7529 -1.1484
 9316SOL    HW228769   6.182   1.583   0.419  1.2949 -1.8870 -0.2297
 9317SOL     OW28770   3.929   5.878   5.507  0.3203  0.3449  0.3818
 9317SOL    HW128771   4.028   5.875   5.494  0.6922 -0.9984  2.8367
 9317SOL    HW228772   3.897   5.971   5.496  1.7116  0.7144 -1.1232
 9318SOL     OW28773   5.128   5.900   4.162  0.4433  0.4069 -0.7596
 9318SOL    HW128774   5.151   5.806   4.137  0.0554  0.0757  0.1025
 9318SOL    HW228775   5.137   5.959   4.082 -0.3443 -0.5476 -1.5623
 9319SOL     OW28776   6.773   2.683   5.661  0.4943  0.1523 -0.0974
 9319SOL    HW128777   6.786   2.782   5.673  1.1253  0.4514 -2.6757
 9319SOL    HW228778   6.708   2.650   5.729 -0.0462  2.4206  0.5846
 9320SOL     OW28779   4.192   5.479   1.458 -0.0800  0.2079 -0.3197
 9320SOL    HW128780   4.226   5.407   1.518 -0.1316  0.1893 -0.3130
 9320SOL    HW228781   4.260   5.553   1.453  1.3602 -1.1412 -2.6790
 9321SOL     OW28782   1.737   3.781   6.716  0.4677 -0.0085  0.0317
 9321SOL    HW128783   1.738   3.868   6.667  0.8518  0.1136  0.2549
 9321SOL    HW228784   1.646   3.740   6.709 -0.0642  0.9914  0.9600
 9322SOL     OW28785   0.397   2.616   6.417 -0.5969 -0.0499 -0.0575
 9322SOL    HW128786   0.308   2.607   6.373  0.1812 -1.3090 -1.4503
 9322SOL    HW228787   0.414   2.535   6.473 -0.9125  0.8382  1.3677
 9323SOL     OW28788   3.337   6.423   6.254  0.5647 -0.7045 -0.9469
 9323SOL    HW128789   3.252   6.371   6.248 -0.2315  0.3383  0.5046
 9323SOL    HW228790   3.320   6.518   6.225  0.4397  0.2769  1.9762
 9324SOL     OW28791   4.207   1.527   1.461  0.6133  0.2725 -0.3316
 9324SOL    HW128792   4.162   1.613   1.482 -0.9827 -0.4566 -0.6137
 9324SOL    HW228793   4.205   1.510   1.363  0.8792 -0.1100 -0.2759
 9325SOL     OW28794   0.775   3.152   1.048  0.3105  0.3962  0.1865
 9325SOL    HW128795   0.801   3.173   1.142 -0.0003 -2.2568  0.9708
 9325SOL    HW228796   0.716   3.071   1.047  0.5851  0.1260 -2.3320
 9326SOL     OW28797   0.700   2.635   1.645 -0.3544 -0.3054  0.3002
 9326SOL    HW128798   0.611   2.620   1.688 -0.8232  0.7305 -0.2699
 9326SOL    HW228799   0.753   2.698   1.702 -0.8452  0.7995 -0.4240
 9327SOL     OW28800   1.905   2.341   6.256 -0.0922  0.6451  0.3155
 9327SOL    HW128801   1.861   2.255   6.278  0.1936  0.2875 -0.4759
 9327SOL    HW228802   1.878   2.371   6.165 -0.8610  1.8419  0.9004
 9328SOL     OW28803   0.223   0.887   6.310 -0.0691  0.0903  0.2019
 9328SOL    HW128804   0.146   0.823   6.312  0.2276 -0.3422 -0.9759
 9328SOL    HW228805   0.221   0.940   6.225  0.4327  0.7090  0.5655
 9329SOL     OW28806   5.052   6.348   3.655 -0.0990  0.3876  0.5895
 9329SOL    HW128807   5.047   6.403   3.738  0.2346  1.2587  0.0483
 9329SOL    HW228808   4.989   6.384   3.586  0.0804  0.0651  0.2455
 9330SOL     OW28809   0.978   2.993   6.013 -0.3241 -0.1298 -0.0094
 9330SOL    HW128810   1.057   3.007   6.072  1.2847 -1.4232 -1.7216
 9330SOL    HW228811   0.956   3.079   5.966 -0.8800  0.6050  1.5512
 9331SOL     OW28812   2.044   6.662   3.316 -0.3534  0.6524  0.4662
 9331SOL    HW128813   2.013   6.592   3.381 -0.8441  0.3047 -0.1316
 9331SOL    HW228814   2.139   6.642   3.290  0.2374  1.4322  1.9106
 9332SOL     OW28815   3.543   3.607   6.353  0.4099  0.2538 -0.3137
 9332SOL    HW128816   3.639   3.628   6.371  0.2034  1.1303 -0.1603
 9332SOL    HW228817   3.521   3.516   6.389  1.7661 -1.0108 -2.4469
 9333SOL     OW28818   4.917   1.512   2.878 -0.3755  0.0023 -0.1995
 9333SOL    HW128819   4.968   1.594   2.854 -2.1686  1.4587  0.8184
 9333SOL    HW228820   4.823   1.519   2.843 -0.8197 -1.2219  0.6828
 9334SOL     OW28821   6.147   0.349   4.215  0.0229  0.0342 -0.2242
 9334SOL    HW128822   6.207   0.291   4.270  1.3427  0.5995 -1.0100
 9334SOL    HW228823   6.157   0.325   4.118  0.8231  1.7225 -0.5983
 9335SOL     OW28824   3.162   0.206   2.135  0.4068 -0.4901  0.1694
 9335SOL    HW128825   3.109   0.183   2.053  0.6697  2.2356 -0.8691
 9335SOL    HW228826   3.229   0.277   2.112 -0.2575  1.2021  2.9629
 9336SOL     OW28827   1.382   2.040   6.728  0.0658 -0.0956 -0.9690
 9336SOL    HW128828   1.395   1.956   6.782 -1.8026 -0.5299 -1.1043
 9336SOL    HW228829   1.460   2.101   6.741  0.3477 -0.8162  1.0796
 9337SOL     OW28830   1.920   1.991   4.322 -0.1430 -0.2276 -0.2456
 9337SOL    HW128831   1.866   2.064   4.280 -1.0211 -0.9935 -0.4634
 9337SOL    HW228832   1.902   1.988   4.420  0.6886  0.5091 -0.0511
 9338SOL     OW28833   1.832   4.716   2.302 -0.1648  0.3109  0.0955
 9338SOL    HW128834   1.845   4.619   2.323  0.4251 -0.1592 -2.1388
 9338SOL    HW228835   1.776   4.725   2.220 -0.6590  1.9000  0.5780
 9339SOL     OW28836   6.918   5.236   1.649  0.1378 -0.3749 -0.1514
 9339SOL    HW128837   6.965   5.248   1.737 -1.6598  0.2016  0.7689
 9339SOL    HW228838   6.827   5.275   1.654  0.5138  1.0948 -2.7946
 9340SOL     OW28839   2.731   2.690   3.048 -0.4696 -0.0283  0.4656
 9340SOL    HW128840   2.756   2.623   2.979 -0.4527  0.1100  0.3353
 9340SOL    HW228841   2.763   2.660   3.138  0.5415  0.3415  0.2391
 9341SOL     OW28842   3.585   0.956   3.215 -0.3359 -0.7764 -0.1654
 9341SOL    HW128843   3.583   1.001   3.304  2.0505 -0.9220  0.0388
 9341SOL    HW228844   3.634   0.869   3.223  0.1371 -0.6840 -1.6366
 9342SOL     OW28845   1.598   5.988   1.009 -0.3356 -0.0321  0.0352
 9342SOL    HW128846   1.601   5.962   0.913 -0.4937 -0.0906  0.0462
 9342SOL    HW228847   1.603   5.907   1.067  0.2840  0.0363  0.0853
 9343SOL     OW28848   3.057   0.772   5.253  0.4278  0.6243 -0.1874
 9343SOL    HW128849   2.997   0.849   5.228  0.1374  0.3319 -0.3975
 9343SOL    HW228850   3.073   0.716   5.172 -0.4495 -0.2882  0.2568
 9344SOL     OW28851   4.361   0.269   1.034 -0.0250 -0.3748 -0.3214
 9344SOL    HW128852   4.266   0.302   1.029  1.0216  4.1941  3.1744
 9344SOL    HW228853   4.386   0.257   1.130  3.4806  0.6508 -0.9618
 9345SOL     OW28854   0.534   2.805   0.688 -0.0801 -0.0777  0.5923
 9345SOL    HW128855   0.579   2.882   0.732  1.5885  1.4143 -3.3580
 9345SOL    HW228856   0.437   2.826   0.675 -0.3458 -0.0719  2.3014
 9346SOL     OW28857   2.477   0.015   3.597 -0.1498 -0.0137  0.0145
 9346SOL    HW128858   2.427  -0.008   3.680 -0.2643 -0.4206 -0.1661
 9346SOL    HW228859   2.575   0.012   3.614 -0.1300 -1.6752 -0.2733
 9347SOL     OW28860   4.427   3.420   6.295 -0.0413  0.0569 -0.2488
 9347SOL    HW128861   4.414   3.326   6.265 -3.0322 -0.5001  2.4044
 9347SOL    HW228862   4.423   3.481   6.216 -1.1602 -1.7880 -1.6751
 9348SOL     OW28863   3.028   5.424   1.715 -0.5096  0.2218  0.3493
 9348SOL    HW128864   3.080   5.341   1.693 -0.8849  0.0835 -0.0240
 9348SOL    HW228865   2.945   5.400   1.764  0.5323  0.5640  2.3815
 9349SOL     OW28866   6.789   6.072   6.586  0.0277 -0.2415  0.1010
 9349SOL    HW128867   6.875   6.077   6.536 -0.6907  1.9793 -1.0432
 9349SOL    HW228868   6.786   6.143   6.657 -0.8602 -0.2624  0.1057
 9350SOL     OW28869   6.072   4.472   2.510  0.0304  0.1631 -0.7194
 9350SOL    HW128870   6.142   4.543   2.499 -0.9107  1.4102  1.0087
 9350SOL    HW228871   6.079   4.433   2.602  0.3666 -1.8700 -1.5476
 9351SOL     OW28872   6.331   1.996   4.182  0.5369  0.2162  0.2160
 9351SOL    HW128873   6.245   1.990   4.231 -0.5810  0.0425 -1.6582
 9351SOL    HW228874   6.351   2.092   4.161  0.4497  0.2052  0.0762
 9352SOL     OW28875   5.457   1.839   4.745  0.1271 -0.3075  0.5109
 9352SOL    HW128876   5.483   1.934   4.726 -0.2216 -0.2268  0.4266
 9352SOL    HW228877   5.517   1.777   4.694 -0.5963 -0.1036 -0.6321
 9353SOL     OW28878   5.473   2.013   1.921 -0.3767  0.4836 -0.1099
 9353SOL    HW128879   5.504   2.103   1.950 -1.1521  1.3326 -1.7740
 9353SOL    HW228880   5.381   2.019   1.884 -1.4247 -1.4477  1.9098
 9354SOL     OW28881   1.288   4.743   0.194 -0.1525 -0.4260 -0.0740
 9354SOL    HW128882   1.344   4.727   0.275 -0.0197  0.0945 -0.0626
 9354SOL    HW228883   1.258   4.838   0.191 -0.1741 -0.4409 -0.6240
 9355SOL     OW28884   2.352   6.982   6.797  0.4711 -0.3219 -0.0176
 9355SOL    HW128885   2.343   6.976   6.697 -1.4357 -0.3974  0.1246
 9355SOL    HW228886   2.352   7.078   6.824 -0.6373 -0.3467  0.0132
 9356SOL     OW28887   4.877   0.790   5.814 -0.4159 -0.3014  0.2049
 9356SOL    HW128888   4.814   0.772   5.890  0.6404  0.7849  1.4028
 9356SOL    HW228889   4.890   0.889   5.805 -0.0310 -0.4501 -0.9947
 9357SOL     OW28890   0.600   4.958   1.421 -0.0784 -0.4280  0.0534
 9357SOL    HW128891   0.549   4.892   1.366 -1.1780  0.6988 -0.3197
 9357SOL    HW228892   0.698   4.943   1.406 -0.2395 -2.6019  0.7620
 9358SOL     OW28893   3.056   0.617   6.302  0.6130 -0.3034  0.4518
 9358SOL    HW128894   3.119   0.658   6.236  0.0500 -0.1731 -0.0121
 9358SOL    HW228895   3.104   0.601   6.388  0.2470  3.9662  1.7142
 9359SOL     OW28896   3.648   0.774   1.908  0.3621 -0.1697 -0.6398
 9359SOL    HW128897   3.724   0.762   1.844 -0.7688 -2.8426 -1.6289
 9359SOL    HW228898   3.685   0.780   2.001  1.8504 -0.1003 -1.1953
 9360SOL     OW28899   1.654   0.412   0.304 -0.2219  0.3725 -0.1012
 9360SOL    HW128900   1.720   0.483   0.282  0.1664 -0.3391 -1.3582
 9360SOL    HW228901   1.564   0.453   0.319 -0.1826  1.0798 -1.6100
 9361SOL     OW28902   4.263   1.698   6.517  1.1570 -0.1264 -0.4621
 9361SOL    HW128903   4.227   1.613   6.478  2.6196  0.0401 -2.3023
 9361SOL    HW228904   4.188   1.755   6.548  0.0810 -1.5404 -0.4058
 9362SOL     OW28905   0.308   4.110   6.942 -0.3232 -0.1493  0.0707
 9362SOL    HW128906   0.333   4.202   6.913 -3.2101  1.2948  1.6978
 9362SOL    HW228907   0.381   4.071   6.997 -0.4318  2.8383  2.6115
 9363SOL     OW28908   6.255   5.876   4.234  0.5752 -0.4191 -0.2264
 9363SOL    HW128909   6.349   5.845   4.221  0.4732 -0.6623 -0.3926
 9363SOL    HW228910   6.195   5.829   4.169  0.4282  0.1529 -0.5107
 9364SOL     OW28911   1.884   3.785   2.172  0.7508  0.1214  0.5535
 9364SOL    HW128912   1.884   3.689   2.142  0.8436 -0.2441  1.6654
 9364SOL    HW228913   1.918   3.843   2.098  0.9109 -0.7338 -0.0569
 9365SOL     OW28914   0.930   1.201   6.669  0.0738 -0.4267 -0.5510
 9365SOL    HW128915   1.004   1.142   6.639  0.3006 -0.7807  0.6603
 9365SOL    HW228916   0.949   1.295   6.641  1.4603 -0.3565  0.5264
 9366SOL     OW28917   3.618   2.587   6.055 -0.9504  0.1624 -0.5576
 9366SOL    HW128918   3.591   2.519   5.987 -0.1802 -2.8644  1.9308
 9366SOL    HW228919   3.694   2.641   6.020 -0.3788 -1.4833 -1.9950
 9367SOL     OW28920   2.989   0.498   2.852  0.1302  0.3638  0.6787
 9367SOL    HW128921   2.947   0.586   2.873  0.9753  1.0306 -0.3551
 9367SOL    HW228922   3.082   0.512   2.819  0.2456 -0.9113  0.4002
 9368SOL     OW28923   1.083   4.193   4.387 -0.5630  0.1696  0.3272
 9368SOL    HW128924   1.071   4.131   4.464 -1.0403 -0.5466 -0.2976
 9368SOL    HW228925   1.082   4.287   4.419 -0.7819 -0.1155  1.1844
 9369SOL     OW28926   5.285   2.951   4.054  0.1250 -0.4271 -0.5181
 9369SOL    HW128927   5.330   2.888   3.991  1.2894 -0.1663  0.0303
 9369SOL    HW228928   5.354   3.006   4.101 -0.5448 -1.8718  2.3823
 9370SOL     OW28929   6.257   4.356   5.601  0.0050  0.3014  1.1079
 9370SOL    HW128930   6.334   4.418   5.617 -0.7041  1.6639 -0.3828
 9370SOL    HW228931   6.288   4.261   5.611  2.1005  0.7655 -0.1908
 9371SOL     OW28932   5.316   4.819   3.846 -0.2220  0.3947 -0.1613
 9371SOL    HW128933   5.324   4.740   3.907  0.3256 -0.0148 -0.7434
 9371SOL    HW228934   5.407   4.849   3.818 -0.4695  0.1941 -1.2394
 9372SOL     OW28935   4.212   5.842   5.450  0.0974  0.0443 -0.0098
 9372SOL    HW128936   4.256   5.798   5.529 -1.8328 -0.3001  0.9222
 9372SOL    HW228937   4.258   5.929   5.430  0.5439  0.2077  1.5995
 9373SOL     OW28938   6.651   0.639   1.293 -0.2615  0.0317  0.2659
 9373SOL    HW128939   6.640   0.551   1.248 -0.8069  0.4952 -0.5388
 9373SOL    HW228940   6.620   0.632   1.388 -2.4036 -0.1286 -0.3728
 9374SOL     OW28941   5.457   5.035   3.036  0.0069 -0.8002  0.3056
 9374SOL    HW128942   5.474   5.094   3.116 -0.6678  0.1871 -0.2528
 9374SOL    HW228943   5.359   5.015   3.031 -0.1143 -0.0491 -0.7881
 9375SOL     OW28944   4.522   0.375   6.613  0.5663  0.1001  0.6028
 9375SOL    HW128945   4.424   0.392   6.626  0.7525  0.5007  1.5799
 9375SOL    HW228946   4.544   0.282   6.642  0.5381  0.1148  0.6708
 9376SOL     OW28947   1.123   4.531   2.743 -0.2601 -0.5317 -0.2307
 9376SOL    HW128948   1.097   4.565   2.833 -0.3485  0.7318 -0.7059
 9376SOL    HW228949   1.216   4.492   2.747  0.2614  0.7108  0.1359
 9377SOL     OW28950   1.672   5.572   0.848  0.2293  0.7544  0.1095
 9377SOL    HW128951   1.766   5.605   0.843 -0.0815  1.5435 -1.0812
 9377SOL    HW228952   1.662   5.508   0.924  1.7267  0.6540  0.2400
 9378SOL     OW28953   1.182   0.468   0.446  0.2407  0.2565  0.1714
 9378SOL    HW128954   1.197   0.400   0.518  0.6414  1.8853  1.6768
 9378SOL    HW228955   1.267   0.516   0.427 -0.2989  1.1407 -0.0374
 9379SOL     OW28956   4.368   4.176   0.531  0.3542 -0.6313  0.3623
 9379SOL    HW128957   4.441   4.242   0.551 -1.6972  1.7120  0.6454
 9379SOL    HW228958   4.398   4.084   0.556  2.9633  0.3044  0.9944
 9380SOL     OW28959   5.592   2.685   6.470  0.2937 -0.2762 -0.0032
 9380SOL    HW128960   5.622   2.778   6.448 -0.2412 -0.6735 -2.8408
 9380SOL    HW228961   5.505   2.689   6.518 -0.2474  0.6866 -1.0260
 9381SOL     OW28962   4.730   6.172   0.515 -0.0967 -0.1226  0.0622
 9381SOL    HW128963   4.684   6.153   0.428 -1.9125  1.5408  0.6179
 9381SOL    HW228964   4.794   6.248   0.503  0.5783 -0.6898 -0.0664
 9382SOL     OW28965   3.365   0.648   2.428 -0.5221 -0.0086  0.3023
 9382SOL    HW128966   3.406   0.703   2.356  0.8459 -2.0968 -0.6097
 9382SOL    HW228967   3.413   0.666   2.514 -0.7860  0.9565  0.2650
 9383SOL     OW28968   4.234   4.675   4.902 -0.2774  0.6496 -0.0706
 9383SOL    HW128969   4.149   4.726   4.884 -1.0963 -0.6633 -0.0779
 9383SOL    HW228970   4.219   4.579   4.881  1.8207  0.6452 -1.9575
 9384SOL     OW28971   3.976   1.205   2.531 -0.4022  0.7929  0.2382
 9384SOL    HW128972   4.014   1.274   2.469 -0.2499  0.9460  0.4979
 9384SOL    HW228973   3.883   1.231   2.556 -1.0105 -0.0230 -1.0740
 9385SOL     OW28974   0.659   0.150   3.106  0.3475 -0.2022  0.0215
 9385SOL    HW128975   0.707   0.231   3.139 -0.4197 -0.0194  0.7045
 9385SOL    HW228976   0.562   0.157   3.129  0.3982 -1.6501  0.7248
 9386SOL     OW28977   3.247   4.959   2.222 -0.1248 -0.3872  0.5649
 9386SOL    HW128978   3.328   4.908   2.253 -1.2527 -1.4003  2.0044
 9386SOL    HW228979   3.166   4.901   2.232 -1.1703  0.9646  0.1522
 9387SOL     OW28980   1.267   3.826   4.668 -0.7737  0.1898  0.3667
 9387SOL    HW128981   1.295   3.747   4.722 -1.0524  0.0297  0.2753
 9387SOL    HW228982   1.326   3.904   4.690 -0.2041 -0.1665  0.1266
 9388SOL     OW28983   3.249   5.058   2.859  0.7801 -0.0374  0.3716
 9388SOL    HW128984   3.328   5.111   2.828  0.8241 -0.3742 -0.1266
 9388SOL    HW228985   3.264   5.028   2.953  2.1560 -1.7388 -0.3229
 9389SOL     OW28986   1.488   6.284   1.911 -0.4258  0.1416  0.1622
 9389SOL    HW128987   1.537   6.198   1.893  0.6333  0.5039  1.1534
 9389SOL    HW228988   1.554   6.359   1.914 -1.4700  1.2094 -1.8953
 9390SOL     OW28989   1.098   3.737   2.355  0.1088  0.0970 -0.0683
 9390SOL    HW128990   1.043   3.754   2.273  0.6562  0.3475 -0.3894
 9390SOL    HW228991   1.188   3.704   2.327  0.0229 -0.5945  0.4634
 9391SOL     OW28992   6.593   4.260   3.185 -0.6308 -0.2913  0.4710
 9391SOL    HW128993   6.635   4.191   3.244 -0.8416 -0.7140  0.1402
 9391SOL    HW228994   6.607   4.351   3.223  0.3176 -0.4535  0.5277
 9392SOL     OW28995   6.009   1.075   3.979  0.5346  0.5897 -0.2625
 9392SOL    HW128996   5.929   1.122   3.941 -0.8689 -0.8864  0.7044
 9392SOL    HW228997   6.025   1.107   4.072 -0.0529 -0.3830  0.1856
 9393SOL     OW28998   2.793   5.603   6.280  0.6636  0.0077 -0.8222
 9393SOL    HW128999   2.872   5.639   6.231  0.3994 -0.0190 -1.2767
 9393SOL    HW229000   2.732   5.556   6.216  0.7454 -0.7905 -0.3253
 9394SOL     OW29001   0.780   1.677   5.908 -0.1113 -0.4833 -0.4880
 9394SOL    HW129002   0.809   1.582   5.900 -1.3303 -0.9030 -0.0744
 9394SOL    HW229003   0.709   1.697   5.841 -0.0125  0.0784 -0.4394
 9395SOL     OW29004   1.643   2.511   1.134  0.0882 -0.0744 -0.4581
 9395SOL    HW129005   1.670   2.414   1.133 -0.4770 -0.2353 -1.3606
 9395SOL    HW229006   1.544   2.518   1.151  0.3611  0.4195  1.0628
 9396SOL     OW29007   3.054   6.214   2.340  0.4902  0.6261  0.4085
 9396SOL    HW129008   3.062   6.309   2.311 -1.6093  0.8526  0.4195
 9396SOL    HW229009   3.073   6.207   2.438 -1.6576  1.4999  0.9520
 9397SOL     OW29010   1.984   1.621   0.728 -0.6406  0.4092  0.2469
 9397SOL    HW129011   1.986   1.711   0.770 -0.1893  0.8512 -0.7085
 9397SOL    HW229012   2.075   1.580   0.734 -0.8279  0.0304  0.6232
 9398SOL     OW29013   4.933   6.845   6.491 -0.6914  0.1384 -0.6433
 9398SOL    HW129014   4.952   6.772   6.556  2.4561  3.6471  2.8696
 9398SOL    HW229015   5.006   6.848   6.422 -2.1444 -1.3599 -2.3658
 9399SOL     OW29016   1.549   4.863   5.569 -0.1904  0.2157  0.3545
 9399SOL    HW129017   1.552   4.962   5.551 -0.0261  0.4552  1.6203
 9399SOL    HW229018   1.642   4.829   5.582 -0.3101  0.0930  0.9189
 9400SOL     OW29019   6.348   1.797   2.481 -0.0803  0.0638  0.0585
 9400SOL    HW129020   6.447   1.796   2.472 -0.2326 -0.6450 -2.1436
 9400SOL    HW229021   6.322   1.773   2.574  1.7953 -0.4541  0.4765
 9401SOL     OW29022   4.851   6.377   2.081  0.1978 -0.0331  0.9900
 9401SOL    HW129023   4.767   6.380   2.136  0.5235  1.0517  1.4575
 9401SOL    HW229024   4.930   6.381   2.142  0.6108 -1.3286  0.5669
 9402SOL     OW29025   0.076   2.443   2.016 -0.6442 -0.0439 -0.4578
 9402SOL    HW129026   0.163   2.410   2.053 -0.3424 -0.8056 -1.7826
 9402SOL    HW229027   0.057   2.534   2.053 -0.1787 -0.5855  1.2275
 9403SOL     OW29028   6.128   1.569   4.993  0.5275 -0.1406 -0.1403
 9403SOL    HW129029   6.063   1.502   5.031 -0.4407  1.3289  0.9383
 9403SOL    HW229030   6.097   1.599   4.903 -0.2616  0.4245  0.2955
 9404SOL     OW29031   2.931   0.664   1.863  0.1501 -0.1991  0.2001
 9404SOL    HW129032   2.913   0.657   1.961  2.4796  1.3889  0.8344
 9404SOL    HW229033   2.850   0.701   1.817 -0.6271  0.0303  1.6859
 9405SOL     OW29034   4.093   2.844   1.996 -0.3065 -0.0203 -0.1526
 9405SOL    HW129035   4.016   2.866   1.936  1.6800 -0.3331 -3.0154
 9405SOL    HW229036   4.145   2.927   2.015 -1.5876  0.3278  2.3632
 9406SOL     OW29037   6.645   5.946   0.639 -0.0876  0.3453 -0.1427
 9406SOL    HW129038   6.676   6.019   0.701  0.4185  1.7845 -1.9867
 9406SOL    HW229039   6.656   5.858   0.683 -1.2741  1.3755  2.4329
 9407SOL     OW29040   4.752   2.314   2.785  0.1945 -0.2243  0.0175
 9407SOL    HW129041   4.673   2.261   2.816 -0.2146 -0.1980 -0.9043
 9407SOL    HW229042   4.767   2.297   2.688  0.4909  0.8057 -0.1409
 9408SOL     OW29043   3.107   6.832   0.559 -0.0113 -0.4051 -0.6693
 9408SOL    HW129044   3.093   6.915   0.505 -2.1817 -0.1640  0.1686
 9408SOL    HW229045   3.019   6.801   0.596  1.4165  0.0711  3.6362
 9409SOL     OW29046   0.256   2.285   1.706 -0.2283 -0.1867 -0.3778
 9409SOL    HW129047   0.325   2.255   1.771  2.6057  2.6659 -1.8038
 9409SOL    HW229048   0.283   2.260   1.613 -2.7465 -1.6399 -0.8374
 9410SOL     OW29049   2.590   1.457   2.175 -0.1425 -0.5978 -0.5303
 9410SOL    HW129050   2.638   1.429   2.091 -0.6594 -0.6740 -0.8042
 9410SOL    HW229051   2.494   1.472   2.154 -0.2086 -0.3013 -0.0129
 9411SOL     OW29052   3.795   6.559   1.621 -0.3015  0.4504 -0.6962
 9411SOL    HW129053   3.762   6.482   1.676 -1.1264  1.3101  0.0547
 9411SOL    HW229054   3.863   6.611   1.672  0.3912  0.1159 -1.2702
 9412SOL     OW29055   6.710   5.225   4.484  1.0058 -0.0469  0.0858
 9412SOL    HW129056   6.781   5.155   4.475  1.3489  0.1576  1.0295
 9412SOL    HW229057   6.751   5.316   4.473  0.5578  0.0233 -1.1730
 9413SOL     OW29058   1.886   6.741   6.200  0.0215 -0.4586  1.0776
 9413SOL    HW129059   1.822   6.817   6.213  1.4447  1.1815 -0.9027
 9413SOL    HW229060   1.961   6.750   6.265  0.0267 -0.3287  1.0594
 9414SOL     OW29061   6.534   2.442   5.778 -0.0703  0.0179  0.0130
 9414SOL    HW129062   6.502   2.416   5.686 -0.5096  0.8593 -0.0933
 9414SOL    HW229063   6.563   2.361   5.828  3.5697 -0.1816 -2.0913
 9415SOL     OW29064   3.431   6.985   2.373 -0.1078  0.3144  0.1633
 9415SOL    HW129065   3.474   7.071   2.401 -0.7590  0.9725 -0.8726
 9415SOL    HW229066   3.380   6.947   2.450 -0.5488  1.3240  0.3880
 9416SOL     OW29067   4.941   5.140   2.199 -0.0492  0.3910 -0.1573
 9416SOL    HW129068   4.902   5.048   2.204 -0.2412  0.5523  2.2296
 9416SOL    HW229069   5.038   5.133   2.175 -0.4372 -0.2800 -1.7036
 9417SOL     OW29070   5.553   4.426   3.895  0.0836 -0.4548 -0.4659
 9417SOL    HW129071   5.628   4.456   3.954 -1.2306  1.9544  0.1219
 9417SOL    HW229072   5.562   4.469   3.805 -1.1135  0.8186 -0.0330
 9418SOL     OW29073   2.923   6.197   6.213  0.0905 -0.4770 -0.6996
 9418SOL    HW129074   2.990   6.132   6.248 -0.4735 -0.0762  1.2504
 9418SOL    HW229075   2.896   6.172   6.120  1.8124 -1.4944 -0.9414
 9419SOL     OW29076   6.619   5.506   3.968  0.6760  0.2329 -0.3261
 9419SOL    HW129077   6.557   5.504   4.046 -0.1084 -1.3501 -0.9404
 9419SOL    HW229078   6.579   5.561   3.895 -0.1804 -0.9952 -0.8177
 9420SOL     OW29079   6.327   4.211   3.104  0.2736 -0.3826 -0.1771
 9420SOL    HW129080   6.318   4.142   3.175 -2.3430 -0.8874 -0.8907
 9420SOL    HW229081   6.409   4.265   3.120  0.1728 -0.9474  2.7770
 9421SOL     OW29082   3.113   4.865   6.474 -0.1829 -0.1214  0.3449
 9421SOL    HW129083   3.095   4.932   6.401 -0.1025 -1.3622 -0.8608
 9421SOL    HW229084   3.102   4.773   6.438 -1.3087 -0.7866  2.2368
 9422SOL     OW29085   5.362   4.657   6.359 -0.0399  0.3845 -0.1012
 9422SOL    HW129086   5.338   4.585   6.293  2.2338  0.7497 -1.4304
 9422SOL    HW229087   5.320   4.743   6.330 -4.1172 -0.5584  2.3663
 9423SOL     OW29088   3.208   4.141   1.393 -0.6247  0.6879 -0.2284
 9423SOL    HW129089   3.300   4.170   1.364 -1.0083  2.4159  0.1670
 9423SOL    HW229090   3.191   4.048   1.363  1.5643  0.0361  0.3626
 9424SOL     OW29091   0.603   1.632   6.840  0.4284 -0.8717  0.1480
 9424SOL    HW129092   0.570   1.550   6.888  1.0097  0.1653  2.4772
 9424SOL    HW229093   0.593   1.712   6.900 -0.0724  0.8029 -2.0220
 9425SOL     OW29094   6.533   0.187   2.708  0.3787  0.3344  0.7182
 9425SOL    HW129095   6.592   0.203   2.629 -0.8655  0.6004 -0.2106
 9425SOL    HW229096   6.466   0.116   2.684  1.0234 -0.7969  2.1317
 9426SOL     OW29097   0.504   6.569   1.243 -0.6338  0.0921  0.1837
 9426SOL    HW129098   0.433   6.606   1.303 -0.7229  0.7978 -0.3480
 9426SOL    HW229099   0.590   6.561   1.294 -0.8196  0.2665  0.5263
 9427SOL     OW29100   6.318   1.775   4.976 -0.4266 -0.2295  0.4095
 9427SOL    HW129101   6.239   1.718   4.998 -1.2391  0.6411 -0.1979
 9427SOL    HW229102   6.381   1.775   5.054 -0.2404 -2.1780  0.3092
 9428SOL     OW29103   0.025   1.482   0.481 -0.1746 -0.1006  0.2568
 9428SOL    HW129104  -0.054   1.531   0.444  1.0421  0.9801 -0.9320
 9428SOL    HW229105   0.090   1.547   0.519  0.4385 -0.9363  0.6722
 9429SOL     OW29106   6.719   4.279   4.476 -0.1608  0.4537  0.4729
 9429SOL    HW129107   6.692   4.355   4.417 -2.0996  0.7096  1.5881
 9429SOL    HW229108   6.789   4.310   4.539  0.7838  0.6254 -0.6381
 9430SOL     OW29109   4.726   1.634   3.630  0.0885 -0.0561  0.5914
 9430SOL    HW129110   4.800   1.606   3.691 -0.9709 -2.0575  1.0322
 9430SOL    HW229111   4.654   1.564   3.630 -1.4305  1.4336 -0.4623
 9431SOL     OW29112   5.657   4.250   4.258  0.2874  0.5461 -0.0946
 9431SOL    HW129113   5.650   4.187   4.181 -0.5157  1.4922 -0.8236
 9431SOL    HW229114   5.751   4.285   4.264  0.8674 -1.0611  0.6232
 9432SOL     OW29115   6.366   0.769   0.644 -0.1060 -0.2110 -0.7560
 9432SOL    HW129116   6.428   0.847   0.637 -1.7522  1.3954  1.1078
 9432SOL    HW229117   6.376   0.727   0.734 -0.3069 -1.2067 -1.1859
 9433SOL     OW29118   5.198   3.164   6.022 -0.7255  0.3390 -1.1382
 9433SOL    HW129119   5.274   3.138   6.082  0.3794  1.5435 -1.9395
 9433SOL    HW229120   5.138   3.227   6.071  0.3995  1.6532 -1.3655
 9434SOL     OW29121   2.362   2.882   2.372  0.5095  0.4538  0.4463
 9434SOL    HW129122   2.392   2.977   2.388 -2.2172  1.3164  0.9948
 9434SOL    HW229123   2.439   2.828   2.340  2.2251  2.8072  0.3088
 9435SOL     OW29124   0.754   5.025   2.536  0.3662  0.9239  0.3369
 9435SOL    HW129125   0.801   5.050   2.451  1.8173  0.9103  1.1075
 9435SOL    HW229126   0.731   5.107   2.587  0.6849  0.8861  0.5455
 9436SOL     OW29127   1.518   5.704   5.559  0.9185  0.2953 -0.2193
 9436SOL    HW129128   1.549   5.636   5.625  0.9650 -0.1919 -0.7305
 9436SOL    HW229129   1.473   5.779   5.607  1.8027  0.4188  0.4515
 9437SOL     OW29130   2.183   3.261   5.858 -0.0070 -0.3475  0.3746
 9437SOL    HW129131   2.113   3.256   5.787 -0.2193 -0.4731  0.5914
 9437SOL    HW229132   2.167   3.189   5.925 -0.6435  0.6409  1.3063
 9438SOL     OW29133   4.028   2.307   5.566  0.6780  0.5128  0.7072
 9438SOL    HW129134   4.044   2.398   5.604 -0.1391  0.7637  0.4763
 9438SOL    HW229135   4.042   2.238   5.637  1.6586  0.7819  0.7965
 9439SOL     OW29136   4.771   3.498   2.966 -0.2283  0.5879 -0.4187
 9439SOL    HW129137   4.834   3.509   3.042  1.6090  1.2742 -1.9475
 9439SOL    HW229138   4.822   3.504   2.880 -2.3098  0.4973 -1.7289
 9440SOL     OW29139   6.252   2.180   6.181  0.2306 -0.4233 -0.8466
 9440SOL    HW129140   6.342   2.184   6.225 -0.6394  0.5756  0.9841
 9440SOL    HW229141   6.202   2.101   6.214 -0.5326  0.4744  0.1924
 9441SOL     OW29142   4.917   3.059   5.898 -0.2828  0.1641  0.7181
 9441SOL    HW129143   5.005   3.103   5.911  0.3072 -0.9938  0.8189
 9441SOL    HW229144   4.888   3.016   5.984 -0.9328  0.5046  0.6776
 9442SOL     OW29145   3.311   2.927   3.371  0.7805 -0.7625  0.1259
 9442SOL    HW129146   3.285   2.893   3.461 -0.2640 -0.4800 -0.0483
 9442SOL    HW229147   3.392   2.984   3.378 -0.8305  1.5482  1.3623
 9443SOL     OW29148   5.519   6.555   2.288  0.2937 -0.6733  0.2803
 9443SOL    HW129149   5.542   6.641   2.333  0.3762  0.7463 -2.2772
 9443SOL    HW229150   5.597   6.493   2.293  0.5298 -0.3022  1.4610
 9444SOL     OW29151   2.062   1.409   3.247  1.1499  0.2310  0.2099
 9444SOL    HW129152   2.026   1.448   3.162 -1.5881 -0.1230  1.1164
 9444SOL    HW229153   2.037   1.467   3.324  0.3047 -1.3142  1.1565
 9445SOL     OW29154   0.240   1.917   0.937 -0.2577 -0.3644  0.5219
 9445SOL    HW129155   0.154   1.885   0.897 -0.8784  1.7832 -0.0430
 9445SOL    HW229156   0.228   2.010   0.972  2.1068  0.5315 -0.7494
 9446SOL     OW29157   1.930   6.121   3.130  0.5603 -0.0355 -0.3949
 9446SOL    HW129158   1.956   6.046   3.190 -0.4495 -0.5628 -0.5958
 9446SOL    HW229159   1.921   6.087   3.036 -1.5796 -0.0557 -0.2147
 9447SOL     OW29160   5.243   6.913   3.659  0.3389 -0.0325  0.1248
 9447SOL    HW129161   5.298   6.981   3.709 -1.7868  1.6041  0.3610
 9447SOL    HW229162   5.155   6.903   3.705  0.1455 -2.0681 -0.6477
 9448SOL     OW29163   2.711   2.547   2.516 -0.6387  0.8581  0.4594
 9448SOL    HW129164   2.623   2.528   2.473 -1.1306 -0.2853  1.8619
 9448SOL    HW229165   2.705   2.632   2.570 -1.5529 -0.2308  2.1598
 9449SOL     OW29166   6.950   5.940   6.933  0.3165 -0.4901  0.6339
 9449SOL    HW129167   6.970   6.010   6.864 -0.7630  0.4688  1.2580
 9449SOL    HW229168   6.919   5.856   6.888  1.6046 -0.5806 -0.1243
 9450SOL     OW29169   1.122   5.373   3.468 -0.2251  0.7292  0.1261
 9450SOL    HW129170   1.219   5.374   3.491 -0.4120  1.6187  0.9600
 9450SOL    HW229171   1.074   5.309   3.527 -0.1117  0.1112 -0.4491
 9451SOL     OW29172   3.834   3.517   4.034 -0.4251 -0.1322  0.2706
 9451SOL    HW129173   3.746   3.470   4.044 -1.1871  1.0789 -0.4326
 9451SOL    HW229174   3.819   3.615   4.024  0.9693  0.0370 -0.5121
 9452SOL     OW29175   2.310   5.749   2.791  0.2901 -0.1849  0.4325
 9452SOL    HW129176   2.258   5.834   2.798 -0.7164 -0.8260  1.1994
 9452SOL    HW229177   2.405   5.770   2.768  0.5424  1.3008  2.4963
 9453SOL     OW29178   3.946   4.124   2.422 -0.3241 -0.0780 -0.2420
 9453SOL    HW129179   3.912   4.218   2.417 -0.3717  0.2740  3.6127
 9453SOL    HW229180   3.886   4.070   2.480  0.0606 -2.3813 -1.8631
 9454SOL     OW29181   5.942   1.396   0.869  0.6433 -0.1990 -0.7060
 9454SOL    HW129182   5.992   1.463   0.814 -0.2327  0.7675 -0.3351
 9454SOL    HW229183   5.951   1.419   0.966  1.4603 -1.4035 -0.4627
 9455SOL     OW29184   1.162   1.792   4.134  0.0395 -0.4588 -0.1427
 9455SOL    HW129185   1.092   1.787   4.205 -0.3950  0.1572 -0.5155
 9455SOL    HW229186   1.241   1.738   4.162  0.8360  1.6095  1.9319
 9456SOL     OW29187   0.309   1.185   6.412  0.1684  0.3013  0.1822
 9456SOL    HW129188   0.313   1.098   6.462 -0.6080 -0.6928 -1.4110
 9456SOL    HW229189   0.372   1.182   6.334  2.1382  2.2286  1.5728
 9457SOL     OW29190   2.615   2.914   6.899 -0.0973  0.0824 -0.5336
 9457SOL    HW129191   2.598   2.896   6.996  3.1392  0.6607  0.2558
 9457SOL    HW229192   2.569   2.845   6.844  1.4441 -2.9698  1.6927
 9458SOL     OW29193   1.968   3.986   2.027  0.2057 -0.1381 -0.0551
 9458SOL    HW129194   1.903   4.060   2.008  1.0289  0.6190 -0.0046
 9458SOL    HW229195   2.053   4.002   1.977 -0.4207 -2.3436 -2.0088
 9459SOL     OW29196   1.429   4.145   0.330  0.8444 -0.9183  0.6846
 9459SOL    HW129197   1.397   4.074   0.267 -0.2200 -0.5092  0.7360
 9459SOL    HW229198   1.483   4.104   0.403  1.0229 -1.5560  0.1985
 9460SOL     OW29199   5.443   6.518   4.858  0.0583  0.7651 -0.3254
 9460SOL    HW129200   5.393   6.603   4.873  1.2302  1.1664  1.6640
 9460SOL    HW229201   5.522   6.514   4.919  1.1389 -0.8963 -1.7263
 9461SOL     OW29202   1.696   6.949   6.157 -0.0178  0.5247  0.0771
 9461SOL    HW129203   1.749   7.028   6.190  2.1331 -0.4515 -0.8834
 9461SOL    HW229204   1.663   6.968   6.064  0.8470  0.1765 -0.3134
 9462SOL     OW29205   6.778   6.762   2.923 -0.1625  0.2139  0.2711
 9462SOL    HW129206   6.773   6.811   3.010  0.5881 -2.7715  2.1541
 9462SOL    HW229207   6.728   6.676   2.931  2.2433 -1.4377 -1.3007
 9463SOL     OW29208   6.191   0.026   1.573  0.1650 -0.9878  0.1757
 9463SOL    HW129209   6.208   0.014   1.671  3.1681  2.3545  0.2826
 9463SOL    HW229210   6.269  -0.010   1.522 -0.2539 -0.5783 -0.7961
 9464SOL     OW29211   5.434   0.837   4.716 -0.4103  0.1153 -0.0281
 9464SOL    HW129212   5.460   0.881   4.629 -0.7914  0.3604 -0.0215
 9464SOL    HW229213   5.425   0.738   4.702 -0.4188  0.1471 -0.2552
 9465SOL     OW29214   3.633   3.019   2.012 -0.8074 -0.2061  0.3978
 9465SOL    HW129215   3.716   2.973   2.045 -1.5820 -0.3703  2.2226
 9465SOL    HW229216   3.644   3.118   2.021 -0.6555 -0.2072  0.2376
 9466SOL     OW29217   6.980   6.830   1.930 -0.3679 -0.0954 -0.2232
 9466SOL    HW129218   6.916   6.754   1.939 -0.9137  0.3593 -0.1849
 9466SOL    HW229219   6.976   6.867   1.838 -1.6018  1.1627  0.2972
 9467SOL     OW29220   0.644   4.815   1.678 -0.4731  0.5962 -0.4653
 9467SOL    HW129221   0.707   4.739   1.666  0.1627  1.1114 -0.4983
 9467SOL    HW229222   0.669   4.889   1.616 -0.6612  1.0928  0.0423
 9468SOL     OW29223   3.434   3.281   1.799 -0.7194 -0.0432 -0.1887
 9468SOL    HW129224   3.533   3.270   1.793 -0.4746  1.1619  1.1799
 9468SOL    HW229225   3.394   3.271   1.708  0.5611 -1.2655 -0.6473
 9469SOL     OW29226   6.419   1.450   5.451 -0.5053 -0.4099  0.6084
 9469SOL    HW129227   6.422   1.432   5.549 -1.9714 -3.2158  0.2301
 9469SOL    HW229228   6.468   1.379   5.401 -1.0243  0.1615 -0.7803
 9470SOL     OW29229   4.523   0.665   3.810 -0.1303 -0.1912  0.0900
 9470SOL    HW129230   4.455   0.670   3.883 -1.5081  1.9207 -1.2369
 9470SOL    HW229231   4.497   0.727   3.736  3.5245  1.1151 -0.2803
 9471SOL     OW29232   1.088   6.327   3.476 -0.2244 -0.6394 -0.3657
 9471SOL    HW129233   1.177   6.332   3.521 -0.8780  2.0470  0.8666
 9471SOL    HW229234   1.097   6.358   3.381 -0.0911  1.7336  0.3502
 9472SOL     OW29235   0.231   4.038   2.005 -0.5088 -0.0003 -0.2877
 9472SOL    HW129236   0.279   4.113   2.051 -2.0268  0.7181  0.1581
 9472SOL    HW229237   0.290   3.957   2.004  0.7357  0.8705  0.1807
 9473SOL     OW29238   1.730   3.981   5.636  0.2140 -0.4440 -0.3652
 9473SOL    HW129239   1.638   3.953   5.662  0.2195 -0.3642 -0.2557
 9473SOL    HW229240   1.733   4.081   5.628  0.2745 -0.4504 -0.4262
 9474SOL     OW29241   1.364   4.172   2.891 -0.0833 -0.6649 -0.3563
 9474SOL    HW129242   1.348   4.249   2.830 -0.2170 -1.6353 -1.5777
 9474SOL    HW229243   1.346   4.200   2.985 -1.3916  0.4344 -0.8985
 9475SOL     OW29244   4.658   3.921   5.587 -0.0258  0.4210  0.5352
 9475SOL    HW129245   4.625   4.016   5.591 -3.6668 -0.6392 -0.4908
 9475SOL    HW229246   4.633   3.873   5.671 -1.0709 -0.4040 -0.2227
 9476SOL     OW29247   0.561   4.690   4.194 -0.1106  0.2390  0.1541
 9476SOL    HW129248   0.507   4.773   4.184 -1.6106 -0.8468 -1.6145
 9476SOL    HW229249   0.551   4.634   4.112  0.3095 -1.9955  1.5342
 9477SOL     OW29250   2.206   5.187   6.901  0.5409 -0.2389 -0.0251
 9477SOL    HW129251   2.186   5.222   6.992 -0.7902 -1.3271  0.1226
 9477SOL    HW229252   2.124   5.146   6.862  0.8962  0.8051 -2.0066
 9478SOL     OW29253   0.365   4.290   6.708  0.3875 -0.0172 -0.3575
 9478SOL    HW129254   0.431   4.326   6.643  0.6131  1.7570  0.7953
 9478SOL    HW229255   0.272   4.305   6.673  0.5250  0.2095 -0.6261
 9479SOL     OW29256   1.696   0.056   5.871 -0.0310  0.5748  0.0983
 9479SOL    HW129257   1.599   0.067   5.849  0.2698  0.9595 -1.1186
 9479SOL    HW229258   1.746   0.135   5.836  1.0099 -0.5952 -1.1593
 9480SOL     OW29259   5.243   1.097   4.018  0.0247 -0.0983 -0.0524
 9480SOL    HW129260   5.144   1.095   4.025 -0.2116 -2.1144 -2.5205
 9480SOL    HW229261   5.283   1.036   4.087 -0.5765 -0.6874 -0.2131
 9481SOL     OW29262   0.806   3.264   4.318 -0.3672 -0.0516 -0.0195
 9481SOL    HW129263   0.867   3.336   4.286 -0.2065 -1.2157 -2.5415
 9481SOL    HW229264   0.840   3.175   4.288 -1.8335 -0.9752  0.9198
 9482SOL     OW29265   1.866   4.277   0.415 -0.1004 -0.0750  0.4504
 9482SOL    HW129266   1.867   4.376   0.403  3.1113  0.0068  0.4581
 9482SOL    HW229267   1.921   4.234   0.342 -1.0487 -1.8014  0.7030
 9483SOL     OW29268   6.487   1.988   2.888  0.0618  0.1523 -0.3040
 9483SOL    HW129269   6.582   1.961   2.900  0.1099 -1.8827 -3.7564
 9483SOL    HW229270   6.477   2.038   2.802 -1.8485  1.3530  0.5273
 9484SOL     OW29271   2.078   4.767   3.436  0.3894  0.2493 -0.8382
 9484SOL    HW129272   2.031   4.681   3.457 -0.7158  1.6868  3.5537
 9484SOL    HW229273   2.011   4.841   3.430  1.5592  1.2954 -1.4916
 9485SOL     OW29274   0.169   2.368   0.173 -0.2545 -0.2062  0.2407
 9485SOL    HW129275   0.228   2.287   0.180 -0.8084 -0.5307  1.7307
 9485SOL    HW229276   0.110   2.360   0.093  0.9674 -0.3783 -0.6701
 9486SOL     OW29277   3.010   3.289   0.068 -0.2292  0.0084 -0.4977
 9486SOL    HW129278   3.092   3.301   0.124 -0.3984 -0.7159 -0.0763
 9486SOL    HW229279   3.005   3.362  -0.001  0.5834  0.2497 -0.3087
 9487SOL     OW29280   3.794   4.618   5.067 -1.1807 -0.0553 -0.6497
 9487SOL    HW129281   3.804   4.609   5.166 -0.7835  2.1650 -0.4216
 9487SOL    HW229282   3.785   4.527   5.025 -1.7826 -1.0111  1.4390
 9488SOL     OW29283   3.058   1.457   2.755 -0.2502 -0.9038  0.0044
 9488SOL    HW129284   3.146   1.505   2.760 -1.1507  0.8507 -0.2841
 9488SOL    HW229285   3.026   1.455   2.661 -1.0097 -0.6121  0.2530
 9489SOL     OW29286   4.807   0.419   0.185 -0.0387  0.4123  0.3806
 9489SOL    HW129287   4.746   0.434   0.262 -0.2196 -1.4257  0.6311
 9489SOL    HW229288   4.755   0.423   0.099  0.0865  2.0035  0.3310
 9490SOL     OW29289   5.655   4.228   5.428 -0.1724  0.2886 -0.2373
 9490SOL    HW129290   5.652   4.257   5.332  0.9005  0.9660 -0.0748
 9490SOL    HW229291   5.589   4.282   5.480  1.0227  1.7150 -0.1484
 9491SOL     OW29292   5.342   1.157   2.649  0.5276  0.5217  0.1016
 9491SOL    HW129293   5.359   1.215   2.729 -0.2455 -0.1127  0.7574
 9491SOL    HW229294   5.270   1.198   2.593 -0.8183 -0.3095  1.1580
 9492SOL     OW29295   5.544   5.166   0.804  0.0881  0.0252  0.4040
 9492SOL    HW129296   5.583   5.233   0.740 -1.9664 -1.7506 -3.0586
 9492SOL    HW229297   5.460   5.203   0.844 -0.3548  0.0877 -0.5247
 9493SOL     OW29298   4.517   2.461   3.006  0.1577 -0.3503 -0.0390
 9493SOL    HW129299   4.456   2.506   3.071  0.1855 -2.0983  1.2804
 9493SOL    HW229300   4.519   2.513   2.920 -2.6107  0.1696  0.1139
 9494SOL     OW29301   1.202   3.622   5.705  0.5547  0.1435  0.1655
 9494SOL    HW129302   1.210   3.654   5.611 -0.4545 -0.9684 -0.3420
 9494SOL    HW229303   1.160   3.693   5.761 -1.5697 -0.1641 -0.8910
 9495SOL     OW29304   1.162   6.017   5.120 -0.2203 -0.0090  0.4240
 9495SOL    HW129305   1.128   5.940   5.066 -0.4025  1.2486 -1.3578
 9495SOL    HW229306   1.262   6.020   5.114 -0.3278  1.8564 -2.5398
 9496SOL     OW29307   2.753   6.528   3.692  0.5323 -0.2757  0.1414
 9496SOL    HW129308   2.662   6.490   3.676 -0.9745  2.9968  0.1365
 9496SOL    HW229309   2.777   6.588   3.616  2.4255 -0.5184  0.5161
 9497SOL     OW29310   1.307   4.392   0.390 -0.1260 -0.3000 -0.2260
 9497SOL    HW129311   1.280   4.404   0.485 -0.1346 -1.2157 -0.1087
 9497SOL    HW229312   1.351   4.304   0.378 -1.2923 -0.7610 -1.3247
 9498SOL     OW29313   6.342   6.769   2.373  0.3842 -0.4828 -0.3417
 9498SOL    HW129314   6.319   6.761   2.276 -0.0418  1.1592 -0.4083
 9498SOL    HW229315   6.441   6.775   2.383  0.4271 -0.6225 -0.6853
 9499SOL     OW29316   4.388   0.895   4.864  0.4220 -0.2602  0.8225
 9499SOL    HW129317   4.480   0.879   4.827  0.8803  1.0184  1.3499
 9499SOL    HW229318   4.333   0.812   4.854  2.0691 -1.5245  1.7284
 9500SOL     OW29319   4.472   4.736   6.877 -0.1391 -0.0770 -0.2529
 9500SOL    HW129320   4.555   4.703   6.922  0.2165  3.7651  2.4256
 9500SOL    HW229321   4.394   4.684   6.910  0.8315 -1.5577 -0.1853
 9501SOL     OW29322   4.735   6.511   5.991  0.0461  0.4123  0.4740
 9501SOL    HW129323   4.650   6.536   6.037  1.5682  0.1746  3.7388
 9501SOL    HW229324   4.729   6.418   5.955 -1.0999  0.4904  0.4445
 9502SOL     OW29325   5.806   6.997   1.819  0.0275 -0.3000  0.5304
 9502SOL    HW129326   5.900   6.961   1.818  0.8652  1.7540 -0.5838
 9502SOL    HW229327   5.756   6.962   1.740  0.8748  1.0339 -0.6253
 9503SOL     OW29328   2.232   1.152   4.097  0.1354  0.3506  0.5055
 9503SOL    HW129329   2.229   1.249   4.119  0.1692  0.3840  0.3653
 9503SOL    HW229330   2.141   1.121   4.070  0.4546  0.7449 -1.1358
 9504SOL     OW29331   3.812   4.095   2.993 -0.3628  0.2683  0.2008
 9504SOL    HW129332   3.856   4.139   2.915 -2.6980 -0.1907 -1.4808
 9504SOL    HW229333   3.726   4.141   3.014 -1.4613 -1.6840  0.2368
 9505SOL     OW29334   0.744   4.801   5.351 -0.0917  0.0256  0.4008
 9505SOL    HW129335   0.826   4.804   5.293  0.3081 -1.0042  0.8841
 9505SOL    HW229336   0.767   4.829   5.444 -0.2011 -0.6359  0.6316
 9506SOL     OW29337   6.218   5.892   6.604 -0.3638 -0.3923 -0.3359
 9506SOL    HW129338   6.235   5.804   6.559  0.0274 -0.4971  0.0085
 9506SOL    HW229339   6.231   5.882   6.702  0.5587  0.2608 -0.3877
 9507SOL     OW29340   6.072   0.950   3.730 -1.0902  0.0006 -0.2906
 9507SOL    HW129341   6.075   0.997   3.818  0.8359  0.3445 -0.5061
 9507SOL    HW229342   6.028   1.009   3.662 -0.4532  0.7031 -0.1091
 9508SOL     OW29343   6.820   3.751   0.580  0.1074 -0.1068 -0.1149
 9508SOL    HW129344   6.918   3.734   0.566 -0.1370 -1.8263  0.0744
 9508SOL    HW229345   6.805   3.786   0.672  0.6372  1.2424 -0.5151
 9509SOL     OW29346   4.129   3.143   0.050  0.5015 -0.3146  0.1660
 9509SOL    HW129347   4.222   3.165   0.023  0.7356 -1.4383  0.0266
 9509SOL    HW229348   4.065   3.186  -0.013  0.8476  1.6016  1.0415
 9510SOL     OW29349   5.725   1.098   2.881 -0.0176  0.4248 -0.4999
 9510SOL    HW129350   5.722   1.190   2.841  0.2622  0.7668  0.2387
 9510SOL    HW229351   5.767   1.035   2.816  1.1880  1.1335 -0.4439
 9511SOL     OW29352   4.816   0.219   1.173 -0.0971  0.0293 -0.1818
 9511SOL    HW129353   4.902   0.225   1.123  1.6542  0.2218  2.6740
 9511SOL    HW229354   4.790   0.123   1.185 -0.7602 -0.0145 -1.7024
 9512SOL     OW29355   1.773   0.248   0.957  0.0108  0.4165  0.4047
 9512SOL    HW129356   1.816   0.157   0.956 -0.1168  0.3384 -1.3659
 9512SOL    HW229357   1.745   0.270   1.051  1.1791 -0.8149  1.0915
 9513SOL     OW29358   1.869   3.876   0.925  0.6897 -0.2638  0.2828
 9513SOL    HW129359   1.842   3.871   0.829  1.8846 -1.7873 -0.0048
 9513SOL    HW229360   1.879   3.784   0.962  0.5412  0.2991  1.7947
 9514SOL     OW29361   3.032   3.486   6.025 -0.2147 -0.0424  0.2105
 9514SOL    HW129362   2.953   3.486   6.087  0.4605 -1.6183  1.1061
 9514SOL    HW229363   3.003   3.519   5.935 -1.7337  0.0940  0.7175
 9515SOL     OW29364   6.362   5.913   3.631  0.4410  0.2271  0.3281
 9515SOL    HW129365   6.435   5.940   3.568  0.0420  3.2123  1.0186
 9515SOL    HW229366   6.281   5.968   3.613 -0.7425 -1.1106  1.4005
 9516SOL     OW29367   0.336   1.580   5.484 -0.1290  0.5093 -0.2992
 9516SOL    HW129368   0.302   1.652   5.425 -1.2226  0.9820  0.8502
 9516SOL    HW229369   0.383   1.511   5.429 -1.6099  0.6111 -1.8102
 9517SOL     OW29370   0.720   6.519   6.715 -0.2936  0.1311 -0.3913
 9517SOL    HW129371   0.646   6.555   6.659  1.4627  1.2397 -2.1170
 9517SOL    HW229372   0.716   6.561   6.806 -2.0429 -0.1993 -0.2970
 9518SOL     OW29373   1.319   3.681   6.356  0.0689 -0.1585 -0.2542
 9518SOL    HW129374   1.303   3.638   6.445  0.3632  1.2644  0.5226
 9518SOL    HW229375   1.417   3.700   6.345 -0.2385  2.0472  0.3136
 9519SOL     OW29376   0.579   2.521   4.215 -0.2847  0.0536 -0.0797
 9519SOL    HW129377   0.510   2.514   4.144 -0.1540 -1.7967 -0.0772
 9519SOL    HW229378   0.658   2.571   4.180  0.5842 -2.4364 -1.9555
 9520SOL     OW29379   1.812   1.135   5.934 -0.6914  0.2218  0.1480
 9520SOL    HW129380   1.755   1.054   5.949 -1.1669  0.5418  0.1260
 9520SOL    HW229381   1.835   1.142   5.837 -1.1903  0.4545  0.0392
 9521SOL     OW29382   3.641   6.039   5.983  0.4218 -0.4704 -0.4309
 9521SOL    HW129383   3.647   5.940   5.968 -0.1403 -0.4113 -1.1590
 9521SOL    HW229384   3.554   6.073   5.945  0.2504  0.1850  0.5110
 9522SOL     OW29385   3.188   0.049   4.511  0.6754  0.0636 -0.0663
 9522SOL    HW129386   3.179  -0.050   4.523 -0.4310  0.3354  1.7016
 9522SOL    HW229387   3.097   0.088   4.495  0.8096  0.9536  1.1922
 9523SOL     OW29388   1.860   3.940   0.196 -0.2149 -0.5074 -0.7281
 9523SOL    HW129389   1.789   3.924   0.126  1.8364 -0.7349 -2.9012
 9523SOL    HW229390   1.835   4.019   0.251 -1.3313  0.5443 -2.6270
 9524SOL     OW29391   4.321   0.324   0.066  0.0571  0.3558 -0.8598
 9524SOL    HW129392   4.280   0.361  -0.017 -1.2574  0.2957 -0.2568
 9524SOL    HW229393   4.410   0.283   0.044  0.5795  1.9571 -1.8978
 9525SOL     OW29394   5.927   3.901   1.999  0.5046 -0.1123  0.0651
 9525SOL    HW129395   6.006   3.869   1.947  1.2321  0.8196  0.5738
 9525SOL    HW229396   5.884   3.978   1.952  0.2090 -0.2920  0.0381
 9526SOL     OW29397   4.245   5.695   6.269 -0.2736  0.2154  0.5273
 9526SOL    HW129398   4.276   5.752   6.193 -1.3853  1.7767  1.1893
 9526SOL    HW229399   4.267   5.599   6.249  0.4478  0.6924 -1.2405
 9527SOL     OW29400   5.729   2.997   0.431  0.0084 -0.1143 -0.1855
 9527SOL    HW129401   5.763   2.934   0.361  0.5532 -0.4381  0.3488
 9527SOL    HW229402   5.702   2.944   0.512 -0.5748  0.2567 -0.1323
 9528SOL     OW29403   4.124   4.537   2.189 -0.2976 -0.5476  0.2006
 9528SOL    HW129404   4.213   4.569   2.221 -0.8198  0.0956  1.0289
 9528SOL    HW229405   4.052   4.571   2.249 -1.2580  0.1756 -1.2976
 9529SOL     OW29406   2.157   2.905   6.934  0.6933  0.3103 -0.3991
 9529SOL    HW129407   2.144   2.998   6.969  2.0801  0.9613 -1.4929
 9529SOL    HW229408   2.135   2.902   6.837 -3.4821 -1.5529  0.3608
 9530SOL     OW29409   0.353   4.064   4.058 -0.3421 -0.3811 -0.1645
 9530SOL    HW129410   0.274   4.101   4.007 -0.8903  0.3447  1.1640
 9530SOL    HW229411   0.365   3.968   4.035 -0.9023 -0.2169 -1.2438
 9531SOL     OW29412   4.579   1.690   4.650 -0.4828  0.4258 -0.2014
 9531SOL    HW129413   4.651   1.681   4.718 -0.6582  0.4061 -0.0183
 9531SOL    HW229414   4.498   1.640   4.680  0.1877 -1.5567 -1.4878
 9532SOL     OW29415   4.912   0.247   2.425 -0.1471  0.2386 -0.2349
 9532SOL    HW129416   4.977   0.174   2.445  0.1653  0.4265 -0.5616
 9532SOL    HW229417   4.856   0.221   2.346  1.1836  1.1140 -1.5157
 9533SOL     OW29418   6.927   1.930   4.146 -0.3195 -0.5229 -0.6198
 9533SOL    HW129419   7.019   1.960   4.171 -0.2397 -1.7577  0.7268
 9533SOL    HW229420   6.863   2.006   4.157  0.1677 -0.2876  0.8626
 9534SOL     OW29421   2.383   0.475   3.541  0.4065  0.2724  0.3414
 9534SOL    HW129422   2.379   0.518   3.631 -1.5111 -0.9591  0.8913
 9534SOL    HW229423   2.437   0.533   3.480  1.9209  1.0602  2.2830
 9535SOL     OW29424   0.518   3.117   0.078 -0.2887  0.1273  0.6922
 9535SOL    HW129425   0.554   3.024   0.076  1.1978  0.6809  0.1045
 9535SOL    HW229426   0.546   3.165  -0.005 -0.2113  1.3805  1.4357
 9536SOL     OW29427   5.384   6.851   2.264 -0.1811  0.4817  0.6410
 9536SOL    HW129428   5.360   6.785   2.193 -2.0695  1.0549  0.6806
 9536SOL    HW229429   5.430   6.929   2.222 -0.2185  0.2833  0.2173
 9537SOL     OW29430   0.553   2.333   3.726 -0.1124 -0.4779 -0.3095
 9537SOL    HW129431   0.514   2.246   3.755 -0.9356 -0.0875 -0.2267
 9537SOL    HW229432   0.555   2.396   3.803  0.5963 -0.4590 -0.3369
 9538SOL     OW29433   6.426   0.903   1.920  0.5174  0.3922 -0.2411
 9538SOL    HW129434   6.501   0.846   1.887  0.8164  0.9249 -0.5007
 9538SOL    HW229435   6.432   0.993   1.878 -0.9102  0.0978 -1.1277
 9539SOL     OW29436   5.711   2.186   1.330 -0.3980 -0.5939 -0.1780
 9539SOL    HW129437   5.694   2.283   1.314 -1.1522 -0.5384  0.8655
 9539SOL    HW229438   5.754   2.146   1.249 -0.7733  0.4387 -0.9117
 9540SOL     OW29439   0.454   2.747   4.378  0.4975 -0.1551 -0.0597
 9540SOL    HW129440   0.478   2.653   4.353  1.7008  0.2765 -0.6282
 9540SOL    HW229441   0.492   2.767   4.469  0.2163 -0.2296  0.0739
 9541SOL     OW29442   0.431   4.948   4.450 -0.2478 -0.0818 -0.2184
 9541SOL    HW129443   0.524   4.944   4.487 -0.5399 -0.4161  0.4877
 9541SOL    HW229444   0.428   4.895   4.365 -0.7029 -3.6942  1.8194
 9542SOL     OW29445   5.732   2.406   4.841 -0.2144  0.0117 -0.1728
 9542SOL    HW129446   5.634   2.385   4.842 -0.3324  0.4820 -1.1077
 9542SOL    HW229447   5.751   2.477   4.909 -1.1296  2.3927 -2.2654
 9543SOL     OW29448   1.459   4.265   4.061 -0.0122 -0.1148 -0.1665
 9543SOL    HW129449   1.545   4.281   4.012 -0.2474 -0.0070 -0.5504
 9543SOL    HW229450   1.466   4.179   4.111  0.9053  0.6745  1.1269
 9544SOL     OW29451   6.178   6.395   2.701 -0.1931  0.2488 -0.5262
 9544SOL    HW129452   6.224   6.476   2.736  0.7272 -0.2890 -0.4803
 9544SOL    HW229453   6.244   6.321   2.689 -1.0006 -0.4630 -0.6719
 9545SOL     OW29454   3.901   2.322   6.356  0.0542  0.5673 -0.1013
 9545SOL    HW129455   3.820   2.379   6.344  0.0484  1.2422  2.4707
 9545SOL    HW229456   3.882   2.230   6.322 -1.0283  1.2408 -1.4302
 9546SOL     OW29457   4.849   4.040   1.452 -0.1302 -0.1393 -0.1354
 9546SOL    HW129458   4.829   4.097   1.373 -0.7676 -0.9433 -0.5586
 9546SOL    HW229459   4.780   4.055   1.523  0.3726  0.4909  0.2329
 9547SOL     OW29460   5.250   6.298   4.155 -0.2397 -0.4305  0.7604
 9547SOL    HW129461   5.251   6.222   4.091  0.2057  0.0200  0.2204
 9547SOL    HW229462   5.171   6.290   4.215 -1.3221 -0.2580 -0.5804
 9548SOL     OW29463   1.936   5.236   3.269  1.0968  0.1005 -0.3068
 9548SOL    HW129464   2.026   5.192   3.263  1.2799  0.5047 -0.6674
 9548SOL    HW229465   1.949   5.336   3.271  0.5966  0.2710 -2.5221
 9549SOL     OW29466   6.105   4.439   6.625 -0.8669 -0.0583  0.1399
 9549SOL    HW129467   6.142   4.490   6.547  1.6968  0.0459  1.3190
 9549SOL    HW229468   6.082   4.502   6.699 -1.5435 -0.2967  0.1326
 9550SOL     OW29469   5.394   5.581   6.651 -0.5603  0.2966  0.2603
 9550SOL    HW129470   5.379   5.638   6.731 -1.0264  0.0050  0.3885
 9550SOL    HW229471   5.306   5.543   6.620 -0.0445 -2.1665  1.5486
 9551SOL     OW29472   5.900   3.927   3.441  0.1797  0.3877  0.0233
 9551SOL    HW129473   5.991   3.949   3.478 -0.3558  0.0549  1.5808
 9551SOL    HW229474   5.904   3.839   3.393 -0.0001 -1.2929  2.9314
 9552SOL     OW29475   3.974   2.979   5.685 -0.1903  0.0860 -0.4088
 9552SOL    HW129476   3.902   2.959   5.753  1.0185  1.3964  1.3187
 9552SOL    HW229477   3.982   3.078   5.674  0.7508 -0.0807 -1.2631
 9553SOL     OW29478   2.592   3.608   3.093  0.1995 -0.0803 -0.4551
 9553SOL    HW129479   2.537   3.687   3.120  1.7769  1.3397 -1.2295
 9553SOL    HW229480   2.684   3.618   3.130  0.9959 -0.5285 -2.2359
 9554SOL     OW29481   5.558   3.494   0.059  0.1137 -0.2356  0.4318
 9554SOL    HW129482   5.539   3.521   0.154  4.4687  0.7125  1.2572
 9554SOL    HW229483   5.643   3.440   0.056  1.4736  1.8012 -3.0861
 9555SOL     OW29484   0.950   0.921   5.932 -0.1109 -0.4748  0.6320
 9555SOL    HW129485   0.889   0.843   5.918  0.1834 -0.6556  0.3254
 9555SOL    HW229486   1.041   0.887   5.958  0.2195 -0.2652 -0.2326
 9556SOL     OW29487   5.665   2.147   6.083  0.4143 -0.0846  0.1695
 9556SOL    HW129488   5.592   2.179   6.144 -0.6220 -0.1484 -1.0031
 9556SOL    HW229489   5.718   2.226   6.052 -0.5180  0.2225 -0.6791
 9557SOL     OW29490   1.655   1.644   4.498  0.1021 -0.2759 -0.4382
 9557SOL    HW129491   1.628   1.592   4.579 -0.1137 -0.8392 -0.8689
 9557SOL    HW229492   1.751   1.672   4.507 -0.0860  0.1865  0.2760
 9558SOL     OW29493   2.928   5.332   2.579  0.0995  0.0233 -0.2402
 9558SOL    HW129494   2.973   5.378   2.503  0.7796 -2.0001 -1.1029
 9558SOL    HW229495   2.959   5.237   2.585 -0.6497 -0.1395  1.9871
 9559SOL     OW29496   1.326   1.064   0.982  0.4800  0.5695 -0.0441
 9559SOL    HW129497   1.342   0.997   0.910  1.5754  0.7411  0.0234
 9559SOL    HW229498   1.267   1.137   0.948  0.4692  0.3193 -0.5639
 9560SOL     OW29499   1.438   4.764   4.718  0.0850 -0.3559  0.0063
 9560SOL    HW129500   1.503   4.835   4.747  1.0774 -1.7585  1.3371
 9560SOL    HW229501   1.403   4.787   4.627  1.6021  0.9990 -0.2936
 9561SOL     OW29502   0.663   1.516   4.961  0.0271  0.0091 -0.3017
 9561SOL    HW129503   0.590   1.583   4.963 -0.2188 -0.2393  1.2803
 9561SOL    HW229504   0.700   1.505   5.053  0.1599 -1.8957 -0.5272
 9562SOL     OW29505   5.936   2.809   5.052  0.0894  0.2887 -0.1252
 9562SOL    HW129506   5.933   2.899   5.093  0.9983  0.6886 -0.8807
 9562SOL    HW229507   6.014   2.758   5.089 -0.3110 -0.1274  0.1626
 9563SOL     OW29508   3.719   0.057   4.061 -0.4603  0.3270 -0.1557
 9563SOL    HW129509   3.743   0.085   3.968  1.4360  2.7463  0.9822
 9563SOL    HW229510   3.641   0.110   4.093  0.3104  1.1812  0.3860
 9564SOL     OW29511   1.977   1.910   6.210 -0.3635 -1.1502  0.6448
 9564SOL    HW129512   2.073   1.938   6.222 -1.0459  0.4747  2.8475
 9564SOL    HW229513   1.956   1.833   6.270 -0.7557 -0.6716  1.1305
 9565SOL     OW29514   0.917   3.920   4.966 -0.0046 -0.2278  0.2472
 9565SOL    HW129515   0.998   3.978   4.974 -0.6285  0.7377 -0.2756
 9565SOL    HW229516   0.863   3.948   4.887 -0.7140 -1.0294  0.4334
 9566SOL     OW29517   0.359   2.536   2.775  0.1428 -0.2415 -0.3692
 9566SOL    HW129518   0.411   2.622   2.771 -1.8730  1.2345  1.9157
 9566SOL    HW229519   0.290   2.543   2.847  0.3561 -4.1121  0.4369
 9567SOL     OW29520   4.407   3.312   1.714  0.1600 -0.1840  0.4968
 9567SOL    HW129521   4.400   3.342   1.809 -2.4380  0.0316  0.3124
 9567SOL    HW229522   4.396   3.391   1.653 -0.6403 -0.6582  0.0196
 9568SOL     OW29523   1.164   3.456   0.240 -0.4373 -0.0853 -0.2109
 9568SOL    HW129524   1.217   3.517   0.181 -1.0306  0.2844 -0.3675
 9568SOL    HW229525   1.123   3.509   0.314  0.5425 -0.5875  0.7194
 9569SOL     OW29526   6.857   2.762   3.096 -0.4711 -0.0225  0.1064
 9569SOL    HW129527   6.921   2.734   3.167  0.3124  2.4581  0.4692
 9569SOL    HW229528   6.904   2.823   3.031 -1.4312 -1.3966 -1.9816
 9570SOL     OW29529   1.224   2.103   2.867 -0.4590 -0.1939  0.6499
 9570SOL    HW129530   1.203   2.007   2.887 -0.3500 -0.2852  0.3410
 9570SOL    HW229531   1.318   2.110   2.836 -0.6881 -0.0877 -0.0290
 9571SOL     OW29532   4.118   5.196   3.972 -0.3461 -0.0581  0.1248
 9571SOL    HW129533   4.067   5.267   3.923  1.9325  2.5012  1.1243
 9571SOL    HW229534   4.108   5.109   3.925 -2.3040  1.1412 -1.9271
 9572SOL     OW29535   0.116   2.035   0.543 -0.1151 -0.4612  0.2959
 9572SOL    HW129536   0.205   2.033   0.590 -0.5762 -1.1645  1.1598
 9572SOL    HW229537   0.089   1.942   0.520  0.3989 -0.1015 -1.9919
 9573SOL     OW29538   6.721   4.860   6.596 -0.7531 -0.2899  0.0367
 9573SOL    HW129539   6.750   4.915   6.674 -1.7355  0.5137 -0.1428
 9573SOL    HW229540   6.713   4.919   6.516 -0.0158 -1.0603 -0.6167
 9574SOL     OW29541   5.028   4.130   4.550  0.0870 -0.4536 -1.0408
 9574SOL    HW129542   5.102   4.197   4.549  2.9958 -3.3987 -0.1475
 9574SOL    HW229543   4.997   4.113   4.456 -0.2240  1.4557 -1.3450
 9575SOL     OW29544   0.836   2.132   3.116  0.0559 -0.3557  0.0994
 9575SOL    HW129545   0.923   2.182   3.114  0.1719 -0.5371  0.5095
 9575SOL    HW229546   0.789   2.144   3.029  0.8834 -0.9363 -0.4430
 9576SOL     OW29547   4.253   0.839   0.026 -0.0067 -0.3711 -0.3241
 9576SOL    HW129548   4.308   0.903  -0.028  1.1428 -0.4695  0.6939
 9576SOL    HW229549   4.305   0.755   0.040 -0.9601 -0.9928 -0.4560
 9577SOL     OW29550   1.187   0.125   4.664 -0.3082  0.3164  0.1511
 9577SOL    HW129551   1.136   0.110   4.580 -0.4286  1.1674  0.0683
 9577SOL    HW229552   1.150   0.066   4.736 -0.6493  0.0867 -0.2030
 9578SOL     OW29553   4.113   2.877   0.097  0.5189 -0.1788  0.3280
 9578SOL    HW129554   4.090   2.974   0.109 -0.0329 -0.2936  0.2076
 9578SOL    HW229555   4.210   2.869   0.076  0.5240  0.3707  0.1158
 9579SOL     OW29556   0.334   5.325   2.647  0.0703  0.2015 -0.1358
 9579SOL    HW129557   0.317   5.248   2.585  2.5968 -0.7798  0.2420
 9579SOL    HW229558   0.283   5.311   2.732  1.7567 -2.0215  0.5999
 9580SOL     OW29559   2.489   6.405   5.913  0.1979  0.5491 -0.2079
 9580SOL    HW129560   2.408   6.386   5.968  1.2836  1.2991  1.7687
 9580SOL    HW229561   2.466   6.474   5.843 -0.3505  2.6114  1.8890
 9581SOL     OW29562   6.989   0.814   4.413  0.3265  0.6798 -0.2655
 9581SOL    HW129563   6.969   0.738   4.476  2.6978  1.8112  1.9568
 9581SOL    HW229564   7.063   0.787   4.351  0.3402  0.8025 -0.2703
 9582SOL     OW29565   5.303   1.961   4.947 -0.0900 -0.1707 -0.2409
 9582SOL    HW129566   5.235   1.906   4.996 -1.7961  0.7471 -1.4657
 9582SOL    HW229567   5.359   1.901   4.890 -2.0632 -0.7054 -1.7372
 9583SOL     OW29568   6.508   4.869   4.779  0.4772  0.5721 -0.1038
 9583SOL    HW129569   6.509   4.918   4.692 -0.1247  0.4875 -0.1629
 9583SOL    HW229570   6.600   4.841   4.803  0.8210  1.6325 -0.1274
 9584SOL     OW29571   2.820   4.085   1.653  0.2022  0.0558  0.2962
 9584SOL    HW129572   2.915   4.118   1.651 -0.4714  2.1109 -0.2778
 9584SOL    HW229573   2.818   3.991   1.685  2.3131  0.4197  1.6975
 9585SOL     OW29574   2.786   0.544   4.968  0.3581  0.5231  0.0477
 9585SOL    HW129575   2.761   0.529   4.872  0.0697 -0.7193  0.2878
 9585SOL    HW229576   2.703   0.565   5.020  0.4367  0.6828  0.1061
 9586SOL     OW29577   3.686   3.644   1.496 -0.2009 -0.2372  0.1849
 9586SOL    HW129578   3.671   3.703   1.575  0.3227  0.1187  0.0248
 9586SOL    HW229579   3.764   3.678   1.443  0.4152 -1.3644  0.3582
 9587SOL     OW29580   5.843   3.305   4.953 -0.1957 -0.8408 -0.3130
 9587SOL    HW129581   5.858   3.276   5.047  1.1381 -2.4833 -0.9927
 9587SOL    HW229582   5.789   3.237   4.904 -0.5216 -0.2080 -0.8597
 9588SOL     OW29583   5.660   6.963   5.612 -0.2869 -0.7892 -0.2841
 9588SOL    HW129584   5.575   6.916   5.634 -0.4041  0.3633  1.8922
 9588SOL    HW229585   5.697   7.006   5.694  0.8458  1.2384 -1.7684
 9589SOL     OW29586   6.449   1.381   1.064 -0.0434  0.3809  0.1553
 9589SOL    HW129587   6.368   1.428   1.099 -1.0524 -0.5024 -0.9148
 9589SOL    HW229588   6.527   1.399   1.124 -0.4357  3.1898 -0.0707
 9590SOL     OW29589   3.630   4.274   4.706  0.0099 -0.5592  0.1145
 9590SOL    HW129590   3.678   4.310   4.786 -2.0705  1.7884  0.4362
 9590SOL    HW229591   3.540   4.318   4.699 -0.3100 -1.5025 -2.9186
 9591SOL     OW29592   6.187   1.212   1.613  0.1287 -0.1956  0.8413
 9591SOL    HW129593   6.214   1.277   1.542  1.2941  1.6036  2.7713
 9591SOL    HW229594   6.116   1.253   1.670  0.4570 -0.8377  1.7406
 9592SOL     OW29595   4.373   0.961   4.447  0.5472  0.0791 -0.3584
 9592SOL    HW129596   4.324   0.966   4.360  0.8153  3.6115 -0.4722
 9592SOL    HW229597   4.348   0.878   4.496  0.3028 -1.9612 -3.7157
 9593SOL     OW29598   1.391   2.760   4.042 -0.4374  0.3112  0.5630
 9593SOL    HW129599   1.334   2.808   3.975  0.1728  0.8755  0.4347
 9593SOL    HW229600   1.399   2.663   4.016 -0.5879  0.4261  0.0813
 9594SOL     OW29601   5.059   0.508   0.394  0.0389  0.4917  0.2787
 9594SOL    HW129602   5.146   0.465   0.369  0.0632  0.3365  0.6218
 9594SOL    HW229603   4.995   0.501   0.317 -0.3660 -1.2007  0.7189
 9595SOL     OW29604   4.818   4.591   3.187  0.3062 -0.6996  0.7434
 9595SOL    HW129605   4.805   4.685   3.154  2.7594 -0.1803  1.0582
 9595SOL    HW229606   4.766   4.578   3.270  1.9228  1.3220  2.1963
 9596SOL     OW29607   2.579   3.252   0.480  0.5551 -0.2271  0.5206
 9596SOL    HW129608   2.597   3.341   0.523  1.8462  0.1058 -0.6090
 9596SOL    HW229609   2.666   3.207   0.460 -0.0895 -1.9738  1.4712
 9597SOL     OW29610   6.465   2.400   4.785 -0.3735 -0.6521 -0.3806
 9597SOL    HW129611   6.547   2.429   4.735 -0.8401 -0.9111 -1.3274
 9597SOL    HW229612   6.384   2.414   4.728 -0.8146 -1.9361 -0.1066
 9598SOL     OW29613   2.349   2.330   5.022 -0.4168  0.0369  0.6952
 9598SOL    HW129614   2.381   2.261   4.957  1.7094  0.6739  0.9928
 9598SOL    HW229615   2.388   2.419   4.998 -3.1231  1.1980  0.3081
 9599SOL     OW29616   1.197   4.976   6.311  0.0711  0.2966  0.1371
 9599SOL    HW129617   1.269   4.938   6.369 -1.6423 -0.1645  2.0659
 9599SOL    HW229618   1.111   4.927   6.328 -0.6629  0.5990 -2.3322
 9600SOL     OW29619   2.227   3.362   0.541  0.1127 -0.2947 -0.0366
 9600SOL    HW129620   2.159   3.434   0.531  0.6854  0.0893 -1.3973
 9600SOL    HW229621   2.185   3.283   0.587 -1.1263  0.0761 -0.4845
 9601SOL     OW29622   0.982   1.850   1.423 -0.3714 -0.1607 -0.0121
 9601SOL    HW129623   1.018   1.836   1.515  0.3038  0.3366 -0.1890
 9601SOL    HW229624   0.909   1.785   1.405  0.9009 -1.6992  0.1066
 9602SOL     OW29625   2.897   2.303   6.907 -0.3261  0.0284  0.1688
 9602SOL    HW129626   2.933   2.379   6.853 -1.0844  0.7248  0.6426
 9602SOL    HW229627   2.972   2.262   6.961  0.1929  0.0701 -0.5173
 9603SOL     OW29628   3.626   0.068   1.482  0.1290  0.0548 -0.2095
 9603SOL    HW129629   3.619   0.107   1.390  1.1264 -0.1396 -0.3816
 9603SOL    HW229630   3.566  -0.012   1.489  1.0665 -0.7303 -1.1402
 9604SOL     OW29631   2.380   3.418   5.123 -0.1649 -0.0148  0.2072
 9604SOL    HW129632   2.288   3.435   5.158 -0.7092 -0.4727 -0.9276
 9604SOL    HW229633   2.412   3.330   5.158 -0.0490  0.2626  0.8089
 9605SOL     OW29634   0.129   1.176   2.792 -0.2578 -0.3310  0.1520
 9605SOL    HW129635   0.048   1.158   2.849 -0.5544 -1.2581 -0.5446
 9605SOL    HW229636   0.107   1.248   2.726 -0.4752 -0.4939  0.0452
 9606SOL     OW29637   4.859   1.038   4.844 -0.0725 -0.0412 -0.1061
 9606SOL    HW129638   4.861   1.128   4.799  0.9865  0.1449  0.2880
 9606SOL    HW229639   4.942   1.027   4.899 -1.2305 -0.3326  1.6779
 9607SOL     OW29640   1.447   4.812   2.288 -0.5384  0.1466 -0.2024
 9607SOL    HW129641   1.439   4.714   2.305  2.0860 -0.0629  0.2715
 9607SOL    HW229642   1.466   4.828   2.191 -1.0308  0.2085 -0.2921
 9608SOL     OW29643   2.988   5.151   2.945  0.5204 -0.0543  0.1489
 9608SOL    HW129644   3.045   5.188   2.871  0.4614  2.4850  1.2682
 9608SOL    HW229645   3.022   5.184   3.033 -0.5722 -1.4221  1.1294
 9609SOL     OW29646   3.455   4.046   5.332 -0.2295  0.1698 -0.0706
 9609SOL    HW129647   3.402   4.004   5.258  0.1321 -0.8356  0.2280
 9609SOL    HW229648   3.481   3.976   5.398  1.2828  0.6750 -0.1017
 9610SOL     OW29649   4.544   0.313   2.720  0.2383 -0.4936  0.1004
 9610SOL    HW129650   4.555   0.331   2.817  2.8136  0.3746 -0.2647
 9610SOL    HW229651   4.525   0.216   2.705 -0.0096 -0.6643  1.4576
 9611SOL     OW29652   0.441   2.111   4.588 -0.5293 -0.2008 -0.1521
 9611SOL    HW129653   0.430   2.093   4.491  2.8268 -2.3138 -0.3466
 9611SOL    HW229654   0.464   2.207   4.602 -2.0295  0.3586 -1.2634
 9612SOL     OW29655   4.526   0.440   6.275  0.3640  0.3960  0.2739
 9612SOL    HW129656   4.622   0.466   6.267 -0.3032  3.0902  0.1110
 9612SOL    HW229657   4.505   0.417   6.370  1.4581 -1.7957  0.0560
 9613SOL     OW29658   1.400   5.725   0.504  0.4922  0.1360 -0.7170
 9613SOL    HW129659   1.430   5.656   0.570  1.1996  0.8017 -0.3262
 9613SOL    HW229660   1.466   5.800   0.502 -1.3268  1.8494  0.4300
 9614SOL     OW29661   6.390   5.756   2.597  0.2949 -0.1782 -0.0096
 9614SOL    HW129662   6.398   5.795   2.688 -0.2833 -1.2313  0.5250
 9614SOL    HW229663   6.339   5.819   2.538 -1.9018 -0.7123  1.2333
 9615SOL     OW29664   6.432   4.053   1.493 -0.0136  0.2377  0.5588
 9615SOL    HW129665   6.371   4.067   1.416 -0.9222 -0.0571  1.2008
 9615SOL    HW229666   6.501   4.126   1.495  1.0230 -0.6162 -1.4195
 9616SOL     OW29667   3.400   6.244   3.439 -0.5608 -0.1590  0.2380
 9616SOL    HW129668   3.462   6.170   3.465 -0.1429  0.4134  0.9080
 9616SOL    HW229669   3.399   6.253   3.339  0.2685 -0.3207  0.2067
 9617SOL     OW29670   4.025   2.092   0.393 -0.3411 -0.3315  0.6693
 9617SOL    HW129671   4.088   2.015   0.392  0.4322  0.2868 -0.0878
 9617SOL    HW229672   3.986   2.102   0.484 -0.1129 -1.3307  0.8948
 9618SOL     OW29673   4.789   1.720   5.742 -0.6963 -0.1979  0.7530
 9618SOL    HW129674   4.756   1.766   5.660  1.2737 -2.1312 -1.2723
 9618SOL    HW229675   4.751   1.627   5.745  0.7499 -0.7985  0.9569
 9619SOL     OW29676   2.871   6.731   3.852 -0.3822  0.3446 -0.3332
 9619SOL    HW129677   2.835   6.819   3.818 -2.6351 -0.5779 -0.5149
 9619SOL    HW229678   2.832   6.657   3.798 -0.9578 -0.9302  1.7278
 9620SOL     OW29679   1.926   3.048   4.559 -0.4521  0.3200  0.8231
 9620SOL    HW129680   1.873   2.991   4.497 -1.2886 -0.5110  2.2429
 9620SOL    HW229681   1.997   2.992   4.603 -1.0095  0.4605  1.9293
 9621SOL     OW29682   5.895   5.908   3.164  0.0709  0.3057 -0.1644
 9621SOL    HW129683   5.895   5.808   3.156  0.9498  0.3443 -0.8079
 9621SOL    HW229684   5.821   5.946   3.109 -0.3223  0.0118  0.1487
 9622SOL     OW29685   3.768   1.843   4.408 -0.6998  0.1553 -0.2418
 9622SOL    HW129686   3.701   1.892   4.464  0.5345 -1.8605  3.3182
 9622SOL    HW229687   3.722   1.769   4.358 -1.4615  0.3333  0.1827
 9623SOL     OW29688   3.250   5.187   2.068 -0.4379  0.6783 -0.4689
 9623SOL    HW129689   3.254   5.137   1.982  0.2158 -1.4544  0.7103
 9623SOL    HW229690   3.293   5.132   2.140 -1.2615  2.2345  1.3011
 9624SOL     OW29691   0.154   2.292   3.266  0.4112 -0.0451  0.0843
 9624SOL    HW129692   0.160   2.206   3.317 -0.3539  0.0896  0.3998
 9624SOL    HW229693   0.196   2.365   3.319 -0.7962  0.1885  0.7386
 9625SOL     OW29694   3.939   3.816   4.297 -0.6019  0.1926 -0.0906
 9625SOL    HW129695   3.975   3.902   4.260 -0.2990  0.2629  0.3530
 9625SOL    HW229696   3.989   3.739   4.258 -0.4328  0.2526  0.0083
 9626SOL     OW29697   1.430   1.366   4.581 -0.3672 -0.0277  0.2978
 9626SOL    HW129698   1.500   1.385   4.649 -0.7475  1.3734  0.3329
 9626SOL    HW229699   1.462   1.295   4.519  2.0373  1.9965 -0.9856
 9627SOL     OW29700   6.779   5.614   5.905 -0.2259  0.4555 -0.0771
 9627SOL    HW129701   6.702   5.586   5.847  0.7853 -0.2113 -1.1247
 9627SOL    HW229702   6.773   5.564   5.992 -0.3508 -0.4406 -0.5904
 9628SOL     OW29703   0.862   2.649   6.624  0.0631 -0.5171 -0.4634
 9628SOL    HW129704   0.842   2.703   6.706  1.4211  1.1630 -1.1843
 9628SOL    HW229705   0.856   2.708   6.544 -0.4053 -1.9383 -1.5011
 9629SOL     OW29706   3.416   3.706   4.648  0.3157 -0.1499 -0.3627
 9629SOL    HW129707   3.509   3.737   4.629 -0.2020  0.9518 -1.2491
 9629SOL    HW229708   3.393   3.630   4.587  0.3275  0.2045 -0.8231
 9630SOL     OW29709   0.264   5.174   1.743  0.3606  0.1686 -0.4858
 9630SOL    HW129710   0.284   5.119   1.662  0.8151 -1.0225  0.4095
 9630SOL    HW229711   0.338   5.240   1.758  1.4672 -1.1868  0.2563
 9631SOL     OW29712   5.356   2.963   6.911  0.7656  0.1347 -0.2406
 9631SOL    HW129713   5.440   2.924   6.873  1.5735 -0.5651  2.0854
 9631SOL    HW229714   5.361   2.962   7.011 -1.1646  2.0033 -0.0761
 9632SOL     OW29715   4.237   3.395   4.502 -0.6149  0.3795  0.0299
 9632SOL    HW129716   4.312   3.453   4.534  1.3882 -1.9797 -0.0391
 9632SOL    HW229717   4.201   3.341   4.578 -0.7944 -0.0212 -0.3297
 9633SOL     OW29718   5.162   2.067   1.912 -0.4778 -0.0792 -0.5541
 9633SOL    HW129719   5.191   1.974   1.937  1.9650  0.7365 -0.0642
 9633SOL    HW229720   5.186   2.130   1.985 -0.3896  1.2246 -1.6649
 9634SOL     OW29721   5.136   3.682   4.963 -0.5494  0.0939 -0.3578
 9634SOL    HW129722   5.230   3.712   4.950 -0.1752 -1.4631 -1.4926
 9634SOL    HW229723   5.083   3.702   4.881 -1.1277  0.5899  0.1220
 9635SOL     OW29724   6.028   2.950   0.894 -0.0405  0.7490  0.4623
 9635SOL    HW129725   6.002   3.040   0.930 -1.8142  0.4584 -0.0213
 9635SOL    HW229726   6.108   2.960   0.834  0.2082  1.8827  0.9612
 9636SOL     OW29727   6.952   0.004   3.803  0.9560  0.0177 -0.0940
 9636SOL    HW129728   6.979   0.097   3.830 -0.9840  1.2237 -1.9929
 9636SOL    HW229729   7.028  -0.041   3.756  2.0667  0.4221  1.2976
 9637SOL     OW29730   6.509   2.093   6.974  0.1477  0.0967 -0.4036
 9637SOL    HW129731   6.426   2.039   6.956 -1.2396  0.9990  2.8153
 9637SOL    HW229732   6.582   2.031   7.003  0.0622 -0.4963 -1.3741
 9638SOL     OW29733   5.271   4.573   3.974  0.2839  0.2849 -0.5060
 9638SOL    HW129734   5.193   4.562   3.912  1.7655  1.6506 -2.8071
 9638SOL    HW229735   5.307   4.484   3.998 -1.2448 -0.3317 -0.3523
 9639SOL     OW29736   4.323   6.984   5.678  0.2630  0.1449  0.0952
 9639SOL    HW129737   4.238   6.934   5.695 -0.7047  1.9701  0.7563
 9639SOL    HW229738   4.390   6.959   5.747 -0.4875  0.3908  0.9253
 9640SOL     OW29739   3.166   3.782   4.750 -0.0875  0.2708 -0.0585
 9640SOL    HW129740   3.196   3.700   4.799  0.6232 -0.9269 -2.3534
 9640SOL    HW229741   3.245   3.830   4.712 -0.6096  1.1764 -0.0357
 9641SOL     OW29742   2.683   3.919   5.842  0.5653  0.1729  0.1899
 9641SOL    HW129743   2.611   3.899   5.776  0.0519 -0.8655  1.0311
 9641SOL    HW229744   2.711   4.015   5.835 -0.6010  0.4724 -0.4275
 9642SOL     OW29745   1.460   5.017   3.701 -0.0561  0.7589 -0.5322
 9642SOL    HW129746   1.502   5.087   3.759  1.3981 -0.0289 -0.6051
 9642SOL    HW229747   1.390   5.059   3.643  1.2500  2.2804 -1.0690
 9643SOL     OW29748   1.840   4.213   2.543 -0.1548  0.2427 -0.0753
 9643SOL    HW129749   1.882   4.167   2.621  0.0780  0.6314  0.0304
 9643SOL    HW229750   1.742   4.227   2.561 -0.3784 -0.8419 -0.4063
 9644SOL     OW29751   5.013   3.199   1.713 -0.3333  0.1461  0.3354
 9644SOL    HW129752   4.960   3.132   1.764  0.1829 -0.1220  0.5240
 9644SOL    HW229753   5.047   3.158   1.628 -0.3227  0.2798  0.2748
 9645SOL     OW29754   3.775   2.645   0.403  0.1681  0.1698  0.0796
 9645SOL    HW129755   3.809   2.569   0.347  2.2227  0.9787  0.1729
 9645SOL    HW229756   3.835   2.724   0.392 -0.9455  1.2354  1.3325
 9646SOL     OW29757   6.726   2.393   1.366  0.0291  0.1972  0.6044
 9646SOL    HW129758   6.722   2.391   1.466  1.8975  1.5307  0.7676
 9646SOL    HW229759   6.739   2.487   1.335  1.0623 -0.3654 -0.7963
 9647SOL     OW29760   1.181   5.992   6.983 -0.0711  0.4580 -0.4402
 9647SOL    HW129761   1.235   5.911   7.006  1.0847  1.5787  1.0916
 9647SOL    HW229762   1.092   5.987   7.028  0.6928  0.8283  1.1887
 9648SOL     OW29763   1.406   4.690   5.730 -0.1781  0.3338 -0.0023
 9648SOL    HW129764   1.459   4.753   5.674  1.1371 -1.5717 -0.9963
 9648SOL    HW229765   1.322   4.666   5.681  0.3899 -0.3899 -0.6432
 9649SOL     OW29766   0.390   1.875   5.127 -0.4991 -0.6134 -0.3398
 9649SOL    HW129767   0.476   1.897   5.174 -0.3773 -0.5399 -0.5943
 9649SOL    HW229768   0.360   1.955   5.075 -0.2274 -0.9461 -1.0164
 9650SOL     OW29769   1.254   6.710   0.815 -0.5289 -0.9176 -0.2882
 9650SOL    HW129770   1.215   6.726   0.905  1.2434 -0.2574  0.4105
 9650SOL    HW229771   1.259   6.612   0.796  0.9057 -1.1707  1.2179
 9651SOL     OW29772   5.726   0.779   2.701  0.1456 -0.2707 -0.8478
 9651SOL    HW129773   5.777   0.692   2.698  0.5958 -0.0032 -0.9857
 9651SOL    HW229774   5.773   0.847   2.646 -0.0066  0.1685 -0.4406
 9652SOL     OW29775   6.473   2.700   5.727 -0.1512 -0.2749 -0.1559
 9652SOL    HW129776   6.447   2.740   5.815 -1.5219 -0.8090 -0.2908
 9652SOL    HW229777   6.481   2.601   5.736  0.5402 -0.2607 -0.4609
 9653SOL     OW29778   0.443   4.793   5.254 -0.2472 -0.1398 -0.1176
 9653SOL    HW129779   0.541   4.809   5.264 -0.1443 -0.0922 -1.0651
 9653SOL    HW229780   0.416   4.714   5.308  0.5484 -0.9313 -0.8387
 9654SOL     OW29781   3.656   4.864   0.175  0.3527 -0.1244  0.0993
 9654SOL    HW129782   3.675   4.960   0.198 -0.5401  0.1701 -0.3718
 9654SOL    HW229783   3.558   4.847   0.179  0.5343 -1.1207  0.5352
 9655SOL     OW29784   3.751   5.064   2.001 -0.5174 -0.4919 -0.4406
 9655SOL    HW129785   3.749   5.133   1.929 -1.3356  1.3261  1.2088
 9655SOL    HW229786   3.664   5.017   2.005 -1.0181  0.4463  0.2453
 9656SOL     OW29787   0.105   2.876   3.672  0.1486 -0.2478  0.6611
 9656SOL    HW129788   0.175   2.883   3.600 -1.1231  3.1547 -0.4599
 9656SOL    HW229789   0.022   2.837   3.633 -0.1010  0.3275  0.5957
 9657SOL     OW29790   3.724   2.505   2.139  0.0069  0.2290  0.5294
 9657SOL    HW129791   3.635   2.524   2.182 -0.1743  0.7709 -0.0640
 9657SOL    HW229792   3.736   2.407   2.130 -0.7427  0.1572  0.1916
 9658SOL     OW29793   2.456   5.381   5.791  0.2173  0.1183 -0.4927
 9658SOL    HW129794   2.430   5.378   5.887 -1.9396  0.1579 -1.0344
 9658SOL    HW229795   2.440   5.473   5.755  2.9750  0.6859 -0.4122
 9659SOL     OW29796   1.443   2.017   1.910 -0.3594 -0.0430 -0.0339
 9659SOL    HW129797   1.458   2.027   2.008  2.2347 -1.2839 -0.2418
 9659SOL    HW229798   1.405   1.927   1.891  2.1759 -1.1136 -0.3616
 9660SOL     OW29799   2.869   2.465   2.951 -0.3179  0.3344  0.0923
 9660SOL    HW129800   2.837   2.431   2.863 -0.8225 -0.0115  0.3969
 9660SOL    HW229801   2.838   2.403   3.024 -0.5035  0.9856  0.5835
 9661SOL     OW29802   4.511   2.011   4.735 -0.1857 -0.4148 -0.0477
 9661SOL    HW129803   4.508   1.990   4.833  1.7632 -1.5426 -0.1801
 9661SOL    HW229804   4.602   2.043   4.711 -0.7782  0.3050 -1.4313
 9662SOL     OW29805   6.367   6.723   2.088  0.1849 -0.0596  0.1616
 9662SOL    HW129806   6.465   6.745   2.086 -0.0013  0.7601 -0.9414
 9662SOL    HW229807   6.345   6.663   2.012  0.0592 -1.3597  1.1918
 9663SOL     OW29808   0.987   6.155   2.903  0.2962  0.3982 -0.3393
 9663SOL    HW129809   0.950   6.188   2.816 -0.4672  0.2382 -0.0869
 9663SOL    HW229810   1.074   6.200   2.922  0.8523 -0.1081 -1.5518
 9664SOL     OW29811   1.382   6.549   6.984  0.0442  0.4618  0.6275
 9664SOL    HW129812   1.282   6.539   6.980  0.1934 -1.6845  1.0609
 9664SOL    HW229813   1.407   6.593   7.071 -0.5238  1.4795  0.2695
 9665SOL     OW29814   0.542   5.918   0.841  0.2802 -0.4478  0.4036
 9665SOL    HW129815   0.471   5.911   0.771 -1.6812  1.1536  2.1452
 9665SOL    HW229816   0.529   5.846   0.909  1.0185 -0.8099  0.1798
 9666SOL     OW29817   1.333   4.747   4.476  0.3566 -0.3022  0.0288
 9666SOL    HW129818   1.353   4.653   4.448 -0.8037 -0.3829 -0.5831
 9666SOL    HW229819   1.234   4.763   4.471  0.4353  0.6326  1.1487
 9667SOL     OW29820   5.692   0.658   3.083  0.0325 -0.3290  0.4159
 9667SOL    HW129821   5.636   0.652   3.001 -0.3426 -1.5504  0.7433
 9667SOL    HW229822   5.721   0.752   3.098 -1.6853  0.2608  0.0903
 9668SOL     OW29823   1.475   3.853   5.725 -0.4622 -0.2184 -0.0369
 9668SOL    HW129824   1.515   3.762   5.713  1.6836  0.4506  1.3706
 9668SOL    HW229825   1.414   3.873   5.648 -0.4359 -2.5391 -0.7491
 9669SOL     OW29826   3.511   6.421   1.003 -0.5103 -0.4706  0.1163
 9669SOL    HW129827   3.549   6.492   1.064 -4.4339 -1.0269  3.6221
 9669SOL    HW229828   3.547   6.332   1.030  2.3826 -0.3185 -2.5979
 9670SOL     OW29829   5.486   2.106   5.073  0.1448 -0.3213 -0.2560
 9670SOL    HW129830   5.401   2.057   5.058 -0.1634 -0.2587  1.1659
 9670SOL    HW229831   5.467   2.196   5.112  0.7765  0.4098 -1.5372
 9671SOL     OW29832   0.045   4.705   5.408  0.2031 -0.4791  0.4929
 9671SOL    HW129833   0.124   4.681   5.465  0.8950 -0.1793 -0.3242
 9671SOL    HW229834   0.062   4.677   5.314 -0.0511  0.8753  0.0293
 9672SOL     OW29835   3.626   5.441   6.382  0.0183  0.3826  0.0627
 9672SOL    HW129836   3.664   5.497   6.309 -2.4921  0.9536 -0.9124
 9672SOL    HW229837   3.559   5.494   6.434  0.1861 -0.6699  1.4296
 9673SOL     OW29838   0.336   6.678   1.464 -0.5507 -0.6521  0.2694
 9673SOL    HW129839   0.328   6.753   1.529 -0.1964 -0.7581  0.4377
 9673SOL    HW229840   0.251   6.626   1.463 -1.0007  0.0732 -0.2508
 9674SOL     OW29841   0.534   4.143   4.541 -0.2097  0.1026 -0.4273
 9674SOL    HW129842   0.489   4.153   4.453  0.1323 -0.5910 -0.6921
 9674SOL    HW229843   0.469   4.110   4.609 -0.3355  0.0396 -0.5762
 9675SOL     OW29844   6.863   4.615   3.374 -1.2332  0.1346 -0.1376
 9675SOL    HW129845   6.905   4.636   3.462  1.3354  4.0357 -2.0215
 9675SOL    HW229846   6.812   4.695   3.342 -2.4001 -1.3172 -2.1238
 9676SOL     OW29847   6.009   5.317   3.517  0.3385  0.0753 -0.5199
 9676SOL    HW129848   5.970   5.389   3.460 -2.6987 -0.1414  1.1013
 9676SOL    HW229849   6.039   5.356   3.604 -2.2610 -0.6395  0.7815
 9677SOL     OW29850   4.615   1.773   0.581 -0.8745 -0.0067 -0.0501
 9677SOL    HW129851   4.585   1.692   0.530 -0.9212 -0.1120  0.1413
 9677SOL    HW229852   4.680   1.825   0.526 -1.6092  0.3707 -0.5855
 9678SOL     OW29853   4.324   4.696   2.550  0.3885 -0.3720  0.0813
 9678SOL    HW129854   4.357   4.630   2.618 -0.8218 -1.1630 -0.0646
 9678SOL    HW229855   4.236   4.733   2.580 -0.3721 -1.0625 -1.2404
 9679SOL     OW29856   1.679   4.792   2.095 -0.2827  0.5154 -0.8170
 9679SOL    HW129857   1.710   4.875   2.142 -1.3972  1.5484 -1.8206
 9679SOL    HW229858   1.694   4.802   1.996  3.0385 -2.0406 -0.7634
 9680SOL     OW29859   6.010   6.319   3.910 -0.3927 -0.4340  0.1001
 9680SOL    HW129860   6.061   6.330   3.994 -1.0525  0.5782  0.3838
 9680SOL    HW229861   5.925   6.372   3.915 -0.3998 -0.2817 -1.2310
 9681SOL     OW29862   3.504   1.325   6.908 -0.2967  0.0597  0.3306
 9681SOL    HW129863   3.487   1.343   7.005  1.5385  0.6124  0.5865
 9681SOL    HW229864   3.426   1.357   6.855 -0.4060  1.8562  1.4558
 9682SOL     OW29865   6.837   6.613   1.969 -0.1146 -0.2455  0.5640
 9682SOL    HW129866   6.842   6.547   2.044  0.3914  0.5000  1.1932
 9682SOL    HW229867   6.769   6.582   1.903  1.1622 -2.1861  0.0691
 9683SOL     OW29868   3.300   5.854   6.287  0.3004 -1.0042 -0.6509
 9683SOL    HW129869   3.252   5.842   6.200 -0.4215  0.8701 -0.5647
 9683SOL    HW229870   3.398   5.846   6.272  0.1285 -2.1219 -1.3520
 9684SOL     OW29871   1.623   3.261   5.598  0.1881  0.6514  0.0422
 9684SOL    HW129872   1.720   3.239   5.587  0.3330  0.9595  0.6757
 9684SOL    HW229873   1.577   3.248   5.510  0.3861 -1.5065  0.1968
 9685SOL     OW29874   5.777   3.806   5.060  0.2562 -0.0476  0.3704
 9685SOL    HW129875   5.794   3.903   5.073  3.7981 -0.5808  0.8136
 9685SOL    HW229876   5.767   3.762   5.150 -0.7874 -0.2345  0.1867
 9686SOL     OW29877   5.176   2.284   3.713 -0.6042 -0.1211 -0.2255
 9686SOL    HW129878   5.141   2.272   3.620  0.5663  0.8084 -0.7916
 9686SOL    HW229879   5.179   2.381   3.736  0.7127 -0.2282  0.1427
 9687SOL     OW29880   6.299   1.484   2.943  0.1488  0.3135  0.2843
 9687SOL    HW129881   6.212   1.442   2.917  0.4567  0.4040 -0.9031
 9687SOL    HW229882   6.371   1.414   2.943  0.4643  0.6256 -0.7169
 9688SOL     OW29883   3.381   5.573   1.850 -0.0531 -0.3461 -0.0586
 9688SOL    HW129884   3.314   5.514   1.896  0.3033 -0.7655 -0.0679
 9688SOL    HW229885   3.377   5.556   1.752  0.7849 -1.1375  0.0301
 9689SOL     OW29886   6.322   3.303   6.086 -0.1248 -0.3493 -0.4312
 9689SOL    HW129887   6.272   3.318   6.172  0.6397 -2.4004  0.4535
 9689SOL    HW229888   6.420   3.297   6.106  0.1944  0.4061 -1.6683
 9690SOL     OW29889   1.399   2.209   4.456  0.6037  0.1565  0.4138
 9690SOL    HW129890   1.396   2.152   4.538 -1.0147  0.9439  0.9247
 9690SOL    HW229891   1.343   2.291   4.470  0.1956  0.2337 -1.5475
 9691SOL     OW29892   0.317   3.338   3.376 -0.7833  0.6275 -0.4996
 9691SOL    HW129893   0.325   3.437   3.391 -1.7294  0.5379  0.7217
 9691SOL    HW229894   0.224   3.308   3.397 -0.0441 -0.8009  0.8893
 9692SOL     OW29895   5.985   1.900   1.604  0.0170  0.3301 -0.0939
 9692SOL    HW129896   6.036   1.839   1.543  0.6096  1.3492 -0.6491
 9692SOL    HW229897   6.041   1.921   1.684 -0.0908  0.3415 -0.0216
 9693SOL     OW29898   5.281   3.543   1.166 -0.4407 -0.1989  0.1599
 9693SOL    HW129899   5.191   3.534   1.124 -0.0351 -0.1367 -0.7534
 9693SOL    HW229900   5.277   3.607   1.243 -0.8893  0.8144 -0.7019
 9694SOL     OW29901   2.915   2.829   3.781  0.2257 -0.4583 -0.1194
 9694SOL    HW129902   2.994   2.847   3.839  1.6001 -1.4139 -1.6073
 9694SOL    HW229903   2.882   2.735   3.796  0.3864 -0.6012 -0.6346
 9695SOL     OW29904   2.996   1.042   0.513  0.0182 -0.1625 -0.1824
 9695SOL    HW129905   2.979   0.996   0.426 -1.2705 -0.2134  0.0869
 9695SOL    HW229906   3.065   1.114   0.500 -0.8483  0.4662 -1.4436
 9696SOL     OW29907   0.048   3.904   5.003  0.2298 -0.0288 -0.3170
 9696SOL    HW129908  -0.050   3.893   4.985  0.5387 -0.1350 -1.9281
 9696SOL    HW229909   0.076   3.839   5.074 -0.1684 -2.7486 -2.4404
 9697SOL     OW29910   2.868   0.372   2.444  0.2344  0.5962 -0.5016
 9697SOL    HW129911   2.888   0.290   2.390 -0.6616 -0.8572  1.2743
 9697SOL    HW229912   2.954   0.415   2.472  0.7819 -0.8500  0.1486
 9698SOL     OW29913   2.673   2.637   3.389 -0.3838  0.4363  0.3882
 9698SOL    HW129914   2.610   2.563   3.366 -0.8315  0.5525  1.2010
 9698SOL    HW229915   2.661   2.663   3.485  0.6905  0.6707  0.4768
 9699SOL     OW29916   5.093   1.457   1.859  0.6223 -0.0105 -0.2023
 9699SOL    HW129917   5.171   1.398   1.880 -0.4702 -0.5380  2.9271
 9699SOL    HW229918   5.093   1.535   1.921 -1.2399  0.0663 -0.2513
 9700SOL     OW29919   1.250   0.048   1.672 -0.0830  0.0053  0.1834
 9700SOL    HW129920   1.321   0.112   1.641  0.4099  0.0467  1.3343
 9700SOL    HW229921   1.235  -0.022   1.602  0.4185  0.5685 -0.4758
 9701SOL     OW29922   3.237   1.392   6.882  0.5128  0.6107  0.0301
 9701SOL    HW129923   3.170   1.323   6.908 -1.0230  2.0829  0.1940
 9701SOL    HW229924   3.192   1.482   6.876  2.0178  1.3239 -1.9825
 9702SOL     OW29925   6.594   5.280   3.843 -0.0891 -0.2922  0.0866
 9702SOL    HW129926   6.611   5.366   3.891  1.8225 -0.9452  0.6512
 9702SOL    HW229927   6.643   5.206   3.888 -2.6255 -1.9691  0.3229
 9703SOL     OW29928   5.360   2.499   6.024  0.2908 -0.6157 -0.0013
 9703SOL    HW129929   5.355   2.400   6.030  0.1858 -0.5101  2.7584
 9703SOL    HW229930   5.367   2.526   5.928  2.0547 -3.3397 -0.7298
 9704SOL     OW29931   3.652   0.052   5.773  0.1913 -0.0562 -0.3642
 9704SOL    HW129932   3.743   0.086   5.749  0.7120 -0.9399  0.3035
 9704SOL    HW229933   3.621   0.098   5.856  1.2177 -1.6646  0.9735
 9705SOL     OW29934   2.122   3.271   2.472 -0.0388 -0.4533  0.4018
 9705SOL    HW129935   2.154   3.326   2.549  0.6251 -1.2404  0.7063
 9705SOL    HW229936   2.120   3.175   2.498 -0.8880 -0.6185 -0.2143
 9706SOL     OW29937   3.645   1.068   3.485  0.3035  0.2610  0.1094
 9706SOL    HW129938   3.563   1.122   3.506 -1.9072 -2.4817 -0.7677
 9706SOL    HW229939   3.725   1.110   3.528 -1.8861  1.9508  2.8664
 9707SOL     OW29940   1.125   1.131   3.447 -0.2818  0.5518 -0.2533
 9707SOL    HW129941   1.099   1.034   3.441 -0.2432  0.4341  1.1592
 9707SOL    HW229942   1.050   1.188   3.413 -0.3843  0.0367 -0.9053
 9708SOL     OW29943   2.315   0.180   4.936  0.0726 -0.4495  0.1660
 9708SOL    HW129944   2.342   0.129   5.017  1.6274 -0.0086 -0.0322
 9708SOL    HW229945   2.297   0.276   4.960  2.1773  0.0980 -0.2012
 9709SOL     OW29946   5.740   4.740   3.576  0.3656 -0.6371 -0.2533
 9709SOL    HW129947   5.724   4.838   3.579  0.6943 -0.5901 -0.0499
 9709SOL    HW229948   5.696   4.696   3.654 -0.5320 -0.7601 -0.8006
 9710SOL     OW29949   0.317   1.719   2.884  0.1653  0.1475 -0.0433
 9710SOL    HW129950   0.324   1.800   2.943 -3.3141  1.3256 -1.0161
 9710SOL    HW229951   0.362   1.738   2.797  3.3291 -0.7913  1.1911
 9711SOL     OW29952   3.204   5.421   1.975  0.0177 -0.2797  0.3091
 9711SOL    HW129953   3.217   5.329   2.010  0.7623 -0.1779  0.3156
 9711SOL    HW229954   3.107   5.435   1.952 -0.3731 -0.5541  1.7362
 9712SOL     OW29955   4.911   4.244   6.486  0.2031 -0.6663  0.1997
 9712SOL    HW129956   4.825   4.289   6.512  1.1427  1.3486  0.0006
 9712SOL    HW229957   4.945   4.192   6.564 -0.0479  0.4148  1.0583
 9713SOL     OW29958   6.434   1.704   6.209 -0.6149 -0.3548 -0.4156
 9713SOL    HW129959   6.465   1.702   6.114 -0.1006  0.7156 -0.2808
 9713SOL    HW229960   6.488   1.640   6.263  0.3043  0.3283 -0.4999
 9714SOL     OW29961   3.206   0.533   1.416 -0.0524 -0.1121  0.0578
 9714SOL    HW129962   3.115   0.503   1.443  0.3392 -0.7423  0.7277
 9714SOL    HW229963   3.258   0.456   1.380  1.4876 -0.6983  3.1793
 9715SOL     OW29964   3.203   4.261   6.922 -0.1773  0.1554  0.1494
 9715SOL    HW129965   3.140   4.185   6.905  1.1917 -0.9623 -0.1214
 9715SOL    HW229966   3.294   4.225   6.943  0.1915  1.7000  1.4706
 9716SOL     OW29967   2.957   2.481   0.796 -0.2375  0.9394  0.1685
 9716SOL    HW129968   2.886   2.538   0.755  0.0809  1.7181  0.6647
 9716SOL    HW229969   3.039   2.483   0.738  0.0792  1.7249  0.6272
 9717SOL     OW29970   0.821   1.834   3.352 -0.0136 -0.6737  0.0099
 9717SOL    HW129971   0.757   1.904   3.321 -0.9631 -1.1826  0.7747
 9717SOL    HW229972   0.898   1.877   3.399  0.5830 -0.0063 -1.5281
 9718SOL     OW29973   2.344   3.482   2.967  0.2299 -0.1261 -0.6279
 9718SOL    HW129974   2.434   3.526   2.972 -0.5018  1.4582 -0.7804
 9718SOL    HW229975   2.302   3.482   3.058 -0.1569  0.3428 -0.8035
 9719SOL     OW29976   6.710   3.460   2.706 -0.5652  0.4704 -0.2685
 9719SOL    HW129977   6.767   3.533   2.744  1.2271 -0.3765 -1.2397
 9719SOL    HW229978   6.744   3.372   2.739 -0.3955 -0.1391 -1.9807
 9720SOL     OW29979   6.107   6.416   4.548  0.1608  0.6404 -0.3028
 9720SOL    HW129980   6.058   6.330   4.532  0.9411 -0.0809  0.9879
 9720SOL    HW229981   6.172   6.431   4.474  0.9727 -0.5985  0.1275
 9721SOL     OW29982   6.817   2.352   0.664 -0.0252 -0.4593  0.2906
 9721SOL    HW129983   6.735   2.397   0.631  0.6236  0.6877  0.1847
 9721SOL    HW229984   6.843   2.279   0.602  0.3180  0.6678 -0.9412
 9722SOL     OW29985   0.389   0.311   5.783 -0.1474 -0.2751 -0.3931
 9722SOL    HW129986   0.428   0.388   5.732 -1.0751 -0.4262 -1.3732
 9722SOL    HW229987   0.435   0.302   5.871 -1.0455  2.3841  0.4112
 9723SOL     OW29988   2.744   3.684   0.846 -0.3043 -0.6153 -0.1760
 9723SOL    HW129989   2.753   3.584   0.846  0.6889 -0.5327 -0.5490
 9723SOL    HW229990   2.808   3.724   0.912 -0.0587 -0.1719 -0.6752
 9724SOL     OW29991   5.014   6.994   4.281  0.6557  0.0390 -0.2798
 9724SOL    HW129992   5.039   7.090   4.267 -0.4717  0.8003  2.5692
 9724SOL    HW229993   5.083   6.950   4.338  0.5391 -0.4965 -0.5507
 9725SOL     OW29994   0.480   3.984   3.360 -0.5156 -0.0576  1.1905
 9725SOL    HW129995   0.435   3.999   3.272  0.0983 -0.4095  0.8109
 9725SOL    HW229996   0.528   4.068   3.388  1.4692 -0.7109 -0.0917
 9726SOL     OW29997   2.784   5.584   2.178  0.4779  0.1171  0.0412
 9726SOL    HW129998   2.807   5.673   2.140  1.4623  0.0483  0.4380
 9726SOL    HW229999   2.729   5.596   2.261 -1.7350  0.2666 -1.3565
 9727SOL     OW30000   4.583   4.366   0.561 -0.2675  0.6592  0.6635
 9727SOL    HW130001   4.564   4.432   0.489  0.4436 -0.2082 -0.3398
 9727SOL    HW230002   4.681   4.361   0.578 -0.2323 -0.6960  0.1689
 9728SOL     OW30003   2.064   2.928   6.670 -0.3083 -0.1909 -0.6596
 9728SOL    HW130004   2.068   2.829   6.657 -2.1323 -0.4039  0.1475
 9728SOL    HW230005   2.080   2.974   6.582 -0.3772 -1.2183 -1.2236
 9729SOL     OW30006   6.132   0.290   3.909 -0.1357 -0.3791 -0.0885
 9729SOL    HW130007   6.136   0.380   3.866  0.7018  0.4414  1.6146
 9729SOL    HW230008   6.126   0.219   3.838 -2.4821  1.0570 -1.4400
 9730SOL     OW30009   2.851   0.360   0.825 -0.1282 -0.1490 -0.2682
 9730SOL    HW130010   2.880   0.452   0.851 -0.1460 -0.7560  2.0798
 9730SOL    HW230011   2.766   0.338   0.872  0.7402 -1.9614  0.5145
 9731SOL     OW30012   3.289   0.529   0.916  0.1910 -0.1422 -0.3928
 9731SOL    HW130013   3.330   0.446   0.878  0.9450  0.7404 -1.6219
 9731SOL    HW230014   3.206   0.506   0.966  1.6847 -1.8985  1.4152
 9732SOL     OW30015   3.384   0.072   0.757 -0.7225  0.0319 -0.1547
 9732SOL    HW130016   3.286   0.049   0.755 -0.6982 -0.2236  0.8749
 9732SOL    HW230017   3.428   0.022   0.831  0.1594  0.3065 -0.4825
 9733SOL     OW30018   6.606   3.020   3.009  0.2236  0.2873  0.5133
 9733SOL    HW130019   6.539   3.094   3.008  0.7455  0.7777 -0.4606
 9733SOL    HW230020   6.578   2.948   2.945 -0.2658 -0.3679  1.4327
 9734SOL     OW30021   2.226   2.167   2.254  0.1064  0.0776  0.2754
 9734SOL    HW130022   2.320   2.139   2.275  0.3010 -0.7605 -1.4577
 9734SOL    HW230023   2.167   2.086   2.252 -0.5960  0.5562  1.0130
 9735SOL     OW30024   2.302   0.465   6.667 -0.6488 -0.1215  0.5037
 9735SOL    HW130025   2.367   0.532   6.631 -1.6251  1.6444  1.8396
 9735SOL    HW230026   2.350   0.381   6.690  0.9967  0.8119  0.6176
 9736SOL     OW30027   2.585   4.418   2.731 -0.8777  0.6538  0.2612
 9736SOL    HW130028   2.680   4.425   2.762 -0.4195 -1.9619 -0.2721
 9736SOL    HW230029   2.576   4.458   2.640  0.1848 -0.6680 -0.4568
 9737SOL     OW30030   6.566   4.756   0.149  0.4206  0.8018 -0.0596
 9737SOL    HW130031   6.627   4.810   0.090  1.6598 -1.9325 -1.5007
 9737SOL    HW230032   6.474   4.757   0.111  0.8314  0.4698 -1.1087
 9738SOL     OW30033   4.911   4.007   5.978  0.1805  0.4304  0.5775
 9738SOL    HW130034   4.828   3.960   6.008 -0.5832  1.4660  0.1490
 9738SOL    HW230035   4.916   4.004   5.878  1.1888 -0.4879  0.6380
 9739SOL     OW30036   4.322   1.599   4.430 -0.2616 -0.2673  0.3282
 9739SOL    HW130037   4.292   1.629   4.520  0.5482  1.0187  0.2050
 9739SOL    HW230038   4.405   1.650   4.404 -0.8091 -0.1678 -1.3803
 9740SOL     OW30039   3.509   6.416   4.582  0.0939  0.1731  0.2188
 9740SOL    HW130040   3.554   6.360   4.513 -1.6954 -1.1460  0.0394
 9740SOL    HW230041   3.417   6.440   4.551  0.4328  2.3625  0.7579
 9741SOL     OW30042   2.607   2.078   1.054  0.1270 -0.2723  0.7427
 9741SOL    HW130043   2.553   2.082   0.970 -0.2039 -0.2741  0.9543
 9741SOL    HW230044   2.695   2.123   1.038 -0.6584  1.4172  0.9487
 9742SOL     OW30045   5.576   3.274   4.353 -0.5960 -0.0701 -0.3946
 9742SOL    HW130046   5.534   3.276   4.443 -1.2368  0.8302 -0.6907
 9742SOL    HW230047   5.647   3.344   4.348 -2.3320  1.7539 -1.3603
 9743SOL     OW30048   0.103   0.847   2.379  0.4533  0.3949 -0.6814
 9743SOL    HW130049   0.089   0.924   2.316 -1.0876 -0.4088 -1.3644
 9743SOL    HW230050   0.019   0.793   2.384  0.9863 -0.3082  1.0787
 9744SOL     OW30051   5.993   0.232   3.491 -0.3620  0.1672  0.1597
 9744SOL    HW130052   6.044   0.176   3.426  0.4772  1.1850 -0.1176
 9744SOL    HW230053   5.983   0.183   3.578 -0.2778 -0.6522 -0.2741
 9745SOL     OW30054   3.812   5.074   1.569 -0.2918 -0.5190  0.3290
 9745SOL    HW130055   3.776   5.019   1.645  0.4608 -0.4227  0.7769
 9745SOL    HW230056   3.738   5.093   1.504 -1.0252 -0.3583  1.1814
 9746SOL     OW30057   1.004   5.738   4.699  0.0736  0.6136 -0.1422
 9746SOL    HW130058   1.044   5.717   4.788  0.1642 -0.9625 -0.5389
 9746SOL    HW230059   1.054   5.814   4.658 -0.8503  2.3345  1.7286
 9747SOL     OW30060   5.269   4.570   5.304 -0.4416  0.0578 -0.1708
 9747SOL    HW130061   5.185   4.524   5.277 -0.3355  0.9159 -2.0991
 9747SOL    HW230062   5.290   4.642   5.238  0.6968  1.2479  1.4152
 9748SOL     OW30063   6.714   6.844   2.656  0.1528  0.0223  0.1091
 9748SOL    HW130064   6.768   6.922   2.625  1.9826 -1.5778 -0.9736
 9748SOL    HW230065   6.742   6.817   2.748 -0.9928  1.0487  0.7819
 9749SOL     OW30066   4.595   4.462   5.469 -0.0854  0.5012  0.0689
 9749SOL    HW130067   4.577   4.513   5.386 -0.0292  0.5245  0.0711
 9749SOL    HW230068   4.632   4.372   5.446 -1.2416  0.0186  0.0192
 9750SOL     OW30069   5.514   6.598   1.588  0.3576  0.9835  0.0619
 9750SOL    HW130070   5.499   6.625   1.683 -0.4971  0.5770  0.0562
 9750SOL    HW230071   5.605   6.557   1.578  0.8371  1.9182  0.4931
 9751SOL     OW30072   6.397   4.502   3.688  0.0951  0.5405  0.3869
 9751SOL    HW130073   6.428   4.469   3.599  1.0049 -1.1874  1.2979
 9751SOL    HW230074   6.299   4.485   3.698  0.1920 -0.1850  0.1099
 9752SOL     OW30075   4.948   5.340   5.799  0.0971 -0.5825 -0.5568
 9752SOL    HW130076   4.893   5.276   5.746 -0.1740 -1.0113  0.2182
 9752SOL    HW230077   4.988   5.292   5.878 -0.5564  0.3274  0.3483
 9753SOL     OW30078   1.986   5.981   2.522 -0.2825  0.4080 -0.0687
 9753SOL    HW130079   2.023   5.890   2.538  1.8716  0.8563 -1.9647
 9753SOL    HW230080   2.060   6.048   2.519 -1.7526  2.2093  0.7651
 9754SOL     OW30081   2.355   2.397   0.300 -0.1157 -0.0858 -0.0889
 9754SOL    HW130082   2.419   2.356   0.365  0.8881  1.1528 -0.2450
 9754SOL    HW230083   2.332   2.330   0.229 -0.0974 -0.9945  0.7467
 9755SOL     OW30084   0.369   2.568   0.052  0.2761 -0.9633 -0.0851
 9755SOL    HW130085   0.300   2.504   0.087 -0.0569  0.2091  1.5445
 9755SOL    HW230086   0.383   2.552  -0.045 -4.0787  0.2667 -1.1307
 9756SOL     OW30087   3.156   3.214   3.543  0.5100 -0.5561 -0.0256
 9756SOL    HW130088   3.074   3.157   3.548 -2.3475  3.1866 -0.0831
 9756SOL    HW230089   3.214   3.196   3.623 -2.3417 -0.6992  2.1812
 9757SOL     OW30090   2.021   6.096   6.519 -0.6578  0.1306 -0.1774
 9757SOL    HW130091   2.068   6.163   6.576 -1.5119  1.1541 -0.6357
 9757SOL    HW230092   2.011   6.010   6.570 -1.4858  1.0492  1.2834
 9758SOL     OW30093   2.041   4.777   5.823 -0.1308 -0.1277  0.5072
 9758SOL    HW130094   2.101   4.855   5.810 -1.7870  1.0302 -0.4462
 9758SOL    HW230095   2.084   4.695   5.785  1.6300  0.2793  1.5286
 9759SOL     OW30096   5.808   3.938   6.588 -0.0810  0.2805 -0.3095
 9759SOL    HW130097   5.876   4.004   6.556 -0.5166  0.5770 -0.6382
 9759SOL    HW230098   5.724   3.986   6.615 -0.9811 -0.2160 -1.9973
 9760SOL     OW30099   4.030   0.258   5.001 -0.3969 -0.0047 -0.0632
 9760SOL    HW130100   4.069   0.172   4.969 -0.8461 -1.1690  2.3224
 9760SOL    HW230101   3.963   0.291   4.935  0.4521 -0.9740 -1.4651
 9761SOL     OW30102   4.652   4.345   6.531 -0.5944 -0.2670  0.5151
 9761SOL    HW130103   4.643   4.444   6.540  1.4620  0.4028 -2.9343
 9761SOL    HW230104   4.575   4.308   6.479 -0.6748 -0.2150  0.5960
 9762SOL     OW30105   6.345   4.241   4.272  0.8073  0.6123  0.1241
 9762SOL    HW130106   6.306   4.318   4.323 -0.8936 -0.8746  1.2189
 9762SOL    HW230107   6.394   4.181   4.335 -2.3224 -1.8887  0.4469
 9763SOL     OW30108   6.887   2.577   6.981 -0.4986 -0.0383  0.4488
 9763SOL    HW130109   6.940   2.650   7.024 -1.3498 -0.7175  2.7347
 9763SOL    HW230110   6.793   2.581   7.014 -1.4875 -0.0349 -2.1279
 9764SOL     OW30111   1.605   5.026   5.162 -0.0588  0.3239 -0.1171
 9764SOL    HW130112   1.683   5.000   5.105  0.0559  0.6565 -0.1137
 9764SOL    HW230113   1.551   4.944   5.184  0.5332  0.0269  0.2496
 9765SOL     OW30114   2.695   0.874   2.674  0.0809  0.1946 -0.2601
 9765SOL    HW130115   2.598   0.853   2.666 -0.1629  1.0030  0.3746
 9765SOL    HW230116   2.748   0.790   2.662 -0.7479 -0.4553  0.4337
 9766SOL     OW30117   4.715   5.348   3.644  0.0136  0.9701 -0.0059
 9766SOL    HW130118   4.777   5.399   3.703  2.7049 -1.3462 -0.6340
 9766SOL    HW230119   4.621   5.367   3.670  0.9852  3.1840  2.2620
 9767SOL     OW30120   1.349   4.411   1.249 -0.1882  0.7003 -0.2272
 9767SOL    HW130121   1.374   4.433   1.155  1.1532  1.3515  0.2543
 9767SOL    HW230122   1.337   4.496   1.301 -0.1377  0.3493  0.3784
 9768SOL     OW30123   0.053   4.341   2.052 -0.2014  0.5965 -0.1894
 9768SOL    HW130124   0.094   4.430   2.030 -1.5385  0.6957 -2.6455
 9768SOL    HW230125   0.063   4.279   1.974 -0.9595 -0.7805  0.7559
 9769SOL     OW30126   6.122   1.981   4.359 -0.4019 -0.7246 -0.0266
 9769SOL    HW130127   6.096   2.018   4.448  1.1079 -1.8336  0.9172
 9769SOL    HW230128   6.071   1.897   4.341  0.4735 -1.4152  0.5855
 9770SOL     OW30129   1.901   0.573   0.236 -0.2312 -0.3118  0.0697
 9770SOL    HW130130   1.955   0.529   0.164 -0.8328  0.2617 -0.7690
 9770SOL    HW230131   1.903   0.672   0.222  0.9806 -0.0368  1.8247
 9771SOL     OW30132   5.423   2.193   0.925  0.3221 -0.3633 -0.5299
 9771SOL    HW130133   5.408   2.211   1.022 -0.4525  0.3102 -0.7645
 9771SOL    HW230134   5.520   2.204   0.904  1.2144 -4.1740  0.9005
 9772SOL     OW30135   2.346   4.737   4.378  0.0174  0.1852  0.2536
 9772SOL    HW130136   2.403   4.656   4.392 -0.4680 -0.0840  0.6960
 9772SOL    HW230137   2.296   4.729   4.292  1.2356  0.7721 -0.5243
 9773SOL     OW30138   6.619   6.805   2.405 -0.6794  0.2681 -1.0566
 9773SOL    HW130139   6.704   6.808   2.353 -0.4574 -0.7823 -0.7888
 9773SOL    HW230140   6.640   6.798   2.502 -1.0513 -0.3512 -1.0098
 9774SOL     OW30141   2.974   0.627   6.687  0.0536 -0.4375  0.1319
 9774SOL    HW130142   2.886   0.627   6.640 -0.4986 -0.1452  1.1523
 9774SOL    HW230143   3.045   0.597   6.623 -0.8890 -1.4680 -0.4822
 9775SOL     OW30144   5.152   0.502   2.793 -0.1697 -0.3898  0.3789
 9775SOL    HW130145   5.174   0.463   2.883  0.2729 -0.0362  0.4272
 9775SOL    HW230146   5.133   0.600   2.803  3.9150  0.6575 -0.4267
 9776SOL     OW30147   6.597   1.006   4.150  0.1722  0.3849 -0.5793
 9776SOL    HW130148   6.600   1.088   4.093 -1.1702  0.6219 -0.3440
 9776SOL    HW230149   6.685   0.958   4.144  1.1489  2.0489 -0.3748
 9777SOL     OW30150   1.137   6.890   3.789 -0.3091 -0.3176  0.1281
 9777SOL    HW130151   1.101   6.912   3.698  0.8688 -0.0351 -0.2869
 9777SOL    HW230152   1.205   6.817   3.781  0.3083  0.1855  0.6950
 9778SOL     OW30153   1.395   2.102   4.709  0.3245 -0.1538 -0.0472
 9778SOL    HW130154   1.421   2.124   4.804 -1.0805  2.2845 -0.1431
 9778SOL    HW230155   1.338   2.020   4.709 -0.1587  0.1514  1.2991
 9779SOL     OW30156   1.508   6.876   6.915  0.1321 -0.7735 -0.5171
 9779SOL    HW130157   1.535   6.880   6.818  0.8741  0.1433 -0.2924
 9779SOL    HW230158   1.425   6.930   6.928  1.4069  1.2806 -0.2537
 9780SOL     OW30159   6.742   6.526   2.447  0.3875  0.4047 -0.1172
 9780SOL    HW130160   6.659   6.473   2.462 -0.6714  2.1963  0.7195
 9780SOL    HW230161   6.719   6.615   2.409  2.0855  0.3842 -1.2984
 9781SOL     OW30162   5.868   5.438   6.889 -1.0214 -0.1506 -0.2970
 9781SOL    HW130163   5.947   5.467   6.943 -1.8410  1.5886  0.0107
 9781SOL    HW230164   5.899   5.410   6.798 -0.0173  0.0974 -0.0470
 9782SOL     OW30165   4.622   4.823   5.312 -0.3929  0.0462 -0.6135
 9782SOL    HW130166   4.595   4.728   5.298  0.1267 -0.3685  1.0046
 9782SOL    HW230167   4.548   4.872   5.359  0.4779 -0.3818  1.3158
 9783SOL     OW30168   3.693   3.041   2.517  0.8050  0.0138  0.1036
 9783SOL    HW130169   3.669   3.129   2.558  2.9571  0.0380  1.4285
 9783SOL    HW230170   3.762   2.995   2.573  1.3885 -1.5134 -1.7457
 9784SOL     OW30171   0.624   5.841   4.844  0.0737 -0.3153  0.0168
 9784SOL    HW130172   0.606   5.888   4.758  3.0811  0.3407 -0.3567
 9784SOL    HW230173   0.616   5.906   4.920 -3.3835 -1.0645  0.4674
 9785SOL     OW30174   2.078   6.661   1.494 -0.0828 -1.0273  0.2446
 9785SOL    HW130175   2.168   6.698   1.470 -0.2137 -1.6765 -1.4767
 9785SOL    HW230176   2.006   6.723   1.462 -0.2608 -1.5201 -0.3410
 9786SOL     OW30177   5.381   4.798   7.010  0.5724 -0.2126 -0.0288
 9786SOL    HW130178   5.307   4.807   7.076  1.2785  0.0801  0.7372
 9786SOL    HW230179   5.358   4.729   6.942 -0.7670  0.4585 -0.2674
 9787SOL     OW30180   0.159   1.053   5.791 -0.2708  0.6290 -0.6877
 9787SOL    HW130181   0.119   1.135   5.748  2.0519  1.6572 -1.0584
 9787SOL    HW230182   0.234   1.020   5.734  0.6398 -0.0734  0.8808
 9788SOL     OW30183   3.418   4.642   6.162 -0.0310 -0.2973 -0.5750
 9788SOL    HW130184   3.472   4.603   6.087  1.6744 -1.0384  0.9337
 9788SOL    HW230185   3.472   4.711   6.210 -0.8856 -0.1894  0.2584
 9789SOL     OW30186   0.093   6.120   2.481  0.1808  0.3395  0.1420
 9789SOL    HW130187   0.088   6.099   2.383 -0.6632 -1.4128  0.5181
 9789SOL    HW230188   0.064   6.215   2.496  0.8624  0.8282 -1.3389
 9790SOL     OW30189   2.655   6.085   3.111 -0.5130  0.0429 -0.0983
 9790SOL    HW130190   2.647   6.048   3.019  0.7084 -2.1877  0.6361
 9790SOL    HW230191   2.726   6.156   3.112  0.3599 -0.8101 -0.6214
 9791SOL     OW30192   1.907   0.852   4.194  0.2031  0.2642 -0.1147
 9791SOL    HW130193   1.809   0.847   4.173  0.1343 -1.9569  0.5041
 9791SOL    HW230194   1.929   0.944   4.226 -1.9417  0.4957  0.8346
 9792SOL     OW30195   5.458   2.193   5.637 -0.5365  0.4994 -0.1107
 9792SOL    HW130196   5.520   2.118   5.658  0.6924  1.0281 -1.6744
 9792SOL    HW230197   5.509   2.280   5.640 -1.8416  1.2628  1.3127
 9793SOL     OW30198   6.826   6.093   5.153  0.1110  0.0948 -0.6315
 9793SOL    HW130199   6.836   6.147   5.237  2.4938  1.4812 -1.7179
 9793SOL    HW230200   6.759   6.137   5.093 -1.4722 -0.8059  0.4221
 9794SOL     OW30201   5.494   3.506   0.454 -0.0662 -0.1210  0.3047
 9794SOL    HW130202   5.536   3.597   0.462 -0.3737 -0.0125  0.7857
 9794SOL    HW230203   5.554   3.437   0.494  0.7306 -0.3131 -1.1904
 9795SOL     OW30204   2.600   4.966   0.911  0.5907 -0.3659  0.2912
 9795SOL    HW130205   2.550   5.052   0.923 -0.2564 -0.7385 -0.4612
 9795SOL    HW230206   2.698   4.985   0.902  0.3371  0.5935 -0.6869
 9796SOL     OW30207   6.595   3.843   2.489  0.4090  0.0300  0.2264
 9796SOL    HW130208   6.639   3.932   2.479  1.4691 -0.6410 -1.5370
 9796SOL    HW230209   6.662   3.771   2.472 -0.7950 -1.0967  0.1038
 9797SOL     OW30210   2.897   3.207   5.534  0.1578 -0.1076  0.4600
 9797SOL    HW130211   2.862   3.209   5.627  2.2726  0.2653  1.2850
 9797SOL    HW230212   2.870   3.291   5.486  1.1206  0.8633  1.5544
 9798SOL     OW30213   0.204   5.694   4.228 -0.7488  0.2000 -0.4314
 9798SOL    HW130214   0.225   5.750   4.308 -0.8264 -0.1451 -0.1635
 9798SOL    HW230215   0.114   5.718   4.193 -1.2521 -0.5154  0.3470
 9799SOL     OW30216   6.144   4.640   5.371 -0.5771 -0.2139  0.0761
 9799SOL    HW130217   6.162   4.543   5.358  0.1358 -0.1731  0.6798
 9799SOL    HW230218   6.105   4.679   5.287 -1.6639 -1.1897  0.1089
 9800SOL     OW30219   0.787   4.005   3.752  0.1852  0.4359  0.1614
 9800SOL    HW130220   0.854   3.998   3.826  1.9145 -1.1293 -1.4433
 9800SOL    HW230221   0.695   4.018   3.790  1.0163 -0.2947  2.5484
 9801SOL     OW30222   4.302   0.179   2.001 -0.0382  0.3638  0.6214
 9801SOL    HW130223   4.214   0.157   1.958  0.2160  0.5254  0.0057
 9801SOL    HW230224   4.375   0.128   1.955  0.5085  2.1384 -0.5705
 9802SOL     OW30225   1.754   5.745   2.179  0.5130  0.0115  0.1588
 9802SOL    HW130226   1.828   5.718   2.241 -0.3301  0.7689  1.5377
 9802SOL    HW230227   1.788   5.745   2.085  2.3732  0.6731  0.7869
 9803SOL     OW30228   0.243   0.479   6.471 -0.6545  0.2051 -0.4151
 9803SOL    HW130229   0.159   0.519   6.506 -0.5844 -0.5574  0.6842
 9803SOL    HW230230   0.262   0.393   6.519  1.9403  1.4664  1.0629
 9804SOL     OW30231   1.298   5.892   1.737  0.4336 -0.4474 -0.0816
 9804SOL    HW130232   1.270   5.812   1.685 -0.0911 -0.4414  0.1815
 9804SOL    HW230233   1.231   5.909   1.810 -2.5783  3.4032 -3.2975
 9805SOL     OW30234   1.559   2.503   0.766 -0.0071 -0.1380  0.3644
 9805SOL    HW130235   1.503   2.528   0.687 -0.0482  0.6681  0.6429
 9805SOL    HW230236   1.627   2.574   0.782  1.0000 -1.0225  0.1340
 9806SOL     OW30237   5.413   2.309   3.912 -0.5569  0.3211 -0.0817
 9806SOL    HW130238   5.410   2.333   4.009  1.2131 -1.4120  0.4760
 9806SOL    HW230239   5.368   2.381   3.858 -2.3307  0.9156  2.0554
 9807SOL     OW30240   4.093   3.240   4.715  0.4739  0.1714 -0.0467
 9807SOL    HW130241   4.023   3.237   4.643  0.4853 -1.3106 -0.0321
 9807SOL    HW230242   4.100   3.150   4.758  2.8210  0.0996 -0.4726
 9808SOL     OW30243   0.024   0.058   6.915 -0.0258  0.4472 -0.0003
 9808SOL    HW130244   0.076  -0.016   6.956 -0.3238  1.3341  2.0139
 9808SOL    HW230245  -0.010   0.028   6.825  0.6149 -1.4959  0.3460
 9809SOL     OW30246   6.476   6.480   6.947 -0.0605  0.2701  0.3381
 9809SOL    HW130247   6.427   6.395   6.926  0.3060  0.1376 -0.0182
 9809SOL    HW230248   6.414   6.558   6.938  0.5321  0.4768 -3.6552
 9810SOL     OW30249   1.719   5.542   3.304 -0.1087  0.5779  0.2499
 9810SOL    HW130250   1.724   5.521   3.207  0.9813  1.6949  0.0357
 9810SOL    HW230251   1.769   5.627   3.323 -1.7903  1.3732  1.5069
 9811SOL     OW30252   1.706   1.208   4.047  0.0330 -0.1453  0.1886
 9811SOL    HW130253   1.736   1.235   4.138  4.1715  0.5877 -1.1886
 9811SOL    HW230254   1.644   1.279   4.011 -0.5972  0.2102  1.8562
 9812SOL     OW30255   2.124   3.416   6.815  0.2230 -0.2902  0.0955
 9812SOL    HW130256   2.087   3.373   6.734 -0.2395  0.2377  0.0196
 9812SOL    HW230257   2.221   3.391   6.825  0.4397  0.1158 -0.9400
 9813SOL     OW30258   6.800   4.368   2.894 -0.1881 -0.3004 -0.1940
 9813SOL    HW130259   6.719   4.424   2.910 -0.8462 -0.5020 -2.4389
 9813SOL    HW230260   6.812   4.354   2.796  2.6011 -0.2707  0.0801
 9814SOL     OW30261   2.857   0.108   3.514 -0.6895 -0.2491 -0.3854
 9814SOL    HW130262   2.840   0.202   3.543 -0.0683 -0.9453  2.5516
 9814SOL    HW230263   2.953   0.099   3.487 -1.1126  0.2411 -2.2966
 9815SOL     OW30264   0.199   2.447   5.573  0.2976  0.4438  0.7991
 9815SOL    HW130265   0.125   2.393   5.534 -0.1555  1.8292 -0.3502
 9815SOL    HW230266   0.164   2.501   5.649 -0.5274  2.8471 -1.1690
 9816SOL     OW30267   5.088   1.013   5.037 -0.0908  0.8405  0.2987
 9816SOL    HW130268   5.158   1.006   4.967 -0.1955  0.1574  0.2602
 9816SOL    HW230269   5.065   1.109   5.051 -0.6511  0.9562 -1.1901
 9817SOL     OW30270   3.272   5.335   5.710  0.7883  0.0669 -0.6975
 9817SOL    HW130271   3.276   5.379   5.801  1.6194  0.2067 -0.7857
 9817SOL    HW230272   3.266   5.236   5.721  0.0371  0.1309 -0.4932
 9818SOL     OW30273   1.416   0.239   1.284  0.3011 -0.5059 -0.3886
 9818SOL    HW130274   1.335   0.229   1.341 -0.9351 -1.4292 -2.2287
 9818SOL    HW230275   1.463   0.150   1.276  1.2009 -0.0994  0.2171
 9819SOL     OW30276   5.470   5.571   2.304  0.1652  0.2569  0.9136
 9819SOL    HW130277   5.407   5.648   2.301  0.2191  0.2811  0.4340
 9819SOL    HW230278   5.418   5.486   2.313  0.0679  0.2883  0.6749
 9820SOL     OW30279   0.704   6.213   1.575  0.2749 -0.0730  0.9089
 9820SOL    HW130280   0.639   6.239   1.503  0.6182 -1.6522 -0.0316
 9820SOL    HW230281   0.776   6.282   1.580  0.3304  0.0123 -0.3933
 9821SOL     OW30282   6.730   6.263   1.753  0.2155 -0.5016 -0.5002
 9821SOL    HW130283   6.787   6.248   1.834 -0.9965 -0.1930  0.4415
 9821SOL    HW230284   6.694   6.175   1.721  1.1769 -0.6930 -1.0768
 9822SOL     OW30285   5.618   2.717   4.215  0.0921  0.2458  0.4634
 9822SOL    HW130286   5.581   2.698   4.123  0.2605  0.1831  0.4081
 9822SOL    HW230287   5.574   2.798   4.252  0.0932  0.3289  0.2860
 9823SOL     OW30288   2.067   4.572   1.450  0.6918  0.1627 -0.0507
 9823SOL    HW130289   2.149   4.516   1.449  0.3515 -0.3430 -1.0434
 9823SOL    HW230290   2.069   4.636   1.373 -0.2731 -0.5274 -0.6894
 9824SOL     OW30291   0.763   5.302   3.536  0.0952 -0.1007  0.6764
 9824SOL    HW130292   0.762   5.382   3.596 -0.0391  1.3577 -1.1853
 9824SOL    HW230293   0.853   5.259   3.541  0.0892 -0.0224  1.8888
 9825SOL     OW30294   3.024   1.451   3.478 -0.1983  0.2487  0.3474
 9825SOL    HW130295   3.034   1.463   3.379  0.5740  0.4560  0.4396
 9825SOL    HW230296   3.095   1.505   3.525  0.4011 -1.0285  0.9581
 9826SOL     OW30297   6.943   2.390   2.421 -0.7042 -0.0343  0.0961
 9826SOL    HW130298   6.880   2.354   2.352 -0.1234  0.9387 -0.9748
 9826SOL    HW230299   6.909   2.366   2.512 -2.7326  0.6352 -0.4252
 9827SOL     OW30300   1.540   4.027   1.285 -0.8705 -0.6795 -0.3926
 9827SOL    HW130301   1.571   4.121   1.269 -0.3462 -1.0436 -1.6835
 9827SOL    HW230302   1.600   3.983   1.352 -2.0554  0.3581  1.4196
 9828SOL     OW30303   4.290   6.817   6.296  0.1055 -0.0573  0.0313
 9828SOL    HW130304   4.336   6.904   6.277  3.2924 -1.9689 -1.8651
 9828SOL    HW230305   4.348   6.761   6.355 -1.1483 -1.5664 -0.0806
 9829SOL     OW30306   4.786   2.820   5.517  0.0588 -0.2485  0.5188
 9829SOL    HW130307   4.755   2.801   5.610 -3.6351  0.6423 -0.3673
 9829SOL    HW230308   4.837   2.906   5.517 -0.0889 -0.1336  1.6915
 9830SOL     OW30309   2.465   2.764   1.214 -0.5657  0.2311 -0.3267
 9830SOL    HW130310   2.487   2.858   1.242 -1.1538  0.4756 -0.6534
 9830SOL    HW230311   2.509   2.699   1.276 -0.8109  0.7385  0.4023
 9831SOL     OW30312   3.874   1.958   6.915  0.1189 -0.5936 -0.2717
 9831SOL    HW130313   3.965   1.985   6.945  0.5580 -1.6820 -0.5696
 9831SOL    HW230314   3.866   1.858   6.920 -0.8501 -0.5539 -0.8313
 9832SOL     OW30315   0.427   0.817   4.353 -0.0305 -0.2238 -0.0143
 9832SOL    HW130316   0.420   0.816   4.453  0.2383 -0.5433  0.0029
 9832SOL    HW230317   0.520   0.792   4.326 -0.2294 -0.6052 -0.3563
 9833SOL     OW30318   6.016   4.334   5.996 -0.2623 -0.3363 -0.6023
 9833SOL    HW130319   6.058   4.249   6.029  0.5938 -1.0816 -3.3156
 9833SOL    HW230320   6.083   4.408   6.001  0.5180 -0.8703 -2.2349
 9834SOL     OW30321   5.300   0.404   0.291  0.0019 -0.1643  0.0060
 9834SOL    HW130322   5.376   0.460   0.325 -0.6678  1.7500 -1.4346
 9834SOL    HW230323   5.263   0.445   0.208 -2.3935 -1.2085  0.4462
 9835SOL     OW30324   5.421   2.825   3.091 -0.3151  0.8319  0.2031
 9835SOL    HW130325   5.399   2.922   3.080 -2.7396  0.3472  0.0905
 9835SOL    HW230326   5.503   2.815   3.148 -0.1089  2.9216  0.3505
 9836SOL     OW30327   4.958   2.943   0.768  0.1048  1.0026 -0.1423
 9836SOL    HW130328   4.873   2.968   0.722  0.1807 -0.1143 -0.9288
 9836SOL    HW230329   5.027   2.918   0.699 -0.0796 -1.6556  0.5384
 9837SOL     OW30330   0.382   3.912   1.288  0.1882 -0.2070  0.3240
 9837SOL    HW130331   0.453   3.842   1.280 -0.8898 -1.4239  1.0361
 9837SOL    HW230332   0.350   3.938   1.196  1.0471 -0.1596  0.0307
 9838SOL     OW30333   6.004   6.795   1.139 -0.1637  0.8848  0.0597
 9838SOL    HW130334   6.001   6.700   1.107 -1.6666  0.4145  1.4712
 9838SOL    HW230335   5.972   6.856   1.066  0.9809  0.3559 -0.9196
 9839SOL     OW30336   4.676   6.206   6.150 -0.2079 -0.0955 -0.2591
 9839SOL    HW130337   4.644   6.132   6.208 -0.7809  0.7536  0.5331
 9839SOL    HW230338   4.699   6.170   6.059  1.7350 -1.6629  0.7476
 9840SOL     OW30339   5.931   4.737   4.024 -0.1097 -0.0326  0.2002
 9840SOL    HW130340   6.028   4.719   4.014 -0.0599  1.2030 -2.4596
 9840SOL    HW230341   5.912   4.769   4.117  1.9339 -0.5343  0.8441
 9841SOL     OW30342   3.698   4.024   6.806  0.2184 -0.4640  0.4159
 9841SOL    HW130343   3.709   3.954   6.736  0.2622  0.2389 -0.3054
 9841SOL    HW230344   3.612   4.010   6.855 -0.4734 -0.1964 -0.6927
 9842SOL     OW30345   5.423   6.111   4.890 -0.3442 -0.6850 -0.5181
 9842SOL    HW130346   5.334   6.157   4.894 -0.3489 -0.7576  0.4145
 9842SOL    HW230347   5.453   6.088   4.982 -0.5360 -2.9268 -0.9610
 9843SOL     OW30348   5.698   5.598   3.835  0.4621  0.6300  0.0713
 9843SOL    HW130349   5.722   5.612   3.931 -2.6687  0.5961  0.9658
 9843SOL    HW230350   5.654   5.680   3.800 -1.4704 -0.4673 -0.2322
 9844SOL     OW30351   0.714   1.762   6.413 -0.6296  0.2721 -0.3767
 9844SOL    HW130352   0.704   1.707   6.330 -1.0353  2.1410 -1.6107
 9844SOL    HW230353   0.626   1.803   6.437 -0.5269 -0.2430  1.0334
 9845SOL     OW30354   2.705   4.689   3.171 -0.2515 -0.2738 -0.0537
 9845SOL    HW130355   2.725   4.745   3.091 -0.2908 -1.6652 -1.0539
 9845SOL    HW230356   2.667   4.748   3.243  0.7638  1.1713 -0.6506
 9846SOL     OW30357   1.558   2.667   5.935 -0.2898  0.2645 -0.1521
 9846SOL    HW130358   1.554   2.569   5.959 -0.6179  0.0686 -0.9952
 9846SOL    HW230359   1.465   2.704   5.935 -0.3566  0.1412 -1.5851
 9847SOL     OW30360   1.203   4.905   5.468 -0.2115 -0.0609 -0.7186
 9847SOL    HW130361   1.115   4.944   5.442 -0.1884 -0.3968 -1.3280
 9847SOL    HW230362   1.261   4.897   5.387  0.6840  0.9141 -0.1981
 9848SOL     OW30363   6.946   3.048   6.336  0.3173 -0.7531  0.1374
 9848SOL    HW130364   7.017   3.001   6.284 -0.6779 -0.7841 -1.2296
 9848SOL    HW230365   6.959   3.030   6.434  1.1042 -2.2721 -0.2167
 9849SOL     OW30366   5.038   5.101   5.952 -0.0015 -0.2286  0.1238
 9849SOL    HW130367   5.097   5.067   5.880 -0.4575 -0.8101  0.0063
 9849SOL    HW230368   4.964   5.035   5.969 -0.6289  0.4798  0.2325
 9850SOL     OW30369   3.331   1.329   2.215 -0.2040  0.4247 -0.1313
 9850SOL    HW130370   3.374   1.413   2.182  0.2353 -0.0254 -0.7439
 9850SOL    HW230371   3.232   1.343   2.225 -0.2455  0.7640 -1.0250
 9851SOL     OW30372   0.188   5.808   2.484  0.3532 -0.1594 -0.0698
 9851SOL    HW130373   0.093   5.838   2.476  0.1080 -0.9635 -0.3220
 9851SOL    HW230374   0.196   5.740   2.556  1.0550  1.0883  1.0840
 9852SOL     OW30375   2.077   1.090   6.564 -0.0409  0.2857 -0.0170
 9852SOL    HW130376   2.097   0.993   6.550 -1.7441 -0.1047  0.0317
 9852SOL    HW230377   2.162   1.141   6.571  0.9142 -1.3928  1.3145
 9853SOL     OW30378   2.099   1.456   6.704 -0.4658  0.0052  0.2458
 9853SOL    HW130379   2.115   1.532   6.641  1.7356  2.1469  3.1086
 9853SOL    HW230380   2.001   1.435   6.707 -1.0089  1.9880 -1.4352
 9854SOL     OW30381   0.726   3.991   6.687  0.2014  0.3944  0.3539
 9854SOL    HW130382   0.816   3.978   6.729  0.9031  0.6719 -0.9894
 9854SOL    HW230383   0.716   3.927   6.610 -1.6882 -1.2304  1.8312
 9855SOL     OW30384   0.879   1.116   2.216  0.2313 -0.3279 -0.7547
 9855SOL    HW130385   0.836   1.097   2.305 -1.1230  0.4327 -1.2189
 9855SOL    HW230386   0.979   1.106   2.225  0.1840  0.3133  1.0029
 9856SOL     OW30387   6.603   6.470   1.295 -0.1873  0.3040 -0.0643
 9856SOL    HW130388   6.520   6.504   1.340  0.9310  1.0559  1.5000
 9856SOL    HW230389   6.636   6.390   1.344 -0.2613 -0.3198 -1.0061
 9857SOL     OW30390   1.675   4.284   1.266 -0.2843  0.3304 -0.4020
 9857SOL    HW130391   1.659   4.347   1.341  1.2610  1.8279 -1.2763
 9857SOL    HW230392   1.647   4.327   1.180 -0.1382 -0.5595 -0.9120
 9858SOL     OW30393   2.480   2.732   5.762  0.1785  0.3344  0.0773
 9858SOL    HW130394   2.442   2.759   5.674 -0.0396  1.6444  0.5549
 9858SOL    HW230395   2.543   2.656   5.749 -0.7398 -0.2775 -1.0570
 9859SOL     OW30396   3.651   3.844   1.689 -0.5393  0.1288  0.2117
 9859SOL    HW130397   3.681   3.939   1.681 -0.6863  0.1509 -0.1226
 9859SOL    HW230398   3.552   3.839   1.677 -0.7138  0.0902  1.5656
 9860SOL     OW30399   6.382   5.248   3.673  0.3106 -0.2376  0.0153
 9860SOL    HW130400   6.312   5.314   3.701  0.4420  0.1236 -0.4976
 9860SOL    HW230401   6.463   5.259   3.731 -0.2873 -1.0964  1.0417
 9861SOL     OW30402   4.513   1.108   3.303 -0.1196  0.4639  0.1705
 9861SOL    HW130403   4.608   1.140   3.305  0.5552 -1.4456 -0.0075
 9861SOL    HW230404   4.482   1.102   3.208 -0.5418  1.3874  0.2406
 9862SOL     OW30405   4.404   4.156   5.552  0.1967 -0.2150 -0.7303
 9862SOL    HW130406   4.407   4.114   5.461  0.3853  0.1222 -0.8867
 9862SOL    HW230407   4.372   4.250   5.543 -1.6076 -0.7574 -0.2136
 9863SOL     OW30408   2.543   2.162   0.472 -0.0998 -0.1056 -0.2731
 9863SOL    HW130409   2.601   2.116   0.539 -0.6406 -0.2062  0.1368
 9863SOL    HW230410   2.447   2.147   0.495 -0.2910  0.3701 -0.7227
 9864SOL     OW30411   5.110   2.584   5.698  0.1521  0.4069  0.0369
 9864SOL    HW130412   5.063   2.497   5.712  1.1069  0.1868  2.1077
 9864SOL    HW230413   5.099   2.641   5.778 -0.2303  2.1415 -1.1908
 9865SOL     OW30414   1.373   4.404   2.731 -0.2061  0.4173  0.2119
 9865SOL    HW130415   1.435   4.465   2.780  0.1724  1.3064 -1.3285
 9865SOL    HW230416   1.408   4.386   2.639 -1.3457 -0.4993 -0.0762
 9866SOL     OW30417   4.085   6.680   5.535 -0.0959  0.3276  0.7106
 9866SOL    HW130418   4.156   6.708   5.471  1.0235 -0.7680  1.4395
 9866SOL    HW230419   4.031   6.606   5.495  0.9223 -0.7023  1.2088
 9867SOL     OW30420   5.456   1.841   5.918 -0.6198 -0.0689 -0.5414
 9867SOL    HW130421   5.410   1.874   6.001 -2.3620  0.2257 -1.5805
 9867SOL    HW230422   5.528   1.777   5.944 -1.1330 -0.0074  1.1986
 9868SOL     OW30423   2.606   5.337   5.316  0.2948  0.1303  0.2983
 9868SOL    HW130424   2.532   5.397   5.285  0.7169 -0.0903 -1.1750
 9868SOL    HW230425   2.613   5.343   5.416 -1.1564  0.8030  0.3984
 9869SOL     OW30426   3.592   4.001   4.765  0.0293 -0.0534 -0.2518
 9869SOL    HW130427   3.610   4.098   4.752  0.0634 -0.0359 -0.0881
 9869SOL    HW230428   3.648   3.948   4.702  0.8165 -0.0146  0.4004
 9870SOL     OW30429   2.647   6.707   4.324 -0.1367 -0.0340  0.3946
 9870SOL    HW130430   2.622   6.610   4.324 -0.4904  0.0405 -0.7977
 9870SOL    HW230431   2.623   6.748   4.412 -0.9647 -0.7914  0.5266
 9871SOL     OW30432   6.278   5.029   4.251  0.0254 -0.0750  0.4689
 9871SOL    HW130433   6.294   4.935   4.281  0.7144  0.3996  1.6662
 9871SOL    HW230434   6.354   5.087   4.280 -2.0496  1.5806  3.1719
 9872SOL     OW30435   5.221   2.110   2.988 -0.1473 -0.1619  0.0940
 9872SOL    HW130436   5.132   2.149   3.010 -0.7400 -2.1985  1.5075
 9872SOL    HW230437   5.246   2.042   3.057  3.0150  1.1139  0.3438
 9873SOL     OW30438   4.649   5.649   4.138  0.0565  0.6843 -0.0359
 9873SOL    HW130439   4.706   5.607   4.068 -0.2221  2.8400 -1.6328
 9873SOL    HW230440   4.556   5.613   4.133  0.6728 -1.1765  1.0940
 9874SOL     OW30441   3.383   4.921   4.330 -0.2150  0.0663  0.2031
 9874SOL    HW130442   3.475   4.892   4.356 -0.4732 -3.3618 -2.0640
 9874SOL    HW230443   3.389   5.001   4.270  1.1325  0.7844  1.2453
 9875SOL     OW30444   1.527   6.667   3.186  0.3718 -0.3859  0.0976
 9875SOL    HW130445   1.621   6.631   3.180 -0.2193 -2.1148  0.6352
 9875SOL    HW230446   1.526   6.747   3.247  1.2194 -1.4865  1.6391
 9876SOL     OW30447   6.696   2.245   0.886  0.5135  0.3037  0.3444
 9876SOL    HW130448   6.734   2.290   0.805 -0.5899  2.7211  1.0949
 9876SOL    HW230449   6.708   2.303   0.966 -0.1737 -1.1686  1.5785
 9877SOL     OW30450   4.194   3.143   1.052 -0.3523  0.6261 -0.0128
 9877SOL    HW130451   4.100   3.177   1.043 -0.6149 -0.3023 -1.1198
 9877SOL    HW230452   4.193   3.043   1.055  0.4094  0.6105  2.8535
 9878SOL     OW30453   2.401   4.201   5.085 -0.5341 -0.0370 -0.2808
 9878SOL    HW130454   2.346   4.284   5.097 -1.3712 -0.3805 -1.5660
 9878SOL    HW230455   2.356   4.140   5.020  0.8636 -0.7944 -0.5766
 9879SOL     OW30456   6.704   7.000   4.415  0.0838  0.0685  0.4940
 9879SOL    HW130457   6.706   7.073   4.483  2.5400  2.4807 -1.9261
 9879SOL    HW230458   6.793   6.955   4.411 -0.8241 -1.8386  0.6107
 9880SOL     OW30459   5.198   6.786   0.689  0.3035 -0.5176 -0.1089
 9880SOL    HW130460   5.237   6.718   0.751  3.5297 -0.4190 -1.8836
 9880SOL    HW230461   5.223   6.878   0.720  1.2004 -0.4332 -1.0335
 9881SOL     OW30462   0.483   0.020   4.728 -0.0372 -0.1001  0.6956
 9881SOL    HW130463   0.559   0.000   4.666 -0.2905 -0.1835  0.4187
 9881SOL    HW230464   0.500  -0.023   4.817 -0.3412 -1.1230  0.2623
 9882SOL     OW30465   2.958   5.440   3.771  0.0603 -0.3691 -0.0372
 9882SOL    HW130466   2.870   5.474   3.737 -0.3215 -0.2075  1.1014
 9882SOL    HW230467   3.022   5.517   3.776  0.1497 -0.4119 -0.4792
 9883SOL     OW30468   5.510   7.007   1.095  0.2634 -0.6477 -0.1230
 9883SOL    HW130469   5.449   6.977   1.168 -0.1048  1.7558  0.6231
 9883SOL    HW230470   5.587   7.058   1.134  1.2346 -1.1804 -1.2705
 9884SOL     OW30471   4.289   2.636   2.009  0.6323  0.0827  0.2030
 9884SOL    HW130472   4.341   2.653   2.092  0.5702 -0.8884  0.4507
 9884SOL    HW230473   4.222   2.709   1.995  0.6755  0.2727  0.9741
 9885SOL     OW30474   4.638   1.410   2.412 -0.5681  0.1893 -0.4233
 9885SOL    HW130475   4.563   1.347   2.392  0.2930 -1.0660  0.1089
 9885SOL    HW230476   4.685   1.380   2.495 -0.7061  2.1243  0.4080
 9886SOL     OW30477   4.896   6.378   0.453 -0.6435  0.7947 -0.0063
 9886SOL    HW130478   4.941   6.394   0.365  1.8043 -0.4253  0.9470
 9886SOL    HW230479   4.917   6.451   0.516  0.9408 -0.2849  0.7633
 9887SOL     OW30480   5.599   2.801   0.647  0.2282 -0.0837  0.0012
 9887SOL    HW130481   5.540   2.805   0.728  0.5300 -1.2367  0.3095
 9887SOL    HW230482   5.695   2.813   0.675  0.1343  2.9656 -0.6249
 9888SOL     OW30483   2.550   2.858   0.588 -0.0866  0.3268  0.1615
 9888SOL    HW130484   2.475   2.913   0.622 -1.0185  1.0083 -2.7540
 9888SOL    HW230485   2.515   2.786   0.528  1.3451 -1.7449  1.6781
 9889SOL     OW30486   5.137   3.280   5.304 -0.0184  0.0991 -0.2141
 9889SOL    HW130487   5.172   3.348   5.240 -1.6137  0.2404 -0.9856
 9889SOL    HW230488   5.114   3.323   5.391 -0.9566  0.5578 -0.6777
 9890SOL     OW30489   3.513   1.365   0.162  0.5742  0.5605 -0.2741
 9890SOL    HW130490   3.598   1.417   0.158  0.4622  1.0045  2.0042
 9890SOL    HW230491   3.527   1.283   0.216 -0.1667 -0.0031 -0.9053
 9891SOL     OW30492   3.054   6.918   6.667 -0.3780  0.1374 -0.0927
 9891SOL    HW130493   3.031   6.821   6.657 -0.2645  0.1753 -0.8173
 9891SOL    HW230494   3.070   6.939   6.763  1.3580 -0.9792 -0.1014
 9892SOL     OW30495   3.969   6.042   5.160 -0.5363 -0.1156 -0.0429
 9892SOL    HW130496   3.870   6.031   5.149 -0.3636  0.6951 -3.0134
 9892SOL    HW230497   3.987   6.093   5.244 -2.6100 -0.4417  0.6598
 9893SOL     OW30498   4.419   4.298   3.067 -0.1999  0.1949 -0.2209
 9893SOL    HW130499   4.364   4.224   3.028 -0.8228 -1.1883  2.9720
 9893SOL    HW230500   4.405   4.301   3.166  1.5943  3.1590  0.0489
 9894SOL     OW30501   3.281   5.892   2.134  0.8524  0.0175  0.0091
 9894SOL    HW130502   3.355   5.852   2.080  0.0541  1.4611 -2.3438
 9894SOL    HW230503   3.292   5.991   2.136  0.2956  0.0686  1.7341
 9895SOL     OW30504   0.053   0.892   4.707 -0.2219 -0.6047  0.6011
 9895SOL    HW130505   0.101   0.959   4.764  3.5895 -1.7184 -0.9197
 9895SOL    HW230506   0.083   0.800   4.733  0.1625 -1.2378 -1.8431
 9896SOL     OW30507   4.159   2.808   1.328  0.3167 -0.0904 -0.3015
 9896SOL    HW130508   4.192   2.830   1.236  0.6529 -0.1684 -0.2020
 9896SOL    HW230509   4.212   2.732   1.365 -0.4307 -0.6746 -0.4036
 9897SOL     OW30510   2.143   5.551   6.376 -0.2203 -0.0399  0.0963
 9897SOL    HW130511   2.070   5.568   6.310 -1.0690 -1.6876  0.5348
 9897SOL    HW230512   2.107   5.559   6.469 -0.0135 -1.3626  0.3228
 9898SOL     OW30513   0.960   5.311   6.841  0.3401 -0.0472  0.3633
 9898SOL    HW130514   0.923   5.362   6.764 -0.2720  1.1703  1.4379
 9898SOL    HW230515   0.889   5.300   6.911  1.6046  1.2395  1.9171
 9899SOL     OW30516   6.648   6.803   2.028  0.3272  0.8085 -0.4269
 9899SOL    HW130517   6.695   6.879   2.071  0.8182 -0.1198  0.7339
 9899SOL    HW230518   6.709   6.724   2.024 -0.7529 -0.0857  0.1129
 9900SOL     OW30519   5.647   0.525   5.738 -0.3291 -0.4593  0.0866
 9900SOL    HW130520   5.660   0.562   5.646  0.3621 -0.2080  0.2758
 9900SOL    HW230521   5.575   0.457   5.737  1.1563 -2.1029 -1.1236
 9901SOL     OW30522   3.821   4.333   0.767  0.5065  0.4152 -0.8302
 9901SOL    HW130523   3.781   4.286   0.846  0.5036 -1.1816 -1.7408
 9901SOL    HW230524   3.777   4.302   0.683  2.2654  0.1089 -1.6822
 9902SOL     OW30525   5.470   3.689   1.019  0.6139 -0.2515 -0.0762
 9902SOL    HW130526   5.416   3.613   1.055  0.8210 -0.1533  0.4438
 9902SOL    HW230527   5.556   3.696   1.069  1.6266 -1.1028 -1.6342
 9903SOL     OW30528   6.939   5.230   6.746 -0.1649  0.0325  0.2739
 9903SOL    HW130529   6.900   5.272   6.827  0.8523 -0.7350  1.1946
 9903SOL    HW230530   7.037   5.249   6.742 -0.6554  2.4296 -2.2996
 9904SOL     OW30531   0.813   3.040   5.595 -0.5766  0.0938 -0.2027
 9904SOL    HW130532   0.905   3.071   5.621 -0.1755 -0.0749 -1.3753
 9904SOL    HW230533   0.757   3.119   5.570 -1.0347  0.2808  1.3160
 9905SOL     OW30534   1.910   3.393   1.036 -0.0749 -0.8945 -0.0783
 9905SOL    HW130535   1.990   3.364   0.982  0.7216  1.1138 -0.0540
 9905SOL    HW230536   1.919   3.490   1.058 -1.1540 -1.2893  2.3510
 9906SOL     OW30537   2.266   5.004   1.930  0.0146  0.2262 -0.2716
 9906SOL    HW130538   2.170   5.023   1.951  0.3407  0.7745  0.7515
 9906SOL    HW230539   2.325   5.060   1.988  0.9669 -0.6397 -0.3755
 9907SOL     OW30540   4.149   0.946   0.887  0.0806 -0.1764 -0.1611
 9907SOL    HW130541   4.151   0.852   0.921 -0.8161 -0.3305 -0.5121
 9907SOL    HW230542   4.234   0.965   0.838 -0.0888 -1.1048 -0.8610
 9908SOL     OW30543   1.219   1.753   6.601  0.4784 -0.4685 -0.4540
 9908SOL    HW130544   1.218   1.773   6.699  0.9344  1.7202 -0.8484
 9908SOL    HW230545   1.128   1.725   6.571 -0.2543  1.1085  0.1956
 9909SOL     OW30546   6.753   1.600   0.394  0.3577  0.2167  0.0783
 9909SOL    HW130547   6.734   1.676   0.456  0.8611 -1.4010  2.3547
 9909SOL    HW230548   6.727   1.626   0.301  0.0781  2.9686  0.8198
 9910SOL     OW30549   1.734   5.483   0.362  0.1487  0.1266 -0.3776
 9910SOL    HW130550   1.759   5.416   0.292  1.6738 -0.1374  0.3576
 9910SOL    HW230551   1.750   5.575   0.327  0.3271  0.0207 -0.5791
 9911SOL     OW30552   2.487   5.113   4.884  0.1793 -0.6112 -0.4846
 9911SOL    HW130553   2.402   5.061   4.873 -0.0724 -0.2581 -0.2547
 9911SOL    HW230554   2.470   5.190   4.946  0.4382 -0.0118 -1.1501
 9912SOL     OW30555   2.015   3.775   4.548  0.2323  0.2274  0.6052
 9912SOL    HW130556   2.003   3.775   4.648  0.0393 -0.6308  0.5946
 9912SOL    HW230557   2.084   3.842   4.523 -0.3525  1.0971  1.2329
 9913SOL     OW30558   5.691   1.170   2.116  0.3633  0.0818  0.0312
 9913SOL    HW130559   5.601   1.142   2.149  0.3825 -0.7458 -0.6018
 9913SOL    HW230560   5.761   1.149   2.185  0.2609 -0.6405 -0.0816
 9914SOL     OW30561   1.798   6.739   5.129  0.1631  0.2289 -0.2620
 9914SOL    HW130562   1.779   6.730   5.031 -1.1182  2.4750 -0.3041
 9914SOL    HW230563   1.726   6.794   5.171 -0.0067 -1.7605  2.2423
 9915SOL     OW30564   1.675   1.466   4.728 -0.3629 -0.1554 -0.2182
 9915SOL    HW130565   1.772   1.474   4.751 -0.7601  1.3090  1.0272
 9915SOL    HW230566   1.624   1.433   4.808 -0.9915 -0.3281 -0.6798
 9916SOL     OW30567   6.244   5.983   0.933 -0.4332  0.2472  0.1454
 9916SOL    HW130568   6.267   6.052   0.865  0.2503  0.8067  0.9222
 9916SOL    HW230569   6.179   6.021   0.999  0.1311  0.2362  0.7140
 9917SOL     OW30570   4.501   1.354   3.515 -0.4860 -0.2104 -0.0243
 9917SOL    HW130571   4.597   1.364   3.542 -0.7183  0.6881  0.5671
 9917SOL    HW230572   4.492   1.363   3.416  0.1129 -0.9493 -0.1454
 9918SOL     OW30573   1.059   6.449   3.832 -0.0359 -0.2914 -0.4034
 9918SOL    HW130574   1.012   6.489   3.910 -0.5082  0.9857 -1.3092
 9918SOL    HW230575   0.994   6.431   3.758  0.4698 -1.0559 -0.6918
 9919SOL     OW30576   6.079   0.015   4.815 -0.0216 -0.1790 -0.1080
 9919SOL    HW130577   5.979   0.012   4.808 -0.0632  0.0742  0.3164
 9919SOL    HW230578   6.112  -0.068   4.861  0.2613 -1.6939 -2.8575
 9920SOL     OW30579   5.841   3.576   5.807  0.4424 -0.1733  0.1610
 9920SOL    HW130580   5.756   3.595   5.759  0.6932  0.7487  0.0491
 9920SOL    HW230581   5.898   3.658   5.806  0.5875 -0.2130  1.7681
 9921SOL     OW30582   1.356   2.815   4.310 -0.7869  0.0513 -0.9664
 9921SOL    HW130583   1.430   2.878   4.336  0.4700 -1.5567 -0.3588
 9921SOL    HW230584   1.370   2.785   4.216  0.1967 -1.3377 -0.4044
 9922SOL     OW30585   6.848   3.162   3.896 -0.0610  0.3512  0.0925
 9922SOL    HW130586   6.828   3.084   3.955  0.9747  0.4195  0.5517
 9922SOL    HW230587   6.943   3.191   3.910 -0.3563  1.5457 -0.2325
 9923SOL     OW30588   3.181   0.914   1.662 -0.5155 -0.0957  0.0909
 9923SOL    HW130589   3.204   0.881   1.571 -0.4258 -1.3886  0.5677
 9923SOL    HW230590   3.263   0.914   1.720 -0.2692  1.9974 -0.1805
 9924SOL     OW30591   0.181   1.972   6.430 -0.0863  0.4927 -0.0016
 9924SOL    HW130592   0.141   1.917   6.503  2.0226 -0.1680  0.7420
 9924SOL    HW230593   0.143   1.943   6.342 -0.9566 -0.3185  0.6196
 9925SOL     OW30594   2.722   3.150   6.056  0.3920 -0.2795 -0.3806
 9925SOL    HW130595   2.667   3.205   6.119  1.4084  0.6788 -0.2885
 9925SOL    HW230596   2.709   3.053   6.076 -1.5646 -0.1076 -0.6386
 9926SOL     OW30597   0.363   2.169   0.298  0.0576 -0.2238  0.1942
 9926SOL    HW130598   0.270   2.131   0.300 -0.0783  0.1115  0.4139
 9926SOL    HW230599   0.426   2.102   0.259 -0.6781  0.4556 -2.3290
 9927SOL     OW30600   0.344   3.603   3.403  0.1722  0.1899 -0.2971
 9927SOL    HW130601   0.268   3.623   3.464  0.9568  0.7041  0.5380
 9927SOL    HW230602   0.415   3.674   3.413 -0.9694  2.1431 -4.0661
 9928SOL     OW30603   2.494   4.413   5.336  0.0924 -0.0453 -0.4906
 9928SOL    HW130604   2.496   4.328   5.388 -0.4682 -0.4449 -1.0982
 9928SOL    HW230605   2.462   4.487   5.394  0.4490 -0.2728  0.0050
 9929SOL     OW30606   0.118   5.500   2.104  0.0154 -0.7119 -0.4772
 9929SOL    HW130607   0.163   5.412   2.119  0.2655 -0.5828 -0.4677
 9929SOL    HW230608   0.139   5.561   2.181  1.8389  0.1896 -1.6092
 9930SOL     OW30609   1.071   3.342   1.036  0.3861 -0.2129 -0.1511
 9930SOL    HW130610   1.084   3.245   1.017  0.8866 -0.2517  0.3489
 9930SOL    HW230611   1.022   3.353   1.122  0.8094 -0.0274  0.0730
 9931SOL     OW30612   5.900   5.724   0.360 -0.2827 -0.3199  0.1569
 9931SOL    HW130613   5.820   5.749   0.306  0.7198 -0.6244 -1.5331
 9931SOL    HW230614   5.883   5.637   0.406 -0.8908 -0.4342 -0.2732
 9932SOL     OW30615   5.242   5.654   6.058  0.1880  0.1333  0.5551
 9932SOL    HW130616   5.229   5.557   6.080  2.6940 -0.2873  0.5846
 9932SOL    HW230617   5.330   5.685   6.096  0.8592  1.5949 -1.9618
 9933SOL     OW30618   0.661   3.930   5.147 -0.5230 -0.5815  0.1900
 9933SOL    HW130619   0.746   3.954   5.100 -1.5086 -0.6519 -1.7389
 9933SOL    HW230620   0.683   3.877   5.229  1.3387  0.7359  0.6127
 9934SOL     OW30621   3.092   1.800   6.966 -0.9736 -0.6652  0.6293
 9934SOL    HW130622   3.133   1.723   7.015  0.7127 -0.8386 -0.9443
 9934SOL    HW230623   3.105   1.787   6.868 -1.1139  1.3302  0.2941
 9935SOL     OW30624   1.492   6.226   6.692  0.2757  0.4396  0.8740
 9935SOL    HW130625   1.408   6.218   6.746  0.5007  0.7902  1.2719
 9935SOL    HW230626   1.524   6.135   6.667 -0.7262  0.3124 -0.0566
 9936SOL     OW30627   5.590   3.009   1.867 -0.0829  0.0939 -0.4932
 9936SOL    HW130628   5.549   2.993   1.778  1.1103 -0.1679 -1.0030
 9936SOL    HW230629   5.608   3.107   1.878  0.9294 -0.0143 -1.0710
 9937SOL     OW30630   3.341   4.695   5.797 -0.2839 -0.4361  0.1087
 9937SOL    HW130631   3.391   4.781   5.797 -0.5771 -0.2624  0.2450
 9937SOL    HW230632   3.392   4.627   5.851 -0.3570 -0.1732  0.5091
 9938SOL     OW30633   4.490   5.781   5.321 -0.1245 -0.0253  0.9674
 9938SOL    HW130634   4.549   5.726   5.262  0.0801  0.0307  1.1154
 9938SOL    HW230635   4.397   5.783   5.284  0.3024  1.1227 -0.0874
 9939SOL     OW30636   6.495   0.390   2.855  0.0285  0.1656  0.1566
 9939SOL    HW130637   6.556   0.422   2.927 -0.3431 -0.6264  0.8344
 9939SOL    HW230638   6.519   0.296   2.831 -1.2018 -0.3237  0.7640
 9940SOL     OW30639   2.613   6.378   0.233  0.1184 -0.4441  0.2258
 9940SOL    HW130640   2.697   6.378   0.180  0.5570  0.1089  0.9117
 9940SOL    HW230641   2.572   6.470   0.230 -0.3210 -0.6430  0.1123
 9941SOL     OW30642   3.531   3.698   5.786  0.0461 -0.6785 -0.7162
 9941SOL    HW130643   3.470   3.716   5.863 -1.1178  2.1635 -2.1862
 9941SOL    HW230644   3.587   3.617   5.806  0.3752  0.3796  3.4228
 9942SOL     OW30645   4.484   0.221   6.131 -0.0723  0.1048 -0.7506
 9942SOL    HW130646   4.411   0.173   6.180 -0.2060 -0.6793 -1.6715
 9942SOL    HW230647   4.514   0.300   6.184 -2.8476  1.5441 -1.1209
 9943SOL     OW30648   4.248   3.948   2.756 -0.4020  0.2618  0.8082
 9943SOL    HW130649   4.150   3.927   2.748 -0.3630  0.3198  0.0469
 9943SOL    HW230650   4.284   3.970   2.665  0.4427 -0.3198  0.9962
 9944SOL     OW30651   4.322   5.863   2.094 -0.0227 -0.3565  0.2813
 9944SOL    HW130652   4.324   5.765   2.114  1.8672 -0.3107  0.4537
 9944SOL    HW230653   4.331   5.915   2.179 -1.3720  0.0064  0.2354
 9945SOL     OW30654   6.343   1.609   0.422 -0.1553 -0.2389  0.2442
 9945SOL    HW130655   6.413   1.539   0.407 -0.1908 -0.7525  2.2588
 9945SOL    HW230656   6.363   1.659   0.506 -1.7547  0.1559  0.4223
 9946SOL     OW30657   0.205   5.982   3.829 -0.3616  0.4235  0.0369
 9946SOL    HW130658   0.131   6.049   3.820  0.5624  1.6080  1.0008
 9946SOL    HW230659   0.266   5.989   3.750 -0.9620 -0.2090 -0.5113
 9947SOL     OW30660   6.992   6.529   1.087  0.3417  0.1492 -0.5181
 9947SOL    HW130661   7.067   6.594   1.105  1.3226 -1.3746  1.1935
 9947SOL    HW230662   6.904   6.574   1.105  1.0669  0.7325  1.9024
 9948SOL     OW30663   2.375   1.177   1.790 -0.0363 -0.2715  0.4734
 9948SOL    HW130664   2.313   1.249   1.822  0.6260  0.8482 -0.6698
 9948SOL    HW230665   2.321   1.100   1.754 -0.8584  1.4860 -2.3080
 9949SOL     OW30666   2.792   3.354   3.089 -0.2467  0.0754  0.2051
 9949SOL    HW130667   2.872   3.320   3.039 -0.4151 -0.1513  0.0877
 9949SOL    HW230668   2.817   3.435   3.141 -0.2486  0.7809 -0.8629
 9950SOL     OW30669   2.465   3.100   5.829  0.5466  0.6979 -0.7878
 9950SOL    HW130670   2.552   3.054   5.813  0.3324  0.0342 -0.0956
 9950SOL    HW230671   2.480   3.199   5.834  1.2427  0.5973 -0.7477
 9951SOL     OW30672   3.909   5.314   5.843 -0.0936 -0.0677 -0.9546
 9951SOL    HW130673   3.869   5.247   5.779 -2.5131  0.8923 -0.5757
 9951SOL    HW230674   3.933   5.268   5.928  0.6892 -0.8940 -1.6007
 9952SOL     OW30675   1.291   3.363   4.348 -0.0527 -0.4441 -0.1819
 9952SOL    HW130676   1.265   3.450   4.306 -1.1342 -0.0997  1.0897
 9952SOL    HW230677   1.217   3.297   4.338 -0.4315 -0.2859  1.2933
 9953SOL     OW30678   6.505   0.579   1.519 -0.1746  0.5475 -0.1065
 9953SOL    HW130679   6.406   0.582   1.512 -0.3320  1.3136  1.9529
 9953SOL    HW230680   6.537   0.484   1.524 -0.7925  0.3061 -0.6955
 9954SOL     OW30681   3.304   1.973   5.212  0.0054  0.2055 -0.2768
 9954SOL    HW130682   3.211   1.936   5.219 -0.5107  1.6167  0.7743
 9954SOL    HW230683   3.304   2.069   5.242  1.4533  0.8333 -2.1013
 9955SOL     OW30684   5.523   3.289   6.894 -0.2295  0.0300  0.1763
 9955SOL    HW130685   5.535   3.377   6.940  0.9532  0.1965 -0.4302
 9955SOL    HW230686   5.545   3.214   6.957 -0.4288  0.1843  0.4358
 9956SOL     OW30687   4.246   0.038   5.263 -0.2854  0.0662  0.4394
 9956SOL    HW130688   4.173   0.107   5.266 -0.2948  0.0603  0.3754
 9956SOL    HW230689   4.335   0.082   5.275 -0.2165  0.2204 -0.5090
 9957SOL     OW30690   5.790   3.713   2.660  0.5386  0.6858 -0.2356
 9957SOL    HW130691   5.825   3.726   2.752  2.3923 -0.2640 -0.7625
 9957SOL    HW230692   5.813   3.791   2.603  1.0385  0.4614 -0.3495
 9958SOL     OW30693   2.165   5.526   5.076 -0.2083 -0.3004 -0.5252
 9958SOL    HW130694   2.102   5.454   5.103 -1.2202  0.3300 -1.1263
 9958SOL    HW230695   2.118   5.614   5.077  0.7803  0.2497 -0.5815
 9959SOL     OW30696   3.059   1.851   5.266 -0.3818  0.5367  0.3250
 9959SOL    HW130697   3.028   1.757   5.259 -0.8025  0.2781  3.6491
 9959SOL    HW230698   2.983   1.913   5.247 -0.5247  0.1696 -0.3068
 9960SOL     OW30699   4.685   0.450   3.353 -0.8494  0.5052 -0.4324
 9960SOL    HW130700   4.760   0.385   3.350 -2.2445 -1.2143  0.4308
 9960SOL    HW230701   4.711   0.529   3.408  1.1825  1.1659 -2.1911
 9961SOL     OW30702   0.286   2.846   5.409  0.0109 -0.3301  0.7886
 9961SOL    HW130703   0.335   2.909   5.469 -0.6602  0.3841  0.6057
 9961SOL    HW230704   0.212   2.803   5.459 -1.4922  1.3739  0.1421
 9962SOL     OW30705   1.761   2.398   2.741 -0.4985  0.3921  0.0260
 9962SOL    HW130706   1.809   2.314   2.714 -0.4350  1.0441 -2.0794
 9962SOL    HW230707   1.663   2.385   2.729 -0.5463  0.3955  0.4002
 9963SOL     OW30708   2.914   5.559   5.161 -0.3925  0.0343 -0.3428
 9963SOL    HW130709   2.992   5.578   5.222 -1.3144 -2.0094  1.5905
 9963SOL    HW230710   2.936   5.590   5.068  2.3766  0.3056  0.3274
 9964SOL     OW30711   3.524   4.123   2.190  0.7221 -0.2221  0.2884
 9964SOL    HW130712   3.500   4.038   2.235 -0.8019 -0.7325 -1.3808
 9964SOL    HW230713   3.442   4.178   2.176  1.5091  0.9806  0.2658
 9965SOL     OW30714   2.907   4.883   2.095 -0.1046 -0.0181 -0.1784
 9965SOL    HW130715   2.864   4.858   2.008  1.8292 -0.5253 -1.0488
 9965SOL    HW230716   2.977   4.815   2.118  1.2575  1.5291  0.4094
 9966SOL     OW30717   4.758   6.672   5.762 -0.4850 -0.3115  0.0285
 9966SOL    HW130718   4.764   6.650   5.859 -0.5625 -0.2549  0.0473
 9966SOL    HW230719   4.726   6.592   5.711  0.0755 -0.5082 -0.0212
 9967SOL     OW30720   0.078   2.472   1.734  0.1606  0.2334 -0.3098
 9967SOL    HW130721   0.136   2.391   1.726 -0.6828 -0.3169 -1.1287
 9967SOL    HW230722   0.042   2.480   1.827 -2.7415 -2.5008 -1.0335
 9968SOL     OW30723   6.960   5.841   0.353  0.1969  0.5705 -0.6247
 9968SOL    HW130724   6.989   5.929   0.390  0.4206  0.3843 -0.3368
 9968SOL    HW230725   7.037   5.797   0.307  0.6425 -0.2955  0.8495
 9969SOL     OW30726   5.434   2.764   5.965 -0.0266  0.8193  0.0408
 9969SOL    HW130727   5.438   2.714   6.051 -2.4333 -1.5298 -1.0541
 9969SOL    HW230728   5.376   2.844   5.974  0.1109  0.8493  0.6921
 9970SOL     OW30729   5.792   0.796   1.134 -0.3377 -0.3138 -0.2030
 9970SOL    HW130730   5.872   0.775   1.191  1.1558 -0.1664 -2.1430
 9970SOL    HW230731   5.799   0.748   1.047 -1.5308  1.0208 -1.0867
 9971SOL     OW30732   3.366   0.115   1.154 -0.2440 -0.1738  0.0730
 9971SOL    HW130733   3.327   0.200   1.188  1.3132  0.1934  1.0520
 9971SOL    HW230734   3.465   0.115   1.169  0.4811 -0.3376 -3.7394
 9972SOL     OW30735   4.243   0.638   6.685 -0.1666  0.3214 -0.3357
 9972SOL    HW130736   4.159   0.693   6.679  0.1386  1.0853  1.4466
 9972SOL    HW230737   4.323   0.698   6.677  0.1985 -0.1442 -0.2210
 9973SOL     OW30738   1.506   6.878   3.386  0.2366 -0.1768  0.1325
 9973SOL    HW130739   1.514   6.948   3.457  0.8283  1.8382 -1.8133
 9973SOL    HW230740   1.464   6.918   3.304  0.9301 -2.0268 -1.1827
 9974SOL     OW30741   3.465   2.977   5.959  0.8137  0.3191 -0.4269
 9974SOL    HW130742   3.512   3.060   5.991 -0.4030  1.1497 -0.7458
 9974SOL    HW230743   3.472   2.972   5.859 -0.1571  0.6975 -0.5213
 9975SOL     OW30744   2.834   2.100   5.752 -0.3763 -0.1838  0.2704
 9975SOL    HW130745   2.774   2.101   5.832 -1.3121  0.4562 -0.4304
 9975SOL    HW230746   2.854   2.005   5.727  1.1681 -0.4151  2.1533
 9976SOL     OW30747   4.790   5.425   3.189 -0.2993  0.0784  0.5411
 9976SOL    HW130748   4.766   5.509   3.141 -0.0069 -0.8261 -1.2506
 9976SOL    HW230749   4.880   5.436   3.232 -0.9227  1.1765  1.6629
 9977SOL     OW30750   5.931   2.490   1.074  0.3755 -0.5294  0.0069
 9977SOL    HW130751   5.885   2.494   0.985  0.2685  1.3965  0.1142
 9977SOL    HW230752   6.029   2.506   1.061  0.1128  1.5792  0.3836
 9978SOL     OW30753   4.818   6.285   2.829  0.3589  0.1904 -0.3983
 9978SOL    HW130754   4.784   6.247   2.915 -0.0624 -0.0395 -0.6618
 9978SOL    HW230755   4.832   6.384   2.838  2.3674 -0.1371  0.5864
 9979SOL     OW30756   0.201   0.022   6.559 -0.2946  0.0352 -0.8474
 9979SOL    HW130757   0.109   0.047   6.590 -0.9029 -1.8754 -0.9199
 9979SOL    HW230758   0.242  -0.042   6.624  1.6056  1.9672 -0.0750
 9980SOL     OW30759   6.181   1.717   6.361 -0.3615  0.5706  0.0665
 9980SOL    HW130760   6.147   1.625   6.342 -0.2232  0.2758  1.2358
 9980SOL    HW230761   6.262   1.735   6.304 -1.2529  0.5407 -1.2636
 9981SOL     OW30762   3.198   5.489   0.487 -0.5544 -0.3419 -0.6531
 9981SOL    HW130763   3.277   5.473   0.547 -0.0227 -0.4544 -1.3782
 9981SOL    HW230764   3.132   5.547   0.534  0.1711  0.1459 -0.2117
 9982SOL     OW30765   3.013   0.900   4.452 -0.9415  0.0324 -0.4559
 9982SOL    HW130766   2.921   0.881   4.487 -1.2808  0.4535 -1.0789
 9982SOL    HW230767   3.078   0.904   4.528 -1.2838 -1.0991 -0.0837
 9983SOL     OW30768   6.423   4.910   2.567 -0.5011 -0.4056  0.5357
 9983SOL    HW130769   6.376   4.960   2.494 -1.7175  0.1088  1.6249
 9983SOL    HW230770   6.357   4.853   2.617  0.5376 -1.7427  0.4550
 9984SOL     OW30771   5.116   4.964   5.275  0.1422  0.4762 -0.2471
 9984SOL    HW130772   5.025   4.974   5.235 -0.0104  0.4774  0.0902
 9984SOL    HW230773   5.118   5.007   5.365  0.4512  0.3880 -0.2080
 9985SOL     OW30774   4.768   3.376   0.768 -0.2989 -0.2852  0.3972
 9985SOL    HW130775   4.802   3.302   0.709 -3.6576  0.0107 -2.1405
 9985SOL    HW230776   4.740   3.337   0.856 -0.0385 -1.6671 -0.1096
 9986SOL     OW30777   2.404   4.258   0.339 -0.1113  0.0602 -0.3389
 9986SOL    HW130778   2.374   4.175   0.292  0.7425  0.6379 -1.9580
 9986SOL    HW230779   2.490   4.239   0.387 -0.9503 -0.5117  0.9844
 9987SOL     OW30780   4.748   2.963   2.335 -0.2044 -0.3940 -0.8746
 9987SOL    HW130781   4.702   2.882   2.373 -0.1368 -0.5476 -1.1190
 9987SOL    HW230782   4.703   3.045   2.369  0.8830 -0.4887  0.8544
 9988SOL     OW30783   4.025   0.530   2.332  0.1164  0.2066 -0.4841
 9988SOL    HW130784   4.089   0.572   2.397  1.2445  0.4732 -1.7082
 9988SOL    HW230785   4.051   0.556   2.238 -0.1876 -1.8259 -1.1839
 9989SOL     OW30786   1.471   0.964   1.375 -0.4461 -0.5207  0.1388
 9989SOL    HW130787   1.467   0.873   1.334  0.8312 -0.5597  0.0445
 9989SOL    HW230788   1.400   1.022   1.334  0.1092 -0.8549 -1.3896
 9990SOL     OW30789   5.977   3.223   0.944 -0.3210 -0.2191  0.5544
 9990SOL    HW130790   6.076   3.221   0.930 -0.4341 -1.4262 -0.2390
 9990SOL    HW230791   5.954   3.295   1.010  0.7773  1.9953 -1.3406
 9991SOL     OW30792   5.045   3.195   0.312 -0.4154  0.3915  0.4332
 9991SOL    HW130793   5.079   3.106   0.282 -0.8137  0.2527  0.4001
 9991SOL    HW230794   5.123   3.254   0.333 -0.0274  1.1716 -2.7028
 9992SOL     OW30795   0.042   1.275   5.669 -0.3219  0.2171 -0.4783
 9992SOL    HW130796   0.089   1.363   5.682  1.7638 -0.3586 -3.1985
 9992SOL    HW230797  -0.055   1.292   5.656 -0.2599  1.9059  1.0296
 9993SOL     OW30798   5.232   4.426   5.900 -0.1058 -0.2645 -0.8932
 9993SOL    HW130799   5.244   4.496   5.829 -0.1534 -0.4322 -1.0703
 9993SOL    HW230800   5.135   4.403   5.907 -0.6673  2.3840  1.7686
 9994SOL     OW30801   4.640   4.869   0.903 -0.3816 -0.5239 -0.2250
 9994SOL    HW130802   4.690   4.948   0.937 -2.4921  0.1722  1.5440
 9994SOL    HW230803   4.595   4.892   0.817 -0.4952  0.0011 -0.0283
 9995SOL     OW30804   5.514   5.196   0.312  0.9610  0.5314  0.0419
 9995SOL    HW130805   5.575   5.203   0.232 -0.6116  2.2007 -1.0808
 9995SOL    HW230806   5.465   5.109   0.308  0.2597  0.9545 -1.3441
 9996SOL     OW30807   4.033   0.800   6.675 -0.1367  0.6149  0.3316
 9996SOL    HW130808   4.045   0.899   6.684 -2.3726  1.0074 -0.2290
 9996SOL    HW230809   3.978   0.781   6.593 -1.3958 -0.9448  1.4894
 9997SOL     OW30810   1.806   5.722   4.532 -0.1615  0.0872  0.7267
 9997SOL    HW130811   1.879   5.749   4.470  1.6030 -1.3492  2.0376
 9997SOL    HW230812   1.755   5.645   4.493 -0.3755  0.5069  0.1848
 9998SOL     OW30813   3.860   2.712   6.028 -0.0279  0.1216 -0.3061
 9998SOL    HW130814   3.916   2.635   5.996  1.0498  0.8761 -0.2846
 9998SOL    HW230815   3.900   2.749   6.112  0.5836  1.8676 -1.3119
 9999SOL     OW30816   4.430   0.410   4.048  0.1567 -0.3614 -0.1221
 9999SOL    HW130817   4.392   0.500   4.026 -1.1258 -0.6612  0.7850
 9999SOL    HW230818   4.529   0.412   4.035 -0.1100  0.4569 -2.5345
10000SOL     OW30819   3.215   4.659   3.206 -0.0445  0.1605  0.2797
10000SOL    HW130820   3.240   4.688   3.114  0.6556  2.0944  1.0300
10000SOL    HW230821   3.181   4.737   3.258 -2.4998 -1.2804  1.0483
10001SOL     OW30822   1.613   3.576   2.301 -0.2723  0.3194  0.2414
10001SOL    HW130823   1.612   3.643   2.375 -0.4173 -0.5819  1.0697
10001SOL    HW230824   1.703   3.576   2.258 -0.1160  0.7004  0.5582
10002SOL     OW30825   0.190   2.046   2.659  0.0467 -0.7093 -0.3176
10002SOL    HW130826   0.278   2.021   2.700 -0.5109  0.4845  1.6947
10002SOL    HW230827   0.118   2.040   2.728 -0.9904  1.0231 -1.1994
10003SOL     OW30828   5.149   2.958   0.232 -0.1305 -0.6513  0.0072
10003SOL    HW130829   5.120   2.866   0.205  0.2209 -0.2829 -1.7873
10003SOL    HW230830   5.240   2.976   0.194  0.1832  0.1218  1.0868
10004SOL     OW30831   6.694   5.665   2.519 -0.4969  0.0680  0.4805
10004SOL    HW130832   6.692   5.656   2.618 -0.8419  1.5779  0.6256
10004SOL    HW230833   6.602   5.686   2.486 -0.0987  1.1344  0.0157
10005SOL     OW30834   4.472   4.977   4.478  0.2163 -0.0377  0.5574
10005SOL    HW130835   4.554   5.034   4.483  0.7231 -0.4962 -1.5671
10005SOL    HW230836   4.458   4.947   4.383 -1.5399 -1.2500  1.1522
10006SOL     OW30837   1.047   0.900   5.086  0.4066 -0.7488  0.4947
10006SOL    HW130838   1.060   0.821   5.025 -0.1413 -0.1088 -0.4525
10006SOL    HW230839   1.091   0.980   5.047  0.1414 -0.3507  1.0046
10007SOL     OW30840   6.420   1.588   6.835 -0.1210 -0.8150  0.1089
10007SOL    HW130841   6.473   1.521   6.887  0.3629  1.2806  2.5312
10007SOL    HW230842   6.327   1.592   6.872  0.2625  0.7783  1.0438
10008SOL     OW30843   4.704   5.652   5.221 -0.3675  0.0245 -0.5044
10008SOL    HW130844   4.741   5.580   5.164 -1.4287 -0.2972 -0.8042
10008SOL    HW230845   4.779   5.709   5.255  0.5392 -1.4188  0.0359
10009SOL     OW30846   2.110   1.573   5.684  0.6423  0.1646  0.3465
10009SOL    HW130847   2.043   1.616   5.624  0.3207  0.3388  0.8205
10009SOL    HW230848   2.197   1.565   5.637 -0.2270 -1.9099 -1.0023
10010SOL     OW30849   0.859   0.680   5.657  0.4906  0.6341  0.4897
10010SOL    HW130850   0.844   0.664   5.755 -0.7443  2.3938  0.6404
10010SOL    HW230851   0.779   0.727   5.619  1.8028  1.8433 -0.9113
10011SOL     OW30852   1.916   4.233   5.490  0.6105  0.0284  0.1550
10011SOL    HW130853   1.838   4.261   5.435 -0.1536  0.0726  1.2398
10011SOL    HW230854   1.903   4.262   5.585  1.5388 -0.7289  0.5347
10012SOL     OW30855   4.121   1.656   5.282  0.3348  0.1147 -0.6168
10012SOL    HW130856   4.063   1.664   5.201  1.1431 -0.4611 -1.2709
10012SOL    HW230857   4.090   1.580   5.338  1.5044 -1.3644 -1.8877
10013SOL     OW30858   6.824   4.379   1.857  0.1253 -0.2373  0.4990
10013SOL    HW130859   6.915   4.367   1.819 -0.6425  1.4746 -2.0989
10013SOL    HW230860   6.803   4.302   1.917  3.6311 -0.1512  2.0728
10014SOL     OW30861   6.046   3.215   0.111  1.2200 -0.2200  0.7353
10014SOL    HW130862   6.020   3.176   0.199 -0.6765  0.3081  0.4429
10014SOL    HW230863   6.110   3.153   0.065 -2.5284 -3.7343 -0.2567
10015SOL     OW30864   4.206   6.531   0.285 -0.2169  0.2543 -0.0527
10015SOL    HW130865   4.278   6.487   0.231  0.2776 -1.9407  2.2061
10015SOL    HW230866   4.118   6.518   0.239  0.0469 -2.4295  0.0910
10016SOL     OW30867   2.508   0.286   2.780 -0.3085 -0.1604  0.5010
10016SOL    HW130868   2.476   0.250   2.867  0.4131 -0.0863  0.8036
10016SOL    HW230869   2.489   0.220   2.707 -1.0618 -0.1492  0.6867
10017SOL     OW30870   0.962   2.504   5.329 -0.4287  0.1367  0.2796
10017SOL    HW130871   0.943   2.417   5.374 -2.3213  0.1205 -0.4406
10017SOL    HW230872   0.883   2.565   5.339  0.2029  1.1480 -0.6449
10018SOL     OW30873   4.098   5.728   0.883 -0.6060 -0.1077  0.2867
10018SOL    HW130874   4.021   5.664   0.882 -0.8204  0.1412  0.7830
10018SOL    HW230875   4.130   5.740   0.977  1.0817 -1.4654 -0.0561
10019SOL     OW30876   3.601   3.371   4.082  0.6280 -0.2612 -0.3519
10019SOL    HW130877   3.631   3.346   3.991  0.8229 -0.8253 -0.1340
10019SOL    HW230878   3.517   3.425   4.076  0.4716 -0.5601 -0.8470
10020SOL     OW30879   1.941   1.479   4.818  0.4519  0.1101 -0.2813
10020SOL    HW130880   1.946   1.550   4.748 -1.0136  1.5593  1.0167
10020SOL    HW230881   2.023   1.482   4.875 -0.4246  2.1037  0.9602
10021SOL     OW30882   2.800   0.830   4.601 -0.1005  0.3997 -0.0387
10021SOL    HW130883   2.756   0.834   4.690 -1.0126  0.5433 -0.4808
10021SOL    HW230884   2.754   0.761   4.544 -0.4707  1.3258 -0.8820
10022SOL     OW30885   2.289   0.872   2.151  0.1727 -0.0007  0.2810
10022SOL    HW130886   2.193   0.850   2.164  0.6249 -1.4603  1.4776
10022SOL    HW230887   2.343   0.832   2.225  1.8615 -0.4548 -1.1052
10023SOL     OW30888   2.313   3.420   1.440  0.7346  0.1376  0.2930
10023SOL    HW130889   2.264   3.474   1.508  0.7061 -1.0591  1.2600
10023SOL    HW230890   2.261   3.336   1.422  1.1807  0.0384 -0.5700
10024SOL     OW30891   5.567   1.846   4.178  0.0895  0.1916  0.0711
10024SOL    HW130892   5.590   1.751   4.159 -1.8117 -0.8168  2.1949
10024SOL    HW230893   5.522   1.887   4.099  0.1235 -0.9699 -0.5590
10025SOL     OW30894   1.367   5.282   5.336 -0.5538 -1.0614 -0.0241
10025SOL    HW130895   1.303   5.279   5.260 -0.7986 -1.2967  0.1890
10025SOL    HW230896   1.460   5.294   5.301 -0.9704  2.8445 -0.2241
10026SOL     OW30897   1.657   6.425   6.784 -0.0880 -0.8394  0.3626
10026SOL    HW130898   1.608   6.511   6.800 -1.3987 -1.2937 -0.9249
10026SOL    HW230899   1.590   6.352   6.766  0.9261 -0.9236 -4.2627
10027SOL     OW30900   1.053   4.189   2.057 -0.0129 -0.4372 -0.1387
10027SOL    HW130901   1.067   4.130   1.977 -0.1701 -0.1745 -0.3617
10027SOL    HW230902   0.957   4.184   2.085 -0.1637  0.1663 -0.5226
10028SOL     OW30903   3.738   3.308   3.811  0.1469  0.0106 -0.1220
10028SOL    HW130904   3.836   3.308   3.832 -0.0276  1.5815  0.8838
10028SOL    HW230905   3.721   3.252   3.730  1.7400 -1.0560  0.2459
10029SOL     OW30906   2.264   3.174   3.673 -0.3750 -0.3248  0.0052
10029SOL    HW130907   2.323   3.101   3.706 -0.7508 -1.5839 -2.0157
10029SOL    HW230908   2.321   3.249   3.637 -0.0001  0.2728  1.7375
10030SOL     OW30909   6.285   3.357   1.200  0.7203  0.0897  0.1694
10030SOL    HW130910   6.349   3.408   1.257  0.8952 -0.7040  0.7104
10030SOL    HW230911   6.202   3.337   1.252  1.0397 -0.9921  0.2875
10031SOL     OW30912   1.523   6.084   4.622  0.6051  0.0796  0.4307
10031SOL    HW130913   1.513   6.171   4.574  1.9805  0.1859  0.2932
10031SOL    HW230914   1.441   6.066   4.676 -0.2273  0.8268 -0.5444
10032SOL     OW30915   4.003   2.769   6.257  0.8494 -0.2883  0.1559
10032SOL    HW130916   4.074   2.699   6.259  0.0460 -1.1365  0.0031
10032SOL    HW230917   3.995   2.812   6.347  0.2095 -1.6023  0.7625
10033SOL     OW30918   4.059   1.480   0.537 -0.3009 -0.6289 -0.3777
10033SOL    HW130919   4.084   1.389   0.570  1.2992 -0.1976 -0.3161
10033SOL    HW230920   3.966   1.502   0.568 -0.4948 -1.9939  0.0904
10034SOL     OW30921   1.270   1.140   4.966  0.2248 -0.1268 -0.3777
10034SOL    HW130922   1.311   1.107   5.051  1.4028  0.5493 -0.6714
10034SOL    HW230923   1.336   1.131   4.891  0.9680  3.5001 -0.3767
10035SOL     OW30924   0.633   5.230   2.672 -0.3776 -0.2038  0.4733
10035SOL    HW130925   0.681   5.275   2.748 -2.2050 -0.1064  1.6180
10035SOL    HW230926   0.547   5.278   2.654  0.0218 -0.1924 -1.7357
10036SOL     OW30927   2.389   0.081   1.290  0.1952 -0.4192  0.4683
10036SOL    HW130928   2.302   0.093   1.242  0.4971 -0.4316 -0.1015
10036SOL    HW230929   2.373   0.074   1.388 -0.1967  2.2862  0.6502
10037SOL     OW30930   4.785   5.847   2.406 -0.6988  0.5196 -0.1218
10037SOL    HW130931   4.866   5.871   2.352 -0.6657  0.9981  0.1379
10037SOL    HW230932   4.704   5.851   2.348 -0.4178 -1.0535 -0.6696
10038SOL     OW30933   5.944   2.869   5.403 -0.2383  0.0176 -0.3931
10038SOL    HW130934   5.847   2.862   5.428 -0.2443  1.2694  0.0092
10038SOL    HW230935   6.000   2.839   5.480 -0.2862  2.3018  0.6158
10039SOL     OW30936   5.748   2.353   3.174  0.8355 -0.0635  0.2146
10039SOL    HW130937   5.746   2.409   3.092 -1.1222  1.9856  1.5550
10039SOL    HW230938   5.829   2.376   3.228  1.2388 -0.1860 -0.3389
10040SOL     OW30939   3.287   2.215   1.270  0.5093  0.0996  0.0535
10040SOL    HW130940   3.373   2.191   1.316  1.7994  0.7021 -1.9201
10040SOL    HW230941   3.302   2.217   1.171 -1.4890  1.4496 -0.2650
10041SOL     OW30942   6.048   2.302   6.489 -0.0011  0.8988  0.3673
10041SOL    HW130943   5.992   2.325   6.568 -0.2598 -1.1178  0.8427
10041SOL    HW230944   6.086   2.210   6.500 -1.7370 -0.3436 -2.7081
10042SOL     OW30945   5.092   2.006   2.769 -0.5663 -0.4405 -0.4784
10042SOL    HW130946   5.080   2.079   2.702  0.1544 -0.4006 -0.5732
10042SOL    HW230947   5.142   2.040   2.848 -0.8451 -0.6573 -0.2014
10043SOL     OW30948   3.534   6.435   6.669 -0.1556 -0.0839  0.4973
10043SOL    HW130949   3.487   6.370   6.609 -0.6808  1.0843 -0.3643
10043SOL    HW230950   3.532   6.526   6.629 -0.1782  0.6551  2.1159
10044SOL     OW30951   1.169   3.917   6.248  0.4400 -0.0143 -0.4318
10044SOL    HW130952   1.069   3.914   6.245  0.4168  0.8490 -1.1439
10044SOL    HW230953   1.203   3.831   6.286 -0.5656 -0.3704 -0.2729
10045SOL     OW30954   3.349   5.998   5.776  0.4701 -0.4842  0.5126
10045SOL    HW130955   3.322   5.907   5.807  0.4154 -0.4467  0.5762
10045SOL    HW230956   3.336   6.005   5.677  1.1540 -0.7819  0.4020
10046SOL     OW30957   0.058   6.007   4.620 -0.0542  0.5169  0.8570
10046SOL    HW130958   0.055   6.044   4.712 -0.5011  1.3660  0.5109
10046SOL    HW230959   0.011   6.069   4.557 -0.9592 -0.7302  0.2783
10047SOL     OW30960   3.353   4.992   3.529 -0.1782 -0.6004 -0.1256
10047SOL    HW130961   3.366   4.899   3.564  0.8383 -0.4256 -0.0059
10047SOL    HW230962   3.378   5.057   3.600  1.7253 -0.2405 -1.0758
10048SOL     OW30963   1.946   6.885   3.185 -0.8964 -0.6250  0.0332
10048SOL    HW130964   1.982   6.802   3.226 -0.6941  0.9586  3.4293
10048SOL    HW230965   1.854   6.868   3.150 -0.2416 -2.5929 -0.9115
10049SOL     OW30966   3.186   5.812   5.382  0.2054 -0.1598 -0.0088
10049SOL    HW130967   3.187   5.714   5.365  1.0134 -0.5099  1.8352
10049SOL    HW230968   3.255   5.856   5.325 -0.5642 -0.5672 -1.2741
10050SOL     OW30969   5.356   5.722   3.067 -0.3137  0.1818 -0.4022
10050SOL    HW130970   5.257   5.735   3.058 -0.4974 -1.1174 -0.4813
10050SOL    HW230971   5.402   5.752   2.984 -0.8143 -0.7141 -1.0188
10051SOL     OW30972   4.677   5.932   1.047  0.2297  0.5573  0.2911
10051SOL    HW130973   4.749   5.998   1.025 -0.2982  0.8141 -0.7028
10051SOL    HW230974   4.668   5.866   0.973  0.2008 -0.1712  0.9199
10052SOL     OW30975   4.972   2.629   1.872 -0.5596 -0.4867 -0.4272
10052SOL    HW130976   4.942   2.698   1.805 -0.4954  0.1975  0.2381
10052SOL    HW230977   4.893   2.580   1.907 -0.7589  0.2357  0.1561
10053SOL     OW30978   5.344   5.223   3.275 -0.1966 -0.4020  0.1615
10053SOL    HW130979   5.266   5.224   3.339  0.2971 -0.5393  0.7707
10053SOL    HW230980   5.387   5.313   3.274  1.7110 -1.1574  2.4269
10054SOL     OW30981   4.612   0.349   0.694  0.5376 -0.0780  0.0061
10054SOL    HW130982   4.705   0.369   0.664  1.3498 -1.7626  1.2500
10054SOL    HW230983   4.609   0.347   0.794 -0.7936 -0.2446 -0.0265
10055SOL     OW30984   2.611   6.126   0.379  0.1417  0.1311  0.2720
10055SOL    HW130985   2.533   6.105   0.319  1.1281  0.5405 -1.1877
10055SOL    HW230986   2.635   6.222   0.370  0.3415  0.1946  1.3289
10056SOL     OW30987   6.558   0.478   3.574  0.0421  0.2215 -0.1506
10056SOL    HW130988   6.623   0.421   3.522 -1.0785 -0.8739 -0.4121
10056SOL    HW230989   6.475   0.491   3.520 -0.7560 -0.1081  0.9703
10057SOL     OW30990   2.802   1.571   4.584 -0.1190 -0.0010 -0.6147
10057SOL    HW130991   2.896   1.567   4.552  0.9847  1.4594  2.1235
10057SOL    HW230992   2.759   1.655   4.549  0.0306 -0.0131 -0.8367
10058SOL     OW30993   4.513   6.993   6.511 -0.1289  0.3429  0.2662
10058SOL    HW130994   4.560   7.030   6.592  0.8672  0.2250 -0.2476
10058SOL    HW230995   4.416   7.016   6.515  0.0675  1.0983  1.0533
10059SOL     OW30996   4.311   6.923   0.213 -0.6031 -0.0320  0.0237
10059SOL    HW130997   4.281   7.018   0.204  1.5946  0.6443 -0.7232
10059SOL    HW230998   4.232   6.863   0.209 -2.1052  1.7680  1.0179
10060SOL     OW30999   6.873   2.749   2.292 -0.1107  0.1225  0.6624
10060SOL    HW131000   6.873   2.848   2.285 -0.1055  0.1448  0.9589
10060SOL    HW231001   6.885   2.709   2.201  4.6465  0.4186  0.8603
10061SOL     OW31002   6.257   6.694   5.810 -0.2765  0.6095  1.0795
10061SOL    HW131003   6.198   6.637   5.867 -0.8994 -0.7113 -0.7393
10061SOL    HW231004   6.350   6.658   5.811 -0.0943  1.0960  1.8982
10062SOL     OW31005   4.933   5.964   5.525  0.5853  0.1447 -0.4257
10062SOL    HW131006   4.989   5.912   5.590  0.3437  1.8359  1.2282
10062SOL    HW231007   4.844   5.920   5.516  1.4401 -1.4462 -1.5216
10063SOL     OW31008   5.886   0.022   1.371 -0.1479 -0.3691  0.1225
10063SOL    HW131009   5.866  -0.074   1.355 -0.3661 -0.0131 -1.8990
10063SOL    HW231010   5.931   0.033   1.459 -2.1041 -2.0330  1.4066
10064SOL     OW31011   3.895   5.161   6.973 -0.2391  0.1534 -0.4055
10064SOL    HW131012   3.921   5.112   7.056 -0.6511 -1.7413 -1.3782
10064SOL    HW231013   3.973   5.214   6.940 -0.1196  1.0721  1.2360
10065SOL     OW31014   2.470   4.903   6.496  0.2529  0.4810  0.3269
10065SOL    HW131015   2.466   4.997   6.463  0.1200  0.6528  0.8098
10065SOL    HW231016   2.526   4.898   6.579  2.1852 -0.2684 -0.9623
10066SOL     OW31017   2.161   2.902   1.314  0.4096 -0.1168 -0.1498
10066SOL    HW131018   2.225   2.853   1.372  1.2323  0.4499 -0.5581
10066SOL    HW231019   2.152   2.855   1.227 -4.0026 -3.3535  1.7635
10067SOL     OW31020   5.875   5.453   6.595 -0.0428  0.3602 -0.2300
10067SOL    HW131021   5.919   5.368   6.566  0.7803  1.4570 -2.4918
10067SOL    HW231022   5.776   5.443   6.588 -0.0060 -0.7008  0.4903
10068SOL     OW31023   2.485   6.647   3.846  0.0653 -0.0893 -0.5803
10068SOL    HW131024   2.475   6.724   3.784  3.2924  0.8893 -0.1141
10068SOL    HW231025   2.435   6.568   3.812 -0.1341  1.0935 -3.1609
10069SOL     OW31026   1.388   0.599   3.400  0.1437  0.4281  0.0603
10069SOL    HW131027   1.457   0.539   3.440  0.8454  0.8953 -0.4325
10069SOL    HW231028   1.322   0.625   3.471 -0.2098 -0.9527  0.2774
10070SOL     OW31029   6.628   4.916   4.144 -0.4237 -0.1009  0.1827
10070SOL    HW131030   6.683   4.938   4.225  0.5491 -0.7820 -0.2637
10070SOL    HW231031   6.565   4.842   4.166 -0.3513 -0.1027  0.3938
10071SOL     OW31032   0.167   3.250   4.520 -0.3739 -0.5829 -0.6828
10071SOL    HW131033   0.202   3.307   4.445  0.0847  0.3829  0.2399
10071SOL    HW231034   0.103   3.303   4.575  0.1770 -0.8905  0.2835
10072SOL     OW31035   0.231   5.110   4.573  0.5971 -0.2573  0.5484
10072SOL    HW131036   0.179   5.125   4.489  0.9307  0.3777  0.4493
10072SOL    HW231037   0.307   5.047   4.555  1.7506  1.2722 -0.0673
10073SOL     OW31038   6.461   1.558   2.193  0.3622 -0.0194 -0.5652
10073SOL    HW131039   6.495   1.533   2.284 -2.3415 -2.2853 -0.0732
10073SOL    HW231040   6.518   1.514   2.124  1.7314  0.7665  0.0006
10074SOL     OW31041   0.556   5.334   6.504 -0.4708  0.1171  0.2085
10074SOL    HW131042   0.540   5.236   6.517 -0.0286 -0.0166 -0.2036
10074SOL    HW231043   0.653   5.354   6.522  0.2587 -0.1238 -2.9153
10075SOL     OW31044   6.525   0.621   6.092 -0.5449 -0.3023 -0.1688
10075SOL    HW131045   6.436   0.589   6.125  0.3176 -1.1272  1.4566
10075SOL    HW231046   6.518   0.717   6.065 -1.4589  0.2560  1.9008
10076SOL     OW31047   4.353   5.365   2.746 -0.3583 -0.1066 -0.2788
10076SOL    HW131048   4.382   5.274   2.717  0.4221  0.3615 -0.9899
10076SOL    HW231049   4.293   5.405   2.676 -1.2035 -0.3152  0.3149
10077SOL     OW31050   0.218   6.276   3.376 -0.2884  0.2358  0.0876
10077SOL    HW131051   0.235   6.366   3.335 -0.0671  0.3180  0.3533
10077SOL    HW231052   0.277   6.208   3.332 -1.0405  0.0655 -0.6746
10078SOL     OW31053   2.073   1.842   4.007 -0.3649 -0.1692  0.3809
10078SOL    HW131054   2.051   1.830   4.104  0.6196  2.0651  0.9510
10078SOL    HW231055   2.008   1.904   3.965  0.2189  0.2400  0.0696
10079SOL     OW31056   3.318   6.624   0.909 -0.2456  0.6539 -0.2728
10079SOL    HW131057   3.338   6.678   0.827  0.1111  2.2324  0.7971
10079SOL    HW231058   3.397   6.567   0.931 -1.0197 -1.2263 -2.0287
10080SOL     OW31059   3.415   1.062   3.012 -0.1859  0.3190 -0.4460
10080SOL    HW131060   3.481   1.066   3.087 -0.4983 -0.8628 -0.0855
10080SOL    HW231061   3.368   1.150   3.004  0.8250  0.8997 -0.1605
10081SOL     OW31062   1.531   0.388   1.572 -0.1940  0.6970  0.1591
10081SOL    HW131063   1.569   0.328   1.642 -1.5352 -0.2040  0.1459
10081SOL    HW231064   1.509   0.334   1.491 -1.3865  1.1872  0.1396
10082SOL     OW31065   3.684   0.022   2.075 -0.0166  0.0194 -0.3518
10082SOL    HW131066   3.718  -0.052   2.017  0.3099 -1.4859  1.6848
10082SOL    HW231067   3.592   0.000   2.105 -0.8260  1.5918 -1.5309
10083SOL     OW31068   5.536   0.269   3.046 -0.4099  0.5376  0.1181
10083SOL    HW131069   5.453   0.248   2.993 -0.3788 -2.1509  0.9649
10083SOL    HW231070   5.516   0.260   3.143  0.6650  0.7113  0.3625
10084SOL     OW31071   4.500   6.581   1.134  0.3926 -0.3765  0.0941
10084SOL    HW131072   4.484   6.594   1.231 -1.6161  0.7265 -0.3318
10084SOL    HW231073   4.458   6.495   1.104  1.7537 -1.1623  0.3076
10085SOL     OW31074   0.267   4.647   3.506  0.6536  0.2842 -0.5295
10085SOL    HW131075   0.314   4.734   3.514 -0.2060  0.9014 -1.8818
10085SOL    HW231076   0.186   4.647   3.564  1.4414 -0.1873  0.5962
10086SOL     OW31077   4.677   4.189   2.994  0.4229  0.1069  0.0027
10086SOL    HW131078   4.604   4.242   3.037 -1.6125 -2.1055 -0.4363
10086SOL    HW231079   4.716   4.240   2.918 -1.5751  0.9237 -0.5323
10087SOL     OW31080   6.786   6.956   4.014 -0.3624  0.2736  0.4259
10087SOL    HW131081   6.749   7.042   4.048 -0.1820  1.0274 -1.2699
10087SOL    HW231082   6.859   6.974   3.949  0.8954 -1.2155  1.3750
10088SOL     OW31083   5.838   5.219   5.438 -0.1248 -0.0956  0.0415
10088SOL    HW131084   5.775   5.146   5.464 -2.1917  1.7042  0.3115
10088SOL    HW231085   5.896   5.242   5.516 -1.6942  0.7323  0.9939
10089SOL     OW31086   6.548   3.758   1.710  0.7611 -0.0072 -0.9049
10089SOL    HW131087   6.460   3.731   1.670  1.9368 -0.7695 -3.1811
10089SOL    HW231088   6.553   3.858   1.714 -0.0750  0.0492 -1.0689
10090SOL     OW31089   6.213   0.850   0.109  0.3439 -0.4634  0.0003
10090SOL    HW131090   6.171   0.876   0.021  1.8718 -0.6826 -0.8279
10090SOL    HW231091   6.248   0.756   0.102  0.0139 -0.6676  1.0303
10091SOL     OW31092   5.390   5.250   4.529 -0.6038  0.1864 -0.4771
10091SOL    HW131093   5.326   5.311   4.577  0.0572 -0.0887  0.8238
10091SOL    HW231094   5.420   5.178   4.592  1.5165  0.7195 -0.7878
10092SOL     OW31095   3.408   5.390   5.408  0.6222  0.0167 -0.2172
10092SOL    HW131096   3.415   5.437   5.496 -0.5783  0.2870 -0.2408
10092SOL    HW231097   3.415   5.457   5.334  0.6225 -0.0678 -0.2954
10093SOL     OW31098   0.634   0.809   5.512 -0.0681 -0.6326 -0.2846
10093SOL    HW131099   0.572   0.812   5.434 -0.9056  0.2762  0.3727
10093SOL    HW231100   0.581   0.817   5.597  0.9219 -0.1726  0.3151
10094SOL     OW31101   2.562   0.627   4.351 -0.1584 -0.4327 -0.0445
10094SOL    HW131102   2.658   0.635   4.377 -0.0093  0.2501 -0.7257
10094SOL    HW231103   2.533   0.532   4.360  1.2748 -1.1554 -2.0731
10095SOL     OW31104   6.770   1.479   4.099 -0.3972  0.8167 -0.1574
10095SOL    HW131105   6.701   1.444   4.162  0.3200 -0.5156 -0.0795
10095SOL    HW231106   6.732   1.481   4.006 -0.9720  1.3806  0.0852
10096SOL     OW31107   5.753   4.710   4.909 -0.0653  0.6283 -0.1826
10096SOL    HW131108   5.707   4.760   4.836 -0.6555 -0.2681 -0.4381
10096SOL    HW231109   5.688   4.690   4.982 -0.1994 -0.9542 -0.7009
10097SOL     OW31110   1.952   0.154   1.440 -0.6472 -0.0831  0.1710
10097SOL    HW131111   1.924   0.088   1.510 -0.3841  0.2969  0.6419
10097SOL    HW231112   1.972   0.241   1.483  1.5351 -0.4030 -0.1156
10098SOL     OW31113   0.765   2.665   5.795 -0.1772 -0.0473  0.3205
10098SOL    HW131114   0.726   2.752   5.765  3.0205  1.2265 -0.5310
10098SOL    HW231115   0.743   2.594   5.728  1.4003  1.3246 -1.8201
10099SOL     OW31116   5.252   5.080   3.705 -0.2172 -0.3278  0.1125
10099SOL    HW131117   5.351   5.078   3.709 -0.2160 -0.6389 -0.0732
10099SOL    HW231118   5.214   5.041   3.789 -0.1850 -2.4818 -0.8084
10100SOL     OW31119   2.865   1.031   3.822 -0.5725 -0.0633 -0.2288
10100SOL    HW131120   2.895   0.944   3.862 -0.5587 -0.4419 -1.0496
10100SOL    HW231121   2.782   1.061   3.868 -0.0260  0.0204  0.7571
10101SOL     OW31122   3.132   6.365   0.518  0.0218  0.0235 -0.0294
10101SOL    HW131123   3.072   6.388   0.595  2.2084 -1.6417  2.3866
10101SOL    HW231124   3.226   6.392   0.541  1.1389 -2.6621 -1.0125
10102SOL     OW31125   4.480   0.035   0.915 -0.1337 -0.0981  0.0094
10102SOL    HW131126   4.451  -0.054   0.950  0.1518 -0.3262 -0.3981
10102SOL    HW231127   4.421   0.106   0.953  0.6872 -0.2744  1.6873
10103SOL     OW31128   6.245   3.799   1.762 -0.4997 -0.1424  0.3044
10103SOL    HW131129   6.255   3.745   1.679 -0.8904 -1.1496  0.8823
10103SOL    HW231130   6.237   3.737   1.841 -2.4194  0.7003  0.8338
10104SOL     OW31131   3.481   2.800   6.161 -0.2771 -0.1026 -0.3311
10104SOL    HW131132   3.530   2.724   6.120 -0.1956  1.1025 -2.5981
10104SOL    HW231133   3.471   2.874   6.095 -1.7924  1.2342  1.2708
10105SOL     OW31134   5.420   5.976   5.171  0.3030 -0.7587  0.7913
10105SOL    HW131135   5.361   5.899   5.144  0.7202 -0.8127 -0.0158
10105SOL    HW231136   5.384   6.019   5.253 -0.4298 -1.2704  0.7455
10106SOL     OW31137   0.185   0.618   3.592  0.2630 -0.1508  0.7108
10106SOL    HW131138   0.152   0.713   3.592 -0.2123 -0.2451 -1.7341
10106SOL    HW231139   0.159   0.574   3.506 -0.6033 -2.9195  2.2578
10107SOL     OW31140   6.710   5.524   4.874  0.1616 -0.5234 -0.6105
10107SOL    HW131141   6.664   5.441   4.904  1.4319 -0.6323  1.2016
10107SOL    HW231142   6.809   5.510   4.877  0.3752  0.6380 -1.5825
10108SOL     OW31143   6.790   2.767   4.590 -0.1018  0.3748  0.2520
10108SOL    HW131144   6.776   2.718   4.504 -0.8188 -0.5571  0.8735
10108SOL    HW231145   6.703   2.803   4.622  0.0107 -0.0085  1.0036
10109SOL     OW31146   4.191   4.583   6.180 -0.2066 -0.1228 -0.2282
10109SOL    HW131147   4.104   4.630   6.168 -2.2409 -3.3814  0.6556
10109SOL    HW231148   4.231   4.562   6.091  0.0219  1.8141 -0.6326
10110SOL     OW31149   0.152   1.492   3.998  0.2990  0.2908 -0.2051
10110SOL    HW131150   0.166   1.586   4.028 -1.8872  0.5238  0.1770
10110SOL    HW231151   0.102   1.441   4.068 -2.3535  0.0576 -2.1489
10111SOL     OW31152   0.920   6.447   6.119 -0.1870  0.1598 -0.1020
10111SOL    HW131153   0.942   6.363   6.069  1.0694  1.0110 -1.0366
10111SOL    HW231154   0.989   6.464   6.189 -0.4106  0.4362  0.0570
10112SOL     OW31155   2.987   1.913   0.194  0.0772 -0.8376  0.5417
10112SOL    HW131156   3.017   1.882   0.104 -1.7147 -0.0499 -0.3711
10112SOL    HW231157   2.905   1.862   0.221 -0.3143  0.0217  1.0087
10113SOL     OW31158   0.642   6.903   2.645  0.5515 -0.6031  0.1917
10113SOL    HW131159   0.640   6.948   2.734  0.8568 -0.0648 -0.0659
10113SOL    HW231160   0.552   6.865   2.625 -0.0928  0.9559 -0.1024
10114SOL     OW31161   2.187   0.927   4.940 -0.3218  0.3223 -0.5744
10114SOL    HW131162   2.221   0.954   4.850 -1.7417  1.3091 -0.8329
10114SOL    HW231163   2.165   1.009   4.993  0.7727 -0.2323  0.8062
10115SOL     OW31164   3.530   0.496   4.617  0.1948  0.4123  0.3211
10115SOL    HW131165   3.521   0.573   4.680 -0.9898  0.2954  0.3346
10115SOL    HW231166   3.545   0.412   4.668  0.4553  0.4886  0.3708
10116SOL     OW31167   2.896   0.718   2.122  0.2581  0.1585  0.2466
10116SOL    HW131168   2.931   0.681   2.208  0.2403  2.3740  1.2633
10116SOL    HW231169   2.804   0.755   2.136  0.4625  1.0143 -0.5766
10117SOL     OW31170   0.578   0.992   2.880 -0.0958 -0.1688 -0.0341
10117SOL    HW131171   0.514   1.020   2.951 -0.0612  0.7211 -0.3297
10117SOL    HW231172   0.648   0.932   2.919  0.0591  0.4983  0.7252
10118SOL     OW31173   3.521   5.302   4.691  0.1217  1.3667  0.1838
10118SOL    HW131174   3.548   5.271   4.600 -0.6448  1.8325 -0.2190
10118SOL    HW231175   3.600   5.299   4.752  0.8887  1.9611 -0.7386
10119SOL     OW31176   4.589   1.903   6.693  1.0818 -0.1770 -0.1089
10119SOL    HW131177   4.607   1.951   6.779 -0.5058 -0.5016  0.4439
10119SOL    HW231178   4.553   1.812   6.713  0.0807 -0.0204 -1.1167
10120SOL     OW31179   0.331   5.268   0.096 -0.0212 -0.2331  0.0351
10120SOL    HW131180   0.350   5.172   0.114  1.1555  0.4369  2.6733
10120SOL    HW231181   0.232   5.281   0.085 -0.2649 -1.6178  0.4253
10121SOL     OW31182   2.713   2.372   1.539 -0.0623 -0.2135  0.5393
10121SOL    HW131183   2.671   2.305   1.600 -0.1297  0.1060  0.8492
10121SOL    HW231184   2.756   2.443   1.593 -0.0967  0.0609  0.2098
10122SOL     OW31185   3.294   0.500   4.874  0.0446 -0.4137 -0.1805
10122SOL    HW131186   3.247   0.471   4.958  1.3400 -0.1373  0.6520
10122SOL    HW231187   3.226   0.531   4.808 -0.8662  1.3469  1.5100
10123SOL     OW31188   6.379   4.314   2.168  0.3684  0.1532  0.1218
10123SOL    HW131189   6.454   4.374   2.141  0.5531 -0.1170  0.0263
10123SOL    HW231190   6.346   4.341   2.259  2.0103 -1.0629  1.1300
10124SOL     OW31191   4.498   5.006   2.129 -0.4883  0.3450 -0.1312
10124SOL    HW131192   4.440   4.967   2.057 -1.6065  2.6951 -0.6220
10124SOL    HW231193   4.567   5.065   2.087 -0.5001  0.9412  0.6691
10125SOL     OW31194   4.879   0.999   6.457 -0.0321 -0.1772 -0.4802
10125SOL    HW131195   4.921   1.084   6.426 -0.0241  0.5934  1.5223
10125SOL    HW231196   4.925   0.922   6.413  0.7129  0.8094 -1.4773
10126SOL     OW31197   1.690   3.650   1.471 -0.1329  0.0935  0.6064
10126SOL    HW131198   1.667   3.695   1.385 -0.1007  3.0973  2.0291
10126SOL    HW231199   1.765   3.586   1.457  1.0707  1.7954 -1.3030
10127SOL     OW31200   3.288   5.198   2.424  0.4466 -0.0861 -0.3375
10127SOL    HW131201   3.344   5.115   2.421  0.1344 -0.3032 -0.1876
10127SOL    HW231202   3.193   5.173   2.442  0.0853  0.1710 -1.7355
10128SOL     OW31203   0.126   6.523   3.826  0.0895  0.1479  0.4549
10128SOL    HW131204   0.204   6.530   3.888 -0.3483  1.0651  0.9353
10128SOL    HW231205   0.050   6.479   3.873 -0.7887  2.2909  1.1843
10129SOL     OW31206   5.524   1.865   0.757  0.2869  0.4236 -0.2155
10129SOL    HW131207   5.495   1.878   0.662 -0.5856  2.4918  0.2636
10129SOL    HW231208   5.624   1.858   0.761  0.4190  1.3401 -1.2108
10130SOL     OW31209   4.599   6.140   0.028 -0.4382  0.0822 -0.3111
10130SOL    HW131210   4.568   6.230  -0.002  1.1208  0.7083 -0.1013
10130SOL    HW231211   4.610   6.140   0.127 -0.4855 -0.3446 -0.3030
10131SOL     OW31212   6.255   2.130   2.320 -0.2712 -0.1465 -0.1649
10131SOL    HW131213   6.339   2.167   2.279 -1.4758  0.6067 -2.0997
10131SOL    HW231214   6.236   2.040   2.282 -0.2670 -0.3786  0.3756
10132SOL     OW31215   2.190   4.106   6.786 -0.5309  0.0309  0.3631
10132SOL    HW131216   2.177   4.201   6.815 -0.8864  0.0938  0.0089
10132SOL    HW231217   2.127   4.046   6.835  0.2040 -0.1225  1.1296
10133SOL     OW31218   3.941   1.766   5.874  0.3235  0.4415 -0.0644
10133SOL    HW131219   4.037   1.764   5.847  0.1877  0.6462 -0.5818
10133SOL    HW231220   3.886   1.716   5.807 -0.1024  1.4725 -0.5204
10134SOL     OW31221   3.947   1.144   6.472 -0.0874  0.0954  0.5376
10134SOL    HW131222   3.926   1.140   6.570 -2.5081 -0.5999  0.0484
10134SOL    HW231223   3.896   1.220   6.431  1.9020  1.2025 -0.0133
10135SOL     OW31224   3.612   1.968   2.628  0.4761  0.2513  0.3390
10135SOL    HW131225   3.584   1.959   2.723  0.2442  0.4008  0.2853
10135SOL    HW231226   3.678   2.043   2.619 -1.4722  2.0332 -0.0193
10136SOL     OW31227   4.977   1.173   4.070 -0.1273 -0.0695  1.0447
10136SOL    HW131228   4.890   1.123   4.070  0.3872 -0.9647  0.3347
10136SOL    HW231229   5.000   1.198   4.164 -0.8070 -0.4469  1.3175
10137SOL     OW31230   6.539   3.157   1.569  0.0662 -0.1354 -0.2548
10137SOL    HW131231   6.498   3.183   1.656 -0.8521  1.0545 -1.0206
10137SOL    HW231232   6.638   3.146   1.580 -0.1499 -0.9005  1.1241
10138SOL     OW31233   1.071   6.768   6.982  0.4094  0.2997 -0.2845
10138SOL    HW131234   1.096   6.790   7.077  1.7483  0.0904 -0.5958
10138SOL    HW231235   1.004   6.695   6.981  0.5393  0.1609  0.4733
10139SOL     OW31236   4.441   4.853   1.886 -0.2578 -0.0165  0.1214
10139SOL    HW131237   4.358   4.797   1.892 -0.5793  0.4213 -0.0897
10139SOL    HW231238   4.520   4.800   1.916 -0.8225  0.0465  1.7712
10140SOL     OW31239   1.681   3.355   6.036 -0.3158 -0.3612 -0.5282
10140SOL    HW131240   1.766   3.393   6.000  0.9834 -1.9839  0.6791
10140SOL    HW231241   1.607   3.419   6.020  0.9945  0.8554 -2.1509
10141SOL     OW31242   5.967   2.449   3.717  0.2471 -0.1807 -0.1095
10141SOL    HW131243   6.007   2.521   3.774 -2.3028  0.6335  0.7827
10141SOL    HW231244   5.906   2.393   3.772 -0.1573 -1.1084 -1.4696
10142SOL     OW31245   4.857   4.851   2.199  0.1801  0.4956  0.2572
10142SOL    HW131246   4.897   4.782   2.259 -1.7718  1.3069  2.6417
10142SOL    HW231247   4.838   4.811   2.109  1.5035 -1.2758  0.7129
10143SOL     OW31248   4.098   0.910   5.778 -0.1476  0.0414 -0.0461
10143SOL    HW131249   4.155   0.928   5.698 -2.2111 -0.7891 -1.7959
10143SOL    HW231250   4.035   0.835   5.758 -0.6843 -0.2578  2.4124
10144SOL     OW31251   0.029   4.240   6.330 -0.3076  0.3652  0.0674
10144SOL    HW131252  -0.064   4.231   6.294 -0.3553 -0.3722  0.4202
10144SOL    HW231253   0.094   4.246   6.254 -0.7173  1.9436 -0.1982
10145SOL     OW31254   2.174   4.243   2.634 -0.0150 -0.3873 -0.4488
10145SOL    HW131255   2.172   4.166   2.570  0.2260  0.6809 -1.7805
10145SOL    HW231256   2.099   4.234   2.699 -0.0385 -1.6976 -0.6406
10146SOL     OW31257   6.147   2.616   1.446  0.0763 -0.2072  0.1909
10146SOL    HW131258   6.241   2.627   1.415  0.4715 -1.8175  0.7053
10146SOL    HW231259   6.123   2.519   1.446 -1.3742  0.1196  0.6770
10147SOL     OW31260   4.069   0.059   0.719 -0.4839 -0.4282 -0.4703
10147SOL    HW131261   4.059  -0.032   0.759  1.2379 -1.0948 -1.3780
10147SOL    HW231262   4.079   0.050   0.620  2.4344  0.3809 -0.3666
10148SOL     OW31263   6.095   6.421   5.526 -0.7186  0.3523  0.6535
10148SOL    HW131264   6.175   6.395   5.580 -0.4244 -0.6811 -0.2459
10148SOL    HW231265   6.116   6.415   5.429 -0.8584  3.3340  0.3263
10149SOL     OW31266   0.591   1.265   4.824  0.1269 -0.0473  0.0372
10149SOL    HW131267   0.630   1.327   4.891 -0.3627 -0.8539  1.0942
10149SOL    HW231268   0.523   1.314   4.769 -0.3811  0.3188  0.9754
10150SOL     OW31269   1.788   5.382   6.905 -0.0797  0.0667  0.2446
10150SOL    HW131270   1.761   5.414   6.814 -0.3404 -0.1995  0.2261
10150SOL    HW231271   1.806   5.460   6.964 -0.1500  0.2430  0.0373
10151SOL     OW31272   1.873   2.441   6.017  0.4031 -0.4007 -0.5598
10151SOL    HW131273   1.902   2.537   6.026 -1.8610  0.3502 -0.7403
10151SOL    HW231274   1.939   2.392   5.961  2.0248  0.8367  0.1679
10152SOL     OW31275   1.416   5.596   3.388  0.6771 -0.0825  0.0446
10152SOL    HW131276   1.376   5.687   3.371  0.4322 -0.1005  0.5047
10152SOL    HW231277   1.504   5.589   3.342  1.0147  0.6335  0.5676
10153SOL     OW31278   5.774   0.590   4.089 -0.0796 -0.5427 -0.2009
10153SOL    HW131279   5.737   0.500   4.115 -1.4655 -0.3010 -1.2605
10153SOL    HW231280   5.718   0.630   4.017 -2.2157  3.1481  3.1634
10154SOL     OW31281   1.918   4.285   5.751 -0.5595  0.0153 -0.2553
10154SOL    HW131282   2.008   4.242   5.760 -1.3358 -1.8878 -0.9604
10154SOL    HW231283   1.888   4.319   5.840  0.8493  0.7048 -0.0206
10155SOL     OW31284   0.395   4.861   1.237  0.0512  0.1844  0.3840
10155SOL    HW131285   0.310   4.854   1.288  0.6926  0.5454  1.5466
10155SOL    HW231286   0.383   4.921   1.158 -0.8637 -0.1140  0.2918
10156SOL     OW31287   4.422   5.245   0.116 -0.4777 -0.1200  0.0829
10156SOL    HW131288   4.514   5.277   0.092 -0.9856  0.2547 -1.4100
10156SOL    HW231289   4.406   5.156   0.073 -0.1532 -1.0951  1.8563
10157SOL     OW31290   1.346   5.451   4.425 -0.7119 -0.5445  0.2336
10157SOL    HW131291   1.363   5.435   4.327  0.7957 -1.7459  0.6492
10157SOL    HW231292   1.276   5.388   4.457  0.5504 -1.9099  0.4301
10158SOL     OW31293   1.003   0.546   3.130 -0.5825  0.1621  0.5018
10158SOL    HW131294   0.976   0.618   3.195  1.5106  0.3698  1.2168
10158SOL    HW231295   0.938   0.543   3.055 -1.7821  1.5065  1.4398
10159SOL     OW31296   3.126   2.821   5.743 -0.1628  0.0867 -0.2842
10159SOL    HW131297   3.058   2.797   5.812 -0.6691  1.9298 -0.0911
10159SOL    HW231298   3.214   2.782   5.768  0.3051  2.6744  2.8067
10160SOL     OW31299   2.395   5.800   4.576  0.4275 -0.5364 -0.0093
10160SOL    HW131300   2.341   5.786   4.493 -0.5254 -1.2313  0.7053
10160SOL    HW231301   2.356   5.746   4.651  0.2923  1.2943  1.3156
10161SOL     OW31302   1.797   6.564   3.070 -0.5019  0.1146 -0.9789
10161SOL    HW131303   1.745   6.497   3.016  0.8636 -1.4958 -0.3637
10161SOL    HW231304   1.887   6.527   3.092 -0.8166  0.8847  2.0376
10162SOL     OW31305   5.241   1.494   0.741 -0.1383  0.5030 -0.0745
10162SOL    HW131306   5.170   1.564   0.745 -2.2355 -1.4929 -0.1101
10162SOL    HW231307   5.321   1.524   0.794 -0.3382  3.4621 -1.2657
10163SOL     OW31308   3.604   1.906   1.239  0.5557  0.1355 -0.7554
10163SOL    HW131309   3.696   1.869   1.253  1.0810  1.5016 -0.4675
10163SOL    HW231310   3.555   1.849   1.173  1.9461 -0.0735 -1.6474
10164SOL     OW31311   6.898   6.748   2.282  0.1005 -0.3436  0.4667
10164SOL    HW131312   6.943   6.665   2.249  0.2546 -1.1355  2.5286
10164SOL    HW231313   6.963   6.804   2.333 -0.2607  0.5826 -0.0445
10165SOL     OW31314   6.529   1.423   4.255  0.4683 -0.3430 -0.9309
10165SOL    HW131315   6.578   1.403   4.340  0.4798  3.2566  0.0798
10165SOL    HW231316   6.434   1.393   4.264  0.6295 -0.6018  0.0460
10166SOL     OW31317   3.677   2.182   6.841 -0.2028  0.1815  0.1324
10166SOL    HW131318   3.735   2.102   6.851 -0.6775 -0.1798  0.0138
10166SOL    HW231319   3.671   2.206   6.744 -1.5231 -0.7364 -0.0284
10167SOL     OW31320   4.722   6.974   1.685 -0.0081 -0.4883 -0.0142
10167SOL    HW131321   4.713   6.917   1.603  0.8816 -2.4035  1.1632
10167SOL    HW231322   4.800   7.035   1.674 -1.6495  1.4138 -1.7680
10168SOL     OW31323   2.351   5.399   6.425 -0.3172 -0.1539 -0.0592
10168SOL    HW131324   2.286   5.469   6.395  0.1890  0.4706  0.2634
10168SOL    HW231325   2.335   5.377   6.521 -1.8290 -2.0314 -0.6965
10169SOL     OW31326   5.961   0.069   3.715 -0.0406 -0.3056  0.3991
10169SOL    HW131327   6.055   0.043   3.736 -0.0397 -0.4801  0.1781
10169SOL    HW231328   5.897   0.015   3.770 -0.1317 -2.2131 -1.4561
10170SOL     OW31329   2.673   5.115   3.145 -0.1043 -0.7183 -0.0079
10170SOL    HW131330   2.713   5.046   3.084 -1.3571 -1.1498 -0.3824
10170SOL    HW231331   2.744   5.178   3.175  1.9068 -4.1354  3.1602
10171SOL     OW31332   5.423   4.247   3.018 -0.7596 -0.1863 -0.5009
10171SOL    HW131333   5.347   4.296   3.062 -0.3456  0.5608 -0.5945
10171SOL    HW231334   5.437   4.159   3.064 -0.5706  0.4204  0.6430
10172SOL     OW31335   6.178   3.498   4.057  0.4137  0.5972  0.0351
10172SOL    HW131336   6.204   3.433   4.128 -2.2168 -1.8398 -1.0629
10172SOL    HW231337   6.234   3.483   3.976 -0.2988 -0.4323 -0.2719
10173SOL     OW31338   5.214   0.281   4.547  0.0098  0.2110  0.0340
10173SOL    HW131339   5.207   0.185   4.574  1.1945  0.2638  0.5960
10173SOL    HW231340   5.160   0.337   4.609  0.4317  0.0405  0.5621
10174SOL     OW31341   6.551   0.337   4.270 -0.1231 -0.0955 -0.0970
10174SOL    HW131342   6.477   0.401   4.249  0.8424  0.3735 -2.3512
10174SOL    HW231343   6.513   0.252   4.306 -1.6565  0.5484 -0.1468
10175SOL     OW31344   5.914   4.963   2.214 -0.2815  0.0962  0.1797
10175SOL    HW131345   5.822   4.982   2.178 -0.1160  0.0689 -0.2709
10175SOL    HW231346   5.964   5.049   2.224  0.2509 -0.0169 -1.2584
10176SOL     OW31347   0.539   3.384   4.495  0.2768 -0.6254  1.0542
10176SOL    HW131348   0.546   3.286   4.475 -0.1990 -0.4506 -0.0667
10176SOL    HW231349   0.541   3.436   4.409  0.8240  0.3763  1.6463
10177SOL     OW31350   0.829   2.815   3.759 -0.2072 -0.4604  0.0586
10177SOL    HW131351   0.908   2.841   3.814 -1.1664  0.1533  1.2078
10177SOL    HW231352   0.814   2.716   3.766  1.2295 -0.8122 -1.2777
10178SOL     OW31353   4.147   4.824   0.333  0.1408  0.2231  0.1357
10178SOL    HW131354   4.116   4.729   0.322 -2.9002  0.8380  1.9188
10178SOL    HW231355   4.196   4.833   0.419  2.4433 -0.0880 -1.0855
10179SOL     OW31356   0.835   3.755   6.327  0.0140 -0.4517 -0.0579
10179SOL    HW131357   0.768   3.778   6.256 -0.6623  0.1203  0.7390
10179SOL    HW231358   0.895   3.682   6.294  0.4564  0.5885 -1.6583
10180SOL     OW31359   0.137   6.137   1.393 -0.5004 -0.1844  0.0853
10180SOL    HW131360   0.205   6.166   1.461  0.9818 -3.2934  0.1603
10180SOL    HW231361   0.136   6.203   1.318  2.6124  0.1011  0.1142
10181SOL     OW31362   5.549   0.288   2.245 -0.4960 -0.2118  0.5301
10181SOL    HW131363   5.630   0.275   2.303 -1.9402  0.0268  2.7212
10181SOL    HW231364   5.566   0.362   2.180  1.2260 -0.5759  0.5073
10182SOL     OW31365   1.147   2.785   2.331 -0.1743 -0.2068 -0.0561
10182SOL    HW131366   1.086   2.863   2.316 -1.6263 -1.2659 -0.0169
10182SOL    HW231367   1.226   2.814   2.385 -1.7818  0.7967  1.8945
10183SOL     OW31368   6.246   1.253   3.235  0.4835 -0.2150 -0.2093
10183SOL    HW131369   6.202   1.342   3.239  0.2114 -0.3989  1.7258
10183SOL    HW231370   6.177   1.182   3.226  0.6284 -0.3007 -0.6740
10184SOL     OW31371   0.759   0.613   6.461  0.2911 -0.5056 -0.0848
10184SOL    HW131372   0.659   0.624   6.464  0.3904  2.0590 -1.9721
10184SOL    HW231373   0.800   0.656   6.541 -0.0792 -0.8168  0.2740
10185SOL     OW31374   5.133   2.919   0.514 -0.0779 -0.4562 -0.2272
10185SOL    HW131375   5.208   2.971   0.555  0.7030  0.2231 -2.3434
10185SOL    HW231376   5.138   2.928   0.414 -1.2982 -2.7597 -0.5605
10186SOL     OW31377   2.465   5.810   0.039  0.3396  0.3311  0.1463
10186SOL    HW131378   2.544   5.827  -0.021  0.9187  0.1693  0.8708
10186SOL    HW231379   2.498   5.791   0.132 -0.4603 -1.0307  0.1650
10187SOL     OW31380   1.891   0.693   6.528  0.4346  0.2560 -0.1539
10187SOL    HW131381   1.830   0.722   6.601 -0.9001 -1.8209 -0.3594
10187SOL    HW231382   1.838   0.656   6.452  1.8713 -3.3201  0.3737
10188SOL     OW31383   3.880   1.017   1.288  0.5129  0.2430 -0.4492
10188SOL    HW131384   3.832   0.992   1.372  0.1658  1.8603 -0.1562
10188SOL    HW231385   3.958   0.955   1.275  0.8788  0.2862  1.3349
10189SOL     OW31386   2.266   0.997   6.195 -0.2704  0.2119  0.5007
10189SOL    HW131387   2.183   1.048   6.217 -0.3124  0.4267 -0.1580
10189SOL    HW231388   2.306   1.033   6.111 -0.4723 -1.0717 -0.1627
10190SOL     OW31389   3.995   6.801   1.457 -0.4049  0.1856 -0.5386
10190SOL    HW131390   4.017   6.898   1.447 -1.3134  0.5965  1.0403
10190SOL    HW231391   3.906   6.782   1.416 -2.3030  1.0411  2.7749
10191SOL     OW31392   6.552   6.251   3.495 -0.3257 -0.2396 -0.3718
10191SOL    HW131393   6.549   6.163   3.447 -2.9409 -0.3388 -0.1502
10191SOL    HW231394   6.459   6.281   3.515  0.5851  1.0776  2.3425
10192SOL     OW31395   0.549   6.020   6.341 -0.2508 -0.3074 -0.6223
10192SOL    HW131396   0.608   6.100   6.325 -1.9857  0.9627 -0.9495
10192SOL    HW231397   0.592   5.939   6.302 -0.2840  1.1898 -4.2536
10193SOL     OW31398   6.689   4.812   3.332  0.2299  0.8398  0.1414
10193SOL    HW131399   6.676   4.898   3.381 -0.3270  1.0527 -0.3690
10193SOL    HW231400   6.664   4.824   3.236 -2.1417 -0.4652  0.5283
10194SOL     OW31401   2.153   4.118   1.221 -0.3349 -0.3524 -0.0944
10194SOL    HW131402   2.147   4.031   1.271 -2.0654 -0.3442 -0.2012
10194SOL    HW231403   2.094   4.186   1.266  3.8459  2.0740  2.3355
10195SOL     OW31404   5.853   5.516   0.490  0.1849 -0.0038 -0.0011
10195SOL    HW131405   5.775   5.470   0.532  0.7179 -0.6200  0.3224
10195SOL    HW231406   5.916   5.547   0.562  0.7909 -0.5065 -0.3025
10196SOL     OW31407   6.204   2.527   3.545  0.1071 -0.3289  0.0340
10196SOL    HW131408   6.253   2.447   3.510  0.0439 -0.9403  1.2976
10196SOL    HW231409   6.125   2.497   3.599  1.5317  0.4656  2.7157
10197SOL     OW31410   4.594   4.324   4.983 -0.6687 -0.4541 -0.8123
10197SOL    HW131411   4.575   4.291   4.890 -1.6520 -1.7742 -0.1946
10197SOL    HW231412   4.686   4.298   5.009 -0.9590 -1.5707 -0.8448
10198SOL     OW31413   1.646   0.164   2.519 -0.3117  0.7015  0.3136
10198SOL    HW131414   1.622   0.077   2.564  0.7147 -0.6304 -1.5749
10198SOL    HW231415   1.577   0.185   2.450 -0.6013  1.4663  0.8215
10199SOL     OW31416   1.739   3.369   4.868 -0.3352  0.0456  0.3947
10199SOL    HW131417   1.709   3.363   4.773 -0.6542  1.1604  0.4123
10199SOL    HW231418   1.829   3.326   4.877 -1.0776 -1.6880 -0.0246
10200SOL     OW31419   1.445   6.036   2.266  0.0261  0.1449 -0.4777
10200SOL    HW131420   1.389   6.116   2.245 -1.1505 -0.7867 -1.0935
10200SOL    HW231421   1.386   5.956   2.274  0.9960 -0.4123  1.7222
10201SOL     OW31422   4.893   1.813   5.979  0.1484 -0.0223 -0.0085
10201SOL    HW131423   4.969   1.877   5.986  0.1452 -0.1162  1.0021
10201SOL    HW231424   4.873   1.794   5.883  1.5430 -0.1616 -0.2762
10202SOL     OW31425   0.031   5.445   2.743 -0.3193 -0.1697  0.1259
10202SOL    HW131426  -0.042   5.430   2.810 -1.4547 -1.0525 -1.2456
10202SOL    HW231427   0.044   5.361   2.689 -0.0503  0.7434 -1.2950
10203SOL     OW31428   3.965   4.015   1.631 -0.2981  0.2129  0.3003
10203SOL    HW131429   3.897   4.076   1.673  1.1799 -0.1545  3.5975
10203SOL    HW231430   4.052   4.064   1.622  0.5573 -0.9621  1.7885
10204SOL     OW31431   0.972   0.070   3.116 -0.3973  0.3268  0.1131
10204SOL    HW131432   0.904   0.088   3.045  0.3939 -0.8613 -1.0072
10204SOL    HW231433   1.024   0.154   3.135  1.6536  0.0010 -3.2512
10205SOL     OW31434   5.053   4.678   3.329 -0.5333  0.1764 -0.1164
10205SOL    HW131435   5.048   4.730   3.414 -2.2307  0.7626 -0.5510
10205SOL    HW231436   4.974   4.618   3.320  0.2209 -0.7601 -0.7397
10206SOL     OW31437   1.268   6.250   2.861 -0.0565  0.4109  0.8094
10206SOL    HW131438   1.305   6.162   2.832  0.1529  0.5016  0.7922
10206SOL    HW231439   1.301   6.321   2.799 -2.3080  0.1595 -0.8124
10207SOL     OW31440   4.215   5.395   4.887 -0.1472  0.4775  0.9796
10207SOL    HW131441   4.307   5.361   4.870  0.2583  1.7930  0.3710
10207SOL    HW231442   4.148   5.339   4.837  0.5462  0.8849 -0.4708
10208SOL     OW31443   5.636   5.669   5.076  0.2941  0.4822  0.3883
10208SOL    HW131444   5.643   5.766   5.056  1.4372 -0.3660 -4.5904
10208SOL    HW231445   5.713   5.641   5.133  0.0822  2.4042  1.6801
10209SOL     OW31446   0.104   2.048   1.791 -0.6613 -0.3898 -0.1796
10209SOL    HW131447   0.010   2.052   1.823 -1.4034  0.1094 -2.1896
10209SOL    HW231448   0.131   2.138   1.757  0.5002 -0.5581  0.2539
10210SOL     OW31449   5.749   4.287   0.170  0.0943 -0.0286 -0.2149
10210SOL    HW131450   5.725   4.297   0.073  0.4942 -2.7614 -0.6848
10210SOL    HW231451   5.837   4.332   0.187 -0.8788  2.1684 -0.5917
10211SOL     OW31452   5.895   6.299   5.092 -0.4949  0.1675  0.2484
10211SOL    HW131453   5.837   6.333   5.166 -0.7146 -0.3560  0.3222
10211SOL    HW231454   5.839   6.264   5.018 -0.2895 -0.7284  0.5003
10212SOL     OW31455   6.425   1.959   4.555  0.0149  0.4436 -0.0274
10212SOL    HW131456   6.437   1.882   4.618  0.0815 -0.1186 -0.7054
10212SOL    HW231457   6.428   1.925   4.460  0.0305  1.2840 -0.3372
10213SOL     OW31458   1.430   0.671   5.244  0.0384 -0.1927 -0.5786
10213SOL    HW131459   1.336   0.672   5.278  0.7137 -0.2707  1.4106
10213SOL    HW231460   1.437   0.728   5.162 -1.6836 -0.0127 -0.6247
10214SOL     OW31461   6.001   5.292   3.108 -0.6666 -0.5307 -0.3967
10214SOL    HW131462   5.954   5.251   3.186 -1.0134 -0.8129 -0.7500
10214SOL    HW231463   6.092   5.253   3.100 -0.1577  0.4050  0.6143
10215SOL     OW31464   0.443   6.107   1.078  0.2848 -0.3291  0.0873
10215SOL    HW131465   0.396   6.019   1.064 -0.7453  0.1527  0.4361
10215SOL    HW231466   0.541   6.094   1.063  0.3012 -1.7735  1.1483
10216SOL     OW31467   4.485   1.777   6.387  0.0240 -0.4609 -0.5862
10216SOL    HW131468   4.398   1.763   6.434 -1.0220 -1.3354 -2.6753
10216SOL    HW231469   4.542   1.696   6.397  1.6749  0.9247  2.7185
10217SOL     OW31470   6.239   1.257   3.739  0.4916  0.1300  0.0367
10217SOL    HW131471   6.298   1.223   3.666 -0.2427  1.0219 -1.0210
10217SOL    HW231472   6.161   1.305   3.698  0.8371  1.9891  1.4172
10218SOL     OW31473   2.386   3.058   2.757 -0.1675 -0.0185  0.4820
10218SOL    HW131474   2.462   3.106   2.712 -0.7462  0.7780  0.3336
10218SOL    HW231475   2.374   3.093   2.849 -0.4334 -0.0602  0.4656
10219SOL     OW31476   5.809   5.033   6.080  0.2577 -0.3203 -0.0678
10219SOL    HW131477   5.906   5.012   6.078 -0.1988 -2.6786 -2.2765
10219SOL    HW231478   5.760   4.962   6.131 -0.6872 -1.5528 -2.5310
10220SOL     OW31479   1.591   2.922   4.125  0.3063  0.2942  0.2173
10220SOL    HW131480   1.660   2.959   4.062  0.8332 -0.0555  0.5843
10220SOL    HW231481   1.554   2.837   4.088  0.9787 -0.1884  0.5985
10221SOL     OW31482   5.064   1.644   3.445 -0.3362 -0.3125 -0.0484
10221SOL    HW131483   5.101   1.737   3.442  0.8712 -0.7319  0.7544
10221SOL    HW231484   5.077   1.607   3.537 -3.1007 -0.3963  0.3792
10222SOL     OW31485   6.133   2.164   5.170  0.1561 -0.0407 -0.1661
10222SOL    HW131486   6.064   2.235   5.182 -1.0407 -1.1299 -0.2497
10222SOL    HW231487   6.087   2.076   5.156  1.5667 -1.1247  1.5138
10223SOL     OW31488   4.423   2.888   0.478  0.6072 -0.2528 -0.2172
10223SOL    HW131489   4.369   2.951   0.533 -0.8915 -0.6915 -1.1413
10223SOL    HW231490   4.503   2.936   0.441 -0.6295  1.1857 -1.1099
10224SOL     OW31491   0.558   1.403   5.459  0.2817  0.0467 -0.0528
10224SOL    HW131492   0.529   1.312   5.429 -1.3106 -0.1133  1.7484
10224SOL    HW231493   0.643   1.396   5.511  0.9602 -0.1927 -1.1760
10225SOL     OW31494   0.619   3.701   4.038  0.2003  0.2260  0.4690
10225SOL    HW131495   0.525   3.736   4.042  0.5534  1.5527 -1.5535
10225SOL    HW231496   0.683   3.774   4.060  0.8265 -0.5150  1.2283
10226SOL     OW31497   5.304   6.609   0.875 -0.1870  0.7007 -0.4623
10226SOL    HW131498   5.222   6.559   0.848 -0.2729  1.7349 -2.3420
10226SOL    HW231499   5.291   6.649   0.966 -0.4389 -1.8832  0.7127
10227SOL     OW31500   4.907   0.741   1.666  0.0769  0.3073 -0.0942
10227SOL    HW131501   4.971   0.790   1.606 -0.7305  1.0621 -0.3498
10227SOL    HW231502   4.821   0.791   1.672 -1.0003 -1.3432 -0.8127
10228SOL     OW31503   5.060   5.752   0.064 -0.4745 -0.4799  0.2549
10228SOL    HW131504   5.148   5.766   0.018 -0.7232 -0.2295 -0.1252
10228SOL    HW231505   5.025   5.841   0.094 -0.7252 -0.5507  0.1689
10229SOL     OW31506   2.411   4.687   1.395 -0.0508  0.3393 -0.8220
10229SOL    HW131507   2.453   4.773   1.364 -1.3851  0.2617 -3.1430
10229SOL    HW231508   2.375   4.638   1.315 -0.9675 -1.4993  0.6499
10230SOL     OW31509   2.758   4.690   5.890  0.2664  0.5388 -0.0283
10230SOL    HW131510   2.678   4.742   5.861 -1.1760 -0.7874  1.3616
10230SOL    HW231511   2.773   4.704   5.988 -0.9793 -2.5041  0.7120
10231SOL     OW31512   2.705   5.880   4.531 -0.2416 -0.1009 -0.1153
10231SOL    HW131513   2.640   5.857   4.459 -0.0756  0.8418 -0.6066
10231SOL    HW231514   2.672   5.847   4.619 -0.7856 -0.6862 -0.5257
10232SOL     OW31515   3.080   2.491   3.158 -0.4959  0.0434  0.1387
10232SOL    HW131516   3.035   2.511   3.071  1.6672  0.6121 -0.9021
10232SOL    HW231517   3.139   2.567   3.184 -0.6903 -0.3429  1.8655
10233SOL     OW31518   2.421   5.325   5.049 -0.1604  0.2599 -0.4100
10233SOL    HW131519   2.355   5.308   5.122 -0.5329 -0.3424 -0.8818
10233SOL    HW231520   2.398   5.411   5.003 -0.2945  0.3256 -0.2239
10234SOL     OW31521   5.485   6.611   4.286  0.2530  0.1894 -0.7016
10234SOL    HW131522   5.403   6.558   4.309  0.7193 -0.1575  0.1767
10234SOL    HW231523   5.521   6.655   4.368 -0.4881  2.3911 -1.4900
10235SOL     OW31524   1.901   2.543   0.129 -1.0167 -0.3982 -0.1610
10235SOL    HW131525   1.847   2.471   0.172  1.7481 -3.3745 -1.2594
10235SOL    HW231526   1.984   2.558   0.183 -0.6256  0.5658 -1.0160
10236SOL     OW31527   1.803   4.217   3.203 -0.0207  0.3096 -0.2395
10236SOL    HW131528   1.764   4.143   3.147  0.8722  0.1497 -0.6715
10236SOL    HW231529   1.855   4.279   3.144 -1.4552  1.7704 -0.0167
10237SOL     OW31530   5.429   2.707   3.991 -0.5553 -0.4282 -0.2257
10237SOL    HW131531   5.417   2.647   3.912 -4.0155 -0.1216 -0.0973
10237SOL    HW231532   5.388   2.664   4.071  0.5305  0.4035  0.8014
10238SOL     OW31533   0.296   0.876   2.867  0.2369  0.5017 -0.4574
10238SOL    HW131534   0.297   0.894   2.769  0.7293  1.9759 -0.2010
10238SOL    HW231535   0.222   0.928   2.910  0.5968  0.6031  0.0727
10239SOL     OW31536   0.045   2.937   0.866  0.1445  0.5332  0.0149
10239SOL    HW131537   0.021   2.906   0.774 -0.4682 -0.4507  0.4889
10239SOL    HW231538  -0.018   3.009   0.894 -0.0536  0.4161 -0.1052
10240SOL     OW31539   4.887   6.052   1.977 -0.2770 -0.1773  0.5395
10240SOL    HW131540   4.906   6.150   1.980 -2.9840  0.4345  0.6520
10240SOL    HW231541   4.797   6.034   2.016 -0.3598 -2.5771 -0.5346
10241SOL     OW31542   1.351   1.914   5.063 -0.0486 -0.3334  0.3046
10241SOL    HW131543   1.290   1.889   4.988 -0.0344 -2.5638  0.9654
10241SOL    HW231544   1.297   1.939   5.144 -0.0597 -0.2509  0.2774
10242SOL     OW31545   0.316   6.039   3.248 -0.1412 -0.1575  0.4221
10242SOL    HW131546   0.335   6.073   3.156 -2.5137  1.3529  0.4185
10242SOL    HW231547   0.273   5.950   3.243  1.4329 -0.9537  0.2147
10243SOL     OW31548   3.961   2.486   2.277  0.0486  0.7184  0.2325
10243SOL    HW131549   3.893   2.516   2.211  0.5492  0.0308 -0.6207
10243SOL    HW231550   3.933   2.399   2.318  0.5414  0.2813 -0.3395
10244SOL     OW31551   5.918   1.663   4.513 -0.2913 -0.2021  0.2605
10244SOL    HW131552   5.955   1.725   4.444  1.2637 -1.1299  0.2117
10244SOL    HW231553   5.870   1.588   4.469  0.2819 -0.5321  0.1784
10245SOL     OW31554   2.282   2.770   4.893 -0.0720 -0.4884  0.0595
10245SOL    HW131555   2.379   2.748   4.890  0.4524  1.6186 -0.1575
10245SOL    HW231556   2.246   2.755   4.985  0.2210 -2.1009 -0.0675
10246SOL     OW31557   5.566   5.509   1.716  0.1467 -0.3701  0.2329
10246SOL    HW131558   5.642   5.566   1.685 -0.4583 -0.0209 -0.6560
10246SOL    HW231559   5.582   5.414   1.689  0.4165 -0.3595  0.3424
10247SOL     OW31560   6.473   6.655   2.620 -0.0637  0.5104 -0.1014
10247SOL    HW131561   6.478   6.605   2.534  0.0696 -0.6473  0.5598
10247SOL    HW231562   6.562   6.695   2.642  0.6477 -1.3870  0.7445
10248SOL     OW31563   0.361   3.506   0.889 -0.2382 -0.9551 -0.3643
10248SOL    HW131564   0.388   3.421   0.934  0.9185 -1.1712 -1.3901
10248SOL    HW231565   0.294   3.555   0.945  0.7604 -1.4519  1.3106
10249SOL     OW31566   2.676   2.257   5.189  0.5603  0.1196  0.2069
10249SOL    HW131567   2.593   2.227   5.235  1.0837 -1.5578  0.1272
10249SOL    HW231568   2.741   2.292   5.257  1.2102 -2.0599  0.7911
10250SOL     OW31569   2.223   0.781   4.573  0.2260  0.2862  0.1010
10250SOL    HW131570   2.142   0.729   4.598 -1.2113  1.7030 -1.3394
10250SOL    HW231571   2.246   0.846   4.645 -2.3975  2.6478 -1.0320
10251SOL     OW31572   6.460   1.185   0.897 -0.0520  0.3769 -0.1232
10251SOL    HW131573   6.491   1.265   0.948  1.0609  2.0627 -3.1826
10251SOL    HW231574   6.539   1.127   0.875 -0.8005 -1.5046  1.7820
10252SOL     OW31575   0.167   4.264   4.318  0.1301 -0.7006  0.4713
10252SOL    HW131576   0.128   4.307   4.400  0.0028  1.3550 -0.6049
10252SOL    HW231577   0.127   4.174   4.305 -1.0433 -0.4013  1.7862
10253SOL     OW31578   1.288   1.561   1.676 -0.0310  0.0717 -0.3810
10253SOL    HW131579   1.197   1.571   1.636  0.4994 -0.7410 -1.8872
10253SOL    HW231580   1.287   1.489   1.745 -0.4291 -0.2851 -0.7548
10254SOL     OW31581   1.593   2.879   7.013 -0.1233 -0.2659  0.1239
10254SOL    HW131582   1.571   2.825   6.932 -2.0309  0.0426  0.3914
10254SOL    HW231583   1.692   2.886   7.022  0.1480 -0.4861 -2.0807
10255SOL     OW31584   4.659   0.340   0.979 -0.3958 -0.7496 -0.0042
10255SOL    HW131585   4.734   0.308   1.036 -1.4999 -4.2477 -0.2673
10255SOL    HW231586   4.572   0.316   1.022 -1.4117  2.1306 -0.2693
10256SOL     OW31587   3.753   1.601   3.125 -0.5750  0.9384  0.7602
10256SOL    HW131588   3.751   1.554   3.037  0.1299  1.3746  0.4987
10256SOL    HW231589   3.822   1.559   3.184 -0.1622  1.4237  0.6390
10257SOL     OW31590   1.984   0.420   5.052 -0.1168  0.4669 -0.4586
10257SOL    HW131591   2.009   0.465   4.967  0.0324 -0.0097 -0.6693
10257SOL    HW231592   1.928   0.340   5.033 -3.2103  2.3736  0.0781
10258SOL     OW31593   0.609   6.411   2.271  0.0542  0.1102  0.1234
10258SOL    HW131594   0.657   6.328   2.242 -0.1408 -0.1576  0.5697
10258SOL    HW231595   0.647   6.489   2.222  1.3396 -0.0146  0.8701
10259SOL     OW31596   2.464   2.398   6.573  0.4496 -0.2953  0.2225
10259SOL    HW131597   2.413   2.340   6.635  1.8929 -1.1073  0.7020
10259SOL    HW231598   2.548   2.430   6.618  1.2154 -0.4003 -1.0705
10260SOL     OW31599   1.049   5.087   4.128  0.0588 -0.0422 -0.7210
10260SOL    HW131600   1.099   5.146   4.065  1.0501  0.0627  0.1234
10260SOL    HW231601   1.100   5.080   4.214 -2.0399  1.1630  0.7143
10261SOL     OW31602   1.963   6.611   5.576  0.7455 -0.1221 -0.0682
10261SOL    HW131603   1.940   6.606   5.479  1.4045  0.3367 -0.2655
10261SOL    HW231604   1.988   6.705   5.600  2.1758 -0.5278  0.1440
10262SOL     OW31605   0.983   4.530   0.092  0.0147  0.1557  0.1039
10262SOL    HW131606   1.079   4.506   0.082 -0.2984 -2.3512  2.1479
10262SOL    HW231607   0.926   4.453   0.063 -1.4040  1.2711 -0.2560
10263SOL     OW31608   4.490   6.834   2.513  0.4532 -0.5442  0.2143
10263SOL    HW131609   4.588   6.848   2.519  0.5268 -0.3863 -1.0631
10263SOL    HW231610   4.467   6.741   2.542  1.0339 -0.7147  0.1331
10264SOL     OW31611   2.034   6.849   5.047 -0.0172 -0.3383  0.3521
10264SOL    HW131612   1.968   6.797   5.101  0.3562 -1.0627  0.1275
10264SOL    HW231613   1.988   6.925   5.002 -0.4036  0.0629  1.3995
10265SOL     OW31614   5.176   2.192   0.491 -0.0993  0.3088  0.0183
10265SOL    HW131615   5.272   2.168   0.485  0.0443  0.6193  0.9569
10265SOL    HW231616   5.159   2.242   0.576 -0.9985  0.6609 -0.3458
10266SOL     OW31617   6.882   3.694   3.564  0.0529 -0.0897  0.0848
10266SOL    HW131618   6.877   3.636   3.483  1.5467  0.3414 -0.3318
10266SOL    HW231619   6.792   3.697   3.608 -0.3696 -1.6324 -0.6299
10267SOL     OW31620   0.142   5.237   2.149  0.3688 -0.0089  0.2842
10267SOL    HW131621   0.239   5.240   2.171  0.0258 -0.8714  2.1913
10267SOL    HW231622   0.097   5.169   2.207 -1.6323  1.4823  0.5948
10268SOL     OW31623   2.498   6.460   4.210 -0.2367  0.1242  0.0815
10268SOL    HW131624   2.533   6.366   4.206  0.5622  0.4252 -0.2709
10268SOL    HW231625   2.400   6.460   4.192 -0.5335 -0.7954  1.5786
10269SOL     OW31626   6.208   1.797   5.848  0.0130  0.2424  0.3772
10269SOL    HW131627   6.134   1.835   5.792 -0.6444 -0.8070  0.5028
10269SOL    HW231628   6.274   1.869   5.869 -1.2614  1.3383  0.7439
10270SOL     OW31629   0.455   1.310   1.572 -0.0596  0.2500 -0.4162
10270SOL    HW131630   0.442   1.409   1.582 -1.0911  0.1155 -0.3199
10270SOL    HW231631   0.487   1.291   1.479 -1.7088  0.5544 -1.1118
10271SOL     OW31632   3.098   2.406   5.408  0.1216 -0.3760  0.1355
10271SOL    HW131633   3.069   2.367   5.495  1.5027 -1.8614 -0.0135
10271SOL    HW231634   3.107   2.505   5.417  0.7623 -0.5566  1.8416
10272SOL     OW31635   3.072   0.469   1.095  0.2912  0.2513 -0.1418
10272SOL    HW131636   3.020   0.529   1.156  1.1820  0.1052  0.7811
10272SOL    HW231637   3.060   0.374   1.124  0.4554  0.1555 -0.3882
10273SOL     OW31638   4.563   1.357   4.636  0.0562  0.0576  0.0149
10273SOL    HW131639   4.532   1.380   4.728 -0.0259  0.3758 -0.0914
10273SOL    HW231640   4.515   1.414   4.569  0.4591  0.1564 -0.1921
10274SOL     OW31641   1.970   5.615   5.901 -0.1052  0.0511  0.2743
10274SOL    HW131642   1.986   5.518   5.886 -1.1977 -0.0725 -0.0954
10274SOL    HW231643   1.997   5.639   5.995 -0.9591 -0.8550  0.7567
10275SOL     OW31644   1.309   5.965   6.110  0.1657  0.1754 -0.1538
10275SOL    HW131645   1.339   5.869   6.107  0.7592  0.3402  0.3968
10275SOL    HW231646   1.380   6.023   6.070  0.4319  0.5365  0.8384
10276SOL     OW31647   0.505   6.277   1.354 -0.6993  0.2943 -0.0063
10276SOL    HW131648   0.523   6.351   1.290 -0.5611  1.1732  1.0363
10276SOL    HW231649   0.477   6.195   1.303 -0.3290  0.8933 -1.1932
10277SOL     OW31650   2.528   2.279   2.787 -0.6478  0.2294 -0.0198
10277SOL    HW131651   2.619   2.293   2.749 -0.4750 -1.6462 -0.3767
10277SOL    HW231652   2.486   2.368   2.806  0.6933  1.1517 -1.1642
10278SOL     OW31653   5.633   4.610   6.243 -0.7164 -0.3361 -0.2820
10278SOL    HW131654   5.662   4.552   6.167 -0.7278 -0.7276  0.0060
10278SOL    HW231655   5.551   4.570   6.285 -1.5361  0.6093 -0.9232
10279SOL     OW31656   1.891   5.205   4.858 -0.0507 -0.3076 -0.1916
10279SOL    HW131657   1.950   5.262   4.802  0.6535 -0.0940  0.7404
10279SOL    HW231658   1.915   5.216   4.955 -2.5739  0.9196  0.3658
10280SOL     OW31659   4.175   0.206   5.684  0.5911  0.2864  0.7086
10280SOL    HW131660   4.217   0.119   5.656 -0.1735  0.4135 -0.9716
10280SOL    HW231661   4.086   0.188   5.724 -0.4448  0.3335 -1.4037
10281SOL     OW31662   3.250   5.716   2.363 -0.0947  0.2863 -0.1674
10281SOL    HW131663   3.246   5.761   2.273 -2.8677 -0.8952 -0.7571
10281SOL    HW231664   3.300   5.630   2.355 -0.8033 -0.0889 -0.7647
10282SOL     OW31665   3.466   5.246   0.141 -0.4666 -0.1701  0.2563
10282SOL    HW131666   3.516   5.194   0.211 -0.0620  0.4411  0.4343
10282SOL    HW231667   3.531   5.293   0.082 -0.8250  0.4574  0.3509
10283SOL     OW31668   6.551   0.526   3.881 -0.0992 -0.0839  0.0249
10283SOL    HW131669   6.502   0.450   3.923  0.8966 -1.2260 -0.8042
10283SOL    HW231670   6.615   0.491   3.813  0.4644  1.5009 -0.3092
10284SOL     OW31671   0.998   6.692   2.918 -0.0744 -0.4770  0.0177
10284SOL    HW131672   0.901   6.678   2.933 -0.7401  0.6903 -2.5890
10284SOL    HW231673   1.050   6.618   2.961 -1.8841 -0.0849  3.1879
10285SOL     OW31674   4.314   3.277   3.242 -0.1990  0.6600  0.2003
10285SOL    HW131675   4.410   3.248   3.249 -0.7324 -0.7573  2.3558
10285SOL    HW231676   4.275   3.239   3.158  0.7246  0.0151  0.0423
10286SOL     OW31677   5.260   1.007   4.836  0.5039 -0.2056  0.6789
10286SOL    HW131678   5.345   0.959   4.814  1.2400  0.6014  1.7043
10286SOL    HW231679   5.238   1.073   4.764  2.1839  1.4724  1.6232
10287SOL     OW31680   2.781   2.376   2.707  0.5962 -0.7762  0.0583
10287SOL    HW131681   2.878   2.359   2.690  0.4575 -0.3558 -1.2809
10287SOL    HW231682   2.745   2.438   2.637 -0.3162  0.2010  1.3342
10288SOL     OW31683   5.350   0.923   0.886 -0.0578 -0.1872 -0.2322
10288SOL    HW131684   5.267   0.958   0.929  0.1177 -0.0133 -0.0338
10288SOL    HW231685   5.336   0.915   0.788 -0.5818 -0.9055 -0.1106
10289SOL     OW31686   3.347   0.555   0.398 -0.3717 -0.0787 -0.4793
10289SOL    HW131687   3.328   0.512   0.309  1.7212 -0.7082 -0.6756
10289SOL    HW231688   3.262   0.595   0.434 -1.4949 -0.7131 -2.2567
10290SOL     OW31689   3.215   3.118   5.918  0.4569 -0.2499  0.0576
10290SOL    HW131690   3.160   3.075   5.847 -0.1581 -0.4132  0.6109
10290SOL    HW231691   3.279   3.051   5.956 -0.3842 -0.6585  0.8048
10291SOL     OW31692   0.469   0.384   2.075 -0.3291 -0.0638  0.3665
10291SOL    HW131693   0.384   0.435   2.062 -1.0953 -1.5994 -0.8351
10291SOL    HW231694   0.455   0.311   2.142  0.4674  0.5585  1.2509
10292SOL     OW31695   0.826   5.543   4.672 -0.0155  0.0309 -0.1519
10292SOL    HW131696   0.867   5.634   4.669 -0.3034  0.1493 -1.7432
10292SOL    HW231697   0.733   5.549   4.706  0.1459  0.2475  0.2593
10293SOL     OW31698   6.167   4.160   2.107 -0.4342  0.0648 -0.8507
10293SOL    HW131699   6.257   4.192   2.134 -1.2626  2.7899 -1.0654
10293SOL    HW231700   6.175   4.102   2.026  0.9920  1.2316 -1.5734
10294SOL     OW31701   1.053   6.007   3.254 -0.5814  0.2532  0.2097
10294SOL    HW131702   1.123   6.068   3.217  1.4316 -2.0266  0.0419
10294SOL    HW231703   1.019   6.044   3.341  1.1455  1.1818  0.5290
10295SOL     OW31704   3.026   4.414   0.046 -0.0571  0.0440  0.1084
10295SOL    HW131705   2.937   4.377   0.019 -0.4884  1.6041 -0.7067
10295SOL    HW231706   3.098   4.365  -0.002 -0.3845 -1.7881  1.4066
10296SOL     OW31707   4.468   2.081   1.500 -0.2913  0.0438  0.4880
10296SOL    HW131708   4.421   2.153   1.550  0.2551  1.0322 -0.3786
10296SOL    HW231709   4.416   1.996   1.507 -2.0412  1.0152 -0.1912
10297SOL     OW31710   6.489   2.850   5.523 -0.1813 -0.1735 -0.3842
10297SOL    HW131711   6.398   2.875   5.490 -0.8595 -1.8025  0.1642
10297SOL    HW231712   6.480   2.786   5.599  1.4091  0.7797  0.6553
10298SOL     OW31713   5.228   3.942   1.840 -0.4263  0.4033  0.5495
10298SOL    HW131714   5.315   3.924   1.795 -2.3452 -1.4572 -2.7953
10298SOL    HW231715   5.216   3.877   1.916  1.4474  1.3733  1.7505
10299SOL     OW31716   6.009   5.125   0.419 -0.1443  0.2637  0.0637
10299SOL    HW131717   6.036   5.196   0.484 -0.6644 -1.4375  2.2985
10299SOL    HW231718   5.911   5.106   0.430  0.2316 -1.6427  0.4828
10300SOL     OW31719   4.969   0.095   1.665 -0.0362  0.0057  0.2661
10300SOL    HW131720   4.999   0.117   1.572 -1.5672  2.0101  0.1892
10300SOL    HW231721   5.044   0.110   1.729  0.4044  0.6917 -0.3981
10301SOL     OW31722   6.988   3.147   2.093 -0.4723 -0.6094 -0.6198
10301SOL    HW131723   6.983   3.175   2.189 -0.6041  0.0878 -0.8296
10301SOL    HW231724   6.906   3.093   2.071 -0.8528 -0.0246 -0.5893
10302SOL     OW31725   3.797   1.179   2.839  0.3156 -0.1073  0.0156
10302SOL    HW131726   3.889   1.143   2.827  0.5409  0.4263  0.1146
10302SOL    HW231727   3.765   1.219   2.753 -0.1135 -0.9357 -0.2236
10303SOL     OW31728   4.359   2.196   5.808 -0.0624 -0.3819 -0.1042
10303SOL    HW131729   4.370   2.283   5.761  0.4290 -0.7744 -0.7267
10303SOL    HW231730   4.416   2.126   5.764 -0.1348 -0.9255  0.6353
10304SOL     OW31731   2.270   2.174   0.556  0.2413  0.7279 -0.2603
10304SOL    HW131732   2.254   2.238   0.631  0.2147  0.5887 -0.1428
10304SOL    HW231733   2.183   2.130   0.532  0.6604 -1.1963  1.4433
10305SOL     OW31734   4.062   5.995   1.398  0.1262 -0.0257 -0.8093
10305SOL    HW131735   4.111   5.962   1.479  0.0120  0.3165 -0.5985
10305SOL    HW231736   3.964   5.977   1.408 -0.2226  2.0897  0.1985
10306SOL     OW31737   1.766   5.438   2.078  0.2068  0.8191  0.4509
10306SOL    HW131738   1.747   5.377   2.000  1.4999  0.3907  0.4280
10306SOL    HW231739   1.793   5.528   2.043 -0.4716  1.0240  0.4461
10307SOL     OW31740   6.135   4.440   3.689  0.6033  0.0556 -0.0936
10307SOL    HW131741   6.140   4.393   3.601  0.3836  0.6210 -0.4162
10307SOL    HW231742   6.069   4.394   3.748  0.2488  0.0713 -0.4763
10308SOL     OW31743   6.398   0.656   0.885 -0.1924 -0.2318  0.2120
10308SOL    HW131744   6.381   0.707   0.969  0.4880 -1.5653  1.1876
10308SOL    HW231745   6.486   0.609   0.891 -0.0052 -0.1747 -1.3619
10309SOL     OW31746   0.044   5.555   4.598 -0.1983 -0.1600  0.3235
10309SOL    HW131747  -0.021   5.631   4.605 -0.1117  0.2729 -2.4357
10309SOL    HW231748   0.040   5.518   4.505  3.6065 -0.0212  0.0005
10310SOL     OW31749   0.787   0.864   4.753  0.2463 -0.0146  0.3631
10310SOL    HW131750   0.720   0.937   4.764  0.6189  0.0071  2.9515
10310SOL    HW231751   0.872   0.903   4.717 -0.0732  0.5389  0.1851
10311SOL     OW31752   2.288   2.192   6.317 -0.0279  0.1687 -0.4411
10311SOL    HW131753   2.292   2.092   6.329 -1.9077  0.3303  2.3571
10311SOL    HW231754   2.381   2.227   6.306  0.7066 -1.8337 -1.2033
10312SOL     OW31755   4.946   3.096   2.225  0.2023  0.2740 -0.3994
10312SOL    HW131756   4.907   3.148   2.149  0.8228  0.1500 -0.8088
10312SOL    HW231757   4.872   3.059   2.281 -0.2519  1.2128 -0.3574
10313SOL     OW31758   3.678   4.829   3.976  0.1135  0.4440  0.0180
10313SOL    HW131759   3.675   4.899   3.904  0.5145 -0.6199 -1.0779
10313SOL    HW231760   3.584   4.804   4.000 -0.0520  1.8128  0.9071
10314SOL     OW31761   1.876   3.515   5.743 -0.1808  0.1203  0.2377
10314SOL    HW131762   1.895   3.420   5.719 -1.0035 -0.1338  0.5763
10314SOL    HW231763   1.900   3.531   5.838 -2.3915 -0.4502  0.9765
10315SOL     OW31764   4.893   0.115   6.563 -0.0131  0.0120 -0.2666
10315SOL    HW131765   4.894   0.018   6.537 -1.9324 -0.0987 -0.0195
10315SOL    HW231766   4.819   0.162   6.515 -3.1511  0.0014  3.9604
10316SOL     OW31767   5.900   2.681   3.392  0.6045 -0.4401 -0.6607
10316SOL    HW131768   5.907   2.583   3.413 -0.6708 -0.2459  0.7940
10316SOL    HW231769   5.833   2.694   3.319 -1.2793 -0.4968  0.9695
10317SOL     OW31770   3.475   2.185   0.019 -0.0369 -0.0537 -0.3562
10317SOL    HW131771   3.452   2.101   0.068 -0.3581 -1.1854 -2.3125
10317SOL    HW231772   3.563   2.173  -0.027 -0.7694  0.1082 -1.8263
10318SOL     OW31773   0.485   0.577   1.170  0.1947  0.1349 -0.4808
10318SOL    HW131774   0.392   0.542   1.180  0.2826 -0.0798 -0.3879
10318SOL    HW231775   0.529   0.530   1.094  0.0474  0.6341 -0.8878
10319SOL     OW31776   0.097   6.981   6.271 -0.8091  0.4848 -0.1684
10319SOL    HW131777   0.145   6.978   6.359 -0.4854  2.1088 -0.2568
10319SOL    HW231778  -0.002   6.989   6.288 -0.7984  0.2190  0.0438
10320SOL     OW31779   4.736   6.304   4.442 -0.2972 -0.6455 -0.4129
10320SOL    HW131780   4.758   6.396   4.412 -0.7121 -0.3518  0.1701
10320SOL    HW231781   4.792   6.238   4.390 -2.2709 -0.3058 -3.1495
10321SOL     OW31782   4.897   6.569   0.667 -0.4004  0.2502 -0.3789
10321SOL    HW131783   4.894   6.654   0.616 -0.4965  1.0891  0.9699
10321SOL    HW231784   4.828   6.571   0.740 -0.7391 -1.1879 -0.6166
10322SOL     OW31785   6.825   5.428   2.979 -0.2143 -0.4689 -0.1428
10322SOL    HW131786   6.807   5.335   2.947 -0.9186 -1.1227  1.9927
10322SOL    HW231787   6.863   5.425   3.072 -0.5196  1.3637  0.0830
10323SOL     OW31788   2.168   6.085   3.479  0.3140 -0.2540  0.7117
10323SOL    HW131789   2.252   6.053   3.524 -0.1538 -1.0814  1.0266
10323SOL    HW231790   2.192   6.150   3.408  1.3954 -1.7615 -0.3882
10324SOL     OW31791   3.630   2.909   6.861 -0.7979  0.0209  0.5851
10324SOL    HW131792   3.606   2.816   6.886 -0.0036 -0.1349  0.7910
10324SOL    HW231793   3.683   2.951   6.934 -0.1648  0.2369  0.0101
10325SOL     OW31794   3.430   4.826   2.396  0.0808 -0.6782 -0.0199
10325SOL    HW131795   3.397   4.835   2.490  0.1837  0.2830 -0.0679
10325SOL    HW231796   3.500   4.755   2.392  1.8514  0.8913  1.1394
10326SOL     OW31797   6.704   2.826   1.013  0.0001  0.4295  0.2308
10326SOL    HW131798   6.793   2.782   1.026 -0.2678 -0.0771  0.3591
10326SOL    HW231799   6.684   2.831   0.915  0.8127  1.8453  0.1130
10327SOL     OW31800   1.331   3.333   5.099  0.4754  0.3068  0.4000
10327SOL    HW131801   1.316   3.352   5.002 -0.1847 -0.9302  0.2442
10327SOL    HW231802   1.287   3.247   5.124  0.6812  0.5733  1.7969
10328SOL     OW31803   5.701   6.567   4.981 -0.1337  0.2291 -0.2638
10328SOL    HW131804   5.694   6.657   5.024  0.7225 -0.7076  1.9795
10328SOL    HW231805   5.788   6.524   5.006  0.3334 -0.5035 -2.8229
10329SOL     OW31806   3.910   4.290   5.548  0.0258  0.1510  0.6552
10329SOL    HW131807   3.946   4.256   5.635  0.1317 -0.0157  0.5460
10329SOL    HW231808   3.962   4.251   5.472 -0.1528  0.1911  0.5118
10330SOL     OW31809   2.231   6.081   4.181 -0.0500 -0.1520 -0.3368
10330SOL    HW131810   2.186   6.149   4.239 -0.3187 -0.5860 -0.0207
10330SOL    HW231811   2.330   6.093   4.186 -0.1109  0.4634 -0.5980
10331SOL     OW31812   0.237   2.079   4.972 -0.5389 -0.5792 -0.3400
10331SOL    HW131813   0.183   2.014   4.919  0.0649 -1.7032  0.3971
10331SOL    HW231814   0.176   2.145   5.016 -1.2335 -1.2555 -0.2809
10332SOL     OW31815   6.389   3.811   5.336  0.1458 -0.3662  0.0463
10332SOL    HW131816   6.408   3.808   5.434 -0.2950 -1.1052  0.1139
10332SOL    HW231817   6.297   3.847   5.322  0.9851  1.8874 -0.2181
10333SOL     OW31818   5.687   0.525   4.460  0.7426 -0.0722 -0.3597
10333SOL    HW131819   5.776   0.521   4.416  1.8641 -0.1416  1.8007
10333SOL    HW231820   5.694   0.574   4.547 -1.1808 -0.7202  0.2217
10334SOL     OW31821   5.706   4.978   1.834  0.3204 -1.2316  0.3145
10334SOL    HW131822   5.729   4.912   1.762  0.6125 -0.7197 -0.0704
10334SOL    HW231823   5.614   5.014   1.818  0.2976 -1.2807  0.3304
10335SOL     OW31824   3.995   2.711   2.904 -0.5680  0.1894  0.3358
10335SOL    HW131825   3.951   2.795   2.936  0.5104  1.3548 -1.1600
10335SOL    HW231826   3.965   2.690   2.811  0.5912 -0.0477  0.0065
10336SOL     OW31827   1.429   0.206   2.336  0.0165  0.3444  0.3013
10336SOL    HW131828   1.493   0.235   2.264 -0.5681  1.8891  0.3525
10336SOL    HW231829   1.399   0.287   2.387  1.1546 -0.7917  2.9375
10337SOL     OW31830   0.174   5.850   4.920 -0.2332 -0.0805  0.0822
10337SOL    HW131831   0.109   5.926   4.910 -1.0915 -1.0744 -2.7598
10337SOL    HW231832   0.162   5.808   5.010 -1.0504  1.9623  0.9815
10338SOL     OW31833   5.709   3.917   7.007  1.1062  0.4180  0.3143
10338SOL    HW131834   5.745   3.960   7.090  1.7925 -0.2592  0.3665
10338SOL    HW231835   5.651   3.839   7.032  1.3509  0.1834  0.1468
10339SOL     OW31836   5.109   3.972   2.825  0.3821  0.1680  0.2695
10339SOL    HW131837   5.188   3.983   2.765  0.7081 -0.3083  0.6004
10339SOL    HW231838   5.083   3.875   2.829  0.0976  0.2528  0.5554
10340SOL     OW31839   3.820   3.466   1.710 -0.1026 -0.6195 -0.3986
10340SOL    HW131840   3.823   3.525   1.629  0.2674  1.3542  0.9802
10340SOL    HW231841   3.902   3.409   1.713  1.2771  1.2740 -0.0435
10341SOL     OW31842   4.907   6.076   4.277 -0.1492 -1.1602 -0.2750
10341SOL    HW131843   4.837   6.008   4.257 -0.4352 -0.7543 -0.6701
10341SOL    HW231844   4.997   6.040   4.253 -0.1953 -1.7739  0.4602
10342SOL     OW31845   0.194   3.188   2.479 -0.4958  0.3010 -0.0663
10342SOL    HW131846   0.140   3.237   2.548  0.4591  2.4400 -0.7302
10342SOL    HW231847   0.291   3.193   2.503 -0.3468 -1.0799 -0.3155
10343SOL     OW31848   6.008   3.276   4.298  0.2849 -0.0666  0.2721
10343SOL    HW131849   5.957   3.332   4.232 -0.6888  0.1828  1.1978
10343SOL    HW231850   6.103   3.305   4.299  0.3176 -0.0409 -0.9791
10344SOL     OW31851   3.436   3.002   1.346 -0.3426  0.4480  0.0021
10344SOL    HW131852   3.369   2.992   1.419  1.3999 -0.1842  1.5797
10344SOL    HW231853   3.406   2.950   1.265  0.7636 -4.7359  2.4876
10345SOL     OW31854   4.348   6.753   6.688 -0.5051 -0.2561  0.4651
10345SOL    HW131855   4.280   6.708   6.747 -0.0616 -1.2292  0.2613
10345SOL    HW231856   4.330   6.851   6.685 -1.2027 -0.3439  1.3356
10346SOL     OW31857   0.911   2.683   4.008 -0.2926 -0.0182  0.2421
10346SOL    HW131858   0.913   2.682   4.108  2.8571  1.4293  0.3027
10346SOL    HW231859   0.937   2.774   3.975 -3.3690  0.1812 -1.9587
10347SOL     OW31860   4.429   6.698   3.022 -0.1636 -0.2310  0.2210
10347SOL    HW131861   4.389   6.640   3.093 -0.1466 -1.1314 -0.4929
10347SOL    HW231862   4.438   6.791   3.057 -2.4137 -0.0989  0.5952
10348SOL     OW31863   0.508   5.877   4.583 -0.0667 -0.0670  0.2127
10348SOL    HW131864   0.540   5.786   4.556  0.0210  0.0462 -0.0732
10348SOL    HW231865   0.503   5.936   4.503 -0.4437  0.0875  0.3464
10349SOL     OW31866   0.381   6.147   2.426 -1.0182 -0.1753 -0.4754
10349SOL    HW131867   0.286   6.151   2.459 -1.6281  1.2221 -2.2510
10349SOL    HW231868   0.422   6.238   2.434 -0.3476 -0.4133 -1.1786
10350SOL     OW31869   4.769   3.459   4.867 -0.3663 -0.1218 -0.6562
10350SOL    HW131870   4.791   3.411   4.952  0.2809  0.8677 -0.2359
10350SOL    HW231871   4.677   3.434   4.838  0.7775 -3.4207 -1.8042
10351SOL     OW31872   6.344   4.178   3.801  0.2195  0.0385 -0.1727
10351SOL    HW131873   6.420   4.137   3.750  0.9591 -0.7337  1.4901
10351SOL    HW231874   6.330   4.272   3.769  2.2036  0.3778 -0.1866
10352SOL     OW31875   4.948   5.548   0.673  0.2366  0.0685 -0.0335
10352SOL    HW131876   4.934   5.570   0.577 -0.1578  0.3664  0.0904
10352SOL    HW231877   5.046   5.547   0.693  0.2940  0.6614 -0.2852
10353SOL     OW31878   4.686   1.957   3.521  0.1211 -0.5533  0.1865
10353SOL    HW131879   4.718   1.870   3.485  0.3607 -1.0472  1.5220
10353SOL    HW231880   4.592   1.973   3.491  0.3633 -0.8596 -0.7565
10354SOL     OW31881   2.187   3.104   1.789  0.0061  0.8170  0.9232
10354SOL    HW131882   2.192   3.024   1.849  0.1955  1.3638  1.6684
10354SOL    HW231883   2.252   3.095   1.714 -0.3980  0.0112  0.6617
10355SOL     OW31884   2.914   3.180   6.838  0.9123  0.0810  0.0457
10355SOL    HW131885   2.970   3.241   6.893 -0.0256  0.3217  0.7587
10355SOL    HW231886   2.905   3.092   6.884 -1.0289  0.7328  1.0354
10356SOL     OW31887   1.240   0.218   3.564 -0.4384  0.3741 -0.0173
10356SOL    HW131888   1.272   0.262   3.480 -0.9375  0.5517 -0.1205
10356SOL    HW231889   1.284   0.261   3.643  0.1040  0.1441 -0.1903
10357SOL     OW31890   5.697   0.210   3.483 -0.2608 -0.2480  0.0971
10357SOL    HW131891   5.634   0.205   3.405  2.1026 -3.0605 -1.8554
10357SOL    HW231892   5.791   0.216   3.449  0.8450 -1.0413  2.7398
10358SOL     OW31893   4.968   6.695   4.671  0.2808 -0.3942  0.0918
10358SOL    HW131894   4.921   6.612   4.639  2.0334 -2.3226  2.1814
10358SOL    HW231895   5.063   6.694   4.638  0.3462  0.7675  0.1975
10359SOL     OW31896   3.360   4.078   2.667 -0.2035  0.4423  0.1515
10359SOL    HW131897   3.364   4.106   2.763  2.3800 -0.4370  0.3645
10359SOL    HW231898   3.408   4.146   2.611  0.3385 -0.1962 -0.1793
10360SOL     OW31899   2.188   5.705   3.407 -0.0738  0.2109 -0.2795
10360SOL    HW131900   2.265   5.769   3.398  1.2124 -1.3051 -0.5545
10360SOL    HW231901   2.192   5.662   3.498 -0.3900 -0.1208 -0.4207
10361SOL     OW31902   5.759   2.808   1.312  0.3562 -0.0859 -0.0499
10361SOL    HW131903   5.683   2.795   1.248 -0.4772  0.9948  0.6997
10361SOL    HW231904   5.727   2.794   1.405  1.0683  0.4879  0.2899
10362SOL     OW31905   5.805   2.277   3.839  0.2579  0.5314 -0.9949
10362SOL    HW131906   5.846   2.218   3.908 -0.1342  0.5014 -0.7803
10362SOL    HW231907   5.765   2.222   3.766 -1.3221  0.4381 -0.1185
10363SOL     OW31908   4.384   6.958   4.298 -0.3975  0.3166  0.6810
10363SOL    HW131909   4.403   6.869   4.339 -0.1656  0.7345  1.5241
10363SOL    HW231910   4.469   7.000   4.266 -0.1120  1.3180  2.6109
10364SOL     OW31911   2.174   1.299   2.946 -0.0149 -0.3157  0.3004
10364SOL    HW131912   2.209   1.263   3.033 -0.3147 -1.2788  0.0278
10364SOL    HW231913   2.081   1.332   2.959 -0.0304 -0.3829  0.3611
10365SOL     OW31914   5.924   3.912   6.836  0.4407  0.7014 -0.0194
10365SOL    HW131915   5.891   3.892   6.744  0.8186  0.2755 -0.0643
10365SOL    HW231916   5.848   3.941   6.894  0.3634  2.0380 -0.7611
10366SOL     OW31917   3.272   5.537   3.524 -0.1010 -0.1582  0.4660
10366SOL    HW131918   3.208   5.566   3.453  1.7046  2.9838 -0.0712
10366SOL    HW231919   3.291   5.440   3.514 -1.5337 -0.2623 -2.0249
10367SOL     OW31920   4.661   4.498   5.742  0.4317  0.2127  0.1880
10367SOL    HW131921   4.639   4.463   5.651  1.6536 -1.8210  0.6092
10367SOL    HW231922   4.610   4.582   5.758  0.6322  0.9731 -2.5878
10368SOL     OW31923   6.255   6.382   5.743 -0.1600 -0.7676 -0.7903
10368SOL    HW131924   6.343   6.427   5.758  0.0262 -1.6670  1.1282
10368SOL    HW231925   6.188   6.419   5.807 -0.7982 -1.1365 -1.2359
10369SOL     OW31926   6.080   3.084   5.721  0.4506  0.0213  0.2079
10369SOL    HW131927   6.141   3.074   5.800  1.2989  1.0108 -0.2961
10369SOL    HW231928   6.029   3.000   5.708  1.5737 -0.7841  0.7734
10370SOL     OW31929   4.956   4.105   4.300 -0.1297  0.4469  0.1293
10370SOL    HW131930   4.880   4.170   4.295 -1.0539 -0.6827 -1.0854
10370SOL    HW231931   5.020   4.123   4.224 -0.2568  0.1049 -0.0617
10371SOL     OW31932   6.273   4.237   0.859 -0.0767 -0.1908  0.7856
10371SOL    HW131933   6.370   4.247   0.838 -0.2822  0.7810  0.2272
10371SOL    HW231934   6.222   4.215   0.775 -0.2578 -1.3353  1.1908
10372SOL     OW31935   5.940   0.930   2.169  0.5860  0.0890  0.4929
10372SOL    HW131936   6.000   1.008   2.153  0.3672 -0.1611 -1.8086
10372SOL    HW231937   5.860   0.960   2.222  1.2161  1.0895  0.8945
10373SOL     OW31938   2.025   6.958   5.590 -0.2587  0.0517 -0.4783
10373SOL    HW131939   2.029   7.043   5.538 -1.0745 -0.2670 -1.0619
10373SOL    HW231940   2.007   6.978   5.686  1.0843  0.5978 -0.3222
10374SOL     OW31941   6.003   2.652   4.226  0.5093 -0.3631 -0.3405
10374SOL    HW131942   5.937   2.627   4.155 -2.3274 -0.4306  2.1083
10374SOL    HW231943   5.960   2.716   4.289  3.3751  0.7764  0.6129
10375SOL     OW31944   3.204   6.087   6.730  0.2584 -0.3291 -1.0615
10375SOL    HW131945   3.147   6.167   6.714  1.2153  0.4991 -0.4311
10375SOL    HW231946   3.146   6.005   6.734 -1.5294  0.8112  3.4384
10376SOL     OW31947   0.733   2.234   3.557 -0.1939  0.8136 -0.3091
10376SOL    HW131948   0.697   2.208   3.468  1.1409  0.2296 -0.7039
10376SOL    HW231949   0.658   2.261   3.617 -1.3022 -0.7272 -0.9534
10377SOL     OW31950   6.014   2.772   6.856  0.4494 -0.8775 -0.3887
10377SOL    HW131951   6.073   2.691   6.858 -0.4117 -1.5723 -1.9111
10377SOL    HW231952   5.945   2.762   6.784  0.2531  1.1797 -0.5456
10378SOL     OW31953   3.375   6.154   5.061  0.2101 -0.0197 -0.2160
10378SOL    HW131954   3.424   6.172   5.147 -0.3842 -0.0410  0.1316
10378SOL    HW231955   3.436   6.174   4.984  1.3681 -1.6356  0.1929
10379SOL     OW31956   3.272   2.306   5.734 -0.1340  0.2210 -0.2059
10379SOL    HW131957   3.262   2.280   5.830 -0.0087 -1.6855 -0.6485
10379SOL    HW231958   3.182   2.305   5.690 -0.0141 -0.6028 -0.4631
10380SOL     OW31959   0.955   3.139   1.388  0.0060  0.0990  0.4146
10380SOL    HW131960   0.939   3.044   1.363  0.4358 -0.1585  1.0914
10380SOL    HW231961   1.051   3.153   1.411 -0.0145  0.7384  0.1415
10381SOL     OW31962   2.948   5.983   2.514  0.4948 -0.1530 -0.7831
10381SOL    HW131963   2.922   5.888   2.535  0.7361 -0.1705 -0.5634
10381SOL    HW231964   2.991   5.986   2.425  1.6952 -0.4594 -0.2324
10382SOL     OW31965   5.254   0.675   6.808 -0.9014  0.5223 -0.8957
10382SOL    HW131966   5.348   0.702   6.826 -1.0063  0.8850 -0.8543
10382SOL    HW231967   5.252   0.588   6.759 -0.6151 -1.1346  1.8509
10383SOL     OW31968   2.435   2.576   5.341  0.6584  0.1510  0.8074
10383SOL    HW131969   2.479   2.605   5.256  0.8711 -2.0387  0.1221
10383SOL    HW231970   2.383   2.493   5.326 -1.5256  1.1547  2.2538
10384SOL     OW31971   3.835   3.975   1.940 -0.3606  0.0766 -0.2598
10384SOL    HW131972   3.769   3.947   2.010 -0.5760 -0.0671 -0.5146
10384SOL    HW231973   3.794   3.963   1.849  0.7274 -1.9499 -0.5241
10385SOL     OW31974   0.829   2.056   1.315 -0.0795 -0.1000 -0.0277
10385SOL    HW131975   0.894   1.982   1.331 -0.0993  0.2309  1.7007
10385SOL    HW231976   0.852   2.103   1.229  3.7282  1.7631  1.7653
10386SOL     OW31977   3.646   0.883   4.452  0.0943  0.2892  0.2811
10386SOL    HW131978   3.632   0.784   4.442  0.0809  0.3199 -0.0161
10386SOL    HW231979   3.573   0.932   4.404  0.2733  0.4453  0.1689
10387SOL     OW31980   5.907   0.768   6.028  0.4367 -0.9477 -0.3793
10387SOL    HW131981   5.837   0.771   5.957  0.1423  2.0257 -0.1131
10387SOL    HW231982   5.997   0.782   5.988  0.2356  1.0836 -0.1960
10388SOL     OW31983   1.561   4.159   2.509  0.1060  0.0386  0.5008
10388SOL    HW131984   1.605   4.071   2.525 -0.7516 -0.2010  1.6299
10388SOL    HW231985   1.464   4.152   2.531 -0.3812  0.7625 -1.2052
10389SOL     OW31986   6.423   6.499   4.987  1.3128  0.2250 -0.7252
10389SOL    HW131987   6.515   6.477   4.956  0.1144 -0.9185 -3.8582
10389SOL    HW231988   6.364   6.517   4.908 -1.0027  1.7250  1.1964
10390SOL     OW31989   3.765   4.211   5.881  0.3702 -0.0340 -0.2074
10390SOL    HW131990   3.855   4.176   5.854  1.0614  0.8354  0.8838
10390SOL    HW231991   3.698   4.138   5.874  1.0888 -0.6112 -1.3826
10391SOL     OW31992   5.663   5.466   2.028 -0.1960  0.6154 -0.3670
10391SOL    HW131993   5.658   5.551   2.080 -1.4801  1.3298 -1.5719
10391SOL    HW231994   5.622   5.480   1.937  1.0490 -0.8545 -1.1999
10392SOL     OW31995   6.447   2.388   3.401 -0.2896 -0.5524  0.6459
10392SOL    HW131996   6.464   2.322   3.474 -0.3609 -0.0876  1.0838
10392SOL    HW231997   6.532   2.409   3.354  0.0028  0.1695  1.4726
10393SOL     OW31998   1.821   1.500   2.148 -0.1493 -0.4240  0.1127
10393SOL    HW131999   1.840   1.407   2.179  0.0395 -0.0127  1.2732
10393SOL    HW232000   1.861   1.565   2.211 -0.4948  0.4572 -0.5544
10394SOL     OW32001   2.820   2.292   1.112 -0.2631 -0.5591  0.1237
10394SOL    HW132002   2.901   2.238   1.138  0.9198 -0.4129 -2.9637
10394SOL    HW232003   2.828   2.384   1.151  1.9689 -0.0130 -1.4124
10395SOL     OW32004   3.658   0.096   5.330 -0.5335  0.1983  0.2863
10395SOL    HW132005   3.728   0.122   5.396 -0.0938 -0.1085 -0.0489
10395SOL    HW232006   3.678   0.005   5.295 -0.0832  0.8406 -1.1416
10396SOL     OW32007   0.749   1.424   1.998  0.1298  0.6983  0.8302
10396SOL    HW132008   0.690   1.349   2.027  2.4098 -0.6385  2.4075
10396SOL    HW232009   0.747   1.431   1.898 -1.5842 -0.1996  0.7660
10397SOL     OW32010   5.464   4.406   2.254  0.2801 -0.0649  0.0627
10397SOL    HW132011   5.509   4.436   2.170 -2.2382  0.6033 -1.1607
10397SOL    HW232012   5.369   4.383   2.234 -1.0655  2.2288  3.0928
10398SOL     OW32013   4.823   1.094   5.260  0.0558  0.0368 -0.3725
10398SOL    HW132014   4.781   1.020   5.207 -2.4342 -0.1710  1.6425
10398SOL    HW232015   4.836   1.064   5.354  0.5015  1.6625  0.1190
10399SOL     OW32016   2.192   2.432   6.821 -0.5070  0.3565  0.2827
10399SOL    HW132017   2.220   2.379   6.741  0.2453  0.6561  0.3358
10399SOL    HW232018   2.158   2.521   6.791 -0.4406  0.3814  0.2769
10400SOL     OW32019   0.300   0.142   6.151 -0.6342  0.6411  0.9719
10400SOL    HW132020   0.252   0.213   6.100 -1.8111  1.3983  3.0040
10400SOL    HW232021   0.234   0.075   6.185  0.1518 -0.0488  1.1579
10401SOL     OW32022   2.538   3.512   1.547 -0.2778 -0.2280  0.2928
10401SOL    HW132023   2.583   3.596   1.516  0.3595 -0.4092  0.7251
10401SOL    HW232024   2.460   3.493   1.487 -1.3008  1.4330  1.0176
10402SOL     OW32025   2.379   1.173   5.007 -0.2746  0.0116  0.0737
10402SOL    HW132026   2.279   1.175   5.012 -0.3164  0.6294 -0.9007
10402SOL    HW232027   2.415   1.260   5.039 -0.1220  0.3604 -1.0347
10403SOL     OW32028   2.903   1.835   5.747  0.4230  0.3610  0.3672
10403SOL    HW132029   2.950   1.755   5.785 -0.9168 -0.2635  0.7751
10403SOL    HW232030   2.898   1.826   5.647  0.8406  0.2561  0.3532
10404SOL     OW32031   6.114   5.668   1.437  0.0738  0.0092 -0.2449
10404SOL    HW132032   6.112   5.749   1.378 -1.9057  0.1394 -0.0714
10404SOL    HW232033   6.042   5.605   1.409 -0.5813 -0.1692  1.6726
10405SOL     OW32034   3.915   4.289   2.740 -0.2455  0.1659  0.1959
10405SOL    HW132035   4.003   4.298   2.694 -0.7900  0.1084 -0.8997
10405SOL    HW232036   3.861   4.218   2.695 -1.4833  1.3329 -0.2401
10406SOL     OW32037   4.400   4.437   1.864  0.1401 -0.6635 -0.1355
10406SOL    HW132038   4.337   4.388   1.924 -0.6044  1.9727  1.3835
10406SOL    HW232039   4.493   4.433   1.902 -0.3108  0.9156  1.2587
10407SOL     OW32040   6.816   1.779   2.787  0.7265  0.3665 -0.3883
10407SOL    HW132041   6.767   1.693   2.771  0.1337  0.4580  0.7860
10407SOL    HW232042   6.761   1.837   2.848  0.2930  2.3192 -2.4911
10408SOL     OW32043   3.320   3.531   4.849 -0.2941  0.6228 -0.1014
10408SOL    HW132044   3.353   3.601   4.785 -2.0291  0.7435 -0.9299
10408SOL    HW232045   3.261   3.466   4.800 -1.8333  0.8085  1.3811
10409SOL     OW32046   3.329   4.987   4.634  0.3636 -0.1692  0.0922
10409SOL    HW132047   3.354   4.920   4.704  1.2554  0.2987  0.2475
10409SOL    HW232048   3.246   5.035   4.662  1.4578  0.9671  1.5324
10410SOL     OW32049   2.796   1.250   3.204  0.0607 -0.3117  0.0647
10410SOL    HW132050   2.818   1.278   3.298 -0.3864 -0.3161  0.1784
10410SOL    HW232051   2.851   1.303   3.139  1.0850 -0.9820  0.3558
10411SOL     OW32052   6.442   2.101   0.604 -0.1835 -0.2072  0.4219
10411SOL    HW132053   6.347   2.078   0.586 -0.6215  0.6774  1.5089
10411SOL    HW232054   6.500   2.062   0.532 -1.3413 -0.8287 -0.2015
10412SOL     OW32055   5.275   4.491   0.168 -0.0167  0.1819 -0.4050
10412SOL    HW132056   5.207   4.551   0.126 -0.3107 -0.7887 -1.3759
10412SOL    HW232057   5.298   4.417   0.105  1.0868 -0.1704  0.3632
10413SOL     OW32058   4.049   5.093   2.826  0.5484 -0.2703 -0.4163
10413SOL    HW132059   3.978   5.035   2.868  0.5829 -0.6381 -0.8542
10413SOL    HW232060   4.122   5.109   2.893  0.4173 -0.5236 -0.2064
10414SOL     OW32061   4.422   2.985   1.323 -0.1452  0.1058  0.2496
10414SOL    HW132062   4.360   2.986   1.401 -0.8950 -0.7219 -0.3167
10414SOL    HW232063   4.428   2.892   1.286  1.9564  0.0245  0.6971
10415SOL     OW32064   2.710   1.341   6.210  0.0313 -0.1041  0.2301
10415SOL    HW132065   2.734   1.245   6.195  1.3917  0.0235  1.4102
10415SOL    HW232066   2.624   1.362   6.163 -1.5084 -2.4737  1.7773
10416SOL     OW32067   0.105   0.382   2.990  0.0378  0.2096  0.1007
10416SOL    HW132068   0.171   0.387   3.065  0.7648  0.6260 -0.5553
10416SOL    HW232069   0.087   0.474   2.955  0.2552 -0.0496 -0.7123
10417SOL     OW32070   3.277   5.655   2.730  0.2722 -0.1590  0.0550
10417SOL    HW132071   3.193   5.601   2.727  1.6064 -2.3461 -3.1488
10417SOL    HW232072   3.262   5.742   2.683 -0.1925 -0.5408 -0.5226
10418SOL     OW32073   5.592   4.274   0.513  0.4976  0.0178 -0.0176
10418SOL    HW132074   5.510   4.217   0.520  2.1318 -2.8032 -1.3791
10418SOL    HW232075   5.602   4.308   0.420  0.5042  0.9919  0.3288
10419SOL     OW32076   0.175   3.317   2.886 -0.0423 -0.6813 -0.2125
10419SOL    HW132077   0.265   3.359   2.875 -0.0324 -0.6722 -0.1416
10419SOL    HW232078   0.123   3.326   2.801  0.4883 -1.7840 -0.6710
10420SOL     OW32079   0.448   0.053   5.717  0.1760  0.7061 -0.0951
10420SOL    HW132080   0.381   0.123   5.743 -0.5707  0.2108 -0.6316
10420SOL    HW232081   0.401  -0.021   5.669  0.7255 -0.8056  1.6207
10421SOL     OW32082   5.739   3.484   4.308 -0.8152  0.5350  0.0379
10421SOL    HW132083   5.781   3.490   4.218  0.1729  0.1159  0.4625
10421SOL    HW232084   5.721   3.576   4.343 -0.3201  0.7165 -0.1769
10422SOL     OW32085   2.246   5.081   2.595  0.3938  0.0152  0.4231
10422SOL    HW132086   2.252   5.055   2.691 -2.2835  2.9337  1.5594
10422SOL    HW232087   2.200   5.008   2.543  0.2495 -0.8588  1.7338
10423SOL     OW32088   5.667   2.827   5.420  0.1891  0.7190 -0.0371
10423SOL    HW132089   5.581   2.786   5.450  0.5911  0.6043  0.9959
10423SOL    HW232090   5.665   2.840   5.321 -1.1198  0.9529  0.0077
10424SOL     OW32091   3.009   1.567   1.700 -0.0637 -0.2124  1.0522
10424SOL    HW132092   2.960   1.518   1.628 -0.6038  0.4034  0.9946
10424SOL    HW232093   3.080   1.507   1.738 -1.3488 -1.3921  1.6691
10425SOL     OW32094   3.640   1.043   6.125  0.0600  0.6306  0.4677
10425SOL    HW132095   3.603   1.042   6.218  0.7054 -1.7569  0.7505
10425SOL    HW232096   3.728   1.091   6.124 -1.0569  2.8324  0.5456
10426SOL     OW32097   0.533   0.594   5.916  0.0365  0.0657  0.4333
10426SOL    HW132098   0.471   0.556   5.984  0.2641  1.6404  1.6066
10426SOL    HW232099   0.482   0.652   5.853  0.3282  1.7660  1.7030
10427SOL     OW32100   0.751   1.054   2.475  0.2362 -0.6245  0.3232
10427SOL    HW132101   0.795   1.112   2.544 -0.5846 -1.0068  1.1911
10427SOL    HW232102   0.670   1.011   2.514 -0.3404 -0.7324 -0.9459
10428SOL     OW32103   4.190   6.274   4.477 -0.0085 -0.2466 -0.0897
10428SOL    HW132104   4.273   6.328   4.464  0.2810 -0.3290  1.2671
10428SOL    HW232105   4.197   6.221   4.562 -1.1859 -0.7498 -0.2799
10429SOL     OW32106   6.500   6.515   3.336 -0.1888 -0.2704  0.0490
10429SOL    HW132107   6.468   6.421   3.351 -0.8918  0.2481  2.0493
10429SOL    HW232108   6.441   6.579   3.386 -0.8702  1.4544 -2.7270
10430SOL     OW32109   5.185   2.245   4.624 -0.6604 -0.3831 -0.3111
10430SOL    HW132110   5.203   2.191   4.542 -1.1270 -1.6004  0.3632
10430SOL    HW232111   5.095   2.288   4.617 -0.8042 -0.6883 -0.3234
10431SOL     OW32112   4.083   0.831   5.273 -1.0608 -0.1411 -0.4106
10431SOL    HW132113   4.080   0.753   5.211 -1.7018 -1.8126  1.6216
10431SOL    HW232114   4.178   0.860   5.285 -0.3968 -2.4366  0.8259
10432SOL     OW32115   6.938   2.120   0.094 -0.4163 -0.2571  0.2083
10432SOL    HW132116   6.870   2.135   0.166 -1.8355 -0.5566 -1.0289
10432SOL    HW232117   6.992   2.204   0.081 -1.3819  0.3964  0.3500
10433SOL     OW32118   1.538   1.019   6.560 -0.1890 -0.1247  0.1631
10433SOL    HW132119   1.480   1.100   6.565 -2.0766 -1.3897  0.0177
10433SOL    HW232120   1.593   1.012   6.644 -1.4629  0.2609  1.0481
10434SOL     OW32121   5.065   2.598   4.579 -0.1789  0.3788 -0.0769
10434SOL    HW132122   5.021   2.513   4.609  0.6152 -0.4476 -1.1617
10434SOL    HW232123   5.162   2.594   4.601  0.0991  0.4661 -1.2056
10435SOL     OW32124   0.438   5.429   0.311 -0.1901  0.4045 -0.1649
10435SOL    HW132125   0.417   5.370   0.234 -1.3339 -0.2163  0.6040
10435SOL    HW232126   0.435   5.376   0.396  0.7725  1.1319  0.3443
10436SOL     OW32127   2.124   1.121   3.262  0.3727  0.0608  0.1767
10436SOL    HW132128   2.103   1.048   3.327  0.5432 -0.0355  0.1252
10436SOL    HW232129   2.064   1.199   3.279  0.7780  0.2405  0.7960
10437SOL     OW32130   2.781   1.365   3.966  0.5347  0.1074  0.3370
10437SOL    HW132131   2.830   1.404   3.888 -0.6949 -1.0556 -1.1012
10437SOL    HW232132   2.751   1.272   3.943 -1.5996  0.4719  1.4051
10438SOL     OW32133   0.617   2.886   5.707 -0.0885 -0.0780  0.2837
10438SOL    HW132134   0.681   2.953   5.670 -0.5525  1.4862  2.1878
10438SOL    HW232135   0.523   2.916   5.691 -0.3300 -0.7336  0.4072
10439SOL     OW32136   0.349   2.423   5.303 -0.2818 -0.7939 -0.8058
10439SOL    HW132137   0.311   2.429   5.395 -0.4795 -3.0121 -0.6692
10439SOL    HW232138   0.277   2.439   5.236 -0.0970  1.0267 -0.6043
10440SOL     OW32139   6.330   5.718   5.770  0.3221 -0.1094  0.1459
10440SOL    HW132140   6.374   5.808   5.770 -2.3187  1.3269  2.1497
10440SOL    HW232141   6.253   5.719   5.706  0.4763 -1.0794 -0.0622
10441SOL     OW32142   1.856   3.922   1.266  0.0668 -0.2473  0.0167
10441SOL    HW132143   1.898   4.003   1.224  0.4024 -0.6838 -0.4943
10441SOL    HW232144   1.821   3.946   1.357  0.7086  0.3193  0.1197
10442SOL     OW32145   1.167   1.335   1.794  0.2048 -0.1471  0.1881
10442SOL    HW132146   1.108   1.277   1.850 -0.9884  0.8032 -0.0497
10442SOL    HW232147   1.217   1.278   1.728 -0.8145 -0.9213  0.0625
10443SOL     OW32148   3.660   2.780   4.604  0.3017 -0.5381 -0.1724
10443SOL    HW132149   3.672   2.683   4.622 -2.3983 -1.0087 -0.5322
10443SOL    HW232150   3.750   2.824   4.597  1.5903 -2.3302  3.2707
10444SOL     OW32151   0.381   0.009   0.341  0.6465  0.5192 -0.2896
10444SOL    HW132152   0.301   0.049   0.386  0.5528  0.6394 -0.5824
10444SOL    HW232153   0.444  -0.026   0.411  1.2143  2.0862  0.0305
10445SOL     OW32154   5.759   3.458   2.148 -0.3595  0.1293 -0.0662
10445SOL    HW132155   5.814   3.458   2.231 -0.2051  0.0011 -0.1675
10445SOL    HW232156   5.749   3.552   2.115  1.4943 -0.0237 -1.1583
10446SOL     OW32157   4.768   2.467   1.691 -0.9513 -0.1982 -0.6930
10446SOL    HW132158   4.842   2.464   1.624 -0.5130 -1.2398 -0.1902
10446SOL    HW232159   4.786   2.399   1.763 -0.9794  1.4404  0.9206
10447SOL     OW32160   2.741   2.564   0.327 -0.0374  0.1209  0.1512
10447SOL    HW132161   2.746   2.493   0.397  0.2082  0.5311  0.5517
10447SOL    HW232162   2.746   2.522   0.237 -1.0462 -0.4863  0.3499
10448SOL     OW32163   4.746   0.873   0.533 -0.2225 -0.3956  0.8512
10448SOL    HW132164   4.702   0.785   0.553  0.1615 -1.3626 -2.1625
10448SOL    HW232165   4.837   0.874   0.573  0.6586 -2.3621 -0.9174
10449SOL     OW32166   3.010   1.369   1.119 -0.0644 -0.3210  0.1847
10449SOL    HW132167   3.106   1.340   1.120 -0.2983 -1.1293  0.1172
10449SOL    HW232168   2.961   1.319   1.048 -1.0887 -1.7516  1.8212
10450SOL     OW32169   4.538   3.981   5.050  0.0745 -0.1556 -0.1130
10450SOL    HW132170   4.624   4.027   5.029  1.1842 -1.2009  1.7992
10450SOL    HW232171   4.514   3.919   4.975  0.2354  1.1356 -1.2806
10451SOL     OW32172   6.330   0.886   5.745  0.1219 -0.0919  0.1643
10451SOL    HW132173   6.252   0.936   5.781 -0.0007  0.6852 -1.0998
10451SOL    HW232174   6.373   0.939   5.672  0.6548 -1.3568 -0.4836
10452SOL     OW32175   2.188   3.241   2.179 -0.0415 -1.2400 -0.1366
10452SOL    HW132176   2.137   3.159   2.154 -2.2023  0.7404 -2.8435
10452SOL    HW232177   2.159   3.273   2.269  0.6832 -3.2973  0.8486
10453SOL     OW32178   5.252   4.132   0.767 -0.1979 -0.3113  0.3644
10453SOL    HW132179   5.270   4.078   0.850 -1.7356 -2.0085 -0.3298
10453SOL    HW232180   5.296   4.088   0.689 -2.3797 -1.2896 -0.3997
10454SOL     OW32181   0.485   5.525   6.691 -0.0772 -0.7003 -0.1228
10454SOL    HW132182   0.404   5.577   6.665  2.5570  3.2209 -1.5033
10454SOL    HW232183   0.501   5.452   6.624 -1.0863  0.1712 -1.3567
10455SOL     OW32184   0.679   5.745   2.634  0.2584  0.3875 -0.1661
10455SOL    HW132185   0.766   5.774   2.592  1.0997 -1.1987  0.4012
10455SOL    HW232186   0.608   5.813   2.612  1.7867  2.1544  0.0218
10456SOL     OW32187   0.539   3.264   2.967  0.4113  0.5125  0.8870
10456SOL    HW132188   0.484   3.261   3.050 -2.1420 -2.2254 -0.7139
10456SOL    HW232189   0.496   3.325   2.900 -0.4652 -1.2237 -0.1858
10457SOL     OW32190   5.100   4.204   6.109  0.0351  0.2671  0.5018
10457SOL    HW132191   5.012   4.163   6.085 -0.0985  0.6709  0.2721
10457SOL    HW232192   5.163   4.194   6.032 -0.8395  2.8185 -0.6681
10458SOL     OW32193   4.418   3.055   6.642  0.0892 -0.0242  0.7662
10458SOL    HW132194   4.342   3.020   6.588  0.2276  1.2727 -0.3288
10458SOL    HW232195   4.498   2.997   6.631 -0.1830 -0.3242  0.3672
10459SOL     OW32196   6.088   1.656   6.071  0.6236 -0.1766 -0.1502
10459SOL    HW132197   6.149   1.705   6.009  0.3176 -1.1322 -1.2351
10459SOL    HW232198   6.124   1.564   6.088  0.4700 -0.0783  0.7289
10460SOL     OW32199   0.882   1.622   4.819  0.0582 -0.3059  0.5805
10460SOL    HW132200   0.896   1.544   4.757 -0.6378  0.7738 -1.0086
10460SOL    HW232201   0.804   1.602   4.879  1.6846 -2.0060  2.2517
10461SOL     OW32202   0.869   2.535   6.010 -0.0618 -0.4222  0.7717
10461SOL    HW132203   0.897   2.597   6.084 -1.3391 -0.1398  1.0338
10461SOL    HW232204   0.832   2.589   5.934 -0.1090 -0.8001  0.5287
10462SOL     OW32205   2.846   5.547   1.042 -0.5666  0.2205 -0.2656
10462SOL    HW132206   2.776   5.552   1.112 -0.5943 -1.1052 -0.1674
10462SOL    HW232207   2.827   5.615   0.971 -1.4286  0.4938  0.2020
10463SOL     OW32208   6.385   4.694   3.241  0.2795  0.3544  0.5766
10463SOL    HW132209   6.390   4.723   3.336 -1.5174 -0.5524  0.9918
10463SOL    HW232210   6.290   4.673   3.217  0.8519 -0.5705 -1.0767
10464SOL     OW32211   5.454   3.762   3.778 -1.1368  0.1919  0.1027
10464SOL    HW132212   5.510   3.721   3.707 -0.5001 -0.4673  0.9714
10464SOL    HW232213   5.403   3.839   3.740 -0.4269  0.1605 -0.9387
10465SOL     OW32214   5.674   3.658   6.699  0.3296 -0.4792  0.1317
10465SOL    HW132215   5.731   3.730   6.659 -0.4195 -0.7654 -1.5283
10465SOL    HW232216   5.717   3.569   6.684  0.2207 -0.5572  0.2720
10466SOL     OW32217   1.499   3.621   6.725 -0.3600 -0.1086  0.3471
10466SOL    HW132218   1.406   3.611   6.688  0.4144 -0.4640 -1.6606
10466SOL    HW232219   1.534   3.531   6.752 -0.2025 -0.1374  0.0526
10467SOL     OW32220   0.651   3.396   0.665  0.2100 -0.5626  0.4926
10467SOL    HW132221   0.656   3.403   0.765  1.1196 -1.9746  0.5785
10467SOL    HW232222   0.667   3.486   0.624 -2.0353  0.4427  1.6231
10468SOL     OW32223   0.190   4.236   0.360  0.3857  0.2895  0.1701
10468SOL    HW132224   0.140   4.278   0.285  0.6042  0.5044  0.1457
10468SOL    HW232225   0.196   4.137   0.345  1.5166  0.4819 -0.7182
10469SOL     OW32226   1.368   1.387   5.194  0.2590 -0.4225  0.7675
10469SOL    HW132227   1.288   1.366   5.139 -0.0052  2.2157  0.0359
10469SOL    HW232228   1.352   1.359   5.289 -0.5618 -2.0154  0.1934
10470SOL     OW32229   1.367   5.349   4.153 -0.2734 -0.4705 -0.4301
10470SOL    HW132230   1.299   5.321   4.086 -1.0826  0.4527 -0.0350
10470SOL    HW232231   1.458   5.349   4.111 -0.9281  1.4947 -1.9993
10471SOL     OW32232   4.948   0.571   3.703  0.2892 -0.4624 -0.3249
10471SOL    HW132233   5.014   0.605   3.769 -0.5023  0.8122 -0.1559
10471SOL    HW232234   4.867   0.537   3.751 -0.1179  0.0867 -0.6010
10472SOL     OW32235   5.745   5.636   1.552 -0.2196  0.3549  0.0095
10472SOL    HW132236   5.786   5.655   1.463  0.9923  2.1175  0.8633
10472SOL    HW232237   5.779   5.549   1.588 -0.5151 -0.2295 -1.1039
10473SOL     OW32238   1.380   5.682   5.325  0.3802 -0.0043 -0.1736
10473SOL    HW132239   1.441   5.692   5.404 -0.3798  2.1018  0.2146
10473SOL    HW232240   1.285   5.688   5.356 -0.1269 -3.1331 -0.7743
10474SOL     OW32241   2.908   3.295   3.401 -0.1541  0.0613 -0.7064
10474SOL    HW132242   2.821   3.340   3.422 -0.5514 -0.0635 -1.9896
10474SOL    HW232243   2.980   3.332   3.460 -0.8566  0.9777 -0.4056
10475SOL     OW32244   5.755   4.656   6.468  0.3765  0.1643 -0.2693
10475SOL    HW132245   5.785   4.752   6.468 -0.0978  0.3319  1.1167
10475SOL    HW232246   5.703   4.638   6.384 -3.5323  2.4797  1.3849
10476SOL     OW32247   6.494   2.565   0.418  0.0333  0.2452 -0.2594
10476SOL    HW132248   6.481   2.485   0.477 -1.9101 -0.0232 -0.9597
10476SOL    HW232249   6.591   2.585   0.409  0.4324 -0.2799  2.2245
10477SOL     OW32250   0.108   2.458   0.419  0.7165 -0.0675 -0.1632
10477SOL    HW132251   0.190   2.445   0.474 -0.5147 -0.0772  1.7534
10477SOL    HW232252   0.122   2.420   0.327  2.0044 -2.2306  0.8736
10478SOL     OW32253   4.593   3.567   0.943  0.3039 -0.1793  0.9446
10478SOL    HW132254   4.498   3.537   0.940  0.5916 -1.0630 -2.0710
10478SOL    HW232255   4.605   3.631   1.019 -3.4285  2.4275 -0.3626
10479SOL     OW32256   4.308   3.798   1.714  1.0581 -0.5450 -0.2751
10479SOL    HW132257   4.258   3.860   1.652 -1.3396 -0.9965  1.1003
10479SOL    HW232258   4.365   3.852   1.776 -0.7593  0.3524  0.6946
10480SOL     OW32259   2.054   0.930   0.550 -0.0390 -0.3620  0.0402
10480SOL    HW132260   2.059   0.951   0.452  1.1622 -1.8649 -0.2724
10480SOL    HW232261   1.968   0.883   0.570  0.7691 -2.3631 -0.8551
10481SOL     OW32262   4.902   4.828   1.193 -0.6570 -0.0868  0.2559
10481SOL    HW132263   4.999   4.840   1.212 -1.0553  2.0973  1.1642
10481SOL    HW232264   4.879   4.873   1.106 -1.1956  1.1251  1.0105
10482SOL     OW32265   5.493   6.712   4.541 -0.1084 -0.1008 -0.7151
10482SOL    HW132266   5.539   6.790   4.581 -0.4659  0.5406 -1.5320
10482SOL    HW232267   5.513   6.630   4.595 -1.7606  0.9416  1.6870
10483SOL     OW32268   0.978   3.816   2.090 -0.2650 -0.1200 -0.6110
10483SOL    HW132269   1.074   3.832   2.066 -0.5801 -1.4152 -2.9637
10483SOL    HW232270   0.921   3.887   2.049 -0.2376  1.9460  2.5688
10484SOL     OW32271   6.680   5.058   6.397  0.6926 -0.0588  0.1466
10484SOL    HW132272   6.722   5.148   6.409 -0.3360  0.2333  2.1317
10484SOL    HW232273   6.596   5.068   6.344 -0.2245  0.4505  1.6343
10485SOL     OW32274   3.405   1.999   1.521  0.0335 -0.2097 -0.3892
10485SOL    HW132275   3.323   1.986   1.465 -0.9540  0.6935  0.7951
10485SOL    HW232276   3.465   2.065   1.477  0.1461 -0.8989 -1.2834
10486SOL     OW32277   6.180   3.054   3.049  0.4400  0.2715  0.7636
10486SOL    HW132278   6.190   2.957   3.072  1.5502  0.7143  2.3191
10486SOL    HW232279   6.092   3.088   3.085 -0.5659 -0.4251 -0.9267
10487SOL     OW32280   4.772   4.075   6.323 -0.2568 -0.3931 -0.0674
10487SOL    HW132281   4.755   4.132   6.243 -1.0057 -0.5670 -0.0495
10487SOL    HW232282   4.820   4.128   6.393 -0.2433 -0.0291 -0.3553
10488SOL     OW32283   2.750   1.124   2.789 -0.1930  0.1559  0.3553
10488SOL    HW132284   2.711   1.041   2.750 -1.7125  1.3203 -0.7292
10488SOL    HW232285   2.698   1.153   2.869 -1.7469  1.7890 -1.1688
10489SOL     OW32286   0.127   3.858   1.789  0.0951  0.3914 -0.0003
10489SOL    HW132287   0.119   3.831   1.693  0.3108  0.1905  0.0365
10489SOL    HW232288   0.192   3.934   1.796  0.1589  0.3381 -0.0017
10490SOL     OW32289   5.109   1.602   3.720 -0.7612 -0.4866 -0.3049
10490SOL    HW132290   5.078   1.519   3.766  0.5080 -0.5091  0.5861
10490SOL    HW232291   5.207   1.614   3.736 -0.9646  1.3302 -0.1669
10491SOL     OW32292   3.984   5.520   1.641  0.1530  0.1277 -0.2164
10491SOL    HW132293   4.048   5.512   1.565 -0.1441  0.0513 -0.4557
10491SOL    HW232294   3.962   5.429   1.676  0.0561  0.1428 -0.2328
10492SOL     OW32295   3.746   5.391   4.851 -1.0997 -0.3303  0.4991
10492SOL    HW132296   3.764   5.453   4.927  0.6057  0.3488 -0.4218
10492SOL    HW232297   3.816   5.320   4.849 -0.0850  0.6426 -1.4045
10493SOL     OW32298   3.786   2.246   2.104 -0.0185 -0.7910  0.1133
10493SOL    HW132299   3.878   2.209   2.114 -0.0613 -0.2846  3.3642
10493SOL    HW232300   3.718   2.173   2.112  0.0394 -1.0123 -1.2209
10494SOL     OW32301   5.745   6.136   5.947 -0.3304 -0.1686  0.1555
10494SOL    HW132302   5.665   6.194   5.960 -0.7896 -0.8429  0.3530
10494SOL    HW232303   5.747   6.064   6.017  0.5621 -0.0329  0.2920
10495SOL     OW32304   6.527   6.187   5.189 -0.1272  0.3575 -0.0043
10495SOL    HW132305   6.515   6.156   5.283 -1.5577 -0.1470 -0.3294
10495SOL    HW232306   6.575   6.276   5.189  1.0319 -0.2300  1.1012
10496SOL     OW32307   4.740   6.824   2.421 -0.0469  0.5165 -0.2091
10496SOL    HW132308   4.826   6.869   2.445 -0.3231  0.4105  1.0967
10496SOL    HW232309   4.703   6.864   2.337  3.1078 -1.9297 -3.0444
10497SOL     OW32310   1.983   1.744   4.707 -0.0261  0.2166 -0.2033
10497SOL    HW132311   1.956   1.832   4.667 -0.2683  0.0274 -0.4621
10497SOL    HW232312   2.032   1.691   4.638 -1.1033 -0.4231 -0.5061
10498SOL     OW32313   4.020   1.916   2.356 -0.0668 -0.0050  0.0511
10498SOL    HW132314   4.026   1.993   2.292  0.6077  1.4666  1.8075
10498SOL    HW232315   4.083   1.931   2.432  2.3074 -3.6471 -0.8566
10499SOL     OW32316   4.716   2.614   4.274  0.0194  0.3281  1.1747
10499SOL    HW132317   4.656   2.638   4.351 -0.9123  1.2318  0.1887
10499SOL    HW232318   4.810   2.607   4.307 -0.3705  0.6176  2.4145
10500SOL     OW32319   1.261   6.959   5.546  0.3902 -0.1214 -0.0144
10500SOL    HW132320   1.180   6.924   5.593 -0.0352  1.2092  0.2830
10500SOL    HW232321   1.325   6.997   5.612  1.0635 -0.7470 -0.2910
10501SOL     OW32322   6.594   3.982   6.135 -0.2742 -1.0225  0.2514
10501SOL    HW132323   6.556   4.005   6.046  1.2240 -0.5151 -0.2821
10501SOL    HW232324   6.685   4.022   6.144 -0.4064 -1.0539  2.0174
10502SOL     OW32325   6.203   0.657   2.188  0.3812  0.0624 -0.6204
10502SOL    HW132326   6.215   0.756   2.180 -1.0367  0.2589 -0.6570
10502SOL    HW232327   6.143   0.637   2.265  1.3982 -0.8346 -0.0562
10503SOL     OW32328   5.194   5.858   1.641 -0.0754 -0.9768  0.6961
10503SOL    HW132329   5.183   5.780   1.580  1.1304 -0.0055 -0.8375
10503SOL    HW232330   5.112   5.868   1.698 -0.9996 -2.2528 -0.3595
10504SOL     OW32331   4.287   3.553   3.224 -0.5418 -0.3868 -0.1866
10504SOL    HW132332   4.371   3.608   3.217  0.3384 -1.8659 -1.9663
10504SOL    HW232333   4.311   3.458   3.240 -1.8951 -0.7746 -0.3872
10505SOL     OW32334   5.400   4.529   1.581  0.1170 -0.2919  0.4946
10505SOL    HW132335   5.350   4.535   1.667 -1.2351 -1.5380 -0.1750
10505SOL    HW232336   5.418   4.433   1.559  1.8976  0.0851  0.1768
10506SOL     OW32337   3.445   5.812   4.063 -0.0378  0.2735  0.1828
10506SOL    HW132338   3.458   5.904   4.101 -0.8091  0.7700 -0.7067
10506SOL    HW232339   3.462   5.744   4.134 -0.8149  1.1448  1.2368
10507SOL     OW32340   1.303   3.192   6.671  0.0133 -0.1524 -0.7886
10507SOL    HW132341   1.371   3.138   6.622 -0.7979 -0.7699 -1.2597
10507SOL    HW232342   1.307   3.287   6.639 -0.8458 -0.6341 -2.5069
10508SOL     OW32343   4.003   0.225   6.515  0.3589  0.3644 -0.6886
10508SOL    HW132344   3.967   0.132   6.511 -1.2885  1.0302 -2.3537
10508SOL    HW232345   3.928   0.289   6.529  0.7303  1.8046 -4.2091
10509SOL     OW32346   5.525   4.171   4.958 -0.3742 -0.1303 -0.5862
10509SOL    HW132347   5.498   4.121   4.876  0.2669 -1.7415  0.1592
10509SOL    HW232348   5.489   4.126   5.039 -1.4757  1.7607  0.0339
10510SOL     OW32349   3.816   3.333   2.301 -0.7729  0.3691 -0.1197
10510SOL    HW132350   3.799   3.340   2.400  0.3119  0.5736  0.0674
10510SOL    HW232351   3.870   3.250   2.283 -1.2419  0.1603 -0.5820
10511SOL     OW32352   2.145   3.986   5.088  0.2890 -0.1641 -0.4607
10511SOL    HW132353   2.063   3.945   5.129  0.3901  0.6348  0.5660
10511SOL    HW232354   2.210   4.011   5.159  0.6870  0.8135 -1.1433
10512SOL     OW32355   5.716   0.463   5.099  0.2719  0.3603  0.2051
10512SOL    HW132356   5.732   0.379   5.151  0.2105 -0.0113 -0.3663
10512SOL    HW232357   5.649   0.446   5.027 -1.2987  1.4326  1.3560
10513SOL     OW32358   2.764   5.595   3.260  0.1836  0.1537  0.1350
10513SOL    HW132359   2.832   5.653   3.215 -0.5804  1.2779  0.3884
10513SOL    HW232360   2.763   5.616   3.358 -1.1986  0.8665 -0.0080
10514SOL     OW32361   3.829   6.427   3.973  0.0211 -0.4836  0.1858
10514SOL    HW132362   3.883   6.454   4.052  0.9952  0.4903 -0.7623
10514SOL    HW232363   3.760   6.498   3.954  1.8692  0.9085 -1.6721
10515SOL     OW32364   5.502   2.759   0.372 -0.1425  0.0623 -0.1100
10515SOL    HW132365   5.517   2.784   0.467  0.3879  1.4760 -0.5372
10515SOL    HW232366   5.417   2.707   0.364  0.9017 -2.0048  1.4082
10516SOL     OW32367   5.959   1.180   6.889  0.4253  0.6880  0.0412
10516SOL    HW132368   6.044   1.199   6.841 -0.3165 -0.5478 -1.9252
10516SOL    HW232369   5.958   1.084   6.918 -0.8012  0.2690 -1.2235
10517SOL     OW32370   0.644   1.957   4.873  0.7471  0.2663 -0.4248
10517SOL    HW132371   0.579   1.882   4.883  0.2276  0.8953  1.2852
10517SOL    HW232372   0.695   1.946   4.788 -0.6610 -0.9632 -1.1504
10518SOL     OW32373   6.089   1.467   3.888  0.5558  0.0986 -0.6960
10518SOL    HW132374   6.006   1.429   3.928 -0.1655  0.2959 -1.9417
10518SOL    HW232375   6.165   1.404   3.900  0.2064 -0.1336  0.3665
10519SOL     OW32376   0.258   1.489   2.478 -0.0821  0.0333  0.1548
10519SOL    HW132377   0.315   1.571   2.479  1.2730 -0.8739  1.4659
10519SOL    HW232378   0.316   1.408   2.473 -1.2478 -0.9176  1.2243
10520SOL     OW32379   6.052   5.305   0.665  0.2116 -0.5605 -0.0107
10520SOL    HW132380   6.146   5.270   0.661  0.0555 -0.8744 -1.2942
10520SOL    HW232381   6.054   5.401   0.693  0.9190 -0.5385 -0.1167
10521SOL     OW32382   6.194   2.540   6.568 -0.0098  0.8222  1.5018
10521SOL    HW132383   6.119   2.531   6.635 -0.7757  1.0370  0.6881
10521SOL    HW232384   6.178   2.620   6.511  0.6568  0.6491  1.0664
10522SOL     OW32385   6.696   6.179   0.775 -0.9239  0.2790  0.2015
10522SOL    HW132386   6.694   6.225   0.864  0.3996 -0.6406  0.7351
10522SOL    HW232387   6.736   6.240   0.707  2.2554 -0.4484  1.2161
10523SOL     OW32388   4.182   3.117   5.444 -0.1603 -0.1098  0.1322
10523SOL    HW132389   4.190   3.134   5.542 -1.2831  0.9721  0.0626
10523SOL    HW232390   4.254   3.167   5.395 -0.5342  0.6039  0.2991
10524SOL     OW32391   5.805   1.538   6.240  0.2337  0.0328  0.0704
10524SOL    HW132392   5.896   1.503   6.220 -0.3577 -0.8802 -1.1507
10524SOL    HW232393   5.809   1.638   6.249  1.2794  0.0503 -0.3791
10525SOL     OW32394   5.629   1.283   1.654 -0.1018  0.4666 -0.3510
10525SOL    HW132395   5.563   1.214   1.684 -1.2792  1.4007 -0.7205
10525SOL    HW232396   5.590   1.374   1.668  0.6068  1.0021 -1.7247
10526SOL     OW32397   4.371   6.895   1.506  0.1155 -0.3764  0.1228
10526SOL    HW132398   4.340   6.900   1.411  0.0142 -0.0679  0.1683
10526SOL    HW232399   4.336   6.974   1.557 -1.7003 -1.6994  0.9874
10527SOL     OW32400   4.594   3.368   5.518 -0.3992 -0.8106 -0.3356
10527SOL    HW132401   4.663   3.439   5.534 -0.3069 -0.4594 -2.1172
10527SOL    HW232402   4.599   3.299   5.590  1.2524 -0.3548  0.0173
10528SOL     OW32403   6.092   4.735   5.096  0.8091 -0.3832  0.5291
10528SOL    HW132404   6.016   4.747   5.032 -0.4410 -0.0733  2.0270
10528SOL    HW232405   6.136   4.647   5.080 -0.5554 -1.0407  0.3185
10529SOL     OW32406   1.178   5.239   4.553  0.5525  0.2007 -0.2861
10529SOL    HW132407   1.181   5.188   4.467  0.7871 -0.2305 -0.0253
10529SOL    HW232408   1.088   5.279   4.565  0.5806  0.4321 -0.8328
10530SOL     OW32409   0.926   5.013   6.672  0.6933  0.3260 -0.2373
10530SOL    HW132410   0.839   5.054   6.696  0.1141  0.3161 -2.1479
10530SOL    HW232411   0.913   4.916   6.650  1.0338  0.4869 -1.2235
10531SOL     OW32412   5.672   1.104   5.121  0.0626  0.5210 -0.0526
10531SOL    HW132413   5.573   1.114   5.121  0.1996  2.1435 -0.6839
10531SOL    HW232414   5.704   1.085   5.028  0.3362 -0.4207  0.2146
10532SOL     OW32415   6.962   5.344   1.332  0.3542  0.7967 -0.0529
10532SOL    HW132416   7.013   5.378   1.411  1.3079 -1.5764  0.4482
10532SOL    HW232417   6.867   5.326   1.359  0.2330  1.6384  0.0979
10533SOL     OW32418   1.578   0.233   0.114  0.8513  0.5953  0.0337
10533SOL    HW132419   1.654   0.167   0.107  1.7528  1.5838  0.2417
10533SOL    HW232420   1.596   0.295   0.190  0.3176  1.4630 -0.5410
10534SOL     OW32421   3.963   1.143   1.717  1.0613  0.0197 -0.3305
10534SOL    HW132422   4.044   1.200   1.702  0.7722  0.6195  0.3396
10534SOL    HW232423   3.884   1.184   1.671  0.7139  0.5322  0.6755
10535SOL     OW32424   4.965   5.709   3.337  0.7910 -0.3001 -0.3472
10535SOL    HW132425   5.030   5.766   3.287  1.0937  2.5440  2.9049
10535SOL    HW232426   4.872   5.735   3.312  0.9073  2.2732  1.5166
10536SOL     OW32427   3.585   1.252   5.038 -0.1273  0.3465  0.0624
10536SOL    HW132428   3.546   1.279   4.950  1.0877  1.4730 -0.1695
10536SOL    HW232429   3.555   1.159   5.060 -0.5924  0.0961 -1.4561
10537SOL     OW32430   5.756   6.923   6.939 -0.4823 -0.2399 -0.2815
10537SOL    HW132431   5.662   6.943   6.911  0.0694  2.1030 -0.6408
10537SOL    HW232432   5.819   6.951   6.867  0.7448  2.4379  1.6506
10538SOL     OW32433   0.047   1.684   2.961 -0.0291 -0.2928 -0.1129
10538SOL    HW132434  -0.036   1.694   2.906  0.3644 -0.3202 -0.6711
10538SOL    HW232435   0.126   1.715   2.908  0.1731  0.8903  0.8412
10539SOL     OW32436   2.397   2.982   3.805 -0.1996 -0.3365 -0.2103
10539SOL    HW132437   2.364   2.901   3.757 -1.1057 -0.6303  0.8533
10539SOL    HW232438   2.356   2.986   3.896  0.4838  0.8746  0.0769
10540SOL     OW32439   0.611   5.660   6.010  0.0304 -0.4924  0.6093
10540SOL    HW132440   0.671   5.732   6.043 -0.2006 -1.0878  2.4098
10540SOL    HW232441   0.516   5.693   6.008  0.1396 -0.1836 -0.3644
10541SOL     OW32442   4.826   1.265   1.004  0.2444  0.2061  0.8065
10541SOL    HW132443   4.778   1.333   0.949  1.5039  0.1387 -0.4052
10541SOL    HW232444   4.921   1.295   1.019  0.7732 -1.1950  0.3729
10542SOL     OW32445   1.698   2.694   5.708 -0.5399 -0.7765 -0.3440
10542SOL    HW132446   1.629   2.722   5.641  0.6477 -0.8042 -1.6138
10542SOL    HW232447   1.659   2.702   5.800 -2.8744 -2.6097 -1.0770
10543SOL     OW32448   3.338   3.573   0.837  0.0522  0.2125  0.0568
10543SOL    HW132449   3.239   3.563   0.828  0.1467  0.0913 -0.9669
10543SOL    HW232450   3.376   3.491   0.879 -0.4258  0.8491  1.8689
10544SOL     OW32451   5.061   3.690   5.363 -0.2072  0.0264  0.0819
10544SOL    HW132452   5.014   3.764   5.411 -2.4004 -1.0745 -0.2102
10544SOL    HW232453   5.019   3.677   5.273  1.3229 -0.4184 -0.5924
10545SOL     OW32454   6.749   4.144   2.013  0.2234 -0.0286 -0.5019
10545SOL    HW132455   6.824   4.081   2.035 -0.1442 -0.8890 -1.6495
10545SOL    HW232456   6.662   4.105   2.044  0.1601  0.6598  0.2199
10546SOL     OW32457   3.043   3.473   0.794 -0.3569  0.2060  0.3864
10546SOL    HW132458   2.967   3.476   0.859  2.1132 -0.0150  3.4779
10546SOL    HW232459   3.063   3.378   0.769  0.3025  0.0652  1.3947
10547SOL     OW32460   5.939   6.717   3.524  0.0089 -0.1782  0.8266
10547SOL    HW132461   6.031   6.749   3.546 -0.5025  1.6731  0.4594
10547SOL    HW232462   5.881   6.795   3.501 -0.5543 -1.5237 -3.2168
10548SOL     OW32463   5.214   1.282   1.495  0.1368  0.1672 -0.1779
10548SOL    HW132464   5.300   1.231   1.494  1.1498  1.8192 -1.7103
10548SOL    HW232465   5.165   1.267   1.410  0.8466  2.3178 -1.0207
10549SOL     OW32466   4.659   5.903   5.513 -0.2418  0.0049  0.4954
10549SOL    HW132467   4.593   5.977   5.525  0.4001  0.6213  0.3006
10549SOL    HW232468   4.621   5.834   5.452 -1.3731 -0.4916  1.7133
10550SOL     OW32469   5.669   3.655   3.387  0.4344 -1.0692  0.0406
10550SOL    HW132470   5.697   3.662   3.483 -0.5623 -0.5698  0.3144
10550SOL    HW232471   5.696   3.566   3.351 -1.6622 -2.4903  1.6437
10551SOL     OW32472   0.971   1.383   2.151 -0.0012 -0.2652  0.8267
10551SOL    HW132473   0.928   1.336   2.228 -0.2932  0.0071  0.8330
10551SOL    HW232474   0.901   1.403   2.082 -0.2275  1.6603  1.5602
10552SOL     OW32475   6.524   2.077   0.975 -0.2368 -0.6647 -0.4150
10552SOL    HW132476   6.601   2.107   0.918 -1.0073  0.6456 -0.7916
10552SOL    HW232477   6.487   2.155   1.024 -1.2601 -1.3179 -0.1344
10553SOL     OW32478   1.326   1.795   1.836  0.3993  0.6457  0.9129
10553SOL    HW132479   1.284   1.721   1.784  0.0473  1.6324 -0.2673
10553SOL    HW232480   1.372   1.758   1.917 -1.0673 -0.6767  1.1825
10554SOL     OW32481   1.322   4.721   6.727  0.1875  0.1162 -0.6819
10554SOL    HW132482   1.394   4.710   6.795  0.0270  0.1767 -0.5041
10554SOL    HW232483   1.317   4.638   6.670 -0.1578 -0.2202 -0.1660
10555SOL     OW32484   3.728   2.330   1.161  0.1158 -0.7012  0.3384
10555SOL    HW132485   3.741   2.282   1.074 -0.4093 -1.3179  0.5925
10555SOL    HW232486   3.715   2.428   1.144  0.9184 -0.6871 -0.2067
10556SOL     OW32487   3.641   0.242   6.997  0.1487  0.2799  1.1155
10556SOL    HW132488   3.666   0.334   6.967  1.4717  0.2605  2.0800
10556SOL    HW232489   3.715   0.179   6.976 -1.4549 -0.9976 -1.2195
10557SOL     OW32490   4.716   2.524   2.095 -0.2194  0.6061 -0.1505
10557SOL    HW132491   4.689   2.568   2.009 -0.0007  0.6712 -0.1864
10557SOL    HW232492   4.678   2.432   2.098 -0.6188  0.7709 -0.1112
10558SOL     OW32493   3.684   4.701   3.629 -0.1024  0.1732 -0.0219
10558SOL    HW132494   3.695   4.755   3.545  0.4920 -0.1567 -0.1650
10558SOL    HW232495   3.747   4.623   3.627 -0.0978  0.1497  0.7225
10559SOL     OW32496   2.516   5.090   1.509 -0.0509  0.0322  0.2118
10559SOL    HW132497   2.420   5.101   1.532 -0.0530  0.3008  0.0814
10559SOL    HW232498   2.543   4.994   1.520 -0.5899 -0.2337 -0.7384
10560SOL     OW32499   1.143   3.085   4.990 -0.1830 -0.2398 -0.2111
10560SOL    HW132500   1.089   3.031   5.054 -2.6113  1.4818 -0.6470
10560SOL    HW232501   1.089   3.102   4.907  1.6809  0.2396 -1.3918
10561SOL     OW32502   3.214   6.409   4.579  0.1472  0.2545  0.3732
10561SOL    HW132503   3.235   6.373   4.670  0.2041  0.7932  0.5798
10561SOL    HW232504   3.167   6.497   4.588  0.5704  0.5338 -0.1221
10562SOL     OW32505   1.431   5.092   1.242  0.6808  0.5794  0.4231
10562SOL    HW132506   1.505   5.067   1.303  3.8044  2.1130 -2.4011
10562SOL    HW232507   1.407   5.014   1.183  1.8983  0.7894 -0.3745
10563SOL     OW32508   5.768   6.937   3.471  0.0613 -0.5507  0.0436
10563SOL    HW132509   5.706   6.885   3.529  0.2069  0.5430  1.2245
10563SOL    HW232510   5.761   7.034   3.493  1.8356 -0.3762 -0.1630
10564SOL     OW32511   0.929   4.362   4.721  0.4126 -0.7242 -0.5411
10564SOL    HW132512   1.015   4.314   4.740  0.4204 -0.3251  0.5248
10564SOL    HW232513   0.860   4.295   4.692  0.2810 -1.4921  1.4270
10565SOL     OW32514   0.388   0.238   6.543  0.4619  0.6188  0.0306
10565SOL    HW132515   0.326   0.159   6.541  0.4906  0.4835  2.3456
10565SOL    HW232516   0.475   0.211   6.583  1.2044  1.3762 -1.0355
10566SOL     OW32517   6.261   5.346   0.973  0.2384  0.1719  0.0426
10566SOL    HW132518   6.193   5.279   1.002 -1.0067  2.1138  1.8586
10566SOL    HW232519   6.308   5.382   1.054  1.5033  0.8669 -0.9679
10567SOL     OW32520   6.542   3.236   3.334 -0.1677  0.2922  0.6161
10567SOL    HW132521   6.462   3.180   3.312 -0.4863  1.1023 -0.3869
10567SOL    HW232522   6.582   3.272   3.250  0.4831  0.9517  1.1907
10568SOL     OW32523   4.902   3.537   5.160 -0.0960  0.0095 -0.8300
10568SOL    HW132524   4.844   3.459   5.138 -0.7583  0.2183  0.1393
10568SOL    HW232525   4.968   3.551   5.086 -3.1033  1.5405 -3.4682
10569SOL     OW32526   1.685   0.597   1.452  0.8683 -0.1470  0.5379
10569SOL    HW132527   1.633   0.524   1.496  0.6240 -1.4096 -1.7229
10569SOL    HW232528   1.782   0.572   1.447  0.7054 -0.5551 -0.6900
10570SOL     OW32529   0.570   2.745   6.237 -0.2937  0.0372  0.0038
10570SOL    HW132530   0.515   2.683   6.293 -0.7825 -0.8276 -1.3782
10570SOL    HW232531   0.543   2.735   6.141 -0.7633  2.7774 -0.2238
10571SOL     OW32532   0.718   1.332   1.717 -0.5092  0.2277 -0.7166
10571SOL    HW132533   0.780   1.350   1.640  0.8860  0.6651  0.4679
10571SOL    HW232534   0.627   1.314   1.681  0.0266  0.6972 -2.4686
10572SOL     OW32535   1.452   4.892   2.949 -0.0072 -0.0696  0.3652
10572SOL    HW132536   1.382   4.828   2.979  0.7114 -0.3903  1.4350
10572SOL    HW232537   1.432   4.923   2.856 -0.5639 -1.5694 -0.0428
10573SOL     OW32538   4.591   6.164   4.630 -1.0230  0.6800  0.1474
10573SOL    HW132539   4.655   6.224   4.581  0.2564 -1.4994 -1.0122
10573SOL    HW232540   4.553   6.097   4.566  0.0553 -1.7251  1.8919
10574SOL     OW32541   3.204   5.775   0.844 -0.1201 -0.2205  0.4058
10574SOL    HW132542   3.190   5.868   0.810 -0.6021 -0.6454 -0.6436
10574SOL    HW232543   3.288   5.771   0.898  0.4791  0.6011 -0.4192
10575SOL     OW32544   2.038   1.426   0.391 -0.1658 -0.8192  0.0668
10575SOL    HW132545   2.079   1.400   0.304  0.0208 -0.0336 -0.0840
10575SOL    HW232546   2.077   1.512   0.423 -1.4898 -0.1863  0.0686
10576SOL     OW32547   5.725   4.579   4.392  0.0835 -0.3812  0.2500
10576SOL    HW132548   5.756   4.488   4.419 -2.3197 -1.8368 -1.5385
10576SOL    HW232549   5.627   4.587   4.409  0.0699  1.5208 -0.5272
10577SOL     OW32550   0.710   3.729   5.347  0.1612 -0.3066  0.8515
10577SOL    HW132551   0.725   3.644   5.296 -0.3758 -0.0173  0.1848
10577SOL    HW232552   0.625   3.722   5.399  0.2778 -0.2985  1.0444
10578SOL     OW32553   0.298   1.990   3.826  0.3110  0.8998  0.0889
10578SOL    HW132554   0.318   1.964   3.731  1.8068 -0.1817  0.6638
10578SOL    HW232555   0.376   2.041   3.863 -1.6410  4.4379 -0.2940
10579SOL     OW32556   1.786   2.906   4.378  0.0499 -0.5449  0.3153
10579SOL    HW132557   1.732   2.858   4.309 -1.2112 -0.6453  1.3269
10579SOL    HW232558   1.765   3.004   4.376  0.3598 -0.4763  0.2306
10580SOL     OW32559   5.291   1.144   6.706  0.3684  0.3166 -0.1366
10580SOL    HW132560   5.285   1.192   6.618  0.2952 -1.0534 -0.8990
10580SOL    HW232561   5.212   1.083   6.716 -1.0421  2.3326  2.0692
10581SOL     OW32562   1.106   1.390   4.150  0.4048 -0.9508  0.1695
10581SOL    HW132563   1.117   1.359   4.055  0.2526 -1.0357  0.1782
10581SOL    HW232564   1.094   1.311   4.210  0.3520 -0.8887  0.2414
10582SOL     OW32565   6.934   1.284   2.062 -0.2686 -0.5731 -0.0252
10582SOL    HW132566   7.025   1.288   2.103 -0.9780 -1.3486  1.7332
10582SOL    HW232567   6.890   1.374   2.066  0.3117 -0.2431 -0.7038
10583SOL     OW32568   6.318   2.665   6.286 -0.0292 -0.0026 -0.6545
10583SOL    HW132569   6.257   2.585   6.293  0.0557 -0.0475 -0.4095
10583SOL    HW232570   6.395   2.643   6.226  1.6070 -1.1604  1.7273
10584SOL     OW32571   6.587   0.644   0.080  1.0629  0.0330 -0.0239
10584SOL    HW132572   6.686   0.633   0.081  1.2203  1.2804  0.1917
10584SOL    HW232573   6.562   0.729   0.128 -0.2093 -0.8728  1.0211
10585SOL     OW32574   1.939   1.679   2.319 -0.1065 -0.2013 -0.0068
10585SOL    HW132575   1.882   1.760   2.331 -1.5190 -1.2832  0.9076
10585SOL    HW232576   1.972   1.648   2.408 -1.1633 -1.7223 -0.1270
10586SOL     OW32577   3.569   5.862   5.624 -0.3611  0.2160 -0.0699
10586SOL    HW132578   3.655   5.853   5.574 -0.7287 -1.1139 -0.5092
10586SOL    HW232579   3.564   5.953   5.665  0.5084  0.9212 -1.4245
10587SOL     OW32580   5.550   4.459   2.002 -0.1196 -0.1653  0.1545
10587SOL    HW132581   5.496   4.393   1.951  0.1711  0.4710 -1.0386
10587SOL    HW232582   5.580   4.532   1.940  2.1512 -0.5244  0.7329
10588SOL     OW32583   1.281   1.647   6.074 -0.3871 -0.5669  0.1793
10588SOL    HW132584   1.194   1.676   6.034 -0.3750  0.4056  0.8048
10588SOL    HW232585   1.314   1.719   6.136  1.9158  0.0229 -1.6071
10589SOL     OW32586   6.000   2.289   6.114 -0.1260  0.5734 -0.5661
10589SOL    HW132587   5.977   2.303   6.017 -1.8245  2.9432  0.0844
10589SOL    HW232588   6.089   2.244   6.120 -0.4832 -0.7110 -3.2091
10590SOL     OW32589   6.125   1.516   6.979 -0.0727 -0.0475  0.1688
10590SOL    HW132590   6.028   1.527   6.961 -0.4182 -0.9253  1.3752
10590SOL    HW232591   6.145   1.540   7.074  0.9657  0.5072 -0.1950
10591SOL     OW32592   1.420   1.734   6.428 -0.1057 -0.1512 -0.4918
10591SOL    HW132593   1.352   1.751   6.500 -0.4186  0.2063 -0.8706
10591SOL    HW232594   1.383   1.762   6.340  0.6559  0.3697 -0.6540
10592SOL     OW32595   6.472   1.324   6.059 -1.1876  0.4842  0.6567
10592SOL    HW132596   6.459   1.309   6.157 -1.5531  0.2535  0.5742
10592SOL    HW232597   6.511   1.241   6.018 -1.9815  0.1969  0.4353
10593SOL     OW32598   5.128   5.623   1.509 -0.0206 -0.2147  0.5571
10593SOL    HW132599   5.041   5.642   1.554 -0.5591 -2.0224  0.3480
10593SOL    HW232600   5.112   5.577   1.422  1.1260 -1.4113  0.9343
10594SOL     OW32601   1.733   5.703   1.347  0.0920  0.0310 -0.1596
10594SOL    HW132602   1.680   5.770   1.399 -2.3256 -1.1734 -0.9032
10594SOL    HW232603   1.831   5.720   1.359 -0.4226  1.9528  1.8577
10595SOL     OW32604   3.934   3.394   2.666  0.2461  0.0571 -0.5359
10595SOL    HW132605   3.982   3.337   2.600  0.4891 -0.3465 -0.0197
10595SOL    HW232606   3.934   3.348   2.755 -1.7440 -0.3132 -0.6786
10596SOL     OW32607   5.577   2.474   5.381  0.3795  0.4337  0.4691
10596SOL    HW132608   5.549   2.562   5.419  2.7983  1.9411 -0.9539
10596SOL    HW232609   5.663   2.446   5.423 -0.2111 -1.1378  0.6892
10597SOL     OW32610   5.568   0.465   2.855 -0.1020  0.2345  0.0910
10597SOL    HW132611   5.584   0.412   2.773 -1.4538  0.2522 -0.1982
10597SOL    HW232612   5.582   0.407   2.936  3.5445  0.7732  0.0332
10598SOL     OW32613   0.236   2.347   6.207 -0.8335  0.2630 -0.1969
10598SOL    HW132614   0.306   2.275   6.209 -0.3442  0.7329  0.1468
10598SOL    HW232615   0.157   2.316   6.155 -0.5363 -0.4358 -0.2446
10599SOL     OW32616   5.731   5.389   1.015  0.4976 -0.4116 -0.9209
10599SOL    HW132617   5.751   5.314   1.078  2.4523  1.0699  0.2947
10599SOL    HW232618   5.816   5.434   0.989 -0.5816  0.9641 -2.1876
10600SOL     OW32619   4.544   1.066   6.449  0.5526 -0.2614 -0.5357
10600SOL    HW132620   4.531   1.049   6.351  2.5561 -0.9338 -0.7292
10600SOL    HW232621   4.618   1.008   6.483  1.4884  1.6525  0.8617
10601SOL     OW32622   0.250   6.978   3.329 -0.2655 -0.0872 -0.4277
10601SOL    HW132623   0.251   6.879   3.342 -0.6905 -0.2840 -1.7608
10601SOL    HW232624   0.161   7.014   3.358 -0.5628 -0.2776 -1.0792
10602SOL     OW32625   6.298   6.515   0.171  0.2749  0.6978  0.3286
10602SOL    HW132626   6.261   6.424   0.155  1.1223  0.4306 -0.1597
10602SOL    HW232627   6.231   6.583   0.142 -0.1239  0.2291  0.1252
10603SOL     OW32628   1.009   3.508   1.360  0.1451 -0.5368 -0.4940
10603SOL    HW132629   1.087   3.497   1.421  0.9593  1.1655 -1.1510
10603SOL    HW232630   1.037   3.559   1.279 -1.7097  0.4265 -0.5867
10604SOL     OW32631   2.611   4.621   2.051 -0.0239 -0.1656 -0.3453
10604SOL    HW132632   2.619   4.700   2.112  0.3798 -0.3186 -0.1983
10604SOL    HW232633   2.515   4.598   2.040 -0.0733 -0.5722  0.8040
10605SOL     OW32634   1.791   2.454   5.618 -0.3002 -0.3471 -0.0090
10605SOL    HW132635   1.745   2.535   5.652  0.6036 -0.3060  1.2187
10605SOL    HW232636   1.780   2.448   5.518  0.5232  1.8955 -0.3006
10606SOL     OW32637   0.404   0.484   3.122 -0.2403  0.1751 -0.0120
10606SOL    HW132638   0.433   0.424   3.197  0.7003  2.1054  1.2455
10606SOL    HW232639   0.451   0.457   3.038  0.7422 -0.3882  0.6994
10607SOL     OW32640   5.176   5.384   6.256 -0.6931  0.0073 -0.1235
10607SOL    HW132641   5.185   5.434   6.342 -0.6648 -1.8310  0.9831
10607SOL    HW232642   5.094   5.327   6.259 -0.7037 -0.0762 -1.3464
10608SOL     OW32643   2.018   0.216   3.711 -0.5252  0.0979  0.0896
10608SOL    HW132644   2.060   0.268   3.785  0.7699  0.4278 -0.8333
10608SOL    HW232645   2.039   0.119   3.722 -3.5742 -0.4361  2.2296
10609SOL     OW32646   0.506   0.154   3.993  0.5266 -0.2783  0.6026
10609SOL    HW132647   0.551   0.192   4.074  0.3176  0.0441  0.5690
10609SOL    HW232648   0.420   0.111   4.020  1.0584 -1.2706  0.7328
10610SOL     OW32649   3.569   6.356   0.730 -0.1875 -0.5761  0.0643
10610SOL    HW132650   3.557   6.375   0.828  1.4794  1.3516 -0.0475
10610SOL    HW232651   3.660   6.320   0.714  0.1246  0.5996 -0.9384
10611SOL     OW32652   0.047   0.932   0.225 -0.1801 -0.2858  0.2116
10611SOL    HW132653   0.103   0.997   0.277  3.5905 -1.6509 -1.7280
10611SOL    HW232654  -0.030   0.980   0.183  0.4751  2.1467  1.6381
10612SOL     OW32655   6.619   4.517   4.339 -0.7978  0.6266 -0.0444
10612SOL    HW132656   6.587   4.527   4.245  0.5955 -0.7019 -0.7266
10612SOL    HW232657   6.612   4.604   4.387 -3.8334  0.7757 -0.5799
10613SOL     OW32658   6.966   5.774   5.779 -0.1686 -0.5062 -0.2425
10613SOL    HW132659   6.996   5.750   5.686 -0.4759 -3.7052  0.3608
10613SOL    HW232660   6.907   5.701   5.814 -2.4146  1.9665  1.4651
10614SOL     OW32661   4.315   2.695   5.966  0.0648 -0.2546 -0.1567
10614SOL    HW132662   4.382   2.624   5.948 -0.2296 -0.5781  0.0181
10614SOL    HW232663   4.246   2.695   5.893 -0.1403 -0.3926  0.0364
10615SOL     OW32664   6.862   5.161   3.925 -0.0135 -0.0066 -1.0648
10615SOL    HW132665   6.937   5.180   3.863 -1.1078 -0.2285 -2.5075
10615SOL    HW232666   6.878   5.206   4.013  1.2302  0.8815 -1.7290
10616SOL     OW32667   5.436   2.075   2.853 -0.3336  0.0252  0.0108
10616SOL    HW132668   5.349   2.089   2.901  0.2815  0.7374  0.9677
10616SOL    HW232669   5.507   2.131   2.896  0.3218  0.5074 -1.5972
10617SOL     OW32670   3.169   1.876   6.233 -0.7603 -0.1217  0.2676
10617SOL    HW132671   3.231   1.946   6.269 -0.6081 -0.0766 -0.0655
10617SOL    HW232672   3.094   1.860   6.297  0.2079 -0.9929  1.2093
10618SOL     OW32673   0.827   3.242   4.654  0.1579  0.0265  0.0061
10618SOL    HW132674   0.836   3.284   4.564  1.3734  0.3829  0.2741
10618SOL    HW232675   0.811   3.144   4.644  0.3204  0.0615 -0.5974
10619SOL     OW32676   6.378   1.307   3.483  0.5559  0.0335 -0.2458
10619SOL    HW132677   6.352   1.388   3.535 -0.8955 -1.6221  1.8036
10619SOL    HW232678   6.312   1.293   3.408  0.6777  0.5955 -0.4627
10620SOL     OW32679   5.524   6.865   3.051  0.1870 -0.4502  0.2598
10620SOL    HW132680   5.484   6.927   2.984  1.0507  0.1955  0.3309
10620SOL    HW232681   5.600   6.815   3.009  2.8897  2.2958  1.5626
10621SOL     OW32682   1.215   2.030   6.520  0.5565 -0.7124 -0.2684
10621SOL    HW132683   1.282   2.020   6.593  0.0969 -0.0741  0.2448
10621SOL    HW232684   1.175   1.941   6.499 -1.6045 -0.5091  2.4574
10622SOL     OW32685   6.788   4.625   1.956 -0.2590  0.4307  0.2313
10622SOL    HW132686   6.813   4.542   1.907 -0.6470 -0.5607  1.6410
10622SOL    HW232687   6.870   4.667   1.996 -0.3890 -1.2982  2.5324
10623SOL     OW32688   6.704   1.503   3.102  0.0198  0.2236 -0.2639
10623SOL    HW132689   6.793   1.458   3.092  0.0591  0.2711 -0.1285
10623SOL    HW232690   6.643   1.447   3.156  0.3999  0.7952  0.7790
10624SOL     OW32691   4.627   1.831   5.499 -0.4239 -0.0162  0.3964
10624SOL    HW132692   4.529   1.827   5.477 -0.5642 -2.6320  1.2105
10624SOL    HW232693   4.679   1.789   5.425 -0.1931 -1.4195  1.3459
10625SOL     OW32694   1.426   3.994   6.203  0.2200  0.1161  0.1712
10625SOL    HW132695   1.339   3.945   6.212  0.7546 -1.0641 -0.7228
10625SOL    HW232696   1.408   4.091   6.187 -0.9566 -0.1903 -0.4862
10626SOL     OW32697   4.333   0.509   0.667 -0.8799  0.1097 -0.2035
10626SOL    HW132698   4.384   0.527   0.751 -1.0440  1.3414 -0.3400
10626SOL    HW232699   4.260   0.443   0.685 -1.3571  0.8903  0.7984
10627SOL     OW32700   0.097   0.670   2.952 -0.3930 -0.0782  0.1028
10627SOL    HW132701   0.024   0.737   2.963 -0.0786  0.2394  0.2958
10627SOL    HW232702   0.179   0.716   2.916 -0.2916 -0.4274 -0.1277
10628SOL     OW32703   5.321   1.590   2.774 -0.1670  0.4321  0.8924
10628SOL    HW132704   5.400   1.646   2.803  0.1936 -0.0608  0.8750
10628SOL    HW232705   5.237   1.630   2.811 -0.3969  3.2731 -2.1992
10629SOL     OW32706   1.950   0.874   2.151  0.1061  0.3513  0.4061
10629SOL    HW132707   1.923   0.851   2.057  0.4793  1.2199  0.0680
10629SOL    HW232708   1.888   0.943   2.187  1.5106  2.0068 -0.2001
10630SOL     OW32709   6.850   5.626   0.480 -0.8123  0.1837 -0.4789
10630SOL    HW132710   6.887   5.700   0.425 -0.2125  0.6942  0.5728
10630SOL    HW232711   6.767   5.590   0.437  1.4485 -1.8156 -3.6009
10631SOL     OW32712   3.880   5.557   0.589 -0.1121 -0.4022 -0.1228
10631SOL    HW132713   3.914   5.472   0.549 -0.2661  0.0416 -1.2258
10631SOL    HW232714   3.884   5.550   0.689 -0.1171 -1.6991 -0.1890
10632SOL     OW32715   4.004   1.213   4.107  0.4053  0.8865 -0.1847
10632SOL    HW132716   4.089   1.168   4.132  1.8856  1.8738 -2.9641
10632SOL    HW232717   3.950   1.232   4.189  1.1978 -2.8537  1.3644
10633SOL     OW32718   3.867   0.508   3.578  0.2488  0.3787  0.8615
10633SOL    HW132719   3.875   0.604   3.549 -0.2777  0.5696  1.3278
10633SOL    HW232720   3.851   0.505   3.677  0.3160 -0.1974  0.8572
10634SOL     OW32721   4.844   0.675   2.125  0.1247  0.1561  0.1092
10634SOL    HW132722   4.797   0.669   2.036  1.0614  2.3919 -0.5923
10634SOL    HW232723   4.778   0.699   2.196 -0.4176 -0.4496 -0.1716
10635SOL     OW32724   6.321   1.126   0.202 -0.3121 -0.4297 -0.3502
10635SOL    HW132725   6.253   1.193   0.231  0.6845  0.2271  0.5194
10635SOL    HW232726   6.275   1.040   0.180 -1.5563  0.3665 -1.0099
10636SOL     OW32727   0.124   2.175   3.021  0.0243 -0.1186 -0.4784
10636SOL    HW132728   0.145   2.235   3.097 -0.2616 -0.4419 -0.1358
10636SOL    HW232729   0.114   2.229   2.937  4.2516 -0.1300 -1.1692
10637SOL     OW32730   5.931   4.367   6.299  0.0284  0.0213 -0.5953
10637SOL    HW132731   5.855   4.382   6.236 -0.4490 -0.2756 -0.0965
10637SOL    HW232732   5.897   4.324   6.383  0.6652  0.3451 -0.1643
10638SOL     OW32733   5.776   1.430   4.423  0.0977 -0.1811 -0.1938
10638SOL    HW132734   5.746   1.417   4.329 -1.5466  0.2199  0.2429
10638SOL    HW232735   5.809   1.342   4.459  0.6899 -0.3498 -1.1103
10639SOL     OW32736   3.139   7.013   6.029 -0.0325  0.2590  0.9210
10639SOL    HW132737   3.173   6.951   5.959  1.4614 -1.4103  2.9978
10639SOL    HW232738   3.111   6.961   6.110  1.8048  2.2471  3.0013
10640SOL     OW32739   0.028   6.299   2.809  0.8948  0.0111 -0.2895
10640SOL    HW132740   0.018   6.200   2.804 -0.4793  0.0100  1.3699
10640SOL    HW232741   0.111   6.322   2.859  0.5658 -0.3754  0.4734
10641SOL     OW32742   6.870   1.099   1.067  0.3065  0.1396  0.0029
10641SOL    HW132743   6.917   1.108   1.155 -0.9429 -0.9355  0.8080
10641SOL    HW232744   6.849   1.190   1.031 -0.3315  0.5889  1.4580
10642SOL     OW32745   2.326   1.976   5.550  0.3802 -0.2694  0.4219
10642SOL    HW132746   2.292   1.956   5.458  0.9552  0.8406 -0.0593
10642SOL    HW232747   2.253   1.959   5.617 -0.5493  0.3441 -0.3974
10643SOL     OW32748   6.640   2.191   5.294 -0.1101 -0.2838 -0.2025
10643SOL    HW132749   6.554   2.225   5.256  0.3610  1.6784  0.3800
10643SOL    HW232750   6.625   2.161   5.388 -0.1775 -0.0962 -0.1534
10644SOL     OW32751   1.315   0.512   1.300  0.1524  0.1150  0.2862
10644SOL    HW132752   1.357   0.422   1.294  0.4620  0.2878 -0.2973
10644SOL    HW232753   1.385   0.582   1.283 -0.6391  0.3667 -2.6749
10645SOL     OW32754   6.546   4.050   4.836 -0.0330  0.2714 -0.2945
10645SOL    HW132755   6.475   3.982   4.853 -0.1901  0.0555 -1.6166
10645SOL    HW232756   6.516   4.113   4.764  0.9281  0.4381 -0.5723
10646SOL     OW32757   4.624   4.793   3.746 -0.2346  0.4334  0.9778
10646SOL    HW132758   4.575   4.707   3.760 -0.8146  0.7367  0.8459
10646SOL    HW232759   4.717   4.774   3.713 -0.2890 -0.1474  1.1577
10647SOL     OW32760   2.642   4.266   1.730  0.0775  0.4068 -0.3762
10647SOL    HW132761   2.702   4.346   1.723  3.0168 -1.4451  1.5317
10647SOL    HW232762   2.681   4.191   1.678 -0.6344 -0.8102  0.7796
10648SOL     OW32763   2.661   5.955   1.050 -0.7638 -0.7458  0.2743
10648SOL    HW132764   2.730   5.914   1.110 -2.0387 -2.3390  0.7171
10648SOL    HW232765   2.703   5.979   0.963  0.2064 -2.3830  0.2491
10649SOL     OW32766   0.940   3.644   5.013  0.3146 -0.2592 -0.1038
10649SOL    HW132767   0.966   3.740   5.003 -1.7984  0.4979  1.2077
10649SOL    HW232768   0.929   3.603   4.922 -0.0426  1.1135 -0.7034
10650SOL     OW32769   4.478   5.300   1.440  0.5913  0.1307  0.2920
10650SOL    HW132770   4.558   5.309   1.380  1.0041 -0.3318  0.7542
10650SOL    HW232771   4.494   5.224   1.503  0.2611  0.7547  1.1288
10651SOL     OW32772   0.674   2.122   3.330  0.9389  0.4184  0.1333
10651SOL    HW132773   0.591   2.140   3.277 -0.4435 -3.0526  0.8551
10651SOL    HW232774   0.753   2.125   3.270  0.4804  4.1805 -0.5186
10652SOL     OW32775   1.250   6.759   0.537  0.1797  0.5660 -0.5135
10652SOL    HW132776   1.313   6.837   0.543  2.5826 -1.2542 -0.0604
10652SOL    HW232777   1.250   6.710   0.624  0.7784 -1.3354 -1.5078
10653SOL     OW32778   3.354   2.258   1.748  0.1787  0.5105  0.2386
10653SOL    HW132779   3.293   2.185   1.718  0.3187  0.0322  1.0790
10653SOL    HW232780   3.406   2.293   1.670 -1.8845  1.6351 -0.7040
10654SOL     OW32781   5.393   3.661   1.676  0.2067  0.2409  0.1331
10654SOL    HW132782   5.295   3.647   1.683 -0.0394  1.7464 -0.1078
10654SOL    HW232783   5.421   3.739   1.732  1.7645 -1.9673  2.6643
10655SOL     OW32784   4.190   3.412   1.392  0.0175  0.0806 -0.3023
10655SOL    HW132785   4.237   3.430   1.478 -2.0093 -0.1787  0.9300
10655SOL    HW232786   4.092   3.398   1.410 -0.4483 -0.0566 -2.6487
10656SOL     OW32787   5.152   5.489   5.666  0.4215  0.2154  0.7771
10656SOL    HW132788   5.079   5.443   5.718  0.5426  0.0563  0.8090
10656SOL    HW232789   5.123   5.581   5.641  1.3675  1.4276  3.5699
10657SOL     OW32790   5.450   3.537   2.590  0.2752 -0.2546 -0.2363
10657SOL    HW132791   5.361   3.495   2.606 -0.2668  1.0425  0.3078
10657SOL    HW232792   5.468   3.541   2.492 -0.1803 -0.6525 -0.3416
10658SOL     OW32793   2.622   0.824   2.169 -0.2101  0.4648  0.5472
10658SOL    HW132794   2.594   0.822   2.073 -0.6030 -2.7344  0.5726
10658SOL    HW232795   2.540   0.819   2.227  0.0994 -1.1079  0.8893
10659SOL     OW32796   3.337   0.772   1.493  0.3764 -0.0847  0.0477
10659SOL    HW132797   3.288   0.689   1.468  0.9331 -0.3153 -0.2971
10659SOL    HW232798   3.356   0.826   1.411 -1.0366  0.9856  0.3985
10660SOL     OW32799   2.702   1.074   6.155 -0.1231 -0.0766  0.1649
10660SOL    HW132800   2.729   0.978   6.146  0.3282 -0.0521  1.1993
10660SOL    HW232801   2.613   1.080   6.201 -0.1387  0.0113  0.1243
10661SOL     OW32802   0.907   2.329   4.018  0.3965  0.0283  0.8260
10661SOL    HW132803   0.817   2.337   3.976  1.0499  2.7720 -0.3233
10661SOL    HW232804   0.903   2.363   4.112  0.4546  1.6773  0.2778
10662SOL     OW32805   0.081   2.690   2.726  0.8672  0.2467 -0.4175
10662SOL    HW132806   0.095   2.655   2.633  3.3183 -0.5335  0.1632
10662SOL    HW232807   0.127   2.778   2.735  0.1428  0.6008 -0.0745
10663SOL     OW32808   4.592   2.646   5.677  0.0066  0.0253 -0.5734
10663SOL    HW132809   4.604   2.716   5.747  0.8199 -2.3086  1.8125
10663SOL    HW232810   4.552   2.686   5.595  1.7050  3.4942  0.1160
10664SOL     OW32811   6.176   1.030   6.352  0.1278 -0.1971 -0.0029
10664SOL    HW132812   6.274   1.015   6.364  0.1935  0.0388 -0.2285
10664SOL    HW232813   6.160   1.080   6.267 -0.2125 -0.5176 -0.1379
10665SOL     OW32814   0.301   6.346   3.629 -0.8368 -0.3064  0.1467
10665SOL    HW132815   0.242   6.331   3.549 -1.8056 -2.2398  1.1276
10665SOL    HW232816   0.255   6.406   3.694 -0.6063  0.2247 -0.1720
10666SOL     OW32817   1.237   2.190   5.005 -0.1821  0.2461  0.3819
10666SOL    HW132818   1.311   2.257   4.990 -0.8045  1.4251  2.2798
10666SOL    HW232819   1.167   2.202   4.935  0.0340  1.1697  0.2997
10667SOL     OW32820   2.684   0.087   5.076  0.1797 -0.0726 -0.3695
10667SOL    HW132821   2.716   0.039   4.995  1.2320  0.5675 -0.3480
10667SOL    HW232822   2.757   0.089   5.144  0.2754  1.7663 -0.4714
10668SOL     OW32823   6.362   0.854   4.810 -0.5662 -0.0557  0.4113
10668SOL    HW132824   6.433   0.795   4.772  0.4799  1.1362  0.4543
10668SOL    HW232825   6.300   0.882   4.737 -2.6087 -3.1192  0.7561
10669SOL     OW32826   5.242   2.205   2.135  0.3238 -0.2855  0.5288
10669SOL    HW132827   5.300   2.272   2.089 -0.0320 -0.7692 -0.6745
10669SOL    HW232828   5.299   2.139   2.184  0.8961 -1.3415 -1.4577
10670SOL     OW32829   0.753   1.463   0.456 -0.3500  0.8975  0.3842
10670SOL    HW132830   0.744   1.503   0.547 -1.1584 -0.8950  1.1608
10670SOL    HW232831   0.753   1.363   0.464  1.0443  0.7084 -1.4726
10671SOL     OW32832   3.663   1.110   6.958  0.3885  0.4909 -0.2096
10671SOL    HW132833   3.604   1.188   6.941 -0.5194  0.2348  1.5717
10671SOL    HW232834   3.735   1.136   7.022  1.2177  0.3389 -1.0784
10672SOL     OW32835   3.416   2.007   2.394 -0.2416  0.6533  0.1176
10672SOL    HW132836   3.473   2.010   2.476  1.2927 -1.3091 -0.8006
10672SOL    HW232837   3.343   1.940   2.406  1.4992 -1.5519 -0.9431
10673SOL     OW32838   0.888   1.662   3.729  0.4263  0.6797 -0.0841
10673SOL    HW132839   0.853   1.747   3.768  0.3489  0.1252  1.0763
10673SOL    HW232840   0.836   1.585   3.765  1.2687  0.0438 -0.2204
10674SOL     OW32841   6.849   6.489   2.805  0.3492 -0.3613  0.4225
10674SOL    HW132842   6.871   6.575   2.759 -2.4081 -0.6968 -1.7531
10674SOL    HW232843   6.925   6.425   2.794  1.0272  0.6404 -1.0381
10675SOL     OW32844   3.280   1.447   0.818  0.2396  0.6988  0.0566
10675SOL    HW132845   3.206   1.512   0.834 -0.8283 -0.5052  0.2146
10675SOL    HW232846   3.361   1.495   0.785 -0.4790  2.1005  0.2772
10676SOL     OW32847   5.166   1.790   5.129 -0.2601 -0.5068  0.6534
10676SOL    HW132848   5.088   1.735   5.159 -2.3089  1.4882 -0.7889
10676SOL    HW232849   5.211   1.829   5.210 -1.0069 -1.2850  1.4880
10677SOL     OW32850   2.827   2.188   2.052  0.1337 -0.0401  0.1216
10677SOL    HW132851   2.924   2.180   2.078  0.1630  1.0573  0.3895
10677SOL    HW232852   2.803   2.285   2.041 -0.7011 -0.3384 -0.8655
10678SOL     OW32853   5.040   1.629   6.899 -0.1336 -0.1147  0.1104
10678SOL    HW132854   5.000   1.560   6.959 -0.4414  0.6299  0.7786
10678SOL    HW232855   4.997   1.718   6.916  1.8769  0.7609  0.9653
10679SOL     OW32856   5.499   6.545   3.340  0.1804  0.3947 -0.0334
10679SOL    HW132857   5.472   6.624   3.396  0.1355 -0.0077  0.5267
10679SOL    HW232858   5.442   6.467   3.363  2.2072 -0.6896  1.7178
10680SOL     OW32859   6.901   4.074   0.855  0.4540  0.2795 -0.2017
10680SOL    HW132860   6.908   4.171   0.834  1.4340 -0.0084 -1.3444
10680SOL    HW232861   6.826   4.033   0.803  0.2785  0.3398 -0.0026
10681SOL     OW32862   0.953   3.664   4.569  0.7808 -0.0562  0.5108
10681SOL    HW132863   1.026   3.675   4.501  1.2501 -1.6868  0.6948
10681SOL    HW232864   0.993   3.634   4.656 -0.1019 -1.4406  0.4871
10682SOL     OW32865   4.410   1.723   3.724  0.1963  0.2867 -0.1948
10682SOL    HW132866   4.495   1.750   3.679  0.5900 -0.8405 -0.1508
10682SOL    HW232867   4.353   1.671   3.660  0.7447 -1.2995  0.5688
10683SOL     OW32868   3.509   4.464   2.732 -0.2776 -0.3363  0.0541
10683SOL    HW132869   3.413   4.486   2.750 -1.0596 -2.1050 -1.7378
10683SOL    HW232870   3.515   4.389   2.666  2.3332 -0.9957  0.9356
10684SOL     OW32871   1.688   1.122   3.129  0.0614 -0.1763  0.7120
10684SOL    HW132872   1.712   1.153   3.221 -1.2725  0.8895  0.7507
10684SOL    HW232873   1.709   1.025   3.119  1.1703 -0.0688  1.7816
10685SOL     OW32874   4.922   4.162   0.209 -0.1919  0.3626  0.0453
10685SOL    HW132875   4.956   4.140   0.300 -0.3468 -2.6717 -0.5286
10685SOL    HW232876   4.829   4.197   0.215 -0.6442 -0.9327  1.0180
10686SOL     OW32877   5.812   4.922   6.473  0.4369  0.1393 -0.0965
10686SOL    HW132878   5.767   4.945   6.387  2.3811 -1.3594 -1.5960
10686SOL    HW232879   5.767   4.971   6.548 -3.2251 -0.6904 -1.5012
10687SOL     OW32880   4.979   4.734   5.075  0.0762  0.3218  0.0445
10687SOL    HW132881   4.914   4.687   5.015  2.3886 -1.2571 -1.4071
10687SOL    HW232882   4.996   4.826   5.041 -0.1558  0.1525 -0.5332
10688SOL     OW32883   0.896   6.672   0.309 -0.4743  0.9430  0.8927
10688SOL    HW132884   0.938   6.587   0.338 -1.5982 -0.3060 -0.9464
10688SOL    HW232885   0.875   6.668   0.211  0.0332  3.5987  0.5885
10689SOL     OW32886   6.732   5.991   1.972 -0.1490 -0.3011 -0.5217
10689SOL    HW132887   6.781   6.077   1.976 -0.9046  0.2008 -1.5733
10689SOL    HW232888   6.760   5.932   2.048  0.1723  0.9731  0.3709
10690SOL     OW32889   6.964   6.569   6.956 -0.4579 -0.1783 -0.3557
10690SOL    HW132890   6.885   6.515   6.988 -0.7686 -0.4465 -1.5283
10690SOL    HW232891   6.952   6.590   6.859  0.8882 -0.1582 -0.5330
10691SOL     OW32892   6.429   3.181   1.052  0.0673  0.7270  0.2419
10691SOL    HW132893   6.515   3.225   1.026 -0.1930  0.4575 -1.1639
10691SOL    HW232894   6.374   3.245   1.105 -0.1866  2.0459 -1.5072
10692SOL     OW32895   6.312   5.644   3.005 -0.1284  0.0626  0.0162
10692SOL    HW132896   6.290   5.707   3.079 -1.2735  0.8907 -0.9946
10692SOL    HW232897   6.326   5.552   3.043 -0.8678  0.4298  1.2478
10693SOL     OW32898   5.248   4.678   4.852  0.5824 -0.0182 -0.1080
10693SOL    HW132899   5.255   4.579   4.865 -0.9105 -0.1276  0.0258
10693SOL    HW232900   5.168   4.698   4.796  0.3212  1.1753  0.6679
10694SOL     OW32901   6.795   4.830   0.015  0.1547 -0.4832 -0.1801
10694SOL    HW132902   6.818   4.754  -0.047  0.6426 -0.0170 -0.5650
10694SOL    HW232903   6.788   4.915  -0.038 -0.0170 -0.1813  0.3487
10695SOL     OW32904   0.484   1.904   6.389 -0.6267  0.6596 -1.0522
10695SOL    HW132905   0.395   1.936   6.419  0.7601  2.2022  1.8731
10695SOL    HW232906   0.527   1.975   6.333  1.0029  2.8533  2.5191
10696SOL     OW32907   4.903   3.055   6.837  0.4424 -0.1753 -0.5594
10696SOL    HW132908   4.900   3.085   6.932 -0.1515  0.3052 -0.7274
10696SOL    HW232909   4.988   3.088   6.795  0.1915  0.5699 -0.5083
10697SOL     OW32910   5.883   0.795   6.324 -0.0619  0.4353 -0.4445
10697SOL    HW132911   5.918   0.773   6.233 -2.0599  0.2558 -1.2302
10697SOL    HW232912   5.784   0.809   6.319  0.1053  2.7115  1.3153
10698SOL     OW32913   4.089   4.895   6.767 -0.1422 -0.0243 -0.4149
10698SOL    HW132914   4.062   4.836   6.843 -0.4328  0.9554  0.2568
10698SOL    HW232915   4.051   4.858   6.682  0.5498 -1.3758 -0.1709
10699SOL     OW32916   4.554   5.846   2.271  0.1339 -0.1421 -0.7580
10699SOL    HW132917   4.517   5.757   2.243  0.7098 -0.3315 -0.9447
10699SOL    HW232918   4.493   5.888   2.338  1.1824 -1.9053  1.4409
10700SOL     OW32919   0.848   5.399   4.287 -0.1832  0.2305  0.1645
10700SOL    HW132920   0.910   5.473   4.261  1.5539 -1.6242 -1.2282
10700SOL    HW232921   0.875   5.363   4.377  2.2262 -1.9265 -1.3084
10701SOL     OW32922   1.107   5.715   5.402 -0.4766  0.4619 -0.2205
10701SOL    HW132923   1.065   5.634   5.361  1.1537  0.0180 -1.0904
10701SOL    HW232924   1.132   5.695   5.497  0.6798 -0.3717 -0.6764
10702SOL     OW32925   4.486   5.502   1.042 -0.4431 -0.3031  0.1063
10702SOL    HW132926   4.497   5.597   1.072  1.5899 -0.2167 -0.6712
10702SOL    HW232927   4.418   5.497   0.969 -0.6204  0.5451  0.2022
10703SOL     OW32928   4.228   1.396   0.929  0.0661 -0.2038  0.1004
10703SOL    HW132929   4.265   1.473   0.877 -1.0829 -0.6161 -1.4232
10703SOL    HW232930   4.302   1.350   0.978  0.6627  2.3817  1.8305
10704SOL     OW32931   4.891   0.806   2.648 -0.4479  0.3838  0.4046
10704SOL    HW132932   4.938   0.768   2.568 -2.0682 -1.9403  0.4908
10704SOL    HW232933   4.931   0.770   2.731  0.1345  1.4741  0.6062
10705SOL     OW32934   6.908   3.246   5.042  0.0363  0.3754  0.6542
10705SOL    HW132935   6.884   3.280   4.951  1.1553  1.6308  0.7924
10705SOL    HW232936   7.007   3.246   5.053  0.6406 -6.1711 -0.4829
10706SOL     OW32937   5.581   4.033   4.497  0.0541  0.4210 -0.3096
10706SOL    HW132938   5.600   3.980   4.414  0.8987  0.2313 -0.0095
10706SOL    HW232939   5.654   4.099   4.513  0.1252  0.1683  0.5004
10707SOL     OW32940   0.910   1.494   6.181  0.4172 -0.0179 -0.8999
10707SOL    HW132941   0.907   1.461   6.086  0.1795 -0.4572 -0.7432
10707SOL    HW232942   0.856   1.433   6.239  1.2934 -0.2615 -0.3230
10708SOL     OW32943   0.058   0.014   1.499 -0.3480  0.1574 -0.4100
10708SOL    HW132944   0.033  -0.083   1.500 -2.1462  0.6049  0.3925
10708SOL    HW232945  -0.024   0.070   1.502  0.6826  1.6845  0.2991
10709SOL     OW32946   0.022   3.299   2.659 -0.0939 -0.1587  0.0239
10709SOL    HW132947  -0.058   3.260   2.706  0.0160 -0.3613  0.0030
10709SOL    HW232948  -0.005   3.382   2.612  0.0191  0.5088  1.0926
10710SOL     OW32949   2.321   5.568   2.066 -0.4941 -0.3670  0.7424
10710SOL    HW132950   2.241   5.531   2.018 -0.1897  0.8939 -0.8253
10710SOL    HW232951   2.291   5.620   2.145 -1.1958 -0.4679  0.5496
10711SOL     OW32952   2.170   3.055   0.960  0.2789 -0.2170  0.2252
10711SOL    HW132953   2.270   3.059   0.951  0.3246  2.4828  1.3013
10711SOL    HW232954   2.146   2.979   1.021  1.4524 -2.1974 -1.6000
10712SOL     OW32955   4.233   5.023   1.307 -0.2497  0.0239 -0.1379
10712SOL    HW132956   4.259   5.118   1.291 -1.4169  0.3562 -0.1207
10712SOL    HW232957   4.182   5.016   1.392  2.0159 -1.0365  1.2270
10713SOL     OW32958   5.152   4.282   2.568  0.5483  0.3361 -0.5715
10713SOL    HW132959   5.240   4.280   2.616  0.2329  1.8883  0.1424
10713SOL    HW232960   5.107   4.194   2.577  1.3063  0.0241  0.4831
10714SOL     OW32961   6.264   6.040   7.006 -0.5520  0.2227 -0.1900
10714SOL    HW132962   6.228   5.958   6.962 -1.8792  0.0811  1.0939
10714SOL    HW232963   6.321   6.014   7.084 -0.0473  0.4758 -0.4746
10715SOL     OW32964   4.378   3.903   3.110  0.0062  0.4947  0.7087
10715SOL    HW132965   4.336   3.975   3.056 -0.0647 -0.1631 -0.1257
10715SOL    HW232966   4.437   3.847   3.052 -0.0051 -0.1781  1.3272
10716SOL     OW32967   6.270   0.969   6.834 -0.0473 -0.4705 -0.2030
10716SOL    HW132968   6.289   0.998   6.740 -0.6175  1.6192  0.2562
10716SOL    HW232969   6.347   0.995   6.893 -0.9996  1.1240  0.3946
10717SOL     OW32970   5.943   6.293   0.363  0.2095  0.2943 -0.6799
10717SOL    HW132971   6.036   6.289   0.328  0.5026  0.9894 -0.0192
10717SOL    HW232972   5.878   6.271   0.290  0.8732  0.1030 -1.2187
10718SOL     OW32973   1.064   1.283   2.444  0.5628 -0.1575  0.0219
10718SOL    HW132974   1.087   1.378   2.421 -1.4368  0.2899 -0.3508
10718SOL    HW232975   1.090   1.223   2.369  0.5687  0.3104 -0.3513
10719SOL     OW32976   6.459   0.267   3.917 -0.0006  0.0539  0.3023
10719SOL    HW132977   6.549   0.224   3.924  0.4921  0.9073 -0.5389
10719SOL    HW232978   6.396   0.222   3.981  1.3060  0.1837  1.7391
10720SOL     OW32979   2.926   0.843   1.535  0.2335  0.1138 -0.3699
10720SOL    HW132980   3.001   0.902   1.565  0.6260 -1.1730  1.2467
10720SOL    HW232981   2.905   0.864   1.439  2.6653  0.4935 -0.8914
10721SOL     OW32982   1.961   2.322   0.904  0.2314 -0.1549 -0.2422
10721SOL    HW132983   1.984   2.405   0.854  1.5877 -0.4745 -0.1933
10721SOL    HW232984   1.877   2.282   0.868  0.9040 -0.0991 -1.9180
10722SOL     OW32985   6.887   2.110   2.868  0.3966  0.3627 -0.3798
10722SOL    HW132986   6.841   2.033   2.913 -2.7332  1.1364 -1.9587
10722SOL    HW232987   6.907   2.181   2.936 -0.7044 -0.0698  0.4238
10723SOL     OW32988   0.851   6.198   0.809  0.0522  0.4712 -0.0826
10723SOL    HW132989   0.925   6.260   0.836  0.2856 -0.5770  1.8608
10723SOL    HW232990   0.762   6.243   0.824  0.2290  1.0648 -0.7082
10724SOL     OW32991   0.999   0.178   1.075  0.4011  0.6135  0.4005
10724SOL    HW132992   1.073   0.119   1.107  0.7602  0.5497 -0.5368
10724SOL    HW232993   1.005   0.267   1.121 -0.8351 -0.4021  2.7366
10725SOL     OW32994   2.865   2.543   1.218 -0.0197 -0.1321 -0.4242
10725SOL    HW132995   2.776   2.581   1.194 -1.1865 -3.6529 -2.5524
10725SOL    HW232996   2.934   2.577   1.153 -1.1226 -1.7448 -2.5827
10726SOL     OW32997   6.827   6.398   3.116 -0.2490 -0.0800 -0.5093
10726SOL    HW132998   6.737   6.433   3.091 -0.6955 -1.1099 -0.3948
10726SOL    HW232999   6.876   6.371   3.033  0.2000  1.0372 -0.6178
10727SOL     OW33000   6.659   5.817   6.646  0.7351  0.2676  0.0659
10727SOL    HW133001   6.716   5.747   6.604 -0.5210 -0.9792  0.3721
10727SOL    HW233002   6.708   5.904   6.645  2.2986 -0.5708 -0.4059
10728SOL     OW33003   1.590   6.308   0.782 -0.1137  0.0225 -0.5554
10728SOL    HW133004   1.553   6.275   0.869  1.3570 -0.2377  0.0067
10728SOL    HW233005   1.600   6.408   0.786  1.9931 -0.1623  0.4755
10729SOL     OW33006   4.386   1.957   3.547  0.3457  0.0076 -0.0513
10729SOL    HW133007   4.362   2.053   3.531  1.5916  0.3938  0.2748
10729SOL    HW233008   4.353   1.928   3.636 -0.6101 -0.0739 -0.4234
10730SOL     OW33009   3.065   1.529   0.609 -0.4088  0.7612  0.1947
10730SOL    HW133010   3.086   1.608   0.667  4.0302 -0.0237  0.0087
10730SOL    HW233011   3.050   1.448   0.666 -0.1710  0.8169  0.3429
10731SOL     OW33012   6.955   5.691   4.161  0.0486 -0.2328  0.2423
10731SOL    HW133013   6.876   5.725   4.212  0.5487  0.6835  0.4350
10731SOL    HW233014   6.925   5.626   4.091 -0.6777 -1.3504  1.5397
10732SOL     OW33015   5.247   3.700   2.958 -0.2980 -0.5027  0.0649
10732SOL    HW133016   5.185   3.716   3.035 -0.4942  1.1289 -0.4009
10732SOL    HW233017   5.193   3.686   2.874 -0.1999  3.5665 -0.8831
10733SOL     OW33018   4.813   6.264   0.921 -0.3532  0.4978 -0.2147
10733SOL    HW133019   4.752   6.198   0.878 -0.1608  1.2755 -1.7168
10733SOL    HW233020   4.902   6.221   0.937 -0.4993  0.1327 -0.3685
10734SOL     OW33021   2.187   5.586   1.538 -0.0191  0.0058  0.2442
10734SOL    HW133022   2.120   5.603   1.466 -0.0832 -0.9987  0.0492
10734SOL    HW233023   2.170   5.648   1.615  0.1046  1.1459 -0.6205
10735SOL     OW33024   2.907   3.852   1.776 -0.4920  0.4323 -0.6982
10735SOL    HW133025   2.861   3.809   1.854 -0.7449  1.3254 -0.3498
10735SOL    HW233026   3.000   3.878   1.802 -0.4467  0.3873 -0.8147
10736SOL     OW33027   6.818   1.459   6.773 -0.1668 -0.1206 -0.4782
10736SOL    HW133028   6.892   1.464   6.840  0.4440 -1.1396 -1.0695
10736SOL    HW233029   6.841   1.393   6.702 -1.3908 -0.0183 -0.9905
10737SOL     OW33030   0.335   6.826   3.885 -0.4868  0.0734  0.7095
10737SOL    HW133031   0.340   6.737   3.931  0.2687 -0.3885 -0.2299
10737SOL    HW233032   0.328   6.899   3.953 -1.6260 -0.7282  1.4899
10738SOL     OW33033   4.979   6.873   2.565  0.0139 -0.5611 -0.0713
10738SOL    HW133034   5.049   6.811   2.601  1.4219  0.1983 -1.3507
10738SOL    HW233035   5.024   6.950   2.520 -1.6727 -0.0001 -0.8557
10739SOL     OW33036   2.634   4.050   0.181  0.2647  0.4229 -0.6068
10739SOL    HW133037   2.727   4.051   0.142  0.5153  0.0278 -0.0643
10739SOL    HW233038   2.567   4.053   0.107  0.7177 -1.6519 -1.2022
10740SOL     OW33039   0.544   0.245   5.984  0.0859 -0.6684 -0.5014
10740SOL    HW133040   0.564   0.147   5.985  1.3064 -0.4629 -1.6850
10740SOL    HW233041   0.526   0.276   6.077 -0.8639 -2.1084 -0.1665
10741SOL     OW33042   0.908   6.674   0.761  0.0458 -0.1357  0.1941
10741SOL    HW133043   0.960   6.719   0.688 -0.3202 -2.1178 -1.3784
10741SOL    HW233044   0.817   6.715   0.767  0.7223  1.3374  0.9151
10742SOL     OW33045   4.379   1.443   4.816  0.0169  0.0490  0.0725
10742SOL    HW133046   4.332   1.518   4.862 -0.8933 -0.5763  0.1819
10742SOL    HW233047   4.315   1.394   4.757  0.8626  0.0279 -0.8591
10743SOL     OW33048   0.603   3.780   6.169  0.0907 -0.4841 -0.0906
10743SOL    HW133049   0.546   3.787   6.250 -0.6430  0.1599 -0.6534
10743SOL    HW233050   0.555   3.728   6.098  0.6466 -0.8782 -0.1879
10744SOL     OW33051   1.655   4.523   0.630 -0.0263 -0.0824 -0.0069
10744SOL    HW133052   1.660   4.423   0.631  1.9537 -0.0895  3.0687
10744SOL    HW233053   1.727   4.561   0.689 -0.6977  3.1934 -1.0794
10745SOL     OW33054   3.789   6.820   4.103  0.5622  0.1984  0.2983
10745SOL    HW133055   3.761   6.916   4.094  1.0520  0.4938  1.6604
10745SOL    HW233056   3.730   6.763   4.046  0.9369  1.4011 -1.3883
10746SOL     OW33057   0.710   2.643   2.743  0.1246 -0.3952  0.2671
10746SOL    HW133058   0.806   2.669   2.738  0.2134 -0.4194  1.4831
10746SOL    HW233059   0.694   2.564   2.684  0.7737 -0.2417 -0.1443
10747SOL     OW33060   0.640   2.955   4.022 -0.0548  0.2451  0.2975
10747SOL    HW133061   0.586   3.028   4.064  0.4494  1.5920 -1.3336
10747SOL    HW233062   0.656   2.975   3.926  0.9400 -1.5481  0.0366
10748SOL     OW33063   2.039   5.553   1.273  0.0613 -0.7954  0.2793
10748SOL    HW133064   2.122   5.499   1.256  0.2354 -1.3202  2.3852
10748SOL    HW233065   1.959   5.504   1.238  0.4791 -1.1711 -0.1556
10749SOL     OW33066   1.975   6.759   2.853 -0.4196  0.1241  0.3850
10749SOL    HW133067   1.954   6.857   2.852  0.8296  0.4179  1.1997
10749SOL    HW233068   1.923   6.715   2.926 -0.6374  0.2688  0.3183
10750SOL     OW33069   2.747   2.597   0.703 -0.0429 -0.5217  0.0964
10750SOL    HW133070   2.678   2.552   0.645 -0.4499 -0.6912  0.6931
10750SOL    HW233071   2.743   2.696   0.687 -2.5687 -0.1527  2.2696
10751SOL     OW33072   2.749   4.412   6.198 -0.3650  0.3401  0.1848
10751SOL    HW133073   2.822   4.480   6.204 -0.5172  0.4902  0.3641
10751SOL    HW233074   2.673   4.449   6.144 -1.1242  0.9393  1.6132
10752SOL     OW33075   0.296   5.107   6.218  0.0460  0.1879 -0.1384
10752SOL    HW133076   0.240   5.157   6.152  2.6160  3.4936 -0.0930
10752SOL    HW233077   0.263   5.124   6.311 -0.7459 -0.5325 -0.2812
10753SOL     OW33078   0.496   3.252   0.483  0.0207  0.1230  0.3727
10753SOL    HW133079   0.532   3.161   0.468  0.2948  0.3966 -0.7042
10753SOL    HW233080   0.556   3.302   0.546 -1.1425 -1.0402  2.5244
10754SOL     OW33081   0.041   4.438   4.984  0.1804  0.1288  0.3853
10754SOL    HW133082   0.125   4.391   4.959  0.5046 -0.1639  1.8857
10754SOL    HW233083  -0.029   4.422   4.914  0.4738 -2.1736  0.5615
10755SOL     OW33084   5.966   1.394   1.417  0.3478 -0.0697 -0.8764
10755SOL    HW133085   5.979   1.321   1.350  1.9336 -1.1836  0.5485
10755SOL    HW233086   5.876   1.434   1.405 -0.6421 -2.3564 -1.6570
10756SOL     OW33087   3.899   1.593   0.805 -0.2210 -0.5753  0.0516
10756SOL    HW133088   3.947   1.519   0.852  0.6702 -0.5423 -0.7520
10756SOL    HW233089   3.833   1.554   0.741  1.0680 -0.7768 -1.2408
10757SOL     OW33090   4.342   2.010   6.028 -0.0777  0.4293 -0.2321
10757SOL    HW133091   4.362   2.072   5.952  0.1879  0.6332  0.0023
10757SOL    HW233092   4.243   2.002   6.040 -0.1153  1.9689  0.6814
10758SOL     OW33093   3.710   4.793   2.579 -0.0413 -0.5387  0.3599
10758SOL    HW133094   3.761   4.753   2.655 -0.8102  1.4889  2.0536
10758SOL    HW233095   3.758   4.875   2.547  0.7047 -1.8118 -1.9706
10759SOL     OW33096   1.970   0.145   3.078 -0.4052 -0.3432  0.3492
10759SOL    HW133097   2.051   0.186   3.119  0.5025 -0.0495 -1.6182
10759SOL    HW233098   1.969   0.047   3.096 -0.6478 -0.0634  1.9804
10760SOL     OW33099   3.383   5.609   3.003  0.4397  0.2684  0.3298
10760SOL    HW133100   3.384   5.565   2.914 -1.1573  2.3463 -0.7898
10760SOL    HW233101   3.458   5.675   3.009  0.1507  0.6031  0.2691
10761SOL     OW33102   2.634   6.298   5.301  0.2669  0.4225 -0.5042
10761SOL    HW133103   2.582   6.284   5.217 -0.7287 -1.5832  0.3863
10761SOL    HW233104   2.658   6.210   5.341  0.7427  1.3170  1.3168
10762SOL     OW33105   5.360   1.997   1.222  0.1237  0.5098  0.4503
10762SOL    HW133106   5.429   1.956   1.283 -0.1437 -0.6739 -0.0270
10762SOL    HW233107   5.271   1.955   1.240  0.2948 -0.9156 -1.7187
10763SOL     OW33108   4.111   1.476   5.787 -0.1392 -0.6921  0.9696
10763SOL    HW133109   4.181   1.407   5.802  0.1014 -0.5129  0.6865
10763SOL    HW233110   4.096   1.488   5.688  0.2922  0.1253  0.9955
10764SOL     OW33111   4.261   5.087   5.065  0.1241  0.3559 -0.1727
10764SOL    HW133112   4.229   5.012   5.008  0.2596 -0.6717  1.0658
10764SOL    HW233113   4.359   5.101   5.051  0.0315  0.5386 -0.6565
10765SOL     OW33114   1.526   0.536   0.662 -0.3342 -0.7213 -0.4603
10765SOL    HW133115   1.480   0.497   0.742 -0.1429 -0.2387 -0.1156
10765SOL    HW233116   1.624   0.520   0.669 -0.1230  0.7328  0.1998
10766SOL     OW33117   5.994   5.402   1.348 -0.0513 -0.0249  0.0666
10766SOL    HW133118   5.965   5.332   1.413 -0.0424 -1.0131 -0.9804
10766SOL    HW233119   6.090   5.387   1.323 -0.2877 -0.1644 -0.8084
10767SOL     OW33120   0.697   0.064   3.826  0.2471  0.4481 -0.1877
10767SOL    HW133121   0.618   0.048   3.886  0.5133 -3.5237 -0.5790
10767SOL    HW233122   0.667   0.109   3.742 -1.5205 -0.3248 -0.0267
10768SOL     OW33123   2.382   0.462   6.002 -0.3379  0.3006 -0.1123
10768SOL    HW133124   2.400   0.424   6.093 -1.1391  0.2031  0.0118
10768SOL    HW233125   2.354   0.389   5.940 -0.3096  0.4503 -0.3061
10769SOL     OW33126   6.115   0.524   3.773 -0.4533 -0.2256  0.6891
10769SOL    HW133127   6.180   0.599   3.785 -1.9564  1.0336  1.1986
10769SOL    HW233128   6.094   0.513   3.676 -0.9253  0.6454  0.6814
10770SOL     OW33129   6.263   2.261   5.806 -0.6957 -0.2069  0.4614
10770SOL    HW133130   6.318   2.223   5.880 -0.5653 -1.6216 -0.3146
10770SOL    HW233131   6.171   2.282   5.840 -0.1118  0.8743  1.4314
10771SOL     OW33132   5.823   1.494   3.218  0.7314 -0.2089 -0.6346
10771SOL    HW133133   5.881   1.528   3.292  0.6190 -1.5423  0.1016
10771SOL    HW233134   5.728   1.521   3.235  0.3860 -2.0471  0.7563
10772SOL     OW33135   3.131   0.348   5.079 -0.2826 -0.4956 -0.0218
10772SOL    HW133136   3.167   0.342   5.172 -2.1350  0.5960  0.8143
10772SOL    HW233137   3.031   0.342   5.081 -0.2851 -2.3135 -2.1533
10773SOL     OW33138   2.226   4.620   0.726  0.3490  0.1490  0.3574
10773SOL    HW133139   2.311   4.657   0.764  1.7499 -0.2329 -2.1432
10773SOL    HW233140   2.189   4.550   0.786  0.5616  1.8406  2.5727
10774SOL     OW33141   0.125   3.529   6.853 -0.4940 -0.1327 -0.2564
10774SOL    HW133142   0.034   3.567   6.838 -0.6443 -0.3466  0.1107
10774SOL    HW233143   0.188   3.603   6.876  0.3318  0.6678 -4.2432
10775SOL     OW33144   1.453   0.137   4.742  0.6404 -0.0075  0.5381
10775SOL    HW133145   1.358   0.139   4.710  0.9089 -0.6777 -0.3622
10775SOL    HW233146   1.508   0.197   4.684  0.8466  0.0823  0.8207
10776SOL     OW33147   6.986   0.482   4.112 -0.4174 -0.1500  0.1262
10776SOL    HW133148   6.937   0.473   4.199 -0.0776 -0.3710  0.2961
10776SOL    HW233149   7.025   0.573   4.105 -0.9244  0.0478 -0.0345
10777SOL     OW33150   5.076   3.393   6.089 -0.4816  0.1956  0.4197
10777SOL    HW133151   5.103   3.430   6.178  0.6177  1.7018 -0.4911
10777SOL    HW233152   4.977   3.386   6.085 -0.9520  4.5623  0.1854
10778SOL     OW33153   2.516   5.159   4.238  0.0265  0.2510 -0.9700
10778SOL    HW133154   2.511   5.091   4.165 -1.3205 -0.4734 -0.2444
10778SOL    HW233155   2.570   5.123   4.314 -0.5651  0.0299 -0.6460
10779SOL     OW33156   3.463   6.572   2.724  0.0649 -0.0753 -0.0880
10779SOL    HW133157   3.490   6.567   2.628 -0.8251  1.8518 -0.4999
10779SOL    HW233158   3.477   6.665   2.757  1.7063 -1.0352  2.1132
10780SOL     OW33159   1.141   0.906   1.610  0.6822 -0.0889  0.0249
10780SOL    HW133160   1.048   0.917   1.576  0.8891  1.4788 -0.0785
10780SOL    HW233161   1.177   0.817   1.580  0.0502  0.2698 -1.9456
10781SOL     OW33162   3.694   4.226   0.965  0.1979 -0.1867 -0.2485
10781SOL    HW133163   3.730   4.245   1.056  1.2438  3.3093 -1.2389
10781SOL    HW233164   3.594   4.218   0.969  0.1701  0.6275  1.0907
10782SOL     OW33165   2.074   0.455   3.536  0.3415  0.2453  0.1306
10782SOL    HW133166   2.041   0.366   3.567 -1.5097  0.6017 -0.6787
10782SOL    HW233167   2.164   0.445   3.495  0.4850 -1.1223  0.7050
10783SOL     OW33168   6.057   5.012   6.793 -0.3325  0.0522  0.2593
10783SOL    HW133169   6.028   4.925   6.754  1.2928  0.0002 -0.9738
10783SOL    HW233170   6.014   5.025   6.883 -0.3694 -2.1690  0.6232
10784SOL     OW33171   6.888   3.714   6.773  0.5002  0.1652 -0.4098
10784SOL    HW133172   6.909   3.812   6.770 -1.8327  0.7310 -0.9303
10784SOL    HW233173   6.824   3.696   6.848  2.3058 -1.3545  0.8859
10785SOL     OW33174   4.427   3.182   5.973 -0.3577 -0.0757 -0.2357
10785SOL    HW133175   4.465   3.274   5.963 -0.7007  0.2860  1.4002
10785SOL    HW233176   4.377   3.176   6.060  0.5027 -2.1008  0.1838
10786SOL     OW33177   4.185   4.455   1.690  0.3120  0.2521 -0.0405
10786SOL    HW133178   4.260   4.448   1.755  0.8023  0.9056 -0.5267
10786SOL    HW233179   4.125   4.375   1.700  1.6039 -0.7628 -0.3230
10787SOL     OW33180   0.402   2.498   3.162 -0.8782  0.0269 -0.2853
10787SOL    HW133181   0.317   2.548   3.145 -0.4488  1.0722  0.5741
10787SOL    HW233182   0.407   2.474   3.259 -0.7930 -1.1691 -0.5755
10788SOL     OW33183   3.870   5.294   3.379  0.2932  0.0451  0.2287
10788SOL    HW133184   3.841   5.287   3.284 -0.9902  0.4372  0.5739
10788SOL    HW233185   3.797   5.335   3.434  1.5185  1.1102  1.1390
10789SOL     OW33186   4.855   1.878   6.593 -0.0130  0.3327  0.3807
10789SOL    HW133187   4.776   1.936   6.613 -0.9604 -0.3374 -1.2099
10789SOL    HW233188   4.888   1.898   6.501  0.6422 -0.5367  0.4192
10790SOL     OW33189   6.214   4.705   1.805 -0.2515 -0.2675 -0.5728
10790SOL    HW133190   6.177   4.716   1.897  2.4704 -1.8564  0.8305
10790SOL    HW233191   6.252   4.613   1.796  1.0618  0.4298 -2.7375
10791SOL     OW33192   1.802   5.563   4.948 -0.2108  0.2161  0.0695
10791SOL    HW133193   1.874   5.595   4.885 -0.7206 -0.4558 -0.8771
10791SOL    HW233194   1.719   5.545   4.896 -0.7847  0.0778  1.0190
10792SOL     OW33195   3.098   1.809   4.323  0.3518 -0.5844  0.2974
10792SOL    HW133196   3.022   1.771   4.272  0.9575 -0.6663 -0.5572
10792SOL    HW233197   3.064   1.881   4.384 -1.0152 -3.1719  2.8180
10793SOL     OW33198   2.701   3.332   4.311  0.2319  0.8900  0.1418
10793SOL    HW133199   2.603   3.355   4.307 -0.3335 -1.4282 -1.2479
10793SOL    HW233200   2.751   3.389   4.246 -0.7485 -0.0724 -1.5471
10794SOL     OW33201   6.446   2.890   5.984 -0.1800 -0.3535  0.2313
10794SOL    HW133202   6.522   2.952   5.962  0.6422 -1.5613 -0.4704
10794SOL    HW233203   6.359   2.936   5.964  0.3818  0.6995  0.0896
10795SOL     OW33204   4.985   3.914   0.100  0.7469  0.1577  0.1001
10795SOL    HW133205   4.948   4.005   0.118  1.8984  0.7695 -0.5515
10795SOL    HW233206   5.037   3.882   0.179  1.9661  0.9034 -0.3823
10796SOL     OW33207   1.787   3.576   0.281  0.0518 -0.4415  0.0272
10796SOL    HW133208   1.810   3.668   0.249 -0.0759 -0.2926  0.3545
10796SOL    HW233209   1.811   3.509   0.211 -0.8868 -0.0561 -0.7029
10797SOL     OW33210   6.193   5.819   5.363 -0.1539  0.1631  0.0361
10797SOL    HW133211   6.275   5.831   5.306  0.6722  1.2628  1.3720
10797SOL    HW233212   6.171   5.906   5.408 -0.3998 -0.7751  1.8482
10798SOL     OW33213   0.932   0.133   5.905  0.3018 -0.0787  0.0839
10798SOL    HW133214   0.932   0.233   5.908  0.1255 -0.0908  0.5615
10798SOL    HW233215   0.838   0.101   5.889  0.1405 -0.1981  1.1987
10799SOL     OW33216   2.478   6.533   2.204 -0.1312 -0.3332 -0.3756
10799SOL    HW133217   2.486   6.626   2.168  2.7757  0.0387  0.9464
10799SOL    HW233218   2.440   6.537   2.296  0.3143 -0.3974 -0.1860
10800SOL     OW33219   0.156   6.387   1.254 -0.0529  0.4596 -0.7956
10800SOL    HW133220   0.218   6.361   1.180 -0.9878 -0.5773 -1.2428
10800SOL    HW233221   0.076   6.434   1.217  0.3182  1.5813 -0.2466
10801SOL     OW33222   1.655   3.695   0.515  0.4706  0.3250  0.1276
10801SOL    HW133223   1.602   3.621   0.557 -0.6645  1.0058 -0.0654
10801SOL    HW233224   1.700   3.661   0.432  1.1954 -0.5327  0.8469
10802SOL     OW33225   1.797   0.801   3.884  0.4026 -0.3500  0.3184
10802SOL    HW133226   1.771   0.833   3.794  0.3875 -0.1721  0.3834
10802SOL    HW233227   1.896   0.812   3.896  0.2114  0.9363  0.8419
10803SOL     OW33228   4.842   2.377   3.665 -0.0751 -0.2000 -0.4337
10803SOL    HW133229   4.927   2.325   3.664 -0.2174 -0.5578  1.6595
10803SOL    HW233230   4.857   2.467   3.622  1.8345  0.4174  1.3774
10804SOL     OW33231   6.664   1.595   0.119  0.7502 -0.4733  0.2697
10804SOL    HW133232   6.710   1.668   0.068  1.9838 -0.2404  1.6440
10804SOL    HW233233   6.655   1.514   0.061  0.8019  0.2416 -0.7662
10805SOL     OW33234   2.026   4.089   1.688  0.5028 -0.2928 -0.0033
10805SOL    HW133235   1.942   4.141   1.703  0.1144 -0.7281 -0.6480
10805SOL    HW233236   2.104   4.151   1.693  0.1869  0.0557  0.9561
10806SOL     OW33237   4.065   4.224   1.315  0.6874 -0.3185 -0.5695
10806SOL    HW133238   3.998   4.151   1.301  0.0945  0.3522 -1.3335
10806SOL    HW233239   4.138   4.215   1.247  1.2981 -0.9410  0.1458
10807SOL     OW33240   5.901   4.114   4.798  0.2368 -0.4239 -0.2936
10807SOL    HW133241   5.944   4.035   4.754  3.2386 -0.0450  1.6369
10807SOL    HW233242   5.861   4.085   4.886  0.9349  0.0837  0.2012
10808SOL     OW33243   0.230   0.990   2.588 -0.0319  0.7917 -0.7060
10808SOL    HW133244   0.195   0.939   2.510 -1.7624  0.0496  0.5003
10808SOL    HW233245   0.154   1.019   2.646  1.2695  0.1034  1.4514
10809SOL     OW33246   4.166   4.519   0.873 -0.1348  0.9266  0.6336
10809SOL    HW133247   4.260   4.515   0.842  0.7775 -0.1003  3.2745
10809SOL    HW233248   4.160   4.487   0.968 -3.3388 -0.2751  0.1615
10810SOL     OW33249   1.552   2.035   2.493 -0.0295 -0.0567 -0.1493
10810SOL    HW133250   1.550   2.135   2.489  1.2594  0.0978  1.5000
10810SOL    HW233251   1.527   2.005   2.585  0.7102 -1.1813 -0.2883
10811SOL     OW33252   3.931   6.871   5.215  0.1314 -0.2677  0.1571
10811SOL    HW133253   3.880   6.787   5.233 -0.6667  0.4670  1.4954
10811SOL    HW233254   4.004   6.852   5.150 -0.8401 -1.7011 -0.5838
10812SOL     OW33255   1.470   5.396   1.262  0.1571  0.1851 -0.1874
10812SOL    HW133256   1.386   5.360   1.303  1.1658 -1.9828  0.0763
10812SOL    HW233257   1.486   5.353   1.173  2.3662 -1.6240  0.9608
10813SOL     OW33258   3.639   4.190   0.218  0.3423 -0.0935  0.4604
10813SOL    HW133259   3.704   4.194   0.142  1.0617  1.3031  1.1045
10813SOL    HW233260   3.656   4.107   0.271  0.7844 -0.3668 -0.0840
10814SOL     OW33261   5.121   1.353   2.738 -0.7625  0.5148 -0.1456
10814SOL    HW133262   5.217   1.357   2.767 -0.9372 -0.3748  0.6360
10814SOL    HW233263   5.072   1.432   2.774 -0.7836 -0.1361  1.3633
10815SOL     OW33264   6.701   4.992   2.289  0.3560  0.3686  0.1967
10815SOL    HW133265   6.770   4.928   2.253 -0.2970 -0.2110 -0.0437
10815SOL    HW233266   6.627   5.001   2.223 -0.8609 -0.7022  1.3490
10816SOL     OW33267   6.079   5.024   1.647 -0.0207 -0.2859  0.5940
10816SOL    HW133268   6.142   4.947   1.650 -1.1660 -1.2363  2.9891
10816SOL    HW233269   6.113   5.098   1.704  0.2647  0.3556 -0.3765
10817SOL     OW33270   4.893   3.360   2.015  0.3195  0.6679  0.5099
10817SOL    HW133271   4.979   3.393   1.975  0.5226 -0.3643  0.0515
10817SOL    HW233272   4.841   3.437   2.051  0.9933  1.4181 -0.0808
10818SOL     OW33273   1.202   5.675   6.279 -0.2677  0.1343  0.2271
10818SOL    HW133274   1.288   5.679   6.228  0.4728  1.8665  1.4946
10818SOL    HW233275   1.152   5.592   6.254  3.2744 -2.7468  1.8013
10819SOL     OW33276   5.391   5.940   0.534 -0.7446 -0.7745 -0.4257
10819SOL    HW133277   5.453   5.924   0.457 -0.1397 -1.5265  0.1944
10819SOL    HW233278   5.428   5.896   0.616 -2.0666 -1.1943 -0.0186
10820SOL     OW33279   0.452   2.218   4.215 -0.8900 -0.3568  0.4636
10820SOL    HW133280   0.409   2.293   4.166 -1.1211  0.7031  2.1949
10820SOL    HW233281   0.538   2.250   4.257 -0.7305 -1.1904  0.8093
10821SOL     OW33282   5.376   2.554   3.397 -0.6415  0.6125 -0.1595
10821SOL    HW133283   5.279   2.552   3.371 -0.9178 -0.0851  0.8503
10821SOL    HW233284   5.388   2.617   3.474 -0.0355  1.7892 -1.1849
10822SOL     OW33285   5.040   2.286   3.475  0.1278  0.5976  0.4632
10822SOL    HW133286   4.982   2.232   3.415  0.4628 -0.5562  1.1278
10822SOL    HW233287   5.053   2.378   3.436  2.0150 -0.6943 -2.2778
10823SOL     OW33288   4.111   5.489   5.857  0.2130 -0.1242  0.2364
10823SOL    HW133289   4.028   5.436   5.845  0.3255  0.1247 -2.0017
10823SOL    HW233290   4.134   5.494   5.954 -1.1762 -2.0110  0.7112
10824SOL     OW33291   1.050   6.242   4.381  0.2579 -0.6183  0.0430
10824SOL    HW133292   1.003   6.258   4.294 -2.0800 -2.1542  0.9339
10824SOL    HW233293   1.100   6.155   4.375  0.3290 -0.5840  0.1311
10825SOL     OW33294   5.627   5.156   6.299  0.4523 -0.1730 -0.5738
10825SOL    HW133295   5.705   5.132   6.242 -0.4872 -0.1777 -1.8812
10825SOL    HW233296   5.548   5.175   6.242 -0.4568  0.0593  0.7197
10826SOL     OW33297   6.943   2.398   3.031 -0.6197  0.0161  0.1742
10826SOL    HW133298   6.868   2.457   3.002 -2.0266  0.4294  4.1020
10826SOL    HW233299   6.941   2.387   3.130  2.6938 -2.5488  0.1435
10827SOL     OW33300   3.911   3.212   1.055 -0.4118 -0.2445 -0.2025
10827SOL    HW133301   3.860   3.193   0.971 -1.2534  0.5901  0.0959
10827SOL    HW233302   3.888   3.304   1.088  1.7341  0.4022 -0.3586
10828SOL     OW33303   1.586   6.487   0.438  0.4238  0.1794  0.0667
10828SOL    HW133304   1.646   6.466   0.360 -0.3112 -0.1948 -0.4163
10828SOL    HW233305   1.642   6.514   0.517  1.2493 -0.5687 -0.2334
10829SOL     OW33306   2.203   5.906   0.303  0.1695  0.1053 -0.3389
10829SOL    HW133307   2.222   5.835   0.370  0.3312  1.9214  1.6469
10829SOL    HW233308   2.105   5.923   0.298  0.2599  1.1997  0.8689
10830SOL     OW33309   5.793   2.695   2.048  0.0626  0.3996  0.0703
10830SOL    HW133310   5.698   2.716   2.068  0.5924  0.8364  2.4440
10830SOL    HW233311   5.852   2.768   2.085  1.4313 -0.9540  0.6684
10831SOL     OW33312   6.887   5.619   1.998  0.6619  0.9695 -0.4208
10831SOL    HW133313   6.977   5.594   2.035  0.5609  0.8246 -0.2670
10831SOL    HW233314   6.817   5.560   2.039  0.3036  2.0714  0.6155
10832SOL     OW33315   3.531   6.363   0.392  0.0788  0.0865  0.0641
10832SOL    HW133316   3.479   6.415   0.460  0.1086  0.2030  0.0005
10832SOL    HW233317   3.622   6.402   0.382  0.1963 -0.1466  0.2157
10833SOL     OW33318   3.653   1.632   0.967 -0.5958 -0.4185 -0.2613
10833SOL    HW133319   3.731   1.635   0.904 -1.0223  0.1364 -0.7831
10833SOL    HW233320   3.662   1.554   1.029 -0.0135 -0.7937 -0.8121
10834SOL     OW33321   6.993   1.792   0.401  0.3631 -0.1711  0.3157
10834SOL    HW133322   7.081   1.746   0.388  0.0923 -0.9235  1.2299
10834SOL    HW233323   6.944   1.793   0.314  1.6676  1.1456 -0.4521
10835SOL     OW33324   3.495   6.865   1.849  0.1711 -0.4447  0.0240
10835SOL    HW133325   3.579   6.834   1.895 -0.3120  0.4534  1.5985
10835SOL    HW233326   3.477   6.807   1.770  1.5080 -1.5551  0.4861
10836SOL     OW33327   0.092   5.583   0.169  0.2490 -0.2590  0.2464
10836SOL    HW133328   0.113   5.678   0.144  1.3578 -0.6117 -0.2034
10836SOL    HW233329   0.112   5.569   0.266  1.9659 -0.5241 -0.1112
10837SOL     OW33330   6.634   0.851   6.346 -0.3812 -0.2491  0.1930
10837SOL    HW133331   6.644   0.753   6.362 -1.4053 -0.4501 -0.3217
10837SOL    HW233332   6.718   0.887   6.306 -0.3274 -1.0993 -0.4842
10838SOL     OW33333   5.521   5.248   1.299 -0.0839  0.8074  0.1478
10838SOL    HW133334   5.597   5.206   1.249 -1.4620 -1.2834 -0.3121
10838SOL    HW233335   5.496   5.335   1.255  0.3051  0.1983 -1.3436
10839SOL     OW33336   3.895   1.692   0.132 -0.3207  0.0792  0.2667
10839SOL    HW133337   3.904   1.790   0.149  1.0652 -0.0539  0.3823
10839SOL    HW233338   3.870   1.676   0.037  0.6404  0.5172 -0.0733
10840SOL     OW33339   0.863   6.764   5.810  0.1454 -0.2132  0.0117
10840SOL    HW133340   0.801   6.840   5.827  0.7716  0.4457 -0.5971
10840SOL    HW233341   0.810   6.681   5.792 -0.5902  0.4621 -1.0968
10841SOL     OW33342   1.129   1.388   2.831  0.3217  0.1484  0.0380
10841SOL    HW133343   1.125   1.327   2.911  0.1278 -1.4042 -1.1160
10841SOL    HW233344   1.064   1.463   2.843 -0.3317 -0.5427  0.9569
10842SOL     OW33345   0.997   4.214   3.015 -0.3973  0.0006 -0.0113
10842SOL    HW133346   0.903   4.210   2.980 -0.8843 -0.3537  1.2737
10842SOL    HW233347   0.996   4.198   3.114  1.0428 -0.1923 -0.0121
10843SOL     OW33348   3.135   5.936   6.016  0.2923  0.6152 -0.0173
10843SOL    HW133349   3.070   5.945   5.940  2.1557 -0.4849 -1.8503
10843SOL    HW233350   3.217   5.990   5.997  0.6434  0.6582  1.4550
10844SOL     OW33351   6.975   1.413   3.369  0.0849  0.1670  0.0112
10844SOL    HW133352   6.904   1.347   3.345 -0.4066  1.0820 -1.0946
10844SOL    HW233353   6.969   1.435   3.467  0.2633 -1.3970  0.4178
10845SOL     OW33354   4.326   1.953   0.122  1.1928  0.3129 -0.2670
10845SOL    HW133355   4.383   2.033   0.105  0.3002  0.8975 -0.5382
10845SOL    HW233356   4.234   1.969   0.087  0.4848 -0.1090  1.3117
10846SOL     OW33357   0.328   5.581   3.937  0.1072 -0.0457 -0.1540
10846SOL    HW133358   0.299   5.614   4.027  1.7355 -0.3587  0.5291
10846SOL    HW233359   0.423   5.550   3.942  0.0420 -0.6377 -1.8533
10847SOL     OW33360   1.597   6.881   0.243 -0.1808 -0.0828  0.7053
10847SOL    HW133361   1.649   6.903   0.160 -0.4436 -0.5519  0.4138
10847SOL    HW233362   1.659   6.852   0.315 -0.0738 -1.2537  0.1635
10848SOL     OW33363   3.734   6.188   4.982 -0.0153 -0.7307 -0.2023
10848SOL    HW133364   3.799   6.112   4.982  0.6213 -0.2123 -1.0777
10848SOL    HW233365   3.663   6.172   4.913  0.8375  0.0232 -1.3007
10849SOL     OW33366   6.020   6.855   1.927 -0.2128 -0.3747  0.0358
10849SOL    HW133367   5.979   6.766   1.946  0.1302 -0.1449  2.0784
10849SOL    HW233368   6.037   6.903   2.013 -1.6528  2.2570 -0.9890
10850SOL     OW33369   0.759   6.038   6.547  0.2160 -0.6702 -0.4043
10850SOL    HW133370   0.748   6.131   6.579 -0.0867 -0.7340 -0.3109
10850SOL    HW233371   0.679   5.984   6.573 -0.3970 -0.5417 -1.9415
10851SOL     OW33372   1.165   0.485   5.174  0.1260 -0.3416 -0.5867
10851SOL    HW133373   1.202   0.561   5.122  0.0427 -0.0423 -0.2162
10851SOL    HW233374   1.110   0.426   5.114  1.3112 -0.8668 -1.1715
10852SOL     OW33375   4.513   4.899   4.218 -0.7373 -0.6152  0.5795
10852SOL    HW133376   4.608   4.921   4.194  0.2805 -2.2773  2.7066
10852SOL    HW233377   4.461   4.884   4.134  0.3441  2.0930 -0.7093
10853SOL     OW33378   0.408   5.212   4.129  0.2556 -0.0291 -0.1000
10853SOL    HW133379   0.481   5.231   4.195  0.5756 -0.1286 -0.4257
10853SOL    HW233380   0.442   5.227   4.037  0.1699 -1.0445 -0.3061
10854SOL     OW33381   1.969   4.275   4.810  0.1345 -0.0746  0.1501
10854SOL    HW133382   2.050   4.224   4.784 -0.6409 -1.3054  0.0821
10854SOL    HW233383   1.925   4.314   4.729  0.3147  0.0800  0.1252
10855SOL     OW33384   3.325   0.736   5.057  0.3903 -0.0924  0.3780
10855SOL    HW133385   3.346   0.690   5.143  1.8162 -1.2072 -0.5204
10855SOL    HW233386   3.293   0.668   4.990 -0.4412  0.7143 -0.0757
10856SOL     OW33387   2.128   4.404   6.800 -0.2715 -0.2578 -0.1431
10856SOL    HW133388   2.046   4.350   6.819  0.3032 -0.6628  1.3503
10856SOL    HW233389   2.101   4.495   6.768 -1.3402 -0.1681  0.9058
10857SOL     OW33390   0.511   3.838   6.929  0.3420  0.5493  0.6316
10857SOL    HW133391   0.577   3.778   6.883  0.8661  1.8071 -0.3303
10857SOL    HW233392   0.549   3.869   7.016 -0.0884 -0.7759  1.3210
10858SOL     OW33393   2.640   1.739   4.415 -0.3985 -0.9704 -0.0090
10858SOL    HW133394   2.559   1.793   4.436 -0.1718 -0.8472  0.5829
10858SOL    HW233395   2.633   1.703   4.322 -0.3973  0.3678 -0.5672
10859SOL     OW33396   1.769   4.660   3.264  0.5035 -0.1966  0.4895
10859SOL    HW133397   1.828   4.584   3.289  0.9229 -0.8120 -2.0664
10859SOL    HW233398   1.824   4.733   3.224 -0.2339 -0.0914 -0.3858
10860SOL     OW33399   4.710   5.909   4.102  0.1466  0.1404 -0.1085
10860SOL    HW133400   4.751   5.944   4.018 -1.0913  2.6630  0.2490
10860SOL    HW233401   4.659   5.825   4.082 -2.2736  1.9712 -2.5616
10861SOL     OW33402   0.865   2.349   1.478  0.1260 -0.2987  0.3843
10861SOL    HW133403   0.958   2.319   1.455  0.5911  0.2352  1.5318
10861SOL    HW233404   0.866   2.445   1.506 -0.4398 -0.8395  2.4272
10862SOL     OW33405   1.282   2.704   4.812  0.2667 -0.1175  0.5051
10862SOL    HW133406   1.354   2.635   4.804  0.4056 -0.3398  2.9189
10862SOL    HW233407   1.323   2.794   4.826  0.0687  0.1589 -0.6119
10863SOL     OW33408   5.560   0.458   3.786  0.2271  0.2787  0.1378
10863SOL    HW133409   5.614   0.375   3.802 -1.3835 -0.8360  0.1037
10863SOL    HW233410   5.507   0.447   3.702 -0.6470  0.9947  0.5741
10864SOL     OW33411   4.521   6.991   5.481 -0.2381  0.7532  0.0266
10864SOL    HW133412   4.452   7.028   5.544  0.7764  0.2394  1.5028
10864SOL    HW233413   4.604   7.047   5.486  0.1628  0.1667 -0.2293
10865SOL     OW33414   5.240   4.853   2.131 -0.6290  0.3778 -0.0362
10865SOL    HW133415   5.324   4.893   2.166  0.1910 -2.9523  2.2318
10865SOL    HW233416   5.180   4.830   2.207 -1.3971 -1.7862 -1.2028
10866SOL     OW33417   0.381   1.733   3.939  0.2399  0.0223  0.2542
10866SOL    HW133418   0.347   1.821   3.904  0.3096  0.2135  0.6559
10866SOL    HW233419   0.476   1.720   3.911  0.0840 -0.1401 -0.2015
10867SOL     OW33420   0.572   3.581   4.948 -0.5609 -0.9464  0.2026
10867SOL    HW133421   0.552   3.679   4.940  0.0934 -0.5990  2.2481
10867SOL    HW233422   0.628   3.552   4.871 -1.5550  0.0528 -0.9464
10868SOL     OW33423   2.842   6.766   0.717  0.1221  0.3884  0.6990
10868SOL    HW133424   2.905   6.764   0.795  0.3246 -0.1065  0.5312
10868SOL    HW233425   2.759   6.715   0.739  0.6975 -0.8280  0.1768
10869SOL     OW33426   2.666   1.398   5.885  0.0339 -0.4735 -0.1634
10869SOL    HW133427   2.661   1.464   5.961 -1.5055  0.1426 -0.7612
10869SOL    HW233428   2.742   1.424   5.825 -0.4295  0.6599 -0.2878
10870SOL     OW33429   5.437   0.617   4.363 -0.3837  0.3296 -0.3251
10870SOL    HW133430   5.522   0.564   4.364 -0.1173  0.6956 -1.7365
10870SOL    HW233431   5.455   0.709   4.329 -1.2142  0.6772  0.1354
10871SOL     OW33432   5.240   1.074   0.091 -0.2703  0.1253 -0.7031
10871SOL    HW133433   5.205   1.007   0.026  1.2098 -0.8785 -0.5300
10871SOL    HW233434   5.323   1.116   0.054  0.3992 -0.2108  0.3761
10872SOL     OW33435   6.161   6.548   3.332 -0.3297 -0.8094 -0.1607
10872SOL    HW133436   6.091   6.537   3.261 -0.2641  0.6962 -0.4790
10872SOL    HW233437   6.118   6.550   3.422 -0.5698 -1.1197 -0.2663
10873SOL     OW33438   2.216   3.986   0.216 -0.6339 -0.0682  0.0337
10873SOL    HW133439   2.229   3.930   0.135 -0.8439 -0.5707  0.3414
10873SOL    HW233440   2.243   3.934   0.297 -0.2569  0.4889  0.2782
10874SOL     OW33441   2.433   6.006   5.686  0.0532 -0.3515 -0.3011
10874SOL    HW133442   2.428   6.105   5.701  0.9895 -0.3750  0.2309
10874SOL    HW233443   2.355   5.962   5.729  0.1143  0.0662  0.2418
10875SOL     OW33444   6.151   5.617   5.592  0.3844  0.0688  0.4027
10875SOL    HW133445   6.181   5.682   5.522  2.9588 -1.7603 -0.3290
10875SOL    HW233446   6.142   5.526   5.553 -1.0937 -0.4711  1.8541
10876SOL     OW33447   1.516   3.556   4.599 -0.0428  0.4483  0.1059
10876SOL    HW133448   1.523   3.655   4.589 -0.6534  0.4311 -0.5767
10876SOL    HW233449   1.421   3.528   4.591  0.0175 -0.1175  1.1862
10877SOL     OW33450   4.348   2.367   6.589  0.5594  0.5045 -0.5153
10877SOL    HW133451   4.334   2.401   6.496  0.7564  0.3190 -0.6142
10877SOL    HW233452   4.365   2.268   6.586  0.2952  0.4506 -0.2586
10878SOL     OW33453   2.690   6.092   2.020 -0.1005 -0.3350 -0.5882
10878SOL    HW133454   2.735   6.007   1.992 -1.1850 -0.5886 -1.6394
10878SOL    HW233455   2.743   6.135   2.094  0.7516 -1.6356 -0.4078
10879SOL     OW33456   6.687   2.910   6.354 -0.0929  0.0180 -0.4970
10879SOL    HW133457   6.688   2.815   6.386 -1.3038  0.7992  2.0961
10879SOL    HW233458   6.781   2.941   6.337  0.3905 -1.2520 -0.2185
10880SOL     OW33459   5.254   0.511   5.695  0.1242  0.7928  0.2360
10880SOL    HW133460   5.306   0.536   5.613 -0.7252 -2.7005 -1.5328
10880SOL    HW233461   5.158   0.535   5.683 -0.1616 -0.5209 -0.2093
10881SOL     OW33462   0.515   5.631   2.252  0.1570 -0.4441 -0.4989
10881SOL    HW133463   0.553   5.611   2.342  0.4167 -0.0660 -0.5216
10881SOL    HW233464   0.417   5.651   2.260  0.4370  0.9212 -0.1022
10882SOL     OW33465   1.552   0.948   3.645 -0.0646  0.3043 -0.4084
10882SOL    HW133466   1.613   0.875   3.615  1.3765  1.6401 -0.8670
10882SOL    HW233467   1.507   0.922   3.730  2.5201 -0.0313  0.9410
10883SOL     OW33468   0.488   4.418   2.779  0.4394 -0.0595 -0.6063
10883SOL    HW133469   0.462   4.508   2.745  0.0453  0.6583  1.4557
10883SOL    HW233470   0.439   4.399   2.864 -0.4539 -2.7935 -1.6243
10884SOL     OW33471   5.115   2.110   6.062  0.5970  0.4490  0.0080
10884SOL    HW133472   5.016   2.101   6.070  0.6649 -1.1854 -0.5665
10884SOL    HW233473   5.137   2.166   5.982  0.1423 -0.0647 -0.4818
10885SOL     OW33474   0.454   5.029   0.135  0.1741 -0.0907  0.5622
10885SOL    HW133475   0.542   4.985   0.118  0.2044  0.4777 -0.9345
10885SOL    HW233476   0.381   4.961   0.131  0.1361 -0.0036 -2.4302
10886SOL     OW33477   2.431   3.117   0.277 -0.5762  0.9075  0.5102
10886SOL    HW133478   2.456   3.167   0.360 -1.1205  2.5578 -0.2820
10886SOL    HW233479   2.352   3.160   0.234 -0.2255  0.1654 -0.9431
10887SOL     OW33480   0.325   5.863   2.889 -0.0581 -0.4685 -0.0304
10887SOL    HW133481   0.372   5.783   2.927  0.0193 -1.4060 -1.9548
10887SOL    HW233482   0.270   5.835   2.810 -1.2057  1.1672  0.1318
10888SOL     OW33483   3.127   5.558   0.231  0.1531  0.2026  0.4138
10888SOL    HW133484   3.149   5.539   0.327 -0.1307 -0.8721  0.2710
10888SOL    HW233485   3.111   5.473   0.182 -0.4582  0.7741 -0.4160
10889SOL     OW33486   5.413   6.209   1.501 -0.7661 -0.0767 -0.9223
10889SOL    HW133487   5.394   6.151   1.580 -0.0911 -2.3886 -2.3502
10889SOL    HW233488   5.374   6.167   1.419 -0.1545  1.4575 -2.0355
10890SOL     OW33489   3.186   3.247   0.647  0.3657 -0.1801  0.4336
10890SOL    HW133490   3.272   3.255   0.596  0.0158  1.8551  0.0902
10890SOL    HW233491   3.115   3.209   0.588  0.5822 -0.1900  0.1790
10891SOL     OW33492   6.117   4.010   3.602 -0.0451  0.1795  0.4703
10891SOL    HW133493   6.054   3.959   3.661 -0.0778 -1.1834 -0.6746
10891SOL    HW233494   6.206   3.965   3.602 -0.2414 -0.2680 -1.0183
10892SOL     OW33495   3.793   0.497   2.046  0.4144  0.3160  0.1992
10892SOL    HW133496   3.812   0.589   2.082  1.1053 -0.5105  2.0429
10892SOL    HW233497   3.694   0.485   2.035  0.2361  0.8262  1.2155
10893SOL     OW33498   2.828   4.410   0.383 -0.1951 -0.3548 -0.6480
10893SOL    HW133499   2.758   4.340   0.376  1.0988 -1.6969 -0.5786
10893SOL    HW233500   2.797   4.481   0.447 -1.9225 -0.3391 -1.4546
10894SOL     OW33501   2.916   1.459   2.026 -0.1866  0.2141  0.0435
10894SOL    HW133502   2.972   1.402   1.966 -1.7544 -2.3320  0.8023
10894SOL    HW233503   2.850   1.511   1.972 -0.1096 -0.3242 -0.5768
10895SOL     OW33504   2.576   1.411   5.072 -0.1072  0.3692 -0.3184
10895SOL    HW133505   2.624   1.352   5.007 -1.7221 -3.8607  1.9993
10895SOL    HW233506   2.643   1.469   5.119  1.8175 -0.5775 -1.7228
10896SOL     OW33507   0.372   3.330   1.892  0.2311  0.0880  0.2764
10896SOL    HW133508   0.469   3.339   1.870  0.4378  0.1207  1.1553
10896SOL    HW233509   0.326   3.417   1.879 -0.3922 -0.6475 -3.3250
10897SOL     OW33510   1.890   1.102   6.768 -0.2811  0.2856 -0.2999
10897SOL    HW133511   1.964   1.089   6.702 -0.0579 -0.8525  0.1568
10897SOL    HW233512   1.859   1.197   6.764  1.2807  0.8287 -0.4096
10898SOL     OW33513   1.672   5.423   1.459  1.1097  0.5989 -0.1208
10898SOL    HW133514   1.594   5.402   1.400  1.9102 -1.0351 -0.6627
10898SOL    HW233515   1.689   5.522   1.458 -0.0619  0.8195 -1.1183
10899SOL     OW33516   2.116   0.753   5.239  0.0987 -0.5946 -0.1976
10899SOL    HW133517   2.100   0.666   5.285 -0.3015  0.0787  0.9614
10899SOL    HW233518   2.033   0.783   5.192 -0.3517  0.0673  0.9793
10900SOL     OW33519   6.773   5.488   5.418  0.0447 -0.0681  0.1833
10900SOL    HW133520   6.859   5.529   5.385 -0.0948 -1.4113 -1.9767
10900SOL    HW233521   6.696   5.533   5.373 -0.1190 -2.4116 -2.1206
10901SOL     OW33522   0.174   6.433   0.809  0.2813 -0.7160  0.3957
10901SOL    HW133523   0.102   6.377   0.769 -1.3019  0.5938  1.3491
10901SOL    HW233524   0.200   6.395   0.898  0.7055 -1.1154  0.1106
10902SOL     OW33525   2.555   1.807   5.881  0.6474 -0.3688 -0.4160
10902SOL    HW133526   2.593   1.765   5.800  2.7363 -0.5356  0.5910
10902SOL    HW233527   2.626   1.860   5.928 -1.0754  1.6299  0.0899
10903SOL     OW33528   2.464   0.458   3.142  0.1177  0.3368  0.6081
10903SOL    HW133529   2.446   0.514   3.223 -3.0564 -0.6084  0.7276
10903SOL    HW233530   2.495   0.517   3.068 -1.6439  2.1100  1.1539
10904SOL     OW33531   0.008   6.277   0.671  0.8277  0.1575  0.7178
10904SOL    HW133532   0.017   6.325   0.584  2.8719  0.1080  0.8439
10904SOL    HW233533   0.021   6.179   0.656 -0.3828 -0.0531  0.8954
10905SOL     OW33534   1.389   1.870   1.558 -0.3333  0.2886  0.5492
10905SOL    HW133535   1.385   1.842   1.654 -2.1521 -2.1849 -0.1753
10905SOL    HW233536   1.481   1.855   1.523 -0.2973 -1.2691  1.2381
10906SOL     OW33537   5.455   2.393   0.432  0.3290  0.1761  0.8107
10906SOL    HW133538   5.463   2.355   0.340 -2.4857 -1.7017  1.2204
10906SOL    HW233539   5.417   2.485   0.427  3.3669  1.5092  0.0199
10907SOL     OW33540   4.837   2.123   6.102  1.0313 -0.3172  0.2387
10907SOL    HW133541   4.821   2.220   6.116 -1.0495 -0.8014  1.8788
10907SOL    HW233542   4.788   2.092   6.020  2.0948  0.0652 -0.5652
10908SOL     OW33543   6.826   5.094   0.928 -0.1826  0.5641  0.3590
10908SOL    HW133544   6.824   5.171   0.992  0.0379 -0.0729  1.1515
10908SOL    HW233545   6.886   5.116   0.851 -0.3825  1.3050  0.4032
10909SOL     OW33546   6.397   6.211   3.008 -0.2326  0.1731 -0.1413
10909SOL    HW133547   6.484   6.182   3.047 -0.3164 -0.1007 -0.1596
10909SOL    HW233548   6.391   6.311   3.011 -0.4170  0.1432  0.9367
10910SOL     OW33549   6.033   4.914   4.408 -0.4705 -0.2992 -0.4782
10910SOL    HW133550   6.075   4.994   4.364  0.1746 -0.9942 -1.1975
10910SOL    HW233551   5.968   4.873   4.345 -0.6353 -0.4668 -0.1981
10911SOL     OW33552   2.953   0.911   5.903  0.8509  0.0381  0.1852
10911SOL    HW133553   3.044   0.912   5.862  0.0284  0.9615 -1.7259
10911SOL    HW233554   2.921   1.005   5.915 -0.2386 -0.2859 -0.0824
10912SOL     OW33555   0.697   6.629   2.107 -0.5101  0.0098 -0.4512
10912SOL    HW133556   0.622   6.695   2.109 -0.7362 -0.2205 -1.0927
10912SOL    HW233557   0.778   6.670   2.148 -1.0962  0.1166  0.6585
10913SOL     OW33558   1.391   5.362   3.512  0.2607  0.2227 -0.0983
10913SOL    HW133559   1.484   5.328   3.495  1.0722  1.0009  2.3532
10913SOL    HW233560   1.388   5.460   3.493  0.5320  0.6076  1.7082
10914SOL     OW33561   7.008   5.401   5.838  0.3497  0.1174 -0.5970
10914SOL    HW133562   6.960   5.347   5.769 -1.0669 -0.7751  0.9891
10914SOL    HW233563   6.948   5.474   5.871 -0.4852 -1.6275  2.1432
10915SOL     OW33564   2.272   1.298   0.729  0.1663  0.2120  0.2183
10915SOL    HW133565   2.269   1.374   0.793 -0.5382  0.7960 -0.4826
10915SOL    HW233566   2.200   1.232   0.753 -0.8446  0.9904 -0.6376
10916SOL     OW33567   2.386   6.583   4.615 -0.4770  0.1090  0.5315
10916SOL    HW133568   2.388   6.649   4.540  1.6118 -0.9657 -0.4525
10916SOL    HW233569   2.298   6.536   4.615 -0.1466 -0.7059 -2.0690
10917SOL     OW33570   3.090   3.588   3.903 -0.6852  0.0178  0.1221
10917SOL    HW133571   3.082   3.685   3.881  0.4572 -0.0329 -0.6260
10917SOL    HW233572   3.130   3.540   3.826 -0.2873 -0.8829  0.8652
10918SOL     OW33573   0.330   6.678   0.818  0.2697  0.1809 -0.1652
10918SOL    HW133574   0.409   6.666   0.878  0.5199  0.9493 -0.3258
10918SOL    HW233575   0.273   6.597   0.822 -0.2614  0.5727  1.9021
10919SOL     OW33576   0.256   1.173   0.812  0.0482  0.6327 -0.2818
10919SOL    HW133577   0.171   1.184   0.762 -0.2526  0.1367  0.1063
10919SOL    HW233578   0.307   1.095   0.774 -0.6214 -0.3441  0.7669
10920SOL     OW33579   0.936   2.862   0.776  0.3346  0.5028  0.2456
10920SOL    HW133580   0.998   2.857   0.698  1.4294  0.5276  1.0870
10920SOL    HW233581   0.933   2.773   0.823  1.4991  1.0835  1.4981
10921SOL     OW33582   4.390   0.692   4.037 -0.0399  0.9806  0.1290
10921SOL    HW133583   4.300   0.729   4.058 -0.6079  0.2062 -0.8559
10921SOL    HW233584   4.453   0.712   4.112 -1.5981 -0.4661  1.9126
10922SOL     OW33585   6.008   5.662   4.596 -0.2508 -0.3897  0.0878
10922SOL    HW133586   5.919   5.633   4.560  0.4632 -0.8630 -1.3951
10922SOL    HW233587   6.002   5.674   4.695 -2.0632 -0.0020 -0.0219
10923SOL     OW33588   1.963   5.465   0.544  0.1282  0.4312  0.6689
10923SOL    HW133589   2.047   5.465   0.489  0.6592 -0.8509  1.4458
10923SOL    HW233590   1.884   5.476   0.484  0.7834  0.6368 -0.1795
10924SOL     OW33591   2.696   2.631   1.845  0.0065  0.1451 -0.1422
10924SOL    HW133592   2.761   2.561   1.816 -0.7774 -0.3962 -0.6867
10924SOL    HW233593   2.731   2.721   1.823  2.6774  0.2535  3.7574
10925SOL     OW33594   0.033   2.001   5.723 -0.3453  0.4461 -0.6278
10925SOL    HW133595   0.028   1.986   5.624 -1.1528 -2.1412 -0.2473
10925SOL    HW233596   0.114   2.055   5.744  0.0472  0.7261 -2.6629
10926SOL     OW33597   4.295   1.094   6.602 -0.5994 -0.0314  0.2596
10926SOL    HW133598   4.385   1.076   6.560 -0.8455 -0.1050 -0.2408
10926SOL    HW233599   4.292   1.052   6.693 -0.3156 -0.4886  0.0614
10927SOL     OW33600   0.511   0.909   3.537 -0.6707  0.7502  0.0909
10927SOL    HW133601   0.459   0.897   3.453 -0.9449 -0.5185  0.4136
10927SOL    HW233602   0.481   0.992   3.583 -1.8580  0.4701 -0.1366
10928SOL     OW33603   2.682   4.853   1.529  0.2479  0.2454  0.4159
10928SOL    HW133604   2.693   4.761   1.565 -0.7640  0.7429  2.0525
10928SOL    HW233605   2.765   4.906   1.546  0.2836  0.0708  0.7833
10929SOL     OW33606   2.181   5.599   3.653  0.9296 -0.5653  0.1699
10929SOL    HW133607   2.109   5.556   3.707  0.4837  0.6534  0.5989
10929SOL    HW233608   2.270   5.580   3.695  0.6909 -0.6111  0.6644
10930SOL     OW33609   4.975   0.156   5.555  0.0074 -0.2261  0.0985
10930SOL    HW133610   5.026   0.152   5.469  0.5763  3.6455  0.0267
10930SOL    HW233611   5.030   0.116   5.628  0.1231 -2.2549 -0.9983
10931SOL     OW33612   5.459   3.692   5.960  0.3082 -0.3183 -0.4567
10931SOL    HW133613   5.531   3.628   5.985  2.1918  1.9261  0.1819
10931SOL    HW233614   5.403   3.712   6.041  1.9118  1.4170  0.3092
10932SOL     OW33615   3.222   5.808   1.513 -0.5009  0.2097  0.1764
10932SOL    HW133616   3.127   5.785   1.495 -1.1838  1.9444  1.3227
10932SOL    HW233617   3.255   5.873   1.444 -0.7248  0.9779  0.7796
10933SOL     OW33618   5.673   6.892   2.026 -0.1643 -0.4558  0.0447
10933SOL    HW133619   5.735   6.935   1.960  1.8393 -1.2721  1.2738
10933SOL    HW233620   5.609   6.961   2.062  1.5480  1.0387  0.3795
10934SOL     OW33621   3.257   3.202   2.022 -0.1402 -0.0150  0.4318
10934SOL    HW133622   3.311   3.264   1.965 -1.4263  3.0189  2.2434
10934SOL    HW233623   3.214   3.254   2.096 -3.6766 -2.6110  0.4615
10935SOL     OW33624   6.391   4.706   2.150  0.0352  0.0185  0.1665
10935SOL    HW133625   6.300   4.700   2.109  0.1944  0.8478 -0.3609
10935SOL    HW233626   6.447   4.631   2.116  0.0382  0.4577 -0.8577
10936SOL     OW33627   0.810   4.115   0.294 -0.4621 -0.5856 -0.1231
10936SOL    HW133628   0.804   4.059   0.377 -0.2910 -2.5569 -1.3530
10936SOL    HW233629   0.901   4.104   0.254 -0.5840  0.2469 -0.6506
10937SOL     OW33630   0.281   0.825   1.713  0.1405 -0.1788 -0.2740
10937SOL    HW133631   0.328   0.908   1.681  1.1386 -0.1646  1.1187
10937SOL    HW233632   0.243   0.777   1.634 -3.3060  3.1823 -0.9343
   7.01381   7.01381   7.01381
