CNT in water
33632
    1C        C    1   1.942   3.697   2.870 -0.1741  0.3477 -0.0050
    1C        C    2   1.909   3.706   2.732  0.3303 -1.3815 -0.2607
    1C        C    3   1.796   3.630   2.694 -0.4508 -0.3103 -0.1157
    1C        C    4   2.199   3.889   3.238  0.0502 -0.5973  0.0286
    1C        C    5   2.183   3.864   3.100  0.0517 -0.2288 -0.0375
    1C        C    6   2.070   3.795   3.052 -0.1169 -0.0817  0.1530
    1C        C    7   2.140   3.834   2.823  0.1140  0.4049  0.3803
    1C        C    8   2.045   3.784   2.914  0.0637  0.0125  0.1123
    1C        C    9   2.125   3.807   2.685  0.0296 -0.3863  0.5426
    1C        C   10   2.000   3.759   2.636 -0.2046  0.5181  0.2445
    1C        C   11   2.105   3.733   2.414 -0.1720  0.2723 -0.8517
    1C        C   12   1.991   3.748   2.495  0.5739  0.4419  0.1945
    1C        C   13   2.474   4.053   3.605 -0.1806 -0.0793 -0.0334
    1C        C   14   2.455   4.037   3.466 -0.6677  0.1765  0.0035
    1C        C   15   2.339   3.970   3.420 -0.1907 -0.5527 -0.1497
    1C        C   16   2.418   3.989   3.193  0.4003 -0.4458  0.2736
    1C        C   17   2.314   3.956   3.282 -0.0851 -0.2138 -0.2028
    1C        C   18   2.410   3.942   3.060  0.2374  0.0527  0.1066
    1C        C   19   2.283   3.907   3.010  0.2691 -0.2096  0.2131
    1C        C   20   2.379   3.848   2.791  0.3143 -0.0907  0.0751
    1C        C   21   2.267   3.869   2.875  0.3900 -0.3857  0.2496
    1C        C   22   2.368   3.787   2.665 -0.3051 -0.0410  0.0995
    1C        C   23   2.240   3.773   2.609 -0.2268  0.3504 -0.1805
    1C        C   24   2.345   3.675   2.410 -0.3617  0.2342 -0.2099
    1C        C   25   2.234   3.740   2.471 -0.4940 -0.1279 -0.0590
    1C        C   26   2.332   3.604   2.289 -0.2200 -0.0846 -0.0399
    1C        C   27   2.751   4.229   3.967  0.2287 -0.5573 -0.1392
    1C        C   28   2.731   4.203   3.830  0.0891 -1.0694 -0.0272
    1C        C   29   2.613   4.142   3.782 -0.2963  0.0673 -0.5929
    1C        C   30   2.706   4.125   3.559  0.1948  0.0662 -0.3519
    1C        C   31   2.594   4.114   3.645  0.0035 -0.0513 -0.6114
    1C        C   32   2.689   4.102   3.421 -0.3232  0.2194 -0.3151
    1C        C   33   2.562   4.059   3.377 -0.6438  0.6665  0.1478
    1C        C   34   2.661   4.003   3.162  0.2752 -0.1707  0.2957
    1C        C   35   2.546   4.025   3.241  0.2515  0.2845  0.1350
    1C        C   36   2.650   3.948   3.032 -0.0083 -0.1678  0.3206
    1C        C   37   2.523   3.920   2.978  0.1248 -0.1768  0.0169
    1C        C   38   2.623   3.840   2.774  0.2486  0.3634 -0.3959
    1C        C   39   2.507   3.870   2.847  0.3663  0.7051 -0.3496
    1C        C   40   2.614   3.765   2.655 -0.3114 -0.0937 -0.0643
    1C        C   41   2.486   3.741   2.601 -0.3541 -0.0631  0.0264
    1C        C   42   2.582   3.611   2.417 -0.2315  0.5529 -0.1354
    1C        C   43   2.470   3.675   2.478 -0.4109  0.2218 -0.1204
    1C        C   44   2.564   3.543   2.294 -0.2592  0.0084  0.1695
    1C        C   45   2.439   3.538   2.229 -0.0855  0.2660 -0.1846
    1C        C   46   3.038   4.384   4.327 -0.3593  0.4443  0.0393
    1C        C   47   3.019   4.353   4.191  0.3871 -0.2396  0.0806
    1C        C   48   2.902   4.287   4.146  0.2479  0.1413 -0.1334
    1C        C   49   2.978   4.310   3.917  0.3833 -0.5870  0.5508
    1C        C   50   2.872   4.289   4.008 -0.3375  0.5370 -0.0054
    1C        C   51   2.966   4.264   3.784  0.2952 -0.3651  0.4792
    1C        C   52   2.840   4.216   3.742  0.1246  0.3201  0.1923
    1C        C   53   2.946   4.149   3.530 -0.4627 -0.2874 -0.1763
    1C        C   54   2.831   4.166   3.610 -0.1325  0.4641  0.1515
    1C        C   55   2.929   4.092   3.402 -0.0789 -0.0881 -0.3212
    1C        C   56   2.803   4.073   3.343 -0.2109 -0.0370 -0.0593
    1C        C   57   2.904   3.963   3.150  0.4455 -0.5534  0.3145
    1C        C   58   2.792   4.021   3.212  0.4126 -0.2447 -0.0317
    1C        C   59   2.891   3.907   3.021 -0.3904 -0.1786  0.2341
    1C        C   60   2.764   3.907   2.960 -0.2189  0.0404 -0.1255
    1C        C   61   2.864   3.777   2.781  0.1278 -0.5155  0.4011
    1C        C   62   2.751   3.845   2.833  0.0960 -0.2461 -0.0154
    1C        C   63   2.847   3.691   2.670  0.3291  0.5985 -0.5097
    1C        C   64   2.721   3.687   2.606 -0.1313 -0.1521  0.4232
    1C        C   65   2.795   3.508   2.458 -0.1078  0.8030 -0.4053
    1C        C   66   2.704   3.612   2.488 -0.3506  0.4536  0.0695
    1C        C   67   2.773   3.419   2.351 -0.0371  0.3584 -0.0499
    1C        C   68   2.665   3.446   2.263 -0.4784 -0.2628  0.2949
    1C        C   69   2.768   3.277   2.115 -0.6727 -0.2876  0.2743
    1C        C   70   2.685   3.388   2.135 -0.0125  0.2422  0.1324
    1C        C   71   3.299   4.574   4.688  0.4769  0.3202 -0.1311
    1C        C   72   3.290   4.538   4.552 -0.3360 -0.4238  0.1173
    1C        C   73   3.172   4.473   4.509 -0.3289 -0.3920  0.0468
    1C        C   74   3.262   4.471   4.282 -0.1379  0.0615  0.2346
    1C        C   75   3.153   4.455   4.370 -0.5238  0.8002 -0.0940
    1C        C   76   3.249   4.416   4.152  0.0603  1.0904 -0.2321
    1C        C   77   3.124   4.378   4.100  0.3021 -0.1044  0.0146
    1C        C   78   3.223   4.301   3.898  0.5667 -0.2190  0.1476
    1C        C   79   3.107   4.346   3.964  0.4835 -0.2386  0.0206
    1C        C   80   3.212   4.258   3.764  0.3165 -0.1125  0.1289
    1C        C   81   3.083   4.238   3.711  0.2421  0.1502  0.1986
    1C        C   82   3.187   4.143   3.508 -0.5465  0.2113  0.3541
    1C        C   83   3.073   4.184   3.580 -0.6893 -0.3636  0.4668
    1C        C   84   3.171   4.067   3.390  0.0646  0.1752  0.2848
    1C        C   85   3.044   4.051   3.331  0.1924  0.0105  0.0505
    1C        C   86   3.143   3.915   3.154  0.1082 -0.6519 -0.0119
    1C        C   87   3.031   3.982   3.208  0.4981 -0.0300  0.0385
    1C        C   88   3.125   3.841   3.036 -0.3694  0.0108 -0.3615
    1C        C   89   3.006   3.853   2.960 -0.4189  0.2809 -0.2396
    1C        C   90   3.084   3.673   2.821  0.3443 -0.4475  0.6154
    1C        C   91   2.989   3.774   2.844  0.2733 -0.3987  0.1157
    1C        C   92   3.050   3.573   2.727 -0.2850  0.3039  0.0312
    1C        C   93   2.934   3.582   2.648  0.2061  0.5349 -0.6664
    1C        C   94   2.997   3.386   2.519 -0.4730 -0.0422  0.2439
    1C        C   95   2.909   3.495   2.540 -0.0211  0.4918 -0.5772
    1C        C   96   2.975   3.292   2.416 -0.5236 -0.1659  0.3683
    1C        C   97   2.864   3.312   2.331 -0.2673  0.1347  0.1035
    1C        C   98   2.903   3.095   2.230  0.0498  0.1704 -0.2778
    1C        C   99   2.848   3.227   2.219 -0.3183  0.0556  0.1712
    1C        C  100   2.834   2.986   2.173 -0.2429  0.0357  0.3245
    1C        C  101   3.417   4.684   4.869 -0.0192 -0.2176  0.3592
    1C        C  102   3.537   4.617   4.657  0.0164 -0.3976 -0.2897
    1C        C  103   3.421   4.628   4.739  0.4407  0.0260  0.2635
    1C        C  104   3.527   4.585   4.519 -0.1050 -0.2004 -0.3271
    1C        C  105   3.400   4.553   4.465 -0.3681  0.0296  0.1546
    1C        C  106   3.500   4.477   4.255 -0.1313  0.1032 -0.0446
    1C        C  107   3.387   4.515   4.330 -0.0604 -0.0557  0.1461
    1C        C  108   3.490   4.405   4.133  0.4115 -0.1893  0.0766
    1C        C  109   3.363   4.376   4.080  0.1745 -0.0602  0.5529
    1C        C  110   3.469   4.298   3.874  0.0413  0.0203 -0.0363
    1C        C  111   3.353   4.316   3.952  0.3968 -0.0284  0.5154
    1C        C  112   3.458   4.242   3.745  0.3072  0.4263 -0.2424
    1C        C  113   3.329   4.228   3.690  0.2783  0.5919 -0.2259
    1C        C  114   3.420   4.077   3.520 -0.2378  0.4709 -0.3185
    1C        C  115   3.314   4.157   3.569 -0.4811 -0.2295  0.3285
    1C        C  116   3.397   3.984   3.417 -0.1751  0.3908 -0.2640
    1C        C  117   3.277   3.988   3.343 -0.1708  0.1924 -0.2856
    1C        C  118   3.366   3.825   3.179  0.0370 -0.3204  0.0174
    1C        C  119   3.266   3.914   3.223  0.2425  0.0388 -0.2333
    1C        C  120   3.341   3.734   3.074 -0.3471 -0.1519 -0.0382
    1C        C  121   3.226   3.751   2.994 -0.2695  0.0098 -0.1161
    1C        C  122   3.301   3.562   2.861  0.2382 -0.5872  0.4905
    1C        C  123   3.213   3.671   2.879  0.6895 -0.1153 -0.1401
    1C        C  124   3.263   3.457   2.775 -0.8258 -0.2307  0.5137
    1C        C  125   3.141   3.466   2.705 -0.7236 -0.1381  0.3474
    1C        C  126   3.178   3.250   2.602 -0.0930  0.2104 -0.1948
    1C        C  127   3.108   3.372   2.605 -0.1241  0.1915 -0.1660
    1C        C  128   3.146   3.148   2.509 -0.2184 -0.0718  0.1539
    1C        C  129   3.040   3.167   2.418  0.3299  0.2567 -0.4254
    1C        C  130   3.059   2.937   2.341  0.1819  0.2060 -0.2881
    1C        C  131   3.006   3.067   2.324 -0.1401  0.0999 -0.0907
    1C        C  132   3.004   2.830   2.266 -0.5666  0.0742  0.4401
    1C        C  133   2.898   2.862   2.178 -0.7426 -0.2179  0.5417
    1C        C  134   3.779   4.598   4.636 -0.0085  0.1187  0.2210
    1C        C  135   3.667   4.641   4.707 -0.1635  0.3798 -0.1805
    1C        C  136   3.770   4.570   4.498  0.1194  0.1073  0.2147
    1C        C  137   3.641   4.554   4.440  0.2095  0.0394  0.0318
    1C        C  138   3.744   4.449   4.248 -0.0919 -0.2241  0.3700
    1C        C  139   3.627   4.490   4.315 -0.1654  0.1403  0.0218
    1C        C  140   3.728   4.372   4.130  0.3125  0.0622  0.1249
    1C        C  141   3.606   4.372   4.060  0.3615 -0.2834  0.0359
    1C        C  142   3.703   4.236   3.883 -0.0712  0.0186 -0.2098
    1C        C  143   3.597   4.318   3.930  0.0648  0.1530 -0.1306
    1C        C  144   3.685   4.155   3.769 -0.3047 -0.1030 -0.0911
    1C        C  145   3.562   4.158   3.700 -0.2410 -0.2781 -0.2219
    1C        C  146   3.646   3.983   3.553  0.1141  0.1319  0.0108
    1C        C  147   3.542   4.070   3.592 -0.2163 -0.0687 -0.4005
    1C        C  148   3.626   3.903   3.438 -0.4413 -0.4372  0.4927
    1C        C  149   3.506   3.911   3.365 -0.1910  0.0787  0.1296
    1C        C  150   3.576   3.721   3.228 -0.0945  0.1845 -0.2481
    1C        C  151   3.487   3.829   3.251  0.0761  0.2888 -0.0715
    1C        C  152   3.549   3.619   3.134  0.4046 -0.0924 -0.0939
    1C        C  153   3.439   3.636   3.047  0.0965  0.1819  0.3470
    1C        C  154   3.456   3.406   2.971 -0.0784 -0.3311 -0.0849
    1C        C  155   3.400   3.535   2.957  0.3281 -0.0832  0.5440
    1C        C  156   3.432   3.312   2.868 -0.3496 -0.0681 -0.2623
    1C        C  157   3.335   3.335   2.768  0.0320  0.3186 -0.5457
    1C        C  158   3.341   3.100   2.708 -0.3070 -0.0151  0.3280
    1C        C  159   3.288   3.229   2.688 -0.6398 -0.1361  0.4309
    1C        C  160   3.292   2.994   2.628  0.5844  0.0542 -0.3286
    1C        C  161   3.202   3.019   2.523  0.2013  0.0904  0.0083
    1C        C  162   3.178   2.780   2.488 -0.2402  0.2292 -0.0332
    1C        C  163   3.151   2.912   2.446 -0.1048  0.2590 -0.0245
    1C        C  164   3.129   2.671   2.414 -0.3996 -0.0450  0.4801
    1C        C  165   3.043   2.698   2.304  0.0339  0.1772  0.1944
    1C        C  166   3.038   2.454   2.262  0.4660  0.2046 -0.3817
    1C        C  167   3.026   2.586   2.217  0.4059  0.3124 -0.0494
    1C        C  168   4.017   4.590   4.446  0.1596 -0.3592  0.1962
    1C        C  169   3.885   4.551   4.416  0.0545  0.0313  0.1406
    1C        C  170   3.981   4.390   4.255 -0.2686  0.1050 -0.4401
    1C        C  171   3.873   4.471   4.300 -0.0293  0.1475  0.0678
    1C        C  172   3.961   4.307   4.143 -0.0411 -0.5376 -0.0110
    1C        C  173   3.837   4.301   4.076 -0.0862 -0.5140  0.0659
    1C        C  174   3.926   4.146   3.916 -0.2783 -0.2095  0.2147
    1C        C  175   3.827   4.241   3.948 -0.0288  0.2351 -0.3001
    1C        C  176   3.904   4.055   3.810 -0.0634 -0.3156  0.2575
    1C        C  177   3.792   4.071   3.727 -0.1106 -0.0885  0.3602
    1C        C  178   3.856   3.871   3.602 -0.7596 -0.5890  0.5374
    1C        C  179   3.768   3.979   3.624  0.2102  0.3674 -0.1316
    1C        C  180   3.824   3.773   3.505 -0.3009 -0.1326 -0.0854
    1C        C  181   3.711   3.791   3.423 -0.0773 -0.0569 -0.3861
    1C        C  182   3.754   3.579   3.315  0.0472 -0.0571 -0.1745
    1C        C  183   3.681   3.699   3.320 -0.1424 -0.1665 -0.2737
    1C        C  184   3.714   3.472   3.232 -0.7081 -0.5269  0.7707
    1C        C  185   3.606   3.491   3.143 -0.2517 -0.3647  0.2447
    1C        C  186   3.638   3.265   3.056  0.4948  0.1440 -0.3929
    1C        C  187   3.567   3.387   3.056 -0.1859 -0.2491  0.0752
    1C        C  188   3.588   3.158   2.978  0.0574  0.0996 -0.0523
    1C        C  189   3.486   3.183   2.884  0.2163  0.1753 -0.2038
    1C        C  190   3.467   2.941   2.842 -0.6033 -0.0247  0.1806
    1C        C  191   3.439   3.075   2.806 -0.0693  0.0699  0.1131
    1C        C  192   3.413   2.833   2.770  0.0115 -0.1082 -0.1636
    1C        C  193   3.320   2.862   2.668  0.2465 -0.0230 -0.3523
    1C        C  194   3.282   2.621   2.644 -0.0617  0.0428 -0.2132
    1C        C  195   3.262   2.753   2.598 -0.1887  0.0562 -0.1169
    1C        C  196   3.231   2.512   2.572  0.4575 -0.0749 -0.3997
    1C        C  197   3.154   2.537   2.455 -0.5181 -0.1476  0.2161
    1C        C  198   3.082   2.301   2.453  0.4923  0.0104  0.2471
    1C        C  199   3.096   2.428   2.388 -0.2462 -0.0889 -0.1143
    1C        C  200   2.973   2.217   2.419  0.0918  0.4671  0.4045
    1C        C  201   4.128   4.516   4.402  0.2269 -0.3883  0.4142
    1C        C  202   4.210   4.311   4.281 -0.4504  0.1143  0.0747
    1C        C  203   4.110   4.409   4.311 -0.2923  0.4552 -0.4955
    1C        C  204   4.185   4.216   4.178  0.2876  0.1935 -0.1819
    1C        C  205   4.065   4.219   4.105  0.2166 -0.2029 -0.0896
    1C        C  206   4.129   4.024   3.974 -0.0341 -0.1946  0.1439
    1C        C  207   4.044   4.135   3.994 -0.1516 -0.2601  0.0205
    1C        C  208   4.095   3.924   3.880  0.5704  0.0208 -0.3164
    1C        C  209   3.987   3.942   3.792  0.0932 -0.1992  0.2189
    1C        C  210   4.043   3.731   3.678  0.0094  0.2149 -0.1419
    1C        C  211   3.964   3.848   3.689 -0.3340 -0.0413  0.1622
    1C        C  212   4.008   3.630   3.586 -0.4157 -0.2823  0.5581
    1C        C  213   3.902   3.655   3.496 -0.1911 -0.0959  0.3435
    1C        C  214   3.923   3.430   3.418  0.3495  0.3254 -0.4339
    1C        C  215   3.859   3.555   3.407  0.2073  0.2672 -0.2697
    1C        C  216   3.879   3.324   3.335 -0.1366  0.0121  0.2124
    1C        C  217   3.770   3.343   3.247 -0.3773 -0.4255  0.4127
    1C        C  218   3.757   3.107   3.203 -0.0931 -0.2128  0.2754
    1C        C  219   3.728   3.239   3.162 -0.3489 -0.2855  0.2259
    1C        C  220   3.690   3.003   3.136 -0.4103  0.1222  0.0719
    1C        C  221   3.607   3.026   3.023 -0.0984  0.0349 -0.1757
    1C        C  222   3.554   2.789   3.011 -0.3380  0.1873  0.3899
    1C        C  223   3.554   2.917   2.951 -0.4631  0.0415  0.0825
    1C        C  224   3.486   2.683   2.948  0.0122  0.2080 -0.0255
    1C        C  225   3.426   2.702   2.822  0.1397 -0.0800 -0.1289
    1C        C  226   3.350   2.468   2.819  0.6469  0.0785 -0.3120
    1C        C  227   3.361   2.594   2.758  0.3386  0.0167 -0.4986
    1C        C  228   3.277   2.362   2.761 -0.0372  0.4590 -0.1538
    1C        C  229   3.212   2.389   2.639 -0.2763  0.2090 -0.0821
    1C        C  230   3.110   2.163   2.654 -0.0295 -0.4533  0.0353
    1C        C  231   3.140   2.282   2.581  0.2280 -0.3463  0.3129
    1C        C  232   3.011   2.070   2.611  0.2126 -0.5669 -0.2883
    1C        C  233   2.952   2.097   2.486  0.1821  0.1559 -0.1265
    1C        C  234   4.399   4.172   4.353  0.2757 -0.4148 -0.4650
    1C        C  235   4.314   4.281   4.371  0.2354 -0.3772 -0.8600
    1C        C  236   4.384   4.089   4.240  0.3507 -0.3793 -0.5010
    1C        C  237   4.274   4.108   4.152  0.4045  0.3428 -0.4179
    1C        C  238   4.329   3.900   4.038  0.2475  0.2310 -0.4420
    1C        C  239   4.242   4.009   4.058  0.0769  0.0131  0.0362
    1C        C  240   4.294   3.798   3.947  0.1128 -0.2138  0.0962
    1C        C  241   4.182   3.814   3.861 -0.0398 -0.5657  0.2278
    1C        C  242   4.204   3.583   3.785 -0.3664 -0.3017  0.7089
    1C        C  243   4.146   3.711   3.772 -0.2091 -0.3038 -0.0076
    1C        C  244   4.167   3.482   3.694 -0.1967  0.0487  0.2520
    1C        C  245   4.077   3.507   3.588 -0.1396 -0.1345  0.1624
    1C        C  246   4.080   3.273   3.529  0.3582  0.0119 -0.1837
    1C        C  247   4.032   3.403   3.504 -0.3320 -0.1505  0.2880
    1C        C  248   4.018   3.167   3.458  0.4857 -0.1306 -0.0779
    1C        C  249   3.921   3.192   3.359 -0.2105  0.0656  0.6429
    1C        C  250   3.882   2.949   3.343  0.2575 -0.0130 -0.4554
    1C        C  251   3.851   3.082   3.305 -0.1858  0.1454  0.4482
    1C        C  252   3.802   2.846   3.290 -0.1899 -0.0689  0.3106
    1C        C  253   3.714   2.872   3.182  0.6220  0.1710 -0.3064
    1C        C  254   3.637   2.640   3.181 -0.6528  0.2647  0.0481
    1C        C  255   3.638   2.768   3.123 -0.3126  0.4273  0.4159
    1C        C  256   3.569   2.534   3.116  0.0705 -0.0913 -0.1359
    1C        C  257   3.486   2.553   3.003  0.0894  0.1743 -0.1046
    1C        C  258   3.400   2.329   3.017 -0.4369  0.2519  0.2384
    1C        C  259   3.409   2.450   2.946  0.7897 -0.1902 -0.4124
    1C        C  260   3.318   2.230   2.959  0.0655  0.0146 -0.0945
    1C        C  261   3.254   2.243   2.834  0.0644  0.5030 -0.0484
    1C        C  262   3.113   2.052   2.876  0.3341  0.1220 -0.1095
    1C        C  263   3.159   2.150   2.785  0.2164  0.3039  0.0240
    1C        C  264   3.016   1.959   2.831  0.3811  0.0874 -0.1494
    1C        C  265   2.966   1.966   2.698 -0.5602  0.1568  0.2003
    1C        C  266   2.826   1.774   2.751  0.1216 -0.3372  0.4564
    1C        C  267   2.901   1.847   2.656  0.1643 -0.3517  0.4778
    1C        C  268   4.594   3.960   4.289  0.2344 -0.1630  0.3508
    1C        C  269   4.474   3.980   4.218  0.4748 -0.3572 -0.1177
    1C        C  270   4.496   3.751   4.147  0.2815  0.0757 -0.1213
    1C        C  271   4.436   3.878   4.128  0.0656 -0.0524 -0.2926
    1C        C  272   4.449   3.648   4.063 -0.0100 -0.0347  0.1760
    1C        C  273   4.355   3.672   3.961  0.4821 -0.0788 -0.2884
    1C        C  274   4.360   3.437   3.895  0.3859 -0.1915  0.1549
    1C        C  275   4.306   3.566   3.882  0.4923 -0.1790 -0.1565
    1C        C  276   4.309   3.328   3.821  0.0542  0.1062 -0.0462
    1C        C  277   4.220   3.353   3.714  0.0784  0.1154 -0.0583
    1C        C  278   4.173   3.118   3.695 -0.3358  0.1265  0.2038
    1C        C  279   4.165   3.247   3.639  0.1663  0.0540 -0.0294
    1C        C  280   4.104   3.013   3.632  0.0845  0.0606 -0.1419
    1C        C  281   4.035   3.037   3.511  0.2185 -0.2434 -0.2759
    1C        C  282   3.932   2.814   3.536 -0.4199  0.3918  0.1751
    1C        C  283   3.958   2.930   3.461  0.2217 -0.1560 -0.4589
    1C        C  284   3.842   2.716   3.489  0.0211  0.0943 -0.0529
    1C        C  285   3.785   2.725   3.360  0.0157 -0.3264 -0.0798
    1C        C  286   3.679   2.510   3.381 -0.1815  0.0929  0.0908
    1C        C  287   3.709   2.622   3.300 -0.4674  0.0356 -0.0981
    1C        C  288   3.597   2.410   3.325 -0.3691  0.0942  0.3572
    1C        C  289   3.548   2.418   3.193 -0.0233  0.1650  0.2290
    1C        C  290   3.419   2.212   3.227  0.0334 -0.0987 -0.4165
    1C        C  291   3.459   2.319   3.145  0.7949 -0.3129 -0.3400
    1C        C  292   3.312   2.131   3.183  0.1112 -0.2104 -0.4134
    1C        C  293   3.266   2.134   3.050  0.5426 -0.7134 -0.5798
    1C        C  294   3.094   1.971   3.104 -0.0522 -0.2219  0.0265
    1C        C  295   3.160   2.051   3.009  0.3621 -0.7189 -0.1153
    1C        C  296   2.983   1.893   3.065 -0.3756  0.1681  0.1464
    1C        C  297   2.949   1.881   2.928  0.5377  0.0355 -0.0778
    1C        C  298   2.775   1.713   2.986  0.5771 -0.7579 -0.0642
    1C        C  299   2.847   1.789   2.889 -0.2970  0.7298  0.4172
    1C        C  300   2.669   1.624   2.957 -0.3294  0.5095 -0.7000
    1C        C  301   4.679   3.850   4.272  0.3325 -0.0254 -0.0602
    1C        C  302   4.654   3.599   4.256  0.2411 -0.1421 -0.2182
    1C        C  303   4.617   3.732   4.221 -0.1483 -0.0439  0.5602
    1C        C  304   4.592   3.491   4.187  0.1638 -0.2186 -0.0283
    1C        C  305   4.496   3.517   4.086 -0.0641 -0.0422  0.2356
    1C        C  306   4.459   3.281   4.052 -0.3995 -0.1551  0.3129
    1C        C  307   4.446   3.413   4.005  0.6364 -0.1700 -0.0382
    1C        C  308   4.404   3.170   3.986 -0.3591 -0.0943  0.1894
    1C        C  309   4.329   3.197   3.869 -0.4321  0.1626  0.3021
    1C        C  310   4.232   2.974   3.879 -0.7489  0.3491  0.4413
    1C        C  311   4.252   3.094   3.809 -0.4086  0.1790  0.2584
    1C        C  312   4.147   2.872   3.830 -0.3082  0.2565 -0.1189
    1C        C  313   4.081   2.895   3.708 -0.0531 -0.0106 -0.3012
    1C        C  314   3.971   2.678   3.737 -0.3412  0.4755  0.5525
    1C        C  315   3.999   2.792   3.659  0.2200 -0.2293 -0.2834
    1C        C  316   3.891   2.577   3.681 -0.0558  0.3274  0.4167
    1C        C  317   3.812   2.603   3.567  0.8269 -0.3401 -0.3619
    1C        C  318   3.697   2.386   3.587  0.4239 -0.2643 -0.2474
    1C        C  319   3.734   2.499   3.511 -0.1275  0.1322  0.0712
    1C        C  320   3.587   2.306   3.548  0.3996 -0.3203 -0.0660
    1C        C  321   3.545   2.313   3.413 -0.2129 -0.2027  0.1249
    1C        C  322   3.366   2.156   3.460 -0.1391  0.7474  0.1342
    1C        C  323   3.446   2.224   3.365  0.1422 -0.3165 -0.4147
    1C        C  324   3.273   2.059   3.417  0.6377  0.0364  0.0216
    1C        C  325   3.243   2.053   3.279  0.6027 -0.1078  0.0302
    1C        C  326   3.044   1.922   3.336  0.1972  0.2451 -0.4225
    1C        C  327   3.131   1.977   3.240  0.7734 -0.2543 -0.1917
    1C        C  328   2.931   1.846   3.300 -0.0017  0.4003 -0.1610
    1C        C  329   2.906   1.825   3.162 -0.3970 -0.0666 -0.0282
    1C        C  330   2.696   1.721   3.218 -0.0271  0.2186  0.1641
    1C        C  331   2.800   1.741   3.123  0.0126 -0.6183  0.0129
    1C        C  332   2.571   1.662   3.181  0.2905 -0.2667 -0.1544
    1C        C  333   2.583   1.587   3.061  0.1965  0.1115 -0.4012
    1C        C  334   4.783   3.433   4.378  0.1091  0.1009  0.2118
    1C        C  335   4.757   3.566   4.347 -0.1267  0.0691  0.2731
    1C        C  336   4.694   3.330   4.340  0.3381 -0.0228  0.0111
    1C        C  337   4.612   3.357   4.227  0.0470 -0.1673  0.1913
    1C        C  338   4.528   3.130   4.233 -0.1446 -0.2358 -0.4519
    1C        C  339   4.541   3.253   4.164  0.2168 -0.0892 -0.1210
    1C        C  340   4.452   3.027   4.175  0.0092 -0.4875 -0.1962
    1C        C  341   4.386   3.046   4.052 -0.0907 -0.2836 -0.1024
    1C        C  342   4.268   2.836   4.083 -0.0423 -0.4072 -0.1556
    1C        C  343   4.295   2.950   4.003  0.1570 -0.4735 -0.1707
    1C        C  344   4.179   2.737   4.037  0.0144 -0.4553 -0.1393
    1C        C  345   4.127   2.755   3.907 -0.2269  0.3749  0.0731
    1C        C  346   3.985   2.557   3.947 -0.2637  0.0284 -0.0490
    1C        C  347   4.034   2.658   3.862  0.5436 -0.3275 -0.0089
    1C        C  348   3.886   2.469   3.898  0.1275 -0.2651 -0.3046
    1C        C  349   3.840   2.474   3.764 -0.6070  0.2327 -0.0319
    1C        C  350   3.680   2.298   3.812  0.3206 -0.5971 -0.2188
    1C        C  351   3.746   2.380   3.719  0.3162 -0.6036 -0.2245
    1C        C  352   3.559   2.234   3.776 -0.2498  0.1917  0.2424
    1C        C  353   3.516   2.228   3.641 -0.2868  0.6370  0.2337
    1C        C  354   3.324   2.096   3.695 -0.3060  0.2672  0.0697
    1C        C  355   3.398   2.165   3.597  0.1147 -0.0706  0.1408
    1C        C  356   3.211   2.023   3.651  0.1689 -0.2103 -0.3815
    1C        C  357   3.185   2.006   3.514  0.3252 -0.2507 -0.4107
    1C        C  358   2.960   1.926   3.569  0.2478  0.2109 -0.2855
    1C        C  359   3.063   1.948   3.474  0.3611 -0.4048 -0.3161
    1C        C  360   2.837   1.873   3.526 -0.1339  0.6829  0.1832
    1C        C  361   2.827   1.826   3.393  0.7262 -0.4694  0.4934
    1C        C  362   2.593   1.779   3.433  0.3803 -0.7560  0.2300
    1C        C  363   2.708   1.762   3.352  0.4672  0.2170  0.1264
    1C        C  364   2.465   1.746   3.385  0.3131 -0.7397  0.3789
    1C        C  365   2.453   1.683   3.258  0.3733  0.3762 -0.1941
    1C        C  366   2.212   1.743   3.256  0.1396 -0.7467  0.4383
    1C        C  367   2.325   1.686   3.198  0.1851 -0.3697  0.1485
    1C        C  368   4.766   3.171   4.517 -0.1340 -0.2890 -0.3337
    1C        C  369   4.690   3.201   4.402 -0.1590 -0.1482 -0.2788
    1C        C  370   4.578   2.987   4.427 -0.0189 -0.1848 -0.5514
    1C        C  371   4.599   3.106   4.353 -0.2667 -0.0104 -0.3385
    1C        C  372   4.474   2.901   4.384 -0.4081 -0.0085  0.0329
    1C        C  373   4.410   2.922   4.260 -0.2280 -0.3140 -0.1078
    1C        C  374   4.279   2.719   4.296  0.3122 -0.4290  0.2011
    1C        C  375   4.326   2.821   4.211 -0.4686 -0.1880  0.0590
    1C        C  376   4.190   2.617   4.252  0.0632 -0.1496  0.0689
    1C        C  377   4.143   2.629   4.120 -0.3999 -0.0192  0.2489
    1C        C  378   3.967   2.465   4.170 -0.3537  0.2166 -0.0267
    1C        C  379   4.037   2.546   4.077  0.0524 -0.3576 -0.2126
    1C        C  380   3.862   2.382   4.126  0.0491 -0.0408 -0.5007
    1C        C  381   3.829   2.377   3.989  0.3443 -0.6341 -0.5470
    1C        C  382   3.621   2.262   4.047  0.1015 -0.0553  0.1700
    1C        C  383   3.712   2.308   3.949 -0.4184  0.3871 -0.1069
    1C        C  384   3.500   2.202   4.007 -0.1698  0.4620  0.2147
    1C        C  385   3.473   2.176   3.871  0.0770 -0.2255  0.2902
    1C        C  386   3.259   2.076   3.926 -0.0173 -0.1795  0.2891
    1C        C  387   3.361   2.100   3.831 -0.3654  0.5209  0.0822
    1C        C  388   3.133   2.029   3.882  0.2090 -0.5097 -0.0306
    1C        C  389   3.110   1.998   3.746  0.1800  0.3102 -0.2247
    1C        C  390   2.874   1.955   3.795  0.2048  0.6491 -0.2354
    1C        C  391   2.984   1.951   3.706  0.1497  0.4442 -0.3038
    1C        C  392   2.746   1.922   3.747  0.1618  0.3259  0.0778
    1C        C  393   2.730   1.868   3.617 -0.1630  0.2517  0.1388
    1C        C  394   2.493   1.899   3.619 -0.1758  0.2535 -0.6282
    1C        C  395   2.605   1.835   3.562 -0.0209 -0.0266 -0.0405
    1C        C  396   2.370   1.900   3.549 -0.4059 -0.3435 -0.2557
    1C        C  397   2.350   1.808   3.444  0.1130 -0.5597 -0.1776
    1C        C  398   2.111   1.866   3.446 -0.0094  0.4439 -0.1357
    1C        C  399   2.221   1.797   3.386 -0.0819  0.0971  0.1132
    1C        C  400   1.977   1.849   3.405 -0.0704 -0.1404  0.2903
    1C        C  401   4.761   3.042   4.573  0.1761 -0.3724 -0.5022
    1C        C  402   4.578   2.882   4.642 -0.0711  0.1194 -0.1982
    1C        C  403   4.652   2.956   4.544 -0.2315  0.0866 -0.3452
    1C        C  404   4.466   2.803   4.605  0.0752 -0.1596 -0.0402
    1C        C  405   4.428   2.798   4.469  0.3529 -0.4719 -0.1058
    1C        C  406   4.252   2.633   4.523 -0.0266  0.1803  0.6018
    1C        C  407   4.321   2.715   4.430  0.1940 -0.4196  0.2333
    1C        C  408   4.143   2.552   4.486  0.6324 -0.5385  0.2185
    1C        C  409   4.118   2.542   4.347  0.5047 -0.3606  0.2323
    1C        C  410   3.912   2.424   4.397 -0.1235  0.7263 -0.0214
    1C        C  411   4.011   2.460   4.303 -0.1616  0.6657 -0.0770
    1C        C  412   3.794   2.357   4.361  0.2743  0.1050 -0.1619
    1C        C  413   3.771   2.336   4.224  0.5671 -0.3087 -0.1465
    1C        C  414   3.541   2.261   4.277  0.5244 -0.0964  0.2516
    1C        C  415   3.645   2.285   4.184  0.4703 -0.2865  0.1444
    1C        C  416   3.414   2.216   4.234  0.4674  0.0882  0.2306
    1C        C  417   3.398   2.174   4.101 -0.0073  0.0972  0.2845
    1C        C  418   3.160   2.146   4.138 -0.1077  0.1315  0.0162
    1C        C  419   3.274   2.122   4.058  0.0102  0.1393  0.1779
    1C        C  420   3.031   2.115   4.091  0.0671 -0.1599 -0.2797
    1C        C  421   3.021   2.050   3.965  0.0836 -0.1911 -0.2701
    1C        C  422   2.775   2.066   3.984  0.0223 -0.0986  0.4176
    1C        C  423   2.892   2.019   3.919 -0.1087 -0.3332  0.3360
    1C        C  424   2.647   2.052   3.927  0.0092  0.0625  0.3889
    1C        C  425   2.633   1.986   3.803 -0.0048 -0.4208  0.6352
    1C        C  426   2.404   2.057   3.783  0.5222 -0.1821 -0.2537
    1C        C  427   2.508   1.972   3.739  0.4970 -0.1136 -0.4755
    1C        C  428   2.279   2.055   3.718  0.2926  0.1409  0.1497
    1C        C  429   2.265   1.979   3.600  0.2457  0.3989 -0.0216
    1C        C  430   2.037   2.064   3.576  0.3153  0.3860 -0.0785
    1C        C  431   2.137   1.969   3.541  0.2747  0.3383 -0.0906
    1C        C  432   1.905   2.051   3.526  0.4058  0.5869 -0.3854
    1C        C  433   1.879   1.941   3.441  0.1962  0.1860  0.1857
    1C        C  434   4.560   2.786   4.868 -0.0924  0.5396  0.1539
    1C        C  435   4.614   2.877   4.778 -0.2511  0.3409 -0.1443
    1C        C  436   4.436   2.727   4.836  0.3021 -0.2039 -0.0099
    1C        C  437   4.393   2.727   4.701 -0.0470  0.1376  0.1007
    1C        C  438   4.201   2.591   4.757 -0.3662 -0.1097  0.3220
    1C        C  439   4.289   2.642   4.658 -0.0140 -0.1569  0.6164
    1C        C  440   4.078   2.535   4.717 -0.6734  0.8286 -0.0738
    1C        C  441   4.055   2.498   4.583  0.2210 -0.1805  0.0447
    1C        C  442   3.833   2.423   4.632 -0.4502  0.0664 -0.5690
    1C        C  443   3.933   2.445   4.535  0.2589 -0.2854  0.0767
    1C        C  444   3.708   2.372   4.590 -0.4694 -0.4696  0.1302
    1C        C  445   3.688   2.343   4.454  0.3978 -0.1603 -0.0665
    1C        C  446   3.448   2.326   4.487  0.1257  0.0496 -0.1387
    1C        C  447   3.563   2.294   4.412  0.3311 -0.3281  0.3362
    1C        C  448   3.318   2.290   4.443  0.1241  0.4336 -0.4506
    1C        C  449   3.302   2.225   4.319  0.3562 -0.9166  0.2049
    1C        C  450   3.061   2.254   4.329  0.1767 -0.4920  0.0744
    1C        C  451   3.174   2.190   4.271  0.2403 -0.4878  0.1891
    1C        C  452   2.932   2.241   4.274  0.1041 -0.4564  0.2278
    1C        C  453   2.916   2.160   4.159  0.2217 -0.0291 -0.0969
    1C        C  454   2.679   2.208   4.160 -0.0941 -0.0754  0.1261
    1C        C  455   2.787   2.135   4.107  0.0098 -0.1944  0.4799
    1C        C  456   2.556   2.206   4.092 -0.3700 -0.2336  0.6087
    1C        C  457   2.538   2.128   3.975 -0.0106  0.0919  0.3231
    1C        C  458   2.317   2.222   3.944  0.1592 -0.1264 -0.4018
    1C        C  459   2.418   2.132   3.902  0.5265  0.3511 -0.5763
    1C        C  460   2.198   2.230   3.868 -0.1760  0.1582  0.1264
    1C        C  461   2.174   2.137   3.764  0.3313  0.4313 -0.2498
    1C        C  462   1.958   2.244   3.720 -0.2010 -0.1254  0.2372
    1C        C  463   2.060   2.153   3.683  0.1796  0.4017 -0.0548
    1C        C  464   1.833   2.248   3.655 -0.2610 -0.2354  0.3335
    1C        C  465   1.805   2.147   3.561 -0.1273 -0.1708  0.2180
    1C        C  466   1.601   2.274   3.504 -0.2475 -0.0119  0.8074
    1C        C  467   1.682   2.160   3.494 -0.0572  0.1757  0.1502
    1C        C  468   4.368   2.682   5.072 -0.2939  0.2865  0.2292
    1C        C  469   4.340   2.684   4.934  0.4653 -0.4127  0.0586
    1C        C  470   4.121   2.585   4.988  0.1403 -0.0508  0.1517
    1C        C  471   4.220   2.623   4.893  0.2980 -0.2145  0.2546
    1C        C  472   3.992   2.545   4.946  0.1062  0.4572 -0.2293
    1C        C  473   3.978   2.503   4.812 -0.4360  0.1155 -0.0641
    1C        C  474   3.739   2.473   4.852  0.4717 -0.7036  0.1925
    1C        C  475   3.852   2.458   4.768  0.0181 -0.8661 -0.3826
    1C        C  476   3.610   2.459   4.797  0.3028 -0.0260  0.4180
    1C        C  477   3.595   2.398   4.670 -0.1121 -0.1807  0.5436
    1C        C  478   3.354   2.437   4.677  0.0031 -0.0725 -0.2584
    1C        C  479   3.466   2.373   4.619  0.1142 -0.0009 -0.1212
    1C        C  480   3.224   2.421   4.625 -0.0240  0.0161 -0.2155
    1C        C  481   3.205   2.345   4.507  0.0644  0.1746 -0.3327
    1C        C  482   2.973   2.410   4.494 -0.0820  0.0109 -0.2323
    1C        C  483   3.080   2.333   4.444  0.2449  0.8343 -0.8269
    1C        C  484   2.842   2.387   4.448 -0.1815 -0.4910  0.2871
    1C        C  485   2.821   2.297   4.341  0.0800 -0.1810 -0.0304
    1C        C  486   2.610   2.402   4.290  0.0224  0.1588  0.1121
    1C        C  487   2.699   2.294   4.270  0.1763  0.3404 -0.2340
    1C        C  488   2.488   2.405   4.220  0.0830  0.4801  0.0036
    1C        C  489   2.462   2.307   4.121 -0.2057 -0.0650  0.5936
    1C        C  490   2.262   2.431   4.053  0.2544 -0.4083 -0.0123
    1C        C  491   2.352   2.324   4.034  0.2105 -0.4537 -0.0344
    1C        C  492   2.138   2.433   3.986  0.3360  0.0565 -0.1761
    1C        C  493   2.103   2.329   3.898 -0.5720 -0.3584  0.6382
    1C        C  494   1.922   2.468   3.807  0.0495  0.0301  0.3610
    1C        C  495   1.991   2.344   3.814 -0.4156 -0.2330  0.4374
    1C        C  496   1.818   2.484   3.714  0.0455 -0.0288  0.3455
    1C        C  497   1.762   2.371   3.650  0.1728  0.0153  0.1400
    1C        C  498   1.631   2.522   3.507 -0.1782  0.0295 -0.1323
    1C        C  499   1.651   2.393   3.564  0.2884  0.1643  0.0228
    1C        C  500   1.537   2.553   3.406 -0.4105  0.1175  0.1078
    1C        C  501   4.275   2.637   5.167 -0.0366  0.1049  0.3960
    1C        C  502   4.029   2.643   5.205 -0.3990  0.3759 -0.3438
    1C        C  503   4.142   2.604   5.127 -0.0464  0.4897  0.1090
    1C        C  504   3.899   2.644   5.147 -0.5522  0.0901 -0.0041
    1C        C  505   3.879   2.577   5.024  0.1346 -0.5741  0.2405
    1C        C  506   3.637   2.597   5.037  0.1257 -0.4467  0.0886
    1C        C  507   3.752   2.545   4.972  0.1675  0.0229 -0.2113
    1C        C  508   3.516   2.601   4.965  0.1468 -0.3869  0.0594
    1C        C  509   3.500   2.534   4.842 -0.0474 -0.3168  0.0480
    1C        C  510   3.254   2.567   4.857 -0.0224  0.1688 -0.5044
    1C        C  511   3.369   2.516   4.792 -0.0039 -0.3902 -0.0392
    1C        C  512   3.128   2.565   4.794 -0.1821 -0.1858 -0.1788
    1C        C  513   3.111   2.488   4.677 -0.2672 -0.6764  0.1551
    1C        C  514   2.889   2.587   4.641  0.2048 -0.0344  0.3733
    1C        C  515   2.987   2.490   4.609 -0.1801 -0.3109  0.0069
    1C        C  516   2.761   2.576   4.581  0.3753 -0.1677  0.0207
    1C        C  517   2.743   2.483   4.477  0.2729  0.1586 -0.2589
    1C        C  518   2.553   2.613   4.400 -0.0558  0.0734 -0.4842
    1C        C  519   2.642   2.505   4.381  0.4953  0.4997 -0.4244
    1C        C  520   2.432   2.618   4.327 -0.1599  0.2963 -0.3129
    1C        C  521   2.403   2.517   4.234 -0.4083  0.1346 -0.0758
    1C        C  522   2.210   2.646   4.154  0.0479  0.3030 -0.3004
    1C        C  523   2.288   2.528   4.153 -0.2035  0.1261 -0.3896
    1C        C  524   2.099   2.661   4.069 -0.1282  0.1742 -0.1129
    1C        C  525   2.066   2.555   3.982 -0.2135 -0.2307  0.4007
    1C        C  526   1.907   2.702   3.865 -0.2482  0.0734 -0.0692
    1C        C  527   1.961   2.575   3.891  0.2067  0.2691  0.0012
    1C        C  528   1.814   2.724   3.761  0.0151  0.0750 -0.3146
    1C        C  529   1.775   2.614   3.682  0.1069 -0.1121 -0.1103
    1C        C  530   1.625   2.764   3.557 -0.4193 -0.2476 -0.0266
    1C        C  531   1.675   2.633   3.584  0.3124 -0.0339 -0.3116
    1C        C  532   1.532   2.790   3.453 -0.5812  0.0484  0.1891
    1C        C  533   1.479   2.678   3.386 -0.5389  0.0629  0.1293
    1C        C  534   3.930   2.777   5.384  0.2767  0.0617  0.0048
    1C        C  535   4.040   2.715   5.326  0.1766  0.1103 -0.2364
    1C        C  536   3.799   2.756   5.335  0.1744  0.0606  0.2774
    1C        C  537   3.782   2.695   5.208 -0.4503 -0.3624  0.5649
    1C        C  538   3.544   2.745   5.209  0.0384 -0.0303  0.2430
    1C        C  539   3.654   2.678   5.151 -0.1745 -0.0267 -0.1631
    1C        C  540   3.421   2.742   5.142  0.4473 -0.0351 -0.5148
    1C        C  541   3.404   2.664   5.025 -0.0499 -0.6193 -0.0636
    1C        C  542   3.176   2.746   4.999 -0.1597 -0.2331 -0.0560
    1C        C  543   3.275   2.651   4.968  0.0562  0.1320 -0.4905
    1C        C  544   3.053   2.755   4.929 -0.3679  0.1851  0.3567
    1C        C  545   3.028   2.657   4.831  0.2346  0.0831  0.2947
    1C        C  546   2.823   2.780   4.768  0.4287  0.1915 -0.4430
    1C        C  547   2.910   2.669   4.754 -0.0180 -0.3069  0.6154
    1C        C  548   2.705   2.788   4.691 -0.0002 -0.5219  0.1214
    1C        C  549   2.670   2.681   4.605  0.0554 -0.4284 -0.0258
    1C        C  550   2.492   2.820   4.513  0.7970  0.0777 -0.0991
    1C        C  551   2.572   2.704   4.506  0.2612 -0.2994 -0.2084
    1C        C  552   2.383   2.836   4.425  0.4102  0.1174  0.3663
    1C        C  553   2.349   2.732   4.336 -0.2096  0.2177  0.4704
    1C        C  554   2.171   2.870   4.236 -0.5426 -0.2335  0.3728
    1C        C  555   2.238   2.746   4.250  0.2248  0.1055 -0.1278
    1C        C  556   2.079   2.895   4.132 -0.1766 -0.3445  0.0057
    1C        C  557   2.039   2.788   4.050 -0.5093 -0.0206 -0.2740
    1C        C  558   1.908   2.942   3.912  0.4375  0.4677 -0.5750
    1C        C  559   1.945   2.810   3.947 -0.5388  0.2815 -0.1929
    1C        C  560   1.824   2.964   3.801 -0.2927 -0.1565 -0.1617
    1C        C  561   1.774   2.855   3.726 -0.0282 -0.0007 -0.5794
    1C        C  562   1.670   3.007   3.570 -0.0049  0.1005  0.1729
    1C        C  563   1.683   2.876   3.620 -0.5073 -0.1000 -0.1987
    1C        C  564   1.587   3.029   3.458 -0.4779  0.3720  0.5669
    1C        C  565   1.515   2.922   3.400 -0.0378  0.1863  0.3528
    1C        C  566   1.407   3.087   3.254 -0.0146  0.0887  0.5132
    1C        C  567   1.419   2.956   3.302  0.2635 -0.0960 -0.0445
    1C        C  568   3.692   2.896   5.509 -0.2307  0.1841 -0.1946
    1C        C  569   3.686   2.828   5.386 -0.0283  0.0172 -0.1115
    1C        C  570   3.461   2.924   5.354 -0.5811  0.0308 -0.2085
    1C        C  571   3.558   2.825   5.325 -0.0315  0.5412 -0.1358
    1C        C  572   3.350   2.938   5.267 -0.2726 -0.1051 -0.6284
    1C        C  573   3.321   2.837   5.173 -0.0155 -0.6297 -0.1485
    1C        C  574   3.114   2.953   5.114  0.1298 -0.1898  0.3731
    1C        C  575   3.205   2.847   5.094 -0.0543 -0.2693 -0.0502
    1C        C  576   2.998   2.966   5.035 -0.0057 -0.2793  0.5567
    1C        C  577   2.963   2.862   4.947 -0.1295  0.5089 -0.3370
    1C        C  578   2.781   3.002   4.860 -0.4667  0.0562  0.5722
    1C        C  579   2.847   2.877   4.867 -0.3045  0.0911 -0.1639
    1C        C  580   2.672   3.016   4.771  0.1250 -0.1615 -0.2063
    1C        C  581   2.626   2.904   4.698  0.4164 -0.2008 -0.3379
    1C        C  582   2.466   3.052   4.582  0.2061  0.2690  0.0102
    1C        C  583   2.522   2.924   4.605  0.3742  0.2982 -0.1970
    1C        C  584   2.370   3.071   4.481 -0.6255 -0.2877  0.6663
    1C        C  585   2.320   2.961   4.408  0.2579 -0.0419 -0.3591
    1C        C  586   2.196   3.112   4.262 -0.1767 -0.0493  0.3521
    1C        C  587   2.227   2.981   4.303 -0.2454 -0.1713  0.0454
    1C        C  588   2.097   3.139   4.165 -0.0856  0.0591  0.2786
    1C        C  589   2.043   3.027   4.097 -0.0218 -0.1473  0.5503
    1C        C  590   1.948   3.181   3.932 -0.3810 -0.1203  0.4117
    1C        C  591   1.965   3.050   3.982 -0.3829  0.0282  0.8188
    1C        C  592   1.884   3.200   3.807 -0.0641  0.0866  0.2726
    1C        C  593   1.814   3.094   3.745  0.3927 -0.0438 -0.0329
    1C        C  594   1.733   3.245   3.572  0.2437 -0.1024  0.0250
    1C        C  595   1.734   3.117   3.632 -0.4257  0.1335  0.5662
    1C        C  596   1.657   3.267   3.455 -0.0390  0.0298  0.2290
    1C        C  597   1.580   3.160   3.404 -0.2657  0.2243  0.1645
    1C        C  598   1.559   3.283   3.195  0.3451 -0.1181  0.0477
    1C        C  599   1.508   3.183   3.284 -0.6915  0.8070  0.5184
    1C        C  600   1.518   3.288   3.061  0.0315 -0.4710  0.1270
    1C        C  601   3.593   2.988   5.546  0.1865  0.5265  0.0838
    1C        C  602   3.407   3.136   5.459  0.1764 -0.2520 -0.6282
    1C        C  603   3.480   3.014   5.462  0.1108 -0.2780 -0.0714
    1C        C  604   3.310   3.157   5.357  0.3454  0.7194 -0.5972
    1C        C  605   3.268   3.053   5.271  0.2218  0.2303  0.0537
    1C        C  606   3.073   3.180   5.204  0.2832  0.1250 -0.5242
    1C        C  607   3.150   3.062   5.195  0.4447  0.2139 -0.2977
    1C        C  608   2.970   3.198   5.109 -0.0838  0.1929 -0.1182
    1C        C  609   2.939   3.093   5.019 -0.6575 -0.5319  0.8983
    1C        C  610   2.777   3.241   4.909 -0.2245 -0.0973  0.3702
    1C        C  611   2.838   3.115   4.922 -0.1273 -0.0436  0.4473
    1C        C  612   2.662   3.253   4.829 -0.2151 -0.1999  0.3389
    1C        C  613   2.616   3.144   4.752  0.2719 -0.0820 -0.1295
    1C        C  614   2.471   3.292   4.624 -0.3299 -0.0272  0.0890
    1C        C  615   2.510   3.161   4.660 -0.3014  0.1032  0.5464
    1C        C  616   2.388   3.311   4.511  0.0157 -0.3758 -0.2369
    1C        C  617   2.333   3.201   4.442 -0.1687 -0.3743 -0.1059
    1C        C  618   2.224   3.355   4.287  0.3252  0.0828 -0.1923
    1C        C  619   2.257   3.223   4.324  0.5735  0.0436 -0.5206
    1C        C  620   2.144   3.379   4.173  0.4100 -0.2680 -0.3342
    1C        C  621   2.078   3.269   4.114  0.0699 -0.1165 -0.2540
    1C        C  622   2.003   3.420   3.934 -0.4532  0.0937  0.0062
    1C        C  623   2.004   3.293   3.997 -0.2427  0.0731 -0.0248
    1C        C  624   1.948   3.433   3.805 -0.1578  0.1794 -0.1150
    1C        C  625   1.883   3.325   3.742 -0.1591  0.0244  0.1463
    1C        C  626   1.837   3.463   3.548  0.6400 -0.1403 -0.2261
    1C        C  627   1.802   3.353   3.630  0.3030 -0.0167 -0.2015
    1C        C  628   1.786   3.475   3.417 -0.4261 -0.0978  0.1766
    1C        C  629   1.699   3.374   3.373 -1.1132  0.4633  0.2381
    1C        C  630   1.721   3.464   3.147  0.0592  0.1655 -0.0754
    1C        C  631   1.650   3.382   3.241 -0.3737  0.5860 -0.0317
    1C        C  632   1.680   3.465   3.011 -0.0439 -0.2408 -0.0509
    1C        C  633   1.579   3.375   2.971 -0.6235  0.2234  0.3363
    1C        C  634   3.375   3.370   5.538 -0.0050 -0.1284 -0.4076
    1C        C  635   3.449   3.253   5.526 -0.1247 -0.1898 -0.5479
    1C        C  636   3.261   3.376   5.455 -0.3892  0.1235  0.1361
    1C        C  637   3.226   3.272   5.366 -0.3883  0.1342  0.1249
    1C        C  638   3.046   3.413   5.282  0.0904  0.0779 -0.4864
    1C        C  639   3.106   3.286   5.292 -0.3120 -0.0831 -0.0379
    1C        C  640   2.946   3.429   5.183 -0.5560  0.3802  0.2064
    1C        C  641   2.903   3.322   5.103 -0.2159  0.1451  0.3380
    1C        C  642   2.754   3.472   4.980  0.0180 -0.1972  0.2192
    1C        C  643   2.819   3.347   4.992  0.8930  0.1760 -0.5144
    1C        C  644   2.657   3.490   4.879  0.2901 -0.0252 -0.0142
    1C        C  645   2.602   3.380   4.809  0.7842  0.1295 -0.6635
    1C        C  646   2.494   3.533   4.656  0.6543 -0.1164 -0.6228
    1C        C  647   2.513   3.401   4.702  0.0723 -0.0283 -0.1151
    1C        C  648   2.420   3.554   4.537  0.4242 -0.2944 -0.5149
    1C        C  649   2.364   3.444   4.469  0.5301 -0.3606 -0.5027
    1C        C  650   2.303   3.581   4.280  0.0925 -0.2962 -0.4133
    1C        C  651   2.283   3.463   4.355 -0.4658  0.2243  0.2808
    1C        C  652   2.232   3.606   4.161 -0.0854  0.1653 -0.2192
    1C        C  653   2.148   3.505   4.110 -0.4348  0.1388  0.3871
    1C        C  654   2.134   3.627   3.900  0.6115 -0.5615 -0.0009
    1C        C  655   2.091   3.520   3.982  0.5953 -0.7054 -0.1896
    1C        C  656   2.071   3.645   3.775  0.3009  0.0125  0.2322
    1C        C  657   1.984   3.545   3.726 -0.2824  0.4941  0.2679
    1C        C  658   1.972   3.660   3.511  0.2964 -0.0607 -0.0167
    1C        C  659   1.925   3.561   3.599 -0.3026  0.4717  0.2734
    1C        C  660   1.937   3.663   3.374 -0.4142 -0.0340  0.1671
    1C        C  661   1.850   3.562   3.326 -0.4061 -0.0660  0.2203
    1C        C  662   1.890   3.640   3.099  0.2192 -0.0909  0.0827
    1C        C  663   1.819   3.556   3.188 -0.2633  0.4037  0.1667
    1C        C  664   1.858   3.627   2.962  0.4091 -0.2893  0.0545
    1C        C  665   1.746   3.552   2.918  0.3184 -0.2434  0.1993
    1C        C  666   1.707   3.572   2.784 -0.2839  0.2809  0.4448
    1C        C  667   3.214   3.604   5.549 -0.0023  0.3913 -0.0854
    1C        C  668   3.189   3.500   5.458  0.0293  0.3735 -0.0731
    1C        C  669   3.033   3.650   5.338  0.1598 -0.1786 -0.0507
    1C        C  670   3.081   3.520   5.367 -0.2753 -0.2959  0.1399
    1C        C  671   2.933   3.669   5.240 -0.4781  0.2473  0.6786
    1C        C  672   2.891   3.558   5.164 -0.1590  0.5320  0.0854
    1C        C  673   2.773   3.711   5.014 -0.8882  0.0184  0.4873
    1C        C  674   2.800   3.580   5.058 -0.3630  0.0156  0.1528
    1C        C  675   2.714   3.729   4.887  0.9035 -0.0109 -0.3717
    1C        C  676   2.653   3.620   4.823 -0.5442  0.2146  0.5844
    1C        C  677   2.566   3.767   4.651 -0.6717  0.0808  0.4514
    1C        C  678   2.567   3.640   4.712 -0.2967  0.0342  0.3555
    1C        C  679   2.501   3.785   4.527 -0.1495 -0.3462  0.1066
    1C        C  680   2.426   3.679   4.471 -0.6211  0.0374 -0.0115
    1C        C  681   2.388   3.810   4.272  0.4043 -0.2227 -0.1839
    1C        C  682   2.373   3.688   4.341 -0.9470  0.0995  0.1211
    1C        C  683   2.336   3.827   4.142 -0.0152  0.0328  0.0125
    1C        C  684   2.263   3.721   4.085 -0.3340  0.3101 -0.1126
    1C        C  685   2.240   3.847   3.880  0.4967  0.0825 -0.3324
    1C        C  686   2.219   3.727   3.951 -0.4029  0.3666 -0.0915
    1C        C  687   2.201   3.849   3.744 -0.3016  0.2140 -0.1115
    1C        C  688   2.120   3.747   3.690 -0.0079 -0.0611 -0.0398
    1C        C  689   2.152   3.818   3.466  0.2834 -0.1489 -0.0021
    1C        C  690   2.071   3.750   3.558 -0.1752  0.4356  0.0314
    1C        C  691   2.114   3.823   3.330 -0.2525 -0.0421  0.1507
    1C        C  692   2.002   3.751   3.285 -0.4715  0.1826  0.3402
    1C        C  693   1.986   3.732   3.146 -0.1262  0.1555  0.3042
    1C        C  694   3.161   3.731   5.525 -0.5536  0.2128  0.1646
    1C        C  695   3.041   3.893   5.378 -0.0802  0.1288  0.0823
    1C        C  696   3.080   3.760   5.414 -0.1296  0.0411 -0.1924
    1C        C  697   2.976   3.912   5.254 -0.6037 -0.0717  0.3251
    1C        C  698   2.925   3.799   5.187 -0.3658 -0.0069  0.0443
    1C        C  699   2.830   3.945   5.015  0.2726 -0.0044 -0.0563
    1C        C  700   2.837   3.819   5.078 -0.2279 -0.0415 -0.0702
    1C        C  701   2.775   3.963   4.886  0.1430  0.0570  0.0082
    1C        C  702   2.698   3.858   4.831  0.0985  0.0717  0.0447
    1C        C  703   2.653   3.997   4.635 -0.2512 -0.1220 -0.1594
    1C        C  704   2.633   3.877   4.707  0.3963 -0.2388 -0.1617
    1C        C  705   2.593   4.013   4.509  0.1901 -0.6013 -0.4383
    1C        C  706   2.511   3.909   4.460 -0.1607 -0.4740 -0.1398
    1C        C  707   2.509   4.021   4.243  0.0694  0.2494  0.0916
    1C        C  708   2.467   3.915   4.326 -0.2017  0.1989 -0.1026
    1C        C  709   2.461   4.036   4.111 -0.0895  0.4023  0.1637
    1C        C  710   2.368   3.941   4.065 -0.3767  0.4978  0.5258
    1C        C  711   2.413   4.011   3.836 -0.0166  0.2716  0.4921
    1C        C  712   2.330   3.944   3.929 -0.0628  0.2333  0.4268
    1C        C  713   2.382   4.002   3.699  0.2198  0.0741  0.4486
    1C        C  714   2.277   3.922   3.650  0.2172  0.1806  0.2750
    1C        C  715   2.251   3.909   3.512 -0.2188  0.2217  0.3524
    1C        C  716   3.041   4.138   5.404 -0.4148  0.5566 -0.1978
    1C        C  717   3.085   4.011   5.442 -0.4684  0.5001 -0.3296
    1C        C  718   3.000   4.157   5.270  0.0064  0.0031 -0.4049
    1C        C  719   2.949   4.042   5.204  0.2085 -0.1424 -0.3060
    1C        C  720   2.920   4.172   5.000  0.5741 -0.0981 -0.3597
    1C        C  721   2.892   4.056   5.075 -0.2668  0.2981 -0.0526
    1C        C  722   2.877   4.182   4.866 -0.2117  0.2522 -0.0876
    1C        C  723   2.798   4.079   4.810 -0.6474  0.3884  0.2690
    1C        C  724   2.776   4.205   4.605 -0.7107  0.4576  0.1316
    1C        C  725   2.727   4.104   4.690  0.0122 -0.2433 -0.2668
    1C        C  726   2.739   4.206   4.469 -0.1177  0.0768 -0.0352
    1C        C  727   2.640   4.116   4.424 -0.2932  0.1549  0.1856
    1C        C  728   2.694   4.170   4.192  0.2782 -0.1878 -0.0289
    1C        C  729   2.607   4.112   4.287  0.1367  0.1890  0.0759
    1C        C  730   2.657   4.174   4.056  0.1531 -0.2057  0.0032
    1C        C  731   2.540   4.106   4.017 -0.0985  0.2140  0.0132
    1C        C  732   2.524   4.087   3.878  0.2829  0.1151 -0.0179
    1C        C  733   3.088   4.394   5.238 -0.2747  0.3148  0.0929
    1C        C  734   3.033   4.273   5.192  0.2725  0.1355 -0.0954
    1C        C  735   3.077   4.356   4.963  0.3705  0.1291  0.0722
    1C        C  736   3.010   4.267   5.052  0.4423 -0.1085 -0.1122
    1C        C  737   3.038   4.360   4.827  0.3027 -0.1345  0.0839
    1C        C  738   2.930   4.281   4.782  0.4245 -0.1531 -0.1724
    1C        C  739   2.954   4.362   4.556 -0.2322  0.0557  0.1631
    1C        C  740   2.878   4.291   4.651 -0.1861 -0.1209  0.0711
    1C        C  741   2.938   4.343   4.417  0.2270 -0.6650  0.2036
    1C        C  742   2.823   4.271   4.376  0.2400 -0.5015 -0.1280
    1C        C  743   2.804   4.246   4.238  0.1604  0.1141 -0.2354
    1C        C  744   3.152   4.485   5.154 -0.1921  0.5908  0.4511
    1C        C  745   3.220   4.546   4.921  0.1847 -0.8086 -0.1728
    1C        C  746   3.162   4.456   5.016  0.2041 -0.0096  0.5990
    1C        C  747   3.204   4.528   4.782  0.7499 -0.5488 -0.2743
    1C        C  748   3.096   4.449   4.735 -0.2350  0.4345  0.2886
    1C        C  749   3.069   4.433   4.597 -0.1693 -0.1506  0.3445
    1C        C  750   3.330   4.624   4.961 -0.2622 -0.3031  0.0754
    1C        O  751   4.327   2.582   5.285  0.2655 -0.1990  0.1234
    1C        H  752   4.424   2.590   5.309  0.5347  0.9139 -1.1759
    1C        O  753   3.571   2.989   5.684  0.6486  0.1268  0.1625
    1C        H  754   3.639   2.947   5.746  1.2539  2.4392  1.1772
    1C        O  755   4.879   3.001   4.636 -0.1866  0.2360  0.6031
    1C        H  756   4.947   3.076   4.639 -1.5223  1.5739 -0.7465
    1C        O  757   3.041   4.235   5.506 -0.4018  0.3902 -0.0392
    1C        H  758   3.089   4.191   5.583 -1.0206 -1.1503 -0.4957
    1C        O  759   3.415   4.823   4.887 -0.1038 -0.1310 -0.3112
    1C        H  760   3.382   4.872   4.969  1.5785  0.9102 -0.2060
    1C        O  761   4.817   3.872   4.260  0.3720 -0.0973  0.2603
    1C        H  762   4.861   3.953   4.300  0.1773  0.1028  0.0735
    1C        O  763   4.253   4.579   4.411 -0.1036  0.2763  0.4379
    1C        H  764   4.270   4.657   4.473  1.9221 -0.6987  1.2113
    1C        O  765   2.480   1.500   3.022  0.0824 -0.0964  0.3446
    1C        H  766   2.491   1.461   2.929  0.0150  0.8929 -0.0879
    1C        O  767   2.982   1.774   2.569 -0.3408 -0.2327 -0.1041
    1C        H  768   2.940   1.691   2.530  0.9401 -1.8804  1.8099
    1C        O  769   1.462   2.260   3.492 -0.1959  0.2858 -0.2723
    1C        H  770   1.434   2.165   3.472  0.3524 -0.3294  1.6392
    1C        O  771   3.057   2.586   2.081  0.2713  0.6361 -0.0802
    1C        H  772   3.069   2.496   2.037  1.7125 -0.1251  1.7542
    1C        O  773   2.663   3.479   2.031 -0.4350 -0.1428 -0.1204
    1C        H  774   2.680   3.449   1.937 -1.6901  2.6410 -1.3643
    1C        O  775   1.883   3.802   2.424  0.5462 -0.0781 -0.1710
    1C        H  776   1.878   3.792   2.324  0.3538 -2.0066 -0.0102
    1C        O  777   1.278   3.120   3.212 -0.0843 -0.7027  0.0663
    1C        H  778   1.208   3.048   3.219 -0.5561 -0.2201  0.4049
    1C        H  779   4.125   2.702   5.392 -0.2263 -2.8233 -0.1617
    1C        H  780   3.955   2.861   5.446  0.7019  1.3860 -1.8655
    1C        H  781   3.702   2.824   5.588 -0.8177 -0.5379 -0.7510
    1C        H  782   3.555   3.264   5.543  0.4394 -2.6820 -1.9281
    1C        H  783   3.388   3.425   5.630 -1.2116 -1.7891  0.8003
    1C        H  784   4.454   2.728   5.118  0.4296 -1.5524  0.7995
    1C        H  785   4.629   2.749   4.942  0.9805 -0.9504 -1.5215
    1C        H  786   4.679   2.952   4.821  0.5994 -1.4349  1.8166
    1C        H  787   4.770   3.250   4.591 -0.2216  2.5538 -3.1593
    1C        H  788   4.872   3.410   4.433  1.7571  2.7007 -1.1652
    1C        H  789   4.821   3.640   4.392  0.3416 -0.5922  0.7111
    1C        H  790   4.630   4.046   4.342 -0.1612  0.5419 -0.4970
    1C        H  791   4.413   4.121   4.447 -0.7565  1.6580  0.8907
    1C        H  792   4.343   4.352   4.448  1.1137 -1.8913  0.2723
    1C        H  793   4.039   4.694   4.427  0.9598 -0.3282  1.2349
    1C        H  794   3.840   4.521   4.682  1.7674  0.5623 -1.2706
    1C        H  795   3.681   4.630   4.813  0.4291 -0.1481 -0.3065
    1C        H  796   3.386   4.593   5.048 -0.9567 -2.2598 -0.1192
    1C        H  797   3.206   4.564   5.204  0.9761  0.8233 -1.0979
    1C        H  798   3.114   4.406   5.342  0.0186  1.8661 -0.1326
    1C        H  799   3.188   4.009   5.475 -0.3042 -0.4169 -0.8762
    1C        H  800   3.158   3.796   5.612  0.1720  0.3789  0.0711
    1C        H  801   3.219   3.586   5.656 -0.8409  0.8704  0.0459
    1C        H  802   1.635   2.081   3.437 -1.2271  0.4187  0.7318
    1C        H  803   1.783   1.896   3.461  1.6277 -2.9274  0.6986
    1C        H  804   1.931   1.753   3.386  0.7484 -0.4978  0.0512
    1C        H  805   2.131   1.767   3.189  3.0573  0.3340 -3.0424
    1C        H  806   2.300   1.611   3.125  0.4871 -2.1100  1.7571
    1C        H  807   2.687   1.538   2.894  2.4009 -1.3000  2.2600
    1C        H  808   2.754   1.700   2.719  0.6030 -1.5518  2.0423
    1C        H  809   2.856   2.054   2.464 -0.4270  0.7204  1.3557
    1C        H  810   2.948   2.219   2.314  0.6895  2.5406  0.2386
    1C        H  811   3.018   2.373   2.195 -1.0536  0.2884 -0.0551
    1C        H  812   2.842   2.784   2.129 -1.0939  1.5334 -2.0784
    1C        H  813   2.759   2.986   2.095 -0.7073  2.0259  0.7256
    1C        H  814   2.774   3.231   2.017  1.3702 -0.0335  0.2220
    1C        H  815   2.430   3.512   2.125 -0.0070  2.3388 -0.7518
    1C        H  816   2.084   3.726   2.308  1.5582 -0.3326 -1.1855
    1C        H  817   2.243   3.547   2.266  0.8413 -1.3195 -1.2830
    1C        H  818   1.793   3.582   2.598  2.2623  1.2034 -1.0763
    1C        H  819   1.605   3.558   2.751 -0.4077  0.3731  0.7797
    1C        H  820   1.551   3.357   2.869  0.3088 -1.7679  0.3739
    1C        H  821   1.428   3.239   3.026 -1.0066 -0.1427  2.1950
    1C        H  822   1.333   2.891   3.289  0.0760  0.0420  0.4742
    1C        H  823   1.376   2.666   3.358 -1.1508  0.8384  1.9331
    1C        H  824   1.473   2.478   3.362 -1.4988  1.0991 -0.0414
    2SOL     OW  825   1.188   6.836   1.446 -0.1821 -0.4471  0.2058
    2SOL    HW1  826   1.098   6.799   1.470 -0.6821  0.0780 -0.8009
    2SOL    HW2  827   1.251   6.760   1.427 -0.5970 -0.8095  0.2609
    3SOL     OW  828   4.676   1.858   4.475  0.6184 -0.4789 -0.4714
    3SOL    HW1  829   4.646   1.795   4.547  0.0955  0.0321 -0.2400
    3SOL    HW2  830   4.773   1.878   4.487  0.0796  1.3275  1.4374
    4SOL     OW  831   5.626   5.898   1.571  0.1396 -0.4772  0.1195
    4SOL    HW1  832   5.653   5.803   1.581  2.2740 -0.1571 -1.8501
    4SOL    HW2  833   5.595   5.934   1.660 -0.9735 -3.0128  0.8370
    5SOL     OW  834   5.674   1.604   5.751  0.2793  0.1873 -0.2086
    5SOL    HW1  835   5.727   1.664   5.811  0.7260  0.6138 -1.0078
    5SOL    HW2  836   5.629   1.659   5.680  1.0943 -0.4497 -1.2481
    6SOL     OW  837   0.158   1.789   3.288  0.1924 -0.5306  0.0349
    6SOL    HW1  838   0.063   1.758   3.280  0.2807 -0.4440 -1.8937
    6SOL    HW2  839   0.219   1.711   3.274  0.4589 -0.8343  2.4766
    7SOL     OW  840   3.821   5.578   5.018 -0.0895  0.0160  0.0830
    7SOL    HW1  841   3.920   5.564   5.025 -0.3131 -1.3788  0.6699
    7SOL    HW2  842   3.784   5.603   5.107 -0.0712  2.1135 -0.4472
    8SOL     OW  843   5.637   0.408   1.234 -0.0976 -0.0535 -0.3425
    8SOL    HW1  844   5.716   0.446   1.186  1.2701  0.0640  1.8603
    8SOL    HW2  845   5.573   0.482   1.257 -0.4785 -0.0327 -1.3922
    9SOL     OW  846   0.354   6.611   4.052  0.0008 -0.6034  0.7556
    9SOL    HW1  847   0.305   6.558   4.121  1.8127  0.7242  3.1994
    9SOL    HW2  848   0.439   6.565   4.028  0.2046 -0.2007  0.7046
   10SOL     OW  849   1.961   6.130   0.502  0.1180 -0.1501  0.7723
   10SOL    HW1  850   2.043   6.186   0.488  0.3117 -0.2750  1.3829
   10SOL    HW2  851   1.915   6.159   0.586 -0.1031 -0.5136  0.7790
   11SOL     OW  852   2.730   4.886   0.611  0.2057 -0.1229  0.2014
   11SOL    HW1  853   2.827   4.907   0.595 -0.2158  0.5540 -1.8258
   11SOL    HW2  854   2.696   4.943   0.686  0.9519  1.0253 -0.2861
   12SOL     OW  855   6.597   4.449   2.118 -0.0351  0.1071  0.4059
   12SOL    HW1  856   6.661   4.491   2.055  1.6844 -1.8830  0.7228
   12SOL    HW2  857   6.623   4.472   2.212 -1.5092  1.5851  0.4856
   13SOL     OW  858   4.905   0.130   2.018 -0.1291  0.0702  0.5073
   13SOL    HW1  859   4.855   0.158   2.101 -0.6367  1.1927 -0.1557
   13SOL    HW2  860   4.846   0.144   1.938  1.1048  1.0702 -0.2600
   14SOL     OW  861   1.652   6.426   2.018 -0.2047  0.3932  0.4480
   14SOL    HW1  862   1.643   6.444   2.116  2.2926 -1.0173  1.0286
   14SOL    HW2  863   1.740   6.382   2.000 -0.2448  1.3109 -2.5597
   15SOL     OW  864   4.998   3.060   1.166  0.2275 -0.0279 -0.0556
   15SOL    HW1  865   4.948   3.074   1.080  1.3302  0.5075 -0.6321
   15SOL    HW2  866   4.954   2.988   1.219 -1.8446  1.1834  0.0031
   16SOL     OW  867   1.388   0.783   4.785  0.2584  0.2329 -0.1426
   16SOL    HW1  868   1.307   0.807   4.732  0.6316 -0.3780 -1.0271
   16SOL    HW2  869   1.443   0.718   4.733  1.0940  0.2974  0.6356
   17SOL     OW  870   3.442   6.841   2.746 -0.7830 -0.0527 -0.5089
   17SOL    HW1  871   3.507   6.895   2.693  0.1199 -0.7022 -0.0972
   17SOL    HW2  872   3.357   6.832   2.695 -0.0975 -0.2791 -1.6573
   18SOL     OW  873   1.484   5.127   2.071  0.1566  0.2556 -0.1219
   18SOL    HW1  874   1.403   5.071   2.084 -0.3978  0.8161 -1.0317
   18SOL    HW2  875   1.464   5.221   2.098 -0.2110  0.8700 -2.3758
   19SOL     OW  876   0.941   3.856   6.007 -0.0925  0.5893  0.4478
   19SOL    HW1  877   0.895   3.876   5.921 -1.7469 -0.0774  1.1382
   19SOL    HW2  878   0.900   3.911   6.080 -1.2216 -1.4714  1.4450
   20SOL     OW  879   0.699   6.713   0.494 -0.4668  0.8887 -0.2050
   20SOL    HW1  880   0.654   6.686   0.409  0.9736  0.9605 -1.0342
   20SOL    HW2  881   0.743   6.633   0.535  2.2196  1.4755 -1.6828
   21SOL     OW  882   5.650   2.982   4.034  0.5817 -0.6887 -0.2205
   21SOL    HW1  883   5.736   2.985   4.086  0.5551 -1.2301 -0.1311
   21SOL    HW2  884   5.574   3.005   4.094  0.5252 -1.5440  0.0549
   22SOL     OW  885   5.037   4.030   6.627  0.1073 -0.3441 -0.1979
   22SOL    HW1  886   5.129   4.012   6.595  1.2097  1.1677  1.8714
   22SOL    HW2  887   5.029   4.003   6.724 -1.1554  0.9009  0.0828
   23SOL     OW  888   0.416   5.957   4.313 -0.0469 -0.2851  0.0296
   23SOL    HW1  889   0.381   5.975   4.221  1.4057  0.1918 -0.4613
   23SOL    HW2  890   0.342   5.921   4.370 -1.6117  1.6902 -0.6182
   24SOL     OW  891   3.714   5.962   0.924  0.2015  0.3605 -0.4436
   24SOL    HW1  892   3.798   5.960   0.870  0.4290  0.9590 -0.1200
   24SOL    HW2  893   3.635   5.950   0.864  0.3741  2.2116 -1.0762
   25SOL     OW  894   1.182   0.250   1.453  0.2469  0.0371 -0.2567
   25SOL    HW1  895   1.150   0.227   1.544  0.5992 -2.0761 -0.6040
   25SOL    HW2  896   1.107   0.240   1.388  0.4314 -0.2883 -0.4265
   26SOL     OW  897   4.766   2.544   2.654 -0.0116  0.1039  0.4869
   26SOL    HW1  898   4.816   2.483   2.594 -0.6366 -0.3641  0.4412
   26SOL    HW2  899   4.741   2.496   2.738  1.8044  1.0371  1.6509
   27SOL     OW  900   5.704   1.524   1.343  0.0397  0.5059  0.2394
   27SOL    HW1  901   5.605   1.514   1.340 -0.0001  0.2862  1.7005
   27SOL    HW2  902   5.727   1.607   1.394  0.6314 -0.2513  1.2172
   28SOL     OW  903   0.405   4.202   2.127  0.1635  0.1290 -0.2892
   28SOL    HW1  904   0.458   4.278   2.163 -0.5643  0.3515  0.3313
   28SOL    HW2  905   0.426   4.119   2.179 -0.3362  0.2891  0.1740
   29SOL     OW  906   4.479   1.646   6.727 -0.4476  0.0608  0.3469
   29SOL    HW1  907   4.416   1.656   6.804 -0.3521 -0.6051  0.5119
   29SOL    HW2  908   4.428   1.655   6.641 -0.6284  0.3349  0.4792
   30SOL     OW  909   3.245   1.918   0.954 -0.1855  0.2796  0.3760
   30SOL    HW1  910   3.299   1.845   0.996  2.1199  1.7051  0.1033
   30SOL    HW2  911   3.281   2.007   0.983 -1.1106  1.3241 -1.4559
   31SOL     OW  912   1.379   0.034   0.212  0.8281  0.1134 -0.2654
   31SOL    HW1  913   1.441   0.079   0.148  0.4846 -0.7318 -1.2093
   31SOL    HW2  914   1.420  -0.051   0.245  0.7187  0.2077  0.1189
   32SOL     OW  915   1.673   6.131   2.822 -0.6995 -0.0945  0.3745
   32SOL    HW1  916   1.661   6.108   2.726  0.9568  0.2302  0.0701
   32SOL    HW2  917   1.715   6.054   2.870  2.7890  1.2813 -0.1867
   33SOL     OW  918   2.582   0.749   6.169  0.2172  0.0636 -0.1159
   33SOL    HW1  919   2.595   0.650   6.180 -3.8242 -0.6206  0.1418
   33SOL    HW2  920   2.558   0.789   6.257 -1.8131  0.5065 -0.8279
   34SOL     OW  921   2.099   3.637   6.886  0.1219  0.0777 -0.3262
   34SOL    HW1  922   2.180   3.693   6.900  1.1531 -1.2502 -0.8384
   34SOL    HW2  923   2.121   3.559   6.828 -0.9019 -1.6175  1.4237
   35SOL     OW  924   5.586   5.429   6.119  0.5851 -0.3093 -0.2514
   35SOL    HW1  925   5.640   5.377   6.054 -1.1121 -0.2797 -1.7597
   35SOL    HW2  926   5.630   5.517   6.136  0.8652 -0.1427 -1.6990
   36SOL     OW  927   3.159   5.612   4.456  0.1205 -0.5733 -0.2724
   36SOL    HW1  928   3.166   5.709   4.482 -1.3761 -0.5759  0.2772
   36SOL    HW2  929   3.100   5.565   4.522 -1.7598 -1.1552 -2.2719
   37SOL     OW  930   1.617   3.737   4.913  0.1619  0.0579 -0.5493
   37SOL    HW1  931   1.604   3.817   4.972 -2.0906 -1.3178  0.9620
   37SOL    HW2  932   1.690   3.680   4.950 -0.2303 -0.0569  0.0485
   38SOL     OW  933   1.060   5.095   2.791  0.5859  0.3235  0.4760
   38SOL    HW1  934   1.093   5.108   2.884 -2.4572  0.6256  1.6104
   38SOL    HW2  935   1.039   4.998   2.776  1.6267  0.1711 -0.1665
   39SOL     OW  936   0.013   3.448   0.582 -0.1060 -0.4355 -0.2884
   39SOL    HW1  937   0.097   3.496   0.605  0.8060 -3.0598  2.5663
   39SOL    HW2  938   0.031   3.381   0.510 -0.3896  0.6307 -1.3753
   40SOL     OW  939   0.299   3.601   2.156  0.2892 -0.5110  0.6470
   40SOL    HW1  940   0.233   3.573   2.086  0.4580  1.9082 -0.6087
   40SOL    HW2  941   0.256   3.597   2.246 -0.2327 -2.8093  0.3554
   41SOL     OW  942   2.266   5.455   4.321 -0.1333 -0.0729 -0.3044
   41SOL    HW1  943   2.314   5.427   4.404  2.5923  1.4510 -1.2519
   41SOL    HW2  944   2.226   5.546   4.335  1.0850  0.5720 -0.8909
   42SOL     OW  945   2.193   6.690   0.431 -0.8055  0.3216  0.2039
   42SOL    HW1  946   2.174   6.732   0.520 -0.8050  2.5812 -0.7774
   42SOL    HW2  947   2.272   6.629   0.438  0.9218  2.5411  1.2520
   43SOL     OW  948   0.246   6.596   2.375 -0.1407 -0.3523 -0.5665
   43SOL    HW1  949   0.233   6.584   2.276 -0.8987 -1.7056 -0.3384
   43SOL    HW2  950   0.308   6.525   2.409  0.6229  0.4901 -0.1485
   44SOL     OW  951   2.825   1.180   5.921 -0.7315  0.0265 -0.1231
   44SOL    HW1  952   2.816   1.140   6.013  0.3636 -0.5706 -0.2589
   44SOL    HW2  953   2.752   1.246   5.907 -0.7605  0.3480  1.2969
   45SOL     OW  954   1.544   1.483   0.582 -0.2942  0.1154  0.5040
   45SOL    HW1  955   1.601   1.563   0.560  0.7350 -0.4969  0.8615
   45SOL    HW2  956   1.552   1.463   0.679 -1.6600  0.4018  0.6907
   46SOL     OW  957   5.712   3.033   4.866 -0.2527  0.5628  0.1692
   46SOL    HW1  958   5.784   2.970   4.838  0.1451  0.4086  1.5040
   46SOL    HW2  959   5.644   3.040   4.793 -0.9486 -2.3361  0.4474
   47SOL     OW  960   1.326   0.531   2.194  0.0608 -0.7015  0.2378
   47SOL    HW1  961   1.262   0.585   2.140  0.0094  0.7850  1.7118
   47SOL    HW2  962   1.276   0.464   2.249 -0.2386  0.3366  1.2513
   48SOL     OW  963   4.057   5.718   3.193  0.1061 -0.5678  0.2048
   48SOL    HW1  964   3.976   5.673   3.155  0.4634  0.3256 -1.7120
   48SOL    HW2  965   4.068   5.808   3.152  1.6148 -0.3255  1.0506
   49SOL     OW  966   3.869   2.173   0.606  0.1426 -0.7948 -0.5609
   49SOL    HW1  967   3.823   2.261   0.608  0.3756 -0.6771 -0.2987
   49SOL    HW2  968   3.812   2.104   0.652 -0.3854 -0.9538 -1.4411
   50SOL     OW  969   5.847   1.611   2.743 -0.0457 -0.8223 -0.0951
   50SOL    HW1  970   5.910   1.626   2.667  1.7885 -2.9521  0.8625
   50SOL    HW2  971   5.852   1.688   2.806 -0.3594  0.2091 -1.2963
   51SOL     OW  972   1.084   0.657   2.107 -0.0188  0.0600 -0.4619
   51SOL    HW1  973   1.120   0.707   2.028  0.0971 -0.0786 -0.4959
   51SOL    HW2  974   1.055   0.723   2.177  1.6058  0.1654  0.1506
   52SOL     OW  975   5.951   2.450   4.658  0.3663 -0.3277  0.5000
   52SOL    HW1  976   5.922   2.528   4.603 -1.6466 -0.5790  1.1391
   52SOL    HW2  977   5.876   2.421   4.718  2.0956 -0.7769  2.5718
   53SOL     OW  978   3.712   4.098   2.619  0.0263 -0.2984 -0.7383
   53SOL    HW1  979   3.643   4.162   2.584  0.7132  0.1244 -1.3674
   53SOL    HW2  980   3.669   4.010   2.639 -0.5016 -0.4002 -2.1955
   54SOL     OW  981   6.091   4.010   0.145 -0.4465  0.4494  0.2162
   54SOL    HW1  982   6.089   4.060   0.059  1.8171  1.6847  0.7998
   54SOL    HW2  983   6.167   3.944   0.143 -0.7799  0.0254  1.0336
   55SOL     OW  984   0.772   0.316   6.759  0.3247 -0.4501  0.3268
   55SOL    HW1  985   0.751   0.218   6.762  0.1914 -0.4610 -0.5405
   55SOL    HW2  986   0.871   0.329   6.760  0.3401 -0.5811  0.6536
   56SOL     OW  987   3.673   2.524   2.516  0.1990  0.0104 -0.3637
   56SOL    HW1  988   3.650   2.427   2.526  1.2216 -0.1186  0.9379
   56SOL    HW2  989   3.601   2.570   2.464 -3.1414 -0.3198  3.4610
   57SOL     OW  990   6.571   1.375   6.889  0.3743  0.0665 -0.0527
   57SOL    HW1  991   6.567   1.278   6.910  1.8864  0.5266  2.8298
   57SOL    HW2  992   6.662   1.396   6.852  0.1212  0.4209 -0.4746
   58SOL     OW  993   2.441   2.379   0.945  0.1787  0.3282 -0.2049
   58SOL    HW1  994   2.540   2.383   0.935  0.0889  1.4651 -0.9207
   58SOL    HW2  995   2.417   2.354   1.038  1.1287 -0.5979 -0.1885
   59SOL     OW  996   2.209   1.560   0.972 -0.2451 -0.0950 -0.7589
   59SOL    HW1  997   2.141   1.563   1.044  0.9617  0.1808  0.4040
   59SOL    HW2  998   2.263   1.644   0.973  2.1204 -1.5262  0.4143
   60SOL     OW  999   0.398   3.753   2.669 -0.2019 -0.3034  0.0192
   60SOL    HW1 1000   0.435   3.817   2.602  0.6286 -0.3320  0.4438
   60SOL    HW2 1001   0.395   3.661   2.629 -1.9207  0.0453 -0.7931
   61SOL     OW 1002   1.016   5.830   6.737 -0.0851  0.8631 -0.4421
   61SOL    HW1 1003   1.077   5.906   6.761 -0.9273  1.1622  0.8561
   61SOL    HW2 1004   1.063   5.768   6.675  1.7902  0.7272  1.0311
   62SOL     OW 1005   1.684   5.335   4.088 -0.0369 -0.1141  0.1883
   62SOL    HW1 1006   1.763   5.349   4.149  1.2786  1.0954 -1.6739
   62SOL    HW2 1007   1.668   5.418   4.035 -0.6022 -1.3694 -1.7030
   63SOL     OW 1008   4.280   4.792   4.548  0.2785 -0.1561  0.3304
   63SOL    HW1 1009   4.217   4.848   4.601  0.0259  0.7044 -0.8408
   63SOL    HW2 1010   4.338   4.851   4.491  0.0938 -1.0471 -0.8285
   64SOL     OW 1011   4.975   6.838   1.227  0.1637  0.0309  0.1228
   64SOL    HW1 1012   4.898   6.795   1.180  0.6921 -0.2943 -0.4570
   64SOL    HW2 1013   5.058   6.828   1.172  0.8608 -0.6260  1.2488
   65SOL     OW 1014   4.607   1.842   5.997 -0.1928  0.3010 -0.0763
   65SOL    HW1 1015   4.538   1.772   6.016 -0.9357 -0.1255 -3.7369
   65SOL    HW2 1016   4.699   1.803   6.012 -0.6170 -0.2661  1.2920
   66SOL     OW 1017   4.829   1.520   4.223  0.4658 -0.2716 -0.2269
   66SOL    HW1 1018   4.758   1.452   4.203  1.6074 -1.1720 -1.4005
   66SOL    HW2 1019   4.805   1.606   4.178 -1.2147  0.3152  1.6285
   67SOL     OW 1020   4.636   3.429   0.246  0.0152  0.4562 -0.6265
   67SOL    HW1 1021   4.536   3.439   0.252  0.0651  0.0875  1.9231
   67SOL    HW2 1022   4.675   3.514   0.210 -1.1203  1.1420 -0.3045
   68SOL     OW 1023   0.212   1.079   0.355 -0.3851  0.0744  0.0635
   68SOL    HW1 1024   0.297   1.056   0.306 -1.0921  1.8701 -2.1644
   68SOL    HW2 1025   0.231   1.084   0.453  2.1371  0.6297 -0.3736
   69SOL     OW 1026   1.908   1.981   4.596  0.3761  0.0172  0.1873
   69SOL    HW1 1027   1.809   1.979   4.587  0.1621  0.5591  2.0949
   69SOL    HW2 1028   1.936   2.071   4.630  1.5839  0.0419 -0.7906
   70SOL     OW 1029   1.221   5.630   3.823  0.4805  0.4361  0.3328
   70SOL    HW1 1030   1.243   5.701   3.890 -1.6738  0.1248  1.4718
   70SOL    HW2 1031   1.293   5.561   3.822  1.8505  1.8270  0.3390
   71SOL     OW 1032   0.069   1.218   1.223  0.0892  0.3892 -0.2522
   71SOL    HW1 1033   0.155   1.179   1.189 -0.0325  0.8103 -1.0580
   71SOL    HW2 1034   0.014   1.146   1.264 -0.6541 -0.6005 -2.7710
   72SOL     OW 1035   6.385   2.280   5.251 -0.1776  0.2613  0.1990
   72SOL    HW1 1036   6.377   2.380   5.245 -0.0736  0.2055 -1.2287
   72SOL    HW2 1037   6.304   2.237   5.210 -0.9426 -0.2720  2.1464
   73SOL     OW 1038   5.903   2.828   6.457  0.5654  0.4528 -0.4324
   73SOL    HW1 1039   5.970   2.895   6.488 -0.2020  1.5663 -1.1142
   73SOL    HW2 1040   5.816   2.873   6.440  0.4633 -0.4049 -2.4864
   74SOL     OW 1041   1.861   0.385   5.988  0.0986  0.2282 -0.3380
   74SOL    HW1 1042   1.887   0.478   6.015  1.1366 -0.0256 -0.4378
   74SOL    HW2 1043   1.784   0.355   6.044  1.7367 -0.0176  1.9008
   75SOL     OW 1044   5.368   1.210   6.223 -0.0748 -0.2653 -0.4657
   75SOL    HW1 1045   5.397   1.124   6.182  1.6079 -0.1946  0.4905
   75SOL    HW2 1046   5.336   1.272   6.151 -0.6727 -1.4191 -1.2309
   76SOL     OW 1047   1.343   4.469   4.376 -0.2651 -0.4239  0.1834
   76SOL    HW1 1048   1.391   4.384   4.394 -0.0537  0.0012  1.7796
   76SOL    HW2 1049   1.244   4.455   4.388 -0.3771 -0.7863 -1.0334
   77SOL     OW 1050   6.397   4.602   1.050  0.5517 -0.0892 -0.3433
   77SOL    HW1 1051   6.421   4.519   1.100  0.2396 -0.8254 -1.3716
   77SOL    HW2 1052   6.477   4.661   1.043  0.7195 -0.1995  0.5912
   78SOL     OW 1053   5.711   6.193   4.841 -0.4653 -0.2616  0.2914
   78SOL    HW1 1054   5.725   6.285   4.804  0.6995 -0.6996 -0.4125
   78SOL    HW2 1055   5.613   6.173   4.845 -0.8663  1.7225  2.2627
   79SOL     OW 1056   0.803   5.590   0.038 -0.5313  0.4608 -0.1217
   79SOL    HW1 1057   0.894   5.630   0.046 -1.2891  2.0970  0.8990
   79SOL    HW2 1058   0.800   5.504   0.088  0.7353 -0.1891 -1.1143
   80SOL     OW 1059   1.813   3.345   1.700  0.4303  0.3279  0.0674
   80SOL    HW1 1060   1.792   3.248   1.713 -0.9289  0.5712 -0.1246
   80SOL    HW2 1061   1.730   3.399   1.716  0.9939  1.3986 -0.5205
   81SOL     OW 1062   4.692   0.917   1.669  0.0153 -0.2259  0.1723
   81SOL    HW1 1063   4.603   0.908   1.624  0.0785  0.0124 -0.0006
   81SOL    HW2 1064   4.678   0.942   1.765 -0.0835  2.7257 -0.5030
   82SOL     OW 1065   0.429   4.871   4.148  0.3658 -0.4712  0.6639
   82SOL    HW1 1066   0.437   4.969   4.128  0.6378 -0.6659 -0.2119
   82SOL    HW2 1067   0.352   4.833   4.097  1.2722 -1.0431 -0.3357
   83SOL     OW 1068   5.660   1.491   6.003  0.1808  0.1904 -0.3509
   83SOL    HW1 1069   5.732   1.528   6.061 -0.8331  2.7302 -0.6068
   83SOL    HW2 1070   5.682   1.509   5.907 -1.2833  2.0477 -0.3829
   84SOL     OW 1071   4.628   5.495   1.936  1.2136 -0.2302 -0.7015
   84SOL    HW1 1072   4.575   5.558   1.879  1.0024 -0.7898 -1.1330
   84SOL    HW2 1073   4.572   5.416   1.959  1.1878  0.1422  0.5703
   85SOL     OW 1074   3.962   4.578   1.328 -0.4088 -0.9122 -0.0025
   85SOL    HW1 1075   3.924   4.660   1.370  0.4478  0.7196 -2.2501
   85SOL    HW2 1076   3.946   4.580   1.229 -1.6337 -4.2008 -0.0023
   86SOL     OW 1077   1.722   5.349   3.634 -0.1087  0.1239  0.1565
   86SOL    HW1 1078   1.720   5.440   3.675  0.5368  0.0313  0.4091
   86SOL    HW2 1079   1.726   5.357   3.534 -1.4332  0.3503  0.1059
   87SOL     OW 1080   4.639   1.159   5.890 -0.2572  0.1817  0.7940
   87SOL    HW1 1081   4.617   1.094   5.817  2.0836  0.3349 -0.1110
   87SOL    HW2 1082   4.619   1.117   5.979 -1.9842 -0.4572  0.1607
   88SOL     OW 1083   0.546   6.656   0.978  0.2948  0.0169  0.1666
   88SOL    HW1 1084   0.582   6.605   0.900 -0.3434  1.3828 -1.0791
   88SOL    HW2 1085   0.528   6.594   1.054  1.4178 -1.2709 -0.5914
   89SOL     OW 1086   2.874   4.430   2.720  0.3247  0.3688  0.0893
   89SOL    HW1 1087   2.891   4.380   2.805 -0.0329  0.0207 -0.0426
   89SOL    HW2 1088   2.911   4.378   2.643  1.0842  0.9110  0.0696
   90SOL     OW 1089   0.283   3.669   6.660 -0.1025  0.1022 -0.1948
   90SOL    HW1 1090   0.250   3.646   6.568 -1.4344  0.2809  0.2259
   90SOL    HW2 1091   0.275   3.767   6.675  0.6849  0.1567 -0.0974
   91SOL     OW 1092   0.263   5.583   6.019  0.2011  0.0163 -0.5006
   91SOL    HW1 1093   0.309   5.594   5.931 -0.6545  0.0942 -0.9474
   91SOL    HW2 1094   0.323   5.615   6.093  0.7321  0.4128 -1.0995
   92SOL     OW 1095   5.551   0.482   0.375  0.0135 -0.2220  0.0969
   92SOL    HW1 1096   5.562   0.529   0.463 -0.5124  1.3890 -0.6753
   92SOL    HW2 1097   5.641   0.450   0.344  0.6650  1.6871 -0.1024
   93SOL     OW 1098   2.043   2.656   0.507  0.4643  0.4280 -0.3422
   93SOL    HW1 1099   1.989   2.735   0.478  1.2533  1.1894  0.2360
   93SOL    HW2 1100   2.073   2.605   0.426 -2.1830 -0.7958 -0.6845
   94SOL     OW 1101   2.485   0.769   6.800  0.1502 -0.1418  0.0855
   94SOL    HW1 1102   2.458   0.728   6.712  0.5198  1.4414 -0.7950
   94SOL    HW2 1103   2.583   0.788   6.799  0.8114 -2.7786  2.0067
   95SOL     OW 1104   4.543   6.582   2.313 -0.3936  0.0734  0.3695
   95SOL    HW1 1105   4.487   6.608   2.391 -0.4206 -0.3580  0.4969
   95SOL    HW2 1106   4.626   6.638   2.310 -0.6738  0.4923  0.3668
   96SOL     OW 1107   1.422   1.576   2.030  0.5117 -0.2212 -0.2484
   96SOL    HW1 1108   1.371   1.502   2.075  0.3932  0.8443  1.4525
   96SOL    HW2 1109   1.497   1.536   1.977 -1.2160 -1.7322 -1.7084
   97SOL     OW 1110   4.500   4.851   6.633  0.3777 -0.0013  0.0883
   97SOL    HW1 1111   4.468   4.788   6.704  0.3225 -0.7021 -0.5345
   97SOL    HW2 1112   4.595   4.831   6.611  0.2933 -0.0254 -0.2712
   98SOL     OW 1113   3.451   5.910   5.302 -0.0804 -0.4285  0.2479
   98SOL    HW1 1114   3.456   5.903   5.202 -1.5234 -0.9591  0.1924
   98SOL    HW2 1115   3.540   5.889   5.341  0.9250  1.2320 -0.9832
   99SOL     OW 1116   1.415   3.785   1.380  0.2573  0.4254  0.0894
   99SOL    HW1 1117   1.406   3.705   1.441 -0.7291  0.4531  0.0023
   99SOL    HW2 1118   1.396   3.757   1.286  1.4630  0.4500 -0.1762
  100SOL     OW 1119   1.986   1.497   3.048  0.4102  0.5062  0.1996
  100SOL    HW1 1120   1.984   1.597   3.036  0.7882  0.4601 -0.2714
  100SOL    HW2 1121   1.892   1.462   3.049  0.2748  0.8706  0.3870
  101SOL     OW 1122   5.785   4.426   6.060  0.1616 -0.0792  0.9720
  101SOL    HW1 1123   5.870   4.376   6.045 -0.4316 -0.9707  0.4369
  101SOL    HW2 1124   5.709   4.373   6.022 -0.9230 -0.4143  3.3925
  102SOL     OW 1125   1.536   2.399   1.412 -0.1245  0.2387 -0.3822
  102SOL    HW1 1126   1.523   2.300   1.413 -0.6915  0.3160  0.6090
  102SOL    HW2 1127   1.448   2.444   1.422  0.2987  0.8262  0.7710
  103SOL     OW 1128   5.773   5.176   1.160 -0.2955 -0.1129 -0.3295
  103SOL    HW1 1129   5.849   5.221   1.206 -0.3637  0.7670 -1.0484
  103SOL    HW2 1130   5.775   5.078   1.180 -0.3565  0.2318  1.5652
  104SOL     OW 1131   3.616   4.644   5.660 -0.1522 -0.2972  0.1896
  104SOL    HW1 1132   3.560   4.584   5.603 -0.3063 -0.3982  0.4488
  104SOL    HW2 1133   3.695   4.677   5.607  0.6375 -1.7506  0.4232
  105SOL     OW 1134   6.875   0.685   1.963 -0.3327 -0.1200 -0.3577
  105SOL    HW1 1135   6.973   0.701   1.968 -0.5249  1.2529 -0.4359
  105SOL    HW2 1136   6.846   0.684   1.867 -0.1468 -2.4803 -0.4574
  106SOL     OW 1137   3.513   3.197   4.662  0.5727 -0.1006  0.0373
  106SOL    HW1 1138   3.439   3.154   4.714 -0.8721  1.9228 -0.2137
  106SOL    HW2 1139   3.507   3.170   4.566  0.4175 -0.2592  0.0915
  107SOL     OW 1140   0.198   6.740   6.700  0.7481  0.1156 -0.3394
  107SOL    HW1 1141   0.105   6.704   6.705  1.0772 -0.9413 -1.4499
  107SOL    HW2 1142   0.248   6.694   6.626  2.1877  0.5973  0.3023
  108SOL     OW 1143   3.263   0.958   0.899 -0.4621 -0.0369 -0.6587
  108SOL    HW1 1144   3.272   0.883   0.964  0.4511  1.1506  0.6133
  108SOL    HW2 1145   3.324   1.033   0.924 -2.3374  1.7287 -1.0832
  109SOL     OW 1146   0.321   0.225   4.738  0.7126  0.6705 -0.7295
  109SOL    HW1 1147   0.225   0.219   4.710  0.6044 -2.3246  0.0108
  109SOL    HW2 1148   0.372   0.149   4.698  2.4525  1.2809  0.2356
  110SOL     OW 1149   3.240   0.864   5.431 -0.3023 -0.6197  0.1992
  110SOL    HW1 1150   3.165   0.830   5.374 -0.6440  1.2710 -0.5705
  110SOL    HW2 1151   3.220   0.846   5.527 -0.9760 -1.5452 -0.0993
  111SOL     OW 1152   1.512   6.932   1.226  0.4758 -0.2692  0.6030
  111SOL    HW1 1153   1.600   6.978   1.237 -0.2292  1.0517  0.9205
  111SOL    HW2 1154   1.465   6.969   1.147 -0.7829  0.7160  1.7723
  112SOL     OW 1155   3.950   1.387   4.699 -0.0542  0.0786 -0.2617
  112SOL    HW1 1156   3.916   1.450   4.629 -1.1141 -0.7389 -0.5124
  112SOL    HW2 1157   3.919   1.418   4.789 -0.1042  0.2141 -0.3240
  113SOL     OW 1158   2.965   5.332   6.018  0.0900 -0.2694 -0.1740
  113SOL    HW1 1159   3.019   5.396   6.072  1.0083 -0.6150 -0.6428
  113SOL    HW2 1160   3.026   5.281   5.956 -0.7862 -0.6407 -0.7623
  114SOL     OW 1161   6.697   0.212   4.567 -0.7403  0.0626  0.0845
  114SOL    HW1 1162   6.639   0.293   4.576 -2.6581 -1.1940 -0.3952
  114SOL    HW2 1163   6.744   0.196   4.654 -0.3263  1.6642  0.1906
  115SOL     OW 1164   4.473   5.116   0.835  0.1501  0.1256  0.0324
  115SOL    HW1 1165   4.440   5.053   0.905  0.3473 -0.6684 -0.5757
  115SOL    HW2 1166   4.464   5.074   0.744  1.7711  0.3134 -0.2504
  116SOL     OW 1167   1.227   1.069   4.586  0.0427 -0.5430 -0.6226
  116SOL    HW1 1168   1.305   1.090   4.645  0.2571 -0.5738 -0.8926
  116SOL    HW2 1169   1.178   1.153   4.564  2.4747  0.2283 -3.9354
  117SOL     OW 1170   1.041   5.474   1.366 -0.0887 -0.3549 -0.0852
  117SOL    HW1 1171   1.034   5.528   1.282  1.1781 -0.0693 -0.0316
  117SOL    HW2 1172   1.137   5.461   1.389 -0.4103 -0.5915  1.2195
  118SOL     OW 1173   1.905   5.186   5.136 -0.0119  0.3586 -0.7490
  118SOL    HW1 1174   1.985   5.174   5.194 -0.7632  2.2438  0.7598
  118SOL    HW2 1175   1.857   5.270   5.161 -1.6413  0.0637 -2.6160
  119SOL     OW 1176   4.596   5.060   1.582 -0.0821 -0.5090 -0.0429
  119SOL    HW1 1177   4.554   5.008   1.507  0.3259 -1.1110  0.1352
  119SOL    HW2 1178   4.680   5.014   1.611  0.7856  0.7524 -0.4866
  120SOL     OW 1179   5.943   3.535   1.965  0.6149 -0.1335  0.1295
  120SOL    HW1 1180   5.929   3.442   1.931  3.4675 -0.4182 -0.5399
  120SOL    HW2 1181   5.942   3.599   1.888  1.7990 -0.0636  0.1560
  121SOL     OW 1182   6.104   6.985   3.358  0.5674 -0.1815  0.2102
  121SOL    HW1 1183   6.021   6.951   3.313 -0.3797  0.9946  1.0027
  121SOL    HW2 1184   6.177   6.917   3.348 -0.7664 -1.7106  0.3248
  122SOL     OW 1185   0.895   2.806   5.463  0.2977  0.0337  0.1044
  122SOL    HW1 1186   0.992   2.810   5.485  0.8022  2.1242 -2.0926
  122SOL    HW2 1187   0.851   2.891   5.493 -0.7897 -0.7212  0.7068
  123SOL     OW 1188   6.366   4.547   2.721 -1.1133  0.0918  0.0851
  123SOL    HW1 1189   6.296   4.477   2.734 -3.0096  2.1639  1.8302
  123SOL    HW2 1190   6.327   4.637   2.738  1.7093  1.4749 -0.1313
  124SOL     OW 1191   2.049   2.542   5.311  0.0762 -0.1786 -0.3080
  124SOL    HW1 1192   2.079   2.489   5.390 -1.1297  1.1169  1.0892
  124SOL    HW2 1193   1.954   2.519   5.289  0.2299 -0.1417 -1.0395
  125SOL     OW 1194   5.823   5.277   4.950  0.1897 -0.7693  0.5876
  125SOL    HW1 1195   5.792   5.357   4.899 -0.4357 -1.3873 -0.0350
  125SOL    HW2 1196   5.808   5.291   5.048  3.5578  1.4192  0.9617
  126SOL     OW 1197   6.733   4.470   2.330 -0.1926  0.2723  0.2411
  126SOL    HW1 1198   6.814   4.413   2.337 -0.0150  0.5900  0.9366
  126SOL    HW2 1199   6.672   4.450   2.407 -0.6555  0.2101 -0.1410
  127SOL     OW 1200   2.786   2.375   5.343 -0.4990 -0.2759 -0.1272
  127SOL    HW1 1201   2.856   2.328   5.397 -0.3754  0.1102  0.0544
  127SOL    HW2 1202   2.811   2.472   5.335 -0.3083 -0.4072 -1.2161
  128SOL     OW 1203   4.012   2.327   3.123 -0.1475 -0.3881  0.2271
  128SOL    HW1 1204   4.087   2.284   3.072 -0.5479 -1.0134  0.1618
  128SOL    HW2 1205   3.948   2.368   3.060 -0.7100 -1.2725  0.2063
  129SOL     OW 1206   5.390   2.257   5.930 -0.1671 -0.4123  0.0699
  129SOL    HW1 1207   5.446   2.249   5.848 -1.3155 -1.5017 -0.6476
  129SOL    HW2 1208   5.427   2.198   6.002  0.0675 -0.5093 -0.1293
  130SOL     OW 1209   3.417   0.419   3.027 -0.2002  0.2485  0.3372
  130SOL    HW1 1210   3.517   0.412   3.021 -0.0108  0.8879 -7.1523
  130SOL    HW2 1211   3.377   0.327   3.028  0.5271 -0.0801 -0.1934
  131SOL     OW 1212   6.518   4.940   5.993 -0.4526 -0.0898  0.7627
  131SOL    HW1 1213   6.616   4.954   5.988 -0.3773 -0.1248  1.7852
  131SOL    HW2 1214   6.490   4.937   6.089 -1.0630 -2.7402  0.5866
  132SOL     OW 1215   3.706   5.490   1.097  0.1804 -0.0092  0.5130
  132SOL    HW1 1216   3.682   5.393   1.104  0.7690 -0.0614  2.1000
  132SOL    HW2 1217   3.654   5.542   1.165  0.2949  0.7070  0.0567
  133SOL     OW 1218   6.404   3.326   4.892  0.8334  0.1412 -0.1306
  133SOL    HW1 1219   6.454   3.239   4.895  0.4867 -0.1023 -1.1138
  133SOL    HW2 1220   6.311   3.312   4.926  1.7433  0.8680  2.9729
  134SOL     OW 1221   6.219   5.616   1.099 -0.1020 -0.1461  0.2275
  134SOL    HW1 1222   6.254   5.557   1.172  1.1904  0.3132  0.0024
  134SOL    HW2 1223   6.286   5.688   1.079 -1.2000  0.7851 -0.2132
  135SOL     OW 1224   1.113   4.798   3.390 -0.2534  0.4668 -0.2763
  135SOL    HW1 1225   1.187   4.855   3.355  0.6790 -0.4524  0.1726
  135SOL    HW2 1226   1.121   4.789   3.489 -0.8336  0.1526 -0.2521
  136SOL     OW 1227   5.513   0.274   1.776 -0.2299 -0.2292 -0.1031
  136SOL    HW1 1228   5.508   0.335   1.854 -0.7939  0.5823 -0.7559
  136SOL    HW2 1229   5.484   0.182   1.804  1.8781 -0.5509  1.1911
  137SOL     OW 1230   4.967   1.420   6.187  0.0655 -0.0447  0.1936
  137SOL    HW1 1231   4.949   1.342   6.248 -1.2407 -0.2649 -0.4331
  137SOL    HW2 1232   4.904   1.494   6.209  0.7903  0.5492  0.2777
  138SOL     OW 1233   6.600   0.923   1.597  0.0922 -0.5592  0.4419
  138SOL    HW1 1234   6.511   0.954   1.562  1.0093 -0.1853 -1.7676
  138SOL    HW2 1235   6.590   0.833   1.637 -1.2859 -0.5460  0.1899
  139SOL     OW 1236   0.669   6.774   3.359 -0.4074  0.4805 -0.3301
  139SOL    HW1 1237   0.600   6.825   3.411 -0.2265 -0.5909  1.0277
  139SOL    HW2 1238   0.679   6.683   3.398  2.9926  1.1218  0.6149
  140SOL     OW 1239   0.711   1.721   1.413  0.1753 -0.1969  0.4971
  140SOL    HW1 1240   0.705   1.649   1.344  1.3240 -0.5248  0.7048
  140SOL    HW2 1241   0.657   1.695   1.493 -3.5703  1.4707 -1.2634
  141SOL     OW 1242   3.130   1.462   4.233  0.1379 -0.5553 -0.3163
  141SOL    HW1 1243   3.221   1.458   4.191  0.6679  2.7271  0.2029
  141SOL    HW2 1244   3.062   1.481   4.162  0.3826  0.4598 -0.2915
  142SOL     OW 1245   2.123   2.255   3.290  0.2144 -0.0668 -0.0548
  142SOL    HW1 1246   2.128   2.192   3.368 -0.0886  0.3307  0.2878
  142SOL    HW2 1247   2.210   2.253   3.241 -0.3969 -2.2258 -1.2194
  143SOL     OW 1248   1.049   1.767   5.941  0.4927 -0.3887 -0.4380
  143SOL    HW1 1249   1.033   1.862   5.965 -0.9309 -0.6489 -0.2646
  143SOL    HW2 1250   0.970   1.712   5.966  0.9291 -1.4769 -1.3285
  144SOL     OW 1251   2.556   5.184   0.008 -0.2534  0.2328  0.1111
  144SOL    HW1 1252   2.551   5.209  -0.088  1.3913  0.3029  0.0273
  144SOL    HW2 1253   2.500   5.247   0.062  0.6685  1.6338 -0.5352
  145SOL     OW 1254   5.665   4.859   6.243  0.0350  0.3554 -0.3605
  145SOL    HW1 1255   5.580   4.905   6.268  0.3038 -0.3267  2.0231
  145SOL    HW2 1256   5.654   4.760   6.253  1.0570  0.2488 -0.1355
  146SOL     OW 1257   4.441   2.256   4.248  0.3094  0.0452 -0.7646
  146SOL    HW1 1258   4.347   2.229   4.230  0.4163 -1.0177  0.1795
  146SOL    HW2 1259   4.448   2.295   4.339  0.6402  0.9232 -1.1540
  147SOL     OW 1260   3.986   0.339   3.179 -0.0607  0.1290 -0.0181
  147SOL    HW1 1261   4.036   0.423   3.200 -2.3699  1.5937 -0.0250
  147SOL    HW2 1262   4.050   0.262   3.177  1.9872  1.6923  1.0063
  148SOL     OW 1263   4.434   4.265   2.292 -0.1591 -0.3630  0.3976
  148SOL    HW1 1264   4.420   4.362   2.270 -0.7911 -0.4479  0.4170
  148SOL    HW2 1265   4.530   4.242   2.278 -0.0870  0.1603 -0.0134
  149SOL     OW 1266   5.216   1.230   4.344  0.2825  0.3069 -0.4031
  149SOL    HW1 1267   5.120   1.256   4.353  0.3038 -0.0161  1.0285
  149SOL    HW2 1268   5.225   1.131   4.348  0.8323  0.3783  1.9228
  150SOL     OW 1269   6.565   2.599   4.956  0.1428  0.3474  0.3347
  150SOL    HW1 1270   6.631   2.578   5.029  3.5122 -0.2386 -2.6171
  150SOL    HW2 1271   6.549   2.517   4.901 -0.4220  1.3569 -1.0383
  151SOL     OW 1272   0.904   0.484   0.795  0.4564 -0.2910 -0.2150
  151SOL    HW1 1273   0.932   0.388   0.800  2.8349  0.2525 -1.6819
  151SOL    HW2 1274   0.867   0.503   0.704  0.5279  0.3052 -0.1201
  152SOL     OW 1275   6.809   1.504   2.174 -0.9883 -0.2739  1.1504
  152SOL    HW1 1276   6.825   1.602   2.158 -0.0154 -0.2460  2.1741
  152SOL    HW2 1277   6.770   1.491   2.264 -0.3239 -0.8859  1.3579
  153SOL     OW 1278   4.265   4.509   6.992  0.0732 -0.0694  0.0419
  153SOL    HW1 1279   4.234   4.427   7.042  0.4128 -0.0832  0.2328
  153SOL    HW2 1280   4.185   4.561   6.963 -0.1666 -0.7844 -0.6210
  154SOL     OW 1281   0.252   1.286   1.768 -0.0261 -0.1467 -0.1096
  154SOL    HW1 1282   0.307   1.308   1.688 -0.7190  0.8484 -0.3317
  154SOL    HW2 1283   0.223   1.371   1.813  0.5330 -0.6892  1.3181
  155SOL     OW 1284   3.022   5.643   0.642  0.3117 -0.5268  0.1798
  155SOL    HW1 1285   3.087   5.677   0.711  0.2375 -2.7342  1.4353
  155SOL    HW2 1286   3.035   5.693   0.557  1.2305  1.4946  1.4237
  156SOL     OW 1287   1.083   6.407   4.780  0.1486  0.2249 -0.0127
  156SOL    HW1 1288   1.105   6.356   4.863 -0.0139  1.5744  0.9016
  156SOL    HW2 1289   1.165   6.416   4.723  1.0520  1.7474  1.4165
  157SOL     OW 1290   6.240   4.118   0.594 -0.1781 -0.0765 -0.1194
  157SOL    HW1 1291   6.175   4.078   0.658  1.1484  0.0426  1.3778
  157SOL    HW2 1292   6.198   4.128   0.504 -2.3626  0.4326  0.9039
  158SOL     OW 1293   0.692   0.016   5.850 -0.1486  0.0739 -0.1459
  158SOL    HW1 1294   0.635  -0.021   5.923  0.3585 -1.0550 -0.3002
  158SOL    HW2 1295   0.641   0.016   5.764 -1.5229  3.3791  0.4955
  159SOL     OW 1296   1.025   2.727   5.850  0.3502 -0.1357  0.3504
  159SOL    HW1 1297   0.940   2.697   5.807 -0.1001 -0.1016  1.1934
  159SOL    HW2 1298   1.006   2.804   5.912  1.2261  0.8419 -0.5406
  160SOL     OW 1299   5.302   4.627   1.110 -0.0740  0.1193 -0.2395
  160SOL    HW1 1300   5.257   4.693   1.171  1.2052  0.7427  0.0715
  160SOL    HW2 1301   5.376   4.581   1.160  1.8844  1.5970 -1.6283
  161SOL     OW 1302   3.538   0.674   3.919  0.5558  0.2349 -0.3979
  161SOL    HW1 1303   3.607   0.682   3.990  1.5112 -0.9144 -1.1703
  161SOL    HW2 1304   3.560   0.736   3.844  2.7040 -2.3989 -2.1441
  162SOL     OW 1305   4.468   6.092   3.337 -0.3579  0.0117 -0.8100
  162SOL    HW1 1306   4.513   6.181   3.329 -1.2655  0.4154 -1.6738
  162SOL    HW2 1307   4.453   6.071   3.434  2.6789 -0.6934 -0.3901
  163SOL     OW 1308   5.748   3.418   0.569 -0.0427  0.1671 -0.0404
  163SOL    HW1 1309   5.767   3.338   0.625 -0.9021 -0.4488 -0.6009
  163SOL    HW2 1310   5.824   3.482   0.574 -0.3285  0.3973  2.2720
  164SOL     OW 1311   1.384   1.603   5.750 -0.1014  0.2044  0.4069
  164SOL    HW1 1312   1.341   1.544   5.818 -3.0721 -0.9988 -2.2679
  164SOL    HW2 1313   1.330   1.686   5.739  0.7998  0.7568  0.0445
  165SOL     OW 1314   6.351   4.966   5.139 -0.1778 -0.2968 -0.2245
  165SOL    HW1 1315   6.300   4.920   5.066  1.7433 -1.6417 -0.8119
  165SOL    HW2 1316   6.290   5.025   5.191 -1.8461 -0.1436 -2.2332
  166SOL     OW 1317   4.769   5.174   5.643  0.0564  0.1071  0.5395
  166SOL    HW1 1318   4.769   5.204   5.547 -0.9657  1.6454  0.9822
  166SOL    HW2 1319   4.765   5.074   5.646 -1.5460  0.0561 -1.0601
  167SOL     OW 1320   1.868   0.512   1.247  0.0126  0.3507 -0.3800
  167SOL    HW1 1321   1.924   0.464   1.315  1.0364 -0.9840 -2.0833
  167SOL    HW2 1322   1.789   0.457   1.223  0.1572  0.3828 -0.9412
  168SOL     OW 1323   1.791   5.878   4.995 -0.2530  0.0064 -0.5025
  168SOL    HW1 1324   1.762   5.783   5.006  0.5019 -0.0652  1.2127
  168SOL    HW2 1325   1.800   5.899   4.898  0.1322 -1.8462 -0.9075
  169SOL     OW 1326   3.268   2.717   0.523  0.1679  0.2131  0.1500
  169SOL    HW1 1327   3.278   2.656   0.445  0.0563  0.4773 -0.0705
  169SOL    HW2 1328   3.204   2.677   0.589  2.8164 -1.6955  1.7623
  170SOL     OW 1329   5.026   3.885   1.666 -0.0378 -0.4685 -0.1719
  170SOL    HW1 1330   5.008   3.954   1.597 -0.3215 -0.5841 -0.2166
  170SOL    HW2 1331   5.100   3.915   1.726 -0.9519  0.4005  0.5425
  171SOL     OW 1332   5.420   1.045   0.405  0.1295 -0.0443 -0.0094
  171SOL    HW1 1333   5.473   1.127   0.427  0.5603 -0.8273  2.0285
  171SOL    HW2 1334   5.483   0.967   0.392 -0.3703 -0.3845 -0.4542
  172SOL     OW 1335   4.528   3.991   3.572 -0.1903  0.0957  0.1337
  172SOL    HW1 1336   4.546   4.017   3.477  1.1980  1.1127  0.6603
  172SOL    HW2 1337   4.551   3.894   3.585  1.9803  0.5460 -0.0072
  173SOL     OW 1338   1.062   6.996   0.147  0.1353 -0.0164 -0.2132
  173SOL    HW1 1339   0.985   6.954   0.193  0.3946 -1.3734 -0.9586
  173SOL    HW2 1340   1.147   6.968   0.192  0.2782  0.2465 -0.3176
  174SOL     OW 1341   5.964   1.773   5.657  0.0180  0.0975 -0.1610
  174SOL    HW1 1342   5.905   1.718   5.717  0.6061 -0.8819 -0.4624
  174SOL    HW2 1343   5.908   1.815   5.586 -0.3062 -0.9646 -0.5474
  175SOL     OW 1344   6.282   0.593   0.187 -0.0481  0.4893 -0.8232
  175SOL    HW1 1345   6.327   0.617   0.273 -1.3153 -1.1502  0.3610
  175SOL    HW2 1346   6.331   0.517   0.144 -1.1339 -0.7458  0.0508
  176SOL     OW 1347   2.988   0.077   6.521  0.5109 -0.4740 -0.6165
  176SOL    HW1 1348   3.019  -0.003   6.573  2.6535  0.1288 -0.8751
  176SOL    HW2 1349   2.960   0.048   6.429  0.9475 -0.9863 -0.5939
  177SOL     OW 1350   6.589   3.627   1.294  0.0054  0.3721 -0.2751
  177SOL    HW1 1351   6.599   3.719   1.330  2.3704  0.7606 -1.6650
  177SOL    HW2 1352   6.532   3.628   1.212  0.1444  0.6351 -0.3693
  178SOL     OW 1353   3.903   3.664   6.185  0.0401  0.3599 -0.1276
  178SOL    HW1 1354   3.881   3.605   6.108  0.3774  0.6486 -0.4490
  178SOL    HW2 1355   3.848   3.748   6.180  0.0218  0.3551 -0.0208
  179SOL     OW 1356   5.078   2.826   3.561 -0.0454 -0.1014 -0.0549
  179SOL    HW1 1357   5.034   2.824   3.651 -0.6688 -1.9266 -0.3644
  179SOL    HW2 1358   5.020   2.878   3.497  0.0150  0.5319  0.3970
  180SOL     OW 1359   1.371   5.615   1.441  0.1688  0.7374 -0.0738
  180SOL    HW1 1360   1.398   5.538   1.383  0.4773 -0.3960  1.5227
  180SOL    HW2 1361   1.445   5.683   1.443  0.2048  0.7331 -0.8879
  181SOL     OW 1362   5.861   1.585   6.830  0.1498 -0.6083  0.3560
  181SOL    HW1 1363   5.930   1.557   6.763 -1.6838 -3.2558 -0.6321
  181SOL    HW2 1364   5.774   1.541   6.807 -1.1957  0.4241  3.0860
  182SOL     OW 1365   2.509   5.905   5.095  0.1192 -0.2053 -0.6203
  182SOL    HW1 1366   2.511   5.816   5.141 -0.1222  0.2050  0.1840
  182SOL    HW2 1367   2.596   5.952   5.111  0.2170 -0.2535 -0.9843
  183SOL     OW 1368   4.848   5.537   4.448 -0.4612 -0.0449  0.7282
  183SOL    HW1 1369   4.922   5.513   4.385 -1.8755 -1.2502 -0.5345
  183SOL    HW2 1370   4.876   5.515   4.542  2.0672  2.6986  0.7852
  184SOL     OW 1371   6.444   3.224   1.811  0.4239 -0.1470  0.3450
  184SOL    HW1 1372   6.410   3.294   1.873 -0.0439 -0.5569  0.5512
  184SOL    HW2 1373   6.379   3.149   1.806  0.7742 -0.4244 -0.1232
  185SOL     OW 1374   2.127   1.151   5.119  0.5912  0.0451  0.6630
  185SOL    HW1 1375   2.059   1.217   5.085  2.2032  1.3070 -0.3013
  185SOL    HW2 1376   2.132   1.157   5.219 -0.2691  0.3803  0.6959
  186SOL     OW 1377   0.891   6.189   6.913  0.0673 -0.3739  0.3311
  186SOL    HW1 1378   0.904   6.288   6.905  0.1141 -0.4218 -0.2006
  186SOL    HW2 1379   0.806   6.170   6.963 -0.2861 -0.0650 -0.1467
  187SOL     OW 1380   1.154   0.773   0.200 -0.0879 -0.4249 -0.6241
  187SOL    HW1 1381   1.150   0.843   0.271  0.1432 -1.5784  0.5458
  187SOL    HW2 1382   1.087   0.795   0.128 -0.4842  0.6260  0.0408
  188SOL     OW 1383   4.079   3.709   2.500 -0.1408 -0.7890  0.4690
  188SOL    HW1 1384   4.047   3.656   2.421  0.8345 -0.6288 -0.0473
  188SOL    HW2 1385   4.088   3.805   2.475  0.2188 -0.7431  0.7661
  189SOL     OW 1386   6.620   5.378   0.733  0.2412 -0.3795 -0.0089
  189SOL    HW1 1387   6.581   5.364   0.824 -0.2037 -0.7463 -0.2573
  189SOL    HW2 1388   6.718   5.397   0.742 -0.3339  2.9341  0.8271
  190SOL     OW 1389   5.180   6.813   0.085  0.6379  0.4209 -0.5971
  190SOL    HW1 1390   5.253   6.749   0.061  0.1065 -0.7359  0.7552
  190SOL    HW2 1391   5.213   6.877   0.154 -0.3038 -1.7860  2.0498
  191SOL     OW 1392   1.036   4.505   1.625 -0.1614 -0.4033  0.0010
  191SOL    HW1 1393   1.122   4.489   1.675  1.4098  2.0351 -1.6538
  191SOL    HW2 1394   1.019   4.603   1.621 -0.0065 -0.3734 -4.3208
  192SOL     OW 1395   2.568   5.215   2.188 -0.4280  0.5294  0.2410
  192SOL    HW1 1396   2.489   5.177   2.235 -1.0393  1.0198 -0.3690
  192SOL    HW2 1397   2.538   5.281   2.119  0.5467  1.3757  0.5838
  193SOL     OW 1398   6.479   0.542   5.107 -0.8735  0.6762 -0.4837
  193SOL    HW1 1399   6.391   0.548   5.155 -0.2712 -0.1592  0.7927
  193SOL    HW2 1400   6.469   0.485   5.026 -1.6002  0.9503 -0.5998
  194SOL     OW 1401   1.472   2.253   0.442 -0.0136  0.4839  0.1096
  194SOL    HW1 1402   1.557   2.201   0.436 -0.6188 -0.4103 -1.0347
  194SOL    HW2 1403   1.414   2.216   0.515  0.3367  0.7592  0.5350
  195SOL     OW 1404   0.986   0.649   4.571 -0.1512 -0.3936 -0.1764
  195SOL    HW1 1405   0.890   0.626   4.586 -0.7992  1.7522 -0.8146
  195SOL    HW2 1406   1.042   0.604   4.641 -1.6667 -1.1522  0.5886
  196SOL     OW 1407   6.074   6.611   0.431  0.2567 -0.3817  0.2871
  196SOL    HW1 1408   6.071   6.701   0.476  0.7577 -0.0368 -0.3435
  196SOL    HW2 1409   5.991   6.560   0.453  0.7687 -0.4820  2.0867
  197SOL     OW 1410   4.159   1.686   4.666 -0.1243  0.0657  0.3699
  197SOL    HW1 1411   4.063   1.657   4.662 -0.9642  2.5339  0.8030
  197SOL    HW2 1412   4.191   1.681   4.761 -0.7203  1.7446  0.6888
  198SOL     OW 1413   5.963   6.250   6.811 -0.3929  0.2486  0.1526
  198SOL    HW1 1414   5.909   6.167   6.827  0.0973 -0.1737 -0.3521
  198SOL    HW2 1415   5.976   6.298   6.898  1.1537 -1.3528  0.8828
  199SOL     OW 1416   5.250   6.919   2.005 -0.3622 -0.0822 -0.0526
  199SOL    HW1 1417   5.185   6.946   2.076 -0.5644 -0.2044 -0.1934
  199SOL    HW2 1418   5.212   6.845   1.951 -0.0337 -0.2720 -0.0252
  200SOL     OW 1419   5.407   0.577   5.465 -0.1478 -0.6418 -0.0928
  200SOL    HW1 1420   5.469   0.570   5.387  0.3551 -2.0425  0.3935
  200SOL    HW2 1421   5.433   0.655   5.521 -0.5836  0.4394 -1.3615
  201SOL     OW 1422   0.604   6.252   0.562 -1.2007 -0.0275  0.2221
  201SOL    HW1 1423   0.619   6.198   0.645  0.4118  0.3025  0.1921
  201SOL    HW2 1424   0.620   6.194   0.482  0.2394  0.3751  0.1883
  202SOL     OW 1425   1.415   3.271   5.782  0.4921 -0.9275 -0.5022
  202SOL    HW1 1426   1.485   3.267   5.711  0.0047 -0.4662 -1.0109
  202SOL    HW2 1427   1.324   3.272   5.740  0.1237 -2.5958  0.1670
  203SOL     OW 1428   3.196   3.241   0.241  0.6520  0.7177  0.0052
  203SOL    HW1 1429   3.293   3.232   0.264  1.2251  0.3221 -2.3140
  203SOL    HW2 1430   3.146   3.161   0.273  1.4851 -0.0463 -0.5862
  204SOL     OW 1431   0.110   5.528   1.820  0.1787 -0.0364 -0.3185
  204SOL    HW1 1432   0.026   5.521   1.767 -1.3916  0.2314  1.9790
  204SOL    HW2 1433   0.089   5.519   1.917  2.7274  0.8021  0.3962
  205SOL     OW 1434   0.925   2.029   5.577 -0.3852  0.3919 -0.1054
  205SOL    HW1 1435   0.953   2.102   5.639 -0.5638  0.7821 -0.4862
  205SOL    HW2 1436   0.882   2.068   5.496  0.9174 -0.0437 -1.0362
  206SOL     OW 1437   4.940   4.689   6.321  0.7350  0.2015 -0.1172
  206SOL    HW1 1438   4.982   4.778   6.306 -0.4580  0.8486  0.2223
  206SOL    HW2 1439   4.991   4.639   6.390  0.6614  1.1813  0.6657
  207SOL     OW 1440   6.453   6.267   4.480  0.8686 -0.1512 -0.4458
  207SOL    HW1 1441   6.410   6.352   4.448 -1.4283 -0.4328  1.6190
  207SOL    HW2 1442   6.400   6.189   4.446 -0.4079 -0.5041  2.1270
  208SOL     OW 1443   4.680   6.028   6.397 -0.1598 -0.0348 -0.1341
  208SOL    HW1 1444   4.647   5.934   6.413 -1.1186  0.2323 -0.4346
  208SOL    HW2 1445   4.754   6.026   6.330  1.2499 -0.7711  1.3834
  209SOL     OW 1446   5.362   3.810   0.770 -0.0775 -0.3250  0.3784
  209SOL    HW1 1447   5.263   3.803   0.756  0.0699 -0.5043 -0.6900
  209SOL    HW2 1448   5.389   3.753   0.847 -0.7161 -0.8019  0.2575
  210SOL     OW 1449   0.783   4.855   2.085  0.1396  0.4798 -0.2953
  210SOL    HW1 1450   0.693   4.898   2.087  0.9724  2.2898 -0.0197
  210SOL    HW2 1451   0.807   4.824   2.177 -0.0560  0.2775 -0.3095
  211SOL     OW 1452   6.885   4.002   5.331  0.1040  0.2101 -0.6687
  211SOL    HW1 1453   6.963   3.994   5.392  1.2924 -0.9316 -2.2569
  211SOL    HW2 1454   6.860   3.911   5.296 -0.7945  0.7688 -1.5523
  212SOL     OW 1455   5.251   4.965   1.853  0.1208 -0.3514 -0.1526
  212SOL    HW1 1456   5.346   4.993   1.842  0.6332 -2.5946 -2.2842
  212SOL    HW2 1457   5.233   4.941   1.948  0.7642  2.9038  0.9104
  213SOL     OW 1458   2.325   4.309   0.701  0.0299  0.3172 -0.9359
  213SOL    HW1 1459   2.264   4.253   0.645 -1.4503 -0.8192  1.6228
  213SOL    HW2 1460   2.272   4.379   0.748  1.2150  1.2208 -0.8987
  214SOL     OW 1461   2.903   3.481   6.355  0.4735  0.3319 -0.7197
  214SOL    HW1 1462   2.917   3.580   6.358 -0.0658  0.4006  0.3713
  214SOL    HW2 1463   2.832   3.459   6.289 -2.3296  1.1324  1.7782
  215SOL     OW 1464   5.873   1.974   6.054 -0.0404  0.1245  0.1181
  215SOL    HW1 1465   5.794   2.035   6.063  2.1768  3.0753  0.8698
  215SOL    HW2 1466   5.941   1.998   6.123  0.9805 -3.3438  0.5082
  216SOL     OW 1467   6.995   4.797   2.030 -0.2454 -0.4460 -0.0458
  216SOL    HW1 1468   6.953   4.875   1.984  0.5629  0.5148  0.8066
  216SOL    HW2 1469   6.941   4.771   2.110 -0.4123 -0.6438 -0.2217
  217SOL     OW 1470   2.163   6.467   5.050  0.3081  0.1700 -0.1631
  217SOL    HW1 1471   2.136   6.519   5.131 -0.2451  0.7812 -0.7195
  217SOL    HW2 1472   2.239   6.514   5.004  2.3693 -1.4991  1.3490
  218SOL     OW 1473   4.291   3.589   0.725  0.0249 -0.2879 -0.2735
  218SOL    HW1 1474   4.320   3.630   0.811  0.7689  2.0191 -1.5479
  218SOL    HW2 1475   4.358   3.520   0.697 -0.8188 -1.9028  1.4990
  219SOL     OW 1476   4.352   5.890   3.153 -0.2661 -0.1298 -0.5114
  219SOL    HW1 1477   4.317   5.827   3.222 -0.1880  0.0614 -0.2959
  219SOL    HW2 1478   4.418   5.952   3.195 -1.0753  0.7448 -0.4982
  220SOL     OW 1479   5.620   1.766   5.206  0.2645  0.3006 -0.5343
  220SOL    HW1 1480   5.623   1.863   5.180  1.4426  0.4647  0.1393
  220SOL    HW2 1481   5.708   1.724   5.186 -0.0682 -0.5022 -0.3209
  221SOL     OW 1482   4.726   1.023   4.070  0.2740 -0.2015  0.0577
  221SOL    HW1 1483   4.641   1.076   4.073  0.1754 -0.3815  0.6359
  221SOL    HW2 1484   4.715   0.947   4.006 -0.5116 -1.0638  1.1834
  222SOL     OW 1485   5.425   6.907   6.304 -0.2262 -0.2288 -0.4210
  222SOL    HW1 1486   5.352   6.969   6.334  0.7064 -0.2138  2.0624
  222SOL    HW2 1487   5.398   6.813   6.325 -0.2331 -0.3814 -1.0952
  223SOL     OW 1488   6.699   0.671   0.379  0.4244 -0.0996  0.6138
  223SOL    HW1 1489   6.672   0.726   0.300  1.5447  2.8440  2.1371
  223SOL    HW2 1490   6.769   0.605   0.352 -0.5738 -0.5081 -1.1688
  224SOL     OW 1491   0.322   5.449   6.286 -0.3787 -0.2211  0.0011
  224SOL    HW1 1492   0.412   5.423   6.251  1.0703  2.3831  1.5269
  224SOL    HW2 1493   0.283   5.372   6.336  0.7318 -1.5573 -1.0880
  225SOL     OW 1494   5.556   2.566   1.727  0.5383  0.3740 -0.7058
  225SOL    HW1 1495   5.597   2.514   1.802  1.0922 -0.5107 -1.6180
  225SOL    HW2 1496   5.478   2.618   1.763 -0.6954 -1.8791  0.0254
  226SOL     OW 1497   4.433   1.411   2.983  0.0851  0.1979  0.2205
  226SOL    HW1 1498   4.379   1.328   2.999  0.7354 -0.2038  0.3746
  226SOL    HW2 1499   4.398   1.484   3.041 -0.5992  0.0788 -0.0369
  227SOL     OW 1500   3.167   1.737   0.725 -0.0247 -0.2419 -0.3318
  227SOL    HW1 1501   3.111   1.779   0.797 -0.4562  0.2254 -0.9290
  227SOL    HW2 1502   3.248   1.793   0.709  1.4027 -1.6426  1.5166
  228SOL     OW 1503   0.514   6.908   0.569  0.0008 -0.4030  0.6523
  228SOL    HW1 1504   0.576   6.832   0.551  0.0438  0.1020 -1.6174
  228SOL    HW2 1505   0.422   6.874   0.587 -0.0236 -0.9955 -0.5539
  229SOL     OW 1506   6.029   1.661   1.413  0.0384 -0.2050  0.3852
  229SOL    HW1 1507   6.011   1.566   1.438 -2.0452  0.0069 -0.1509
  229SOL    HW2 1508   6.011   1.674   1.316  0.5543  0.6932  0.3984
  230SOL     OW 1509   2.698   1.319   2.396 -0.0084 -0.0708 -0.7870
  230SOL    HW1 1510   2.723   1.224   2.380  3.2693  0.3303  1.0936
  230SOL    HW2 1511   2.681   1.364   2.308  2.6624 -1.4111 -2.1347
  231SOL     OW 1512   0.355   4.917   3.640  0.0725 -0.1032  0.5173
  231SOL    HW1 1513   0.306   4.910   3.727  2.1277 -1.5081  1.6679
  231SOL    HW2 1514   0.433   4.979   3.651 -0.8596  1.4065 -1.0065
  232SOL     OW 1515   5.381   3.303   4.892 -0.0357 -0.5646  0.2113
  232SOL    HW1 1516   5.445   3.354   4.949 -1.5348  1.6088  0.0483
  232SOL    HW2 1517   5.411   3.305   4.797  1.1330 -2.0670  0.4970
  233SOL     OW 1518   3.480   5.953   0.787 -0.1347  0.0300  0.8406
  233SOL    HW1 1519   3.424   5.948   0.869 -0.5484 -2.5249  0.4806
  233SOL    HW2 1520   3.431   6.003   0.716 -0.8268  0.0948  1.3539
  234SOL     OW 1521   2.429   6.308   1.059 -0.4924  0.3837 -0.2146
  234SOL    HW1 1522   2.432   6.333   0.962  1.6009  1.0187 -0.0126
  234SOL    HW2 1523   2.347   6.348   1.100 -2.3571 -1.2711 -2.0293
  235SOL     OW 1524   5.758   6.260   3.238  0.0320  0.0588 -0.2744
  235SOL    HW1 1525   5.730   6.354   3.221  1.3996  0.3036 -1.3512
  235SOL    HW2 1526   5.693   6.217   3.301 -1.5077  1.2175 -0.9963
  236SOL     OW 1527   3.522   6.644   1.648  0.4880  0.3517 -0.1011
  236SOL    HW1 1528   3.611   6.601   1.634 -0.8691 -2.3688 -1.1655
  236SOL    HW2 1529   3.450   6.574   1.642 -1.7932  2.5550 -0.1164
  237SOL     OW 1530   1.028   5.446   5.290  0.1873  0.4190 -0.3152
  237SOL    HW1 1531   0.985   5.383   5.354 -1.4139 -0.0493 -1.7614
  237SOL    HW2 1532   1.063   5.395   5.211  1.1595  1.0821 -0.3287
  238SOL     OW 1533   2.140   2.775   5.149 -0.1386  0.0061 -0.4516
  238SOL    HW1 1534   2.178   2.850   5.203  0.1268  0.9012 -1.8383
  238SOL    HW2 1535   2.120   2.698   5.209 -0.1624  1.0775  0.9712
  239SOL     OW 1536   3.403   4.175   0.543  0.0664  0.4501  0.0884
  239SOL    HW1 1537   3.388   4.082   0.510  1.5802  0.3504 -0.3826
  239SOL    HW2 1538   3.330   4.234   0.507 -1.3268 -0.6524  0.9870
  240SOL     OW 1539   1.666   5.031   4.540  0.7187  0.0386  0.3271
  240SOL    HW1 1540   1.646   5.002   4.634 -0.3642 -0.5302 -0.0637
  240SOL    HW2 1541   1.751   4.990   4.509  2.4492  2.1822  1.9008
  241SOL     OW 1542   4.978   2.471   2.462  0.1184 -0.1185  0.6189
  241SOL    HW1 1543   4.961   2.548   2.400 -0.5767  1.1739  2.3561
  241SOL    HW2 1544   4.969   2.386   2.411  1.1860  0.9084 -1.4241
  242SOL     OW 1545   0.329   0.470   0.959 -0.0401 -0.3212 -0.2714
  242SOL    HW1 1546   0.273   0.552   0.947 -0.9295 -0.4354  2.4646
  242SOL    HW2 1547   0.282   0.405   1.019  3.1259 -0.2145  2.6606
  243SOL     OW 1548   5.417   1.054   1.754 -0.1257  0.6108 -0.8727
  243SOL    HW1 1549   5.484   1.023   1.822  0.6711  0.6220 -1.6250
  243SOL    HW2 1550   5.336   1.089   1.800 -0.2372 -0.7893  0.0290
  244SOL     OW 1551   3.912   4.347   1.461 -0.8003 -0.0747  0.2247
  244SOL    HW1 1552   3.967   4.274   1.419 -1.6909 -0.4188 -0.3853
  244SOL    HW2 1553   3.923   4.431   1.408 -1.2664 -0.2907 -0.2382
  245SOL     OW 1554   2.655   6.892   4.875  0.4842  0.5809 -0.1481
  245SOL    HW1 1555   2.747   6.887   4.837  0.6546 -0.7866  0.3929
  245SOL    HW2 1556   2.652   6.841   4.961 -0.7748  0.6380 -0.1449
  246SOL     OW 1557   0.324   1.450   0.203 -0.0597  0.0112  0.3422
  246SOL    HW1 1558   0.278   1.362   0.210 -2.1855  1.0174 -0.1542
  246SOL    HW2 1559   0.422   1.436   0.185 -0.3900 -2.2013  0.0511
  247SOL     OW 1560   5.589   0.810   1.617 -0.0901 -0.4674  0.2953
  247SOL    HW1 1561   5.558   0.871   1.691 -1.4818 -0.2972 -0.4023
  247SOL    HW2 1562   5.603   0.863   1.534 -0.2508 -0.9205 -0.0247
  248SOL     OW 1563   1.495   1.417   2.869 -0.4331  0.3238 -0.3538
  248SOL    HW1 1564   1.451   1.475   2.937 -0.0090 -0.2191  0.4083
  248SOL    HW2 1565   1.428   1.388   2.801 -1.2796 -0.4838  0.7781
  249SOL     OW 1566   2.886   0.827   6.318 -0.1508  0.0214 -0.3547
  249SOL    HW1 1567   2.953   0.758   6.293 -0.6608 -0.3713 -0.6570
  249SOL    HW2 1568   2.922   0.918   6.296  0.3950 -0.1661 -0.2471
  250SOL     OW 1569   1.568   4.149   1.662  0.2446 -0.2285 -0.5938
  250SOL    HW1 1570   1.481   4.182   1.625  0.3828 -0.6538 -1.3379
  250SOL    HW2 1571   1.551   4.078   1.730  0.0015 -0.0064 -0.4211
  251SOL     OW 1572   2.608   0.277   1.004 -0.1011  0.6969 -0.0138
  251SOL    HW1 1573   2.518   0.253   0.968 -0.3824  2.3945 -0.5625
  251SOL    HW2 1574   2.613   0.252   1.101  0.0663 -2.4167 -0.7290
  252SOL     OW 1575   5.212   0.068   6.432 -0.6549 -0.1178  0.1260
  252SOL    HW1 1576   5.129   0.115   6.461 -0.4243  1.6688 -1.8081
  252SOL    HW2 1577   5.284   0.136   6.416 -0.2278 -1.0881 -2.6198
  253SOL     OW 1578   0.841   1.924   2.619 -0.2134 -0.2840  0.6923
  253SOL    HW1 1579   0.827   2.023   2.613 -0.6202 -0.2498  1.9732
  253SOL    HW2 1580   0.939   1.905   2.617 -0.1381  0.1140  0.1492
  254SOL     OW 1581   2.043   1.182   4.682 -0.1191  0.5059  0.0115
  254SOL    HW1 1582   1.951   1.153   4.655  0.6497 -0.5077 -1.6951
  254SOL    HW2 1583   2.040   1.222   4.773 -2.3374  1.0507 -0.2572
  255SOL     OW 1584   2.076   6.962   0.885 -0.0570 -0.0865 -0.0425
  255SOL    HW1 1585   2.114   6.896   0.820 -0.0491  0.5942 -0.7454
  255SOL    HW2 1586   2.093   7.055   0.852  0.1412  0.2763  1.0591
  256SOL     OW 1587   0.398   5.768   3.734  0.0035 -0.6436  0.1735
  256SOL    HW1 1588   0.406   5.690   3.797 -1.0552 -0.6362  0.3333
  256SOL    HW2 1589   0.333   5.834   3.770 -2.5134 -1.7592 -1.9954
  257SOL     OW 1590   0.613   1.203   6.006 -0.0245 -0.2955 -0.0202
  257SOL    HW1 1591   0.586   1.114   5.968 -0.0258 -0.0727 -0.5477
  257SOL    HW2 1592   0.712   1.214   5.995 -0.0069 -0.2792  0.1530
  258SOL     OW 1593   3.141   6.040   0.650  0.1218 -0.0106  0.2491
  258SOL    HW1 1594   3.224   6.093   0.634  0.4225 -0.2063  1.0750
  258SOL    HW2 1595   3.123   5.981   0.572 -0.2043  1.2822 -0.6674
  259SOL     OW 1596   4.907   5.731   6.628 -0.0056  0.4625 -0.1396
  259SOL    HW1 1597   4.897   5.708   6.531 -2.0808  0.1925  0.0949
  259SOL    HW2 1598   4.817   5.748   6.667  0.4106 -2.5069  2.4759
  260SOL     OW 1599   3.788   0.677   0.264 -0.5139 -0.7693 -0.0126
  260SOL    HW1 1600   3.723   0.753   0.272 -1.0737 -1.2531  0.1329
  260SOL    HW2 1601   3.825   0.656   0.355  1.4642  0.8542 -0.3463
  261SOL     OW 1602   2.386   6.468   0.495 -0.4036 -0.2854  0.4697
  261SOL    HW1 1603   2.480   6.459   0.527 -0.0954  0.2864 -0.2334
  261SOL    HW2 1604   2.339   6.380   0.500  0.4996 -0.8226 -0.1694
  262SOL     OW 1605   2.832   3.076   1.428  0.0373 -0.5318  0.2630
  262SOL    HW1 1606   2.842   2.980   1.454  0.1924  0.2912  3.6703
  262SOL    HW2 1607   2.895   3.097   1.353  0.8107 -2.7876  0.2005
  263SOL     OW 1608   3.359   6.523   3.454  0.8162  0.0170 -0.0858
  263SOL    HW1 1609   3.324   6.519   3.360  1.9065 -1.2699 -0.4646
  263SOL    HW2 1610   3.379   6.431   3.486 -0.5701  0.3308  1.8436
  264SOL     OW 1611   1.482   6.820   6.275  0.2277 -0.3503 -0.2973
  264SOL    HW1 1612   1.536   6.874   6.210 -1.1560  0.7293 -0.5953
  264SOL    HW2 1613   1.400   6.871   6.301 -0.2297 -1.5876  0.8065
  265SOL     OW 1614   3.876   5.902   2.963  0.2694 -0.1538 -0.2440
  265SOL    HW1 1615   3.796   5.949   2.925 -1.0572 -1.3332  0.9425
  265SOL    HW2 1616   3.951   5.967   2.974 -0.1640  0.7671 -2.3403
  266SOL     OW 1617   4.631   3.110   1.668 -0.2260  0.3060  0.0317
  266SOL    HW1 1618   4.708   3.137   1.611  0.2268  0.5783  0.7680
  266SOL    HW2 1619   4.559   3.180   1.662 -0.5664 -0.0945 -0.8947
  267SOL     OW 1620   4.192   2.696   1.664  0.1479 -0.1301  0.1161
  267SOL    HW1 1621   4.256   2.727   1.734 -0.0119  0.3270  0.0677
  267SOL    HW2 1622   4.136   2.622   1.700 -0.2153  0.3797  0.6164
  268SOL     OW 1623   1.112   2.598   1.298 -0.2490 -0.1034 -0.3421
  268SOL    HW1 1624   1.029   2.627   1.346  0.7730  1.8911  0.3492
  268SOL    HW2 1625   1.124   2.500   1.308 -1.1457 -0.0449  1.8219
  269SOL     OW 1626   1.503   6.762   3.913  1.1150 -0.3175 -0.4881
  269SOL    HW1 1627   1.419   6.707   3.905  1.2766 -0.9063  1.3764
  269SOL    HW2 1628   1.582   6.701   3.914  1.4338  0.0996 -0.3453
  270SOL     OW 1629   3.433   4.491   5.417  0.6904 -0.4232  0.3370
  270SOL    HW1 1630   3.355   4.553   5.429  0.1327 -0.8198 -1.0639
  270SOL    HW2 1631   3.402   4.397   5.427  1.2382 -0.5474  0.9329
  271SOL     OW 1632   2.013   5.550   0.796  0.1515  0.1535 -0.1242
  271SOL    HW1 1633   1.984   5.530   0.702 -0.6143  0.5044  0.0247
  271SOL    HW2 1634   2.055   5.469   0.836 -1.3436 -0.6529 -0.1033
  272SOL     OW 1635   0.797   3.616   1.456  0.0445 -0.1001 -0.2565
  272SOL    HW1 1636   0.888   3.580   1.436  0.9613  1.6952  0.4903
  272SOL    HW2 1637   0.797   3.660   1.546 -0.8815  2.0648 -1.2479
  273SOL     OW 1638   4.289   0.951   2.380  0.2332  0.1267 -0.7115
  273SOL    HW1 1639   4.196   0.986   2.375  0.2413  0.0931 -1.1211
  273SOL    HW2 1640   4.298   0.890   2.459  0.8028  2.7795  1.4280
  274SOL     OW 1641   3.959   2.674   1.479 -0.2052 -0.2832 -0.4199
  274SOL    HW1 1642   3.987   2.725   1.398 -0.0949  0.4381  0.0706
  274SOL    HW2 1643   3.914   2.589   1.450 -2.6670  1.2160 -1.3242
  275SOL     OW 1644   1.557   5.104   6.029 -0.3679 -0.0255 -0.6105
  275SOL    HW1 1645   1.466   5.110   5.989  0.7748  0.9010 -3.2778
  275SOL    HW2 1646   1.574   5.010   6.060 -1.8390 -0.4555 -1.0368
  276SOL     OW 1647   4.439   4.050   5.822 -0.0842 -0.3182  0.1325
  276SOL    HW1 1648   4.412   4.030   5.728  2.1365 -4.1364  0.0981
  276SOL    HW2 1649   4.358   4.054   5.880 -1.4203  1.1645 -1.7173
  277SOL     OW 1650   2.768   6.197   3.508 -0.6314  0.0633 -0.8772
  277SOL    HW1 1651   2.822   6.236   3.434  0.4940 -2.6657 -1.6246
  277SOL    HW2 1652   2.815   6.211   3.595 -0.9285  1.4472 -0.9089
  278SOL     OW 1653   3.880   2.789   6.632  0.4579 -0.1710  0.2076
  278SOL    HW1 1654   3.925   2.867   6.590  0.8594 -0.8209 -0.5965
  278SOL    HW2 1655   3.799   2.764   6.578  0.2554 -0.2375  0.5331
  279SOL     OW 1656   0.021   3.424   5.821 -0.3995 -0.2980  0.2886
  279SOL    HW1 1657   0.042   3.441   5.725  0.9251  1.1309  0.7944
  279SOL    HW2 1658   0.044   3.505   5.876 -1.2741 -1.0184  1.8030
  280SOL     OW 1659   2.680   3.281   2.840  0.1528  0.2019 -0.6202
  280SOL    HW1 1660   2.729   3.195   2.822  0.9735  0.6323 -0.5058
  280SOL    HW2 1661   2.719   3.325   2.921 -0.4327  0.5647 -0.5298
  281SOL     OW 1662   0.816   4.361   6.401 -0.0913  0.1813 -0.3336
  281SOL    HW1 1663   0.812   4.348   6.302 -0.8516 -0.9920 -0.1593
  281SOL    HW2 1664   0.723   4.360   6.439  0.2949 -1.9782  0.7005
  282SOL     OW 1665   3.972   0.557   2.947 -0.0506 -0.0437 -0.3096
  282SOL    HW1 1666   4.001   0.576   3.040  2.3511  1.6413 -1.3028
  282SOL    HW2 1667   3.926   0.636   2.908 -0.7498 -0.6154 -0.6815
  283SOL     OW 1668   2.552   1.974   2.519  0.2013  0.4714 -0.0382
  283SOL    HW1 1669   2.519   1.979   2.613 -0.3577 -1.7049 -0.0717
  283SOL    HW2 1670   2.523   2.056   2.469 -0.7104  0.9920  1.2887
  284SOL     OW 1671   5.715   5.322   5.214  0.6766  0.4758  0.2253
  284SOL    HW1 1672   5.730   5.408   5.262  2.8999 -0.7515  1.9243
  284SOL    HW2 1673   5.762   5.248   5.262  0.6574 -1.3516 -2.3439
  285SOL     OW 1674   6.416   2.693   6.775 -0.0928 -0.3983 -0.0607
  285SOL    HW1 1675   6.403   2.757   6.699 -2.5453  0.2160  0.7507
  285SOL    HW2 1676   6.504   2.647   6.767  0.1826  0.4579 -2.6351
  286SOL     OW 1677   5.251   3.731   0.232  0.1336  0.0942 -0.2937
  286SOL    HW1 1678   5.229   3.779   0.317  0.9959 -0.9081  0.5324
  286SOL    HW2 1679   5.212   3.639   0.235  1.1172 -0.3437 -0.4757
  287SOL     OW 1680   2.895   2.474   1.675 -0.7775 -0.0469 -0.5182
  287SOL    HW1 1681   2.932   2.482   1.582  0.3235 -0.6205 -0.1362
  287SOL    HW2 1682   2.969   2.462   1.740 -1.4490  1.3861  0.5882
  288SOL     OW 1683   3.189   3.687   1.145  0.0398 -0.1817 -0.3707
  288SOL    HW1 1684   3.158   3.646   1.060  0.1901  0.9539 -0.9977
  288SOL    HW2 1685   3.268   3.636   1.180  0.7670  0.0587 -1.5918
  289SOL     OW 1686   4.495   4.564   3.844  0.7613  0.5583  0.4347
  289SOL    HW1 1687   4.396   4.557   3.860  0.7135 -2.2835 -0.5333
  289SOL    HW2 1688   4.544   4.512   3.913  1.6015  1.6797  0.7134
  290SOL     OW 1689   6.586   2.169   4.405 -0.1327  0.3027 -0.0665
  290SOL    HW1 1690   6.669   2.209   4.444  2.3488 -3.2890 -1.1903
  290SOL    HW2 1691   6.552   2.098   4.465 -0.6986 -0.1998 -0.9591
  291SOL     OW 1692   5.624   4.447   3.632 -0.1083  0.4266 -0.1359
  291SOL    HW1 1693   5.690   4.425   3.560 -1.8821  0.7356 -1.9245
  291SOL    HW2 1694   5.541   4.484   3.591 -1.3587  0.2011  2.0639
  292SOL     OW 1695   5.966   1.633   3.720  0.3362  0.2269 -0.2119
  292SOL    HW1 1696   5.934   1.687   3.798  2.6987 -0.0490  1.0466
  292SOL    HW2 1697   6.038   1.571   3.750 -0.3586 -1.6821 -2.1734
  293SOL     OW 1698   4.713   2.614   1.269  0.3571 -0.5759  0.2526
  293SOL    HW1 1699   4.764   2.577   1.191 -1.0006 -0.6477 -0.6318
  293SOL    HW2 1700   4.681   2.538   1.327 -0.2747 -0.6640 -0.1926
  294SOL     OW 1701   5.314   4.924   5.526  0.2469  0.1251  0.0792
  294SOL    HW1 1702   5.386   4.858   5.548  0.2568  0.0603 -0.1507
  294SOL    HW2 1703   5.322   4.952   5.431 -0.8157 -0.8596 -0.3282
  295SOL     OW 1704   2.263   4.369   3.055 -0.1634 -0.8176 -0.0586
  295SOL    HW1 1705   2.291   4.354   2.961 -1.4508  0.7476 -0.7472
  295SOL    HW2 1706   2.343   4.385   3.113  0.5840 -1.0015 -1.0313
  296SOL     OW 1707   5.208   1.471   5.554  0.5369  0.5442 -0.2867
  296SOL    HW1 1708   5.277   1.469   5.481  0.4782  1.3808 -0.3690
  296SOL    HW2 1709   5.179   1.565   5.571  0.1419  0.3012  0.4414
  297SOL     OW 1710   5.195   3.352   0.875 -0.6315 -0.0282  0.0396
  297SOL    HW1 1711   5.139   3.429   0.906  0.4367  0.5530  0.5927
  297SOL    HW2 1712   5.147   3.304   0.801 -1.7253  0.6054  0.3117
  298SOL     OW 1713   6.343   0.815   6.463 -0.0711 -0.0223 -0.2922
  298SOL    HW1 1714   6.324   0.885   6.532 -1.2230 -0.6459  0.0510
  298SOL    HW2 1715   6.435   0.829   6.426  0.5044  0.4229  1.2358
  299SOL     OW 1716   1.282   2.774   2.953  0.0703  0.3949 -0.0587
  299SOL    HW1 1717   1.305   2.831   2.874  2.7555  1.5049  1.3926
  299SOL    HW2 1718   1.251   2.833   3.028  0.1303 -0.3693  0.5698
  300SOL     OW 1719   1.020   3.074   3.438  0.2313  0.9254  0.0851
  300SOL    HW1 1720   0.986   3.031   3.355 -0.6024 -0.1295  0.9528
  300SOL    HW2 1721   1.042   3.170   3.419 -1.8526  1.2556 -0.8738
  301SOL     OW 1722   2.175   0.511   1.693  0.4792 -0.2746 -0.2097
  301SOL    HW1 1723   2.139   0.578   1.758  2.6271  1.2529 -0.4814
  301SOL    HW2 1724   2.233   0.446   1.741  0.4820 -0.3511 -0.3163
  302SOL     OW 1725   1.361   4.504   1.653  0.2881 -0.1040  0.6169
  302SOL    HW1 1726   1.425   4.532   1.582 -0.0492 -0.6406  0.0942
  302SOL    HW2 1727   1.360   4.572   1.726  3.8038 -1.4777  2.1844
  303SOL     OW 1728   4.930   5.609   0.405 -0.1504  0.0652  0.1268
  303SOL    HW1 1729   4.858   5.631   0.339  1.8828 -0.9856 -2.6494
  303SOL    HW2 1730   4.994   5.686   0.412  1.3137 -0.9097 -1.6266
  304SOL     OW 1731   1.749   2.575   1.433 -0.0608 -0.1627 -0.3276
  304SOL    HW1 1732   1.725   2.672   1.437  0.7596  0.0809 -0.9564
  304SOL    HW2 1733   1.667   2.521   1.420 -0.9129  0.1865  2.7911
  305SOL     OW 1734   0.028   4.383   3.653 -0.4069 -0.0230 -0.4125
  305SOL    HW1 1735   0.006   4.472   3.613 -1.5840  0.0684  0.3815
  305SOL    HW2 1736   0.060   4.321   3.582 -3.1812 -0.1205 -1.7231
  306SOL     OW 1737   4.929   5.795   5.851  0.4599  0.3511 -0.2263
  306SOL    HW1 1738   4.844   5.844   5.871  0.2529 -0.8348  2.2753
  306SOL    HW2 1739   4.912   5.727   5.780 -0.2660  1.1350 -0.8297
  307SOL     OW 1740   1.155   5.480   6.855 -0.4358  0.1371  0.0256
  307SOL    HW1 1741   1.078   5.424   6.825 -0.2682 -0.0723 -0.0134
  307SOL    HW2 1742   1.125   5.540   6.929 -0.5878 -0.0812  0.1420
  308SOL     OW 1743   3.506   3.537   0.629 -0.0542 -0.9583  0.1309
  308SOL    HW1 1744   3.593   3.526   0.677  0.5519  0.5599 -0.5397
  308SOL    HW2 1745   3.433   3.552   0.695  0.5095 -0.4722  0.6577
  309SOL     OW 1746   0.814   2.234   2.603 -0.1370  0.5216 -0.0771
  309SOL    HW1 1747   0.909   2.229   2.573 -0.5162 -0.0321 -1.2703
  309SOL    HW2 1748   0.773   2.320   2.573  0.0865  0.9323  0.7742
  310SOL     OW 1749   5.192   5.459   1.280  0.3502 -0.6325  0.1975
  310SOL    HW1 1750   5.136   5.426   1.204 -2.4889  1.5336  1.1623
  310SOL    HW2 1751   5.285   5.475   1.249 -0.6382 -0.0192 -2.7849
  311SOL     OW 1752   4.324   1.156   1.448  0.3433  0.2938 -0.0923
  311SOL    HW1 1753   4.259   1.195   1.383  0.2026 -0.4774 -0.4190
  311SOL    HW2 1754   4.303   1.190   1.540  1.0318  2.0280 -0.5247
  312SOL     OW 1755   2.354   5.781   0.728 -0.2127  0.1784 -0.2589
  312SOL    HW1 1756   2.351   5.723   0.808  2.3066 -0.4849 -0.5668
  312SOL    HW2 1757   2.335   5.876   0.754  1.6271  0.1561  1.3650
  313SOL     OW 1758   4.809   5.567   5.706 -0.3167  0.2660  0.0864
  313SOL    HW1 1759   4.840   5.490   5.762 -2.1203  0.6570  1.6987
  313SOL    HW2 1760   4.802   5.537   5.610  1.0663 -0.9227  0.3091
  314SOL     OW 1761   4.376   0.628   5.139 -0.3781  0.0797  0.0487
  314SOL    HW1 1762   4.449   0.566   5.169 -0.6586 -0.7560 -0.9101
  314SOL    HW2 1763   4.373   0.708   5.198  1.0842 -0.0441  0.3249
  315SOL     OW 1764   4.596   0.600   4.187 -0.0568 -0.3637 -0.3191
  315SOL    HW1 1765   4.662   0.580   4.259 -1.9447  0.0041  1.6186
  315SOL    HW2 1766   4.626   0.680   4.135  1.4163 -0.7264 -0.0817
  316SOL     OW 1767   6.100   0.065   1.213  0.8268  0.3498  0.0602
  316SOL    HW1 1768   6.171  -0.001   1.237  0.7290  0.2648  0.1114
  316SOL    HW2 1769   6.015   0.043   1.260  1.2338  1.4453  1.3713
  317SOL     OW 1770   1.998   1.063   6.184  0.2716  0.0463  0.1113
  317SOL    HW1 1771   1.963   1.108   6.102  0.6838  1.1313  0.5174
  317SOL    HW2 1772   1.922   1.038   6.244 -0.1377 -1.8120 -1.0940
  318SOL     OW 1773   5.807   2.106   1.590  0.1486  0.2062  0.9718
  318SOL    HW1 1774   5.884   2.043   1.601 -0.4237 -0.2429  2.6764
  318SOL    HW2 1775   5.813   2.151   1.501  0.5020 -2.3368 -0.3712
  319SOL     OW 1776   6.348   6.194   2.748  0.5564 -0.0067 -0.1604
  319SOL    HW1 1777   6.425   6.163   2.693  2.2221  1.9925  0.9098
  319SOL    HW2 1778   6.372   6.189   2.845 -0.9829 -0.1178  0.2424
  320SOL     OW 1779   6.093   4.803   6.185  0.1276  0.4799  0.1766
  320SOL    HW1 1780   6.115   4.883   6.129  1.0943  0.0887 -0.0312
  320SOL    HW2 1781   6.099   4.826   6.282 -1.2426  1.0798  0.1424
  321SOL     OW 1782   0.135   6.014   2.737  0.2757 -0.2895  0.1761
  321SOL    HW1 1783   0.112   6.062   2.652  1.1462  0.9630  0.6330
  321SOL    HW2 1784   0.232   6.025   2.757 -0.2596  1.0728  2.3277
  322SOL     OW 1785   6.451   5.913   1.325 -0.0280 -0.3497 -0.0767
  322SOL    HW1 1786   6.439   5.872   1.235 -0.4487  1.7341 -1.0296
  322SOL    HW2 1787   6.366   5.905   1.378 -0.1230 -0.6309 -0.2729
  323SOL     OW 1788   3.559   6.325   0.104 -0.1244  0.0616 -0.2603
  323SOL    HW1 1789   3.502   6.377   0.040  1.3801  0.6585 -1.1700
  323SOL    HW2 1790   3.519   6.330   0.195 -1.9153 -0.1834 -0.9929
  324SOL     OW 1791   5.988   6.953   4.109  0.0599  0.3668  0.2264
  324SOL    HW1 1792   5.975   6.896   4.028  0.6424 -0.8982  0.9842
  324SOL    HW2 1793   5.952   6.905   4.189  0.1693  1.2674  0.8286
  325SOL     OW 1794   3.711   5.285   3.618  0.1331 -0.1713  0.1486
  325SOL    HW1 1795   3.749   5.200   3.654 -0.5928 -0.1406  1.0095
  325SOL    HW2 1796   3.742   5.362   3.673  1.5342  0.2646 -1.1694
  326SOL     OW 1797   6.685   2.781   0.724 -0.1228 -0.0128 -0.3589
  326SOL    HW1 1798   6.670   2.853   0.655 -0.0697 -0.2104 -0.5783
  326SOL    HW2 1799   6.767   2.729   0.700 -0.2042 -0.1954 -0.2435
  327SOL     OW 1800   2.834   6.418   4.492  0.3943  0.5834 -0.7179
  327SOL    HW1 1801   2.748   6.387   4.531  1.1078 -0.2739  0.2070
  327SOL    HW2 1802   2.907   6.354   4.514  0.9745  0.3698 -2.9474
  328SOL     OW 1803   3.852   6.623   2.563  0.2056  0.1325  0.8182
  328SOL    HW1 1804   3.947   6.650   2.552 -0.0255  0.6921  0.0955
  328SOL    HW2 1805   3.792   6.693   2.523 -0.4898 -0.3947  0.9056
  329SOL     OW 1806   0.406   0.393   3.595 -0.0503 -0.4438 -0.1266
  329SOL    HW1 1807   0.326   0.449   3.613  0.3125 -0.1905  0.7321
  329SOL    HW2 1808   0.441   0.355   3.681  0.8790 -0.3659 -0.4564
  330SOL     OW 1809   3.727   1.442   5.981  0.2427  0.1299  0.4015
  330SOL    HW1 1810   3.714   1.537   6.009  0.4820 -0.1218  1.4152
  330SOL    HW2 1811   3.647   1.410   5.932 -0.3058  0.5218  1.0311
  331SOL     OW 1812   1.177   4.100   5.703  0.0671  0.1189 -0.3221
  331SOL    HW1 1813   1.263   4.125   5.660  0.3157  2.0712  1.1812
  331SOL    HW2 1814   1.185   4.009   5.744  1.2113  0.0315 -0.7182
  332SOL     OW 1815   3.650   0.933   4.716  0.1418 -0.2699 -0.2563
  332SOL    HW1 1816   3.647   0.913   4.618 -1.4957 -1.0549 -0.0893
  332SOL    HW2 1817   3.652   1.032   4.729 -1.5970 -0.0679 -1.1235
  333SOL     OW 1818   1.181   0.609   6.295 -0.2961  0.3201 -0.0415
  333SOL    HW1 1819   1.217   0.590   6.387  2.1300  2.3246 -0.4759
  333SOL    HW2 1820   1.108   0.677   6.301  1.0907  1.8241  0.3101
  334SOL     OW 1821   6.865   4.346   4.728 -0.2710  0.2226 -0.2303
  334SOL    HW1 1822   6.777   4.376   4.764 -1.2732  0.8627 -2.9660
  334SOL    HW2 1823   6.895   4.264   4.776 -2.9609 -0.7054  0.0173
  335SOL     OW 1824   0.391   1.251   5.024  0.2868  0.9706  0.3902
  335SOL    HW1 1825   0.368   1.277   4.930  2.6804  2.7190  0.1710
  335SOL    HW2 1826   0.432   1.160   5.024  0.2763  0.9570 -0.2703
  336SOL     OW 1827   0.138   6.143   2.196  0.1339  0.0974 -0.1418
  336SOL    HW1 1828   0.133   6.076   2.122 -0.2833  2.0804 -2.0087
  336SOL    HW2 1829   0.203   6.214   2.172 -2.5097  2.6513 -0.2951
  337SOL     OW 1830   0.496   3.210   2.555 -0.4555  0.4754  0.4183
  337SOL    HW1 1831   0.559   3.173   2.625 -0.5297 -0.1747  0.1492
  337SOL    HW2 1832   0.501   3.153   2.473 -0.3160  1.2817 -0.1440
  338SOL     OW 1833   2.383   5.491   5.258 -0.2756 -0.6827 -0.2516
  338SOL    HW1 1834   2.326   5.508   5.339  0.5691  2.2941 -0.1502
  338SOL    HW2 1835   2.331   5.516   5.176  0.3420  0.6480 -0.2607
  339SOL     OW 1836   4.090   1.707   4.224 -0.1732 -0.0484  0.3524
  339SOL    HW1 1837   4.161   1.694   4.154 -0.8713  1.7417 -0.7456
  339SOL    HW2 1838   4.100   1.636   4.294  0.0837 -2.3861 -1.9012
  340SOL     OW 1839   4.968   4.436   5.176  0.3373  0.1398  0.3544
  340SOL    HW1 1840   4.978   4.535   5.186  1.2708 -0.0996  2.2321
  340SOL    HW2 1841   4.920   4.415   5.091  1.0712  2.1511 -0.5971
  341SOL     OW 1842   0.012   5.734   6.164 -0.5155 -0.2411 -0.4584
  341SOL    HW1 1843   0.049   5.814   6.116  1.7070 -0.9587 -0.0749
  341SOL    HW2 1844   0.047   5.651   6.120  0.5508 -0.9321  1.5825
  342SOL     OW 1845   6.516   4.019   2.800 -0.2753  0.1405 -0.1190
  342SOL    HW1 1846   6.443   4.071   2.754  0.2483  0.1087 -1.0035
  342SOL    HW2 1847   6.567   4.081   2.860 -2.2476 -0.2312  2.0938
  343SOL     OW 1848   4.768   2.172   4.499 -0.3344  0.3692  0.5398
  343SOL    HW1 1849   4.707   2.112   4.551  0.4493 -1.5089 -0.5973
  343SOL    HW2 1850   4.749   2.163   4.401 -0.0060  1.7985  0.3177
  344SOL     OW 1851   4.113   0.817   1.353  0.6624 -0.2025  0.2142
  344SOL    HW1 1852   4.112   0.800   1.451 -0.5817 -0.6506  0.1342
  344SOL    HW2 1853   4.193   0.873   1.330  1.0600 -0.2358  1.4467
  345SOL     OW 1854   5.780   4.084   5.012 -0.8632 -0.0808  0.3265
  345SOL    HW1 1855   5.820   4.152   5.074  1.3142  0.4193 -1.4818
  345SOL    HW2 1856   5.683   4.104   4.999 -0.8518  1.1538  1.7985
  346SOL     OW 1857   5.497   1.029   5.419 -0.0861  0.5283 -0.3782
  346SOL    HW1 1858   5.526   1.076   5.502  0.2526  0.3242 -0.3799
  346SOL    HW2 1859   5.577   0.997   5.369 -0.2878 -2.6429  1.0911
  347SOL     OW 1860   6.841   5.030   5.657 -0.1306  0.4711  0.1867
  347SOL    HW1 1861   6.847   4.972   5.576 -0.8614  0.1530  0.3597
  347SOL    HW2 1862   6.841   5.126   5.629  0.4579  0.3855 -0.1342
  348SOL     OW 1863   5.533   6.867   3.898  0.2428  0.3440 -0.2296
  348SOL    HW1 1864   5.464   6.927   3.858 -1.4090 -1.2532  0.0969
  348SOL    HW2 1865   5.540   6.885   3.997 -0.8020 -0.4966  0.0057
  349SOL     OW 1866   3.398   3.935   3.962  0.1040 -0.3884 -0.3946
  349SOL    HW1 1867   3.334   3.979   4.026 -1.0804 -0.9305 -1.1681
  349SOL    HW2 1868   3.425   4.001   3.892  0.8189 -0.0083  0.2257
  350SOL     OW 1869   5.812   5.731   6.630  0.2288  0.6172 -0.3719
  350SOL    HW1 1870   5.728   5.744   6.684  0.9273  2.3429  0.3673
  350SOL    HW2 1871   5.855   5.644   6.657 -1.3136 -0.3322 -0.8137
  351SOL     OW 1872   3.081   2.159   1.678 -0.0836 -0.1184 -0.1375
  351SOL    HW1 1873   3.075   2.192   1.584  1.4588  0.0610 -0.1924
  351SOL    HW2 1874   2.995   2.114   1.703 -1.4598  1.9742 -0.7979
  352SOL     OW 1875   2.985   2.319   3.337 -0.0026  0.6171 -0.8440
  352SOL    HW1 1876   2.988   2.344   3.434 -1.2548 -0.5969 -0.4629
  352SOL    HW2 1877   3.043   2.382   3.285  1.1035  0.9794  0.7439
  353SOL     OW 1878   2.813   4.837   3.437  0.2125 -0.3077  0.0024
  353SOL    HW1 1879   2.817   4.746   3.477  3.0582 -0.4079 -0.3184
  353SOL    HW2 1880   2.719   4.856   3.407 -0.6509 -2.7123  0.9288
  354SOL     OW 1881   3.413   6.870   6.300 -0.0983 -0.6025 -0.1305
  354SOL    HW1 1882   3.496   6.882   6.354  0.3735 -1.7718 -0.5749
  354SOL    HW2 1883   3.404   6.775   6.273  0.9954  0.2463 -4.2036
  355SOL     OW 1884   1.728   3.326   0.806  0.2470  0.4492  0.3576
  355SOL    HW1 1885   1.764   3.394   0.870 -0.7847 -0.0662  1.5207
  355SOL    HW2 1886   1.629   3.322   0.814 -0.0454  1.0937 -2.0418
  356SOL     OW 1887   3.865   2.952   4.676  0.3680 -0.6227 -0.3362
  356SOL    HW1 1888   3.842   3.038   4.630 -0.6055 -0.0013  1.2196
  356SOL    HW2 1889   3.934   2.970   4.746 -1.1393 -0.7042  1.2347
  357SOL     OW 1890   3.402   1.839   0.620  0.6036 -0.2185 -0.4439
  357SOL    HW1 1891   3.406   1.826   0.521  0.2169  0.0976 -0.5041
  357SOL    HW2 1892   3.410   1.937   0.641  1.9017 -0.3767 -0.0919
  358SOL     OW 1893   5.869   1.413   5.105  0.0490 -0.0628 -0.4876
  358SOL    HW1 1894   5.891   1.316   5.117  0.7454  0.0205 -1.0623
  358SOL    HW2 1895   5.789   1.436   5.161  0.2207 -0.8356  0.0872
  359SOL     OW 1896   0.898   1.127   1.286  0.4942 -0.3456  0.1731
  359SOL    HW1 1897   0.833   1.051   1.284 -0.8335  0.7155  0.9370
  359SOL    HW2 1898   0.914   1.154   1.381  0.0470  1.0536 -0.1269
  360SOL     OW 1899   4.204   0.685   0.487 -0.6221 -0.0732  0.2866
  360SOL    HW1 1900   4.108   0.658   0.495 -1.0095  1.2754  0.3807
  360SOL    HW2 1901   4.257   0.643   0.562 -0.9906 -1.3275 -0.1244
  361SOL     OW 1902   6.954   4.395   4.151 -0.4080  0.5934 -0.3588
  361SOL    HW1 1903   6.966   4.438   4.241  1.4560  0.8099 -0.6645
  361SOL    HW2 1904   7.040   4.353   4.123 -1.4978 -1.1620 -1.2075
  362SOL     OW 1905   0.048   4.287   6.608 -0.2025  0.5522  0.0529
  362SOL    HW1 1906   0.041   4.373   6.557 -1.5615 -0.2236 -1.1593
  362SOL    HW2 1907   0.106   4.223   6.559 -2.3161 -0.5546 -1.1467
  363SOL     OW 1908   4.984   2.433   1.543  0.4416  0.0579  0.7367
  363SOL    HW1 1909   5.055   2.465   1.605  0.1681  0.2546  0.9554
  363SOL    HW2 1910   5.015   2.352   1.495  0.1452 -0.9825  2.2109
  364SOL     OW 1911   5.545   5.103   2.764  0.2875 -0.1543 -0.2271
  364SOL    HW1 1912   5.496   5.104   2.851 -0.8967  1.1597 -0.8830
  364SOL    HW2 1913   5.588   5.013   2.751 -3.4797 -2.1060 -0.4829
  365SOL     OW 1914   1.564   5.368   1.051  0.3835 -0.3521 -0.3024
  365SOL    HW1 1915   1.505   5.400   0.977 -2.2539 -0.3231  1.6864
  365SOL    HW2 1916   1.571   5.269   1.048  1.8735 -0.2574 -1.6314
  366SOL     OW 1917   5.780   6.379   5.277 -0.3213 -0.0018  0.1701
  366SOL    HW1 1918   5.825   6.462   5.308  0.8554 -0.4174 -0.3771
  366SOL    HW2 1919   5.725   6.341   5.351 -0.2420  0.8257  0.6654
  367SOL     OW 1920   2.536   0.047   4.045  0.1238 -0.1809  0.1475
  367SOL    HW1 1921   2.504   0.138   4.020  2.2200  1.1634  1.9688
  367SOL    HW2 1922   2.618   0.024   3.991 -0.5607 -1.1431 -0.5099
  368SOL     OW 1923   6.710   3.600   0.165 -0.1241  0.0326  0.1537
  368SOL    HW1 1924   6.725   3.596   0.264 -1.1454 -2.4454  0.2715
  368SOL    HW2 1925   6.786   3.555   0.118 -0.0101  0.5288 -0.1367
  369SOL     OW 1926   4.793   0.526   6.223  0.0219  0.6407 -0.1639
  369SOL    HW1 1927   4.823   0.601   6.164  0.1236  0.6577 -0.0897
  369SOL    HW2 1928   4.843   0.529   6.309  0.9741 -0.2966 -0.6649
  370SOL     OW 1929   1.555   1.208   1.003  0.6787 -0.2445  0.5426
  370SOL    HW1 1930   1.489   1.140   0.970 -0.6039  0.5163  1.4062
  370SOL    HW2 1931   1.526   1.240   1.094  0.4300  2.4413 -0.3921
  371SOL     OW 1932   5.660   6.438   4.432  0.0026 -0.4209 -0.3215
  371SOL    HW1 1933   5.593   6.368   4.408 -0.1289  0.1374 -1.6525
  371SOL    HW2 1934   5.749   6.412   4.395  0.0177 -0.0277 -0.5595
  372SOL     OW 1935   2.596   0.490   1.339  0.2112 -0.3051 -0.1702
  372SOL    HW1 1936   2.628   0.396   1.337 -1.8975 -1.0775  0.7299
  372SOL    HW2 1937   2.599   0.525   1.433  0.9497  0.5521 -0.4905
  373SOL     OW 1938   5.176   1.599   3.106 -0.1680  0.2587  0.3079
  373SOL    HW1 1939   5.134   1.541   3.176  0.2802  0.1094  0.4603
  373SOL    HW2 1940   5.264   1.559   3.080 -0.0377  0.6656  0.1332
  374SOL     OW 1941   5.408   3.537   3.985  0.3996  0.1885 -0.4511
  374SOL    HW1 1942   5.355   3.604   3.933 -0.9400 -1.3173 -1.1145
  374SOL    HW2 1943   5.472   3.490   3.924 -1.2387 -1.6452 -0.8753
  375SOL     OW 1944   2.944   3.545   6.952 -0.4606 -0.3858 -0.0617
  375SOL    HW1 1945   2.866   3.520   6.895 -0.7021 -0.6437  0.3734
  375SOL    HW2 1946   2.924   3.631   7.000 -0.4117 -0.3681 -0.0725
  376SOL     OW 1947   5.784   5.450   5.636  0.4565  1.2103 -0.2655
  376SOL    HW1 1948   5.728   5.519   5.682 -0.4997  0.8878 -0.9277
  376SOL    HW2 1949   5.844   5.407   5.703  1.2952  2.8723  0.1102
  377SOL     OW 1950   2.290   0.271   5.847  0.7347  0.4192 -0.2582
  377SOL    HW1 1951   2.305   0.326   5.765  3.3450  0.5989  0.2647
  377SOL    HW2 1952   2.333   0.181   5.836  2.4561  0.9707  1.3951
  378SOL     OW 1953   2.456   4.444   5.707 -0.6217  0.0886  0.1504
  378SOL    HW1 1954   2.412   4.366   5.752  1.0835 -1.5355 -0.8901
  378SOL    HW2 1955   2.449   4.525   5.766 -1.6625 -1.0493  1.6456
  379SOL     OW 1956   1.955   0.364   2.632  0.4717  0.4447  0.4689
  379SOL    HW1 1957   1.890   0.424   2.586  1.6736  0.4934 -1.2390
  379SOL    HW2 1958   1.993   0.411   2.712 -0.4197  1.0007  0.5816
  380SOL     OW 1959   2.195   2.792   3.094  0.3218  0.1853 -0.6947
  380SOL    HW1 1960   2.176   2.695   3.075  2.1324 -0.3647  0.1470
  380SOL    HW2 1961   2.128   2.848   3.046 -0.3789 -1.4554 -1.7328
  381SOL     OW 1962   3.598   6.027   1.922 -0.1086  0.5639  0.6281
  381SOL    HW1 1963   3.576   5.937   1.960 -2.6679 -0.0125 -1.8553
  381SOL    HW2 1964   3.689   6.024   1.879 -1.1030 -1.6932 -1.5352
  382SOL     OW 1965   2.098   2.775   5.551 -0.0728  0.3912 -0.7188
  382SOL    HW1 1966   2.052   2.743   5.634  1.2110 -1.4800 -0.6691
  382SOL    HW2 1967   2.030   2.791   5.479 -1.1109  1.1943  0.3912
  383SOL     OW 1968   5.248   1.422   4.846  0.4295  0.2549  0.2128
  383SOL    HW1 1969   5.162   1.377   4.822 -0.7615  2.6376 -0.3215
  383SOL    HW2 1970   5.323   1.378   4.796 -0.3144 -2.2781  1.1724
  384SOL     OW 1971   6.131   4.699   2.085  0.3330 -0.5137  0.2210
  384SOL    HW1 1972   6.048   4.642   2.091  0.0553 -0.0036  1.6599
  384SOL    HW2 1973   6.108   4.794   2.107  1.2044 -0.2610  0.0845
  385SOL     OW 1974   2.820   6.626   2.773  0.6791  0.1448 -0.4092
  385SOL    HW1 1975   2.915   6.636   2.803  0.5774  0.8044 -0.2966
  385SOL    HW2 1976   2.769   6.709   2.794 -0.0511 -0.3824 -0.0283
  386SOL     OW 1977   0.487   4.387   0.725  0.2835 -0.5038 -0.4329
  386SOL    HW1 1978   0.462   4.480   0.699  1.3179  0.0367  0.3883
  386SOL    HW2 1979   0.440   4.362   0.810 -0.1177 -0.7969 -0.7385
  387SOL     OW 1980   2.123   1.176   2.702 -0.3309 -0.3403  0.1487
  387SOL    HW1 1981   2.045   1.211   2.651 -0.2857 -0.5157 -0.0407
  387SOL    HW2 1982   2.125   1.218   2.793  1.8313  3.0853 -1.2733
  388SOL     OW 1983   3.772   6.066   5.487 -0.5028 -0.3403  0.0797
  388SOL    HW1 1984   3.714   6.091   5.410  0.5505 -0.9764 -0.9593
  388SOL    HW2 1985   3.725   6.088   5.573 -1.0034  1.9404 -0.7223
  389SOL     OW 1986   6.530   1.786   3.552 -0.1812 -0.2299 -0.4627
  389SOL    HW1 1987   6.494   1.770   3.644 -0.7863  0.0062 -0.6569
  389SOL    HW2 1988   6.458   1.821   3.493  0.6960  1.6381 -0.4973
  390SOL     OW 1989   5.779   2.613   5.106 -0.1778 -0.1747  0.1359
  390SOL    HW1 1990   5.832   2.686   5.065  0.8532  0.4627  2.4453
  390SOL    HW2 1991   5.691   2.649   5.137 -0.3221 -0.2957 -0.1280
  391SOL     OW 1992   4.867   4.944   0.199  0.6349  0.2157 -0.0519
  391SOL    HW1 1993   4.860   4.970   0.103 -0.7294  1.4895  0.3613
  391SOL    HW2 1994   4.830   4.851   0.212 -0.5913  0.6209 -0.5340
  392SOL     OW 1995   3.580   1.085   0.278  0.4593  0.4961 -0.3725
  392SOL    HW1 1996   3.585   0.999   0.228 -1.1005 -0.3444  0.8447
  392SOL    HW2 1997   3.650   1.086   0.350 -0.2366 -0.2473  0.3245
  393SOL     OW 1998   5.460   2.238   3.219 -0.1461  0.3399  0.5118
  393SOL    HW1 1999   5.370   2.219   3.260 -1.3633  2.3874 -1.0209
  393SOL    HW2 2000   5.520   2.278   3.289 -2.1008  3.5579  0.5246
  394SOL     OW 2001   3.536   1.773   3.115  0.2552 -0.0085  0.3234
  394SOL    HW1 2002   3.581   1.835   3.180  0.9404 -0.9554  0.7755
  394SOL    HW2 2003   3.580   1.683   3.120  0.7206  0.0535 -1.8852
  395SOL     OW 2004   6.558   0.689   1.745 -0.0202  0.4047  0.6659
  395SOL    HW1 2005   6.652   0.669   1.773  0.8556  2.1027 -0.8400
  395SOL    HW2 2006   6.528   0.620   1.679  0.4827  0.3228  0.5205
  396SOL     OW 2007   4.342   6.921   1.251  0.2596 -0.0301  0.0040
  396SOL    HW1 2008   4.404   6.873   1.189  0.1769 -1.7488  1.2189
  396SOL    HW2 2009   4.248   6.892   1.234  0.1920 -0.2164  0.6710
  397SOL     OW 2010   6.482   3.871   0.292  0.7693 -0.2832  0.0739
  397SOL    HW1 2011   6.580   3.854   0.280  1.3580  3.2075 -1.2978
  397SOL    HW2 2012   6.467   3.919   0.379  0.1920 -1.1423  0.4599
  398SOL     OW 2013   2.822   1.321   0.469 -0.4395 -0.0395 -0.4339
  398SOL    HW1 2014   2.792   1.303   0.563 -0.8557  1.4719 -0.2604
  398SOL    HW2 2015   2.922   1.321   0.465 -0.4208 -0.4283 -0.0756
  399SOL     OW 2016   6.966   0.294   1.365 -0.2000 -0.3173  0.1295
  399SOL    HW1 2017   7.050   0.272   1.316  0.1325  0.2693  0.4334
  399SOL    HW2 2018   6.892   0.234   1.333  0.2928 -0.7297 -0.2448
  400SOL     OW 2019   0.108   2.336   0.971  0.0645  0.3349  0.0716
  400SOL    HW1 2020   0.043   2.345   1.047  1.7965 -1.0968  1.8452
  400SOL    HW2 2021   0.124   2.426   0.930 -1.7926  0.9609  0.6441
  401SOL     OW 2022   4.907   0.925   2.180  0.0474 -0.0117 -0.4082
  401SOL    HW1 2023   5.002   0.952   2.164  0.0130 -0.4920 -1.5030
  401SOL    HW2 2024   4.900   0.825   2.182 -0.1700 -0.0027  1.4601
  402SOL     OW 2025   3.989   6.573   6.574  0.1445  0.1803 -0.5629
  402SOL    HW1 2026   4.051   6.616   6.640 -3.0478  0.6172  2.3949
  402SOL    HW2 2027   3.989   6.474   6.589  1.4307 -0.0604 -1.8812
  403SOL     OW 2028   3.569   6.152   1.049 -0.4896  0.0120 -0.0373
  403SOL    HW1 2029   3.603   6.089   0.979  1.0837  1.4679 -0.6605
  403SOL    HW2 2030   3.625   6.144   1.131  0.8474  1.7422 -0.7257
  404SOL     OW 2031   1.101   4.540   5.175  0.3094 -0.0825  0.2704
  404SOL    HW1 2032   1.081   4.444   5.156 -1.2343  0.4546 -1.1065
  404SOL    HW2 2033   1.199   4.557   5.161  0.6823 -1.5298  0.9894
  405SOL     OW 2034   0.329   4.458   4.619  0.6257  0.1697  0.0933
  405SOL    HW1 2035   0.353   4.478   4.714  0.2811 -0.4432  0.3180
  405SOL    HW2 2036   0.384   4.514   4.558  1.6881 -0.2788  0.6207
  406SOL     OW 2037   1.663   1.755   3.148  0.3258  0.2816 -0.3526
  406SOL    HW1 2038   1.599   1.825   3.179 -0.3438 -0.0588 -0.9353
  406SOL    HW2 2039   1.665   1.680   3.214  2.1535  1.4571  1.0502
  407SOL     OW 2040   3.745   6.799   1.942  0.0725  0.6540 -0.1453
  407SOL    HW1 2041   3.721   6.729   2.009  1.3273  1.6617  1.4306
  407SOL    HW2 2042   3.809   6.761   1.875  0.9000  0.2975  0.8117
  408SOL     OW 2043   6.035   3.918   1.336  0.8859 -0.3555  0.0880
  408SOL    HW1 2044   6.094   3.998   1.325  0.8816 -0.2894  0.5324
  408SOL    HW2 2045   5.939   3.948   1.337  0.8615 -0.4186 -0.2158
  409SOL     OW 2046   6.354   6.585   6.127  0.1085 -0.3913  0.1012
  409SOL    HW1 2047   6.267   6.539   6.146 -0.5586  0.6021 -0.4625
  409SOL    HW2 2048   6.415   6.575   6.206 -1.6107  1.3815  1.7880
  410SOL     OW 2049   2.246   5.768   2.335 -0.3895  0.4941  0.1625
  410SOL    HW1 2050   2.163   5.807   2.294 -0.5027 -1.1728 -1.3095
  410SOL    HW2 2051   2.326   5.816   2.302 -0.7299  2.4728  2.0059
  411SOL     OW 2052   5.323   0.431   1.623  0.3660 -0.5673 -0.2358
  411SOL    HW1 2053   5.225   0.443   1.610  0.7528  0.2081 -2.9211
  411SOL    HW2 2054   5.339   0.372   1.702 -2.2737 -1.7679 -0.5034
  412SOL     OW 2055   0.558   2.196   1.805  0.1463 -0.1398  0.0499
  412SOL    HW1 2056   0.593   2.212   1.713  1.4716 -0.2792  0.5096
  412SOL    HW2 2057   0.555   2.283   1.855  1.1995 -0.3301  0.4634
  413SOL     OW 2058   5.267   5.460   5.333  0.2288  0.3990 -0.2921
  413SOL    HW1 2059   5.334   5.416   5.273 -0.1194  1.7783 -1.7607
  413SOL    HW2 2060   5.307   5.473   5.424  0.9410 -1.3046 -0.3285
  414SOL     OW 2061   0.659   3.942   1.055  0.1728 -0.3589 -0.5649
  414SOL    HW1 2062   0.644   3.851   1.016  0.5901 -0.2592 -0.9599
  414SOL    HW2 2063   0.572   3.992   1.057  0.3397  0.1092 -2.5733
  415SOL     OW 2064   5.848   1.200   3.410  0.1205 -0.1988 -0.2096
  415SOL    HW1 2065   5.824   1.103   3.411 -0.2473 -0.1075  0.5948
  415SOL    HW2 2066   5.786   1.249   3.348  2.0911 -0.8836 -2.9091
  416SOL     OW 2067   4.092   6.865   1.141  0.2288  0.8454  0.0367
  416SOL    HW1 2068   4.014   6.830   1.192  0.2823  1.2410  0.4010
  416SOL    HW2 2069   4.122   6.797   1.074  0.4093  0.1495  0.8029
  417SOL     OW 2070   6.392   3.870   4.166  0.2592 -0.3836 -0.2389
  417SOL    HW1 2071   6.301   3.861   4.127 -0.4764  2.1618  0.6497
  417SOL    HW2 2072   6.459   3.882   4.093 -0.2134 -1.4216 -0.8644
  418SOL     OW 2073   4.786   5.047   0.976 -0.2112  0.4004  0.1948
  418SOL    HW1 2074   4.867   5.066   0.920  0.7707  0.7708  1.6840
  418SOL    HW2 2075   4.739   5.133   0.996  0.4889  0.5213  1.4295
  419SOL     OW 2076   1.824   4.921   5.068 -0.4824 -0.8498  0.0009
  419SOL    HW1 2077   1.855   4.944   4.976 -0.6677 -0.7633 -0.0415
  419SOL    HW2 2078   1.875   4.975   5.135  0.6701 -1.9466  0.0461
  420SOL     OW 2079   2.621   0.853   5.541 -0.1949 -0.3128 -0.3493
  420SOL    HW1 2080   2.573   0.824   5.623 -1.5959  1.4325 -0.4828
  420SOL    HW2 2081   2.678   0.933   5.562 -1.3388  0.7759 -1.2227
  421SOL     OW 2082   4.533   3.849   1.313 -0.0739 -0.5078 -0.0431
  421SOL    HW1 2083   4.604   3.878   1.249  0.4207  0.5614  0.9665
  421SOL    HW2 2084   4.571   3.784   1.378  0.3455  1.0143  1.2797
  422SOL     OW 2085   2.447   6.567   6.898  0.5201 -0.5059  0.0466
  422SOL    HW1 2086   2.421   6.522   6.813  0.5300  1.1471 -0.8855
  422SOL    HW2 2087   2.396   6.652   6.908  1.7998  0.2195  0.8009
  423SOL     OW 2088   5.124   2.090   3.918  0.0511 -0.1430 -0.3363
  423SOL    HW1 2089   5.039   2.125   3.957 -1.2652 -1.0056 -2.2536
  423SOL    HW2 2090   5.171   2.164   3.869  0.6962  0.4521  1.1278
  424SOL     OW 2091   5.675   4.121   2.865 -0.1126  0.0678 -0.0877
  424SOL    HW1 2092   5.603   4.182   2.900 -0.6402 -0.1953 -0.6974
  424SOL    HW2 2093   5.645   4.080   2.779 -0.4219 -2.2819  1.0591
  425SOL     OW 2094   1.632   4.603   3.612  0.0056  0.0720 -0.0145
  425SOL    HW1 2095   1.633   4.540   3.534 -0.3613  0.4773 -0.3538
  425SOL    HW2 2096   1.578   4.564   3.686 -0.7432  0.2533 -0.4558
  426SOL     OW 2097   2.699   5.408   2.526  0.5924  0.4621 -0.1214
  426SOL    HW1 2098   2.791   5.380   2.554  0.9477  0.0763 -1.6050
  426SOL    HW2 2099   2.644   5.327   2.504  0.0463  0.7174  0.2521
  427SOL     OW 2100   5.601   1.476   4.711 -0.1499  0.3664  0.2063
  427SOL    HW1 2101   5.648   1.477   4.622  0.5527 -0.7470  0.5477
  427SOL    HW2 2102   5.630   1.556   4.764  0.3766  0.3772 -0.0861
  428SOL     OW 2103   6.417   1.147   3.945 -0.0954  0.4821 -0.3341
  428SOL    HW1 2104   6.354   1.180   3.876  1.1689  2.0281 -0.8138
  428SOL    HW2 2105   6.511   1.172   3.920  0.4693  0.5172  1.5981
  429SOL     OW 2106   1.414   1.125   6.061 -0.2130 -0.8642 -0.0007
  429SOL    HW1 2107   1.368   1.092   5.979  0.1842  0.3266 -0.7230
  429SOL    HW2 2108   1.381   1.217   6.084  1.9819  0.1998 -0.7674
  430SOL     OW 2109   0.237   5.830   4.472 -0.1231 -0.4202 -0.1199
  430SOL    HW1 2110   0.157   5.878   4.506  0.2029  0.3741 -0.4386
  430SOL    HW2 2111   0.258   5.752   4.531 -1.7924 -1.3184 -0.6658
  431SOL     OW 2112   4.978   1.623   4.601  0.4888  0.0987 -0.8243
  431SOL    HW1 2113   4.992   1.649   4.505  2.5167 -0.1441 -0.6468
  431SOL    HW2 2114   5.065   1.631   4.650 -0.5227  0.2608  1.0214
  432SOL     OW 2115   6.221   3.440   2.899  0.4062  0.4566 -0.4059
  432SOL    HW1 2116   6.238   3.496   2.818  0.0358  3.4676  1.4303
  432SOL    HW2 2117   6.122   3.425   2.909  0.5672 -1.7299 -1.5534
  433SOL     OW 2118   2.613   4.786   2.294  0.2258  0.1957  0.3128
  433SOL    HW1 2119   2.594   4.812   2.389  1.0271 -1.4045  0.9522
  433SOL    HW2 2120   2.656   4.862   2.246 -0.2428  1.0454  1.2087
  434SOL     OW 2121   5.739   2.554   0.870 -0.6215 -0.3804 -0.4456
  434SOL    HW1 2122   5.734   2.605   0.784  0.6296 -0.4601 -0.5884
  434SOL    HW2 2123   5.650   2.557   0.916 -0.4901  2.1934 -0.2613
  435SOL     OW 2124   0.982   2.788   2.679 -0.2835  0.2268  0.1578
  435SOL    HW1 2125   0.985   2.816   2.583  0.4435 -2.8196 -0.8173
  435SOL    HW2 2126   1.016   2.862   2.737  1.2021  1.4256 -2.1068
  436SOL     OW 2127   4.959   6.425   1.372 -0.8965 -0.2004  0.4671
  436SOL    HW1 2128   4.940   6.519   1.401 -1.9953 -0.2506 -0.0542
  436SOL    HW2 2129   4.902   6.402   1.293 -1.0751 -1.5154  0.9576
  437SOL     OW 2130   6.541   3.092   6.812  0.6830 -0.3132 -0.2655
  437SOL    HW1 2131   6.545   3.126   6.718 -0.9575 -0.6909 -0.5104
  437SOL    HW2 2132   6.455   3.122   6.854  0.2153 -2.2567  0.2451
  438SOL     OW 2133   4.189   4.135   1.530  0.2077  0.1700  0.0185
  438SOL    HW1 2134   4.153   4.183   1.451  0.9782 -0.0881 -0.4994
  438SOL    HW2 2135   4.287   4.122   1.520 -0.0153 -1.8815 -0.0835
  439SOL     OW 2136   1.602   4.327   5.724 -0.2905 -0.0085 -0.3824
  439SOL    HW1 2137   1.579   4.401   5.787 -3.2487  0.6846 -2.0928
  439SOL    HW2 2138   1.664   4.362   5.653  0.0448  0.2085  0.0104
  440SOL     OW 2139   1.348   2.062   0.253  0.3209 -0.2003  0.2291
  440SOL    HW1 2140   1.270   2.008   0.284 -1.2854  0.7622 -1.9282
  440SOL    HW2 2141   1.364   2.137   0.316 -0.7443 -0.1860  0.4917
  441SOL     OW 2142   2.739   0.084   1.811 -0.2341  0.0071  0.3704
  441SOL    HW1 2143   2.658   0.030   1.787  0.3097 -1.7476  2.1749
  441SOL    HW2 2144   2.815   0.059   1.751  0.2674 -2.0329  1.7489
  442SOL     OW 2145   0.507   3.531   4.279  0.6584 -0.1083  0.4435
  442SOL    HW1 2146   0.526   3.545   4.182 -1.4024  1.1656  0.1625
  442SOL    HW2 2147   0.502   3.620   4.325  0.3615 -0.6288  1.4414
  443SOL     OW 2148   3.800   0.177   1.645  0.1284  0.4584  0.1994
  443SOL    HW1 2149   3.741   0.137   1.575  0.3187  2.4696 -1.1920
  443SOL    HW2 2150   3.794   0.277   1.640  1.6378  0.6640  1.7946
  444SOL     OW 2151   4.704   4.152   1.964  0.4887 -0.2975 -0.2615
  444SOL    HW1 2152   4.790   4.174   2.009 -0.1725  0.2161  0.7775
  444SOL    HW2 2153   4.643   4.232   1.966 -0.7881 -1.2584  0.8426
  445SOL     OW 2154   4.979   4.973   4.949 -0.1943 -0.9356 -0.1644
  445SOL    HW1 2155   5.055   4.961   4.886  0.2324  1.0241 -0.0628
  445SOL    HW2 2156   4.901   5.014   4.900 -0.3502 -0.7209  0.2598
  446SOL     OW 2157   4.758   1.622   6.781  0.5766  0.1362 -0.3660
  446SOL    HW1 2158   4.799   1.673   6.705 -1.2089  0.5119 -1.1415
  446SOL    HW2 2159   4.662   1.604   6.760 -0.0252  0.4242  1.9066
  447SOL     OW 2160   5.385   4.272   1.875  0.9266 -0.0899 -0.5274
  447SOL    HW1 2161   5.377   4.263   1.775 -1.1119  2.2131 -0.6888
  447SOL    HW2 2162   5.300   4.242   1.918  1.9077 -1.3791  0.6126
  448SOL     OW 2163   1.137   5.350   2.109 -0.3942  0.4863 -0.0724
  448SOL    HW1 2164   1.202   5.317   2.177 -0.6557  1.3325  0.6051
  448SOL    HW2 2165   1.156   5.446   2.089 -0.1731  0.1918 -1.3837
  449SOL     OW 2166   4.560   4.945   0.598  0.3449  0.3316 -0.6773
  449SOL    HW1 2167   4.629   5.017   0.591  2.8771 -1.9643 -0.8385
  449SOL    HW2 2168   4.554   4.896   0.511 -1.3958  0.3196 -0.5939
  450SOL     OW 2169   1.925   4.042   3.869  0.4987  0.0651  0.0913
  450SOL    HW1 2170   1.899   4.091   3.786  2.5454 -0.5772 -1.0006
  450SOL    HW2 2171   1.996   4.093   3.918  0.0561 -0.0683  0.8827
  451SOL     OW 2172   5.873   6.266   0.895  0.1968 -0.2712 -0.4111
  451SOL    HW1 2173   5.818   6.345   0.918 -2.1035 -1.7613 -0.4725
  451SOL    HW2 2174   5.945   6.293   0.831  1.4113  2.2725  1.8250
  452SOL     OW 2175   1.130   5.482   0.403  0.0866 -0.0583 -0.0244
  452SOL    HW1 2176   1.229   5.472   0.391 -0.0479 -0.0536 -1.2824
  452SOL    HW2 2177   1.111   5.565   0.456  0.6496  2.1316 -3.0279
  453SOL     OW 2178   4.405   2.930   3.272  0.1236 -0.3117  0.2600
  453SOL    HW1 2179   4.450   3.012   3.238 -1.0208  0.4469  0.5309
  453SOL    HW2 2180   4.453   2.896   3.353 -0.6742  1.4139  1.5189
  454SOL     OW 2181   4.527   2.045   1.856 -0.2528  0.0597 -0.3743
  454SOL    HW1 2182   4.441   2.061   1.905 -0.2626 -0.9577 -0.0295
  454SOL    HW2 2183   4.509   2.038   1.758 -0.6997 -0.8860 -0.2425
  455SOL     OW 2184   4.449   1.651   1.253 -0.4741  0.5492 -0.4902
  455SOL    HW1 2185   4.363   1.603   1.237 -0.1062 -0.0121 -0.8087
  455SOL    HW2 2186   4.475   1.702   1.171 -1.2869  2.0134  0.1092
  456SOL     OW 2187   5.697   5.671   6.960  0.0447  0.2496  0.2149
  456SOL    HW1 2188   5.680   5.573   6.951 -0.3818  0.2467  1.0549
  456SOL    HW2 2189   5.791   5.685   6.992  0.0159  0.1145  0.3579
  457SOL     OW 2190   6.756   5.833   6.014  0.7908 -0.4343  0.3077
  457SOL    HW1 2191   6.753   5.847   6.113  1.2788 -0.8222  0.3813
  457SOL    HW2 2192   6.831   5.771   5.992  0.1568 -1.0333 -0.2199
  458SOL     OW 2193   4.355   4.256   2.761  0.2009 -0.2234  0.0881
  458SOL    HW1 2194   4.337   4.232   2.857 -0.4561  3.0431  0.9115
  458SOL    HW2 2195   4.270   4.285   2.718  0.7857 -0.0942 -1.0066
  459SOL     OW 2196   1.896   2.776   0.041 -0.4056  0.4895 -0.3082
  459SOL    HW1 2197   1.914   2.691   0.089 -1.1182  0.4988 -0.0036
  459SOL    HW2 2198   1.982   2.818   0.013  0.0665  0.7022  1.3510
  460SOL     OW 2199   0.505   6.996   4.991  0.5402  0.5946 -0.2743
  460SOL    HW1 2200   0.529   6.965   5.083 -0.5069 -0.6780 -0.3957
  460SOL    HW2 2201   0.539   7.089   4.977  1.9555  0.2814  0.8763
  461SOL     OW 2202   1.927   0.856   1.865 -0.0212  0.6789  0.1665
  461SOL    HW1 2203   1.877   0.795   1.804  1.3146  0.7142 -0.9965
  461SOL    HW2 2204   1.868   0.933   1.890 -0.3913  1.0289 -1.6502
  462SOL     OW 2205   4.236   5.765   2.621 -0.0840  0.1654 -0.6992
  462SOL    HW1 2206   4.249   5.744   2.718  0.4828 -0.5144 -0.9128
  462SOL    HW2 2207   4.316   5.734   2.570 -0.4863  0.3025 -1.4178
  463SOL     OW 2208   4.141   2.529   0.414 -0.1121 -0.0667  0.3360
  463SOL    HW1 2209   4.216   2.578   0.371 -0.6041  0.2421 -0.1775
  463SOL    HW2 2210   4.057   2.542   0.362 -0.7599  0.4404  1.4640
  464SOL     OW 2211   5.838   0.451   3.178 -0.0941  0.2168  0.1735
  464SOL    HW1 2212   5.823   0.469   3.275 -1.5503  2.6352 -0.4170
  464SOL    HW2 2213   5.787   0.517   3.124  0.4153 -1.2790 -2.2789
  465SOL     OW 2214   2.044   1.462   6.199  0.2616  0.0367  0.5351
  465SOL    HW1 2215   1.966   1.431   6.146  1.0727  0.0685 -0.7290
  465SOL    HW2 2216   2.121   1.479   6.137  1.5708 -0.9221  1.8368
  466SOL     OW 2217   0.147   4.831   1.644  0.1048  0.1220 -0.4647
  466SOL    HW1 2218   0.212   4.802   1.714  0.7183  0.9745 -0.6657
  466SOL    HW2 2219   0.194   4.885   1.575 -0.4723 -0.7842 -1.6070
  467SOL     OW 2220   3.019   2.023   1.126 -0.0175  0.1490  0.2328
  467SOL    HW1 2221   3.118   2.040   1.134  0.2502 -1.0109 -0.4389
  467SOL    HW2 2222   3.004   1.932   1.089 -1.3739 -0.4742  2.1510
  468SOL     OW 2223   6.017   1.374   1.740 -0.4473  0.1816 -0.0985
  468SOL    HW1 2224   5.959   1.419   1.672  2.0622  1.5005 -1.5343
  468SOL    HW2 2225   5.969   1.369   1.827 -3.0389  0.2561 -1.4347
  469SOL     OW 2226   1.131   6.449   3.040  0.1041 -0.1358 -0.8226
  469SOL    HW1 2227   1.225   6.419   3.049  0.1760  0.3610  0.2339
  469SOL    HW2 2228   1.091   6.461   3.131 -0.9458 -0.2398 -1.2570
  470SOL     OW 2229   3.368   0.375   2.379 -0.0828  0.7570  0.2564
  470SOL    HW1 2230   3.391   0.471   2.389 -4.2736  1.9425  0.6630
  470SOL    HW2 2231   3.353   0.354   2.283 -0.3661  0.8618  0.2768
  471SOL     OW 2232   5.674   2.453   4.224 -0.1509 -0.5575  0.0552
  471SOL    HW1 2233   5.769   2.434   4.198 -0.1361  0.9225 -1.1225
  471SOL    HW2 2234   5.647   2.542   4.188 -1.5836 -0.3558  1.5183
  472SOL     OW 2235   6.423   0.919   4.330 -0.0511  0.8571  0.3617
  472SOL    HW1 2236   6.511   0.944   4.290  0.4330  0.0167  0.8721
  472SOL    HW2 2237   6.378   0.851   4.272 -0.0051  0.7062  0.5017
  473SOL     OW 2238   0.154   3.652   0.862 -0.3927 -0.1387  0.5971
  473SOL    HW1 2239   0.162   3.573   0.802  1.1620  0.6053 -0.2351
  473SOL    HW2 2240   0.135   3.734   0.808 -0.6084  0.2860  1.2971
  474SOL     OW 2241   1.884   4.877   0.802 -0.0059 -0.5657 -0.4552
  474SOL    HW1 2242   1.893   4.912   0.709  1.6674 -1.0778 -0.5221
  474SOL    HW2 2243   1.788   4.862   0.823 -0.4792  0.4900 -1.7455
  475SOL     OW 2244   1.281   5.025   5.956 -0.3336 -0.3813 -0.1980
  475SOL    HW1 2245   1.302   4.928   5.965  0.0939 -0.4750 -1.9062
  475SOL    HW2 2246   1.183   5.040   5.963 -0.6788 -1.2922 -2.3776
  476SOL     OW 2247   2.908   6.150   1.243  0.1675 -0.2239  0.0399
  476SOL    HW1 2248   2.820   6.183   1.210  1.0566  0.9214 -1.3191
  476SOL    HW2 2249   2.902   6.052   1.263 -1.7295  0.0966  1.2258
  477SOL     OW 2250   6.389   3.631   4.318 -0.5888 -0.5951  0.7470
  477SOL    HW1 2251   6.372   3.713   4.263  0.9612 -0.7290  0.0118
  477SOL    HW2 2252   6.374   3.653   4.414 -0.4152  0.5016  0.5461
  478SOL     OW 2253   6.923   2.041   3.175  0.5571  0.0083  0.1156
  478SOL    HW1 2254   6.953   2.045   3.270  1.2689  2.2995 -0.1628
  478SOL    HW2 2255   7.002   2.050   3.114  0.2215 -2.1826 -0.7784
  479SOL     OW 2256   4.779   5.631   3.039  0.2369  0.1755 -0.1140
  479SOL    HW1 2257   4.787   5.563   2.966 -2.2177 -0.2779 -0.0666
  479SOL    HW2 2258   4.692   5.680   3.028  0.9201  1.7532  1.1641
  480SOL     OW 2259   3.701   0.375   0.905  0.2442 -0.1192  0.0212
  480SOL    HW1 2260   3.750   0.295   0.873 -1.2272 -1.2828  0.5670
  480SOL    HW2 2261   3.604   0.367   0.882  0.5862  3.6488 -4.0828
  481SOL     OW 2262   1.030   1.675   2.034  0.0798 -0.3340 -0.0601
  481SOL    HW1 2263   1.058   1.588   2.074 -1.6907 -1.0030 -0.1805
  481SOL    HW2 2264   1.001   1.738   2.106 -1.9220 -1.1053 -0.1084
  482SOL     OW 2265   0.658   0.429   0.982 -0.3880 -0.4490 -0.1488
  482SOL    HW1 2266   0.729   0.440   0.912  0.5102  0.6969  0.8939
  482SOL    HW2 2267   0.639   0.332   0.995  0.8141 -0.7651 -0.6301
  483SOL     OW 2268   4.043   3.546   4.247  0.1838  0.6713  0.2892
  483SOL    HW1 2269   3.946   3.522   4.239 -0.2765  1.8337  1.8908
  483SOL    HW2 2270   4.098   3.463   4.238 -1.1124 -0.4235  1.7171
  484SOL     OW 2271   1.509   2.318   2.516  0.0948 -0.1636  0.3326
  484SOL    HW1 2272   1.575   2.383   2.478 -2.0989  1.7469 -0.4818
  484SOL    HW2 2273   1.484   2.345   2.609 -0.8479  0.2310 -0.0190
  485SOL     OW 2274   2.315   0.665   5.007 -0.5341  0.2057 -0.5535
  485SOL    HW1 2275   2.291   0.726   4.932 -0.9480  0.4074 -0.2619
  485SOL    HW2 2276   2.260   0.688   5.088 -2.2320 -1.8641 -1.0182
  486SOL     OW 2277   0.346   1.631   6.684  0.2571 -0.2818 -0.3748
  486SOL    HW1 2278   0.439   1.622   6.721  0.3715  0.2180 -0.5267
  486SOL    HW2 2279   0.348   1.612   6.586  0.2543  0.0030 -0.4324
  487SOL     OW 2280   5.811   1.091   2.372  0.2880  0.3927 -0.2424
  487SOL    HW1 2281   5.718   1.104   2.407  0.3322 -1.1476  0.5131
  487SOL    HW2 2282   5.865   1.173   2.392 -1.1156  1.7190 -1.5418
  488SOL     OW 2283   6.869   6.614   4.938 -0.0652 -0.5720  0.5239
  488SOL    HW1 2284   6.913   6.625   4.848  2.6671  0.0449  1.8166
  488SOL    HW2 2285   6.852   6.704   4.977  1.6000 -0.7701  1.8305
  489SOL     OW 2286   2.798   1.112   1.332 -0.6413  0.8278  0.0217
  489SOL    HW1 2287   2.884   1.142   1.374  0.3831 -1.4570 -0.3080
  489SOL    HW2 2288   2.735   1.083   1.404 -0.6328  1.2132  0.1895
  490SOL     OW 2289   1.972   5.029   2.147 -0.5385 -0.0820  0.2885
  490SOL    HW1 2290   1.951   5.048   2.051  0.6791 -0.3759 -0.0519
  490SOL    HW2 2291   1.888   5.032   2.201 -1.5201 -1.5868 -1.0629
  491SOL     OW 2292   2.032   4.758   5.188  0.3589 -0.2870 -0.0969
  491SOL    HW1 2293   1.981   4.821   5.247 -0.5528 -0.5900 -0.5391
  491SOL    HW2 2294   1.975   4.731   5.110  0.6913 -1.7177  0.1155
  492SOL     OW 2295   0.588   5.419   6.187 -0.4210  0.0975 -0.1507
  492SOL    HW1 2296   0.685   5.415   6.212 -0.9536  2.0721  2.7024
  492SOL    HW2 2297   0.576   5.487   6.115  0.4231 -1.3065 -1.7075
  493SOL     OW 2298   5.394   5.908   4.361  0.0267 -0.5204 -0.0779
  493SOL    HW1 2299   5.478   5.933   4.409 -1.5280  1.3784  1.8875
  493SOL    HW2 2300   5.382   5.968   4.281 -2.5349  4.2353  3.3324
  494SOL     OW 2301   2.195   4.556   5.682  0.1139 -0.6300 -0.8837
  494SOL    HW1 2302   2.126   4.558   5.609 -0.4260  1.6930 -0.3849
  494SOL    HW2 2303   2.275   4.505   5.651 -1.1859 -2.0566 -2.0528
  495SOL     OW 2304   0.856   5.981   0.353 -0.1680  0.0595  0.3109
  495SOL    HW1 2305   0.770   5.952   0.397 -0.8913  0.3934 -0.8377
  495SOL    HW2 2306   0.852   6.079   0.333 -0.1896 -0.2147 -1.1589
  496SOL     OW 2307   5.939   4.055   6.443 -0.3326 -0.2561 -0.2454
  496SOL    HW1 2308   5.876   4.085   6.371  0.7497 -2.3423 -2.2076
  496SOL    HW2 2309   6.033   4.069   6.412  0.2273  1.1098  1.8718
  497SOL     OW 2310   3.596   6.935   6.710 -0.2695  0.3948  0.0772
  497SOL    HW1 2311   3.626   6.856   6.763 -0.3991  0.9568  1.0049
  497SOL    HW2 2312   3.511   6.971   6.748  0.5843  1.9149  0.6456
  498SOL     OW 2313   6.541   6.050   6.504  0.6933  0.5559 -0.4108
  498SOL    HW1 2314   6.640   6.054   6.491  0.5414 -1.4968 -3.1910
  498SOL    HW2 2315   6.517   5.966   6.552  0.2598  0.8627 -0.0810
  499SOL     OW 2316   0.794   4.341   5.585  0.6039  0.2379 -0.4248
  499SOL    HW1 2317   0.877   4.394   5.566  0.0675  0.6863 -1.6034
  499SOL    HW2 2318   0.789   4.263   5.523  2.1131 -2.1399  2.2184
  500SOL     OW 2319   6.273   3.418   1.929  0.1457  0.1519 -0.4253
  500SOL    HW1 2320   6.266   3.502   1.982 -0.7549 -1.0413  1.4594
  500SOL    HW2 2321   6.209   3.422   1.852 -0.7203  0.7716  0.2992
  501SOL     OW 2322   0.507   2.162   4.895 -0.5902 -0.5631 -0.5427
  501SOL    HW1 2323   0.556   2.075   4.888 -1.1471 -0.8090 -1.7243
  501SOL    HW2 2324   0.413   2.145   4.925 -0.4439 -0.2649  0.1028
  502SOL     OW 2325   1.540   6.095   5.497 -1.0637  0.3653  0.2193
  502SOL    HW1 2326   1.541   6.027   5.424 -0.0398 -0.4583  0.9687
  502SOL    HW2 2327   1.634   6.109   5.530 -1.5086  0.7099  1.3787
  503SOL     OW 2328   1.513   6.879   1.751  0.5305 -0.2352  0.4207
  503SOL    HW1 2329   1.442   6.808   1.747  1.5978 -1.3006  0.0934
  503SOL    HW2 2330   1.521   6.923   1.662 -1.0908  1.3242  0.9575
  504SOL     OW 2331   1.316   1.183   6.906  0.3619 -0.3032 -0.0106
  504SOL    HW1 2332   1.339   1.253   6.973 -2.1474 -1.0531  1.7921
  504SOL    HW2 2333   1.223   1.150   6.923  0.9354 -3.0992 -1.6532
  505SOL     OW 2334   5.211   1.681   0.164 -0.4190 -0.1776 -0.3257
  505SOL    HW1 2335   5.158   1.648   0.086 -0.2650 -0.6758 -0.2259
  505SOL    HW2 2336   5.264   1.762   0.137 -0.6344 -0.1414 -0.6396
  506SOL     OW 2337   6.096   6.489   6.157 -0.6459 -0.6117  0.1657
  506SOL    HW1 2338   6.087   6.561   6.226  0.1531 -1.0229  0.7123
  506SOL    HW2 2339   6.070   6.401   6.197 -0.3318 -0.8325 -0.1086
  507SOL     OW 2340   1.329   2.935   1.761 -0.9670  0.1801  0.1537
  507SOL    HW1 2341   1.251   2.969   1.814 -0.9761  1.5841 -0.6910
  507SOL    HW2 2342   1.382   3.013   1.727  0.2689 -0.7403 -0.0859
  508SOL     OW 2343   0.866   5.729   3.531 -0.1777 -0.1588 -0.2863
  508SOL    HW1 2344   0.899   5.819   3.557  1.0192 -0.3915 -0.9321
  508SOL    HW2 2345   0.919   5.695   3.454 -0.9017 -1.2346 -0.3331
  509SOL     OW 2346   3.312   6.044   1.012 -0.5329 -0.5532  0.1751
  509SOL    HW1 2347   3.406   6.076   1.010 -0.0989 -1.7901 -0.1951
  509SOL    HW2 2348   3.253   6.113   1.054  0.1985  1.0833 -1.3716
  510SOL     OW 2349   0.313   6.233   1.589 -0.1145  0.1894 -0.4808
  510SOL    HW1 2350   0.386   6.248   1.523 -0.9897  0.8645 -1.3327
  510SOL    HW2 2351   0.280   6.320   1.624 -0.7980 -0.0748 -0.4437
  511SOL     OW 2352   1.801   1.201   2.215  0.1246 -0.0633 -0.8282
  511SOL    HW1 2353   1.742   1.128   2.182  0.1418 -0.4711  0.0215
  511SOL    HW2 2354   1.848   1.172   2.299  1.3138  0.3598 -1.3197
  512SOL     OW 2355   4.157   2.523   5.734 -0.0600 -0.0743 -0.6421
  512SOL    HW1 2356   4.231   2.457   5.715 -0.0318 -0.5421  0.9287
  512SOL    HW2 2357   4.187   2.615   5.709  1.5542 -0.0848  1.0313
  513SOL     OW 2358   6.882   0.242   4.383  0.0684 -0.0036  0.0974
  513SOL    HW1 2359   6.899   0.163   4.324  0.4374  0.6417 -0.6960
  513SOL    HW2 2360   6.795   0.231   4.429 -0.7720 -0.0466 -1.4215
  514SOL     OW 2361   6.244   3.542   0.972  0.1795 -0.5065 -0.5281
  514SOL    HW1 2362   6.279   3.500   0.889  1.5163 -1.1911  0.3415
  514SOL    HW2 2363   6.267   3.484   1.051 -0.4197  0.4735  0.3926
  515SOL     OW 2364   0.761   5.514   5.513 -0.3357 -0.1508  0.0176
  515SOL    HW1 2365   0.755   5.488   5.609 -3.3371  1.1474  0.2832
  515SOL    HW2 2366   0.727   5.439   5.456 -0.6546 -0.1029  0.1429
  516SOL     OW 2367   5.149   3.475   0.176 -0.3480  0.0089 -0.1779
  516SOL    HW1 2368   5.112   3.453   0.085  0.9441 -1.2272 -0.4461
  516SOL    HW2 2369   5.225   3.413   0.196 -0.0145  0.8831  1.3678
  517SOL     OW 2370   0.355   4.780   5.821 -0.3882  0.0436 -0.0645
  517SOL    HW1 2371   0.452   4.801   5.830  0.0880 -1.9832 -0.0964
  517SOL    HW2 2372   0.337   4.688   5.856 -2.4876  0.7585  0.8668
  518SOL     OW 2373   4.028   2.189   0.864  0.0758  0.5535 -0.1842
  518SOL    HW1 2374   3.953   2.138   0.905 -1.4559  1.4530 -1.7506
  518SOL    HW2 2375   4.008   2.207   0.768  1.8200  1.7384 -0.3798
  519SOL     OW 2376   4.992   5.494   3.686  0.2028  0.2694 -0.1255
  519SOL    HW1 2377   5.010   5.497   3.588  1.2289  0.6704  0.0641
  519SOL    HW2 2378   5.006   5.585   3.725  0.1406  0.0363  0.4483
  520SOL     OW 2379   1.741   0.087   1.246  0.6379  0.4741  0.0873
  520SOL    HW1 2380   1.809   0.126   1.308  1.1844 -0.2895 -0.0125
  520SOL    HW2 2381   1.788   0.046   1.168 -0.0460  1.7177 -1.0310
  521SOL     OW 2382   5.670   5.086   4.511  0.5452 -0.5330  0.3948
  521SOL    HW1 2383   5.670   5.181   4.542  0.5834 -0.3897 -0.0406
  521SOL    HW2 2384   5.685   5.083   4.412 -2.4999 -0.7979 -0.1789
  522SOL     OW 2385   3.862   1.945   3.459  0.0888  0.4727 -0.5373
  522SOL    HW1 2386   3.843   1.896   3.374 -0.2601 -1.7099  0.7323
  522SOL    HW2 2387   3.785   1.933   3.522  0.7103  1.3337  0.4062
  523SOL     OW 2388   5.360   0.821   5.551  0.1135  0.1029  0.1321
  523SOL    HW1 2389   5.263   0.838   5.533  0.3189  2.6929  1.0298
  523SOL    HW2 2390   5.414   0.898   5.519  1.7704 -0.7530  0.7352
  524SOL     OW 2391   0.747   5.596   6.724  0.1531  0.3951  0.1276
  524SOL    HW1 2392   0.768   5.628   6.816 -0.8848  0.4800  0.3383
  524SOL    HW2 2393   0.648   5.585   6.713  0.1186  1.8618 -1.4621
  525SOL     OW 2394   5.012   2.725   6.436 -0.2923  0.2051  0.5511
  525SOL    HW1 2395   5.054   2.634   6.435 -2.0095 -0.6416  1.3288
  525SOL    HW2 2396   5.053   2.780   6.508 -1.2809 -1.0247  2.1143
  526SOL     OW 2397   4.448   1.184   2.633 -0.3326 -0.0253  0.3729
  526SOL    HW1 2398   4.410   1.260   2.685  0.2090  0.9683 -0.6454
  526SOL    HW2 2399   4.416   1.189   2.538  0.8525 -0.2151 -0.0577
  527SOL     OW 2400   4.641   2.926   3.755 -0.1937 -0.1367  0.5866
  527SOL    HW1 2401   4.653   2.957   3.661  2.1330 -0.9538  0.5640
  527SOL    HW2 2402   4.570   2.855   3.758 -0.2574 -0.1328 -0.5472
  528SOL     OW 2403   2.432   0.700   3.292  1.0947  0.6912 -0.5068
  528SOL    HW1 2404   2.510   0.759   3.313 -0.7530  2.7635  0.9896
  528SOL    HW2 2405   2.367   0.750   3.234 -0.9519  0.5838  1.5487
  529SOL     OW 2406   2.671   6.693   6.726  0.0139 -0.1123 -0.1249
  529SOL    HW1 2407   2.645   6.753   6.651 -0.1689  1.0796  0.8727
  529SOL    HW2 2408   2.595   6.632   6.748 -0.4875  0.5966  0.1182
  530SOL     OW 2409   0.968   4.783   5.143  0.3526  0.5211  0.5540
  530SOL    HW1 2410   0.927   4.809   5.056  0.3803 -0.1427  0.3403
  530SOL    HW2 2411   1.020   4.699   5.132 -1.0910 -0.5602  1.5706
  531SOL     OW 2412   2.182   5.717   1.746  0.4735 -0.1387 -0.4379
  531SOL    HW1 2413   2.218   5.782   1.813  0.2968  0.1605 -0.6355
  531SOL    HW2 2414   2.149   5.635   1.794  0.8119 -0.1398 -0.2019
  532SOL     OW 2415   2.637   3.092   3.164  0.1629  0.2596 -0.7091
  532SOL    HW1 2416   2.735   3.084   3.146 -0.0998 -1.2431 -1.6322
  532SOL    HW2 2417   2.606   3.184   3.138  1.4154  0.9867  0.2095
  533SOL     OW 2418   6.442   0.979   0.607 -0.1606 -0.1187  0.2365
  533SOL    HW1 2419   6.375   1.049   0.583 -2.1708 -1.9477  0.2192
  533SOL    HW2 2420   6.505   1.015   0.676 -1.2694  1.6364  0.3797
  534SOL     OW 2421   2.073   5.831   3.731  0.3901  0.7796  0.1221
  534SOL    HW1 2422   2.128   5.893   3.786 -0.1446  0.9239  0.5032
  534SOL    HW2 2423   2.125   5.748   3.711  0.4450  0.5480  1.1877
  535SOL     OW 2424   2.483   6.509   3.535  0.0695 -0.4698  0.0399
  535SOL    HW1 2425   2.392   6.546   3.556  0.9355  0.5698  2.3008
  535SOL    HW2 2426   2.514   6.545   3.447 -0.7174  1.1690  0.3877
  536SOL     OW 2427   6.080   4.884   6.459  0.3616  0.2376 -0.0808
  536SOL    HW1 2428   5.983   4.908   6.467 -0.2314 -1.4447 -1.6620
  536SOL    HW2 2429   6.134   4.968   6.455 -1.2124  1.2588 -1.0353
  537SOL     OW 2430   1.133   0.581   4.059 -0.7064  0.5096 -0.0183
  537SOL    HW1 2431   1.097   0.511   4.120 -1.3587 -0.8107 -1.8372
  537SOL    HW2 2432   1.220   0.615   4.096 -1.3564  0.1912  1.9100
  538SOL     OW 2433   3.357   3.383   6.812  0.8153 -0.1176 -0.1246
  538SOL    HW1 2434   3.275   3.414   6.764 -0.2227 -3.1863 -0.5401
  538SOL    HW2 2435   3.370   3.438   6.895  0.4016  2.6988 -1.7956
  539SOL     OW 2436   6.503   2.257   2.279 -0.5505  0.2542 -0.0211
  539SOL    HW1 2437   6.552   2.294   2.200 -0.6139  0.3629 -0.0089
  539SOL    HW2 2438   6.560   2.266   2.361  0.8322 -2.6358 -0.5462
  540SOL     OW 2439   2.132   5.134   3.722 -0.7760 -0.2132 -0.0983
  540SOL    HW1 2440   2.147   5.214   3.664  1.9767 -1.8460 -1.8756
  540SOL    HW2 2441   2.043   5.094   3.702 -0.8445  0.6136 -1.5376
  541SOL     OW 2442   6.169   1.196   0.963 -0.7052  0.2624 -0.0260
  541SOL    HW1 2443   6.267   1.203   0.941 -0.6119  0.6254  0.4761
  541SOL    HW2 2444   6.115   1.214   0.881 -0.3452 -0.9066 -0.5386
  542SOL     OW 2445   3.988   3.109   2.139  0.2100 -0.3623  0.4826
  542SOL    HW1 2446   3.936   3.120   2.054 -0.6053  3.5920  1.2523
  542SOL    HW2 2447   3.938   3.050   2.201 -0.3415 -1.4249 -0.9083
  543SOL     OW 2448   6.751   3.627   1.640  0.1961 -0.5919 -0.1364
  543SOL    HW1 2449   6.797   3.571   1.708 -0.7162 -1.4672 -0.2145
  543SOL    HW2 2450   6.665   3.662   1.678 -0.1269 -0.7592 -0.7058
  544SOL     OW 2451   2.151   6.406   1.130 -0.4223  0.1063  0.1957
  544SOL    HW1 2452   2.100   6.464   1.194 -1.0962  0.9380 -1.0641
  544SOL    HW2 2453   2.120   6.312   1.139 -2.0148  0.5471 -0.3373
  545SOL     OW 2454   4.192   4.395   3.327 -0.0963 -0.7172  0.3669
  545SOL    HW1 2455   4.195   4.492   3.353  0.5743 -0.3856 -0.8928
  545SOL    HW2 2456   4.280   4.352   3.346  0.8581 -0.1672 -2.2951
  546SOL     OW 2457   1.029   5.945   2.209  0.1090  0.0393 -0.0591
  546SOL    HW1 2458   1.015   6.042   2.229 -2.4939 -0.3194  0.2058
  546SOL    HW2 2459   0.941   5.900   2.199  1.2585 -2.2100 -0.8096
  547SOL     OW 2460   0.005   1.368   5.973 -0.0309 -0.4055  0.1470
  547SOL    HW1 2461   0.080   1.346   6.035 -1.1694  1.4266  2.3703
  547SOL    HW2 2462   0.040   1.415   5.892  1.2962 -0.4337  0.6899
  548SOL     OW 2463   4.839   0.989   3.319 -0.0589 -0.1328  0.2834
  548SOL    HW1 2464   4.860   1.006   3.222 -1.7639 -1.5584 -0.4048
  548SOL    HW2 2465   4.892   0.911   3.352 -0.1606 -0.2363  0.2047
  549SOL     OW 2466   1.305   3.156   2.747 -0.5009 -0.0193  0.3834
  549SOL    HW1 2467   1.258   3.209   2.818  0.2115  2.6275 -1.0247
  549SOL    HW2 2468   1.268   3.180   2.658 -0.2175 -2.0419 -0.3257
  550SOL     OW 2469   0.038   5.003   2.302  0.1478 -0.1901 -0.7225
  550SOL    HW1 2470   0.036   4.933   2.230 -1.0917  0.4614 -1.3490
  550SOL    HW2 2471  -0.055   5.026   2.330  0.6021 -0.5140  1.2111
  551SOL     OW 2472   5.861   6.863   3.832  0.0048 -0.2503 -0.4750
  551SOL    HW1 2473   5.920   6.782   3.829 -0.3047 -0.4934 -0.0664
  551SOL    HW2 2474   5.771   6.841   3.795 -1.2400 -1.0993  2.7362
  552SOL     OW 2475   3.953   1.489   6.678 -0.9302  0.1632 -0.4036
  552SOL    HW1 2476   3.910   1.548   6.610  1.5827  2.8758  0.1834
  552SOL    HW2 2477   4.038   1.453   6.641  0.7701  2.1356  1.3662
  553SOL     OW 2478   3.585   6.915   3.759 -0.0297  0.4158  0.5779
  553SOL    HW1 2479   3.593   6.977   3.681  1.2346  1.1276  1.2518
  553SOL    HW2 2480   3.493   6.923   3.799 -0.1820  1.1610  0.0953
  554SOL     OW 2481   3.182   6.256   0.263 -0.3534 -0.1737 -0.2246
  554SOL    HW1 2482   3.167   6.258   0.362 -0.8501  0.8775 -0.3057
  554SOL    HW2 2483   3.188   6.350   0.229  0.0831 -0.5335 -1.1570
  555SOL     OW 2484   5.422   0.555   1.343  0.1457  0.8960  0.1497
  555SOL    HW1 2485   5.394   0.650   1.332  0.8369  1.1267  0.3148
  555SOL    HW2 2486   5.413   0.528   1.439 -1.3830  0.3472 -0.1163
  556SOL     OW 2487   0.457   3.996   2.317 -0.3320  0.1106  0.1126
  556SOL    HW1 2488   0.459   3.902   2.283 -0.7349  0.4357 -0.8476
  556SOL    HW2 2489   0.515   4.004   2.398  1.9697 -0.3606 -1.3926
  557SOL     OW 2490   1.748   1.722   6.682  0.0766  0.1345 -0.3368
  557SOL    HW1 2491   1.703   1.635   6.702  1.9774 -1.1094 -1.0892
  557SOL    HW2 2492   1.792   1.757   6.764 -0.5826  0.3254 -0.0607
  558SOL     OW 2493   6.789   0.341   3.355  0.2755 -0.0254 -0.3164
  558SOL    HW1 2494   6.839   0.282   3.418 -1.2973 -1.0265  0.0673
  558SOL    HW2 2495   6.735   0.285   3.292 -0.8010  0.9686 -0.3225
  559SOL     OW 2496   4.466   5.601   2.718  0.2421  0.3897  0.2388
  559SOL    HW1 2497   4.456   5.505   2.745  1.4815  0.2329  0.1804
  559SOL    HW2 2498   4.512   5.651   2.790  0.0463  0.8408  0.0534
  560SOL     OW 2499   1.608   0.982   0.706  0.4788 -0.0634  0.1256
  560SOL    HW1 2500   1.633   0.971   0.803 -1.2875  1.7806  0.8519
  560SOL    HW2 2501   1.621   1.077   0.679  0.6450 -0.5012 -1.3891
  561SOL     OW 2502   6.199   6.169   1.200 -0.2906  0.5205  0.3252
  561SOL    HW1 2503   6.223   6.261   1.169  3.8061 -0.7171 -0.8199
  561SOL    HW2 2504   6.119   6.137   1.151 -0.1970  2.4974 -1.2527
  562SOL     OW 2505   1.310   2.662   0.257  0.3507 -0.0572  0.1230
  562SOL    HW1 2506   1.349   2.737   0.204  3.1793 -0.9253  0.8013
  562SOL    HW2 2507   1.366   2.580   0.246 -0.5660 -1.0547  2.2383
  563SOL     OW 2508   2.373   3.181   5.550 -0.6425  0.0155 -0.6646
  563SOL    HW1 2509   2.377   3.150   5.645 -0.6820  0.6807 -0.4458
  563SOL    HW2 2510   2.440   3.129   5.496 -0.8693 -0.6131 -0.3510
  564SOL     OW 2511   6.012   5.071   5.798 -0.5769 -0.2495  0.4281
  564SOL    HW1 2512   6.061   5.017   5.867  1.1605  2.6077  1.6377
  564SOL    HW2 2513   6.040   5.041   5.707 -0.7986 -2.2887  0.9754
  565SOL     OW 2514   4.109   5.042   0.788 -0.5173 -0.7055  0.4002
  565SOL    HW1 2515   4.196   5.006   0.822  0.3111 -2.0928 -2.7748
  565SOL    HW2 2516   4.035   4.982   0.819  0.2276 -2.0956 -0.3672
  566SOL     OW 2517   0.791   6.851   5.068 -0.6048 -0.4977  0.4981
  566SOL    HW1 2518   0.797   6.948   5.093 -1.3842 -0.1883 -0.4400
  566SOL    HW2 2519   0.883   6.815   5.054 -0.3317  0.3085  0.1332
  567SOL     OW 2520   6.287   0.165   4.364 -0.2238  0.8002  0.3180
  567SOL    HW1 2521   6.288   0.197   4.459 -0.5757 -0.9202  0.9560
  567SOL    HW2 2522   6.327   0.073   4.360  0.1658  1.0148 -1.2811
  568SOL     OW 2523   2.575   3.221   1.399  0.3413  0.4298 -0.0182
  568SOL    HW1 2524   2.670   3.253   1.398  1.4916 -2.7179 -1.2939
  568SOL    HW2 2525   2.529   3.258   1.480  2.7388  1.6847  0.8777
  569SOL     OW 2526   5.661   1.356   5.293 -0.0696 -0.1666 -0.2640
  569SOL    HW1 2527   5.654   1.267   5.336 -0.6204  0.8372  1.8400
  569SOL    HW2 2528   5.741   1.405   5.329 -0.4638  0.6480 -0.4642
  570SOL     OW 2529   3.719   3.494   0.806 -0.1375 -0.3233 -0.4432
  570SOL    HW1 2530   3.786   3.435   0.761  0.8219 -0.4184  1.0470
  570SOL    HW2 2531   3.766   3.554   0.870 -1.2692  1.0559 -0.8517
  571SOL     OW 2532   6.329   1.880   6.851  0.2098 -0.1351 -0.5150
  571SOL    HW1 2533   6.375   1.816   6.913  0.2049 -1.4649 -1.8486
  571SOL    HW2 2534   6.280   1.829   6.781 -2.7000  1.2314  0.3600
  572SOL     OW 2535   6.018   3.785   3.808  0.1404  0.4310  0.0917
  572SOL    HW1 2536   5.928   3.797   3.848 -0.7117 -2.7952 -0.5764
  572SOL    HW2 2537   6.085   3.767   3.880 -1.1285 -3.9544  0.4583
  573SOL     OW 2538   5.245   2.964   5.826  0.5267 -0.3103 -0.0281
  573SOL    HW1 2539   5.194   3.044   5.857  0.3361 -0.9115  1.2842
  573SOL    HW2 2540   5.325   2.993   5.774  0.3135  0.7254  0.1997
  574SOL     OW 2541   6.245   3.468   6.746 -1.1302  0.2968 -0.7047
  574SOL    HW1 2542   6.258   3.461   6.647 -1.5801  1.0463 -0.8268
  574SOL    HW2 2543   6.206   3.557   6.768 -0.8845  0.2012  0.1695
  575SOL     OW 2544   4.780   6.507   4.276 -0.3986 -0.3170 -0.3649
  575SOL    HW1 2545   4.747   6.590   4.321 -0.9491 -0.8995  0.3444
  575SOL    HW2 2546   4.860   6.528   4.220  1.4808  0.1637  2.3015
  576SOL     OW 2547   5.082   3.127   4.673 -0.6100 -0.4058 -0.4819
  576SOL    HW1 2548   5.150   3.100   4.604 -0.2058 -0.3173 -0.1214
  576SOL    HW2 2549   5.103   3.082   4.760  0.8296  2.0041  0.5074
  577SOL     OW 2550   6.099   2.987   6.580 -0.5393  0.6181 -0.1293
  577SOL    HW1 2551   6.166   2.913   6.574  0.3251  1.3766 -0.1302
  577SOL    HW2 2552   6.147   3.075   6.579 -1.5412  1.1789 -0.0694
  578SOL     OW 2553   4.302   2.118   1.994 -0.3438 -0.1488  0.4761
  578SOL    HW1 2554   4.334   2.213   1.992  3.1846 -1.2024 -1.1028
  578SOL    HW2 2555   4.242   2.102   1.916  0.6846  0.3674 -0.4632
  579SOL     OW 2556   4.038   0.468   1.629 -0.7807  0.4553 -0.0536
  579SOL    HW1 2557   4.051   0.406   1.552 -1.1543 -0.9044  0.9420
  579SOL    HW2 2558   4.123   0.475   1.681 -0.4246  1.6486 -0.7609
  580SOL     OW 2559   5.781   5.901   6.109 -0.6643  0.2728  0.0791
  580SOL    HW1 2560   5.750   5.822   6.055  3.2523 -1.3343 -0.1345
  580SOL    HW2 2561   5.779   5.877   6.206 -1.0213  0.5344  0.1366
  581SOL     OW 2562   5.647   5.997   1.816 -0.2067  0.1542 -0.3157
  581SOL    HW1 2563   5.693   6.046   1.890 -1.1469 -0.3244  0.6108
  581SOL    HW2 2564   5.699   5.915   1.793  0.0763  0.2950 -0.1857
  582SOL     OW 2565   3.352   1.614   3.383 -0.0007  0.4638  0.5214
  582SOL    HW1 2566   3.333   1.624   3.285  1.3649  0.4696  0.2332
  582SOL    HW2 2567   3.438   1.660   3.404  1.4185 -2.2755  1.0700
  583SOL     OW 2568   1.490   5.436   2.504 -0.5713 -0.1116 -0.3091
  583SOL    HW1 2569   1.535   5.520   2.473 -0.4817 -0.3832 -0.9350
  583SOL    HW2 2570   1.486   5.371   2.428  2.5713 -2.0977  0.9982
  584SOL     OW 2571   2.676   4.105   6.153 -0.4213 -0.1617 -0.3524
  584SOL    HW1 2572   2.744   4.178   6.162 -0.2508  0.1146 -3.0727
  584SOL    HW2 2573   2.588   4.137   6.189 -0.5762  1.8114 -2.2523
  585SOL     OW 2574   0.115   1.082   5.445  0.7002  0.4359 -0.3062
  585SOL    HW1 2575   0.069   1.141   5.512 -1.2125 -1.0794 -0.1865
  585SOL    HW2 2576   0.051   1.013   5.413  2.3673 -0.5153 -1.7508
  586SOL     OW 2577   6.664   4.202   5.584 -1.0852  0.6760  0.1607
  586SOL    HW1 2578   6.699   4.290   5.551  0.6011  0.1470  0.4547
  586SOL    HW2 2579   6.630   4.149   5.506  1.8984 -0.1377 -0.7076
  587SOL     OW 2580   0.818   2.104   0.230 -0.5428  0.0257  0.2980
  587SOL    HW1 2581   0.870   2.177   0.273 -1.4744  1.5251 -0.9873
  587SOL    HW2 2582   0.829   2.110   0.130 -0.0856 -2.0459  0.1766
  588SOL     OW 2583   0.945   6.126   5.713  0.1434 -0.9804 -0.3856
  588SOL    HW1 2584   0.988   6.160   5.629 -0.2259 -1.0222 -0.5942
  588SOL    HW2 2585   0.994   6.162   5.792 -0.5157  0.4161 -0.5811
  589SOL     OW 2586   2.978   6.180   4.571 -0.6556 -0.4059 -0.0734
  589SOL    HW1 2587   3.067   6.221   4.554 -0.6471  1.2255  3.2103
  589SOL    HW2 2588   2.983   6.118   4.649 -1.7713 -2.9744 -1.9028
  590SOL     OW 2589   3.715   4.265   0.488 -0.1021  0.6154  0.2373
  590SOL    HW1 2590   3.643   4.231   0.427 -0.7304  2.8416 -0.3344
  590SOL    HW2 2591   3.805   4.241   0.450 -0.4991  0.1312 -0.4222
  591SOL     OW 2592   0.371   6.190   6.904 -0.3382 -0.1001 -0.1171
  591SOL    HW1 2593   0.448   6.154   6.957 -0.6967  1.5675  1.6497
  591SOL    HW2 2594   0.406   6.240   6.824  0.2638 -1.5398 -0.7922
  592SOL     OW 2595   0.671   5.823   3.696  0.7818 -0.5148  0.2904
  592SOL    HW1 2596   0.729   5.769   3.635  0.6776  1.0510 -1.2582
  592SOL    HW2 2597   0.576   5.795   3.685  0.3791  1.5894 -2.4228
  593SOL     OW 2598   2.205   6.697   2.118  0.3276  0.0856 -0.3969
  593SOL    HW1 2599   2.177   6.762   2.189 -1.5759  0.3813 -1.3333
  593SOL    HW2 2600   2.192   6.604   2.152  0.0304  0.2166 -0.1384
  594SOL     OW 2601   2.038   3.144   6.536 -0.3566  0.3470 -0.3467
  594SOL    HW1 2602   2.039   3.172   6.632 -1.6224  1.9122 -0.7657
  594SOL    HW2 2603   1.948   3.107   6.513  0.1919 -0.8130 -0.7536
  595SOL     OW 2604   3.543   5.113   2.781 -0.4585 -0.1535 -0.4917
  595SOL    HW1 2605   3.507   5.120   2.874 -0.8533  0.1140 -0.6609
  595SOL    HW2 2606   3.608   5.188   2.765  0.5208 -0.8905 -0.0412
  596SOL     OW 2607   4.054   5.987   3.913 -0.3690  0.4559 -0.5808
  596SOL    HW1 2608   3.978   5.924   3.931  0.4651 -0.5641 -0.5124
  596SOL    HW2 2609   4.140   5.944   3.941  0.3909  1.0095 -1.9614
  597SOL     OW 2610   0.578   1.195   2.066  0.3938  0.1064 -0.0813
  597SOL    HW1 2611   0.556   1.135   2.143  0.2637  0.7741  0.4135
  597SOL    HW2 2612   0.549   1.152   1.981  0.0643 -0.4130  0.2865
  598SOL     OW 2613   1.417   4.291   3.330  0.1143  0.1263  0.4018
  598SOL    HW1 2614   1.346   4.282   3.259  2.3117  2.9693 -2.4234
  598SOL    HW2 2615   1.404   4.378   3.379  1.4004  0.5325  0.0593
  599SOL     OW 2616   5.765   0.117   6.155 -0.0071 -0.3504 -0.1944
  599SOL    HW1 2617   5.727   0.186   6.216 -1.6502 -1.1439 -0.2711
  599SOL    HW2 2618   5.837   0.066   6.203  0.5385  0.7393  0.1786
  600SOL     OW 2619   1.653   5.053   6.366 -0.4638  0.3875  0.1560
  600SOL    HW1 2620   1.696   5.143   6.360 -1.5299  0.9373  0.5454
  600SOL    HW2 2621   1.556   5.060   6.342  0.1976 -1.3479 -3.7494
  601SOL     OW 2622   1.893   0.226   2.415 -0.2147  0.2464  0.5797
  601SOL    HW1 2623   1.799   0.192   2.415 -0.3632  0.6479  0.2147
  601SOL    HW2 2624   1.908   0.283   2.496 -0.3590  0.3802  0.5128
  602SOL     OW 2625   5.969   1.007   5.446 -0.3761  0.3415 -0.3246
  602SOL    HW1 2626   6.048   1.068   5.441 -0.9556  1.0585 -1.0561
  602SOL    HW2 2627   5.995   0.916   5.414  0.2647  0.4475 -0.1189
  603SOL     OW 2628   1.023   3.207   2.655  0.7092  0.3145  0.7672
  603SOL    HW1 2629   1.090   3.203   2.580  0.0132 -0.3873  0.1698
  603SOL    HW2 2630   1.043   3.134   2.720  0.7571  0.3454  0.7873
  604SOL     OW 2631   3.978   1.629   5.026  0.3492 -0.1932  0.2512
  604SOL    HW1 2632   3.930   1.552   4.984  0.8040  0.1927 -1.0047
  604SOL    HW2 2633   3.920   1.710   5.024  0.5164 -0.0806  0.0425
  605SOL     OW 2634   5.192   3.065   3.288 -0.2871 -0.5695 -0.9891
  605SOL    HW1 2635   5.124   3.124   3.331 -0.2990 -0.6091 -0.9536
  605SOL    HW2 2636   5.147   3.002   3.226 -0.3403 -0.9350 -0.5850
  606SOL     OW 2637   6.499   2.190   6.325  0.4710  0.1837  0.0579
  606SOL    HW1 2638   6.481   2.220   6.418  0.9031  1.5533 -0.2739
  606SOL    HW2 2639   6.508   2.090   6.323 -0.4431  0.0533  1.3077
  607SOL     OW 2640   4.794   6.746   6.856 -0.0340 -0.2966  0.2421
  607SOL    HW1 2641   4.800   6.843   6.834 -0.0284 -0.6889 -1.7064
  607SOL    HW2 2642   4.705   6.725   6.896  0.0427  0.5345  0.8558
  608SOL     OW 2643   6.037   6.195   1.877 -0.0404 -0.3729  0.1904
  608SOL    HW1 2644   6.018   6.202   1.975  0.6410 -0.3195  0.3240
  608SOL    HW2 2645   5.978   6.125   1.837 -1.6201  0.8453  0.2735
  609SOL     OW 2646   2.046   4.620   2.994  0.4901 -0.0916  0.0872
  609SOL    HW1 2647   2.126   4.617   2.934  0.2556 -2.6868 -0.1996
  609SOL    HW2 2648   2.058   4.692   3.062  3.2241 -0.6402  0.2816
  610SOL     OW 2649   1.268   2.967   3.878 -0.2124 -0.0610  0.3503
  610SOL    HW1 2650   1.224   2.960   3.789  2.6246 -0.9858 -1.0953
  610SOL    HW2 2651   1.305   3.059   3.890  0.7406 -0.3596 -0.1626
  611SOL     OW 2652   3.633   1.551   1.263  0.2002  0.1701  0.4427
  611SOL    HW1 2653   3.676   1.608   1.333 -0.6499 -0.7868  1.7905
  611SOL    HW2 2654   3.534   1.550   1.276  0.2139 -1.9824  0.8065
  612SOL     OW 2655   2.531   0.633   0.113  0.1080 -0.2494 -0.1863
  612SOL    HW1 2656   2.511   0.730   0.097  0.7379 -0.2560 -1.0429
  612SOL    HW2 2657   2.520   0.613   0.211 -1.0348  0.4382 -0.1576
  613SOL     OW 2658   2.936   6.306   3.733 -0.0955 -0.7116 -0.0302
  613SOL    HW1 2659   2.888   6.389   3.705  0.7816 -0.2437 -0.1592
  613SOL    HW2 2660   3.007   6.284   3.667  0.3942 -0.9557  0.5689
  614SOL     OW 2661   0.922   4.832   4.080 -0.3049 -0.0733  0.0707
  614SOL    HW1 2662   0.908   4.791   4.171  0.4516 -2.5298 -0.8283
  614SOL    HW2 2663   0.968   4.919   4.090 -0.5834 -0.1008  2.0658
  615SOL     OW 2664   3.329   0.073   1.801  0.3579  0.2050 -0.2305
  615SOL    HW1 2665   3.371  -0.006   1.847  0.7172  0.1885 -0.5895
  615SOL    HW2 2666   3.388   0.104   1.727 -1.1044 -1.0404 -2.0332
  616SOL     OW 2667   1.437   5.522   0.683  0.1953 -0.1672 -0.2269
  616SOL    HW1 2668   1.481   5.455   0.623 -1.2005 -0.9722 -0.3979
  616SOL    HW2 2669   1.501   5.549   0.755  0.6470 -2.0410  0.1237
  617SOL     OW 2670   0.588   2.258   1.524 -0.9012 -0.2791 -0.1963
  617SOL    HW1 2671   0.582   2.160   1.504 -1.6039 -0.6465  1.6146
  617SOL    HW2 2672   0.672   2.295   1.485 -1.1052 -1.3600 -1.7748
  618SOL     OW 2673   5.142   6.642   0.466  0.0631  0.1084 -0.5570
  618SOL    HW1 2674   5.180   6.723   0.512 -2.0500  1.1419 -0.5240
  618SOL    HW2 2675   5.071   6.670   0.403 -0.1190 -1.6920 -1.1994
  619SOL     OW 2676   0.176   3.446   4.824  0.4325  0.0501 -0.1393
  619SOL    HW1 2677   0.203   3.350   4.825  2.8081  0.6625  0.0720
  619SOL    HW2 2678   0.225   3.494   4.752  0.3243  1.3835  0.6395
  620SOL     OW 2679   3.624   0.322   0.340  0.5778 -0.0801 -0.1780
  620SOL    HW1 2680   3.592   0.354   0.429  0.8994 -0.4887  0.0887
  620SOL    HW2 2681   3.577   0.237   0.316 -2.0309  1.7141 -1.9556
  621SOL     OW 2682   3.863   1.636   6.872 -0.5014 -0.1317  0.5823
  621SOL    HW1 2683   3.791   1.686   6.824 -0.2562  0.6806  1.0483
  621SOL    HW2 2684   3.898   1.564   6.812 -0.9641  0.1460 -0.0390
  622SOL     OW 2685   6.174   1.514   2.560 -0.3705  0.2523 -0.0694
  622SOL    HW1 2686   6.258   1.563   2.583 -0.8830 -0.0051  2.6906
  622SOL    HW2 2687   6.102   1.580   2.541  0.0500  0.4832 -0.9264
  623SOL     OW 2688   5.078   2.847   2.258 -0.1851 -0.5868  0.1568
  623SOL    HW1 2689   5.024   2.927   2.229  1.1278 -0.1920 -1.3231
  623SOL    HW2 2690   5.116   2.863   2.349  0.8977  0.9378 -0.5331
  624SOL     OW 2691   0.441   4.873   4.880 -0.6200  0.0917 -0.4055
  624SOL    HW1 2692   0.427   4.970   4.860 -2.4873  0.0098  0.2465
  624SOL    HW2 2693   0.408   4.854   4.973  0.7998 -0.9607 -0.0889
  625SOL     OW 2694   0.140   1.008   6.964 -0.1757 -0.0038 -0.2618
  625SOL    HW1 2695   0.078   1.014   7.041 -1.7578  3.2547 -1.5794
  625SOL    HW2 2696   0.227   0.970   6.994 -2.0517 -2.8715  2.0902
  626SOL     OW 2697   2.353   6.860   6.150  0.2163 -0.1305  0.1981
  626SOL    HW1 2698   2.442   6.822   6.175  0.3082  0.0301  0.1154
  626SOL    HW2 2699   2.294   6.786   6.116  0.5250 -0.1372 -0.3304
  627SOL     OW 2700   5.472   2.404   2.962  0.0579 -0.2190  0.6260
  627SOL    HW1 2701   5.553   2.363   2.920 -0.1666 -1.4667  1.3572
  627SOL    HW2 2702   5.453   2.359   3.049 -0.2758  1.3977  1.4223
  628SOL     OW 2703   3.533   2.990   3.572 -0.2020  0.4719 -0.4652
  628SOL    HW1 2704   3.609   2.925   3.564 -0.1632  0.0177  2.5979
  628SOL    HW2 2705   3.566   3.082   3.556  0.4778  0.0885 -1.3826
  629SOL     OW 2706   6.342   6.964   2.602  0.2141 -0.1395  0.7104
  629SOL    HW1 2707   6.332   6.901   2.525 -0.9964  1.3565 -0.4031
  629SOL    HW2 2708   6.292   6.928   2.681 -0.4158 -0.5978  0.1151
  630SOL     OW 2709   1.649   6.220   6.348 -0.5415  0.1817  0.0648
  630SOL    HW1 2710   1.618   6.133   6.386 -0.8755  0.3593  0.2047
  630SOL    HW2 2711   1.606   6.295   6.398 -2.1107  0.4283 -1.5593
  631SOL     OW 2712   5.736   5.378   4.562  0.4193 -0.0121 -0.3513
  631SOL    HW1 2713   5.709   5.438   4.638 -1.5273 -0.6219 -0.4920
  631SOL    HW2 2714   5.834   5.361   4.566  0.4735  0.5099  1.6375
  632SOL     OW 2715   0.215   3.627   0.266 -0.4510  0.2045  0.7143
  632SOL    HW1 2716   0.198   3.532   0.292 -3.0940  0.1134 -0.9477
  632SOL    HW2 2717   0.253   3.630   0.174 -0.5517  0.7651  0.6884
  633SOL     OW 2718   2.780   3.547   1.220 -0.3950 -0.1848  0.2336
  633SOL    HW1 2719   2.706   3.539   1.154 -1.0008  1.0365  0.7296
  633SOL    HW2 2720   2.856   3.598   1.180  0.4619 -1.9362 -0.4750
  634SOL     OW 2721   4.697   4.661   0.276 -0.2202 -0.5914  0.2937
  634SOL    HW1 2722   4.632   4.716   0.328 -1.0417 -0.6141 -0.6873
  634SOL    HW2 2723   4.736   4.590   0.335  1.0914  1.1845  1.6719
  635SOL     OW 2724   4.238   1.586   3.538  0.9443 -0.0894  0.3805
  635SOL    HW1 2725   4.273   1.522   3.470  1.7231  0.8193 -0.1104
  635SOL    HW2 2726   4.139   1.578   3.544  1.1166 -2.3295  1.3745
  636SOL     OW 2727   0.603   4.658   6.193  0.1314  0.1837  0.6652
  636SOL    HW1 2728   0.683   4.703   6.154  0.0751  0.4366  0.8417
  636SOL    HW2 2729   0.521   4.709   6.170 -0.0983 -0.6183 -0.3760
  637SOL     OW 2730   1.873   5.719   0.317 -0.1345 -0.0169 -0.1651
  637SOL    HW1 2731   1.961   5.672   0.307 -0.8257 -1.1657 -1.0809
  637SOL    HW2 2732   1.884   5.815   0.292  1.0021  0.0168  0.3936
  638SOL     OW 2733   2.097   4.062   2.394  0.1050  0.3911 -0.0428
  638SOL    HW1 2734   2.042   3.983   2.420 -1.7604  1.1143 -1.5235
  638SOL    HW2 2735   2.040   4.127   2.343  1.6459  2.5386  0.7950
  639SOL     OW 2736   4.385   6.518   4.313 -0.1705  0.3682  0.0600
  639SOL    HW1 2737   4.332   6.559   4.239  0.9673  0.7622 -0.5707
  639SOL    HW2 2738   4.388   6.580   4.391 -1.2516  0.0156  0.3915
  640SOL     OW 2739   5.004   0.842   0.692 -0.5342 -0.9437 -0.0256
  640SOL    HW1 2740   5.082   0.837   0.630 -0.2490  0.7722  0.1289
  640SOL    HW2 2741   5.004   0.931   0.738 -2.6787 -0.8363 -0.1310
  641SOL     OW 2742   4.874   3.855   5.463  0.5573  0.3346  0.0697
  641SOL    HW1 2743   4.916   3.939   5.430 -1.9312  0.6350 -2.7049
  641SOL    HW2 2744   4.791   3.877   5.514 -0.0417 -0.3848 -0.5651
  642SOL     OW 2745   1.513   0.715   2.121 -0.1398 -0.3761  0.8886
  642SOL    HW1 2746   1.449   0.762   2.060  0.5440 -1.5236 -0.7795
  642SOL    HW2 2747   1.464   0.646   2.174 -0.7420  0.6215  1.6485
  643SOL     OW 2748   3.631   0.522   0.103 -0.0052  0.2479 -0.4650
  643SOL    HW1 2749   3.697   0.572   0.159  1.0622 -0.4393 -1.0781
  643SOL    HW2 2750   3.588   0.450   0.157  0.4513  0.0792 -0.3272
  644SOL     OW 2751   6.120   1.249   0.322  0.2779 -0.7633  0.8592
  644SOL    HW1 2752   6.107   1.347   0.306 -1.4885 -0.7770  1.9850
  644SOL    HW2 2753   6.047   1.215   0.381  1.7684 -2.4278  1.8472
  645SOL     OW 2754   0.200   5.153   4.309 -0.5636  0.4573  0.7828
  645SOL    HW1 2755   0.130   5.084   4.325 -0.9288  0.6768  0.1852
  645SOL    HW2 2756   0.277   5.113   4.259 -0.4277  0.3031  1.1149
  646SOL     OW 2757   5.421   2.251   0.067  0.5893 -0.0602 -0.0699
  646SOL    HW1 2758   5.343   2.189   0.076  0.8949 -0.6332 -1.2040
  646SOL    HW2 2759   5.501   2.211   0.113  0.6530 -0.2609 -0.3556
  647SOL     OW 2760   1.449   2.077   1.203  0.2261 -0.1231 -0.3352
  647SOL    HW1 2761   1.380   2.119   1.143  0.7445 -0.5708 -1.2584
  647SOL    HW2 2762   1.412   2.070   1.296 -0.4696  0.8853 -0.5166
  648SOL     OW 2763   5.911   5.762   4.854 -0.5810  0.3337 -0.3630
  648SOL    HW1 2764   5.933   5.747   4.950  1.8333 -0.8612 -1.0350
  648SOL    HW2 2765   5.919   5.859   4.832  1.3493  0.3076  0.1112
  649SOL     OW 2766   0.671   5.790   3.108 -0.1206 -0.4524  0.6346
  649SOL    HW1 2767   0.624   5.739   3.180 -1.9612  0.2127 -0.0541
  649SOL    HW2 2768   0.635   5.883   3.105  1.4042  0.1463  0.1974
  650SOL     OW 2769   6.400   6.944   1.455  0.1424 -0.3091  0.3924
  650SOL    HW1 2770   6.342   6.899   1.386 -0.3539  1.1215 -0.1454
  650SOL    HW2 2771   6.483   6.890   1.468 -0.7306 -1.7562  0.2810
  651SOL     OW 2772   6.133   1.906   1.863  0.8232 -0.0040  0.0597
  651SOL    HW1 2773   6.112   2.000   1.892  1.5619  1.2442 -3.0000
  651SOL    HW2 2774   6.231   1.889   1.872  0.7515 -0.3517  0.2111
  652SOL     OW 2775   5.052   5.085   3.950  0.3613  0.8116 -0.3916
  652SOL    HW1 2776   4.990   5.066   3.874  0.1405  0.6253 -0.1669
  652SOL    HW2 2777   5.024   5.170   3.995  0.6312  1.0441 -0.6603
  653SOL     OW 2778   1.185   0.300   0.712  0.3939 -0.1314  0.0585
  653SOL    HW1 2779   1.111   0.239   0.739  0.1268 -0.2452 -0.8921
  653SOL    HW2 2780   1.264   0.245   0.684  0.4396 -0.0310 -0.0105
  654SOL     OW 2781   0.237   4.041   3.581  0.1067  0.3133 -0.1259
  654SOL    HW1 2782   0.329   4.061   3.615 -0.8307  2.0206  1.6262
  654SOL    HW2 2783   0.210   4.112   3.516 -0.2948  0.3179  0.0453
  655SOL     OW 2784   4.220   1.215   6.925  0.2757  0.0775  0.3668
  655SOL    HW1 2785   4.121   1.219   6.938  0.3129  0.4909  0.5377
  655SOL    HW2 2786   4.251   1.298   6.878  0.8327  1.0310  2.3138
  656SOL     OW 2787   4.985   6.001   0.051  0.0907  0.7846 -0.0136
  656SOL    HW1 2788   4.924   6.065   0.005  0.0362  0.5747 -0.2341
  656SOL    HW2 2789   5.056   6.051   0.100  0.3799  0.9943 -0.6423
  657SOL     OW 2790   3.974   5.816   3.522 -0.0119 -0.1387  0.2588
  657SOL    HW1 2791   3.914   5.888   3.488  0.9153  0.1731 -0.7596
  657SOL    HW2 2792   3.935   5.727   3.499  1.0973  0.0299 -2.7645
  658SOL     OW 2793   4.915   2.747   6.139 -0.6569  0.4865  0.1942
  658SOL    HW1 2794   4.971   2.770   6.219 -1.1024 -0.7313  0.8765
  658SOL    HW2 2795   4.845   2.818   6.127 -0.6341  0.6513  0.9397
  659SOL     OW 2796   5.028   0.974   0.254  0.1513 -0.1629  0.1683
  659SOL    HW1 2797   5.052   0.892   0.306 -2.7232 -1.1395  0.1152
  659SOL    HW2 2798   5.108   1.005   0.203  1.8444 -1.7689  1.6749
  660SOL     OW 2799   3.367   1.267   1.390 -0.1765 -0.1850 -0.2095
  660SOL    HW1 2800   3.418   1.187   1.424 -1.9893 -1.2379  0.1485
  660SOL    HW2 2801   3.306   1.300   1.461  1.8925  2.8353  0.3647
  661SOL     OW 2802   4.611   0.238   3.806 -0.1012  0.2329  0.2744
  661SOL    HW1 2803   4.544   0.244   3.732  0.0196 -0.7402  0.0694
  661SOL    HW2 2804   4.668   0.320   3.806 -1.0222  0.8804  0.1892
  662SOL     OW 2805   0.885   5.358   6.212  0.6644  0.6778 -0.0117
  662SOL    HW1 2806   0.916   5.314   6.296 -0.0379 -0.7148 -0.4388
  662SOL    HW2 2807   0.960   5.363   6.147  0.6303 -0.4489 -0.1590
  663SOL     OW 2808   5.908   2.055   0.894 -0.1047  0.2822 -0.2479
  663SOL    HW1 2809   5.963   2.079   0.814  0.8245  0.5455  0.4545
  663SOL    HW2 2810   5.880   1.960   0.888  3.8058 -1.1353  1.2589
  664SOL     OW 2811   4.053   0.303   3.574  0.2906  0.0179  0.1337
  664SOL    HW1 2812   4.032   0.205   3.577 -0.5172  0.1674 -0.2684
  664SOL    HW2 2813   3.971   0.354   3.546  1.2694  0.6072 -1.8611
  665SOL     OW 2814   2.817   6.881   6.008  0.0479  0.1353 -0.1476
  665SOL    HW1 2815   2.907   6.836   6.003  0.2305  0.4732  0.0098
  665SOL    HW2 2816   2.746   6.812   6.020  0.3663 -0.0838  0.5658
  666SOL     OW 2817   0.522   4.957   2.144  0.3393  0.7616  0.2043
  666SOL    HW1 2818   0.439   4.926   2.098  1.6489 -1.6386 -0.7707
  666SOL    HW2 2819   0.516   4.936   2.242 -0.4569  1.2820  0.2791
  667SOL     OW 2820   4.494   3.991   6.449 -0.0814  0.2864 -0.5368
  667SOL    HW1 2821   4.568   3.992   6.382  1.0526  0.9890  0.6640
  667SOL    HW2 2822   4.489   3.900   6.491  0.5209  0.3985 -0.2045
  668SOL     OW 2823   5.462   4.512   3.013  0.1237 -0.3627  0.2853
  668SOL    HW1 2824   5.465   4.413   3.020  0.9377 -0.3626  0.0772
  668SOL    HW2 2825   5.376   4.546   3.050  0.0282 -1.1135  0.7633
  669SOL     OW 2826   6.599   6.951   3.285  0.0795 -0.5959  0.3760
  669SOL    HW1 2827   6.678   7.011   3.269 -0.8437  0.4944 -0.2089
  669SOL    HW2 2828   6.562   6.970   3.376 -0.5725  0.1689 -0.0385
  670SOL     OW 2829   0.141   1.068   3.868  0.6683 -0.4969 -0.4805
  670SOL    HW1 2830   0.187   1.156   3.854 -2.4413  1.1439 -1.4188
  670SOL    HW2 2831   0.209   0.995   3.871  3.3130  1.7743 -0.9065
  671SOL     OW 2832   5.676   2.407   5.696 -0.3195  0.2645 -0.2771
  671SOL    HW1 2833   5.681   2.502   5.665 -1.3146  0.1683 -0.7620
  671SOL    HW2 2834   5.706   2.346   5.624 -1.2414  0.1267 -0.5601
  672SOL     OW 2835   1.401   1.017   3.133 -0.0196 -0.2138 -0.4677
  672SOL    HW1 2836   1.494   1.044   3.110 -0.2652 -1.0708 -2.7224
  672SOL    HW2 2837   1.402   0.961   3.216  1.4661 -0.2474 -0.4811
  673SOL     OW 2838   4.072   5.238   2.365  0.4190 -0.3410  0.0782
  673SOL    HW1 2839   4.096   5.176   2.440 -0.2636 -1.0278 -0.2636
  673SOL    HW2 2840   3.981   5.215   2.331  1.2652 -0.9438 -1.8904
  674SOL     OW 2841   3.854   6.967   4.699 -0.6767  0.6141  0.2907
  674SOL    HW1 2842   3.853   6.921   4.788 -0.2265  0.2463  0.1117
  674SOL    HW2 2843   3.781   6.931   4.642 -0.8104  0.6737  0.4229
  675SOL     OW 2844   0.118   2.781   5.655 -0.2673  0.2348  0.6579
  675SOL    HW1 2845   0.093   2.848   5.725  3.8456  0.7858  1.8867
  675SOL    HW2 2846   0.110   2.689   5.693 -0.3871  0.3767  0.9866
  676SOL     OW 2847   1.285   3.920   1.760 -0.0478  0.0224  1.2406
  676SOL    HW1 2848   1.269   3.957   1.669 -0.8719 -0.5810  1.1277
  676SOL    HW2 2849   1.383   3.906   1.774  0.0966  0.3004  0.5204
  677SOL     OW 2850   1.801   1.347   6.762 -0.8621 -0.1026  0.0598
  677SOL    HW1 2851   1.769   1.338   6.668 -0.9151 -1.3334  0.1889
  677SOL    HW2 2852   1.762   1.431   6.802 -0.0615  0.9660 -1.3027
  678SOL     OW 2853   3.239   2.621   1.709  0.1199 -0.6009  0.1658
  678SOL    HW1 2854   3.230   2.685   1.785  0.0954 -0.3316 -0.0626
  678SOL    HW2 2855   3.231   2.670   1.622 -1.3045 -1.1207 -0.0192
  679SOL     OW 2856   0.934   3.193   3.940 -0.0771 -0.2938 -0.0116
  679SOL    HW1 2857   0.987   3.249   3.876 -0.3114  0.3938  0.3920
  679SOL    HW2 2858   0.850   3.240   3.964 -0.1705 -0.7220  0.5152
  680SOL     OW 2859   3.217   0.587   3.225 -0.5015  0.5271  0.1039
  680SOL    HW1 2860   3.292   0.527   3.199  0.3538  0.4135  2.5472
  680SOL    HW2 2861   3.218   0.669   3.168  0.1528 -0.4049 -1.2875
  681SOL     OW 2862   3.844   6.634   3.341 -0.4661  0.0098  0.3372
  681SOL    HW1 2863   3.833   6.704   3.270  0.0608  1.0057  1.2034
  681SOL    HW2 2864   3.785   6.656   3.419  0.0574 -0.2502  0.8125
  682SOL     OW 2865   1.085   5.359   1.088  0.2778 -0.0203  0.2804
  682SOL    HW1 2866   1.129   5.328   1.172 -1.1942 -1.3593  0.6250
  682SOL    HW2 2867   0.985   5.354   1.099 -0.0150 -2.5536 -2.2746
  683SOL     OW 2868   5.382   5.572   2.602  0.1401  0.0675 -0.1123
  683SOL    HW1 2869   5.433   5.650   2.636  0.1452 -0.6044  1.4913
  683SOL    HW2 2870   5.442   5.513   2.548 -0.0666  1.5604 -2.1059
  684SOL     OW 2871   1.589   6.794   5.740 -0.4573  0.2210 -0.1354
  684SOL    HW1 2872   1.638   6.758   5.819  0.8729 -0.5452 -1.2640
  684SOL    HW2 2873   1.507   6.843   5.771 -2.1356 -3.2605  1.5212
  685SOL     OW 2874   1.965   1.319   3.737  0.0016 -0.0987 -0.5785
  685SOL    HW1 2875   1.954   1.225   3.768 -0.4593  0.2892  0.4748
  685SOL    HW2 2876   1.905   1.379   3.789  0.4236  0.8104 -1.1083
  686SOL     OW 2877   3.867   2.223   0.051  0.1424  0.3787 -0.4610
  686SOL    HW1 2878   3.791   2.219  -0.014 -0.1833  0.2595 -0.0746
  686SOL    HW2 2879   3.943   2.274   0.010 -0.4791  1.2739 -0.5134
  687SOL     OW 2880   4.143   3.833   5.270 -0.0948 -0.5765  0.4193
  687SOL    HW1 2881   4.091   3.875   5.196 -1.5728  0.1132  1.7988
  687SOL    HW2 2882   4.238   3.866   5.266 -0.0639 -0.7708 -1.2948
  688SOL     OW 2883   2.075   6.895   4.233  0.7642 -0.1233 -0.1729
  688SOL    HW1 2884   2.107   6.800   4.238 -1.2987 -0.9004 -0.7095
  688SOL    HW2 2885   2.016   6.914   4.311  1.2493  0.7719 -0.0162
  689SOL     OW 2886   1.758   0.804   6.205 -0.3213 -0.3743  0.4770
  689SOL    HW1 2887   1.679   0.846   6.161 -0.6783 -0.3873  1.0854
  689SOL    HW2 2888   1.766   0.839   6.299  0.1113 -0.7308  0.5772
  690SOL     OW 2889   2.559   2.846   0.196 -0.4925 -0.1770  0.1087
  690SOL    HW1 2890   2.520   2.937   0.214 -1.7857 -0.7453  0.3252
  690SOL    HW2 2891   2.573   2.798   0.282 -2.6813 -1.2960 -0.0990
  691SOL     OW 2892   0.679   4.610   2.018  0.7915  0.4583  0.1336
  691SOL    HW1 2893   0.719   4.700   2.036  1.2967  0.5942 -1.5547
  691SOL    HW2 2894   0.752   4.541   2.014  0.5202  0.1607  0.2424
  692SOL     OW 2895   0.440   1.335   6.854  0.1964  0.4060  0.3271
  692SOL    HW1 2896   0.350   1.300   6.880  0.5799  0.2822  1.5442
  692SOL    HW2 2897   0.455   1.318   6.756 -1.4690  1.2569 -0.1134
  693SOL     OW 2898   0.875   5.605   4.138 -0.2054 -0.4547  0.1601
  693SOL    HW1 2899   0.928   5.642   4.214 -0.6636 -0.0089  0.2604
  693SOL    HW2 2900   0.789   5.654   4.130 -0.3576 -0.8036 -0.3627
  694SOL     OW 2901   4.831   3.309   6.733  0.5179 -0.2704 -0.1630
  694SOL    HW1 2902   4.854   3.213   6.747  0.5467 -0.2733 -0.2310
  694SOL    HW2 2903   4.740   3.317   6.694  1.4077 -0.3845 -2.4152
  695SOL     OW 2904   6.168   2.425   4.984 -0.3197 -0.1935  0.4227
  695SOL    HW1 2905   6.152   2.334   5.021 -0.1615  0.1965  1.4855
  695SOL    HW2 2906   6.236   2.420   4.911  1.4762 -0.6296  2.0459
  696SOL     OW 2907   5.672   5.799   0.252  0.2011 -0.2848 -0.0364
  696SOL    HW1 2908   5.644   5.735   0.180 -0.7757  1.0286 -0.8551
  696SOL    HW2 2909   5.711   5.881   0.210 -0.2340  0.4327  0.9374
  697SOL     OW 2910   1.473   3.390   6.499 -0.3746 -0.6863 -0.5756
  697SOL    HW1 2911   1.545   3.451   6.466 -0.3625 -0.9551 -1.0502
  697SOL    HW2 2912   1.469   3.394   6.599  0.3761 -0.7585 -0.5413
  698SOL     OW 2913   4.129   2.015   7.000  1.1265 -0.2473 -0.3601
  698SOL    HW1 2914   4.133   2.075   7.080  1.4938 -1.4852  0.5906
  698SOL    HW2 2915   4.169   2.061   6.921  1.6110  0.6753  0.4040
  699SOL     OW 2916   5.352   1.341   2.342  0.4787 -0.2950  0.5264
  699SOL    HW1 2917   5.297   1.360   2.424  0.4681  1.3353  0.1710
  699SOL    HW2 2918   5.348   1.419   2.280  0.9675 -1.2666 -0.7839
  700SOL     OW 2919   4.416   6.013   1.666 -0.3356  0.1384  0.2297
  700SOL    HW1 2920   4.371   6.048   1.748  0.7196  0.9786  0.4759
  700SOL    HW2 2921   4.418   6.085   1.597 -0.0079 -0.1235 -0.0365
  701SOL     OW 2922   2.126   0.656   1.927  0.1622  0.4560  0.2261
  701SOL    HW1 2923   2.042   0.710   1.924  1.1357  1.9792 -0.7090
  701SOL    HW2 2924   2.142   0.623   2.020 -1.6498 -0.1794  0.3388
  702SOL     OW 2925   2.276   2.474   5.867 -0.3632 -0.6890  0.5573
  702SOL    HW1 2926   2.202   2.540   5.880  0.4025 -0.1334  2.5567
  702SOL    HW2 2927   2.277   2.411   5.945 -0.6433 -2.6678 -0.9783
  703SOL     OW 2928   2.360   3.417   3.645 -0.2935 -0.5046  0.0473
  703SOL    HW1 2929   2.279   3.463   3.609 -0.4104 -1.4531 -0.9526
  703SOL    HW2 2930   2.430   3.485   3.669 -0.7092  0.2179 -0.7759
  704SOL     OW 2931   4.084   6.011   2.617 -0.0382 -0.4714  0.4573
  704SOL    HW1 2932   3.990   5.998   2.585  0.5585 -0.0006 -1.6638
  704SOL    HW2 2933   4.130   5.923   2.619 -0.2836 -0.5966  0.6678
  705SOL     OW 2934   5.554   1.371   5.676 -0.2640 -0.6147 -0.2690
  705SOL    HW1 2935   5.634   1.431   5.684 -0.1700 -0.8907  1.1115
  705SOL    HW2 2936   5.471   1.426   5.675 -0.1140 -0.3900 -0.5304
  706SOL     OW 2937   5.613   0.954   3.689  0.0749  0.1208 -0.1206
  706SOL    HW1 2938   5.553   1.021   3.647 -3.6053 -1.6794  1.8362
  706SOL    HW2 2939   5.632   0.880   3.624  0.6888  0.9482 -0.9091
  707SOL     OW 2940   2.840   1.461   5.713  0.0189  0.2843  0.2012
  707SOL    HW1 2941   2.930   1.492   5.744  1.4625 -1.1567 -2.2292
  707SOL    HW2 2942   2.797   1.532   5.658 -0.5912  1.1289  1.6850
  708SOL     OW 2943   2.122   2.846   4.711  0.1884  0.1650 -0.0031
  708SOL    HW1 2944   2.206   2.815   4.756  0.7740  3.4846  1.5014
  708SOL    HW2 2945   2.051   2.860   4.780 -0.8422 -0.2066 -0.9520
  709SOL     OW 2946   6.425   3.076   4.346  0.0242 -0.0766 -0.5923
  709SOL    HW1 2947   6.392   3.102   4.437  0.4196 -1.2366 -0.1082
  709SOL    HW2 2948   6.399   2.982   4.327 -1.9591  0.7544 -2.5808
  710SOL     OW 2949   0.972   3.173   6.334  0.0169  0.6693  0.5840
  710SOL    HW1 2950   0.954   3.248   6.269 -3.4877  0.5781  1.2463
  710SOL    HW2 2951   1.036   3.109   6.293  0.2897  2.1641 -1.5290
  711SOL     OW 2952   5.848   6.841   0.825 -0.6215 -0.2492  0.4996
  711SOL    HW1 2953   5.753   6.846   0.856 -0.8993  1.1703 -0.4677
  711SOL    HW2 2954   5.905   6.903   0.879 -0.6537  0.4410 -0.2405
  712SOL     OW 2955   6.375   1.155   1.820  0.4277 -0.1868 -0.2042
  712SOL    HW1 2956   6.354   1.197   1.909  2.2732  0.0683  0.1477
  712SOL    HW2 2957   6.300   1.174   1.756 -0.1677  1.0837  0.8177
  713SOL     OW 2958   2.337   3.855   6.969 -0.2978  0.0177  0.2852
  713SOL    HW1 2959   2.373   3.773   6.926 -0.3688  0.0935  0.0794
  713SOL    HW2 2960   2.369   3.936   6.920 -0.6199  0.0916  0.1926
  714SOL     OW 2961   0.943   6.369   1.579  0.2677 -0.6505  0.9732
  714SOL    HW1 2962   0.997   6.448   1.608  0.0780 -0.3801  0.5889
  714SOL    HW2 2963   0.989   6.285   1.608  0.1975 -0.3922  1.8610
  715SOL     OW 2964   6.839   3.727   1.140  0.8802  0.6277  0.1446
  715SOL    HW1 2965   6.917   3.667   1.156  0.4074  0.3335  1.5299
  715SOL    HW2 2966   6.765   3.703   1.203 -0.8765  0.0011 -2.0594
  716SOL     OW 2967   2.395   6.936   3.089  0.6175 -0.0548 -0.4722
  716SOL    HW1 2968   2.493   6.914   3.086  1.1785  1.9911  0.9089
  716SOL    HW2 2969   2.366   6.947   3.184 -0.4885  1.2010 -0.9202
  717SOL     OW 2970   4.594   0.743   2.612 -0.4104  0.0850  0.0091
  717SOL    HW1 2971   4.689   0.754   2.644 -0.5392  1.4445  0.0135
  717SOL    HW2 2972   4.548   0.675   2.667  0.6668 -0.8601 -0.2212
  718SOL     OW 2973   1.691   2.223   1.163 -0.4160  0.2150 -0.2151
  718SOL    HW1 2974   1.608   2.167   1.170 -0.0459 -0.5123 -1.3941
  718SOL    HW2 2975   1.765   2.180   1.215 -0.1410 -0.4087 -1.0926
  719SOL     OW 2976   6.925   4.289   2.320 -0.6067 -0.1428 -0.4093
  719SOL    HW1 2977   6.932   4.316   2.224  0.5654  0.9304 -0.0413
  719SOL    HW2 2978   7.013   4.256   2.352 -0.1685  2.2213  1.0575
  720SOL     OW 2979   2.365   0.718   6.013  0.1142  0.7425  0.8628
  720SOL    HW1 2980   2.348   0.621   6.027  0.2531  0.7024  0.7548
  720SOL    HW2 2981   2.445   0.747   6.066  0.6466  0.5871  0.1601
  721SOL     OW 2982   4.009   5.458   3.861 -0.2211 -0.0477 -0.2691
  721SOL    HW1 2983   4.057   5.523   3.802 -1.0992  0.1269 -0.8206
  721SOL    HW2 2984   3.980   5.505   3.945  0.6436 -0.1827  0.1141
  722SOL     OW 2985   2.271   0.416   4.183 -0.2189  0.2827  0.2512
  722SOL    HW1 2986   2.327   0.338   4.209  0.6077  1.3352  1.7371
  722SOL    HW2 2987   2.321   0.472   4.117 -0.2123  0.3262  0.2931
  723SOL     OW 2988   0.880   1.210   2.641  0.1591 -0.2108 -0.5864
  723SOL    HW1 2989   0.949   1.242   2.575 -0.1689  1.8247  0.0022
  723SOL    HW2 2990   0.843   1.288   2.691 -0.5848 -1.5744  1.0829
  724SOL     OW 2991   0.118   6.614   4.571 -0.6603  0.6605 -0.6162
  724SOL    HW1 2992   0.165   6.584   4.488 -0.2733  1.3052 -0.6357
  724SOL    HW2 2993   0.149   6.706   4.596 -0.9140  0.5518  0.1323
  725SOL     OW 2994   6.930   6.537   6.261  0.1990  0.9310  0.8176
  725SOL    HW1 2995   6.860   6.465   6.251 -0.3814  1.5231  0.5513
  725SOL    HW2 2996   7.010   6.499   6.307 -0.9064  0.6180  2.5843
  726SOL     OW 2997   2.400   3.117   1.592 -0.3803  0.1616  0.0822
  726SOL    HW1 2998   2.332   3.137   1.521  0.5156  2.6024 -0.1662
  726SOL    HW2 2999   2.459   3.042   1.562 -0.7199  0.4077 -1.2590
  727SOL     OW 3000   6.175   1.138   2.243 -0.8236 -0.5248 -0.4492
  727SOL    HW1 3001   6.233   1.205   2.197 -0.6595 -0.8420 -0.7156
  727SOL    HW2 3002   6.125   1.182   2.317 -1.0446 -0.0225 -0.8930
  728SOL     OW 3003   2.194   5.369   3.506 -0.2158 -0.1944  0.2311
  728SOL    HW1 3004   2.119   5.394   3.444  1.5197 -0.7818 -2.2463
  728SOL    HW2 3005   2.249   5.297   3.464  2.0388  0.5300  1.7621
  729SOL     OW 3006   6.997   4.967   3.509  0.0440  0.0671  0.0348
  729SOL    HW1 3007   6.905   5.002   3.491  0.5949  1.8203  0.4431
  729SOL    HW2 3008   7.065   5.037   3.488  1.1784 -0.5651  1.3669
  730SOL     OW 3009   1.688   2.360   4.785 -0.1117 -0.2335  0.0615
  730SOL    HW1 3010   1.779   2.342   4.747  0.3963  0.8763  0.6966
  730SOL    HW2 3011   1.634   2.276   4.783  1.2172 -1.1279  0.4466
  731SOL     OW 3012   5.265   5.807   1.100  0.4511  0.0811  0.1964
  731SOL    HW1 3013   5.279   5.906   1.097  2.2709 -0.1627 -0.7554
  731SOL    HW2 3014   5.210   5.784   1.180 -1.6813  2.0075 -0.6134
  732SOL     OW 3015   6.271   4.904   5.842  0.6940 -0.4504  0.2290
  732SOL    HW1 3016   6.364   4.909   5.878  1.5996  0.7178 -1.9965
  732SOL    HW2 3017   6.263   4.826   5.780 -0.6597 -2.1142  2.3865
  733SOL     OW 3018   1.631   0.532   6.429  0.0778 -0.2083  0.1465
  733SOL    HW1 3019   1.646   0.433   6.426 -3.8038 -1.0164  1.8709
  733SOL    HW2 3020   1.672   0.569   6.513  0.1867 -0.6254  0.2792
  734SOL     OW 3021   3.720   5.105   5.510 -0.5435  0.1605 -0.2375
  734SOL    HW1 3022   3.626   5.117   5.479 -0.3753 -0.2297 -0.9356
  734SOL    HW2 3023   3.780   5.165   5.458 -0.1484 -1.1043 -1.3170
  735SOL     OW 3024   5.974   1.478   6.605 -0.4494  0.1517  0.1762
  735SOL    HW1 3025   5.895   1.433   6.563 -0.0072 -0.6422  0.1813
  735SOL    HW2 3026   5.988   1.567   6.562 -2.0999  0.8684  1.0229
  736SOL     OW 3027   4.198   2.086   6.734  0.1955 -0.3501 -0.1237
  736SOL    HW1 3028   4.272   2.098   6.668  1.2951 -0.2680  1.0859
  736SOL    HW2 3029   4.134   2.163   6.725  0.6974  0.0243 -0.6141
  737SOL     OW 3030   0.246   2.209   6.834  0.6405 -0.5797 -0.2610
  737SOL    HW1 3031   0.261   2.307   6.842  1.5619 -0.5568 -1.8994
  737SOL    HW2 3032   0.224   2.186   6.739 -1.6926 -1.7090  0.4669
  738SOL     OW 3033   1.505   1.538   1.525  0.3146  0.6145 -0.2237
  738SOL    HW1 3034   1.418   1.529   1.573  0.5057 -1.9481 -0.2294
  738SOL    HW2 3035   1.494   1.601   1.448 -1.5504  0.2929 -0.2676
  739SOL     OW 3036   0.651   3.626   0.530 -0.0630 -0.1492  0.5366
  739SOL    HW1 3037   0.578   3.677   0.577 -0.0573 -0.4791  0.9156
  739SOL    HW2 3038   0.615   3.584   0.447  0.3650  1.9829 -0.8081
  740SOL     OW 3039   2.339   4.973   5.335  0.2565  0.0254  0.7775
  740SOL    HW1 3040   2.435   4.950   5.321  0.5559  1.4940  0.2824
  740SOL    HW2 3041   2.290   4.892   5.369  1.9483 -0.3408  2.5085
  741SOL     OW 3042   6.555   0.152   1.776 -0.0699  0.2155  0.3621
  741SOL    HW1 3043   6.475   0.213   1.779  0.5275  0.9941  0.9467
  741SOL    HW2 3044   6.527   0.062   1.743 -0.3492  1.7744 -4.5371
  742SOL     OW 3045   1.663   6.420   0.089 -0.1120  0.1649  0.3647
  742SOL    HW1 3046   1.665   6.518   0.071 -0.7262  0.5691  2.3260
  742SOL    HW2 3047   1.716   6.399   0.171 -0.9898 -0.9685  0.6765
  743SOL     OW 3048   5.633   2.093   3.050  0.5713 -0.1872  0.4989
  743SOL    HW1 3049   5.569   2.136   3.113 -1.2663  0.5351 -1.6868
  743SOL    HW2 3050   5.690   2.163   3.007  1.9520 -0.6887  1.4588
  744SOL     OW 3051   1.649   3.131   2.440 -0.1634  0.2482  0.1302
  744SOL    HW1 3052   1.599   3.046   2.424 -3.2126  1.4762  2.2185
  744SOL    HW2 3053   1.709   3.120   2.519 -1.0090  0.1589  0.7758
  745SOL     OW 3054   6.442   4.279   6.077  0.2384  0.0353  0.5385
  745SOL    HW1 3055   6.517   4.283   6.011 -1.0263  1.5197 -0.9144
  745SOL    HW2 3056   6.450   4.357   6.140 -0.8668  1.1436 -0.6148
  746SOL     OW 3057   5.732   0.743   3.536 -0.2174 -0.5439  0.2211
  746SOL    HW1 3058   5.805   0.729   3.602  0.6763  0.8928 -0.4099
  746SOL    HW2 3059   5.724   0.663   3.477  0.0853 -1.1640  1.0145
  747SOL     OW 3060   1.497   0.423   5.119  0.3779 -0.0200 -0.7026
  747SOL    HW1 3061   1.431   0.397   5.048  0.2867 -0.3821 -0.4876
  747SOL    HW2 3062   1.467   0.508   5.162  0.3413  0.1079 -0.9802
  748SOL     OW 3063   2.509   1.781   4.669  0.1406 -0.3550  0.6165
  748SOL    HW1 3064   2.425   1.832   4.652 -0.5882 -1.4790  0.7564
  748SOL    HW2 3065   2.496   1.720   4.747  1.5725  0.5099  1.5904
  749SOL     OW 3066   4.171   3.655   6.206  0.3120  0.0664 -0.3017
  749SOL    HW1 3067   4.073   3.666   6.188  0.6191  1.8099 -1.1456
  749SOL    HW2 3068   4.200   3.719   6.277  0.9267 -0.0618 -0.4275
  750SOL     OW 3069   4.257   2.149   3.397 -0.4380  0.0325 -0.5323
  750SOL    HW1 3070   4.200   2.154   3.479  0.3743  1.7793 -0.0147
  750SOL    HW2 3071   4.200   2.124   3.318 -1.6175  0.2475  0.2270
  751SOL     OW 3072   0.317   5.063   0.954  0.0250  0.1919 -0.4983
  751SOL    HW1 3073   0.243   4.997   0.949 -1.3898  1.7723 -1.3498
  751SOL    HW2 3074   0.375   5.055   0.873 -1.3240  1.2746 -1.6169
  752SOL     OW 3075   4.318   6.375   0.773 -0.0789 -0.4841 -0.0348
  752SOL    HW1 3076   4.255   6.378   0.696 -0.8288 -0.7673  0.5571
  752SOL    HW2 3077   4.385   6.449   0.764 -2.1871  1.6617  0.7336
  753SOL     OW 3078   3.076   4.493   3.399 -0.0932  0.2432 -0.1028
  753SOL    HW1 3079   3.119   4.505   3.488  0.8907  0.1349 -0.5561
  753SOL    HW2 3080   3.134   4.532   3.327 -0.8151  0.2244 -0.7131
  754SOL     OW 3081   2.271   1.172   6.019  0.5264  0.1383  0.7216
  754SOL    HW1 3082   2.298   1.249   5.960 -1.3015  0.2628 -0.0289
  754SOL    HW2 3083   2.181   1.138   5.990  0.7607 -1.5192  1.8096
  755SOL     OW 3084   4.475   4.994   6.934 -0.0430  0.1244 -0.3030
  755SOL    HW1 3085   4.558   5.041   6.902  1.9466 -2.5571  0.5119
  755SOL    HW2 3086   4.484   4.896   6.917 -2.8372 -0.3445  0.4353
  756SOL     OW 3087   0.303   5.023   1.520  1.0874  0.0449  0.1860
  756SOL    HW1 3088   0.373   4.963   1.481 -0.0960 -1.1710 -0.1383
  756SOL    HW2 3089   0.255   5.070   1.446 -0.2776 -1.2594  0.2109
  757SOL     OW 3090   2.379   2.087   0.081  0.4058  0.0703 -0.2355
  757SOL    HW1 3091   2.317   2.163   0.062 -0.1174 -0.4470 -0.6575
  757SOL    HW2 3092   2.325   2.008   0.111  1.0545  0.2968  1.6398
  758SOL     OW 3093   6.691   1.023   4.549  0.6892  0.2393 -0.4478
  758SOL    HW1 3094   6.763   1.037   4.481  1.1951 -1.3451 -0.2686
  758SOL    HW2 3095   6.658   0.929   4.544  0.3794  0.2337  1.1595
  759SOL     OW 3096   6.135   4.094   4.181  0.8014 -0.0822 -0.2526
  759SOL    HW1 3097   6.210   4.156   4.203  0.0275  1.0905 -0.8429
  759SOL    HW2 3098   6.139   4.071   4.083  0.9045 -0.7211 -0.1009
  760SOL     OW 3099   2.656   2.018   2.162 -0.0306  0.5146  0.0843
  760SOL    HW1 3100   2.703   2.076   2.095  0.1855  1.6116  1.1445
  760SOL    HW2 3101   2.715   1.941   2.186  0.3861  0.7664 -0.1166
  761SOL     OW 3102   1.025   3.365   3.330 -0.6958  0.0926 -0.2701
  761SOL    HW1 3103   1.057   3.389   3.238  1.1837  1.9221  0.7561
  761SOL    HW2 3104   0.945   3.421   3.352 -1.0148 -0.1860 -0.6970
  762SOL     OW 3105   3.047   1.468   3.224 -0.4661 -0.6607  0.2105
  762SOL    HW1 3106   2.998   1.435   3.144 -1.9357 -0.6473  1.0615
  762SOL    HW2 3107   3.127   1.521   3.195 -1.0726 -0.4927 -1.2355
  763SOL     OW 3108   6.772   0.317   0.335 -0.3053 -0.4003  0.2530
  763SOL    HW1 3109   6.759   0.353   0.243 -0.2051  0.1805  0.4597
  763SOL    HW2 3110   6.788   0.218   0.331  2.9066  0.0236 -0.6496
  764SOL     OW 3111   3.720   0.751   6.128  0.9767 -0.0668 -0.0417
  764SOL    HW1 3112   3.815   0.773   6.151  0.7246  0.5581  0.4228
  764SOL    HW2 3113   3.674   0.834   6.095  0.2379 -0.0664  0.9615
  765SOL     OW 3114   5.093   2.761   5.909  0.3528 -0.0400 -0.3070
  765SOL    HW1 3115   5.052   2.781   5.998  2.1966  0.9938  0.3524
  765SOL    HW2 3116   5.120   2.846   5.865  0.6437 -0.6216 -1.2766
  766SOL     OW 3117   0.236   1.443   1.246 -0.6698 -0.0814 -0.5212
  766SOL    HW1 3118   0.161   1.381   1.224 -0.5222 -0.1480 -0.8557
  766SOL    HW2 3119   0.200   1.526   1.287 -0.8147 -0.7035  0.6548
  767SOL     OW 3120   1.465   6.228   4.872  0.0544 -0.5200  0.5090
  767SOL    HW1 3121   1.534   6.249   4.803 -1.8846  0.0523 -1.3662
  767SOL    HW2 3122   1.442   6.311   4.923  0.7791 -0.7371  1.2221
  768SOL     OW 3123   0.915   5.631   6.280  0.0015 -0.3133 -0.0045
  768SOL    HW1 3124   0.898   5.534   6.270 -0.2098 -0.5730  2.2557
  768SOL    HW2 3125   0.877   5.681   6.202  0.6360 -2.0601 -1.4855
  769SOL     OW 3126   3.858   0.755   6.881  0.0664  0.0661 -0.1645
  769SOL    HW1 3127   3.852   0.852   6.858  1.5341  0.0982 -0.5228
  769SOL    HW2 3128   3.890   0.745   6.975  0.2201 -0.0684 -0.2303
  770SOL     OW 3129   0.335   0.914   6.545 -0.6662  0.1637 -0.4924
  770SOL    HW1 3130   0.367   0.843   6.608  0.1043  0.4672 -0.5210
  770SOL    HW2 3131   0.302   0.872   6.461 -0.6937 -0.1871 -0.3086
  771SOL     OW 3132   0.314   6.596   6.522 -1.1017  0.0699 -0.1446
  771SOL    HW1 3133   0.318   6.496   6.529  1.1153  0.1228  0.0249
  771SOL    HW2 3134   0.324   6.623   6.427  1.4239  0.1452  0.0692
  772SOL     OW 3135   5.937   6.552   4.742  0.5140  0.6788  0.4974
  772SOL    HW1 3136   5.843   6.520   4.737 -0.3490  2.6558  2.4137
  772SOL    HW2 3137   5.997   6.486   4.697 -1.4536 -1.9704  1.4868
  773SOL     OW 3138   2.917   6.705   6.403  0.4082 -0.1949 -0.2351
  773SOL    HW1 3139   2.935   6.700   6.501  2.3991  0.7960 -0.5060
  773SOL    HW2 3140   2.934   6.616   6.361  1.5528 -0.1245  0.0454
  774SOL     OW 3141   5.995   6.599   0.716  0.0801 -0.2240  0.0264
  774SOL    HW1 3142   5.981   6.695   0.739 -1.1098 -1.0406  3.2068
  774SOL    HW2 3143   5.917   6.565   0.663  1.1188  0.7900 -2.2935
  775SOL     OW 3144   0.766   4.437   4.355 -0.4334 -0.0257 -0.1715
  775SOL    HW1 3145   0.736   4.474   4.268 -2.1817 -0.1748  0.3377
  775SOL    HW2 3146   0.785   4.340   4.346  2.7903  0.5841 -1.1692
  776SOL     OW 3147   4.726   1.304   3.174  0.3400  0.4995 -0.4883
  776SOL    HW1 3148   4.732   1.231   3.105 -0.5958  0.7216 -0.8265
  776SOL    HW2 3149   4.801   1.296   3.238  0.0715 -0.9808 -0.3262
  777SOL     OW 3150   0.647   4.222   3.445  0.1896  0.0236  0.3732
  777SOL    HW1 3151   0.668   4.310   3.487  0.7534 -0.3836  0.9602
  777SOL    HW2 3152   0.731   4.171   3.432 -0.1154 -0.3503 -0.1520
  778SOL     OW 3153   5.061   4.032   4.798 -0.5549  0.1269  0.6379
  778SOL    HW1 3154   5.118   3.949   4.798 -0.8772 -0.1195  2.1031
  778SOL    HW2 3155   5.048   4.063   4.704  0.0720 -1.1422  0.1055
  779SOL     OW 3156   0.950   5.206   5.440 -0.0132 -0.0752  0.6159
  779SOL    HW1 3157   0.991   5.144   5.373 -0.8280 -0.9521  0.9125
  779SOL    HW2 3158   0.851   5.200   5.436 -0.0800 -0.1556  1.9138
  780SOL     OW 3159   6.118   2.987   6.912  0.5216  0.1003 -0.5874
  780SOL    HW1 3160   6.078   2.907   6.868 -1.7219  0.8963 -0.1204
  780SOL    HW2 3161   6.171   2.959   6.993  0.0217 -0.9237 -0.6101
  781SOL     OW 3162   1.701   6.684   5.939 -0.8471  0.0425 -0.1001
  781SOL    HW1 3163   1.755   6.681   6.022  1.5627 -1.9725 -1.5878
  781SOL    HW2 3164   1.656   6.596   5.925  0.6488 -0.5088 -1.9725
  782SOL     OW 3165   3.695   1.551   0.283  0.3463  0.2972  0.3087
  782SOL    HW1 3166   3.729   1.468   0.328  1.3775  0.4632 -0.1324
  782SOL    HW2 3167   3.772   1.609   0.259 -0.2702  0.7289 -0.6747
  783SOL     OW 3168   2.810   1.309   4.922 -0.0003  0.1897 -0.3098
  783SOL    HW1 3169   2.771   1.297   4.831  1.2559  2.0343 -1.1347
  783SOL    HW2 3170   2.898   1.356   4.916  0.5782 -0.4773  1.7972
  784SOL     OW 3171   2.776   6.937   0.202  0.0696 -0.3697 -0.5821
  784SOL    HW1 3172   2.791   6.885   0.286  1.0979  0.3882 -0.2799
  784SOL    HW2 3173   2.777   6.874   0.123  0.0572 -0.9540 -0.1268
  785SOL     OW 3174   6.339   2.839   4.290  0.2031 -0.2698  0.1126
  785SOL    HW1 3175   6.373   2.791   4.209  0.0814  0.6756 -0.5120
  785SOL    HW2 3176   6.305   2.772   4.356  1.4560 -1.1352 -0.0687
  786SOL     OW 3177   6.496   3.446   2.085  0.4421 -0.1631  0.2793
  786SOL    HW1 3178   6.407   3.433   2.041  0.2203 -0.2889  0.7515
  786SOL    HW2 3179   6.552   3.508   2.030 -1.2044  2.7706  1.6370
  787SOL     OW 3180   2.630   3.414   3.456 -0.0448 -0.1652  0.8504
  787SOL    HW1 3181   2.594   3.370   3.374  1.2896 -1.3214  0.8414
  787SOL    HW2 3182   2.623   3.351   3.533 -0.1434  0.4476  1.3471
  788SOL     OW 3183   5.634   2.919   5.108 -0.5042 -0.5017  0.2509
  788SOL    HW1 3184   5.625   2.831   5.063 -0.9642  0.0665 -0.8143
  788SOL    HW2 3185   5.668   2.987   5.042 -0.1457  0.1102  1.0478
  789SOL     OW 3186   6.099   0.647   3.506 -0.1491  0.2587 -0.3879
  789SOL    HW1 3187   6.194   0.616   3.500 -0.2030  0.0890 -0.3839
  789SOL    HW2 3188   6.086   0.728   3.450  0.1137  0.5604 -0.0202
  790SOL     OW 3189   2.669   3.734   1.428 -0.0206  0.1263 -0.0282
  790SOL    HW1 3190   2.626   3.821   1.403 -0.7338 -0.7020 -1.8380
  790SOL    HW2 3191   2.712   3.694   1.347  1.8125 -0.4009  1.1591
  791SOL     OW 3192   5.950   3.064   4.431 -0.3918  0.9037 -0.4049
  791SOL    HW1 3193   6.025   3.027   4.485 -1.2666  0.5429  0.5957
  791SOL    HW2 3194   5.985   3.134   4.369  0.6796  1.1115  0.4065
  792SOL     OW 3195   0.064   5.083   0.748 -0.0021 -0.1990 -0.1723
  792SOL    HW1 3196   0.105   5.002   0.707 -1.1126 -0.2957 -1.1251
  792SOL    HW2 3197   0.125   5.162   0.735  0.2997 -0.5240 -0.7470
  793SOL     OW 3198   3.865   3.518   5.946  0.2283  0.5188  0.4221
  793SOL    HW1 3199   3.787   3.458   5.930  1.1077 -0.4800 -0.2506
  793SOL    HW2 3200   3.935   3.501   5.876  1.7517  0.1876  1.9533
  794SOL     OW 3201   0.382   4.558   2.496  0.1556  0.3022  0.1027
  794SOL    HW1 3202   0.365   4.580   2.592 -0.3911  2.5398 -0.4514
  794SOL    HW2 3203   0.478   4.533   2.484 -0.8934 -7.4177  2.3687
  795SOL     OW 3204   0.060   6.068   4.299 -0.0949  0.6877 -0.4792
  795SOL    HW1 3205   0.056   6.079   4.200 -0.2694 -0.8972 -0.6771
  795SOL    HW2 3206  -0.015   6.009   4.329  0.8417 -0.1035  0.3894
  796SOL     OW 3207   6.276   0.143   2.269 -0.7198  0.0398  0.5746
  796SOL    HW1 3208   6.320   0.174   2.354 -2.5049  1.0054  1.2036
  796SOL    HW2 3209   6.321   0.186   2.191 -0.5287  1.0063  1.1965
  797SOL     OW 3210   0.923   0.259   3.774 -0.3967  0.4576  0.0127
  797SOL    HW1 3211   0.880   0.194   3.837 -1.5139  0.7439 -0.4281
  797SOL    HW2 3212   0.860   0.335   3.756  0.7096  1.4273  0.1509
  798SOL     OW 3213   0.877   2.472   3.210 -0.6020  0.3562  0.2051
  798SOL    HW1 3214   0.813   2.469   3.133  1.1303 -1.1191 -1.2698
  798SOL    HW2 3215   0.848   2.407   3.281 -1.5136  0.7802  0.2272
  799SOL     OW 3216   3.631   5.374   0.410  0.0304  0.1282  0.6097
  799SOL    HW1 3217   3.626   5.442   0.337  0.5325  0.3788  0.8083
  799SOL    HW2 3218   3.725   5.339   0.417 -0.4028 -1.2907 -0.1353
  800SOL     OW 3219   3.721   5.574   6.721 -0.0548 -0.4427 -0.1007
  800SOL    HW1 3220   3.743   5.600   6.627 -1.2624 -0.1411 -0.3121
  800SOL    HW2 3221   3.622   5.580   6.735  0.2081  0.5269  1.4907
  801SOL     OW 3222   5.935   2.430   6.720  0.5388  0.8579  0.6757
  801SOL    HW1 3223   5.897   2.522   6.704  0.7934  0.9687  0.6978
  801SOL    HW2 3224   5.933   2.410   6.817 -1.2180  0.0934  0.5258
  802SOL     OW 3225   6.792   5.342   2.152  0.3892  0.6372  0.7134
  802SOL    HW1 3226   6.856   5.270   2.180 -0.9502 -0.4351  1.1268
  802SOL    HW2 3227   6.803   5.422   2.212 -0.1357 -0.3638  2.1998
  803SOL     OW 3228   2.479   0.679   2.949 -0.1422 -0.6917 -0.0464
  803SOL    HW1 3229   2.488   0.622   2.867 -0.0735 -0.9831  0.1654
  803SOL    HW2 3230   2.565   0.727   2.966 -0.4816  0.2213 -0.7700
  804SOL     OW 3231   4.090   0.095   3.175  0.3213 -0.0263  0.1022
  804SOL    HW1 3232   4.023   0.026   3.146  0.6327 -0.9878  1.5457
  804SOL    HW2 3233   4.158   0.051   3.234  1.1114  1.3332  0.2247
  805SOL     OW 3234   4.544   4.518   5.228  0.1314  0.1925  0.1089
  805SOL    HW1 3235   4.575   4.428   5.198  0.5047 -0.0623  1.2340
  805SOL    HW2 3236   4.452   4.535   5.193  0.0478 -0.6353 -0.0843
  806SOL     OW 3237   5.302   4.235   4.564 -0.1166  0.0132  0.3317
  806SOL    HW1 3238   5.338   4.171   4.496  1.2335 -0.6715  1.6369
  806SOL    HW2 3239   5.377   4.273   4.618 -1.1443  0.4421  1.5331
  807SOL     OW 3240   0.167   0.864   3.640 -0.0858  0.3472  0.2232
  807SOL    HW1 3241   0.259   0.850   3.604  0.8076  0.9446  2.1070
  807SOL    HW2 3242   0.144   0.961   3.634  0.1628  0.4966  1.3231
  808SOL     OW 3243   0.128   5.640   3.257 -0.3103  0.1422  0.4253
  808SOL    HW1 3244   0.055   5.572   3.249 -0.4298  0.1077  1.6351
  808SOL    HW2 3245   0.209   5.609   3.206 -0.3387 -0.9500  1.0228
  809SOL     OW 3246   1.292   6.570   1.432  0.0288 -0.2424  1.1123
  809SOL    HW1 3247   1.340   6.504   1.373 -2.4770 -0.7833 -0.4710
  809SOL    HW2 3248   1.265   6.524   1.517  0.8961 -0.3750  1.3281
  810SOL     OW 3249   2.443   2.491   2.392  0.5496  0.3231 -0.0477
  810SOL    HW1 3250   2.456   2.547   2.310  1.1591  0.3912  0.0885
  810SOL    HW2 3251   2.350   2.456   2.394  0.5333  0.3094 -0.7750
  811SOL     OW 3252   2.178   1.846   5.320 -0.8750  0.2368  0.0452
  811SOL    HW1 3253   2.165   1.853   5.221 -0.2789  0.1677 -0.0391
  811SOL    HW2 3254   2.130   1.765   5.355  0.2953 -0.7046 -0.4491
  812SOL     OW 3255   2.680   1.193   6.701  0.3250  0.0158 -0.5684
  812SOL    HW1 3256   2.745   1.117   6.705 -0.1305 -0.3523 -0.1200
  812SOL    HW2 3257   2.697   1.246   6.618  0.7419 -0.4899 -0.8139
  813SOL     OW 3258   0.715   2.707   3.424  0.0928 -0.3634 -0.2160
  813SOL    HW1 3259   0.756   2.690   3.335  1.5264  1.8860 -0.0466
  813SOL    HW2 3260   0.743   2.636   3.488  1.9206 -0.1191 -0.7002
  814SOL     OW 3261   4.586   3.594   1.494  0.2297  0.1866  0.1619
  814SOL    HW1 3262   4.491   3.614   1.518  0.1297 -0.2057  0.0973
  814SOL    HW2 3263   4.639   3.579   1.577 -0.3637 -2.3166  0.1584
  815SOL     OW 3264   6.936   6.282   6.047 -0.6688 -0.2842 -0.3862
  815SOL    HW1 3265   7.025   6.247   6.019 -0.8393  0.0628 -1.3857
  815SOL    HW2 3266   6.930   6.380   6.026 -1.4885 -0.4244 -0.8576
  816SOL     OW 3267   5.999   6.003   4.045  0.6825 -0.0611  0.0511
  816SOL    HW1 3268   6.022   5.907   4.061  1.4904  0.1944  0.4450
  816SOL    HW2 3269   5.912   6.024   4.090  1.0653 -0.3243  0.9299
  817SOL     OW 3270   0.806   2.220   4.654 -0.1510  0.6212  0.1311
  817SOL    HW1 3271   0.818   2.129   4.615  1.2987  1.6811 -2.0617
  817SOL    HW2 3272   0.769   2.281   4.584 -1.5391  1.6545  1.7011
  818SOL     OW 3273   1.083   6.365   2.151 -0.1603  0.3246  0.4416
  818SOL    HW1 3274   1.055   6.457   2.178  0.9430  0.6542  0.5103
  818SOL    HW2 3275   1.019   6.298   2.189 -0.4533  1.0045  1.1772
  819SOL     OW 3276   2.538   3.071   3.413  0.2726 -0.1931  0.0040
  819SOL    HW1 3277   2.440   3.078   3.432  0.2774 -0.0845 -0.0088
  819SOL    HW2 3278   2.554   3.086   3.315  0.4565  1.3823  0.2463
  820SOL     OW 3279   1.728   2.679   0.870  0.2397 -0.0326  0.7146
  820SOL    HW1 3280   1.823   2.696   0.842  0.9499 -1.9339  1.7674
  820SOL    HW2 3281   1.726   2.606   0.938 -2.0691 -0.6676  0.0644
  821SOL     OW 3282   2.271   5.584   4.739  0.0072 -0.3671  0.0286
  821SOL    HW1 3283   2.188   5.637   4.753  0.8717  0.6354  1.6703
  821SOL    HW2 3284   2.330   5.593   4.819  1.6938 -1.0885 -1.0798
  822SOL     OW 3285   4.292   5.915   0.162 -0.1903  0.5916 -0.3110
  822SOL    HW1 3286   4.362   5.844   0.158  0.2860  0.9968  0.6297
  822SOL    HW2 3287   4.226   5.893   0.234 -0.1299  1.0212 -0.1211
  823SOL     OW 3288   5.493   2.094   4.752 -0.2879 -0.2495 -0.1680
  823SOL    HW1 3289   5.483   2.123   4.847  0.3633 -1.7464  0.3976
  823SOL    HW2 3290   5.493   2.174   4.692 -2.2531  0.6319  0.9169
  824SOL     OW 3291   0.141   0.714   0.895 -0.3019  0.0746 -0.5359
  824SOL    HW1 3292   0.058   0.748   0.940 -0.0290  0.3704 -0.2518
  824SOL    HW2 3293   0.218   0.774   0.917  0.1587 -0.6404 -0.1390
  825SOL     OW 3294   4.453   4.934   2.622 -0.7937 -0.2538  0.0439
  825SOL    HW1 3295   4.455   4.836   2.604 -0.2160 -0.7852  2.6168
  825SOL    HW2 3296   4.535   4.961   2.672 -1.4508  1.3466  0.3352
  826SOL     OW 3297   1.238   4.094   6.602 -0.3104  0.3217  0.6027
  826SOL    HW1 3298   1.235   4.146   6.687 -0.6070  0.0027  0.7896
  826SOL    HW2 3299   1.164   4.124   6.542  0.0029  0.6652  0.3859
  827SOL     OW 3300   0.807   1.469   2.804  0.1010 -0.4363  0.1239
  827SOL    HW1 3301   0.809   1.501   2.899 -0.2186 -1.1572  0.3826
  827SOL    HW2 3302   0.717   1.428   2.785 -0.2651  0.7942 -0.8584
  828SOL     OW 3303   1.548   1.701   2.576 -0.2227 -0.4303 -0.2312
  828SOL    HW1 3304   1.644   1.692   2.552  0.2013  2.7974 -0.2201
  828SOL    HW2 3305   1.536   1.690   2.675  0.4150  0.5245 -0.0326
  829SOL     OW 3306   0.408   0.451   5.307  0.4943  0.1583  0.3366
  829SOL    HW1 3307   0.435   0.546   5.323  0.7350  0.3374 -1.0005
  829SOL    HW2 3308   0.350   0.420   5.382 -0.8616  1.8793  0.0729
  830SOL     OW 3309   1.010   5.580   3.338 -0.1106  0.2979 -0.3222
  830SOL    HW1 3310   1.038   5.592   3.243  2.4611 -0.2355  0.2947
  830SOL    HW2 3311   1.052   5.498   3.376 -1.2879  0.3489  1.2305
  831SOL     OW 3312   0.433   2.308   0.779 -0.4417 -0.6631  0.6293
  831SOL    HW1 3313   0.533   2.302   0.784 -0.2765  1.2398  0.4883
  831SOL    HW2 3314   0.394   2.291   0.869  0.1586  0.3283  1.0998
  832SOL     OW 3315   1.663   0.858   5.719 -0.5178  0.2119  0.1733
  832SOL    HW1 3316   1.671   0.759   5.703 -1.2071  0.1160  0.3944
  832SOL    HW2 3317   1.754   0.899   5.716 -0.1308 -0.5581  0.8943
  833SOL     OW 3318   4.417   0.695   1.412  0.4813  0.3179  0.6572
  833SOL    HW1 3319   4.357   0.618   1.392  1.1558 -0.5229  1.7657
  833SOL    HW2 3320   4.498   0.690   1.353  0.1158  0.6867  0.1148
  834SOL     OW 3321   6.937   4.929   6.344 -0.4020  0.4378  0.3172
  834SOL    HW1 3322   6.839   4.935   6.359 -0.4633 -1.3230  0.8418
  834SOL    HW2 3323   6.956   4.937   6.246 -1.0063  1.4015  0.2738
  835SOL     OW 3324   2.016   1.441   4.346  0.6035 -0.0017 -0.1971
  835SOL    HW1 3325   1.968   1.528   4.336 -0.0991 -0.5326 -1.7106
  835SOL    HW2 3326   1.950   1.366   4.343  1.1557 -0.5966  1.4733
  836SOL     OW 3327   4.015   3.256   6.654  0.4498  0.0210 -0.4367
  836SOL    HW1 3328   3.979   3.235   6.745  0.2176  0.1113 -0.5070
  836SOL    HW2 3329   3.942   3.246   6.586  0.1817  1.5504 -0.4057
  837SOL     OW 3330   6.744   3.603   5.550 -0.3088 -0.1468 -0.7013
  837SOL    HW1 3331   6.688   3.525   5.522  1.0950 -1.6338  0.4326
  837SOL    HW2 3332   6.719   3.630   5.643  0.8061 -0.8307 -0.1800
  838SOL     OW 3333   5.160   6.006   1.318 -0.1007 -0.4037  0.0783
  838SOL    HW1 3334   5.254   6.033   1.300 -0.0131 -0.2000  0.8209
  838SOL    HW2 3335   5.128   6.048   1.403  0.0535 -2.6135  1.3337
  839SOL     OW 3336   0.472   1.837   1.770  0.1091  0.3103 -0.0887
  839SOL    HW1 3337   0.538   1.910   1.786 -2.5530  2.3113  3.2141
  839SOL    HW2 3338   0.410   1.865   1.697 -0.2518  0.9212  0.4375
  840SOL     OW 3339   0.575   4.804   6.450 -0.5032 -0.0667 -0.3337
  840SOL    HW1 3340   0.499   4.782   6.389 -0.6997  0.1988 -0.1828
  840SOL    HW2 3341   0.655   4.829   6.396 -0.2453 -1.2331 -0.5179
  841SOL     OW 3342   2.467   1.249   0.995 -0.2873  0.2142  0.0740
  841SOL    HW1 3343   2.463   1.213   0.902 -0.8586 -1.2537  0.6316
  841SOL    HW2 3344   2.558   1.235   1.032  0.5991  2.7205 -0.9405
  842SOL     OW 3345   4.172   1.148   4.442  0.1021  0.6227  0.2284
  842SOL    HW1 3346   4.098   1.081   4.447  1.2127 -0.6725 -0.1545
  842SOL    HW2 3347   4.258   1.101   4.421  1.3470  1.8751  2.1956
  843SOL     OW 3348   1.925   5.133   6.882  0.5830 -0.0368  0.0453
  843SOL    HW1 3349   1.879   5.057   6.835 -0.7064  0.3570  0.6342
  843SOL    HW2 3350   1.859   5.206   6.899  2.0420  1.7713 -1.5856
  844SOL     OW 3351   0.849   6.386   3.658 -0.0876 -0.4207  0.0748
  844SOL    HW1 3352   0.759   6.384   3.613 -0.2843  1.4091  0.3119
  844SOL    HW2 3353   0.920   6.367   3.590 -0.4083  1.8674 -1.0047
  845SOL     OW 3354   6.834   2.317   6.446 -0.8000  0.3904  0.3934
  845SOL    HW1 3355   6.765   2.373   6.401  0.1804 -0.6972 -2.7132
  845SOL    HW2 3356   6.912   2.373   6.472 -0.6247  0.8239 -0.9825
  846SOL     OW 3357   5.641   2.411   6.513  0.1780 -0.2235  0.1616
  846SOL    HW1 3358   5.600   2.497   6.483 -0.4476  0.0115  1.6179
  846SOL    HW2 3359   5.696   2.373   6.439  0.1021  1.1915 -0.6566
  847SOL     OW 3360   1.194   0.714   3.582 -0.5019  0.3904 -0.2654
  847SOL    HW1 3361   1.156   0.802   3.552 -1.4057  0.3209  0.6031
  847SOL    HW2 3362   1.183   0.706   3.681  1.2172  0.0661 -0.0667
  848SOL     OW 3363   1.775   4.033   5.226  0.1414  0.0240 -0.1249
  848SOL    HW1 3364   1.811   3.959   5.283  0.5208 -0.6013 -1.1456
  848SOL    HW2 3365   1.850   4.073   5.173 -0.3861 -0.1663 -1.0270
  849SOL     OW 3366   5.274   5.764   6.818  0.5335  0.0940  0.2448
  849SOL    HW1 3367   5.217   5.838   6.783 -0.3711 -0.3162  0.7934
  849SOL    HW2 3368   5.370   5.785   6.803  0.2898  1.3394  0.3165
  850SOL     OW 3369   1.350   3.496   5.447 -0.7863  0.0559  0.1176
  850SOL    HW1 3370   1.306   3.523   5.361 -0.4438  0.5464  0.0919
  850SOL    HW2 3371   1.349   3.573   5.511 -0.4716 -0.1110  0.3264
  851SOL     OW 3372   1.339   0.292   3.312  0.3521 -0.0737  0.3028
  851SOL    HW1 3373   1.404   0.352   3.360  0.5353  0.6993 -0.8846
  851SOL    HW2 3374   1.386   0.247   3.236  0.0168 -1.1444  0.7219
  852SOL     OW 3375   6.746   0.242   6.642 -0.1086 -0.1914 -0.0017
  852SOL    HW1 3376   6.691   0.172   6.688  0.3410 -0.3204  0.3413
  852SOL    HW2 3377   6.763   0.318   6.706  0.1516 -0.1728 -0.0943
  853SOL     OW 3378   2.186   5.836   5.448 -0.2043  0.1083 -0.2356
  853SOL    HW1 3379   2.092   5.865   5.429 -0.6973 -1.6759 -0.6839
  853SOL    HW2 3380   2.193   5.804   5.543 -0.7177 -2.0536 -0.8654
  854SOL     OW 3381   5.749   4.586   0.211  0.2195  0.6331 -0.3420
  854SOL    HW1 3382   5.666   4.542   0.245  0.1806 -0.0554 -1.2749
  854SOL    HW2 3383   5.741   4.685   0.222 -1.6732  0.7841 -2.2860
  855SOL     OW 3384   6.756   1.219   4.860  0.4834  0.0732  0.1230
  855SOL    HW1 3385   6.784   1.123   4.871 -2.7481 -1.1021 -0.8250
  855SOL    HW2 3386   6.702   1.247   4.939 -3.6423 -1.0120 -2.0407
  856SOL     OW 3387   5.648   4.430   4.753 -0.1639  0.2935  0.5053
  856SOL    HW1 3388   5.729   4.447   4.810  0.9277 -3.4825  0.3539
  856SOL    HW2 3389   5.576   4.391   4.809 -0.8042  0.8409  0.0799
  857SOL     OW 3390   1.098   4.239   3.661 -0.4931  0.0510 -0.5062
  857SOL    HW1 3391   1.055   4.234   3.751 -2.1178 -0.9499 -1.2819
  857SOL    HW2 3392   1.066   4.321   3.614  1.2138  1.1679  0.2047
  858SOL     OW 3393   3.051   2.360   5.106  0.1337 -0.2954  0.6859
  858SOL    HW1 3394   2.983   2.402   5.046  1.5981 -0.6433 -1.3171
  858SOL    HW2 3395   3.072   2.423   5.181  1.4661  2.2397 -1.6119
  859SOL     OW 3396   0.102   4.629   6.554 -0.5082  0.2531  0.1939
  859SOL    HW1 3397   0.152   4.669   6.631 -2.8386  0.2583  1.7808
  859SOL    HW2 3398   0.004   4.629   6.573 -1.3490  1.3753 -3.3223
  860SOL     OW 3399   4.091   3.522   3.044 -0.0535 -0.0370  0.2537
  860SOL    HW1 3400   4.111   3.573   2.961 -1.1321 -0.1149 -0.0738
  860SOL    HW2 3401   4.169   3.526   3.106 -0.2426  2.3787  0.4315
  861SOL     OW 3402   1.170   4.426   1.999 -0.1947  0.1427  0.5146
  861SOL    HW1 3403   1.225   4.437   2.081  0.4399  0.9959 -0.0219
  861SOL    HW2 3404   1.139   4.331   1.993  0.9102 -0.2650  1.0089
  862SOL     OW 3405   3.329   0.398   5.594  0.4239  0.7303 -0.2309
  862SOL    HW1 3406   3.353   0.483   5.640  1.7914  0.3841 -0.2768
  862SOL    HW2 3407   3.403   0.332   5.603  0.0689  0.0925 -1.5667
  863SOL     OW 3408   3.221   1.575   0.372 -0.0217  0.2868 -0.3443
  863SOL    HW1 3409   3.200   1.510   0.298 -0.4511 -2.2656  1.8733
  863SOL    HW2 3410   3.164   1.554   0.451  1.4691  1.9870  1.2544
  864SOL     OW 3411   0.195   0.633   1.480  0.0365  0.2688  0.4390
  864SOL    HW1 3412   0.101   0.605   1.463 -0.2209  1.7920 -0.8005
  864SOL    HW2 3413   0.249   0.553   1.508 -1.0712 -1.1003 -1.1568
  865SOL     OW 3414   4.617   2.388   6.997 -0.8930  0.1265  0.1975
  865SOL    HW1 3415   4.625   2.488   7.002  1.5705  0.0405 -0.9181
  865SOL    HW2 3416   4.707   2.348   6.983 -2.1847 -2.0241 -3.0087
  866SOL     OW 3417   2.646   6.006   3.763  0.1391 -0.0795  0.0048
  866SOL    HW1 3418   2.583   5.938   3.802  0.7714  0.0173  1.2618
  866SOL    HW2 3419   2.701   6.046   3.837 -0.1322  1.7263 -0.7118
  867SOL     OW 3420   4.148   1.940   2.580  0.2179 -0.1845  0.2357
  867SOL    HW1 3421   4.182   2.034   2.575 -0.0800 -0.1318 -1.2389
  867SOL    HW2 3422   4.125   1.918   2.675  1.5364  0.7749  0.8129
  868SOL     OW 3423   5.919   6.263   3.471  1.2329 -0.2032 -0.1797
  868SOL    HW1 3424   5.984   6.197   3.434  0.6123 -0.5305 -0.6993
  868SOL    HW2 3425   5.841   6.272   3.409  1.1931  0.8345  0.0124
  869SOL     OW 3426   6.378   5.529   5.133 -0.6452  0.0999  0.4050
  869SOL    HW1 3427   6.326   5.610   5.105  0.3288  0.6772  0.2416
  869SOL    HW2 3428   6.472   5.555   5.152 -0.4294 -0.9293  0.7696
  870SOL     OW 3429   5.181   6.022   2.066 -0.5108 -0.3690 -0.0831
  870SOL    HW1 3430   5.088   6.010   2.032 -0.9770  0.0355  0.9926
  870SOL    HW2 3431   5.205   6.120   2.065 -0.1904 -0.4465 -0.1231
  871SOL     OW 3432   1.925   3.110   6.898 -0.5559 -0.0661  0.2622
  871SOL    HW1 3433   1.977   3.026   6.884  0.4924  0.5824  0.1175
  871SOL    HW2 3434   1.978   3.172   6.956 -0.9579  0.7996 -0.2721
  872SOL     OW 3435   2.330   4.642   1.081 -1.1600 -0.2259 -0.0339
  872SOL    HW1 3436   2.288   4.730   1.104 -0.5198  0.1264 -0.1932
  872SOL    HW2 3437   2.369   4.648   0.989  1.0394  0.1272  0.8728
  873SOL     OW 3438   2.298   1.902   6.384  0.2902  0.0480  0.3693
  873SOL    HW1 3439   2.312   1.904   6.483  2.7218  2.0880  0.0797
  873SOL    HW2 3440   2.327   1.813   6.349 -0.5358 -0.6793  1.4386
  874SOL     OW 3441   1.946   5.665   2.973 -0.6781  0.1574 -0.8206
  874SOL    HW1 3442   2.031   5.699   3.013 -0.6092  0.0112 -0.8437
  874SOL    HW2 3443   1.962   5.635   2.879 -1.2116  2.2238 -1.6434
  875SOL     OW 3444   3.011   3.938   6.745 -0.5934 -0.1776 -0.7053
  875SOL    HW1 3445   2.987   3.975   6.656 -1.2916 -0.7190 -0.7508
  875SOL    HW2 3446   2.944   3.969   6.813 -0.4011 -0.2459 -0.4845
  876SOL     OW 3447   0.762   2.242   2.102 -0.0781  0.5563 -0.5967
  876SOL    HW1 3448   0.771   2.248   2.003 -1.3653  1.2188 -0.6983
  876SOL    HW2 3449   0.852   2.249   2.145  0.8326 -2.4352 -1.8012
  877SOL     OW 3450   0.038   4.814   6.802  0.3109  0.2147 -0.4190
  877SOL    HW1 3451   0.039   4.733   6.860  0.6402  0.4868 -0.0454
  877SOL    HW2 3452  -0.050   4.861   6.812 -0.0223 -0.2969 -0.9187
  878SOL     OW 3453   1.314   1.453   2.663  0.2725  0.0082  0.2917
  878SOL    HW1 3454   1.265   1.497   2.587  0.2946  0.6157  0.6207
  878SOL    HW2 3455   1.247   1.412   2.725  0.3072 -1.8525 -0.8449
  879SOL     OW 3456   4.205   6.625   4.148 -0.4777  0.2871  0.2365
  879SOL    HW1 3457   4.148   6.707   4.145 -0.2328  0.4543 -0.1044
  879SOL    HW2 3458   4.207   6.583   4.057  0.6231  0.7764  0.0145
  880SOL     OW 3459   6.052   5.360   4.546 -0.1168 -0.3031 -0.0746
  880SOL    HW1 3460   6.072   5.322   4.456  2.8782 -1.2402  0.8594
  880SOL    HW2 3461   6.072   5.458   4.546 -1.1842 -0.0715 -0.6794
  881SOL     OW 3462   6.253   6.572   4.707  0.7089  0.3485 -0.0273
  881SOL    HW1 3463   6.215   6.506   4.642  0.6482  0.1712  0.1886
  881SOL    HW2 3464   6.261   6.661   4.662 -2.7530  1.1816  0.7667
  882SOL     OW 3465   5.352   4.214   2.708  0.1402  0.2765 -0.1585
  882SOL    HW1 3466   5.414   4.259   2.644 -0.7329  0.9988 -0.5137
  882SOL    HW2 3467   5.378   4.237   2.802  0.1974  0.8630 -0.3159
  883SOL     OW 3468   3.429   6.313   2.243  0.5714  0.0621  0.6577
  883SOL    HW1 3469   3.505   6.256   2.211  1.4046  1.8478 -0.6754
  883SOL    HW2 3470   3.431   6.318   2.343  0.6417 -1.9527  0.8077
  884SOL     OW 3471   0.976   2.030   5.985 -0.0603  0.2060  0.6224
  884SOL    HW1 3472   1.039   2.074   6.049  1.4765 -1.0068  0.0009
  884SOL    HW2 3473   0.997   2.059   5.891 -1.9281  1.5289  0.5383
  885SOL     OW 3474   6.210   3.018   5.985  0.6238 -0.3685 -0.0466
  885SOL    HW1 3475   6.215   3.116   6.006 -0.4831 -0.3647  0.3148
  885SOL    HW2 3476   6.192   2.967   6.069  1.6587 -0.9376 -0.1601
  886SOL     OW 3477   1.539   5.652   6.623 -0.4297 -0.4245  0.1701
  886SOL    HW1 3478   1.585   5.624   6.539  0.8355 -0.5131  0.8701
  886SOL    HW2 3479   1.487   5.737   6.606 -1.5158 -1.3028 -1.0800
  887SOL     OW 3480   2.981   2.889   5.481 -0.0396 -0.1825 -0.4882
  887SOL    HW1 3481   2.976   2.989   5.481  0.8433 -0.1327  0.1221
  887SOL    HW2 3482   3.032   2.858   5.561  1.7771 -1.0092 -1.8943
  888SOL     OW 3483   1.929   0.647   6.051  0.2464  0.0643 -0.0415
  888SOL    HW1 3484   1.861   0.691   6.109 -1.1138 -1.0439 -0.7505
  888SOL    HW2 3485   1.963   0.713   5.983  0.3065  0.7732  0.6686
  889SOL     OW 3486   3.860   0.748   4.863  0.1948 -0.0824  0.1176
  889SOL    HW1 3487   3.827   0.704   4.946  0.5521  0.9980  0.8479
  889SOL    HW2 3488   3.782   0.787   4.813 -0.2696 -2.4680 -1.1317
  890SOL     OW 3489   4.574   6.172   0.288  0.1343  0.8370  0.5584
  890SOL    HW1 3490   4.596   6.269   0.301  1.1114  0.6218  0.6217
  890SOL    HW2 3491   4.491   6.149   0.339  1.4255  1.0210  2.8816
  891SOL     OW 3492   6.555   4.690   1.833  0.5884 -0.0499  0.0730
  891SOL    HW1 3493   6.635   4.654   1.882 -1.1472 -1.9306  1.7337
  891SOL    HW2 3494   6.485   4.619   1.828 -0.4305  1.0294 -2.7361
  892SOL     OW 3495   6.878   1.561   2.484 -0.0370 -0.0758  0.0877
  892SOL    HW1 3496   6.957   1.549   2.424 -0.7577 -0.2917 -0.8589
  892SOL    HW2 3497   6.853   1.658   2.488  0.3509  0.0079  0.4918
  893SOL     OW 3498   1.345   1.344   0.378 -0.0276  0.2242 -0.0254
  893SOL    HW1 3499   1.381   1.251   0.378 -0.5812  0.0054 -0.3623
  893SOL    HW2 3500   1.392   1.398   0.449  0.7159 -0.1381 -0.2296
  894SOL     OW 3501   0.028   5.504   3.535 -0.4237  0.4589  0.4416
  894SOL    HW1 3502   0.027   5.503   3.635 -0.9645  3.7187  0.6006
  894SOL    HW2 3503  -0.010   5.591   3.503  1.3444  0.2717 -2.5611
  895SOL     OW 3504   2.778   6.340   5.847  0.6188 -0.2382 -0.1671
  895SOL    HW1 3505   2.685   6.352   5.880  0.3783 -1.2929 -0.4471
  895SOL    HW2 3506   2.778   6.281   5.766  1.3102  1.4111 -1.4378
  896SOL     OW 3507   0.701   1.046   6.689 -0.5766  0.1871  0.0887
  896SOL    HW1 3508   0.768   1.120   6.691  0.8363 -1.0361  0.3692
  896SOL    HW2 3509   0.673   1.023   6.782 -0.4468 -0.1072  0.0577
  897SOL     OW 3510   0.359   6.394   4.222  0.0293  0.0200 -0.2614
  897SOL    HW1 3511   0.422   6.384   4.145  0.8422  0.7054  0.2994
  897SOL    HW2 3512   0.277   6.340   4.204  1.2358 -1.8165 -0.5040
  898SOL     OW 3513   2.842   0.646   0.183 -0.3959 -0.0798 -0.2189
  898SOL    HW1 3514   2.920   0.598   0.144  0.4984  0.2398  1.1343
  898SOL    HW2 3515   2.759   0.618   0.134  0.3823 -1.3510 -0.8760
  899SOL     OW 3516   6.044   1.059   4.482  0.0058 -0.4811 -0.5663
  899SOL    HW1 3517   5.949   1.072   4.511 -0.2871  0.2612 -1.7825
  899SOL    HW2 3518   6.105   1.105   4.546 -0.5185 -0.1837 -0.2739
  900SOL     OW 3519   6.980   1.621   4.197 -0.3505  0.0587 -0.6551
  900SOL    HW1 3520   6.956   1.713   4.165 -2.2755  0.5327  1.8250
  900SOL    HW2 3521   6.903   1.560   4.182  0.4267 -0.8372 -1.0622
  901SOL     OW 3522   6.207   6.956   0.097 -0.0436 -0.3100 -0.0663
  901SOL    HW1 3523   6.171   7.031   0.152  0.1857  0.7830 -1.3571
  901SOL    HW2 3524   6.279   6.908   0.147 -0.9004 -0.3430  1.1760
  902SOL     OW 3525   3.578   6.589   5.637 -1.2546 -0.5646  0.1674
  902SOL    HW1 3526   3.582   6.646   5.720 -2.2115 -0.3705  0.0886
  902SOL    HW2 3527   3.596   6.645   5.557 -1.8393 -0.4376  0.1205
  903SOL     OW 3528   4.022   0.273   2.538 -0.2454  0.7117  0.5787
  903SOL    HW1 3529   4.117   0.278   2.568 -0.2743  0.4170  0.7289
  903SOL    HW2 3530   3.999   0.355   2.486  0.2277  0.5685  0.1369
  904SOL     OW 3531   5.734   2.936   4.570 -0.1072 -0.5445 -0.8001
  904SOL    HW1 3532   5.789   2.912   4.650  0.3443 -0.8976 -1.2163
  904SOL    HW2 3533   5.776   3.013   4.522 -0.9800  0.4090 -0.0738
  905SOL     OW 3534   5.468   5.751   6.225  0.1921  0.0185  0.2008
  905SOL    HW1 3535   5.550   5.746   6.282  0.8136  3.2728 -0.2068
  905SOL    HW2 3536   5.387   5.757   6.283  0.7368  2.2806  0.8174
  906SOL     OW 3537   5.795   5.772   3.413 -0.5425  0.5674 -0.5316
  906SOL    HW1 3538   5.832   5.694   3.463 -0.4923 -0.1456 -1.6348
  906SOL    HW2 3539   5.818   5.856   3.460 -2.5824 -0.1595  1.9758
  907SOL     OW 3540   6.386   6.676   1.108 -0.0742 -0.3572 -0.1336
  907SOL    HW1 3541   6.354   6.763   1.069  1.9462  1.0632  1.1435
  907SOL    HW2 3542   6.472   6.650   1.064  0.4252 -0.5631  0.9348
  908SOL     OW 3543   1.370   2.376   2.244 -0.0991  0.0843 -0.4912
  908SOL    HW1 3544   1.436   2.301   2.237 -0.3630 -0.0356 -1.7255
  908SOL    HW2 3545   1.340   2.384   2.340  1.9231  0.3429  0.1763
  909SOL     OW 3546   4.379   1.861   1.646 -0.6852 -0.0149  0.0533
  909SOL    HW1 3547   4.408   1.803   1.722 -1.4760 -0.5298 -0.0253
  909SOL    HW2 3548   4.294   1.907   1.670 -0.6931  0.1794 -0.3399
  910SOL     OW 3549   2.932   2.443   6.387 -0.4614  0.2783  0.1198
  910SOL    HW1 3550   2.849   2.490   6.416  0.3347  0.6625  1.9466
  910SOL    HW2 3551   3.003   2.454   6.457  0.9384 -0.5660 -1.0901
  911SOL     OW 3552   0.783   5.890   5.747  0.7291 -0.5357 -1.3000
  911SOL    HW1 3553   0.832   5.974   5.725  1.7880 -1.3092 -1.9972
  911SOL    HW2 3554   0.849   5.818   5.770 -0.1831 -0.8600  0.5686
  912SOL     OW 3555   2.225   4.984   5.793  0.0228 -1.1095 -0.0808
  912SOL    HW1 3556   2.301   5.029   5.746 -0.1355 -1.5464 -0.7764
  912SOL    HW2 3557   2.244   4.979   5.891 -0.0051  0.5514  0.0315
  913SOL     OW 3558   3.077   1.299   2.504  0.0841  0.1952 -0.4482
  913SOL    HW1 3559   3.039   1.207   2.497  1.6897 -0.7210  1.7648
  913SOL    HW2 3560   3.087   1.338   2.412  0.5265 -2.3570 -1.5675
  914SOL     OW 3561   5.153   0.018   4.594 -0.1965 -0.1643 -0.1958
  914SOL    HW1 3562   5.197   0.037   4.681 -0.4378  1.0211 -0.3136
  914SOL    HW2 3563   5.188  -0.068   4.557 -1.2274 -1.5200  1.7992
  915SOL     OW 3564   2.595   5.625   5.957 -0.3078  0.0328  0.0504
  915SOL    HW1 3565   2.533   5.659   6.028 -1.7797  0.1261 -1.2345
  915SOL    HW2 3566   2.599   5.691   5.882  0.3556 -0.5756 -0.4628
  916SOL     OW 3567   0.101   5.950   1.075  0.3215  0.5156 -0.2855
  916SOL    HW1 3568   0.021   5.922   1.129  0.2118  0.8125 -0.2971
  916SOL    HW2 3569   0.082   6.036   1.030 -0.1502 -0.4589 -2.0309
  917SOL     OW 3570   1.992   5.760   4.260 -0.4325 -0.2564  0.1003
  917SOL    HW1 3571   1.996   5.849   4.305  2.1793 -0.9990  1.5048
  917SOL    HW2 3572   2.015   5.770   4.163  1.2147  0.4448  0.5492
  918SOL     OW 3573   5.249   5.017   5.812  0.6382  0.6217  0.4567
  918SOL    HW1 3574   5.328   5.052   5.862  1.7304  0.1558 -0.8698
  918SOL    HW2 3575   5.271   4.926   5.775 -1.0386 -0.1536  1.2612
  919SOL     OW 3576   1.613   6.366   5.410  0.2666 -0.5307  0.2541
  919SOL    HW1 3577   1.574   6.274   5.400 -1.0069  0.0248 -0.1251
  919SOL    HW2 3578   1.586   6.404   5.499 -0.4885  0.0549 -0.2214
  920SOL     OW 3579   6.047   6.382   3.673  0.5864 -0.1488 -0.2581
  920SOL    HW1 3580   6.026   6.335   3.759 -1.1826  1.0680  0.0148
  920SOL    HW2 3581   5.999   6.337   3.598  1.5345 -0.7479 -0.5306
  921SOL     OW 3582   5.447   3.023   2.739 -0.2732  0.0497  0.5755
  921SOL    HW1 3583   5.469   2.927   2.722  0.8918 -0.3733  3.8290
  921SOL    HW2 3584   5.486   3.080   2.667 -0.4365 -1.8175 -1.0656
  922SOL     OW 3585   0.605   6.088   2.240 -0.4437  0.0783 -0.2381
  922SOL    HW1 3586   0.515   6.076   2.281  0.5060 -2.3868  1.4061
  922SOL    HW2 3587   0.605   6.051   2.148 -1.2296  0.6430 -0.4794
  923SOL     OW 3588   4.137   5.974   3.001 -0.0553  0.2176 -0.0121
  923SOL    HW1 3589   4.190   6.008   2.924 -1.8008  0.7051 -1.0511
  923SOL    HW2 3590   4.198   5.959   3.079  1.6931  0.0925 -1.3316
  924SOL     OW 3591   3.227   0.241   6.607  0.0056  0.1693 -0.6427
  924SOL    HW1 3592   3.241   0.195   6.694 -0.0750  0.6849 -0.3499
  924SOL    HW2 3593   3.143   0.209   6.565 -0.6934  0.9152  0.1386
  925SOL     OW 3594   3.485   5.063   1.600 -0.5277 -0.5145  0.1229
  925SOL    HW1 3595   3.513   4.987   1.541  3.2569  0.4757  0.3504
  925SOL    HW2 3596   3.437   5.131   1.545  1.8628 -0.1513 -1.7008
  926SOL     OW 3597   5.247   5.431   4.668 -0.3664 -0.5874 -0.1804
  926SOL    HW1 3598   5.231   5.525   4.640  0.1636 -0.7601 -1.1081
  926SOL    HW2 3599   5.232   5.422   4.767  1.4683  0.8990  0.2859
  927SOL     OW 3600   3.607   3.653   5.491  0.8075  0.4641 -0.3880
  927SOL    HW1 3601   3.664   3.589   5.541  0.3520 -0.3973 -0.9430
  927SOL    HW2 3602   3.558   3.712   5.556 -2.2082 -2.6655  0.4788
  928SOL     OW 3603   6.230   6.200   4.095 -0.1841 -0.2647  0.4590
  928SOL    HW1 3604   6.261   6.207   4.190 -1.3436  1.1303  0.7711
  928SOL    HW2 3605   6.154   6.135   4.089 -0.6808  0.2894  0.6556
  929SOL     OW 3606   4.203   3.887   4.916  0.3742 -0.1128  0.3136
  929SOL    HW1 3607   4.123   3.838   4.883 -0.6861  0.4510  1.9492
  929SOL    HW2 3608   4.273   3.821   4.945  0.4237 -0.6021 -0.8642
  930SOL     OW 3609   5.348   6.895   6.623 -0.2583  0.1105  0.0134
  930SOL    HW1 3610   5.322   6.804   6.592 -0.6997  0.3160 -0.2476
  930SOL    HW2 3611   5.293   6.963   6.573  0.9589  0.5814 -0.7339
  931SOL     OW 3612   5.603   1.340   4.142  0.8203  0.0807 -0.1877
  931SOL    HW1 3613   5.518   1.348   4.194  0.4222  2.1404 -1.0665
  931SOL    HW2 3614   5.659   1.266   4.181 -1.8664 -2.2226 -0.3641
  932SOL     OW 3615   3.916   0.967   4.442 -0.2028  0.0035 -0.0070
  932SOL    HW1 3616   3.824   0.942   4.471 -0.5899 -0.5026 -1.5498
  932SOL    HW2 3617   3.975   0.886   4.447 -0.3230 -0.1397 -0.7620
  933SOL     OW 3618   5.274   6.568   2.158 -0.0462 -0.4010 -0.5427
  933SOL    HW1 3619   5.260   6.596   2.063 -0.5150 -0.9633 -0.6409
  933SOL    HW2 3620   5.358   6.514   2.164  0.9812  1.1279 -0.3190
  934SOL     OW 3621   3.007   4.996   5.039  0.3854 -0.0120 -0.4056
  934SOL    HW1 3622   3.028   4.976   5.135 -0.8641  0.7705  0.0530
  934SOL    HW2 3623   2.913   5.029   5.032  0.3166 -0.4939 -1.9717
  935SOL     OW 3624   3.189   3.290   1.587  0.4135  1.0908  0.2440
  935SOL    HW1 3625   3.132   3.296   1.669  0.4517 -0.3083  0.4026
  935SOL    HW2 3626   3.184   3.376   1.536 -1.4828  1.1696  0.5000
  936SOL     OW 3627   3.823   6.769   6.650 -0.1173 -0.3767 -0.0987
  936SOL    HW1 3628   3.840   6.859   6.609 -0.5492 -0.3329 -0.1944
  936SOL    HW2 3629   3.893   6.705   6.621 -0.1073 -0.2051 -0.4688
  937SOL     OW 3630   1.186   6.997   1.229  0.0522 -0.7140  0.0709
  937SOL    HW1 3631   1.275   6.971   1.193  0.3068 -1.0373  0.9189
  937SOL    HW2 3632   1.175   6.961   1.321  0.4449  2.2369  1.3822
  938SOL     OW 3633   2.693   5.411   6.119  0.1064  0.7979  0.0790
  938SOL    HW1 3634   2.765   5.367   6.067  0.6107 -0.8891  2.0741
  938SOL    HW2 3635   2.632   5.461   6.057  1.0779 -0.4636 -1.9789
  939SOL     OW 3636   5.133   1.327   0.038 -0.0859 -0.0000  0.2200
  939SOL    HW1 3637   5.231   1.343   0.026 -0.3398 -0.0109 -2.3164
  939SOL    HW2 3638   5.115   1.229   0.045 -0.1215 -0.2504 -2.4041
  940SOL     OW 3639   0.849   2.108   6.938  0.1285  0.6859  0.0653
  940SOL    HW1 3640   0.843   2.033   6.872  1.8559  0.6831 -0.1339
  940SOL    HW2 3641   0.777   2.174   6.919 -2.3355 -1.5293  1.1107
  941SOL     OW 3642   2.746   4.081   5.552 -0.4891  0.3552 -0.1909
  941SOL    HW1 3643   2.750   4.004   5.615 -1.1069  0.7909  0.4073
  941SOL    HW2 3644   2.819   4.074   5.484  0.1092 -0.1977  0.5007
  942SOL     OW 3645   0.215   0.392   6.988  0.4614  0.2442  0.0611
  942SOL    HW1 3646   0.145   0.417   6.921 -0.3630 -0.2880  0.6941
  942SOL    HW2 3647   0.292   0.348   6.941 -0.5573 -1.0778 -0.4580
  943SOL     OW 3648   6.665   2.546   0.075  0.4978 -0.1953  0.0006
  943SOL    HW1 3649   6.648   2.467   0.133 -0.8038 -0.9055 -1.2797
  943SOL    HW2 3650   6.582   2.602   0.069  0.5141 -0.2662 -1.3179
  944SOL     OW 3651   2.600   2.113   1.693 -0.1788  0.3165  0.1687
  944SOL    HW1 3652   2.603   2.036   1.629  0.9950 -0.3029  0.9370
  944SOL    HW2 3653   2.510   2.116   1.736 -0.4613 -0.2182 -0.3576
  945SOL     OW 3654   2.284   6.325   3.347 -0.5384  0.0063  0.0783
  945SOL    HW1 3655   2.326   6.259   3.285  0.1579 -0.1206  0.6735
  945SOL    HW2 3656   2.350   6.396   3.370 -1.0488  0.5014  0.0428
  946SOL     OW 3657   6.388   5.542   4.771  0.0743 -0.5213 -0.0963
  946SOL    HW1 3658   6.453   5.503   4.836  0.9603  1.4436  0.2810
  946SOL    HW2 3659   6.391   5.642   4.777 -2.5248 -0.3589 -0.5678
  947SOL     OW 3660   6.521   3.740   2.784 -0.6418  0.8982  0.0016
  947SOL    HW1 3661   6.538   3.837   2.802  1.8149  0.8681 -1.5983
  947SOL    HW2 3662   6.553   3.717   2.692 -3.3496 -0.9747 -0.5964
  948SOL     OW 3663   0.750   1.070   5.434  0.0406 -0.1914 -1.1094
  948SOL    HW1 3664   0.832   1.124   5.454 -1.2045  1.5493 -0.5628
  948SOL    HW2 3665   0.749   0.989   5.493  0.3093  0.8794  0.4264
  949SOL     OW 3666   6.199   1.614   1.631  0.0235  0.2913  0.1200
  949SOL    HW1 3667   6.150   1.622   1.544  1.3587  1.3288 -0.5671
  949SOL    HW2 3668   6.290   1.576   1.614 -0.2588 -0.9702  1.2897
  950SOL     OW 3669   2.857   4.237   6.814 -0.3290 -0.5122  0.0227
  950SOL    HW1 3670   2.769   4.284   6.813 -0.1215 -0.1218 -0.0956
  950SOL    HW2 3671   2.908   4.259   6.731  0.3173  0.1160  0.5720
  951SOL     OW 3672   6.649   2.728   2.459  0.3451  0.1366  0.1302
  951SOL    HW1 3673   6.573   2.671   2.491  2.4113 -1.4686  2.5802
  951SOL    HW2 3674   6.674   2.702   2.366  0.1114 -1.7548  0.5722
  952SOL     OW 3675   1.003   3.618   1.150  0.6085  0.3473  0.0653
  952SOL    HW1 3676   0.979   3.599   1.054 -5.2923  2.6305  0.6799
  952SOL    HW2 3677   1.021   3.716   1.161 -0.0322  0.3287  1.4588
  953SOL     OW 3678   0.790   6.452   0.575 -0.4286 -0.2572 -0.3337
  953SOL    HW1 3679   0.886   6.448   0.549 -0.2793  0.4152  0.0880
  953SOL    HW2 3680   0.755   6.360   0.588  0.2510 -0.4954 -0.1608
  954SOL     OW 3681   6.342   1.316   1.446 -0.0421  0.3979  0.6466
  954SOL    HW1 3682   6.397   1.376   1.504  2.3754 -0.2057 -0.9020
  954SOL    HW2 3683   6.306   1.368   1.369 -2.1410  0.8850  1.8510
  955SOL     OW 3684   0.391   0.449   1.636 -0.7303 -0.2267 -0.0714
  955SOL    HW1 3685   0.466   0.491   1.688 -0.4561 -0.2351 -0.4560
  955SOL    HW2 3686   0.407   0.350   1.628 -1.6599 -0.5307  1.3211
  956SOL     OW 3687   6.680   0.546   6.330  0.0903  0.4608 -0.0911
  956SOL    HW1 3688   6.633   0.459   6.343  1.2043 -0.2077 -0.4380
  956SOL    HW2 3689   6.665   0.579   6.236  0.1425  0.3628 -0.1330
  957SOL     OW 3690   0.214   0.146   3.669  0.4064 -0.7440 -0.8164
  957SOL    HW1 3691   0.308   0.161   3.640  1.2183 -1.6764  1.1331
  957SOL    HW2 3692   0.194   0.048   3.668 -0.5184 -0.5610 -1.1096
  958SOL     OW 3693   5.274   5.769   6.386  0.1968  0.5641 -0.2020
  958SOL    HW1 3694   5.333   5.811   6.455  0.1580 -2.1640  1.6581
  958SOL    HW2 3695   5.234   5.685   6.423 -0.7218 -0.4620 -3.2137
  959SOL     OW 3696   6.321   0.075   6.524 -0.1917  0.2188  0.2607
  959SOL    HW1 3697   6.221   0.072   6.513 -0.2254 -0.9254  0.7128
  959SOL    HW2 3698   6.364   0.028   6.447  0.1237  2.4877 -1.0284
  960SOL     OW 3699   4.217   3.730   2.001 -0.1771 -0.3038  0.0839
  960SOL    HW1 3700   4.212   3.737   1.901  0.3397  1.4236  0.1364
  960SOL    HW2 3701   4.312   3.710   2.028 -0.4420 -1.4336  0.2211
  961SOL     OW 3702   5.470   4.924   0.685 -0.2722  0.3574 -0.2951
  961SOL    HW1 3703   5.403   4.860   0.724  0.9835 -0.8477 -0.0627
  961SOL    HW2 3704   5.490   4.996   0.752 -1.1501  0.6161 -0.2880
  962SOL     OW 3705   2.366   1.404   5.892  0.0270 -0.0828  0.1909
  962SOL    HW1 3706   2.460   1.372   5.902 -0.6018 -2.7498 -1.3034
  962SOL    HW2 3707   2.358   1.459   5.809  0.0482 -1.0313 -0.4606
  963SOL     OW 3708   4.107   1.377   2.396  0.7274  0.4714 -0.0807
  963SOL    HW1 3709   4.182   1.393   2.332 -0.0818 -0.4601 -1.3138
  963SOL    HW2 3710   4.097   1.455   2.458  2.3561  0.8218 -0.2429
  964SOL     OW 3711   1.421   3.819   3.075  0.2216 -0.3768 -0.7450
  964SOL    HW1 3712   1.455   3.834   2.983  1.9084 -0.9872 -0.2564
  964SOL    HW2 3713   1.461   3.887   3.137 -0.2344 -0.4852 -0.3250
  965SOL     OW 3714   6.183   6.748   3.666  0.2701 -0.2533 -0.1384
  965SOL    HW1 3715   6.256   6.718   3.605  1.0053  1.7623 -0.3106
  965SOL    HW2 3716   6.195   6.844   3.688 -0.5214 -0.6550  2.4232
  966SOL     OW 3717   3.613   6.711   0.092  0.1851 -0.0534  0.8302
  966SOL    HW1 3718   3.664   6.641   0.042 -2.6677 -0.4883 -1.8242
  966SOL    HW2 3719   3.561   6.667   0.165 -2.4732 -1.1537 -1.5197
  967SOL     OW 3720   6.865   6.841   5.079 -0.0614  0.1324 -0.0982
  967SOL    HW1 3721   6.813   6.926   5.090 -1.4914 -0.7498  0.1689
  967SOL    HW2 3722   6.960   6.856   5.108  0.1801  2.0822 -1.6104
  968SOL     OW 3723   0.961   0.774   6.309 -0.4643 -1.0600  0.1799
  968SOL    HW1 3724   0.932   0.866   6.283  0.2246 -0.7456  0.5050
  968SOL    HW2 3725   0.907   0.744   6.388 -0.4956 -0.8186  0.2524
  969SOL     OW 3726   3.935   6.716   1.745 -0.5768 -0.4600  0.3939
  969SOL    HW1 3727   4.003   6.708   1.818 -1.8000  2.2980  1.9929
  969SOL    HW2 3728   3.958   6.794   1.687 -1.7147 -0.1968  0.2700
  970SOL     OW 3729   1.221   4.147   2.261 -0.2531 -0.2361  0.2801
  970SOL    HW1 3730   1.169   4.137   2.176  1.2762  1.1940 -0.8821
  970SOL    HW2 3731   1.212   4.240   2.295  1.0054 -0.1265  0.3790
  971SOL     OW 3732   2.577   4.881   6.799 -0.0947  0.2862 -0.7481
  971SOL    HW1 3733   2.602   4.784   6.801 -0.7027  0.1200 -0.9907
  971SOL    HW2 3734   2.526   4.904   6.882 -1.2524  0.0311 -1.3722
  972SOL     OW 3735   1.243   3.538   6.600 -0.4792 -0.0472 -0.1096
  972SOL    HW1 3736   1.178   3.588   6.656 -0.3010 -1.7739  1.7497
  972SOL    HW2 3737   1.197   3.458   6.560 -0.2860  0.4926 -1.4658
  973SOL     OW 3738   3.129   0.851   2.586 -0.1767 -0.7094  0.3352
  973SOL    HW1 3739   3.044   0.903   2.574 -0.4613 -1.1487  0.4304
  973SOL    HW2 3740   3.113   0.755   2.564 -0.1163 -1.1042  1.9204
  974SOL     OW 3741   4.933   4.162   1.265  0.6005 -0.5634 -0.0436
  974SOL    HW1 3742   4.873   4.215   1.204  0.4317  0.8076  1.2454
  974SOL    HW2 3743   5.025   4.159   1.226  0.6107  0.6770 -0.1717
  975SOL     OW 3744   6.034   1.316   2.393  0.2047  0.0753 -0.5810
  975SOL    HW1 3745   6.027   1.381   2.317 -0.9031  1.5080  0.6545
  975SOL    HW2 3746   6.111   1.341   2.452 -1.6793  1.9662  1.2767
  976SOL     OW 3747   6.827   3.902   4.853  0.4308  0.5483  0.3392
  976SOL    HW1 3748   6.748   3.960   4.832  0.3432 -0.0146 -1.0250
  976SOL    HW2 3749   6.803   3.806   4.837  1.3140  0.3575  0.0984
  977SOL     OW 3750   6.587   5.728   2.234  0.0862  0.0162  0.2141
  977SOL    HW1 3751   6.684   5.752   2.232 -0.3682  2.0355 -1.5944
  977SOL    HW2 3752   6.577   5.628   2.238  2.1851 -0.1899  1.6254
  978SOL     OW 3753   5.270   4.399   6.225 -0.8828 -0.4329 -0.1828
  978SOL    HW1 3754   5.206   4.354   6.162  0.0658 -0.5562 -1.0914
  978SOL    HW2 3755   5.351   4.341   6.238 -1.5773 -0.9801  2.1512
  979SOL     OW 3756   5.744   4.666   3.289  0.3925 -0.2852  0.2666
  979SOL    HW1 3757   5.793   4.587   3.254 -1.6977 -2.0114  1.0538
  979SOL    HW2 3758   5.755   4.672   3.388  0.2329  0.2179  0.2591
  980SOL     OW 3759   4.994   1.311   2.263 -0.2106 -0.8047  0.0922
  980SOL    HW1 3760   4.900   1.278   2.261 -0.9176  1.0012  1.1799
  980SOL    HW2 3761   4.996   1.409   2.245  1.3598 -0.6233  1.0151
  981SOL     OW 3762   0.916   6.714   5.406 -0.2193  0.3031 -0.3501
  981SOL    HW1 3763   0.993   6.724   5.468  0.6952  1.8554 -1.6517
  981SOL    HW2 3764   0.949   6.715   5.312 -1.9393  3.3238 -1.0553
  982SOL     OW 3765   0.880   1.429   5.855 -0.4212 -0.3143  0.1867
  982SOL    HW1 3766   0.892   1.338   5.895  0.6084 -0.7821 -1.1141
  982SOL    HW2 3767   0.817   1.423   5.777 -2.8889  0.6910  1.9832
  983SOL     OW 3768   3.653   4.071   1.686  0.3405  0.3267  0.1399
  983SOL    HW1 3769   3.632   4.115   1.773  0.9117 -0.5126  0.7218
  983SOL    HW2 3770   3.597   4.111   1.614  1.8226  2.9979  0.3416
  984SOL     OW 3771   5.500   0.936   4.386  0.1224  0.2124  0.0382
  984SOL    HW1 3772   5.579   0.902   4.335 -1.0115 -1.1368 -0.9107
  984SOL    HW2 3773   5.531   0.985   4.467  1.9201 -1.9997  0.7932
  985SOL     OW 3774   5.345   4.146   5.944 -0.0474 -0.3368 -0.3103
  985SOL    HW1 3775   5.277   4.091   5.896  0.4860  0.1343 -1.6827
  985SOL    HW2 3776   5.369   4.225   5.887  1.9620 -0.7277 -0.0855
  986SOL     OW 3777   3.840   3.614   5.110 -0.3040  0.3985  0.5361
  986SOL    HW1 3778   3.818   3.651   5.019 -0.6419  0.9796  0.8450
  986SOL    HW2 3779   3.756   3.577   5.151  0.3513 -2.5625 -0.5536
  987SOL     OW 3780   6.264   1.702   2.767  0.6751  0.0083 -0.2364
  987SOL    HW1 3781   6.252   1.767   2.842 -0.0510 -0.1820 -0.1824
  987SOL    HW2 3782   6.274   1.610   2.805  0.2745 -0.0917 -0.3744
  988SOL     OW 3783   5.243   5.309   0.681 -0.5047  0.3273 -0.4761
  988SOL    HW1 3784   5.320   5.341   0.627  1.1962  0.0370  1.6165
  988SOL    HW2 3785   5.164   5.294   0.622  1.2430 -0.1045 -2.8320
  989SOL     OW 3786   2.822   5.878   1.279  0.4567 -0.4537 -0.2116
  989SOL    HW1 3787   2.732   5.858   1.319 -0.6030 -1.7190 -2.9718
  989SOL    HW2 3788   2.892   5.823   1.324 -0.5211 -1.1943  0.4444
  990SOL     OW 3789   3.850   6.898   5.566  0.2245 -0.3820  0.7655
  990SOL    HW1 3790   3.898   6.978   5.532  2.4926 -2.0474 -0.2318
  990SOL    HW2 3791   3.896   6.863   5.647 -1.6472  0.1332  2.1150
  991SOL     OW 3792   3.915   3.777   0.242 -0.7030 -0.0140  0.1701
  991SOL    HW1 3793   3.995   3.790   0.301 -1.9518  1.8012  1.5813
  991SOL    HW2 3794   3.892   3.864   0.197 -1.7431 -0.5562 -0.3875
  992SOL     OW 3795   0.980   5.476   3.887  0.1840  0.5957  0.2278
  992SOL    HW1 3796   1.068   5.523   3.885 -0.7816  2.5188  0.5851
  992SOL    HW2 3797   0.939   5.485   3.977 -0.0964 -0.8913  0.2768
  993SOL     OW 3798   4.924   6.803   5.639  0.2149 -0.2664  0.2007
  993SOL    HW1 3799   4.845   6.766   5.688  0.2290  1.8419  1.9384
  993SOL    HW2 3800   4.915   6.902   5.630  3.1511  0.2068  1.4385
  994SOL     OW 3801   1.150   3.284   4.627 -0.2914  0.3668 -0.4983
  994SOL    HW1 3802   1.143   3.185   4.626 -0.4607  0.3713 -0.1044
  994SOL    HW2 3803   1.181   3.317   4.538  0.2469 -0.0762 -0.4833
  995SOL     OW 3804   4.468   0.016   2.674  0.0315  0.6480  0.0700
  995SOL    HW1 3805   4.453  -0.049   2.600 -1.5557  0.2934  0.6507
  995SOL    HW2 3806   4.403  -0.003   2.748  3.0598 -0.6000  2.6781
  996SOL     OW 3807   0.007   4.683   3.592  1.0164 -0.4271  0.1294
  996SOL    HW1 3808  -0.035   4.767   3.558 -1.1813 -1.2768  0.5709
  996SOL    HW2 3809  -0.013   4.674   3.690 -1.1184 -2.6873 -0.4170
  997SOL     OW 3810   6.978   6.043   4.029  0.2153 -0.1117 -0.3130
  997SOL    HW1 3811   6.894   6.097   4.042  0.5205  0.2472  0.2202
  997SOL    HW2 3812   6.955   5.946   4.028 -0.0084 -0.1478  1.9015
  998SOL     OW 3813   0.657   3.782   6.562 -0.1688  0.3433 -0.2883
  998SOL    HW1 3814   0.579   3.787   6.498  0.7271  0.2953 -1.4161
  998SOL    HW2 3815   0.742   3.795   6.511  0.6618 -1.0292  0.7023
  999SOL     OW 3816   1.214   3.151   2.061 -0.3360 -0.3723 -0.2919
  999SOL    HW1 3817   1.257   3.226   2.010 -1.5926  1.4324  1.1571
  999SOL    HW2 3818   1.148   3.105   2.003 -0.3775  0.3990 -0.8765
 1000SOL     OW 3819   0.099   6.337   4.128  0.4975  0.1286 -0.1519
 1000SOL    HW1 3820   0.050   6.323   4.042 -0.3397  2.9331 -0.2534
 1000SOL    HW2 3821   0.052   6.408   4.181  1.7078 -0.6334  2.0757
 1001SOL     OW 3822   4.014   4.542   6.841  0.1766  0.2287  0.1143
 1001SOL    HW1 3823   4.000   4.491   6.755  1.5034  0.1612 -0.0805
 1001SOL    HW2 3824   3.962   4.627   6.838 -2.2485 -1.1279  0.5135
 1002SOL     OW 3825   0.800   4.952   3.679  0.3283 -0.3603  1.0080
 1002SOL    HW1 3826   0.743   4.918   3.604 -0.4241  0.4905  1.1797
 1002SOL    HW2 3827   0.831   4.876   3.736 -0.7765 -0.8130  1.0125
 1003SOL     OW 3828   0.911   4.857   3.208  0.3598 -0.1811 -0.1629
 1003SOL    HW1 3829   0.864   4.777   3.169 -0.4574 -0.0947  0.5943
 1003SOL    HW2 3830   0.970   4.827   3.282  4.4889 -0.8053 -3.3354
 1004SOL     OW 3831   2.089   1.894   5.700 -0.4769 -0.1052 -0.8106
 1004SOL    HW1 3832   2.077   1.799   5.674 -1.8343  0.3233 -1.8841
 1004SOL    HW2 3833   2.044   1.953   5.633 -0.4326  1.2593  0.3013
 1005SOL     OW 3834   5.941   2.902   2.169  0.6736 -0.5170 -0.3506
 1005SOL    HW1 3835   5.969   2.972   2.103 -1.6363  0.5120 -0.3234
 1005SOL    HW2 3836   6.007   2.827   2.167  1.6615  0.3159 -2.5011
 1006SOL     OW 3837   1.949   6.683   6.836  0.6727  0.3815 -0.6255
 1006SOL    HW1 3838   1.980   6.653   6.746 -0.2144 -0.9083 -0.5277
 1006SOL    HW2 3839   2.007   6.642   6.906  1.0351  0.9620 -0.5801
 1007SOL     OW 3840   4.821   2.226   1.862  0.1430 -0.3278 -0.1897
 1007SOL    HW1 3841   4.897   2.248   1.922 -0.9929  2.2312  0.4465
 1007SOL    HW2 3842   4.744   2.194   1.917 -0.7576  1.6193 -0.2256
 1008SOL     OW 3843   6.938   2.647   0.991  0.2645  0.3693 -0.2175
 1008SOL    HW1 3844   7.005   2.619   1.060  1.2451  0.4892 -1.1003
 1008SOL    HW2 3845   6.978   2.718   0.932 -0.9592  1.1118 -0.1999
 1009SOL     OW 3846   2.246   6.618   3.596 -0.0149 -0.0939 -0.1097
 1009SOL    HW1 3847   2.199   6.691   3.547 -0.1992 -0.9169 -1.1885
 1009SOL    HW2 3848   2.215   6.616   3.691 -1.1057  0.2836 -0.4471
 1010SOL     OW 3849   0.390   5.336   2.241  0.2903 -0.0358 -0.5620
 1010SOL    HW1 3850   0.471   5.394   2.249 -0.1836  0.7444 -1.3415
 1010SOL    HW2 3851   0.408   5.248   2.286  0.3688  1.3409  2.3080
 1011SOL     OW 3852   6.323   0.377   4.762  0.3243  0.0864 -0.3736
 1011SOL    HW1 3853   6.254   0.343   4.697  2.5260 -0.6827 -2.4861
 1011SOL    HW2 3854   6.283   0.448   4.819 -2.9677 -2.1547  0.4439
 1012SOL     OW 3855   1.976   5.806   0.868  0.4820 -0.2712  0.2204
 1012SOL    HW1 3856   2.015   5.810   0.960  1.8345 -2.6823 -0.1666
 1012SOL    HW2 3857   1.961   5.710   0.842 -2.1448  0.4081 -1.1825
 1013SOL     OW 3858   4.401   6.515   4.963 -0.2444  0.2092 -0.4535
 1013SOL    HW1 3859   4.440   6.560   4.883  4.3688  0.6483  1.7118
 1013SOL    HW2 3860   4.400   6.579   5.040 -1.9774 -0.9814  0.5976
 1014SOL     OW 3861   0.641   3.026   2.859 -0.3846 -0.1084 -0.1951
 1014SOL    HW1 3862   0.584   3.099   2.897 -0.1356 -0.5534  1.0899
 1014SOL    HW2 3863   0.698   3.063   2.786 -2.9938  0.1417 -2.2604
 1015SOL     OW 3864   6.087   6.833   4.488  0.1578  0.3358 -0.0367
 1015SOL    HW1 3865   6.067   6.929   4.471  1.6138  0.2498 -2.6987
 1015SOL    HW2 3866   6.179   6.824   4.526  0.6222 -0.0488 -1.2035
 1016SOL     OW 3867   0.940   3.539   0.840  0.4403  0.6443  0.0185
 1016SOL    HW1 3868   0.926   3.493   0.752 -0.7146 -0.8306  0.9375
 1016SOL    HW2 3869   0.976   3.474   0.907  1.5309  1.8076  0.6037
 1017SOL     OW 3870   0.345   2.073   0.650 -0.0731 -0.1602 -0.3296
 1017SOL    HW1 3871   0.380   2.164   0.674  0.2978 -0.2892 -0.3734
 1017SOL    HW2 3872   0.288   2.039   0.725 -1.0544  0.5399 -0.7452
 1018SOL     OW 3873   3.582   4.843   6.594  0.6060  0.4601  0.7364
 1018SOL    HW1 3874   3.551   4.784   6.668 -1.2160  0.1107 -0.2182
 1018SOL    HW2 3875   3.583   4.938   6.625  0.2197  0.2811  1.3143
 1019SOL     OW 3876   3.539   2.948   4.812 -0.1943 -0.3607  0.2798
 1019SOL    HW1 3877   3.557   2.864   4.761  0.6068  0.7693 -1.4008
 1019SOL    HW2 3878   3.625   2.982   4.850 -0.5903 -0.5356  1.3556
 1020SOL     OW 3879   2.432   2.763   6.751 -0.0764  0.1058 -0.1588
 1020SOL    HW1 3880   2.366   2.732   6.683 -0.0537 -0.5112  0.0927
 1020SOL    HW2 3881   2.447   2.690   6.818  1.2438  0.0391 -0.4978
 1021SOL     OW 3882   6.886   6.992   3.130  0.0461 -0.0985 -0.0699
 1021SOL    HW1 3883   6.942   6.925   3.081  0.0868 -1.1043  1.2708
 1021SOL    HW2 3884   6.920   7.001   3.224 -1.7657 -0.4379  0.6626
 1022SOL     OW 3885   1.909   1.283   2.541 -0.2716  0.9523 -0.2900
 1022SOL    HW1 3886   1.919   1.202   2.483 -0.8116 -0.3737  1.3952
 1022SOL    HW2 3887   1.812   1.304   2.554 -0.3137 -0.3803  2.1714
 1023SOL     OW 3888   0.684   1.129   0.926 -0.1537 -0.3680 -0.4989
 1023SOL    HW1 3889   0.709   1.067   1.000  1.0568  1.1759  0.4395
 1023SOL    HW2 3890   0.676   1.077   0.840  1.5124 -1.7212  0.1124
 1024SOL     OW 3891   0.992   5.633   2.057 -0.4522  0.0462  0.7467
 1024SOL    HW1 3892   0.899   5.604   2.080 -0.7703  0.7424  0.3665
 1024SOL    HW2 3893   1.036   5.669   2.139  0.0083 -1.6129  1.2663
 1025SOL     OW 3894   3.282   6.746   2.532  0.3451  0.5662 -0.6685
 1025SOL    HW1 3895   3.196   6.783   2.497  0.2702  0.0083 -1.0924
 1025SOL    HW2 3896   3.329   6.697   2.459  1.1376  1.0664 -0.4987
 1026SOL     OW 3897   1.793   1.928   0.250 -0.1308  0.0979  0.0934
 1026SOL    HW1 3898   1.741   1.848   0.222  1.3339 -0.6130 -0.7388
 1026SOL    HW2 3899   1.890   1.904   0.258  0.0670  1.2915  1.9040
 1027SOL     OW 3900   6.821   1.704   5.577 -0.2622  0.0562 -0.0927
 1027SOL    HW1 3901   6.888   1.729   5.647  0.7706 -0.0009 -1.0400
 1027SOL    HW2 3902   6.865   1.648   5.507 -1.0884  0.7472 -1.1928
 1028SOL     OW 3903   4.205   0.225   3.827 -0.4931 -0.4225  0.2463
 1028SOL    HW1 3904   4.116   0.235   3.782 -0.7999  1.0890  1.1400
 1028SOL    HW2 3905   4.204   0.274   3.913  0.9231 -1.1801  0.7181
 1029SOL     OW 3906   6.517   0.898   3.113 -0.0184  0.1671 -0.2473
 1029SOL    HW1 3907   6.603   0.899   3.062  1.2767 -0.1419  1.8003
 1029SOL    HW2 3908   6.477   0.806   3.108 -0.7364  0.5379 -1.9336
 1030SOL     OW 3909   6.410   0.759   2.468  0.3365  0.1177  0.4602
 1030SOL    HW1 3910   6.440   0.732   2.376 -0.6368 -0.3622  0.2654
 1030SOL    HW2 3911   6.314   0.786   2.464  0.4509  0.6607  1.2431
 1031SOL     OW 3912   1.579   3.843   4.641  0.4485  0.1312  0.1468
 1031SOL    HW1 3913   1.536   3.933   4.641  1.5470  0.6939  1.1094
 1031SOL    HW2 3914   1.577   3.806   4.734 -0.5721 -1.1475 -0.3634
 1032SOL     OW 3915   0.416   4.692   0.927  0.2173  0.3033 -0.0326
 1032SOL    HW1 3916   0.475   4.693   0.846  0.4664 -0.7585  0.1244
 1032SOL    HW2 3917   0.470   4.666   1.007 -0.5481 -1.2273  0.0227
 1033SOL     OW 3918   3.203   3.628   6.963 -0.0901 -0.3229  0.0706
 1033SOL    HW1 3919   3.211   3.694   6.888  0.3756 -0.7924 -0.3109
 1033SOL    HW2 3920   3.119   3.575   6.951 -0.7167  0.5190  0.6530
 1034SOL     OW 3921   3.375   4.529   1.256  0.4072  0.2167  0.2015
 1034SOL    HW1 3922   3.454   4.553   1.200 -0.0759 -0.1121 -0.6552
 1034SOL    HW2 3923   3.293   4.572   1.218 -0.1960 -1.3265 -0.3540
 1035SOL     OW 3924   0.381   1.481   5.184  0.2872 -0.0643 -0.2622
 1035SOL    HW1 3925   0.385   1.390   5.143 -2.3044  0.0258 -0.9040
 1035SOL    HW2 3926   0.421   1.548   5.122  2.5660 -0.7556  0.3802
 1036SOL     OW 3927   1.711   1.690   1.226 -0.6042  0.9027  1.2838
 1036SOL    HW1 3928   1.723   1.599   1.187  1.8714  0.6943  2.3977
 1036SOL    HW2 3929   1.691   1.755   1.153  1.1743  0.0613 -0.0235
 1037SOL     OW 3930   6.777   6.942   3.630 -0.7254  0.0242 -0.3134
 1037SOL    HW1 3931   6.759   6.843   3.630  0.2977 -0.1780 -0.2246
 1037SOL    HW2 3932   6.818   6.968   3.717  0.7280  0.1643 -1.0001
 1038SOL     OW 3933   5.929   1.116   0.464 -0.0498 -0.0766  0.0702
 1038SOL    HW1 3934   5.929   1.072   0.374 -2.0180  1.4850 -0.7681
 1038SOL    HW2 3935   5.860   1.073   0.523 -0.6514  0.6086 -0.1131
 1039SOL     OW 3936   6.467   4.307   3.538  0.2369 -0.7188  0.7508
 1039SOL    HW1 3937   6.468   4.207   3.542  0.7539 -0.8295 -1.0545
 1039SOL    HW2 3938   6.535   4.338   3.472  0.0525  0.8424  1.2504
 1040SOL     OW 3939   0.023   0.460   2.587 -0.4302 -0.6271  0.3554
 1040SOL    HW1 3940   0.016   0.422   2.494 -1.3412 -0.2705  0.2699
 1040SOL    HW2 3941   0.120   0.468   2.612 -0.1749 -0.8429 -0.5096
 1041SOL     OW 3942   3.790   5.023   4.135 -0.0473  0.0757  0.6034
 1041SOL    HW1 3943   3.755   4.960   4.066 -2.7246  0.2179  1.7028
 1041SOL    HW2 3944   3.777   5.117   4.103  1.5228  0.1505  0.0819
 1042SOL     OW 3945   6.669   4.559   5.896 -0.6903  0.0090 -0.6739
 1042SOL    HW1 3946   6.586   4.554   5.840 -1.9782 -2.3136  1.2585
 1042SOL    HW2 3947   6.644   4.556   5.992  1.5564  2.2661  0.1049
 1043SOL     OW 3948   1.434   2.742   0.962  0.1802 -0.3470  0.5516
 1043SOL    HW1 3949   1.400   2.700   1.047 -2.0943  0.4661  0.1320
 1043SOL    HW2 3950   1.450   2.671   0.894 -0.2314 -0.8298  0.9483
 1044SOL     OW 3951   3.652   3.430   5.747 -0.0971  0.3998 -0.4496
 1044SOL    HW1 3952   3.728   3.432   5.683  0.2390 -0.7294 -0.1126
 1044SOL    HW2 3953   3.612   3.339   5.749 -0.4258  0.5444  0.5670
 1045SOL     OW 3954   1.293   1.124   2.017  0.2215 -0.3880 -0.4576
 1045SOL    HW1 3955   1.381   1.135   1.972  1.3876 -1.9434  1.2800
 1045SOL    HW2 3956   1.227   1.084   1.954  0.8790  0.3185 -1.6232
 1046SOL     OW 3957   2.504   0.653   6.519 -0.4758  0.1033  0.1050
 1046SOL    HW1 3958   2.603   0.651   6.508 -0.5744 -2.6481 -1.2322
 1046SOL    HW2 3959   2.465   0.727   6.465  0.8068  0.9478  0.3092
 1047SOL     OW 3960   1.391   0.151   0.616 -0.8075  0.1325 -0.1953
 1047SOL    HW1 3961   1.450   0.201   0.680 -2.2043 -0.5531  1.7355
 1047SOL    HW2 3962   1.397   0.053   0.635 -2.1201  0.0154 -0.3244
 1048SOL     OW 3963   6.521   3.992   5.883  0.2072  0.0240 -0.0189
 1048SOL    HW1 3964   6.569   3.928   5.823  1.8268 -0.7752  1.9785
 1048SOL    HW2 3965   6.575   4.077   5.891  0.3725 -0.1493  0.8021
 1049SOL     OW 3966   0.905   3.855   2.927  0.2738  0.1038  0.1860
 1049SOL    HW1 3967   0.971   3.796   2.973 -0.9765 -0.2118  1.6557
 1049SOL    HW2 3968   0.909   3.947   2.967 -0.8977 -0.2005  1.0651
 1050SOL     OW 3969   1.871   4.292   1.695 -0.0897 -0.3508 -0.5373
 1050SOL    HW1 3970   1.801   4.336   1.638  1.3360  4.0679  0.7007
 1050SOL    HW2 3971   1.827   4.242   1.769 -1.9157 -0.8092 -1.8643
 1051SOL     OW 3972   6.598   0.253   1.522  0.4206  0.2932  0.2254
 1051SOL    HW1 3973   6.600   0.207   1.611 -1.3841 -3.2172 -1.3617
 1051SOL    HW2 3974   6.672   0.218   1.464 -1.3047 -1.1785 -1.1967
 1052SOL     OW 3975   2.452   2.521   4.878  0.9343  0.3606  0.3785
 1052SOL    HW1 3976   2.420   2.475   4.795  0.6500  0.7740  0.2538
 1052SOL    HW2 3977   2.543   2.487   4.902  1.3653  0.8301 -0.5590
 1053SOL     OW 3978   5.721   5.348   2.768  0.5483 -0.2378  0.3474
 1053SOL    HW1 3979   5.681   5.259   2.790  1.1283 -0.5937 -0.0225
 1053SOL    HW2 3980   5.699   5.372   2.674 -2.3719  1.5260  1.3573
 1054SOL     OW 3981   2.153   1.565   2.129 -0.0395  0.1760  0.0469
 1054SOL    HW1 3982   2.176   1.486   2.186  0.3649  0.9171  0.9459
 1054SOL    HW2 3983   2.059   1.593   2.147 -0.0600  0.1297  0.0110
 1055SOL     OW 3984   0.713   0.465   5.107 -0.2822  0.2765 -0.3982
 1055SOL    HW1 3985   0.719   0.479   5.206 -1.6602  0.3698 -0.3048
 1055SOL    HW2 3986   0.724   0.553   5.061  0.2201  0.2550 -0.3253
 1056SOL     OW 3987   3.975   1.025   3.443  0.3795 -0.5503  0.0681
 1056SOL    HW1 3988   3.925   1.097   3.491 -1.5784 -2.0785  0.4518
 1056SOL    HW2 3989   4.073   1.034   3.462  0.1860  1.8721  0.2146
 1057SOL     OW 3990   1.731   1.649   4.072 -0.3018 -0.4012  0.2476
 1057SOL    HW1 3991   1.638   1.633   4.104  0.4930 -2.3062  1.8042
 1057SOL    HW2 3992   1.756   1.579   4.005  0.7623 -1.3579  1.5980
 1058SOL     OW 3993   1.088   6.727   6.662 -0.3035  0.4914 -0.1377
 1058SOL    HW1 3994   1.084   6.712   6.761 -1.0011 -0.9758 -0.3544
 1058SOL    HW2 3995   1.040   6.811   6.639  0.1639  1.0330  0.7963
 1059SOL     OW 3996   4.493   3.590   2.051 -0.4153 -0.6673  0.6025
 1059SOL    HW1 3997   4.587   3.556   2.061 -0.0185 -0.3154 -1.4237
 1059SOL    HW2 3998   4.433   3.515   2.024 -1.0829 -1.2157  3.3503
 1060SOL     OW 3999   5.119   5.741   5.616  0.3793  0.0641 -0.0839
 1060SOL    HW1 4000   5.183   5.744   5.539  1.2150  0.1793  0.6041
 1060SOL    HW2 4001   5.168   5.755   5.701 -0.6324  0.6083  0.4347
 1061SOL     OW 4002   4.374   1.650   0.773 -0.6237  0.0660 -0.8748
 1061SOL    HW1 4003   4.459   1.637   0.723 -0.0936 -0.6721  0.1895
 1061SOL    HW2 4004   4.307   1.695   0.713  0.6812  1.1885 -1.5415
 1062SOL     OW 4005   4.602   5.245   1.023  0.0790 -0.2475  0.0925
 1062SOL    HW1 4006   4.565   5.335   1.045 -0.0394 -0.3052  0.1318
 1062SOL    HW2 4007   4.539   5.197   0.961  0.0882 -0.3442  0.1576
 1063SOL     OW 4008   3.149   5.643   3.766 -0.4940  0.0745  0.0392
 1063SOL    HW1 4009   3.115   5.734   3.743 -1.7113 -0.5221 -0.5967
 1063SOL    HW2 4010   3.213   5.611   3.695  0.1856  0.5469  0.4262
 1064SOL     OW 4011   6.769   4.700   1.121  0.3899  0.1148 -0.3443
 1064SOL    HW1 4012   6.835   4.768   1.153  0.9578 -1.5608  2.3785
 1064SOL    HW2 4013   6.794   4.670   1.028  0.5965  2.9052 -1.2754
 1065SOL     OW 4014   5.757   2.624   2.991  0.0638  0.5045  0.3863
 1065SOL    HW1 4015   5.748   2.641   2.892  0.5299  0.6568  0.3664
 1065SOL    HW2 4016   5.848   2.589   3.010 -0.5886 -1.2086  0.5333
 1066SOL     OW 4017   2.185   5.493   5.480 -0.3578 -0.2433  0.1985
 1066SOL    HW1 4018   2.228   5.532   5.561  0.4401 -1.0068  0.1562
 1066SOL    HW2 4019   2.124   5.418   5.507 -0.6426 -0.0341  0.1457
 1067SOL     OW 4020   2.383   5.217   0.372  0.1657  0.4172  0.2066
 1067SOL    HW1 4021   2.309   5.150   0.379  0.0441  0.6154  0.9433
 1067SOL    HW2 4022   2.469   5.175   0.397  0.2749  0.2385 -0.4570
 1068SOL     OW 4023   1.617   1.865   1.457  0.0383 -0.3110  0.3072
 1068SOL    HW1 4024   1.685   1.937   1.471  0.8517 -1.1330  0.6042
 1068SOL    HW2 4025   1.638   1.814   1.374  0.4444 -1.2865  0.9904
 1069SOL     OW 4026   3.016   3.198   3.857 -0.5232 -0.3079  0.2472
 1069SOL    HW1 4027   3.092   3.169   3.915  1.1742  2.4741 -0.4192
 1069SOL    HW2 4028   3.008   3.135   3.779  0.5329 -1.1033  0.7620
 1070SOL     OW 4029   6.754   4.683   5.126  0.4482  0.3121  0.1487
 1070SOL    HW1 4030   6.698   4.750   5.174  1.2799  0.7860  0.4892
 1070SOL    HW2 4031   6.719   4.591   5.144 -1.0725  0.6622 -0.8138
 1071SOL     OW 4032   6.712   0.501   2.457 -0.4645  0.3975 -0.2721
 1071SOL    HW1 4033   6.744   0.424   2.511 -1.0058  0.7198  0.5297
 1071SOL    HW2 4034   6.614   0.490   2.438 -0.1697 -0.0002 -1.6957
 1072SOL     OW 4035   3.407   6.864   3.978  0.4868  0.4473 -0.4283
 1072SOL    HW1 4036   3.308   6.852   3.988  0.4571  1.2433  0.4002
 1072SOL    HW2 4037   3.453   6.813   4.051  0.7162 -0.2428 -1.0478
 1073SOL     OW 4038   5.370   5.045   5.267 -0.1592  0.5292 -0.2021
 1073SOL    HW1 4039   5.382   5.136   5.226 -0.9789  0.5141 -0.4978
 1073SOL    HW2 4040   5.280   5.009   5.242 -0.7128  0.5292  1.6051
 1074SOL     OW 4041   5.490   2.501   0.961 -0.2121  0.1487 -0.5478
 1074SOL    HW1 4042   5.458   2.485   0.867 -1.1102  0.0112 -0.2286
 1074SOL    HW2 4043   5.491   2.415   1.011 -1.8716  0.5240  0.2019
 1075SOL     OW 4044   1.534   4.872   0.023 -0.4350  0.5272 -0.1814
 1075SOL    HW1 4045   1.554   4.797   0.086 -1.0789  0.3175 -0.2193
 1075SOL    HW2 4046   1.439   4.866  -0.007 -0.2846  0.9315 -0.7618
 1076SOL     OW 4047   4.155   5.486   2.637 -0.4240 -0.0503  0.2386
 1076SOL    HW1 4048   4.166   5.581   2.666 -1.3968  0.3350 -0.5643
 1076SOL    HW2 4049   4.186   5.475   2.543  0.4924 -0.7392  0.6059
 1077SOL     OW 4050   3.587   6.495   4.247 -0.4114  0.2497  0.0486
 1077SOL    HW1 4051   3.534   6.579   4.237 -0.4643  0.0306 -1.6829
 1077SOL    HW2 4052   3.684   6.515   4.234 -0.3626  0.1309  0.2259
 1078SOL     OW 4053   2.714   5.272   1.703  0.0589 -0.2814 -0.1272
 1078SOL    HW1 4054   2.723   5.280   1.603 -0.5697 -0.0204 -0.1620
 1078SOL    HW2 4055   2.618   5.278   1.729  0.3210  1.0955  0.6246
 1079SOL     OW 4056   2.808   6.317   3.959 -0.1041  0.3049  0.0175
 1079SOL    HW1 4057   2.842   6.327   3.865 -1.0808  1.6888 -0.2091
 1079SOL    HW2 4058   2.765   6.402   3.989 -1.2868 -0.6433  1.1362
 1080SOL     OW 4059   0.184   5.467   6.631 -0.4195  0.3950 -0.0389
 1080SOL    HW1 4060   0.163   5.502   6.722 -1.7108 -1.1717  0.3118
 1080SOL    HW2 4061   0.161   5.536   6.563 -1.6055  0.7557  0.6963
 1081SOL     OW 4062   4.147   6.725   1.913 -0.6004  0.0032  0.0243
 1081SOL    HW1 4063   4.215   6.662   1.874  0.1965 -0.1480  1.5955
 1081SOL    HW2 4064   4.193   6.806   1.950 -1.5155  1.0144 -0.9614
 1082SOL     OW 4065   2.058   2.230   0.288  0.4065 -0.1374 -0.2902
 1082SOL    HW1 4066   2.034   2.255   0.382  1.9154  1.4376 -0.2628
 1082SOL    HW2 4067   1.978   2.239   0.229 -0.5474 -1.1203  0.8254
 1083SOL     OW 4068   4.265   0.356   5.466 -0.4246 -0.2237  0.6151
 1083SOL    HW1 4069   4.213   0.365   5.381  2.1863 -2.2622 -1.3517
 1083SOL    HW2 4070   4.207   0.315   5.536 -2.3157  0.4631 -0.4749
 1084SOL     OW 4071   2.512   3.339   3.198 -0.3787 -0.2545  0.6008
 1084SOL    HW1 4072   2.567   3.416   3.164 -1.4483 -0.2782 -1.3316
 1084SOL    HW2 4073   2.416   3.367   3.205 -0.8854 -1.5248 -0.7079
 1085SOL     OW 4074   0.098   3.260   1.047 -0.2784 -0.0801  0.3009
 1085SOL    HW1 4075   0.019   3.199   1.042  0.1406 -0.5201 -1.7345
 1085SOL    HW2 4076   0.161   3.240   0.972  0.8282  1.5691  0.7252
 1086SOL     OW 4077   0.577   1.173   4.398 -0.4044 -0.9528 -0.1498
 1086SOL    HW1 4078   0.502   1.127   4.350 -0.3593 -0.7902 -0.3786
 1086SOL    HW2 4079   0.637   1.106   4.440 -0.9475 -1.0785  0.4428
 1087SOL     OW 4080   2.170   3.139   1.398 -0.9636  0.2705  0.1832
 1087SOL    HW1 4081   2.098   3.192   1.353  0.1486  1.4328 -0.3011
 1087SOL    HW2 4082   2.155   3.042   1.383 -1.1458  0.5858 -1.9334
 1088SOL     OW 4083   1.640   4.602   6.788 -0.9710 -0.0670 -0.4812
 1088SOL    HW1 4084   1.580   4.571   6.861 -1.3342  0.0587 -0.7280
 1088SOL    HW2 4085   1.670   4.523   6.734 -0.0055 -0.2763  0.3182
 1089SOL     OW 4086   0.508   0.505   5.614 -0.1772 -0.1333 -0.0163
 1089SOL    HW1 4087   0.576   0.550   5.557 -0.1032  0.9036  0.8500
 1089SOL    HW2 4088   0.416   0.528   5.583 -0.1466 -0.8875 -0.6952
 1090SOL     OW 4089   2.590   5.589   1.153 -0.3432  0.3505 -0.2793
 1090SOL    HW1 4090   2.533   5.621   1.078  1.6285  2.4910 -1.0084
 1090SOL    HW2 4091   2.581   5.651   1.231 -2.0369 -1.6014  1.1783
 1091SOL     OW 4092   0.115   1.266   0.204 -0.7886 -0.2177  0.6459
 1091SOL    HW1 4093   0.143   1.203   0.276  1.0095 -0.3338 -0.1011
 1091SOL    HW2 4094   0.043   1.224   0.149 -1.0959 -0.7427  1.4404
 1092SOL     OW 4095   5.973   1.303   5.856 -0.3782  0.5489 -0.2225
 1092SOL    HW1 4096   5.950   1.243   5.779 -0.2524  1.4428 -0.9802
 1092SOL    HW2 4097   6.034   1.376   5.824  1.7147 -0.4579  1.2472
 1093SOL     OW 4098   0.856   3.298   1.257  0.0409 -0.3318  0.3946
 1093SOL    HW1 4099   0.875   3.388   1.296 -3.7018  1.3136 -1.0653
 1093SOL    HW2 4100   0.883   3.227   1.322  0.7763  1.9479  2.7397
 1094SOL     OW 4101   0.803   2.810   2.039  0.6084 -0.1425  0.3561
 1094SOL    HW1 4102   0.774   2.837   2.131 -0.3521  1.0027 -0.2679
 1094SOL    HW2 4103   0.760   2.869   1.971  1.0912 -1.1489 -0.8634
 1095SOL     OW 4104   4.173   1.111   4.913  0.3017  0.3286 -0.3679
 1095SOL    HW1 4105   4.258   1.060   4.902  1.3847  2.0538 -0.4589
 1095SOL    HW2 4106   4.180   1.198   4.864 -0.3405  1.8526  2.0628
 1096SOL     OW 4107   2.358   5.359   6.099 -0.3013 -0.9609  0.8262
 1096SOL    HW1 4108   2.346   5.437   6.161  0.2838  0.5873 -0.8790
 1096SOL    HW2 4109   2.282   5.295   6.110 -2.5461  1.4080  0.2027
 1097SOL     OW 4110   0.616   5.561   1.837 -0.0832 -0.3899 -0.7708
 1097SOL    HW1 4111   0.552   5.490   1.808 -0.1025 -0.3859 -0.7379
 1097SOL    HW2 4112   0.583   5.651   1.807 -0.3044 -0.3435 -0.3924
 1098SOL     OW 4113   1.347   3.591   4.151  0.3936  0.1968 -0.1763
 1098SOL    HW1 4114   1.433   3.569   4.104 -0.1809  0.7855 -1.5517
 1098SOL    HW2 4115   1.270   3.553   4.100 -0.1836 -0.3956  1.0905
 1099SOL     OW 4116   3.538   0.385   5.043 -0.1424 -0.0589  0.0586
 1099SOL    HW1 4117   3.471   0.447   5.003  0.3495  1.5531  1.5631
 1099SOL    HW2 4118   3.531   0.295   5.001 -2.0796  0.5365 -0.9859
 1100SOL     OW 4119   1.215   6.113   3.168 -0.1640  0.1299  0.0932
 1100SOL    HW1 4120   1.291   6.157   3.215 -0.7615  1.0513  0.2304
 1100SOL    HW2 4121   1.223   6.130   3.069  1.0777 -1.7854 -0.1800
 1101SOL     OW 4122   0.501   0.086   0.117  0.3156  0.6197 -0.3106
 1101SOL    HW1 4123   0.552   0.141   0.184  0.6581  0.3203 -0.3197
 1101SOL    HW2 4124   0.412   0.062   0.155  1.5504 -1.9504  1.2589
 1102SOL     OW 4125   5.577   1.541   3.016  0.3052 -0.3745  0.0233
 1102SOL    HW1 4126   5.605   1.470   2.952  0.1916  0.2812 -0.7775
 1102SOL    HW2 4127   5.630   1.624   2.999 -1.3983  0.5878 -0.8970
 1103SOL     OW 4128   3.637   2.174   0.360  0.4983 -0.2128 -0.1319
 1103SOL    HW1 4129   3.654   2.080   0.387  0.5848 -0.0211  0.4825
 1103SOL    HW2 4130   3.539   2.189   0.347  0.3459 -0.0359  1.0993
 1104SOL     OW 4131   0.793   5.260   0.967 -0.5346  0.3669  0.3072
 1104SOL    HW1 4132   0.849   5.327   0.919 -1.1403  0.9395  0.3847
 1104SOL    HW2 4133   0.823   5.168   0.943  0.6644  0.6565  0.6237
 1105SOL     OW 4134   0.525   5.324   0.616 -0.3746 -0.1253 -0.1735
 1105SOL    HW1 4135   0.604   5.381   0.591 -0.0906  0.6207  2.2234
 1105SOL    HW2 4136   0.502   5.339   0.712 -2.4265 -1.5813 -0.3821
 1106SOL     OW 4137   3.202   6.825   5.271  0.2129  0.3556 -0.4949
 1106SOL    HW1 4138   3.279   6.836   5.335  1.6754 -0.2952 -2.0543
 1106SOL    HW2 4139   3.182   6.912   5.227 -1.1931  0.9449  1.2162
 1107SOL     OW 4140   4.171   6.717   4.703  0.0707 -0.0873  0.1078
 1107SOL    HW1 4141   4.179   6.780   4.780 -0.1393 -0.1411  0.1732
 1107SOL    HW2 4142   4.115   6.639   4.729 -0.4922  0.1833 -0.2827
 1108SOL     OW 4143   2.560   1.082   3.313 -0.0403 -0.1554  0.0439
 1108SOL    HW1 4144   2.618   1.156   3.277 -0.1673 -0.2771 -0.4153
 1108SOL    HW2 4145   2.483   1.067   3.251 -0.1988 -0.4484  0.3106
 1109SOL     OW 4146   4.203   2.203   0.191 -0.2172 -0.0162  0.6773
 1109SOL    HW1 4147   4.273   2.272   0.206 -1.8692  1.9488 -0.1401
 1109SOL    HW2 4148   4.156   2.183   0.277  1.3880 -1.4790  1.2655
 1110SOL     OW 4149   2.224   4.400   6.055  0.3623  0.3162 -0.3171
 1110SOL    HW1 4150   2.312   4.355   6.070 -0.0960 -0.9260 -1.1868
 1110SOL    HW2 4151   2.152   4.331   6.045 -0.2203  1.1429 -2.6780
 1111SOL     OW 4152   6.327   0.383   5.590  0.4447 -0.4356 -0.2581
 1111SOL    HW1 4153   6.334   0.481   5.570  0.7122 -0.5299 -0.6249
 1111SOL    HW2 4154   6.325   0.370   5.689  0.2235 -0.0474 -0.2051
 1112SOL     OW 4155   1.605   1.787   3.621 -0.0351 -0.2990  0.4888
 1112SOL    HW1 4156   1.605   1.826   3.714  1.3499 -0.1155  0.4329
 1112SOL    HW2 4157   1.514   1.752   3.600 -0.6677  0.6568  1.4983
 1113SOL     OW 4158   6.816   0.744   2.620 -0.2866  0.1243  0.2506
 1113SOL    HW1 4159   6.900   0.741   2.675  0.4946  0.6602 -0.8851
 1113SOL    HW2 4160   6.813   0.665   2.559  0.0392  0.7930 -0.6366
 1114SOL     OW 4161   5.312   4.743   6.059  0.8440 -0.5885  0.1843
 1114SOL    HW1 4162   5.389   4.680   6.055  1.2460 -0.0301 -1.9657
 1114SOL    HW2 4163   5.263   4.742   5.972  0.6180  1.7242  0.2211
 1115SOL     OW 4164   0.381   4.292   1.309  0.5939 -0.4558  0.3584
 1115SOL    HW1 4165   0.326   4.226   1.258  1.4008 -1.6176  0.9257
 1115SOL    HW2 4166   0.391   4.261   1.404 -0.9238  1.6912  1.2798
 1116SOL     OW 4167   5.351   1.908   1.528  0.0428 -0.0969 -0.0708
 1116SOL    HW1 4168   5.447   1.914   1.502  0.3776 -2.0617  0.4969
 1116SOL    HW2 4169   5.338   1.830   1.590 -1.6491  1.1107  1.1924
 1117SOL     OW 4170   6.746   2.495   6.231 -1.0452  0.4213  0.0817
 1117SOL    HW1 4171   6.665   2.482   6.175 -1.0816  1.7537 -0.2173
 1117SOL    HW2 4172   6.822   2.524   6.173  0.0497 -2.0767  0.1501
 1118SOL     OW 4173   3.830   0.473   3.842 -0.7870 -0.4082  0.1031
 1118SOL    HW1 4174   3.902   0.517   3.897  0.0744 -1.3863 -0.2153
 1118SOL    HW2 4175   3.847   0.375   3.837 -2.4116 -0.7299  0.3789
 1119SOL     OW 4176   1.857   4.902   2.616  0.2411  0.0072 -0.0621
 1119SOL    HW1 4177   1.843   4.825   2.679 -1.7757  1.2315  1.1015
 1119SOL    HW2 4178   1.942   4.888   2.565 -0.4413 -3.3511 -0.4964
 1120SOL     OW 4179   4.801   6.234   5.906  0.2562  0.4843  0.5114
 1120SOL    HW1 4180   4.894   6.249   5.940 -0.2975  0.6702  2.0469
 1120SOL    HW2 4181   4.803   6.218   5.807  2.0271 -0.6457  0.6949
 1121SOL     OW 4182   2.279   4.658   2.846 -0.6024 -0.0955 -0.4900
 1121SOL    HW1 4183   2.290   4.559   2.831 -0.7808 -0.2686  0.4488
 1121SOL    HW2 4184   2.368   4.698   2.869 -0.5824 -0.0931 -0.5721
 1122SOL     OW 4185   4.547   2.520   1.510  0.8402  0.4573  0.0288
 1122SOL    HW1 4186   4.512   2.438   1.464  3.4109  0.8441 -2.9318
 1122SOL    HW2 4187   4.619   2.495   1.574  0.7857  0.3191  0.0367
 1123SOL     OW 4188   2.265   2.384   0.743 -0.1460 -0.0819 -0.2341
 1123SOL    HW1 4189   2.269   2.482   0.722 -0.0805 -0.1988 -0.7587
 1123SOL    HW2 4190   2.311   2.368   0.831 -2.3318  0.7051  1.1352
 1124SOL     OW 4191   1.054   2.169   2.011 -0.0847 -0.6825  0.2339
 1124SOL    HW1 4192   0.988   2.206   1.945  1.0983  0.8054 -0.1727
 1124SOL    HW2 4193   1.037   2.209   2.101 -0.4448 -1.1880  0.3960
 1125SOL     OW 4194   2.336   4.735   1.821  0.0373 -0.0136  0.1068
 1125SOL    HW1 4195   2.298   4.818   1.780 -1.4108 -1.0750 -0.8114
 1125SOL    HW2 4196   2.403   4.694   1.759  1.5020  0.9520  0.9896
 1126SOL     OW 4197   3.461   6.824   1.227  0.2183  0.6950 -0.2233
 1126SOL    HW1 4198   3.401   6.883   1.172 -0.4200 -0.2139 -0.5309
 1126SOL    HW2 4199   3.448   6.845   1.324 -0.5009  0.6182 -0.2913
 1127SOL     OW 4200   1.918   6.554   3.712 -0.1992 -0.3991 -0.1082
 1127SOL    HW1 4201   1.881   6.623   3.775  0.2660 -0.3667  0.1321
 1127SOL    HW2 4202   1.963   6.482   3.764 -0.6546 -0.8752 -0.3604
 1128SOL     OW 4203   0.287   4.303   5.099  0.0343  0.0563 -0.4764
 1128SOL    HW1 4204   0.301   4.231   5.031  1.5502 -0.4803  0.3630
 1128SOL    HW2 4205   0.202   4.285   5.148  0.5805 -1.4065 -0.0119
 1129SOL     OW 4206   4.202   4.677   3.370  0.4190  0.6292 -0.1274
 1129SOL    HW1 4207   4.299   4.699   3.364  0.3973  1.3586  1.6227
 1129SOL    HW2 4208   4.148   4.756   3.340  0.3065 -0.1077 -2.0687
 1130SOL     OW 4209   1.225   0.090   3.901 -0.4188  0.0801 -0.1252
 1130SOL    HW1 4210   1.176   0.027   3.840  0.8584 -1.5666  0.4831
 1130SOL    HW2 4211   1.202   0.184   3.875 -1.8991 -0.5837 -1.4752
 1131SOL     OW 4212   5.968   0.896   6.974 -0.0960 -0.0571  0.0413
 1131SOL    HW1 4213   5.905   0.941   7.038  0.3618  2.3031 -1.0461
 1131SOL    HW2 4214   5.917   0.834   6.916 -1.0887  0.3201  0.4848
 1132SOL     OW 4215   3.338   0.185   3.757  0.5781  0.2314 -0.3218
 1132SOL    HW1 4216   3.281   0.256   3.716  0.5453  0.5768  0.3175
 1132SOL    HW2 4217   3.427   0.185   3.711  0.4902  0.5113 -0.4997
 1133SOL     OW 4218   3.105   0.874   2.108  0.4335 -0.4035 -0.0846
 1133SOL    HW1 4219   3.100   0.911   2.015 -2.1303  0.9329  0.5084
 1133SOL    HW2 4220   3.020   0.826   2.130  1.7246 -2.3245  0.9678
 1134SOL     OW 4221   1.372   3.039   2.276  0.5332 -0.1762  0.4603
 1134SOL    HW1 4222   1.365   3.107   2.350  3.2806  1.8433 -0.9445
 1134SOL    HW2 4223   1.333   3.078   2.193  0.9452 -0.8863 -0.0660
 1135SOL     OW 4224   0.766   0.901   3.277  0.0112  0.4676  0.1210
 1135SOL    HW1 4225   0.771   0.928   3.181 -0.4968 -2.8562 -0.9672
 1135SOL    HW2 4226   0.857   0.879   3.311 -0.0729 -0.7451 -0.4079
 1136SOL     OW 4227   0.224   5.601   2.716  0.4137  0.2949  0.3589
 1136SOL    HW1 4228   0.160   5.525   2.724  1.1480 -0.4052 -0.3163
 1136SOL    HW2 4229   0.307   5.580   2.768  0.9575  0.2649 -0.5152
 1137SOL     OW 4230   4.298   5.196   3.575 -0.0538  0.3163 -0.2164
 1137SOL    HW1 4231   4.246   5.113   3.552 -2.4989  1.4194  0.9813
 1137SOL    HW2 4232   4.248   5.276   3.543  0.6370  1.4635  1.4741
 1138SOL     OW 4233   3.474   6.218   3.173 -0.4330  0.5033 -0.3001
 1138SOL    HW1 4234   3.494   6.316   3.183  0.3259  0.2949  0.3804
 1138SOL    HW2 4235   3.517   6.183   3.090 -2.1515  1.0945 -1.4812
 1139SOL     OW 4236   6.601   4.432   1.680  0.2987 -0.5290  0.3778
 1139SOL    HW1 4237   6.656   4.406   1.760  0.9174 -0.2493  0.0516
 1139SOL    HW2 4238   6.621   4.369   1.605  0.7675  0.0372  0.0150
 1140SOL     OW 4239   4.409   2.421   5.707 -0.3340  0.1583  0.6588
 1140SOL    HW1 4240   4.391   2.394   5.613  0.7788  0.4039  0.3633
 1140SOL    HW2 4241   4.469   2.501   5.708 -0.4219  0.2230  1.5768
 1141SOL     OW 4242   2.713   0.348   1.780  0.1286  0.4534 -0.1544
 1141SOL    HW1 4243   2.808   0.372   1.762  0.5475 -0.6678  0.4313
 1141SOL    HW2 4244   2.706   0.249   1.793 -1.5203  0.1547 -2.5864
 1142SOL     OW 4245   6.773   5.290   3.588  0.6691 -0.0443  0.6199
 1142SOL    HW1 4246   6.872   5.283   3.596  0.5803 -2.7372  0.4456
 1142SOL    HW2 4247   6.733   5.315   3.676  1.4052 -0.7430  1.1605
 1143SOL     OW 4248   1.648   5.356   2.874 -0.7973 -0.8431 -0.3376
 1143SOL    HW1 4249   1.697   5.282   2.827 -0.8657 -0.8359 -0.4206
 1143SOL    HW2 4250   1.572   5.387   2.817 -0.7453 -0.6818 -0.3203
 1144SOL     OW 4251   1.410   0.048   1.014  0.6469  0.5261 -0.5287
 1144SOL    HW1 4252   1.447   0.138   0.989 -0.3692  0.7197 -1.4342
 1144SOL    HW2 4253   1.348   0.017   0.942 -2.7601  1.2681  1.8383
 1145SOL     OW 4254   5.648   4.626   5.392 -0.1244  0.4345 -0.3597
 1145SOL    HW1 4255   5.733   4.619   5.444 -0.4018  0.7523  0.1389
 1145SOL    HW2 4256   5.633   4.541   5.341 -0.8166 -0.6796  1.5767
 1146SOL     OW 4257   1.731   6.338   3.967  0.5412 -0.1437 -0.4283
 1146SOL    HW1 4258   1.769   6.290   3.889  0.1111  1.9562 -2.0240
 1146SOL    HW2 4259   1.634   6.357   3.951  1.1304  3.0053 -0.9024
 1147SOL     OW 4260   6.332   4.161   5.344 -0.3171  0.0344 -0.3674
 1147SOL    HW1 4261   6.316   4.164   5.442 -0.6076  0.4129 -0.4255
 1147SOL    HW2 4262   6.427   4.134   5.326 -1.0710 -3.2626 -0.0251
 1148SOL     OW 4263   3.467   5.118   5.434  0.4257  0.5879 -0.0062
 1148SOL    HW1 4264   3.421   5.205   5.419  0.2844  0.8125  1.6247
 1148SOL    HW2 4265   3.399   5.046   5.445  0.5394  0.0841 -2.0991
 1149SOL     OW 4266   4.402   4.124   0.054  0.4895 -0.2746  0.0328
 1149SOL    HW1 4267   4.326   4.186   0.071  1.1542 -0.1373  3.1046
 1149SOL    HW2 4268   4.479   4.175   0.016 -0.3812 -0.1418 -1.6725
 1150SOL     OW 4269   5.227   3.002   1.893  0.2972  0.4221 -0.5369
 1150SOL    HW1 4270   5.253   3.008   1.989 -0.8904  1.6547 -0.2597
 1150SOL    HW2 4271   5.128   2.988   1.886  0.4163 -0.0335 -1.5900
 1151SOL     OW 4272   6.852   4.211   3.295 -0.4197  0.2074  0.0546
 1151SOL    HW1 4273   6.911   4.214   3.215 -0.5609 -0.2863 -0.0681
 1151SOL    HW2 4274   6.877   4.286   3.357  1.4720 -0.9631  0.7965
 1152SOL     OW 4275   3.737   1.678   4.806 -0.2649 -0.3994  0.3353
 1152SOL    HW1 4276   3.744   1.754   4.871  0.1812 -1.4212  1.5172
 1152SOL    HW2 4277   3.716   1.594   4.855 -2.1079 -0.8411 -1.0877
 1153SOL     OW 4278   4.193   4.015   0.381  0.4740  0.4277 -0.5936
 1153SOL    HW1 4279   4.264   4.075   0.418  0.1029  1.0342 -0.8577
 1153SOL    HW2 4280   4.230   3.923   0.370  1.1044  0.6497 -0.3658
 1154SOL     OW 4281   0.384   4.068   3.099  0.3110  0.1280 -0.5932
 1154SOL    HW1 4282   0.425   4.152   3.135  0.6754 -0.0797 -0.5245
 1154SOL    HW2 4283   0.456   4.008   3.065  0.2411 -1.0334  1.1765
 1155SOL     OW 4284   1.789   3.044   5.934 -0.0518  0.1925  0.0241
 1155SOL    HW1 4285   1.744   2.964   5.974  1.4286 -0.1362  1.1206
 1155SOL    HW2 4286   1.784   3.120   5.998  0.7135  0.2193  0.0665
 1156SOL     OW 4287   2.675   6.466   5.499  0.7949  0.1330  0.3327
 1156SOL    HW1 4288   2.652   6.397   5.430 -3.7479 -0.8805  2.4647
 1156SOL    HW2 4289   2.628   6.551   5.477 -0.2625 -0.0350  1.7803
 1157SOL     OW 4290   3.117   2.757   6.292  0.3607  0.5220 -0.4585
 1157SOL    HW1 4291   3.158   2.716   6.211  0.2824  1.6886 -1.1053
 1157SOL    HW2 4292   3.145   2.852   6.299  0.0202  0.5579  0.6623
 1158SOL     OW 4293   0.799   3.850   0.471 -0.1373  0.2250  0.6993
 1158SOL    HW1 4294   0.766   3.756   0.465  0.1615  0.2195 -1.5677
 1158SOL    HW2 4295   0.875   3.855   0.536  0.8151 -1.4281 -0.2103
 1159SOL     OW 4296   3.150   6.069   4.218 -0.2176 -0.3724 -0.0249
 1159SOL    HW1 4297   3.086   5.996   4.193 -0.8251 -0.0861  0.6367
 1159SOL    HW2 4298   3.100   6.156   4.222  0.3973  0.0001 -0.3233
 1160SOL     OW 4299   6.228   5.106   2.969 -0.1729  0.7781 -0.3037
 1160SOL    HW1 4300   6.235   5.157   2.883 -0.3611  0.5798 -0.4383
 1160SOL    HW2 4301   6.200   5.012   2.949 -1.3697  1.0415  0.0649
 1161SOL     OW 4302   0.835   0.150   4.750 -0.2903 -0.3240  0.0080
 1161SOL    HW1 4303   0.905   0.143   4.821  2.6042 -1.2486 -2.6722
 1161SOL    HW2 4304   0.744   0.147   4.791  1.1837  0.4540  3.6757
 1162SOL     OW 4305   6.215   2.955   2.236  0.3367  0.4770 -0.0992
 1162SOL    HW1 4306   6.156   3.035   2.220  0.9349  1.0158  0.3251
 1162SOL    HW2 4307   6.176   2.898   2.308  0.6394  1.1660  0.6286
 1163SOL     OW 4308   4.797   5.821   4.367  0.5144 -0.3803  0.6217
 1163SOL    HW1 4309   4.789   5.722   4.373  0.5652 -0.3215  2.2461
 1163SOL    HW2 4310   4.791   5.850   4.272 -1.8356 -1.7418  0.2826
 1164SOL     OW 4311   0.825   2.895   1.323  0.5845 -0.3765 -0.4201
 1164SOL    HW1 4312   0.761   2.925   1.394  2.1405 -0.3572  1.0574
 1164SOL    HW2 4313   0.841   2.797   1.331  1.2157 -0.2733 -0.3505
 1165SOL     OW 4314   6.331   4.740   4.263  0.1238 -0.0548  0.1975
 1165SOL    HW1 4315   6.394   4.753   4.339 -1.5203 -0.2566  1.6585
 1165SOL    HW2 4316   6.371   4.677   4.197  1.0533 -0.9637  1.5663
 1166SOL     OW 4317   1.365   4.520   3.502 -0.1496 -0.3184 -0.2411
 1166SOL    HW1 4318   1.276   4.560   3.523 -0.0996 -0.6173  0.5671
 1166SOL    HW2 4319   1.422   4.520   3.584  1.5200  2.1479 -1.2755
 1167SOL     OW 4320   5.177   1.247   0.675  0.0998  0.5741 -0.8581
 1167SOL    HW1 4321   5.229   1.332   0.684  0.8366 -0.0289  1.0856
 1167SOL    HW2 4322   5.079   1.269   0.673  0.3118  1.5217 -1.3031
 1168SOL     OW 4323   3.956   1.732   5.526 -0.3820  0.3498 -0.6459
 1168SOL    HW1 4324   4.017   1.811   5.521 -0.8189  0.7582  0.2231
 1168SOL    HW2 4325   4.008   1.649   5.505  1.0419  0.4336  2.1290
 1169SOL     OW 4326   3.054   2.617   1.017  0.0799 -0.1414 -0.0027
 1169SOL    HW1 4327   3.022   2.585   0.928  1.1302 -1.4385  0.0482
 1169SOL    HW2 4328   3.082   2.712   1.010 -1.4189  0.2808 -0.6301
 1170SOL     OW 4329   6.598   5.107   1.848  0.0802  0.2314 -0.1059
 1170SOL    HW1 4330   6.577   5.042   1.774  0.6197 -0.7180  0.5534
 1170SOL    HW2 4331   6.540   5.087   1.927  2.1448 -1.3101  1.1208
 1171SOL     OW 4332   5.872   0.605   1.554 -0.6734  0.0895 -0.9020
 1171SOL    HW1 4333   5.877   0.703   1.575  0.0280 -0.0036 -0.6119
 1171SOL    HW2 4334   5.786   0.567   1.589 -0.0042  0.1515  0.9126
 1172SOL     OW 4335   0.209   1.654   0.608  0.1384 -0.3830  0.1504
 1172SOL    HW1 4336   0.221   1.658   0.707 -2.0185  1.1498  0.4225
 1172SOL    HW2 4337   0.280   1.708   0.563  1.0022 -0.9092  0.8499
 1173SOL     OW 4338   1.864   4.826   6.057  0.4235 -0.5365 -0.1799
 1173SOL    HW1 4339   1.929   4.820   5.982  0.0410  1.3997 -0.7217
 1173SOL    HW2 4340   1.782   4.773   6.034  0.1486  0.3547 -1.3234
 1174SOL     OW 4341   2.163   2.168   4.416  0.0796 -0.2711  0.3689
 1174SOL    HW1 4342   2.147   2.263   4.445  2.1030  0.7179 -1.4707
 1174SOL    HW2 4343   2.082   2.134   4.368 -0.0468  1.2028 -0.5543
 1175SOL     OW 4344   5.252   0.389   3.772  0.3170  0.1355 -0.0564
 1175SOL    HW1 4345   5.293   0.401   3.682 -0.1713  0.5537 -0.2303
 1175SOL    HW2 4346   5.179   0.321   3.767  0.9582 -0.5822  0.2438
 1176SOL     OW 4347   4.709   4.779   1.981  0.3073 -0.0334  0.1180
 1176SOL    HW1 4348   4.744   4.687   1.961  0.7041 -0.0144  0.6950
 1176SOL    HW2 4349   4.736   4.842   1.909 -0.5508 -0.5070 -0.6325
 1177SOL     OW 4350   3.477   1.530   5.499 -0.0955  0.3284  0.3484
 1177SOL    HW1 4351   3.484   1.627   5.520 -2.4940  0.7389 -0.4091
 1177SOL    HW2 4352   3.485   1.517   5.400  0.5109 -0.2763  0.4758
 1178SOL     OW 4353   4.422   3.948   1.890 -0.5144 -0.0846 -0.4033
 1178SOL    HW1 4354   4.410   4.023   1.956 -1.9073 -0.2255 -0.4566
 1178SOL    HW2 4355   4.506   3.962   1.838 -0.7215  1.4255 -0.3781
 1179SOL     OW 4356   0.057   2.492   6.550  0.0779  0.0034  0.1233
 1179SOL    HW1 4357   0.087   2.539   6.467  3.9460  1.2104  1.9623
 1179SOL    HW2 4358  -0.013   2.547   6.596 -0.6046  0.3415 -1.2633
 1180SOL     OW 4359   0.098   2.038   3.409  0.3673 -0.2462 -0.2392
 1180SOL    HW1 4360   0.050   2.009   3.492  1.2030 -0.2997  0.2379
 1180SOL    HW2 4361   0.147   1.960   3.370 -0.6153 -0.4100 -1.2255
 1181SOL     OW 4362   6.303   3.486   3.574 -0.2424 -0.2413  0.2016
 1181SOL    HW1 4363   6.237   3.536   3.518 -1.4196 -1.7524  0.1910
 1181SOL    HW2 4364   6.382   3.460   3.517 -0.9253 -0.8144 -0.5044
 1182SOL     OW 4365   6.418   4.657   0.363  0.2999  0.5283  0.3307
 1182SOL    HW1 4366   6.513   4.683   0.352 -0.0161  1.4236 -0.4189
 1182SOL    HW2 4367   6.367   4.680   0.279 -0.7145  0.7723  0.9924
 1183SOL     OW 4368   6.053   6.039   3.374  0.5209  0.3036  0.2373
 1183SOL    HW1 4369   6.124   5.981   3.414  1.8613  1.3083 -0.5870
 1183SOL    HW2 4370   6.000   5.986   3.308  0.0138 -0.6464  1.3751
 1184SOL     OW 4371   2.649   3.042   5.304  0.6902 -0.1805  0.1212
 1184SOL    HW1 4372   2.743   3.078   5.295  0.6207 -0.3680 -1.4442
 1184SOL    HW2 4373   2.645   2.980   5.383  2.3631 -1.6292 -0.8592
 1185SOL     OW 4374   6.534   0.402   1.172 -0.0189  0.2934 -0.5237
 1185SOL    HW1 4375   6.473   0.394   1.251 -0.8991 -1.3885 -1.3178
 1185SOL    HW2 4376   6.509   0.333   1.104  0.6706  1.7192 -2.3062
 1186SOL     OW 4377   3.793   5.047   2.913 -0.4866  0.2890 -0.8056
 1186SOL    HW1 4378   3.764   5.140   2.888  0.7405  0.9942  0.3100
 1186SOL    HW2 4379   3.717   5.000   2.959 -1.2157  0.6153 -1.6484
 1187SOL     OW 4380   0.591   6.237   6.728  0.0915 -0.5085  0.1375
 1187SOL    HW1 4381   0.628   6.329   6.735 -2.1586  0.3493  1.9634
 1187SOL    HW2 4382   0.652   6.173   6.774  1.3445  0.1319 -0.5766
 1188SOL     OW 4383   1.924   4.700   4.882  0.1124  0.0464  0.4904
 1188SOL    HW1 4384   2.017   4.687   4.848  0.0192 -1.1357  0.6362
 1188SOL    HW2 4385   1.887   4.786   4.848  0.3254 -0.6832 -1.7534
 1189SOL     OW 4386   5.439   6.730   0.251  0.3701 -0.5184 -0.0992
 1189SOL    HW1 4387   5.418   6.789   0.329  1.2126 -1.5188  0.9203
 1189SOL    HW2 4388   5.529   6.753   0.215  0.1810 -0.3751 -0.4860
 1190SOL     OW 4389   1.856   0.422   0.753 -0.5624 -0.4302  0.4869
 1190SOL    HW1 4390   1.834   0.352   0.821 -0.6706  0.1883  1.0952
 1190SOL    HW2 4391   1.852   0.381   0.661 -0.7386 -1.1892  0.8223
 1191SOL     OW 4392   2.151   1.583   4.561  0.2526 -0.1921 -0.6896
 1191SOL    HW1 4393   2.248   1.607   4.558 -0.0638  1.4994  0.7852
 1191SOL    HW2 4394   2.133   1.506   4.500  2.7808 -1.5244  0.1407
 1192SOL     OW 4395   2.330   3.226   6.535 -0.7812 -0.2798 -0.0366
 1192SOL    HW1 4396   2.399   3.155   6.547 -0.8746 -0.3667 -0.0137
 1192SOL    HW2 4397   2.289   3.250   6.623 -0.6791 -0.1262 -0.0302
 1193SOL     OW 4398   3.129   4.023   0.415 -0.4045 -0.0629  1.1068
 1193SOL    HW1 4399   3.114   3.927   0.438 -1.8377  0.2557  1.5823
 1193SOL    HW2 4400   3.095   4.081   0.488  0.0730  0.8316  0.6414
 1194SOL     OW 4401   1.629   6.169   0.569 -0.0581  0.3953  0.0840
 1194SOL    HW1 4402   1.616   6.207   0.661  4.6951 -0.9594  1.6006
 1194SOL    HW2 4403   1.669   6.240   0.510  0.8923  0.1348  0.3958
 1195SOL     OW 4404   3.900   0.417   6.213  0.4831  0.5708  0.1560
 1195SOL    HW1 4405   3.951   0.433   6.129  2.0829 -1.0034  0.7705
 1195SOL    HW2 4406   3.881   0.319   6.223 -1.3797  0.9370  0.7044
 1196SOL     OW 4407   0.570   5.979   3.421  0.4037 -0.0830  0.7617
 1196SOL    HW1 4408   0.474   5.991   3.395 -0.0746  0.7062  2.6937
 1196SOL    HW2 4409   0.599   5.887   3.398 -0.6747 -0.1893 -0.2796
 1197SOL     OW 4410   5.915   5.617   3.603 -0.0758 -0.0109 -0.2142
 1197SOL    HW1 4411   5.839   5.586   3.660 -1.7391  0.5529 -2.0154
 1197SOL    HW2 4412   5.986   5.657   3.661 -0.6190 -1.5236  1.6195
 1198SOL     OW 4413   2.117   2.109   1.165  0.3199 -0.3911  0.4412
 1198SOL    HW1 4414   2.190   2.169   1.195 -0.0458  0.5463 -0.4741
 1198SOL    HW2 4415   2.036   2.123   1.221  0.6536 -1.0338  1.1019
 1199SOL     OW 4416   2.850   6.558   5.180  0.1435 -0.5631  0.8959
 1199SOL    HW1 4417   2.775   6.515   5.229  0.7216 -2.8606 -0.1235
 1199SOL    HW2 4418   2.932   6.558   5.237  0.4002 -1.7971  0.5612
 1200SOL     OW 4419   1.527   3.174   4.697  0.3363  0.1494 -0.6205
 1200SOL    HW1 4420   1.624   3.197   4.688  0.1422  0.6571 -1.5039
 1200SOL    HW2 4421   1.502   3.105   4.630  0.3341 -0.8387  0.3657
 1201SOL     OW 4422   0.245   5.094   2.432  0.4133  0.0648 -0.4891
 1201SOL    HW1 4423   0.288   5.020   2.483 -0.2922  0.0357  0.0651
 1201SOL    HW2 4424   0.157   5.064   2.397  0.1478  0.6271 -0.3063
 1202SOL     OW 4425   4.286   4.422   1.167 -0.2740  0.1877  0.0393
 1202SOL    HW1 4426   4.299   4.449   1.262  1.8517  1.6736 -0.5972
 1202SOL    HW2 4427   4.292   4.322   1.159  1.5857  0.1588  1.2333
 1203SOL     OW 4428   2.893   5.738   4.311  0.3095  0.1529 -0.2691
 1203SOL    HW1 4429   2.859   5.796   4.385  2.0602  2.6617 -1.2718
 1203SOL    HW2 4430   2.822   5.674   4.283 -1.7835  1.8324  0.9132
 1204SOL     OW 4431   0.994   2.176   3.571 -0.3488  0.1825 -0.7199
 1204SOL    HW1 4432   0.894   2.165   3.574 -0.3044 -0.0584 -0.0115
 1204SOL    HW2 4433   1.029   2.186   3.664  0.4541 -1.2056 -0.8565
 1205SOL     OW 4434   0.358   5.746   5.774  0.3143  0.0541 -0.1186
 1205SOL    HW1 4435   0.450   5.764   5.739 -0.1582  1.1030 -0.8841
 1205SOL    HW2 4436   0.300   5.825   5.756 -0.8542 -0.7604 -0.0091
 1206SOL     OW 4437   0.090   3.112   0.557 -0.3619  0.4518  0.0121
 1206SOL    HW1 4438   0.070   3.170   0.478 -1.9319 -0.3359 -0.1920
 1206SOL    HW2 4439   0.005   3.089   0.604  0.3810 -0.5366  0.9116
 1207SOL     OW 4440   6.956   0.498   3.631 -0.1183 -0.6205  0.2032
 1207SOL    HW1 4441   7.041   0.547   3.651 -0.1064  0.6658 -2.4846
 1207SOL    HW2 4442   6.883   0.564   3.611 -0.6432 -1.6430 -1.5278
 1208SOL     OW 4443   6.032   0.170   2.678 -0.2442 -0.1779  0.2223
 1208SOL    HW1 4444   6.111   0.231   2.688  0.3664 -0.7448 -1.0361
 1208SOL    HW2 4445   5.957   0.204   2.736 -0.0150  1.9201 -0.6022
 1209SOL     OW 4446   3.392   0.533   6.356 -0.5344 -0.1573 -0.4607
 1209SOL    HW1 4447   3.361   0.449   6.311  0.3173 -1.5779  1.4503
 1209SOL    HW2 4448   3.485   0.553   6.328 -0.8536  0.3568 -1.1729
 1210SOL     OW 4449   5.066   3.045   1.443 -0.2859  0.5729  0.1522
 1210SOL    HW1 4450   5.067   3.059   1.344 -3.1628 -0.8073 -0.1688
 1210SOL    HW2 4451   5.105   2.955   1.464 -1.3525  0.0789  0.0624
 1211SOL     OW 4452   6.131   2.842   6.163 -0.8950  0.4821  0.3596
 1211SOL    HW1 4453   6.032   2.826   6.160 -0.7731 -0.1843 -1.7133
 1211SOL    HW2 4454   6.175   2.767   6.213 -1.4261  0.9743  1.6233
 1212SOL     OW 4455   4.174   4.307   2.384  0.6219 -0.2571  0.3967
 1212SOL    HW1 4456   4.106   4.299   2.311 -0.1684  1.0708  0.9534
 1212SOL    HW2 4457   4.266   4.305   2.345  0.2791 -1.7820 -0.4025
 1213SOL     OW 4458   5.301   5.064   4.965  0.2437 -0.1720 -0.0674
 1213SOL    HW1 4459   5.302   4.991   5.033 -0.7239  1.0566  1.3411
 1213SOL    HW2 4460   5.207   5.079   4.933  0.5673 -0.1693 -1.0444
 1214SOL     OW 4461   1.436   4.186   5.562 -0.7228  0.1078  0.3098
 1214SOL    HW1 4462   1.475   4.126   5.492  1.5619  0.7773  0.9181
 1214SOL    HW2 4463   1.510   4.223   5.619 -2.5017 -1.1116  3.6662
 1215SOL     OW 4464   5.366   0.087   3.801  0.3461 -1.1329 -0.7022
 1215SOL    HW1 4465   5.459   0.123   3.801 -0.3616  0.8048 -1.2469
 1215SOL    HW2 4466   5.306   0.150   3.849 -0.9159 -1.7365 -1.4402
 1216SOL     OW 4467   3.187   3.969   4.102 -0.0907  0.0787 -0.3004
 1216SOL    HW1 4468   3.128   3.918   4.165 -0.5925 -0.2881 -1.0557
 1216SOL    HW2 4469   3.131   4.012   4.031  0.4596  0.5682 -0.4514
 1217SOL     OW 4470   4.784   1.514   3.919 -0.6107 -0.1685  0.5417
 1217SOL    HW1 4471   4.790   1.436   3.857 -0.0961  0.0069  0.3694
 1217SOL    HW2 4472   4.783   1.482   4.013  0.5048 -0.3506  0.5056
 1218SOL     OW 4473   5.413   6.213   2.578  0.0796  0.3344 -0.2857
 1218SOL    HW1 4474   5.351   6.135   2.572 -0.4838  0.8486 -1.3972
 1218SOL    HW2 4475   5.505   6.184   2.553  0.0221 -0.1313  0.0208
 1219SOL     OW 4476   4.719   0.076   5.365 -0.0410  0.0805  0.6088
 1219SOL    HW1 4477   4.762  -0.010   5.335 -0.5703  0.0502 -0.0928
 1219SOL    HW2 4478   4.790   0.141   5.390  0.5204  0.4417 -1.6686
 1220SOL     OW 4479   6.034   0.076   2.405 -0.1746  0.3464  0.1128
 1220SOL    HW1 4480   6.058   0.092   2.500 -0.2628 -1.2317  0.4136
 1220SOL    HW2 4481   6.117   0.077   2.349  0.0345 -0.1506  0.4153
 1221SOL     OW 4482   5.461   4.943   2.228  0.0467 -0.4307  0.0546
 1221SOL    HW1 4483   5.526   4.901   2.165 -0.4626 -0.6574 -0.3308
 1221SOL    HW2 4484   5.510   4.987   2.303  0.6171 -1.0293  0.0382
 1222SOL     OW 4485   1.204   1.565   2.443 -0.0812 -0.2959 -0.1296
 1222SOL    HW1 4486   1.268   1.543   2.369 -1.8723 -0.4483 -1.7171
 1222SOL    HW2 4487   1.148   1.644   2.416  1.3465  1.7517  2.4517
 1223SOL     OW 4488   1.767   1.819   4.914 -0.2275 -0.4629  0.5600
 1223SOL    HW1 4489   1.822   1.745   4.877  0.0501 -0.0305  0.0964
 1223SOL    HW2 4490   1.697   1.781   4.974 -0.3627 -1.1327 -0.0060
 1224SOL     OW 4491   4.351   3.497   5.191 -0.0587 -0.4589 -0.3460
 1224SOL    HW1 4492   4.259   3.524   5.218  1.1256  1.4806  2.1479
 1224SOL    HW2 4493   4.366   3.401   5.216 -0.5868 -0.0408  1.8064
 1225SOL     OW 4494   3.320   3.479   0.172 -0.2719  0.1982  0.6293
 1225SOL    HW1 4495   3.270   3.533   0.104 -0.5162 -0.9997 -0.1531
 1225SOL    HW2 4496   3.263   3.403   0.202  0.7582 -0.6834  0.3671
 1226SOL     OW 4497   3.882   1.242   3.533  0.0134 -0.0016 -0.1133
 1226SOL    HW1 4498   3.801   1.293   3.504 -0.9322 -1.7518 -0.6943
 1226SOL    HW2 4499   3.930   1.293   3.604 -2.0528  0.7365  0.8321
 1227SOL     OW 4500   4.541   0.224   0.046 -0.4387 -0.0989  0.1616
 1227SOL    HW1 4501   4.614   0.267  -0.007 -1.4190  2.6725  0.8930
 1227SOL    HW2 4502   4.576   0.191   0.133  0.0951  0.3673  0.1219
 1228SOL     OW 4503   1.367   3.904   3.426 -0.6833 -0.2960  0.8089
 1228SOL    HW1 4504   1.412   3.966   3.361  1.0648 -0.3032  1.9519
 1228SOL    HW2 4505   1.307   3.957   3.486 -4.5396 -0.5500 -2.3455
 1229SOL     OW 4506   6.191   4.641   3.936 -0.1366  0.5825 -0.0967
 1229SOL    HW1 4507   6.125   4.637   3.861  0.7310  0.0416 -0.8353
 1229SOL    HW2 4508   6.273   4.690   3.906 -0.4880  1.9704  1.0638
 1230SOL     OW 4509   5.218   5.695   4.651 -0.1134 -0.7281  0.5914
 1230SOL    HW1 4510   5.285   5.767   4.668 -2.4482  2.3082 -1.8652
 1230SOL    HW2 4511   5.206   5.683   4.552 -1.7430 -2.5822  0.9460
 1231SOL     OW 4512   1.984   2.625   0.791  0.1274 -0.1463  0.1518
 1231SOL    HW1 4513   2.050   2.583   0.853  0.3572  0.0027  0.0110
 1231SOL    HW2 4514   2.013   2.609   0.696  0.5521  0.8553  0.1028
 1232SOL     OW 4515   2.310   1.574   2.549  0.3508  0.7684  0.0100
 1232SOL    HW1 4516   2.331   1.619   2.636  0.3073  1.7304 -0.4713
 1232SOL    HW2 4517   2.349   1.626   2.474 -2.8771  2.1450 -0.8661
 1233SOL     OW 4518   3.246   5.669   5.930  0.2261  0.1063  0.0530
 1233SOL    HW1 4519   3.199   5.755   5.949 -1.3185 -0.6212 -0.3512
 1233SOL    HW2 4520   3.257   5.658   5.832 -0.9396 -0.8418  0.0151
 1234SOL     OW 4521   1.461   6.863   4.413 -0.4728 -0.4284  0.0018
 1234SOL    HW1 4522   1.441   6.920   4.334 -0.4976  0.1829  0.4425
 1234SOL    HW2 4523   1.383   6.866   4.476 -1.9992 -3.6612 -1.4914
 1235SOL     OW 4524   1.720   5.901   4.699 -0.2419 -0.3356 -0.8070
 1235SOL    HW1 4525   1.751   5.833   4.632  0.8923  0.8365 -1.5268
 1235SOL    HW2 4526   1.630   5.935   4.673  0.2901  0.2787 -1.8997
 1236SOL     OW 4527   0.005   6.157   0.927  0.4903  0.3277 -0.2552
 1236SOL    HW1 4528  -0.070   6.220   0.946  0.9663  1.3626 -1.5995
 1236SOL    HW2 4529  -0.029   6.079   0.874 -0.2382 -0.9680  2.0214
 1237SOL     OW 4530   3.527   0.703   4.782  0.0219 -0.2648  0.1537
 1237SOL    HW1 4531   3.467   0.693   4.861  0.1358  0.8374  0.4016
 1237SOL    HW2 4532   3.553   0.799   4.772 -1.0499 -0.1467 -2.0139
 1238SOL     OW 4533   6.086   1.191   1.273 -0.0500  0.0422 -0.1748
 1238SOL    HW1 4534   6.167   1.214   1.219  0.7397  0.1701  1.0233
 1238SOL    HW2 4535   6.084   1.092   1.288  0.3404  0.1299  0.4815
 1239SOL     OW 4536   3.675   3.345   2.545 -0.6554  0.6849  0.6411
 1239SOL    HW1 4537   3.596   3.405   2.533 -0.5502  0.5184 -1.1002
 1239SOL    HW2 4538   3.752   3.398   2.582 -0.6162  1.6115 -0.7106
 1240SOL     OW 4539   1.325   1.525   1.042  0.0416 -0.2050  0.4984
 1240SOL    HW1 4540   1.337   1.465   1.121 -0.0191  0.0225  0.6816
 1240SOL    HW2 4541   1.289   1.613   1.072  1.5527  0.4699  0.4417
 1241SOL     OW 4542   5.313   6.872   2.520  0.3253 -0.2764 -0.1758
 1241SOL    HW1 4543   5.322   6.844   2.424 -0.5132  1.0833 -0.6742
 1241SOL    HW2 4544   5.398   6.850   2.569  1.1923  0.0144 -1.4885
 1242SOL     OW 4545   4.929   1.995   0.839  0.4316  0.8231  0.0317
 1242SOL    HW1 4546   5.015   1.960   0.876 -0.6067 -2.8267 -0.5980
 1242SOL    HW2 4547   4.926   1.976   0.740 -0.2950  2.8080 -0.3711
 1243SOL     OW 4548   0.760   2.057   2.290 -0.4343  0.5780  0.1083
 1243SOL    HW1 4549   0.727   2.126   2.225  1.4574  0.6901 -0.8019
 1243SOL    HW2 4550   0.776   1.971   2.241 -2.6910 -0.5700  1.2096
 1244SOL     OW 4551   2.029   0.455   5.300  0.6651  0.3177  0.0251
 1244SOL    HW1 4552   2.018   0.421   5.207  0.2269 -0.7483  0.4547
 1244SOL    HW2 4553   1.940   0.489   5.333  0.2573 -1.4665  0.8667
 1245SOL     OW 4554   0.363   5.172   3.157  0.9777  0.4920 -0.4303
 1245SOL    HW1 4555   0.328   5.248   3.212  0.0567 -0.7971  0.8104
 1245SOL    HW2 4556   0.456   5.149   3.187 -0.2559 -1.5676  2.1546
 1246SOL     OW 4557   5.601   5.161   2.438  0.7107 -0.1973  0.4499
 1246SOL    HW1 4558   5.531   5.220   2.478  0.5548 -0.8428  1.1610
 1246SOL    HW2 4559   5.606   5.076   2.490  1.0291 -0.7539 -0.4740
 1247SOL     OW 4560   2.894   2.805   1.442 -0.1751 -0.0758  0.5684
 1247SOL    HW1 4561   2.882   2.805   1.343  0.9115 -0.0917  0.4245
 1247SOL    HW2 4562   2.926   2.715   1.472 -0.8801 -0.1916  0.9872
 1248SOL     OW 4563   0.195   3.653   2.406  0.2362  0.3024  0.2809
 1248SOL    HW1 4564   0.186   3.752   2.405  2.1670  0.5240 -0.1331
 1248SOL    HW2 4565   0.129   3.614   2.470 -1.3776  1.7260 -0.4255
 1249SOL     OW 4566   2.180   3.514   0.128 -0.1874 -0.0819  0.1845
 1249SOL    HW1 4567   2.279   3.524   0.135  0.0183 -1.4249 -0.6366
 1249SOL    HW2 4568   2.141   3.601   0.098  0.6340  0.7015  1.2858
 1250SOL     OW 4569   6.533   5.474   3.486 -0.6833  1.0279  0.5401
 1250SOL    HW1 4570   6.613   5.428   3.524  0.5058  2.6159  0.0244
 1250SOL    HW2 4571   6.524   5.452   3.389 -0.3274  1.5668  0.3806
 1251SOL     OW 4572   0.296   2.096   5.785  0.0208 -0.2431 -0.4349
 1251SOL    HW1 4573   0.311   2.088   5.883  2.0110 -0.8596 -0.7323
 1251SOL    HW2 4574   0.338   2.181   5.752  2.1494 -1.4952 -1.1543
 1252SOL     OW 4575   0.770   4.237   1.349 -0.9048 -0.2334 -0.2664
 1252SOL    HW1 4576   0.788   4.144   1.317 -2.0720 -1.0462  1.2834
 1252SOL    HW2 4577   0.703   4.234   1.423 -0.4537  1.7970  0.2858
 1253SOL     OW 4578   1.357   4.257   1.530 -0.2058  0.6945  0.2933
 1253SOL    HW1 4579   1.325   4.345   1.566  1.0000  0.9050  0.8810
 1253SOL    HW2 4580   1.363   4.263   1.430 -0.3719  1.1917  0.3094
 1254SOL     OW 4581   3.117   4.682   0.106 -0.1678  0.5352 -0.0089
 1254SOL    HW1 4582   3.108   4.679   0.205 -1.8982 -0.9397 -0.1551
 1254SOL    HW2 4583   3.101   4.591   0.068 -0.3543  1.2177 -1.6891
 1255SOL     OW 4584   3.962   0.332   1.379 -0.3157 -0.0891  0.5136
 1255SOL    HW1 4585   3.872   0.371   1.394 -0.4508 -0.4648  0.6919
 1255SOL    HW2 4586   3.954   0.248   1.326 -0.0308  0.1025  0.1603
 1256SOL     OW 4587   0.475   3.075   0.798 -0.1551 -0.2634  0.1254
 1256SOL    HW1 4588   0.571   3.088   0.773  0.3101  0.1009  1.9335
 1256SOL    HW2 4589   0.429   3.021   0.727  0.8323  1.2928 -1.8136
 1257SOL     OW 4590   0.029   2.910   1.767  0.0596  0.1130  0.7697
 1257SOL    HW1 4591   0.085   2.987   1.800  2.3741 -0.7941 -0.8341
 1257SOL    HW2 4592   0.073   2.867   1.689 -2.8191 -0.8624 -0.4728
 1258SOL     OW 4593   0.281   5.290   5.522 -0.2787  0.1781  0.1307
 1258SOL    HW1 4594   0.286   5.336   5.611  1.2779 -0.6252  0.5010
 1258SOL    HW2 4595   0.233   5.203   5.533  0.8330 -0.4185  0.4468
 1259SOL     OW 4596   4.452   3.041   0.797  0.1702 -0.1715 -0.0462
 1259SOL    HW1 4597   4.484   3.022   0.890 -0.5345  1.1548  0.4817
 1259SOL    HW2 4598   4.356   3.067   0.799  0.4521  1.0159 -1.0036
 1260SOL     OW 4599   0.863   6.200   2.643 -0.1682 -0.8926  0.2275
 1260SOL    HW1 4600   0.773   6.165   2.670  0.3745 -3.9734 -1.4744
 1260SOL    HW2 4601   0.852   6.264   2.566 -0.9449 -0.4283  0.7089
 1261SOL     OW 4602   2.753   1.540   0.774 -0.5348 -0.1223 -0.0752
 1261SOL    HW1 4603   2.832   1.548   0.836 -1.0756  1.5545  0.4570
 1261SOL    HW2 4604   2.735   1.444   0.755  0.2031 -0.6493  1.6671
 1262SOL     OW 4605   5.694   0.439   6.563 -0.3029  0.0528  0.0462
 1262SOL    HW1 4606   5.648   0.453   6.650 -0.3568 -1.4945  0.2998
 1262SOL    HW2 4607   5.787   0.406   6.579  1.2098  3.6911 -0.4456
 1263SOL     OW 4608   4.284   4.401   5.498 -0.7611 -0.3796 -0.8441
 1263SOL    HW1 4609   4.355   4.460   5.458 -1.7433  2.6401  1.5172
 1263SOL    HW2 4610   4.194   4.434   5.469 -1.3256 -1.0143  0.1541
 1264SOL     OW 4611   5.796   4.506   3.905 -0.1383 -0.0762  0.2583
 1264SOL    HW1 4612   5.864   4.439   3.875 -0.3049  0.4219 -1.3229
 1264SOL    HW2 4613   5.844   4.588   3.938  0.0433 -0.1139  0.0937
 1265SOL     OW 4614   4.072   3.491   5.228  0.3843 -0.0662 -0.5737
 1265SOL    HW1 4615   3.992   3.510   5.171 -0.6036  0.5780  0.9365
 1265SOL    HW2 4616   4.058   3.532   5.319  1.6997 -1.3592  0.2619
 1266SOL     OW 4617   2.874   1.685   6.672 -0.1103  0.1516 -0.2522
 1266SOL    HW1 4618   2.775   1.684   6.661 -0.5016 -1.3351  2.6088
 1266SOL    HW2 4619   2.907   1.592   6.688  1.2013  0.9882  2.4802
 1267SOL     OW 4620   6.408   3.333   6.539  0.2817 -0.2088  0.3261
 1267SOL    HW1 4621   6.463   3.362   6.461  0.0606  1.6021  0.7906
 1267SOL    HW2 4622   6.456   3.358   6.624 -0.0873 -0.9415  0.7553
 1268SOL     OW 4623   3.503   0.607   5.683  0.6798 -0.3859  0.1369
 1268SOL    HW1 4624   3.569   0.581   5.613  0.5687 -2.2953  0.6944
 1268SOL    HW2 4625   3.520   0.701   5.711  0.2260  0.7591 -2.9905
 1269SOL     OW 4626   5.939   0.249   1.817 -0.6977 -0.4115  0.5420
 1269SOL    HW1 4627   6.026   0.207   1.792 -1.9966 -2.2304 -1.3150
 1269SOL    HW2 4628   5.870   0.178   1.828 -1.8454  0.9310  2.6139
 1270SOL     OW 4629   6.978   0.825   1.107  0.0533  0.5845  0.2839
 1270SOL    HW1 4630   6.930   0.910   1.084  0.8496  0.3849 -2.6285
 1270SOL    HW2 4631   7.049   0.844   1.174 -0.8847  1.8406  0.9770
 1271SOL     OW 4632   3.323   2.767   4.167 -0.3021 -0.1130  0.2329
 1271SOL    HW1 4633   3.245   2.778   4.228 -0.8093 -0.1153 -0.3983
 1271SOL    HW2 4634   3.405   2.746   4.220 -1.2091 -2.6343  0.7834
 1272SOL     OW 4635   5.325   6.897   1.279  0.0031  0.1114  0.1768
 1272SOL    HW1 4636   5.325   6.810   1.328 -0.9849  0.7705  1.4312
 1272SOL    HW2 4637   5.336   6.972   1.344 -0.9252  1.0085 -0.6525
 1273SOL     OW 4638   1.685   1.696   0.115  0.4979  0.0880  0.5596
 1273SOL    HW1 4639   1.588   1.674   0.101  0.7229 -0.3339 -0.4676
 1273SOL    HW2 4640   1.726   1.629   0.177 -0.0446  0.7437  1.6525
 1274SOL     OW 4641   2.228   3.370   2.732 -0.0563 -0.1690  0.4366
 1274SOL    HW1 4642   2.241   3.430   2.811 -0.8258 -1.4229  1.5614
 1274SOL    HW2 4643   2.316   3.331   2.705  0.5322  1.7143 -0.5774
 1275SOL     OW 4644   1.123   1.507   3.149  0.2641 -0.2287  0.0102
 1275SOL    HW1 4645   1.163   1.417   3.170  1.5737  0.5822  1.1670
 1275SOL    HW2 4646   1.030   1.511   3.185 -0.4209 -1.6407 -1.4412
 1276SOL     OW 4647   2.462   3.026   1.253 -0.1050 -0.0754  0.5764
 1276SOL    HW1 4648   2.526   3.077   1.311  0.3613 -0.7953  0.7099
 1276SOL    HW2 4649   2.370   3.063   1.264  0.1827  0.5735  0.8578
 1277SOL     OW 4650   0.011   2.306   3.676  0.0691 -0.4346  0.0015
 1277SOL    HW1 4651   0.007   2.209   3.653  0.4046  0.0081 -2.0489
 1277SOL    HW2 4652  -0.077   2.349   3.657  0.6950  0.1758 -1.7433
 1278SOL     OW 4653   6.056   6.806   2.539 -0.4151  0.6375 -0.0679
 1278SOL    HW1 4654   6.060   6.709   2.514 -0.2894  0.3389  1.0684
 1278SOL    HW2 4655   6.049   6.861   2.456 -1.1303 -0.3718 -0.6959
 1279SOL     OW 4656   3.725   2.313   0.854  0.0021 -0.1353 -0.2634
 1279SOL    HW1 4657   3.801   2.366   0.892  0.7404 -1.1677 -0.2526
 1279SOL    HW2 4658   3.689   2.360   0.773 -0.3591  1.1248  0.5916
 1280SOL     OW 4659   6.188   1.512   0.704  0.1837 -0.7155  0.4245
 1280SOL    HW1 4660   6.156   1.467   0.620  1.3164 -2.2617  0.7840
 1280SOL    HW2 4661   6.286   1.496   0.715  0.1172 -0.2259  1.8809
 1281SOL     OW 4662   3.293   3.566   5.948  0.6417  0.0673  0.1476
 1281SOL    HW1 4663   3.196   3.555   5.970  0.8391  0.5391  1.3567
 1281SOL    HW2 4664   3.337   3.476   5.943  0.6321 -0.0939  2.0782
 1282SOL     OW 4665   0.887   1.240   3.364  0.0101 -0.3268  0.5694
 1282SOL    HW1 4666   0.867   1.337   3.363  1.7983  0.1515 -2.0803
 1282SOL    HW2 4667   0.833   1.194   3.434 -1.3498  2.4425  1.4492
 1283SOL     OW 4668   0.816   2.083   4.351  0.8967 -0.4766  0.7458
 1283SOL    HW1 4669   0.764   2.163   4.382  1.9948 -0.5960  3.1554
 1283SOL    HW2 4670   0.913   2.103   4.355  1.1693 -0.7937 -2.1701
 1284SOL     OW 4671   6.973   2.765   0.639 -0.0347 -0.2117  0.3576
 1284SOL    HW1 4672   7.015   2.809   0.559 -1.9637 -1.0761 -1.2138
 1284SOL    HW2 4673   6.996   2.668   0.640  0.8717  0.0005  1.5031
 1285SOL     OW 4674   0.370   0.653   3.792  0.9563 -0.1393 -0.1548
 1285SOL    HW1 4675   0.390   0.559   3.820 -0.4510  0.0479  1.7241
 1285SOL    HW2 4676   0.323   0.653   3.704  0.4269 -1.2542  0.1091
 1286SOL     OW 4677   0.892   6.893   1.170 -0.7209  0.3456 -0.0494
 1286SOL    HW1 4678   0.922   6.846   1.253  0.3909  1.4629  0.2025
 1286SOL    HW2 4679   0.902   6.992   1.182 -3.9260  0.7801 -0.2014
 1287SOL     OW 4680   0.999   6.069   3.518  0.3501  0.2625 -1.0484
 1287SOL    HW1 4681   1.058   6.000   3.561  0.0444 -0.5615 -1.9028
 1287SOL    HW2 4682   1.033   6.160   3.539  1.5211 -0.1822 -0.9532
 1288SOL     OW 4683   0.945   0.902   3.795 -0.0100 -0.3903 -0.3847
 1288SOL    HW1 4684   0.862   0.849   3.813  0.2287 -0.6228  0.0530
 1288SOL    HW2 4685   0.921   0.984   3.744 -0.5805 -0.2210  0.1362
 1289SOL     OW 4686   6.235   3.250   2.505  0.5608  0.0380  0.2810
 1289SOL    HW1 4687   6.296   3.325   2.532  0.3916 -0.1693  1.2982
 1289SOL    HW2 4688   6.237   3.179   2.576 -0.1000 -0.4280 -0.1580
 1290SOL     OW 4689   0.334   0.874   3.938  0.5950 -0.2009  0.2708
 1290SOL    HW1 4690   0.427   0.909   3.953  0.9962 -1.1135 -0.0272
 1290SOL    HW2 4691   0.338   0.791   3.883 -0.6057  1.3834 -2.3887
 1291SOL     OW 4692   5.176   2.552   1.107  0.4011  0.3745 -0.2223
 1291SOL    HW1 4693   5.252   2.489   1.089  0.1608 -0.3472  1.1058
 1291SOL    HW2 4694   5.197   2.608   1.187  0.5189  1.8692 -1.2668
 1292SOL     OW 4695   6.885   1.131   0.096  0.5367 -0.0881 -0.6872
 1292SOL    HW1 4696   6.832   1.096   0.019  0.2139 -0.2485 -0.3980
 1292SOL    HW2 4697   6.837   1.208   0.138  0.1053 -0.7702  0.0999
 1293SOL     OW 4698   3.872   6.425   3.134 -0.0539 -0.6552 -0.0829
 1293SOL    HW1 4699   3.868   6.509   3.188 -0.9586  0.6577 -2.0729
 1293SOL    HW2 4700   3.913   6.444   3.045  1.1962 -2.7042 -0.0112
 1294SOL     OW 4701   5.570   5.688   0.487 -0.1665  0.1239  0.1726
 1294SOL    HW1 4702   5.613   5.664   0.401 -0.4044  0.3559 -0.0120
 1294SOL    HW2 4703   5.484   5.637   0.497 -1.2709  1.7303 -0.7626
 1295SOL     OW 4704   1.137   1.885   4.870 -0.2711  0.2977  0.7262
 1295SOL    HW1 4705   1.177   1.816   4.809  0.8035  0.2906  1.3939
 1295SOL    HW2 4706   1.049   1.915   4.835  0.6817  0.9131 -1.2834
 1296SOL     OW 4707   4.373   4.035   2.524  0.3847  0.0329  0.4890
 1296SOL    HW1 4708   4.339   3.985   2.445  1.4577 -0.0052  0.0304
 1296SOL    HW2 4709   4.340   4.130   2.520 -2.1532 -0.7139  1.6810
 1297SOL     OW 4710   1.506   1.012   6.977 -0.0457 -0.7291  0.8278
 1297SOL    HW1 4711   1.459   0.927   7.001 -0.4357 -0.3852  1.3139
 1297SOL    HW2 4712   1.440   1.078   6.940  0.2374 -0.6096  0.5340
 1298SOL     OW 4713   2.214   6.103   1.256 -0.1817  0.3905  0.0322
 1298SOL    HW1 4714   2.127   6.089   1.209  0.1940 -1.0859 -0.2861
 1298SOL    HW2 4715   2.288   6.109   1.189  0.3101 -1.3650  0.3649
 1299SOL     OW 4716   4.535   4.623   4.352 -0.1365 -0.4189 -0.7959
 1299SOL    HW1 4717   4.546   4.708   4.299 -0.1804 -1.3376 -2.3283
 1299SOL    HW2 4718   4.438   4.600   4.359 -0.2418  0.4323  0.9281
 1300SOL     OW 4719   0.773   6.623   0.027 -0.6615  0.0801  0.2143
 1300SOL    HW1 4720   0.752   6.721   0.017 -1.6713  0.0249  1.4610
 1300SOL    HW2 4721   0.688   6.573   0.042  0.0353 -0.6416  2.0218
 1301SOL     OW 4722   0.931   5.749   1.540 -0.3929 -0.7875  0.4210
 1301SOL    HW1 4723   0.933   5.733   1.441  1.8712  1.4826 -0.0023
 1301SOL    HW2 4724   0.996   5.687   1.585  0.3531 -0.1959  0.1687
 1302SOL     OW 4725   0.656   0.679   2.194 -0.5589  0.2219  0.2102
 1302SOL    HW1 4726   0.651   0.715   2.287  1.1461 -1.0978  0.8696
 1302SOL    HW2 4727   0.688   0.584   2.197  1.0676  0.6290 -1.7839
 1303SOL     OW 4728   1.472   1.030   4.809  0.5505  0.0207 -0.9977
 1303SOL    HW1 4729   1.450   0.935   4.788  0.2284 -0.3535  0.8554
 1303SOL    HW2 4730   1.548   1.033   4.874  1.0921  1.0764 -1.6459
 1304SOL     OW 4731   3.166   5.897   4.516 -0.2869  0.3893  0.1580
 1304SOL    HW1 4732   3.206   5.926   4.429 -0.2613 -2.2475 -0.7732
 1304SOL    HW2 4733   3.206   5.952   4.590  1.2741  1.2659 -1.2452
 1305SOL     OW 4734   5.999   3.920   1.630 -0.1490 -0.1050  0.0682
 1305SOL    HW1 4735   6.085   3.905   1.679  1.1933 -0.7637 -2.3675
 1305SOL    HW2 4736   6.011   3.899   1.534 -2.4813  1.8359 -0.7498
 1306SOL     OW 4737   4.267   4.793   3.666 -0.2193 -0.3706  0.4117
 1306SOL    HW1 4738   4.362   4.825   3.676 -0.5131  0.3935  0.8939
 1306SOL    HW2 4739   4.267   4.699   3.634  0.7085 -0.3985  0.4529
 1307SOL     OW 4740   2.911   5.069   4.533 -0.4268  0.2519  0.2312
 1307SOL    HW1 4741   2.910   5.109   4.441 -0.1449  1.2237  0.6425
 1307SOL    HW2 4742   2.818   5.050   4.562 -0.7108  2.2749  0.7300
 1308SOL     OW 4743   3.828   6.087   2.507 -0.5019  0.9660  0.0944
 1308SOL    HW1 4744   3.765   6.162   2.489  0.8000  1.5601 -2.4602
 1308SOL    HW2 4745   3.785   6.001   2.480 -1.0981  1.0648  0.6982
 1309SOL     OW 4746   5.460   2.404   4.907 -0.0550 -0.2320  0.0665
 1309SOL    HW1 4747   5.381   2.356   4.869  0.0912 -0.5531  0.1674
 1309SOL    HW2 4748   5.451   2.408   5.007  0.7915 -1.6045  0.2254
 1310SOL     OW 4749   4.690   5.932   5.178  0.0705  0.4495  0.2825
 1310SOL    HW1 4750   4.641   5.889   5.255 -0.0042  1.5286  0.8562
 1310SOL    HW2 4751   4.638   5.917   5.094 -0.4769  0.2836  0.6414
 1311SOL     OW 4752   2.776   1.285   0.203  0.2100  0.3733 -0.0704
 1311SOL    HW1 4753   2.807   1.297   0.297 -0.1678  1.7645 -0.1062
 1311SOL    HW2 4754   2.687   1.240   0.202  1.5538 -2.4603  0.0848
 1312SOL     OW 4755   2.343   5.675   0.996 -0.1325  0.0741  0.2388
 1312SOL    HW1 4756   2.342   5.589   0.946 -0.3047 -1.5672  2.8947
 1312SOL    HW2 4757   2.255   5.690   1.040  0.6789  0.3096  1.8538
 1313SOL     OW 4758   6.565   6.650   0.885 -0.8171  0.2001  0.3232
 1313SOL    HW1 4759   6.552   6.556   0.854  2.3169 -0.2090 -0.0421
 1313SOL    HW2 4760   6.529   6.712   0.816 -1.4653 -0.7098 -0.1856
 1314SOL     OW 4761   5.072   2.561   3.396 -0.4773  0.4580 -0.4177
 1314SOL    HW1 4762   5.061   2.646   3.448  0.9569 -0.5291  1.6296
 1314SOL    HW2 4763   5.104   2.583   3.304 -0.7230  2.1485 -0.1423
 1315SOL     OW 4764   3.264   1.159   4.912 -0.2503 -0.0118 -1.0902
 1315SOL    HW1 4765   3.330   1.106   4.964  0.3059  1.1748 -0.5335
 1315SOL    HW2 4766   3.173   1.117   4.919  0.0191 -0.4375 -0.0112
 1316SOL     OW 4767   4.501   6.123   6.609  0.3794  0.0975 -0.0886
 1316SOL    HW1 4768   4.467   6.041   6.654  0.5016  1.1862  2.1229
 1316SOL    HW2 4769   4.568   6.098   6.540  0.7960 -1.6363  0.8891
 1317SOL     OW 4770   5.462   4.945   4.181 -0.1376 -0.1794  0.1815
 1317SOL    HW1 4771   5.494   4.912   4.092 -0.4543 -1.4708  0.5189
 1317SOL    HW2 4772   5.363   4.961   4.175  0.1976  1.9662 -0.3242
 1318SOL     OW 4773   2.214   6.515   6.327  0.1390  0.0358  0.1010
 1318SOL    HW1 4774   2.184   6.610   6.322  2.1133  0.6398 -1.5296
 1318SOL    HW2 4775   2.139   6.455   6.298 -0.5904  1.1938 -0.4756
 1319SOL     OW 4776   6.906   1.133   2.961  0.1023  0.9980  0.3163
 1319SOL    HW1 4777   6.836   1.093   2.902  0.5292  1.2049 -0.3394
 1319SOL    HW2 4778   6.866   1.153   3.050  0.1705 -2.1038  1.1626
 1320SOL     OW 4779   4.189   0.940   3.246 -0.3049  0.2277 -0.3350
 1320SOL    HW1 4780   4.239   0.855   3.264 -2.2880 -0.9653 -0.2196
 1320SOL    HW2 4781   4.179   0.952   3.147  1.5155  1.3205 -0.4390
 1321SOL     OW 4782   1.651   1.191   0.152  0.8615 -0.8896  0.4712
 1321SOL    HW1 4783   1.619   1.160   0.241 -2.1227  2.0376  0.6325
 1321SOL    HW2 4784   1.606   1.139   0.079 -0.0782 -0.4553  0.7254
 1322SOL     OW 4785   0.168   1.072   4.477 -0.2860  0.7042 -0.2294
 1322SOL    HW1 4786   0.155   0.990   4.533  0.4639  0.1434 -0.8431
 1322SOL    HW2 4787   0.079   1.111   4.454 -0.6397  0.2939  0.4061
 1323SOL     OW 4788   6.972   2.303   4.757  0.0160  0.3069 -0.6296
 1323SOL    HW1 4789   7.056   2.355   4.777 -0.1023  0.5326 -0.7057
 1323SOL    HW2 4790   6.922   2.286   4.841 -1.1986  2.4885 -0.8390
 1324SOL     OW 4791   0.720   6.992   2.149 -0.1726  0.0460  0.2077
 1324SOL    HW1 4792   0.777   7.027   2.223  0.0570 -1.5406  0.8346
 1324SOL    HW2 4793   0.672   7.067   2.105 -0.5520  1.0101  2.1651
 1325SOL     OW 4794   3.347   2.389   0.641  0.3829 -0.8058 -0.3888
 1325SOL    HW1 4795   3.377   2.418   0.732  2.1456  1.0584 -1.4651
 1325SOL    HW2 4796   3.372   2.294   0.626  0.3230 -1.0514  0.9568
 1326SOL     OW 4797   5.818   5.994   6.777 -0.2701 -0.4025 -0.4751
 1326SOL    HW1 4798   5.737   6.027   6.826 -1.2852 -0.3651 -2.1252
 1326SOL    HW2 4799   5.828   5.896   6.791 -0.5458 -0.3949 -0.2133
 1327SOL     OW 4800   6.825   2.339   2.696  0.4213 -0.7361 -0.0936
 1327SOL    HW1 4801   6.839   2.429   2.737  1.9663  0.2834 -2.6368
 1327SOL    HW2 4802   6.872   2.270   2.751 -0.8176 -0.0694  1.9148
 1328SOL     OW 4803   1.217   0.123   0.409 -0.1901 -0.5679 -0.1549
 1328SOL    HW1 4804   1.278   0.131   0.488  0.6071 -0.7667 -0.7415
 1328SOL    HW2 4805   1.270   0.097   0.328 -1.1102 -1.1279 -0.5917
 1329SOL     OW 4806   0.581   6.208   1.800  0.1769 -0.6256 -0.4605
 1329SOL    HW1 4807   0.488   6.241   1.782 -0.9754 -3.3062  0.0544
 1329SOL    HW2 4808   0.629   6.195   1.714  0.2728  1.2077 -0.7131
 1330SOL     OW 4809   5.440   2.862   2.473  0.9679  0.5685 -0.1331
 1330SOL    HW1 4810   5.458   2.769   2.506  1.0965  0.6342 -0.0154
 1330SOL    HW2 4811   5.487   2.876   2.387 -0.2517  0.0284 -0.9195
 1331SOL     OW 4812   1.153   1.947   0.871  0.0864  0.0598  0.4882
 1331SOL    HW1 4813   1.148   1.889   0.790  0.9424 -0.4081  0.7516
 1331SOL    HW2 4814   1.148   1.890   0.953 -2.1622  0.6426  0.8134
 1332SOL     OW 4815   3.587   0.455   1.143 -0.0841 -0.0240 -0.2683
 1332SOL    HW1 4816   3.583   0.554   1.135 -2.7994 -0.0729 -0.4344
 1332SOL    HW2 4817   3.630   0.416   1.062  0.3964  0.9698 -0.5016
 1333SOL     OW 4818   6.549   4.810   0.947 -0.5693  0.1949 -0.4007
 1333SOL    HW1 4819   6.634   4.849   0.984 -1.0155  1.0811 -0.3053
 1333SOL    HW2 4820   6.491   4.882   0.911 -1.1745 -0.4364 -0.7247
 1334SOL     OW 4821   4.753   5.390   1.535 -0.4449  0.2906  0.4341
 1334SOL    HW1 4822   4.748   5.355   1.442  1.4461  1.2351 -0.0809
 1334SOL    HW2 4823   4.754   5.490   1.534 -1.4836  0.3392  1.5578
 1335SOL     OW 4824   4.079   6.368   1.002 -0.1659 -0.3513 -1.0226
 1335SOL    HW1 4825   4.078   6.329   1.094  0.4985 -0.9784 -1.2714
 1335SOL    HW2 4826   4.066   6.295   0.935  2.6393 -0.4433 -1.5747
 1336SOL     OW 4827   0.694   6.009   1.232  0.2827 -0.0451  0.2985
 1336SOL    HW1 4828   0.654   6.027   1.322  0.8225 -1.7884  0.9311
 1336SOL    HW2 4829   0.787   6.045   1.229  0.8190 -1.2934  1.0224
 1337SOL     OW 4830   6.766   1.486   0.741  0.1439  0.3338  0.2665
 1337SOL    HW1 4831   6.734   1.577   0.764  0.4749  0.3876  0.5237
 1337SOL    HW2 4832   6.817   1.489   0.655 -2.3068 -0.1060 -1.3014
 1338SOL     OW 4833   3.016   4.151   2.173 -0.4241 -0.3937 -0.0819
 1338SOL    HW1 4834   3.064   4.064   2.161 -2.1474 -1.4021  0.0039
 1338SOL    HW2 4835   2.943   4.158   2.105  0.0474  1.2784 -0.4632
 1339SOL     OW 4836   4.318   6.451   6.291 -0.3042  0.0416  0.5218
 1339SOL    HW1 4837   4.338   6.491   6.201 -1.3236 -0.5714  0.0051
 1339SOL    HW2 4838   4.354   6.511   6.363 -2.2729  2.1988 -0.1913
 1340SOL     OW 4839   0.307   1.287   2.924  0.3402  0.4849  0.5415
 1340SOL    HW1 4840   0.246   1.246   2.856  0.2316  1.7693 -0.1697
 1340SOL    HW2 4841   0.350   1.215   2.979 -1.0885 -0.4904  0.4311
 1341SOL     OW 4842   1.682   5.195   5.720 -0.4423  0.0548  0.4658
 1341SOL    HW1 4843   1.749   5.216   5.791 -0.4293 -1.2311  0.8579
 1341SOL    HW2 4844   1.599   5.157   5.761 -0.0136 -1.7707 -0.2335
 1342SOL     OW 4845   4.371   2.690   6.759 -0.4237 -0.0290  0.1139
 1342SOL    HW1 4846   4.364   2.631   6.839 -0.9831  2.4912  2.0480
 1342SOL    HW2 4847   4.287   2.685   6.705 -0.3461 -1.1743  0.0907
 1343SOL     OW 4848   3.022   5.216   0.433 -0.4023  0.2027 -0.2325
 1343SOL    HW1 4849   2.978   5.289   0.486 -0.3544  0.0354  0.0372
 1343SOL    HW2 4850   3.113   5.246   0.406  0.0674 -0.1868  0.8512
 1344SOL     OW 4851   6.809   3.761   0.819  0.2746 -0.2768  0.5973
 1344SOL    HW1 4852   6.884   3.770   0.885  0.2593 -2.0099  0.9019
 1344SOL    HW2 4853   6.725   3.735   0.867 -0.9288  2.8178  0.4347
 1345SOL     OW 4854   5.380   5.199   6.165  0.5899  0.5155 -0.3709
 1345SOL    HW1 4855   5.421   5.214   6.075  1.7433 -1.7112 -0.2704
 1345SOL    HW2 4856   5.316   5.274   6.185  0.5851  1.2575 -2.8471
 1346SOL     OW 4857   4.094   5.308   0.758  0.0889 -0.1247  0.0382
 1346SOL    HW1 4858   4.164   5.344   0.697 -1.8483 -0.1819 -2.3215
 1346SOL    HW2 4859   4.102   5.208   0.762 -2.1133 -0.5929 -3.4070
 1347SOL     OW 4860   4.344   0.444   0.355  0.5653 -0.0757  0.1314
 1347SOL    HW1 4861   4.340   0.544   0.346  0.5917 -0.0878 -0.0154
 1347SOL    HW2 4862   4.323   0.402   0.266 -1.7455 -0.2406  0.6830
 1348SOL     OW 4863   1.360   5.315   0.308  0.1186  0.3581 -0.0578
 1348SOL    HW1 4864   1.266   5.291   0.282 -0.5273  2.8242 -0.2574
 1348SOL    HW2 4865   1.405   5.362   0.232  0.9239  0.7191  0.6223
 1349SOL     OW 4866   4.458   6.761   0.980 -0.1291 -0.1535  0.5367
 1349SOL    HW1 4867   4.510   6.685   1.018  0.8566 -1.1040 -2.4345
 1349SOL    HW2 4868   4.362   6.736   0.974 -0.0004 -0.6936  0.6866
 1350SOL     OW 4869   2.256   5.748   4.355  0.4527 -0.0287 -0.8335
 1350SOL    HW1 4870   2.173   5.797   4.329 -0.1732 -0.4179  0.3252
 1350SOL    HW2 4871   2.335   5.808   4.342 -0.2152  1.0509 -0.1530
 1351SOL     OW 4872   3.039   5.368   4.950  1.0513 -0.8777 -0.5702
 1351SOL    HW1 4873   2.976   5.311   4.897  0.5281 -0.9278  0.0986
 1351SOL    HW2 4874   3.132   5.333   4.939  1.0382 -0.5687 -1.8845
 1352SOL     OW 4875   1.253   6.857   4.582 -0.5297 -0.8025 -0.8822
 1352SOL    HW1 4876   1.294   6.769   4.607 -0.2772 -0.5250 -0.2837
 1352SOL    HW2 4877   1.248   6.915   4.664 -1.1621 -0.4483 -1.1655
 1353SOL     OW 4878   4.744   4.786   3.104  0.6602 -0.0285 -0.3863
 1353SOL    HW1 4879   4.747   4.854   3.177 -1.3330 -1.6138  1.3076
 1353SOL    HW2 4880   4.654   4.789   3.059  1.5838  0.4008 -2.3203
 1354SOL     OW 4881   3.258   2.894   3.930 -0.0138  0.1078 -0.2027
 1354SOL    HW1 4882   3.285   2.841   4.010  2.9039  0.7652 -0.6687
 1354SOL    HW2 4883   3.210   2.977   3.960  0.4797  0.0354  0.8225
 1355SOL     OW 4884   3.385   4.895   6.891 -0.1275  0.1130 -0.4605
 1355SOL    HW1 4885   3.399   4.842   6.974  2.4366  1.4452  0.0494
 1355SOL    HW2 4886   3.412   4.841   6.812  2.6375  0.5662  0.0680
 1356SOL     OW 4887   0.325   3.208   4.893 -0.1697 -0.1234  0.4523
 1356SOL    HW1 4888   0.424   3.223   4.893 -0.1953  0.0447  0.4132
 1356SOL    HW2 4889   0.305   3.121   4.937 -0.0927  0.4202  1.6037
 1357SOL     OW 4890   6.220   2.621   4.384 -0.4830  0.2682 -0.0353
 1357SOL    HW1 4891   6.256   2.528   4.378 -1.5292 -0.1297 -0.2815
 1357SOL    HW2 4892   6.132   2.627   4.337 -0.2817  1.4706 -0.3157
 1358SOL     OW 4893   3.178   6.212   5.848 -0.6926 -0.2658 -0.8817
 1358SOL    HW1 4894   3.221   6.127   5.817 -1.3304 -0.3404 -1.5961
 1358SOL    HW2 4895   3.243   6.287   5.838  0.0801 -0.7490  0.3153
 1359SOL     OW 4896   5.228   3.523   3.470  0.4001 -0.0778 -0.5480
 1359SOL    HW1 4897   5.279   3.470   3.537  0.7929  0.9231 -0.0346
 1359SOL    HW2 4898   5.286   3.543   3.391  0.7843  0.9109 -0.0412
 1360SOL     OW 4899   5.268   2.542   3.798 -0.3502 -0.2956 -0.2240
 1360SOL    HW1 4900   5.286   2.624   3.744 -0.0964 -1.0758 -1.3617
 1360SOL    HW2 4901   5.200   2.562   3.868  0.2874  1.0766  0.0235
 1361SOL     OW 4902   3.398   6.151   0.597 -0.1488 -0.0655  0.0437
 1361SOL    HW1 4903   3.430   6.159   0.502  1.1843 -1.7384  0.3128
 1361SOL    HW2 4904   3.456   6.207   0.656  0.3013 -0.5882  0.1097
 1362SOL     OW 4905   2.654   2.867   6.021 -0.2453 -0.0205 -0.5658
 1362SOL    HW1 4906   2.726   2.818   6.069  0.2379 -0.3833 -1.6332
 1362SOL    HW2 4907   2.567   2.854   6.068  0.3584  0.3537  0.6929
 1363SOL     OW 4908   3.062   3.878   0.884  0.4148  0.2496  0.1356
 1363SOL    HW1 4909   3.147   3.860   0.834  0.4501  0.3749  0.1521
 1363SOL    HW2 4910   3.011   3.951   0.840 -0.2644 -0.6229 -0.5760
 1364SOL     OW 4911   2.057   1.813   1.431 -0.1016 -0.7016  0.4022
 1364SOL    HW1 4912   2.094   1.807   1.338  1.0660  1.4972  0.6468
 1364SOL    HW2 4913   1.973   1.759   1.437  0.1409 -1.4152 -1.7338
 1365SOL     OW 4914   4.543   5.749   2.978 -0.4438 -0.3479  0.5288
 1365SOL    HW1 4915   4.547   5.823   2.911  1.1225 -1.1949 -0.3758
 1365SOL    HW2 4916   4.484   5.776   3.054 -1.3328  1.0987 -0.6281
 1366SOL     OW 4917   5.678   0.747   5.878 -0.1595 -0.1571  0.1631
 1366SOL    HW1 4918   5.617   0.738   5.957 -0.1676 -3.0571 -0.0886
 1366SOL    HW2 4919   5.687   0.659   5.832  0.4474  1.2882 -2.6764
 1367SOL     OW 4920   6.927   0.002   6.702  0.1135  0.6296 -0.2832
 1367SOL    HW1 4921   6.844  -0.053   6.699  1.1389 -1.0235 -0.1976
 1367SOL    HW2 4922   6.913   0.088   6.654 -1.2042 -0.2475 -1.5414
 1368SOL     OW 4923   5.571   5.525   0.250  0.5045 -0.5467  0.3987
 1368SOL    HW1 4924   5.567   5.498   0.154  0.2504 -1.5748  0.6851
 1368SOL    HW2 4925   5.479   5.529   0.288  0.6427 -4.8721  1.8051
 1369SOL     OW 4926   0.344   5.588   0.780  0.3392  0.1222  0.3173
 1369SOL    HW1 4927   0.296   5.672   0.807  0.9869  0.7651 -0.4452
 1369SOL    HW2 4928   0.433   5.585   0.824  0.8157  0.4608 -0.5912
 1370SOL     OW 4929   6.895   3.500   4.478 -0.1258 -0.5049 -0.2325
 1370SOL    HW1 4930   6.969   3.566   4.459 -0.2317  0.2687  1.8249
 1370SOL    HW2 4931   6.807   3.547   4.474 -0.1768 -0.3755  1.6644
 1371SOL     OW 4932   1.836   1.681   2.702 -0.1099  0.0089  0.5052
 1371SOL    HW1 4933   1.770   1.668   2.776  2.6452 -0.6714  3.0196
 1371SOL    HW2 4934   1.875   1.592   2.676 -0.3056  0.3598 -1.1257
 1372SOL     OW 4935   1.279   4.450   6.628 -0.1311  0.3659  0.0136
 1372SOL    HW1 4936   1.197   4.455   6.571  0.3347  0.6942 -0.6394
 1372SOL    HW2 4937   1.287   4.358   6.667 -0.7916  0.3241  0.0606
 1373SOL     OW 4938   3.999   6.266   1.861  0.7787 -0.2281 -0.0334
 1373SOL    HW1 4939   3.921   6.282   1.800 -0.1287 -0.4186  1.0457
 1373SOL    HW2 4940   4.043   6.179   1.836 -0.6704 -1.2086  0.6675
 1374SOL     OW 4941   0.885   0.298   2.732  0.2521 -0.3579 -0.3088
 1374SOL    HW1 4942   0.891   0.208   2.777 -1.7481 -0.2442  0.2727
 1374SOL    HW2 4943   0.974   0.342   2.734  0.7574 -1.3621  1.4738
 1375SOL     OW 4944   5.727   0.920   5.311  0.0662 -0.0053 -0.1534
 1375SOL    HW1 4945   5.805   0.967   5.351  0.2449 -0.4944  0.0836
 1375SOL    HW2 4946   5.696   0.969   5.229 -0.7921  1.4444  0.9945
 1376SOL     OW 4947   2.561   5.638   6.750 -0.1759  0.1920  0.0340
 1376SOL    HW1 4948   2.618   5.625   6.669  0.9228 -0.5489  0.9053
 1376SOL    HW2 4949   2.615   5.682   6.822 -1.0934  0.6982  0.4250
 1377SOL     OW 4950   1.395   4.264   4.804 -0.2391 -0.7586 -0.6691
 1377SOL    HW1 4951   1.357   4.356   4.794  0.9777 -0.2075 -0.4552
 1377SOL    HW2 4952   1.481   4.270   4.854  0.4594 -1.8761 -1.7055
 1378SOL     OW 4953   1.184   5.847   3.589 -0.1828  0.7319 -0.4877
 1378SOL    HW1 4954   1.219   5.845   3.496  1.8625 -1.6823  0.2349
 1378SOL    HW2 4955   1.173   5.754   3.623 -0.7003  1.5503  1.7536
 1379SOL     OW 4956   4.303   1.420   2.697  0.0653  0.1974  0.2816
 1379SOL    HW1 4957   4.253   1.491   2.648  0.1776  0.9895  1.2551
 1379SOL    HW2 4958   4.317   1.450   2.792  0.5140 -0.9403  0.5872
 1380SOL     OW 4959   1.978   6.406   6.276  0.2239  0.1518  0.1358
 1380SOL    HW1 4960   1.964   6.307   6.281 -0.9712  0.3078  0.2294
 1380SOL    HW2 4961   1.922   6.450   6.346  0.4673  0.9149 -0.1473
 1381SOL     OW 4962   4.981   0.060   3.437 -0.3329 -0.4259 -0.2524
 1381SOL    HW1 4963   5.008  -0.036   3.425 -1.8231 -0.6927 -1.8187
 1381SOL    HW2 4964   4.913   0.066   3.510  1.7033 -0.1308  1.7332
 1382SOL     OW 4965   6.727   5.107   4.768  0.1570 -0.4534 -0.1185
 1382SOL    HW1 4966   6.645   5.084   4.821  1.0038 -2.1809  0.5321
 1382SOL    HW2 4967   6.700   5.149   4.682 -1.2583  2.8245  1.7583
 1383SOL     OW 4968   5.184   0.259   6.674  0.3780  0.4342 -0.5143
 1383SOL    HW1 4969   5.158   0.166   6.700  0.1909  0.6805  0.1909
 1383SOL    HW2 4970   5.240   0.301   6.745  0.8532  0.7051 -1.0336
 1384SOL     OW 4971   2.353   3.675   5.067  0.4146  0.0961  0.0680
 1384SOL    HW1 4972   2.317   3.687   4.975  0.4170 -0.3276  0.0124
 1384SOL    HW2 4973   2.364   3.578   5.087  0.9411  0.2027  0.3116
 1385SOL     OW 4974   1.416   3.448   3.772 -0.1204  0.1161  0.3627
 1385SOL    HW1 4975   1.406   3.457   3.672 -1.5431  0.9153  0.5482
 1385SOL    HW2 4976   1.341   3.497   3.817  0.3076 -0.5367  1.8282
 1386SOL     OW 4977   6.207   3.721   3.389 -0.4044 -0.2248  0.4529
 1386SOL    HW1 4978   6.244   3.748   3.299 -0.2829  2.2362  1.1641
 1386SOL    HW2 4979   6.119   3.677   3.377 -0.3367 -0.0401 -0.8919
 1387SOL     OW 4980   2.926   1.351   3.011 -0.0154 -0.4403  0.9721
 1387SOL    HW1 4981   2.836   1.315   2.987 -0.0617  0.5219 -0.4610
 1387SOL    HW2 4982   2.976   1.374   2.927  0.4573  1.6563  1.7695
 1388SOL     OW 4983   1.739   0.946   2.698 -0.0491 -0.2159 -0.1625
 1388SOL    HW1 4984   1.783   0.879   2.638  0.8411  0.0923  0.1289
 1388SOL    HW2 4985   1.680   1.006   2.643  0.2077 -0.3834 -0.6280
 1389SOL     OW 4986   5.739   3.612   3.655  0.2662  0.3197 -0.2350
 1389SOL    HW1 4987   5.832   3.586   3.680  0.6356  0.3997 -1.4460
 1389SOL    HW2 4988   5.674   3.566   3.714  1.0153 -1.0963 -0.4782
 1390SOL     OW 4989   4.859   4.460   0.378  0.0728  0.0576 -0.1990
 1390SOL    HW1 4990   4.878   4.433   0.472  0.7235  0.1590 -0.2953
 1390SOL    HW2 4991   4.840   4.379   0.323 -2.2233  0.1053  0.4022
 1391SOL     OW 4992   4.739   4.159   6.765  0.2168  0.0925  0.3181
 1391SOL    HW1 4993   4.689   4.181   6.849  1.2198  0.3186  0.8705
 1391SOL    HW2 4994   4.707   4.219   6.691  0.1287  0.6807  0.8228
 1392SOL     OW 4995   0.338   3.442   0.604  0.1451  0.2549 -0.1180
 1392SOL    HW1 4996   0.393   3.376   0.552  0.0383  0.2794 -0.2619
 1392SOL    HW2 4997   0.359   3.433   0.702  1.3947  1.1645 -0.2723
 1393SOL     OW 4998   6.125   1.048   5.785  0.1213 -0.0427 -0.2973
 1393SOL    HW1 4999   6.051   0.982   5.771 -0.8823  0.6605  1.3405
 1393SOL    HW2 5000   6.115   1.091   5.875  1.5176  1.3700 -0.7621
 1394SOL     OW 5001   0.389   2.827   0.087  0.5674 -0.5164  0.0562
 1394SOL    HW1 5002   0.350   2.740   0.055  0.0497  0.1641 -1.2435
 1394SOL    HW2 5003   0.343   2.903   0.041 -1.2423  0.6508  3.5072
 1395SOL     OW 5004   2.630   6.826   4.587 -0.2310  0.1026 -0.0541
 1395SOL    HW1 5005   2.709   6.800   4.643  0.3010  2.5897  0.4686
 1395SOL    HW2 5006   2.561   6.869   4.645 -0.9485  0.0984 -0.8844
 1396SOL     OW 5007   0.584   4.645   1.143  0.0332  0.1963  0.6983
 1396SOL    HW1 5008   0.660   4.618   1.201 -0.3114  1.1885  1.6438
 1396SOL    HW2 5009   0.537   4.723   1.184 -0.8905  0.2240 -0.3695
 1397SOL     OW 5010   4.334   5.451   0.589  0.5589 -0.0045 -0.0636
 1397SOL    HW1 5011   4.315   5.466   0.492  1.8970 -1.4377 -0.5980
 1397SOL    HW2 5012   4.426   5.413   0.599  0.0456 -0.8996  1.6788
 1398SOL     OW 5013   5.435   2.376   5.162  0.6869 -0.1270  0.1959
 1398SOL    HW1 5014   5.336   2.381   5.172  0.8305  0.3340  1.5284
 1398SOL    HW2 5015   5.479   2.398   5.249  1.9493 -1.1831 -0.1448
 1399SOL     OW 5016   2.349   0.468   1.163 -0.0185 -0.0487 -0.3357
 1399SOL    HW1 5017   2.318   0.555   1.125 -0.2248 -0.3783 -0.9385
 1399SOL    HW2 5018   2.446   0.474   1.186  0.4544 -0.2476 -2.1704
 1400SOL     OW 5019   3.306   1.302   3.358 -0.4532  0.1611 -0.2815
 1400SOL    HW1 5020   3.396   1.319   3.318 -0.8000 -0.5461 -1.3747
 1400SOL    HW2 5021   3.284   1.376   3.422  0.7298  0.5380 -0.2883
 1401SOL     OW 5022   5.691   6.462   2.606 -0.1670  0.0394 -0.4771
 1401SOL    HW1 5023   5.669   6.543   2.551  1.3208  0.7500 -0.0667
 1401SOL    HW2 5024   5.790   6.447   2.606 -0.4078 -1.8900 -0.6758
 1402SOL     OW 5025   6.929   5.420   6.285 -0.1545 -0.6162 -0.3056
 1402SOL    HW1 5026   6.899   5.366   6.364  0.5059 -0.7017 -0.1106
 1402SOL    HW2 5027   7.028   5.413   6.275 -0.1752 -0.2111 -0.8554
 1403SOL     OW 5028   2.996   0.567   3.688  0.0144 -0.1037 -0.2151
 1403SOL    HW1 5029   3.012   0.638   3.757 -1.7320  0.1720 -0.0350
 1403SOL    HW2 5030   3.019   0.603   3.598  1.3702 -0.1310  0.1018
 1404SOL     OW 5031   3.564   2.227   6.284  0.3198  0.2072 -0.5905
 1404SOL    HW1 5032   3.475   2.221   6.329  1.5053 -4.7553  1.7936
 1404SOL    HW2 5033   3.551   2.221   6.185 -1.9801  0.6174 -0.3724
 1405SOL     OW 5034   3.847   1.031   0.891  0.2825 -0.4693 -0.4542
 1405SOL    HW1 5035   3.941   1.006   0.870  0.2062 -0.2697 -1.0686
 1405SOL    HW2 5036   3.843   1.125   0.924  0.4001 -0.7759  0.4537
 1406SOL     OW 5037   6.294   5.615   3.530  0.1551  0.1564 -0.3100
 1406SOL    HW1 5038   6.237   5.610   3.448  0.0044  0.8603 -0.2529
 1406SOL    HW2 5039   6.361   5.542   3.528  0.2479  0.2552 -1.1375
 1407SOL     OW 5040   2.840   3.117   0.178  0.4939  0.6688 -0.6054
 1407SOL    HW1 5041   2.911   3.134   0.109  1.7284  0.8446  0.6630
 1407SOL    HW2 5042   2.836   3.020   0.198  0.0962  0.6110 -0.9594
 1408SOL     OW 5043   3.964   2.803   0.331  0.3065 -0.4081 -0.6159
 1408SOL    HW1 5044   3.987   2.801   0.234 -0.3031 -0.6134 -0.7629
 1408SOL    HW2 5045   4.047   2.801   0.385  0.6157 -1.5477 -1.1147
 1409SOL     OW 5046   4.801   2.151   5.806  0.2711 -0.4087  0.3253
 1409SOL    HW1 5047   4.720   2.094   5.790 -0.1069 -0.1677  1.3055
 1409SOL    HW2 5048   4.799   2.230   5.745 -0.1272 -0.5027  0.2123
 1410SOL     OW 5049   1.521   1.892   0.612 -0.2063  0.2964  0.1935
 1410SOL    HW1 5050   1.581   1.962   0.574 -1.7169  2.1595  1.0613
 1410SOL    HW2 5051   1.571   1.806   0.621  1.5248  1.0588 -1.5259
 1411SOL     OW 5052   4.612   5.766   1.727 -0.1809  0.1243 -0.4229
 1411SOL    HW1 5053   4.629   5.864   1.712 -0.0268 -0.1318 -2.0485
 1411SOL    HW2 5054   4.520   5.753   1.765 -0.6999  0.8304 -1.3958
 1412SOL     OW 5055   3.488   0.089   5.546  0.3442 -0.2643  0.0942
 1412SOL    HW1 5056   3.537   0.057   5.627  1.1270 -1.0761 -0.6727
 1412SOL    HW2 5057   3.554   0.112   5.474 -0.3652 -0.8963 -0.7884
 1413SOL     OW 5058   2.367   3.076   4.973 -0.4622  0.0672 -0.5568
 1413SOL    HW1 5059   2.382   3.159   5.028  0.4423  0.0847 -0.8165
 1413SOL    HW2 5060   2.426   3.003   5.006 -1.6075 -0.6387 -0.0188
 1414SOL     OW 5061   4.642   5.734   6.721  0.1146  0.4816 -0.0527
 1414SOL    HW1 5062   4.611   5.642   6.744 -2.0407  0.9991 -0.6851
 1414SOL    HW2 5063   4.608   5.799   6.790  0.0355  1.0393 -0.6092
 1415SOL     OW 5064   6.004   1.106   6.583 -0.1080  0.3989 -0.1226
 1415SOL    HW1 5065   6.054   1.099   6.497  0.0007  0.4699 -0.0655
 1415SOL    HW2 5066   5.914   1.147   6.566 -0.3518 -0.2030 -0.3028
 1416SOL     OW 5067   6.658   5.969   1.696 -0.3977 -0.0025 -0.1802
 1416SOL    HW1 5068   6.688   5.887   1.648 -1.1128 -0.7019  0.5299
 1416SOL    HW2 5069   6.703   5.974   1.786 -1.1194 -0.1744  0.2011
 1417SOL     OW 5070   6.127   1.114   6.083 -0.2323  0.0376  0.8253
 1417SOL    HW1 5071   6.132   1.210   6.057 -0.5153 -0.0599  0.4078
 1417SOL    HW2 5072   6.032   1.087   6.096 -0.1203 -0.0280  1.5557
 1418SOL     OW 5073   3.103   2.418   1.859  0.1850 -0.2610 -0.0434
 1418SOL    HW1 5074   3.093   2.330   1.813  0.8147 -1.6437  2.2693
 1418SOL    HW2 5075   3.148   2.483   1.798 -1.2992 -1.1470 -2.2008
 1419SOL     OW 5076   2.158   6.868   5.364  0.2188 -0.4339  0.3255
 1419SOL    HW1 5077   2.116   6.876   5.454 -0.5842 -0.1535 -0.0685
 1419SOL    HW2 5078   2.188   6.959   5.334  0.2368 -0.4856  0.1889
 1420SOL     OW 5079   3.038   6.672   0.905 -0.3179 -0.6792 -0.2142
 1420SOL    HW1 5080   3.032   6.646   1.001  0.3550 -0.3436 -0.0760
 1420SOL    HW2 5081   3.134   6.685   0.880 -0.5625  0.6221 -0.5578
 1421SOL     OW 5082   6.888   1.678   3.216 -0.1423  0.1397  0.4233
 1421SOL    HW1 5083   6.948   1.641   3.145 -0.7212 -1.9809  0.9828
 1421SOL    HW2 5084   6.793   1.675   3.185 -0.1245  2.5029 -0.0399
 1422SOL     OW 5085   2.847   3.476   4.141  0.4622 -0.1414  0.5718
 1422SOL    HW1 5086   2.907   3.538   4.091  2.1896 -3.1055 -1.3619
 1422SOL    HW2 5087   2.757   3.475   4.098  1.4080 -1.3182 -1.5577
 1423SOL     OW 5088   6.937   4.980   1.530  0.4835 -0.8956  0.2244
 1423SOL    HW1 5089   6.923   5.075   1.557  1.0994 -0.7937  0.1793
 1423SOL    HW2 5090   6.979   4.929   1.605  0.6714 -1.0037  0.0454
 1424SOL     OW 5091   4.408   3.687   2.300 -0.3625 -0.1613 -0.0436
 1424SOL    HW1 5092   4.447   3.642   2.219 -0.6011 -0.8897  0.2388
 1424SOL    HW2 5093   4.407   3.623   2.376  0.7527  0.8044  0.8265
 1425SOL     OW 5094   4.108   3.240   5.102 -0.6943  0.0186  0.7857
 1425SOL    HW1 5095   4.038   3.177   5.134 -1.7531  0.6412 -0.2490
 1425SOL    HW2 5096   4.082   3.334   5.125 -2.5567  0.7559 -3.4646
 1426SOL     OW 5097   4.714   2.176   4.196 -0.5205  0.0659  0.2564
 1426SOL    HW1 5098   4.618   2.203   4.198 -0.1112  1.7626 -0.4789
 1426SOL    HW2 5099   4.755   2.207   4.109  0.5326 -1.2088  0.2696
 1427SOL     OW 5100   3.598   1.065   6.397  0.0757  0.3480 -0.3578
 1427SOL    HW1 5101   3.563   1.129   6.465  0.4984  1.4368 -1.1379
 1427SOL    HW2 5102   3.668   1.007   6.439  0.7334  1.3817  0.0119
 1428SOL     OW 5103   2.474   5.126   3.507  0.0986  0.3848  0.1989
 1428SOL    HW1 5104   2.523   5.166   3.429  0.5739  0.6982  0.6512
 1428SOL    HW2 5105   2.529   5.137   3.590 -1.0537  1.3773  0.8521
 1429SOL     OW 5106   4.634   3.037   1.375  0.0754  0.4917 -0.8226
 1429SOL    HW1 5107   4.651   3.029   1.473 -0.7989  1.6481 -0.5538
 1429SOL    HW2 5108   4.536   3.038   1.357  0.1841 -1.6085 -1.9224
 1430SOL     OW 5109   3.490   2.763   3.848 -0.2899 -0.1728  0.6667
 1430SOL    HW1 5110   3.463   2.702   3.774 -0.1423  0.0628  0.4122
 1430SOL    HW2 5111   3.418   2.831   3.864  0.2996  0.7149 -0.2956
 1431SOL     OW 5112   6.160   6.885   2.123 -0.5569  0.1909 -0.1522
 1431SOL    HW1 5113   6.198   6.977   2.139 -0.7454 -0.2545  3.8251
 1431SOL    HW2 5114   6.235   6.821   2.109 -0.3884  0.7611 -2.1172
 1432SOL     OW 5115   1.913   5.609   2.363 -0.5462 -0.3227  0.1078
 1432SOL    HW1 5116   1.853   5.529   2.366 -0.6536 -0.2248  2.1249
 1432SOL    HW2 5117   1.931   5.640   2.456  1.4334  0.5737 -0.5317
 1433SOL     OW 5118   4.999   1.478   0.311  0.1331 -0.7502 -0.3919
 1433SOL    HW1 5119   4.991   1.383   0.341  0.0885 -1.9759 -3.7541
 1433SOL    HW2 5120   5.094   1.498   0.289 -0.1741 -0.9721 -2.1211
 1434SOL     OW 5121   1.983   6.335   0.755  0.2363  0.6762 -0.1328
 1434SOL    HW1 5122   2.066   6.373   0.794 -0.0313 -0.8763  2.2092
 1434SOL    HW2 5123   1.982   6.236   0.770 -1.0224  0.3157 -2.1554
 1435SOL     OW 5124   6.599   6.807   5.698  0.1638 -0.8250 -0.1182
 1435SOL    HW1 5125   6.646   6.720   5.711 -0.9798 -1.1112  2.8154
 1435SOL    HW2 5126   6.514   6.792   5.648 -0.0597 -1.4055  0.4321
 1436SOL     OW 5127   2.174   6.858   2.376  0.1934  0.6517  0.6444
 1436SOL    HW1 5128   2.159   6.954   2.352 -0.5702  0.3311 -0.2024
 1436SOL    HW2 5129   2.270   6.835   2.359 -0.1398  0.6304 -1.5232
 1437SOL     OW 5130   0.969   4.532   2.184  0.3689  0.2246 -0.0801
 1437SOL    HW1 5131   0.991   4.628   2.166  3.0493 -0.3392 -0.2171
 1437SOL    HW2 5132   0.973   4.479   2.099 -0.6159 -0.1256  0.0711
 1438SOL     OW 5133   3.681   4.350   6.571 -0.0478  0.2745 -0.0049
 1438SOL    HW1 5134   3.721   4.425   6.518 -1.0615  0.7319 -0.1551
 1438SOL    HW2 5135   3.726   4.345   6.660 -0.1689  1.2740  0.1263
 1439SOL     OW 5136   1.184   3.035   6.215  0.6208 -0.0502 -0.9285
 1439SOL    HW1 5137   1.244   3.114   6.226  0.4074 -0.0304  0.3243
 1439SOL    HW2 5138   1.226   2.955   6.258  0.3452 -0.3525 -1.2162
 1440SOL     OW 5139   0.751   4.317   0.037 -0.0124  0.2092 -0.2465
 1440SOL    HW1 5140   0.680   4.252   0.010  0.4860 -0.1671 -0.6865
 1440SOL    HW2 5141   0.737   4.404  -0.012 -0.2226  0.1707 -0.2557
 1441SOL     OW 5142   0.878   1.721   1.066 -0.0639 -0.1543  0.2388
 1441SOL    HW1 5143   0.837   1.666   1.139  0.7168 -0.1898  0.6707
 1441SOL    HW2 5144   0.807   1.752   1.003 -0.9665  0.9365  1.7089
 1442SOL     OW 5145   0.527   4.374   5.687 -0.2299 -0.8972  0.0958
 1442SOL    HW1 5146   0.533   4.302   5.756 -0.4785  0.4764  1.6137
 1442SOL    HW2 5147   0.615   4.383   5.640  0.2230 -1.2965  0.8446
 1443SOL     OW 5148   4.365   2.892   6.289  0.0247  0.2150  0.2811
 1443SOL    HW1 5149   4.357   2.806   6.239  3.3719 -0.9120  1.4333
 1443SOL    HW2 5150   4.320   2.883   6.378  1.8141 -1.0508  1.1159
 1444SOL     OW 5151   3.188   1.863   0.388 -0.1025  0.5849  1.0852
 1444SOL    HW1 5152   3.130   1.867   0.306  1.5921 -1.5344 -0.3156
 1444SOL    HW2 5153   3.225   1.771   0.399  0.6917  1.1232  3.6076
 1445SOL     OW 5154   1.294   1.838   2.133  0.0730 -0.1155  0.1545
 1445SOL    HW1 5155   1.290   1.739   2.115 -0.5136  0.0481 -0.6718
 1445SOL    HW2 5156   1.201   1.874   2.140  0.2785  0.4566 -0.0036
 1446SOL     OW 5157   5.659   0.175   1.569  0.2993  0.1359  0.1068
 1446SOL    HW1 5158   5.613   0.232   1.636  0.3777  0.6453 -0.2670
 1446SOL    HW2 5159   5.713   0.232   1.507 -1.9741  0.0069 -2.1506
 1447SOL     OW 5160   5.431   6.197   0.283  0.1936  0.4581 -0.0482
 1447SOL    HW1 5161   5.377   6.222   0.363 -1.0405  0.5352 -0.8627
 1447SOL    HW2 5162   5.520   6.162   0.311 -1.0648 -1.7270  1.5010
 1448SOL     OW 5163   4.598   1.189   6.829 -0.2808  0.2853 -0.1200
 1448SOL    HW1 5164   4.687   1.226   6.802 -0.5718 -0.1151 -1.7882
 1448SOL    HW2 5165   4.525   1.252   6.802 -0.5611  0.1995  0.4187
 1449SOL     OW 5166   4.650   0.895   3.550 -0.3207  0.5286 -0.5359
 1449SOL    HW1 5167   4.550   0.900   3.553 -0.2638  1.9191 -0.6814
 1449SOL    HW2 5168   4.684   0.948   3.473  0.6727  2.5097  1.1638
 1450SOL     OW 5169   3.899   0.810   3.155 -0.0528  0.0504 -0.7108
 1450SOL    HW1 5170   3.873   0.904   3.177 -0.0253 -0.5249  2.1327
 1450SOL    HW2 5171   3.988   0.790   3.195 -0.5374 -1.4831 -0.3323
 1451SOL     OW 5172   0.923   0.143   6.374 -0.1973  0.0582 -0.1101
 1451SOL    HW1 5173   0.868   0.226   6.364  0.9519  0.9077  0.4072
 1451SOL    HW2 5174   0.996   0.143   6.306 -0.5595 -0.8553 -0.5154
 1452SOL     OW 5175   1.862   4.625   2.679 -0.5255  0.1191  0.2338
 1452SOL    HW1 5176   1.894   4.598   2.588  3.0687 -0.4441  1.4840
 1452SOL    HW2 5177   1.843   4.544   2.733  0.7698  0.3046  1.0074
 1453SOL     OW 5178   3.542   5.587   4.157  0.1254  0.1953 -0.7585
 1453SOL    HW1 5179   3.604   5.614   4.231 -0.0924 -1.7354  0.1987
 1453SOL    HW2 5180   3.468   5.531   4.195 -0.6352  0.1087 -2.3007
 1454SOL     OW 5181   4.801   6.180   4.829 -0.7060  0.9389  0.9959
 1454SOL    HW1 5182   4.879   6.124   4.800 -0.3735  0.9976  1.7486
 1454SOL    HW2 5183   4.723   6.161   4.771 -0.7505 -0.6835  1.5328
 1455SOL     OW 5184   3.884   0.692   1.776 -0.2233 -0.1839  0.3731
 1455SOL    HW1 5185   3.946   0.763   1.810 -0.4924 -0.0956  0.6788
 1455SOL    HW2 5186   3.931   0.638   1.706 -0.1097  0.4748 -0.0720
 1456SOL     OW 5187   4.657   6.782   1.901 -0.2897  0.2673  0.1590
 1456SOL    HW1 5188   4.685   6.819   1.812 -0.4634  0.2838  0.1113
 1456SOL    HW2 5189   4.738   6.748   1.949 -0.3149 -0.6008 -0.3967
 1457SOL     OW 5190   2.749   6.110   4.426 -0.2490 -0.3441  0.1626
 1457SOL    HW1 5191   2.814   6.163   4.480 -0.1017 -0.2932 -0.0653
 1457SOL    HW2 5192   2.736   6.020   4.469 -0.5208 -0.1200  0.5641
 1458SOL     OW 5193   6.982   3.942   3.854 -0.0015 -0.0277  0.1038
 1458SOL    HW1 5194   6.883   3.944   3.867  0.3407  0.6715  3.5750
 1458SOL    HW2 5195   7.021   4.031   3.876  1.4473 -0.3359 -1.0300
 1459SOL     OW 5196   0.550   2.209   6.997 -0.0317 -0.1467  0.5396
 1459SOL    HW1 5197   0.450   2.204   7.007 -0.0516 -0.3133  0.2784
 1459SOL    HW2 5198   0.575   2.298   6.959 -0.0682 -0.0431  0.7596
 1460SOL     OW 5199   3.961   0.952   2.366  0.6359  0.3348  0.0380
 1460SOL    HW1 5200   3.910   0.868   2.385 -0.6663  0.4383 -2.4931
 1460SOL    HW2 5201   3.967   1.007   2.449  1.3091 -2.0984  1.7093
 1461SOL     OW 5202   0.480   5.078   5.761 -0.6123  0.3487 -0.4679
 1461SOL    HW1 5203   0.466   5.066   5.663 -2.8248  0.1518 -0.1808
 1461SOL    HW2 5204   0.392   5.068   5.809  0.7615 -2.2812  1.8001
 1462SOL     OW 5205   4.441   4.791   3.359 -0.1051  0.4244  0.6504
 1462SOL    HW1 5206   4.458   4.889   3.363 -0.9621  0.7314 -1.6265
 1462SOL    HW2 5207   4.526   4.742   3.374  1.0804  1.6545 -1.5010
 1463SOL     OW 5208   1.277   0.656   2.593 -0.2057  0.0317  0.0522
 1463SOL    HW1 5209   1.262   0.751   2.565  2.0062  0.6849  0.8184
 1463SOL    HW2 5210   1.299   0.654   2.690  2.4548 -0.8573 -0.4728
 1464SOL     OW 5211   0.767   4.727   2.649  0.3241 -0.2280 -0.5248
 1464SOL    HW1 5212   0.781   4.813   2.601  3.2915 -0.2188  0.2003
 1464SOL    HW2 5213   0.715   4.743   2.733 -1.3090  0.3959 -1.6174
 1465SOL     OW 5214   6.348   4.947   5.501  0.3784  0.2741 -0.4138
 1465SOL    HW1 5215   6.433   4.976   5.544 -0.1851 -0.7110  1.4993
 1465SOL    HW2 5216   6.326   4.854   5.531 -1.4473  0.5729 -0.7301
 1466SOL     OW 5217   1.554   6.465   2.272  0.0021  0.1960 -0.0169
 1466SOL    HW1 5218   1.626   6.434   2.334  0.8634  0.7898 -0.6944
 1466SOL    HW2 5219   1.490   6.390   2.254  0.7857 -0.5171  0.1198
 1467SOL     OW 5220   2.062   5.751   2.550  0.3462 -0.5390  0.4489
 1467SOL    HW1 5221   2.151   5.742   2.506 -0.1017 -0.7089 -0.4315
 1467SOL    HW2 5222   2.052   5.680   2.619  0.5663 -1.0256 -0.0149
 1468SOL     OW 5223   6.872   0.824   3.443  0.4786 -1.2369  0.6336
 1468SOL    HW1 5224   6.813   0.903   3.426 -0.6897 -2.3882 -0.9811
 1468SOL    HW2 5225   6.823   0.757   3.499 -0.0730 -2.5032 -1.2816
 1469SOL     OW 5226   0.842   4.251   1.001  0.0892 -0.2974  0.0171
 1469SOL    HW1 5227   0.756   4.303   0.994  0.0553 -0.2929  0.4572
 1469SOL    HW2 5228   0.826   4.167   1.054  0.8894  0.8932  2.2754
 1470SOL     OW 5229   1.142   6.276   5.009  0.4512 -0.0122 -0.6633
 1470SOL    HW1 5230   1.160   6.178   5.015  2.9487  0.3506 -0.9099
 1470SOL    HW2 5231   1.217   6.326   5.053 -1.0319  1.7901 -0.0670
 1471SOL     OW 5232   6.900   2.262   2.046  0.2333 -0.2160 -0.5173
 1471SOL    HW1 5233   6.963   2.339   2.037  1.2485 -1.1647 -2.0523
 1471SOL    HW2 5234   6.951   2.180   2.074 -0.6741 -0.5692  0.1840
 1472SOL     OW 5235   2.521   1.083   2.073  0.1308 -0.1243 -0.1565
 1472SOL    HW1 5236   2.444   1.021   2.086  1.0391 -1.4562 -0.9623
 1472SOL    HW2 5237   2.497   1.152   2.005  0.3766 -1.8986 -2.1444
 1473SOL     OW 5238   6.364   1.349   5.741 -0.2106  0.0983  0.0229
 1473SOL    HW1 5239   6.418   1.390   5.814  1.0602 -1.0158 -0.2612
 1473SOL    HW2 5240   6.271   1.386   5.744  0.5116  2.0014  0.5711
 1474SOL     OW 5241   2.862   2.177   0.226  0.1143  0.5580  0.1475
 1474SOL    HW1 5242   2.906   2.089   0.217 -0.4372  0.1498  1.1883
 1474SOL    HW2 5243   2.763   2.166   0.219  0.1299  1.4483 -2.0969
 1475SOL     OW 5244   6.372   6.702   5.577  0.0400  0.2576  0.5202
 1475SOL    HW1 5245   6.326   6.692   5.666  0.7006  2.5917  1.2045
 1475SOL    HW2 5246   6.308   6.680   5.504 -0.6475 -1.3172  1.5480
 1476SOL     OW 5247   0.767   6.423   3.047  0.2630  0.3573 -0.2323
 1476SOL    HW1 5248   0.842   6.445   2.986  0.9246  0.2732  0.5345
 1476SOL    HW2 5249   0.756   6.324   3.053  1.6436  0.2532  1.4457
 1477SOL     OW 5250   2.875   1.666   4.134  0.0433 -0.3123 -0.2071
 1477SOL    HW1 5251   2.939   1.617   4.074 -0.4539 -0.3320 -0.7330
 1477SOL    HW2 5252   2.810   1.600   4.173  1.4808 -0.5947  1.8340
 1478SOL     OW 5253   5.856   3.485   3.138 -0.6963  0.1609  0.3747
 1478SOL    HW1 5254   5.769   3.443   3.168 -1.4279  1.2659 -0.1533
 1478SOL    HW2 5255   5.897   3.428   3.067 -1.0959 -0.2711  0.4816
 1479SOL     OW 5256   2.640   2.597   5.498 -0.2501  0.0580 -0.7481
 1479SOL    HW1 5257   2.563   2.568   5.441 -1.1033  1.5027 -0.3707
 1479SOL    HW2 5258   2.649   2.536   5.576 -0.4666 -0.6256 -1.2520
 1480SOL     OW 5259   1.033   2.226   4.438 -0.0663 -0.2269  0.5832
 1480SOL    HW1 5260   1.060   2.147   4.493  1.5977 -1.2304 -1.4980
 1480SOL    HW2 5261   1.077   2.308   4.473  0.8498 -0.8142  0.8532
 1481SOL     OW 5262   0.267   2.785   1.221  0.3100  0.5387  0.1704
 1481SOL    HW1 5263   0.342   2.776   1.286  0.0390 -2.3366  0.1954
 1481SOL    HW2 5264   0.303   2.821   1.135  1.2061  1.6049  0.9530
 1482SOL     OW 5265   0.610   0.122   2.447  0.2246 -0.6549 -0.1919
 1482SOL    HW1 5266   0.694   0.176   2.441 -0.0717 -0.2945 -1.8232
 1482SOL    HW2 5267   0.624   0.044   2.508  1.1069  0.4797  1.1033
 1483SOL     OW 5268   6.185   1.139   5.243  0.1778 -0.2580  0.2401
 1483SOL    HW1 5269   6.254   1.126   5.171 -0.3300 -3.0466  0.1647
 1483SOL    HW2 5270   6.230   1.154   5.330  0.9349 -1.9886  0.1793
 1484SOL     OW 5271   1.113   5.074   6.880 -0.0841  0.3282  0.4409
 1484SOL    HW1 5272   1.115   5.006   6.807 -0.6990 -0.7991  1.4311
 1484SOL    HW2 5273   1.067   5.157   6.849 -0.7493 -0.3110 -0.3015
 1485SOL     OW 5274   4.999   4.260   3.551  0.2711 -0.3108  0.1398
 1485SOL    HW1 5275   4.982   4.255   3.453  1.5302  1.2660 -0.2088
 1485SOL    HW2 5276   4.913   4.275   3.599 -0.1256  1.1260 -0.9512
 1486SOL     OW 5277   6.787   3.895   4.087  0.0403  0.2836  0.7721
 1486SOL    HW1 5278   6.862   3.833   4.109  0.5799  0.5133 -0.3604
 1486SOL    HW2 5279   6.765   3.949   4.168  0.0214 -0.8814  1.5784
 1487SOL     OW 5280   6.120   5.638   2.813 -0.2210  0.1201  0.0870
 1487SOL    HW1 5281   6.048   5.584   2.855 -1.4010  1.7137  0.1971
 1487SOL    HW2 5282   6.205   5.627   2.865  0.3049 -3.4343 -1.2371
 1488SOL     OW 5283   6.675   3.614   4.398 -0.3652  0.1729 -0.0917
 1488SOL    HW1 5284   6.582   3.644   4.417 -1.0558 -1.7756 -0.2188
 1488SOL    HW2 5285   6.716   3.674   4.329 -2.6938 -0.7961 -2.4866
 1489SOL     OW 5286   3.317   3.327   3.369 -0.4257 -0.5158  0.0569
 1489SOL    HW1 5287   3.338   3.290   3.278  0.8999  0.7715 -0.2134
 1489SOL    HW2 5288   3.237   3.281   3.407 -0.6806 -1.4536 -1.5370
 1490SOL     OW 5289   3.448   5.390   2.573 -0.1181 -0.6745 -0.1471
 1490SOL    HW1 5290   3.425   5.403   2.670  2.6162  0.6768  0.4206
 1490SOL    HW2 5291   3.392   5.316   2.535 -1.8421 -0.7001  2.2100
 1491SOL     OW 5292   4.729   4.952   2.784  0.5699 -0.0069 -0.6167
 1491SOL    HW1 5293   4.781   4.954   2.699  1.8382  0.4280  0.1451
 1491SOL    HW2 5294   4.748   5.035   2.836  0.2212 -0.5078  0.3284
 1492SOL     OW 5295   1.326   6.984   6.038  0.2460 -0.0394  0.3048
 1492SOL    HW1 5296   1.373   7.071   6.053 -0.6698  1.0832 -2.6559
 1492SOL    HW2 5297   1.253   6.974   6.106  1.3521  0.7145  1.6565
 1493SOL     OW 5298   5.690   4.786   6.826 -0.0957  0.1540  0.5080
 1493SOL    HW1 5299   5.672   4.702   6.776 -0.2899  0.9129 -0.7558
 1493SOL    HW2 5300   5.604   4.831   6.849  0.0165  0.8801 -0.4059
 1494SOL     OW 5301   1.410   0.606   4.146  0.8026  0.0844  0.4057
 1494SOL    HW1 5302   1.397   0.695   4.189  0.9892  1.5230 -2.3282
 1494SOL    HW2 5303   1.500   0.603   4.101  0.8398 -1.5422  0.5121
 1495SOL     OW 5304   5.401   0.745   6.601 -0.5521 -0.0328  0.1765
 1495SOL    HW1 5305   5.420   0.691   6.519  0.2558  1.9494 -1.0277
 1495SOL    HW2 5306   5.478   0.735   6.665 -0.1996  0.0426 -0.2292
 1496SOL     OW 5307   2.159   0.091   0.464 -0.6555  0.1283 -0.1449
 1496SOL    HW1 5308   2.231   0.160   0.458 -2.0680  1.5401 -1.5330
 1496SOL    HW2 5309   2.188   0.019   0.527  1.0561  1.7258  0.9972
 1497SOL     OW 5310   4.886   2.443   1.095 -0.1013  0.1043 -0.1792
 1497SOL    HW1 5311   4.986   2.450   1.092 -0.0101 -1.0212 -0.5375
 1497SOL    HW2 5312   4.855   2.385   1.019 -0.9654 -0.1124  0.3236
 1498SOL     OW 5313   0.358   5.475   3.181 -0.1314  0.5800 -0.1425
 1498SOL    HW1 5314   0.441   5.432   3.146 -0.8221  1.8757 -3.8673
 1498SOL    HW2 5315   0.338   5.440   3.272  3.0784 -1.6351 -0.1250
 1499SOL     OW 5316   4.662   6.515   5.395  0.1106 -0.1034 -0.6647
 1499SOL    HW1 5317   4.673   6.610   5.364 -0.0169 -0.1664 -0.9118
 1499SOL    HW2 5318   4.663   6.455   5.315 -1.1475 -0.1878 -0.6475
 1500SOL     OW 5319   3.599   6.919   4.578  0.0008 -0.0391 -0.4790
 1500SOL    HW1 5320   3.626   6.865   4.499 -0.6125 -0.2216 -0.5687
 1500SOL    HW2 5321   3.574   7.012   4.549  2.4445  0.7920 -0.1584
 1501SOL     OW 5322   6.492   3.589   0.018  0.0915  0.3397  0.2091
 1501SOL    HW1 5323   6.567   3.597   0.083  0.2283 -0.9426  0.2344
 1501SOL    HW2 5324   6.518   3.528  -0.057 -0.9397 -0.1879  0.2567
 1502SOL     OW 5325   0.535   6.665   6.199  0.1555  0.4618 -0.0595
 1502SOL    HW1 5326   0.462   6.597   6.186  0.8584 -0.3012 -0.0987
 1502SOL    HW2 5327   0.513   6.722   6.279 -0.3943  0.1285  0.0379
 1503SOL     OW 5328   5.002   3.476   4.728  0.2224  0.1309 -0.1263
 1503SOL    HW1 5329   4.911   3.467   4.768 -0.6766  0.7462 -1.9303
 1503SOL    HW2 5330   5.060   3.402   4.761 -0.4905  0.4979  2.1287
 1504SOL     OW 5331   1.105   5.962   0.454  0.0757 -0.1773 -0.3772
 1504SOL    HW1 5332   1.009   5.950   0.427  0.0273  0.2065 -0.3818
 1504SOL    HW2 5333   1.117   6.052   0.494  0.3221 -0.4373  0.1408
 1505SOL     OW 5334   3.440   3.401   6.520  0.0270  0.2411 -0.3128
 1505SOL    HW1 5335   3.449   3.448   6.607 -0.1529 -0.1113 -0.1023
 1505SOL    HW2 5336   3.441   3.302   6.534 -0.3096  0.1784 -0.6716
 1506SOL     OW 5337   1.065   2.972   1.928  0.8885  0.9410  0.0292
 1506SOL    HW1 5338   0.981   3.015   1.896 -0.2066 -1.7103 -0.9905
 1506SOL    HW2 5339   1.048   2.928   2.016  1.3043  0.6882 -0.0156
 1507SOL     OW 5340   1.905   6.861   3.884 -0.7643  0.4290 -0.1472
 1507SOL    HW1 5341   1.824   6.853   3.825 -2.0448  1.3632  1.3920
 1507SOL    HW2 5342   1.909   6.783   3.946 -0.8803  0.7138  0.2241
 1508SOL     OW 5343   0.960   3.400   3.703 -0.2507  0.0179  0.5778
 1508SOL    HW1 5344   0.867   3.386   3.671  0.4754  1.1794 -2.4032
 1508SOL    HW2 5345   0.992   3.490   3.673  2.2827 -0.9167  0.2444
 1509SOL     OW 5346   2.097   6.218   4.324 -0.4376  0.5996 -0.5987
 1509SOL    HW1 5347   2.028   6.240   4.393 -1.1371 -0.2821 -0.9886
 1509SOL    HW2 5348   2.173   6.283   4.330 -0.8556  1.0097  0.4694
 1510SOL     OW 5349   4.059   4.059   5.089 -0.6240 -0.2762  0.6804
 1510SOL    HW1 5350   4.128   4.014   5.032 -0.4858  1.1461 -0.3290
 1510SOL    HW2 5351   3.975   4.070   5.037 -0.1554  2.0084  0.3369
 1511SOL     OW 5352   3.901   3.804   1.432 -0.2066 -0.2293  0.0743
 1511SOL    HW1 5353   3.911   3.882   1.494  0.5664 -0.5689  0.3837
 1511SOL    HW2 5354   3.913   3.834   1.338 -2.8096  0.5787 -0.0933
 1512SOL     OW 5355   2.595   4.988   1.832  0.6392 -0.1004  0.8007
 1512SOL    HW1 5356   2.684   5.020   1.802  1.1073 -0.3823  1.8669
 1512SOL    HW2 5357   2.525   5.056   1.810  0.7518 -0.7446 -1.9422
 1513SOL     OW 5358   3.877   0.758   3.777 -0.0172 -0.2201 -0.7459
 1513SOL    HW1 5359   3.895   0.695   3.852 -0.2248 -1.8368 -2.0177
 1513SOL    HW2 5360   3.779   0.770   3.766 -0.0042  2.4203  1.1296
 1514SOL     OW 5361   5.211   0.502   6.562 -0.7009 -0.4718 -0.1390
 1514SOL    HW1 5362   5.303   0.510   6.523 -0.7546 -0.1986 -0.2117
 1514SOL    HW2 5363   5.195   0.407   6.590 -0.6085 -0.6465 -0.6603
 1515SOL     OW 5364   1.589   5.193   3.841 -0.2665  0.3209 -0.6574
 1515SOL    HW1 5365   1.649   5.245   3.781  0.5818  0.6739  0.4663
 1515SOL    HW2 5366   1.609   5.216   3.937 -0.0021 -1.9207 -0.1217
 1516SOL     OW 5367   6.246   3.133   5.516 -0.0693 -0.1956  0.4887
 1516SOL    HW1 5368   6.173   3.101   5.576  0.5039 -0.3465  1.1197
 1516SOL    HW2 5369   6.271   3.061   5.452 -0.7305 -0.0108  0.0134
 1517SOL     OW 5370   1.394   4.825   5.264 -0.6425  0.1482 -0.4323
 1517SOL    HW1 5371   1.442   4.832   5.352 -0.0909  2.6606 -0.8785
 1517SOL    HW2 5372   1.375   4.729   5.245  2.2012 -0.7768  0.8397
 1518SOL     OW 5373   4.488   1.878   4.944  0.4328 -0.4444 -0.2504
 1518SOL    HW1 5374   4.587   1.865   4.957  0.3915 -1.5511 -0.9394
 1518SOL    HW2 5375   4.442   1.869   5.032  1.1929  3.1600  0.6835
 1519SOL     OW 5376   0.407   4.493   6.289 -0.0594 -0.2433 -0.6081
 1519SOL    HW1 5377   0.494   4.542   6.297 -0.3297  0.6302 -2.4722
 1519SOL    HW2 5378   0.332   4.559   6.284 -0.5949 -0.8963 -1.4247
 1520SOL     OW 5379   4.794   5.169   2.995  0.0664  0.6798 -0.5018
 1520SOL    HW1 5380   4.793   5.203   3.090  1.6334  0.2625 -0.3122
 1520SOL    HW2 5381   4.867   5.214   2.945 -0.1627  0.2117 -1.2692
 1521SOL     OW 5382   0.240   2.576   5.076  0.2723 -0.1941 -0.4978
 1521SOL    HW1 5383   0.152   2.530   5.076 -0.3454  0.9343 -1.7594
 1521SOL    HW2 5384   0.266   2.599   4.982 -0.0306  3.0685  0.1231
 1522SOL     OW 5385   5.868   6.481   6.354 -0.3427 -0.0289  0.5440
 1522SOL    HW1 5386   5.926   6.544   6.407  2.6205 -0.9205 -1.3328
 1522SOL    HW2 5387   5.833   6.410   6.413  0.7820  0.3793  1.7640
 1523SOL     OW 5388   6.437   6.177   6.240 -0.0940  0.2870 -0.0365
 1523SOL    HW1 5389   6.458   6.118   6.318  0.9401  0.2631 -0.3112
 1523SOL    HW2 5390   6.516   6.179   6.178 -0.5631  1.0201 -0.6266
 1524SOL     OW 5391   6.947   0.032   2.619  0.1421  0.6892 -0.0270
 1524SOL    HW1 5392   6.883   0.105   2.593 -0.6738  0.0992  0.2760
 1524SOL    HW2 5393   7.009   0.066   2.690 -1.5415  0.5391  1.6193
 1525SOL     OW 5394   6.636   0.930   2.524 -0.5083  0.4359  0.1458
 1525SOL    HW1 5395   6.715   0.873   2.545 -0.1306  0.6368 -0.6774
 1525SOL    HW2 5396   6.559   0.872   2.496 -0.9758  0.1757  1.8730
 1526SOL     OW 5397   4.912   2.285   6.562 -0.1327 -0.5599  0.4437
 1526SOL    HW1 5398   4.826   2.239   6.538 -0.4763  0.4153 -0.2849
 1526SOL    HW2 5399   4.893   2.356   6.630  0.5768 -2.1861  2.4503
 1527SOL     OW 5400   6.714   4.763   2.914  0.5017 -0.1259  0.4647
 1527SOL    HW1 5401   6.700   4.665   2.926 -2.3667  0.1918  0.4766
 1527SOL    HW2 5402   6.661   4.813   2.982  0.8639  1.4622 -0.3661
 1528SOL     OW 5403   6.514   2.113   3.162 -0.4569 -0.6120 -0.5479
 1528SOL    HW1 5404   6.557   2.204   3.155 -1.4731 -0.2683 -4.3793
 1528SOL    HW2 5405   6.575   2.052   3.212  0.7132  1.8514  1.3030
 1529SOL     OW 5406   1.816   5.629   6.539  0.1439  0.0614 -0.1921
 1529SOL    HW1 5407   1.914   5.622   6.556  0.4851  0.8705 -1.6942
 1529SOL    HW2 5408   1.777   5.701   6.597 -0.0532 -1.7839  2.1229
 1530SOL     OW 5409   2.055   5.133   4.522 -0.4391  0.4784 -0.4925
 1530SOL    HW1 5410   2.000   5.053   4.495 -0.9056 -0.7400  3.4164
 1530SOL    HW2 5411   2.145   5.126   4.480 -1.0600 -1.1167 -1.6982
 1531SOL     OW 5412   2.093   4.311   3.953  0.0620 -0.4473  0.2002
 1531SOL    HW1 5413   2.048   4.247   4.015  1.7024 -0.4209  1.4973
 1531SOL    HW2 5414   2.039   4.395   3.947 -0.6968 -0.8882  0.7271
 1532SOL     OW 5415   1.154   2.302   0.611  0.0299  0.2911 -0.2038
 1532SOL    HW1 5416   1.085   2.284   0.541 -1.3813 -0.7808  1.3964
 1532SOL    HW2 5417   1.222   2.229   0.612 -0.5177 -0.2187  0.1943
 1533SOL     OW 5418   5.134   2.284   5.347  0.0557 -0.2078  0.2037
 1533SOL    HW1 5419   5.048   2.279   5.298 -0.8444 -0.7481  1.7731
 1533SOL    HW2 5420   5.158   2.380   5.362 -0.2969 -0.0558 -0.2023
 1534SOL     OW 5421   3.794   6.900   2.348 -0.0700 -0.5995 -0.0677
 1534SOL    HW1 5422   3.886   6.886   2.314 -0.2029 -0.9504 -0.2799
 1534SOL    HW2 5423   3.745   6.963   2.288 -0.3493 -1.3230 -0.6146
 1535SOL     OW 5424   2.227   6.533   2.411  0.5700 -0.1062  0.0565
 1535SOL    HW1 5425   2.183   6.620   2.435 -0.1215 -0.3109 -0.4385
 1535SOL    HW2 5426   2.231   6.474   2.492 -0.3936 -0.2180  0.0330
 1536SOL     OW 5427   1.736   5.919   6.060 -0.6142  0.2051 -0.5498
 1536SOL    HW1 5428   1.711   5.927   5.964 -0.3828  0.5191 -0.5859
 1536SOL    HW2 5429   1.834   5.905   6.068 -0.1628  2.8822 -0.2766
 1537SOL     OW 5430   2.387   2.910   6.163 -0.3342  0.1273  0.3004
 1537SOL    HW1 5431   2.368   2.886   6.068  2.0976  2.4991 -0.9026
 1537SOL    HW2 5432   2.312   2.966   6.198  0.4457  2.4982 -1.5811
 1538SOL     OW 5433   6.917   4.011   1.114 -0.1283 -0.3284  0.4768
 1538SOL    HW1 5434   6.891   3.915   1.126 -1.8736  0.1500  0.7263
 1538SOL    HW2 5435   6.918   4.034   1.017  2.9164 -1.2390  0.1833
 1539SOL     OW 5436   2.520   6.283   2.708 -0.2764 -0.1066 -0.1708
 1539SOL    HW1 5437   2.474   6.263   2.622 -0.3089  0.1852 -0.2214
 1539SOL    HW2 5438   2.475   6.361   2.753 -0.8312 -0.8142  0.5415
 1540SOL     OW 5439   5.381   3.293   1.081 -0.0574  0.0150 -0.1468
 1540SOL    HW1 5440   5.350   3.340   1.164  1.3910  0.7264  0.0136
 1540SOL    HW2 5441   5.311   3.300   1.010 -0.8007  0.4455  0.6193
 1541SOL     OW 5442   5.573   5.608   3.483 -0.0774 -0.0914 -0.0793
 1541SOL    HW1 5443   5.488   5.611   3.535  0.1804 -0.6151  0.3764
 1541SOL    HW2 5444   5.556   5.641   3.390 -0.4988  1.0481  0.3808
 1542SOL     OW 5445   5.565   5.634   4.672 -0.4230 -0.4497  0.0449
 1542SOL    HW1 5446   5.542   5.607   4.578  0.1134  0.5447 -0.3863
 1542SOL    HW2 5447   5.595   5.730   4.673  0.6464 -0.7666  1.0538
 1543SOL     OW 5448   0.109   4.191   5.610 -0.0652 -0.5905  0.1064
 1543SOL    HW1 5449   0.137   4.270   5.665 -0.0773 -0.9037  0.5639
 1543SOL    HW2 5450   0.161   4.191   5.525 -0.2135  0.0292  0.0056
 1544SOL     OW 5451   0.688   1.899   5.554  0.5743 -0.3733 -0.1515
 1544SOL    HW1 5452   0.666   1.914   5.457  1.3368  1.4285 -0.0877
 1544SOL    HW2 5453   0.774   1.944   5.576  0.2325 -0.4367  1.4635
 1545SOL     OW 5454   1.779   3.037   6.505  0.4261 -0.0128 -0.6931
 1545SOL    HW1 5455   1.698   3.085   6.471 -1.8067 -2.1987  1.1321
 1545SOL    HW2 5456   1.772   2.940   6.483  2.2780 -0.3546  0.0519
 1546SOL     OW 5457   4.839   0.276   6.133 -0.0790 -0.6296 -0.4817
 1546SOL    HW1 5458   4.826   0.262   6.034 -0.3526 -1.4635 -0.3342
 1546SOL    HW2 5459   4.833   0.373   6.153 -2.4600 -0.6126 -0.9790
 1547SOL     OW 5460   3.875   3.214   6.892  0.0289  0.5381 -0.4798
 1547SOL    HW1 5461   3.798   3.276   6.886  0.1404  0.7082 -0.1934
 1547SOL    HW2 5462   3.848   3.132   6.943  0.5712  1.4680  1.3878
 1548SOL     OW 5463   3.005   0.569   1.600  0.3254 -0.0346  0.6087
 1548SOL    HW1 5464   2.971   0.660   1.576  0.7502  0.2880  1.1986
 1548SOL    HW2 5465   3.025   0.566   1.698  1.4186 -0.3988  0.3827
 1549SOL     OW 5466   4.858   4.414   1.514 -0.5450 -0.1354  0.3578
 1549SOL    HW1 5467   4.801   4.405   1.432  0.2888 -0.1570 -0.2350
 1549SOL    HW2 5468   4.832   4.496   1.564  0.6423  1.3511 -1.3266
 1550SOL     OW 5469   5.242   1.782   0.478 -0.4769 -0.7860  0.3505
 1550SOL    HW1 5470   5.249   1.710   0.409  1.2685 -0.9158  0.6042
 1550SOL    HW2 5471   5.330   1.829   0.485 -1.3893  0.9316  0.6787
 1551SOL     OW 5472   5.422   5.282   1.548 -0.7111 -0.3306 -0.4956
 1551SOL    HW1 5473   5.326   5.256   1.560 -0.5365 -0.6600  0.2059
 1551SOL    HW2 5474   5.442   5.287   1.450 -1.9346  1.5927 -0.7061
 1552SOL     OW 5475   6.193   0.825   4.075  0.6685 -0.0619  0.0619
 1552SOL    HW1 5476   6.249   0.789   4.001  0.1714  0.2376 -0.4615
 1552SOL    HW2 5477   6.154   0.913   4.048  0.1819 -0.1286  0.5366
 1553SOL     OW 5478   1.805   4.809   6.922  0.2741  0.4293 -0.3507
 1553SOL    HW1 5479   1.748   4.890   6.936 -1.5150 -1.2232  3.0785
 1553SOL    HW2 5480   1.747   4.728   6.910  1.8909 -1.0057  1.0328
 1554SOL     OW 5481   6.581   3.565   3.933 -0.0916  0.4809  0.3091
 1554SOL    HW1 5482   6.636   3.488   3.903  0.3995  1.3503 -1.1529
 1554SOL    HW2 5483   6.565   3.559   4.031  1.0444 -0.7693  0.4420
 1555SOL     OW 5484   2.636   5.400   5.605  0.0090  0.2093 -0.5260
 1555SOL    HW1 5485   2.540   5.380   5.622  0.1579 -0.5748 -0.5638
 1555SOL    HW2 5486   2.644   5.485   5.553 -0.5838  1.1607  0.8759
 1556SOL     OW 5487   3.924   3.251   4.001  0.3187  0.2634  0.3551
 1556SOL    HW1 5488   4.006   3.233   4.056 -0.1621 -0.2770  0.9114
 1556SOL    HW2 5489   3.880   3.335   4.033  1.1591  1.0765 -0.5629
 1557SOL     OW 5490   3.538   0.329   5.297 -0.0206 -0.0138 -0.2918
 1557SOL    HW1 5491   3.527   0.341   5.198 -1.4864 -0.5183 -0.2164
 1557SOL    HW2 5492   3.580   0.239   5.314 -2.7612 -1.4335 -0.4170
 1558SOL     OW 5493   1.448   1.337   3.993  0.0121  0.3103 -0.4309
 1558SOL    HW1 5494   1.452   1.341   4.093  1.4535  1.1884 -0.5078
 1558SOL    HW2 5495   1.352   1.342   3.964 -0.3255  2.8659  0.8291
 1559SOL     OW 5496   4.015   3.885   1.188 -0.1344 -0.0085 -0.2056
 1559SOL    HW1 5497   4.109   3.851   1.183 -0.2045 -0.2162 -0.1534
 1559SOL    HW2 5498   3.992   3.931   1.102 -0.2819 -0.7577 -0.5849
 1560SOL     OW 5499   6.830   6.330   0.196  0.7838 -0.3687 -0.7725
 1560SOL    HW1 5500   6.845   6.234   0.221 -1.1523 -0.0442  2.1105
 1560SOL    HW2 5501   6.863   6.389   0.269 -0.4856  0.9980 -1.2551
 1561SOL     OW 5502   0.788   2.032   0.773  0.1013  0.4709 -0.3151
 1561SOL    HW1 5503   0.879   2.017   0.812 -1.1931 -2.3077  2.0338
 1561SOL    HW2 5504   0.745   2.111   0.816 -0.2564 -0.9394  2.0751
 1562SOL     OW 5505   0.367   5.344   5.019 -0.6288  0.5707  0.1236
 1562SOL    HW1 5506   0.402   5.259   5.058  1.8324  1.5314  0.2208
 1562SOL    HW2 5507   0.316   5.395   5.089 -1.1118 -0.2876  0.4021
 1563SOL     OW 5508   1.654   3.112   5.250 -0.7348  0.1828  0.4034
 1563SOL    HW1 5509   1.720   3.162   5.195 -0.3900 -0.2577  0.4116
 1563SOL    HW2 5510   1.587   3.176   5.289  0.0054  0.6940  0.8468
 1564SOL     OW 5511   1.169   0.780   3.860  0.7886 -0.0283 -0.1444
 1564SOL    HW1 5512   1.155   0.705   3.924  0.4525  1.2747  1.3620
 1564SOL    HW2 5513   1.086   0.836   3.854  0.9304  0.0794 -1.4593
 1565SOL     OW 5514   3.391   4.240   5.500  0.5167  0.1838  0.5588
 1565SOL    HW1 5515   3.379   4.165   5.435  1.9294 -1.0643  1.6662
 1565SOL    HW2 5516   3.488   4.248   5.525  0.2200  1.5983  1.3988
 1566SOL     OW 5517   2.833   4.978   1.142  0.2187  0.6072  0.6369
 1566SOL    HW1 5518   2.873   5.043   1.207  0.7118  0.7728  0.1861
 1566SOL    HW2 5519   2.786   4.905   1.191 -2.8682  2.7762  1.1997
 1567SOL     OW 5520   6.449   0.013   0.226 -0.0590  0.0004  0.0828
 1567SOL    HW1 5521   6.457  -0.045   0.307  0.0747  2.1259  1.6646
 1567SOL    HW2 5522   6.423   0.106   0.253 -1.6770  0.4087 -2.4602
 1568SOL     OW 5523   1.493   4.730   3.352 -0.2893  0.3663 -0.0555
 1568SOL    HW1 5524   1.448   4.643   3.370 -0.2410  0.5675  1.1371
 1568SOL    HW2 5525   1.588   4.714   3.324  0.4932  0.0358  2.4720
 1569SOL     OW 5526   2.404   6.976   6.469 -0.1528 -0.0080  0.1227
 1569SOL    HW1 5527   2.478   6.910   6.455 -0.4608 -0.5685  1.0060
 1569SOL    HW2 5528   2.439   7.069   6.464  0.4415 -0.2567 -0.3504
 1570SOL     OW 5529   1.806   6.461   6.540  0.4532  0.2685  0.1695
 1570SOL    HW1 5530   1.747   6.513   6.603 -1.0970  0.9691 -1.7575
 1570SOL    HW2 5531   1.777   6.365   6.540  1.2268  0.0101  1.3403
 1571SOL     OW 5532   0.722   5.300   1.241  0.2409  0.0221  0.2234
 1571SOL    HW1 5533   0.766   5.289   1.152  0.4841  0.6897  0.2545
 1571SOL    HW2 5534   0.784   5.267   1.313 -0.5763 -2.0146  0.0565
 1572SOL     OW 5535   3.702   0.401   3.026  0.3503  0.6874 -0.4688
 1572SOL    HW1 5536   3.753   0.435   2.947  0.2709 -0.0305 -0.8353
 1572SOL    HW2 5537   3.762   0.398   3.106  1.3327 -1.4466 -1.2007
 1573SOL     OW 5538   1.194   6.573   2.298 -0.3981  0.0686  0.2117
 1573SOL    HW1 5539   1.260   6.645   2.276  0.0984 -0.5782 -0.4260
 1573SOL    HW2 5540   1.238   6.484   2.292 -0.9920 -0.2978  1.0749
 1574SOL     OW 5541   4.563   1.374   5.017 -0.0714 -0.0491 -0.1516
 1574SOL    HW1 5542   4.495   1.407   4.951 -0.9527  0.4396  0.9754
 1574SOL    HW2 5543   4.535   1.398   5.110  1.4722 -0.1430  0.3786
 1575SOL     OW 5544   5.540   5.110   5.566 -0.1571 -0.0523 -0.2223
 1575SOL    HW1 5545   5.598   5.062   5.632 -0.2927 -0.2355 -0.2359
 1575SOL    HW2 5546   5.447   5.073   5.570  0.1225 -0.9654 -1.4313
 1576SOL     OW 5547   0.835   1.992   0.491  0.1726  0.8377  0.3564
 1576SOL    HW1 5548   0.799   2.049   0.565 -1.2257 -0.2625  0.5554
 1576SOL    HW2 5549   0.800   2.026   0.404  0.6253  1.2203  0.3134
 1577SOL     OW 5550   6.556   4.321   6.518  0.0944  0.0884 -0.3331
 1577SOL    HW1 5551   6.482   4.276   6.568 -0.0607  0.8415  0.1301
 1577SOL    HW2 5552   6.613   4.372   6.583  0.9880 -0.4238 -0.6926
 1578SOL     OW 5553   2.969   2.977   1.706 -0.4934 -0.2135  0.6680
 1578SOL    HW1 5554   3.029   3.045   1.749  0.9374 -1.7844  1.2658
 1578SOL    HW2 5555   2.999   2.961   1.612 -1.3095  0.4950  0.2672
 1579SOL     OW 5556   5.272   6.197   0.535  0.6091  0.8169 -0.1356
 1579SOL    HW1 5557   5.183   6.243   0.526  0.5713  0.3639 -3.1136
 1579SOL    HW2 5558   5.261   6.113   0.589 -0.5183  1.3015  0.4332
 1580SOL     OW 5559   1.504   0.763   4.438 -0.2130 -0.2299  0.0291
 1580SOL    HW1 5560   1.539   0.685   4.489  0.6007  0.2245  0.1991
 1580SOL    HW2 5561   1.410   0.782   4.464  0.2209  0.0621  1.4462
 1581SOL     OW 5562   4.352   3.297   1.188 -0.1089  0.1741 -0.2916
 1581SOL    HW1 5563   4.296   3.323   1.267  0.9272  2.2172 -0.1716
 1581SOL    HW2 5564   4.300   3.234   1.130 -0.8753 -1.4638  2.0156
 1582SOL     OW 5565   6.965   6.505   4.318 -0.4277  0.5260  0.2084
 1582SOL    HW1 5566   6.873   6.477   4.290 -0.3758  2.0978 -1.8019
 1582SOL    HW2 5567   7.007   6.433   4.374 -2.2828 -0.8867 -0.1349
 1583SOL     OW 5568   0.255   3.823   6.122 -0.2512  0.0348  0.6058
 1583SOL    HW1 5569   0.176   3.856   6.070  0.0219  0.9050  0.7165
 1583SOL    HW2 5570   0.225   3.786   6.209 -0.5086  0.7892  0.8454
 1584SOL     OW 5571   3.619   3.389   0.112  0.2292  0.3441  0.1459
 1584SOL    HW1 5572   3.670   3.418   0.193 -1.3003 -0.5816  1.5115
 1584SOL    HW2 5573   3.552   3.320   0.139  0.1208 -0.4762 -2.0559
 1585SOL     OW 5574   2.082   0.621   3.776  0.2618  0.0642  1.0120
 1585SOL    HW1 5575   2.050   0.702   3.728  0.9767  0.3790  1.0573
 1585SOL    HW2 5576   2.070   0.540   3.718 -0.1697  0.2434  0.8499
 1586SOL     OW 5577   1.856   6.356   2.733 -0.4286 -0.3952  0.3531
 1586SOL    HW1 5578   1.799   6.298   2.792  0.2524 -0.3125  1.1117
 1586SOL    HW2 5579   1.952   6.343   2.757 -0.0809 -0.8688 -1.2234
 1587SOL     OW 5580   4.877   2.637   2.255  0.1800  0.5452  0.3149
 1587SOL    HW1 5581   4.933   2.714   2.226  0.4761  0.4421  0.5974
 1587SOL    HW2 5582   4.855   2.580   2.176  1.0978  0.1865  0.3001
 1588SOL     OW 5583   4.974   2.110   4.305  0.2367  0.4727  0.5747
 1588SOL    HW1 5584   4.915   2.115   4.386 -0.4477  3.8148  0.0345
 1588SOL    HW2 5585   4.929   2.158   4.229  1.6550 -1.0160 -1.2837
 1589SOL     OW 5586   6.700   3.217   0.087 -0.0064 -0.5025  0.5898
 1589SOL    HW1 5587   6.677   3.195  -0.007 -0.2069  1.8404  0.0358
 1589SOL    HW2 5588   6.775   3.283   0.089 -1.3365  1.0719  1.9476
 1590SOL     OW 5589   1.671   2.076   1.760  0.6823  0.3968 -0.3265
 1590SOL    HW1 5590   1.604   2.060   1.832  0.7228 -0.0716 -0.3914
 1590SOL    HW2 5591   1.641   2.152   1.703  0.7202  0.8606  0.2682
 1591SOL     OW 5592   5.763   6.551   5.583  0.5177  0.6423  0.1512
 1591SOL    HW1 5593   5.855   6.586   5.565  0.9821 -0.8045 -0.4519
 1591SOL    HW2 5594   5.754   6.529   5.680  1.2626 -0.3774  0.0093
 1592SOL     OW 5595   2.610   1.123   3.909  0.8083 -0.0650  0.7817
 1592SOL    HW1 5596   2.557   1.064   3.970  1.6274 -0.3956  1.1882
 1592SOL    HW2 5597   2.548   1.170   3.846  0.1416 -1.4024  0.4043
 1593SOL     OW 5598   6.031   3.871   6.170 -0.5493 -0.5714  0.3370
 1593SOL    HW1 5599   6.068   3.820   6.248 -0.7059 -0.1986  0.6583
 1593SOL    HW2 5600   6.077   3.960   6.164 -0.5709 -0.5791  0.0292
 1594SOL     OW 5601   2.941   2.730   0.142  0.2429  0.0455 -0.3596
 1594SOL    HW1 5602   2.987   2.649   0.178  1.4425  0.5585 -0.6853
 1594SOL    HW2 5603   2.922   2.793   0.217  1.0301  0.2809 -0.3433
 1595SOL     OW 5604   1.087   4.544   6.216  0.9860  0.1133  0.0941
 1595SOL    HW1 5605   1.019   4.482   6.176 -0.1610  1.4228 -0.1048
 1595SOL    HW2 5606   1.176   4.527   6.175  0.1934  0.2332 -1.8058
 1596SOL     OW 5607   4.315   1.204   1.942 -0.0655 -0.4371  0.0304
 1596SOL    HW1 5608   4.401   1.219   1.991 -0.5140  0.9518  0.4515
 1596SOL    HW2 5609   4.321   1.120   1.889  1.8616  0.0662 -0.6374
 1597SOL     OW 5610   5.672   1.199   6.033 -0.2128  0.0727 -0.2734
 1597SOL    HW1 5611   5.660   1.299   6.038  0.9278  0.1863  3.3694
 1597SOL    HW2 5612   5.584   1.156   6.019 -0.8254  1.5568 -1.2560
 1598SOL     OW 5613   6.238   2.581   5.497 -0.1532  0.1032 -0.2031
 1598SOL    HW1 5614   6.321   2.611   5.451 -0.2274  2.0412  0.8443
 1598SOL    HW2 5615   6.259   2.503   5.557  0.7863  0.2392 -0.3467
 1599SOL     OW 5616   3.864   6.210   4.467 -0.0621  0.1514 -0.2427
 1599SOL    HW1 5617   3.910   6.296   4.489  0.5269  0.2399 -1.7137
 1599SOL    HW2 5618   3.923   6.134   4.493 -0.7633  0.1502  1.4569
 1600SOL     OW 5619   6.844   6.258   6.325 -0.4001  0.2812 -0.3621
 1600SOL    HW1 5620   6.879   6.165   6.338 -2.4718 -0.3616  1.0642
 1600SOL    HW2 5621   6.811   6.268   6.231 -0.9700 -0.7397 -0.2831
 1601SOL     OW 5622   0.765   6.828   0.911 -0.1418 -1.0248 -0.4527
 1601SOL    HW1 5623   0.677   6.785   0.932  0.1002 -2.7941 -2.6606
 1601SOL    HW2 5624   0.795   6.882   0.989 -2.4953 -1.5272  0.8939
 1602SOL     OW 5625   4.681   3.689   4.918  0.2550  0.0573 -1.0329
 1602SOL    HW1 5626   4.753   3.748   4.954 -0.8884  0.2817  1.0005
 1602SOL    HW2 5627   4.720   3.599   4.894  1.2284  0.2123 -0.0988
 1603SOL     OW 5628   2.001   6.744   5.880 -0.0501 -0.4342 -0.0916
 1603SOL    HW1 5629   1.922   6.693   5.844  0.0827 -0.7230  0.0171
 1603SOL    HW2 5630   1.989   6.841   5.863  0.2842 -0.6144 -1.4311
 1604SOL     OW 5631   0.195   5.234   6.797  0.6250  0.1416  0.0113
 1604SOL    HW1 5632   0.263   5.161   6.810  1.4054  0.5160 -1.7012
 1604SOL    HW2 5633   0.231   5.302   6.733 -1.2755  0.5085 -0.7286
 1605SOL     OW 5634   2.920   0.099   5.215 -0.4091 -0.3016 -0.3419
 1605SOL    HW1 5635   2.907   0.198   5.230  3.0102  0.0365  1.2929
 1605SOL    HW2 5636   2.958   0.058   5.298  1.4099 -2.3373 -2.0903
 1606SOL     OW 5637   4.196   1.347   6.541 -0.1230  0.1105  0.7241
 1606SOL    HW1 5638   4.166   1.348   6.446 -0.1445  1.9093  0.7132
 1606SOL    HW2 5639   4.251   1.266   6.558  0.1006 -0.1049 -0.8919
 1607SOL     OW 5640   1.876   0.055   0.535  0.0707 -0.2350 -0.2732
 1607SOL    HW1 5641   1.969   0.091   0.534  0.2882 -0.6925  1.1256
 1607SOL    HW2 5642   1.812   0.127   0.509  0.8585 -0.1601 -2.1971
 1608SOL     OW 5643   2.796   5.849   1.858  0.2391  0.0235 -0.3305
 1608SOL    HW1 5644   2.876   5.817   1.908  0.5348  0.1363 -0.7222
 1608SOL    HW2 5645   2.826   5.893   1.773 -0.3166 -1.5241 -1.3667
 1609SOL     OW 5646   0.364   1.682   2.136  0.9746 -0.3920 -0.0055
 1609SOL    HW1 5647   0.296   1.750   2.164  0.2418 -1.4698  0.9584
 1609SOL    HW2 5648   0.367   1.676   2.037  1.2508  1.2164 -0.1214
 1610SOL     OW 5649   1.348   3.700   1.113  0.3792 -0.0695 -0.5129
 1610SOL    HW1 5650   1.340   3.600   1.107  5.6444 -0.9559  1.5651
 1610SOL    HW2 5651   1.420   3.731   1.051  1.7531  1.7178  1.8078
 1611SOL     OW 5652   0.042   6.190   5.734 -0.1761  0.4523 -0.5579
 1611SOL    HW1 5653  -0.049   6.150   5.735  0.2203 -0.5070 -1.0394
 1611SOL    HW2 5654   0.105   6.131   5.785  0.5766  0.0051 -1.9403
 1612SOL     OW 5655   2.892   1.781   1.328  0.5107  0.0244 -0.3819
 1612SOL    HW1 5656   2.893   1.819   1.235 -1.5278  0.7515 -0.1609
 1612SOL    HW2 5657   2.856   1.688   1.325 -1.7877  0.8332 -0.1475
 1613SOL     OW 5658   0.243   3.056   5.232 -0.2536 -0.8177  0.0119
 1613SOL    HW1 5659   0.275   2.977   5.284 -0.3399 -1.0888 -0.3475
 1613SOL    HW2 5660   0.192   3.026   5.152 -1.5031 -0.3911  0.6179
 1614SOL     OW 5661   2.363   1.623   6.757 -0.5404 -0.6938 -0.3236
 1614SOL    HW1 5662   2.377   1.527   6.780  0.6113 -0.3927  0.2872
 1614SOL    HW2 5663   2.283   1.658   6.807 -1.4684 -1.5324 -1.1842
 1615SOL     OW 5664   5.326   3.032   1.123  0.2090 -0.1769  0.1399
 1615SOL    HW1 5665   5.227   3.042   1.114  0.2843  0.4070 -0.1051
 1615SOL    HW2 5666   5.371   3.116   1.094  0.7641 -0.3115  0.5813
 1616SOL     OW 5667   4.464   0.078   5.008 -0.8734  0.0323  0.0858
 1616SOL    HW1 5668   4.505  -0.013   5.009 -3.5863 -1.2854  0.7928
 1616SOL    HW2 5669   4.502   0.133   5.083 -0.6763 -1.2090  0.9109
 1617SOL     OW 5670   3.597   0.102   3.566  0.3350 -0.0164  0.2608
 1617SOL    HW1 5671   3.680   0.083   3.513 -0.6177 -1.6041 -0.7253
 1617SOL    HW2 5672   3.536   0.159   3.511  0.7925  1.2841  1.0479
 1618SOL     OW 5673   6.358   3.985   3.310  1.0583 -0.3195  0.0029
 1618SOL    HW1 5674   6.457   3.993   3.300  1.0651  0.1304  0.4037
 1618SOL    HW2 5675   6.323   3.917   3.245  1.3255  1.2202 -1.8388
 1619SOL     OW 5676   2.903   5.425   0.580  0.2092 -0.0347  0.0500
 1619SOL    HW1 5677   2.867   5.393   0.668 -0.1510 -0.4629 -0.2428
 1619SOL    HW2 5678   2.956   5.508   0.593 -0.4190  0.2946  0.5799
 1620SOL     OW 5679   4.854   4.370   3.952 -0.4112 -0.4631  0.7338
 1620SOL    HW1 5680   4.835   4.464   3.981 -1.0920  0.1228 -1.4203
 1620SOL    HW2 5681   4.952   4.354   3.954 -0.1112  0.9424 -0.6136
 1621SOL     OW 5682   5.460   3.975   3.072  0.7435  0.1621  0.1302
 1621SOL    HW1 5683   5.432   3.947   2.980  2.1131  0.8488 -0.5335
 1621SOL    HW2 5684   5.380   3.977   3.132 -0.5533  1.5394 -1.5099
 1622SOL     OW 5685   3.755   6.293   6.711 -0.1589  0.4650  0.5171
 1622SOL    HW1 5686   3.824   6.307   6.641  0.1154  0.2703  0.7478
 1622SOL    HW2 5687   3.667   6.327   6.678 -0.3555 -0.9438 -0.5006
 1623SOL     OW 5688   4.268   6.290   3.066 -0.0534 -0.0368  0.0395
 1623SOL    HW1 5689   4.236   6.231   2.992 -2.0424  1.4498 -0.3795
 1623SOL    HW2 5690   4.233   6.257   3.153 -0.4524  0.0354 -0.0905
 1624SOL     OW 5691   6.450   1.418   0.641  0.1570 -0.3485 -0.5329
 1624SOL    HW1 5692   6.419   1.336   0.592  1.9902 -1.0290 -0.6220
 1624SOL    HW2 5693   6.524   1.394   0.704 -1.0255  0.8139  1.3882
 1625SOL     OW 5694   2.927   4.049   6.495  0.3713  0.3756  0.6610
 1625SOL    HW1 5695   2.925   4.003   6.406  0.1604 -0.6408  1.1783
 1625SOL    HW2 5696   2.834   4.069   6.525  0.2885 -1.4497  1.7286
 1626SOL     OW 5697   6.953   5.645   0.969 -0.2782 -1.1506 -0.6935
 1626SOL    HW1 5698   6.888   5.637   1.045  0.1208 -1.9143 -0.4148
 1626SOL    HW2 5699   6.979   5.553   0.938 -0.3136 -0.8445 -1.6508
 1627SOL     OW 5700   0.416   3.325   0.229 -0.5615  0.2636  0.0057
 1627SOL    HW1 5701   0.445   3.319   0.325  0.9500  1.5146 -0.3340
 1627SOL    HW2 5702   0.453   3.247   0.178 -1.0421 -0.1936  0.3443
 1628SOL     OW 5703   4.919   1.245   5.949 -0.4569 -0.3113 -0.1212
 1628SOL    HW1 5704   4.820   1.253   5.945 -0.3284  1.6154 -0.5303
 1628SOL    HW2 5705   4.955   1.309   6.017  0.6109  0.6711 -1.5296
 1629SOL     OW 5706   4.320   1.688   6.985 -0.4263 -0.5372  0.5846
 1629SOL    HW1 5707   4.308   1.619   7.057  0.9832 -0.3008  1.0764
 1629SOL    HW2 5708   4.329   1.778   7.027 -2.5382  0.0400 -0.0636
 1630SOL     OW 5709   1.286   3.022   1.056  0.3836 -0.1411  0.2245
 1630SOL    HW1 5710   1.199   3.045   1.012  0.1526 -0.2644  0.6061
 1630SOL    HW2 5711   1.357   3.014   0.987  0.2004  0.4624 -0.0437
 1631SOL     OW 5712   2.071   0.971   6.966  0.4642 -0.4886  0.4540
 1631SOL    HW1 5713   2.162   0.990   6.929  0.1756 -0.1700 -0.1135
 1631SOL    HW2 5714   2.003   0.979   6.892  0.1315 -2.0716  0.5563
 1632SOL     OW 5715   2.529   2.126   3.036  0.0216 -0.4921  0.6553
 1632SOL    HW1 5716   2.596   2.052   3.026 -0.4217 -1.1462  2.2640
 1632SOL    HW2 5717   2.533   2.186   2.956  0.9637 -1.7878 -0.2999
 1633SOL     OW 5718   6.203   5.118   6.421 -0.5005 -0.2091  0.0142
 1633SOL    HW1 5719   6.252   5.174   6.487 -0.8305 -1.0238  0.9870
 1633SOL    HW2 5720   6.139   5.175   6.369 -0.8120  0.3295  0.9606
 1634SOL     OW 5721   3.098   1.561   0.116  0.3579  0.2018  0.3037
 1634SOL    HW1 5722   3.120   1.479   0.063  1.3359  0.0457  0.9306
 1634SOL    HW2 5723   3.001   1.583   0.105  0.5056  0.1408 -1.5140
 1635SOL     OW 5724   5.060   5.478   3.426 -0.5250  0.3563  0.2407
 1635SOL    HW1 5725   5.000   5.558   3.417 -0.6157  0.1055 -2.0413
 1635SOL    HW2 5726   5.099   5.455   3.337  1.0372 -0.9984  1.2101
 1636SOL     OW 5727   4.326   4.993   6.075 -0.0278  0.0526 -0.3770
 1636SOL    HW1 5728   4.367   4.949   6.154 -0.5816  0.6422  0.2493
 1636SOL    HW2 5729   4.227   4.980   6.076  0.0064 -0.3946 -1.2703
 1637SOL     OW 5730   6.582   6.568   5.470  0.2833 -0.0164  0.0552
 1637SOL    HW1 5731   6.510   6.618   5.518 -0.2986  0.1019 -0.9223
 1637SOL    HW2 5732   6.542   6.515   5.395  1.0256 -1.1355  0.4140
 1638SOL     OW 5733   2.216   4.260   4.315 -0.0709  0.0888 -0.2222
 1638SOL    HW1 5734   2.272   4.283   4.236 -0.9941 -0.0982 -0.9568
 1638SOL    HW2 5735   2.239   4.321   4.391  1.2235 -0.0938 -0.4438
 1639SOL     OW 5736   5.103   4.609   0.702 -0.1848  0.3671 -0.0942
 1639SOL    HW1 5737   5.056   4.609   0.614  1.3854  1.6232 -0.9893
 1639SOL    HW2 5738   5.179   4.545   0.700 -0.3682  0.1229  0.4892
 1640SOL     OW 5739   0.981   1.706   0.371 -0.3048  0.4092 -0.2342
 1640SOL    HW1 5740   0.996   1.640   0.444 -1.1600 -1.1095 -1.3684
 1640SOL    HW2 5741   0.883   1.715   0.354 -0.2346  2.2476  0.1014
 1641SOL     OW 5742   1.918   6.052   4.681  0.2645 -0.2652  0.8233
 1641SOL    HW1 5743   1.840   5.991   4.688 -0.0464 -0.0592 -0.5432
 1641SOL    HW2 5744   1.988   6.025   4.747 -1.1497 -0.1252  2.4716
 1642SOL     OW 5745   1.039   2.844   6.830 -0.7756 -0.1726 -0.3896
 1642SOL    HW1 5746   0.951   2.798   6.844 -1.4902  1.2942  0.1354
 1642SOL    HW2 5747   1.105   2.810   6.897 -0.8966 -1.3372 -0.8330
 1643SOL     OW 5748   3.179   3.428   6.263 -0.4306  0.9385 -0.1905
 1643SOL    HW1 5749   3.148   3.470   6.178  0.2770  2.2100  0.1515
 1643SOL    HW2 5750   3.103   3.423   6.327 -0.3437  2.6463  0.1064
 1644SOL     OW 5751   5.029   3.547   0.994 -0.0402 -0.4781 -0.1339
 1644SOL    HW1 5752   4.990   3.570   0.904  0.7719 -3.1593 -1.2746
 1644SOL    HW2 5753   4.967   3.486   1.043  0.9703 -1.7175 -0.3461
 1645SOL     OW 5754   0.211   6.069   5.470  0.1784  0.2794 -0.0261
 1645SOL    HW1 5755   0.118   6.047   5.499  0.1188 -0.5561 -0.8032
 1645SOL    HW2 5756   0.229   6.027   5.381  2.0939 -1.6154  1.1511
 1646SOL     OW 5757   6.622   0.691   4.811 -0.1592  0.5042 -0.4628
 1646SOL    HW1 5758   6.690   0.732   4.751  0.0618 -0.4789 -0.8970
 1646SOL    HW2 5759   6.648   0.707   4.906  1.3919 -0.9524 -0.6045
 1647SOL     OW 5760   3.491   3.581   0.342  0.4165 -0.0225 -0.3364
 1647SOL    HW1 5761   3.462   3.564   0.435  0.1879  1.4010 -0.1232
 1647SOL    HW2 5762   3.433   3.531   0.278 -0.1344 -0.1182  0.2375
 1648SOL     OW 5763   4.403   3.447   6.740  0.5195 -0.1405 -0.2950
 1648SOL    HW1 5764   4.335   3.473   6.671 -0.4327 -2.7590 -0.4616
 1648SOL    HW2 5765   4.483   3.408   6.694  1.9338  2.2768 -0.0580
 1649SOL     OW 5766   6.249   0.491   6.529  0.3659  0.8163  0.1546
 1649SOL    HW1 5767   6.272   0.553   6.605 -2.5424  1.5401  0.5559
 1649SOL    HW2 5768   6.205   0.544   6.456  0.5866 -0.3305 -0.8317
 1650SOL     OW 5769   4.225   2.184   4.780 -0.1322  0.3737  0.0023
 1650SOL    HW1 5770   4.313   2.138   4.776  0.4441  1.4973 -0.8140
 1650SOL    HW2 5771   4.229   2.260   4.844 -1.1853 -0.8753  1.6165
 1651SOL     OW 5772   5.775   3.289   5.510 -0.5658 -0.3706 -0.5031
 1651SOL    HW1 5773   5.678   3.309   5.496 -0.3765 -0.3281 -1.8879
 1651SOL    HW2 5774   5.810   3.346   5.585 -1.1506  1.0457 -1.2682
 1652SOL     OW 5775   1.304   6.725   5.918 -0.0619  0.2863 -0.2087
 1652SOL    HW1 5776   1.298   6.821   5.945  0.3080  0.0972  0.5480
 1652SOL    HW2 5777   1.248   6.711   5.836  0.4233  1.2907 -0.7422
 1653SOL     OW 5778   4.650   5.384   0.358  0.3022 -0.2388 -0.3353
 1653SOL    HW1 5779   4.713   5.311   0.334  0.7492  0.2512 -0.6867
 1653SOL    HW2 5780   4.687   5.472   0.328 -0.0045  0.1918  0.4985
 1654SOL     OW 5781   0.465   5.868   2.525 -0.7981 -0.1461  0.1480
 1654SOL    HW1 5782   0.372   5.834   2.516 -1.3708  1.0658  1.1747
 1654SOL    HW2 5783   0.468   5.964   2.499  0.0575 -0.0405  0.6020
 1655SOL     OW 5784   3.666   5.288   2.141  0.1636 -0.8429 -0.3543
 1655SOL    HW1 5785   3.642   5.246   2.228  1.7056  0.2399  0.6416
 1655SOL    HW2 5786   3.757   5.256   2.112  0.2059 -0.2446 -0.9127
 1656SOL     OW 5787   3.106   1.945   1.424  0.5167 -0.2903 -1.0565
 1656SOL    HW1 5788   3.030   1.899   1.377 -0.7176  0.4362  0.1410
 1656SOL    HW2 5789   3.088   2.043   1.428 -0.0017 -0.4084  1.8161
 1657SOL     OW 5790   0.487   0.325   3.324 -0.3193  0.1264  0.0489
 1657SOL    HW1 5791   0.466   0.348   3.419  0.5345  1.1572  0.0107
 1657SOL    HW2 5792   0.586   0.319   3.312 -0.3186  1.6474 -1.0978
 1658SOL     OW 5793   6.683   4.080   2.997 -0.1617 -0.0187  0.4170
 1658SOL    HW1 5794   6.738   4.161   2.975 -1.6446  0.9786  0.2163
 1658SOL    HW2 5795   6.614   4.105   3.064 -1.6371 -0.7204 -0.7968
 1659SOL     OW 5796   0.006   4.183   5.162  0.3018 -0.1489  0.6439
 1659SOL    HW1 5797  -0.032   4.103   5.210 -0.2961 -1.2906 -1.6251
 1659SOL    HW2 5798  -0.050   4.263   5.183  0.4289 -0.4453  2.3070
 1660SOL     OW 5799   3.632   3.798   2.458  0.0071 -0.2769  0.2389
 1660SOL    HW1 5800   3.723   3.811   2.419 -0.0197  1.4753  0.6661
 1660SOL    HW2 5801   3.632   3.828   2.553 -0.5935 -1.9627  0.8103
 1661SOL     OW 5802   4.311   1.007   0.640  0.0653  0.5367 -0.0475
 1661SOL    HW1 5803   4.296   0.911   0.616  2.7672 -0.4820  1.8456
 1661SOL    HW2 5804   4.364   1.051   0.567 -0.8509  0.5059 -0.7443
 1662SOL     OW 5805   1.521   3.014   1.996  0.0263 -0.2792 -0.0798
 1662SOL    HW1 5806   1.503   3.045   2.090  1.8656 -1.5095  0.7309
 1662SOL    HW2 5807   1.509   2.915   1.991  0.6879 -0.3228 -0.9523
 1663SOL     OW 5808   6.493   4.046   2.088  0.1640 -0.8477 -0.1555
 1663SOL    HW1 5809   6.444   4.011   2.008  0.8371 -1.0827 -0.4658
 1663SOL    HW2 5810   6.444   4.125   2.124 -2.2303 -2.8637  1.4279
 1664SOL     OW 5811   5.384   0.266   0.509  0.7244  0.1818  0.0024
 1664SOL    HW1 5812   5.374   0.297   0.415  1.7068  1.3927  0.2757
 1664SOL    HW2 5813   5.456   0.318   0.554  1.5910 -1.6641  0.8735
 1665SOL     OW 5814   2.836   4.606   3.579 -0.0756 -0.2480 -0.1422
 1665SOL    HW1 5815   2.908   4.657   3.626 -1.8400  1.2242  1.1138
 1665SOL    HW2 5816   2.876   4.530   3.528  2.4755  1.2921 -0.5804
 1666SOL     OW 5817   3.611   3.858   0.940 -0.4818 -0.6036  0.4289
 1666SOL    HW1 5818   3.572   3.942   0.904  0.2800  0.2230  1.4598
 1666SOL    HW2 5819   3.568   3.836   1.027 -1.4194 -1.8861 -0.3231
 1667SOL     OW 5820   2.780   4.566   0.565  0.1724  0.7094 -0.3339
 1667SOL    HW1 5821   2.782   4.666   0.575 -1.8936  0.8528 -0.9591
 1667SOL    HW2 5822   2.703   4.529   0.618  1.8754 -0.7795  1.2649
 1668SOL     OW 5823   0.198   4.694   4.302  0.0054 -0.0149  0.6275
 1668SOL    HW1 5824   0.159   4.603   4.304 -0.4438  0.1831  1.3308
 1668SOL    HW2 5825   0.190   4.736   4.393 -0.6578  1.0841  0.0896
 1669SOL     OW 5826   4.877   6.684   2.018  0.0296 -0.5613  0.2752
 1669SOL    HW1 5827   4.912   6.620   1.950  0.5030 -1.0297  0.9354
 1669SOL    HW2 5828   4.938   6.685   2.097 -1.0222 -0.7953  1.1223
 1670SOL     OW 5829   2.950   3.749   6.370 -0.3066 -0.0256 -0.1622
 1670SOL    HW1 5830   2.902   3.781   6.289 -2.1257  0.1381  0.9237
 1670SOL    HW2 5831   3.040   3.792   6.376 -0.7994  1.1850 -1.2349
 1671SOL     OW 5832   1.786   1.573   5.126 -0.2865  0.0333  0.2172
 1671SOL    HW1 5833   1.880   1.603   5.110 -0.6419  1.0859 -0.0306
 1671SOL    HW2 5834   1.730   1.653   5.153 -1.1626 -0.5241  0.0942
 1672SOL     OW 5835   6.363   4.661   4.860 -0.8049 -0.2356  0.0999
 1672SOL    HW1 5836   6.402   4.752   4.872 -0.8575  0.1326 -1.9944
 1672SOL    HW2 5837   6.364   4.638   4.762 -1.0745 -2.3624  0.5573
 1673SOL     OW 5838   4.210   6.958   6.624  0.2565  0.0348 -0.0269
 1673SOL    HW1 5839   4.142   6.994   6.561  0.5360  0.0659 -0.3167
 1673SOL    HW2 5840   4.191   6.991   6.716 -1.7120 -2.1243  0.4169
 1674SOL     OW 5841   0.840   6.195   4.647  0.8711  0.4349  0.3617
 1674SOL    HW1 5842   0.876   6.183   4.555 -3.1498 -1.0367 -1.2655
 1674SOL    HW2 5843   0.863   6.115   4.702 -0.4334 -0.9115 -0.9222
 1675SOL     OW 5844   3.338   5.079   3.869  1.1862  0.4784  0.1880
 1675SOL    HW1 5845   3.240   5.088   3.887  0.9901 -0.5925 -0.2479
 1675SOL    HW2 5846   3.383   5.167   3.883 -0.1052  1.4312 -1.2598
 1676SOL     OW 5847   2.446   1.324   2.544 -0.3853 -0.2248 -0.1944
 1676SOL    HW1 5848   2.390   1.407   2.544 -0.2994 -0.1152  1.4560
 1676SOL    HW2 5849   2.530   1.341   2.494 -0.0175  0.9741  0.7724
 1677SOL     OW 5850   5.926   5.434   2.168 -0.1563 -0.7854 -0.2521
 1677SOL    HW1 5851   5.967   5.441   2.077 -1.1724 -1.6685 -0.8177
 1677SOL    HW2 5852   5.846   5.494   2.173  0.8968  0.6067  0.6939
 1678SOL     OW 5853   1.362   6.581   6.692 -0.1462 -0.0904  0.1576
 1678SOL    HW1 5854   1.263   6.577   6.678 -0.1419  1.5343 -0.6142
 1678SOL    HW2 5855   1.382   6.569   6.789 -1.2152  0.8380  0.5176
 1679SOL     OW 5856   4.160   2.388   1.474 -0.4901  0.4315 -0.5375
 1679SOL    HW1 5857   4.226   2.455   1.441  0.3065  0.2636  0.6636
 1679SOL    HW2 5858   4.068   2.415   1.445  0.0051  1.1004 -1.5319
 1680SOL     OW 5859   6.012   3.682   1.054 -0.4835 -0.7089  0.3831
 1680SOL    HW1 5860   6.087   3.641   1.002  0.9382  1.7822  0.3379
 1680SOL    HW2 5861   6.020   3.657   1.150 -1.1294 -2.5061  0.0201
 1681SOL     OW 5862   6.958   4.624   0.438 -0.0401  0.1606 -0.4119
 1681SOL    HW1 5863   6.964   4.543   0.497 -0.2099 -0.6629 -1.4819
 1681SOL    HW2 5864   7.044   4.676   0.443 -0.2749  0.4319  0.9931
 1682SOL     OW 5865   6.121   4.158   0.370 -0.1406 -0.1166  0.5581
 1682SOL    HW1 5866   6.150   4.251   0.347  0.3607 -0.0963  1.2300
 1682SOL    HW2 5867   6.100   4.107   0.287  0.7508  0.2185  0.1178
 1683SOL     OW 5868   4.866   3.674   3.822 -0.6815 -0.7357 -0.1258
 1683SOL    HW1 5869   4.796   3.612   3.786 -2.0765  0.8562 -0.3098
 1683SOL    HW2 5870   4.924   3.705   3.747 -1.9194  0.5145 -0.6195
 1684SOL     OW 5871   1.682   6.033   1.375  0.1255 -0.2679  0.4637
 1684SOL    HW1 5872   1.719   6.095   1.444 -0.8091 -0.1785  0.8999
 1684SOL    HW2 5873   1.710   6.065   1.284 -0.9517  1.2550  0.6206
 1685SOL     OW 5874   6.744   3.028   3.504  0.1161 -0.9307 -0.3365
 1685SOL    HW1 5875   6.692   3.002   3.423  1.8873 -2.7952 -0.9515
 1685SOL    HW2 5876   6.816   3.093   3.479 -0.3403 -0.2407  0.0803
 1686SOL     OW 5877   1.894   5.376   4.388  0.2577  0.0837 -0.3621
 1686SOL    HW1 5878   1.947   5.385   4.472  1.8336  1.5049 -1.4412
 1686SOL    HW2 5879   1.944   5.318   4.323 -0.8870 -0.9070 -0.3918
 1687SOL     OW 5880   6.841   0.716   1.696 -0.7969  0.0478  0.3685
 1687SOL    HW1 5881   6.895   0.798   1.711 -0.0240  0.4054 -3.4111
 1687SOL    HW2 5882   6.872   0.670   1.613 -3.8596 -1.8124  0.0905
 1688SOL     OW 5883   1.719   1.387   6.489  0.1655  0.0625 -0.0467
 1688SOL    HW1 5884   1.799   1.348   6.443  1.3857  1.6830  0.6132
 1688SOL    HW2 5885   1.683   1.462   6.435 -0.1725  0.1169  0.2521
 1689SOL     OW 5886   4.505   2.356   4.483 -0.1869 -0.0316 -0.2496
 1689SOL    HW1 5887   4.587   2.396   4.524  0.5315 -3.0851  1.5706
 1689SOL    HW2 5888   4.430   2.358   4.549 -0.6959 -0.0049 -0.8153
 1690SOL     OW 5889   1.725   3.916   3.570 -0.1212 -0.3396  0.1537
 1690SOL    HW1 5890   1.809   3.882   3.528 -1.2116 -1.0751 -1.5247
 1690SOL    HW2 5891   1.654   3.845   3.566 -0.9281  0.3756  1.2431
 1691SOL     OW 5892   6.671   1.505   2.809  0.0293 -0.1643  0.2576
 1691SOL    HW1 5893   6.605   1.499   2.735  1.5024 -2.9843 -0.9868
 1691SOL    HW2 5894   6.632   1.462   2.891 -0.3110 -0.2214  0.0693
 1692SOL     OW 5895   3.154   4.560   6.080  0.1646  0.0661  0.3864
 1692SOL    HW1 5896   3.159   4.513   5.992 -0.7421 -1.5605  1.1569
 1692SOL    HW2 5897   3.214   4.515   6.146 -0.0342  0.5470  0.9066
 1693SOL     OW 5898   6.522   4.611   4.074  0.6177 -0.2979 -0.2976
 1693SOL    HW1 5899   6.489   4.643   3.985  1.4766  1.4735 -0.0301
 1693SOL    HW2 5900   6.563   4.520   4.064  0.5884 -0.1758 -1.6839
 1694SOL     OW 5901   6.445   0.534   6.860 -0.5180  0.1317 -0.0533
 1694SOL    HW1 5902   6.426   0.436   6.867  0.6584 -0.3405 -2.4158
 1694SOL    HW2 5903   6.500   0.563   6.938  0.1036 -1.3630  0.0891
 1695SOL     OW 5904   5.397   6.094   1.279 -0.4772 -0.0961  0.3189
 1695SOL    HW1 5905   5.392   6.161   1.204 -1.2849 -2.5383 -1.9597
 1695SOL    HW2 5906   5.471   6.030   1.261 -0.7100 -0.7403  1.6186
 1696SOL     OW 5907   3.566   2.901   1.728  0.4633 -0.5264 -0.4015
 1696SOL    HW1 5908   3.622   2.947   1.658 -0.0583 -0.6436 -0.9024
 1696SOL    HW2 5909   3.602   2.923   1.819  1.0397 -0.2226 -0.6957
 1697SOL     OW 5910   0.300   6.699   3.378  0.0007 -0.2851 -0.5387
 1697SOL    HW1 5911   0.386   6.651   3.394  0.4826  0.5871 -0.5017
 1697SOL    HW2 5912   0.248   6.703   3.463 -0.1614 -0.9609 -0.5985
 1698SOL     OW 5913   2.085   0.916   3.914  0.3185  0.4435  0.2412
 1698SOL    HW1 5914   2.130   0.911   3.824 -2.1510 -0.6260 -1.0503
 1698SOL    HW2 5915   2.141   0.870   3.982  1.1171 -0.9740 -1.3004
 1699SOL     OW 5916   3.950   1.818   1.179 -0.0460  0.1304 -0.2841
 1699SOL    HW1 5917   4.042   1.841   1.213 -0.1175 -1.5532  1.1406
 1699SOL    HW2 5918   3.947   1.722   1.151 -1.6501 -0.1400  0.7062
 1700SOL     OW 5919   1.860   1.019   2.931 -0.1813 -0.4131 -0.2236
 1700SOL    HW1 5920   1.817   1.018   2.841 -1.7817 -1.1174  0.5025
 1700SOL    HW2 5921   1.819   1.091   2.987  0.4168 -0.3359  0.1246
 1701SOL     OW 5922   3.283   1.309   6.272  0.1207  0.1139 -0.0227
 1701SOL    HW1 5923   3.366   1.328   6.325  0.0879  0.4365 -0.0892
 1701SOL    HW2 5924   3.212   1.374   6.296  0.6580  1.3838 -1.7248
 1702SOL     OW 5925   2.894   5.867   2.841 -0.2742  0.5172  0.1130
 1702SOL    HW1 5926   2.907   5.963   2.867 -0.7044  0.1451  1.8505
 1702SOL    HW2 5927   2.839   5.862   2.758 -1.1091  1.7734  0.5598
 1703SOL     OW 5928   1.575   0.272   4.007  0.0181 -0.0126  0.0389
 1703SOL    HW1 5929   1.669   0.258   4.041  0.4283 -0.0043 -1.0580
 1703SOL    HW2 5930   1.537   0.184   3.979 -0.4760 -0.0799  0.8943
 1704SOL     OW 5931   0.323   2.434   4.135  0.4433  0.2443  0.5561
 1704SOL    HW1 5932   0.273   2.493   4.198 -0.8417  0.9321 -1.0381
 1704SOL    HW2 5933   0.273   2.428   4.049  1.4166 -1.8139  0.0731
 1705SOL     OW 5934   2.705   2.410   4.975 -0.0129 -0.6119  0.4603
 1705SOL    HW1 5935   2.764   2.362   4.910  0.8226 -0.6168  1.2076
 1705SOL    HW2 5936   2.663   2.343   5.037 -1.8789 -0.7623 -0.8727
 1706SOL     OW 5937   5.227   1.519   2.510 -0.2547  0.6394  0.4324
 1706SOL    HW1 5938   5.128   1.525   2.496 -0.3044 -1.4086 -0.3541
 1706SOL    HW2 5939   5.245   1.504   2.607 -0.7824 -0.0504  0.4304
 1707SOL     OW 5940   3.305   2.243   5.281 -0.5783  0.0150  0.1919
 1707SOL    HW1 5941   3.239   2.315   5.302  0.1908  0.5195  0.9368
 1707SOL    HW2 5942   3.328   2.193   5.364  0.4670  0.2737  0.0669
 1708SOL     OW 5943   3.540   1.357   4.562  0.1393  0.0429 -0.6770
 1708SOL    HW1 5944   3.500   1.291   4.499 -0.4530 -0.6465  0.4015
 1708SOL    HW2 5945   3.640   1.344   4.565  0.0628 -0.5792 -0.7169
 1709SOL     OW 5946   0.294   6.224   4.629  0.0820 -0.1891 -0.3546
 1709SOL    HW1 5947   0.316   6.139   4.677  3.8065  0.0591 -1.2932
 1709SOL    HW2 5948   0.268   6.294   4.695  1.2845 -0.8885  0.9188
 1710SOL     OW 5949   3.784   4.489   2.625  0.0606  0.2261 -0.5731
 1710SOL    HW1 5950   3.704   4.519   2.676  2.2453  2.7998  1.6257
 1710SOL    HW2 5951   3.814   4.400   2.659 -0.3445  0.4613  0.4244
 1711SOL     OW 5952   2.752   4.484   0.027 -0.0859 -0.3141 -0.2462
 1711SOL    HW1 5953   2.707   4.409   0.074  0.4751 -0.6083 -0.1830
 1711SOL    HW2 5954   2.810   4.534   0.091 -0.7000  0.3737 -0.2103
 1712SOL     OW 5955   4.746   3.328   1.523 -0.7439 -0.1420 -0.1343
 1712SOL    HW1 5956   4.697   3.341   1.436  1.6287  0.7435 -1.4147
 1712SOL    HW2 5957   4.842   3.354   1.512  0.5226 -3.4536  1.7863
 1713SOL     OW 5958   6.320   1.733   3.743  0.5005  0.3545  0.2510
 1713SOL    HW1 5959   6.274   1.821   3.734 -0.3816  0.0859  1.7073
 1713SOL    HW2 5960   6.316   1.704   3.838  1.3933 -0.9359 -0.0870
 1714SOL     OW 5961   3.522   2.652   1.022 -0.1920 -0.5442  0.2086
 1714SOL    HW1 5962   3.463   2.728   1.049 -0.3202 -1.3700  2.4483
 1714SOL    HW2 5963   3.601   2.648   1.084  1.9436  0.1310 -2.3086
 1715SOL     OW 5964   2.848   3.671   3.639  0.0415 -0.5348  0.0596
 1715SOL    HW1 5965   2.834   3.591   3.697  3.8244  0.1150  2.1729
 1715SOL    HW2 5966   2.938   3.667   3.597 -0.4920  1.6536 -1.4609
 1716SOL     OW 5967   3.201   2.755   6.929  0.0279  0.6719 -0.0821
 1716SOL    HW1 5968   3.254   2.730   6.848  1.4108  1.3618  0.5818
 1716SOL    HW2 5969   3.134   2.826   6.904  1.9559  2.5346 -0.2092
 1717SOL     OW 5970   0.454   5.616   5.250 -0.0352  0.5455 -0.2008
 1717SOL    HW1 5971   0.479   5.621   5.153 -0.2655 -0.0042 -0.2922
 1717SOL    HW2 5972   0.483   5.700   5.296  0.9403  0.4131 -0.5483
 1718SOL     OW 5973   2.364   1.238   3.805 -0.0173 -0.6117  0.1925
 1718SOL    HW1 5974   2.293   1.243   3.876 -0.6401 -0.2477 -0.4336
 1718SOL    HW2 5975   2.339   1.300   3.730  0.0870 -1.7601 -0.8183
 1719SOL     OW 5976   1.876   1.968   1.059  0.4854 -0.2052 -0.8947
 1719SOL    HW1 5977   1.913   2.001   1.146 -0.0583 -1.8479 -0.0040
 1719SOL    HW2 5978   1.780   1.944   1.071  0.2112  0.2160 -2.1490
 1720SOL     OW 5979   5.426   1.814   1.012 -0.4867  0.2958 -0.3013
 1720SOL    HW1 5980   5.437   1.889   1.077  0.0844  0.7975 -0.9594
 1720SOL    HW2 5981   5.490   1.826   0.937  1.0009 -1.8888  0.5182
 1721SOL     OW 5982   1.816   1.160   0.940 -0.1386  0.1390 -0.4651
 1721SOL    HW1 5983   1.870   1.123   1.016  1.0957  1.1405 -0.8267
 1721SOL    HW2 5984   1.721   1.172   0.970 -0.0700 -1.1336  0.3499
 1722SOL     OW 5985   2.415   4.268   1.903 -0.2515  0.1336 -0.0288
 1722SOL    HW1 5986   2.441   4.208   1.979  1.6790  1.2455  0.2478
 1722SOL    HW2 5987   2.485   4.264   1.831 -1.2240  0.3567 -1.0274
 1723SOL     OW 5988   1.040   3.098   6.736  0.3810 -0.0768 -0.3217
 1723SOL    HW1 5989   1.133   3.128   6.714  0.6199  0.4444  1.2039
 1723SOL    HW2 5990   1.038   2.999   6.745  0.5130 -0.1944 -1.5159
 1724SOL     OW 5991   0.494   6.742   2.295 -0.3025  0.3608 -0.4554
 1724SOL    HW1 5992   0.504   6.736   2.196  1.9298 -0.8042 -0.2333
 1724SOL    HW2 5993   0.397   6.745   2.319 -0.8952  0.5497 -2.6487
 1725SOL     OW 5994   1.897   4.425   2.388  0.0948 -0.1252  0.2627
 1725SOL    HW1 5995   1.851   4.353   2.440 -0.1476 -0.7669 -0.8171
 1725SOL    HW2 5996   1.982   4.389   2.349  0.1354  0.2675 -0.0150
 1726SOL     OW 5997   0.593   4.087   3.886  0.1858 -0.7332 -0.5977
 1726SOL    HW1 5998   0.522   4.059   3.950  0.2562 -1.2018 -0.7195
 1726SOL    HW2 5999   0.625   4.179   3.908 -3.5916  1.4707 -3.1968
 1727SOL     OW 6000   6.849   3.424   1.830  0.1686  0.3293 -0.2167
 1727SOL    HW1 6001   6.804   3.335   1.829 -0.5413  0.6432 -2.6655
 1727SOL    HW2 6002   6.867   3.451   1.925 -0.6587 -1.8593  0.6324
 1728SOL     OW 6003   3.203   5.105   1.300 -0.2461  0.3970  0.0390
 1728SOL    HW1 6004   3.250   5.143   1.220  0.1387  0.1268  0.1292
 1728SOL    HW2 6005   3.232   5.010   1.312  0.1488  0.6149  0.8416
 1729SOL     OW 6006   4.088   6.059   1.686  0.0292  0.5710 -0.1756
 1729SOL    HW1 6007   4.133   6.133   1.637 -0.3942  0.1203 -1.2928
 1729SOL    HW2 6008   4.140   5.974   1.672 -0.1095  0.4372  0.1305
 1730SOL     OW 6009   4.929   6.668   1.470 -0.2974  0.2173  0.4972
 1730SOL    HW1 6010   4.851   6.715   1.509 -0.3578  0.9754 -0.4881
 1730SOL    HW2 6011   4.993   6.735   1.431 -0.8246 -0.5088 -1.7511
 1731SOL     OW 6012   1.945   4.261   1.325 -0.1706 -0.1740  0.6293
 1731SOL    HW1 6013   1.956   4.349   1.371 -0.1222 -0.2907  0.8420
 1731SOL    HW2 6014   1.848   4.241   1.315 -0.1869 -0.5894  1.5345
 1732SOL     OW 6015   6.201   3.822   6.669 -0.2370  0.2552  0.0757
 1732SOL    HW1 6016   6.139   3.877   6.725  0.2184  0.7387  0.1149
 1732SOL    HW2 6017   6.295   3.837   6.700  0.0215  0.5382 -0.8199
 1733SOL     OW 6018   0.860   1.474   4.052  0.2335  0.9288 -0.1575
 1733SOL    HW1 6019   0.828   1.379   4.055 -0.4237  1.1637  1.1267
 1733SOL    HW2 6020   0.953   1.479   4.090 -0.0749  0.9203  0.6044
 1734SOL     OW 6021   3.404   3.863   2.302  0.0870 -0.0071 -0.4226
 1734SOL    HW1 6022   3.347   3.784   2.323  1.7563 -1.2400 -0.3175
 1734SOL    HW2 6023   3.484   3.863   2.362  0.0209  1.9231 -0.2552
 1735SOL     OW 6024   5.838   5.187   3.956  0.2021 -0.3254  0.3620
 1735SOL    HW1 6025   5.780   5.264   3.928  1.2883  0.0127 -1.0471
 1735SOL    HW2 6026   5.807   5.104   3.911  1.6473  0.1276 -1.5870
 1736SOL     OW 6027   4.926   1.227   0.317  0.4198 -0.0854 -0.4472
 1736SOL    HW1 6028   4.867   1.210   0.396 -0.1479 -1.0715 -1.0675
 1736SOL    HW2 6029   4.962   1.140   0.283  1.4313  0.4160 -0.6926
 1737SOL     OW 6030   6.253   4.083   1.261  0.0136 -0.2994  0.0634
 1737SOL    HW1 6031   6.261   4.182   1.250  0.6185 -0.5002 -1.5519
 1737SOL    HW2 6032   6.336   4.038   1.226 -0.1947 -1.3793  0.8885
 1738SOL     OW 6033   3.678   6.197   5.261  0.1340  0.3691 -0.2753
 1738SOL    HW1 6034   3.703   6.174   5.167  0.4469 -0.7900  0.0733
 1738SOL    HW2 6035   3.628   6.284   5.262 -0.8017 -0.1236 -1.6317
 1739SOL     OW 6036   3.146   3.959   2.589  0.2462 -0.0277 -0.2792
 1739SOL    HW1 6037   3.168   3.935   2.495  0.1663 -0.1336 -0.2702
 1739SOL    HW2 6038   3.230   3.986   2.637  0.1601  0.9735 -0.6574
 1740SOL     OW 6039   1.476   1.591   5.479  0.0978  0.4934  0.0563
 1740SOL    HW1 6040   1.557   1.647   5.461  1.3880 -1.6844 -1.3227
 1740SOL    HW2 6041   1.457   1.592   5.577  0.5481  2.6183  0.1897
 1741SOL     OW 6042   0.713   0.244   1.641 -0.2558 -0.3616 -0.1237
 1741SOL    HW1 6043   0.716   0.327   1.697  0.1346 -1.4824  1.6142
 1741SOL    HW2 6044   0.619   0.210   1.637 -0.4747  0.3302 -1.1292
 1742SOL     OW 6045   4.490   4.033   5.286  0.6374 -0.6742  0.1697
 1742SOL    HW1 6046   4.477   3.947   5.335  0.2054 -0.2204  0.8695
 1742SOL    HW2 6047   4.511   4.014   5.190  2.2261 -1.6074  0.6491
 1743SOL     OW 6048   3.176   1.210   0.470 -0.0020  0.3889  0.3033
 1743SOL    HW1 6049   3.219   1.223   0.381 -0.6727  1.2214  0.0891
 1743SOL    HW2 6050   3.241   1.234   0.542  0.6053 -0.4681  0.0581
 1744SOL     OW 6051   6.749   4.258   0.643  0.3303 -0.0077 -0.2795
 1744SOL    HW1 6052   6.841   4.298   0.646  0.4835 -0.2819 -1.1509
 1744SOL    HW2 6053   6.710   4.270   0.552  0.0125 -1.0316 -0.2904
 1745SOL     OW 6054   5.702   2.463   1.257 -0.0413 -0.0325 -0.0056
 1745SOL    HW1 6055   5.792   2.463   1.214  0.3828 -1.1892  0.8321
 1745SOL    HW2 6056   5.636   2.510   1.198  0.8973 -0.0320 -1.0738
 1746SOL     OW 6057   3.167   1.423   5.142  0.3571  0.3581 -0.3421
 1746SOL    HW1 6058   3.139   1.406   5.048 -1.1473  1.8794 -0.2200
 1746SOL    HW2 6059   3.156   1.340   5.196 -1.3740  0.1693 -0.9356
 1747SOL     OW 6060   5.035   1.321   3.063  0.2557 -0.2169  0.0176
 1747SOL    HW1 6061   4.981   1.384   3.007 -0.5665 -1.1655 -0.2886
 1747SOL    HW2 6062   5.058   1.240   3.009  0.8026 -0.4431  0.5803
 1748SOL     OW 6063   4.849   1.312   6.771  0.3550 -0.2598 -0.1620
 1748SOL    HW1 6064   4.862   1.394   6.826  1.7755 -0.6294  0.1056
 1748SOL    HW2 6065   4.936   1.287   6.728  0.1693 -2.0652  0.4134
 1749SOL     OW 6066   6.928   0.559   1.452  0.3352 -0.6157 -0.7414
 1749SOL    HW1 6067   6.892   0.600   1.369  1.0324 -2.1513 -1.8622
 1749SOL    HW2 6068   6.943   0.461   1.437 -0.4389 -1.1499  1.5106
 1750SOL     OW 6069   4.108   5.338   6.859 -0.0002 -0.2379 -0.5606
 1750SOL    HW1 6070   4.038   5.355   6.789  0.6007  1.0544 -0.8806
 1750SOL    HW2 6071   4.149   5.248   6.843 -0.8890 -0.5882 -0.9729
 1751SOL     OW 6072   1.142   0.854   3.125 -0.0864 -0.4770 -0.4290
 1751SOL    HW1 6073   1.142   0.931   3.060 -1.4266  0.3087  0.4480
 1751SOL    HW2 6074   1.189   0.776   3.084 -3.2750 -1.0023 -3.5946
 1752SOL     OW 6075   0.173   4.892   0.152 -0.0644  0.5727  0.2265
 1752SOL    HW1 6076   0.104   4.928   0.216 -0.7899 -0.1080 -0.1526
 1752SOL    HW2 6077   0.204   4.803   0.183  1.0475  1.0958  0.6680
 1753SOL     OW 6078   5.019   0.386   1.370  0.2314  0.3338 -0.1327
 1753SOL    HW1 6079   5.037   0.417   1.463 -0.4299 -3.1707  1.3330
 1753SOL    HW2 6080   5.081   0.312   1.346 -2.8791 -2.4787 -0.2933
 1754SOL     OW 6081   0.405   1.582   6.385  0.1331  0.2777  0.0062
 1754SOL    HW1 6082   0.474   1.510   6.384 -0.1555 -0.0027 -0.4700
 1754SOL    HW2 6083   0.449   1.672   6.379  0.5634  0.2218  1.7277
 1755SOL     OW 6084   2.952   4.480   1.414  0.5616  0.0251 -0.0382
 1755SOL    HW1 6085   2.981   4.400   1.362  1.8495 -0.5358  1.4669
 1755SOL    HW2 6086   2.887   4.533   1.359 -0.5111 -2.1424 -0.9813
 1756SOL     OW 6087   0.526   6.835   2.047  0.2030  0.2993  0.1986
 1756SOL    HW1 6088   0.591   6.893   2.097 -1.0856  0.6362  1.5507
 1756SOL    HW2 6089   0.438   6.882   2.040 -0.6172 -1.1129  0.5580
 1757SOL     OW 6090   5.531   3.744   2.658  0.0007 -0.2357  0.1022
 1757SOL    HW1 6091   5.629   3.762   2.651 -0.0316  0.4639  1.2318
 1757SOL    HW2 6092   5.511   3.654   2.620  1.0589 -0.3386 -0.2459
 1758SOL     OW 6093   2.521   5.556   4.926 -0.2130  0.4757 -0.1482
 1758SOL    HW1 6094   2.589   5.511   4.867 -0.2311  0.0829  0.1262
 1758SOL    HW2 6095   2.559   5.565   5.018 -0.5817  0.1371  0.0384
 1759SOL     OW 6096   3.462   1.233   4.050  0.3975  0.1183 -0.3964
 1759SOL    HW1 6097   3.519   1.180   3.988 -0.4113  0.2606 -1.2906
 1759SOL    HW2 6098   3.385   1.177   4.081  0.6377  0.1404  0.2616
 1760SOL     OW 6099   5.190   2.124   1.633 -0.9694  0.2949  0.2245
 1760SOL    HW1 6100   5.218   2.047   1.577 -3.9222 -0.7273 -0.0190
 1760SOL    HW2 6101   5.194   2.098   1.730 -0.9206  0.2160  0.2012
 1761SOL     OW 6102   3.738   4.091   4.499 -0.4088  0.4029 -0.8186
 1761SOL    HW1 6103   3.679   4.150   4.555 -0.6969 -0.6465  0.0167
 1761SOL    HW2 6104   3.833   4.102   4.530 -0.0024  2.6052 -2.6120
 1762SOL     OW 6105   4.461   4.067   1.497 -0.0035 -0.0979 -0.0172
 1762SOL    HW1 6106   4.546   4.078   1.549 -1.1726 -0.1876  2.0175
 1762SOL    HW2 6107   4.481   4.022   1.410  2.0492  0.0848  0.3021
 1763SOL     OW 6108   3.993   0.131   5.231  0.1783  0.2483 -0.1404
 1763SOL    HW1 6109   4.005   0.162   5.136 -1.2843 -0.7588 -0.6977
 1763SOL    HW2 6110   3.953   0.039   5.231 -0.6788  0.5872  1.4562
 1764SOL     OW 6111   1.476   4.191   5.950 -0.1958 -0.1675  0.0707
 1764SOL    HW1 6112   1.447   4.285   5.971  2.4524  0.5459  0.8732
 1764SOL    HW2 6113   1.528   4.191   5.865  0.1030 -0.8661  0.2494
 1765SOL     OW 6114   3.482   0.392   4.235 -0.1782  0.5982  0.3371
 1765SOL    HW1 6115   3.417   0.317   4.225 -0.0638  0.6833 -1.1394
 1765SOL    HW2 6116   3.552   0.386   4.165 -0.2683  2.1815  0.0764
 1766SOL     OW 6117   3.003   4.249   1.280 -0.1254 -0.7460  0.2161
 1766SOL    HW1 6118   3.100   4.248   1.303  0.2853 -0.8443 -1.4135
 1766SOL    HW2 6119   2.985   4.187   1.204 -1.5940 -1.2296  0.9090
 1767SOL     OW 6120   4.634   4.852   5.024  0.2214 -0.3764 -0.1337
 1767SOL    HW1 6121   4.546   4.875   4.983  1.1084  0.1684 -1.8242
 1767SOL    HW2 6122   4.620   4.813   5.115 -1.7884 -0.9340 -0.6486
 1768SOL     OW 6123   1.542   2.672   6.787  0.3510  0.2367 -0.0326
 1768SOL    HW1 6124   1.451   2.711   6.801  0.9492  1.7569 -0.1588
 1768SOL    HW2 6125   1.551   2.642   6.692 -0.1972 -0.4417  0.1234
 1769SOL     OW 6126   5.735   6.705   2.968 -0.2265 -0.2128  0.1640
 1769SOL    HW1 6127   5.826   6.742   2.988  0.1880 -0.5987 -0.9559
 1769SOL    HW2 6128   5.713   6.718   2.871 -1.2928 -0.2844  0.3807
 1770SOL     OW 6129   3.987   6.501   4.758  0.6188  0.0062  0.5008
 1770SOL    HW1 6130   3.927   6.520   4.836  1.8021  1.0024  1.1939
 1770SOL    HW2 6131   4.036   6.416   4.774  0.2767 -0.1998  0.4717
 1771SOL     OW 6132   5.331   0.316   1.264 -0.1420  0.0692  0.1029
 1771SOL    HW1 6133   5.385   0.391   1.303 -0.9815 -0.2994  2.1002
 1771SOL    HW2 6134   5.334   0.238   1.325  0.1951 -1.3605 -1.6482
 1772SOL     OW 6135   2.216   3.659   6.588 -0.1642  0.4038  0.5737
 1772SOL    HW1 6136   2.246   3.582   6.531  1.0322 -0.3519  2.1555
 1772SOL    HW2 6137   2.118   3.652   6.605 -0.2748 -0.1221 -0.2313
 1773SOL     OW 6138   6.318   3.595   1.558  0.5068  0.0461  0.1044
 1773SOL    HW1 6139   6.378   3.528   1.515  0.0202 -1.0076  1.0015
 1773SOL    HW2 6140   6.301   3.670   1.495  1.4837 -0.4180 -0.7402
 1774SOL     OW 6141   0.594   1.287   2.827  0.3338 -0.2561 -0.0841
 1774SOL    HW1 6142   0.497   1.305   2.816  0.4383  0.8480  0.6250
 1774SOL    HW2 6143   0.607   1.196   2.868 -0.5062  0.3712  1.6765
 1775SOL     OW 6144   5.617   5.343   3.849 -0.3937 -0.5479  0.4295
 1775SOL    HW1 6145   5.638   5.438   3.829  0.0647  0.1111  3.5422
 1775SOL    HW2 6146   5.632   5.288   3.767 -1.7063  2.1251 -1.7710
 1776SOL     OW 6147   2.984   5.650   2.486 -0.3918  0.5576  0.1214
 1776SOL    HW1 6148   2.940   5.591   2.418 -1.4575  1.4476  0.0098
 1776SOL    HW2 6149   3.083   5.644   2.476 -0.5231  0.6156 -1.4841
 1777SOL     OW 6150   6.180   3.824   2.284  0.3493 -0.1594 -0.0882
 1777SOL    HW1 6151   6.233   3.802   2.365  0.8452  0.8931 -0.1047
 1777SOL    HW2 6152   6.132   3.910   2.298  0.5956  0.1353 -0.9673
 1778SOL     OW 6153   6.474   3.770   2.171 -0.5184 -0.6589 -0.0995
 1778SOL    HW1 6154   6.494   3.867   2.189  1.6682 -0.9481 -0.7115
 1778SOL    HW2 6155   6.377   3.760   2.150 -1.4602  0.9559  2.8102
 1779SOL     OW 6156   2.825   5.208   4.833 -0.1997  0.1730  0.2296
 1779SOL    HW1 6157   2.766   5.166   4.765 -0.8690  1.6803 -0.1682
 1779SOL    HW2 6158   2.790   5.188   4.925 -0.2821 -0.4359  0.0673
 1780SOL     OW 6159   5.024   5.600   5.275 -0.0483 -0.4865  0.0841
 1780SOL    HW1 6160   5.112   5.562   5.305 -0.0534 -1.1438 -0.7103
 1780SOL    HW2 6161   5.038   5.691   5.237  0.5989 -1.2856 -1.7153
 1781SOL     OW 6162   5.681   0.958   1.354  0.2691  0.3727 -0.1987
 1781SOL    HW1 6163   5.745   0.999   1.419 -0.3723  0.1593  0.5969
 1781SOL    HW2 6164   5.731   0.917   1.278  1.0554  0.4747  0.2573
 1782SOL     OW 6165   0.211   6.944   0.781 -0.3282 -0.0680 -0.5410
 1782SOL    HW1 6166   0.282   6.937   0.851 -0.9653 -0.5557  0.0682
 1782SOL    HW2 6167   0.122   6.925   0.822 -0.9247  1.3513 -1.1071
 1783SOL     OW 6168   2.819   4.981   6.684  0.5264  0.3081 -0.5417
 1783SOL    HW1 6169   2.723   4.971   6.710  0.8409  0.2934  0.6550
 1783SOL    HW2 6170   2.873   4.909   6.727  0.8709 -0.6318 -2.4524
 1784SOL     OW 6171   3.398   3.094   6.493 -0.1595 -0.3185 -0.2442
 1784SOL    HW1 6172   3.375   3.012   6.440 -0.0118 -1.2846  1.1324
 1784SOL    HW2 6173   3.466   3.071   6.562  1.0851  1.3501 -0.8575
 1785SOL     OW 6174   4.658   6.019   2.093  0.4372  0.3999  0.5890
 1785SOL    HW1 6175   4.594   5.947   2.120  1.4574 -0.2170  1.4783
 1785SOL    HW2 6176   4.637   6.103   2.143 -0.1377  0.4179  0.3156
 1786SOL     OW 6177   2.992   4.270   2.416  0.0475 -0.0048  0.2344
 1786SOL    HW1 6178   2.926   4.345   2.409 -1.8313 -1.3195  2.3779
 1786SOL    HW2 6179   2.995   4.220   2.330  0.0585  1.5060 -0.6650
 1787SOL     OW 6180   3.476   4.360   1.440 -0.2049  0.7561  0.1314
 1787SOL    HW1 6181   3.446   4.419   1.365 -0.8570  1.1266  0.6667
 1787SOL    HW2 6182   3.519   4.416   1.512  0.6724  0.3722 -0.0815
 1788SOL     OW 6183   1.178   4.764   4.181  0.3018  0.5376 -0.0267
 1788SOL    HW1 6184   1.115   4.774   4.104 -0.8076 -0.5573  0.6976
 1788SOL    HW2 6185   1.143   4.815   4.260  0.1972 -0.2463  0.4444
 1789SOL     OW 6186   3.434   1.921   6.877  0.3326  0.4143  0.1126
 1789SOL    HW1 6187   3.399   1.996   6.821 -2.9182  0.1812  1.6262
 1789SOL    HW2 6188   3.394   1.835   6.846 -1.7181  0.3082  2.7713
 1790SOL     OW 6189   1.894   6.763   4.545 -0.1278  0.3424  0.1933
 1790SOL    HW1 6190   1.879   6.856   4.510 -1.5564  0.4553  1.0096
 1790SOL    HW2 6191   1.963   6.765   4.617 -0.1733  0.7861  0.2259
 1791SOL     OW 6192   2.074   2.134   6.632 -0.3210 -0.3839  0.3371
 1791SOL    HW1 6193   2.029   2.045   6.638  0.3987 -0.7145  1.0390
 1791SOL    HW2 6194   2.153   2.127   6.571 -0.8202  0.0235 -0.3635
 1792SOL     OW 6195   1.932   3.675   6.546  0.7973 -0.8502  0.5280
 1792SOL    HW1 6196   1.911   3.578   6.548  1.5429 -1.0136  2.2851
 1792SOL    HW2 6197   1.873   3.724   6.610  0.7933 -0.2067  0.0527
 1793SOL     OW 6198   1.849   5.576   0.031 -0.3709  0.2571  0.1886
 1793SOL    HW1 6199   1.909   5.562   0.110 -0.1013 -0.0728 -0.0730
 1793SOL    HW2 6200   1.885   5.652  -0.024 -0.0595 -0.0896 -0.0919
 1794SOL     OW 6201   0.850   6.088   6.141  0.1626 -0.2331 -0.4596
 1794SOL    HW1 6202   0.801   6.167   6.178  1.6672  0.6433 -0.2772
 1794SOL    HW2 6203   0.897   6.041   6.215  0.7159 -0.2520 -0.8194
 1795SOL     OW 6204   3.795   0.151   3.828  0.1376  0.1065  0.1085
 1795SOL    HW1 6205   3.840   0.064   3.811 -1.7775 -1.2474  1.5980
 1795SOL    HW2 6206   3.732   0.172   3.753 -0.1809 -0.3260  0.2536
 1796SOL     OW 6207   1.982   1.233   1.213 -0.0660 -0.7983  0.8332
 1796SOL    HW1 6208   2.079   1.245   1.190  0.2033 -1.6240  1.4922
 1796SOL    HW2 6209   1.957   1.137   1.201 -0.8583 -0.5608  0.5134
 1797SOL     OW 6210   0.779   0.364   3.251  0.8926 -0.6755  0.1906
 1797SOL    HW1 6211   0.842   0.355   3.328  1.2697  0.2858  0.0056
 1797SOL    HW2 6212   0.766   0.460   3.229  0.2841 -0.9130 -0.5410
 1798SOL     OW 6213   1.688   1.616   6.318 -0.2016  0.4830  0.8564
 1798SOL    HW1 6214   1.676   1.593   6.221  1.7283  1.4785  0.3444
 1798SOL    HW2 6215   1.602   1.652   6.354 -0.3041  2.4375 -1.1783
 1799SOL     OW 6216   2.996   6.627   4.456 -0.4856 -0.2762  0.2027
 1799SOL    HW1 6217   2.996   6.651   4.359  0.8018 -1.8671 -0.2446
 1799SOL    HW2 6218   2.929   6.554   4.472  1.1392 -1.9132 -0.0824
 1800SOL     OW 6219   1.302   2.853   6.396 -0.4543 -0.0235  0.3159
 1800SOL    HW1 6220   1.285   2.813   6.486 -1.3157 -0.0335  0.1548
 1800SOL    HW2 6221   1.358   2.936   6.407 -1.1558  0.3831  0.9373
 1801SOL     OW 6222   1.703   4.494   5.526 -0.6196 -0.1947  1.1176
 1801SOL    HW1 6223   1.754   4.577   5.550  0.2873 -1.0647  2.3203
 1801SOL    HW2 6224   1.716   4.474   5.429 -0.6037  0.9000  0.8821
 1802SOL     OW 6225   4.800   4.617   1.689 -0.2938  0.0992  0.1486
 1802SOL    HW1 6226   4.798   4.716   1.679 -0.8796 -0.0242 -1.1189
 1802SOL    HW2 6227   4.711   4.579   1.665  0.7196 -0.9495 -2.3308
 1803SOL     OW 6228   3.927   4.598   1.949 -0.2439 -0.0002  0.3827
 1803SOL    HW1 6229   3.866   4.551   1.885 -0.3329 -1.7963  1.6958
 1803SOL    HW2 6230   3.931   4.695   1.927 -3.2027  0.1109 -0.0754
 1804SOL     OW 6231   0.857   4.344   2.337 -0.0881  0.0992  0.2911
 1804SOL    HW1 6232   0.809   4.283   2.273  0.6969 -0.6423  0.4033
 1804SOL    HW2 6233   0.903   4.415   2.285 -2.0616  1.4205  0.2198
 1805SOL     OW 6234   1.954   3.284   1.274 -0.5029  0.2354  0.4376
 1805SOL    HW1 6235   1.961   3.349   1.350 -0.7323  1.1573 -0.3205
 1805SOL    HW2 6236   1.933   3.333   1.190 -1.1319 -0.8740 -0.0692
 1806SOL     OW 6237   1.006   5.518   3.073 -0.4816 -0.1140  0.1437
 1806SOL    HW1 6238   0.944   5.595   3.087 -0.6516 -0.2223 -0.0080
 1806SOL    HW2 6239   1.077   5.544   3.008 -0.2432  0.0791  0.4789
 1807SOL     OW 6240   0.395   0.090   3.179  0.2935 -0.3140  0.1400
 1807SOL    HW1 6241   0.317   0.054   3.230  0.3668  0.7906  1.0990
 1807SOL    HW2 6242   0.442   0.158   3.235  0.1153  1.3060 -1.5676
 1808SOL     OW 6243   5.995   2.152   0.654  0.1864 -0.8274  0.3855
 1808SOL    HW1 6244   6.052   2.110   0.583  1.2947  0.2496  0.6217
 1808SOL    HW2 6245   6.029   2.243   0.676 -1.6697 -0.1136  0.4994
 1809SOL     OW 6246   4.905   5.634   6.356 -0.2677 -0.1805 -0.7978
 1809SOL    HW1 6247   4.933   5.687   6.276 -0.7479  0.2276 -0.7034
 1809SOL    HW2 6248   4.805   5.630   6.359 -0.2838  0.7417  0.3840
 1810SOL     OW 6249   3.664   4.661   1.329  0.5161  0.7245  0.2834
 1810SOL    HW1 6250   3.737   4.689   1.391  1.6599 -1.4629  0.0362
 1810SOL    HW2 6251   3.703   4.634   1.241 -0.6153 -0.0948  0.0039
 1811SOL     OW 6252   5.716   0.905   3.123  0.8493  0.2772  0.4535
 1811SOL    HW1 6253   5.631   0.956   3.138 -0.0465 -0.3397 -1.9506
 1811SOL    HW2 6254   5.781   0.963   3.074  0.0986 -0.5310 -1.6324
 1812SOL     OW 6255   3.329   1.516   2.879  0.1420  0.3238 -0.7058
 1812SOL    HW1 6256   3.393   1.487   2.808 -0.4795 -1.6519 -0.5116
 1812SOL    HW2 6257   3.282   1.436   2.917 -0.8282  1.5054  0.7091
 1813SOL     OW 6258   5.767   3.169   2.992  0.3463 -0.0281  0.2704
 1813SOL    HW1 6259   5.769   3.074   2.959  2.2691 -0.1543  0.6502
 1813SOL    HW2 6260   5.784   3.169   3.091 -0.1831  0.6876  0.3616
 1814SOL     OW 6261   6.617   1.395   1.980  0.7778 -0.0377 -0.3853
 1814SOL    HW1 6262   6.621   1.374   1.882  0.8753 -0.3107 -0.3244
 1814SOL    HW2 6263   6.684   1.467   2.001  1.8203 -1.0118 -0.2679
 1815SOL     OW 6264   4.152   0.414   4.393  0.1294 -0.1250  0.3802
 1815SOL    HW1 6265   4.137   0.413   4.492 -0.4377 -0.4257  0.2942
 1815SOL    HW2 6266   4.066   0.396   4.346  0.6741 -1.5078 -0.1357
 1816SOL     OW 6267   1.193   4.204   3.132 -0.2327  0.5698 -0.3027
 1816SOL    HW1 6268   1.174   4.111   3.161  1.9122 -0.1267 -0.9842
 1816SOL    HW2 6269   1.163   4.217   3.037  1.0114  0.0116 -0.7913
 1817SOL     OW 6270   2.494   2.102   5.380 -0.0703  0.0458  0.0188
 1817SOL    HW1 6271   2.432   2.055   5.443  1.6099 -1.0036  0.9555
 1817SOL    HW2 6272   2.567   2.146   5.433  0.9074 -0.1282 -1.1575
 1818SOL     OW 6273   4.509   3.805   6.233  0.1218  0.0985 -0.3527
 1818SOL    HW1 6274   4.515   3.784   6.331 -3.0230 -1.5045 -0.3942
 1818SOL    HW2 6275   4.532   3.724   6.180  1.4478  0.8606 -0.9943
 1819SOL     OW 6276   5.864   0.025   5.890  0.1502 -0.3735  0.1610
 1819SOL    HW1 6277   5.959   0.048   5.869 -0.6034  3.2257  0.1885
 1819SOL    HW2 6278   5.833   0.074   5.971 -2.1774 -0.1574 -0.7518
 1820SOL     OW 6279   0.299   0.339   4.359  0.3149  0.6394 -0.1708
 1820SOL    HW1 6280   0.310   0.400   4.438  0.7309 -0.6001  0.7625
 1820SOL    HW2 6281   0.213   0.288   4.367  1.2528 -0.9008  0.5197
 1821SOL     OW 6282   5.252   2.545   4.173 -0.1413  0.0152  0.4498
 1821SOL    HW1 6283   5.248   2.602   4.255 -1.4388 -0.2275  0.5661
 1821SOL    HW2 6284   5.267   2.450   4.199 -0.4655 -0.0500  0.3947
 1822SOL     OW 6285   4.254   1.690   4.928  0.3243  0.0959 -0.0720
 1822SOL    HW1 6286   4.322   1.759   4.954  0.3861 -0.2155  0.6133
 1822SOL    HW2 6287   4.164   1.717   4.964  0.5931 -0.8394  1.3963
 1823SOL     OW 6288   6.220   4.709   5.595 -0.1624 -0.1311  0.4502
 1823SOL    HW1 6289   6.148   4.692   5.663 -1.1160  1.5674 -0.0722
 1823SOL    HW2 6290   6.180   4.704   5.503  0.2321  1.4374  0.1754
 1824SOL     OW 6291   4.527   4.919   5.675 -0.2833  0.1477 -0.6977
 1824SOL    HW1 6292   4.487   4.992   5.620  1.3617  0.9586 -0.8945
 1824SOL    HW2 6293   4.621   4.903   5.646  1.1699  1.5515  2.6556
 1825SOL     OW 6294   1.942   1.070   2.384  0.2466 -0.4307  0.0202
 1825SOL    HW1 6295   1.894   0.984   2.399 -2.0248  0.5112 -1.2161
 1825SOL    HW2 6296   2.040   1.054   2.381  0.0799 -2.5195  2.4969
 1826SOL     OW 6297   4.924   3.611   5.983 -0.2709 -0.4493  0.2848
 1826SOL    HW1 6298   5.010   3.613   5.933 -1.2391  2.8948 -1.5587
 1826SOL    HW2 6299   4.926   3.678   6.057 -1.2697 -0.3515  0.2411
 1827SOL     OW 6300   4.512   3.031   2.933  0.4488  0.4566  0.0590
 1827SOL    HW1 6301   4.611   3.040   2.941  0.6935 -1.9346  0.2993
 1827SOL    HW2 6302   4.485   2.936   2.946 -1.7603  0.7979 -1.3596
 1828SOL     OW 6303   3.175   3.881   6.421 -0.0369  0.3515  0.4500
 1828SOL    HW1 6304   3.230   3.934   6.486  0.2706 -0.5069  0.9039
 1828SOL    HW2 6305   3.213   3.789   6.412 -1.2089 -0.1567  0.5209
 1829SOL     OW 6306   2.151   5.071   0.403  0.2437 -0.5328 -0.0834
 1829SOL    HW1 6307   2.080   5.002   0.391 -0.8555  0.6694 -0.7044
 1829SOL    HW2 6308   2.177   5.077   0.499 -0.3623 -1.1243  0.1188
 1830SOL     OW 6309   3.368   6.905   0.151  0.2625  0.5099 -0.2929
 1830SOL    HW1 6310   3.290   6.884   0.210 -0.6261  1.3636 -1.1313
 1830SOL    HW2 6311   3.373   6.836   0.078  0.0749  0.6563 -0.4445
 1831SOL     OW 6312   4.849   4.699   5.787 -0.0599  0.2562  0.6631
 1831SOL    HW1 6313   4.885   4.752   5.863 -2.2488  0.3037  1.7578
 1831SOL    HW2 6314   4.821   4.608   5.819  0.6289 -0.3916 -0.4944
 1832SOL     OW 6315   0.208   3.770   3.801  0.2747 -0.3202  0.2125
 1832SOL    HW1 6316   0.202   3.764   3.702  0.0420  0.8237  0.1374
 1832SOL    HW2 6317   0.138   3.832   3.835  0.9827  0.0838  0.9874
 1833SOL     OW 6318   0.452   6.058   3.021  0.3138  0.3709 -0.1952
 1833SOL    HW1 6319   0.546   6.086   3.000 -0.3079  2.9060  0.1096
 1833SOL    HW2 6320   0.420   5.995   2.951  1.4649  1.2824 -1.6030
 1834SOL     OW 6321   1.459   4.569   6.964  0.3877 -0.1663 -0.5352
 1834SOL    HW1 6322   1.375   4.522   6.988  0.0459  0.1091 -1.1573
 1834SOL    HW2 6323   1.517   4.577   7.044 -0.2727 -0.1710 -0.0496
 1835SOL     OW 6324   6.242   5.134   5.317  0.3290 -0.5062 -0.3963
 1835SOL    HW1 6325   6.147   5.153   5.293  0.5901  2.1511  0.3708
 1835SOL    HW2 6326   6.245   5.070   5.393 -0.9269  0.3807  0.4487
 1836SOL     OW 6327   4.574   4.432   1.620  0.4241 -0.0645  0.0285
 1836SOL    HW1 6328   4.601   4.369   1.547  1.7197 -0.1814  0.5724
 1836SOL    HW2 6329   4.501   4.391   1.674  1.3544 -1.1941  0.4707
 1837SOL     OW 6330   4.055   6.164   2.334 -0.5030 -0.0705 -0.0524
 1837SOL    HW1 6331   4.020   6.147   2.426  0.4413  0.1490  0.3626
 1837SOL    HW2 6332   3.983   6.148   2.267 -1.8713  1.8946  0.8711
 1838SOL     OW 6333   3.480   3.723   4.324 -0.2435  1.0372  0.2195
 1838SOL    HW1 6334   3.567   3.674   4.331 -1.0138 -0.1058  3.7374
 1838SOL    HW2 6335   3.499   3.820   4.309  1.6448  0.8000  0.7318
 1839SOL     OW 6336   2.475   5.935   4.335  0.1439  0.4220 -0.0916
 1839SOL    HW1 6337   2.517   6.023   4.312 -0.7844  1.0866  0.7198
 1839SOL    HW2 6338   2.465   5.927   4.434 -0.3791 -0.3225 -0.1938
 1840SOL     OW 6339   6.640   0.904   3.727  0.8317  0.1471 -0.1588
 1840SOL    HW1 6340   6.547   0.907   3.692  0.4672  1.1859  0.8591
 1840SOL    HW2 6341   6.650   0.968   3.803  3.5583  3.5215 -3.0284
 1841SOL     OW 6342   2.059   5.559   6.636  0.5284  0.8002 -0.2918
 1841SOL    HW1 6343   2.126   5.563   6.710  1.1925  1.4107 -0.9069
 1841SOL    HW2 6344   2.056   5.466   6.599 -0.0027  0.4262  0.6625
 1842SOL     OW 6345   0.164   3.269   1.436  0.1540  0.0541 -0.3054
 1842SOL    HW1 6346   0.182   3.330   1.359 -0.6813 -1.1580 -1.5111
 1842SOL    HW2 6347   0.137   3.179   1.402 -2.2226  0.0365  1.3407
 1843SOL     OW 6348   3.493   0.878   6.711 -0.1232  0.1467 -0.3967
 1843SOL    HW1 6349   3.393   0.875   6.705 -0.2065  0.5278  0.5670
 1843SOL    HW2 6350   3.523   0.828   6.793  0.2808  2.1501  0.7360
 1844SOL     OW 6351   1.694   4.165   4.281 -0.2017 -0.1845  0.5627
 1844SOL    HW1 6352   1.754   4.202   4.352  0.0225  0.5524  0.0031
 1844SOL    HW2 6353   1.735   4.081   4.244  0.8994  0.7027 -0.3316
 1845SOL     OW 6354   4.817   6.398   6.257  0.2402 -0.1361  0.1846
 1845SOL    HW1 6355   4.803   6.447   6.171 -0.3722  0.5101  0.6422
 1845SOL    HW2 6356   4.754   6.321   6.262 -0.1893  0.2208  0.3426
 1846SOL     OW 6357   4.466   1.771   1.023  0.2557  0.5179  0.2729
 1846SOL    HW1 6358   4.536   1.838   0.999  0.1067  0.1780 -1.2067
 1846SOL    HW2 6359   4.420   1.739   0.940  0.5668 -1.6990  0.8762
 1847SOL     OW 6360   2.075   3.241   3.100  0.4449 -0.0572  0.3130
 1847SOL    HW1 6361   2.021   3.271   3.021  0.8330 -1.2534 -0.4306
 1847SOL    HW2 6362   2.142   3.173   3.070  1.9113  0.8806  1.3305
 1848SOL     OW 6363   3.056   6.903   1.448 -0.3823  0.2273 -0.5562
 1848SOL    HW1 6364   3.102   6.817   1.471 -0.3186  0.3809 -0.0953
 1848SOL    HW2 6365   2.962   6.885   1.422 -0.5510  0.0744  0.1405
 1849SOL     OW 6366   0.450   4.661   2.179 -0.6695  0.2720 -0.3828
 1849SOL    HW1 6367   0.523   4.690   2.116  0.9621 -1.9250  0.3784
 1849SOL    HW2 6368   0.379   4.614   2.127 -0.0393 -0.2693 -0.7665
 1850SOL     OW 6369   6.707   1.164   1.406  0.2209  0.2172  0.0411
 1850SOL    HW1 6370   6.710   1.114   1.493  1.4901  0.5072  0.1917
 1850SOL    HW2 6371   6.621   1.146   1.359 -0.4088 -0.0889  1.2793
 1851SOL     OW 6372   4.450   5.633   6.031  0.0379 -0.4562  0.2729
 1851SOL    HW1 6373   4.455   5.596   5.938  1.4739  1.3881 -0.4445
 1851SOL    HW2 6374   4.390   5.713   6.031  0.8806  0.1851  0.6791
 1852SOL     OW 6375   3.788   1.205   4.255 -0.3852 -0.3431  0.2552
 1852SOL    HW1 6376   3.717   1.265   4.218 -2.4164 -2.0858  1.0932
 1852SOL    HW2 6377   3.805   1.229   4.351  0.6335  0.4417 -0.1027
 1853SOL     OW 6378   2.525   3.017   6.546  0.6996 -0.4565  0.1161
 1853SOL    HW1 6379   2.486   2.945   6.603 -0.1600  1.2081  1.7531
 1853SOL    HW2 6380   2.612   2.987   6.508  0.4959 -2.2208  0.9870
 1854SOL     OW 6381   6.896   4.678   3.848 -0.5507 -0.3136 -0.2985
 1854SOL    HW1 6382   6.828   4.609   3.824  0.0069 -1.2026  0.5892
 1854SOL    HW2 6383   6.850   4.762   3.877 -1.2825 -0.8873  0.2532
 1855SOL     OW 6384   6.705   5.470   6.150 -0.1795 -0.1269  0.1427
 1855SOL    HW1 6385   6.794   5.445   6.190  0.7671  0.7959 -1.2683
 1855SOL    HW2 6386   6.681   5.404   6.078 -0.8037 -0.5497  0.7310
 1856SOL     OW 6387   4.171   2.901   3.102 -0.5672 -0.5086  0.8224
 1856SOL    HW1 6388   4.185   2.804   3.083  0.2461 -0.3863  0.8000
 1856SOL    HW2 6389   4.205   2.922   3.194 -0.6914 -0.2291  0.8050
 1857SOL     OW 6390   5.624   5.931   4.495  0.6008  0.0901 -0.1370
 1857SOL    HW1 6391   5.632   5.953   4.592  1.8760  0.5719 -0.3249
 1857SOL    HW2 6392   5.695   5.864   4.471 -0.0674 -0.4517 -0.6188
 1858SOL     OW 6393   6.435   6.897   4.861 -0.8160  0.2724  0.3915
 1858SOL    HW1 6394   6.508   6.959   4.890 -0.5030 -0.4089  1.0908
 1858SOL    HW2 6395   6.367   6.889   4.933 -0.3608 -0.9346  0.7072
 1859SOL     OW 6396   2.635   2.075   6.603 -0.5844 -0.0301 -0.2168
 1859SOL    HW1 6397   2.622   2.139   6.679 -0.7654 -0.0615 -0.2192
 1859SOL    HW2 6398   2.689   2.118   6.531  2.5582 -1.1154  1.3444
 1860SOL     OW 6399   6.707   3.317   2.204 -0.3874 -0.0850  0.3613
 1860SOL    HW1 6400   6.614   3.346   2.178  0.1900  0.3253 -1.4296
 1860SOL    HW2 6401   6.716   3.219   2.191 -0.0564  0.1294 -1.4109
 1861SOL     OW 6402   2.286   0.068   1.577 -0.8126 -0.0908  0.5549
 1861SOL    HW1 6403   2.246   0.159   1.567 -1.7297 -0.6599 -1.6087
 1861SOL    HW2 6404   2.226   0.011   1.633 -0.0516  0.6872  2.2315
 1862SOL     OW 6405   4.513   2.194   0.904  0.3966  0.1063  0.4629
 1862SOL    HW1 6406   4.513   2.161   0.999  1.0300  1.6038  1.0041
 1862SOL    HW2 6407   4.545   2.120   0.844 -0.0041 -0.8601  1.4026
 1863SOL     OW 6408   2.956   3.335   1.161 -0.5816 -0.3903  0.5351
 1863SOL    HW1 6409   2.883   3.384   1.208  1.2721  1.9807  1.1968
 1863SOL    HW2 6410   3.036   3.329   1.222  0.7429 -0.2824 -1.1173
 1864SOL     OW 6411   1.209   0.706   0.650 -0.0656 -0.3505  0.1236
 1864SOL    HW1 6412   1.120   0.745   0.677  0.5604  0.8583  0.5128
 1864SOL    HW2 6413   1.196   0.612   0.620 -1.3970 -0.4007  0.7768
 1865SOL     OW 6414   0.083   5.486   3.828  0.0157  0.3014  0.0976
 1865SOL    HW1 6415   0.170   5.514   3.868 -0.2308 -0.0923  0.9462
 1865SOL    HW2 6416   0.017   5.471   3.902 -0.9163  1.0679 -0.5583
 1866SOL     OW 6417   3.103   2.774   4.357  0.0457  0.3272  0.1869
 1866SOL    HW1 6418   3.182   2.823   4.394 -0.5332  1.1177  0.3852
 1866SOL    HW2 6419   3.023   2.834   4.356 -0.1156  0.1598 -1.8159
 1867SOL     OW 6420   3.708   2.052   5.186  0.2771 -0.6985  0.8242
 1867SOL    HW1 6421   3.789   2.091   5.231  2.2254 -0.4040 -2.5414
 1867SOL    HW2 6422   3.633   2.117   5.190  1.3535  0.5848  1.0218
 1868SOL     OW 6423   3.053   6.019   6.380  0.1359  0.2462  0.3570
 1868SOL    HW1 6424   3.006   5.964   6.449 -0.2346  0.7907  0.5409
 1868SOL    HW2 6425   3.145   5.981   6.365 -0.7975 -1.6170 -0.9642
 1869SOL     OW 6426   0.266   2.486   6.780 -0.0151 -0.2978 -0.0746
 1869SOL    HW1 6427   0.216   2.560   6.734 -0.1964  0.8153  1.8089
 1869SOL    HW2 6428   0.331   2.445   6.716 -1.2889  0.1660 -1.7317
 1870SOL     OW 6429   1.033   1.198   3.753  0.3887 -0.1081  0.6394
 1870SOL    HW1 6430   0.949   1.250   3.737  1.7771  2.3522  0.7636
 1870SOL    HW2 6431   1.068   1.165   3.665 -0.0317 -0.0645  0.4495
 1871SOL     OW 6432   3.340   4.054   4.837  0.4856 -0.2761  0.2136
 1871SOL    HW1 6433   3.419   3.993   4.838 -0.2522 -1.2417  0.4656
 1871SOL    HW2 6434   3.329   4.097   4.926  0.0941 -0.9745  0.5050
 1872SOL     OW 6435   4.093   4.772   2.679  0.0993 -0.6395  0.2322
 1872SOL    HW1 6436   4.150   4.771   2.761 -0.2788 -1.3022  0.4969
 1872SOL    HW2 6437   3.996   4.776   2.705  0.0085  0.0907 -0.2029
 1873SOL     OW 6438   2.989   3.816   3.859  0.3083  0.0593 -0.1738
 1873SOL    HW1 6439   2.927   3.835   3.934 -1.0180 -2.0734 -0.6549
 1873SOL    HW2 6440   2.940   3.824   3.772  1.7366  2.1842 -0.8747
 1874SOL     OW 6441   1.159   1.595   6.875  0.2547 -0.1772  0.0945
 1874SOL    HW1 6442   1.258   1.584   6.885  0.1160 -0.8363  0.8933
 1874SOL    HW2 6443   1.117   1.505   6.862 -0.2484  0.0928 -0.1987
 1875SOL     OW 6444   0.985   6.460   0.880  0.4610 -0.9114  0.3611
 1875SOL    HW1 6445   0.969   6.531   0.811  2.5433  0.0929  0.8272
 1875SOL    HW2 6446   1.081   6.431   0.876 -0.4043 -4.0908 -0.1164
 1876SOL     OW 6447   2.483   0.052   5.796 -0.1119 -0.0638 -0.0596
 1876SOL    HW1 6448   2.531   0.028   5.711 -0.2904 -1.4019  0.1884
 1876SOL    HW2 6449   2.550   0.075   5.867  0.0136  3.8177 -1.2406
 1877SOL     OW 6450   3.473   4.124   1.188 -0.0009 -0.4685 -0.2397
 1877SOL    HW1 6451   3.530   4.188   1.240 -2.6040  0.6490  1.4602
 1877SOL    HW2 6452   3.489   4.031   1.221  1.8417 -0.4038 -0.8367
 1878SOL     OW 6453   1.931   2.725   1.828 -0.2077 -0.0856 -0.3845
 1878SOL    HW1 6454   2.003   2.746   1.763  0.1450  0.4952  0.1816
 1878SOL    HW2 6455   1.881   2.809   1.851  0.0520 -0.1753  0.5373
 1879SOL     OW 6456   6.365   5.641   1.775  0.3372 -0.2518  0.2128
 1879SOL    HW1 6457   6.324   5.726   1.742 -1.2150 -0.6686  0.9668
 1879SOL    HW2 6458   6.321   5.613   1.861  0.3559 -2.1460 -0.3397
 1880SOL     OW 6459   5.410   0.451   3.560  0.1760  0.1627  0.2586
 1880SOL    HW1 6460   5.442   0.401   3.480  1.2710  0.2310  0.6270
 1880SOL    HW2 6461   5.410   0.549   3.540 -1.5506  0.0753 -0.3196
 1881SOL     OW 6462   0.266   0.357   5.527  0.0825 -0.6130  0.2961
 1881SOL    HW1 6463   0.276   0.328   5.622  1.6138 -1.5738 -0.1225
 1881SOL    HW2 6464   0.241   0.278   5.470  0.7969 -0.3898 -0.3402
 1882SOL     OW 6465   4.164   4.328   2.006 -0.2903  0.0315 -0.0134
 1882SOL    HW1 6466   4.107   4.392   2.059 -0.9699 -0.2136 -0.4404
 1882SOL    HW2 6467   4.105   4.263   1.959  0.4223 -1.9228  1.6480
 1883SOL     OW 6468   1.980   1.685   5.442 -0.2978  0.3773 -0.1053
 1883SOL    HW1 6469   1.881   1.696   5.432 -0.9874 -1.9232  2.8349
 1883SOL    HW2 6470   2.010   1.602   5.395 -0.5539 -1.0775  2.1597
 1884SOL     OW 6471   0.150   2.555   5.813  0.4096  0.4075  0.2952
 1884SOL    HW1 6472   0.100   2.475   5.846  0.4451  0.2861  0.0529
 1884SOL    HW2 6473   0.149   2.626   5.884  0.0553  0.3358  0.3639
 1885SOL     OW 6474   5.950   5.770   2.552 -0.1396  0.2739 -0.0664
 1885SOL    HW1 6475   6.039   5.795   2.515  0.7758 -0.3940  1.5400
 1885SOL    HW2 6476   5.913   5.692   2.502 -0.3033  1.1543 -1.3644
 1886SOL     OW 6477   2.291   0.537   0.831  0.7278  0.1211  0.4459
 1886SOL    HW1 6478   2.260   0.576   0.918  1.6713  1.1706  0.3430
 1886SOL    HW2 6479   2.391   0.532   0.830  0.6740 -1.4724  0.0626
 1887SOL     OW 6480   6.430   1.813   5.208  0.1923 -0.0733 -0.2855
 1887SOL    HW1 6481   6.352   1.848   5.260 -1.1631 -1.8380 -1.0504
 1887SOL    HW2 6482   6.504   1.791   5.271  0.4964  2.4630  0.3765
 1888SOL     OW 6483   4.786   4.659   4.876 -0.0524  0.0651 -0.1597
 1888SOL    HW1 6484   4.768   4.693   4.969 -0.1056 -1.9971  0.6219
 1888SOL    HW2 6485   4.713   4.688   4.816  0.2378  1.8746  0.2921
 1889SOL     OW 6486   4.178   3.785   3.263 -0.2389  0.0290 -0.0793
 1889SOL    HW1 6487   4.229   3.858   3.218 -1.3472  1.1990  0.5384
 1889SOL    HW2 6488   4.228   3.698   3.250  2.2352  1.1822  1.0297
 1890SOL     OW 6489   2.733   2.884   1.803 -0.0819  0.2304 -0.5191
 1890SOL    HW1 6490   2.680   2.969   1.806  0.5012  0.6239  2.7634
 1890SOL    HW2 6491   2.828   2.906   1.780 -0.4605  0.0743 -2.3118
 1891SOL     OW 6492   5.958   5.866   4.376  0.0159  0.1569 -0.3982
 1891SOL    HW1 6493   5.899   5.785   4.383  1.1641 -0.8534 -1.8082
 1891SOL    HW2 6494   5.947   5.907   4.285 -1.3140  2.2564  0.6248
 1892SOL     OW 6495   6.817   2.218   4.971  0.1256  0.2525  0.0098
 1892SOL    HW1 6496   6.751   2.145   4.956  0.5956 -0.6574  2.1551
 1892SOL    HW2 6497   6.787   2.276   5.047 -0.2783  2.4258 -1.6650
 1893SOL     OW 6498   0.574   4.048   0.170 -0.1266 -0.0120 -0.2865
 1893SOL    HW1 6499   0.583   4.082   0.077  1.6101 -0.2088 -0.2207
 1893SOL    HW2 6500   0.657   4.070   0.222  0.6771 -3.3268  0.0691
 1894SOL     OW 6501   6.299   6.206   4.739  0.1779 -0.2291 -0.3376
 1894SOL    HW1 6502   6.202   6.197   4.718  0.0422 -0.4696  0.3649
 1894SOL    HW2 6503   6.337   6.284   4.689 -0.8649  1.1933  0.9947
 1895SOL     OW 6504   2.760   3.025   2.821  0.8012  0.3732  0.7916
 1895SOL    HW1 6505   2.845   2.993   2.862  0.7071 -0.2554  0.5059
 1895SOL    HW2 6506   2.683   2.973   2.858  0.8314 -1.1343 -1.0887
 1896SOL     OW 6507   0.547   0.093   1.229 -0.4718  0.4280  0.1166
 1896SOL    HW1 6508   0.604   0.119   1.151 -1.1291  0.2456 -0.4305
 1896SOL    HW2 6509   0.578   0.142   1.311  0.9165 -0.2033 -0.0085
 1897SOL     OW 6510   4.795   0.175   4.828 -0.7325 -0.0245 -0.3446
 1897SOL    HW1 6511   4.831   0.198   4.737 -2.0929  1.4694 -0.5649
 1897SOL    HW2 6512   4.806   0.077   4.844 -0.1329 -0.2688 -1.9698
 1898SOL     OW 6513   2.118   0.515   4.398 -0.0807 -0.0100 -0.0040
 1898SOL    HW1 6514   2.124   0.456   4.317 -0.2098 -0.3197  0.2081
 1898SOL    HW2 6515   2.185   0.589   4.390  1.2363 -1.1101  0.4661
 1899SOL     OW 6516   6.906   6.042   1.460 -0.0113 -0.1488  0.3287
 1899SOL    HW1 6517   6.908   6.009   1.555 -2.0421  0.8957  0.7874
 1899SOL    HW2 6518   6.997   6.072   1.433  0.5673 -0.2805  2.0200
 1900SOL     OW 6519   2.962   2.694   0.570  0.4894  0.0478  0.0994
 1900SOL    HW1 6520   2.981   2.607   0.525 -0.3988  0.0440 -0.2895
 1900SOL    HW2 6521   2.926   2.759   0.503 -0.7660  0.0651  0.7698
 1901SOL     OW 6522   0.680   3.412   0.943 -0.3694  0.2501  0.3273
 1901SOL    HW1 6523   0.746   3.341   0.965  1.2453  1.0222 -1.6412
 1901SOL    HW2 6524   0.592   3.391   0.986  0.6764 -1.6706  1.6922
 1902SOL     OW 6525   5.141   2.270   5.795 -0.5089  0.0828 -0.7028
 1902SOL    HW1 6526   5.147   2.217   5.710 -0.9956 -0.5078 -0.3777
 1902SOL    HW2 6527   5.232   2.277   5.835 -0.5852 -1.5491 -0.1435
 1903SOL     OW 6528   5.566   1.277   4.880  0.0048 -0.0216 -0.2315
 1903SOL    HW1 6529   5.553   1.346   4.951 -0.6931 -0.6590  0.2852
 1903SOL    HW2 6530   5.576   1.321   4.791  0.6103  0.7783  0.2223
 1904SOL     OW 6531   0.291   5.813   3.462 -0.2444 -0.7110  0.5088
 1904SOL    HW1 6532   0.312   5.777   3.553  1.5332  0.1123  0.4493
 1904SOL    HW2 6533   0.244   5.742   3.408 -0.0029 -1.6963  1.5618
 1905SOL     OW 6534   2.924   4.963   1.608 -0.2090  0.2022 -0.2452
 1905SOL    HW1 6535   2.984   4.885   1.625 -0.5162 -0.5210 -2.1761
 1905SOL    HW2 6536   2.920   5.022   1.689 -0.0770 -1.8418  1.3011
 1906SOL     OW 6537   5.444   4.199   5.694  0.0573  0.2070 -0.1242
 1906SOL    HW1 6538   5.428   4.111   5.648 -0.6934 -0.5300  1.4324
 1906SOL    HW2 6539   5.440   4.273   5.627 -0.8093 -0.8156 -1.2662
 1907SOL     OW 6540   0.745   4.637   3.154 -0.0397 -0.3131 -0.8096
 1907SOL    HW1 6541   0.653   4.666   3.129 -1.8439 -2.7996  2.1166
 1907SOL    HW2 6542   0.771   4.558   3.099 -0.3530 -0.5541 -0.6198
 1908SOL     OW 6543   6.795   1.078   0.577 -0.0414  0.0500 -0.3233
 1908SOL    HW1 6544   6.789   0.980   0.561 -0.6157 -0.1753  1.0947
 1908SOL    HW2 6545   6.774   1.127   0.492  1.5521 -1.0229 -1.4025
 1909SOL     OW 6546   6.855   1.872   0.601 -0.3540  0.2187 -0.0014
 1909SOL    HW1 6547   6.760   1.843   0.587 -0.2717  0.1093 -0.3296
 1909SOL    HW2 6548   6.917   1.805   0.559 -0.1384  0.4071  0.0181
 1910SOL     OW 6549   3.488   2.382   1.561  0.0435  0.2916  0.2343
 1910SOL    HW1 6550   3.569   2.330   1.536  0.8913  1.8577 -0.4124
 1910SOL    HW2 6551   3.513   2.477   1.579 -1.3120  0.3278  2.2530
 1911SOL     OW 6552   6.828   0.623   3.216 -0.2616  0.1720  0.8804
 1911SOL    HW1 6553   6.815   0.541   3.272 -2.0789  1.1537  2.0014
 1911SOL    HW2 6554   6.834   0.703   3.275 -0.7276  1.0933 -0.2756
 1912SOL     OW 6555   4.163   5.419   4.542  0.1215  0.2921 -0.0369
 1912SOL    HW1 6556   4.113   5.338   4.573 -1.2734  0.9155 -0.5869
 1912SOL    HW2 6557   4.250   5.390   4.502  0.1022 -0.8440  0.6786
 1913SOL     OW 6558   6.017   1.872   4.903  0.5034  0.2928  0.5127
 1913SOL    HW1 6559   6.003   1.794   4.843  1.3521  0.4610  0.0836
 1913SOL    HW2 6560   5.957   1.947   4.876  1.0321  0.4404 -0.2600
 1914SOL     OW 6561   2.232   3.159   6.289 -0.0088 -0.5022 -0.1801
 1914SOL    HW1 6562   2.145   3.111   6.299  0.5012 -1.4528 -0.2195
 1914SOL    HW2 6563   2.271   3.176   6.380 -1.2244  1.8441 -0.0161
 1915SOL     OW 6564   5.022   4.968   3.305 -0.0819  0.1446 -0.1282
 1915SOL    HW1 6565   5.029   4.936   3.211 -0.2113  0.4725 -0.2527
 1915SOL    HW2 6566   5.070   5.056   3.314  1.3520 -0.6732  0.5001
 1916SOL     OW 6567   6.419   6.724   3.506  0.1229  0.3118 -0.3425
 1916SOL    HW1 6568   6.385   6.749   3.415  0.4016 -1.3026 -0.9225
 1916SOL    HW2 6569   6.519   6.725   3.504  0.1335  1.0609  0.1956
 1917SOL     OW 6570   1.343   5.270   5.002  0.4472  0.5464  0.2869
 1917SOL    HW1 6571   1.442   5.257   4.997  0.9977  3.4303  1.9547
 1917SOL    HW2 6572   1.321   5.367   4.996 -2.3503 -0.0371 -0.3365
 1918SOL     OW 6573   2.316   6.949   3.369  0.2693  0.3938  0.0038
 1918SOL    HW1 6574   2.314   7.016   3.443 -0.0985  0.2518  0.1271
 1918SOL    HW2 6575   2.226   6.907   3.360  0.4495  0.0450 -0.1934
 1919SOL     OW 6576   3.638   6.020   2.909  0.4025  0.0783  0.3115
 1919SOL    HW1 6577   3.611   6.009   2.813 -1.2686  1.3458  0.5963
 1919SOL    HW2 6578   3.653   6.117   2.929  0.4407 -0.1380  1.4104
 1920SOL     OW 6579   6.615   1.571   6.050 -0.4552  0.4272  0.4284
 1920SOL    HW1 6580   6.592   1.473   6.048  1.4996 -0.1883  2.9816
 1920SOL    HW2 6581   6.686   1.590   5.983  0.4431 -0.3168  1.1521
 1921SOL     OW 6582   0.662   2.220   0.924 -0.3439 -0.3311  0.0880
 1921SOL    HW1 6583   0.743   2.261   0.965 -0.7964 -0.1262  0.7936
 1921SOL    HW2 6584   0.588   2.217   0.991 -0.3299 -2.3070  0.0573
 1922SOL     OW 6585   2.314   4.768   3.905 -0.7138 -0.8689  0.2109
 1922SOL    HW1 6586   2.320   4.683   3.852 -1.2719 -0.6044 -0.2855
 1922SOL    HW2 6587   2.311   4.846   3.842 -0.0718 -0.4645  0.6651
 1923SOL     OW 6588   5.540   5.168   3.625  0.1390 -0.0832  0.2548
 1923SOL    HW1 6589   5.486   5.112   3.563 -0.1125  0.6937 -0.2380
 1923SOL    HW2 6590   5.584   5.242   3.574 -0.5149  0.8942  1.0662
 1924SOL     OW 6591   2.201   5.069   2.875 -0.0252  0.3717  0.2766
 1924SOL    HW1 6592   2.236   5.142   2.933  0.6619  0.1326  0.1698
 1924SOL    HW2 6593   2.192   4.984   2.928  0.9156  0.0673 -0.0277
 1925SOL     OW 6594   1.471   5.017   4.783 -0.4547  0.1310  0.8200
 1925SOL    HW1 6595   1.541   5.072   4.829 -1.2034 -1.6214  4.4702
 1925SOL    HW2 6596   1.383   5.063   4.789 -0.3014  0.6138 -0.3849
 1926SOL     OW 6597   5.870   6.770   4.304 -0.0131 -0.8647 -0.4002
 1926SOL    HW1 6598   5.948   6.774   4.366 -0.0061 -0.8709 -0.4088
 1926SOL    HW2 6599   5.790   6.812   4.347  0.7876  2.1317 -1.5695
 1927SOL     OW 6600   5.232   4.670   1.792 -0.6338  0.2475  0.0594
 1927SOL    HW1 6601   5.253   4.767   1.781 -0.7194  0.1503 -1.0054
 1927SOL    HW2 6602   5.185   4.657   1.879 -0.5534  1.1467  0.2517
 1928SOL     OW 6603   1.771   5.375   2.367 -0.4713 -0.2608 -1.2526
 1928SOL    HW1 6604   1.790   5.381   2.269  0.6133 -2.1177 -1.2046
 1928SOL    HW2 6605   1.706   5.301   2.384 -1.4960  0.7430 -0.6314
 1929SOL     OW 6606   6.712   2.147   6.629 -0.5692 -0.0889  0.0390
 1929SOL    HW1 6607   6.626   2.187   6.662 -0.3371  0.9520 -0.5870
 1929SOL    HW2 6608   6.763   2.215   6.578 -0.4597 -1.3626 -1.6346
 1930SOL     OW 6609   6.001   2.075   3.172 -0.1408 -1.0499  0.7888
 1930SOL    HW1 6610   5.955   2.130   3.103  1.2566  1.0387  1.4297
 1930SOL    HW2 6611   5.937   2.054   3.247 -0.3587  0.9797  1.2241
 1931SOL     OW 6612   5.254   3.562   6.679 -0.0657  0.1988 -0.1957
 1931SOL    HW1 6613   5.277   3.586   6.584 -1.3530  3.0263  0.1254
 1931SOL    HW2 6614   5.331   3.587   6.738  0.0378  0.0812 -0.2783
 1932SOL     OW 6615   4.135   2.925   1.561 -0.1036 -0.9119  0.0016
 1932SOL    HW1 6616   4.096   2.918   1.469 -1.9147 -1.4538  0.7473
 1932SOL    HW2 6617   4.131   2.835   1.605 -0.5511 -0.3858  1.0827
 1933SOL     OW 6618   4.955   1.238   6.403  0.3372 -0.0872 -0.1140
 1933SOL    HW1 6619   5.045   1.264   6.438  0.2304 -0.4491  0.4426
 1933SOL    HW2 6620   4.885   1.297   6.444  0.3979  0.8001 -1.2352
 1934SOL     OW 6621   2.567   4.516   2.448  0.3311 -0.3670  0.3227
 1934SOL    HW1 6622   2.579   4.615   2.452 -1.8912 -0.0553  1.2129
 1934SOL    HW2 6623   2.651   4.473   2.416  1.8478  1.6683  1.3418
 1935SOL     OW 6624   0.778   4.471   2.933  0.2299 -0.4047 -0.4385
 1935SOL    HW1 6625   0.749   4.518   2.850  1.7152 -0.2096 -0.8788
 1935SOL    HW2 6626   0.764   4.373   2.923 -0.6043 -0.2882 -0.4777
 1936SOL     OW 6627   0.521   3.668   5.499  0.0401  0.2014  0.5213
 1936SOL    HW1 6628   0.468   3.584   5.497  1.1493 -0.5442  1.3533
 1936SOL    HW2 6629   0.514   3.710   5.590  1.9082 -0.6281  1.0961
 1937SOL     OW 6630   2.917   4.986   0.355 -0.1189 -0.5499  0.1164
 1937SOL    HW1 6631   2.846   5.002   0.287  2.1838 -1.5174 -2.7068
 1937SOL    HW2 6632   2.957   5.074   0.382 -0.4679 -0.2015 -0.4720
 1938SOL     OW 6633   0.379   5.897   6.045 -0.0624 -0.1336 -0.1640
 1938SOL    HW1 6634   0.341   5.915   6.136  0.1131 -1.9693  0.3009
 1938SOL    HW2 6635   0.318   5.935   5.976 -0.2929  1.1298  0.6815
 1939SOL     OW 6636   6.352   0.645   5.587  0.2244 -0.3579 -0.4926
 1939SOL    HW1 6637   6.339   0.721   5.651 -1.1977 -0.5235 -0.5586
 1939SOL    HW2 6638   6.430   0.665   5.527  0.0979  0.8762 -0.2675
 1940SOL     OW 6639   6.774   1.171   3.215  0.2124 -0.7497  0.0874
 1940SOL    HW1 6640   6.798   1.114   3.294 -0.3639 -2.2821 -0.7990
 1940SOL    HW2 6641   6.698   1.231   3.239  1.0897 -0.0142  1.1624
 1941SOL     OW 6642   4.200   6.113   5.626 -0.2918  0.4206  0.1163
 1941SOL    HW1 6643   4.237   6.178   5.560  0.5097  0.0795  0.2171
 1941SOL    HW2 6644   4.182   6.161   5.712 -0.0400  0.5916  0.0784
 1942SOL     OW 6645   6.364   3.824   3.587 -0.0641  0.3808  0.0975
 1942SOL    HW1 6646   6.306   3.791   3.512  0.7784 -0.1885 -0.3188
 1942SOL    HW2 6647   6.351   3.765   3.667  1.4612 -1.0687 -0.6559
 1943SOL     OW 6648   3.985   6.614   2.146  0.3373 -0.0277  0.1035
 1943SOL    HW1 6649   4.031   6.698   2.119 -0.1380  0.7849  1.7116
 1943SOL    HW2 6650   3.886   6.628   2.141  0.2499 -0.6448 -0.0117
 1944SOL     OW 6651   2.887   6.947   6.290  0.0928  0.1351 -0.0546
 1944SOL    HW1 6652   2.866   6.941   6.192  0.4502  0.7010 -0.1745
 1944SOL    HW2 6653   2.913   6.857   6.324  0.3774  0.0097 -0.5838
 1945SOL     OW 6654   2.454   1.827   2.169  0.1303  0.6386  0.3067
 1945SOL    HW1 6655   2.525   1.896   2.183  1.0818 -0.3962  0.7337
 1945SOL    HW2 6656   2.454   1.763   2.247  0.2893 -0.7024 -0.7485
 1946SOL     OW 6657   2.525   5.903   6.447 -0.1054 -0.1466  1.0963
 1946SOL    HW1 6658   2.523   5.991   6.494  0.5121  0.0583  0.7593
 1946SOL    HW2 6659   2.614   5.891   6.403 -0.9250  0.0557 -0.7225
 1947SOL     OW 6660   3.125   2.127   2.036  0.0409 -0.0018 -0.0705
 1947SOL    HW1 6661   3.198   2.082   2.087  0.7544 -0.1703 -1.2111
 1947SOL    HW2 6662   3.150   2.133   1.940 -1.1203  0.6385 -0.3537
 1948SOL     OW 6663   0.201   3.699   3.112 -0.3543 -0.1655  0.9941
 1948SOL    HW1 6664   0.234   3.640   3.186 -1.0202  0.2241  1.6066
 1948SOL    HW2 6665   0.148   3.774   3.150 -1.2832 -0.3323  0.0746
 1949SOL     OW 6666   3.413   3.420   4.527  0.4002  0.0398 -0.1228
 1949SOL    HW1 6667   3.418   3.430   4.427 -1.3964 -0.1280 -0.2655
 1949SOL    HW2 6668   3.475   3.347   4.556  0.5036 -0.3151 -1.1893
 1950SOL     OW 6669   1.162   1.554   5.478  0.1406 -0.1611  0.0788
 1950SOL    HW1 6670   1.146   1.548   5.576 -1.2130  0.5175 -0.0739
 1950SOL    HW2 6671   1.260   1.541   5.459  0.7989  1.8808  1.7133
 1951SOL     OW 6672   2.645   3.054   4.189  0.4683  0.1468 -0.1652
 1951SOL    HW1 6673   2.675   3.090   4.101 -0.9124 -0.3963 -0.8856
 1951SOL    HW2 6674   2.672   3.117   4.262  1.5476  0.6493 -0.9766
 1952SOL     OW 6675   5.491   2.082   6.487  0.1920  0.0334 -0.0479
 1952SOL    HW1 6676   5.519   2.130   6.569  1.2133  0.2469 -0.5123
 1952SOL    HW2 6677   5.397   2.049   6.498  0.1056  0.5896  0.9538
 1953SOL     OW 6678   1.736   6.477   4.821 -0.3900 -0.1951  0.3932
 1953SOL    HW1 6679   1.698   6.515   4.737  1.4276  1.6440  0.3326
 1953SOL    HW2 6680   1.789   6.395   4.800 -1.3333 -0.7213  0.0120
 1954SOL     OW 6681   3.933   3.941   5.532  0.4401 -0.1622  0.1798
 1954SOL    HW1 6682   3.987   4.010   5.483 -0.9301  0.0569 -1.1420
 1954SOL    HW2 6683   3.886   3.883   5.465 -0.1023 -1.0196  1.2789
 1955SOL     OW 6684   6.608   3.868   1.388 -0.6497  0.1447  0.0723
 1955SOL    HW1 6685   6.544   3.943   1.409 -1.4992 -1.0781  2.1896
 1955SOL    HW2 6686   6.689   3.876   1.446 -0.1507  0.1180 -0.6089
 1956SOL     OW 6687   0.569   2.124   6.162  0.2627  0.6269  0.1447
 1956SOL    HW1 6688   0.654   2.077   6.186 -0.6382  0.5631  3.6685
 1956SOL    HW2 6689   0.582   2.223   6.168 -0.0704  0.6077  1.5927
 1957SOL     OW 6690   0.570   5.975   3.927  0.0976  0.0789 -0.3439
 1957SOL    HW1 6691   0.633   5.898   3.915  2.4896  1.8443  0.0515
 1957SOL    HW2 6692   0.543   6.010   3.837 -0.2530 -0.6249 -0.5183
 1958SOL     OW 6693   0.919   3.833   5.490 -0.3864  0.4426  0.0505
 1958SOL    HW1 6694   0.969   3.915   5.461  0.0766  0.6853  1.4365
 1958SOL    HW2 6695   0.844   3.815   5.426  1.7615 -0.2834 -2.4481
 1959SOL     OW 6696   2.297   3.437   5.466  0.1135 -0.0269 -0.1583
 1959SOL    HW1 6697   2.253   3.462   5.552  0.3130  0.6951 -0.2648
 1959SOL    HW2 6698   2.324   3.340   5.470 -1.6454 -0.5557 -0.1576
 1960SOL     OW 6699   0.927   3.300   6.108  0.2673  0.2617  0.4034
 1960SOL    HW1 6700   0.932   3.270   6.013 -0.3822 -0.7811  0.6816
 1960SOL    HW2 6701   0.934   3.400   6.112  2.0471  0.2058 -0.5751
 1961SOL     OW 6702   2.340   6.871   2.682  0.3720 -0.0336 -0.7866
 1961SOL    HW1 6703   2.309   6.966   2.683  2.7756  0.8545  1.4499
 1961SOL    HW2 6704   2.394   6.855   2.600  0.6226  0.7992 -0.7954
 1962SOL     OW 6705   3.973   3.910   2.702  0.2866  0.0310 -0.3723
 1962SOL    HW1 6706   3.920   3.898   2.786 -4.4985 -0.0709 -3.0493
 1962SOL    HW2 6707   3.977   3.823   2.654 -0.3918  0.8182 -1.9147
 1963SOL     OW 6708   4.917   6.697   0.105 -0.8697  0.2372 -0.0032
 1963SOL    HW1 6709   4.872   6.701   0.016 -1.3925 -0.4330  0.2237
 1963SOL    HW2 6710   5.014   6.720   0.094 -0.2077 -2.7130 -1.2835
 1964SOL     OW 6711   4.847   2.874   1.288  0.1497  0.1751  0.2103
 1964SOL    HW1 6712   4.766   2.932   1.298 -1.0753 -1.0686 -1.7115
 1964SOL    HW2 6713   4.827   2.783   1.322  0.0497 -0.6460 -1.8798
 1965SOL     OW 6714   3.533   2.574   6.958 -0.1092 -0.0804 -0.5179
 1965SOL    HW1 6715   3.524   2.514   7.037  1.6391  1.5642  1.0276
 1965SOL    HW2 6716   3.626   2.569   6.922  0.1919  1.8801 -0.1395
 1966SOL     OW 6717   6.600   4.523   3.279 -0.2516 -0.1072  0.4138
 1966SOL    HW1 6718   6.508   4.562   3.274  0.5385  1.7263 -0.7820
 1966SOL    HW2 6719   6.666   4.595   3.297  1.3345 -0.7542 -2.3159
 1967SOL     OW 6720   3.294   1.545   1.796 -0.7247  0.1262  0.4996
 1967SOL    HW1 6721   3.238   1.569   1.875  2.2398  3.0380  1.9697
 1967SOL    HW2 6722   3.322   1.629   1.749  2.0374 -1.1470 -0.3139
 1968SOL     OW 6723   2.746   1.277   1.803 -0.0656  0.0450  0.0106
 1968SOL    HW1 6724   2.681   1.267   1.728  2.6388 -0.3309 -2.4672
 1968SOL    HW2 6725   2.757   1.374   1.826 -0.8713  0.1639 -0.0921
 1969SOL     OW 6726   1.303   6.162   5.606  0.9540  0.0283 -0.1024
 1969SOL    HW1 6727   1.378   6.116   5.558 -1.2053 -3.4214 -0.4796
 1969SOL    HW2 6728   1.217   6.146   5.557 -0.5702  0.9226  2.1355
 1970SOL     OW 6729   6.892   0.818   2.981  0.6264  0.3134  0.4544
 1970SOL    HW1 6730   6.890   0.801   3.079 -0.2830  0.9831  0.5573
 1970SOL    HW2 6731   6.804   0.793   2.941  0.8985  0.3103 -0.1516
 1971SOL     OW 6732   0.388   3.002   5.576  0.6246 -0.2618 -0.2092
 1971SOL    HW1 6733   0.303   2.989   5.627  0.7751 -0.3097  0.0275
 1971SOL    HW2 6734   0.424   3.093   5.594 -0.1496  0.3257 -1.4525
 1972SOL     OW 6735   0.877   2.518   0.442  0.1504  0.3905  0.1570
 1972SOL    HW1 6736   0.911   2.583   0.374 -1.9156  0.0279 -1.3253
 1972SOL    HW2 6737   0.828   2.568   0.514  1.1350  0.6651  0.6573
 1973SOL     OW 6738   5.426   2.312   4.559  0.2784  0.1372  0.3308
 1973SOL    HW1 6739   5.335   2.273   4.564  0.9257 -1.6748 -1.0988
 1973SOL    HW2 6740   5.455   2.319   4.464  1.7796  0.3115  0.7647
 1974SOL     OW 6741   6.390   5.981   1.936  0.4272 -0.0525  0.3281
 1974SOL    HW1 6742   6.464   5.923   1.970 -0.2561 -1.0192  0.2195
 1974SOL    HW2 6743   6.366   5.954   1.843  0.4430  0.7568  0.0838
 1975SOL     OW 6744   4.626   0.062   4.296  0.4101 -0.1880 -0.2223
 1975SOL    HW1 6745   4.613   0.117   4.379  2.0031  0.7640 -0.5644
 1975SOL    HW2 6746   4.639   0.123   4.218  2.5706 -0.9938 -0.5567
 1976SOL     OW 6747   4.273   3.014   5.112 -0.0699 -0.3662  0.4744
 1976SOL    HW1 6748   4.235   3.105   5.096  1.2948  0.3644  1.2200
 1976SOL    HW2 6749   4.250   2.983   5.204 -0.6535 -0.8450  0.1707
 1977SOL     OW 6750   0.793   0.227   4.028  0.9471 -0.1767 -0.0136
 1977SOL    HW1 6751   0.861   0.217   4.100  1.2300 -0.4675 -0.3199
 1977SOL    HW2 6752   0.734   0.147   4.027  1.4807 -0.5701 -0.6614
 1978SOL     OW 6753   0.416   4.195   6.300 -0.0509 -0.1610 -0.3097
 1978SOL    HW1 6754   0.374   4.165   6.385  0.7882 -1.7297 -0.4092
 1978SOL    HW2 6755   0.384   4.287   6.277  0.5908  0.8061  2.3001
 1979SOL     OW 6756   6.985   2.005   4.890 -0.4308 -0.0370  0.1034
 1979SOL    HW1 6757   6.937   2.092   4.902 -0.4951 -0.1919  1.0291
 1979SOL    HW2 6758   6.962   1.943   4.965  0.4223 -0.4863  0.0113
 1980SOL     OW 6759   2.690   6.597   0.025 -0.5139  0.2040  0.2373
 1980SOL    HW1 6760   2.663   6.643   0.109 -0.8902  0.7950 -0.2004
 1980SOL    HW2 6761   2.610   6.580  -0.032 -0.0747  1.4034 -0.7892
 1981SOL     OW 6762   4.453   5.949   4.220 -0.4861 -0.1761  0.3456
 1981SOL    HW1 6763   4.509   5.921   4.142 -1.7907  0.4393 -0.8750
 1981SOL    HW2 6764   4.466   6.047   4.236  1.6473 -0.7371  2.5433
 1982SOL     OW 6765   3.571   1.787   3.402 -0.1151  0.1467 -0.1928
 1982SOL    HW1 6766   3.598   1.804   3.497  1.2230 -1.8065 -0.1399
 1982SOL    HW2 6767   3.652   1.792   3.343 -0.3346 -1.6898 -0.7206
 1983SOL     OW 6768   5.644   6.396   2.922  0.2683 -0.5797 -1.1490
 1983SOL    HW1 6769   5.678   6.455   2.848  0.6574  0.9094  0.1739
 1983SOL    HW2 6770   5.686   6.422   3.008  1.4154 -3.6374 -0.6572
 1984SOL     OW 6771   3.664   2.501   6.295 -0.0648  0.4359  0.1605
 1984SOL    HW1 6772   3.614   2.416   6.312 -0.2492  0.4571 -0.2586
 1984SOL    HW2 6773   3.636   2.539   6.207  0.9173  0.2776 -0.2330
 1985SOL     OW 6774   1.959   5.520   2.712  0.2099  0.0147  0.2847
 1985SOL    HW1 6775   1.968   5.436   2.658  0.6310 -0.5758  1.2519
 1985SOL    HW2 6776   1.875   5.567   2.686  1.5626  1.0769 -2.6805
 1986SOL     OW 6777   4.866   5.582   1.870  0.1743 -0.4273 -0.4164
 1986SOL    HW1 6778   4.773   5.558   1.897  0.2288 -1.5282 -1.1561
 1986SOL    HW2 6779   4.930   5.557   1.943  0.1715 -2.1310 -0.9643
 1987SOL     OW 6780   4.832   4.533   6.122  0.3363  0.1866  0.4245
 1987SOL    HW1 6781   4.885   4.582   6.191  0.0249  1.2543 -0.0708
 1987SOL    HW2 6782   4.777   4.463   6.166 -0.0045  0.9764  1.2977
 1988SOL     OW 6783   1.402   1.359   0.092 -0.1292  0.2164 -0.3104
 1988SOL    HW1 6784   1.343   1.347   0.172 -0.6206 -1.9682 -0.9326
 1988SOL    HW2 6785   1.490   1.314   0.109 -0.9440 -2.0272 -1.6672
 1989SOL     OW 6786   3.655   1.755   6.753  0.4068 -0.0832  0.0393
 1989SOL    HW1 6787   3.678   1.808   6.671  0.1859  1.7259  1.0795
 1989SOL    HW2 6788   3.603   1.813   6.817  2.0921 -0.8060  2.2236
 1990SOL     OW 6789   3.254   6.748   1.728 -0.0013 -0.5116  0.0575
 1990SOL    HW1 6790   3.202   6.664   1.743 -1.0378  0.6601  4.6560
 1990SOL    HW2 6791   3.199   6.827   1.757  2.5128  1.2973  0.2443
 1991SOL     OW 6792   1.477   0.020   2.971  0.2210  0.4035  0.0017
 1991SOL    HW1 6793   1.420   0.048   2.894  1.1349 -1.6124 -1.4841
 1991SOL    HW2 6794   1.423  -0.041   3.031  0.2244  0.0353 -0.3651
 1992SOL     OW 6795   0.295   6.511   6.169  0.3137  0.5775 -0.2937
 1992SOL    HW1 6796   0.322   6.470   6.082 -0.0292  0.7355 -0.4789
 1992SOL    HW2 6797   0.239   6.447   6.221 -0.0038  0.7102 -0.4676
 1993SOL     OW 6798   4.179   2.798   5.693  0.3036 -0.2772  0.1430
 1993SOL    HW1 6799   4.083   2.813   5.667  0.5401  0.8503 -0.1403
 1993SOL    HW2 6800   4.225   2.886   5.702  1.4288 -0.8201 -0.1127
 1994SOL     OW 6801   3.428   1.007   5.077 -0.1446 -0.0938 -0.1322
 1994SOL    HW1 6802   3.409   0.910   5.065 -1.9057  0.1253  0.5848
 1994SOL    HW2 6803   3.484   1.020   5.159 -1.5777 -0.3899  0.9353
 1995SOL     OW 6804   0.251   2.997   3.117  0.2744  0.2607 -0.6428
 1995SOL    HW1 6805   0.318   3.066   3.147  1.9345 -1.8684  0.8713
 1995SOL    HW2 6806   0.243   3.000   3.017  2.0518  1.1393 -0.8021
 1996SOL     OW 6807   0.480   0.018   5.376 -0.4641 -0.1795  0.4343
 1996SOL    HW1 6808   0.431  -0.065   5.402  1.8151 -2.3153 -1.5485
 1996SOL    HW2 6809   0.552   0.037   5.443 -0.3306 -0.4496  0.3721
 1997SOL     OW 6810   6.463   5.087   1.069  0.8252 -0.1162 -0.1197
 1997SOL    HW1 6811   6.445   5.019   0.998  2.1000  1.8473 -2.5099
 1997SOL    HW2 6812   6.403   5.166   1.054  0.7933  0.1524  1.3259
 1998SOL     OW 6813   0.885   4.726   3.841  0.1900 -0.3303  0.1733
 1998SOL    HW1 6814   0.952   4.651   3.839  0.8271  0.1524  1.5519
 1998SOL    HW2 6815   0.897   4.778   3.926 -2.5554 -0.7732  0.9160
 1999SOL     OW 6816   4.968   0.368   5.756 -0.0842  0.4503  0.4845
 1999SOL    HW1 6817   5.003   0.333   5.670 -1.1545  0.3174  0.0797
 1999SOL    HW2 6818   4.953   0.467   5.749  0.1396  0.4940  0.6264
 2000SOL     OW 6819   6.769   5.214   2.770  0.6462 -0.3810  0.7422
 2000SOL    HW1 6820   6.671   5.201   2.755  0.2807  0.8056  1.9238
 2000SOL    HW2 6821   6.821   5.155   2.707 -0.8037 -0.5166 -0.3722
 2001SOL     OW 6822   5.797   5.378   1.702 -0.1074  0.2792  0.4723
 2001SOL    HW1 6823   5.796   5.328   1.789  0.4974  0.3015  0.4960
 2001SOL    HW2 6824   5.817   5.315   1.627 -0.4386  0.2939  0.3703
 2002SOL     OW 6825   1.828   0.034   4.916  0.2505 -0.0784 -0.1862
 2002SOL    HW1 6826   1.791  -0.057   4.899 -0.3000  0.0316  0.4006
 2002SOL    HW2 6827   1.763   0.088   4.969  0.6833  0.5722 -0.2982
 2003SOL     OW 6828   5.034   2.808   4.723  0.3862 -0.6289 -0.8115
 2003SOL    HW1 6829   5.047   2.738   4.652 -1.9408 -1.4642 -0.5205
 2003SOL    HW2 6830   4.974   2.880   4.687  1.8311  0.6545 -0.7205
 2004SOL     OW 6831   5.173   4.051   5.499 -0.2661 -0.3091 -0.1064
 2004SOL    HW1 6832   5.161   4.142   5.538 -1.5237  0.0729 -1.3270
 2004SOL    HW2 6833   5.271   4.028   5.497 -0.0003  0.6474  0.9742
 2005SOL     OW 6834   4.960   4.514   6.835  0.3905 -0.5327  0.0760
 2005SOL    HW1 6835   4.985   4.418   6.828 -1.2692 -0.9623 -0.4780
 2005SOL    HW2 6836   4.874   4.522   6.885  0.1455  0.5988 -0.4992
 2006SOL     OW 6837   2.647   1.087   1.117 -0.3550 -0.2715 -0.2778
 2006SOL    HW1 6838   2.707   1.110   1.195 -0.3019 -1.5080  0.0720
 2006SOL    HW2 6839   2.575   1.025   1.148 -0.9876  0.0977 -0.9976
 2007SOL     OW 6840   5.880   5.009   6.981  0.4098 -0.0577 -0.2485
 2007SOL    HW1 6841   5.867   5.056   7.068 -0.0428 -2.6855  1.2219
 2007SOL    HW2 6842   5.796   4.961   6.955  0.8270 -0.0822 -1.6449
 2008SOL     OW 6843   2.159   6.628   2.712 -0.1548 -0.0505  0.4663
 2008SOL    HW1 6844   2.224   6.698   2.681  0.2250 -0.5049  0.2243
 2008SOL    HW2 6845   2.080   6.673   2.755 -0.3636  0.5732 -0.5246
 2009SOL     OW 6846   5.039   6.242   5.266  0.0548  0.1014  0.2719
 2009SOL    HW1 6847   5.022   6.326   5.317  0.2797  0.3077  0.0079
 2009SOL    HW2 6848   4.962   6.180   5.278 -0.8967  1.0046 -0.8629
 2010SOL     OW 6849   5.057   3.832   6.883 -0.3083 -0.0612 -0.5165
 2010SOL    HW1 6850   5.052   3.735   6.862  2.9293 -0.3526 -0.4492
 2010SOL    HW2 6851   5.034   3.847   6.979  0.4306 -0.9950 -0.1721
 2011SOL     OW 6852   4.969   0.441   1.971 -0.7481  0.0902  0.0605
 2011SOL    HW1 6853   4.978   0.492   2.057 -0.3908  0.2190 -0.0504
 2011SOL    HW2 6854   5.012   0.352   1.982 -0.6469  0.1312 -0.0046
 2012SOL     OW 6855   0.745   4.954   4.945  0.4530 -0.3210  0.2823
 2012SOL    HW1 6856   0.717   4.958   4.849  0.3660  0.6349  0.3331
 2012SOL    HW2 6857   0.762   5.047   4.978  0.6508 -0.6562  1.1439
 2013SOL     OW 6858   0.870   3.026   3.204  0.6169  0.8863  0.2021
 2013SOL    HW1 6859   0.830   2.958   3.143 -0.4504  1.1443  0.5852
 2013SOL    HW2 6860   0.848   3.118   3.170 -0.1077  1.0316  1.0397
 2014SOL     OW 6861   2.199   1.818   1.688 -0.0001 -0.6782  0.1106
 2014SOL    HW1 6862   2.191   1.770   1.775  2.7726 -1.3282  0.1028
 2014SOL    HW2 6863   2.135   1.779   1.622 -3.4801  1.0151  2.2192
 2015SOL     OW 6864   2.614   2.962   2.535 -0.8962 -0.4479  0.0992
 2015SOL    HW1 6865   2.537   3.026   2.522 -1.3887 -0.5711  2.0684
 2015SOL    HW2 6866   2.663   2.987   2.618 -1.3397 -2.8355  1.1622
 2016SOL     OW 6867   0.237   1.352   3.349 -0.0579  0.3842 -0.6238
 2016SOL    HW1 6868   0.140   1.369   3.366  0.2605 -0.2617  2.3404
 2016SOL    HW2 6869   0.282   1.438   3.326 -1.3784  0.6030 -2.5926
 2017SOL     OW 6870   6.493   3.814   5.627  0.0273  0.4963  0.7707
 2017SOL    HW1 6871   6.434   3.749   5.674 -0.0596  0.4298  0.5716
 2017SOL    HW2 6872   6.587   3.804   5.660  0.0377  0.1765  0.6446
 2018SOL     OW 6873   4.593   1.131   0.588  0.2776  0.4406  0.1112
 2018SOL    HW1 6874   4.518   1.191   0.616 -1.7059 -2.0015  0.3476
 2018SOL    HW2 6875   4.573   1.092   0.498  0.2242 -1.7650  1.0184
 2019SOL     OW 6876   4.727   4.270   2.298  0.3490  0.8987  0.8263
 2019SOL    HW1 6877   4.734   4.349   2.358  0.6068  1.7127 -0.2499
 2019SOL    HW2 6878   4.817   4.247   2.261  0.3170 -0.0497  1.3051
 2020SOL     OW 6879   4.443   6.140   4.844  0.0465 -0.3094  0.2069
 2020SOL    HW1 6880   4.490   6.172   4.762 -0.6872 -1.2019 -0.5871
 2020SOL    HW2 6881   4.491   6.060   4.881 -0.9977 -1.4700 -0.8338
 2021SOL     OW 6882   6.961   3.939   2.063 -0.0026 -0.0602  0.1018
 2021SOL    HW1 6883   6.973   3.869   1.993 -0.4046 -1.5931  1.5067
 2021SOL    HW2 6884   7.043   3.997   2.066  0.2565 -0.3332 -1.2231
 2022SOL     OW 6885   4.361   0.876   3.603 -0.5899 -0.0786  0.5460
 2022SOL    HW1 6886   4.280   0.883   3.661 -2.6613 -3.3444 -1.6264
 2022SOL    HW2 6887   4.357   0.792   3.549  2.2244  1.6191 -2.7397
 2023SOL     OW 6888   1.455   3.304   0.846  0.6838 -0.1659  0.0660
 2023SOL    HW1 6889   1.412   3.354   0.922  1.3528  1.5754 -0.6413
 2023SOL    HW2 6890   1.421   3.210   0.844 -0.1785  0.0697  1.8344
 2024SOL     OW 6891   6.748   1.612   5.016  0.1186  0.4025 -0.3318
 2024SOL    HW1 6892   6.706   1.702   5.019  1.3587  1.1386 -2.3252
 2024SOL    HW2 6893   6.725   1.568   4.929  0.9019 -0.4554 -0.1222
 2025SOL     OW 6894   0.670   1.024   3.768 -0.0597  0.2138  0.0261
 2025SOL    HW1 6895   0.594   0.968   3.733  0.2410 -0.0424 -0.2179
 2025SOL    HW2 6896   0.673   1.016   3.868 -1.5404  1.7272  0.2418
 2026SOL     OW 6897   0.579   0.974   4.038  0.1509 -0.3487 -0.1110
 2026SOL    HW1 6898   0.642   0.905   4.073  1.6881  2.3961  3.0294
 2026SOL    HW2 6899   0.512   0.997   4.109  0.0144  1.7181 -0.8532
 2027SOL     OW 6900   4.998   5.719   6.100  0.0449 -0.2458 -0.1791
 2027SOL    HW1 6901   4.968   5.748   6.009 -0.3543  0.8994  0.2846
 2027SOL    HW2 6902   5.087   5.675   6.094 -0.9930 -2.3386 -1.4107
 2028SOL     OW 6903   2.196   4.271   1.705 -0.2423  0.0228  0.1212
 2028SOL    HW1 6904   2.237   4.293   1.794  0.3859  2.4118 -0.6805
 2028SOL    HW2 6905   2.097   4.286   1.709 -0.3509 -0.8003  0.6654
 2029SOL     OW 6906   0.620   6.850   1.380  0.6057 -0.3189  0.4451
 2029SOL    HW1 6907   0.550   6.779   1.393 -0.6929  0.9651  0.7480
 2029SOL    HW2 6908   0.582   6.923   1.323  2.3032 -0.3817 -0.8244
 2030SOL     OW 6909   3.112   2.041   0.750 -0.7107 -0.1674 -0.2320
 2030SOL    HW1 6910   3.064   1.969   0.700 -0.6769 -1.1683  1.1180
 2030SOL    HW2 6911   3.136   2.008   0.842  1.1765  0.8479 -0.3100
 2031SOL     OW 6912   4.082   6.738   6.147  0.4283  0.1286 -0.1142
 2031SOL    HW1 6913   4.125   6.669   6.088 -0.7144 -0.6897 -0.0096
 2031SOL    HW2 6914   4.144   6.760   6.223  0.4371 -1.4985  0.3861
 2032SOL     OW 6915   5.690   0.936   5.683  0.0475 -0.3610  0.1101
 2032SOL    HW1 6916   5.616   1.001   5.705 -1.3894 -2.1330  0.7709
 2032SOL    HW2 6917   5.689   0.862   5.750  0.5112 -1.9862 -1.6136
 2033SOL     OW 6918   5.623   5.968   1.303 -0.2054  0.2007 -0.0111
 2033SOL    HW1 6919   5.614   5.878   1.259  0.6156  0.0250  0.1574
 2033SOL    HW2 6920   5.636   5.956   1.401 -0.8939  0.5459  0.1278
 2034SOL     OW 6921   4.740   5.644   0.212 -0.7872  0.2308  0.6642
 2034SOL    HW1 6922   4.662   5.693   0.173  0.5193  2.3598  0.5240
 2034SOL    HW2 6923   4.788   5.595   0.140  1.2721  3.6632 -0.5549
 2035SOL     OW 6924   3.592   1.087   2.458  0.2384  0.5910  0.7508
 2035SOL    HW1 6925   3.637   1.081   2.369  0.3872 -1.7855  0.9319
 2035SOL    HW2 6926   3.494   1.069   2.448  0.5794 -2.0404  1.2479
 2036SOL     OW 6927   2.726   3.264   6.660  0.3007 -0.1231 -0.0079
 2036SOL    HW1 6928   2.785   3.219   6.727  0.6826 -1.1629 -1.0159
 2036SOL    HW2 6929   2.668   3.196   6.616  1.8773  0.0792 -2.5839
 2037SOL     OW 6930   0.214   3.965   4.797 -0.0461  0.8672 -0.2926
 2037SOL    HW1 6931   0.151   3.920   4.860 -0.0616  0.7043 -0.4246
 2037SOL    HW2 6932   0.208   4.064   4.809 -0.5760  0.8664 -0.5429
 2038SOL     OW 6933   5.534   4.048   6.109  0.2301 -0.5770 -0.6429
 2038SOL    HW1 6934   5.484   4.089   6.034 -3.4880 -3.3722  0.0293
 2038SOL    HW2 6935   5.592   3.974   6.074  0.7621 -0.0160 -0.9816
 2039SOL     OW 6936   5.216   1.283   6.457 -0.5796  0.5322 -0.0581
 2039SOL    HW1 6937   5.248   1.375   6.478  1.9597 -0.1738 -0.4791
 2039SOL    HW2 6938   5.255   1.253   6.370 -0.4562 -1.3211  0.5798
 2040SOL     OW 6939   4.294   0.451   1.339 -0.5133  0.0830 -0.0700
 2040SOL    HW1 6940   4.206   0.414   1.313 -0.2856 -0.3872 -0.1807
 2040SOL    HW2 6941   4.358   0.377   1.359 -0.2177  0.4175  0.2748
 2041SOL     OW 6942   0.389   2.378   0.510 -0.4397 -0.0173  0.6208
 2041SOL    HW1 6943   0.417   2.354   0.603 -0.2408  0.4425  0.6812
 2041SOL    HW2 6944   0.400   2.298   0.450  0.0290 -0.1319  0.8570
 2042SOL     OW 6945   4.537   2.776   6.568  0.2594 -0.2934  0.0683
 2042SOL    HW1 6946   4.467   2.768   6.639 -1.3577  1.7351 -1.1891
 2042SOL    HW2 6947   4.552   2.686   6.525 -1.3774 -0.8288  0.5491
 2043SOL     OW 6948   4.615   0.999   0.350  0.0906 -0.0577 -0.1375
 2043SOL    HW1 6949   4.663   0.939   0.413  0.3571 -0.0821 -0.3622
 2043SOL    HW2 6950   4.656   0.992   0.259 -0.8654 -0.7078 -0.5288
 2044SOL     OW 6951   6.876   0.991   6.515 -0.1691  0.2236 -0.1902
 2044SOL    HW1 6952   6.866   0.948   6.425  1.8879 -0.0609 -0.3334
 2044SOL    HW2 6953   6.922   0.927   6.577  0.4661  1.2227  0.3951
 2045SOL     OW 6954   4.743   6.792   0.653  0.1167 -0.0072  0.1496
 2045SOL    HW1 6955   4.798   6.813   0.573  0.0929 -1.5904 -0.3162
 2045SOL    HW2 6956   4.646   6.810   0.634 -0.1048 -1.9521 -0.8146
 2046SOL     OW 6957   4.749   5.041   4.832 -0.5212  0.9797 -0.1386
 2046SOL    HW1 6958   4.700   5.000   4.909 -2.0960  1.0330 -1.0656
 2046SOL    HW2 6959   4.726   5.138   4.826 -0.3315  0.9980 -0.6124
 2047SOL     OW 6960   5.887   3.440   4.555  0.7008 -0.0505  0.1956
 2047SOL    HW1 6961   5.853   3.442   4.462  0.2303  0.1762  0.3738
 2047SOL    HW2 6962   5.821   3.482   4.617  0.7535 -0.7014  0.7131
 2048SOL     OW 6963   4.611   5.070   3.826 -0.3744  0.2418  0.0109
 2048SOL    HW1 6964   4.581   4.976   3.808 -1.7339  0.4653  0.9419
 2048SOL    HW2 6965   4.709   5.078   3.808 -0.4872 -1.0099 -1.3693
 2049SOL     OW 6966   1.057   6.987   3.535 -0.0026 -0.0284 -0.5418
 2049SOL    HW1 6967   1.110   7.065   3.569 -0.6878  0.0944  0.2643
 2049SOL    HW2 6968   1.018   7.010   3.446  0.0697  0.4238 -0.4612
 2050SOL     OW 6969   1.448   6.986   4.994 -0.4138  0.2473  0.0597
 2050SOL    HW1 6970   1.534   7.006   5.040 -0.1849  0.8836 -0.6267
 2050SOL    HW2 6971   1.451   7.021   4.901 -1.1722 -0.3100 -0.1880
 2051SOL     OW 6972   3.379   4.127   0.093 -0.2708  0.3230  0.3990
 2051SOL    HW1 6973   3.453   4.168   0.146  0.3714 -2.8297  2.1790
 2051SOL    HW2 6974   3.417   4.068   0.023 -1.0668 -0.8846  0.9561
 2052SOL     OW 6975   6.735   3.848   0.338  0.3372 -0.3556 -0.5269
 2052SOL    HW1 6976   6.753   3.817   0.432  1.5922 -0.5855 -0.8227
 2052SOL    HW2 6977   6.815   3.828   0.281 -0.9443 -1.5138 -1.9885
 2053SOL     OW 6978   3.851   3.587   6.904  0.1662 -0.3689 -0.3830
 2053SOL    HW1 6979   3.938   3.612   6.863  0.1036  1.3427  0.4513
 2053SOL    HW2 6980   3.845   3.628   6.995 -1.3537 -0.7871 -0.2798
 2054SOL     OW 6981   4.950   0.469   2.366  0.0383 -0.1638 -0.4200
 2054SOL    HW1 6982   4.855   0.494   2.380  0.4012  1.1957 -0.2021
 2054SOL    HW2 6983   4.971   0.387   2.418 -0.4579  0.8005  1.4041
 2055SOL     OW 6984   2.254   3.054   3.418  0.3003 -0.3551 -0.3200
 2055SOL    HW1 6985   2.169   3.079   3.371  1.0281  1.8894 -0.5413
 2055SOL    HW2 6986   2.254   3.094   3.510  1.6158  0.7169 -0.7638
 2056SOL     OW 6987   5.981   6.776   3.036 -0.2355  0.8413  0.0061
 2056SOL    HW1 6988   5.953   6.847   3.100 -0.4259  1.5915 -0.8818
 2056SOL    HW2 6989   6.027   6.818   2.958  0.9742 -0.1454  0.1631
 2057SOL     OW 6990   6.257   4.942   1.378 -0.1696 -0.2542  0.4198
 2057SOL    HW1 6991   6.315   4.902   1.449  0.4262 -0.3711 -0.1230
 2057SOL    HW2 6992   6.267   4.890   1.293 -1.6993 -0.7827  0.5293
 2058SOL     OW 6993   4.820   3.528   5.605 -0.2141 -0.9649 -0.3426
 2058SOL    HW1 6994   4.780   3.501   5.693  0.3978 -1.9504 -0.3525
 2058SOL    HW2 6995   4.786   3.618   5.580 -0.9553 -0.9730  0.5587
 2059SOL     OW 6996   1.568   2.850   2.379  0.3804  0.2112 -0.4848
 2059SOL    HW1 6997   1.620   2.789   2.320  0.2628  0.1392 -0.5137
 2059SOL    HW2 6998   1.491   2.888   2.328  0.4444  0.3707 -0.4629
 2060SOL     OW 6999   1.799   0.198   6.654 -0.2690  0.2358  0.3364
 2060SOL    HW1 7000   1.806   0.099   6.650  0.5544  0.3111 -2.4418
 2060SOL    HW2 7001   1.890   0.238   6.670 -0.1924  0.5399 -0.7447
 2061SOL     OW 7002   3.144   2.805   3.572  0.1824  0.4498 -0.1367
 2061SOL    HW1 7003   3.060   2.772   3.529 -1.1193  1.6437  1.3483
 2061SOL    HW2 7004   3.131   2.900   3.600  1.6657  0.3299  1.0786
 2062SOL     OW 7005   2.336   1.530   4.352  0.1383 -0.0293  0.1904
 2062SOL    HW1 7006   2.313   1.463   4.281 -1.2735 -0.4107  0.9705
 2062SOL    HW2 7007   2.337   1.622   4.312  0.5434 -0.3456 -0.5559
 2063SOL     OW 7008   4.337   3.292   2.614  0.1422 -0.2519  0.1695
 2063SOL    HW1 7009   4.366   3.199   2.638  2.1908  0.2527 -0.2002
 2063SOL    HW2 7010   4.244   3.288   2.576 -0.4802 -1.9073  1.7046
 2064SOL     OW 7011   6.987   6.022   6.323  0.1447 -0.1678  0.2949
 2064SOL    HW1 7012   6.947   5.939   6.283 -0.8002 -0.4390  1.7279
 2064SOL    HW2 7013   7.086   6.020   6.314 -0.0271 -0.0862 -2.2310
 2065SOL     OW 7014   3.614   0.870   3.736  0.2154  0.4453  0.3451
 2065SOL    HW1 7015   3.606   0.896   3.640 -1.0299  0.5107  0.4452
 2065SOL    HW2 7016   3.587   0.946   3.794 -0.0756  0.0657  0.7169
 2066SOL     OW 7017   4.177   5.921   4.282  0.1116 -0.0550  0.3982
 2066SOL    HW1 7018   4.276   5.912   4.285 -0.0403 -2.5568 -0.0443
 2066SOL    HW2 7019   4.146   5.928   4.187 -0.1413  1.1122  0.5489
 2067SOL     OW 7020   2.515   4.057   6.894 -0.1535  0.0732 -0.4785
 2067SOL    HW1 7021   2.524   4.147   6.852 -0.3843 -0.4731 -1.7520
 2067SOL    HW2 7022   2.572   3.992   6.844  0.5613 -0.3569  0.8620
 2068SOL     OW 7023   6.165   6.536   2.356  0.2492 -0.3840  0.1839
 2068SOL    HW1 7024   6.211   6.458   2.313  0.1871 -0.1992 -0.2320
 2068SOL    HW2 7025   6.195   6.620   2.311 -0.9279 -0.3049 -0.5097
 2069SOL     OW 7026   3.981   3.025   4.314 -0.2605  0.4137 -0.2513
 2069SOL    HW1 7027   3.914   2.998   4.244  1.2614 -0.2861 -1.5030
 2069SOL    HW2 7028   4.066   2.974   4.300 -0.1573 -0.4043  2.6711
 2070SOL     OW 7029   5.598   0.613   5.273 -0.2270  0.3189 -0.3491
 2070SOL    HW1 7030   5.555   0.692   5.228  1.3274  2.0441  1.0426
 2070SOL    HW2 7031   5.641   0.555   5.204 -0.0973  1.5082 -1.2973
 2071SOL     OW 7032   4.292   4.595   5.159  0.1067  0.6706  0.2910
 2071SOL    HW1 7033   4.230   4.522   5.190 -0.9236  1.0945 -0.6965
 2071SOL    HW2 7034   4.267   4.622   5.066  2.0773  0.5490 -0.3208
 2072SOL     OW 7035   3.904   4.315   0.123 -0.1966 -0.2770  0.2331
 2072SOL    HW1 7036   3.890   4.235   0.181  0.5009 -0.2257  0.4758
 2072SOL    HW2 7037   3.845   4.389   0.155 -2.3545 -1.2592 -1.1929
 2073SOL     OW 7038   0.015   3.405   5.505 -0.2226 -1.1404  0.0344
 2073SOL    HW1 7039   0.083   3.335   5.482 -0.7230 -1.7351  0.3588
 2073SOL    HW2 7040  -0.063   3.398   5.443  0.0847 -0.3246 -0.4692
 2074SOL     OW 7041   3.988   6.297   6.540 -0.1520  0.5222 -0.5507
 2074SOL    HW1 7042   3.994   6.295   6.441  0.0316 -1.0826 -0.5310
 2074SOL    HW2 7043   4.062   6.243   6.580 -1.3974 -0.5717  0.3781
 2075SOL     OW 7044   6.857   5.583   1.692  0.6630 -0.4264  0.2863
 2075SOL    HW1 7045   6.861   5.586   1.792  0.5826 -0.2023  0.2844
 2075SOL    HW2 7046   6.761   5.584   1.662  0.6800  1.2713  0.1701
 2076SOL     OW 7047   4.558   3.270   3.507  0.2340  0.0487  0.1071
 2076SOL    HW1 7048   4.595   3.356   3.473  0.5546  0.5655  1.6629
 2076SOL    HW2 7049   4.472   3.250   3.460 -0.2044  1.5836  0.1887
 2077SOL     OW 7050   3.190   1.223   4.390  0.3345  0.2018 -1.2572
 2077SOL    HW1 7051   3.115   1.158   4.382  0.1395 -0.0620  1.5902
 2077SOL    HW2 7052   3.167   1.307   4.341 -1.7615  0.0328 -0.6504
 2078SOL     OW 7053   2.568   3.669   3.764 -0.1962  0.7774  0.1019
 2078SOL    HW1 7054   2.653   3.676   3.712 -0.2353 -0.0580 -0.0904
 2078SOL    HW2 7055   2.503   3.738   3.731 -0.2599  0.1931 -1.0411
 2079SOL     OW 7056   2.680   1.546   1.830 -0.2253  0.3597  0.0368
 2079SOL    HW1 7057   2.740   1.625   1.832 -0.1969  0.3499 -0.3543
 2079SOL    HW2 7058   2.587   1.575   1.853 -0.4008  0.6787 -1.0416
 2080SOL     OW 7059   6.999   2.315   6.951  0.0853 -0.4670  0.2259
 2080SOL    HW1 7060   7.030   2.308   6.856 -1.7544 -0.4661 -0.4287
 2080SOL    HW2 7061   6.963   2.407   6.967  2.1161  0.1577  1.5366
 2081SOL     OW 7062   1.066   3.997   4.594 -1.1976  0.0619 -0.0470
 2081SOL    HW1 7063   1.127   3.919   4.611 -0.8901  0.0269 -1.2851
 2081SOL    HW2 7064   0.971   3.966   4.605 -1.0604  0.2731  2.5575
 2082SOL     OW 7065   0.918   5.853   0.092  0.3123  0.4925 -0.0283
 2082SOL    HW1 7066   0.890   5.861   0.187 -0.8659 -0.6909 -0.2437
 2082SOL    HW2 7067   0.857   5.907   0.034 -0.7930 -1.0127 -0.3575
 2083SOL     OW 7068   6.207   4.161   6.117  0.0383  0.2311 -0.5964
 2083SOL    HW1 7069   6.192   4.176   6.215 -0.6625  0.0061 -0.6671
 2083SOL    HW2 7070   6.293   4.204   6.090  0.2238  0.3216  0.1118
 2084SOL     OW 7071   2.366   2.473   2.831  0.0580 -0.5978 -0.3407
 2084SOL    HW1 7072   2.354   2.554   2.773  1.0353 -0.3983 -0.2768
 2084SOL    HW2 7073   2.352   2.498   2.927 -0.7101 -0.7461 -0.4059
 2085SOL     OW 7074   5.113   2.374   5.035 -0.2462 -0.1378  0.4768
 2085SOL    HW1 7075   5.134   2.463   4.996 -0.2265  0.0247  0.8486
 2085SOL    HW2 7076   5.144   2.302   4.973  0.5205  0.1076  0.5670
 2086SOL     OW 7077   5.515   3.369   5.506  0.5364  0.1947  0.6827
 2086SOL    HW1 7078   5.510   3.385   5.605  0.4428  0.1019  0.6928
 2086SOL    HW2 7079   5.428   3.395   5.464  0.1834 -0.7949  0.7703
 2087SOL     OW 7080   0.808   0.683   5.907 -0.3599  0.6724 -0.2115
 2087SOL    HW1 7081   0.708   0.684   5.908 -0.3709  0.2200 -0.3395
 2087SOL    HW2 7082   0.841   0.618   5.975 -0.1801  0.1345 -0.7966
 2088SOL     OW 7083   1.070   1.055   5.740 -0.1893  0.2997 -0.0925
 2088SOL    HW1 7084   1.148   1.093   5.789  1.6753 -2.8101 -0.3789
 2088SOL    HW2 7085   1.020   0.993   5.799 -0.9370  0.3227 -0.6816
 2089SOL     OW 7086   5.665   4.826   5.902  0.7252 -0.1124 -0.1791
 2089SOL    HW1 7087   5.612   4.896   5.950  0.6009  0.6158 -1.3339
 2089SOL    HW2 7088   5.739   4.793   5.962 -0.8912 -1.0493  1.4039
 2090SOL     OW 7089   4.586   0.639   0.331  0.1054 -0.6755  0.4284
 2090SOL    HW1 7090   4.623   0.635   0.424  0.4767 -1.4637  0.2542
 2090SOL    HW2 7091   4.627   0.717   0.283  0.5365 -0.7531  0.6640
 2091SOL     OW 7092   3.330   6.435   5.856  0.1332 -0.9100  0.9500
 2091SOL    HW1 7093   3.365   6.498   5.787  1.2873  0.7646  2.9243
 2091SOL    HW2 7094   3.407   6.402   5.912 -0.9870 -0.0667  3.0993
 2092SOL     OW 7095   4.731   1.857   1.232 -0.2675  0.4189 -0.5885
 2092SOL    HW1 7096   4.722   1.892   1.325 -1.9909 -1.1479 -0.1264
 2092SOL    HW2 7097   4.719   1.758   1.232  0.9832  0.2140 -2.3372
 2093SOL     OW 7098   2.486   2.055   6.128  0.2106  0.5671 -0.0656
 2093SOL    HW1 7099   2.407   2.022   6.076 -0.8698  1.4212  0.9912
 2093SOL    HW2 7100   2.515   2.144   6.093  0.7608  0.2357 -0.4813
 2094SOL     OW 7101   6.565   6.635   4.428 -0.1727  0.4714 -0.1193
 2094SOL    HW1 7102   6.597   6.729   4.436 -0.4612  0.9333 -3.0555
 2094SOL    HW2 7103   6.611   6.591   4.350 -1.7250 -1.0542 -0.2336
 2095SOL     OW 7104   4.363   5.710   1.850 -0.2430  0.6000  0.2868
 2095SOL    HW1 7105   4.307   5.631   1.876  2.1680 -1.5621 -0.6717
 2095SOL    HW2 7106   4.339   5.788   1.908 -2.5651 -0.8434  1.4404
 2096SOL     OW 7107   4.710   6.711   2.956 -0.5799  0.3053 -0.8504
 2096SOL    HW1 7108   4.628   6.655   2.971 -0.5271 -0.1278 -2.0673
 2096SOL    HW2 7109   4.705   6.755   2.866  0.2525  0.7450 -0.6925
 2097SOL     OW 7110   3.091   0.046   3.371 -0.1416 -0.6350 -0.0867
 2097SOL    HW1 7111   3.152  -0.008   3.313  0.8612 -0.2581  0.5786
 2097SOL    HW2 7112   3.093   0.141   3.341  0.3648 -0.4430  0.5251
 2098SOL     OW 7113   0.440   5.291   4.575  0.1952  0.2172  0.7267
 2098SOL    HW1 7114   0.342   5.272   4.570 -0.0712  1.7979 -1.7033
 2098SOL    HW2 7115   0.489   5.206   4.595 -1.6319 -0.5861  2.1029
 2099SOL     OW 7116   0.227   2.969   2.812  0.5932 -0.0828  0.4359
 2099SOL    HW1 7117   0.237   3.066   2.832  1.2998 -0.5145  2.3532
 2099SOL    HW2 7118   0.239   2.954   2.713 -0.0728  1.8141  0.0355
 2100SOL     OW 7119   6.225   4.124   6.430 -0.8128  0.2783 -0.0407
 2100SOL    HW1 7120   6.264   4.212   6.401 -0.0184 -0.6703 -2.0840
 2100SOL    HW2 7121   6.206   4.127   6.528  2.4573  1.5766  0.6911
 2101SOL     OW 7122   2.416   0.255   3.401 -0.5146 -0.4625  0.2359
 2101SOL    HW1 7123   2.416   0.348   3.438 -2.3480 -0.3891  0.1109
 2101SOL    HW2 7124   2.448   0.192   3.472 -0.8109  0.0793  0.8652
 2102SOL     OW 7125   0.428   4.559   3.971 -0.5519  0.3934  0.5370
 2102SOL    HW1 7126   0.392   4.502   3.897  1.8090  1.0778 -1.2465
 2102SOL    HW2 7127   0.373   4.643   3.978  0.5505  1.4650 -2.1858
 2103SOL     OW 7128   3.929   5.076   1.204  0.5365 -0.6841 -0.0591
 2103SOL    HW1 7129   3.842   5.045   1.241  1.1158 -1.8616  0.3763
 2103SOL    HW2 7130   3.952   5.165   1.241 -1.0049  0.1695 -1.0476
 2104SOL     OW 7131   0.583   5.621   0.930 -0.6238  0.6099 -0.3132
 2104SOL    HW1 7132   0.591   5.595   1.026 -0.3688 -2.0847 -0.9780
 2104SOL    HW2 7133   0.652   5.571   0.877 -0.6576  2.1598 -1.8937
 2105SOL     OW 7134   0.478   3.688   0.735 -0.0996  0.1978 -0.0216
 2105SOL    HW1 7135   0.557   3.692   0.796 -0.3648  1.9131  0.2485
 2105SOL    HW2 7136   0.430   3.601   0.748  1.8752 -1.0396 -0.4095
 2106SOL     OW 7137   0.121   4.560   3.907 -0.4215  0.6237  0.0494
 2106SOL    HW1 7138   0.025   4.587   3.902 -0.6205  0.4654  2.3192
 2106SOL    HW2 7139   0.131   4.484   3.971  1.2341  0.7283 -0.0565
 2107SOL     OW 7140   6.787   2.007   5.789 -0.6547 -0.5964  0.4633
 2107SOL    HW1 7141   6.726   1.929   5.802 -2.4524  0.4400 -1.2267
 2107SOL    HW2 7142   6.879   1.973   5.770 -1.1676 -2.2782  0.7445
 2108SOL     OW 7143   2.325   3.707   0.980 -0.0761  0.1343 -0.0795
 2108SOL    HW1 7144   2.272   3.792   0.976  0.3444  0.3695 -3.4796
 2108SOL    HW2 7145   2.290   3.643   0.911  0.9478 -1.6389  0.9862
 2109SOL     OW 7146   3.066   3.757   0.469  0.3978  0.3437 -0.3943
 2109SOL    HW1 7147   3.008   3.698   0.526  1.0431 -0.3453 -0.4269
 2109SOL    HW2 7148   3.082   3.713   0.381 -0.0579  1.1075 -0.8683
 2110SOL     OW 7149   1.333   4.979   0.360 -0.1649 -0.1708  0.2342
 2110SOL    HW1 7150   1.260   5.038   0.326  0.7710  1.5772  1.1118
 2110SOL    HW2 7151   1.294   4.909   0.420 -1.1624  0.4740  0.3597
 2111SOL     OW 7152   4.187   5.723   6.840 -0.5327 -0.2687  0.1414
 2111SOL    HW1 7153   4.258   5.743   6.772  0.3642 -1.1415  0.7976
 2111SOL    HW2 7154   4.135   5.807   6.859 -0.2930  0.1643 -1.0305
 2112SOL     OW 7155   2.919   2.212   0.712  0.3669 -0.3929  0.2141
 2112SOL    HW1 7156   2.936   2.307   0.739 -0.5131  0.0676 -0.7976
 2112SOL    HW2 7157   3.005   2.161   0.717  1.1224  0.7648 -0.4616
 2113SOL     OW 7158   6.546   4.047   1.138 -0.4660 -1.0205  0.3052
 2113SOL    HW1 7159   6.641   4.020   1.153  0.0390  0.2025 -0.5516
 2113SOL    HW2 7160   6.539   4.098   1.053 -1.7157 -0.1909  0.8822
 2114SOL     OW 7161   0.637   2.957   0.403 -0.8077 -0.4223  0.5031
 2114SOL    HW1 7162   0.730   2.986   0.427 -0.4382  0.1880 -1.4876
 2114SOL    HW2 7163   0.626   2.860   0.424  0.9981 -1.0299 -1.1234
 2115SOL     OW 7164   5.897   0.491   3.434  0.2284 -0.5442 -0.0903
 2115SOL    HW1 7165   5.937   0.402   3.458  0.5070 -0.6772 -1.0180
 2115SOL    HW2 7166   5.969   0.560   3.429  0.3944 -0.7998 -1.8387
 2116SOL     OW 7167   1.717   0.031   2.749  0.3130  0.1670 -0.4429
 2116SOL    HW1 7168   1.660  -0.010   2.819 -1.4623  3.2492  0.0961
 2116SOL    HW2 7169   1.797   0.074   2.792 -0.9871  2.4169 -0.1097
 2117SOL     OW 7170   5.204   4.465   4.307  0.1597 -0.3600 -0.5685
 2117SOL    HW1 7171   5.233   4.555   4.276  0.7680 -1.0074 -2.0355
 2117SOL    HW2 7172   5.285   4.410   4.329 -0.2173 -0.4552  0.6238
 2118SOL     OW 7173   1.905   2.900   0.437  0.0941  0.4064 -0.6625
 2118SOL    HW1 7174   1.838   2.924   0.366  1.2241  0.5410 -1.7147
 2118SOL    HW2 7175   1.978   2.968   0.437 -0.6701  1.3120  1.7468
 2119SOL     OW 7176   0.417   5.511   2.874 -0.4810  0.1831 -0.3815
 2119SOL    HW1 7177   0.371   5.450   2.939  1.6262 -0.8388  0.2316
 2119SOL    HW2 7178   0.503   5.543   2.914 -0.7849  2.3464 -1.3395
 2120SOL     OW 7179   3.291   2.883   1.150  0.0051 -0.7609  0.0104
 2120SOL    HW1 7180   3.203   2.928   1.164 -0.1723 -1.2522  0.4989
 2120SOL    HW2 7181   3.336   2.921   1.069  0.5416  1.3688  1.2315
 2121SOL     OW 7182   6.093   5.663   0.100  0.0932  0.2622 -0.1304
 2121SOL    HW1 7183   6.065   5.660   0.196 -2.0301 -0.4119 -0.7338
 2121SOL    HW2 7184   6.155   5.586   0.082  0.9043  0.6721  0.7805
 2122SOL     OW 7185   3.850   6.659   1.169  0.4542 -0.1516  0.8650
 2122SOL    HW1 7186   3.904   6.602   1.230  1.4983 -2.0268 -1.6768
 2122SOL    HW2 7187   3.755   6.628   1.170  0.2756  0.3571  2.0615
 2123SOL     OW 7188   6.253   2.451   1.879  0.3515 -0.3171  0.2366
 2123SOL    HW1 7189   6.279   2.498   1.963  0.7477 -0.7169  0.3388
 2123SOL    HW2 7190   6.162   2.482   1.850 -0.1109 -0.7321  1.2156
 2124SOL     OW 7191   1.696   0.912   6.799 -0.1484 -0.0149 -0.0210
 2124SOL    HW1 7192   1.638   0.947   6.873 -0.5560  2.6158 -1.4730
 2124SOL    HW2 7193   1.778   0.967   6.792  0.7858 -1.3934 -0.3914
 2125SOL     OW 7194   0.042   0.750   3.867 -0.0181 -0.0941 -0.2286
 2125SOL    HW1 7195   0.061   0.798   3.781 -0.8403 -1.8365 -1.4640
 2125SOL    HW2 7196   0.128   0.726   3.912  0.4435  0.2702 -0.9018
 2126SOL     OW 7197   5.943   4.160   5.432  0.3002  0.6233  0.1569
 2126SOL    HW1 7198   5.979   4.071   5.459 -0.5654  1.2137  3.7237
 2126SOL    HW2 7199   5.845   4.151   5.411 -0.0494  0.8605  1.5960
 2127SOL     OW 7200   1.243   4.309   5.391 -0.5108  0.6227 -0.7546
 2127SOL    HW1 7201   1.311   4.289   5.461 -1.6015  1.5171  0.6120
 2127SOL    HW2 7202   1.271   4.267   5.304  0.9029 -0.4619  0.1817
 2128SOL     OW 7203   3.182   5.395   6.532 -0.4397 -0.3605 -0.3842
 2128SOL    HW1 7204   3.223   5.333   6.465 -0.3770 -0.3306 -0.3734
 2128SOL    HW2 7205   3.118   5.345   6.590 -0.7497 -0.3179 -0.6866
 2129SOL     OW 7206   1.784   4.199   6.038 -0.2861  0.2150  0.1139
 2129SOL    HW1 7207   1.804   4.163   6.129 -0.4073 -0.5357 -0.1460
 2129SOL    HW2 7208   1.690   4.175   6.013 -0.4658  0.9780  0.0524
 2130SOL     OW 7209   4.111   0.876   0.322  0.1460  0.4500 -0.0151
 2130SOL    HW1 7210   4.188   0.905   0.266 -1.0368 -1.2448 -2.7361
 2130SOL    HW2 7211   4.144   0.819   0.397  1.7099  1.8334  0.3859
 2131SOL     OW 7212   6.516   5.467   2.731  0.4934 -0.1995  0.1950
 2131SOL    HW1 7213   6.474   5.532   2.667 -1.2341 -1.9097 -0.5053
 2131SOL    HW2 7214   6.588   5.513   2.783  0.7918  1.6929 -1.7651
 2132SOL     OW 7215   3.283   0.990   6.422  0.2022 -0.2177  0.2173
 2132SOL    HW1 7216   3.253   1.025   6.511 -0.3655  1.5707 -0.6244
 2132SOL    HW2 7217   3.382   0.980   6.422  0.0970 -1.7375  1.5181
 2133SOL     OW 7218   0.071   1.479   4.756  0.6101  0.2382 -0.2949
 2133SOL    HW1 7219  -0.004   1.523   4.707  1.1491  2.4193  0.7437
 2133SOL    HW2 7220   0.038   1.442   4.843  0.7335  1.2550  0.1905
 2134SOL     OW 7221   5.107   3.663   3.206  0.4165  0.2615  0.5350
 2134SOL    HW1 7222   5.064   3.579   3.239  0.8879  0.3031  1.2973
 2134SOL    HW2 7223   5.195   3.676   3.253  1.0645  0.3981 -0.6769
 2135SOL     OW 7224   1.062   3.607   0.488 -0.1177  0.3746 -0.2000
 2135SOL    HW1 7225   1.006   3.682   0.453 -0.0255 -0.0471 -1.2902
 2135SOL    HW2 7226   1.006   3.524   0.492  0.3641 -0.0051 -1.1201
 2136SOL     OW 7227   5.708   6.714   2.489  0.0949 -0.3361  0.5585
 2136SOL    HW1 7228   5.695   6.783   2.560  0.7379  0.7165 -0.3121
 2136SOL    HW2 7229   5.762   6.753   2.414  0.4062 -1.7656  0.0055
 2137SOL     OW 7230   5.565   2.350   6.776  0.3862  0.8592 -0.0335
 2137SOL    HW1 7231   5.465   2.342   6.770  0.4279  0.7130 -0.6022
 2137SOL    HW2 7232   5.603   2.351   6.684  0.6433  4.4998 -0.0375
 2138SOL     OW 7233   5.340   3.301   1.430 -0.5046  0.1740 -0.1716
 2138SOL    HW1 7234   5.398   3.280   1.509  0.6280  3.1542 -0.0801
 2138SOL    HW2 7235   5.253   3.253   1.439  0.1719 -0.7793  2.0861
 2139SOL     OW 7236   3.841   0.974   4.118  0.3531 -0.3510  0.7564
 2139SOL    HW1 7237   3.859   1.013   4.027  1.6475 -0.7617  0.8090
 2139SOL    HW2 7238   3.830   1.049   4.184  0.5004 -0.0560  0.4521
 2140SOL     OW 7239   6.348   0.256   1.366 -0.2375 -0.3051  1.2171
 2140SOL    HW1 7240   6.319   0.170   1.323 -0.3948 -0.5124  1.7297
 2140SOL    HW2 7241   6.407   0.235   1.444  0.8653  0.0910  0.5127
 2141SOL     OW 7242   3.010   1.754   6.456  0.7659  0.7346 -0.0632
 2141SOL    HW1 7243   2.944   1.713   6.519  1.0686  0.1565 -0.1158
 2141SOL    HW2 7244   3.061   1.826   6.503  0.9098  0.3851  0.3279
 2142SOL     OW 7245   4.967   0.696   6.736 -0.1083  0.3139 -0.0826
 2142SOL    HW1 7246   5.062   0.669   6.752 -0.0803  0.8737  0.7462
 2142SOL    HW2 7247   4.948   0.695   6.638  0.8996  0.6748 -0.2901
 2143SOL     OW 7248   5.751   4.230   4.592 -0.1216  0.2653  0.0575
 2143SOL    HW1 7249   5.699   4.307   4.629 -0.6847 -0.3796  0.6498
 2143SOL    HW2 7250   5.802   4.186   4.667 -0.0332 -0.1080 -0.2202
 2144SOL     OW 7251   0.736   6.252   3.911 -0.4479  0.0052 -0.3817
 2144SOL    HW1 7252   0.785   6.287   3.830  1.2503 -1.1629  0.0868
 2144SOL    HW2 7253   0.717   6.155   3.899 -0.7495 -0.0306  0.3550
 2145SOL     OW 7254   4.993   6.632   5.438 -0.6249  0.3674  0.0966
 2145SOL    HW1 7255   4.988   6.695   5.517  0.2866  2.3956 -1.3679
 2145SOL    HW2 7256   5.070   6.570   5.451  0.1543  1.3524  0.4002
 2146SOL     OW 7257   6.245   0.880   4.556  0.0259  0.4701  0.5865
 2146SOL    HW1 7258   6.158   0.929   4.545 -0.1667 -0.0725 -0.4018
 2146SOL    HW2 7259   6.306   0.903   4.481 -0.2459 -1.1354 -0.1681
 2147SOL     OW 7260   4.729   0.465   5.527  0.2761  0.8646 -0.0366
 2147SOL    HW1 7261   4.670   0.398   5.571  1.6602  0.8327  1.9413
 2147SOL    HW2 7262   4.800   0.419   5.474  1.4392  0.6671  1.6060
 2148SOL     OW 7263   6.068   6.768   1.545  0.0647 -0.3791  0.0398
 2148SOL    HW1 7264   6.115   6.799   1.463  0.3117 -0.9508 -0.0408
 2148SOL    HW2 7265   6.070   6.840   1.614  0.0227  0.0339 -0.3843
 2149SOL     OW 7266   6.465   5.822   6.848  0.3184  0.5441  0.4838
 2149SOL    HW1 7267   6.483   5.904   6.902 -1.2904  1.5577 -0.4377
 2149SOL    HW2 7268   6.532   5.816   6.774 -0.1744  1.6585 -0.0833
 2150SOL     OW 7269   5.160   4.398   4.759 -0.0591 -0.0238  0.4414
 2150SOL    HW1 7270   5.173   4.480   4.703  0.6561  0.4717  1.3098
 2150SOL    HW2 7271   5.160   4.317   4.700 -0.2974  0.5522 -0.3731
 2151SOL     OW 7272   6.613   2.340   0.228 -0.1293 -0.0553  0.8868
 2151SOL    HW1 7273   6.673   2.263   0.248 -0.2562 -0.1062  1.0656
 2151SOL    HW2 7274   6.518   2.315   0.247 -0.2057  0.0345  0.6308
 2152SOL     OW 7275   5.541   6.491   0.258  0.4167 -0.0289  0.2729
 2152SOL    HW1 7276   5.478   6.567   0.242  0.4749 -0.0336  0.0219
 2152SOL    HW2 7277   5.539   6.466   0.355 -0.5502 -0.5405  0.1356
 2153SOL     OW 7278   4.624   5.576   6.324  0.2373  0.0283 -0.1346
 2153SOL    HW1 7279   4.572   5.586   6.239  2.1601  0.2088 -1.3431
 2153SOL    HW2 7280   4.595   5.492   6.370 -0.7678 -0.1316 -1.0132
 2154SOL     OW 7281   5.351   1.463   4.246  0.3170  0.2311  0.3708
 2154SOL    HW1 7282   5.265   1.419   4.271 -0.1306  0.3508 -0.8709
 2154SOL    HW2 7283   5.388   1.512   4.325 -1.8639  1.9756  0.3902
 2155SOL     OW 7284   4.442   5.282   6.678 -0.2368  0.0249 -0.2320
 2155SOL    HW1 7285   4.377   5.357   6.677 -1.0146 -0.6329 -1.1330
 2155SOL    HW2 7286   4.399   5.201   6.718  0.9360  0.3306  1.7237
 2156SOL     OW 7287   6.003   2.542   3.054  0.5673  0.1104  0.3757
 2156SOL    HW1 7288   6.086   2.555   3.001  2.3518 -1.2653  2.6566
 2156SOL    HW2 7289   6.020   2.477   3.129 -2.8003 -0.9386  0.4186
 2157SOL     OW 7290   2.281   2.452   1.468 -0.6185 -0.1466  0.2320
 2157SOL    HW1 7291   2.264   2.375   1.529  0.2727 -0.4212  0.1494
 2157SOL    HW2 7292   2.195   2.499   1.448 -0.8241  0.5648  2.4925
 2158SOL     OW 7293   2.798   6.181   2.291 -0.1688 -0.5282  0.1389
 2158SOL    HW1 7294   2.766   6.205   2.382  1.3059  1.3657  0.2158
 2158SOL    HW2 7295   2.897   6.185   2.288 -0.2108  1.3986 -1.9866
 2159SOL     OW 7296   6.519   5.113   3.048 -0.3530 -0.3933  0.0428
 2159SOL    HW1 7297   6.448   5.183   3.043  0.0327  0.2090  2.0549
 2159SOL    HW2 7298   6.558   5.098   2.957 -1.6152  0.7557 -0.7198
 2160SOL     OW 7299   1.989   6.395   3.439 -0.2253  0.3925  0.6157
 2160SOL    HW1 7300   2.088   6.396   3.431 -0.0765 -2.0796  1.3427
 2160SOL    HW2 7301   1.963   6.383   3.535 -1.1095 -1.5420  0.1890
 2161SOL     OW 7302   3.756   3.145   0.363  0.0308 -0.0713  0.6768
 2161SOL    HW1 7303   3.751   3.055   0.321 -0.9359 -0.1358  0.9034
 2161SOL    HW2 7304   3.825   3.200   0.316 -1.6368  0.1922 -1.6736
 2162SOL     OW 7305   1.498   0.591   5.942  0.1162  0.1880  0.0890
 2162SOL    HW1 7306   1.474   0.656   6.014 -0.0020 -0.8645  1.0244
 2162SOL    HW2 7307   1.416   0.569   5.888  0.2771  1.2515 -0.6245
 2163SOL     OW 7308   1.679   6.113   5.146 -0.1422 -0.0263 -0.5331
 2163SOL    HW1 7309   1.709   6.028   5.103  0.0698 -0.4161  0.3499
 2163SOL    HW2 7310   1.719   6.191   5.099  1.0060 -0.4796 -0.3435
 2164SOL     OW 7311   6.301   5.061   3.897  0.5967  0.1042 -0.0769
 2164SOL    HW1 7312   6.365   5.101   3.831  2.2398  1.3267  2.1377
 2164SOL    HW2 7313   6.340   4.977   3.935  0.5777  0.4542  0.7409
 2165SOL     OW 7314   5.982   3.202   3.977  0.1623  0.1803 -0.2569
 2165SOL    HW1 7315   6.012   3.169   4.067 -0.0540 -1.0985 -0.6311
 2165SOL    HW2 7316   5.966   3.301   3.981  2.7547  0.6411  0.4037
 2166SOL     OW 7317   4.163   5.455   6.136 -0.0410  0.0590  0.3278
 2166SOL    HW1 7318   4.249   5.418   6.171 -0.0334 -1.2603 -1.0345
 2166SOL    HW2 7319   4.086   5.406   6.177 -0.0985  0.0611  0.2229
 2167SOL     OW 7320   5.763   5.992   4.176 -0.3247  0.3185  0.1293
 2167SOL    HW1 7321   5.749   6.069   4.239 -2.0376  1.1904 -1.2373
 2167SOL    HW2 7322   5.683   5.982   4.118  0.6917 -1.2767 -1.0559
 2168SOL     OW 7323   4.343   0.691   5.687  0.1258  0.2070  0.0641
 2168SOL    HW1 7324   4.362   0.639   5.604  0.0185  0.9212 -0.4140
 2168SOL    HW2 7325   4.282   0.638   5.746 -1.1929  0.4061 -1.0874
 2169SOL     OW 7326   0.059   4.896   4.198 -0.2739  0.6881  0.4593
 2169SOL    HW1 7327   0.117   4.832   4.248  2.2472  2.6647  0.2664
 2169SOL    HW2 7328   0.084   4.897   4.102 -1.4622  0.7694  0.1267
 2170SOL     OW 7329   0.012   5.402   4.868 -0.5283  0.3824 -0.7020
 2170SOL    HW1 7330   0.073   5.323   4.873  0.2165  0.9875  0.0949
 2170SOL    HW2 7331   0.022   5.446   4.778  1.9588  1.7945  0.1750
 2171SOL     OW 7332   5.980   1.968   2.211 -0.3609 -0.2641  0.2129
 2171SOL    HW1 7333   6.075   1.947   2.236 -0.3354 -3.2069 -1.7882
 2171SOL    HW2 7334   5.978   2.016   2.123 -0.7237  0.9063  0.8443
 2172SOL     OW 7335   5.323   6.641   3.890 -0.0049 -0.2864 -0.1062
 2172SOL    HW1 7336   5.289   6.710   3.953  0.3770  1.3536 -1.6334
 2172SOL    HW2 7337   5.373   6.684   3.816 -0.1315 -2.1688 -1.3741
 2173SOL     OW 7338   1.522   3.302   4.179 -0.2505  0.6112 -0.3056
 2173SOL    HW1 7339   1.446   3.318   4.242  0.1585  0.3957  0.2501
 2173SOL    HW2 7340   1.606   3.340   4.218  0.0574  0.2394 -0.6034
 2174SOL     OW 7341   3.376   5.808   0.509  0.2497 -0.0401  0.8221
 2174SOL    HW1 7342   3.460   5.784   0.557  2.1987  3.2321 -0.5898
 2174SOL    HW2 7343   3.383   5.902   0.476 -2.4682 -0.8349 -2.5608
 2175SOL     OW 7344   0.118   0.183   5.371  0.1494  0.6888  0.7256
 2175SOL    HW1 7345   0.176   0.169   5.291  0.0974  1.8478  0.4750
 2175SOL    HW2 7346   0.116   0.099   5.425  1.6921  0.4840  0.5035
 2176SOL     OW 7347   5.867   0.451   0.789  0.2176  0.7892 -0.4321
 2176SOL    HW1 7348   5.961   0.430   0.764  0.5644  0.5463  1.0340
 2176SOL    HW2 7349   5.862   0.545   0.823  0.5001 -0.0828  2.1840
 2177SOL     OW 7350   4.714   5.134   6.267 -0.4032  0.0558  0.3981
 2177SOL    HW1 7351   4.647   5.184   6.212 -2.0996 -1.0683  1.3496
 2177SOL    HW2 7352   4.712   5.168   6.361  0.9688  0.5543  0.2582
 2178SOL     OW 7353   3.520   2.647   1.653  0.6317 -0.0687 -0.4135
 2178SOL    HW1 7354   3.548   2.742   1.659  0.7909 -0.0522 -1.2300
 2178SOL    HW2 7355   3.425   2.637   1.682  0.6480  0.3226 -0.2332
 2179SOL     OW 7356   2.575   4.836   2.821  0.1964  0.1245 -0.5778
 2179SOL    HW1 7357   2.515   4.827   2.901  0.0875  3.4596 -0.1772
 2179SOL    HW2 7358   2.669   4.849   2.851  0.1362  1.5364 -0.9407
 2180SOL     OW 7359   0.154   2.850   1.520  0.2735 -0.0091 -0.3417
 2180SOL    HW1 7360   0.123   2.920   1.457 -1.1420 -0.1621  0.1330
 2180SOL    HW2 7361   0.142   2.760   1.478  0.2874 -0.0567 -0.2437
 2181SOL     OW 7362   2.256   5.564   0.049 -0.7340  0.0376  0.3613
 2181SOL    HW1 7363   2.284   5.475   0.083 -1.3470 -1.6583 -3.1990
 2181SOL    HW2 7364   2.334   5.627   0.053  1.5046 -2.3281 -2.2015
 2182SOL     OW 7365   0.675   0.473   3.927  0.1016  0.2609  0.6223
 2182SOL    HW1 7366   0.680   0.489   3.829 -1.6753  0.3105  0.5071
 2182SOL    HW2 7367   0.717   0.385   3.949  2.0097  0.9902  0.0705
 2183SOL     OW 7368   0.044   4.243   0.131  0.4858 -0.1023  0.2268
 2183SOL    HW1 7369   0.018   4.152   0.164  0.7587  0.0371  0.8510
 2183SOL    HW2 7370  -0.036   4.301   0.126  0.3536 -0.2941  0.1120
 2184SOL     OW 7371   4.560   3.124   5.061  0.0214  0.0051  0.1131
 2184SOL    HW1 7372   4.559   3.024   5.072  0.5920 -0.0743 -0.4801
 2184SOL    HW2 7373   4.479   3.153   5.011 -0.1393 -0.1594  0.2746
 2185SOL     OW 7374   0.448   3.911   1.557  0.3885 -0.7432 -0.2546
 2185SOL    HW1 7375   0.420   3.904   1.461  0.0228  0.9475 -0.3061
 2185SOL    HW2 7376   0.457   3.819   1.596 -1.5934 -1.4575 -1.3021
 2186SOL     OW 7377   3.586   3.094   6.693 -0.0156 -0.5816  0.0193
 2186SOL    HW1 7378   3.632   3.017   6.737  1.8170  1.0074  1.0366
 2186SOL    HW2 7379   3.616   3.180   6.735  0.7477  0.9786 -3.3774
 2187SOL     OW 7380   0.954   0.576   1.555  0.7602  1.0310 -0.7070
 2187SOL    HW1 7381   1.049   0.572   1.524  0.9078  0.2510 -0.1932
 2187SOL    HW2 7382   0.929   0.488   1.597  1.1961  2.5426  3.0971
 2188SOL     OW 7383   4.368   0.970   0.239 -0.1573  0.3096  1.2097
 2188SOL    HW1 7384   4.359   0.891   0.179 -0.8540  1.2553  0.0190
 2188SOL    HW2 7385   4.450   0.960   0.295  0.6791 -0.4920 -0.0960
 2189SOL     OW 7386   2.995   5.399   2.335 -0.3717  0.0405  0.1646
 2189SOL    HW1 7387   2.924   5.416   2.267  0.5758  1.2226 -0.5785
 2189SOL    HW2 7388   3.084   5.418   2.295  0.6169 -3.5065  0.3907
 2190SOL     OW 7389   3.474   5.585   5.576 -0.2789 -0.2384 -0.1482
 2190SOL    HW1 7390   3.546   5.531   5.620  0.7284  3.0017  2.6515
 2190SOL    HW2 7391   3.512   5.672   5.545 -2.5027  0.4411 -1.1950
 2191SOL     OW 7392   5.952   2.451   2.422 -0.7516  0.4322 -0.3056
 2191SOL    HW1 7393   5.858   2.475   2.447  0.1397  2.2815  1.5533
 2191SOL    HW2 7394   5.957   2.353   2.402 -2.9503  0.1809  0.1460
 2192SOL     OW 7395   3.026   1.204   6.495 -0.2238  0.2633 -0.5757
 2192SOL    HW1 7396   3.110   1.193   6.548 -1.0958 -0.2955  0.7467
 2192SOL    HW2 7397   3.039   1.166   6.404  0.4163 -1.4696  0.1967
 2193SOL     OW 7398   5.458   1.060   1.070 -0.3164  0.0172 -0.1272
 2193SOL    HW1 7399   5.543   1.101   1.038 -1.2950  2.1519 -0.1204
 2193SOL    HW2 7400   5.418   1.004   0.996  1.5117 -1.8433  0.1911
 2194SOL     OW 7401   1.836   5.030   0.585 -0.0598  0.5895  0.1626
 2194SOL    HW1 7402   1.822   5.029   0.486 -2.1943 -3.0768  0.3279
 2194SOL    HW2 7403   1.753   5.001   0.631  2.2061 -2.5732  2.6917
 2195SOL     OW 7404   2.503   2.189   2.315  0.0823 -0.0917  0.4362
 2195SOL    HW1 7405   2.564   2.266   2.334 -0.5164  0.3683  0.5128
 2195SOL    HW2 7406   2.550   2.122   2.257  0.6769  0.2293  0.5495
 2196SOL     OW 7407   6.832   0.803   0.589  0.4436 -0.4031  0.3002
 2196SOL    HW1 7408   6.813   0.790   0.686  0.9302 -0.6318  0.3692
 2196SOL    HW2 7409   6.798   0.724   0.537 -0.8497  0.2355  0.1344
 2197SOL     OW 7410   5.605   6.166   0.879  0.5992 -0.3019  0.4110
 2197SOL    HW1 7411   5.700   6.197   0.887  0.0605  2.2281 -1.6401
 2197SOL    HW2 7412   5.547   6.222   0.939  0.2265 -0.9796  0.6917
 2198SOL     OW 7413   6.311   4.078   5.614 -0.2120 -0.3694  0.7062
 2198SOL    HW1 7414   6.392   4.023   5.636  0.1428  0.0824  0.5375
 2198SOL    HW2 7415   6.231   4.036   5.656  0.3356  0.0474  2.2456
 2199SOL     OW 7416   5.475   1.381   3.677  0.3582 -0.0587 -0.1496
 2199SOL    HW1 7417   5.419   1.392   3.759 -0.1625  0.5271 -0.5877
 2199SOL    HW2 7418   5.541   1.455   3.671  1.4703 -0.9564  0.5766
 2200SOL     OW 7419   1.556   3.758   5.430 -0.6034 -0.0006  0.5398
 2200SOL    HW1 7420   1.561   3.659   5.418 -1.9983 -0.2232  1.4667
 2200SOL    HW2 7421   1.644   3.792   5.464  1.5684 -0.1278 -4.2468
 2201SOL     OW 7422   5.342   5.749   3.456 -0.0832  0.3460 -0.3701
 2201SOL    HW1 7423   5.408   5.785   3.389  0.5268  1.8858  0.9945
 2201SOL    HW2 7424   5.263   5.810   3.462 -1.3181 -1.0703 -1.4089
 2202SOL     OW 7425   3.550   2.871   4.349  0.5436 -0.0961 -0.3008
 2202SOL    HW1 7426   3.607   2.869   4.267 -1.9099 -0.7997 -2.0926
 2202SOL    HW2 7427   3.590   2.812   4.419  0.5804 -2.9224 -2.5305
 2203SOL     OW 7428   0.889   6.639   4.325  0.3878  0.3336  0.2047
 2203SOL    HW1 7429   0.897   6.735   4.352 -0.4347  0.0520  1.5416
 2203SOL    HW2 7430   0.934   6.581   4.393  0.3559 -0.2689 -0.2778
 2204SOL     OW 7431   3.936   6.365   6.178 -0.3972 -0.1380 -0.0850
 2204SOL    HW1 7432   3.937   6.440   6.111 -1.3021  1.1270  1.2622
 2204SOL    HW2 7433   3.883   6.289   6.142 -2.2477  1.1515 -0.2100
 2205SOL     OW 7434   4.427   0.430   1.872  0.4621  0.4283  0.2761
 2205SOL    HW1 7435   4.385   0.354   1.921  1.7100 -1.1296 -0.9634
 2205SOL    HW2 7436   4.448   0.402   1.778 -1.7468  3.2559 -1.2199
 2206SOL     OW 7437   6.118   5.835   1.268  0.3036  0.4610  0.4383
 2206SOL    HW1 7438   6.158   5.917   1.228  0.9125 -0.8579 -1.8342
 2206SOL    HW2 7439   6.030   5.815   1.223 -0.1461  0.1859  1.3999
 2207SOL     OW 7440   6.247   4.617   0.828 -0.6071  0.0557 -0.2610
 2207SOL    HW1 7441   6.184   4.540   0.840 -0.4737 -0.1759 -0.9905
 2207SOL    HW2 7442   6.323   4.608   0.892 -0.8344 -0.1624 -0.0169
 2208SOL     OW 7443   2.223   4.452   6.410 -0.0006  0.0248  0.3669
 2208SOL    HW1 7444   2.301   4.391   6.420 -1.7031 -2.2748  0.4640
 2208SOL    HW2 7445   2.247   4.543   6.445  2.8918 -0.2858 -0.5313
 2209SOL     OW 7446   5.172   4.970   4.172  0.4710  0.0327  0.6721
 2209SOL    HW1 7447   5.134   5.026   4.245 -1.6680 -1.0916  0.4854
 2209SOL    HW2 7448   5.142   5.006   4.084 -0.2054 -0.8665  0.5223
 2210SOL     OW 7449   2.885   0.961   5.152  0.3355  0.0320 -0.4446
 2210SOL    HW1 7450   2.872   1.005   5.240 -1.3075  0.1566 -0.7145
 2210SOL    HW2 7451   2.803   0.974   5.096  0.2948 -2.2439 -1.0129
 2211SOL     OW 7452   4.123   3.267   4.239  0.7982  0.3088 -0.3760
 2211SOL    HW1 7453   4.207   3.280   4.292 -0.0811  0.1994  1.0780
 2211SOL    HW2 7454   4.065   3.199   4.283 -0.8943  1.7013 -0.3120
 2212SOL     OW 7455   3.331   6.849   6.587  0.6560 -0.2603  0.4519
 2212SOL    HW1 7456   3.353   6.904   6.506 -0.8724  0.3890  0.4530
 2212SOL    HW2 7457   3.252   6.888   6.634  0.1252 -1.9089  1.0107
 2213SOL     OW 7458   6.877   1.482   1.480  0.7804 -0.5102  0.0338
 2213SOL    HW1 7459   6.877   1.383   1.495 -2.6192 -0.5997  0.2509
 2213SOL    HW2 7460   6.835   1.527   1.558 -0.1981  0.8310 -1.2220
 2214SOL     OW 7461   5.886   1.038   6.130 -0.0747 -0.1588  0.4095
 2214SOL    HW1 7462   5.808   1.085   6.089  0.8494  0.7934 -0.3026
 2214SOL    HW2 7463   5.853   0.957   6.179 -1.5659  0.5140  0.5965
 2215SOL     OW 7464   6.154   0.674   6.356 -0.2663  0.2080  0.2107
 2215SOL    HW1 7465   6.067   0.722   6.367 -0.0289  0.3625  1.5867
 2215SOL    HW2 7466   6.229   0.731   6.392  0.1951 -0.5885  0.5512
 2216SOL     OW 7467   6.830   0.922   4.781  0.2081 -0.2635  0.2081
 2216SOL    HW1 7468   6.786   0.967   4.704  0.3901  0.4381  0.5110
 2216SOL    HW2 7469   6.923   0.895   4.756  0.0159 -0.7017 -0.0514
 2217SOL     OW 7470   2.105   6.622   5.276 -0.2106 -0.1798 -0.1583
 2217SOL    HW1 7471   2.019   6.592   5.319  1.3081 -0.9962  2.5136
 2217SOL    HW2 7472   2.123   6.717   5.302 -0.9125  0.4567 -1.8461
 2218SOL     OW 7473   2.352   6.927   0.587 -0.1238  0.1205 -0.7559
 2218SOL    HW1 7474   2.412   6.985   0.643 -0.5613 -0.6874  0.6052
 2218SOL    HW2 7475   2.404   6.848   0.554 -0.1653 -0.0354 -0.4539
 2219SOL     OW 7476   6.772   1.267   5.625  0.8210 -0.0150 -0.2839
 2219SOL    HW1 7477   6.738   1.297   5.537 -0.1656 -1.3671 -0.3997
 2219SOL    HW2 7478   6.764   1.342   5.691 -1.5885  0.0369 -0.5276
 2220SOL     OW 7479   6.623   6.171   2.285 -0.0172 -0.3513 -0.0167
 2220SOL    HW1 7480   6.554   6.223   2.335  0.0390 -1.0764  0.8544
 2220SOL    HW2 7481   6.609   6.073   2.301  0.8476 -0.5351 -0.3059
 2221SOL     OW 7482   3.748   6.391   2.005 -0.5632 -0.0168 -0.2639
 2221SOL    HW1 7483   3.748   6.299   2.045 -1.2504  0.4073  0.7643
 2221SOL    HW2 7484   3.834   6.407   1.957 -0.0172 -0.8245  0.4158
 2222SOL     OW 7485   2.672   3.203   3.614 -0.6543  0.1963 -0.1939
 2222SOL    HW1 7486   2.639   3.184   3.522 -0.4182  0.9587 -0.4440
 2222SOL    HW2 7487   2.676   3.118   3.667 -1.3440 -0.1593 -0.7032
 2223SOL     OW 7488   6.832   1.327   0.280 -0.3283  0.7278  0.8114
 2223SOL    HW1 7489   6.787   1.407   0.320  0.1157  0.9711  0.8316
 2223SOL    HW2 7490   6.930   1.331   0.298 -0.1818  0.6172  0.0724
 2224SOL     OW 7491   6.608   3.686   3.651 -0.1230  0.4860  0.1306
 2224SOL    HW1 7492   6.617   3.668   3.749  0.9907 -2.7024 -0.4489
 2224SOL    HW2 7493   6.524   3.738   3.635 -0.2660  1.2206  2.7366
 2225SOL     OW 7494   6.977   0.032   4.217 -0.1884  0.2114 -0.1807
 2225SOL    HW1 7495   6.885  -0.007   4.213 -0.0129 -0.2348 -0.0374
 2225SOL    HW2 7496   7.044  -0.043   4.216  0.2144  0.5686 -1.4340
 2226SOL     OW 7497   1.135   0.409   2.753 -0.0831  0.2460  0.6116
 2226SOL    HW1 7498   1.126   0.478   2.825 -0.1433 -0.3894  1.2166
 2226SOL    HW2 7499   1.099   0.446   2.667 -0.8686  0.6852  1.1192
 2227SOL     OW 7500   6.140   0.602   4.563 -0.4177  0.3898  0.9349
 2227SOL    HW1 7501   6.133   0.702   4.559  0.8484  0.5276  1.5614
 2227SOL    HW2 7502   6.100   0.562   4.481  3.5483  1.6943 -1.9054
 2228SOL     OW 7503   6.673   6.960   0.847 -0.1004 -0.1498 -0.4951
 2228SOL    HW1 7504   6.582   6.944   0.808 -0.5266 -0.4470  0.5866
 2228SOL    HW2 7505   6.731   6.880   0.832  0.0320  0.0893 -1.2980
 2229SOL     OW 7506   2.677   2.499   6.036  0.2353 -0.3038 -0.0458
 2229SOL    HW1 7507   2.761   2.529   6.081 -0.1874  1.8925 -0.5948
 2229SOL    HW2 7508   2.598   2.524   6.092 -0.1020 -1.9673  0.2667
 2230SOL     OW 7509   3.260   6.321   4.832 -0.5081 -0.5596  0.1618
 2230SOL    HW1 7510   3.232   6.416   4.843 -0.2102 -0.6733  2.1614
 2230SOL    HW2 7511   3.307   6.289   4.914 -2.1180 -2.9617  0.2628
 2231SOL     OW 7512   6.169   0.832   2.398 -0.5310 -0.3056  0.1453
 2231SOL    HW1 7513   6.073   0.842   2.423 -0.2078  0.4773  1.1552
 2231SOL    HW2 7514   6.190   0.893   2.321 -1.0569 -1.2084 -0.7304
 2232SOL     OW 7515   4.245   3.948   0.903 -0.3807 -0.4060 -0.0609
 2232SOL    HW1 7516   4.237   3.851   0.925 -2.7373 -0.3242 -0.3027
 2232SOL    HW2 7517   4.206   3.966   0.813  1.9096  0.5092 -0.9703
 2233SOL     OW 7518   6.153   5.723   3.763 -0.7507 -0.9945 -0.2776
 2233SOL    HW1 7519   6.164   5.822   3.772 -1.2957 -1.0422  1.2556
 2233SOL    HW2 7520   6.214   5.689   3.692 -2.9057  0.8515 -3.2053
 2234SOL     OW 7521   1.463   0.348   3.041  0.5204 -0.1194 -0.5821
 2234SOL    HW1 7522   1.410   0.272   3.005 -0.6689  1.2461 -1.8869
 2234SOL    HW2 7523   1.529   0.378   2.972  2.4509 -1.2227  0.6885
 2235SOL     OW 7524   5.981   1.701   2.534 -0.3819  0.1867 -0.3761
 2235SOL    HW1 7525   5.942   1.716   2.444  1.2513 -0.8491 -1.3220
 2235SOL    HW2 7526   6.024   1.786   2.567 -0.7088  0.4819 -0.7102
 2236SOL     OW 7527   1.713   2.286   0.876 -0.1146  0.0197 -0.6730
 2236SOL    HW1 7528   1.697   2.255   0.970  0.4166  0.5669 -0.3977
 2236SOL    HW2 7529   1.641   2.350   0.849  0.1715  0.4797 -0.3535
 2237SOL     OW 7530   1.856   6.075   2.024 -0.0445  0.6772 -0.8116
 2237SOL    HW1 7531   1.864   6.173   2.005  1.0933  0.9924  1.0150
 2237SOL    HW2 7532   1.844   6.025   1.939  0.2674  2.3258 -1.8618
 2238SOL     OW 7533   5.370   0.801   2.146 -0.6051 -0.1005 -0.3463
 2238SOL    HW1 7534   5.281   0.831   2.180 -0.7823 -0.0602 -0.8463
 2238SOL    HW2 7535   5.358   0.734   2.073 -0.2964  1.4768 -1.9185
 2239SOL     OW 7536   6.419   3.815   1.106 -0.4632 -0.2042 -0.0461
 2239SOL    HW1 7537   6.425   3.773   1.015 -0.4370  0.7619 -0.4992
 2239SOL    HW2 7538   6.484   3.891   1.111 -0.2814 -0.4126  0.8741
 2240SOL     OW 7539   6.576   4.212   0.888  0.7275  0.3021  0.6195
 2240SOL    HW1 7540   6.604   4.208   0.792 -2.3526  1.2672 -0.4342
 2240SOL    HW2 7541   6.643   4.264   0.940  1.9054  0.7367 -1.2411
 2241SOL     OW 7542   6.241   3.056   1.786 -0.2664 -0.0835  0.2020
 2241SOL    HW1 7543   6.152   3.042   1.830 -0.4471  0.3581 -0.0146
 2241SOL    HW2 7544   6.227   3.094   1.695  0.1552  0.2017  0.2563
 2242SOL     OW 7545   3.495   1.804   5.125 -0.9884 -0.1312 -0.0253
 2242SOL    HW1 7546   3.571   1.868   5.135 -0.5342 -0.9133  2.0430
 2242SOL    HW2 7547   3.408   1.854   5.125 -0.6344  0.5346  1.4574
 2243SOL     OW 7548   6.121   2.019   0.224 -0.6685  0.1507 -0.3475
 2243SOL    HW1 7549   6.025   2.032   0.249 -0.9183 -1.5628 -0.2915
 2243SOL    HW2 7550   6.133   2.034   0.126 -0.3497  3.4699  0.1081
 2244SOL     OW 7551   6.329   3.657   5.875 -0.3084  0.4391  0.2674
 2244SOL    HW1 7552   6.301   3.601   5.952 -1.3584  0.2919 -0.2025
 2244SOL    HW2 7553   6.301   3.751   5.890  2.1995  1.0858  1.4478
 2245SOL     OW 7554   5.753   0.926   0.206 -0.6434 -0.2587 -0.2181
 2245SOL    HW1 7555   5.700   0.877   0.275  1.4072 -1.3859  0.6434
 2245SOL    HW2 7556   5.843   0.949   0.244  0.5317 -0.8702 -2.4721
 2246SOL     OW 7557   4.248   6.283   5.882  0.0716 -0.3551 -0.1129
 2246SOL    HW1 7558   4.273   6.213   5.949  0.3886  0.7780  1.0098
 2246SOL    HW2 7559   4.158   6.319   5.905 -0.0711 -0.3603 -0.6582
 2247SOL     OW 7560   0.508   0.649   0.488 -0.1872  0.0705  0.1813
 2247SOL    HW1 7561   0.411   0.668   0.506 -0.1972 -0.3978  0.6270
 2247SOL    HW2 7562   0.516   0.562   0.440  0.0812 -0.4345  1.1219
 2248SOL     OW 7563   1.743   3.051   0.923 -0.3287  0.2300 -0.5714
 2248SOL    HW1 7564   1.764   3.148   0.912  1.5626 -0.0328  0.3425
 2248SOL    HW2 7565   1.788   2.998   0.850 -0.2374 -0.0785 -0.2952
 2249SOL     OW 7566   0.622   6.712   5.429  0.3445  0.3841 -0.1776
 2249SOL    HW1 7567   0.698   6.759   5.475  0.4839  0.9704 -0.9898
 2249SOL    HW2 7568   0.653   6.622   5.397  0.3489  0.1245  0.5388
 2250SOL     OW 7569   6.829   1.313   6.176 -0.2634  0.4815 -0.0826
 2250SOL    HW1 7570   6.765   1.237   6.179 -0.1104  0.3546 -0.0203
 2250SOL    HW2 7571   6.885   1.307   6.093  0.9129 -0.4303  0.7396
 2251SOL     OW 7572   5.314   5.102   0.056 -0.2503  0.4040  0.3944
 2251SOL    HW1 7573   5.270   5.019   0.090 -0.4205  0.9618  1.5544
 2251SOL    HW2 7574   5.265   5.182   0.089 -0.3043  0.9884 -1.0150
 2252SOL     OW 7575   3.687   2.902   1.030  0.0153  0.5543  0.0886
 2252SOL    HW1 7576   3.613   2.967   1.010 -0.5579 -0.2231 -0.4354
 2252SOL    HW2 7577   3.737   2.882   0.945  2.1992  2.6361  0.7884
 2253SOL     OW 7578   3.073   0.226   5.906  0.0752  0.9302  0.5922
 2253SOL    HW1 7579   3.127   0.301   5.944  0.9019 -0.1552  1.6291
 2253SOL    HW2 7580   3.091   0.142   5.957  2.0840 -0.9039 -2.8019
 2254SOL     OW 7581   4.962   6.435   0.177 -0.3059  0.0833 -0.1520
 2254SOL    HW1 7582   5.057   6.426   0.207 -0.1625 -1.0817 -0.8826
 2254SOL    HW2 7583   4.944   6.530   0.151  1.0684  0.0622 -1.3016
 2255SOL     OW 7584   4.138   2.106   4.194 -0.1154 -0.8487 -0.7136
 2255SOL    HW1 7585   4.165   2.129   4.287 -1.6325  0.7783 -0.6239
 2255SOL    HW2 7586   4.071   2.031   4.196 -0.4181 -0.5710 -0.4684
 2256SOL     OW 7587   1.091   2.611   3.576 -0.7330 -0.1150 -0.4814
 2256SOL    HW1 7588   1.136   2.527   3.606 -0.0511  0.3092 -0.3030
 2256SOL    HW2 7589   0.997   2.612   3.610 -1.0772 -1.2752 -1.3454
 2257SOL     OW 7590   1.363   1.230   2.398 -0.4328  0.2250  0.3797
 2257SOL    HW1 7591   1.315   1.225   2.486 -0.3209 -0.5039  0.4034
 2257SOL    HW2 7592   1.398   1.323   2.385 -0.6797  0.4110  0.9799
 2258SOL     OW 7593   1.149   2.450   4.523  0.1724 -0.0330 -0.1311
 2258SOL    HW1 7594   1.191   2.526   4.472  1.9663  1.3553  3.1192
 2258SOL    HW2 7595   1.093   2.486   4.597 -2.6494 -1.9711 -1.1561
 2259SOL     OW 7596   0.173   3.355   0.108  0.1584 -0.2883 -0.7718
 2259SOL    HW1 7597   0.266   3.353   0.146 -0.3741 -0.0255  0.6013
 2259SOL    HW2 7598   0.175   3.399   0.018  1.4296 -0.7239 -0.9783
 2260SOL     OW 7599   5.045   3.331   4.101 -0.0322  0.6738  0.0775
 2260SOL    HW1 7600   5.020   3.357   4.007 -1.0893 -0.9572 -0.1276
 2260SOL    HW2 7601   5.074   3.412   4.151  0.1280  1.6521 -1.5295
 2261SOL     OW 7602   6.631   3.338   6.327  0.6617  0.1141  0.1114
 2261SOL    HW1 7603   6.636   3.263   6.260  0.4962 -1.4372  1.7540
 2261SOL    HW2 7604   6.643   3.425   6.280 -0.7501 -0.7999 -2.1212
 2262SOL     OW 7605   1.179   0.668   5.831 -0.1347 -0.1288  0.1664
 2262SOL    HW1 7606   1.164   0.700   5.737 -0.5553 -0.3081  0.1702
 2262SOL    HW2 7607   1.178   0.568   5.833  1.7387 -0.1832  0.0666
 2263SOL     OW 7608   1.485   0.816   5.033 -0.0261 -0.5187 -0.2313
 2263SOL    HW1 7609   1.581   0.846   5.031 -0.1386 -0.1608 -0.5679
 2263SOL    HW2 7610   1.460   0.782   4.942  0.3552 -2.5038  0.3561
 2264SOL     OW 7611   5.568   1.485   5.071  0.6820  0.1422 -0.1890
 2264SOL    HW1 7612   5.499   1.554   5.095  1.0097 -0.0956  1.5317
 2264SOL    HW2 7613   5.580   1.421   5.147  2.2553 -0.2713 -0.7451
 2265SOL     OW 7614   5.206   0.299   0.770 -0.1085  0.0427 -0.3053
 2265SOL    HW1 7615   5.110   0.295   0.800 -0.0858 -0.2123 -0.2611
 2265SOL    HW2 7616   5.262   0.332   0.846 -0.3945  2.0399 -0.8973
 2266SOL     OW 7617   2.217   0.910   1.797  0.1626 -0.4453  0.3833
 2266SOL    HW1 7618   2.179   0.823   1.829 -1.0036 -0.2236 -0.3451
 2266SOL    HW2 7619   2.296   0.892   1.738 -0.8476 -1.1046 -0.8246
 2267SOL     OW 7620   2.207   0.076   0.049 -0.4379  0.1611  0.6190
 2267SOL    HW1 7621   2.146   0.140   0.097  3.0329  2.6873  2.0427
 2267SOL    HW2 7622   2.252   0.016   0.114 -0.1531 -0.5506 -0.2095
 2268SOL     OW 7623   6.841   4.613   6.581  0.7790  0.3227 -0.4897
 2268SOL    HW1 7624   6.790   4.547   6.635  0.7891  0.2450 -0.5743
 2268SOL    HW2 7625   6.799   4.703   6.589  0.8294  0.3283 -0.2857
 2269SOL     OW 7626   3.203   3.092   3.156  0.3047 -0.0692 -0.3145
 2269SOL    HW1 7627   3.243   3.037   3.229 -1.0071 -0.6962 -0.0413
 2269SOL    HW2 7628   3.107   3.067   3.144  0.0398  1.2297 -1.1025
 2270SOL     OW 7629   3.616   1.095   1.180 -0.5804 -0.1307 -0.7866
 2270SOL    HW1 7630   3.688   1.032   1.208 -0.1723 -0.4891 -2.5052
 2270SOL    HW2 7631   3.527   1.056   1.202 -0.3034  0.2210  1.1651
 2271SOL     OW 7632   1.887   2.364   4.325  0.0967 -0.4745 -0.4058
 2271SOL    HW1 7633   1.829   2.443   4.305 -0.7663 -1.1208 -0.4818
 2271SOL    HW2 7634   1.844   2.280   4.292  2.1871 -0.7648 -2.6858
 2272SOL     OW 7635   0.279   0.496   2.648 -0.3415 -0.2074 -0.9940
 2272SOL    HW1 7636   0.328   0.409   2.660  0.3050  0.2678 -0.0385
 2272SOL    HW2 7637   0.253   0.532   2.738  1.5864  1.7861 -1.1545
 2273SOL     OW 7638   2.174   3.268   0.241  0.3786 -0.4324  0.1721
 2273SOL    HW1 7639   2.189   3.286   0.338 -1.0350 -2.1707  0.7600
 2273SOL    HW2 7640   2.174   3.354   0.191  1.7492  0.4544  1.5918
 2274SOL     OW 7641   4.728   4.695   6.498  0.0474 -0.0316  0.4084
 2274SOL    HW1 7642   4.750   4.712   6.402  2.2856 -2.9123  0.2727
 2274SOL    HW2 7643   4.812   4.689   6.552 -1.1344  0.9056  2.4740
 2275SOL     OW 7644   4.701   0.556   2.385  0.5266 -0.2520  0.1140
 2275SOL    HW1 7645   4.654   0.531   2.300  0.9602  0.1311 -0.2438
 2275SOL    HW2 7646   4.633   0.571   2.457  0.1386 -0.3244 -0.2304
 2276SOL     OW 7647   2.662   2.766   4.093 -0.3447 -0.0195  0.3325
 2276SOL    HW1 7648   2.611   2.836   4.143 -0.7367 -1.2644  1.7563
 2276SOL    HW2 7649   2.753   2.800   4.070 -0.4705  0.8976  1.1326
 2277SOL     OW 7650   0.712   2.485   2.970 -0.5914 -0.1147  0.4011
 2277SOL    HW1 7651   0.635   2.423   2.953 -0.1737 -0.6095  0.2762
 2277SOL    HW2 7652   0.732   2.537   2.887 -1.1263  0.4024  0.5907
 2278SOL     OW 7653   3.811   3.137   4.486 -0.2366  0.2726 -0.1989
 2278SOL    HW1 7654   3.810   3.233   4.456  0.3974  1.2222  2.4904
 2278SOL    HW2 7655   3.893   3.092   4.451  1.4813  1.8796  1.5386
 2279SOL     OW 7656   2.594   5.256   6.741 -0.4484  0.4643  0.3215
 2279SOL    HW1 7657   2.625   5.309   6.662 -0.9345 -2.1852 -1.8260
 2279SOL    HW2 7658   2.508   5.209   6.718 -0.0204 -1.2715  1.9873
 2280SOL     OW 7659   2.176   2.781   3.367 -0.3362  0.0001  0.2087
 2280SOL    HW1 7660   2.232   2.713   3.320  0.5483  0.5766  0.4012
 2280SOL    HW2 7661   2.192   2.871   3.326 -0.5588  0.2901  0.7563
 2281SOL     OW 7662   5.593   0.310   4.075 -0.6933  0.0097 -0.5723
 2281SOL    HW1 7663   5.520   0.276   4.016  0.0973 -0.0655 -1.5241
 2281SOL    HW2 7664   5.669   0.245   4.076 -1.1883 -0.6309  1.5680
 2282SOL     OW 7665   6.119   6.051   5.448  0.4263 -0.2378 -0.4110
 2282SOL    HW1 7666   6.025   6.079   5.471  0.2880 -0.3818 -0.8053
 2282SOL    HW2 7667   6.176   6.133   5.436  0.6212 -0.1485  0.9115
 2283SOL     OW 7668   1.095   5.020   3.069 -0.5291 -0.2772  0.2265
 2283SOL    HW1 7669   1.096   5.108   3.116  1.1884 -1.1646  2.0146
 2283SOL    HW2 7670   1.080   4.947   3.135 -1.6709 -1.3761 -1.1800
 2284SOL     OW 7671   3.228   4.243   5.755  0.6766 -0.0299  0.0401
 2284SOL    HW1 7672   3.177   4.328   5.769 -1.2418 -1.1227 -0.0653
 2284SOL    HW2 7673   3.287   4.252   5.675  0.4773  1.1839  0.0142
 2285SOL     OW 7674   6.455   6.807   4.125 -0.3639 -0.3577 -1.0330
 2285SOL    HW1 7675   6.527   6.805   4.054  2.5775 -3.4316  1.6684
 2285SOL    HW2 7676   6.412   6.717   4.130 -2.0274  0.4557 -0.2828
 2286SOL     OW 7677   3.331   5.629   4.815  0.8015 -0.3236 -0.0024
 2286SOL    HW1 7678   3.253   5.690   4.827 -0.9601 -2.3668 -0.4972
 2286SOL    HW2 7679   3.324   5.552   4.879  2.2546 -0.6952 -0.2552
 2287SOL     OW 7680   1.043   0.847   3.370  0.4158  0.1814  0.4929
 2287SOL    HW1 7681   1.020   0.752   3.393 -0.5151  0.0620 -0.8518
 2287SOL    HW2 7682   1.079   0.851   3.277 -2.3180  1.4629 -0.6242
 2288SOL     OW 7683   4.710   0.425   6.926 -0.6710 -0.3877  0.1971
 2288SOL    HW1 7684   4.774   0.399   6.854  0.0910  0.7158  0.4386
 2288SOL    HW2 7685   4.620   0.444   6.886 -0.9518 -2.2396 -0.1028
 2289SOL     OW 7686   0.917   2.244   5.760 -0.0426  0.1613  0.8208
 2289SOL    HW1 7687   0.987   2.296   5.810  1.1721 -2.9373  2.6475
 2289SOL    HW2 7688   0.832   2.245   5.812  0.0187  0.2236  0.9213
 2290SOL     OW 7689   4.123   5.626   3.686  0.4322 -0.1875  0.5750
 2290SOL    HW1 7690   4.056   5.693   3.655  0.1097 -1.1339 -0.9119
 2290SOL    HW2 7691   4.215   5.666   3.684  0.1961  0.3457  0.1080
 2291SOL     OW 7692   2.318   4.387   4.553  0.3740 -1.0477  0.0164
 2291SOL    HW1 7693   2.401   4.428   4.515  0.8634 -1.1496  0.9313
 2291SOL    HW2 7694   2.332   4.369   4.651 -1.3431  0.5919  0.6325
 2292SOL     OW 7695   4.964   1.514   1.328  0.6221 -0.2765  0.2117
 2292SOL    HW1 7696   5.035   1.583   1.327  2.1369 -1.7070 -2.2878
 2292SOL    HW2 7697   4.949   1.482   1.421  2.7780  0.5639  0.9018
 2293SOL     OW 7698   4.748   4.974   3.324  0.6295 -0.2603 -0.0526
 2293SOL    HW1 7699   4.847   4.962   3.313  0.7335  0.8995 -0.5461
 2293SOL    HW2 7700   4.730   5.065   3.360 -0.2529 -0.6017  0.3918
 2294SOL     OW 7701   4.237   0.650   2.877 -0.6482 -0.1144  0.2296
 2294SOL    HW1 7702   4.307   0.595   2.923 -0.6013  0.4795  0.8761
 2294SOL    HW2 7703   4.147   0.610   2.896 -0.6832  0.4382  1.3218
 2295SOL     OW 7704   3.339   2.936   0.654 -0.5180  0.6446  0.1602
 2295SOL    HW1 7705   3.320   2.865   0.587 -1.1006 -0.1838  1.1808
 2295SOL    HW2 7706   3.348   3.024   0.608 -0.1391 -0.0273 -1.0752
 2296SOL     OW 7707   5.558   4.964   3.799  0.0539 -0.5282  0.2327
 2296SOL    HW1 7708   5.570   5.048   3.746 -1.0754  0.5133  1.5430
 2296SOL    HW2 7709   5.647   4.930   3.830  0.5411  0.0314 -0.5422
 2297SOL     OW 7710   6.539   4.503   6.223  0.3017  0.1767 -0.5816
 2297SOL    HW1 7711   6.464   4.560   6.257  1.1533  0.7873  0.3465
 2297SOL    HW2 7712   6.623   4.526   6.273  1.0460 -0.6872 -1.4024
 2298SOL     OW 7713   0.721   0.445   0.084  0.0815  0.3656  0.2893
 2298SOL    HW1 7714   0.671   0.467   0.000  1.6217  0.2585 -0.7089
 2298SOL    HW2 7715   0.819   0.436   0.062  0.3867 -0.6368  1.9261
 2299SOL     OW 7716   0.080   4.512   2.936  0.0243 -0.3163 -0.8163
 2299SOL    HW1 7717   0.044   4.605   2.932 -0.4142 -0.5132 -1.6237
 2299SOL    HW2 7718   0.021   4.457   2.995  0.4649 -0.0169 -0.0763
 2300SOL     OW 7719   6.557   3.088   0.280 -0.0491 -0.4748  0.0020
 2300SOL    HW1 7720   6.613   3.148   0.222 -0.2535 -0.4051 -0.1245
 2300SOL    HW2 7721   6.510   3.142   0.350 -0.3290 -0.4687 -0.1885
 2301SOL     OW 7722   6.231   0.900   2.131  0.4214  0.7585 -0.0269
 2301SOL    HW1 7723   6.272   0.895   2.040 -1.2593  0.3065 -0.7990
 2301SOL    HW2 7724   6.225   0.996   2.160  1.8806  0.8419  0.0743
 2302SOL     OW 7725   1.168   2.590   0.693  0.0485  0.2287 -0.0612
 2302SOL    HW1 7726   1.141   2.577   0.788 -1.0268  0.3957 -0.3288
 2302SOL    HW2 7727   1.170   2.501   0.647 -2.8858  0.4060 -0.7415
 2303SOL     OW 7728   6.877   3.998   6.794  0.1088  0.5225  0.4743
 2303SOL    HW1 7729   6.847   4.051   6.716  0.1465  0.9939  0.7786
 2303SOL    HW2 7730   6.841   4.038   6.878 -0.6494 -0.4678  0.6483
 2304SOL     OW 7731   4.479   6.620   0.743  0.0372  0.1791  0.0899
 2304SOL    HW1 7732   4.557   6.561   0.764  0.0619  0.3054  0.3573
 2304SOL    HW2 7733   4.470   6.690   0.814  1.0466  1.5531 -1.0603
 2305SOL     OW 7734   0.724   4.500   0.942 -0.3790  0.2433  0.5026
 2305SOL    HW1 7735   0.693   4.524   0.850  1.1338  1.7858  0.3610
 2305SOL    HW2 7736   0.653   4.523   1.008 -0.6231  1.1699 -0.0709
 2306SOL     OW 7737   4.237   3.842   5.572 -0.1398 -0.3263  0.0058
 2306SOL    HW1 7738   4.267   3.801   5.486  1.9540  0.3096  0.3558
 2306SOL    HW2 7739   4.239   3.941   5.564  0.8732 -0.2470  1.0037
 2307SOL     OW 7740   0.044   5.955   3.507 -0.1323 -0.4487  0.2560
 2307SOL    HW1 7741   0.053   6.055   3.506 -0.7587 -0.3840 -0.5995
 2307SOL    HW2 7742   0.134   5.913   3.505  0.1510  0.0907  1.0256
 2308SOL     OW 7743   1.282   2.637   2.154 -0.6662 -0.8898 -0.0517
 2308SOL    HW1 7744   1.232   2.675   2.232 -0.6363 -0.7797 -0.0859
 2308SOL    HW2 7745   1.318   2.546   2.178  1.8427  0.3130  1.1230
 2309SOL     OW 7746   2.339   6.088   5.201  0.5182 -0.0222  0.0567
 2309SOL    HW1 7747   2.408   6.015   5.202  0.6934  0.1264  1.3673
 2309SOL    HW2 7748   2.373   6.165   5.148  0.4011 -0.8146 -1.2057
 2310SOL     OW 7749   4.064   4.419   6.597 -0.0205 -0.1428  0.1840
 2310SOL    HW1 7750   4.050   4.329   6.638  2.3249  0.5739  2.9144
 2310SOL    HW2 7751   3.986   4.442   6.539 -0.5156 -4.0520 -0.9942
 2311SOL     OW 7752   6.903   4.619   0.897  0.2494  0.5455 -0.0056
 2311SOL    HW1 7753   6.987   4.578   0.863  0.8181  2.2278 -0.6936
 2311SOL    HW2 7754   6.847   4.651   0.821  0.7645  2.8378  0.4950
 2312SOL     OW 7755   4.359   3.467   0.978  0.3116  0.5515 -0.1522
 2312SOL    HW1 7756   4.339   3.413   0.896  3.9716 -0.9299 -0.2665
 2312SOL    HW2 7757   4.358   3.408   1.058 -0.1955  1.3483  0.4466
 2313SOL     OW 7758   5.598   2.257   3.622 -0.8197 -0.1898  0.3387
 2313SOL    HW1 7759   5.590   2.343   3.570  0.1527  0.9013  1.9210
 2313SOL    HW2 7760   5.535   2.189   3.583 -1.3455  1.0964 -1.1879
 2314SOL     OW 7761   6.895   5.744   3.468  0.1437 -0.2839  0.7893
 2314SOL    HW1 7762   6.856   5.756   3.376 -0.3650  0.7266  1.1149
 2314SOL    HW2 7763   6.951   5.824   3.490 -0.2271 -0.2377  1.5926
 2315SOL     OW 7764   4.734   2.800   5.815 -0.2681 -0.2897  0.1206
 2315SOL    HW1 7765   4.819   2.851   5.821  0.0543 -0.7201 -0.7004
 2315SOL    HW2 7766   4.661   2.850   5.862  0.2799  0.4021  0.2351
 2316SOL     OW 7767   5.176   3.812   4.495  0.2511 -0.2072 -0.1438
 2316SOL    HW1 7768   5.139   3.776   4.580  0.1170  1.8777  0.7160
 2316SOL    HW2 7769   5.202   3.908   4.507  2.4520 -0.5131 -1.7704
 2317SOL     OW 7770   1.690   2.109   0.426 -0.3821 -0.4406 -0.1087
 2317SOL    HW1 7771   1.729   2.137   0.514  1.1367 -0.1080 -0.8725
 2317SOL    HW2 7772   1.736   2.027   0.393 -0.5598 -0.2397 -0.8755
 2318SOL     OW 7773   3.939   5.429   4.199 -0.1354 -0.6635  0.1625
 2318SOL    HW1 7774   3.927   5.342   4.247  0.6096 -0.5085  0.6527
 2318SOL    HW2 7775   4.015   5.480   4.241 -0.9542  0.4908  0.2813
 2319SOL     OW 7776   2.311   4.918   0.609 -0.1239  0.5522 -0.1081
 2319SOL    HW1 7777   2.374   4.894   0.535 -0.9845  0.5598 -0.8645
 2319SOL    HW2 7778   2.223   4.872   0.594 -1.0560  2.3329 -0.3474
 2320SOL     OW 7779   4.352   5.200   6.402 -0.0033 -0.0794 -0.3403
 2320SOL    HW1 7780   4.372   5.282   6.349  0.8795 -0.5503 -0.7589
 2320SOL    HW2 7781   4.404   5.203   6.488  1.6503 -1.1259 -1.2568
 2321SOL     OW 7782   4.437   5.278   4.238  0.0317  0.3334  0.4206
 2321SOL    HW1 7783   4.361   5.219   4.263 -0.0049 -0.0416 -0.5149
 2321SOL    HW2 7784   4.447   5.280   4.138  0.4682  1.3648  0.4630
 2322SOL     OW 7785   1.043   4.528   3.018  0.6205 -0.2297  0.0970
 2322SOL    HW1 7786   0.952   4.505   2.986  0.0519  0.8214  0.8735
 2322SOL    HW2 7787   1.053   4.500   3.114  0.9330  0.1042  0.1656
 2323SOL     OW 7788   1.767   2.125   0.673 -0.3326  0.1946  0.5471
 2323SOL    HW1 7789   1.831   2.059   0.713 -0.4836  0.3948  1.1415
 2323SOL    HW2 7790   1.745   2.195   0.742 -1.2121  0.1107  0.3599
 2324SOL     OW 7791   4.806   1.208   3.483  0.0557 -0.2891 -0.0556
 2324SOL    HW1 7792   4.864   1.279   3.443  2.0830 -1.1009  1.3089
 2324SOL    HW2 7793   4.813   1.125   3.429  1.6438 -0.9373  1.0868
 2325SOL     OW 7794   4.482   1.557   0.422  0.5880  0.5779  0.2690
 2325SOL    HW1 7795   4.453   1.591   0.332  1.3986  1.5665  0.3540
 2325SOL    HW2 7796   4.573   1.516   0.414  0.7534  0.8610  0.6724
 2326SOL     OW 7797   0.815   6.161   5.034 -0.5739  0.7019 -0.1204
 2326SOL    HW1 7798   0.821   6.253   5.072 -0.7304  0.2625  1.0274
 2326SOL    HW2 7799   0.828   6.164   4.935  1.6534  1.7235  0.1410
 2327SOL     OW 7800   5.121   0.830   6.992  0.0439 -0.3439  0.3742
 2327SOL    HW1 7801   5.146   0.777   6.911 -0.7323  0.0282 -0.1262
 2327SOL    HW2 7802   5.038   0.790   7.032 -0.7551  0.6827 -0.2149
 2328SOL     OW 7803   4.123   1.165   3.726 -0.0698  0.0731 -1.0015
 2328SOL    HW1 7804   4.152   1.229   3.798  0.5207 -0.5665 -0.6604
 2328SOL    HW2 7805   4.169   1.189   3.640  0.0198  0.2110 -0.9171
 2329SOL     OW 7806   2.265   0.681   0.592  0.1524 -0.1083 -0.5780
 2329SOL    HW1 7807   2.199   0.755   0.583  1.6867  1.1788 -1.8081
 2329SOL    HW2 7808   2.299   0.678   0.686  1.2224  1.8305 -0.8595
 2330SOL     OW 7809   1.385   0.270   6.050  0.5003 -0.1105  0.1125
 2330SOL    HW1 7810   1.474   0.312   6.065 -0.3993  1.9357 -0.0010
 2330SOL    HW2 7811   1.341   0.312   5.971 -1.0101 -0.3036  0.8075
 2331SOL     OW 7812   2.886   1.618   4.852  0.1767  0.5061  0.0926
 2331SOL    HW1 7813   2.933   1.706   4.845 -1.4316  1.5586  1.5886
 2331SOL    HW2 7814   2.837   1.599   4.767  1.1286  0.6914 -0.5052
 2332SOL     OW 7815   2.551   1.577   0.003 -1.0006 -0.0531  0.2656
 2332SOL    HW1 7816   2.547   1.478  -0.009  0.4917 -0.1632  0.5175
 2332SOL    HW2 7817   2.632   1.614  -0.043 -0.7093  0.8328  1.4181
 2333SOL     OW 7818   5.624   0.963   4.005  0.0552  0.2609  0.6349
 2333SOL    HW1 7819   5.615   0.888   3.940  0.7583 -0.8677  1.7888
 2333SOL    HW2 7820   5.605   1.050   3.959  1.3107 -0.4035 -1.2670
 2334SOL     OW 7821   0.100   5.460   4.350  0.0446  0.1400 -0.0852
 2334SOL    HW1 7822   0.140   5.537   4.300  0.0151 -0.7476 -1.5356
 2334SOL    HW2 7823   0.153   5.377   4.331 -1.5049 -0.7394 -0.7489
 2335SOL     OW 7824   3.762   4.922   5.150 -0.1968 -0.1272 -0.3505
 2335SOL    HW1 7825   3.770   4.832   5.109 -0.6935 -0.6035  0.5532
 2335SOL    HW2 7826   3.713   4.915   5.237  1.1395  0.7615  0.5331
 2336SOL     OW 7827   4.562   0.548   2.786 -0.1665 -0.3711 -0.0389
 2336SOL    HW1 7828   4.541   0.546   2.884 -1.4371 -0.3129 -0.2877
 2336SOL    HW2 7829   4.540   0.460   2.745  1.7172 -0.8745 -0.0351
 2337SOL     OW 7830   2.304   2.933   5.315  0.5657  0.0047 -0.0165
 2337SOL    HW1 7831   2.369   2.892   5.251  0.4872 -0.1533  0.0044
 2337SOL    HW2 7832   2.334   2.916   5.408  1.3583  1.3208 -0.0104
 2338SOL     OW 7833   4.023   1.823   0.780  0.5967 -0.4418  0.1062
 2338SOL    HW1 7834   4.035   1.866   0.870  0.1862 -1.4689  0.6677
 2338SOL    HW2 7835   4.001   1.726   0.792 -1.8048 -0.0921 -1.0284
 2339SOL     OW 7836   1.890   3.265   0.586  0.1018 -0.0308  0.3573
 2339SOL    HW1 7837   1.835   3.314   0.654  0.6137  1.6348 -0.3823
 2339SOL    HW2 7838   1.850   3.277   0.496  0.3287 -0.8856  0.1277
 2340SOL     OW 7839   6.940   3.295   4.665 -0.3507  0.0822  0.3343
 2340SOL    HW1 7840   6.922   3.371   4.602  0.1025 -0.2819 -0.2493
 2340SOL    HW2 7841   6.949   3.330   4.758 -0.8737  0.6502  0.1814
 2341SOL     OW 7842   3.093   4.998   5.316  0.0227  0.3616 -0.3222
 2341SOL    HW1 7843   3.165   4.969   5.380 -0.8352 -0.8488  0.1350
 2341SOL    HW2 7844   3.090   5.098   5.312  1.1757  0.4353  0.2865
 2342SOL     OW 7845   2.634   0.302   2.273 -0.6192 -0.2343  0.1604
 2342SOL    HW1 7846   2.644   0.367   2.198 -0.3007 -0.7209 -0.2292
 2342SOL    HW2 7847   2.696   0.327   2.348  0.3366 -0.7096 -0.4441
 2343SOL     OW 7848   4.552   5.991   5.843  0.0054 -0.2946 -0.3471
 2343SOL    HW1 7849   4.557   6.087   5.816 -0.0109  0.0118  0.6920
 2343SOL    HW2 7850   4.456   5.961   5.842  0.0998 -0.5953 -1.6214
 2344SOL     OW 7851   1.468   3.469   5.960  0.4037 -0.2904  0.0432
 2344SOL    HW1 7852   1.513   3.536   5.901 -0.2092 -0.3086 -0.4574
 2344SOL    HW2 7853   1.452   3.385   5.908 -1.3034  0.1416 -0.1758
 2345SOL     OW 7854   0.797   1.618   2.569 -0.5357 -0.3396 -0.0545
 2345SOL    HW1 7855   0.801   1.559   2.649 -2.5558 -1.3179 -0.5909
 2345SOL    HW2 7856   0.787   1.713   2.597 -0.0375 -0.5362  0.8251
 2346SOL     OW 7857   4.347   3.294   6.986  0.0375 -0.4085 -0.1551
 2346SOL    HW1 7858   4.337   3.352   6.905 -3.2279  0.0784  0.4641
 2346SOL    HW2 7859   4.364   3.352   7.066 -2.6461 -0.2003  0.3670
 2347SOL     OW 7860   6.385   0.941   3.644 -0.2652  0.4075  0.0987
 2347SOL    HW1 7861   6.286   0.940   3.634 -0.0781  0.6696 -2.2212
 2347SOL    HW2 7862   6.427   0.976   3.560  1.8532 -0.9323  0.5282
 2348SOL     OW 7863   1.947   1.030   5.365  0.5557 -0.3381 -0.3403
 2348SOL    HW1 7864   1.903   1.011   5.453  0.1795  1.0662 -0.2027
 2348SOL    HW2 7865   2.033   1.078   5.381  0.8555 -0.7424 -0.7213
 2349SOL     OW 7866   1.778   4.224   3.991  0.9428  0.2441 -0.2429
 2349SOL    HW1 7867   1.765   4.218   4.090 -1.9981 -0.1709 -0.5624
 2349SOL    HW2 7868   1.815   4.138   3.956 -2.4744 -1.5209  0.0444
 2350SOL     OW 7869   5.124   5.436   3.168  0.4336 -0.4290  0.2174
 2350SOL    HW1 7870   5.117   5.535   3.157  0.8761 -0.5266 -1.1615
 2350SOL    HW2 7871   5.155   5.395   3.082  0.0902 -1.7874  0.7128
 2351SOL     OW 7872   6.576   0.245   2.140 -0.3760 -0.2955  0.2507
 2351SOL    HW1 7873   6.674   0.260   2.126 -0.3100 -0.7443  0.2269
 2351SOL    HW2 7874   6.536   0.326   2.184 -0.4665  0.8932 -1.8698
 2352SOL     OW 7875   0.975   2.522   5.034  0.5891 -0.4370  0.2908
 2352SOL    HW1 7876   0.925   2.451   4.984 -0.4077  0.4844 -0.0601
 2352SOL    HW2 7877   0.962   2.509   5.132  0.7982 -1.0018  0.2507
 2353SOL     OW 7878   1.937   0.631   2.322 -0.1606 -0.5929 -0.2618
 2353SOL    HW1 7879   1.938   0.715   2.267  0.5652 -0.2827  0.2059
 2353SOL    HW2 7880   2.025   0.620   2.368 -0.9105 -0.5581  1.2549
 2354SOL     OW 7881   0.997   5.131   1.978 -0.1888 -0.1166 -0.3275
 2354SOL    HW1 7882   1.050   5.048   1.997  1.3145  0.7401 -0.5956
 2354SOL    HW2 7883   1.054   5.211   1.994 -1.8331  0.9256  0.6467
 2355SOL     OW 7884   6.920   1.203   1.599 -0.1321  0.1703 -0.0019
 2355SOL    HW1 7885   6.959   1.150   1.524 -1.9403 -0.5944 -0.4569
 2355SOL    HW2 7886   6.964   1.176   1.685  0.7427 -0.2183 -0.5630
 2356SOL     OW 7887   6.670   0.468   3.030 -0.1850  0.1689 -0.2455
 2356SOL    HW1 7888   6.714   0.534   3.092 -2.2923  0.4129  1.0903
 2356SOL    HW2 7889   6.719   0.466   2.943  2.6043  0.2000  1.2078
 2357SOL     OW 7890   6.717   6.813   6.614  0.1849 -0.5219  0.1706
 2357SOL    HW1 7891   6.733   6.796   6.517  0.0070 -1.0897  0.2346
 2357SOL    HW2 7892   6.657   6.893   6.625  2.7457  1.5721 -0.0774
 2358SOL     OW 7893   2.003   4.931   0.079 -0.5091 -0.4055 -0.4448
 2358SOL    HW1 7894   2.081   4.947   0.020  0.2130 -2.3186 -0.0674
 2358SOL    HW2 7895   1.927   4.895   0.026 -0.6751  0.1324 -0.5793
 2359SOL     OW 7896   6.528   2.681   3.180  0.1629 -0.1630  0.1661
 2359SOL    HW1 7897   6.471   2.664   3.261 -1.7620  2.5314 -0.4869
 2359SOL    HW2 7898   6.576   2.768   3.191  1.2908 -0.6358 -0.8674
 2360SOL     OW 7899   3.754   4.818   5.905 -0.2981 -0.0272  0.0776
 2360SOL    HW1 7900   3.814   4.741   5.884 -0.2765  0.1328 -0.4678
 2360SOL    HW2 7901   3.754   4.835   6.004 -1.4389 -1.6293  0.3827
 2361SOL     OW 7902   6.963   5.826   3.148 -0.0929 -0.0982  0.1469
 2361SOL    HW1 7903   6.959   5.787   3.055 -0.4555  1.5482 -0.5684
 2361SOL    HW2 7904   7.035   5.781   3.199  2.3652  1.1187 -2.0190
 2362SOL     OW 7905   5.164   2.938   2.509 -0.5162 -0.4178  0.1001
 2362SOL    HW1 7906   5.263   2.932   2.515 -0.5035  0.1655  0.5466
 2362SOL    HW2 7907   5.125   2.938   2.602 -0.7943  1.5033  0.0223
 2363SOL     OW 7908   4.007   1.373   0.007 -0.2599 -0.2482 -0.1365
 2363SOL    HW1 7909   4.059   1.426   0.072  2.3320 -1.1736 -1.3303
 2363SOL    HW2 7910   3.989   1.428  -0.075  0.3790 -0.4586 -0.4231
 2364SOL     OW 7911   2.759   6.036   5.108  0.2506 -0.1467 -0.3224
 2364SOL    HW1 7912   2.852   5.999   5.118  1.1412  1.7533 -0.9598
 2364SOL    HW2 7913   2.764   6.136   5.104 -1.7932 -0.0312 -1.0203
 2365SOL     OW 7914   0.526   6.354   4.921 -0.0644 -0.3464  0.4352
 2365SOL    HW1 7915   0.497   6.446   4.895  0.4495 -0.3029  0.0071
 2365SOL    HW2 7916   0.623   6.354   4.946  0.1433 -0.9125 -0.3261
 2366SOL     OW 7917   2.221   5.910   1.945  0.2234 -0.0791 -0.7433
 2366SOL    HW1 7918   2.226   6.008   1.967  1.6852 -0.2836  0.0022
 2366SOL    HW2 7919   2.160   5.865   2.009  1.4365 -0.0223  0.5050
 2367SOL     OW 7920   0.328   4.356   0.082  0.0060 -0.3886  0.3341
 2367SOL    HW1 7921   0.245   4.311   0.115  1.1156 -0.8372  2.7824
 2367SOL    HW2 7922   0.397   4.354   0.154  2.2395 -0.2160 -1.6773
 2368SOL     OW 7923   0.282   2.280   2.160 -0.6573 -0.1140 -0.1498
 2368SOL    HW1 7924   0.256   2.253   2.253 -1.4934  0.0018 -0.3398
 2368SOL    HW2 7925   0.296   2.198   2.104 -1.2661 -0.1748 -0.2153
 2369SOL     OW 7926   0.248   4.969   6.895  0.0968  0.2085 -0.5595
 2369SOL    HW1 7927   0.214   4.978   6.988 -0.1298  0.7412 -0.6920
 2369SOL    HW2 7928   0.197   4.897   6.848  0.6597 -0.5203 -0.0743
 2370SOL     OW 7929   2.460   1.591   4.869  0.1821 -0.2121 -0.5829
 2370SOL    HW1 7930   2.513   1.538   4.934  2.9274  2.9187  0.0307
 2370SOL    HW2 7931   2.461   1.546   4.780  2.6132 -1.1117 -0.1748
 2371SOL     OW 7932   4.002   0.162   1.111  0.1061  0.3078 -0.6611
 2371SOL    HW1 7933   3.904   0.150   1.092 -0.0463  0.5860 -0.0960
 2371SOL    HW2 7934   4.044   0.072   1.126 -0.3124  0.2394  0.2184
 2372SOL     OW 7935   6.227   1.635   3.992  0.2336  0.0343  0.5385
 2372SOL    HW1 7936   6.184   1.725   4.000  1.3951  0.9853 -2.4297
 2372SOL    HW2 7937   6.161   1.569   3.956  0.4515  0.9111 -1.6929
 2373SOL     OW 7938   5.249   3.435   5.114 -0.1220  0.0104 -0.3685
 2373SOL    HW1 7939   5.255   3.382   5.030  2.4790  0.5782 -0.6262
 2373SOL    HW2 7940   5.253   3.533   5.092 -1.0357  0.2186  0.3348
 2374SOL     OW 7941   0.139   5.108   2.842 -0.0857 -0.5237  0.4787
 2374SOL    HW1 7942   0.237   5.085   2.844 -0.1314 -1.6360 -3.0045
 2374SOL    HW2 7943   0.101   5.098   2.934  3.1623  0.7090  2.1428
 2375SOL     OW 7944   6.983   6.869   0.566  0.0587  0.1962  0.2846
 2375SOL    HW1 7945   7.064   6.816   0.542 -0.4878  0.4065 -2.3405
 2375SOL    HW2 7946   7.003   6.966   0.558  0.2959  0.3775  2.4614
 2376SOL     OW 7947   3.090   5.536   4.201 -0.0473  0.4000  0.0381
 2376SOL    HW1 7948   3.092   5.556   4.299 -0.8593 -0.6129  0.2837
 2376SOL    HW2 7949   3.100   5.621   4.149  0.0368  0.9942  1.0002
 2377SOL     OW 7950   2.635   3.283   0.130 -0.1833 -0.3343 -0.5086
 2377SOL    HW1 7951   2.721   3.234   0.147 -0.1366  0.3157  1.3319
 2377SOL    HW2 7952   2.654   3.369   0.085 -0.0173 -0.8112 -1.3693
 2378SOL     OW 7953   0.802   1.375   4.661 -0.1885  0.0535  0.5283
 2378SOL    HW1 7954   0.719   1.344   4.708 -0.1934  1.4333  1.4851
 2378SOL    HW2 7955   0.776   1.423   4.577 -0.5313  2.0415  1.7009
 2379SOL     OW 7956   4.656   1.272   0.165 -0.1132 -0.0821 -0.0066
 2379SOL    HW1 7957   4.680   1.175   0.169 -1.9130 -0.6633 -1.6835
 2379SOL    HW2 7958   4.562   1.281   0.133  0.4221  2.2705 -1.0733
 2380SOL     OW 7959   5.386   5.003   1.273  0.0177 -0.5806 -0.2453
 2380SOL    HW1 7960   5.388   5.101   1.293 -1.6904 -0.8951  1.8101
 2380SOL    HW2 7961   5.471   4.976   1.229  0.4914  1.8217 -0.9775
 2381SOL     OW 7962   2.467   1.604   1.981  0.4442 -0.1325  0.1751
 2381SOL    HW1 7963   2.434   1.648   1.898 -2.0917  0.2147  1.2642
 2381SOL    HW2 7964   2.459   1.668   2.058  1.8990 -0.7299  0.8712
 2382SOL     OW 7965   3.298   4.431   6.285 -0.1012  0.2525 -0.4487
 2382SOL    HW1 7966   3.371   4.490   6.250 -0.5155  1.1378  0.1682
 2382SOL    HW2 7967   3.322   4.399   6.376  0.4599 -1.1533 -1.0544
 2383SOL     OW 7968   1.206   1.797   0.619  0.6773  0.1123 -0.0084
 2383SOL    HW1 7969   1.175   1.703   0.626  0.1991  0.0479 -2.1454
 2383SOL    HW2 7970   1.173   1.836   0.533  1.2162  2.1050  0.6352
 2384SOL     OW 7971   2.465   5.937   6.026 -0.1069 -0.3042  0.0028
 2384SOL    HW1 7972   2.492   6.023   6.069 -3.3253  0.7339  0.1363
 2384SOL    HW2 7973   2.460   5.865   6.095  3.3346 -0.9633 -0.2159
 2385SOL     OW 7974   6.575   1.365   5.030 -0.0453 -0.1162  0.0463
 2385SOL    HW1 7975   6.603   1.461   5.032 -1.7820  0.4515 -0.9441
 2385SOL    HW2 7976   6.478   1.359   5.007  0.2645 -2.1668 -0.9240
 2386SOL     OW 7977   3.448   2.141   6.659  0.1022 -0.6135 -0.3253
 2386SOL    HW1 7978   3.419   2.234   6.638  1.0476 -0.1557  0.3297
 2386SOL    HW2 7979   3.547   2.135   6.651  0.0510 -1.5542 -0.3164
 2387SOL     OW 7980   0.533   0.230   4.312  0.3824 -0.1206  0.3114
 2387SOL    HW1 7981   0.451   0.287   4.318 -0.3226 -1.0523 -0.1973
 2387SOL    HW2 7982   0.608   0.274   4.361 -0.5082  0.5920  1.0752
 2388SOL     OW 7983   6.435   3.658   4.578  0.1251  0.0987 -0.5509
 2388SOL    HW1 7984   6.481   3.586   4.631 -0.6537 -0.3106 -0.4111
 2388SOL    HW2 7985   6.473   3.747   4.602  0.2392 -0.1497  0.2077
 2389SOL     OW 7986   5.824   3.363   1.144 -0.1417 -0.1977  0.0562
 2389SOL    HW1 7987   5.786   3.450   1.175  2.0974  1.2388 -0.9703
 2389SOL    HW2 7988   5.888   3.329   1.213  1.8320  0.9684 -1.1136
 2390SOL     OW 7989   0.941   2.354   0.788 -0.1748  0.3681  0.3164
 2390SOL    HW1 7990   1.022   2.344   0.729 -0.1229  1.0124  0.2662
 2390SOL    HW2 7991   0.859   2.329   0.737 -0.0100 -0.3068  0.3719
 2391SOL     OW 7992   5.988   3.916   0.459 -0.4566 -0.2523 -0.7816
 2391SOL    HW1 7993   6.049   3.995   0.456 -2.2655  1.3070  0.6826
 2391SOL    HW2 7994   5.906   3.935   0.405 -1.7577 -0.3058  1.0886
 2392SOL     OW 7995   3.829   6.829   4.924  0.0314  0.1437 -0.0497
 2392SOL    HW1 7996   3.912   6.811   4.976 -1.1667 -0.2556  1.8191
 2392SOL    HW2 7997   3.788   6.742   4.895  0.5921  0.3556 -1.5765
 2393SOL     OW 7998   5.958   4.757   4.595  0.9222  0.0769 -0.1967
 2393SOL    HW1 7999   5.961   4.774   4.497  0.1916 -1.3213 -0.4999
 2393SOL    HW2 8000   5.864   4.766   4.628  0.9130 -0.8293  0.0742
 2394SOL     OW 8001   3.543   0.370   6.709 -0.2378  0.8271  0.0740
 2394SOL    HW1 8002   3.488   0.386   6.627 -0.2976  1.7371  0.2781
 2394SOL    HW2 8003   3.484   0.348   6.786 -0.1934  0.1479 -0.0813
 2395SOL     OW 8004   3.797   4.421   5.992 -0.2215  0.3713  0.6508
 2395SOL    HW1 8005   3.781   4.368   5.909 -1.0230  0.9193  0.4447
 2395SOL    HW2 8006   3.777   4.364   6.072  0.1724 -0.0334  0.4647
 2396SOL     OW 8007   4.960   1.726   3.973  0.1479 -0.2283 -0.9535
 2396SOL    HW1 8008   4.984   1.781   3.893  0.3057 -0.6829 -1.2236
 2396SOL    HW2 8009   4.905   1.647   3.944 -2.0482  0.9760 -0.3279
 2397SOL     OW 8010   0.150   4.546   0.807 -0.4306 -0.2216  0.2455
 2397SOL    HW1 8011   0.181   4.551   0.712  1.3392 -3.1676  0.5393
 2397SOL    HW2 8012   0.228   4.555   0.868 -0.8629 -2.5251  1.2327
 2398SOL     OW 8013   3.241   6.762   4.559 -0.4792 -0.3365 -0.1051
 2398SOL    HW1 8014   3.163   6.716   4.518 -0.2771 -0.2940 -0.5487
 2398SOL    HW2 8015   3.326   6.726   4.519 -0.3329  0.6747 -0.7431
 2399SOL     OW 8016   2.142   1.672   0.470  0.2069 -0.7091 -0.0645
 2399SOL    HW1 8017   2.067   1.693   0.533 -0.1333 -0.7120 -0.4642
 2399SOL    HW2 8018   2.229   1.705   0.509  0.0550 -1.0381  0.5691
 2400SOL     OW 8019   3.413   0.127   4.113 -0.7964 -0.0904  0.8974
 2400SOL    HW1 8020   3.389   0.097   4.020 -1.6165  0.7363  0.8233
 2400SOL    HW2 8021   3.411   0.049   4.175 -0.6955 -0.5713  0.3098
 2401SOL     OW 8022   5.978   1.039   2.740 -0.1866  0.3610 -0.2853
 2401SOL    HW1 8023   5.987   1.132   2.707 -0.0381  0.6811  0.6236
 2401SOL    HW2 8024   6.060   1.013   2.792 -0.2027 -0.2941 -0.5706
 2402SOL     OW 8025   6.325   4.165   2.646 -0.2798  0.1874 -0.3275
 2402SOL    HW1 8026   6.273   4.231   2.701  1.3096  0.8601  0.4376
 2402SOL    HW2 8027   6.313   4.186   2.549 -1.2419  0.4633 -0.1613
 2403SOL     OW 8028   1.340   5.714   5.066 -0.1320 -0.3182 -0.5486
 2403SOL    HW1 8029   1.380   5.802   5.039 -1.5101  0.7416  0.6715
 2403SOL    HW2 8030   1.390   5.677   5.144  0.6735 -0.8257 -1.2867
 2404SOL     OW 8031   1.634   4.681   1.021  0.1840  0.0551  0.2681
 2404SOL    HW1 8032   1.578   4.603   1.048  0.5376  0.3358  1.9656
 2404SOL    HW2 8033   1.709   4.651   0.964 -1.4964 -0.3677 -1.8435
 2405SOL     OW 8034   6.838   4.822   0.294 -0.1007  0.1355  0.1476
 2405SOL    HW1 8035   6.860   4.734   0.336 -0.2520 -0.6287 -1.3298
 2405SOL    HW2 8036   6.774   4.808   0.219 -2.5669  1.8586  1.7784
 2406SOL     OW 8037   3.890   0.045   2.574  0.3064 -0.2205 -0.8483
 2406SOL    HW1 8038   3.927   0.137   2.562 -0.3959 -0.1001 -2.3635
 2406SOL    HW2 8039   3.861   0.009   2.485 -0.7594 -1.3370 -0.0852
 2407SOL     OW 8040   6.550   0.904   5.257  0.0589 -0.2470 -0.2771
 2407SOL    HW1 8041   6.465   0.911   5.205  0.4832 -0.2576 -0.9774
 2407SOL    HW2 8042   6.613   0.843   5.210  2.3416  3.3948 -2.3870
 2408SOL     OW 8043   4.707   3.078   5.323  0.1837 -0.3558 -0.1118
 2408SOL    HW1 8044   4.760   3.135   5.260  1.8216 -2.7558 -1.0433
 2408SOL    HW2 8045   4.745   3.085   5.415  1.0359 -0.7291 -0.4298
 2409SOL     OW 8046   4.191   1.950   2.868  0.6688  0.4113 -0.4676
 2409SOL    HW1 8047   4.114   2.003   2.903  0.8313  1.5097 -1.6776
 2409SOL    HW2 8048   4.258   1.936   2.940 -0.1942  0.3093  0.3336
 2410SOL     OW 8049   2.803   3.942   1.231  0.1453  0.1829  0.0341
 2410SOL    HW1 8050   2.770   3.966   1.322 -0.2472 -0.4823  0.0816
 2410SOL    HW2 8051   2.741   3.979   1.162 -1.5313 -2.1409  0.1588
 2411SOL     OW 8052   1.075   1.890   1.702  0.7571  0.5446 -0.5517
 2411SOL    HW1 8053   1.028   1.803   1.719 -0.7904  1.2615 -0.9896
 2411SOL    HW2 8054   1.164   1.888   1.747  1.6183 -2.0019 -2.1249
 2412SOL     OW 8055   3.594   1.825   1.855 -0.3062  0.3203 -0.4169
 2412SOL    HW1 8056   3.523   1.814   1.925 -0.3666  0.6647 -0.4231
 2412SOL    HW2 8057   3.617   1.735   1.817 -0.7320  0.2029 -0.4088
 2413SOL     OW 8058   6.693   4.678   5.442 -0.6570  0.2687  0.2754
 2413SOL    HW1 8059   6.629   4.713   5.374 -1.6731  0.2243  1.1705
 2413SOL    HW2 8060   6.767   4.745   5.457 -0.5028  0.3325 -0.7509
 2414SOL     OW 8061   3.398   3.309   5.943 -0.0538 -0.2192  0.2453
 2414SOL    HW1 8062   3.424   3.289   6.037  0.4809 -0.0606  0.1386
 2414SOL    HW2 8063   3.353   3.230   5.902  0.2638 -0.5035  0.4422
 2415SOL     OW 8064   1.394   5.433   0.050  0.6640 -0.3182  0.0998
 2415SOL    HW1 8065   1.327   5.434  -0.024 -0.6859  0.8352  1.2846
 2415SOL    HW2 8066   1.470   5.494   0.027  0.6178 -0.5273 -0.6322
 2416SOL     OW 8067   3.205   1.671   4.889  0.1891  0.0900 -0.3768
 2416SOL    HW1 8068   3.230   1.646   4.983  0.0457 -1.1190 -0.6399
 2416SOL    HW2 8069   3.284   1.712   4.844  0.9219 -1.2474 -0.3624
 2417SOL     OW 8070   0.783   4.275   5.112  0.0241 -0.1088 -0.3239
 2417SOL    HW1 8071   0.870   4.236   5.081  0.2747  0.5917 -0.5265
 2417SOL    HW2 8072   0.796   4.371   5.138 -0.7450  0.0961 -0.6425
 2418SOL     OW 8073   2.987   0.033   5.580  0.3892  0.0166  0.1099
 2418SOL    HW1 8074   3.083   0.027   5.555  0.2345  0.7654 -0.7223
 2418SOL    HW2 8075   2.964   0.128   5.602 -0.5501  0.1896 -1.4208
 2419SOL     OW 8076   1.963   2.849   4.938 -0.1333 -0.0951  0.6472
 2419SOL    HW1 8077   2.007   2.793   5.008 -1.7467 -1.1729  0.8556
 2419SOL    HW2 8078   1.924   2.930   4.980  0.3837  0.1312  0.6983
 2420SOL     OW 8079   3.378   0.946   1.215  0.3723  0.0828  0.5452
 2420SOL    HW1 8080   3.388   0.860   1.164 -0.2510 -0.7251  1.7369
 2420SOL    HW2 8081   3.282   0.973   1.217  0.4282  0.2620  1.0196
 2421SOL     OW 8082   5.535   2.691   4.971 -0.3539  0.2216  0.0704
 2421SOL    HW1 8083   5.614   2.682   4.909 -0.2630  1.4498 -0.0247
 2421SOL    HW2 8084   5.482   2.607   4.970  0.1598 -0.1073 -0.9850
 2422SOL     OW 8085   5.714   6.508   5.855  0.6358 -0.4377  0.2018
 2422SOL    HW1 8086   5.744   6.501   5.950  0.3380 -2.5879  0.1881
 2422SOL    HW2 8087   5.627   6.460   5.843 -0.3436  1.4515 -0.7960
 2423SOL     OW 8088   5.436   5.764   1.825 -0.0970 -0.3373 -0.1975
 2423SOL    HW1 8089   5.350   5.773   1.773 -0.0114 -0.0377 -0.2904
 2423SOL    HW2 8090   5.480   5.677   1.800 -0.6979 -0.8080  0.3459
 2424SOL     OW 8091   4.202   5.283   5.712  0.3455  0.5744 -0.0252
 2424SOL    HW1 8092   4.222   5.192   5.749 -0.8928  0.1210 -0.4348
 2424SOL    HW2 8093   4.139   5.331   5.772 -0.3875  0.4698 -0.6929
 2425SOL     OW 8094   3.477   6.785   4.822 -0.6644  0.0795 -0.3154
 2425SOL    HW1 8095   3.499   6.840   4.741 -0.2735  0.2253 -0.1096
 2425SOL    HW2 8096   3.436   6.843   4.892  0.1918  0.2088  0.0873
 2426SOL     OW 8097   4.670   1.251   1.255 -0.3930  0.0426  0.1567
 2426SOL    HW1 8098   4.729   1.242   1.175 -0.9032 -1.1443 -0.0998
 2426SOL    HW2 8099   4.693   1.181   1.322 -0.2629  0.7564  0.8815
 2427SOL     OW 8100   6.437   5.098   6.270  0.2310  0.0768  0.5012
 2427SOL    HW1 8101   6.436   5.163   6.195  1.4506 -0.8267 -0.3367
 2427SOL    HW2 8102   6.346   5.091   6.310 -0.3936  0.6988 -0.7824
 2428SOL     OW 8103   2.436   6.789   5.862 -0.8746  0.7499 -0.1091
 2428SOL    HW1 8104   2.409   6.884   5.845 -2.7600  0.2077 -0.4290
 2428SOL    HW2 8105   2.353   6.733   5.874  0.1982 -0.8321  0.1824
 2429SOL     OW 8106   3.956   5.388   1.334 -0.4172  0.1195 -0.0904
 2429SOL    HW1 8107   3.984   5.351   1.245 -0.3310  0.2527 -0.1185
 2429SOL    HW2 8108   4.031   5.442   1.372 -0.4315  0.0078  0.0930
 2430SOL     OW 8109   5.152   4.868   0.140 -0.0530 -0.4664 -0.1077
 2430SOL    HW1 8110   5.087   4.935   0.176  1.0905 -0.4605  2.1124
 2430SOL    HW2 8111   5.104   4.785   0.114 -0.9809 -0.4087  1.3379
 2431SOL     OW 8112   1.363   6.484   4.949  0.4368  0.3096 -0.2079
 2431SOL    HW1 8113   1.312   6.570   4.937 -1.8107 -0.8905  0.1224
 2431SOL    HW2 8114   1.412   6.487   5.036 -2.9475 -0.1505  1.9217
 2432SOL     OW 8115   1.509   0.971   5.368 -0.0087  0.3130  0.2922
 2432SOL    HW1 8116   1.494   0.980   5.467  0.8611 -1.1290  0.5887
 2432SOL    HW2 8117   1.468   0.885   5.336  0.0037  0.6129 -0.5461
 2433SOL     OW 8118   2.612   6.502   3.280 -0.0524 -0.2879  0.1627
 2433SOL    HW1 8119   2.663   6.424   3.243  0.2499 -0.5222  1.0440
 2433SOL    HW2 8120   2.615   6.578   3.215  3.1108  0.4145  0.9630
 2434SOL     OW 8121   1.503   6.329   4.492  0.1256  0.0689 -0.2793
 2434SOL    HW1 8122   1.565   6.399   4.526  0.5143 -0.0933 -0.6353
 2434SOL    HW2 8123   1.483   6.347   4.396 -2.4408  1.5878  0.4503
 2435SOL     OW 8124   5.764   3.836   0.893  0.2077 -0.1743 -0.4952
 2435SOL    HW1 8125   5.834   3.806   0.958 -0.3628 -1.3030 -0.3749
 2435SOL    HW2 8126   5.772   3.783   0.809 -0.1945  0.0395 -0.6714
 2436SOL     OW 8127   6.138   0.440   6.971 -0.2717 -0.3830  0.9182
 2436SOL    HW1 8128   6.130   0.536   6.945 -2.4567 -0.0956  2.4074
 2436SOL    HW2 8129   6.156   0.385   6.889 -1.3856  1.0418 -0.3520
 2437SOL     OW 8130   0.140   1.239   4.126 -0.4447  0.3768 -0.2924
 2437SOL    HW1 8131   0.051   1.234   4.081  0.7677 -0.0495 -2.8208
 2437SOL    HW2 8132   0.177   1.147   4.139  0.3644  0.6162 -0.8439
 2438SOL     OW 8133   5.168   2.631   3.177  0.2811 -0.0774  0.0408
 2438SOL    HW1 8134   5.141   2.727   3.188  1.4498  0.0964  1.7457
 2438SOL    HW2 8135   5.259   2.627   3.136 -0.0609 -0.5163 -0.7109
 2439SOL     OW 8136   0.647   5.231   2.312  0.2642 -0.7206 -0.2653
 2439SOL    HW1 8137   0.746   5.226   2.307  0.3190 -3.8401  1.5121
 2439SOL    HW2 8138   0.619   5.253   2.406 -0.7991  1.2077 -0.9611
 2440SOL     OW 8139   2.768   0.029   2.469 -0.0123  0.1107  0.5718
 2440SOL    HW1 8140   2.757  -0.044   2.401 -1.9927  2.1911 -1.5347
 2440SOL    HW2 8141   2.847   0.085   2.444 -0.9325  1.0703 -0.3018
 2441SOL     OW 8142   0.340   0.792   4.579 -0.5994  0.3920  0.5252
 2441SOL    HW1 8143   0.400   0.863   4.618 -0.0681 -0.0057  0.4547
 2441SOL    HW2 8144   0.287   0.750   4.652 -1.0368  0.9740  0.5432
 2442SOL     OW 8145   0.320   4.552   1.771 -0.1139 -0.6085 -0.2899
 2442SOL    HW1 8146   0.291   4.532   1.677 -1.1995  0.7444 -0.2730
 2442SOL    HW2 8147   0.420   4.554   1.775 -0.0462 -0.8115 -1.3807
 2443SOL     OW 8148   0.219   5.263   6.453 -0.0578 -0.2363  0.5355
 2443SOL    HW1 8149   0.190   5.336   6.514  1.0004  0.6585 -0.0012
 2443SOL    HW2 8150   0.169   5.179   6.475  0.5252 -0.0413  2.8348
 2444SOL     OW 8151   3.305   4.798   0.621 -0.9587  0.8550  0.3018
 2444SOL    HW1 8152   3.254   4.848   0.551  0.9186  0.0333 -1.7935
 2444SOL    HW2 8153   3.378   4.857   0.656 -0.6132  0.5914  0.0319
 2445SOL     OW 8154   3.630   0.006   6.452  0.0477 -0.0537  0.2318
 2445SOL    HW1 8155   3.603  -0.009   6.547 -0.2434 -1.2251 -0.0318
 2445SOL    HW2 8156   3.620   0.104   6.431 -0.1005  0.1895  1.3267
 2446SOL     OW 8157   4.758   1.887   0.406  0.4897  0.3185 -0.0465
 2446SOL    HW1 8158   4.790   1.827   0.332 -0.7656 -1.3408  0.7111
 2446SOL    HW2 8159   4.707   1.964   0.366  2.8771  1.4818 -1.0801
 2447SOL     OW 8160   6.324   5.258   6.619  0.4964 -0.2679 -0.3007
 2447SOL    HW1 8161   6.266   5.333   6.652  0.9634 -0.0545  0.0429
 2447SOL    HW2 8162   6.312   5.178   6.678 -0.9961 -0.9216 -1.4276
 2448SOL     OW 8163   1.925   3.441   1.479 -0.5704  0.5971 -0.5146
 2448SOL    HW1 8164   2.011   3.476   1.515  0.1467  0.3819 -1.9570
 2448SOL    HW2 8165   1.880   3.385   1.549  0.7530  0.2231  0.0657
 2449SOL     OW 8166   1.524   5.779   4.338  0.0579 -0.0722  0.6206
 2449SOL    HW1 8167   1.603   5.717   4.341 -1.0210 -1.4867  0.9416
 2449SOL    HW2 8168   1.540   5.850   4.269  1.0793 -1.0763 -0.2152
 2450SOL     OW 8169   4.898   1.065   5.736  0.6072  0.3749 -0.3278
 2450SOL    HW1 8170   4.869   1.121   5.814  0.4430 -0.5643  0.3136
 2450SOL    HW2 8171   4.989   1.092   5.707  0.8578  0.4454  0.5005
 2451SOL     OW 8172   4.418   3.552   2.520  0.0825  0.2195 -0.1496
 2451SOL    HW1 8173   4.417   3.459   2.559 -0.6009 -0.2938 -1.3543
 2451SOL    HW2 8174   4.420   3.619   2.595  0.8702 -0.7559  0.7375
 2452SOL     OW 8175   3.090   5.691   1.852  0.0019  0.1071 -0.0637
 2452SOL    HW1 8176   3.165   5.704   1.786 -0.7284  0.9541 -0.7620
 2452SOL    HW2 8177   3.040   5.608   1.830 -0.0736  0.2438 -0.4172
 2453SOL     OW 8178   6.770   2.117   0.293  0.0438 -0.0030 -0.1633
 2453SOL    HW1 8179   6.812   2.155   0.376 -0.4092 -2.4235  1.2937
 2453SOL    HW2 8180   6.703   2.047   0.319 -0.2188 -0.7536 -2.5995
 2454SOL     OW 8181   4.040   6.664   3.701  0.0673 -0.5123  0.4609
 2454SOL    HW1 8182   4.036   6.616   3.613  0.2528 -1.4285  0.9407
 2454SOL    HW2 8183   4.082   6.605   3.770  2.1247  1.0499  0.6349
 2455SOL     OW 8184   3.026   3.170   4.645  0.1834  0.2199 -0.0542
 2455SOL    HW1 8185   2.963   3.248   4.650  1.1970  1.0768 -0.2696
 2455SOL    HW2 8186   2.984   3.097   4.590 -0.8707  0.5121  0.3340
 2456SOL     OW 8187   3.311   5.025   5.030  1.1985 -0.1728  0.3131
 2456SOL    HW1 8188   3.318   5.095   4.959  2.2290 -1.2419 -0.6972
 2456SOL    HW2 8189   3.226   5.037   5.081  0.6230  0.8789 -0.8431
 2457SOL     OW 8190   1.385   5.274   5.801 -0.1768 -0.0975 -0.3041
 2457SOL    HW1 8191   1.298   5.278   5.850  0.7010 -0.7787  1.3989
 2457SOL    HW2 8192   1.383   5.198   5.735 -0.4083 -0.9781  0.6963
 2458SOL     OW 8193   3.541   5.700   3.829  0.0522  0.3691 -0.1036
 2458SOL    HW1 8194   3.506   5.707   3.922 -0.2356 -1.1615 -0.0739
 2458SOL    HW2 8195   3.485   5.758   3.768 -1.5864 -0.8099  0.2038
 2459SOL     OW 8196   4.053   4.255   3.048 -0.3576  0.0096 -0.1905
 2459SOL    HW1 8197   4.075   4.311   3.127 -0.0250 -1.0181  0.4624
 2459SOL    HW2 8198   3.955   4.232   3.050 -0.1584 -0.8380  0.4844
 2460SOL     OW 8199   3.840   4.597   1.056 -0.6612  0.9202 -0.6452
 2460SOL    HW1 8200   3.876   4.561   0.970 -2.3000  0.3439 -1.1236
 2460SOL    HW2 8201   3.871   4.691   1.069  2.2728 -0.0006 -0.2420
 2461SOL     OW 8202   0.642   1.918   5.285  0.8408  0.3528  0.2518
 2461SOL    HW1 8203   0.619   2.013   5.267 -1.1829 -0.4373 -1.6900
 2461SOL    HW2 8204   0.702   1.883   5.213  0.3257 -0.2671  0.1150
 2462SOL     OW 8205   0.969   5.366   2.742  0.2384  0.8431  0.5413
 2462SOL    HW1 8206   1.007   5.434   2.805  1.1636 -1.3297  2.5047
 2462SOL    HW2 8207   1.011   5.277   2.761 -2.1990 -0.6688 -0.6806
 2463SOL     OW 8208   4.799   3.792   1.774  0.6645  0.3509 -0.3194
 2463SOL    HW1 8209   4.772   3.700   1.746  0.1774  0.5210 -0.4107
 2463SOL    HW2 8210   4.888   3.814   1.734  0.2674  0.3518 -1.2353
 2464SOL     OW 8211   1.481   4.505   2.335  0.0196  0.3081 -0.0844
 2464SOL    HW1 8212   1.525   4.527   2.422  2.3271  0.6761 -1.2757
 2464SOL    HW2 8213   1.524   4.424   2.295 -0.3470  0.7094 -1.3441
 2465SOL     OW 8214   4.293   4.379   0.412 -0.1186  0.0770 -0.1673
 2465SOL    HW1 8215   4.293   4.288   0.455  2.1160  0.6885  1.2798
 2465SOL    HW2 8216   4.200   4.415   0.411 -0.8322 -1.6355  0.5184
 2466SOL     OW 8217   0.854   6.211   2.196  0.8543  0.1368 -0.2904
 2466SOL    HW1 8218   0.783   6.158   2.242  0.7096  0.2885 -0.3378
 2466SOL    HW2 8219   0.818   6.248   2.111  0.7168  0.9554  0.1192
 2467SOL     OW 8220   3.863   0.167   2.916  0.8860 -0.0569 -0.1329
 2467SOL    HW1 8221   3.836   0.226   2.840  1.8851  0.7783  0.1208
 2467SOL    HW2 8222   3.800   0.179   2.992 -0.3279 -1.1676 -0.9361
 2468SOL     OW 8223   3.713   3.135   4.949 -0.2596  0.1081  0.3882
 2468SOL    HW1 8224   3.735   3.223   4.906  0.2861 -0.0322  0.3817
 2468SOL    HW2 8225   3.626   3.143   4.998 -0.4321  0.5275  0.0232
 2469SOL     OW 8226   3.090   6.561   3.789 -0.0780 -0.2998  0.0209
 2469SOL    HW1 8227   3.065   6.573   3.693 -0.3331 -1.6149 -0.1023
 2469SOL    HW2 8228   3.035   6.622   3.846  0.6832  1.1244 -0.7154
 2470SOL     OW 8229   2.548   0.554   4.760 -0.2061 -0.0342  0.0357
 2470SOL    HW1 8230   2.471   0.494   4.738  0.3160 -0.4168 -0.7974
 2470SOL    HW2 8231   2.521   0.649   4.747 -0.5522 -0.1672 -0.2234
 2471SOL     OW 8232   1.239   6.356   4.561 -0.5850  0.1436  0.1853
 2471SOL    HW1 8233   1.334   6.337   4.537 -0.2363  0.0288  1.5986
 2471SOL    HW2 8234   1.179   6.294   4.510  0.1887 -0.8695  0.4677
 2472SOL     OW 8235   1.631   2.851   0.650 -0.4091  0.6945 -0.4924
 2472SOL    HW1 8236   1.640   2.803   0.736  0.0569  0.2824 -0.7675
 2472SOL    HW2 8237   1.677   2.940   0.656 -0.1191  0.5369 -0.4194
 2473SOL     OW 8238   1.128   3.196   4.187  0.1877  0.2105 -0.3106
 2473SOL    HW1 8239   1.043   3.144   4.181  0.9590 -0.9171 -2.7644
 2473SOL    HW2 8240   1.204   3.138   4.157  1.3825  2.1091 -1.0931
 2474SOL     OW 8241   3.115   4.098   0.169  0.1909 -0.6450  0.2706
 2474SOL    HW1 8242   3.211   4.119   0.156 -0.0370  2.0545  2.2122
 2474SOL    HW2 8243   3.098   4.074   0.264 -1.3163  0.8990  0.4367
 2475SOL     OW 8244   5.038   3.751   4.722  0.7682 -0.9197 -0.0206
 2475SOL    HW1 8245   4.971   3.796   4.663  0.7981  0.0835  0.6805
 2475SOL    HW2 8246   5.011   3.657   4.738  0.3740 -0.9863 -1.0362
 2476SOL     OW 8247   1.114   2.893   3.171  0.6577  0.1953 -1.0059
 2476SOL    HW1 8248   1.113   2.794   3.185  0.1882  0.4699  1.3486
 2476SOL    HW2 8249   1.020   2.927   3.167  0.7745  0.7157  0.0707
 2477SOL     OW 8250   2.164   5.140   6.082 -0.2742 -0.2895 -0.4021
 2477SOL    HW1 8251   2.205   5.049   6.089 -0.6899 -0.4269  0.4149
 2477SOL    HW2 8252   2.064   5.131   6.084 -0.3160  0.1845 -0.2860
 2478SOL     OW 8253   5.052   0.081   1.316  0.0595 -0.0577 -0.4905
 2478SOL    HW1 8254   4.963   0.126   1.316 -0.6133 -1.2537  1.2768
 2478SOL    HW2 8255   5.050   0.001   1.257 -0.1608 -0.2689 -0.2016
 2479SOL     OW 8256   4.727   5.617   4.798  0.3219 -0.2237  0.1033
 2479SOL    HW1 8257   4.807   5.673   4.776 -0.4852  0.7203 -0.5191
 2479SOL    HW2 8258   4.711   5.620   4.897 -0.8333  2.2977 -0.0825
 2480SOL     OW 8259   2.046   5.488   1.879  0.1906 -0.0452  0.0385
 2480SOL    HW1 8260   2.059   5.418   1.810  2.1226 -0.0522  0.3531
 2480SOL    HW2 8261   2.022   5.446   1.966  1.8413 -0.4323  0.3546
 2481SOL     OW 8262   4.581   1.982   5.748  0.0172 -0.2181 -0.0575
 2481SOL    HW1 8263   4.602   1.932   5.664  1.3534  0.0106  0.1111
 2481SOL    HW2 8264   4.576   1.918   5.824  1.6960 -0.1630  0.1535
 2482SOL     OW 8265   6.137   2.412   0.167 -0.0080  0.0157  0.6003
 2482SOL    HW1 8266   6.075   2.419   0.245 -0.0890  0.2703  0.5139
 2482SOL    HW2 8267   6.194   2.494   0.163 -0.0789  0.0515  0.3274
 2483SOL     OW 8268   3.002   5.705   2.115 -0.0601  0.5789 -0.3718
 2483SOL    HW1 8269   3.016   5.797   2.151  0.9748  0.4235 -0.3464
 2483SOL    HW2 8270   3.043   5.697   2.025  2.3520 -0.6106  0.7420
 2484SOL     OW 8271   2.089   4.209   0.223  0.4082  0.2964  0.0028
 2484SOL    HW1 8272   2.110   4.112   0.206 -1.9905 -0.0342 -1.6433
 2484SOL    HW2 8273   2.113   4.262   0.142  0.3582  0.8437  0.3464
 2485SOL     OW 8274   5.887   4.191   5.778  0.0498  0.7687 -0.1173
 2485SOL    HW1 8275   5.927   4.243   5.702  2.0405 -0.9811 -0.3474
 2485SOL    HW2 8276   5.947   4.197   5.858 -2.0937  2.7291  1.4931
 2486SOL     OW 8277   6.306   3.768   3.130  0.1824 -0.1090  0.5486
 2486SOL    HW1 8278   6.354   3.687   3.096 -1.4559 -1.6956  1.8389
 2486SOL    HW2 8279   6.238   3.797   3.062 -0.9223 -1.3671  1.0701
 2487SOL     OW 8280   4.659   3.540   1.247 -0.1260 -0.4038  0.7608
 2487SOL    HW1 8281   4.658   3.440   1.239 -1.3154 -0.4523  1.2147
 2487SOL    HW2 8282   4.619   3.566   1.335  1.5323  0.4389  1.2910
 2488SOL     OW 8283   3.826   6.046   3.480  0.1926 -0.1464 -0.1055
 2488SOL    HW1 8284   3.733   6.036   3.516 -0.6427 -0.5723 -2.2382
 2488SOL    HW2 8285   3.839   6.138   3.445  0.2914 -0.3146 -0.5214
 2489SOL     OW 8286   6.313   6.228   5.493 -0.3130 -0.2212 -0.2634
 2489SOL    HW1 8287   6.404   6.186   5.493 -0.9692 -1.7355  1.0239
 2489SOL    HW2 8288   6.310   6.299   5.564 -0.2584 -0.4610 -0.0184
 2490SOL     OW 8289   0.454   3.201   5.898  0.4540  0.1967 -0.5561
 2490SOL    HW1 8290   0.545   3.176   5.932  1.0349  0.7137 -1.6688
 2490SOL    HW2 8291   0.389   3.128   5.921  0.7830  0.5195  1.6410
 2491SOL     OW 8292   4.542   2.083   2.823  0.5962 -0.4511  0.6216
 2491SOL    HW1 8293   4.520   2.041   2.911  2.2220 -0.1398  1.2122
 2491SOL    HW2 8294   4.587   2.016   2.764 -1.8708 -1.1302 -0.6359
 2492SOL     OW 8295   5.469   0.039   2.110  0.7739  0.0970 -0.1148
 2492SOL    HW1 8296   5.380   0.023   2.067  0.9500 -0.9919 -0.1127
 2492SOL    HW2 8297   5.480   0.136   2.130 -0.6265  0.1841  0.3373
 2493SOL     OW 8298   2.582   6.361   4.593  0.0409  0.0338 -0.0077
 2493SOL    HW1 8299   2.533   6.296   4.652 -0.9875 -0.4453 -1.3486
 2493SOL    HW2 8300   2.521   6.436   4.569  0.8114  0.8269  0.4263
 2494SOL     OW 8301   3.724   0.529   5.936  0.6687  0.1209  0.6328
 2494SOL    HW1 8302   3.729   0.613   5.989 -2.3502  1.1456 -0.4739
 2494SOL    HW2 8303   3.630   0.494   5.937  1.4823 -2.3635 -0.2983
 2495SOL     OW 8304   5.984   1.744   4.271 -0.0555 -0.0255 -0.1394
 2495SOL    HW1 8305   6.015   1.650   4.255 -0.7455 -0.4035  0.6712
 2495SOL    HW2 8306   5.977   1.792   4.183  2.3028 -0.0646 -0.4141
 2496SOL     OW 8307   3.521   6.003   1.492 -0.2866 -0.1171  0.0893
 2496SOL    HW1 8308   3.459   6.007   1.413 -0.1050  1.7638 -0.0121
 2496SOL    HW2 8309   3.616   6.003   1.460 -0.2121  0.6750  0.2757
 2497SOL     OW 8310   1.460   3.082   6.373 -0.0055  0.1283  0.2622
 2497SOL    HW1 8311   1.527   3.066   6.300  0.4336  1.3898  0.3582
 2497SOL    HW2 8312   1.424   3.175   6.365 -1.8704 -0.5609  0.1371
 2498SOL     OW 8313   4.949   6.535   2.960  0.0787 -0.3536  0.3922
 2498SOL    HW1 8314   5.034   6.582   2.936 -0.1111  0.2947  0.9593
 2498SOL    HW2 8315   4.876   6.602   2.974  0.1025 -0.6914  2.4706
 2499SOL     OW 8316   5.471   2.595   2.602  0.7096 -0.4743  0.2948
 2499SOL    HW1 8317   5.452   2.500   2.576  0.2162 -0.4026  0.3873
 2499SOL    HW2 8318   5.426   2.616   2.689  2.1061 -0.6201  1.0797
 2500SOL     OW 8319   2.535   6.639   2.529  0.1238  0.5489 -0.2174
 2500SOL    HW1 8320   2.613   6.585   2.498  1.2309  2.5324 -1.1440
 2500SOL    HW2 8321   2.530   6.636   2.629  1.7847  0.8385 -0.0891
 2501SOL     OW 8322   3.382   4.664   1.789  0.3616 -0.5067  0.5789
 2501SOL    HW1 8323   3.460   4.727   1.795 -0.4086  0.6952 -1.0319
 2501SOL    HW2 8324   3.414   4.571   1.774  1.5244  0.1168 -1.0963
 2502SOL     OW 8325   2.665   5.420   4.742 -0.1270 -0.0203  0.0667
 2502SOL    HW1 8326   2.667   5.381   4.650 -0.8133  0.8821 -0.3451
 2502SOL    HW2 8327   2.702   5.354   4.807 -0.1751 -0.8950 -0.7731
 2503SOL     OW 8328   6.323   2.292   6.541  0.6449  1.1037 -0.3165
 2503SOL    HW1 8329   6.254   2.220   6.531  0.8940  0.9916 -1.3141
 2503SOL    HW2 8330   6.281   2.381   6.524  0.4721  1.1501  0.3251
 2504SOL     OW 8331   2.705   2.427   0.108 -0.2971 -0.1965 -0.5333
 2504SOL    HW1 8332   2.778   2.400   0.045 -0.1134  0.6253 -0.6793
 2504SOL    HW2 8333   2.651   2.346   0.132 -0.4028 -0.5136 -1.7741
 2505SOL     OW 8334   1.803   2.957   1.958  0.5084  0.2014  0.0729
 2505SOL    HW1 8335   1.709   2.988   1.965  0.3228 -0.3280 -0.0441
 2505SOL    HW2 8336   1.848   3.002   1.882 -0.5999 -1.8988 -1.9592
 2506SOL     OW 8337   3.525   6.302   2.518  0.3587  0.6596  0.5645
 2506SOL    HW1 8338   3.462   6.267   2.587 -2.0165  2.8704 -0.2953
 2506SOL    HW2 8339   3.600   6.350   2.563 -1.3017  2.3331  1.7337
 2507SOL     OW 8340   0.307   4.498   1.483  0.1693  0.5844 -0.1398
 2507SOL    HW1 8341   0.335   4.442   1.404  0.1134  0.2626  0.0653
 2507SOL    HW2 8342   0.303   4.594   1.456  1.5897  0.6626 -0.1590
 2508SOL     OW 8343   4.993   3.440   2.735 -0.1212  0.0009  0.3701
 2508SOL    HW1 8344   4.924   3.410   2.669  1.4405  2.1308 -2.4161
 2508SOL    HW2 8345   5.033   3.359   2.779 -0.1336 -1.7080 -2.4755
 2509SOL     OW 8346   1.808   2.908   1.535 -0.0447 -0.2353 -0.0187
 2509SOL    HW1 8347   1.745   2.846   1.582  0.8471 -1.0382  0.1596
 2509SOL    HW2 8348   1.767   2.939   1.449 -1.1296  0.1520  0.6175
 2510SOL     OW 8349   6.562   5.313   2.402  0.3489 -0.2213  0.1084
 2510SOL    HW1 8350   6.654   5.274   2.393  1.4448  2.1772  0.3307
 2510SOL    HW2 8351   6.553   5.357   2.491 -1.3219 -1.0584  0.3976
 2511SOL     OW 8352   2.117   5.940   5.116 -0.0354 -0.2133  0.4189
 2511SOL    HW1 8353   2.197   5.997   5.135  1.0375 -1.2007 -0.9269
 2511SOL    HW2 8354   2.039   5.973   5.169  0.7403  2.0047  0.2835
 2512SOL     OW 8355   6.118   2.025   6.931  0.4089  0.1516  0.4374
 2512SOL    HW1 8356   6.048   1.962   6.965 -0.1294  0.9290  0.7794
 2512SOL    HW2 8357   6.197   1.972   6.900 -0.4697 -0.7662 -0.3251
 2513SOL     OW 8358   4.910   0.628   4.033  0.3851  0.2250  0.1904
 2513SOL    HW1 8359   5.008   0.645   4.034  0.3676  0.5516  2.4308
 2513SOL    HW2 8360   4.878   0.618   4.127 -1.9814  1.5305 -0.4092
 2514SOL     OW 8361   5.844   4.302   2.413 -0.3124  0.0154 -0.2696
 2514SOL    HW1 8362   5.905   4.378   2.436  1.3453 -0.7298 -1.9344
 2514SOL    HW2 8363   5.757   4.313   2.461  0.7724  1.6257  1.4610
 2515SOL     OW 8364   0.440   1.195   3.322 -0.3377  0.3008  0.4879
 2515SOL    HW1 8365   0.464   1.185   3.419  2.0227  1.6765  0.1309
 2515SOL    HW2 8366   0.353   1.243   3.314  0.1722  1.5720  1.9653
 2516SOL     OW 8367   2.536   1.126   4.662  0.4072  0.1917 -0.1660
 2516SOL    HW1 8368   2.489   1.147   4.575  1.0466  0.9576 -0.3428
 2516SOL    HW2 8369   2.618   1.182   4.669  2.6545 -2.7670 -0.9545
 2517SOL     OW 8370   1.676   6.837   3.031  0.2607  0.0853  0.6598
 2517SOL    HW1 8371   1.632   6.775   3.096  0.9024 -1.5090 -0.3892
 2517SOL    HW2 8372   1.616   6.916   3.015 -1.0604 -0.7759  1.1839
 2518SOL     OW 8373   6.832   3.069   0.666  0.3270  0.0359  0.0195
 2518SOL    HW1 8374   6.750   3.026   0.629 -1.5357  1.8519  1.7756
 2518SOL    HW2 8375   6.808   3.124   0.746  3.1382  1.3748  0.0691
 2519SOL     OW 8376   3.286   5.597   1.237  0.0298  0.3219 -0.0172
 2519SOL    HW1 8377   3.251   5.554   1.320 -0.3477  0.4560 -0.1023
 2519SOL    HW2 8378   3.228   5.571   1.159  0.8776 -0.4857 -0.3880
 2520SOL     OW 8379   5.699   2.823   5.821  0.4098 -0.5787 -0.5739
 2520SOL    HW1 8380   5.694   2.911   5.773  0.6010 -0.8091 -1.0238
 2520SOL    HW2 8381   5.607   2.791   5.843  0.3478  0.9347  1.8465
 2521SOL     OW 8382   0.688   3.529   4.674 -0.1743 -0.1124 -0.3023
 2521SOL    HW1 8383   0.702   3.599   4.604 -1.0716 -0.1108 -0.4919
 2521SOL    HW2 8384   0.656   3.445   4.631 -1.4968  0.1312  0.1742
 2522SOL     OW 8385   6.609   4.510   2.914 -0.6232 -0.0748  0.0160
 2522SOL    HW1 8386   6.540   4.533   2.982 -1.0688  0.6259 -0.6517
 2522SOL    HW2 8387   6.572   4.524   2.823  0.5914  0.9932 -0.3576
 2523SOL     OW 8388   5.743   1.807   6.249 -0.4624 -0.4388 -0.3394
 2523SOL    HW1 8389   5.782   1.833   6.161 -2.2293 -0.4176 -1.1573
 2523SOL    HW2 8390   5.769   1.874   6.319  2.4610 -1.4094 -0.3775
 2524SOL     OW 8391   5.208   5.396   3.958  0.0530 -0.7934 -0.4672
 2524SOL    HW1 8392   5.197   5.356   3.867  0.2654 -0.1882 -0.7676
 2524SOL    HW2 8393   5.211   5.323   4.027  1.6194 -1.3814 -1.1040
 2525SOL     OW 8394   6.886   1.513   5.385 -0.2688 -0.1312  0.5083
 2525SOL    HW1 8395   6.951   1.498   5.311 -1.1523 -0.2957 -0.2551
 2525SOL    HW2 8396   6.822   1.436   5.390  0.2295 -0.4802  1.9297
 2526SOL     OW 8397   3.366   1.544   1.324 -0.2511  0.3591 -0.2506
 2526SOL    HW1 8398   3.336   1.451   1.347 -1.1839  0.3115 -1.5186
 2526SOL    HW2 8399   3.304   1.610   1.366  0.4572  0.4304  0.7147
 2527SOL     OW 8400   6.597   0.332   0.582  0.2541  0.2284  0.1240
 2527SOL    HW1 8401   6.540   0.408   0.553 -0.4959 -0.4782 -0.2729
 2527SOL    HW2 8402   6.677   0.326   0.523 -0.1915  0.0982 -0.4707
 2528SOL     OW 8403   1.303   1.397   6.161 -0.2073  0.5502  0.1783
 2528SOL    HW1 8404   1.313   1.482   6.108 -1.3914  1.9115  2.0120
 2528SOL    HW2 8405   1.277   1.419   6.255 -0.6340 -1.8876  0.7047
 2529SOL     OW 8406   1.959   5.927   3.998  0.2525 -0.6827  0.0209
 2529SOL    HW1 8407   1.874   5.952   4.045  0.8319  0.7655  0.3509
 2529SOL    HW2 8408   1.956   5.961   3.904  0.3099 -0.9660 -0.0827
 2530SOL     OW 8409   0.456   0.734   6.725 -0.1934 -0.1900 -0.2012
 2530SOL    HW1 8410   0.400   0.740   6.807 -0.5503  1.3459 -0.5309
 2530SOL    HW2 8411   0.544   0.692   6.748 -0.7629 -0.9542  0.6782
 2531SOL     OW 8412   4.608   0.213   3.030  0.0450 -0.0526  0.5305
 2531SOL    HW1 8413   4.688   0.192   3.088  1.0914  1.0846 -0.4475
 2531SOL    HW2 8414   4.539   0.259   3.085  0.1183 -0.8789  1.3534
 2532SOL     OW 8415   4.933   0.329   5.324  0.0250 -0.1295  0.5894
 2532SOL    HW1 8416   4.947   0.321   5.225  1.6953  1.0426  0.6847
 2532SOL    HW2 8417   5.001   0.391   5.362 -1.0696  0.0383  2.3845
 2533SOL     OW 8418   5.748   6.311   6.578  0.1767 -0.7735  0.5242
 2533SOL    HW1 8419   5.716   6.352   6.663  0.0096 -0.3841  0.2741
 2533SOL    HW2 8420   5.833   6.261   6.595 -1.0030 -2.5957  1.3808
 2534SOL     OW 8421   4.164   6.242   6.270 -0.0643  0.4174 -0.0781
 2534SOL    HW1 8422   4.072   6.269   6.240  0.2559  0.7753 -0.7720
 2534SOL    HW2 8423   4.216   6.324   6.295  0.9910  0.5232 -2.4051
 2535SOL     OW 8424   4.680   0.744   4.499  0.5745 -0.3019 -0.7866
 2535SOL    HW1 8425   4.581   0.738   4.518  0.7985  0.1118  0.6039
 2535SOL    HW2 8426   4.697   0.814   4.431 -0.2565 -1.7134 -2.5380
 2536SOL     OW 8427   6.422   5.383   0.493  0.6173 -0.2926 -0.0386
 2536SOL    HW1 8428   6.434   5.419   0.401 -1.2117  2.4445  0.6655
 2536SOL    HW2 8429   6.504   5.403   0.548  0.9838 -0.2782 -0.5877
 2537SOL     OW 8430   4.446   6.708   2.053 -0.7693 -0.0793 -0.0173
 2537SOL    HW1 8431   4.471   6.655   2.134 -0.5832  0.1863  0.0995
 2537SOL    HW2 8432   4.522   6.709   1.988 -0.0623  1.5888  0.7832
 2538SOL     OW 8433   2.472   6.552   1.372 -0.1578 -0.4148 -0.0809
 2538SOL    HW1 8434   2.568   6.534   1.392 -0.2288 -0.1316  0.5550
 2538SOL    HW2 8435   2.416   6.478   1.409 -0.3784  0.6041  1.7908
 2539SOL     OW 8436   1.234   6.617   4.197  0.9611 -0.4628  0.1788
 2539SOL    HW1 8437   1.194   6.646   4.111 -0.6695 -0.5174  0.8739
 2539SOL    HW2 8438   1.255   6.697   4.253 -0.6932 -0.4556  0.8625
 2540SOL     OW 8439   5.769   2.069   3.354 -0.1884 -0.5910 -0.4564
 2540SOL    HW1 8440   5.745   2.141   3.289 -0.3800 -1.4258 -1.3288
 2540SOL    HW2 8441   5.790   2.110   3.443 -0.2344  0.5399 -0.9528
 2541SOL     OW 8442   2.176   0.665   6.210  0.1556  0.7341 -0.1256
 2541SOL    HW1 8443   2.243   0.714   6.155 -2.4442  3.8434 -0.8459
 2541SOL    HW2 8444   2.091   0.655   6.158 -1.2708  0.6241  2.0908
 2542SOL     OW 8445   0.191   5.231   0.399 -0.0462 -0.4650  0.2403
 2542SOL    HW1 8446   0.177   5.329   0.386 -1.9204 -0.4508  1.8483
 2542SOL    HW2 8447   0.144   5.180   0.328  2.5506 -0.2525 -1.7712
 2543SOL     OW 8448   3.742   0.075   0.989 -0.4447 -0.1337 -0.5083
 2543SOL    HW1 8449   3.656   0.028   0.972 -0.6862 -0.0136  0.3713
 2543SOL    HW2 8450   3.779   0.108   0.902 -1.8201  0.7451 -0.7872
 2544SOL     OW 8451   4.350   1.368   5.529 -0.1295 -0.7599  0.5471
 2544SOL    HW1 8452   4.376   1.343   5.622  0.7178 -0.7049  0.3355
 2544SOL    HW2 8453   4.352   1.288   5.471 -0.2871 -0.7246  0.4924
 2545SOL     OW 8454   1.416   6.897   0.699 -0.2556 -0.2592 -0.3039
 2545SOL    HW1 8455   1.514   6.879   0.699 -0.1784 -1.2397 -5.1694
 2545SOL    HW2 8456   1.371   6.844   0.770  2.5304 -1.1934  0.8555
 2546SOL     OW 8457   1.212   4.412   2.332  0.8564 -0.7941 -0.4455
 2546SOL    HW1 8458   1.303   4.452   2.323  0.8017 -0.4430  0.4780
 2546SOL    HW2 8459   1.144   4.485   2.337  0.5791 -1.0423 -0.5548
 2547SOL     OW 8460   1.838   0.262   1.711  0.5922  0.2241  0.5969
 2547SOL    HW1 8461   1.835   0.305   1.801  3.2051 -1.0572  1.4003
 2547SOL    HW2 8462   1.809   0.166   1.719  0.6445  0.1589  0.0526
 2548SOL     OW 8463   1.609   5.484   4.766  0.4271 -0.2814  0.6723
 2548SOL    HW1 8464   1.635   5.456   4.674 -1.0001 -0.9166  0.4386
 2548SOL    HW2 8465   1.552   5.566   4.761  1.0449  0.1805  1.0607
 2549SOL     OW 8466   1.273   6.179   6.862  0.1205 -0.0037  0.5548
 2549SOL    HW1 8467   1.249   6.095   6.911 -0.9654  0.7731  1.4120
 2549SOL    HW2 8468   1.223   6.183   6.776  1.7162 -1.1738 -0.4799
 2550SOL     OW 8469   4.619   4.094   3.278  0.1866  0.1877 -0.4237
 2550SOL    HW1 8470   4.572   4.012   3.247 -0.0759  1.3110 -3.2868
 2550SOL    HW2 8471   4.707   4.101   3.232 -0.4681  2.2456 -1.4800
 2551SOL     OW 8472   1.592   6.847   2.611 -0.1869  0.1600 -0.4335
 2551SOL    HW1 8473   1.658   6.914   2.646  1.2792  0.1175 -2.9410
 2551SOL    HW2 8474   1.611   6.757   2.651 -1.3586  0.8791  1.9532
 2552SOL     OW 8475   1.386   1.924   4.111 -0.5294 -0.0951 -0.1845
 2552SOL    HW1 8476   1.301   1.872   4.109 -1.8763  1.9979 -0.4833
 2552SOL    HW2 8477   1.442   1.901   4.031 -0.8126 -1.4539 -0.0097
 2553SOL     OW 8478   6.683   5.840   3.058  0.2368  0.2702  0.7356
 2553SOL    HW1 8479   6.663   5.905   2.984  0.3112  1.4169  1.6958
 2553SOL    HW2 8480   6.780   5.844   3.080  0.2861 -0.3493  0.6432
 2554SOL     OW 8481   0.645   4.752   5.806 -0.0355 -0.0739 -0.1912
 2554SOL    HW1 8482   0.728   4.698   5.817 -0.9134 -1.2736  0.9517
 2554SOL    HW2 8483   0.638   4.818   5.881 -0.5993 -0.7032  0.3327
 2555SOL     OW 8484   4.214   6.211   3.316 -0.2550 -0.2384 -0.2878
 2555SOL    HW1 8485   4.301   6.165   3.337  0.0454  0.9485  1.2483
 2555SOL    HW2 8486   4.160   6.218   3.400 -2.3422 -1.8599 -1.3856
 2556SOL     OW 8487   5.758   6.765   0.470 -0.0955 -0.1066 -0.0900
 2556SOL    HW1 8488   5.778   6.672   0.499 -0.4526  0.1811  1.1239
 2556SOL    HW2 8489   5.659   6.782   0.478  0.0906  0.6757  0.6316
 2557SOL     OW 8490   1.285   5.603   2.101  0.3607 -0.2081 -0.5695
 2557SOL    HW1 8491   1.314   5.664   2.174  0.0486  0.0463 -0.6550
 2557SOL    HW2 8492   1.236   5.655   2.031  1.1481 -0.3521 -1.2402
 2558SOL     OW 8493   4.880   1.727   0.234  0.7001  0.0307 -0.2653
 2558SOL    HW1 8494   4.920   1.635   0.238 -0.5856 -0.5026  0.8154
 2558SOL    HW2 8495   4.872   1.755   0.138  0.4679 -1.2730 -0.6499
 2559SOL     OW 8496   3.509   6.072   4.109 -0.6953 -0.5525 -0.3037
 2559SOL    HW1 8497   3.459   6.158   4.117  1.4986  0.8126 -0.3775
 2559SOL    HW2 8498   3.577   6.066   4.182  0.5596 -1.2467 -1.4940
 2560SOL     OW 8499   4.850   1.785   6.973  0.0482  0.0320  0.0674
 2560SOL    HW1 8500   4.825   1.699   6.927 -1.8756 -0.4842  1.9298
 2560SOL    HW2 8501   4.813   1.862   6.921  0.6889 -0.3110 -0.9374
 2561SOL     OW 8502   4.469   4.537   6.539 -0.0702  0.4141  0.3245
 2561SOL    HW1 8503   4.555   4.583   6.562 -0.8283  2.3553 -0.5387
 2561SOL    HW2 8504   4.439   4.565   6.448 -0.7522 -1.6065 -0.1362
 2562SOL     OW 8505   6.771   0.407   4.828 -0.2498  0.5785  0.8899
 2562SOL    HW1 8506   6.706   0.469   4.785  2.7041  2.1749 -1.7228
 2562SOL    HW2 8507   6.788   0.435   4.922 -0.4529  2.5670  0.3748
 2563SOL     OW 8508   3.374   0.577   5.251 -0.5936 -0.0257 -0.8603
 2563SOL    HW1 8509   3.430   0.497   5.272 -0.3872 -0.2099 -2.0195
 2563SOL    HW2 8510   3.277   0.556   5.265 -0.5296 -0.4409 -1.0406
 2564SOL     OW 8511   1.959   2.235   5.652 -0.2797  0.4278  0.0478
 2564SOL    HW1 8512   1.904   2.309   5.613  1.4168  0.5478 -2.3150
 2564SOL    HW2 8513   1.951   2.154   5.595  1.5215  0.2715 -0.0343
 2565SOL     OW 8514   2.759   0.814   6.836  0.5172 -0.7974  0.4380
 2565SOL    HW1 8515   2.855   0.843   6.831  0.4715 -0.0394  2.7411
 2565SOL    HW2 8516   2.718   0.850   6.920 -1.3926 -2.3030  0.2136
 2566SOL     OW 8517   5.415   1.463   5.394  0.2806 -0.5008 -0.0331
 2566SOL    HW1 8518   5.380   1.496   5.306  1.3202  1.7571  0.3294
 2566SOL    HW2 8519   5.505   1.423   5.381 -0.1060 -1.3526 -0.1605
 2567SOL     OW 8520   6.861   4.003   2.316 -0.5435  0.1870  0.0522
 2567SOL    HW1 8521   6.903   3.988   2.226 -0.1006  0.1608  0.2575
 2567SOL    HW2 8522   6.865   4.101   2.338 -2.8134  0.5683 -0.9895
 2568SOL     OW 8523   3.523   6.172   4.781 -0.5886 -0.4536 -0.1692
 2568SOL    HW1 8524   3.525   6.086   4.730 -2.8679 -0.3435 -0.5264
 2568SOL    HW2 8525   3.520   6.249   4.717 -1.5658 -0.2437  0.1140
 2569SOL     OW 8526   0.706   1.790   0.867  0.0239  0.1207 -0.4170
 2569SOL    HW1 8527   0.740   1.858   0.802 -0.5271 -0.1757 -1.0346
 2569SOL    HW2 8528   0.617   1.755   0.835 -1.9112  2.3033  2.1241
 2570SOL     OW 8529   6.021   3.384   2.619 -0.5520  0.3488  0.7759
 2570SOL    HW1 8530   6.089   3.339   2.560 -1.6047  0.7127 -0.7872
 2570SOL    HW2 8531   6.059   3.470   2.652  1.2524 -1.2798  3.3041
 2571SOL     OW 8532   5.657   2.399   1.939  0.3509 -0.4846  0.4744
 2571SOL    HW1 8533   5.694   2.472   1.996  0.4380  0.3454 -0.6149
 2571SOL    HW2 8534   5.732   2.351   1.893  0.1775  0.8062 -1.2609
 2572SOL     OW 8535   0.620   3.956   3.038 -0.7023 -0.2253 -0.3128
 2572SOL    HW1 8536   0.610   3.877   2.978 -1.0962  1.1830 -2.1677
 2572SOL    HW2 8537   0.703   3.945   3.094 -0.4009 -1.6335 -1.0124
 2573SOL     OW 8538   6.773   0.161   6.069 -0.2652 -0.4501  1.1912
 2573SOL    HW1 8539   6.705   0.110   6.017  0.3918 -1.3065  1.1414
 2573SOL    HW2 8540   6.752   0.259   6.065 -0.2842 -0.4894 -0.6264
 2574SOL     OW 8541   0.958   3.588   6.184  0.1834  0.1859 -0.5483
 2574SOL    HW1 8542   1.047   3.543   6.180 -0.4710 -1.2070 -0.2516
 2574SOL    HW2 8543   0.962   3.675   6.135  0.9736 -1.1062 -2.9304
 2575SOL     OW 8544   0.219   5.774   1.947  0.1015 -0.1931  0.0722
 2575SOL    HW1 8545   0.177   5.697   1.899 -1.3530  0.9289 -0.5548
 2575SOL    HW2 8546   0.311   5.789   1.911 -0.5174 -0.1179 -1.5992
 2576SOL     OW 8547   4.062   1.190   1.295  0.4323 -0.2450  0.0781
 2576SOL    HW1 8548   3.984   1.134   1.322  0.9744 -0.2653  1.6950
 2576SOL    HW2 8549   4.119   1.139   1.229 -0.9967 -0.1351 -1.3058
 2577SOL     OW 8550   6.593   1.793   3.949  0.5582 -0.3515  0.9495
 2577SOL    HW1 8551   6.549   1.719   3.999  1.3006 -1.0399  0.5979
 2577SOL    HW2 8552   6.616   1.867   4.013 -1.2285  0.1218  1.1210
 2578SOL     OW 8553   5.247   6.647   1.888 -0.3007 -0.2954  0.5673
 2578SOL    HW1 8554   5.169   6.604   1.843  0.5723  0.7922 -2.2345
 2578SOL    HW2 8555   5.328   6.640   1.829  0.7636  1.8933  1.6395
 2579SOL     OW 8556   5.592   6.250   2.106 -0.2145 -0.2685 -0.0807
 2579SOL    HW1 8557   5.632   6.269   2.195 -0.3069  2.1565 -0.4799
 2579SOL    HW2 8558   5.551   6.159   2.106  0.5662 -0.6694  2.0408
 2580SOL     OW 8559   3.095   1.190   5.293 -0.2923 -0.1049  0.5856
 2580SOL    HW1 8560   3.186   1.151   5.312  0.2154  0.1307 -1.1989
 2580SOL    HW2 8561   3.032   1.165   5.367  1.4108  0.4172  2.3071
 2581SOL     OW 8562   0.358   6.344   1.071  0.2584 -0.4412 -0.0706
 2581SOL    HW1 8563   0.421   6.395   1.129 -0.2265 -0.8004  0.7773
 2581SOL    HW2 8564   0.396   6.254   1.051  0.1875 -0.5138  0.1219
 2582SOL     OW 8565   0.350   1.314   5.767 -0.3081 -0.5494 -0.4829
 2582SOL    HW1 8566   0.385   1.351   5.853  0.3388 -0.6536 -0.6948
 2582SOL    HW2 8567   0.273   1.369   5.736 -0.0682 -0.0557 -0.2171
 2583SOL     OW 8568   4.946   3.896   3.191  0.6475  0.4057 -0.3775
 2583SOL    HW1 8569   4.991   3.808   3.172  0.1413  0.3889 -1.5766
 2583SOL    HW2 8570   4.855   3.895   3.152  0.5268  1.3732 -0.1306
 2584SOL     OW 8571   1.165   3.222   2.995  0.3571 -0.0963 -0.0381
 2584SOL    HW1 8572   1.211   3.174   3.070  0.9585 -1.2898 -1.1314
 2584SOL    HW2 8573   1.139   3.314   3.025  2.3739  0.1845  0.9918
 2585SOL     OW 8574   2.923   3.752   1.068 -0.1232 -0.1760  0.5602
 2585SOL    HW1 8575   2.899   3.822   1.135 -0.0124  0.4627 -0.0501
 2585SOL    HW2 8576   2.994   3.788   1.007  0.0322 -0.8743  0.3223
 2586SOL     OW 8577   5.184   2.128   0.135  0.2826 -0.6695  0.3728
 2586SOL    HW1 8578   5.125   2.118   0.214  1.5259  1.7254  1.7241
 2586SOL    HW2 8579   5.128   2.146   0.054 -0.9063 -0.1928  1.2658
 2587SOL     OW 8580   5.302   4.744   0.802  0.2079  0.1286  0.5507
 2587SOL    HW1 8581   5.326   4.698   0.888  3.8646  0.0563 -0.3182
 2587SOL    HW2 8582   5.223   4.699   0.761  0.1198 -1.6653  2.4857
 2588SOL     OW 8583   5.610   5.356   0.582 -0.4641  0.2554 -0.1749
 2588SOL    HW1 8584   5.558   5.370   0.498  0.2546 -0.5123 -0.7721
 2588SOL    HW2 8585   5.576   5.417   0.653 -2.8510 -0.8997 -0.2321
 2589SOL     OW 8586   0.774   1.080   3.535 -0.5314  0.5067 -0.2735
 2589SOL    HW1 8587   0.748   1.019   3.461  2.8859 -2.4804  0.6888
 2589SOL    HW2 8588   0.743   1.043   3.622  1.3842  0.1220  0.3073
 2590SOL     OW 8589   1.469   0.446   3.563  0.2440  0.1822 -0.1329
 2590SOL    HW1 8590   1.445   0.469   3.658  1.3037  1.2715 -0.1073
 2590SOL    HW2 8591   1.567   0.428   3.557  0.3306  0.9482 -1.1781
 2591SOL     OW 8592   5.230   4.099   3.837 -0.5040 -0.3131  0.2372
 2591SOL    HW1 8593   5.134   4.072   3.828  0.0830 -2.8846  0.9689
 2591SOL    HW2 8594   5.240   4.162   3.914 -1.9003  2.0841 -1.4055
 2592SOL     OW 8595   3.077   4.758   5.821  0.2306  0.0328  0.1900
 2592SOL    HW1 8596   3.031   4.775   5.734 -0.2179 -3.4479 -0.3911
 2592SOL    HW2 8597   3.174   4.737   5.804  0.1854 -0.4805  0.5436
 2593SOL     OW 8598   1.489   5.100   0.556  0.2852 -0.3300 -0.1242
 2593SOL    HW1 8599   1.513   5.196   0.543  0.7312 -0.2946  0.8746
 2593SOL    HW2 8600   1.440   5.067   0.475  0.9390  0.4715 -0.8757
 2594SOL     OW 8601   4.239   1.672   0.533  0.1008  0.3192  0.1144
 2594SOL    HW1 8602   4.317   1.614   0.509 -0.1613 -0.6959  1.5901
 2594SOL    HW2 8603   4.160   1.615   0.553 -0.6263  1.2780  0.0500
 2595SOL     OW 8604   0.616   1.895   6.852 -0.8494  0.1400  0.4653
 2595SOL    HW1 8605   0.532   1.949   6.852 -0.7549  0.2852 -0.0825
 2595SOL    HW2 8606   0.674   1.922   6.775 -0.2017  0.1906  0.9538
 2596SOL     OW 8607   3.060   6.871   2.417  0.2506  0.2709 -0.6062
 2596SOL    HW1 8608   3.042   6.951   2.475 -0.2336  0.7701 -1.4239
 2596SOL    HW2 8609   3.083   6.901   2.325  1.5077 -0.4976 -0.5672
 2597SOL     OW 8610   3.461   3.551   2.478 -0.2239 -0.4638  0.1956
 2597SOL    HW1 8611   3.506   3.634   2.510  0.7730  0.1152 -2.4576
 2597SOL    HW2 8612   3.379   3.576   2.426 -1.0707 -1.2739  1.1114
 2598SOL     OW 8613   5.935   4.470   3.218 -0.2240 -0.6668 -0.4395
 2598SOL    HW1 8614   5.969   4.402   3.152 -0.0121  0.8544 -1.9724
 2598SOL    HW2 8615   5.924   4.427   3.307 -0.2825 -2.7594 -1.3899
 2599SOL     OW 8616   2.028   0.061   4.020 -0.5153  0.3813  0.0994
 2599SOL    HW1 8617   2.047   0.008   4.103 -0.7037  0.9800  0.5277
 2599SOL    HW2 8618   1.971   0.006   3.958 -0.8443  0.1386  0.6086
 2600SOL     OW 8619   4.100   6.715   2.476  0.0019  0.4655 -0.8339
 2600SOL    HW1 8620   4.129   6.628   2.435 -1.3863  0.6300 -2.2663
 2600SOL    HW2 8621   4.086   6.783   2.405 -1.8357  0.9697 -0.0674
 2601SOL     OW 8622   5.972   3.383   3.446 -0.3446  0.2558  0.2239
 2601SOL    HW1 8623   5.979   3.284   3.445 -1.7421  0.1429 -0.5384
 2601SOL    HW2 8624   6.003   3.419   3.534  1.4317 -0.7356  0.0384
 2602SOL     OW 8625   1.552   0.690   1.214  0.0335 -0.0478 -0.0513
 2602SOL    HW1 8626   1.563   0.704   1.116  0.4804 -0.8666 -0.1321
 2602SOL    HW2 8627   1.640   0.707   1.260 -0.4145  1.3181  0.3450
 2603SOL     OW 8628   5.846   6.850   2.291 -0.4643  0.4144 -0.4650
 2603SOL    HW1 8629   5.790   6.816   2.215 -0.8815 -0.3952  0.1843
 2603SOL    HW2 8630   5.907   6.922   2.258 -0.3586 -0.1856 -1.6508
 2604SOL     OW 8631   4.824   2.916   2.972  0.9168 -0.1228 -0.2543
 2604SOL    HW1 8632   4.802   2.819   2.962 -0.3475  0.1859 -0.6590
 2604SOL    HW2 8633   4.878   2.946   2.894 -0.3797 -0.0639 -1.1661
 2605SOL     OW 8634   6.018   3.893   5.553 -0.1131  1.1217  0.4866
 2605SOL    HW1 8635   6.044   3.810   5.602  0.7978  1.0984 -0.0265
 2605SOL    HW2 8636   5.927   3.922   5.583  0.4481  1.1671  2.2731
 2606SOL     OW 8637   6.467   0.055   5.700  0.5685  0.6534 -0.0354
 2606SOL    HW1 8638   6.381   0.017   5.666  1.0434 -0.8427  0.3780
 2606SOL    HW2 8639   6.532  -0.019   5.718  1.1891  1.5753  1.7527
 2607SOL     OW 8640   6.108   3.738   4.056  0.5237  0.5267  0.4403
 2607SOL    HW1 8641   6.109   3.787   4.143  1.1112  0.1127  0.6749
 2607SOL    HW2 8642   6.125   3.640   4.072  0.1858  0.3729 -0.0969
 2608SOL     OW 8643   6.239   6.031   5.726 -0.5145 -0.4151  0.8276
 2608SOL    HW1 8644   6.227   6.018   5.628 -1.3240  0.7413  0.7553
 2608SOL    HW2 8645   6.152   6.059   5.767  0.1044  0.3396  1.6597
 2609SOL     OW 8646   1.504   2.592   2.958  0.3033  0.5934 -0.2993
 2609SOL    HW1 8647   1.591   2.622   2.997  0.1384 -1.0819  1.5187
 2609SOL    HW2 8648   1.437   2.666   2.965  0.9079  1.0758  0.5870
 2610SOL     OW 8649   3.550   4.221   6.048  0.0956 -0.0081 -0.5632
 2610SOL    HW1 8650   3.472   4.185   6.100  0.2669 -0.7144 -0.7796
 2610SOL    HW2 8651   3.524   4.229   5.952  0.3497 -0.4327 -0.6687
 2611SOL     OW 8652   3.586   6.721   2.402 -0.0770 -0.6749  0.0907
 2611SOL    HW1 8653   3.669   6.775   2.391  0.7809 -1.7125  1.2098
 2611SOL    HW2 8654   3.506   6.781   2.393  0.8296  0.7246  0.9551
 2612SOL     OW 8655   5.438   3.729   2.345  0.6365  0.0676 -0.6954
 2612SOL    HW1 8656   5.425   3.633   2.321  1.3180  0.0676 -1.0786
 2612SOL    HW2 8657   5.374   3.754   2.418  1.7936 -1.1971  0.8085
 2613SOL     OW 8658   5.782   4.081   1.305 -0.6532 -0.6350  0.2806
 2613SOL    HW1 8659   5.711   4.117   1.244  1.5667  2.3268 -0.8109
 2613SOL    HW2 8660   5.743   4.063   1.395 -2.8254  0.6748 -0.3244
 2614SOL     OW 8661   1.129   0.145   2.080  0.5032  0.1243  0.1016
 2614SOL    HW1 8662   1.222   0.124   2.051  0.6397 -1.4046  1.4848
 2614SOL    HW2 8663   1.125   0.238   2.117  1.1935  0.6367 -1.0886
 2615SOL     OW 8664   3.488   6.255   1.794  0.0109 -0.3123  0.1100
 2615SOL    HW1 8665   3.445   6.303   1.870 -1.2780  0.3014 -0.9444
 2615SOL    HW2 8666   3.541   6.178   1.828  0.5903  0.7545  1.7126
 2616SOL     OW 8667   3.114   6.516   1.818  0.5293 -0.2129 -0.3778
 2616SOL    HW1 8668   3.050   6.574   1.869  1.9851  0.2943  0.9403
 2616SOL    HW2 8669   3.167   6.461   1.882  0.5666 -1.5523 -1.5195
 2617SOL     OW 8670   5.024   1.661   0.712 -0.3167  0.6615  0.5703
 2617SOL    HW1 8671   4.946   1.649   0.773 -1.3307  0.0758 -0.7825
 2617SOL    HW2 8672   5.001   1.727   0.641  0.6359  0.9172  0.4880
 2618SOL     OW 8673   2.821   0.506   4.712  0.1971  0.4132  0.0035
 2618SOL    HW1 8674   2.841   0.589   4.659 -0.3019  1.7900  1.8873
 2618SOL    HW2 8675   2.724   0.506   4.738  0.2296 -0.7124  0.1635
 2619SOL     OW 8676   6.618   4.972   0.612 -0.0267 -0.1306  0.2674
 2619SOL    HW1 8677   6.566   4.891   0.637 -0.0089  0.3624  2.0879
 2619SOL    HW2 8678   6.696   4.982   0.675 -0.5099  1.7163  0.6399
 2620SOL     OW 8679   2.132   2.061   1.896 -0.6408 -0.1721  0.0090
 2620SOL    HW1 8680   2.089   1.975   1.921  1.3992 -1.0880  0.6331
 2620SOL    HW2 8681   2.229   2.058   1.922 -0.0230  1.5179 -1.8494
 2621SOL     OW 8682   3.802   6.433   1.331 -0.2350  0.1317 -0.1659
 2621SOL    HW1 8683   3.774   6.474   1.417 -0.2142 -0.2790  0.0355
 2621SOL    HW2 8684   3.732   6.450   1.261  0.2003  1.3341 -0.3384
 2622SOL     OW 8685   2.731   4.142   5.833  0.0050 -0.1249 -0.2949
 2622SOL    HW1 8686   2.757   4.185   5.746  0.5261  0.8112  0.3023
 2622SOL    HW2 8687   2.798   4.165   5.903 -0.3925 -0.8975  0.3565
 2623SOL     OW 8688   2.473   0.314   3.985 -0.1502 -0.5795  0.0684
 2623SOL    HW1 8689   2.381   0.331   3.948 -0.3363 -2.4083 -0.3875
 2623SOL    HW2 8690   2.532   0.393   3.964 -1.2809  0.0875 -0.7277
 2624SOL     OW 8691   2.871   5.403   4.216  0.2740  0.0415  0.2494
 2624SOL    HW1 8692   2.966   5.433   4.220  0.1348  0.4076  0.8670
 2624SOL    HW2 8693   2.820   5.461   4.152  0.0184  1.1253  1.3988
 2625SOL     OW 8694   1.727   0.958   5.227  0.1960 -0.1887  0.1658
 2625SOL    HW1 8695   1.646   0.973   5.283 -0.4914 -0.5826 -0.6953
 2625SOL    HW2 8696   1.809   0.985   5.278 -0.5002  0.5581  0.9085
 2626SOL     OW 8697   2.722   5.918   0.503 -0.4928  0.0182  0.5382
 2626SOL    HW1 8698   2.671   5.838   0.534 -2.0930  0.6798 -0.2467
 2626SOL    HW2 8699   2.662   5.998   0.503  0.9782  1.1855  1.0167
 2627SOL     OW 8700   0.473   3.840   4.947 -0.1829 -1.1173 -0.0628
 2627SOL    HW1 8701   0.379   3.841   4.980 -0.3665 -1.6014 -0.5535
 2627SOL    HW2 8702   0.534   3.875   5.018 -0.6070 -1.8357  0.6722
 2628SOL     OW 8703   2.265   3.753   5.562 -0.6285  0.0317  0.1693
 2628SOL    HW1 8704   2.269   3.663   5.604 -1.8263 -0.1201 -0.0126
 2628SOL    HW2 8705   2.230   3.745   5.469  0.5261  0.5431 -0.3312
 2629SOL     OW 8706   2.866   5.847   3.657 -0.0746 -0.3336  0.1608
 2629SOL    HW1 8707   2.778   5.895   3.659 -0.2655 -0.5085 -1.9878
 2629SOL    HW2 8708   2.940   5.914   3.649  0.0721 -0.1602  2.3776
 2630SOL     OW 8709   6.029   6.506   1.002 -0.6163 -0.6320 -0.0213
 2630SOL    HW1 8710   6.035   6.549   0.912  0.0350  1.3078  0.8890
 2630SOL    HW2 8711   5.933   6.493   1.026 -0.9093  1.3587  0.0878
 2631SOL     OW 8712   4.160   3.912   5.893 -0.4043 -0.0579 -0.4516
 2631SOL    HW1 8713   4.134   3.936   5.987  0.0877 -0.3837 -0.2287
 2631SOL    HW2 8714   4.081   3.870   5.847 -0.6194  0.0097 -0.1534
 2632SOL     OW 8715   1.972   0.420   1.510 -0.4016  0.5681 -0.5170
 2632SOL    HW1 8716   1.924   0.406   1.597 -2.0834  0.7624 -1.3748
 2632SOL    HW2 8717   2.047   0.485   1.523  0.0984 -0.2764  1.0138
 2633SOL     OW 8718   3.696   3.626   4.856  0.4493 -0.5123  0.3539
 2633SOL    HW1 8719   3.701   3.546   4.796  0.7562  0.3200 -0.7830
 2633SOL    HW2 8720   3.620   3.685   4.827  1.8740  0.9459 -0.6148
 2634SOL     OW 8721   2.913   0.396   0.444 -0.3471  0.2498  0.3281
 2634SOL    HW1 8722   2.947   0.485   0.474  0.4289 -0.4502  1.6007
 2634SOL    HW2 8723   2.907   0.334   0.522 -1.7079 -0.5720 -0.3839
 2635SOL     OW 8724   0.155   3.259   6.728 -0.1033 -0.7598 -0.8200
 2635SOL    HW1 8725   0.097   3.275   6.648  1.8433 -0.1147 -2.1638
 2635SOL    HW2 8726   0.173   3.346   6.773  0.4767 -0.8371 -0.9000
 2636SOL     OW 8727   0.342   2.040   6.049  0.2322  0.2486 -0.2013
 2636SOL    HW1 8728   0.414   2.085   6.102  0.0765 -0.7959  0.9708
 2636SOL    HW2 8729   0.356   1.941   6.052 -1.2628  0.0146  0.0880
 2637SOL     OW 8730   1.629   1.989   4.684 -0.3604  0.0990  0.2003
 2637SOL    HW1 8731   1.529   1.982   4.675 -0.1999 -1.1668 -0.9202
 2637SOL    HW2 8732   1.659   1.939   4.765 -0.6866  1.1346  0.9826
 2638SOL     OW 8733   0.986   2.278   0.362  0.1569 -0.4051 -1.0919
 2638SOL    HW1 8734   1.040   2.304   0.282  1.2954  0.8894  0.0427
 2638SOL    HW2 8735   0.943   2.359   0.401 -0.0265 -0.9390 -0.1492
 2639SOL     OW 8736   5.433   3.842   2.098  0.4301  0.3453  0.1286
 2639SOL    HW1 8737   5.425   3.811   2.193 -2.1865  2.3031  0.6602
 2639SOL    HW2 8738   5.466   3.936   2.097  0.6032  0.2771 -0.9289
 2640SOL     OW 8739   3.862   5.062   6.488 -0.6586 -0.1673  0.1975
 2640SOL    HW1 8740   3.951   5.102   6.468 -0.1394 -1.3065  0.1552
 2640SOL    HW2 8741   3.808   5.126   6.543  0.7497 -0.0609  1.5187
 2641SOL     OW 8742   3.133   2.953   6.696  0.1544  0.2867 -0.6700
 2641SOL    HW1 8743   3.064   2.993   6.635 -2.5794  0.5874  2.3564
 2641SOL    HW2 8744   3.188   3.026   6.736 -0.9177  0.5348  0.4024
 2642SOL     OW 8745   2.727   0.795   1.730 -0.5592 -0.2524  0.2055
 2642SOL    HW1 8746   2.701   0.873   1.786 -4.7774 -1.5873  0.4260
 2642SOL    HW2 8747   2.752   0.827   1.638 -0.7066  1.4214  0.7169
 2643SOL     OW 8748   4.849   4.845   0.695  0.1254 -0.0978  0.0349
 2643SOL    HW1 8749   4.899   4.926   0.726 -0.6857  0.3380  0.2214
 2643SOL    HW2 8750   4.771   4.828   0.756 -0.5085 -0.2196 -0.7901
 2644SOL     OW 8751   4.730   1.458   0.365 -0.2128 -0.2256  0.0061
 2644SOL    HW1 8752   4.800   1.510   0.315 -0.9207  0.1112 -0.6568
 2644SOL    HW2 8753   4.701   1.380   0.309 -0.6096 -0.1697  0.1349
 2645SOL     OW 8754   4.320   0.723   3.178 -0.0812 -0.4474  0.2057
 2645SOL    HW1 8755   4.371   0.772   3.107  0.4641  0.8892  1.4940
 2645SOL    HW2 8756   4.373   0.644   3.210 -1.3818 -2.6679 -2.5923
 2646SOL     OW 8757   5.550   5.911   4.775 -0.5892  0.2224 -0.1126
 2646SOL    HW1 8758   5.615   5.894   4.849  0.6110  2.4080 -0.5608
 2646SOL    HW2 8759   5.493   5.990   4.798 -2.1945 -0.8318 -0.3267
 2647SOL     OW 8760   6.995   4.372   1.666 -1.0110 -0.3351 -0.6869
 2647SOL    HW1 8761   7.023   4.391   1.571  0.3074  0.7396 -0.1287
 2647SOL    HW2 8762   7.058   4.306   1.706 -0.2166  0.8448  0.0781
 2648SOL     OW 8763   2.448   0.994   4.109 -0.2037  0.0733 -0.1837
 2648SOL    HW1 8764   2.470   0.989   4.207  1.2231  0.9990 -0.4344
 2648SOL    HW2 8765   2.374   1.060   4.095 -0.0030  0.3827  0.2005
 2649SOL     OW 8766   6.418   6.868   0.724 -0.2409  0.0644  0.3403
 2649SOL    HW1 8767   6.394   6.965   0.727 -1.1087 -0.1364  0.2003
 2649SOL    HW2 8768   6.400   6.833   0.632 -1.1224 -0.5196  0.7282
 2650SOL     OW 8769   0.440   1.944   4.333  0.3084 -0.2143 -0.2152
 2650SOL    HW1 8770   0.425   1.852   4.297  0.5866  0.0210 -0.9630
 2650SOL    HW2 8771   0.519   1.986   4.287 -0.5267  0.8322 -0.7404
 2651SOL     OW 8772   6.819   5.381   6.891  0.7151 -0.3371 -0.3242
 2651SOL    HW1 8773   6.868   5.439   6.956 -0.6074 -0.4323  0.8186
 2651SOL    HW2 8774   6.728   5.419   6.874 -0.0719 -1.8841  0.2070
 2652SOL     OW 8775   2.291   1.940   4.644 -0.1832  0.0551  0.2282
 2652SOL    HW1 8776   2.192   1.952   4.651 -0.1847  0.2987 -0.2384
 2652SOL    HW2 8777   2.321   1.965   4.552  0.5005  1.2640  0.7643
 2653SOL     OW 8778   2.949   6.333   6.803 -0.3285  0.0032 -0.1719
 2653SOL    HW1 8779   2.890   6.269   6.755 -0.0844 -0.5733  0.2767
 2653SOL    HW2 8780   3.043   6.325   6.767 -0.5401  1.0336 -0.9991
 2654SOL     OW 8781   5.661   6.785   5.137 -0.2650  0.1951  0.0148
 2654SOL    HW1 8782   5.733   6.837   5.092  0.5304 -0.1361  0.8621
 2654SOL    HW2 8783   5.697   6.744   5.221 -2.0113  1.8526  1.6635
 2655SOL     OW 8784   4.140   2.021   1.434 -0.2932  0.4694 -0.2143
 2655SOL    HW1 8785   4.196   1.969   1.370 -2.7634 -1.5251 -0.9098
 2655SOL    HW2 8786   4.074   2.077   1.384 -0.8193  0.5689  0.5620
 2656SOL     OW 8787   2.661   3.675   3.422  0.3120  0.3373 -0.5440
 2656SOL    HW1 8788   2.709   3.725   3.495  1.6173 -0.7833 -0.5967
 2656SOL    HW2 8789   2.668   3.577   3.438  0.2117  0.0824 -1.9090
 2657SOL     OW 8790   1.722   3.093   1.297  0.3862  0.1460  0.1099
 2657SOL    HW1 8791   1.794   3.160   1.283  0.2921  0.2091 -0.0744
 2657SOL    HW2 8792   1.735   3.016   1.235  0.3660  0.0995  0.1632
 2658SOL     OW 8793   1.404   3.041   0.367 -0.2108 -0.8052 -0.3737
 2658SOL    HW1 8794   1.360   2.996   0.445  0.7424 -1.4014 -0.1569
 2658SOL    HW2 8795   1.395   2.984   0.286  0.1839 -0.9579 -0.3158
 2659SOL     OW 8796   6.068   2.854   3.492  0.5769  0.0174 -0.0881
 2659SOL    HW1 8797   6.155   2.813   3.518  0.6522  0.0900 -0.2231
 2659SOL    HW2 8798   6.014   2.789   3.438  0.3500 -0.1935  0.3850
 2660SOL     OW 8799   2.180   3.502   0.860 -0.5824  0.3713 -0.2885
 2660SOL    HW1 8800   2.122   3.574   0.824 -0.8091  0.7784  0.8581
 2660SOL    HW2 8801   2.146   3.413   0.829 -0.7819  0.6983 -1.0327
 2661SOL     OW 8802   6.781   6.405   3.405 -0.4868  0.3758 -0.0729
 2661SOL    HW1 8803   6.788   6.462   3.324 -0.8358  0.6562  0.0873
 2661SOL    HW2 8804   6.707   6.339   3.393  0.0607 -0.1974 -0.3464
 2662SOL     OW 8805   2.832   3.265   1.620 -0.0137 -0.6186 -0.1623
 2662SOL    HW1 8806   2.817   3.190   1.556  2.1837 -1.0328 -0.2641
 2662SOL    HW2 8807   2.913   3.247   1.676 -0.7424  0.6452  1.4021
 2663SOL     OW 8808   6.673   5.646   1.218 -0.6040 -0.4372  0.4097
 2663SOL    HW1 8809   6.664   5.547   1.221 -1.1671 -0.3869  0.4014
 2663SOL    HW2 8810   6.585   5.688   1.194 -0.1394  0.0231 -0.5408
 2664SOL     OW 8811   5.234   0.955   4.385  0.2639  0.5544 -0.5080
 2664SOL    HW1 8812   5.197   0.866   4.358  0.7537  0.5875 -1.3088
 2664SOL    HW2 8813   5.334   0.950   4.386  0.2805  0.7870  0.5270
 2665SOL     OW 8814   2.180   3.826   1.629  0.0388 -0.8246  0.0709
 2665SOL    HW1 8815   2.278   3.847   1.633  0.1030 -0.5212 -2.0042
 2665SOL    HW2 8816   2.128   3.898   1.674  0.7880 -1.4403  2.0046
 2666SOL     OW 8817   4.191   4.027   3.423 -0.0814 -0.1795 -0.6451
 2666SOL    HW1 8818   4.109   4.043   3.369 -1.4439 -0.7195  1.1697
 2666SOL    HW2 8819   4.224   3.934   3.407 -0.3228 -0.2466 -0.7622
 2667SOL     OW 8820   3.272   0.943   4.637 -0.2967  0.9304 -0.0739
 2667SOL    HW1 8821   3.190   0.988   4.671 -0.1186  1.0139  0.2444
 2667SOL    HW2 8822   3.346   1.010   4.630  0.2828  0.4881  1.4284
 2668SOL     OW 8823   0.012   2.772   2.017  0.4137  0.4561  0.4171
 2668SOL    HW1 8824   0.097   2.805   2.057  1.3958 -1.0977 -0.3035
 2668SOL    HW2 8825   0.010   2.795   1.919  0.0605  0.3638  0.4001
 2669SOL     OW 8826   0.316   1.438   4.159 -0.8491  0.7068  0.0302
 2669SOL    HW1 8827   0.280   1.507   4.222  0.0384  0.6203  0.6512
 2669SOL    HW2 8828   0.247   1.367   4.145 -0.1369 -0.8033  3.2019
 2670SOL     OW 8829   0.603   4.803   2.869 -0.1726  0.2071 -0.0604
 2670SOL    HW1 8830   0.647   4.893   2.871 -1.0886  0.6598  0.1013
 2670SOL    HW2 8831   0.543   4.794   2.949 -0.5749 -0.2940 -0.4167
 2671SOL     OW 8832   5.028   1.901   1.224 -0.9915 -0.1911 -0.3834
 2671SOL    HW1 8833   5.063   1.943   1.140  0.0156  3.1519  1.5163
 2671SOL    HW2 8834   4.928   1.899   1.220 -0.9504 -2.2719 -2.5259
 2672SOL     OW 8835   3.888   6.892   3.770  0.2050 -0.1275 -0.1810
 2672SOL    HW1 8836   3.954   6.818   3.761 -0.4043 -0.6831 -0.1131
 2672SOL    HW2 8837   3.795   6.855   3.772 -0.0346  0.4080  2.3229
 2673SOL     OW 8838   3.104   1.285   5.773 -0.3239  0.3917  0.0386
 2673SOL    HW1 8839   3.166   1.212   5.745 -1.8061 -1.7467  1.9889
 2673SOL    HW2 8840   3.035   1.299   5.703 -0.0919 -0.1574 -0.3061
 2674SOL     OW 8841   3.711   5.649   5.256 -0.1920  0.3709 -0.2646
 2674SOL    HW1 8842   3.638   5.592   5.216  0.9829  0.5867 -2.8983
 2674SOL    HW2 8843   3.725   5.621   5.351 -2.8505 -0.4919 -0.0183
 2675SOL     OW 8844   6.750   4.390   1.005 -0.5248  0.5201 -0.2771
 2675SOL    HW1 8845   6.791   4.466   0.955  0.9567 -0.2661 -0.3182
 2675SOL    HW2 8846   6.724   4.421   1.096 -0.3234  1.1781 -0.4350
 2676SOL     OW 8847   6.372   3.264   5.731  0.2038  0.0056  0.4281
 2676SOL    HW1 8848   6.290   3.311   5.762 -0.2959 -1.2975  1.1301
 2676SOL    HW2 8849   6.349   3.201   5.657  0.9546  1.1728 -0.8593
 2677SOL     OW 8850   1.831   6.494   0.592 -0.1110 -0.0932  0.1349
 2677SOL    HW1 8851   1.893   6.501   0.513 -0.2008  1.0638  0.1400
 2677SOL    HW2 8852   1.875   6.442   0.665  0.6956  0.3316 -0.0299
 2678SOL     OW 8853   3.664   2.469   5.520  0.0367 -0.1227 -0.3803
 2678SOL    HW1 8854   3.568   2.495   5.526 -0.1039 -0.7723  0.3391
 2678SOL    HW2 8855   3.706   2.472   5.611  0.1671 -1.7563 -0.3486
 2679SOL     OW 8856   6.692   4.433   6.737 -0.3049 -0.4744 -0.1028
 2679SOL    HW1 8857   6.772   4.381   6.767 -0.1544 -0.9922 -1.3149
 2679SOL    HW2 8858   6.643   4.469   6.816  0.8707 -0.5365  0.6740
 2680SOL     OW 8859   3.947   2.044   4.820 -0.4206 -0.2879  0.0062
 2680SOL    HW1 8860   3.937   2.024   4.722 -0.6764 -0.4860  0.0708
 2680SOL    HW2 8861   4.028   2.100   4.835 -1.2201  1.0537 -0.5114
 2681SOL     OW 8862   0.993   5.425   4.912  0.0815  0.0621  0.1921
 2681SOL    HW1 8863   1.072   5.486   4.908 -0.0091  0.1119 -2.9338
 2681SOL    HW2 8864   0.914   5.471   4.871 -0.8457 -1.0117  0.7310
 2682SOL     OW 8865   2.451   4.597   3.451  0.1538 -0.5754 -0.7430
 2682SOL    HW1 8866   2.420   4.690   3.470  1.1782 -0.4584  0.4563
 2682SOL    HW2 8867   2.512   4.566   3.524 -2.7380 -3.4346  0.7229
 2683SOL     OW 8868   3.735   0.844   6.533  0.0135  0.5957  0.4351
 2683SOL    HW1 8869   3.651   0.833   6.586 -0.7691  2.0004 -0.4640
 2683SOL    HW2 8870   3.775   0.754   6.515 -2.4020 -0.2893 -0.8983
 2684SOL     OW 8871   4.676   2.170   6.442 -0.3486 -0.1888 -0.5795
 2684SOL    HW1 8872   4.646   2.253   6.395  2.9596  1.4367 -0.1761
 2684SOL    HW2 8873   4.701   2.101   6.375 -0.1671  0.3361 -1.0641
 2685SOL     OW 8874   3.904   2.435   0.244 -0.6685  0.1169 -0.5678
 2685SOL    HW1 8875   3.941   2.490   0.169 -1.2835  0.9784 -0.2623
 2685SOL    HW2 8876   3.896   2.340   0.216  1.9112 -0.1436 -0.5864
 2686SOL     OW 8877   4.083   6.718   0.722  0.5023  0.2538  0.0437
 2686SOL    HW1 8878   4.011   6.650   0.735  0.3834  0.2866 -0.4340
 2686SOL    HW2 8879   4.107   6.723   0.625  0.8858  0.5113  0.1507
 2687SOL     OW 8880   2.129   6.850   1.228  0.0089  0.4825  0.3037
 2687SOL    HW1 8881   2.113   6.949   1.223 -0.0931  0.4329 -0.7127
 2687SOL    HW2 8882   2.220   6.833   1.266  0.0210  0.9672  0.4991
 2688SOL     OW 8883   2.811   2.182   6.395 -0.6742  0.1886 -0.3190
 2688SOL    HW1 8884   2.810   2.162   6.297 -1.6963 -0.1527 -0.2547
 2688SOL    HW2 8885   2.873   2.258   6.413 -0.5512  0.3202 -1.2427
 2689SOL     OW 8886   0.934   4.655   0.545  0.2088 -0.3334 -0.1762
 2689SOL    HW1 8887   0.941   4.556   0.540  0.9404 -0.3155  0.4019
 2689SOL    HW2 8888   0.906   4.683   0.637 -0.5394 -0.0270 -0.4869
 2690SOL     OW 8889   2.597   0.387   6.727  0.1381 -0.1323 -0.6232
 2690SOL    HW1 8890   2.660   0.310   6.721  1.1188  0.6991 -1.4606
 2690SOL    HW2 8891   2.645   0.466   6.767 -0.8906  0.0038  0.3678
 2691SOL     OW 8892   1.139   3.727   3.026  0.0633 -0.4780 -0.0417
 2691SOL    HW1 8893   1.209   3.797   3.011 -0.9471  0.7007  0.5533
 2691SOL    HW2 8894   1.145   3.658   2.954  0.0949  1.0681 -1.5813
 2692SOL     OW 8895   2.197   3.747   5.266 -0.6842  0.3710 -0.3697
 2692SOL    HW1 8896   2.262   3.713   5.198 -1.0974  2.1433 -1.7182
 2692SOL    HW2 8897   2.226   3.837   5.298 -1.5328  0.4096  0.3342
 2693SOL     OW 8898   5.303   5.835   2.778  0.0978 -0.4546 -0.0726
 2693SOL    HW1 8899   5.270   5.906   2.716 -1.3403  0.7151  1.9122
 2693SOL    HW2 8900   5.401   5.821   2.764  0.0361  0.5929 -1.7762
 2694SOL     OW 8901   4.993   3.190   3.510  0.6611  0.3650  0.0434
 2694SOL    HW1 8902   4.900   3.193   3.546  0.1481 -1.8195 -0.9305
 2694SOL    HW2 8903   5.059   3.203   3.584 -0.4020 -1.3352  1.3612
 2695SOL     OW 8904   2.940   6.718   4.943  0.2041 -0.5608  0.3017
 2695SOL    HW1 8905   2.902   6.690   5.031 -1.4957 -2.3908 -0.9206
 2695SOL    HW2 8906   2.947   6.817   4.939 -2.2137 -0.2823  1.5085
 2696SOL     OW 8907   5.842   5.586   1.304  0.2741  0.2009  0.6819
 2696SOL    HW1 8908   5.748   5.581   1.269  0.4623 -0.5721  0.2777
 2696SOL    HW2 8909   5.882   5.495   1.308  1.7995  0.6884 -1.3595
 2697SOL     OW 8910   6.391   3.252   2.971  0.1591  0.0138  0.0107
 2697SOL    HW1 8911   6.331   3.194   3.025 -0.0527  1.0202  0.8874
 2697SOL    HW2 8912   6.336   3.313   2.914  0.3712 -1.4138 -1.8249
 2698SOL     OW 8913   3.467   3.370   1.033  0.1801 -0.1754 -0.0380
 2698SOL    HW1 8914   3.477   3.321   1.120 -0.3334  0.6558  0.4991
 2698SOL    HW2 8915   3.385   3.339   0.986 -0.2646  0.3096  0.4054
 2699SOL     OW 8916   0.588   6.001   1.959 -0.0180 -0.0820  0.6137
 2699SOL    HW1 8917   0.552   5.919   1.915 -1.0710 -0.0082  1.3148
 2699SOL    HW2 8918   0.567   6.081   1.903 -2.7923  0.2164  1.9574
 2700SOL     OW 8919   0.096   0.634   0.269 -0.1031 -0.5184 -0.0200
 2700SOL    HW1 8920   0.089   0.732   0.252  1.1409 -0.3777  0.1934
 2700SOL    HW2 8921   0.185   0.601   0.239 -0.1634 -1.4180  0.7409
 2701SOL     OW 8922   4.890   2.656   4.948  0.0191 -0.1187  0.3862
 2701SOL    HW1 8923   4.916   2.703   4.863  0.9739 -3.4189 -1.3228
 2701SOL    HW2 8924   4.970   2.648   5.007 -0.0905  0.1831  0.5783
 2702SOL     OW 8925   4.037   0.164   1.800  0.2712 -0.2031  0.3816
 2702SOL    HW1 8926   3.954   0.132   1.753 -0.3215 -1.7423  2.3401
 2702SOL    HW2 8927   4.016   0.247   1.852 -0.0457 -0.5832  0.8654
 2703SOL     OW 8928   0.927   5.940   4.343 -0.0805  0.1921 -0.6664
 2703SOL    HW1 8929   0.847   5.923   4.401 -0.3726 -1.5594 -1.5022
 2703SOL    HW2 8930   0.904   6.010   4.275 -0.8393 -0.1278 -0.7533
 2704SOL     OW 8931   5.113   4.308   6.830 -0.5812 -0.4779 -0.3024
 2704SOL    HW1 8932   5.131   4.269   6.920  0.5380  2.3281  0.8133
 2704SOL    HW2 8933   5.173   4.266   6.763 -0.9838 -2.1584  0.3353
 2705SOL     OW 8934   5.187   3.800   3.903 -0.4724  0.3295  0.2275
 2705SOL    HW1 8935   5.100   3.805   3.952 -2.1696 -0.7239 -2.4438
 2705SOL    HW2 8936   5.175   3.834   3.810  1.9148 -0.1958 -0.3445
 2706SOL     OW 8937   2.758   3.574   6.113 -0.4812  0.2819  0.4155
 2706SOL    HW1 8938   2.764   3.556   6.014  0.4294  2.4386  0.0266
 2706SOL    HW2 8939   2.665   3.553   6.144 -1.0168  0.2796 -1.0747
 2707SOL     OW 8940   2.506   6.659   6.248 -0.3279  0.0490 -0.3856
 2707SOL    HW1 8941   2.439   6.591   6.278 -2.1381  1.2211 -1.5891
 2707SOL    HW2 8942   2.543   6.633   6.159 -0.1521  0.0591 -0.3162
 2708SOL     OW 8943   1.344   3.494   3.522  0.1942 -0.0042 -0.1510
 2708SOL    HW1 8944   1.319   3.574   3.467  1.0472 -0.4605 -1.2431
 2708SOL    HW2 8945   1.291   3.415   3.493  0.8749 -0.3221 -0.5425
 2709SOL     OW 8946   3.750   5.627   3.480  0.2941 -0.2663  0.1591
 2709SOL    HW1 8947   3.657   5.664   3.479  0.9109  1.3624 -0.3751
 2709SOL    HW2 8948   3.772   5.595   3.573 -2.1138 -4.4082 -0.4309
 2710SOL     OW 8949   6.927   5.019   4.934 -0.0295  0.7764  0.7000
 2710SOL    HW1 8950   7.017   5.052   4.908 -0.6086  2.6985  0.9911
 2710SOL    HW2 8951   6.859   5.051   4.867 -0.4862 -0.9055  0.3056
 2711SOL     OW 8952   4.281   2.347   5.449 -0.0472  0.5439 -0.2441
 2711SOL    HW1 8953   4.182   2.337   5.453 -0.1704 -2.1198 -4.1750
 2711SOL    HW2 8954   4.304   2.421   5.385  0.5179  0.6859  0.1143
 2712SOL     OW 8955   2.884   6.817   4.648 -0.2308 -0.0412  0.5631
 2712SOL    HW1 8956   2.948   6.821   4.725  1.0416  3.3049 -0.4791
 2712SOL    HW2 8957   2.912   6.744   4.586  0.1604 -1.2017  2.0183
 2713SOL     OW 8958   1.488   4.519   5.909  0.4894 -0.0856  0.0284
 2713SOL    HW1 8959   1.459   4.577   5.832  1.2833 -0.3462 -0.4874
 2713SOL    HW2 8960   1.554   4.568   5.965 -0.0020  0.0611  0.4850
 2714SOL     OW 8961   5.124   5.065   2.685 -0.1157  0.1553  0.1309
 2714SOL    HW1 8962   5.109   5.134   2.614 -2.0741  0.2963  0.6356
 2714SOL    HW2 8963   5.193   5.000   2.653 -1.2986 -0.0899 -2.1676
 2715SOL     OW 8964   3.763   1.180   3.115 -0.2047  0.1957  0.8345
 2715SOL    HW1 8965   3.721   1.095   3.148 -0.3908 -0.7096 -1.4898
 2715SOL    HW2 8966   3.750   1.186   3.016 -0.7985  3.3340  1.0264
 2716SOL     OW 8967   0.475   5.341   1.777  0.2300  0.0199 -0.4632
 2716SOL    HW1 8968   0.514   5.299   1.859 -0.4354 -2.3927 -1.2975
 2716SOL    HW2 8969   0.495   5.283   1.698 -1.1195  1.0920 -1.6282
 2717SOL     OW 8970   3.548   2.202   6.018  0.1483  0.1914  0.7380
 2717SOL    HW1 8971   3.644   2.219   5.998 -0.2442  1.5491 -0.1804
 2717SOL    HW2 8972   3.533   2.104   6.029  1.6915 -0.0101  1.2758
 2718SOL     OW 8973   4.575   2.271   1.357  0.3524  0.1373  0.4571
 2718SOL    HW1 8974   4.674   2.268   1.350  0.2733 -0.1295 -0.6975
 2718SOL    HW2 8975   4.543   2.204   1.423  0.8997 -0.2512  0.3270
 2719SOL     OW 8976   3.788   5.394   4.500 -0.5858 -0.6054 -0.4858
 2719SOL    HW1 8977   3.872   5.343   4.482 -0.5119 -0.2859 -1.0916
 2719SOL    HW2 8978   3.801   5.455   4.578  0.3121  0.7015 -1.6187
 2720SOL     OW 8979   2.617   4.256   2.115 -0.8334  0.0708  0.1646
 2720SOL    HW1 8980   2.661   4.322   2.175 -1.1342  0.2506  0.1886
 2720SOL    HW2 8981   2.528   4.230   2.152 -1.0545  0.2387 -0.2393
 2721SOL     OW 8982   1.566   2.082   0.100 -0.0602  0.2733 -0.7266
 2721SOL    HW1 8983   1.498   2.066   0.171 -0.0372  1.6739 -0.3509
 2721SOL    HW2 8984   1.650   2.031   0.121 -0.0791  0.6153  0.2173
 2722SOL     OW 8985   4.143   6.458   2.285  0.5025  0.2207  0.4999
 2722SOL    HW1 8986   4.097   6.515   2.216  1.7755 -0.1539 -0.7198
 2722SOL    HW2 8987   4.078   6.392   2.323  0.0177 -0.3596 -1.2388
 2723SOL     OW 8988   5.028   3.777   2.267 -0.2776  0.2763 -0.0801
 2723SOL    HW1 8989   4.966   3.786   2.189 -2.5109  0.2750  1.5730
 2723SOL    HW2 8990   5.044   3.681   2.287  0.0880  0.2743 -0.3834
 2724SOL     OW 8991   5.723   2.250   6.982  0.4457  0.0146  0.4516
 2724SOL    HW1 8992   5.656   2.303   6.930  1.4606  0.7895 -0.1137
 2724SOL    HW2 8993   5.795   2.311   7.015  0.2525 -0.6008  2.1035
 2725SOL     OW 8994   2.329   3.493   6.402 -0.0002 -0.5893  0.0625
 2725SOL    HW1 8995   2.395   3.522   6.333  0.5368 -0.6452  0.5445
 2725SOL    HW2 8996   2.373   3.429   6.465 -0.4430 -0.4306  0.5405
 2726SOL     OW 8997   5.512   1.565   0.223 -0.4175 -0.3216 -0.3938
 2726SOL    HW1 8998   5.465   1.574   0.135 -2.0471 -1.4465  0.3174
 2726SOL    HW2 8999   5.445   1.559   0.296  0.8823  2.2024  1.1808
 2727SOL     OW 9000   5.193   4.938   0.959 -0.4078  0.0453  0.2372
 2727SOL    HW1 9001   5.216   4.912   1.053  1.6646  1.4577  0.1781
 2727SOL    HW2 9002   5.234   4.873   0.895  0.4750  0.5916  0.2404
 2728SOL     OW 9003   6.662   6.198   3.187 -0.2117  0.4525  0.6844
 2728SOL    HW1 9004   6.591   6.138   3.224 -0.2384  0.8355  1.2683
 2728SOL    HW2 9005   6.749   6.148   3.184 -0.1776  0.4577  1.4072
 2729SOL     OW 9006   6.624   5.394   1.970  0.2554 -0.0858 -0.0584
 2729SOL    HW1 9007   6.668   5.344   1.895 -1.1535 -1.1861 -0.1791
 2729SOL    HW2 9008   6.674   5.378   2.055  2.7698  2.3363 -0.9016
 2730SOL     OW 9009   1.083   2.187   6.648 -0.3803  0.4847 -0.1895
 2730SOL    HW1 9010   1.115   2.157   6.738  1.0046  1.1025 -0.4389
 2730SOL    HW2 9011   1.134   2.140   6.577 -2.1952 -0.7913 -0.7280
 2731SOL     OW 9012   4.720   5.239   1.278  0.8346 -0.1874  0.6293
 2731SOL    HW1 9013   4.718   5.225   1.179  2.6841  0.5996  0.4475
 2731SOL    HW2 9014   4.774   5.166   1.320  1.2768  0.2935  0.8936
 2732SOL     OW 9015   0.550   3.826   5.750 -0.5283 -0.4751  0.3999
 2732SOL    HW1 9016   0.576   3.906   5.696  1.0748 -0.8005  0.6620
 2732SOL    HW2 9017   0.535   3.852   5.845  1.6443 -0.7109  0.8559
 2733SOL     OW 9018   4.122   0.335   0.737  0.3625 -0.1004  0.0989
 2733SOL    HW1 9019   4.064   0.347   0.656  1.5457  0.9519 -0.6389
 2733SOL    HW2 9020   4.169   0.247   0.731  0.5577  0.0340 -0.4533
 2734SOL     OW 9021   0.563   1.144   6.280  0.6668 -0.3044  0.2350
 2734SOL    HW1 9022   0.578   1.046   6.292  0.2713 -0.4399 -0.3344
 2734SOL    HW2 9023   0.589   1.170   6.188 -0.4496 -0.1269 -0.0437
 2735SOL     OW 9024   3.808   6.845   4.382 -0.5792  0.7001 -0.6550
 2735SOL    HW1 9025   3.902   6.811   4.376 -0.9525 -0.3907 -0.6274
 2735SOL    HW2 9026   3.757   6.817   4.300 -1.1779  0.2897 -0.1547
 2736SOL     OW 9027   6.213   3.591   4.837  0.5679 -0.5499  0.3256
 2736SOL    HW1 9028   6.197   3.493   4.828 -0.1215 -0.3829 -0.3838
 2736SOL    HW2 9029   6.163   3.626   4.916 -1.5541 -0.2895 -1.0597
 2737SOL     OW 9030   1.106   4.501   0.827  0.6454 -0.5336  0.2086
 2737SOL    HW1 9031   1.070   4.477   0.917  0.2761 -1.2613 -0.1221
 2737SOL    HW2 9032   1.044   4.468   0.756  1.3869 -0.7911 -0.3371
 2738SOL     OW 9033   5.405   6.245   4.645 -0.1007  0.0382  0.1533
 2738SOL    HW1 9034   5.454   6.272   4.728  1.9018 -1.4786 -0.4467
 2738SOL    HW2 9035   5.324   6.303   4.634  1.6992  2.9453  1.0418
 2739SOL     OW 9036   3.310   6.174   2.813 -0.2934  0.5935  0.3652
 2739SOL    HW1 9037   3.272   6.117   2.886 -0.6370 -1.0609 -1.0213
 2739SOL    HW2 9038   3.335   6.264   2.849 -1.2445  0.1253  2.3019
 2740SOL     OW 9039   2.959   3.187   4.202  0.2409 -0.6659 -0.6645
 2740SOL    HW1 9040   3.058   3.188   4.216  0.2033  1.3109 -0.2120
 2740SOL    HW2 9041   2.920   3.275   4.232 -1.7523 -1.6579 -0.1440
 2741SOL     OW 9042   0.328   3.456   5.063 -0.7890  0.1657 -0.0491
 2741SOL    HW1 9043   0.278   3.438   4.978 -1.0279  0.6688 -0.0208
 2741SOL    HW2 9044   0.417   3.497   5.042  0.7306 -2.9654 -0.2392
 2742SOL     OW 9045   3.421   6.809   5.430 -0.0686  0.3597  0.4559
 2742SOL    HW1 9046   3.398   6.857   5.515  0.6005 -0.3920  1.0799
 2742SOL    HW2 9047   3.520   6.801   5.423 -0.0555  1.5381 -1.0502
 2743SOL     OW 9048   0.604   3.694   2.832  0.4580  0.3355 -0.0371
 2743SOL    HW1 9049   0.511   3.727   2.817  0.8230  1.4390  0.0822
 2743SOL    HW2 9050   0.669   3.747   2.777  1.0833 -0.0561  0.3002
 2744SOL     OW 9051   2.426   4.921   1.231 -0.0589  0.2512  0.0287
 2744SOL    HW1 9052   2.457   4.963   1.317 -0.7487 -0.0414  0.4288
 2744SOL    HW2 9053   2.504   4.903   1.172  0.6725 -1.5516  1.4865
 2745SOL     OW 9054   3.057   6.068   5.092 -0.6402  0.3856 -0.5369
 2745SOL    HW1 9055   3.005   6.149   5.064  0.0785  1.5391  1.2964
 2745SOL    HW2 9056   3.154   6.090   5.091 -0.4385 -0.4647 -0.0029
 2746SOL     OW 9057   3.501   0.454   0.581  0.3161  0.3931 -0.5688
 2746SOL    HW1 9058   3.438   0.471   0.505 -1.7809 -0.9440  0.7567
 2746SOL    HW2 9059   3.570   0.527   0.585  0.0583  0.8730 -3.2614
 2747SOL     OW 9060   0.030   4.262   3.058  0.4428  0.0003 -0.2177
 2747SOL    HW1 9061   0.121   4.263   3.017  0.4862  0.2274 -0.1147
 2747SOL    HW2 9062  -0.039   4.256   2.986  0.5626 -1.1639 -0.2630
 2748SOL     OW 9063   5.768   0.491   6.071 -0.0655  0.2370  0.1906
 2748SOL    HW1 9064   5.826   0.568   6.045 -0.0324 -0.0048 -0.4569
 2748SOL    HW2 9065   5.799   0.408   6.026  1.8702 -0.8692  3.2559
 2749SOL     OW 9066   3.560   3.966   5.843 -0.8402 -0.2386  0.3312
 2749SOL    HW1 9067   3.536   3.877   5.882 -0.9229  0.2224  1.3678
 2749SOL    HW2 9068   3.518   3.974   5.752 -0.6042 -1.3560  0.1066
 2750SOL     OW 9069   0.409   2.355   6.579 -1.1087 -0.1069  0.5665
 2750SOL    HW1 9070   0.487   2.293   6.578 -0.4300  0.6040  2.6076
 2750SOL    HW2 9071   0.334   2.316   6.526  0.6738 -0.6899 -1.6995
 2751SOL     OW 9072   0.400   1.666   5.790  0.0657 -0.3453  0.1201
 2751SOL    HW1 9073   0.495   1.649   5.765  0.2616 -1.6308  1.6059
 2751SOL    HW2 9074   0.345   1.585   5.770 -1.0275  0.7658 -1.8328
 2752SOL     OW 9075   5.982   0.393   6.594  0.3370 -0.2428  0.1972
 2752SOL    HW1 9076   6.074   0.390   6.553  0.2047 -0.2491 -0.1001
 2752SOL    HW2 9077   5.975   0.472   6.654  1.3156 -1.5037  2.0719
 2753SOL     OW 9078   1.975   1.900   0.832  1.1576  0.8781 -0.0125
 2753SOL    HW1 9079   1.933   1.908   0.922  0.2006 -0.3433 -0.3080
 2753SOL    HW2 9080   2.056   1.958   0.827  0.2848  2.2590  1.0541
 2754SOL     OW 9081   0.487   0.297   2.681  0.4361  0.0166 -0.8830
 2754SOL    HW1 9082   0.537   0.245   2.611  0.0334 -0.5979 -0.7255
 2754SOL    HW2 9083   0.466   0.237   2.758 -1.6060 -0.0956 -1.4710
 2755SOL     OW 9084   6.476   0.057   2.976  0.7118  0.2374  0.1706
 2755SOL    HW1 9085   6.502   0.092   3.066  0.4104  2.2236 -0.4559
 2755SOL    HW2 9086   6.551   0.073   2.912  1.1217 -1.6183  0.1397
 2756SOL     OW 9087   1.428   1.884   6.184 -0.4761  0.2986 -0.2884
 2756SOL    HW1 9088   1.408   1.979   6.206  1.9786  0.6210  0.8731
 2756SOL    HW2 9089   1.461   1.879   6.089 -2.6214  0.2282 -1.0845
 2757SOL     OW 9090   3.487   5.957   3.256  0.1660  0.6354 -0.7044
 2757SOL    HW1 9091   3.580   5.919   3.261 -0.4071 -0.9344 -1.1916
 2757SOL    HW2 9092   3.491   6.054   3.232  1.6705  0.5741 -0.7757
 2758SOL     OW 9093   2.576   5.924   2.392  0.1774  0.0811  0.3227
 2758SOL    HW1 9094   2.616   5.840   2.355  1.1683  0.2710  0.9122
 2758SOL    HW2 9095   2.505   5.957   2.330  3.2935  1.6767 -2.7160
 2759SOL     OW 9096   3.566   4.871   1.820 -0.2201  0.3912 -0.1128
 2759SOL    HW1 9097   3.519   4.922   1.747  0.0178  0.4934 -0.1970
 2759SOL    HW2 9098   3.556   4.920   1.906 -1.5536 -0.3492  0.1833
 2760SOL     OW 9099   4.171   2.475   3.308 -0.5417 -0.3189  0.7131
 2760SOL    HW1 9100   4.171   2.451   3.405 -0.4799 -2.4441  0.2593
 2760SOL    HW2 9101   4.106   2.416   3.259  1.5608 -1.4538 -0.9309
 2761SOL     OW 9102   4.616   6.821   4.604  0.5782 -0.1121  0.8349
 2761SOL    HW1 9103   4.578   6.910   4.629 -2.6621 -0.4570 -2.0510
 2761SOL    HW2 9104   4.703   6.834   4.555  0.6371  1.3507  1.2817
 2762SOL     OW 9105   6.538   0.088   5.975  0.0236 -0.3473 -0.3043
 2762SOL    HW1 9106   6.477   0.081   5.896 -1.1188 -1.2855  0.6151
 2762SOL    HW2 9107   6.543  -0.000   6.022  0.6831  0.1826  0.6716
 2763SOL     OW 9108   6.569   5.373   3.222 -0.1772 -0.2465  0.1646
 2763SOL    HW1 9109   6.481   5.412   3.198  1.1532  2.7136 -0.3658
 2763SOL    HW2 9110   6.577   5.281   3.183 -2.4131  0.0147 -1.0449
 2764SOL     OW 9111   1.408   0.685   1.769 -0.8753 -0.4404 -0.6153
 2764SOL    HW1 9112   1.485   0.639   1.812 -0.9896 -0.7834 -0.7672
 2764SOL    HW2 9113   1.440   0.759   1.710 -0.8156  1.5491  1.8009
 2765SOL     OW 9114   0.134   4.508   2.318  0.1409  1.0290 -0.0920
 2765SOL    HW1 9115   0.061   4.576   2.309 -0.5879  0.1548 -1.0440
 2765SOL    HW2 9116   0.212   4.548   2.365 -0.2295  2.5526 -0.7405
 2766SOL     OW 9117   2.319   6.620   3.251  0.6810  0.0125  0.8145
 2766SOL    HW1 9118   2.397   6.667   3.292  0.1650  1.6290  0.0407
 2766SOL    HW2 9119   2.296   6.663   3.163 -0.1195 -1.4220  0.2797
 2767SOL     OW 9120   1.784   0.124   5.337 -0.4616 -0.2078 -0.3337
 2767SOL    HW1 9121   1.747   0.197   5.395  0.2020  0.8828 -1.2446
 2767SOL    HW2 9122   1.730   0.040   5.350  0.1955 -0.2781  2.4975
 2768SOL     OW 9123   0.314   0.523   6.194 -0.0291  0.1030 -0.2853
 2768SOL    HW1 9124   0.289   0.508   6.289  2.3987 -0.3949  0.3496
 2768SOL    HW2 9125   0.354   0.614   6.183  1.7392 -0.6371 -0.3094
 2769SOL     OW 9126   3.989   2.751   1.044 -0.2210  0.3224 -0.0176
 2769SOL    HW1 9127   3.951   2.708   0.963  3.7311 -0.2731 -1.7889
 2769SOL    HW2 9128   4.011   2.680   1.112 -0.6681  0.4664  0.2824
 2770SOL     OW 9129   6.540   2.917   5.169 -0.2232  0.5037 -0.2109
 2770SOL    HW1 9130   6.607   2.884   5.235  0.5535 -0.2505 -1.3315
 2770SOL    HW2 9131   6.587   2.958   5.091 -1.0824  0.4907 -0.7544
 2771SOL     OW 9132   1.022   2.690   0.322 -0.1220 -0.4470 -0.0488
 2771SOL    HW1 9133   0.976   2.765   0.274 -1.0223 -1.5791 -1.0278
 2771SOL    HW2 9134   1.115   2.679   0.285  1.0048  1.7813  1.8631
 2772SOL     OW 9135   3.751   1.481   0.613 -0.9111  0.2334  0.0534
 2772SOL    HW1 9136   3.735   1.394   0.565 -2.3220  1.1124 -1.1368
 2772SOL    HW2 9137   3.669   1.537   0.609  0.0344  1.7186  0.6684
 2773SOL     OW 9138   2.657   5.559   5.173  0.1767  0.1244 -0.1902
 2773SOL    HW1 9139   2.756   5.551   5.168  0.2492  0.7566  0.1351
 2773SOL    HW2 9140   2.629   5.575   5.268 -0.0537  1.8864 -0.5050
 2774SOL     OW 9141   0.964   0.380   5.513 -0.1018  0.0350 -0.0426
 2774SOL    HW1 9142   0.934   0.450   5.579  1.0415  1.8698 -1.3564
 2774SOL    HW2 9143   0.990   0.297   5.561 -1.0504  0.6652  1.6360
 2775SOL     OW 9144   4.388   5.221   3.968 -0.1613 -0.2630 -0.1712
 2775SOL    HW1 9145   4.293   5.191   3.979 -0.2311  0.3808  1.0360
 2775SOL    HW2 9146   4.443   5.144   3.935 -0.8986 -0.9136  0.0857
 2776SOL     OW 9147   0.330   4.606   0.574  0.0012  0.0899 -0.1928
 2776SOL    HW1 9148   0.388   4.564   0.503 -0.4169 -0.1000 -0.4282
 2776SOL    HW2 9149   0.342   4.705   0.574  0.8597 -0.0066  0.2397
 2777SOL     OW 9150   5.561   0.587   2.586 -0.5008  0.1751 -0.5967
 2777SOL    HW1 9151   5.635   0.633   2.634 -0.5542 -0.5103  0.1522
 2777SOL    HW2 9152   5.587   0.493   2.566 -2.1016 -0.9316  2.0110
 2778SOL     OW 9153   1.848   0.683   0.800 -0.1444 -0.3318 -0.1576
 2778SOL    HW1 9154   1.861   0.584   0.797  0.1997 -0.2761 -0.9103
 2778SOL    HW2 9155   1.842   0.718   0.706  0.0219  0.3911  0.0965
 2779SOL     OW 9156   1.425   6.559   6.088 -0.0639  0.0265 -0.5753
 2779SOL    HW1 9157   1.369   6.604   6.019  0.6616  0.9004 -0.6098
 2779SOL    HW2 9158   1.430   6.617   6.170 -0.3186 -0.6672 -0.0604
 2780SOL     OW 9159   3.015   5.334   3.474  0.4699 -0.5481  0.7090
 2780SOL    HW1 9160   3.101   5.289   3.450  0.0225 -2.9592  3.1024
 2780SOL    HW2 9161   3.026   5.385   3.559 -0.1857  0.1079  0.4129
 2781SOL     OW 9162   3.701   5.065   4.803 -0.2761 -0.4529 -0.0259
 2781SOL    HW1 9163   3.683   4.978   4.757  1.2302 -0.8571  0.1101
 2781SOL    HW2 9164   3.627   5.129   4.781 -0.9499 -1.4678 -0.8570
 2782SOL     OW 9165   6.782   4.932   1.300  0.2056  0.2128  0.1415
 2782SOL    HW1 9166   6.840   4.912   1.221  0.3887  1.4598 -0.0626
 2782SOL    HW2 9167   6.840   4.950   1.379  0.0181 -1.2350  0.6286
 2783SOL     OW 9168   4.734   1.314   3.748 -0.3197  0.7058  0.6164
 2783SOL    HW1 9169   4.675   1.238   3.773  0.6450  0.9280  4.1399
 2783SOL    HW2 9170   4.799   1.284   3.678 -2.5909 -0.3613 -1.1822
 2784SOL     OW 9171   0.918   0.211   1.938  0.1811 -0.1409  0.1719
 2784SOL    HW1 9172   0.997   0.191   1.996 -1.0056 -0.8156  1.6546
 2784SOL    HW2 9173   0.898   0.133   1.880  0.0299 -0.3720  0.5268
 2785SOL     OW 9174   5.463   2.513   2.223  0.0638 -0.4383  0.2057
 2785SOL    HW1 9175   5.423   2.590   2.172  0.5766 -0.7311 -0.6529
 2785SOL    HW2 9176   5.391   2.449   2.248 -0.1915 -0.2993 -0.1661
 2786SOL     OW 9177   6.785   6.416   2.129  0.3232  0.4743  0.1165
 2786SOL    HW1 9178   6.700   6.363   2.131 -0.9540  2.3927 -0.1025
 2786SOL    HW2 9179   6.831   6.409   2.218 -1.9827  2.2237  1.5816
 2787SOL     OW 9180   6.794   5.160   0.500 -0.1892 -0.3576 -0.2240
 2787SOL    HW1 9181   6.762   5.237   0.444  1.3110  2.4289  2.4890
 2787SOL    HW2 9182   6.719   5.128   0.558 -0.3977  0.1739 -0.1959
 2788SOL     OW 9183   2.700   6.094   1.445 -0.1278 -0.8406 -0.2082
 2788SOL    HW1 9184   2.737   6.187   1.449 -0.4975 -0.6573 -0.8678
 2788SOL    HW2 9185   2.682   6.069   1.350  1.7405 -2.3170 -0.2458
 2789SOL     OW 9186   5.444   1.863   4.397  0.2088  0.0155  0.1129
 2789SOL    HW1 9187   5.513   1.829   4.461 -0.4302 -1.0169  0.2773
 2789SOL    HW2 9188   5.485   1.875   4.307  0.3599 -1.6873 -0.0679
 2790SOL     OW 9189   3.071   4.850   2.743  0.6942  0.2274 -0.8263
 2790SOL    HW1 9190   3.095   4.905   2.824  0.4229  0.2108 -0.7346
 2790SOL    HW2 9191   3.017   4.771   2.772  0.4918  0.2873 -1.0401
 2791SOL     OW 9192   1.171   6.875   1.887 -0.4347  0.4103  0.1022
 2791SOL    HW1 9193   1.175   6.928   1.803  0.6267 -0.9362 -0.7480
 2791SOL    HW2 9194   1.077   6.872   1.921 -0.6865  1.8903 -0.4083
 2792SOL     OW 9195   5.151   2.439   0.235 -0.2530  0.4871 -0.2981
 2792SOL    HW1 9196   5.214   2.433   0.158 -0.5980  0.1229 -0.5561
 2792SOL    HW2 9197   5.100   2.354   0.244  0.3332  0.2316  0.8232
 2793SOL     OW 9198   2.924   5.911   5.790 -0.3601  0.0749  0.7751
 2793SOL    HW1 9199   2.891   5.993   5.744  0.2889 -0.0110  0.1396
 2793SOL    HW2 9200   2.864   5.834   5.767  0.2108 -0.0646 -0.3065
 2794SOL     OW 9201   2.251   2.018   5.062  0.4882  0.0759 -0.2032
 2794SOL    HW1 9202   2.152   2.012   5.047  0.5787 -0.1078 -0.7178
 2794SOL    HW2 9203   2.282   2.111   5.042  0.3083  0.3288  0.6432
 2795SOL     OW 9204   1.388   0.435   0.130  0.0198 -0.1905  0.3256
 2795SOL    HW1 9205   1.471   0.392   0.166  0.5698 -0.4074 -1.1092
 2795SOL    HW2 9206   1.325   0.364   0.099 -0.5062 -0.0130  0.9713
 2796SOL     OW 9207   1.293   5.368   1.780  0.6164 -0.0480  0.0607
 2796SOL    HW1 9208   1.369   5.419   1.820  1.3896 -1.6524  0.7195
 2796SOL    HW2 9209   1.210   5.385   1.832  0.7129  0.9960 -0.1078
 2797SOL     OW 9210   1.055   6.468   2.595 -0.5804 -0.2327 -0.0624
 2797SOL    HW1 9211   1.072   6.564   2.574 -0.3274 -0.0033  1.1391
 2797SOL    HW2 9212   0.979   6.435   2.538 -0.9706  0.8031 -0.1725
 2798SOL     OW 9213   6.959   5.617   5.036 -0.3735  0.4230  0.0187
 2798SOL    HW1 9214   6.888   5.682   5.009 -0.6100  0.7496  1.3146
 2798SOL    HW2 9215   6.960   5.539   4.974  0.3962  1.9754 -2.0279
 2799SOL     OW 9216   4.397   3.333   1.963  0.1609  0.0808 -0.2555
 2799SOL    HW1 9217   4.313   3.322   2.016 -0.0699  1.0931 -0.3843
 2799SOL    HW2 9218   4.469   3.277   2.003 -0.3916 -0.2747  0.2658
 2800SOL     OW 9219   5.935   4.769   6.709  0.1440 -0.1014 -0.1109
 2800SOL    HW1 9220   5.859   4.800   6.766 -0.3284 -2.1351  0.4815
 2800SOL    HW2 9221   5.909   4.775   6.613 -0.3262  0.3333  0.0380
 2801SOL     OW 9222   4.271   4.149   1.136 -0.3573 -0.2915 -0.9442
 2801SOL    HW1 9223   4.251   4.080   1.067  0.4556 -0.3575 -1.1290
 2801SOL    HW2 9224   4.356   4.124   1.183  0.2091  0.8310 -1.3501
 2802SOL     OW 9225   5.995   5.223   5.246  0.2662  0.0140  0.2174
 2802SOL    HW1 9226   5.925   5.195   5.311 -0.7158 -0.3135 -0.9590
 2802SOL    HW2 9227   6.009   5.152   5.177  1.0632  0.4807 -0.1290
 2803SOL     OW 9228   3.118   5.584   3.143 -0.1352  0.6112  0.4344
 2803SOL    HW1 9229   3.200   5.604   3.090  0.1373  0.5963  0.8439
 2803SOL    HW2 9230   3.038   5.581   3.082  0.3316 -0.5488 -0.1468
 2804SOL     OW 9231   6.001   3.533   3.711  0.6359  0.4252 -0.2416
 2804SOL    HW1 9232   6.059   3.474   3.769 -1.0113 -0.5113  0.5180
 2804SOL    HW2 9233   6.014   3.628   3.738 -0.3055 -0.0012  1.9406
 2805SOL     OW 9234   3.187   3.019   6.255 -0.1991 -0.2968  0.0524
 2805SOL    HW1 9235   3.128   3.091   6.222 -2.3576 -1.8785  0.2653
 2805SOL    HW2 9236   3.282   3.039   6.230 -1.1308  0.8835 -2.9138
 2806SOL     OW 9237   0.628   6.701   3.074 -0.3801  0.2939  0.2813
 2806SOL    HW1 9238   0.669   6.619   3.036 -2.5642 -1.2623  1.0705
 2806SOL    HW2 9239   0.656   6.712   3.170  1.5581  1.7176 -0.3753
 2807SOL     OW 9240   5.325   6.770   4.846  0.0828 -0.4119  0.1963
 2807SOL    HW1 9241   5.357   6.753   4.939 -0.2614  0.1334  0.4268
 2807SOL    HW2 9242   5.240   6.824   4.850  1.7709  2.5437 -0.4473
 2808SOL     OW 9243   6.641   0.729   2.882  0.0276 -0.1418 -0.3767
 2808SOL    HW1 9244   6.564   0.763   2.828  0.7750 -0.6073 -1.7729
 2808SOL    HW2 9245   6.676   0.644   2.842  2.5681  1.1136 -1.0606
 2809SOL     OW 9246   5.478   0.265   6.022  0.2050 -0.3898  0.1698
 2809SOL    HW1 9247   5.472   0.262   5.922  0.7676 -0.7515  0.1403
 2809SOL    HW2 9248   5.574   0.282   6.048  0.1134 -0.6232  0.6543
 2810SOL     OW 9249   5.242   5.501   6.958 -0.4449  0.2114 -0.5025
 2810SOL    HW1 9250   5.287   5.590   6.962 -1.0683  0.5131 -0.1401
 2810SOL    HW2 9251   5.303   5.435   6.913 -0.2573  0.9881 -1.4189
 2811SOL     OW 9252   3.424   5.391   4.974  0.1067  0.1263 -0.3496
 2811SOL    HW1 9253   3.510   5.353   5.009  0.4377  1.8367  0.7937
 2811SOL    HW2 9254   3.380   5.324   4.913  0.8387 -1.9082  1.2520
 2812SOL     OW 9255   1.034   5.950   5.324 -0.2462 -0.0361  0.5920
 2812SOL    HW1 9256   1.074   5.860   5.342 -0.9911 -0.5082 -0.0453
 2812SOL    HW2 9257   1.059   5.980   5.232 -3.9453 -1.8586 -1.2150
 2813SOL     OW 9258   3.833   2.971   0.042 -0.1865  1.0986  0.0963
 2813SOL    HW1 9259   3.766   2.934   0.105  0.2901  1.0370  0.5741
 2813SOL    HW2 9260   3.921   2.924   0.055 -0.7491 -0.9213 -2.5132
 2814SOL     OW 9261   2.627   6.675   3.076  0.3497  0.4177 -0.2698
 2814SOL    HW1 9262   2.597   6.726   2.995 -1.5651 -0.2685 -0.0571
 2814SOL    HW2 9263   2.700   6.725   3.123  0.7417  1.3509 -1.8082
 2815SOL     OW 9264   1.677   1.765   5.449  0.4472 -0.3305  0.0815
 2815SOL    HW1 9265   1.638   1.796   5.363 -0.9189 -2.3208 -0.0808
 2815SOL    HW2 9266   1.680   1.841   5.514 -2.5485  0.2603 -0.3232
 2816SOL     OW 9267   0.284   5.502   1.355 -0.0895 -0.1435 -0.0589
 2816SOL    HW1 9268   0.375   5.460   1.346 -0.2017 -0.1216 -1.4883
 2816SOL    HW2 9269   0.233   5.455   1.428 -0.0433 -2.2415 -1.3049
 2817SOL     OW 9270   6.113   0.733   2.789 -0.0242  0.1613  0.3860
 2817SOL    HW1 9271   6.107   0.660   2.721  3.2631  0.0511  0.0759
 2817SOL    HW2 9272   6.048   0.715   2.863 -0.4957 -2.1608 -0.5267
 2818SOL     OW 9273   1.167   0.490   0.893  0.1465  0.7138 -0.5243
 2818SOL    HW1 9274   1.183   0.422   0.822 -1.0339  1.0194 -1.0990
 2818SOL    HW2 9275   1.074   0.526   0.886  0.7223  2.3875 -0.2488
 2819SOL     OW 9276   6.696   6.880   5.411  0.6694  0.2639  0.4695
 2819SOL    HW1 9277   6.685   6.858   5.508  1.1685  2.2794  1.0147
 2819SOL    HW2 9278   6.606   6.891   5.368  0.3367 -3.1477  0.0080
 2820SOL     OW 9279   6.790   4.778   4.858  0.1122 -0.2570 -0.0276
 2820SOL    HW1 9280   6.759   4.735   4.942  0.2520  0.6240  0.4851
 2820SOL    HW2 9281   6.857   4.849   4.879  2.7455 -2.2429 -1.0939
 2821SOL     OW 9282   1.656   6.953   4.674 -0.1344 -0.6471 -0.4521
 2821SOL    HW1 9283   1.644   6.925   4.578 -1.2445  2.2359 -1.2631
 2821SOL    HW2 9284   1.581   7.014   4.700  0.9281 -0.2093  1.8043
 2822SOL     OW 9285   5.682   1.912   3.709 -0.0692  0.5937 -0.4962
 2822SOL    HW1 9286   5.589   1.947   3.716 -0.0578  0.3002  1.7263
 2822SOL    HW2 9287   5.747   1.986   3.726  0.1216  0.7605 -1.8662
 2823SOL     OW 9288   0.714   4.913   0.440 -0.3387 -0.0733  0.1840
 2823SOL    HW1 9289   0.638   4.978   0.440 -1.1508 -0.8729  2.9655
 2823SOL    HW2 9290   0.775   4.933   0.516  0.7642 -1.0812 -0.4015
 2824SOL     OW 9291   6.487   1.150   4.711 -0.6432  0.5050  0.1513
 2824SOL    HW1 9292   6.519   1.128   4.803 -0.3882 -2.5097 -0.5404
 2824SOL    HW2 9293   6.555   1.119   4.644 -0.9749  2.3215 -1.1174
 2825SOL     OW 9294   4.642   0.716   1.218  0.2598  0.2664  0.4331
 2825SOL    HW1 9295   4.640   0.810   1.251 -2.3983 -0.0289  1.3304
 2825SOL    HW2 9296   4.575   0.705   1.144 -0.7891 -1.2734  1.5403
 2826SOL     OW 9297   6.024   6.661   6.455 -0.4027 -0.2372 -0.5563
 2826SOL    HW1 9298   6.120   6.684   6.441 -0.8316  0.6870 -2.2416
 2826SOL    HW2 9299   5.985   6.720   6.525  0.3775 -1.0020  0.5514
 2827SOL     OW 9300   1.234   6.697   2.937  0.1058  0.6441 -0.2662
 2827SOL    HW1 9301   1.244   6.603   2.969  0.1640 -0.5692 -3.4308
 2827SOL    HW2 9302   1.137   6.722   2.937 -0.0198  0.1736 -0.4267
 2828SOL     OW 9303   6.719   1.486   4.756  0.3529  0.5260 -0.1832
 2828SOL    HW1 9304   6.800   1.521   4.709 -0.8567  1.0717 -1.9515
 2828SOL    HW2 9305   6.718   1.386   4.752  0.5434  0.5498 -0.8505
 2829SOL     OW 9306   5.188   4.370   2.180 -0.2211  0.2657 -0.2339
 2829SOL    HW1 9307   5.159   4.289   2.130 -1.0618  0.6113 -0.3315
 2829SOL    HW2 9308   5.118   4.394   2.248  0.4736  0.3390  0.4715
 2830SOL     OW 9309   4.085   3.206   6.368 -0.2524  0.2209 -0.5475
 2830SOL    HW1 9310   4.060   3.272   6.297 -2.5213  0.2960  0.2390
 2830SOL    HW2 9311   4.060   3.243   6.458  1.4550 -0.3744  0.2111
 2831SOL     OW 9312   2.192   2.654   6.197 -0.1818 -0.6640  0.2669
 2831SOL    HW1 9313   2.282   2.664   6.155 -0.4873  2.1050  0.0962
 2831SOL    HW2 9314   2.183   2.561   6.234  2.2027 -1.4272 -0.8479
 2832SOL     OW 9315   5.515   2.938   3.636  0.2481  0.0516  0.0555
 2832SOL    HW1 9316   5.592   2.881   3.606  0.3069 -0.5796  1.3216
 2832SOL    HW2 9317   5.521   2.953   3.735  0.1627  2.2082 -0.2249
 2833SOL     OW 9318   4.690   5.765   3.312 -0.2839 -0.5496  0.1236
 2833SOL    HW1 9319   4.697   5.814   3.399  2.4166  0.8257 -0.7481
 2833SOL    HW2 9320   4.613   5.701   3.316 -1.1842  0.5380  2.9370
 2834SOL     OW 9321   6.382   4.455   1.852  0.7750  0.0998  0.5990
 2834SOL    HW1 9322   6.343   4.369   1.885 -0.5034  1.0336  1.6029
 2834SOL    HW2 9323   6.453   4.435   1.783 -1.7583 -1.6857 -1.7102
 2835SOL     OW 9324   5.071   2.970   6.288  0.2527 -0.4065 -0.2446
 2835SOL    HW1 9325   4.973   2.987   6.296 -0.0153 -1.9871  0.0483
 2835SOL    HW2 9326   5.109   2.950   6.378  1.0651  1.1482 -0.2047
 2836SOL     OW 9327   1.341   4.927   3.342 -0.2006  0.1921 -0.6055
 2836SOL    HW1 9328   1.363   5.000   3.277  0.1616  1.8814  1.2981
 2836SOL    HW2 9329   1.418   4.864   3.349  0.1466  0.5574 -1.0636
 2837SOL     OW 9330   6.064   6.676   0.052 -0.5745  0.3458  0.3352
 2837SOL    HW1 9331   5.999   6.677  -0.024 -3.2737  0.3102  2.5052
 2837SOL    HW2 9332   6.072   6.768   0.091  0.1438  0.2003  0.5467
 2838SOL     OW 9333   0.537   6.892   1.756  0.1715  0.4526 -0.7046
 2838SOL    HW1 9334   0.545   6.847   1.845  0.5309 -0.9460 -1.4192
 2838SOL    HW2 9335   0.569   6.830   1.684 -3.5279  0.1035 -2.2650
 2839SOL     OW 9336   2.583   2.716   3.690  0.0060 -0.1299  0.6225
 2839SOL    HW1 9337   2.486   2.739   3.703 -0.0940  0.1509 -0.5040
 2839SOL    HW2 9338   2.614   2.659   3.766 -0.0840  2.6763  2.9359
 2840SOL     OW 9339   0.829   1.673   6.645 -0.1344  0.5402 -0.2607
 2840SOL    HW1 9340   0.781   1.638   6.725 -0.5939  0.6563 -0.4838
 2840SOL    HW2 9341   0.763   1.703   6.576  0.1408 -2.4606 -2.0226
 2841SOL     OW 9342   2.506   6.955   1.718  0.0491 -0.0959  0.0118
 2841SOL    HW1 9343   2.482   6.937   1.814  2.5865  1.5357  1.0676
 2841SOL    HW2 9344   2.424   6.977   1.666 -2.0175 -4.7328  0.7698
 2842SOL     OW 9345   6.742   6.127   4.888  0.5957 -0.7508  1.0164
 2842SOL    HW1 9346   6.671   6.087   4.830 -0.5329 -0.6334  2.2738
 2842SOL    HW2 9347   6.731   6.227   4.889  0.0679 -0.8126  2.0957
 2843SOL     OW 9348   0.147   3.594   1.876  0.0312 -0.0440  0.5597
 2843SOL    HW1 9349   0.139   3.545   1.789 -0.4184 -0.2426  0.7104
 2843SOL    HW2 9350   0.111   3.686   1.866 -0.4615 -0.2240  0.6598
 2844SOL     OW 9351   1.487   6.504   5.190 -0.3343 -0.0838 -0.1122
 2844SOL    HW1 9352   1.551   6.469   5.259 -1.3206  0.7778  1.2935
 2844SOL    HW2 9353   1.491   6.604   5.188 -0.8980 -0.0660 -0.7414
 2845SOL     OW 9354   1.529   5.686   1.106 -0.1255 -0.4040 -0.4498
 2845SOL    HW1 9355   1.590   5.706   1.182 -0.0850  0.1034 -0.6071
 2845SOL    HW2 9356   1.573   5.623   1.042 -0.0594 -0.6255 -0.1837
 2846SOL     OW 9357   6.501   3.765   5.071  0.1407 -0.4012 -0.1570
 2846SOL    HW1 9358   6.427   3.794   5.011 -0.9556 -2.3516  0.1935
 2846SOL    HW2 9359   6.477   3.786   5.166 -0.1188 -1.3132 -0.0142
 2847SOL     OW 9360   0.232   2.558   0.786  0.6625  0.3191 -0.1608
 2847SOL    HW1 9361   0.270   2.467   0.804 -0.9981 -0.1729  1.2063
 2847SOL    HW2 9362   0.152   2.549   0.727 -0.1197  0.7388  0.8011
 2848SOL     OW 9363   5.517   0.850   2.424  0.3583 -0.1228  0.1422
 2848SOL    HW1 9364   5.546   0.765   2.465  0.7975  0.0426  0.1791
 2848SOL    HW2 9365   5.477   0.832   2.334  2.1883 -0.1995 -0.6960
 2849SOL     OW 9366   0.633   1.375   3.236 -0.1355  0.0705 -0.7730
 2849SOL    HW1 9367   0.616   1.428   3.153 -0.3068  0.8868 -0.2336
 2849SOL    HW2 9368   0.567   1.300   3.242  1.8309 -1.9664 -2.9478
 2850SOL     OW 9369   1.538   1.449   0.847  0.0341  0.1432 -0.5927
 2850SOL    HW1 9370   1.569   1.369   0.898 -0.3513 -1.6751 -3.0091
 2850SOL    HW2 9371   1.470   1.499   0.901 -1.3190 -2.3950  0.2140
 2851SOL     OW 9372   0.324   1.343   0.476 -0.0793 -0.6009  0.1910
 2851SOL    HW1 9373   0.286   1.361   0.567  1.3829 -1.7061  1.0540
 2851SOL    HW2 9374   0.285   1.408   0.411 -1.3186  0.0844  1.5441
 2852SOL     OW 9375   5.147   0.670   0.931  0.3337 -0.0370  0.0277
 2852SOL    HW1 9376   5.104   0.754   0.964 -0.5455 -0.5741  0.2812
 2852SOL    HW2 9377   5.233   0.654   0.980  0.4015  0.6028  0.1214
 2853SOL     OW 9378   5.839   4.271   0.686 -0.2181 -0.2540  0.5575
 2853SOL    HW1 9379   5.834   4.248   0.783  2.0183 -1.2216  0.4983
 2853SOL    HW2 9380   5.772   4.217   0.636  0.1738 -1.4846  1.3117
 2854SOL     OW 9381   6.155   0.309   0.401 -0.0137 -0.0316 -0.0866
 2854SOL    HW1 9382   6.097   0.390   0.404 -1.4857 -1.0844  1.3433
 2854SOL    HW2 9383   6.153   0.263   0.490  1.8161 -0.9544 -0.4704
 2855SOL     OW 9384   1.283   5.406   0.926 -0.8848  0.1772  0.0790
 2855SOL    HW1 9385   1.266   5.499   0.892 -0.3015  1.0160  1.9327
 2855SOL    HW2 9386   1.216   5.384   0.997 -0.8007 -0.7015 -0.1067
 2856SOL     OW 9387   0.747   3.741   3.654  0.3199 -0.1074  0.3619
 2856SOL    HW1 9388   0.779   3.823   3.702  0.6924  0.1178 -0.2643
 2856SOL    HW2 9389   0.660   3.760   3.609  0.2871 -0.1260  0.4177
 2857SOL     OW 9390   1.306   5.235   2.317  0.0336 -0.2689 -0.5915
 2857SOL    HW1 9391   1.293   5.327   2.353  1.9803 -0.8603  1.9421
 2857SOL    HW2 9392   1.221   5.183   2.328  0.0662  0.0716  1.8548
 2858SOL     OW 9393   5.518   6.343   5.111  0.4097  0.0724  0.1337
 2858SOL    HW1 9394   5.534   6.258   5.060  0.6465 -0.3897  0.9632
 2858SOL    HW2 9395   5.604   6.394   5.119  0.2953  0.3352 -0.2441
 2859SOL     OW 9396   5.526   4.844   4.423 -0.1519  0.1726 -0.0531
 2859SOL    HW1 9397   5.494   4.848   4.329 -1.2041 -0.1323  0.2685
 2859SOL    HW2 9398   5.565   4.932   4.449 -0.8595  0.6141 -0.4424
 2860SOL     OW 9399   1.906   1.170   5.697 -0.6700  0.4032 -0.4564
 2860SOL    HW1 9400   1.865   1.224   5.624 -0.6258 -0.4337 -1.1198
 2860SOL    HW2 9401   1.976   1.224   5.743 -1.4041  1.2940 -0.3533
 2861SOL     OW 9402   0.158   1.780   6.206 -0.0419 -0.3055 -0.6675
 2861SOL    HW1 9403   0.157   1.684   6.233  1.1134 -0.4371 -1.0475
 2861SOL    HW2 9404   0.223   1.794   6.132 -0.2077  0.7707 -0.6323
 2862SOL     OW 9405   4.053   3.920   4.525  0.2090  0.0759  0.5497
 2862SOL    HW1 9406   4.010   3.872   4.449  0.8759 -1.4192  1.0874
 2862SOL    HW2 9407   3.995   3.914   4.606  0.2600  0.2665  0.6027
 2863SOL     OW 9408   1.964   1.866   6.550  0.2143  0.0280  0.5704
 2863SOL    HW1 9409   1.987   1.814   6.467 -0.5102  1.2750 -0.4403
 2863SOL    HW2 9410   1.890   1.818   6.599  0.2156 -0.3977  0.1688
 2864SOL     OW 9411   6.696   6.288   2.895  0.1515  0.0952 -0.4583
 2864SOL    HW1 9412   6.747   6.362   2.851 -0.2913  2.6228  2.9385
 2864SOL    HW2 9413   6.651   6.322   2.977  0.7837 -4.1823  1.9539
 2865SOL     OW 9414   2.938   0.745   2.914  0.3904 -0.2294  0.4317
 2865SOL    HW1 9415   3.018   0.804   2.909 -0.6392  1.1535 -0.4865
 2865SOL    HW2 9416   2.876   0.779   2.986  0.8119 -1.5471  1.4430
 2866SOL     OW 9417   1.746   1.691   0.585 -0.1912  0.0630 -0.0872
 2866SOL    HW1 9418   1.774   1.780   0.548 -0.3015  0.2477  0.2682
 2866SOL    HW2 9419   1.821   1.653   0.639 -0.3775  0.2517  0.3132
 2867SOL     OW 9420   4.590   3.107   2.484  0.2071  0.4229 -0.2684
 2867SOL    HW1 9421   4.548   3.076   2.570  0.3971 -0.3546 -0.4555
 2867SOL    HW2 9422   4.520   3.112   2.413  0.5352 -1.6921 -0.8041
 2868SOL     OW 9423   1.371   1.219   5.459 -0.1926 -0.0914 -0.0544
 2868SOL    HW1 9424   1.348   1.138   5.513  0.2924  0.1496  0.5232
 2868SOL    HW2 9425   1.460   1.206   5.415 -0.2378  0.0229 -0.1819
 2869SOL     OW 9426   5.721   0.264   4.378  0.0924 -0.2836  0.1127
 2869SOL    HW1 9427   5.715   0.362   4.400  0.4986 -0.3578  0.5610
 2869SOL    HW2 9428   5.674   0.247   4.292 -0.9604  0.1162  0.5955
 2870SOL     OW 9429   4.381   2.237   5.054 -0.1258 -0.1098  0.1511
 2870SOL    HW1 9430   4.386   2.139   5.073  0.2211 -0.1568 -0.1792
 2870SOL    HW2 9431   4.297   2.274   5.094 -0.8886 -0.7843 -0.7906
 2871SOL     OW 9432   5.176   1.570   6.072  0.0826  0.1017 -0.1969
 2871SOL    HW1 9433   5.129   1.491   6.112 -0.3518  0.4348 -0.0398
 2871SOL    HW2 9434   5.157   1.651   6.127 -0.0125  0.4450 -0.7333
 2872SOL     OW 9435   3.758   0.715   4.167  0.4042 -0.1394 -0.0253
 2872SOL    HW1 9436   3.736   0.693   4.262 -0.7682 -0.7086 -0.4095
 2872SOL    HW2 9437   3.784   0.811   4.161  0.1719 -0.0123  0.8269
 2873SOL     OW 9438   3.686   3.383   1.392 -0.6791 -0.0651  0.3931
 2873SOL    HW1 9439   3.682   3.467   1.446  0.7265 -0.0446  0.4939
 2873SOL    HW2 9440   3.754   3.321   1.431 -1.2354 -0.9860 -0.0648
 2874SOL     OW 9441   3.264   0.588   4.242 -0.2360  0.0787  0.1219
 2874SOL    HW1 9442   3.291   0.628   4.330 -0.2162 -2.1152  1.1776
 2874SOL    HW2 9443   3.333   0.522   4.213 -1.1534 -0.5811 -0.6064
 2875SOL     OW 9444   4.738   0.177   2.254 -0.3702 -0.1904 -0.0081
 2875SOL    HW1 9445   4.659   0.116   2.242 -0.0716 -0.4737 -0.5678
 2875SOL    HW2 9446   4.706   0.272   2.256 -0.5538 -0.1039 -2.7243
 2876SOL     OW 9447   6.822   5.299   6.507 -0.9592  0.3441 -0.5691
 2876SOL    HW1 9448   6.742   5.332   6.557  0.0014  1.3391  0.3826
 2876SOL    HW2 9449   6.871   5.232   6.564 -1.3973 -0.6866 -1.3730
 2877SOL     OW 9450   2.389   5.954   1.085 -0.4399  0.3119 -0.1455
 2877SOL    HW1 9451   2.367   5.857   1.075  0.6515 -0.1500  1.5865
 2877SOL    HW2 9452   2.486   5.968   1.067 -0.0036  0.6080  2.1520
 2878SOL     OW 9453   5.302   2.365   6.760 -0.1972  0.2722  0.0867
 2878SOL    HW1 9454   5.263   2.449   6.798  0.3446  0.5056  0.1440
 2878SOL    HW2 9455   5.273   2.354   6.665 -0.2845  0.5146  0.0841
 2879SOL     OW 9456   5.612   0.499   1.609 -0.6202  0.3494  0.0180
 2879SOL    HW1 9457   5.653   0.443   1.537 -1.1433  1.6515 -1.3438
 2879SOL    HW2 9458   5.519   0.467   1.627 -0.5582  0.1422 -0.0219
 2880SOL     OW 9459   4.828   6.094   5.319  0.6409 -0.4389  0.1977
 2880SOL    HW1 9460   4.767   6.031   5.271  0.5393 -0.6483  0.6032
 2880SOL    HW2 9461   4.831   6.071   5.416  2.4412 -1.3046 -0.0246
 2881SOL     OW 9462   0.512   1.005   1.615  0.1322  0.0738 -0.1157
 2881SOL    HW1 9463   0.509   1.034   1.519 -2.7382 -0.1567 -0.1791
 2881SOL    HW2 9464   0.603   0.968   1.636  0.8965  0.3266 -2.6634
 2882SOL     OW 9465   1.701   0.275   6.425  0.4417  0.5040  0.8442
 2882SOL    HW1 9466   1.737   0.255   6.517  1.9748  0.3004  0.2245
 2882SOL    HW2 9467   1.746   0.215   6.358  2.7604  3.6341 -0.6423
 2883SOL     OW 9468   2.102   4.266   3.661  0.7715  0.4675  0.3805
 2883SOL    HW1 9469   2.115   4.298   3.755  1.6022  1.5412 -0.0857
 2883SOL    HW2 9470   2.010   4.226   3.653  0.6598  0.4116  1.6184
 2884SOL     OW 9471   5.132   1.095   2.882  0.0403  0.2577 -0.0360
 2884SOL    HW1 9472   5.226   1.121   2.904 -0.0881  1.5462 -0.9128
 2884SOL    HW2 9473   5.107   1.134   2.793 -2.0592  1.8537  1.1713
 2885SOL     OW 9474   4.339   1.210   5.743 -0.1144  0.2453 -0.3393
 2885SOL    HW1 9475   4.393   1.221   5.826 -0.0077  0.3380 -0.4219
 2885SOL    HW2 9476   4.308   1.115   5.736  0.1413  0.1621 -0.3555
 2886SOL     OW 9477   1.412   3.234   3.945 -0.4592 -0.4930 -0.5373
 2886SOL    HW1 9478   1.419   3.304   3.873 -0.2966 -0.0349 -0.0812
 2886SOL    HW2 9479   1.479   3.254   4.017 -1.6484 -0.0671  0.4884
 2887SOL     OW 9480   1.921   4.218   6.919 -0.4371  0.1282  0.0064
 2887SOL    HW1 9481   1.828   4.250   6.939 -0.6361 -1.1232  1.2026
 2887SOL    HW2 9482   1.927   4.120   6.935  0.6512 -0.1470 -1.7605
 2888SOL     OW 9483   6.497   4.235   4.061 -0.2370  0.0571  0.1435
 2888SOL    HW1 9484   6.440   4.250   4.142  0.0908  0.5120  0.2981
 2888SOL    HW2 9485   6.439   4.209   3.983 -0.8969  2.3383 -0.1921
 2889SOL     OW 9486   3.073   6.158   5.437  0.4825  0.0983 -0.3076
 2889SOL    HW1 9487   3.048   6.089   5.369  1.9463 -0.5805 -0.1977
 2889SOL    HW2 9488   3.129   6.228   5.394  0.8957 -0.0015  0.0655
 2890SOL     OW 9489   3.676   4.329   6.236  0.2594 -0.8915  0.4245
 2890SOL    HW1 9490   3.620   4.375   6.305  1.3708  1.4962 -0.1595
 2890SOL    HW2 9491   3.616   4.283   6.170 -0.8278 -2.8925  2.6714
 2891SOL     OW 9492   0.143   0.353   1.130 -0.8027 -0.0882  0.6009
 2891SOL    HW1 9493   0.091   0.268   1.129 -0.8919 -0.0332 -0.1099
 2891SOL    HW2 9494   0.081   0.429   1.152 -0.6691 -0.2348  1.5064
 2892SOL     OW 9495   6.979   4.598   6.077  0.8923  0.0273 -0.0217
 2892SOL    HW1 9496   6.983   4.503   6.047 -1.6032 -0.0120 -0.4600
 2892SOL    HW2 9497   6.976   4.659   5.998 -0.5207  0.2423  0.1580
 2893SOL     OW 9498   1.836   1.934   3.936  0.2679  0.1125  0.4821
 2893SOL    HW1 9499   1.782   1.970   3.860  1.5849  0.3100 -0.3977
 2893SOL    HW2 9500   1.784   1.864   3.984 -1.1719  1.0297  0.3416
 2894SOL     OW 9501   2.480   0.319   4.407  0.3484  0.2703 -0.4939
 2894SOL    HW1 9502   2.434   0.255   4.346  0.6175  1.5911 -2.1324
 2894SOL    HW2 9503   2.565   0.278   4.440 -0.9327 -1.3971  0.9746
 2895SOL     OW 9504   6.333   2.013   4.979  0.2823 -0.4069 -0.8597
 2895SOL    HW1 9505   6.351   1.915   4.978 -0.6553 -0.6033 -0.0157
 2895SOL    HW2 9506   6.235   2.029   4.977  0.3448  0.4475  0.7011
 2896SOL     OW 9507   4.746   6.366   1.162  0.1319  0.0633  0.0632
 2896SOL    HW1 9508   4.759   6.325   1.072  1.8508  1.9801 -0.6467
 2896SOL    HW2 9509   4.673   6.434   1.157 -0.5735 -0.6488  0.4437
 2897SOL     OW 9510   5.219   6.413   3.401  0.1410  0.2655 -0.0672
 2897SOL    HW1 9511   5.243   6.326   3.358  2.3971  0.3657  0.8526
 2897SOL    HW2 9512   5.159   6.396   3.480 -1.0557 -0.2262 -1.0395
 2898SOL     OW 9513   1.085   2.304   4.812  0.0424  0.1483  0.1372
 2898SOL    HW1 9514   0.986   2.311   4.808  0.0686  1.0215  0.6464
 2898SOL    HW2 9515   1.121   2.279   4.722 -0.7835 -2.7317  0.5022
 2899SOL     OW 9516   2.420   3.804   1.861 -0.4934  0.5988  0.1118
 2899SOL    HW1 9517   2.421   3.870   1.936 -0.6319  1.3308 -0.5145
 2899SOL    HW2 9518   2.466   3.843   1.781  0.6194 -0.5781  0.1316
 2900SOL     OW 9519   5.959   5.710   5.772  0.4902 -0.1527  0.2338
 2900SOL    HW1 9520   6.019   5.689   5.694  1.8155  2.7692  0.3253
 2900SOL    HW2 9521   6.016   5.731   5.852 -0.5722  2.3895  0.4205
 2901SOL     OW 9522   0.035   1.361   2.581  0.2647  0.0126  0.3490
 2901SOL    HW1 9523  -0.038   1.428   2.567 -0.3143 -0.4978  0.8543
 2901SOL    HW2 9524   0.122   1.400   2.552 -0.1237  0.8406  0.2660
 2902SOL     OW 9525   4.934   6.088   6.523 -0.0791 -0.5820  0.0959
 2902SOL    HW1 9526   4.837   6.063   6.518 -0.7540  1.9206 -0.9036
 2902SOL    HW2 9527   4.975   6.080   6.432  0.0560  0.4385  0.0591
 2903SOL     OW 9528   5.447   5.434   1.114 -0.5856  0.1316 -0.4780
 2903SOL    HW1 9529   5.384   5.382   1.057 -1.4107  1.9259 -1.2782
 2903SOL    HW2 9530   5.541   5.415   1.085 -0.8881 -0.5826 -1.0317
 2904SOL     OW 9531   4.676   0.864   4.774 -1.1391  0.1547  0.2405
 2904SOL    HW1 9532   4.743   0.937   4.785 -1.5493  0.7436 -1.0047
 2904SOL    HW2 9533   4.663   0.845   4.677 -0.9439 -1.6887  0.5349
 2905SOL     OW 9534   2.369   4.165   1.136 -0.2105  0.6804 -0.4982
 2905SOL    HW1 9535   2.413   4.090   1.086 -0.5957  1.4690 -2.0882
 2905SOL    HW2 9536   2.273   4.143   1.152  0.3945 -0.5350  1.9486
 2906SOL     OW 9537   6.260   6.228   3.381 -0.0852 -0.3274 -0.3384
 2906SOL    HW1 9538   6.178   6.174   3.363  0.2296 -1.5285  1.5144
 2906SOL    HW2 9539   6.236   6.324   3.390 -1.3946 -0.7209  0.6326
 2907SOL     OW 9540   5.451   5.000   3.405  0.9873 -0.2745 -0.0218
 2907SOL    HW1 9541   5.473   4.906   3.376  1.6112 -0.1317 -0.0285
 2907SOL    HW2 9542   5.413   5.051   3.328  0.8330 -0.4667 -0.0723
 2908SOL     OW 9543   4.708   3.925   3.828  0.6626  0.1484 -0.0277
 2908SOL    HW1 9544   4.651   4.007   3.831 -1.9101 -1.4939 -1.3280
 2908SOL    HW2 9545   4.696   3.873   3.912  0.5779  0.0023 -0.1306
 2909SOL     OW 9546   0.247   2.887   2.126 -0.3631  0.0709 -0.3666
 2909SOL    HW1 9547   0.267   2.982   2.150  0.2805 -0.4285  1.2795
 2909SOL    HW2 9548   0.299   2.827   2.187 -2.2695 -1.3271 -0.0387
 2910SOL     OW 9549   1.977   2.191   5.911  0.4374  0.4992 -0.0016
 2910SOL    HW1 9550   1.956   2.093   5.918 -2.4370  0.9997 -0.3021
 2910SOL    HW2 9551   1.959   2.222   5.818  1.6988  1.2776 -0.0094
 2911SOL     OW 9552   0.478   0.568   6.517 -0.0147 -0.4235  0.0658
 2911SOL    HW1 9553   0.475   0.624   6.600  0.6747  0.8541 -0.7508
 2911SOL    HW2 9554   0.384   0.546   6.489 -0.3942  1.5673 -0.3928
 2912SOL     OW 9555   5.476   4.701   5.592  0.1746  0.0131 -0.0022
 2912SOL    HW1 9556   5.524   4.663   5.672 -0.4835 -1.3318 -0.2247
 2912SOL    HW2 9557   5.529   4.682   5.510  0.5992  0.9486  0.0490
 2913SOL     OW 9558   0.917   3.030   4.206  0.2280  0.2285 -0.2035
 2913SOL    HW1 9559   0.869   2.955   4.250 -0.2015 -0.0836 -1.1701
 2913SOL    HW2 9560   0.964   2.996   4.125 -0.7129  1.1424 -1.1715
 2914SOL     OW 9561   2.077   0.846   2.879  0.1485 -0.0490 -0.1689
 2914SOL    HW1 9562   2.005   0.912   2.900  0.5301  1.2442 -2.6590
 2914SOL    HW2 9563   2.150   0.891   2.827  1.0975 -2.1173 -0.7169
 2915SOL     OW 9564   3.091   6.817   0.252  0.7741 -0.2511 -0.0552
 2915SOL    HW1 9565   3.021   6.751   0.279  0.7613 -1.1140 -2.0118
 2915SOL    HW2 9566   3.061   6.909   0.275 -0.0898 -0.7594  0.9392
 2916SOL     OW 9567   5.452   4.407   5.504 -0.3683 -0.3837 -0.3318
 2916SOL    HW1 9568   5.379   4.391   5.437 -1.0767 -1.4870  0.6689
 2916SOL    HW2 9569   5.436   4.495   5.550  0.2004  0.4543 -1.6674
 2917SOL     OW 9570   0.654   3.033   1.931  0.0388 -0.0207  0.4334
 2917SOL    HW1 9571   0.655   3.120   1.882  1.6496 -1.2173 -1.8420
 2917SOL    HW2 9572   0.579   2.976   1.897 -0.4328  0.1060  1.2417
 2918SOL     OW 9573   2.828   3.767   0.043 -0.5514  0.0774 -0.5252
 2918SOL    HW1 9574   2.871   3.855   0.024 -0.0061 -0.1766 -0.4928
 2918SOL    HW2 9575   2.799   3.764   0.139 -0.9952  0.3956 -0.6475
 2919SOL     OW 9576   6.460   1.435   2.596  0.0494  0.5486 -0.4436
 2919SOL    HW1 9577   6.447   1.338   2.614 -0.5960  0.5305 -0.9659
 2919SOL    HW2 9578   6.492   1.448   2.502  1.4789  0.7641  0.0403
 2920SOL     OW 9579   2.568   0.626   5.116 -0.6249 -0.2444  0.2347
 2920SOL    HW1 9580   2.480   0.632   5.069 -0.1872 -0.6575 -0.6568
 2920SOL    HW2 9581   2.589   0.530   5.134 -0.1546 -0.1821  0.0412
 2921SOL     OW 9582   5.643   0.810   6.331 -0.0964  0.1375  0.2834
 2921SOL    HW1 9583   5.592   0.781   6.250  0.7269  1.9801 -0.9649
 2921SOL    HW2 9584   5.598   0.889   6.373  1.5563  1.7037 -0.7591
 2922SOL     OW 9585   4.620   2.649   6.919 -0.2024 -0.0298  0.0274
 2922SOL    HW1 9586   4.565   2.673   6.840 -0.6305 -0.1116  0.2948
 2922SOL    HW2 9587   4.686   2.721   6.938 -1.4526  0.9650  0.8097
 2923SOL     OW 9588   6.808   5.792   4.902 -0.1996  0.5190  0.1174
 2923SOL    HW1 9589   6.821   5.887   4.876  0.4153  0.3898 -0.0481
 2923SOL    HW2 9590   6.715   5.780   4.937 -0.2839  1.1744  0.1313
 2924SOL     OW 9591   4.362   6.160   6.096 -0.1412  0.0463 -0.6385
 2924SOL    HW1 9592   4.452   6.203   6.105 -1.0866  2.1182 -0.3180
 2924SOL    HW2 9593   4.301   6.197   6.166 -1.6388 -0.1869 -1.7636
 2925SOL     OW 9594   2.478   3.145   6.943 -0.0425  0.4292 -0.1374
 2925SOL    HW1 9595   2.531   3.176   7.022 -1.1826 -0.0503  0.8560
 2925SOL    HW2 9596   2.503   3.051   6.920 -0.0876  0.3828  0.0009
 2926SOL     OW 9597   3.267   3.816   6.046  0.0674  0.5385  0.3688
 2926SOL    HW1 9598   3.281   3.719   6.023 -1.9427 -0.2138  1.9898
 2926SOL    HW2 9599   3.216   3.860   5.973 -0.1310  0.0397  0.2001
 2927SOL     OW 9600   3.385   0.109   6.198  0.0748  0.6352  0.7910
 2927SOL    HW1 9601   3.378   0.020   6.242 -0.8776  1.2520  1.9536
 2927SOL    HW2 9602   3.294   0.151   6.193  0.3908  1.1979 -0.4714
 2928SOL     OW 9603   3.021   5.256   6.728 -0.0596 -0.1549  0.0998
 2928SOL    HW1 9604   3.054   5.162   6.740 -0.8196 -0.4724 -0.2287
 2928SOL    HW2 9605   2.948   5.274   6.795  0.2295  0.2785  0.3042
 2929SOL     OW 9606   2.966   4.733   3.761 -0.1834 -0.2659  0.1545
 2929SOL    HW1 9607   2.928   4.822   3.737  1.8525  0.8659  0.9250
 2929SOL    HW2 9608   2.966   4.722   3.860 -1.7586 -1.7980  0.0447
 2930SOL     OW 9609   4.138   0.987   6.282  0.3232  0.7252 -0.1474
 2930SOL    HW1 9610   4.065   1.022   6.341  0.3483  2.0424 -0.8491
 2930SOL    HW2 9611   4.221   0.973   6.337 -0.1508  0.2146  0.4535
 2931SOL     OW 9612   3.794   3.403   5.520 -0.4016  0.1541  0.1126
 2931SOL    HW1 9613   3.845   3.320   5.495  0.0477  0.4011  0.2009
 2931SOL    HW2 9614   3.835   3.482   5.474 -1.3127  0.2293 -0.6066
 2932SOL     OW 9615   3.726   1.874   6.535 -0.0773  0.2412 -0.1027
 2932SOL    HW1 9616   3.783   1.957   6.531 -0.1711  0.3747  1.1249
 2932SOL    HW2 9617   3.650   1.884   6.470 -0.3455  1.3293  0.3470
 2933SOL     OW 9618   2.461   1.550   3.833  0.2903 -0.4550  0.4258
 2933SOL    HW1 9619   2.418   1.541   3.744  1.4124  1.7163 -0.4219
 2933SOL    HW2 9620   2.557   1.522   3.827  0.2993 -0.5684  1.0295
 2934SOL     OW 9621   0.279   1.921   3.058  0.3683  0.2573 -0.5788
 2934SOL    HW1 9622   0.212   1.875   3.117  0.1764  0.4167 -0.6736
 2934SOL    HW2 9623   0.246   2.013   3.035  0.9509  0.6166 -0.0289
 2935SOL     OW 9624   6.481   4.000   0.597  0.2038 -0.3344 -0.0725
 2935SOL    HW1 9625   6.389   4.035   0.613 -1.3022 -2.5156 -2.9249
 2935SOL    HW2 9626   6.488   3.907   0.634  1.5216  0.0618  0.7287
 2936SOL     OW 9627   5.423   5.555   3.254  0.9665  0.0699  0.6409
 2936SOL    HW1 9628   5.395   5.573   3.160 -0.5038 -1.1751  0.8144
 2936SOL    HW2 9629   5.368   5.609   3.317 -0.9178 -2.0785  0.9598
 2937SOL     OW 9630   2.795   3.207   5.815 -0.2992  0.4270  0.2680
 2937SOL    HW1 9631   2.776   3.191   5.912 -2.1223  0.4438 -0.0471
 2937SOL    HW2 9632   2.780   3.303   5.793  1.1066  0.6429  0.1537
 2938SOL     OW 9633   4.846   4.374   0.631  0.2181 -0.1798 -0.3109
 2938SOL    HW1 9634   4.881   4.285   0.660  0.4298 -0.2046 -0.6437
 2938SOL    HW2 9635   4.846   4.436   0.710  1.2599 -0.0987 -0.3569
 2939SOL     OW 9636   2.043   1.020   1.575 -0.3121 -0.1628  0.1655
 2939SOL    HW1 9637   2.083   0.990   1.487 -0.3616  0.2824 -0.0091
 2939SOL    HW2 9638   2.074   0.958   1.647 -0.4617 -0.6803 -0.2007
 2940SOL     OW 9639   2.749   2.940   5.783  0.1551 -0.4136 -0.6036
 2940SOL    HW1 9640   2.785   3.031   5.807  2.4684 -1.5054  0.4141
 2940SOL    HW2 9641   2.706   2.899   5.863  0.0870 -0.6442 -0.7580
 2941SOL     OW 9642   0.571   4.129   6.921  0.0438 -0.3410  0.2973
 2941SOL    HW1 9643   0.506   4.183   6.866  1.1075  0.3731 -0.3055
 2941SOL    HW2 9644   0.634   4.080   6.860  1.1599  0.3479  0.8527
 2942SOL     OW 9645   3.154   1.516   6.579 -0.7039  0.8258  0.1622
 2942SOL    HW1 9646   3.127   1.421   6.562  1.6304  0.3326 -1.2847
 2942SOL    HW2 9647   3.146   1.568   6.494 -0.0044  1.3961  0.4402
 2943SOL     OW 9648   3.189   6.593   4.816  0.1262 -0.0104 -0.5291
 2943SOL    HW1 9649   3.246   6.670   4.790 -1.3940  0.6552 -2.1342
 2943SOL    HW2 9650   3.105   6.627   4.860  0.3503 -0.8786  0.6087
 2944SOL     OW 9651   3.890   5.632   6.932 -0.1873 -0.0625  0.4962
 2944SOL    HW1 9652   3.982   5.622   6.892 -0.9617 -1.6043 -1.0079
 2944SOL    HW2 9653   3.822   5.607   6.864 -1.7554  1.0059  1.6153
 2945SOL     OW 9654   3.938   0.629   0.504  0.0204  0.3143 -0.0211
 2945SOL    HW1 9655   3.957   0.539   0.542 -0.9536  0.4319  0.7796
 2945SOL    HW2 9656   3.871   0.676   0.562 -0.5159  1.0132 -1.1817
 2946SOL     OW 9657   2.311   1.928   5.948  0.5128  0.2474 -0.1385
 2946SOL    HW1 9658   2.401   1.907   5.909  0.3544 -4.2236  1.3106
 2946SOL    HW2 9659   2.242   1.921   5.876  1.0237  0.5130 -0.6617
 2947SOL     OW 9660   3.392   5.500   3.245 -0.6924 -0.2538  0.3409
 2947SOL    HW1 9661   3.367   5.501   3.148  1.7968  0.0599 -0.3626
 2947SOL    HW2 9662   3.485   5.533   3.255 -1.4462  1.3159  3.0610
 2948SOL     OW 9663   2.076   3.035   5.962  0.5501 -0.4079  0.3838
 2948SOL    HW1 9664   2.135   2.970   5.916 -0.0387  0.0591 -1.0835
 2948SOL    HW2 9665   1.987   3.037   5.917  1.1326  2.7702 -0.8731
 2949SOL     OW 9666   4.382   6.285   1.033 -0.5971  0.1800 -0.1222
 2949SOL    HW1 9667   4.358   6.333   0.949 -2.8562 -0.0409  0.3239
 2949SOL    HW2 9668   4.365   6.187   1.021 -2.0944  0.2778  0.9020
 2950SOL     OW 9669   1.058   2.789   0.570 -0.7721  0.1106 -0.4596
 2950SOL    HW1 9670   1.092   2.716   0.628 -1.1041 -0.5759 -1.1053
 2950SOL    HW2 9671   1.038   2.752   0.479 -1.2539  0.9390 -0.6976
 2951SOL     OW 9672   0.049   4.840   4.556  0.0213 -0.1864  0.0068
 2951SOL    HW1 9673   0.118   4.803   4.618  0.0868 -0.7685 -0.4060
 2951SOL    HW2 9674  -0.039   4.795   4.574  0.1945 -0.8527 -0.7768
 2952SOL     OW 9675   6.831   0.877   4.078  0.0219  0.0113  0.6616
 2952SOL    HW1 9676   6.894   0.836   4.012 -2.1742 -1.3668 -0.7123
 2952SOL    HW2 9677   6.778   0.805   4.123 -2.0209  1.1815  0.2310
 2953SOL     OW 9678   0.431   4.164   4.267  0.1400 -0.0005  0.8172
 2953SOL    HW1 9679   0.409   4.115   4.182  1.9937  0.5528 -0.0384
 2953SOL    HW2 9680   0.347   4.181   4.318 -0.8626 -1.6478 -0.1776
 2954SOL     OW 9681   4.233   2.824   2.442 -0.0025 -0.8426 -0.0450
 2954SOL    HW1 9682   4.239   2.790   2.536 -1.7749  2.0190  1.2077
 2954SOL    HW2 9683   4.140   2.811   2.408  0.1240 -0.0794 -0.6951
 2955SOL     OW 9684   4.181   0.585   3.574  0.1182  0.7483  0.1937
 2955SOL    HW1 9685   4.159   0.487   3.576  1.4780  0.4106  0.3461
 2955SOL    HW2 9686   4.138   0.631   3.652 -0.5360  0.2670  0.1201
 2956SOL     OW 9687   1.430   4.057   4.645 -0.4516 -0.0270 -0.4164
 2956SOL    HW1 9688   1.417   4.118   4.723  1.6354 -0.0678  0.0361
 2956SOL    HW2 9689   1.415   4.107   4.560 -0.1760  0.7482 -0.0228
 2957SOL     OW 9690   5.523   5.532   5.838  0.0808 -0.2238  0.0557
 2957SOL    HW1 9691   5.482   5.464   5.778 -1.4442  0.3942  0.3521
 2957SOL    HW2 9692   5.500   5.511   5.933  2.3550 -1.1142  0.4869
 2958SOL     OW 9693   4.755   3.506   6.924  0.3481  1.0743 -0.0108
 2958SOL    HW1 9694   4.816   3.519   6.845  0.4964 -0.4247 -0.1609
 2958SOL    HW2 9695   4.732   3.409   6.933 -3.5432  1.7075 -1.1104
 2959SOL     OW 9696   2.438   6.815   4.218 -0.7318 -0.2154  0.0875
 2959SOL    HW1 9697   2.457   6.818   4.120 -1.8039 -1.8802 -0.2127
 2959SOL    HW2 9698   2.522   6.795   4.268 -0.5505 -1.4098 -0.6723
 2960SOL     OW 9699   0.992   1.116   4.334  0.2069 -0.4382  0.2292
 2960SOL    HW1 9700   0.973   1.030   4.381  0.6615 -0.5077  0.2834
 2960SOL    HW2 9701   1.004   1.099   4.236  0.6081 -0.4817  0.2845
 2961SOL     OW 9702   5.078   2.601   3.974 -0.2233 -0.4634 -0.4949
 2961SOL    HW1 9703   5.144   2.586   4.047  2.1013 -0.3942 -2.4587
 2961SOL    HW2 9704   4.991   2.630   4.013  0.5602 -1.5656  2.2729
 2962SOL     OW 9705   1.037   6.467   6.412 -0.0739  0.2717  0.2402
 2962SOL    HW1 9706   1.105   6.394   6.404 -0.5807 -0.1320 -0.6725
 2962SOL    HW2 9707   1.080   6.555   6.392  0.3483  0.1151  0.4440
 2963SOL     OW 9708   0.596   1.526   0.210  0.1056 -0.3606 -0.3448
 2963SOL    HW1 9709   0.623   1.611   0.165 -0.9685  0.6667  0.8536
 2963SOL    HW2 9710   0.633   1.524   0.303 -1.0147 -0.5390  0.1128
 2964SOL     OW 9711   0.829   1.082   1.917 -0.6983 -0.0014 -0.4237
 2964SOL    HW1 9712   0.796   1.156   1.859 -1.1810  0.0805 -0.0487
 2964SOL    HW2 9713   0.825   1.110   2.013 -2.2035 -0.9887 -0.1612
 2965SOL     OW 9714   0.498   1.070   1.351  0.3160 -0.3280  0.4845
 2965SOL    HW1 9715   0.475   1.010   1.274  3.6637 -0.5220 -0.4903
 2965SOL    HW2 9716   0.513   1.163   1.319 -0.3668  0.0800  1.2889
 2966SOL     OW 9717   6.548   2.870   1.237  0.3118  0.3683 -0.1671
 2966SOL    HW1 9718   6.626   2.864   1.174  0.7306  0.7575  0.3060
 2966SOL    HW2 9719   6.574   2.829   1.325 -0.9304 -2.0953 -0.8387
 2967SOL     OW 9720   6.624   3.669   1.985 -0.1207  0.0410 -0.1352
 2967SOL    HW1 9721   6.594   3.713   1.900  0.8651  2.2971  0.6189
 2967SOL    HW2 9722   6.568   3.702   2.061  1.1406  0.6225  0.5688
 2968SOL     OW 9723   4.877   3.921   3.470 -0.6163 -0.4763 -0.1358
 2968SOL    HW1 9724   4.919   3.913   3.379  0.5709  0.4814  0.3129
 2968SOL    HW2 9725   4.937   3.880   3.538 -2.2147 -2.6707  0.0898
 2969SOL     OW 9726   0.089   3.734   0.508 -0.4520  0.0511  0.3990
 2969SOL    HW1 9727   0.126   3.698   0.423 -1.5761 -1.9839  0.7040
 2969SOL    HW2 9728   0.152   3.801   0.547  0.6954  0.0304 -1.3363
 2970SOL     OW 9729   3.723   2.210   1.607  0.3406 -0.0287 -0.4941
 2970SOL    HW1 9730   3.729   2.261   1.693  1.4713 -1.0533  0.0670
 2970SOL    HW2 9731   3.746   2.114   1.624  0.3375 -0.2963 -1.9088
 2971SOL     OW 9732   0.772   6.429   5.167 -0.2744 -0.6231 -0.5019
 2971SOL    HW1 9733   0.748   6.476   5.082  1.0935 -0.3856 -0.7884
 2971SOL    HW2 9734   0.699   6.441   5.234 -0.4466  1.0023 -0.9415
 2972SOL     OW 9735   6.191   5.032   2.051  0.4435 -0.2931  0.1460
 2972SOL    HW1 9736   6.158   5.079   2.133  1.3827  0.0938  0.3174
 2972SOL    HW2 9737   6.159   5.080   1.969  1.2859  0.5972  0.3172
 2973SOL     OW 9738   0.868   1.378   0.168  0.3176 -0.4370  0.5131
 2973SOL    HW1 9739   0.822   1.395   0.254 -1.0396  0.3297 -0.3261
 2973SOL    HW2 9740   0.801   1.357   0.097  1.1813  1.2751 -0.8911
 2974SOL     OW 9741   0.460   4.174   1.534 -0.6151 -0.0741 -0.3710
 2974SOL    HW1 9742   0.463   4.199   1.631  1.9956 -0.5026 -0.2913
 2974SOL    HW2 9743   0.472   4.075   1.524  0.0963  0.0762 -1.1545
 2975SOL     OW 9744   6.470   5.710   4.378  0.3868  0.3539  0.1613
 2975SOL    HW1 9745   6.396   5.772   4.404  1.1227  0.7999  1.2518
 2975SOL    HW2 9746   6.522   5.684   4.459  1.7720  0.4884 -0.6527
 2976SOL     OW 9747   3.072   5.311   0.095  0.1003 -0.1249  0.2265
 2976SOL    HW1 9748   3.137   5.243   0.061 -0.5797  0.2201 -1.9174
 2976SOL    HW2 9749   2.982   5.269   0.107  0.4047 -0.3309  2.0878
 2977SOL     OW 9750   4.695   6.856   3.466  0.2689 -0.4945 -0.4794
 2977SOL    HW1 9751   4.611   6.802   3.461 -0.3905  0.5105 -0.4183
 2977SOL    HW2 9752   4.767   6.810   3.415 -0.7494 -0.6030 -1.8587
 2978SOL     OW 9753   2.278   0.538   6.866  0.1755 -0.5082 -0.5963
 2978SOL    HW1 9754   2.336   0.619   6.877  0.5686 -0.8994  0.2738
 2978SOL    HW2 9755   2.307   0.488   6.784  1.2866 -0.8562 -0.0178
 2979SOL     OW 9756   5.942   2.329   5.437  0.3582 -0.2823  0.4160
 2979SOL    HW1 9757   5.953   2.362   5.343  0.4482 -1.8304 -0.1518
 2979SOL    HW2 9758   6.012   2.369   5.496  0.4240  0.5496 -0.2142
 2980SOL     OW 9759   0.574   0.758   2.471  0.2139  0.8563 -0.5748
 2980SOL    HW1 9760   0.535   0.827   2.532  1.3626  0.2014  0.9697
 2980SOL    HW2 9761   0.502   0.693   2.443 -0.9447  2.7338 -2.2673
 2981SOL     OW 9762   6.021   5.059   5.021 -0.4676  0.3009  0.2725
 2981SOL    HW1 9763   5.949   5.128   5.014 -0.3139  0.4220 -0.1704
 2981SOL    HW2 9764   6.005   4.988   4.953 -0.5736 -0.0519  0.6670
 2982SOL     OW 9765   4.211   1.712   5.848 -0.8860 -0.2188 -0.4065
 2982SOL    HW1 9766   4.210   1.613   5.834  3.1481 -0.2488 -1.6384
 2982SOL    HW2 9767   4.264   1.734   5.930 -2.6347  0.9575  0.4651
 2983SOL     OW 9768   3.527   2.196   1.341  0.1900 -0.1296  0.1481
 2983SOL    HW1 9769   3.613   2.245   1.331  0.5291 -1.0579 -1.8969
 2983SOL    HW2 9770   3.536   2.104   1.305 -1.4085 -0.5694  0.7757
 2984SOL     OW 9771   1.472   2.389   5.002 -0.0754  0.2353  0.3407
 2984SOL    HW1 9772   1.549   2.444   4.969 -0.6977 -0.1899 -2.0259
 2984SOL    HW2 9773   1.415   2.445   5.062 -0.3547  2.0671 -1.4963
 2985SOL     OW 9774   0.887   5.897   3.895  0.5933  0.4828 -0.3129
 2985SOL    HW1 9775   0.824   5.898   3.818 -1.0485  0.2544  0.9740
 2985SOL    HW2 9776   0.899   5.803   3.927  1.7893  0.4953 -0.6825
 2986SOL     OW 9777   2.655   2.181   6.857  0.0451  0.3635 -0.2468
 2986SOL    HW1 9778   2.754   2.196   6.857 -0.1959  2.4475  1.7863
 2986SOL    HW2 9779   2.634   2.102   6.914  0.5060  0.2807 -0.1830
 2987SOL     OW 9780   3.055   0.665   5.010  0.0723 -0.4228 -0.6199
 2987SOL    HW1 9781   2.963   0.628   5.023 -1.4721  2.1023 -3.0956
 2987SOL    HW2 9782   3.079   0.661   4.913  1.8585  0.4899 -0.2630
 2988SOL     OW 9783   0.694   5.639   2.901  0.1712 -0.1657 -0.3840
 2988SOL    HW1 9784   0.689   5.704   2.976 -0.9465  0.7617 -1.2350
 2988SOL    HW2 9785   0.714   5.687   2.816 -1.3472 -0.8014 -1.1415
 2989SOL     OW 9786   5.955   2.567   1.874  0.1701  0.2567 -0.0305
 2989SOL    HW1 9787   5.890   2.595   1.945  0.8852  1.1107  0.3081
 2989SOL    HW2 9788   5.909   2.566   1.785 -0.6729 -0.5885  0.3971
 2990SOL     OW 9789   6.065   3.551   6.075 -0.6574  0.2172  0.2974
 2990SOL    HW1 9790   6.152   3.576   6.116 -0.8361 -0.3659  1.0478
 2990SOL    HW2 9791   6.014   3.492   6.137 -1.1894 -0.2078 -0.5227
 2991SOL     OW 9792   1.045   2.874   5.182  0.5335  0.2925  0.0897
 2991SOL    HW1 9793   1.129   2.820   5.189  1.7655  1.9936 -0.6779
 2991SOL    HW2 9794   0.970   2.825   5.226  1.0674 -2.9269 -2.2032
 2992SOL     OW 9795   2.464   1.694   0.749  0.1915 -0.4220  0.8652
 2992SOL    HW1 9796   2.429   1.695   0.842 -0.4319 -1.2201  0.6539
 2992SOL    HW2 9797   2.563   1.674   0.750  0.4674  0.9073  1.4123
 2993SOL     OW 9798   3.984   6.132   5.959 -0.2002 -0.1761 -0.4765
 2993SOL    HW1 9799   3.988   6.046   5.907 -1.1831 -1.4050  1.3523
 2993SOL    HW2 9800   3.962   6.111   6.054  2.7716  1.8635  0.7749
 2994SOL     OW 9801   2.993   5.052   6.959  0.0779 -0.1411  0.1754
 2994SOL    HW1 9802   3.093   5.049   6.969  0.1058  0.0493 -0.0486
 2994SOL    HW2 9803   2.960   4.962   6.931  0.4291  0.3627 -2.0186
 2995SOL     OW 9804   5.921   6.579   1.914  0.9226 -0.1152  0.2229
 2995SOL    HW1 9805   5.844   6.523   1.884  0.9440 -0.6269  1.0796
 2995SOL    HW2 9806   5.986   6.590   1.839  0.8629 -1.1441  0.0015
 2996SOL     OW 9807   1.251   0.198   5.047 -0.3762 -0.0104  0.2774
 2996SOL    HW1 9808   1.279   0.194   5.143  1.1460 -0.7150 -0.1655
 2996SOL    HW2 9809   1.289   0.119   4.998  0.2421  1.1776 -1.2426
 2997SOL     OW 9810   5.772   0.706   2.372 -0.6660 -0.5882  0.0335
 2997SOL    HW1 9811   5.849   0.748   2.421 -1.3804 -0.0320  0.7118
 2997SOL    HW2 9812   5.700   0.774   2.358 -1.0332 -1.0937 -0.6058
 2998SOL     OW 9813   0.650   4.821   3.428 -0.0344 -0.3648 -0.4295
 2998SOL    HW1 9814   0.618   4.727   3.434  1.3357 -0.7853  0.9811
 2998SOL    HW2 9815   0.709   4.831   3.348  1.5831 -1.3294  0.5752
 2999SOL     OW 9816   3.102   6.016   0.168  0.6748  0.0630 -0.2127
 2999SOL    HW1 9817   3.179   5.957   0.145  0.8498  0.9148 -2.0045
 2999SOL    HW2 9818   3.136   6.098   0.214  0.5718 -0.5446  0.9993
 3000SOL     OW 9819   6.530   4.532   2.501  0.3455  0.1122  0.5442
 3000SOL    HW1 9820   6.578   4.619   2.497  0.2976  0.1257  0.2584
 3000SOL    HW2 9821   6.460   4.536   2.572  0.9262  0.0120  1.1286
 3001SOL     OW 9822   1.393   2.515   4.338 -0.3894  0.1875 -0.2680
 3001SOL    HW1 9823   1.379   2.613   4.346 -2.4795 -0.0958  0.0772
 3001SOL    HW2 9824   1.360   2.483   4.248 -2.0571 -0.5051  0.5368
 3002SOL     OW 9825   5.599   3.612   5.659  0.0833  0.2281 -0.3881
 3002SOL    HW1 9826   5.572   3.665   5.579 -1.4450  2.1890  1.3415
 3002SOL    HW2 9827   5.520   3.560   5.692  0.7450 -0.6800 -0.2065
 3003SOL     OW 9828   2.264   4.194   5.809  0.0241 -0.0728  0.4478
 3003SOL    HW1 9829   2.194   4.183   5.879  1.1454 -1.4155  1.4299
 3003SOL    HW2 9830   2.244   4.134   5.732  0.5822 -1.2317  1.1729
 3004SOL     OW 9831   6.564   1.525   6.378 -0.0869 -0.3474  0.0703
 3004SOL    HW1 9832   6.614   1.439   6.391 -0.4365 -0.3394  1.6346
 3004SOL    HW2 9833   6.594   1.591   6.447 -0.2898  0.5770 -0.7165
 3005SOL     OW 9834   1.810   3.865   0.638  1.0162  0.2078 -0.1500
 3005SOL    HW1 9835   1.881   3.883   0.569  1.8998 -1.8845  0.1398
 3005SOL    HW2 9836   1.751   3.791   0.606 -0.5508  1.3567 -0.0066
 3006SOL     OW 9837   2.366   3.534   1.860 -0.4430  0.2187 -0.1228
 3006SOL    HW1 9838   2.407   3.621   1.890  2.8229 -1.2224  0.0759
 3006SOL    HW2 9839   2.417   3.499   1.781  1.3771 -3.5311  2.3925
 3007SOL     OW 9840   1.588   1.479   1.781  0.8155 -0.6171  0.2902
 3007SOL    HW1 9841   1.580   1.515   1.688  0.4221  0.6299  0.7912
 3007SOL    HW2 9842   1.685   1.467   1.804  0.9488 -0.0181  0.0605
 3008SOL     OW 9843   3.038   4.424   2.055  0.3218 -0.0069 -0.4077
 3008SOL    HW1 9844   2.945   4.429   2.017 -0.0678 -1.2232  0.3079
 3008SOL    HW2 9845   3.051   4.334   2.098  1.0936  0.9004  1.3811
 3009SOL     OW 9846   1.053   6.753   5.648 -0.0956  0.0800  0.0980
 3009SOL    HW1 9847   1.072   6.655   5.653  0.8076  0.1912 -0.9000
 3009SOL    HW2 9848   0.966   6.772   5.693  0.2742 -1.0126  1.3389
 3010SOL     OW 9849   4.511   3.399   4.785 -0.9060  0.0115  0.2149
 3010SOL    HW1 9850   4.471   3.438   4.702 -0.2163 -1.1065 -0.6775
 3010SOL    HW2 9851   4.445   3.338   4.829 -1.8058  1.7060  1.3413
 3011SOL     OW 9852   2.684   3.413   5.656 -0.1853  0.0426  0.2945
 3011SOL    HW1 9853   2.654   3.483   5.592  2.1710 -0.4666 -1.5030
 3011SOL    HW2 9854   2.610   3.346   5.669 -0.0626 -1.2310 -3.9827
 3012SOL     OW 9855   2.636   6.182   1.164  0.1537  0.1701  0.0559
 3012SOL    HW1 9856   2.631   6.101   1.105 -0.9634 -0.8288  1.4632
 3012SOL    HW2 9857   2.561   6.244   1.141  0.3802  0.3146 -0.3068
 3013SOL     OW 9858   2.891   6.870   2.985  0.2018  0.0382  0.6645
 3013SOL    HW1 9859   2.850   6.913   3.065 -1.7550 -0.5984  0.0550
 3013SOL    HW2 9860   2.845   6.904   2.902  1.9594  0.4383 -0.1981
 3014SOL     OW 9861   2.541   5.814   1.301 -0.2498 -0.1701 -0.1018
 3014SOL    HW1 9862   2.462   5.852   1.252 -0.4884 -0.6981 -0.1315
 3014SOL    HW2 9863   2.517   5.801   1.397 -0.9096 -2.2445 -0.4950
 3015SOL     OW 9864   1.665   2.037   5.283 -0.2673  0.4400 -0.4798
 3015SOL    HW1 9865   1.741   2.094   5.313 -0.7371  0.2280  1.2261
 3015SOL    HW2 9866   1.584   2.094   5.269 -0.1913  0.4664 -0.8127
 3016SOL     OW 9867   1.933   0.898   5.744 -0.2571 -0.3220  0.1590
 3016SOL    HW1 9868   1.936   0.995   5.722 -1.5076 -0.2270  0.3377
 3016SOL    HW2 9869   2.001   0.878   5.815  1.8135 -0.0982 -1.6333
 3017SOL     OW 9870   0.337   3.527   1.588  0.0267 -0.0996  0.0995
 3017SOL    HW1 9871   0.324   3.565   1.497  0.0092  0.1246  0.1936
 3017SOL    HW2 9872   0.257   3.472   1.613  1.4828 -3.1489 -1.4301
 3018SOL     OW 9873   3.533   6.911   0.936  0.1380  0.2225 -0.0126
 3018SOL    HW1 9874   3.536   6.873   1.029 -0.5805 -0.5251 -0.2808
 3018SOL    HW2 9875   3.597   6.860   0.878  0.3234  0.4547 -0.0124
 3019SOL     OW 9876   0.125   1.208   5.124 -0.3928  0.5233 -0.5200
 3019SOL    HW1 9877   0.221   1.227   5.100 -0.3350  0.9766  0.0423
 3019SOL    HW2 9878   0.067   1.280   5.088 -0.4621  0.5068 -0.4409
 3020SOL     OW 9879   1.035   1.480   1.355 -0.3580  0.4248  0.4439
 3020SOL    HW1 9880   1.132   1.482   1.329 -0.4066 -0.8549  0.1205
 3020SOL    HW2 9881   1.012   1.566   1.401  0.8945  0.7991  0.4231
 3021SOL     OW 9882   4.777   1.151   2.247 -0.6079  0.0902 -0.3449
 3021SOL    HW1 9883   4.826   1.070   2.215  1.2639  1.6098 -1.5884
 3021SOL    HW2 9884   4.727   1.129   2.330  2.8906 -1.4232  1.5848
 3022SOL     OW 9885   5.438   6.441   6.145 -0.2410  0.4635  0.1818
 3022SOL    HW1 9886   5.408   6.465   6.238  3.2704  1.5876  1.2153
 3022SOL    HW2 9887   5.369   6.470   6.079 -3.5544 -1.6906  2.4127
 3023SOL     OW 9888   1.337   6.870   3.127 -0.0280 -0.1709 -0.0729
 3023SOL    HW1 9889   1.378   6.780   3.112  2.6416  0.0389  4.2735
 3023SOL    HW2 9890   1.244   6.859   3.164  0.9125 -1.3329  2.0993
 3024SOL     OW 9891   4.207   0.582   1.850 -0.0189 -0.9247  0.0039
 3024SOL    HW1 9892   4.163   0.612   1.935 -0.3370 -2.9579  0.6143
 3024SOL    HW2 9893   4.301   0.554   1.870  0.4410  0.1029 -0.6456
 3025SOL     OW 9894   0.648   0.281   5.399 -0.1349 -0.1562  0.4441
 3025SOL    HW1 9895   0.549   0.287   5.389 -0.1143  1.1728  0.8414
 3025SOL    HW2 9896   0.687   0.373   5.399  1.3220 -0.7149 -1.6599
 3026SOL     OW 9897   3.237   2.528   4.030  0.0389 -0.4739 -0.0663
 3026SOL    HW1 9898   3.186   2.613   4.046  1.2147  0.4851 -1.2072
 3026SOL    HW2 9899   3.324   2.532   4.079  0.3493 -0.7624 -0.5914
 3027SOL     OW 9900   4.425   0.598   0.108 -0.1415  0.1736 -0.7241
 3027SOL    HW1 9901   4.391   0.513   0.066 -0.8443 -0.1881  0.5279
 3027SOL    HW2 9902   4.479   0.576   0.189 -1.6291  0.9320  0.5320
 3028SOL     OW 9903   0.750   5.345   2.890 -0.5948  0.3602 -0.5322
 3028SOL    HW1 9904   0.731   5.443   2.877  2.1645  1.2024  0.8554
 3028SOL    HW2 9905   0.825   5.318   2.830 -0.3569 -0.4922  0.1275
 3029SOL     OW 9906   5.549   3.914   1.784  0.2860  0.0975  0.0485
 3029SOL    HW1 9907   5.620   3.974   1.746  1.3904 -0.5406  1.0305
 3029SOL    HW2 9908   5.540   3.931   1.882 -1.4856  0.6964 -0.1846
 3030SOL     OW 9909   2.231   1.853   0.683  0.6375 -0.0354  0.3188
 3030SOL    HW1 9910   2.267   1.946   0.687  1.7255 -0.4047 -0.4018
 3030SOL    HW2 9911   2.300   1.788   0.714  0.5643 -0.7478 -0.9183
 3031SOL     OW 9912   2.294   3.901   6.550 -0.3252 -0.3260 -0.4578
 3031SOL    HW1 9913   2.254   3.964   6.617  0.6931  1.3018 -1.3124
 3031SOL    HW2 9914   2.261   3.808   6.568  0.6048 -0.1442  2.8668
 3032SOL     OW 9915   0.216   4.594   2.009 -0.3710 -0.3054  0.1220
 3032SOL    HW1 9916   0.130   4.644   2.019  0.2392  1.0069 -0.9101
 3032SOL    HW2 9917   0.231   4.571   1.913  0.3652 -0.6694  0.3119
 3033SOL     OW 9918   2.549   0.041   0.326 -0.3913  0.8633 -0.1838
 3033SOL    HW1 9919   2.649   0.031   0.319 -0.4660 -0.3796  0.2735
 3033SOL    HW2 9920   2.524   0.136   0.307  0.6927  0.8018 -2.2690
 3034SOL     OW 9921   4.156   3.332   2.137  0.6410 -0.4629  0.1635
 3034SOL    HW1 9922   4.153   3.354   2.235 -0.0647 -2.4877  0.6455
 3034SOL    HW2 9923   4.077   3.274   2.113  0.9050 -0.1619 -1.5717
 3035SOL     OW 9924   5.234   0.942   6.449 -0.0187 -0.2985 -0.4116
 3035SOL    HW1 9925   5.291   0.874   6.494  1.1759  0.6024 -0.5242
 3035SOL    HW2 9926   5.172   0.982   6.516  0.3660 -0.3827 -0.0026
 3036SOL     OW 9927   5.970   1.595   3.420  0.6997  0.0984  0.2048
 3036SOL    HW1 9928   5.999   1.551   3.505 -0.7412  1.5212  1.4732
 3036SOL    HW2 9929   5.919   1.678   3.440 -1.2050 -0.4241 -2.0079
 3037SOL     OW 9930   6.107   0.524   3.212 -0.8780  0.7740 -0.5872
 3037SOL    HW1 9931   6.027   0.468   3.190  0.2350 -1.3789  0.4695
 3037SOL    HW2 9932   6.164   0.534   3.131 -1.0892  0.3677 -0.7878
 3038SOL     OW 9933   0.091   5.832   6.652 -0.1024  0.0211  0.3404
 3038SOL    HW1 9934   0.017   5.786   6.701  0.5457  0.7598  2.0831
 3038SOL    HW2 9935   0.106   5.786   6.564 -0.2755 -2.3477  1.4669
 3039SOL     OW 9936   3.814   1.227   4.521 -0.2115  0.1763  0.7237
 3039SOL    HW1 9937   3.869   1.268   4.594  0.2617 -0.3782  0.6806
 3039SOL    HW2 9938   3.846   1.134   4.503 -1.5888 -0.4189  1.1759
 3040SOL     OW 9939   1.821   4.826   6.328 -0.4078 -0.5576 -0.7513
 3040SOL    HW1 9940   1.865   4.832   6.239 -0.2007 -0.2378 -0.6282
 3040SOL    HW2 9941   1.751   4.896   6.336  0.5226  0.3264 -0.1431
 3041SOL     OW 9942   4.270   3.774   4.485  0.0212  0.2359 -0.3691
 3041SOL    HW1 9943   4.217   3.853   4.515  0.5477 -0.4849  2.7812
 3041SOL    HW2 9944   4.288   3.781   4.387 -1.3434  3.1458 -0.4974
 3042SOL     OW 9945   0.609   3.247   4.826  0.4465 -0.1225 -0.0446
 3042SOL    HW1 9946   0.689   3.259   4.767 -0.2936  0.1507 -1.0206
 3042SOL    HW2 9947   0.639   3.235   4.921  1.6369  0.0146 -0.3863
 3043SOL     OW 9948   5.212   6.846   4.029 -0.1259  0.3681  0.1949
 3043SOL    HW1 9949   5.252   6.856   4.121 -0.7956 -0.2678  0.5642
 3043SOL    HW2 9950   5.190   6.937   3.993 -0.6596  0.5911  1.0365
 3044SOL     OW 9951   5.972   2.799   1.610 -0.3307  0.1416 -0.1097
 3044SOL    HW1 9952   6.042   2.743   1.564  1.0065  2.0491 -0.5052
 3044SOL    HW2 9953   5.884   2.752   1.606  0.4686 -1.3403 -1.5364
 3045SOL     OW 9954   3.365   1.738   4.275 -0.0118 -0.2419  0.0400
 3045SOL    HW1 9955   3.394   1.683   4.353  1.0597 -0.0824 -0.2192
 3045SOL    HW2 9956   3.267   1.728   4.260  0.0713 -1.6255  0.3476
 3046SOL     OW 9957   2.600   3.557   4.007  0.3331  0.0164  0.2132
 3046SOL    HW1 9958   2.554   3.469   4.016  3.3116 -1.6778  0.1034
 3046SOL    HW2 9959   2.581   3.597   3.918 -2.7700  0.6287  1.0542
 3047SOL     OW 9960   6.469   4.628   0.659  0.1678  0.1635 -0.0678
 3047SOL    HW1 9961   6.451   4.673   0.571  1.7998 -0.3990 -0.7390
 3047SOL    HW2 9962   6.383   4.607   0.704 -0.7609 -0.3211 -1.9522
 3048SOL     OW 9963   6.516   0.984   1.166  0.1249  0.4014  0.1378
 3048SOL    HW1 9964   6.469   1.047   1.228  0.9817  1.1691  0.0197
 3048SOL    HW2 9965   6.603   1.023   1.138  0.8816 -1.0119  0.3872
 3049SOL     OW 9966   1.632   6.621   0.770 -0.3845 -0.4264  0.3427
 3049SOL    HW1 9967   1.670   6.558   0.702 -1.3534  1.0299 -1.6588
 3049SOL    HW2 9968   1.655   6.715   0.745  0.2944  0.1026  2.7865
 3050SOL     OW 9969   2.860   6.265   5.045 -0.6141 -0.3241  0.4194
 3050SOL    HW1 9970   2.810   6.293   4.963 -1.0809 -0.3300  0.7030
 3050SOL    HW2 9971   2.890   6.346   5.095 -0.0099 -0.3148  0.0561
 3051SOL     OW 9972   6.086   3.636   4.598 -0.1626 -0.0523  0.3356
 3051SOL    HW1 9973   6.029   3.555   4.583  2.0264 -1.5302 -0.4879
 3051SOL    HW2 9974   6.150   3.618   4.672  1.3899  0.2870 -0.8685
 3052SOL     OW 9975   6.267   1.894   5.433 -0.2047  0.2869  0.6054
 3052SOL    HW1 9976   6.225   1.968   5.485  0.6143 -0.1571  1.9507
 3052SOL    HW2 9977   6.213   1.811   5.442 -0.9114  0.5968 -0.5817
 3053SOL     OW 9978   4.501   6.805   5.805 -0.4872 -0.4401 -0.0222
 3053SOL    HW1 9979   4.545   6.880   5.856 -1.8376  0.5941 -0.3233
 3053SOL    HW2 9980   4.571   6.739   5.777  0.9048  1.1755 -0.5452
 3054SOL     OW 9981   4.469   5.707   1.159  0.1770 -0.2791  0.2781
 3054SOL    HW1 9982   4.512   5.784   1.111  1.0377 -0.8574  0.1049
 3054SOL    HW2 9983   4.443   5.737   1.251 -2.4391  1.1452 -0.8102
 3055SOL     OW 9984   6.026   0.912   4.794  0.2776 -0.3219  0.0963
 3055SOL    HW1 9985   6.034   1.008   4.821 -0.3650 -0.2848  0.1787
 3055SOL    HW2 9986   5.935   0.896   4.757  0.1861 -1.0314  0.6082
 3056SOL     OW 9987   1.640   0.359   5.411  0.4719 -0.1421 -0.1018
 3056SOL    HW1 9988   1.601   0.383   5.322 -3.8337 -0.7537  1.3907
 3056SOL    HW2 9989   1.666   0.442   5.459 -0.5812  0.4762 -0.5690
 3057SOL     OW 9990   5.586   5.520   0.809  0.3371 -0.4130 -0.1393
 3057SOL    HW1 9991   5.617   5.472   0.890  0.3719  0.1625  0.1974
 3057SOL    HW2 9992   5.513   5.584   0.834 -0.5632 -1.1607 -0.7764
 3058SOL     OW 9993   0.577   5.246   4.285 -0.0620 -0.2992 -0.1441
 3058SOL    HW1 9994   0.635   5.294   4.219 -2.5555 -0.0666 -2.3655
 3058SOL    HW2 9995   0.554   5.307   4.361  1.1546  0.1598 -0.1225
 3059SOL     OW 9996   0.539   6.022   5.801  0.0952  0.2316  0.2816
 3059SOL    HW1 9997   0.596   5.947   5.767  1.3794  1.5794 -0.6241
 3059SOL    HW2 9998   0.503   5.997   5.891 -1.2341 -2.3111 -0.8326
 3060SOL     OW 9999   2.242   6.362   6.011  0.4693 -0.3409  0.3867
 3060SOL    HW110000   2.203   6.298   6.077 -2.3015  0.5754 -0.2459
 3060SOL    HW210001   2.194   6.354   5.924 -1.7825  4.1540  0.9172
 3061SOL     OW10002   1.509   0.981   4.050 -0.2062 -0.3708 -0.0052
 3061SOL    HW110003   1.502   0.914   3.976 -2.0454  0.4013 -0.5890
 3061SOL    HW210004   1.578   1.050   4.025 -1.6012  0.5247 -1.5922
 3062SOL     OW10005   0.241   2.530   4.558  0.3578  0.1132  0.0836
 3062SOL    HW110006   0.341   2.537   4.559  0.2344  3.6114 -0.1782
 3062SOL    HW210007   0.206   2.570   4.473 -1.3380  0.6099  0.9822
 3063SOL     OW10008   5.077   1.044   4.601  0.0151  0.6465  0.0162
 3063SOL    HW110009   5.139   0.996   4.539  0.7998 -0.5536  1.6574
 3063SOL    HW210010   4.989   0.996   4.604  1.3027 -1.8733  2.8772
 3064SOL     OW10011   6.005   3.899   2.796 -0.0731  0.2335  0.6937
 3064SOL    HW110012   5.947   3.902   2.877 -0.7970 -1.2473  0.2604
 3064SOL    HW210013   6.101   3.889   2.825 -0.2716  0.2090  1.3779
 3065SOL     OW10014   6.242   5.209   4.960 -0.1629  0.2498  0.5485
 3065SOL    HW110015   6.180   5.138   4.993 -0.9317  0.7945  0.2891
 3065SOL    HW210016   6.193   5.295   4.950  0.2838  0.3648 -0.9876
 3066SOL     OW10017   0.616   4.109   6.140  0.0448  0.0491 -0.7086
 3066SOL    HW110018   0.535   4.152   6.180  0.4865  0.4327 -0.2068
 3066SOL    HW210019   0.633   4.147   6.049 -0.1017  0.2580 -0.6489
 3067SOL     OW10020   6.144   4.876   0.496 -0.6507  0.6201 -0.2876
 3067SOL    HW110021   6.217   4.917   0.550 -1.1303  1.4851 -0.2800
 3067SOL    HW210022   6.091   4.948   0.451 -1.1945 -0.0168 -0.6891
 3068SOL     OW10023   4.527   1.283   2.123  0.3506 -1.1357  0.3752
 3068SOL    HW110024   4.555   1.367   2.075 -1.4555 -0.9918 -0.5161
 3068SOL    HW210025   4.607   1.238   2.161  1.4789  0.4601 -0.0252
 3069SOL     OW10026   5.355   2.052   2.485  0.0586  0.6986  0.4115
 3069SOL    HW110027   5.435   2.043   2.424  1.5078 -3.1688  2.5213
 3069SOL    HW210028   5.297   1.971   2.475 -0.9337  1.0987  2.4591
 3070SOL     OW10029   3.961   4.663   2.419  0.3600  0.0017  0.0019
 3070SOL    HW110030   3.894   4.698   2.354  1.0176  0.6924 -0.3298
 3070SOL    HW210031   3.915   4.621   2.497 -0.5340 -3.2271 -2.0550
 3071SOL     OW10032   1.872   3.143   5.004  0.2168 -0.3838 -0.1576
 3071SOL    HW110033   1.912   3.175   5.090  0.8839  1.4908 -1.1225
 3071SOL    HW210034   1.946   3.114   4.942 -0.1529 -0.2431 -0.6676
 3072SOL     OW10035   4.888   2.030   1.695 -0.4220 -0.1995  0.6012
 3072SOL    HW110036   4.851   2.102   1.754 -1.7389 -0.8525  0.6040
 3072SOL    HW210037   4.978   2.002   1.729 -0.6090  0.3068  1.5536
 3073SOL     OW10038   4.793   3.881   6.798  0.2995 -0.6870  0.4795
 3073SOL    HW110039   4.783   3.973   6.759  2.2586 -1.5514 -2.3501
 3073SOL    HW210040   4.871   3.881   6.861  0.6950 -0.5277 -0.0001
 3074SOL     OW10041   3.316   4.231   2.238 -0.1578 -0.3664 -0.1109
 3074SOL    HW110042   3.217   4.223   2.224 -0.6596 -1.5198  3.3493
 3074SOL    HW210043   3.336   4.312   2.293  0.7552 -0.5896 -0.0890
 3075SOL     OW10044   2.194   1.142   5.388 -0.8480 -0.0178  0.1081
 3075SOL    HW110045   2.243   1.056   5.375  1.0092  0.9681  0.1646
 3075SOL    HW210046   2.212   1.176   5.480  0.5146  1.6084 -0.7005
 3076SOL     OW10047   6.899   0.621   2.309  0.0119  0.5606 -0.2415
 3076SOL    HW110048   6.865   0.704   2.264  0.1704  0.6112 -0.2685
 3076SOL    HW210049   6.827   0.583   2.366 -1.0565 -0.8830 -2.4198
 3077SOL     OW10050   0.211   3.232   5.457  0.4653 -0.1815 -0.1669
 3077SOL    HW110051   0.305   3.221   5.489  0.1974  1.3878  1.2825
 3077SOL    HW210052   0.203   3.196   5.364  1.8419 -2.7774  0.6243
 3078SOL     OW10053   4.664   2.693   2.443  0.6371 -0.2563 -0.1763
 3078SOL    HW110054   4.715   2.637   2.378 -0.3678 -0.6669 -0.6351
 3078SOL    HW210055   4.670   2.653   2.534  1.0348 -0.3516 -0.2410
 3079SOL     OW10056   4.339   0.235   0.565  0.0668  0.2516  0.3608
 3079SOL    HW110057   4.348   0.305   0.494  0.1307 -0.1305 -0.0127
 3079SOL    HW210058   4.398   0.259   0.643  0.1028  0.5997  0.2297
 3080SOL     OW10059   0.662   3.632   6.803  0.1917 -0.0839 -0.8379
 3080SOL    HW110060   0.757   3.636   6.834  0.4039 -1.2798 -1.3006
 3080SOL    HW210061   0.655   3.670   6.711  0.0582  0.7680 -0.4930
 3081SOL     OW10062   0.888   5.357   2.219 -0.1119  0.8005 -0.1020
 3081SOL    HW110063   0.831   5.431   2.184  0.9231  1.4426 -0.4608
 3081SOL    HW210064   0.979   5.362   2.179  0.3448  0.0412  0.7783
 3082SOL     OW10065   6.477   0.559   3.231 -0.3118  0.3161 -0.5501
 3082SOL    HW110066   6.392   0.530   3.276  0.8767 -1.1649  0.8848
 3082SOL    HW210067   6.553   0.503   3.265  1.2909  1.7498 -1.6148
 3083SOL     OW10068   3.320   6.909   5.020 -0.2776  0.3749 -0.8729
 3083SOL    HW110069   3.244   6.851   5.050 -0.0910 -0.1487 -1.3777
 3083SOL    HW210070   3.392   6.909   5.089 -0.3134  0.0630 -0.8357
 3084SOL     OW10071   0.582   4.536   5.444 -0.1656  0.2444 -0.3051
 3084SOL    HW110072   0.667   4.504   5.402  0.2024 -0.0191  0.6248
 3084SOL    HW210073   0.598   4.559   5.540 -0.8776  1.3057 -0.4111
 3085SOL     OW10074   2.355   6.402   6.654 -0.4554 -0.1782 -0.0311
 3085SOL    HW110075   2.353   6.392   6.554 -1.5899 -0.0496 -0.0275
 3085SOL    HW210076   2.262   6.411   6.689 -0.0040  1.4758  0.8738
 3086SOL     OW10077   5.793   3.359   6.570 -0.3420 -0.0539 -0.5858
 3086SOL    HW110078   5.873   3.311   6.604 -0.6172 -0.1935 -0.1225
 3086SOL    HW210079   5.711   3.306   6.590 -0.7382  0.9982  0.7412
 3087SOL     OW10080   0.265   6.838   4.263 -0.0493  0.2376 -0.0503
 3087SOL    HW110081   0.294   6.749   4.297 -1.5983 -0.7494 -1.1628
 3087SOL    HW210082   0.283   6.908   4.332 -0.9776 -1.3102  1.8486
 3088SOL     OW10083   0.660   1.361   0.009  0.3864  0.4621  0.4197
 3088SOL    HW110084   0.582   1.331  -0.047  0.0895  2.0027 -0.0247
 3088SOL    HW210085   0.627   1.417   0.084  0.9705 -0.0047  1.0349
 3089SOL     OW10086   5.002   1.620   6.595 -0.0429 -0.4538 -0.3611
 3089SOL    HW110087   5.096   1.636   6.622 -0.3181 -0.6998  0.7948
 3089SOL    HW210088   4.961   1.705   6.563 -0.2331  0.2803  1.7255
 3090SOL     OW10089   4.697   0.123   0.261 -0.4864  0.2390 -0.2060
 3090SOL    HW110090   4.660   0.199   0.314 -0.8856 -0.0691 -0.0362
 3090SOL    HW210091   4.797   0.125   0.264 -0.4617  1.4818 -1.2306
 3091SOL     OW10092   5.241   6.579   6.722 -0.3812  0.1950  0.2266
 3091SOL    HW110093   5.298   6.618   6.794 -0.6573  0.4518  0.3068
 3091SOL    HW210094   5.284   6.495   6.687 -0.4447 -0.1536  0.9685
 3092SOL     OW10095   0.483   0.587   0.767  0.0426  0.1079  0.0535
 3092SOL    HW110096   0.441   0.518   0.826  2.5075 -1.1124  0.5288
 3092SOL    HW210097   0.469   0.562   0.671 -1.4410  0.4950  0.1446
 3093SOL     OW10098   0.721   5.039   6.349  0.0072 -0.0654  0.4651
 3093SOL    HW110099   0.661   5.091   6.288  1.4300  0.9073 -0.1341
 3093SOL    HW210100   0.797   5.096   6.379  2.2000 -1.9999 -1.0142
 3094SOL     OW10101   0.580   5.591   4.476 -0.6124 -0.1664 -0.0680
 3094SOL    HW110102   0.535   5.526   4.538  1.4687 -0.2653  1.4426
 3094SOL    HW210103   0.677   5.570   4.469 -0.4425  0.9766 -1.9756
 3095SOL     OW10104   6.867   4.122   1.346 -0.3627 -0.1260  0.3565
 3095SOL    HW110105   6.873   4.078   1.256  4.2840 -1.4422  1.0419
 3095SOL    HW210106   6.893   4.056   1.417 -0.6970  1.7590  2.3238
 3096SOL     OW10107   2.892   0.321   1.484 -0.0764  0.0556  0.4473
 3096SOL    HW110108   2.894   0.418   1.509  1.2119  0.1309  0.1280
 3096SOL    HW210109   2.825   0.307   1.412  0.6796  0.9823 -0.4735
 3097SOL     OW10110   0.564   0.756   6.205  0.3114  0.7983 -0.6459
 3097SOL    HW110111   0.617   0.672   6.194 -0.3641  0.3785 -0.7570
 3097SOL    HW210112   0.582   0.795   6.296 -2.5836 -1.8128  1.2434
 3098SOL     OW10113   5.325   1.011   1.491 -0.0739 -0.4524  0.7805
 3098SOL    HW110114   5.359   0.964   1.410  0.4668  1.2841 -0.0282
 3098SOL    HW210115   5.388   0.996   1.567  2.4846  2.3355 -0.5691
 3099SOL     OW10116   4.024   5.901   1.979  0.4071  0.4777  0.4162
 3099SOL    HW110117   4.021   5.830   1.909  1.4219  2.6907 -1.9928
 3099SOL    HW210118   4.119   5.929   1.995 -0.0204  1.7708  0.8243
 3100SOL     OW10119   6.224   2.285   6.870  0.6106 -0.0176  0.5994
 3100SOL    HW110120   6.195   2.193   6.894 -0.4636  0.0436 -0.4130
 3100SOL    HW210121   6.288   2.281   6.793 -0.2084  0.1228 -0.1076
 3101SOL     OW10122   5.078   6.243   4.354 -0.4259 -0.5485  0.1335
 3101SOL    HW110123   5.122   6.177   4.414 -1.0061 -1.6167 -0.5844
 3101SOL    HW210124   4.986   6.211   4.330 -0.8651  0.6905  0.0521
 3102SOL     OW10125   3.250   4.429   2.777  0.0384  0.1829 -0.0042
 3102SOL    HW110126   3.240   4.408   2.874  0.9769 -1.0976 -0.1616
 3102SOL    HW210127   3.216   4.353   2.722  3.4341 -1.1252 -0.5913
 3103SOL     OW10128   2.165   2.647   2.129 -0.4097 -0.2618 -0.4502
 3103SOL    HW110129   2.080   2.699   2.121 -0.0402  0.4619  0.1296
 3103SOL    HW210130   2.151   2.568   2.189 -0.4118  0.4751  0.5505
 3104SOL     OW10131   2.168   3.014   0.420  0.1892 -0.4217  0.1129
 3104SOL    HW110132   2.201   3.044   0.510 -0.8214 -1.0933  0.7288
 3104SOL    HW210133   2.245   2.986   0.364  0.8301 -0.0641  0.7966
 3105SOL     OW10134   2.159   3.417   6.104 -0.3387 -0.3447  0.0876
 3105SOL    HW110135   2.199   3.363   6.179  0.2289  0.4060  0.3420
 3105SOL    HW210136   2.158   3.362   6.021 -1.7476 -1.4861  0.8136
 3106SOL     OW10137   1.478   4.943   1.809 -0.2884  0.0866 -0.4266
 3106SOL    HW110138   1.525   5.031   1.819 -0.5187  0.0545  1.1017
 3106SOL    HW210139   1.536   4.870   1.846 -0.4351 -0.3027 -0.9554
 3107SOL     OW10140   6.289   4.719   0.131  0.2035 -0.2402  0.5009
 3107SOL    HW110141   6.273   4.706   0.034 -0.8412 -2.6927  0.9302
 3107SOL    HW210142   6.202   4.722   0.180  0.7361 -1.9632  1.6392
 3108SOL     OW10143   5.935   0.854   1.611 -0.4803 -0.1044  0.1726
 3108SOL    HW110144   5.926   0.949   1.581 -0.8724  0.2729  1.4213
 3108SOL    HW210145   6.028   0.836   1.642 -0.2959 -0.2535 -0.4611
 3109SOL     OW10146   0.560   5.552   2.541  0.1876 -0.4781 -0.5123
 3109SOL    HW110147   0.476   5.533   2.591  0.6425 -1.0512  0.0454
 3109SOL    HW210148   0.596   5.641   2.570 -1.3577  0.8491 -2.3353
 3110SOL     OW10149   2.816   1.908   4.412  0.2396  0.0839  0.2086
 3110SOL    HW110150   2.822   1.927   4.314  0.1395  0.1030  0.2056
 3110SOL    HW210151   2.754   1.832   4.428  0.3575 -0.0044  0.2478
 3111SOL     OW10152   2.949   5.862   6.567  0.6177  0.2994 -0.1205
 3111SOL    HW110153   3.003   5.846   6.650  0.6326  1.4878  0.1255
 3111SOL    HW210154   2.882   5.789   6.556  0.3737  0.3061  1.1550
 3112SOL     OW10155   3.274   2.461   1.393 -0.2399  0.2425  0.0507
 3112SOL    HW110156   3.330   2.417   1.463 -2.5749  0.1485  1.9852
 3112SOL    HW210157   3.306   2.434   1.303  2.6826  0.1057  1.0173
 3113SOL     OW10158   2.763   5.432   4.475 -0.0540 -0.0678  1.0126
 3113SOL    HW110159   2.667   5.455   4.464  0.7468  4.1875  1.3141
 3113SOL    HW210160   2.809   5.439   4.386  0.1927 -1.2107  1.0323
 3114SOL     OW10161   4.453   5.623   1.503 -0.0647  0.2682  0.1422
 3114SOL    HW110162   4.467   5.667   1.592 -1.5932 -0.9482  1.0319
 3114SOL    HW210163   4.497   5.534   1.502 -0.8584 -0.1303  0.0356
 3115SOL     OW10164   6.136   3.303   4.993  0.4354 -0.5524 -0.0035
 3115SOL    HW110165   6.037   3.318   4.989  0.4559 -0.0058  1.0630
 3115SOL    HW210166   6.154   3.207   5.017  0.2984 -2.5157 -6.0118
 3116SOL     OW10167   6.918   2.674   6.703 -0.6887  0.2435 -0.6369
 3116SOL    HW110168   6.828   2.716   6.699 -2.0906 -2.4108  0.2253
 3116SOL    HW210169   6.950   2.672   6.798 -0.4843 -0.2643 -0.7121
 3117SOL     OW10170   2.048   5.286   6.585 -0.3486  0.6816  0.0442
 3117SOL    HW110171   1.958   5.272   6.627  0.3571  0.0950  1.4362
 3117SOL    HW210172   2.080   5.199   6.546  0.5136  0.3252  1.4630
 3118SOL     OW10173   0.700   5.479   0.495 -0.1138 -1.0429 -0.1008
 3118SOL    HW110174   0.672   5.562   0.447  2.0257 -0.5277 -0.5464
 3118SOL    HW210175   0.732   5.411   0.428  1.4802 -0.8748  0.4460
 3119SOL     OW10176   4.470   5.290   4.616 -0.0795  0.3603 -0.0035
 3119SOL    HW110177   4.497   5.381   4.584  0.9226  0.1604  0.2338
 3119SOL    HW210178   4.529   5.221   4.575 -1.8568 -0.3735 -1.4736
 3120SOL     OW10179   6.023   0.936   0.283  0.2101  0.0760 -0.2296
 3120SOL    HW110180   6.027   0.868   0.356 -0.5361 -0.9727 -1.1534
 3120SOL    HW210181   6.089   0.912   0.212 -0.3073  0.1061 -0.7266
 3121SOL     OW10182   6.324   6.195   5.042  0.1416  0.0332 -0.7020
 3121SOL    HW110183   6.332   6.251   4.960 -0.3743  0.6213 -0.3607
 3121SOL    HW210184   6.387   6.230   5.112 -3.6052  3.6015  1.3863
 3122SOL     OW10185   3.615   1.136   3.841 -0.0095  0.0178 -1.0615
 3122SOL    HW110186   3.712   1.127   3.821  0.1433 -1.8476  0.2436
 3122SOL    HW210187   3.564   1.152   3.756  1.0136 -3.3350 -2.4836
 3123SOL     OW10188   0.072   3.898   6.941 -0.2449  0.8644 -0.4361
 3123SOL    HW110189   0.140   3.963   6.974 -1.3413  1.7422  0.1320
 3123SOL    HW210190   0.011   3.942   6.876 -0.0215 -0.0405 -1.2921
 3124SOL     OW10191   5.806   2.346   6.266  0.2772  0.3206  0.2988
 3124SOL    HW110192   5.748   2.370   6.188  0.3501  2.2642  0.8090
 3124SOL    HW210193   5.891   2.305   6.232 -1.3838 -2.8930 -0.4550
 3125SOL     OW10194   1.876   2.463   6.491 -0.4207 -0.3667  0.2916
 3125SOL    HW110195   1.850   2.402   6.416  1.6691 -0.4050 -0.4643
 3125SOL    HW210196   1.883   2.410   6.576 -0.4509 -0.8084  0.0227
 3126SOL     OW10197   2.043   6.070   0.831 -0.1193  0.2229  0.4836
 3126SOL    HW110198   2.001   5.980   0.824  0.4595 -0.1036  1.1497
 3126SOL    HW210199   2.142   6.062   0.819 -0.0953  0.8221  0.1978
 3127SOL     OW10200   3.712   6.620   2.121 -0.2877  1.3997 -0.6212
 3127SOL    HW110201   3.712   6.531   2.076 -2.0192  1.0227  0.0747
 3127SOL    HW210202   3.658   6.616   2.204  1.1067  2.6522  0.4062
 3128SOL     OW10203   2.590   3.896   6.693 -0.2132  0.7009 -0.5140
 3128SOL    HW110204   2.493   3.880   6.672 -0.1147 -0.1682 -0.3157
 3128SOL    HW210205   2.646   3.863   6.617  0.0617 -1.1187  0.4286
 3129SOL     OW10206   5.131   6.848   6.081  0.2274  0.2997 -0.0393
 3129SOL    HW110207   5.158   6.942   6.099  1.2512 -0.2492  1.6521
 3129SOL    HW210208   5.040   6.831   6.119  0.0666  0.5931 -0.2967
 3130SOL     OW10209   5.073   0.550   6.337  0.0211  0.1084 -0.1955
 3130SOL    HW110210   5.101   0.558   6.433 -1.7399  0.0565  0.3405
 3130SOL    HW210211   5.137   0.489   6.289  0.0589 -1.0877  1.2989
 3131SOL     OW10212   2.930   3.690   6.636  0.2706  0.4009  0.8183
 3131SOL    HW110213   2.946   3.780   6.677  1.1567  0.2431  0.8470
 3131SOL    HW210214   2.920   3.700   6.537  0.5573  0.5180  0.7987
 3132SOL     OW10215   2.495   4.535   6.640 -0.2542 -0.2670  0.8394
 3132SOL    HW110216   2.539   4.576   6.720  0.0368  3.3214 -0.9341
 3132SOL    HW210217   2.411   4.584   6.619  1.0126  0.7863 -2.4747
 3133SOL     OW10218   5.601   2.728   1.085  0.3989  0.0229  0.1988
 3133SOL    HW110219   5.603   2.823   1.052  0.6147 -0.3170 -0.8032
 3133SOL    HW210220   5.520   2.682   1.049  0.5899 -0.3364  0.2254
 3134SOL     OW10221   4.831   4.197   5.049 -0.0504 -0.3514  0.1974
 3134SOL    HW110222   4.875   4.163   5.132  0.5503  0.0281  0.0423
 3134SOL    HW210223   4.813   4.121   4.987  2.3235 -0.3184 -0.6481
 3135SOL     OW10224   4.811   3.937   4.646 -0.3925  0.2991  0.3251
 3135SOL    HW110225   4.837   4.017   4.592 -1.8979  0.4998 -0.1766
 3135SOL    HW210226   4.721   3.905   4.615  0.4123 -1.9381  0.1300
 3136SOL     OW10227   2.144   3.119   4.829 -0.3075 -0.0654  0.3457
 3136SOL    HW110228   2.221   3.113   4.893 -1.6773  0.3934  2.1118
 3136SOL    HW210229   2.178   3.112   4.736  1.9065  0.4352  1.0612
 3137SOL     OW10230   3.256   2.279   6.923 -0.3913 -0.1472 -0.4080
 3137SOL    HW110231   3.347   2.240   6.934 -0.7963 -1.6178 -1.8735
 3137SOL    HW210232   3.188   2.219   6.966 -0.6808  1.1754  1.0991
 3138SOL     OW10233   5.098   1.260   5.691 -0.3451  0.1641  0.1520
 3138SOL    HW110234   5.141   1.322   5.625 -2.0374  0.8185 -0.4152
 3138SOL    HW210235   5.039   1.314   5.753  1.1882 -0.4294  2.2435
 3139SOL     OW10236   4.705   3.678   5.331  0.4565  0.1055 -0.0376
 3139SOL    HW110237   4.740   3.636   5.248 -0.6022  0.6864 -0.8148
 3139SOL    HW210238   4.772   3.743   5.367  0.2738  1.1083 -1.4116
 3140SOL     OW10239   4.432   6.655   6.445 -0.0085 -0.4044 -0.3278
 3140SOL    HW110240   4.528   6.636   6.463  0.1643 -0.0339 -0.8564
 3140SOL    HW210241   4.386   6.678   6.531 -0.0173 -2.2496  0.2073
 3141SOL     OW10242   6.229   0.301   6.747 -0.0625 -0.3143  0.1677
 3141SOL    HW110243   6.264   0.312   6.654 -0.0401 -3.1364 -0.2272
 3141SOL    HW210244   6.226   0.204   6.771  2.7434  0.3329  4.2101
 3142SOL     OW10245   6.732   2.403   3.531 -0.1717 -0.2205 -0.4190
 3142SOL    HW110246   6.671   2.472   3.568  2.5479  0.5096  3.2351
 3142SOL    HW210247   6.693   2.312   3.546 -1.7924  0.2974 -1.2635
 3143SOL     OW10248   6.876   2.162   0.530 -0.0458 -0.6096  0.0430
 3143SOL    HW110249   6.854   2.074   0.571  2.3063 -1.7617 -0.9754
 3143SOL    HW210250   6.962   2.155   0.480 -0.3448  1.9987 -1.0093
 3144SOL     OW10251   6.059   6.317   0.713  0.0559 -0.0934  0.7307
 3144SOL    HW110252   6.053   6.275   0.622  0.6314 -2.1602  1.5822
 3144SOL    HW210253   6.068   6.416   0.703 -0.5113 -0.1991 -1.4315
 3145SOL     OW10254   5.799   2.989   6.746  0.1472 -0.3628 -0.3850
 3145SOL    HW110255   5.749   3.048   6.682  0.7726 -0.2290 -0.7607
 3145SOL    HW210256   5.897   2.993   6.725  0.3315 -0.5144  0.4265
 3146SOL     OW10257   4.193   2.204   2.578  0.4474  0.0146  0.4302
 3146SOL    HW110258   4.292   2.218   2.583  0.8017 -0.4358 -2.7676
 3146SOL    HW210259   4.150   2.235   2.662  3.3015  0.0892  1.9783
 3147SOL     OW10260   6.143   0.199   0.681  0.1440 -0.2928  0.1618
 3147SOL    HW110261   6.053   0.155   0.680 -0.8838  1.6952 -0.1917
 3147SOL    HW210262   6.133   0.294   0.708  1.7056  0.8129 -2.7491
 3148SOL     OW10263   1.239   1.049   1.217  0.1592 -0.0235 -0.1500
 3148SOL    HW110264   1.163   0.991   1.246  0.8801 -0.9551 -0.0872
 3148SOL    HW210265   1.262   1.029   1.122  2.0761 -1.7166  0.6250
 3149SOL     OW10266   4.104   1.497   5.474  0.1444  0.5047 -0.2349
 3149SOL    HW110267   4.192   1.450   5.469 -0.1539 -0.1719  0.6235
 3149SOL    HW210268   4.037   1.448   5.419  0.3373  1.1462 -1.0729
 3150SOL     OW10269   6.390   5.374   1.205 -0.4652  0.5032 -0.1614
 3150SOL    HW110270   6.482   5.392   1.242 -0.1460 -0.3879 -0.5035
 3150SOL    HW210271   6.344   5.306   1.261  1.0047 -2.8810 -2.6821
 3151SOL     OW10272   0.001   3.194   3.036  0.3416  0.6716 -0.1529
 3151SOL    HW110273  -0.005   3.106   2.989  0.2981  0.0793  0.9214
 3151SOL    HW210274   0.082   3.243   3.005  1.0309 -0.2759  0.0978
 3152SOL     OW10275   4.245   5.197   3.003 -0.7337 -0.5284  0.1991
 3152SOL    HW110276   4.166   5.174   3.060 -0.8631  0.4363  0.4184
 3152SOL    HW210277   4.271   5.292   3.019  1.6700 -1.3119  1.5786
 3153SOL     OW10278   0.861   5.120   3.258  0.0820 -0.2488 -0.7105
 3153SOL    HW110279   0.863   5.020   3.247 -0.0047 -0.2862 -0.3974
 3153SOL    HW210280   0.946   5.159   3.224 -0.3802 -0.3076 -1.9815
 3154SOL     OW10281   3.966   4.035   3.259 -0.3283 -0.2838  0.0689
 3154SOL    HW110282   3.946   4.054   3.163 -1.7324  0.0392  0.4148
 3154SOL    HW210283   3.976   3.936   3.271 -1.3516 -0.4237 -0.1923
 3155SOL     OW10284   2.264   2.511   1.900 -0.4326  0.2117  0.0310
 3155SOL    HW110285   2.355   2.551   1.885 -0.5696  0.6607  0.3736
 3155SOL    HW210286   2.227   2.544   1.987 -1.2635  0.6781 -0.4885
 3156SOL     OW10287   1.391   2.182   5.688  0.1463 -0.1385 -0.1509
 3156SOL    HW110288   1.489   2.173   5.708 -0.3501  0.2534  3.0431
 3156SOL    HW210289   1.364   2.278   5.700 -0.7851 -0.4114 -0.0001
 3157SOL     OW10290   2.638   3.575   0.004  0.1341 -0.2457  0.0077
 3157SOL    HW110291   2.652   3.536  -0.087  1.4851 -0.2208  0.1790
 3157SOL    HW210292   2.703   3.650   0.018 -0.3407  0.0201  0.8400
 3158SOL     OW10293   6.288   2.913   0.748 -0.5557  0.2728  0.1614
 3158SOL    HW110294   6.302   2.832   0.693 -1.1428  0.0904  0.2710
 3158SOL    HW210295   6.343   2.908   0.831 -0.6975 -0.0818  0.2340
 3159SOL     OW10296   1.480   0.570   0.411 -0.2251  0.0656 -0.1556
 3159SOL    HW110297   1.500   0.610   0.500  0.1385 -0.7178  0.1210
 3159SOL    HW210298   1.484   0.641   0.341  0.9605  0.4199  0.2468
 3160SOL     OW10299   1.810   5.207   1.424 -0.0152 -0.3530  0.4347
 3160SOL    HW110300   1.904   5.233   1.401 -0.6356 -0.3529 -2.5680
 3160SOL    HW210301   1.752   5.288   1.422 -0.3524 -0.5901  0.5784
 3161SOL     OW10302   5.206   3.804   2.515  0.4528  0.9941  0.5982
 3161SOL    HW110303   5.132   3.817   2.450  0.0774 -0.5527  0.6773
 3161SOL    HW210304   5.236   3.892   2.550 -1.4875  1.6326  0.7250
 3162SOL     OW10305   1.446   2.429   5.392 -0.1258 -0.1526 -0.4263
 3162SOL    HW110306   1.419   2.334   5.376  0.0487 -0.1673 -0.6263
 3162SOL    HW210307   1.540   2.443   5.362  0.3420 -0.2720  0.8945
 3163SOL     OW10308   6.352   5.824   4.751 -0.0053  0.0521 -0.4487
 3163SOL    HW110309   6.288   5.828   4.674 -0.2690  1.0436 -0.1980
 3163SOL    HW210310   6.314   5.876   4.827  1.3121  1.0565 -0.4558
 3164SOL     OW10311   1.673   5.826   5.382  0.5414 -0.3457  0.7560
 3164SOL    HW110312   1.644   5.785   5.469 -0.0605  0.5846  1.0122
 3164SOL    HW210313   1.639   5.770   5.306 -0.4953 -0.1875  1.0907
 3165SOL     OW10314   5.269   6.111   5.328  0.2521 -0.1841  0.0220
 3165SOL    HW110315   5.184   6.164   5.329 -0.7595 -1.7060 -1.1810
 3165SOL    HW210316   5.250   6.016   5.353  1.7258 -0.3978  0.4159
 3166SOL     OW10317   1.302   1.911   5.751  0.0391  0.0810 -0.0713
 3166SOL    HW110318   1.221   1.909   5.693  0.4168  0.7014 -0.6348
 3166SOL    HW210319   1.331   2.005   5.765  1.3880 -0.1842 -0.9185
 3167SOL     OW10320   6.739   0.015   0.011  0.2562 -0.1048  0.6883
 3167SOL    HW110321   6.686  -0.064  -0.020  1.1837 -2.2534  4.0432
 3167SOL    HW210322   6.833   0.007  -0.024  0.3651 -0.5626  1.0677
 3168SOL     OW10323   1.856   0.292   4.084 -0.0152 -0.0792 -0.1108
 3168SOL    HW110324   1.924   0.222   4.062  1.9591  1.4742  0.7258
 3168SOL    HW210325   1.890   0.382   4.056 -0.4081  1.1163  2.8552
 3169SOL     OW10326   3.431   6.721   4.238  0.0152 -0.9017  0.3158
 3169SOL    HW110327   3.364   6.795   4.233 -0.4362 -1.3433 -0.1729
 3169SOL    HW210328   3.384   6.634   4.256  0.4586 -1.2078  0.0102
 3170SOL     OW10329   1.291   0.143   5.305  0.1268  0.0147 -0.2334
 3170SOL    HW110330   1.256   0.082   5.376 -2.4229  0.0169 -1.3976
 3170SOL    HW210331   1.323   0.228   5.346 -0.2754 -0.4178  0.9943
 3171SOL     OW10332   6.671   2.465   4.684 -0.4470 -0.1946 -0.1863
 3171SOL    HW110333   6.685   2.490   4.588  0.1213  3.3942  0.6979
 3171SOL    HW210334   6.758   2.436   4.723 -0.4239 -0.4524 -0.4225
 3172SOL     OW10335   5.836   5.979   3.656  0.0993  0.4215  0.0396
 3172SOL    HW110336   5.814   6.074   3.635 -0.1276  0.5052  0.6327
 3172SOL    HW210337   5.932   5.972   3.684  0.1332  0.4656 -0.0663
 3173SOL     OW10338   0.636   6.427   5.409  0.1893 -0.0726  0.4077
 3173SOL    HW110339   0.685   6.405   5.493  0.0079  1.1945  0.8666
 3173SOL    HW210340   0.566   6.357   5.392  2.6542 -2.4312 -0.7637
 3174SOL     OW10341   1.732   1.139   3.590  0.2953  0.6604  0.2315
 3174SOL    HW110342   1.639   1.103   3.597  0.8189 -0.4649  2.3304
 3174SOL    HW210343   1.782   1.118   3.674  2.2766  1.7654 -0.6057
 3175SOL     OW10344   3.352   2.110   0.611 -0.2471  0.2451 -0.0312
 3175SOL    HW110345   3.271   2.101   0.669  0.1006 -0.2225  0.3797
 3175SOL    HW210346   3.325   2.151   0.523 -0.4999  2.6339  1.0748
 3176SOL     OW10347   4.244   0.365   6.505  0.5181  0.8910 -0.0353
 3176SOL    HW110348   4.156   0.318   6.500  0.2664  1.2450  0.7823
 3176SOL    HW210349   4.232   0.452   6.554  1.1604  1.3470 -0.6637
 3177SOL     OW10350   5.660   0.890   6.636  0.3648 -0.5961 -0.3780
 3177SOL    HW110351   5.745   0.857   6.594  0.3060 -1.4868  0.1830
 3177SOL    HW210352   5.604   0.936   6.566  2.3705  2.2485 -0.2580
 3178SOL     OW10353   6.308   3.649   6.169 -0.5673 -0.5626 -1.0008
 3178SOL    HW110354   6.405   3.670   6.158 -0.6583 -0.3927 -1.5344
 3178SOL    HW210355   6.272   3.697   6.249 -0.0521 -1.1872 -0.3876
 3179SOL     OW10356   4.062   0.674   2.113  0.4488  0.0582 -0.1129
 3179SOL    HW110357   4.149   0.681   2.163  1.8129 -0.3313 -2.3058
 3179SOL    HW210358   4.012   0.760   2.123  2.8299  1.7809 -1.7610
 3180SOL     OW10359   2.789   1.777   2.250  0.1856 -0.1160  0.7086
 3180SOL    HW110360   2.858   1.807   2.184  1.1974  0.8188  2.1449
 3180SOL    HW210361   2.824   1.699   2.302 -1.3392 -2.1182 -1.0618
 3181SOL     OW10362   5.705   5.230   5.968 -0.0023 -0.3116 -0.2026
 3181SOL    HW110363   5.785   5.266   5.919  0.1849 -1.3401 -0.6862
 3181SOL    HW210364   5.735   5.160   6.033 -0.4153  0.0031  0.3339
 3182SOL     OW10365   0.487   6.335   3.018 -0.8236 -0.5978 -0.0993
 3182SOL    HW110366   0.583   6.361   3.024 -0.6981 -0.9782 -0.4044
 3182SOL    HW210367   0.478   6.236   3.030 -1.1523 -0.5939 -0.3002
 3183SOL     OW10368   0.878   2.639   1.375  0.4102 -0.5936  0.1105
 3183SOL    HW110369   0.809   2.594   1.318 -0.2541  1.3150 -0.6474
 3183SOL    HW210370   0.859   2.619   1.471 -2.2903  1.2309  0.0622
 3184SOL     OW10371   6.831   1.929   6.423  0.1744 -0.2905 -0.4062
 3184SOL    HW110372   6.850   2.004   6.487  2.1121  0.8110 -2.1388
 3184SOL    HW210373   6.736   1.934   6.393 -0.0251  0.8007  0.3453
 3185SOL     OW10374   4.836   2.412   0.639 -0.2456  0.2336 -0.1459
 3185SOL    HW110375   4.826   2.328   0.692 -0.6247  0.0322 -0.5230
 3185SOL    HW210376   4.789   2.487   0.685  0.4636  0.3444  0.4110
 3186SOL     OW10377   3.742   4.863   3.350  0.3138  0.4090  0.2758
 3186SOL    HW110378   3.822   4.804   3.339  0.6389  0.9632 -0.3922
 3186SOL    HW210379   3.759   4.928   3.424  0.5185  0.5842  0.0764
 3187SOL     OW10380   1.864   1.088   3.851 -0.1246 -0.6823 -0.1286
 3187SOL    HW110381   1.816   1.143   3.919  2.4716  1.8297 -0.1173
 3187SOL    HW210382   1.923   1.022   3.898 -1.0207 -1.4644 -0.0756
 3188SOL     OW10383   6.305   2.004   3.753  0.8143 -0.0765  0.2648
 3188SOL    HW110384   6.394   2.047   3.765  0.7517  0.2839 -0.4913
 3188SOL    HW210385   6.261   2.041   3.671 -0.1875  0.0236  0.8333
 3189SOL     OW10386   5.744   5.215   0.119 -0.3847  0.1046  0.0581
 3189SOL    HW110387   5.726   5.281   0.046 -0.9911 -0.3176 -0.1833
 3189SOL    HW210388   5.784   5.262   0.197 -2.8712  1.2146  0.7707
 3190SOL     OW10389   0.306   4.111   5.868 -0.2245 -0.0131  0.0256
 3190SOL    HW110390   0.389   4.055   5.871  0.0289  0.4106  2.6050
 3190SOL    HW210391   0.227   4.052   5.847  0.4535 -0.7377 -0.5530
 3191SOL     OW10392   4.804   2.695   0.774 -0.0703  0.8949 -0.5760
 3191SOL    HW110393   4.733   2.670   0.839  0.0265  0.0893 -0.7704
 3191SOL    HW210394   4.783   2.785   0.735  0.1166  1.5956  0.8909
 3192SOL     OW10395   2.178   5.823   3.053  0.6795  0.2096 -0.5166
 3192SOL    HW110396   2.258   5.787   3.100  1.0709  1.3452 -0.2829
 3192SOL    HW210397   2.202   5.908   3.007 -0.8848  1.7979  1.4096
 3193SOL     OW10398   4.630   6.519   1.434 -0.5484  0.6615  0.7364
 3193SOL    HW110399   4.604   6.426   1.461 -0.6983  0.6789  0.6540
 3193SOL    HW210400   4.728   6.521   1.414 -0.7612  0.2308 -0.4488
 3194SOL     OW10401   3.048   5.386   4.608  0.0341 -0.0204  0.0127
 3194SOL    HW110402   2.955   5.382   4.573  0.1558 -0.6886 -0.2392
 3194SOL    HW210403   3.100   5.307   4.576  1.0696  0.9962 -0.9332
 3195SOL     OW10404   1.144   6.404   6.950 -0.3307  0.2222 -0.0242
 3195SOL    HW110405   1.183   6.320   6.914  0.6377  0.9754 -0.7694
 3195SOL    HW210406   1.061   6.427   6.900 -1.7965 -1.3465  1.5216
 3196SOL     OW10407   3.575   2.070   4.825 -0.3159  0.0995 -0.4230
 3196SOL    HW110408   3.501   2.111   4.878 -1.7310 -0.1058 -2.1466
 3196SOL    HW210409   3.663   2.094   4.866 -1.3188 -0.5863  2.3521
 3197SOL     OW10410   3.606   5.140   5.971 -0.4001 -0.1923  0.4272
 3197SOL    HW110411   3.647   5.134   5.880  1.6640  1.0566  1.2021
 3197SOL    HW210412   3.563   5.052   5.994  0.7572 -1.1770 -0.9691
 3198SOL     OW10413   4.909   3.778   6.196 -0.2435 -0.0779  0.0488
 3198SOL    HW110414   4.957   3.776   6.284  0.1439 -0.8391 -0.1712
 3198SOL    HW210415   4.902   3.872   6.164  1.7127 -0.0022 -0.2325
 3199SOL     OW10416   1.175   4.014   3.565  0.1562 -0.4667 -0.0415
 3199SOL    HW110417   1.127   3.941   3.615 -3.4511  1.6367 -0.0647
 3199SOL    HW210418   1.158   4.102   3.610  1.3985  0.8386 -1.9623
 3200SOL     OW10419   0.839   0.569   1.933  0.0659  0.0713 -0.1814
 3200SOL    HW110420   0.921   0.528   1.973 -0.0871 -0.5352 -0.4740
 3200SOL    HW210421   0.822   0.657   1.976  1.0919  0.3817 -0.3885
 3201SOL     OW10422   4.791   2.406   3.922 -0.5273  0.3900 -0.4341
 3201SOL    HW110423   4.821   2.393   3.828  1.0462 -3.6315  0.4184
 3201SOL    HW210424   4.708   2.354   3.938  0.4151 -0.7990  0.8517
 3202SOL     OW10425   2.846   5.717   3.900  0.5785 -0.1710 -0.1767
 3202SOL    HW110426   2.896   5.768   3.970  1.1017  2.0135 -2.0021
 3202SOL    HW210427   2.884   5.739   3.810 -0.7345 -2.0551 -1.2664
 3203SOL     OW10428   5.623   6.352   1.362  0.8057  0.4735 -0.1560
 3203SOL    HW110429   5.575   6.268   1.387  1.9143 -0.7468 -1.9191
 3203SOL    HW210430   5.720   6.343   1.382  1.0229  1.1187 -0.8425
 3204SOL     OW10431   0.186   1.358   6.556  0.1098  0.1537 -0.5533
 3204SOL    HW110432   0.189   1.350   6.655 -1.0209  0.4295 -0.4741
 3204SOL    HW210433   0.243   1.288   6.514  0.4866 -0.0470  0.2840
 3205SOL     OW10434   5.913   6.183   5.588 -0.3695  0.2167 -0.6752
 3205SOL    HW110435   5.922   6.132   5.674 -0.1785  0.2632 -0.6655
 3205SOL    HW210436   5.986   6.251   5.583  0.1549 -0.3643 -1.2696
 3206SOL     OW10437   1.306   5.477   5.545 -0.5838 -0.5925 -0.2500
 3206SOL    HW110438   1.345   5.430   5.465 -0.6276 -0.0772 -0.5790
 3206SOL    HW210439   1.349   5.442   5.628  0.7168  0.0800 -0.6105
 3207SOL     OW10440   6.713   0.561   4.292  0.0946 -0.3058  0.0142
 3207SOL    HW110441   6.683   0.610   4.210  1.8480 -2.0623 -1.7893
 3207SOL    HW210442   6.645   0.491   4.315  0.2102 -0.6900 -0.7698
 3208SOL     OW10443   1.341   3.366   4.784 -0.1731 -0.2460  0.5401
 3208SOL    HW110444   1.261   3.313   4.754 -0.9149 -0.0419  2.0288
 3208SOL    HW210445   1.425   3.318   4.757 -0.6740  0.5027 -2.8284
 3209SOL     OW10446   6.213   0.351   5.873 -0.0798  0.1338  0.4855
 3209SOL    HW110447   6.163   0.437   5.871  0.9987  0.7778  0.3936
 3209SOL    HW210448   6.256   0.338   5.962 -1.5566 -1.1165  1.0612
 3210SOL     OW10449   5.467   6.176   3.882  0.4819 -0.1990 -0.4335
 3210SOL    HW110450   5.443   6.263   3.924 -0.4444 -1.1756  1.1451
 3210SOL    HW210451   5.515   6.193   3.796 -1.6449  1.8876 -1.3411
 3211SOL     OW10452   4.316   6.345   2.514  0.1449 -0.5353 -0.2020
 3211SOL    HW110453   4.405   6.301   2.524  1.3698  1.5987 -0.9904
 3211SOL    HW210454   4.302   6.372   2.418 -0.4475  0.9219  0.2635
 3212SOL     OW10455   2.405   5.778   6.234  0.3863 -0.3672 -0.1923
 3212SOL    HW110456   2.439   5.831   6.313  1.2466 -1.9850  0.5690
 3212SOL    HW210457   2.347   5.703   6.266  0.6749 -0.9980 -1.1050
 3213SOL     OW10458   1.096   3.451   4.088  0.0168 -0.1484  0.7176
 3213SOL    HW110459   1.108   3.368   4.143  0.7743 -0.1223  0.6012
 3213SOL    HW210460   1.014   3.499   4.118 -1.3890 -1.7833 -0.3142
 3214SOL     OW10461   1.602   4.281   2.240  0.3125  0.0883 -0.1423
 3214SOL    HW110462   1.701   4.270   2.239  0.2635 -0.5272  0.7158
 3214SOL    HW210463   1.560   4.198   2.277 -0.3701  1.2638  1.8623
 3215SOL     OW10464   5.880   3.457   4.041  0.3894 -0.0818 -0.4090
 3215SOL    HW110465   5.979   3.455   4.036  0.5331  1.5615  0.9679
 3215SOL    HW210466   5.845   3.543   4.005 -0.3096  0.4483  1.3852
 3216SOL     OW10467   5.437   1.862   3.528 -0.0473 -0.3408  0.0073
 3216SOL    HW110468   5.474   1.901   3.443  1.1137 -0.7757  0.2997
 3216SOL    HW210469   5.352   1.909   3.551  0.7667  1.3250 -0.2155
 3217SOL     OW10470   6.491   1.607   4.087  0.8316 -0.0716 -0.1393
 3217SOL    HW110471   6.514   1.541   4.159 -0.3878  0.2742  0.5889
 3217SOL    HW210472   6.397   1.593   4.056  0.2891  1.7465  0.5307
 3218SOL     OW10473   0.826   6.442   4.874  0.4633 -0.5719 -0.1998
 3218SOL    HW110474   0.920   6.426   4.844  0.8424 -1.0766  1.1661
 3218SOL    HW210475   0.768   6.460   4.795  1.5319 -1.1479 -1.1427
 3219SOL     OW10476   0.816   2.600   4.567  0.1451 -0.2825 -0.1772
 3219SOL    HW110477   0.866   2.591   4.481 -0.0860  1.0821 -0.4822
 3219SOL    HW210478   0.877   2.637   4.638  0.5491 -2.1064  0.5012
 3220SOL     OW10479   3.500   2.458   5.822 -0.0943 -0.3854 -0.1918
 3220SOL    HW110480   3.427   2.404   5.779  0.5689 -1.7459  0.3242
 3220SOL    HW210481   3.588   2.414   5.804  0.3897  0.1055  0.8898
 3221SOL     OW10482   5.001   1.835   2.322 -0.2416  0.1147 -0.3209
 3221SOL    HW110483   4.937   1.902   2.284 -0.9367 -1.4215 -2.0458
 3221SOL    HW210484   4.974   1.814   2.416 -1.8355  0.0813 -0.7429
 3222SOL     OW10485   5.770   0.707   0.881  0.1431  0.2753 -0.3717
 3222SOL    HW110486   5.839   0.761   0.832  0.2050  0.5177 -0.0220
 3222SOL    HW210487   5.679   0.739   0.856  0.1168 -0.7719 -1.6739
 3223SOL     OW10488   6.726   2.513   4.376 -0.1132 -0.0444  0.0567
 3223SOL    HW110489   6.768   2.424   4.391  1.5611  0.7731  0.4468
 3223SOL    HW210490   6.675   2.512   4.290  1.0349 -0.9879 -0.6438
 3224SOL     OW10491   6.557   1.159   2.116 -0.1727  0.0215  0.2166
 3224SOL    HW110492   6.550   1.252   2.081 -0.8066 -0.5903 -1.3922
 3224SOL    HW210493   6.650   1.125   2.100  0.4166  0.7387  1.8747
 3225SOL     OW10494   5.336   3.078   2.118  0.6213 -0.2751  0.0618
 3225SOL    HW110495   5.366   3.053   2.209  1.4649  1.5709  0.3326
 3225SOL    HW210496   5.408   3.129   2.071  0.1883 -1.1242 -1.6386
 3226SOL     OW10497   4.741   1.897   4.117 -0.0234  0.4057 -0.0084
 3226SOL    HW110498   4.767   1.913   4.022 -1.9141 -0.0696 -0.6523
 3226SOL    HW210499   4.719   1.984   4.161 -1.5665  0.4415 -0.7883
 3227SOL     OW10500   2.562   0.424   0.638  1.0311  0.0970  0.2317
 3227SOL    HW110501   2.648   0.411   0.588 -0.3505 -1.5006 -1.8796
 3227SOL    HW210502   2.578   0.487   0.714  3.9560  0.1966 -0.3238
 3228SOL     OW10503   2.907   1.003   5.417  0.2443 -0.3352 -0.3023
 3228SOL    HW110504   2.834   1.046   5.471  0.0543 -0.5521 -0.3866
 3228SOL    HW210505   2.979   0.969   5.478  0.7837  0.8048 -0.2701
 3229SOL     OW10506   6.654   6.455   4.240  0.1502  0.2832  0.7150
 3229SOL    HW110507   6.705   6.474   4.157 -0.4256  3.0504  0.9015
 3229SOL    HW210508   6.566   6.413   4.217 -0.2245  1.4895 -0.1808
 3230SOL     OW10509   5.151   4.678   1.501  0.2985 -0.0211  0.1595
 3230SOL    HW110510   5.228   4.675   1.565 -0.1394 -0.4710  0.6613
 3230SOL    HW210511   5.100   4.593   1.505  0.9537 -0.5512 -1.6506
 3231SOL     OW10512   1.371   6.309   3.635  0.3649 -0.0518  0.5331
 3231SOL    HW110513   1.395   6.392   3.686 -1.3833  0.2981  0.8589
 3231SOL    HW210514   1.382   6.230   3.695 -2.5564  0.4336  1.9090
 3232SOL     OW10515   2.168   2.572   0.281 -0.4696  0.5665 -0.4498
 3232SOL    HW110516   2.197   2.642   0.215 -1.3249  1.1302 -0.2334
 3232SOL    HW210517   2.242   2.505   0.292  1.0808  2.3309  0.6054
 3233SOL     OW10518   4.395   4.179   6.057  0.1027 -0.1686  0.5124
 3233SOL    HW110519   4.432   4.199   6.147  0.4740 -1.1530  0.5883
 3233SOL    HW210520   4.466   4.193   5.988  0.0873 -0.3005  0.4696
 3234SOL     OW10521   3.360   5.906   6.821 -0.1563 -0.4890 -0.5868
 3234SOL    HW110522   3.391   5.860   6.738  0.0537  1.0934 -1.4406
 3234SOL    HW210523   3.303   5.985   6.796  0.0735  0.1385  0.7724
 3235SOL     OW10524   1.513   2.404   6.018 -0.0007 -0.7067 -0.3426
 3235SOL    HW110525   1.559   2.316   6.031 -1.4917 -1.2820  1.4406
 3235SOL    HW210526   1.462   2.427   6.100 -1.9514  0.4771 -1.8058
 3236SOL     OW10527   5.066   5.394   0.391 -0.0535 -0.3031  0.0441
 3236SOL    HW110528   5.019   5.324   0.445 -0.5185 -0.8340 -1.0149
 3236SOL    HW210529   5.015   5.479   0.395 -0.2306 -0.4169  0.2113
 3237SOL     OW10530   4.708   6.357   5.169 -0.1197  0.7788  0.2305
 3237SOL    HW110531   4.758   6.278   5.207 -0.1568  1.3085  1.4470
 3237SOL    HW210532   4.614   6.329   5.147  0.3912  0.0402 -1.0778
 3238SOL     OW10533   3.986   4.141   2.156 -0.6870  0.7067 -0.9069
 3238SOL    HW110534   3.990   4.121   2.254  3.5770 -0.5195 -1.1141
 3238SOL    HW210535   3.946   4.063   2.107 -0.8239  0.3976 -0.3089
 3239SOL     OW10536   1.157   0.380   3.856 -0.3092 -0.1016  0.4790
 3239SOL    HW110537   1.076   0.327   3.828  1.2938 -1.9110 -1.0595
 3239SOL    HW210538   1.129   0.451   3.920 -2.8139 -2.0174  1.7310
 3240SOL     OW10539   3.749   2.650   1.179 -0.0781  0.0278 -0.2355
 3240SOL    HW110540   3.710   2.704   1.254  0.5655 -0.5947  0.5684
 3240SOL    HW210541   3.798   2.710   1.116  1.1762  0.3214  0.9876
 3241SOL     OW10542   3.145   6.895   6.952  0.2262  0.0659  0.1784
 3241SOL    HW110543   3.096   6.874   7.037  2.4051  1.9448  2.0359
 3241SOL    HW210544   3.228   6.840   6.945 -1.0694 -1.8175 -2.0646
 3242SOL     OW10545   2.745   5.878   6.299 -0.3153 -0.1607 -0.7030
 3242SOL    HW110546   2.733   5.780   6.284  1.2643 -0.3802 -0.7217
 3242SOL    HW210547   2.842   5.900   6.300 -0.5845  1.1678  0.8780
 3243SOL     OW10548   5.449   5.152   5.895 -0.0107  0.7457  1.2955
 3243SOL    HW110549   5.547   5.169   5.902  0.7827 -1.9627 -1.1459
 3243SOL    HW210550   5.407   5.225   5.840  0.9412  1.1199  1.0345
 3244SOL     OW10551   5.233   2.267   4.178 -0.3324 -0.4686 -0.4107
 3244SOL    HW110552   5.324   2.241   4.209 -0.2044 -0.6861 -0.9606
 3244SOL    HW210553   5.167   2.200   4.210 -0.0546 -1.2825 -1.5004
 3245SOL     OW10554   4.013   0.055   1.446  0.3751  0.5190 -0.9174
 3245SOL    HW110555   4.106   0.091   1.447 -0.4045  2.7808 -1.9227
 3245SOL    HW210556   3.953   0.118   1.497 -0.4235 -1.5578  0.8430
 3246SOL     OW10557   3.307   1.035   2.441  0.1726 -0.1694  0.3833
 3246SOL    HW110558   3.250   0.989   2.509  0.3256 -0.0670  0.5819
 3246SOL    HW210559   3.248   1.077   2.371  0.0164 -0.2907  0.4412
 3247SOL     OW10560   5.924   6.012   4.791  0.0359 -0.2507  0.3634
 3247SOL    HW110561   5.960   6.064   4.713  0.2450  0.3361  0.8426
 3247SOL    HW210562   5.836   6.050   4.819 -0.2139 -0.6918  0.1881
 3248SOL     OW10563   1.332   5.798   3.989 -0.4655 -0.5822  0.1655
 3248SOL    HW110564   1.419   5.846   4.002  0.3173 -1.5807 -1.1463
 3248SOL    HW210565   1.283   5.795   4.076 -0.0210  1.5350  0.5510
 3249SOL     OW10566   1.734   3.948   3.128  0.0216  0.5758 -0.3077
 3249SOL    HW110567   1.737   3.863   3.180  1.2990  0.8220  0.0458
 3249SOL    HW210568   1.751   3.930   3.031 -1.1493  0.2672 -0.4704
 3250SOL     OW10569   0.594   6.608   5.928  0.6579  0.2932 -0.1168
 3250SOL    HW110570   0.591   6.663   6.012  1.1806 -0.1336  0.1888
 3250SOL    HW210571   0.675   6.549   5.930  0.0780 -0.5297 -0.4221
 3251SOL     OW10572   0.191   0.853   1.311 -0.0441 -0.6645  0.2998
 3251SOL    HW110573   0.287   0.875   1.294  0.0285 -0.8500  0.4607
 3251SOL    HW210574   0.185   0.771   1.368 -0.2759 -0.1137  1.0919
 3252SOL     OW10575   2.047   4.836   2.405 -0.0423  0.0522 -0.0482
 3252SOL    HW110576   2.001   4.767   2.349 -1.6594 -0.8455  2.2379
 3252SOL    HW210577   2.082   4.909   2.346 -0.0636 -1.6723 -2.3533
 3253SOL     OW10578   1.259   6.014   6.355  0.4637 -0.3020  0.6792
 3253SOL    HW110579   1.301   5.996   6.266 -1.3327 -0.6910 -0.1193
 3253SOL    HW210580   1.185   5.949   6.370  0.6502 -0.1559  2.4266
 3254SOL     OW10581   3.669   3.205   1.725  0.0528  0.5775  0.2988
 3254SOL    HW110582   3.658   3.153   1.640  0.2514 -0.4528  0.8883
 3254SOL    HW210583   3.713   3.292   1.705  1.1723 -0.1493 -0.4954
 3255SOL     OW10584   0.680   0.399   2.256 -0.3352 -0.1517 -0.0845
 3255SOL    HW110585   0.738   0.337   2.310 -1.1332 -0.5482  0.3401
 3255SOL    HW210586   0.587   0.362   2.253 -0.5607  0.4715 -0.7645
 3256SOL     OW10587   2.541   6.798   2.842 -0.1559  0.0985 -0.4736
 3256SOL    HW110588   2.609   6.863   2.807  1.0404 -1.2632 -0.8144
 3256SOL    HW210589   2.458   6.804   2.787  0.2474  0.7653 -1.0267
 3257SOL     OW10590   5.131   5.209   1.403  0.3479  0.6183  0.0607
 3257SOL    HW110591   5.149   5.215   1.501 -0.7284  2.0121  0.1916
 3257SOL    HW210592   5.165   5.291   1.358  3.7632 -1.3318 -1.2859
 3258SOL     OW10593   4.346   5.472   3.004 -0.2848 -0.5604 -0.3306
 3258SOL    HW110594   4.409   5.520   3.064  1.3835  0.4769 -2.7809
 3258SOL    HW210595   4.395   5.435   2.926 -2.4997 -1.0659 -1.5742
 3259SOL     OW10596   3.770   6.296   5.860 -0.3520  0.3573 -0.0298
 3259SOL    HW110597   3.830   6.231   5.905 -0.5538  0.7944  0.8932
 3259SOL    HW210598   3.816   6.385   5.852 -0.8717  0.7025  0.7100
 3260SOL     OW10599   4.549   1.000   5.571 -0.3547 -0.0230  0.0892
 3260SOL    HW110600   4.552   1.061   5.492 -2.6108  0.1577  0.0589
 3260SOL    HW210601   4.579   0.908   5.543 -0.1354  0.2794 -0.7137
 3261SOL     OW10602   1.504   1.813   5.900  0.0182 -0.4864  0.2855
 3261SOL    HW110603   1.420   1.809   5.846 -0.0476 -0.5908  0.3964
 3261SOL    HW210604   1.582   1.831   5.839  0.2769 -2.9344 -0.2216
 3262SOL     OW10605   6.435   1.835   0.888 -0.2935  0.0402  0.2517
 3262SOL    HW110606   6.451   1.932   0.905 -0.8812  0.8174 -2.8753
 3262SOL    HW210607   6.342   1.811   0.916 -1.0830  1.1135 -1.2941
 3263SOL     OW10608   1.095   2.218   3.812 -0.0936 -0.3353 -0.4624
 3263SOL    HW110609   1.028   2.277   3.858 -1.0126  0.1019 -2.2834
 3263SOL    HW210610   1.187   2.253   3.831 -0.4875  0.2864  0.3927
 3264SOL     OW10611   5.331   3.203   1.738 -0.5453  0.4310 -0.1272
 3264SOL    HW110612   5.292   3.114   1.765  1.0923 -0.4825 -0.6011
 3264SOL    HW210613   5.269   3.276   1.764 -0.9932 -0.7011  2.2827
 3265SOL     OW10614   0.522   0.989   5.074 -0.0935  0.0061 -0.0719
 3265SOL    HW110615   0.570   0.903   5.056  0.5175  0.4411 -0.5834
 3265SOL    HW210616   0.589   1.058   5.103 -0.5588  0.3555  0.1725
 3266SOL     OW10617   2.775   5.291   5.129 -0.0765  0.5589  0.0435
 3266SOL    HW110618   2.707   5.311   5.199  0.2116  0.5666  0.3230
 3266SOL    HW210619   2.854   5.351   5.140 -0.6559  1.5872 -1.2060
 3267SOL     OW10620   0.439   6.443   2.466 -0.1038  0.3378  0.7714
 3267SOL    HW110621   0.511   6.448   2.397 -0.6008  1.4347  0.3178
 3267SOL    HW210622   0.480   6.447   2.558  0.4115  0.9888  0.5165
 3268SOL     OW10623   0.464   3.251   1.030 -0.0339  0.7915 -0.0476
 3268SOL    HW110624   0.480   3.205   1.117 -0.4163  1.2743  0.2754
 3268SOL    HW210625   0.455   3.182   0.957  0.0240  0.3815  0.3318
 3269SOL     OW10626   3.921   6.265   0.422 -0.0262  0.4280 -0.9652
 3269SOL    HW110627   3.865   6.343   0.395 -0.7008 -0.1559 -1.3082
 3269SOL    HW210628   3.927   6.201   0.345  1.5852  0.7343 -1.1306
 3270SOL     OW10629   0.219   3.021   4.080  0.1714  0.1642  0.5325
 3270SOL    HW110630   0.220   3.099   4.142  0.0596 -0.2745  1.0967
 3270SOL    HW210631   0.195   2.938   4.131 -2.8436  0.2046 -0.5794
 3271SOL     OW10632   0.157   6.962   5.723  0.2310 -0.3063 -0.5162
 3271SOL    HW110633   0.089   7.011   5.778 -1.2131 -1.3703 -1.2849
 3271SOL    HW210634   0.201   6.893   5.779  1.4631  1.0494  0.2634
 3272SOL     OW10635   1.579   2.882   5.125 -0.4497 -0.0251 -0.3025
 3272SOL    HW110636   1.600   2.964   5.179  0.0884  0.7005 -1.5712
 3272SOL    HW210637   1.531   2.909   5.042  1.1903 -0.8213 -1.5521
 3273SOL     OW10638   4.039   2.744   2.260  0.0369 -0.1548  0.2818
 3273SOL    HW110639   4.021   2.775   2.167 -1.5746 -1.3505  0.1522
 3273SOL    HW210640   4.021   2.646   2.266  1.6244 -0.4096  1.4960
 3274SOL     OW10641   6.751   1.626   1.659  0.5553  0.0063  0.6668
 3274SOL    HW110642   6.794   1.707   1.619  1.3721 -0.5249  0.4381
 3274SOL    HW210643   6.739   1.640   1.757  1.6439  0.0240  0.8155
 3275SOL     OW10644   2.170   2.125   0.877  0.0112  0.1677 -0.4280
 3275SOL    HW110645   2.103   2.194   0.849 -2.5804 -1.4208  1.3553
 3275SOL    HW210646   2.150   2.097   0.971  1.5116 -2.3441 -0.7773
 3276SOL     OW10647   3.063   6.698   6.035  0.2372  0.0942  0.2383
 3276SOL    HW110648   3.090   6.755   5.958  3.1014 -1.1873  0.1892
 3276SOL    HW210649   3.052   6.604   6.005 -1.2263  0.0007  0.9482
 3277SOL     OW10650   0.766   1.561   0.695  0.1160  0.5038  0.1744
 3277SOL    HW110651   0.679   1.570   0.743  0.2791  0.1465  0.5419
 3277SOL    HW210652   0.838   1.535   0.759  0.1988 -0.6904 -0.3637
 3278SOL     OW10653   2.145   5.014   1.248  0.0985 -0.0893 -0.2923
 3278SOL    HW110654   2.089   5.001   1.166  0.0736  1.8888 -0.6444
 3278SOL    HW210655   2.238   4.982   1.229 -0.5115 -2.0490 -0.1849
 3279SOL     OW10656   2.931   6.378   3.382  0.3137  0.2732 -0.4314
 3279SOL    HW110657   2.914   6.468   3.423 -0.6300  0.2780 -0.8322
 3279SOL    HW210658   2.921   6.384   3.283  0.7411 -0.1707 -0.5066
 3280SOL     OW10659   4.407   5.089   3.319 -0.2168 -0.0204 -0.7328
 3280SOL    HW110660   4.332   5.155   3.325  0.4856  0.6991  0.8428
 3280SOL    HW210661   4.489   5.128   3.362  0.6846 -1.3042 -1.2173
 3281SOL     OW10662   1.128   3.028   0.025  0.3567  0.4783 -0.6965
 3281SOL    HW110663   1.082   2.980  -0.049 -0.1519  0.3260 -0.2820
 3281SOL    HW210664   1.170   3.112  -0.012  0.4842  0.1819 -1.2399
 3282SOL     OW10665   2.078   6.392   3.872 -0.0085  0.2234 -0.2048
 3282SOL    HW110666   2.053   6.411   3.967 -0.9040 -2.2492  0.1334
 3282SOL    HW210667   2.177   6.388   3.863  0.1410  2.3858  0.1764
 3283SOL     OW10668   5.752   3.304   0.127 -0.4268 -0.3311 -0.2401
 3283SOL    HW110669   5.789   3.379   0.183  0.8835 -1.4037  0.3729
 3283SOL    HW210670   5.818   3.229   0.123 -0.2465 -0.1649 -3.6017
 3284SOL     OW10671   1.775   0.504   2.498 -0.6116  0.1554 -0.0534
 3284SOL    HW110672   1.845   0.527   2.431 -1.6568 -0.5065 -1.4150
 3284SOL    HW210673   1.690   0.550   2.474 -0.5608  1.4119  1.8975
 3285SOL     OW10674   5.700   1.945   4.993  0.7766  0.0411 -0.6051
 3285SOL    HW110675   5.769   1.996   4.941  1.2200 -1.2116 -1.2639
 3285SOL    HW210676   5.612   1.991   4.983  1.5270  1.8752  0.5361
 3286SOL     OW10677   1.904   1.341   5.053 -0.1736  0.1271  0.5031
 3286SOL    HW110678   1.849   1.402   5.110 -1.4553 -1.5616  1.1307
 3286SOL    HW210679   1.876   1.351   4.957 -0.2956  0.5892  0.5842
 3287SOL     OW10680   5.412   4.936   6.235  0.3883  0.0817 -0.0767
 3287SOL    HW110681   5.372   4.886   6.159  1.5561  0.5997 -1.0662
 3287SOL    HW210682   5.404   5.035   6.219  1.7402  0.2041 -0.1784
 3288SOL     OW10683   4.707   1.788   2.960 -0.0789  0.6176  0.0651
 3288SOL    HW110684   4.717   1.703   3.012  0.0024  0.9546  0.6180
 3288SOL    HW210685   4.745   1.864   3.013 -1.2000  1.1788  0.1036
 3289SOL     OW10686   4.990   4.918   3.596  0.3999  0.0996 -0.5039
 3289SOL    HW110687   5.084   4.900   3.625  0.4391  1.1436  0.0810
 3289SOL    HW210688   4.990   4.943   3.499  0.7534  0.2253 -0.4755
 3290SOL     OW10689   6.776   5.836   6.281  0.5399 -0.6342 -0.3620
 3290SOL    HW110690   6.780   5.830   6.381  2.1309  1.6059 -0.2127
 3290SOL    HW210691   6.835   5.766   6.241  1.7112 -0.1126  0.3873
 3291SOL     OW10692   2.825   0.612   4.140 -0.1745 -0.6002 -0.0328
 3291SOL    HW110693   2.854   0.537   4.080  0.1674  0.3195 -1.0480
 3291SOL    HW210694   2.771   0.678   4.087 -0.8626 -0.3463  0.9508
 3292SOL     OW10695   4.145   5.998   6.431  0.2105 -0.1616  0.1778
 3292SOL    HW110696   4.087   5.929   6.388  1.3336 -0.7252 -0.4840
 3292SOL    HW210697   4.153   6.078   6.371 -1.3680  0.7341  1.0937
 3293SOL     OW10698   6.105   4.264   3.462  0.1469 -0.1352 -0.3640
 3293SOL    HW110699   6.102   4.167   3.482  0.4198 -0.0469  0.0955
 3293SOL    HW210700   6.194   4.288   3.424  0.2489  0.0249 -0.0232
 3294SOL     OW10701   5.728   6.157   2.621 -0.1960 -0.5492 -0.1142
 3294SOL    HW110702   5.765   6.141   2.713 -1.6219 -0.5372  0.4871
 3294SOL    HW210703   5.710   6.254   2.608  0.2949 -0.5075 -0.5421
 3295SOL     OW10704   3.352   5.900   1.743 -0.0387  0.0603 -0.2767
 3295SOL    HW110705   3.309   5.870   1.658  1.7851 -3.4127 -0.1695
 3295SOL    HW210706   3.432   5.956   1.722  0.6246 -1.0863 -0.9604
 3296SOL     OW10707   2.916   5.123   1.384 -0.4875  0.1921  0.2307
 3296SOL    HW110708   2.922   5.065   1.466  0.0385  0.3333  0.2969
 3296SOL    HW210709   3.008   5.152   1.358 -0.8106  1.8011  0.7671
 3297SOL     OW10710   2.305   6.782   4.985  0.0700  0.3486  0.3846
 3297SOL    HW110711   2.357   6.789   5.071  3.2257 -0.1867 -1.3429
 3297SOL    HW210712   2.213   6.819   5.000  0.2418 -0.2893  4.1221
 3298SOL     OW10713   4.122   1.830   6.662 -0.2632  0.2763 -0.5881
 3298SOL    HW110714   4.036   1.795   6.701 -0.0893 -0.2168 -0.6405
 3298SOL    HW210715   4.141   1.921   6.699  0.0300 -0.2819  0.6758
 3299SOL     OW10716   5.701   4.928   0.935  0.0882  0.1972  0.3380
 3299SOL    HW110717   5.782   4.911   0.878  0.5871  3.8103 -0.2676
 3299SOL    HW210718   5.650   5.006   0.899 -1.8027  0.1737  2.6750
 3300SOL     OW10719   0.011   0.469   6.551  0.1913  0.0710  0.0059
 3300SOL    HW110720  -0.005   0.399   6.620 -0.9848  0.7744  0.4745
 3300SOL    HW210721  -0.029   0.441   6.464  1.1938 -0.5683 -0.2693
 3301SOL     OW10722   4.656   4.733   1.241 -0.0916 -0.0836 -0.1033
 3301SOL    HW110723   4.593   4.747   1.165  1.1061  1.1683 -0.9256
 3301SOL    HW210724   4.747   4.765   1.214  0.3775  0.2934  1.8374
 3302SOL     OW10725   6.069   0.712   5.478 -0.0570  0.6162 -0.3948
 3302SOL    HW110726   6.160   0.692   5.513  0.4700  0.2423 -1.8984
 3302SOL    HW210727   6.015   0.628   5.476 -1.2650  1.1890  2.5865
 3303SOL     OW10728   5.653   3.590   1.609  0.3874 -0.1453 -0.0837
 3303SOL    HW110729   5.560   3.601   1.644 -0.0008  0.7663 -1.3370
 3303SOL    HW210730   5.652   3.528   1.530  0.7194  0.3904 -0.5200
 3304SOL     OW10731   3.720   5.367   2.849  0.3456 -0.7806  0.3772
 3304SOL    HW110732   3.814   5.389   2.823  0.5106 -1.7403  0.1139
 3304SOL    HW210733   3.661   5.446   2.830  1.1687  0.0152  1.0245
 3305SOL     OW10734   2.214   4.987   4.843 -0.2440  0.0819 -0.3613
 3305SOL    HW110735   2.240   4.956   4.752  0.6560  0.5947 -0.2870
 3305SOL    HW210736   2.146   5.060   4.835 -1.9256 -1.4301 -0.5477
 3306SOL     OW10737   4.030   0.543   4.006  0.2743 -0.2481 -0.1196
 3306SOL    HW110738   4.092   0.466   4.020  1.5110  0.2616 -2.3148
 3306SOL    HW210739   4.043   0.609   4.080 -0.4931 -1.8889  1.5575
 3307SOL     OW10740   3.741   4.535   5.337  0.4229  0.0967 -0.3778
 3307SOL    HW110741   3.650   4.509   5.371  0.3380 -0.0934 -0.7528
 3307SOL    HW210742   3.789   4.585   5.409  0.5219 -0.9321  0.3070
 3308SOL     OW10743   2.631   1.010   1.528  0.0428 -0.1877 -0.3238
 3308SOL    HW110744   2.622   1.108   1.546  1.2177  0.4339 -2.7600
 3308SOL    HW210745   2.540   0.973   1.507 -0.3900  0.4091  0.4201
 3309SOL     OW10746   4.138   1.472   1.216 -0.3622  0.1481 -0.0395
 3309SOL    HW110747   4.054   1.423   1.240 -1.3050  1.5977 -0.2178
 3309SOL    HW210748   4.178   1.431   1.134 -1.0526 -0.4046 -0.1135
 3310SOL     OW10749   0.723   2.328   0.582 -0.6814  0.6128 -0.0387
 3310SOL    HW110750   0.673   2.256   0.533  0.5428 -0.0522 -0.3687
 3310SOL    HW210751   0.777   2.381   0.517  1.7003 -0.8764  0.5955
 3311SOL     OW10752   5.283   0.168   0.093 -0.2738 -0.5421 -0.1593
 3311SOL    HW110753   5.257   0.234   0.163 -0.1187  0.4344 -0.9939
 3311SOL    HW210754   5.375   0.135   0.111  0.1688  0.4962 -0.4725
 3312SOL     OW10755   4.869   5.137   3.726 -0.2404 -0.2922  0.0750
 3312SOL    HW110756   4.834   5.213   3.672 -1.9982 -0.0868  1.4256
 3312SOL    HW210757   4.929   5.081   3.668 -0.2791  1.1274 -1.4273
 3313SOL     OW10758   3.070   1.292   1.864 -0.4125  1.3543 -0.3597
 3313SOL    HW110759   3.039   1.197   1.853  0.1625  1.1616 -0.3334
 3313SOL    HW210760   3.154   1.306   1.811  1.2599  0.9856  2.0527
 3314SOL     OW10761   6.345   3.744   3.855  0.5809  0.3873  0.2795
 3314SOL    HW110762   6.343   3.654   3.898  0.9679  0.3824  0.2949
 3314SOL    HW210763   6.422   3.797   3.891  0.5121  0.6284  0.0804
 3315SOL     OW10764   6.277   1.528   1.170 -0.0207 -0.3729 -0.1000
 3315SOL    HW110765   6.339   1.591   1.216  0.2083  0.2533 -1.2234
 3315SOL    HW210766   6.186   1.569   1.164  0.2079  0.0239 -1.1244
 3316SOL     OW10767   5.640   4.908   1.207  0.6508 -0.2108  0.4222
 3316SOL    HW110768   5.698   4.898   1.126  1.0622 -1.7015  0.8760
 3316SOL    HW210769   5.590   4.824   1.223  1.4750 -0.3996  2.3938
 3317SOL     OW10770   1.356   6.131   1.334 -0.7872  0.3088  0.0774
 3317SOL    HW110771   1.311   6.042   1.328 -0.3803  0.1234 -0.3302
 3317SOL    HW210772   1.452   6.121   1.307 -0.5014  0.7008  0.9237
 3318SOL     OW10773   2.673   5.151   0.369  0.9153 -0.2384 -0.5744
 3318SOL    HW110774   2.723   5.079   0.417 -0.7067  0.0005  1.6565
 3318SOL    HW210775   2.735   5.225   0.345  2.1240 -1.1886 -0.4755
 3319SOL     OW10776   5.411   1.475   3.213  0.2212 -0.3044 -0.3894
 3319SOL    HW110777   5.434   1.508   3.304  0.6836 -2.2154  0.2443
 3319SOL    HW210778   5.475   1.514   3.146  0.5726  0.2603  0.2574
 3320SOL     OW10779   3.272   6.155   2.047  0.2782  0.5102  0.2070
 3320SOL    HW110780   3.280   6.187   2.141 -0.0879 -3.0880  1.6069
 3320SOL    HW210781   3.361   6.122   2.015  0.0044 -0.0790  0.0316
 3321SOL     OW10782   0.942   6.654   2.231 -0.2050  0.1278 -0.6400
 3321SOL    HW110783   0.887   6.668   2.313 -0.0813 -0.1211 -0.5130
 3321SOL    HW210784   1.039   6.665   2.254 -0.0506 -1.5235 -0.3903
 3322SOL     OW10785   2.806   6.344   3.122  0.5425  0.5397 -0.5127
 3322SOL    HW110786   2.797   6.366   3.025  1.1286  2.2321 -0.2267
 3322SOL    HW210787   2.886   6.285   3.136  1.0751  1.1374 -0.9637
 3323SOL     OW10788   3.280   5.137   0.004  0.2182  0.2530  0.2963
 3323SOL    HW110789   3.336   5.118   0.085 -3.0097 -3.0843  2.0710
 3323SOL    HW210790   3.293   5.064  -0.063  0.0891  0.9830 -0.5382
 3324SOL     OW10791   2.065   2.803   6.383  0.0092 -0.5542 -0.2950
 3324SOL    HW110792   2.131   2.763   6.319 -0.1676 -1.0250 -0.1940
 3324SOL    HW210793   2.043   2.896   6.355  2.6823  0.6090  1.1081
 3325SOL     OW10794   5.586   2.831   6.825  0.0994  0.4305  0.1217
 3325SOL    HW110795   5.643   2.911   6.804 -1.3146  1.6210  0.6411
 3325SOL    HW210796   5.625   2.781   6.902 -0.3193  2.1017  1.4700
 3326SOL     OW10797   0.693   1.783   0.085  0.6770  0.1540  0.3776
 3326SOL    HW110798   0.652   1.815  -0.001 -0.4400 -0.2116  0.7554
 3326SOL    HW210799   0.788   1.814   0.090  0.3217  1.4410 -0.3077
 3327SOL     OW10800   3.936   5.751   4.211 -0.1054  0.5783  0.6076
 3327SOL    HW110801   3.962   5.839   4.250  1.3718  0.5397 -0.2261
 3327SOL    HW210802   4.012   5.686   4.223 -0.5576 -0.1174 -0.2105
 3328SOL     OW10803   2.735   0.582   3.213  0.1871 -0.3856 -0.4165
 3328SOL    HW110804   2.756   0.641   3.135 -0.9549 -0.2063 -0.6192
 3328SOL    HW210805   2.721   0.637   3.295 -1.2557 -0.3070 -0.6890
 3329SOL     OW10806   1.040   4.946   0.156 -0.2516 -0.4408 -0.1681
 3329SOL    HW110807   1.090   4.978   0.075  2.7065 -1.9151  0.9334
 3329SOL    HW210808   0.947   4.922   0.130  0.2967  0.0721 -2.9037
 3330SOL     OW10809   3.728   5.619   4.364  0.3870 -0.5623 -0.0431
 3330SOL    HW110810   3.758   5.532   4.405  0.2426 -0.5776  0.0305
 3330SOL    HW210811   3.806   5.664   4.321  0.0794 -1.7576 -1.9632
 3331SOL     OW10812   1.475   6.401   6.468  0.4490  0.1307 -0.1772
 3331SOL    HW110813   1.504   6.402   6.564  0.5628  0.8745 -0.2172
 3331SOL    HW210814   1.442   6.491   6.442 -0.0774 -0.2066 -0.6961
 3332SOL     OW10815   3.257   0.693   0.649  0.2446 -0.4047 -0.5072
 3332SOL    HW110816   3.300   0.783   0.650  1.0332 -0.6518  3.0900
 3332SOL    HW210817   3.279   0.645   0.734 -3.7399 -2.2278 -0.2502
 3333SOL     OW10818   4.590   0.389   2.156  0.2537 -0.2006 -0.2865
 3333SOL    HW110819   4.504   0.342   2.174 -1.1394  2.4739  0.7118
 3333SOL    HW210820   4.587   0.430   2.065 -0.9597  2.4123  0.7991
 3334SOL     OW10821   3.023   4.892   6.045 -0.5125  0.1005  0.0064
 3334SOL    HW110822   3.041   4.843   5.960  0.4348 -0.7022  0.6359
 3334SOL    HW210823   2.926   4.913   6.052 -0.7012 -0.3955 -0.9676
 3335SOL     OW10824   6.331   1.081   6.579  0.3742 -0.2803  0.4667
 3335SOL    HW110825   6.300   1.162   6.631 -1.5149  0.7623 -2.0424
 3335SOL    HW210826   6.425   1.095   6.550  0.2401  0.8263  0.4913
 3336SOL     OW10827   0.777   2.841   3.046 -0.0370 -0.5062  0.0819
 3336SOL    HW110828   0.725   2.761   3.076  0.0809 -0.7985 -0.4905
 3336SOL    HW210829   0.716   2.902   2.995 -0.3124  0.1374  1.1500
 3337SOL     OW10830   6.486   4.217   4.663  0.2131  0.2831 -0.0949
 3337SOL    HW110831   6.549   4.209   4.586 -0.1706 -0.2907 -0.3561
 3337SOL    HW210832   6.393   4.232   4.628 -0.1979 -1.3824  0.1949
 3338SOL     OW10833   1.160   1.408   4.959  0.1498 -0.2151  0.2113
 3338SOL    HW110834   1.187   1.312   4.972  0.9081 -0.0991 -0.4228
 3338SOL    HW210835   1.179   1.435   4.865  0.3335  0.6853  0.5003
 3339SOL     OW10836   5.395   4.527   3.519 -0.1832 -0.5351  0.7960
 3339SOL    HW110837   5.381   4.550   3.422 -0.3240  1.1584  1.1779
 3339SOL    HW210838   5.352   4.439   3.539 -0.3335 -0.8094 -0.6390
 3340SOL     OW10839   0.215   2.913   4.979 -0.2812 -0.5608 -0.8495
 3340SOL    HW110840   0.249   2.819   4.978 -1.7631 -1.1349 -1.4755
 3340SOL    HW210841   0.164   2.931   4.894 -1.5586  0.1897  0.0315
 3341SOL     OW10842   4.324   1.896   4.548  0.1336 -0.0952  0.1569
 3341SOL    HW110843   4.282   1.821   4.599 -0.2466  1.1456  1.7422
 3341SOL    HW210844   4.385   1.948   4.609  0.7926  0.5807 -1.0408
 3342SOL     OW10845   2.971   0.122   2.278 -0.3398  0.2160 -0.2761
 3342SOL    HW110846   3.065   0.137   2.246 -0.9218 -1.4505 -3.0972
 3342SOL    HW210847   2.914   0.092   2.202 -2.9282 -0.0390  1.6138
 3343SOL     OW10848   0.846   3.576   2.119 -0.0270 -0.4746  0.2030
 3343SOL    HW110849   0.923   3.635   2.096 -0.6966  0.0881 -0.6842
 3343SOL    HW210850   0.850   3.551   2.216  0.9412  0.0095  0.2979
 3344SOL     OW10851   2.069   5.326   2.180 -0.7972  0.0912 -0.1741
 3344SOL    HW110852   2.013   5.243   2.177 -2.5674  1.2538 -1.0748
 3344SOL    HW210853   2.107   5.337   2.272 -1.9029 -0.8405  0.4159
 3345SOL     OW10854   3.531   4.853   6.321  0.2409 -0.3828 -0.0249
 3345SOL    HW110855   3.562   4.838   6.415 -0.7880 -2.4985  0.0245
 3345SOL    HW210856   3.464   4.928   6.320  2.3937  1.6896  0.4030
 3346SOL     OW10857   0.355   3.323   3.714 -0.6617  0.3531 -0.0658
 3346SOL    HW110858   0.415   3.257   3.669 -0.1587 -0.1168  1.2359
 3346SOL    HW210859   0.394   3.348   3.803 -1.0258  2.1429 -0.3612
 3347SOL     OW10860   5.163   3.678   5.845 -0.4512  0.1085  0.3940
 3347SOL    HW110861   5.250   3.673   5.894  0.4685  1.0564 -1.0436
 3347SOL    HW210862   5.163   3.759   5.786 -1.8141 -0.5465 -0.5686
 3348SOL     OW10863   4.279   2.206   2.999 -0.1314 -0.1211 -0.5681
 3348SOL    HW110864   4.349   2.212   3.070  0.0824  0.4910 -0.8356
 3348SOL    HW210865   4.305   2.137   2.932  1.1705  1.4460 -1.7268
 3349SOL     OW10866   5.535   2.798   4.679  0.0037  0.1172 -0.2480
 3349SOL    HW110867   5.497   2.856   4.751 -1.2026  0.0939 -0.8280
 3349SOL    HW210868   5.585   2.854   4.613  1.3594  0.1010  0.7427
 3350SOL     OW10869   3.155   1.700   5.536 -0.0311  0.1275  1.0156
 3350SOL    HW110870   3.087   1.737   5.473 -0.3653 -0.9759  0.7034
 3350SOL    HW210871   3.188   1.612   5.501  0.1225 -0.2780  2.1526
 3351SOL     OW10872   0.822   3.245   5.306  0.6287  0.0708  0.3583
 3351SOL    HW110873   0.787   3.154   5.283  1.6903 -0.2876  0.1130
 3351SOL    HW210874   0.790   3.311   5.237 -0.5234 -0.0147  0.7904
 3352SOL     OW10875   2.756   0.964   0.775  0.1663  0.0133  0.2014
 3352SOL    HW110876   2.847   0.987   0.738 -0.6356 -1.0345 -2.7444
 3352SOL    HW210877   2.710   0.902   0.712 -2.0638 -0.6762  2.3692
 3353SOL     OW10878   5.973   6.513   3.116  0.0679 -0.4378 -0.3829
 3353SOL    HW110879   5.971   6.598   3.064 -1.1398 -1.3383 -1.8862
 3353SOL    HW210880   5.884   6.499   3.160  0.2566 -0.9104 -0.1429
 3354SOL     OW10881   6.328   2.717   2.480 -0.5664  0.3530  0.0554
 3354SOL    HW110882   6.362   2.789   2.541 -0.0218  0.1256  0.0287
 3354SOL    HW210883   6.385   2.635   2.491  0.2458  0.6666 -1.5600
 3355SOL     OW10884   3.442   3.887   1.443  0.1652 -0.2232 -0.0633
 3355SOL    HW110885   3.429   3.846   1.533 -3.1419 -1.4058 -0.9437
 3355SOL    HW210886   3.354   3.894   1.396  1.6658  0.9853 -2.9663
 3356SOL     OW10887   4.808   2.519   5.898  0.0571  0.1553  0.2129
 3356SOL    HW110888   4.814   2.619   5.889 -2.8814  0.2967 -0.9950
 3356SOL    HW210889   4.877   2.476   5.839  0.2790  1.4493 -0.5005
 3357SOL     OW10890   5.285   6.472   5.919 -0.3171  0.1224  0.0136
 3357SOL    HW110891   5.294   6.571   5.906  0.8044 -0.0448 -0.5688
 3357SOL    HW210892   5.230   6.435   5.844  0.5544  0.0961 -0.6219
 3358SOL     OW10893   4.223   3.061   0.566  0.2736 -0.4938 -0.0542
 3358SOL    HW110894   4.156   3.005   0.615 -1.5977  0.7451 -1.1043
 3358SOL    HW210895   4.176   3.131   0.512  2.4142  0.2735 -1.0454
 3359SOL     OW10896   6.301   3.768   0.119  0.2011  0.2054  1.0685
 3359SOL    HW110897   6.372   3.823   0.163  0.8637  0.1823  0.0614
 3359SOL    HW210898   6.342   3.684   0.083 -0.5086 -0.2196  1.2415
 3360SOL     OW10899   4.733   5.354   0.742  0.7366  0.0285 -0.0537
 3360SOL    HW110900   4.714   5.360   0.840  1.5902 -0.9125  0.1810
 3360SOL    HW210901   4.775   5.439   0.711 -2.2748  1.5745 -0.2728
 3361SOL     OW10902   3.695   0.388   1.384 -0.1359 -0.3462  0.2458
 3361SOL    HW110903   3.703   0.440   1.469  0.5237  0.1226 -0.0949
 3361SOL    HW210904   3.656   0.446   1.313  2.6438  0.4566 -0.7555
 3362SOL     OW10905   2.584   6.027   2.832  0.4596  0.4313  0.0239
 3362SOL    HW110906   2.581   5.955   2.763  1.6395 -0.3862  0.8058
 3362SOL    HW210907   2.549   6.112   2.792  1.0453 -0.0368 -1.5558
 3363SOL     OW10908   0.984   3.329   6.600  0.3668 -0.3213 -0.8781
 3363SOL    HW110909   0.952   3.302   6.509 -0.5358 -1.8765 -0.1410
 3363SOL    HW210910   0.990   3.248   6.659  0.9277  0.6529  0.4509
 3364SOL     OW10911   2.456   0.809   2.380  0.5034  0.4092  0.0822
 3364SOL    HW110912   2.456   0.738   2.450  0.4288  0.6954  0.3770
 3364SOL    HW210913   2.450   0.899   2.424  0.0659  0.5758 -0.3124
 3365SOL     OW10914   6.691   1.813   4.517  0.6046  0.1184 -0.3972
 3365SOL    HW110915   6.622   1.815   4.445 -1.1197  3.5730  1.1212
 3365SOL    HW210916   6.647   1.799   4.605  2.0944  0.5634  0.4465
 3366SOL     OW10917   4.235   2.519   0.785  0.2506 -0.2773 -0.2186
 3366SOL    HW110918   4.229   2.439   0.725 -3.2542  0.1362 -0.6109
 3366SOL    HW210919   4.168   2.587   0.758  1.8009  2.0359  1.3143
 3367SOL     OW10920   1.015   3.983   3.944 -0.2272 -0.4404  0.6921
 3367SOL    HW110921   1.109   3.949   3.940  0.2495  0.7301  1.5477
 3367SOL    HW210922   0.985   3.987   4.039 -0.8595 -0.0435  0.4808
 3368SOL     OW10923   3.727   1.570   5.664  0.4570  0.1862 -0.4836
 3368SOL    HW110924   3.723   1.473   5.686 -0.4880 -0.1709 -2.0573
 3368SOL    HW210925   3.803   1.587   5.602 -1.0224 -0.0963 -2.4679
 3369SOL     OW10926   2.163   1.982   2.856 -0.1501 -0.2017 -0.9131
 3369SOL    HW110927   2.069   1.952   2.843 -0.2211  0.1668 -1.2740
 3369SOL    HW210928   2.167   2.082   2.855 -0.0213 -0.1444  0.9388
 3370SOL     OW10929   1.242   5.056   3.564  0.4701 -0.5475  0.0755
 3370SOL    HW110930   1.291   5.141   3.585 -0.0353 -0.7255  2.2870
 3370SOL    HW210931   1.282   5.014   3.483  2.6134  0.3815  0.5599
 3371SOL     OW10932   6.004   1.677   1.124 -0.1516  0.2458 -0.3346
 3371SOL    HW110933   6.061   1.731   1.061 -2.4969  0.2872 -2.5966
 3371SOL    HW210934   5.908   1.702   1.112 -0.8175 -0.4550  2.6998
 3372SOL     OW10935   5.345   0.699   1.609 -0.5956  0.1592  0.7584
 3372SOL    HW110936   5.437   0.737   1.603 -0.7276  0.4218  0.3881
 3372SOL    HW210937   5.350   0.602   1.631 -0.2624  0.5498  2.6149
 3373SOL     OW10938   2.139   6.548   0.018 -0.2927 -0.3755  0.1275
 3373SOL    HW110939   2.203   6.476   0.045  0.8117  0.8394  0.8840
 3373SOL    HW210940   2.189   6.635   0.008 -1.0090 -0.2460 -3.7156
 3374SOL     OW10941   5.789   6.495   0.496 -0.2449 -0.4642 -0.1099
 3374SOL    HW110942   5.832   6.411   0.462 -0.9543 -1.3247  1.0191
 3374SOL    HW210943   5.691   6.478   0.511 -0.5905  0.8539 -0.7257
 3375SOL     OW10944   3.158   5.547   5.304 -0.0663  0.5087  0.0103
 3375SOL    HW110945   3.245   5.514   5.339  0.8557 -1.4271 -3.5610
 3375SOL    HW210946   3.104   5.470   5.270 -0.7336  2.0606 -2.8133
 3376SOL     OW10947   4.526   0.479   5.337  0.4490  0.1766 -0.2088
 3376SOL    HW110948   4.458   0.443   5.402  0.5953  0.0053 -0.1511
 3376SOL    HW210949   4.605   0.513   5.387  0.2321  0.7599 -0.2490
 3377SOL     OW10950   1.967   5.261   4.149  0.4188  0.0676  0.0939
 3377SOL    HW110951   1.959   5.168   4.114 -0.4362  0.1769 -0.0330
 3377SOL    HW210952   2.029   5.313   4.091  0.2450 -0.1900 -0.3310
 3378SOL     OW10953   0.417   0.729   3.062 -0.4082  0.1936  0.3401
 3378SOL    HW110954   0.377   0.638   3.062  1.8644 -0.8689 -0.0016
 3378SOL    HW210955   0.404   0.771   2.972 -0.5552 -0.2109  0.1721
 3379SOL     OW10956   6.953   4.331   6.852  0.1307 -0.2076  0.3787
 3379SOL    HW110957   7.002   4.305   6.769  0.4677 -0.8923  0.7823
 3379SOL    HW210958   6.992   4.282   6.930 -0.2480  0.3495  0.9248
 3380SOL     OW10959   4.415   3.246   0.481  0.3828  0.5820 -0.1154
 3380SOL    HW110960   4.355   3.193   0.541  0.5916  1.4363  0.8980
 3380SOL    HW210961   4.494   3.191   0.455 -0.4962 -0.3352 -0.9273
 3381SOL     OW10962   5.548   2.806   2.045 -0.0453 -0.4512 -0.5840
 3381SOL    HW110963   5.452   2.828   2.063  0.4070  1.4532 -0.3043
 3381SOL    HW210964   5.592   2.883   1.999  1.0415 -1.8232 -1.9548
 3382SOL     OW10965   2.183   0.292   3.950  0.3725  0.5274  0.8628
 3382SOL    HW110966   2.147   0.356   4.018 -3.9056 -0.3015 -0.3589
 3382SOL    HW210967   2.155   0.199   3.973 -2.6665  0.3629 -2.6068
 3383SOL     OW10968   5.745   5.505   4.835  0.7114 -0.1665  0.4065
 3383SOL    HW110969   5.770   5.574   4.903  1.4802  1.5518 -1.5011
 3383SOL    HW210970   5.672   5.540   4.777  0.5999 -1.2665 -0.1482
 3384SOL     OW10971   5.398   3.595   3.230 -0.1353 -0.1569 -0.1287
 3384SOL    HW110972   5.477   3.597   3.292 -0.9394 -1.0349  0.9721
 3384SOL    HW210973   5.429   3.584   3.136  1.0553 -0.6362  0.3045
 3385SOL     OW10974   1.626   0.944   6.006  0.3581  0.2853  0.2319
 3385SOL    HW110975   1.594   0.878   5.938  1.4266  1.4703 -1.5097
 3385SOL    HW210976   1.548   0.994   6.044 -0.3257 -0.9362  0.4752
 3386SOL     OW10977   1.073   2.200   2.523 -0.1283  0.0578  0.0142
 3386SOL    HW110978   1.131   2.258   2.580  0.1033  1.2163 -1.3455
 3386SOL    HW210979   1.105   2.105   2.528  0.0853  0.1820  1.5072
 3387SOL     OW10980   2.928   0.214   4.742 -0.9655  0.1027 -0.5246
 3387SOL    HW110981   3.000   0.195   4.674 -0.3876  0.8271 -0.1191
 3387SOL    HW210982   2.915   0.312   4.750 -0.1884  0.0880  1.2759
 3388SOL     OW10983   6.188   0.789   1.789  0.6698 -0.7349 -0.4728
 3388SOL    HW110984   6.274   0.823   1.827  0.1336 -0.0464  0.1736
 3388SOL    HW210985   6.126   0.765   1.864  0.2835 -1.1693 -0.9291
 3389SOL     OW10986   1.097   4.629   6.809  0.0647  0.2189  0.1135
 3389SOL    HW110987   1.112   4.531   6.826 -0.7778  0.1444  0.4953
 3389SOL    HW210988   1.182   4.671   6.779 -0.3248 -1.3480 -3.7563
 3390SOL     OW10989   0.062   0.675   6.198 -0.0143 -0.9796 -0.8090
 3390SOL    HW110990   0.035   0.602   6.261  1.6912 -0.4089  0.6735
 3390SOL    HW210991   0.137   0.643   6.140  0.5667 -0.5188 -0.3289
 3391SOL     OW10992   0.703   4.227   2.927  0.3366 -0.0285  0.2812
 3391SOL    HW110993   0.642   4.241   3.006  0.5338  2.9463  0.0263
 3391SOL    HW210994   0.670   4.149   2.873 -0.8844 -0.9784  2.2790
 3392SOL     OW10995   0.182   3.225   5.995 -0.5946 -0.2763 -0.2091
 3392SOL    HW110996   0.133   3.289   5.935 -0.2067 -0.2251 -0.4730
 3392SOL    HW210997   0.259   3.272   6.038 -0.2568 -0.5887 -0.4710
 3393SOL     OW10998   6.246   3.959   5.907 -0.7404 -0.0303 -0.4849
 3393SOL    HW110999   6.343   3.971   5.886 -0.7211 -1.3850 -1.3207
 3393SOL    HW211000   6.227   3.992   5.999  0.9053 -1.3603  0.3948
 3394SOL     OW11001   6.462   5.441   2.166 -0.5532 -0.0491 -0.3230
 3394SOL    HW111002   6.497   5.427   2.074 -0.1463 -0.9685 -0.0425
 3394SOL    HW211003   6.510   5.381   2.230 -1.1094  0.2761  0.4253
 3395SOL     OW11004   3.714   5.021   6.809 -0.2510  0.2802  1.0725
 3395SOL    HW111005   3.650   5.098   6.812 -0.6491 -0.0791  3.3034
 3395SOL    HW211006   3.804   5.053   6.840 -0.4580 -0.1506  2.1634
 3396SOL     OW11007   0.718   0.349   4.485 -0.1722  0.4141  0.6478
 3396SOL    HW111008   0.812   0.318   4.467  0.3617  1.7703  0.9285
 3396SOL    HW211009   0.720   0.445   4.513 -1.5300  0.0962  1.9696
 3397SOL     OW11010   6.053   1.966   6.279 -0.0424  0.1634  0.3957
 3397SOL    HW111011   5.984   1.992   6.346 -1.7973 -0.4943 -1.0763
 3397SOL    HW211012   6.074   1.869   6.289  0.5426  0.3125  0.6943
 3398SOL     OW11013   1.189   5.571   2.878 -0.0132  0.0747  0.1238
 3398SOL    HW111014   1.207   5.669   2.878 -0.0675  0.0981 -0.8331
 3398SOL    HW211015   1.268   5.524   2.838 -0.1993 -0.2279  0.1149
 3399SOL     OW11016   4.749   3.682   6.604 -0.6595  1.1246 -0.5261
 3399SOL    HW111017   4.742   3.751   6.675 -0.8440  1.1375 -0.5575
 3399SOL    HW211018   4.827   3.703   6.545  1.0829 -0.2325  1.1392
 3400SOL     OW11019   5.381   1.599   4.491 -0.5194 -0.0607 -0.3442
 3400SOL    HW111020   5.323   1.602   4.572  1.4294  0.9009  1.0831
 3400SOL    HW211021   5.390   1.690   4.452 -0.9930 -0.4250 -1.3439
 3401SOL     OW11022   0.977   0.206   4.981 -0.0341  0.0550 -0.3887
 3401SOL    HW111023   0.918   0.173   5.054 -2.5868  0.5242 -2.0874
 3401SOL    HW211024   1.073   0.197   5.008 -0.8159 -1.4727  2.2178
 3402SOL     OW11025   1.608   5.988   0.111  0.1503  0.4792 -0.7212
 3402SOL    HW111026   1.629   5.935   0.192  0.9473  0.2454 -1.0752
 3402SOL    HW211027   1.564   6.074   0.138  0.4035  0.4023 -0.0499
 3403SOL     OW11028   1.357   6.141   4.162  0.1069 -0.2390 -0.3698
 3403SOL    HW111029   1.435   6.091   4.122 -0.7566 -0.8365 -1.3684
 3403SOL    HW211030   1.304   6.183   4.089  0.1801  1.2478  0.3902
 3404SOL     OW11031   1.541   5.371   0.483 -1.1795 -0.1371  0.7080
 3404SOL    HW111032   1.612   5.426   0.440 -0.7389 -0.4369  1.0491
 3404SOL    HW211033   1.477   5.339   0.413 -1.4753  0.8461  0.5089
 3405SOL     OW11034   3.389   6.413   2.003 -0.2021 -0.0907  0.9236
 3405SOL    HW111035   3.403   6.368   2.091  2.4124  0.9313  1.1453
 3405SOL    HW211036   3.354   6.506   2.019  0.4436  0.1584  0.9212
 3406SOL     OW11037   3.859   4.806   1.465 -0.3503  0.2176  0.4812
 3406SOL    HW111038   3.899   4.898   1.465 -0.9806  0.5051  1.0770
 3406SOL    HW211039   3.890   4.756   1.545  0.9212 -0.5278 -0.4472
 3407SOL     OW11040   2.653   5.556   0.425 -0.3503  0.4800 -0.4007
 3407SOL    HW111041   2.733   5.544   0.483 -1.5368 -0.5436  1.0967
 3407SOL    HW211042   2.657   5.491   0.349  0.2165  0.4027 -0.3072
 3408SOL     OW11043   2.110   0.233   0.829 -0.3287  0.0612 -0.0204
 3408SOL    HW111044   2.055   0.280   0.897  3.2621  0.9080  2.6298
 3408SOL    HW211045   2.139   0.297   0.758 -0.6231  0.2622  0.0438
 3409SOL     OW11046   3.856   6.289   3.392 -0.4700 -0.2381  0.2346
 3409SOL    HW111047   3.880   6.328   3.303  0.1589 -1.4806 -0.1651
 3409SOL    HW211048   3.845   6.362   3.459 -0.4176  0.6762 -0.7403
 3410SOL     OW11049   5.122   6.396   0.794 -0.1659  0.1607 -0.1525
 3410SOL    HW111050   5.134   6.303   0.759 -1.1774 -0.2200  0.4482
 3410SOL    HW211051   5.048   6.441   0.744 -1.4660 -0.3057  1.2638
 3411SOL     OW11052   2.002   3.893   0.416 -0.2280 -0.5433 -0.1757
 3411SOL    HW111053   1.917   3.905   0.365 -0.8264 -0.6189  0.7803
 3411SOL    HW211054   2.080   3.903   0.354 -0.9355 -0.8695 -1.1400
 3412SOL     OW11055   4.255   5.928   5.826 -0.0148  0.7825 -0.2848
 3412SOL    HW111056   4.219   5.995   5.760  0.2522 -0.0110 -1.2628
 3412SOL    HW211057   4.266   5.840   5.781 -3.1567 -0.7945  1.6966
 3413SOL     OW11058   3.559   5.771   2.992 -0.0361 -0.3003  0.6854
 3413SOL    HW111059   3.590   5.866   2.986  0.4140 -0.2189  3.2064
 3413SOL    HW211060   3.590   5.721   2.911 -0.5892  1.7323 -0.8829
 3414SOL     OW11061   3.628   4.477   3.032  0.3592 -0.0728 -0.2209
 3414SOL    HW111062   3.660   4.572   3.031 -0.4300  0.1977 -0.1915
 3414SOL    HW211063   3.588   4.454   2.943 -1.3847  0.3067  0.4212
 3415SOL     OW11064   4.429   0.613   3.465  0.4841  0.0683  0.0963
 3415SOL    HW111065   4.335   0.599   3.496  0.6131 -3.2678 -0.6249
 3415SOL    HW211066   4.489   0.622   3.544 -0.0524 -1.1893  0.6815
 3416SOL     OW11067   1.230   2.709   6.610  0.7984  0.0714  0.2275
 3416SOL    HW111068   1.188   2.732   6.697 -1.0535  2.3044 -1.1538
 3416SOL    HW211069   1.220   2.611   6.593 -1.8270  0.1369  1.0474
 3417SOL     OW11070   3.464   5.109   3.051  0.6348 -0.1933 -0.2347
 3417SOL    HW111071   3.462   5.035   3.118  1.3592 -0.5840 -0.6415
 3417SOL    HW211072   3.512   5.188   3.090 -1.4797  0.6764  0.7922
 3418SOL     OW11073   1.032   2.280   2.265  0.4706 -0.4879  0.3504
 3418SOL    HW111074   1.009   2.370   2.302 -0.1977  0.0563 -1.2802
 3418SOL    HW211075   1.040   2.214   2.340 -0.1210  0.6910  1.4936
 3419SOL     OW11076   3.275   0.400   0.194  0.3601  0.4815 -0.1279
 3419SOL    HW111077   3.327   0.327   0.238 -0.4544  0.5225  0.9279
 3419SOL    HW211078   3.179   0.371   0.183  0.4371  0.6497 -1.4755
 3420SOL     OW11079   2.479   6.097   3.526  0.3864  0.2634  0.4345
 3420SOL    HW111080   2.559   6.087   3.585  0.7263  1.1024  0.1249
 3420SOL    HW211081   2.490   6.177   3.467 -0.9014  0.7001  0.7363
 3421SOL     OW11082   6.293   5.407   1.615  0.1013 -0.4024  0.4569
 3421SOL    HW111083   6.353   5.483   1.638  1.3450 -1.2045 -0.0157
 3421SOL    HW211084   6.207   5.442   1.579  1.5615  0.8555 -2.1715
 3422SOL     OW11085   4.306   5.655   5.732 -0.1867  0.1778 -0.0413
 3422SOL    HW111086   4.234   5.587   5.746 -0.9320  0.8660 -0.4518
 3422SOL    HW211087   4.394   5.616   5.759 -0.7673 -0.5211  0.9016
 3423SOL     OW11088   5.262   1.277   0.305  0.1583  0.9524 -0.4290
 3423SOL    HW111089   5.166   1.283   0.277  0.4185  2.9635 -1.0343
 3423SOL    HW211090   5.297   1.185   0.284 -2.1921 -0.5710  1.8664
 3424SOL     OW11091   2.076   4.998   0.968  0.3762  0.0093  0.3505
 3424SOL    HW111092   2.001   4.961   0.912  0.2856 -1.5880  1.4595
 3424SOL    HW211093   2.152   5.023   0.908 -1.1184  2.0024 -0.8397
 3425SOL     OW11094   5.705   1.004   0.620  0.1094 -0.2794  0.4037
 3425SOL    HW111095   5.761   0.982   0.700  0.6734  1.3359  0.4972
 3425SOL    HW211096   5.668   1.097   0.630 -1.2274 -0.6962 -0.4342
 3426SOL     OW11097   4.338   4.132   3.666  0.0883  0.5009 -0.1561
 3426SOL    HW111098   4.410   4.074   3.628  0.2543  0.5439  0.0888
 3426SOL    HW211099   4.249   4.101   3.633  0.2709  0.9759 -1.1565
 3427SOL     OW11100   0.929   4.971   1.396  0.0007  0.2991  0.1252
 3427SOL    HW111101   0.890   4.954   1.305 -2.8985  0.7878  1.1601
 3427SOL    HW211102   0.923   5.068   1.418  0.1421  0.1058  1.0641
 3428SOL     OW11103   2.937   2.508   5.830  0.5368  0.5077 -0.0523
 3428SOL    HW111104   2.928   2.599   5.789  1.0014  1.7068  2.3155
 3428SOL    HW211105   2.893   2.507   5.920  2.0991 -1.0598  0.7658
 3429SOL     OW11106   3.623   5.668   0.650 -0.6846 -0.0063  0.2124
 3429SOL    HW111107   3.618   5.764   0.626 -0.5947 -0.0609 -0.0279
 3429SOL    HW211108   3.717   5.635   0.636 -0.7948 -0.2157 -0.0355
 3430SOL     OW11109   4.841   1.112   0.734  0.3168  0.0255  0.0788
 3430SOL    HW111110   4.858   1.185   0.799  2.0157  0.8036 -1.1644
 3430SOL    HW211111   4.758   1.131   0.683 -0.9171 -0.4902  1.8182
 3431SOL     OW11112   2.496   1.089   0.769  0.2778 -0.2678 -0.0935
 3431SOL    HW111113   2.447   1.102   0.683  0.0212 -0.1502  0.0694
 3431SOL    HW211114   2.576   1.030   0.754  2.3313  2.5903 -1.1654
 3432SOL     OW11115   5.426   6.997   5.783  0.4830  0.1728  0.3224
 3432SOL    HW111116   5.413   6.912   5.733  1.6742  0.9402 -1.3979
 3432SOL    HW211117   5.487   6.982   5.860  0.8239 -0.5090 -0.0729
 3433SOL     OW11118   1.326   2.599   5.585 -0.0468  0.2666  0.0122
 3433SOL    HW111119   1.353   2.529   5.519  0.4356  0.9928 -0.5803
 3433SOL    HW211120   1.323   2.559   5.677 -0.8214 -0.7781 -0.4515
 3434SOL     OW11121   2.002   5.674   4.737 -0.2025  0.0893  0.0575
 3434SOL    HW111122   2.038   5.758   4.777 -0.2727  0.0736  0.1548
 3434SOL    HW211123   1.935   5.696   4.666  0.0859  0.1195 -0.2065
 3435SOL     OW11124   5.008   3.422   3.848 -0.0288 -0.7936 -0.0876
 3435SOL    HW111125   5.006   3.522   3.854 -1.9362 -0.6382 -2.0740
 3435SOL    HW211126   4.915   3.388   3.836  0.5795 -2.8495  0.6012
 3436SOL     OW11127   5.499   6.945   0.472  0.2995 -0.2894 -0.2355
 3436SOL    HW111128   5.579   7.002   0.452  0.8169 -1.0634 -0.4193
 3436SOL    HW211129   5.458   6.974   0.558  0.7902  0.0986 -0.1293
 3437SOL     OW11130   6.006   2.474   5.209 -0.2374  0.3351  0.4391
 3437SOL    HW111131   5.933   2.540   5.190  0.4890  0.8406 -0.7288
 3437SOL    HW211132   6.062   2.463   5.127  1.5486  0.6732  1.5670
 3438SOL     OW11133   5.888   6.311   4.289  0.0294  0.1676  0.4345
 3438SOL    HW111134   5.798   6.290   4.250 -0.0803  1.3371  0.0424
 3438SOL    HW211135   5.938   6.373   4.228  1.0392 -0.3208  0.7376
 3439SOL     OW11136   4.696   3.725   0.734  0.5214 -0.0018  0.0773
 3439SOL    HW111137   4.654   3.666   0.802  0.1354  0.1626 -0.0129
 3439SOL    HW211138   4.657   3.705   0.644  0.3787  0.3961  0.0494
 3440SOL     OW11139   0.526   3.693   1.690 -0.0854  0.0767 -0.0238
 3440SOL    HW111140   0.461   3.627   1.652  0.0417 -0.7533  1.1717
 3440SOL    HW211141   0.594   3.646   1.746  1.0603  1.0332 -0.5605
 3441SOL     OW11142   2.160   6.367   2.206  0.5597  0.4147 -0.4592
 3441SOL    HW111143   2.093   6.301   2.241  0.9603 -0.1397 -0.7238
 3441SOL    HW211144   2.184   6.431   2.278 -0.1343  0.5244 -0.3115
 3442SOL     OW11145   0.125   3.084   5.695 -0.6015  0.4187  0.4590
 3442SOL    HW111146   0.081   3.114   5.780 -0.3455 -0.4054  0.8841
 3442SOL    HW211147   0.138   3.163   5.635 -0.3254  1.0885  1.3871
 3443SOL     OW11148   1.546   3.721   3.506 -0.5209  0.1793 -0.4405
 3443SOL    HW111149   1.512   3.633   3.470  0.6615  0.0209 -1.2123
 3443SOL    HW211150   1.485   3.794   3.477 -0.6849 -0.2052 -1.0813
 3444SOL     OW11151   2.445   2.153   4.795 -0.0683 -0.0091  0.2275
 3444SOL    HW111152   2.528   2.143   4.740  0.3274 -2.3961  1.1403
 3444SOL    HW211153   2.394   2.066   4.795 -1.1662  0.5871  1.8562
 3445SOL     OW11154   1.365   4.562   5.128 -0.2684 -0.0832 -0.0654
 3445SOL    HW111155   1.358   4.583   5.030  0.7920  2.8828  0.3924
 3445SOL    HW211156   1.391   4.466   5.140  0.0552 -0.3957 -2.6785
 3446SOL     OW11157   2.430   0.619   4.106  0.0627 -0.3555  0.2841
 3446SOL    HW111158   2.365   0.693   4.120  0.6465  0.3547 -0.6265
 3446SOL    HW211159   2.479   0.600   4.191 -1.0172 -0.6158  0.8671
 3447SOL     OW11160   2.474   0.909   6.372  0.5684 -0.2624 -0.4879
 3447SOL    HW111161   2.387   0.915   6.324  0.2451 -2.2039 -0.2437
 3447SOL    HW211162   2.466   0.954   6.461  0.5038  1.4208 -1.3022
 3448SOL     OW11163   6.558   5.498   6.840  0.1066 -0.3175  0.4042
 3448SOL    HW111164   6.559   5.471   6.744 -0.4813  0.0822  0.2730
 3448SOL    HW211165   6.553   5.598   6.846  0.8478 -0.3020  0.8589
 3449SOL     OW11166   1.769   1.853   2.404 -0.1038 -0.2186 -0.0982
 3449SOL    HW111167   1.693   1.816   2.351 -0.6690  0.3216  0.3235
 3449SOL    HW211168   1.740   1.936   2.452  0.1339 -1.1006  1.6808
 3450SOL     OW11169   3.678   2.888   0.282  1.0586 -0.1158 -0.7209
 3450SOL    HW111170   3.581   2.871   0.265  0.5262 -0.1814  1.9557
 3450SOL    HW211171   3.710   2.825   0.353  2.9323  0.3118 -1.1403
 3451SOL     OW11172   0.266   0.667   0.562  0.2591 -0.1449  0.0309
 3451SOL    HW111173   0.224   0.579   0.540 -1.3012  0.5813  0.0419
 3451SOL    HW211174   0.197   0.731   0.593  1.7316  0.2689  2.8071
 3452SOL     OW11175   4.623   6.656   3.245  0.2139  0.6117 -0.2413
 3452SOL    HW111176   4.574   6.569   3.251  1.7015 -0.1724  1.2412
 3452SOL    HW211177   4.559   6.731   3.262 -0.4545 -0.4052  2.1592
 3453SOL     OW11178   0.262   5.425   5.763 -0.1788 -0.1360 -0.7239
 3453SOL    HW111179   0.275   5.524   5.754 -0.6700  0.4290  3.0684
 3453SOL    HW211180   0.165   5.406   5.781 -0.2623 -1.4613 -2.4133
 3454SOL     OW11181   5.703   5.075   4.242 -0.1001  0.4558  0.9258
 3454SOL    HW111182   5.763   5.143   4.201  0.4100 -0.8695 -0.6175
 3454SOL    HW211183   5.613   5.077   4.198  0.2644 -0.5853  0.1048
 3455SOL     OW11184   6.148   2.076   4.663  0.0977  0.5998  0.2102
 3455SOL    HW111185   6.214   2.033   4.601  0.1078  0.7410  0.1248
 3455SOL    HW211186   6.172   2.054   4.758 -0.6473 -0.6829  0.1236
 3456SOL     OW11187   1.270   3.275   6.923  0.7306  0.3508  0.3952
 3456SOL    HW111188   1.317   3.249   6.839 -0.0987  1.0936 -0.3166
 3456SOL    HW211189   1.338   3.298   6.993  1.4280  0.1371 -0.1931
 3457SOL     OW11190   6.886   1.981   4.601  0.0651 -0.3165 -0.0156
 3457SOL    HW111191   6.931   1.937   4.679  0.3328 -0.3826 -0.2064
 3457SOL    HW211192   6.808   1.926   4.572 -0.1462 -0.1975  0.3232
 3458SOL     OW11193   6.944   6.630   3.284  0.6016  0.5677  0.2176
 3458SOL    HW111194   6.920   6.567   3.209  1.0223 -0.0874  0.6247
 3458SOL    HW211195   6.869   6.695   3.297  0.5084  0.6840 -0.7575
 3459SOL     OW11196   5.539   5.399   4.124  0.3275  0.4590 -0.0271
 3459SOL    HW111197   5.527   5.495   4.098  1.3729  0.3171 -1.1190
 3459SOL    HW211198   5.575   5.348   4.046  1.5647 -0.4384  1.0913
 3460SOL     OW11199   4.346   4.236   5.057 -0.2466  0.4919  0.0006
 3460SOL    HW111200   4.425   4.280   5.014  1.3321  0.8523  3.0240
 3460SOL    HW211201   4.368   4.140   5.077 -1.5347 -0.1131 -1.3366
 3461SOL     OW11202   2.605   1.913   6.352 -0.4133  0.4186  0.0625
 3461SOL    HW111203   2.552   1.944   6.273  1.0164  1.2887 -0.6046
 3461SOL    HW211204   2.608   1.985   6.421 -0.0384  0.4042  0.0639
 3462SOL     OW11205   0.306   0.047   4.423  0.3311  0.2331 -0.3891
 3462SOL    HW111206   0.225   0.102   4.438  0.3809  0.5130 -1.1203
 3462SOL    HW211207   0.386   0.106   4.413  0.8548 -0.0780  1.5759
 3463SOL     OW11208   1.150   5.733   0.618 -0.3562 -0.2866  0.1507
 3463SOL    HW111209   1.120   5.811   0.562 -1.1389 -0.7398 -0.0639
 3463SOL    HW211210   1.250   5.724   0.610 -0.0271  1.6646  1.4322
 3464SOL     OW11211   4.286   2.719   3.457 -0.1427 -0.0833  0.0278
 3464SOL    HW111212   4.230   2.800   3.444 -1.2886 -0.6175  1.3692
 3464SOL    HW211213   4.259   2.648   3.391  0.6793  0.4954 -0.9647
 3465SOL     OW11214   6.639   3.422   3.527 -0.3265 -0.4133 -0.4442
 3465SOL    HW111215   6.603   3.511   3.499 -1.0932 -0.7001 -0.3903
 3465SOL    HW211216   6.598   3.351   3.471 -0.6775 -0.8511  0.3602
 3466SOL     OW11217   6.900   2.909   5.136 -0.3352  0.3177 -0.2280
 3466SOL    HW111218   6.901   2.813   5.107 -1.1215  0.0172  0.6672
 3466SOL    HW211219   6.834   2.960   5.080  1.9648  1.0007 -2.5280
 3467SOL     OW11220   0.657   0.252   0.252 -0.0483 -0.2151  0.1834
 3467SOL    HW111221   0.686   0.318   0.182  1.4322 -1.7053 -0.6796
 3467SOL    HW211222   0.731   0.238   0.317 -1.0267  0.3166  1.4633
 3468SOL     OW11223   5.415   2.632   5.455  0.2149 -0.0383 -0.0516
 3468SOL    HW111224   5.320   2.602   5.449  0.1760 -0.0169  0.4442
 3468SOL    HW211225   5.441   2.643   5.551 -0.1037  2.5579 -0.1866
 3469SOL     OW11226   2.253   4.074   4.746 -0.4677  0.1473  0.0292
 3469SOL    HW111227   2.186   4.061   4.673  1.6688  0.0554 -2.0102
 3469SOL    HW211228   2.271   3.987   4.792 -0.0053 -0.3176 -1.0174
 3470SOL     OW11229   6.792   4.008   3.628  0.0314 -0.2661 -0.0662
 3470SOL    HW111230   6.857   3.933   3.642 -1.5741 -1.5116  1.2658
 3470SOL    HW211231   6.818   4.085   3.686 -0.2018 -1.1322  1.2389
 3471SOL     OW11232   2.345   6.016   4.865 -0.1216 -0.2908 -0.0821
 3471SOL    HW111233   2.418   6.040   4.801 -0.9277 -0.5825 -1.1408
 3471SOL    HW211234   2.385   5.991   4.954  1.0840 -0.8561 -0.7620
 3472SOL     OW11235   3.350   2.694   5.800  0.0322  0.3296  0.1599
 3472SOL    HW111236   3.407   2.775   5.817 -0.9591  0.7756  1.6110
 3472SOL    HW211237   3.407   2.618   5.773  1.0423  1.3997 -0.8253
 3473SOL     OW11238   3.903   1.137   3.891 -0.3542 -0.3585 -0.2428
 3473SOL    HW111239   3.938   1.176   3.976 -0.7632 -1.0872  0.2624
 3473SOL    HW211240   3.980   1.115   3.831 -0.0078 -0.7740  0.3448
 3474SOL     OW11241   2.801   1.956   5.173  0.1310  0.3369  0.0537
 3474SOL    HW111242   2.753   1.926   5.090 -2.7086  1.5725  1.1207
 3474SOL    HW211243   2.812   2.056   5.170 -1.4684  0.6175  1.7789
 3475SOL     OW11244   2.076   1.931   2.172 -0.1100  0.3566 -0.0113
 3475SOL    HW111245   1.980   1.939   2.147 -0.3674  0.3083  0.9451
 3475SOL    HW211246   2.115   1.849   2.131 -0.3569  0.5965 -0.7463
 3476SOL     OW11247   2.748   1.599   5.476  0.4942 -0.4286  0.4764
 3476SOL    HW111248   2.674   1.624   5.412 -0.1716 -2.6124  0.3105
 3476SOL    HW211249   2.831   1.579   5.424  1.1089  1.5241  0.6277
 3477SOL     OW11250   4.941   3.828   6.475 -0.0913 -0.0850  0.5960
 3477SOL    HW111251   4.866   3.871   6.425  0.7380 -2.0774 -2.7421
 3477SOL    HW211252   4.990   3.897   6.528 -1.6078  2.1016 -0.6670
 3478SOL     OW11253   5.132   2.222   2.649 -0.4320 -0.1561 -0.0866
 3478SOL    HW111254   5.228   2.246   2.639 -1.0256  1.7501 -1.6897
 3478SOL    HW211255   5.091   2.206   2.559 -1.9665  0.5845  0.4381
 3479SOL     OW11256   2.412   0.005   5.178  0.0056 -0.0671 -0.3922
 3479SOL    HW111257   2.414   0.031   5.274 -1.2116  1.8893 -0.8392
 3479SOL    HW211258   2.505  -0.016   5.147  0.4044 -0.7903  1.1963
 3480SOL     OW11259   1.374   0.389   4.888 -0.1754  0.4018 -0.0752
 3480SOL    HW111260   1.305   0.332   4.931 -0.5999  1.7757  1.1177
 3480SOL    HW211261   1.355   0.395   4.790 -0.9799 -0.2853  0.0247
 3481SOL     OW11262   2.161   2.419   6.321 -0.2241 -0.4327 -0.4129
 3481SOL    HW111263   2.217   2.336   6.319  1.1189  0.3855  1.0535
 3481SOL    HW211264   2.065   2.393   6.325  0.1297 -1.9082 -0.6959
 3482SOL     OW11265   0.551   6.512   0.079  0.0348 -0.0717 -0.4096
 3482SOL    HW111266   0.513   6.531   0.169 -0.2786 -0.0814 -0.5383
 3482SOL    HW211267   0.480   6.524   0.009  0.7591  1.8716 -0.8725
 3483SOL     OW11268   0.899   0.027   2.792  0.2206 -0.0546 -1.1872
 3483SOL    HW111269   0.958  -0.016   2.723  3.7254  2.5031 -0.0726
 3483SOL    HW211270   0.941   0.017   2.882 -1.9041  0.6095 -0.0552
 3484SOL     OW11271   5.199   3.937   1.335  0.3064  0.0971  0.3921
 3484SOL    HW111272   5.248   3.936   1.248 -1.6326 -0.2302 -0.7701
 3484SOL    HW211273   5.116   3.882   1.326 -0.2692  0.5979  2.2669
 3485SOL     OW11274   4.258   3.085   1.760 -0.9285  0.6377 -0.0681
 3485SOL    HW111275   4.214   3.016   1.702  0.7990  0.1912 -0.9292
 3485SOL    HW211276   4.326   3.135   1.705  0.1440  0.8015  1.3664
 3486SOL     OW11277   1.775   2.728   4.777 -0.4669  0.3875 -0.0604
 3486SOL    HW111278   1.835   2.792   4.825 -0.2487  1.7590 -2.0240
 3486SOL    HW211279   1.813   2.710   4.686 -0.9058 -2.0286  0.1876
 3487SOL     OW11280   5.257   4.282   3.603 -0.4314 -0.0305  0.1428
 3487SOL    HW111281   5.275   4.226   3.684 -2.0371  2.4650  2.3816
 3487SOL    HW211282   5.160   4.276   3.579 -0.0757 -0.3279 -1.3220
 3488SOL     OW11283   1.559   5.889   2.033 -0.2547 -0.1721  0.3559
 3488SOL    HW111284   1.615   5.823   2.082  0.0086 -0.3300 -0.1465
 3488SOL    HW211285   1.487   5.923   2.092  0.8814  0.6809  1.3115
 3489SOL     OW11286   2.845   1.919   6.826  0.1053 -0.3307  0.0182
 3489SOL    HW111287   2.767   1.913   6.887  0.0844  0.5849  0.0943
 3489SOL    HW211288   2.867   1.828   6.790 -0.6249 -0.6805  0.4486
 3490SOL     OW11289   4.014   4.660   1.652  0.1775 -0.3383  0.3208
 3490SOL    HW111290   4.047   4.574   1.689  1.8095  0.2965  0.4250
 3490SOL    HW211291   4.090   4.723   1.641 -0.9920  1.1501  0.3755
 3491SOL     OW11292   0.643   6.538   4.252  0.2569  0.0719  0.1287
 3491SOL    HW111293   0.742   6.551   4.259  0.2387  0.1701  0.2166
 3491SOL    HW211294   0.605   6.520   4.343  0.3387 -1.0456 -0.0501
 3492SOL     OW11295   1.438   2.163   5.266 -0.1320  0.7450 -0.3033
 3492SOL    HW111296   1.369   2.176   5.195 -1.5629 -0.2012  0.8285
 3492SOL    HW211297   1.393   2.131   5.349  1.7765 -0.5753  0.2804
 3493SOL     OW11298   6.635   0.866   0.196  0.3163 -0.2941 -0.3202
 3493SOL    HW111299   6.581   0.928   0.253 -0.0530 -0.3535 -0.6073
 3493SOL    HW211300   6.669   0.915   0.116 -1.2528 -0.8299 -1.3521
 3494SOL     OW11301   6.653   5.629   3.226 -0.3866  0.1091  0.3450
 3494SOL    HW111302   6.664   5.686   3.144  1.2106  0.3066  0.6624
 3494SOL    HW211303   6.651   5.533   3.200  2.7000  0.0056  0.2093
 3495SOL     OW11304   3.816   0.180   0.756 -0.6873  0.1623 -0.2159
 3495SOL    HW111305   3.760   0.153   0.678 -1.9279  2.8092 -0.3719
 3495SOL    HW211306   3.904   0.133   0.752 -1.5044 -1.3295 -2.0336
 3496SOL     OW11307   5.563   0.703   6.841 -0.4797 -0.5223  0.1803
 3496SOL    HW111308   5.542   0.761   6.919 -0.9698 -0.0386 -0.2987
 3496SOL    HW211309   5.609   0.758   6.770  2.6179 -1.5484  1.2193
 3497SOL     OW11310   5.938   3.019   5.225  0.0001  0.0649 -0.0105
 3497SOL    HW111311   5.921   3.117   5.228  0.3650  0.1107  0.7607
 3497SOL    HW211312   5.956   2.985   5.317 -0.7645 -0.8431 -0.1704
 3498SOL     OW11313   6.229   1.840   2.262  0.2470  0.8747  0.2580
 3498SOL    HW111314   6.281   1.803   2.185  0.2576 -0.3495  0.8364
 3498SOL    HW211315   6.264   1.801   2.347 -1.3241  0.3633  0.6949
 3499SOL     OW11316   5.333   3.067   2.993  0.1876  0.2779  0.2105
 3499SOL    HW111317   5.328   3.051   2.894 -2.4340  1.5943  0.0503
 3499SOL    HW211318   5.397   3.141   3.011 -0.1847  0.8347 -0.6494
 3500SOL     OW11319   6.662   5.352   1.676  0.5143  0.1416  0.8662
 3500SOL    HW111320   6.593   5.280   1.672 -0.3407  1.0102 -1.8254
 3500SOL    HW211321   6.617   5.440   1.687  1.3935  0.5139  1.6010
 3501SOL     OW11322   3.553   0.199   4.777 -0.2330 -0.1988 -0.0610
 3501SOL    HW111323   3.514   0.195   4.685 -0.1624  0.2345 -0.1143
 3501SOL    HW211324   3.481   0.183   4.845 -0.4893  0.4480 -0.1645
 3502SOL     OW11325   5.633   5.898   2.207  0.3530 -0.0092  0.4650
 3502SOL    HW111326   5.569   5.928   2.137  0.5511  0.3543  0.4402
 3502SOL    HW211327   5.595   5.917   2.298  0.2430 -0.1781  0.4553
 3503SOL     OW11328   5.114   2.241   6.907 -0.7416  0.0529 -0.2753
 3503SOL    HW111329   5.191   2.285   6.862 -0.3288 -0.6788 -0.3090
 3503SOL    HW211330   5.079   2.166   6.850  0.6860 -1.8108  1.1499
 3504SOL     OW11331   4.795   0.341   4.416  0.9618 -0.5943  0.4081
 3504SOL    HW111332   4.695   0.340   4.418  0.8951  1.5850  0.5549
 3504SOL    HW211333   4.831   0.275   4.483 -0.4257  0.9699  2.8303
 3505SOL     OW11334   4.396   5.347   2.256  0.4350 -0.1019 -0.8139
 3505SOL    HW111335   4.469   5.293   2.298  1.7133  1.6614 -0.6564
 3505SOL    HW211336   4.308   5.312   2.287  1.2529 -1.0678  0.5668
 3506SOL     OW11337   0.152   2.506   2.912 -0.3540 -0.4546  0.0152
 3506SOL    HW111338   0.115   2.574   2.849 -0.2593  0.0658  0.5095
 3506SOL    HW211339   0.078   2.450   2.949 -0.1651 -2.6780 -2.6967
 3507SOL     OW11340   1.321   5.857   3.344  0.3061  0.0418 -0.2226
 3507SOL    HW111341   1.383   5.930   3.317  0.1024  0.1374 -0.4277
 3507SOL    HW211342   1.244   5.852   3.280 -2.2636  2.7890  2.3321
 3508SOL     OW11343   5.017   6.069   3.692  0.1393  0.4470  0.3244
 3508SOL    HW111344   5.056   5.999   3.632 -1.4244  0.4510 -0.7630
 3508SOL    HW211345   5.030   6.159   3.651 -2.2282  0.3367 -0.8525
 3509SOL     OW11346   3.475   1.687   0.381  0.0261  0.2652  0.5755
 3509SOL    HW111347   3.544   1.623   0.347 -0.3625 -0.5887  1.3515
 3509SOL    HW211348   3.384   1.649   0.365 -0.1783 -0.2403  2.6527
 3510SOL     OW11349   4.393   6.543   6.043 -0.2017 -0.2843 -0.0718
 3510SOL    HW111350   4.446   6.618   6.083 -2.5443  0.6629  1.4852
 3510SOL    HW211351   4.376   6.562   5.946  2.0391 -0.5443 -0.5822
 3511SOL     OW11352   3.868   0.265   0.222 -0.7700  0.4976 -0.3122
 3511SOL    HW111353   3.915   0.353   0.211 -0.1800  0.2431  0.0698
 3511SOL    HW211354   3.772   0.281   0.245 -0.4300  1.0647  0.7827
 3512SOL     OW11355   1.617   5.245   4.927 -0.1832  0.3246  0.3906
 3512SOL    HW111356   1.700   5.191   4.943 -1.1403 -1.4105 -0.3139
 3512SOL    HW211357   1.626   5.296   4.841 -0.6980 -1.6551 -0.8904
 3513SOL     OW11358   5.141   6.956   3.176 -0.0598  0.5992  0.0139
 3513SOL    HW111359   5.082   6.958   3.257  0.3242 -0.7654  0.3643
 3513SOL    HW211360   5.087   6.934   3.095 -0.2333  0.5880  0.1329
 3514SOL     OW11361   4.240   4.794   0.581 -0.0942 -0.0716  0.0781
 3514SOL    HW111362   4.199   4.777   0.671 -0.1499  0.0515  0.0761
 3514SOL    HW211363   4.237   4.892   0.561  0.4023 -0.0351  0.1738
 3515SOL     OW11364   0.762   5.517   3.678 -0.4170 -0.1625 -0.2611
 3515SOL    HW111365   0.797   5.572   3.602 -0.6523 -0.7819 -0.8308
 3515SOL    HW211366   0.837   5.495   3.741  0.0587 -0.7745 -1.0275
 3516SOL     OW11367   2.478   2.412   3.352 -0.3252 -0.1619  0.2664
 3516SOL    HW111368   2.425   2.487   3.313 -1.8673 -1.4814 -0.2922
 3516SOL    HW211369   2.457   2.403   3.449  1.2938  1.2612  0.8067
 3517SOL     OW11370   3.632   3.507   2.280 -0.2720  0.3510  0.1346
 3517SOL    HW111371   3.701   3.441   2.309  1.5506  2.2637  0.3489
 3517SOL    HW211372   3.577   3.534   2.359  0.3509  0.6438  0.4730
 3518SOL     OW11373   0.436   2.479   1.994  0.3075 -0.1056 -0.6824
 3518SOL    HW111374   0.507   2.516   2.053 -0.8647 -0.1180  0.7874
 3518SOL    HW211375   0.387   2.407   2.043 -0.6504 -0.1682 -1.7057
 3519SOL     OW11376   1.009   4.620   4.829 -0.8085  0.0684 -0.0694
 3519SOL    HW111377   0.924   4.640   4.879 -0.0097 -1.9394  2.3183
 3519SOL    HW211378   1.004   4.529   4.788  0.2994 -0.2539  0.4533
 3520SOL     OW11379   5.601   3.254   1.675  0.5362  0.0623 -0.2503
 3520SOL    HW111380   5.597   3.338   1.728 -0.8304  0.0038 -0.2280
 3520SOL    HW211381   5.523   3.196   1.698  2.0766 -1.7585  0.6044
 3521SOL     OW11382   2.024   4.241   6.288 -0.0843  0.8065  0.0305
 3521SOL    HW111383   2.087   4.315   6.311 -1.3301  1.6472  0.9006
 3521SOL    HW211384   1.968   4.218   6.368 -1.7380  0.9837 -1.0125
 3522SOL     OW11385   6.661   0.280   0.063 -0.3284 -0.2936 -0.0287
 3522SOL    HW111386   6.684   0.182   0.060  0.3402 -0.1562  0.4523
 3522SOL    HW211387   6.563   0.290   0.077 -0.3416 -0.9038  0.3696
 3523SOL     OW11388   4.507   0.310   5.598 -0.2116 -0.8925  0.1510
 3523SOL    HW111389   4.422   0.326   5.549  0.9550  1.4331 -1.3237
 3523SOL    HW211390   4.487   0.281   5.691 -2.6758  1.1101  0.3474
 3524SOL     OW11391   2.349   0.249   0.997  0.4405  0.4227  1.0788
 3524SOL    HW111392   2.341   0.321   1.066  0.7288 -1.8906  3.7493
 3524SOL    HW211393   2.281   0.262   0.926  1.1267  3.7856  0.8873
 3525SOL     OW11394   6.735   6.207   6.785  0.3215 -0.0946 -0.6769
 3525SOL    HW111395   6.729   6.275   6.858  1.8226  0.0808 -0.6834
 3525SOL    HW211396   6.668   6.135   6.801 -0.4917  0.7712 -0.0278
 3526SOL     OW11397   0.281   4.594   6.932  0.5181  0.7525 -0.1605
 3526SOL    HW111398   0.349   4.666   6.943  1.8006 -0.4039 -0.2033
 3526SOL    HW211399   0.310   4.513   6.983 -0.5952  0.0711 -0.5789
 3527SOL     OW11400   6.756   5.983   3.657 -0.2394  0.1391  0.0854
 3527SOL    HW111401   6.732   5.955   3.564  0.1784 -0.8818  0.2658
 3527SOL    HW211402   6.748   5.904   3.718 -0.7331  0.8591  0.9601
 3528SOL     OW11403   2.188   1.416   4.151  0.1837 -0.5865 -0.1607
 3528SOL    HW111404   2.123   1.439   4.224  1.3681  0.8406  0.4801
 3528SOL    HW211405   2.174   1.477   4.074 -0.6228 -1.6657 -0.8924
 3529SOL     OW11406   2.394   6.304   6.362  0.3829 -0.7647 -0.1406
 3529SOL    HW111407   2.350   6.378   6.311  2.2612  0.0159 -0.7247
 3529SOL    HW211408   2.432   6.237   6.298 -1.2967 -2.3053  0.3804
 3530SOL     OW11409   0.230   1.431   2.078 -0.0928  0.0007 -0.0645
 3530SOL    HW111410   0.303   1.467   2.136 -1.5504  1.5015  0.9365
 3530SOL    HW211411   0.225   1.332   2.088  1.9425 -0.1838 -0.3815
 3531SOL     OW11412   6.172   2.024   0.491  0.4127  0.4154  0.0498
 3531SOL    HW111413   6.183   2.034   0.392  0.5573 -1.3133 -0.1395
 3531SOL    HW211414   6.137   1.932   0.511 -2.6304  1.7377  1.4059
 3532SOL     OW11415   1.091   6.920   5.089  0.0752  0.3335 -0.2062
 3532SOL    HW111416   1.107   6.823   5.106 -3.0596 -0.4784 -1.1686
 3532SOL    HW211417   1.171   6.973   5.118  0.5002 -2.1096  3.8538
 3533SOL     OW11418   2.802   1.617   5.113  0.4171 -0.0017 -0.2348
 3533SOL    HW111419   2.721   1.660   5.153 -0.8486 -1.7291 -0.8685
 3533SOL    HW211420   2.811   1.645   5.018 -0.1445 -0.7840 -0.5171
 3534SOL     OW11421   3.243   4.643   5.545  0.0595  0.1840  0.1645
 3534SOL    HW111422   3.150   4.678   5.533  0.5160  1.8248  1.1150
 3534SOL    HW211423   3.264   4.635   5.642  0.5339 -1.3122 -0.0348
 3535SOL     OW11424   4.331   6.804   4.932 -0.1899  0.1904 -0.0427
 3535SOL    HW111425   4.294   6.888   4.972  0.2655 -0.1191  1.0686
 3535SOL    HW211426   4.430   6.800   4.947  0.1244  0.4156 -1.8875
 3536SOL     OW11427   6.249   3.343   4.310  0.7304  0.0424  0.2312
 3536SOL    HW111428   6.290   3.252   4.313  2.1537  0.6854  2.0469
 3536SOL    HW211429   6.321   3.411   4.295 -0.3971  0.8797 -1.8491
 3537SOL     OW11430   5.095   1.941   3.415 -0.1161  0.6731 -0.0675
 3537SOL    HW111431   5.143   1.914   3.332 -1.0800 -0.8425 -0.1631
 3537SOL    HW211432   5.008   1.985   3.392 -1.1908 -1.2609  0.0842
 3538SOL     OW11433   5.511   3.714   0.186 -0.1721 -0.1323 -0.1160
 3538SOL    HW111434   5.412   3.729   0.187 -0.1018  0.3496  0.0104
 3538SOL    HW211435   5.551   3.755   0.268 -0.1365 -2.2585  1.0019
 3539SOL     OW11436   5.361   1.284   2.888  0.1916  0.1151  0.0093
 3539SOL    HW111437   5.440   1.252   2.940 -0.3916  0.3121  1.0346
 3539SOL    HW211438   5.345   1.381   2.908  0.9550  0.6702 -1.8161
 3540SOL     OW11439   0.342   3.072   6.715 -0.0084  0.5546 -0.0783
 3540SOL    HW111440   0.256   3.121   6.722 -0.9325 -1.0644  0.3544
 3540SOL    HW211441   0.409   3.113   6.777 -0.3018  2.1035 -0.7491
 3541SOL     OW11442   4.681   6.490   0.894 -0.4436 -0.0106  0.2910
 3541SOL    HW111443   4.749   6.420   0.873 -0.3666  0.3884 -0.8527
 3541SOL    HW211444   4.718   6.552   0.964  0.5142  0.3810 -0.5370
 3542SOL     OW11445   3.458   1.802   5.420  0.0240 -0.0840 -0.3765
 3542SOL    HW111446   3.492   1.791   5.327  2.2624  0.8928  0.2501
 3542SOL    HW211447   3.359   1.819   5.417  0.0057 -0.2290 -2.5355
 3543SOL     OW11448   2.104   3.483   5.187 -1.3814 -0.6886  0.1379
 3543SOL    HW111449   2.106   3.521   5.095  0.5033 -1.1320 -0.0238
 3543SOL    HW211450   2.145   3.548   5.251 -3.6214  0.0795  0.8972
 3544SOL     OW11451   4.693   2.940   0.655  0.1097 -0.4819 -0.2725
 3544SOL    HW111452   4.649   2.977   0.573 -0.2471  0.0004  0.1301
 3544SOL    HW211453   4.639   2.963   0.736  1.0376  0.0140  0.2266
 3545SOL     OW11454   3.780   0.431   1.680 -0.1493  0.0022  0.4393
 3545SOL    HW111455   3.879   0.439   1.690  0.4360 -3.0921 -1.6501
 3545SOL    HW211456   3.736   0.446   1.769  2.0214  2.3624  1.2366
 3546SOL     OW11457   3.192   2.514   0.083  0.4185 -0.0951 -0.4657
 3546SOL    HW111458   3.238   2.462   0.012  0.0818 -2.6950  1.1074
 3546SOL    HW211459   3.174   2.607   0.050  0.8557 -0.9802 -3.4715
 3547SOL     OW11460   6.138   2.534   2.619  0.1697  0.2106  0.5393
 3547SOL    HW111461   6.204   2.600   2.582  0.3209  1.2260  2.4820
 3547SOL    HW211462   6.052   2.540   2.569  1.1179 -0.2407 -1.2158
 3548SOL     OW11463   6.978   1.880   1.299 -0.3176 -0.0806 -0.0482
 3548SOL    HW111464   6.964   1.880   1.200 -0.2324  0.0879 -0.0603
 3548SOL    HW211465   7.015   1.968   1.328  0.1162 -0.2954  0.0705
 3549SOL     OW11466   6.656   5.078   0.012  0.3538 -0.1277 -0.4946
 3549SOL    HW111467   6.712   5.133   0.074 -1.3372  0.8194  0.2378
 3549SOL    HW211468   6.560   5.086   0.037 -0.4195  0.3517 -3.2655
 3550SOL     OW11469   5.180   0.059   5.385 -1.1589 -0.1794  0.2477
 3550SOL    HW111470   5.179  -0.002   5.306 -0.5999 -1.8166  1.4564
 3550SOL    HW211471   5.232   0.141   5.363 -1.1125 -0.5452 -1.1015
 3551SOL     OW11472   6.556   6.466   6.289 -0.1345  0.4508  0.1283
 3551SOL    HW111473   6.541   6.385   6.231 -0.7383 -0.2863  1.2743
 3551SOL    HW211474   6.564   6.438   6.384  0.7623  1.6570  0.4308
 3552SOL     OW11475   6.308   6.241   1.959  0.1420 -0.9084  0.2693
 3552SOL    HW111476   6.350   6.157   1.926 -0.2264 -1.1136  0.3138
 3552SOL    HW211477   6.211   6.242   1.933  0.1183 -0.5540  0.3695
 3553SOL     OW11478   5.263   6.216   2.826 -0.5110 -0.0218  0.3416
 3553SOL    HW111479   5.309   6.280   2.765 -0.0609 -1.4197 -0.8437
 3553SOL    HW211480   5.178   6.185   2.784 -0.4950 -0.5488  0.6867
 3554SOL     OW11481   5.412   0.838   3.130  0.0781 -0.0439  0.3599
 3554SOL    HW111482   5.372   0.797   3.212 -3.8924  3.0851  0.3139
 3554SOL    HW211483   5.408   0.772   3.055 -3.3073 -0.7063  0.9553
 3555SOL     OW11484   0.770   3.369   5.568 -0.1856  0.3285  0.6584
 3555SOL    HW111485   0.677   3.395   5.593  0.4309  2.1723  1.2085
 3555SOL    HW211486   0.778   3.365   5.468 -0.8694  0.0924  0.6093
 3556SOL     OW11487   5.148   3.249   6.357 -0.3631 -0.0974 -0.4183
 3556SOL    HW111488   5.056   3.259   6.396 -0.2071 -1.5919  0.3818
 3556SOL    HW211489   5.161   3.156   6.324  0.9604  0.0268 -0.3072
 3557SOL     OW11490   0.622   6.632   6.522 -0.4950  0.0573 -0.1212
 3557SOL    HW111491   0.690   6.621   6.451 -0.0180  0.0545  0.3304
 3557SOL    HW211492   0.575   6.720   6.512  0.0548  0.3642 -0.0282
 3558SOL     OW11493   4.379   0.846   6.405 -0.1216  0.4700  0.2852
 3558SOL    HW111494   4.424   0.789   6.336 -0.7854  0.6732 -0.3260
 3558SOL    HW211495   4.424   0.834   6.493 -0.8165 -1.7420  0.4017
 3559SOL     OW11496   5.577   3.453   1.375  0.2084  0.3695  0.1206
 3559SOL    HW111497   5.499   3.392   1.383  0.5423 -0.3745 -1.8484
 3559SOL    HW211498   5.548   3.538   1.331  0.0208  1.1403  1.6681
 3560SOL     OW11499   6.103   5.063   6.110  0.1914 -0.2492  0.0516
 3560SOL    HW111500   6.189   5.100   6.075 -1.4373  1.4162 -2.4823
 3560SOL    HW211501   6.056   5.132   6.165 -1.0296  0.1253 -1.3941
 3561SOL     OW11502   6.769   4.662   1.571 -0.0085  0.5229  0.1498
 3561SOL    HW111503   6.845   4.653   1.636 -0.6209  1.4187  1.0100
 3561SOL    HW211504   6.684   4.633   1.615 -0.4166  1.0139 -0.3010
 3562SOL     OW11505   3.344   3.506   4.054  0.2534  0.8927 -0.1195
 3562SOL    HW111506   3.341   3.559   4.139  0.3924 -2.2670  2.0086
 3562SOL    HW211507   3.262   3.525   4.000 -0.1092  2.5657  0.9520
 3563SOL     OW11508   2.311   2.744   3.632 -0.0170  0.1356  0.1393
 3563SOL    HW111509   2.276   2.758   3.539 -0.2929  0.3120  0.2683
 3563SOL    HW211510   2.330   2.646   3.646 -1.8170 -0.1861  0.5374
 3564SOL     OW11511   2.609   4.544   4.031 -0.6452 -0.0624 -0.0228
 3564SOL    HW111512   2.599   4.577   3.938  0.6227  1.8572  0.4657
 3564SOL    HW211513   2.671   4.465   4.033  1.5283  1.5483 -0.5532
 3565SOL     OW11514   3.737   1.372   2.107 -0.1128 -0.4461 -0.4827
 3565SOL    HW111515   3.802   1.448   2.111 -0.3576 -0.2911  1.7820
 3565SOL    HW211516   3.644   1.407   2.107 -0.2222 -0.7260 -0.0753
 3566SOL     OW11517   1.859   3.760   6.107 -0.2381 -0.4713  0.3318
 3566SOL    HW111518   1.784   3.819   6.137  0.8838  2.0908 -1.5888
 3566SOL    HW211519   1.933   3.763   6.173 -0.6344 -0.6901  0.7955
 3567SOL     OW11520   3.768   6.451   4.974  0.3790 -0.1685 -0.0141
 3567SOL    HW111521   3.679   6.475   4.937  0.7004 -0.8801 -1.3254
 3567SOL    HW211522   3.771   6.352   4.992  0.6587 -0.0304  0.7354
 3568SOL     OW11523   1.078   6.725   0.972  0.3610  0.2314 -0.0777
 3568SOL    HW111524   1.037   6.723   1.064 -1.0473 -0.8441 -0.6800
 3568SOL    HW211525   1.006   6.713   0.904  1.3416  1.3863 -1.3647
 3569SOL     OW11526   4.914   5.051   1.374 -0.6563  0.6336  0.3371
 3569SOL    HW111527   4.939   4.966   1.327  0.2307  0.8829  0.3419
 3569SOL    HW211528   4.995   5.109   1.384 -1.4386  1.9435 -0.5726
 3570SOL     OW11529   5.613   1.941   1.407 -0.1951 -0.4082 -0.3432
 3570SOL    HW111530   5.665   2.026   1.416 -1.6327  0.7489 -2.2911
 3570SOL    HW211531   5.666   1.865   1.445  1.6946  1.1344  0.2313
 3571SOL     OW11532   4.308   6.832   5.414 -0.8936  0.4051  0.1002
 3571SOL    HW111533   4.379   6.863   5.477  0.4672 -2.5279  0.1907
 3571SOL    HW211534   4.298   6.898   5.340  2.0736  0.8701  0.0050
 3572SOL     OW11535   0.322   3.868   0.600  0.4075 -0.2190  0.0265
 3572SOL    HW111536   0.368   3.842   0.515  1.5193  1.4345  0.0984
 3572SOL    HW211537   0.368   3.825   0.677 -0.0646 -1.0052 -0.1125
 3573SOL     OW11538   0.887   2.992   0.451 -0.4089 -0.3456  0.2347
 3573SOL    HW111539   0.909   2.978   0.354  1.0325  0.7528  0.3658
 3573SOL    HW211540   0.954   2.944   0.507 -0.3870  0.1938  0.6780
 3574SOL     OW11541   0.919   2.943   2.459 -0.3258 -0.5410  0.4532
 3574SOL    HW111542   0.851   2.886   2.412 -1.2833 -0.5523  1.8100
 3574SOL    HW211543   0.948   3.016   2.397 -0.6938 -1.2166 -0.5580
 3575SOL     OW11544   2.214   5.996   3.912 -0.2289 -0.2002 -0.0749
 3575SOL    HW111545   2.196   6.030   4.005 -0.4159 -0.9901  0.1855
 3575SOL    HW211546   2.312   5.994   3.896 -0.2158  0.5091 -0.1159
 3576SOL     OW11547   3.163   1.327   4.643 -0.0815  0.0381  0.7182
 3576SOL    HW111548   3.196   1.269   4.569 -1.5897 -0.6393  0.5496
 3576SOL    HW211549   3.139   1.417   4.607  1.9056  0.7062  0.9188
 3577SOL     OW11550   2.285   5.116   0.819  0.1522 -0.6414 -0.5027
 3577SOL    HW111551   2.326   5.038   0.771  1.4081  0.2071 -0.8552
 3577SOL    HW211552   2.204   5.146   0.771  1.5416  0.3728 -2.3213
 3578SOL     OW11553   6.209   4.414   6.300 -0.1073 -0.0529  0.0167
 3578SOL    HW111554   6.216   4.501   6.252  0.5840 -0.9563 -1.6192
 3578SOL    HW211555   6.115   4.381   6.295 -0.8010  1.3575  2.1667
 3579SOL     OW11556   5.345   6.050   1.716  0.3617  0.3035  0.0263
 3579SOL    HW111557   5.436   6.020   1.743  2.4535  1.6521 -4.5303
 3579SOL    HW211558   5.286   5.970   1.700  0.7184 -0.5860  2.7198
 3580SOL     OW11559   0.645   2.890   0.118 -0.5188 -0.5820  0.1876
 3580SOL    HW111560   0.561   2.840   0.100 -0.4551 -0.4987 -0.3598
 3580SOL    HW211561   0.642   2.929   0.210 -1.5860  0.4399 -0.2565
 3581SOL     OW11562   6.919   5.818   2.457  0.1014 -0.2910 -0.0086
 3581SOL    HW111563   6.906   5.913   2.485  0.4775 -0.0317 -0.6849
 3581SOL    HW211564   6.844   5.762   2.492 -0.8638  0.5049 -0.7611
 3582SOL     OW11565   4.444   4.689   6.286 -0.1521  1.0242  0.0330
 3582SOL    HW111566   4.446   4.782   6.321 -0.3384 -0.4850  4.6270
 3582SOL    HW211567   4.352   4.669   6.251 -0.7405  1.9409  0.9881
 3583SOL     OW11568   5.789   0.398   0.218 -1.2016 -0.1654 -0.1463
 3583SOL    HW111569   5.770   0.300   0.221  4.2399 -1.5419 -0.9088
 3583SOL    HW211570   5.789   0.429   0.123 -0.0291 -0.2158 -0.1773
 3584SOL     OW11571   0.717   3.335   0.129  0.6830  0.5776  0.2414
 3584SOL    HW111572   0.710   3.430   0.157  0.4987  0.2204  1.4574
 3584SOL    HW211573   0.779   3.286   0.190  0.4938 -0.1635 -0.1419
 3585SOL     OW11574   5.404   2.729   6.239 -0.0278 -0.1332  0.3383
 3585SOL    HW111575   5.358   2.649   6.200 -1.8497  0.8873  0.2966
 3585SOL    HW211576   5.477   2.698   6.301 -0.1608 -1.7978 -0.2774
 3586SOL     OW11577   1.380   0.427   4.373  0.4055 -0.0512 -0.3196
 3586SOL    HW111578   1.454   0.366   4.345 -0.2662 -0.4900 -1.1598
 3586SOL    HW211579   1.384   0.511   4.320  0.8737  0.3470  0.3179
 3587SOL     OW11580   0.321   4.410   3.133  0.2371 -1.0526 -0.4710
 3587SOL    HW111581   0.272   4.427   3.048 -0.2619 -1.2421 -0.2250
 3587SOL    HW211582   0.256   4.406   3.209  0.6725 -0.9365 -0.0883
 3588SOL     OW11583   0.847   6.938   1.499 -0.3583  0.6743 -0.5643
 3588SOL    HW111584   0.857   7.025   1.450 -1.8274  0.4505 -1.3333
 3588SOL    HW211585   0.761   6.894   1.472 -0.1955 -0.4845  0.6670
 3589SOL     OW11586   6.551   2.444   6.608 -0.2112  0.9279  0.0433
 3589SOL    HW111587   6.471   2.405   6.563  1.5888 -0.2731 -2.3462
 3589SOL    HW211588   6.562   2.404   6.699 -1.9138  0.6041  0.1295
 3590SOL     OW11589   6.848   0.059   0.279  0.5644  0.3533  0.6846
 3590SOL    HW111590   6.811   0.033   0.190  1.0422  1.8208  0.0295
 3590SOL    HW211591   6.945   0.037   0.283  0.6471  0.7163  0.6733
 3591SOL     OW11592   6.907   6.814   1.254  0.3910  0.5037  0.7282
 3591SOL    HW111593   6.936   6.798   1.348 -0.8057  0.3036  1.0770
 3591SOL    HW211594   6.848   6.739   1.224 -1.0031  1.6351  0.5761
 3592SOL     OW11595   3.012   4.239   0.543 -0.3270 -0.1520  0.3738
 3592SOL    HW111596   2.913   4.254   0.538 -0.2570  0.0026 -0.7082
 3592SOL    HW211597   3.058   4.300   0.480  0.5348  0.3153  1.4281
 3593SOL     OW11598   2.282   6.769   6.973  0.2718  0.2355 -0.3195
 3593SOL    HW111599   2.309   6.810   7.060  1.0552 -1.3523  0.2206
 3593SOL    HW211600   2.307   6.831   6.898  1.0687  0.9120  0.4819
 3594SOL     OW11601   1.384   3.324   0.385  0.1147  0.0943  0.4757
 3594SOL    HW111602   1.385   3.224   0.388  1.9734 -0.1040 -2.4403
 3594SOL    HW211603   1.290   3.356   0.385 -0.5136 -1.6154  1.6968
 3595SOL     OW11604   0.626   0.730   0.095  0.6000 -0.0256 -0.3167
 3595SOL    HW111605   0.666   0.658   0.038  0.9077  1.4051 -1.9858
 3595SOL    HW211606   0.561   0.690   0.159 -0.2765 -1.6525 -2.1232
 3596SOL     OW11607   2.077   6.962   6.574  0.3734  0.2067 -0.1449
 3596SOL    HW111608   2.074   6.948   6.672 -2.5421 -1.3587 -0.3329
 3596SOL    HW211609   2.068   7.059   6.553 -0.0148  0.4549  1.1370
 3597SOL     OW11610   4.508   2.908   5.972 -0.4047 -0.5992 -0.3919
 3597SOL    HW111611   4.458   2.824   5.991 -0.6578 -0.2810  0.3888
 3597SOL    HW211612   4.449   2.987   5.987 -0.0777 -0.2650 -0.8151
 3598SOL     OW11613   3.707   3.143   6.008 -0.2595  0.1380  0.2783
 3598SOL    HW111614   3.802   3.174   6.014 -0.0991  0.3269 -2.0291
 3598SOL    HW211615   3.649   3.200   6.067  1.0871 -0.3004  2.1058
 3599SOL     OW11616   4.502   5.128   2.359 -0.2379  0.0126 -0.1745
 3599SOL    HW111617   4.488   5.106   2.262  0.2735 -1.6342  0.0988
 3599SOL    HW211618   4.430   5.086   2.414  0.6337 -0.8262  0.3529
 3600SOL     OW11619   2.665   5.907   3.363 -0.0168  0.1277  0.4953
 3600SOL    HW111620   2.649   5.956   3.278 -1.9098  0.1417  0.8074
 3600SOL    HW211621   2.704   5.970   3.431  1.1378  0.2092 -0.2152
 3601SOL     OW11622   0.783   1.336   3.703  0.2969 -0.7365  0.0013
 3601SOL    HW111623   0.711   1.396   3.668  0.5746 -0.3179  0.1240
 3601SOL    HW211624   0.743   1.264   3.759  0.1062  0.9532  2.2133
 3602SOL     OW11625   2.439   5.295   1.737  0.0526  0.0128 -0.3995
 3602SOL    HW111626   2.359   5.264   1.686 -1.5321  0.7927  1.4980
 3602SOL    HW211627   2.429   5.392   1.759  2.1446  0.4670 -1.1686
 3603SOL     OW11628   0.551   3.964   2.574 -0.4987  0.3921 -0.3519
 3603SOL    HW111629   0.587   4.057   2.581 -0.3211  0.2006  2.5180
 3603SOL    HW211630   0.616   3.900   2.615 -1.5570 -0.7238 -0.3535
 3604SOL     OW11631   0.985   6.706   4.703 -0.3077 -0.2486 -0.4398
 3604SOL    HW111632   0.893   6.694   4.738  0.4410 -1.4887  1.2198
 3604SOL    HW211633   1.018   6.621   4.662  0.8207 -0.4703  0.8526
 3605SOL     OW11634   4.298   0.010   3.372 -0.1395 -0.1326 -0.1395
 3605SOL    HW111635   4.293   0.108   3.391 -1.7497  0.1046 -1.5331
 3605SOL    HW211636   4.256  -0.041   3.447 -1.1652  0.3948 -0.3347
 3606SOL     OW11637   0.999   2.600   2.074  0.0324  0.0974 -0.1664
 3606SOL    HW111638   0.955   2.687   2.053  2.2057  1.4169  0.4158
 3606SOL    HW211639   1.097   2.615   2.090  1.1785 -2.8886 -3.1799
 3607SOL     OW11640   4.361   0.264   2.250 -0.7436  0.5419  0.3325
 3607SOL    HW111641   4.315   0.231   2.332 -1.1302  0.4856  0.0973
 3607SOL    HW211642   4.315   0.227   2.169 -1.1096  1.5373  0.0633
 3608SOL     OW11643   0.724   5.487   3.299 -0.0640 -0.0833  0.6009
 3608SOL    HW111644   0.816   5.526   3.289  0.6358 -1.5773  0.9402
 3608SOL    HW211645   0.723   5.423   3.375 -1.8630  1.1517  1.7028
 3609SOL     OW11646   2.224   0.013   4.515 -0.6167  0.3224  0.1625
 3609SOL    HW111647   2.282  -0.012   4.592 -0.4824  4.1452  1.5069
 3609SOL    HW211648   2.279   0.062   4.447 -1.8210  2.4186  0.6247
 3610SOL     OW11649   2.628   4.917   4.472 -0.0500  0.3685 -0.0803
 3610SOL    HW111650   2.665   4.826   4.489 -1.3473  0.0758  1.3619
 3610SOL    HW211651   2.575   4.916   4.387  0.8853  0.0894 -0.6727
 3611SOL     OW11652   2.718   3.855   0.668  0.1060 -0.2008 -0.9315
 3611SOL    HW111653   2.727   3.770   0.720 -1.2240  1.0228  1.4705
 3611SOL    HW211654   2.804   3.907   0.674  0.4736 -0.7548 -1.2828
 3612SOL     OW11655   2.801   2.239   3.135  0.0205  0.3075  0.4815
 3612SOL    HW111656   2.718   2.202   3.176  0.5566 -1.5793 -0.0441
 3612SOL    HW211657   2.874   2.240   3.203  0.4372 -1.1865  0.0953
 3613SOL     OW11658   4.060   3.281   2.895 -0.1005 -0.1830 -0.2518
 3613SOL    HW111659   4.047   3.372   2.935  1.6405 -0.3769  0.8691
 3613SOL    HW211660   4.149   3.245   2.923 -1.0580 -2.5651 -0.0231
 3614SOL     OW11661   5.417   1.380   1.728  0.5985  0.5837  0.3500
 3614SOL    HW111662   5.360   1.334   1.660  2.5944 -2.8378  0.7457
 3614SOL    HW211663   5.388   1.354   1.820  2.1896 -0.6224  0.5655
 3615SOL     OW11664   5.292   1.547   5.102 -0.0829  0.0040  0.0917
 3615SOL    HW111665   5.265   1.638   5.072 -1.2510 -0.3938 -0.0818
 3615SOL    HW211666   5.284   1.482   5.026 -0.6026 -0.5122  0.5748
 3616SOL     OW11667   5.781   1.139   4.251 -0.1470  0.2388  0.3608
 3616SOL    HW111668   5.881   1.142   4.244 -0.1110 -0.6926  0.3901
 3616SOL    HW211669   5.752   1.047   4.274 -0.9740  0.7090  1.2469
 3617SOL     OW11670   6.918   5.654   6.753  0.2525 -0.0571  0.7632
 3617SOL    HW111671   6.875   5.627   6.667  0.5313  0.9330  0.2971
 3617SOL    HW211672   6.957   5.574   6.798  2.0506 -0.3135 -1.1105
 3618SOL     OW11673   4.931   0.780   5.075  0.5731 -0.4874  0.0903
 3618SOL    HW111674   4.963   0.869   5.044  0.6650 -0.4959  0.1602
 3618SOL    HW211675   4.928   0.716   4.998  1.5118 -0.7184  0.2349
 3619SOL     OW11676   5.207   0.962   2.328 -0.1339  0.5121 -0.2731
 3619SOL    HW111677   5.184   0.874   2.369 -0.1875 -0.5629 -2.4662
 3619SOL    HW211678   5.165   1.036   2.381 -2.2147 -0.9213  0.1836
 3620SOL     OW11679   2.570   4.044   5.279 -0.7766 -0.3710  0.0740
 3620SOL    HW111680   2.570   4.115   5.209 -1.2866 -0.2588  0.1817
 3620SOL    HW211681   2.562   4.086   5.369 -1.0451 -0.5591  0.1407
 3621SOL     OW11682   5.130   0.387   3.063  0.8203  0.4836 -0.3600
 3621SOL    HW111683   5.165   0.402   3.156  0.9336 -0.0968 -0.3043
 3621SOL    HW211684   5.030   0.390   3.065  0.8303  0.7491 -0.2672
 3622SOL     OW11685   4.378   6.089   0.475 -0.4739  0.0960  0.0768
 3622SOL    HW111686   4.325   6.174   0.475  0.0942  0.5024  2.3175
 3622SOL    HW211687   4.321   6.014   0.506 -1.2274 -0.6134 -2.6987
 3623SOL     OW11688   6.726   1.411   1.240 -0.4094 -0.2476 -0.6280
 3623SOL    HW111689   6.721   1.322   1.286  1.7153 -0.9932 -1.6911
 3623SOL    HW211690   6.777   1.475   1.297  1.1820 -0.8151 -1.3724
 3624SOL     OW11691   1.144   6.986   0.856  0.1020 -0.6599  0.1066
 3624SOL    HW111692   1.063   6.961   0.803  0.1543 -0.7995  0.0930
 3624SOL    HW211693   1.134   6.951   0.949  0.0710 -0.5303  0.1534
 3625SOL     OW11694   5.692   5.916   2.500  0.1542  0.0315  0.4273
 3625SOL    HW111695   5.698   5.995   2.562  1.8456  0.7263 -0.5485
 3625SOL    HW211696   5.774   5.859   2.512 -1.1207 -1.7420  1.2537
 3626SOL     OW11697   2.067   3.322   1.783 -0.3718 -0.1015 -0.1803
 3626SOL    HW111698   1.972   3.334   1.754 -0.4675 -1.3575 -0.4527
 3626SOL    HW211699   2.091   3.225   1.779  0.1387 -0.1396  2.3322
 3627SOL     OW11700   2.026   6.961   3.459  0.3215  0.5149  0.4855
 3627SOL    HW111701   1.995   6.893   3.393 -1.1655 -1.0518  2.6553
 3627SOL    HW211702   1.968   7.042   3.453  0.8876  0.8549 -0.8029
 3628SOL     OW11703   3.231   1.393   5.474  0.3032 -0.2215 -0.2124
 3628SOL    HW111704   3.238   1.293   5.473  0.9501 -0.2306 -2.9132
 3628SOL    HW211705   3.320   1.432   5.498 -0.3765 -0.2168  2.6115
 3629SOL     OW11706   5.238   3.726   1.970  0.0070 -0.3849 -0.2697
 3629SOL    HW111707   5.182   3.686   2.043 -2.2393  1.0045 -1.1006
 3629SOL    HW211708   5.312   3.779   2.010  1.1746 -2.7469  0.8782
 3630SOL     OW11709   1.303   3.414   1.047 -0.0334  0.3405  0.4076
 3630SOL    HW111710   1.208   3.382   1.037 -0.0990  0.0120  1.9699
 3630SOL    HW211711   1.349   3.361   1.117  1.7978 -0.4759 -1.3255
 3631SOL     OW11712   6.243   0.617   5.226  0.2556 -0.0675 -0.8183
 3631SOL    HW111713   6.192   0.697   5.195 -0.3860 -1.1287 -2.6694
 3631SOL    HW211714   6.203   0.582   5.310 -0.1158  0.9128 -0.5710
 3632SOL     OW11715   0.924   3.199   5.859 -0.4492  0.2426 -0.0866
 3632SOL    HW111716   0.997   3.181   5.793 -1.2169 -1.7624 -0.4931
 3632SOL    HW211717   0.858   3.264   5.820 -0.4464 -0.2707 -0.9745
 3633SOL     OW11718   2.476   6.173   2.459 -0.4778 -0.3076 -0.0636
 3633SOL    HW111719   2.473   6.184   2.360 -0.8156 -0.2694 -0.0483
 3633SOL    HW211720   2.547   6.106   2.482  0.4323  0.5536 -0.2538
 3634SOL     OW11721   2.252   6.718   3.992 -0.0058  0.3347  0.0077
 3634SOL    HW111722   2.290   6.699   4.082  0.5327  2.0925  0.1893
 3634SOL    HW211723   2.325   6.718   3.924 -0.0902  0.9961 -0.0903
 3635SOL     OW11724   6.307   0.026   4.077  0.4875  0.2121 -0.2479
 3635SOL    HW111725   6.368  -0.051   4.098  1.8701  1.4301  0.4095
 3635SOL    HW211726   6.213   0.000   4.097  0.7835 -1.6460 -1.0452
 3636SOL     OW11727   1.636   0.533   2.904  0.7324  0.1947  0.4984
 3636SOL    HW111728   1.610   0.627   2.883  0.3003  0.0589  0.4098
 3636SOL    HW211729   1.723   0.532   2.953 -0.0953  0.7390  2.0159
 3637SOL     OW11730   6.160   1.280   2.734  0.0409 -0.4804 -0.5771
 3637SOL    HW111731   6.151   1.364   2.680 -1.7949 -1.4086 -1.8311
 3637SOL    HW211732   6.231   1.223   2.694 -0.1846 -0.4428 -1.0504
 3638SOL     OW11733   5.424   4.230   1.617  0.1869  0.2203 -0.1450
 3638SOL    HW111734   5.518   4.247   1.586  0.8393  0.1842  1.6624
 3638SOL    HW211735   5.393   4.142   1.583  1.3525 -0.4123  0.3405
 3639SOL     OW11736   5.730   1.278   0.737  0.0229 -0.5696 -0.1852
 3639SOL    HW111737   5.665   1.334   0.686 -0.2620 -1.0687 -0.3719
 3639SOL    HW211738   5.817   1.327   0.744 -0.1996 -0.1353 -0.4067
 3640SOL     OW11739   4.937   0.351   0.868  0.1193 -0.1497 -0.1679
 3640SOL    HW111740   4.955   0.439   0.822 -0.0554 -1.3774 -2.7610
 3640SOL    HW211741   4.844   0.351   0.904 -0.9910 -0.2619 -2.8140
 3641SOL     OW11742   5.699   3.143   3.555 -0.9185 -0.5903  0.1365
 3641SOL    HW111743   5.607   3.107   3.563 -1.4334  0.7560  0.6731
 3641SOL    HW211744   5.726   3.184   3.642  0.4723 -1.5741  0.2014
 3642SOL     OW11745   0.984   4.157   0.787 -0.2526 -0.1536  0.4593
 3642SOL    HW111746   0.952   4.154   0.882 -1.2465  1.3938  0.2057
 3642SOL    HW211747   0.923   4.215   0.733  0.7629 -0.3521 -0.9603
 3643SOL     OW11748   6.570   1.907   6.336 -0.4688 -0.0457  0.4195
 3643SOL    HW111749   6.550   1.882   6.430 -3.0181  0.0749 -0.0205
 3643SOL    HW211750   6.517   1.849   6.274  0.2987  0.6273 -0.9130
 3644SOL     OW11751   2.409   1.471   1.188  0.8239 -0.2204  0.4037
 3644SOL    HW111752   2.385   1.419   1.107  0.2971 -0.9233  0.9988
 3644SOL    HW211753   2.346   1.448   1.262 -0.5678  2.5385  0.2058
 3645SOL     OW11754   3.786   2.982   4.120  0.3271 -0.1463  0.5137
 3645SOL    HW111755   3.784   3.057   4.055  0.6304  2.1017  2.9426
 3645SOL    HW211756   3.723   2.910   4.090  0.9701  0.4370 -2.5381
 3646SOL     OW11757   3.913   1.205   0.601  0.4701 -0.3601 -0.1859
 3646SOL    HW111758   4.001   1.187   0.645 -0.2603 -2.0848  0.6501
 3646SOL    HW211759   3.848   1.238   0.669 -0.1397 -1.2156 -0.3407
 3647SOL     OW11760   2.305   1.483   0.288  0.2712  0.7350 -0.3610
 3647SOL    HW111761   2.267   1.555   0.347  1.8570 -0.6183  2.4734
 3647SOL    HW211762   2.380   1.437   0.334  0.8021 -1.3153 -2.9965
 3648SOL     OW11763   2.179   0.049   6.220 -0.0974 -0.8323 -0.0756
 3648SOL    HW111764   2.264  -0.003   6.213  0.2714 -0.8357  2.9862
 3648SOL    HW211765   2.162   0.097   6.134  1.8837 -2.4640 -1.4685
 3649SOL     OW11766   4.346   6.561   3.558  0.2442  0.0578 -0.3610
 3649SOL    HW111767   4.370   6.654   3.589  1.0655 -1.0502  2.7515
 3649SOL    HW211768   4.271   6.566   3.493 -1.5746  2.8197  1.7088
 3650SOL     OW11769   0.153   3.927   2.396 -0.8388  0.1502 -0.2027
 3650SOL    HW111770   0.073   3.973   2.435 -0.1924  0.1103  1.2470
 3650SOL    HW211771   0.226   3.994   2.382 -0.4776 -0.1380  0.2869
 3651SOL     OW11772   6.502   1.318   0.371 -0.4083 -0.4540 -0.3811
 3651SOL    HW111773   6.574   1.359   0.315  1.0018 -2.7694 -0.3561
 3651SOL    HW211774   6.502   1.219   0.361 -1.4994 -0.8053  2.0877
 3652SOL     OW11775   5.919   6.591   6.777  0.4257  0.9742 -0.4418
 3652SOL    HW111776   5.886   6.660   6.713  0.2961  0.7334 -0.6336
 3652SOL    HW211777   5.994   6.540   6.735  0.1700  0.6458 -0.4933
 3653SOL     OW11778   5.143   2.971   4.900 -0.4533 -0.7165 -0.3308
 3653SOL    HW111779   5.104   2.895   4.848  0.1728 -0.8966 -0.5589
 3653SOL    HW211780   5.216   2.935   4.960 -0.5125 -0.3714 -0.0514
 3654SOL     OW11781   4.575   6.415   6.936  0.1052  0.2946  0.2492
 3654SOL    HW111782   4.573   6.512   6.960  0.4055  0.1266  0.9847
 3654SOL    HW211783   4.574   6.406   6.836  0.7200  1.0752  0.1566
 3655SOL     OW11784   4.599   2.060   2.357 -0.2523  0.0152  0.8941
 3655SOL    HW111785   4.565   1.977   2.402 -0.5830 -1.0098 -1.1403
 3655SOL    HW211786   4.525   2.127   2.349 -0.3274 -0.0055  1.3586
 3656SOL     OW11787   6.427   3.995   4.413  0.2952  0.7034 -0.5743
 3656SOL    HW111788   6.383   3.949   4.336  0.5236 -3.0226  1.2680
 3656SOL    HW211789   6.361   4.009   4.486  1.0154 -0.2984  0.3138
 3657SOL     OW11790   6.851   5.745   4.648 -0.5392  0.1285  0.1883
 3657SOL    HW111791   6.842   5.760   4.747  2.9887 -1.0898  0.8443
 3657SOL    HW211792   6.920   5.808   4.611  1.2057 -2.0958 -0.5913
 3658SOL     OW11793   3.671   3.260   2.084 -0.0322 -0.1755  0.5347
 3658SOL    HW111794   3.606   3.331   2.056 -0.6229 -1.5558 -1.9151
 3658SOL    HW211795   3.742   3.300   2.142 -0.7604  2.2173 -0.1159
 3659SOL     OW11796   5.227   3.498   0.612 -0.5023 -0.1126  0.0315
 3659SOL    HW111797   5.225   3.442   0.696  0.2263  0.3381  0.3540
 3659SOL    HW211798   5.317   3.491   0.569 -0.1346  1.4201  0.4990
 3660SOL     OW11799   2.576   0.916   0.027 -0.1732  0.4274  0.3739
 3660SOL    HW111800   2.553   0.987   0.093  1.1641  0.4304  0.8689
 3660SOL    HW211801   2.502   0.906  -0.039 -1.5560  0.3993  1.8765
 3661SOL     OW11802   4.485   4.849   0.351 -0.0900 -0.2514 -0.2087
 3661SOL    HW111803   4.449   4.755   0.354  0.4149 -0.4277  1.2571
 3661SOL    HW211804   4.410   4.913   0.361 -0.4205 -0.4931 -1.0404
 3662SOL     OW11805   3.300   6.386   3.736 -0.2020 -0.3888 -0.4283
 3662SOL    HW111806   3.235   6.462   3.732 -0.5876 -0.7197 -0.3730
 3662SOL    HW211807   3.255   6.301   3.711 -0.0916 -0.8252  0.8000
 3663SOL     OW11808   4.097   0.844   4.819 -0.2635  0.4862 -0.0072
 3663SOL    HW111809   4.100   0.944   4.822 -1.0623  0.4976  1.1171
 3663SOL    HW211810   4.005   0.813   4.842 -0.3034 -0.4974 -1.3642
 3664SOL     OW11811   2.616   1.014   5.033  0.5000  0.5082  0.6398
 3664SOL    HW111812   2.536   1.071   5.013 -0.7387 -0.5992  2.2644
 3664SOL    HW211813   2.601   0.962   5.116  2.8813  0.1352  0.9193
 3665SOL     OW11814   6.412   5.784   6.200  0.3119 -0.1360 -0.1666
 3665SOL    HW111815   6.315   5.806   6.211 -0.0414 -1.0152 -1.3073
 3665SOL    HW211816   6.452   5.844   6.131  0.5849  0.2508  0.3306
 3666SOL     OW11817   2.832   1.562   0.076  0.5659  0.1039  0.4529
 3666SOL    HW111818   2.804   1.468   0.095 -0.1219  0.5068  1.5000
 3666SOL    HW211819   2.787   1.624   0.140  1.4877  1.0901  0.1798
 3667SOL     OW11820   6.968   4.504   4.403 -0.5445 -0.2339 -0.2167
 3667SOL    HW111821   6.891   4.566   4.421  0.4194  1.5756 -1.9129
 3667SOL    HW211822   6.983   4.445   4.482 -3.4662 -0.4550  0.2761
 3668SOL     OW11823   0.250   5.550   1.083  0.4420 -0.2908  0.0340
 3668SOL    HW111824   0.295   5.638   1.070  1.3200 -0.6360  0.6483
 3668SOL    HW211825   0.246   5.529   1.181  0.8976 -1.2645 -0.1501
 3669SOL     OW11826   3.858   4.483   3.632  0.0027 -0.4456  0.1700
 3669SOL    HW111827   3.908   4.397   3.626 -0.1302 -0.5642  0.6681
 3669SOL    HW211828   3.889   4.534   3.713 -2.2475 -1.5642  1.8421
 3670SOL     OW11829   5.327   2.776   1.782 -1.0928  0.0004 -0.0138
 3670SOL    HW111830   5.279   2.695   1.816 -0.2739  0.1776  1.6889
 3670SOL    HW211831   5.313   2.852   1.845  0.4352  0.3848 -0.1004
 3671SOL     OW11832   6.784   1.069   2.034 -0.0351  0.2819  0.4208
 3671SOL    HW111833   6.763   1.031   1.944  1.1119 -0.9300  0.6328
 3671SOL    HW211834   6.849   1.144   2.024  0.9625 -0.5797  0.3061
 3672SOL     OW11835   6.906   0.323   1.680 -0.0852 -0.4111  0.1903
 3672SOL    HW111836   6.878   0.348   1.588  0.2995 -2.3497 -0.4931
 3672SOL    HW211837   6.998   0.359   1.698 -0.5577  0.8272  0.2236
 3673SOL     OW11838   6.813   2.965   5.749  0.3294  0.1733  0.2170
 3673SOL    HW111839   6.739   3.027   5.772 -0.4095 -0.6067  0.0159
 3673SOL    HW211840   6.827   2.964   5.650 -0.0518 -0.3990  0.1633
 3674SOL     OW11841   0.735   5.047   4.350  0.0050  0.4978  0.2708
 3674SOL    HW111842   0.791   5.093   4.419 -2.4486  2.0283  1.3533
 3674SOL    HW211843   0.660   5.107   4.322 -0.0965 -0.7646 -2.4867
 3675SOL     OW11844   6.330   3.175   4.586 -0.7610 -0.0699  0.3613
 3675SOL    HW111845   6.409   3.237   4.590 -0.9769  0.3627 -1.2756
 3675SOL    HW211846   6.250   3.221   4.623 -0.6768  0.2388  0.1701
 3676SOL     OW11847   3.384   2.946   2.101 -0.2352  0.1981  0.3146
 3676SOL    HW111848   3.478   2.968   2.073 -0.4046  2.0066  1.0394
 3676SOL    HW211849   3.328   3.028   2.096 -1.4646 -0.5631  1.1916
 3677SOL     OW11850   5.101   2.543   6.149 -0.0653  0.2753 -0.6840
 3677SOL    HW111851   5.025   2.604   6.124 -0.3421  0.0365 -0.4212
 3677SOL    HW211852   5.180   2.565   6.092 -0.0142  1.1977 -0.2686
 3678SOL     OW11853   6.207   6.820   1.313  0.2959  0.0567  0.4318
 3678SOL    HW111854   6.122   6.805   1.264 -0.6922  1.6740  1.5419
 3678SOL    HW211855   6.284   6.794   1.255 -0.8818  0.0700 -1.2089
 3679SOL     OW11856   6.590   3.117   6.154 -0.1649 -0.0123  0.5650
 3679SOL    HW111857   6.633   3.112   6.064 -0.4701 -0.6657  0.4492
 3679SOL    HW211858   6.609   3.033   6.205 -1.9495 -0.6730  0.2097
 3680SOL     OW11859   6.523   0.701   2.214 -0.0263  0.5509 -0.2107
 3680SOL    HW111860   6.467   0.728   2.136  0.7681  1.2429 -0.5651
 3680SOL    HW211861   6.618   0.726   2.197  0.4753 -0.9384  0.2103
 3681SOL     OW11862   4.518   0.312   4.828 -0.1347  0.4040 -0.3826
 3681SOL    HW111863   4.611   0.302   4.793 -0.5863 -0.1617 -1.4672
 3681SOL    HW211864   4.516   0.286   4.925  0.9643  1.1215 -0.1443
 3682SOL     OW11865   1.688   2.333   1.629 -0.5704  0.0477  0.4959
 3682SOL    HW111866   1.648   2.374   1.547 -1.1133 -0.3687  0.5470
 3682SOL    HW211867   1.786   2.320   1.614 -0.7156 -0.3207 -0.2214
 3683SOL     OW11868   0.409   1.019   0.074  0.1952 -0.0166  0.1115
 3683SOL    HW111869   0.485   1.026   0.009 -0.7985 -0.5300 -1.1608
 3683SOL    HW211870   0.435   0.961   0.150  1.0941 -0.1554 -0.2936
 3684SOL     OW11871   4.913   0.361   6.700 -0.2215 -0.2754 -0.4113
 3684SOL    HW111872   5.011   0.352   6.720 -0.1663 -1.5239 -1.1517
 3684SOL    HW211873   4.886   0.291   6.634 -1.8203 -0.5683  0.5050
 3685SOL     OW11874   1.270   4.738   5.967 -0.2438 -0.0079 -0.5263
 3685SOL    HW111875   1.339   4.723   5.896 -0.1854 -3.7653  0.1108
 3685SOL    HW211876   1.179   4.729   5.926 -0.2337 -0.4042 -0.4710
 3686SOL     OW11877   3.550   5.972   2.641 -0.1079 -0.1118  0.2327
 3686SOL    HW111878   3.469   5.926   2.604 -0.7403  2.8243 -2.4041
 3686SOL    HW211879   3.630   5.946   2.586  0.3341 -1.0565  1.2712
 3687SOL     OW11880   6.871   5.451   3.986 -0.0380  0.4931  0.0035
 3687SOL    HW111881   6.780   5.491   3.989 -0.3323 -0.0345 -1.3105
 3687SOL    HW211882   6.874   5.368   4.042  0.1155  1.3906  1.3810
 3688SOL     OW11883   4.516   5.855   3.800 -0.1997  0.3412 -0.2590
 3688SOL    HW111884   4.503   5.929   3.734 -0.6373  0.6100  0.1239
 3688SOL    HW211885   4.606   5.862   3.841 -1.0708  2.0887  1.5084
 3689SOL     OW11886   1.445   0.769   3.835  0.2489  0.0963 -0.0979
 3689SOL    HW111887   1.346   0.770   3.826  0.2464 -0.9713 -0.4267
 3689SOL    HW211888   1.475   0.678   3.863  1.0218  0.8611  1.7027
 3690SOL     OW11889   6.689   1.337   4.493 -0.1652  0.1358 -0.0641
 3690SOL    HW111890   6.783   1.347   4.524 -0.4895  2.2403  0.4393
 3690SOL    HW211891   6.668   1.240   4.478  1.6226 -0.4912  1.1879
 3691SOL     OW11892   0.374   5.983   0.149  0.0018 -0.2472  0.8726
 3691SOL    HW111893   0.450   5.931   0.109 -0.8436 -1.6408  1.0347
 3691SOL    HW211894   0.410   6.066   0.192  1.1990  0.1527 -0.7882
 3692SOL     OW11895   2.435   6.288   5.058  0.0179 -0.6370 -0.2080
 3692SOL    HW111896   2.385   6.366   5.020  0.2342  0.0495  0.8885
 3692SOL    HW211897   2.512   6.265   4.999  0.7126  0.8022  0.1190
 3693SOL     OW11898   3.364   5.448   4.337  0.6291 -0.2791  0.3780
 3693SOL    HW111899   3.298   5.375   4.324 -0.1412  0.6749 -1.3897
 3693SOL    HW211900   3.322   5.523   4.388  1.2617 -0.8228  1.7440
 3694SOL     OW11901   2.131   6.789   6.356 -0.3250 -0.1548 -0.4098
 3694SOL    HW111902   2.185   6.840   6.289 -0.2676 -0.4572 -0.5950
 3694SOL    HW211903   2.117   6.845   6.438 -1.6580  0.7907 -1.2519
 3695SOL     OW11904   3.872   5.899   6.668 -0.0806 -0.0703  0.1279
 3695SOL    HW111905   3.802   5.909   6.738 -0.1865 -1.2276  0.2113
 3695SOL    HW211906   3.959   5.935   6.702 -0.8627  2.4967 -0.4227
 3696SOL     OW11907   6.874   3.006   2.385  0.4856  0.3245  1.1198
 3696SOL    HW111908   6.821   2.991   2.468  0.6617  3.4224  1.9221
 3696SOL    HW211909   6.884   3.105   2.370  1.6550 -0.1552 -1.8376
 3697SOL     OW11910   6.150   4.599   6.022  0.3404  0.2158  0.1508
 3697SOL    HW111911   6.121   4.676   6.078 -0.8502  1.4556 -2.0666
 3697SOL    HW211912   6.135   4.619   5.926  0.9809 -2.4022 -0.5898
 3698SOL     OW11913   1.896   2.638   1.180  0.5870 -0.3716  0.2731
 3698SOL    HW111914   1.827   2.583   1.133  0.0163  0.9946 -0.5290
 3698SOL    HW211915   1.887   2.625   1.279 -0.0452 -1.0996  0.1326
 3699SOL     OW11916   4.260   1.023   4.169  0.0514  0.0062  0.0798
 3699SOL    HW111917   4.331   1.065   4.112 -0.6165  2.7747  1.1037
 3699SOL    HW211918   4.222   0.943   4.122  1.1076  0.8013 -2.2818
 3700SOL     OW11919   4.782   3.575   6.306 -0.6629 -0.1675 -0.8701
 3700SOL    HW111920   4.823   3.653   6.259  0.7262 -0.2691  0.1241
 3700SOL    HW211921   4.709   3.607   6.366 -1.0549  0.1922 -1.5296
 3701SOL     OW11922   3.671   3.325   6.210 -0.4318  0.1835 -0.3313
 3701SOL    HW111923   3.723   3.309   6.293 -0.4703  1.2045 -0.0926
 3701SOL    HW211924   3.617   3.409   6.220  0.3883  0.9178 -1.7663
 3702SOL     OW11925   3.204   1.622   3.626 -0.1841  0.2282  0.0960
 3702SOL    HW111926   3.252   1.635   3.539 -1.0329 -0.8309 -0.5454
 3702SOL    HW211927   3.256   1.668   3.699  0.9033  0.5479 -0.8405
 3703SOL     OW11928   4.042   6.113   0.837  0.0414 -0.9810 -0.8429
 3703SOL    HW111929   4.074   6.059   0.915 -0.6538  0.1593  0.2712
 3703SOL    HW211930   4.054   6.061   0.753  2.2106 -1.6689 -0.1735
 3704SOL     OW11931   5.635   2.071   0.132  0.3182 -0.3036  0.3242
 3704SOL    HW111932   5.641   1.995   0.067 -0.6565  0.9336 -1.2724
 3704SOL    HW211933   5.683   2.150   0.094  2.2524 -0.3687  2.4331
 3705SOL     OW11934   5.103   3.774   0.742  0.7564 -0.3544  0.6322
 3705SOL    HW111935   5.036   3.820   0.800  0.2077 -1.9035  1.2737
 3705SOL    HW211936   5.077   3.678   0.730  1.1810 -0.2375 -1.7057
 3706SOL     OW11937   3.416   3.511   2.114 -0.4442  0.0011  0.0661
 3706SOL    HW111938   3.478   3.482   2.187 -1.2884 -1.5366  0.2219
 3706SOL    HW211939   3.468   3.556   2.041  0.6003  0.2526  0.9451
 3707SOL     OW11940   3.891   5.330   0.466  0.0562  0.1875 -0.2362
 3707SOL    HW111941   3.932   5.249   0.507  0.3850  0.8249  0.7389
 3707SOL    HW211942   3.941   5.354   0.383  0.1892 -0.3872 -0.3272
 3708SOL     OW11943   4.374   6.505   3.261  0.4436 -0.3815  0.7551
 3708SOL    HW111944   4.335   6.414   3.246  1.8358 -0.9371  0.3363
 3708SOL    HW211945   4.387   6.520   3.359  0.5242 -0.7856  0.8102
 3709SOL     OW11946   1.709   5.028   2.198 -0.1645 -0.5951  0.0407
 3709SOL    HW111947   1.638   5.077   2.147 -0.5149 -0.5072  0.6096
 3709SOL    HW211948   1.691   5.034   2.296  0.9780 -0.0376  0.2332
 3710SOL     OW11949   5.738   5.627   2.223  0.0597  0.4665  0.2737
 3710SOL    HW111950   5.643   5.609   2.249  0.4411  1.1282  2.2594
 3710SOL    HW211951   5.752   5.725   2.209 -0.1506  0.1604 -2.8017
 3711SOL     OW11952   5.887   4.388   1.776 -0.1174  0.1827  0.3832
 3711SOL    HW111953   5.915   4.484   1.784  1.0867  0.1892 -2.7242
 3711SOL    HW211954   5.900   4.343   1.865 -0.6895  2.8238  1.9193
 3712SOL     OW11955   4.450   0.989   6.152 -0.1292  0.8086  0.2137
 3712SOL    HW111956   4.395   1.035   6.082  0.0425 -1.2376 -1.3920
 3712SOL    HW211957   4.391   0.933   6.210  0.0567 -0.3246 -0.6482
 3713SOL     OW11958   1.828   6.642   2.009  0.1009 -0.4263  0.5147
 3713SOL    HW111959   1.754   6.581   1.983  1.0354 -0.9053 -1.1570
 3713SOL    HW211960   1.846   6.634   2.107 -1.4533 -0.9358  0.7749
 3714SOL     OW11961   6.574   2.775   3.507  0.7368  0.1092 -0.0392
 3714SOL    HW111962   6.491   2.763   3.453 -1.6670  0.1488  3.2728
 3714SOL    HW211963   6.607   2.869   3.497 -1.2848  0.9509  0.5442
 3715SOL     OW11964   3.911   0.665   5.751  0.3761 -0.5300  0.1303
 3715SOL    HW111965   3.895   0.639   5.656 -2.1346 -0.8952  0.5759
 3715SOL    HW211966   3.859   0.604   5.811  3.5757 -1.7023  1.9376
 3716SOL     OW11967   6.862   3.556   4.123  0.2428 -0.1356  0.4367
 3716SOL    HW111968   6.896   3.553   4.029  1.0033  2.5688  0.5234
 3716SOL    HW211969   6.879   3.468   4.168 -0.5061 -1.6164 -2.0322
 3717SOL     OW11970   4.471   1.950   3.047 -0.1446  0.1834  0.1545
 3717SOL    HW111971   4.532   1.890   2.994  0.1972  0.8729 -0.2486
 3717SOL    HW211972   4.472   1.922   3.143  1.7565  0.9119  0.3901
 3718SOL     OW11973   2.313   2.745   0.121 -0.2349 -0.2539  0.0194
 3718SOL    HW111974   2.410   2.769   0.124  0.2875 -2.3140  1.5832
 3718SOL    HW211975   2.263   2.815   0.070  2.1638  0.4690 -1.4972
 3719SOL     OW11976   4.720   4.176   4.521 -0.9273  0.3354 -0.0652
 3719SOL    HW111977   4.736   4.233   4.440 -0.8849 -1.1446 -1.1380
 3719SOL    HW211978   4.766   4.216   4.600 -0.7487  1.6799 -0.8191
 3720SOL     OW11979   6.512   6.868   1.770 -0.5867 -0.5072  0.1387
 3720SOL    HW111980   6.543   6.841   1.862 -0.3879  0.5576  0.4014
 3720SOL    HW211981   6.413   6.883   1.772 -0.3874  0.8910  0.5573
 3721SOL     OW11982   2.756   1.272   4.641 -0.2893 -0.1952 -0.2770
 3721SOL    HW111983   2.776   1.370   4.645  1.1232 -0.5224  1.5309
 3721SOL    HW211984   2.837   1.222   4.611 -1.2378 -0.7993 -2.0220
 3722SOL     OW11985   4.830   0.954   1.189  0.1458 -0.2252  0.0838
 3722SOL    HW111986   4.798   0.986   1.278  0.1807 -1.2991  0.4999
 3722SOL    HW211987   4.883   0.870   1.201  0.6425 -0.0681 -0.8965
 3723SOL     OW11988   1.636   2.326   3.033 -0.3360  0.2929  0.0918
 3723SOL    HW111989   1.716   2.358   3.085  0.0088 -0.5538  0.0996
 3723SOL    HW211990   1.609   2.397   2.967 -0.3240  1.0758  0.9063
 3724SOL     OW11991   1.069   3.082   5.638 -0.0376 -0.6050 -0.0183
 3724SOL    HW111992   1.120   3.162   5.606 -1.0090 -0.4628 -1.2704
 3724SOL    HW211993   1.128   3.001   5.633  0.6911 -0.1222  0.4701
 3725SOL     OW11994   4.930   0.329   2.712  0.7810  0.2738 -0.4939
 3725SOL    HW111995   4.919   0.297   2.618  1.3787  0.3667 -0.5955
 3725SOL    HW211996   5.008   0.392   2.717  0.0519  1.1860 -0.1716
 3726SOL     OW11997   2.941   2.625   3.454  0.0461  0.0625  0.0493
 3726SOL    HW111998   2.941   2.539   3.506  0.5667 -1.4882 -2.3598
 3726SOL    HW211999   2.857   2.631   3.399  1.4223 -0.5751 -2.2628
 3727SOL     OW12000   4.599   3.139   3.203  0.6622 -0.2361 -0.1060
 3727SOL    HW112001   4.579   3.215   3.141  0.7292 -0.1221  0.0125
 3727SOL    HW212002   4.695   3.114   3.194  1.1239  0.9135  1.1927
 3728SOL     OW12003   4.472   4.874   1.384  0.0819 -0.2030 -0.0362
 3728SOL    HW112004   4.419   4.916   1.310  0.5381  1.2519  0.4331
 3728SOL    HW212005   4.534   4.805   1.345  1.2189  1.3952 -1.2300
 3729SOL     OW12006   1.482   4.220   1.990 -0.4313 -0.2927 -0.5561
 3729SOL    HW112007   1.507   4.260   2.079 -1.1135 -2.6343  0.7949
 3729SOL    HW212008   1.385   4.235   1.973 -0.4797 -0.5491 -0.5059
 3730SOL     OW12009   5.968   4.859   4.863 -0.4912  0.3669 -0.6061
 3730SOL    HW112010   5.876   4.822   4.873  1.1181 -4.1874 -0.4896
 3730SOL    HW212011   6.009   4.825   4.778  1.3971  1.5545 -0.2267
 3731SOL     OW12012   3.666   5.597   2.138  0.4614 -0.3573 -0.3542
 3731SOL    HW112013   3.652   5.502   2.108 -0.1867 -0.4593  0.2408
 3731SOL    HW212014   3.649   5.603   2.236 -1.8188  0.8155 -0.7517
 3732SOL     OW12015   1.081   0.385   4.272  0.1597  0.1722 -0.4234
 3732SOL    HW112016   1.170   0.424   4.294 -0.0217  0.8469 -0.8782
 3732SOL    HW212017   1.039   0.349   4.355  0.6992  0.1704 -0.1487
 3733SOL     OW12018   1.937   3.679   1.137  0.4762  0.2773 -0.0054
 3733SOL    HW112019   2.018   3.633   1.172  1.4504  1.9186  0.0303
 3733SOL    HW212020   1.919   3.761   1.192 -2.8026 -1.3806  1.6893
 3734SOL     OW12021   5.355   0.309   5.075 -0.3846 -0.1286  0.1664
 3734SOL    HW112022   5.256   0.320   5.061 -0.4086  1.2303  1.2067
 3734SOL    HW212023   5.371   0.278   5.169  0.0589 -3.3785 -0.8553
 3735SOL     OW12024   6.420   3.713   0.673 -0.7300 -0.3041 -0.4589
 3735SOL    HW112025   6.437   3.643   0.603  0.1460  0.4430 -1.0233
 3735SOL    HW212026   6.329   3.752   0.660 -1.2477 -1.3522 -0.1081
 3736SOL     OW12027   0.183   4.152   3.861 -0.3855  0.0485 -0.0351
 3736SOL    HW112028   0.222   4.239   3.891  1.3193 -0.6522 -0.1004
 3736SOL    HW212029   0.188   4.146   3.762 -1.8919  0.4862 -0.1539
 3737SOL     OW12030   2.400   2.459   3.650 -0.0639 -0.6183  0.5567
 3737SOL    HW112031   2.467   2.497   3.714 -0.4321 -1.1399  1.2680
 3737SOL    HW212032   2.352   2.383   3.694 -0.9837 -0.3771 -0.0107
 3738SOL     OW12033   1.142   0.266   6.249  0.1316 -0.2224  0.2144
 3738SOL    HW112034   1.161   0.256   6.151 -1.5360 -2.1631  0.0020
 3738SOL    HW212035   1.105   0.357   6.267 -0.5171 -0.1881 -1.1663
 3739SOL     OW12036   3.961   2.215   2.404  0.0311 -0.1100 -0.0262
 3739SOL    HW112037   3.960   2.138   2.340 -2.0322 -1.2460  1.2650
 3739SOL    HW212038   4.042   2.208   2.463  0.3962 -0.7151 -0.5795
 3740SOL     OW12039   1.893   0.662   5.614 -0.0804 -0.0876 -0.7518
 3740SOL    HW112040   1.929   0.733   5.675  0.2784 -1.2817  0.4912
 3740SOL    HW212041   1.824   0.609   5.663  1.7621 -2.4826 -0.5459
 3741SOL     OW12042   2.706   0.596   5.489 -0.3726 -0.3570  0.1153
 3741SOL    HW112043   2.680   0.691   5.509 -0.4488 -0.8500  2.7068
 3741SOL    HW212044   2.632   0.534   5.517 -0.2541 -1.2181 -1.3883
 3742SOL     OW12045   1.514   2.477   0.267 -0.6097 -0.0572  0.3853
 3742SOL    HW112046   1.538   2.468   0.170 -1.1770  1.5203  0.0674
 3742SOL    HW212047   1.486   2.388   0.302  2.5724 -1.3709 -0.0344
 3743SOL     OW12048   0.937   5.048   5.754  0.3647  0.2187  0.1364
 3743SOL    HW112049   0.963   5.026   5.848  0.0776  0.5115  0.2826
 3743SOL    HW212050   0.994   5.123   5.721  0.6439 -0.0550 -0.0162
 3744SOL     OW12051   0.526   2.056   1.348 -0.1175 -0.4031 -0.1247
 3744SOL    HW112052   0.626   2.057   1.358 -0.2412  2.1053  2.3803
 3744SOL    HW212053   0.502   2.031   1.255  2.7734 -2.1862 -0.5232
 3745SOL     OW12054   2.695   5.225   3.990  0.1674 -0.1758 -0.0352
 3745SOL    HW112055   2.687   5.324   3.976 -0.6531 -0.1920  0.2873
 3745SOL    HW212056   2.711   5.206   4.086  1.0030 -0.3290 -0.1965
 3746SOL     OW12057   1.096   0.022   4.426 -0.1554 -0.1776 -0.8718
 3746SOL    HW112058   1.057  -0.010   4.340 -1.8026  0.6564 -0.4743
 3746SOL    HW212059   1.131  -0.056   4.477 -0.9565 -0.9379 -1.4441
 3747SOL     OW12060   0.445   2.668   1.762 -0.3380 -0.3919  0.5550
 3747SOL    HW112061   0.452   2.625   1.853  1.4312 -0.2244  0.5339
 3747SOL    HW212062   0.412   2.761   1.773  0.7819 -0.0462  1.1521
 3748SOL     OW12063   4.981   4.420   2.736 -0.5143 -0.0461 -0.4033
 3748SOL    HW112064   4.892   4.440   2.694 -1.5134 -0.5776  1.3147
 3748SOL    HW212065   5.039   4.370   2.672 -0.6842  1.9758 -2.2538
 3749SOL     OW12066   1.791   6.169   5.646  0.2830 -0.1747 -0.5671
 3749SOL    HW112067   1.786   6.263   5.681 -0.5053 -0.2880 -0.3756
 3749SOL    HW212068   1.857   6.166   5.570  0.9329  0.3586 -0.0387
 3750SOL     OW12069   4.570   5.726   0.780  1.2201  0.3692  0.0614
 3750SOL    HW112070   4.482   5.696   0.816  0.6891  1.7812  0.0275
 3750SOL    HW212071   4.559   5.755   0.684  1.5707  1.1179  0.2373
 3751SOL     OW12072   3.993   5.803   6.303 -0.7073  0.1302 -0.5891
 3751SOL    HW112073   4.082   5.759   6.291 -0.9240 -0.0082 -1.7572
 3751SOL    HW212074   3.941   5.798   6.218 -1.2320  1.5540 -0.3837
 3752SOL     OW12075   6.159   4.041   3.901  0.0350 -0.0940  0.4565
 3752SOL    HW112076   6.124   3.951   3.876 -0.1131  0.7741 -2.8566
 3752SOL    HW212077   6.250   4.054   3.862 -0.1906  1.3947  0.3807
 3753SOL     OW12078   3.824   0.233   4.786 -0.3241  0.4587 -0.7129
 3753SOL    HW112079   3.725   0.225   4.798 -0.3922  1.9417 -0.0888
 3753SOL    HW212080   3.861   0.146   4.752 -1.5587 -0.7522  0.8882
 3754SOL     OW12081   0.140   3.663   4.424  0.1792 -0.3133 -0.0278
 3754SOL    HW112082   0.101   3.725   4.492 -1.3532 -1.9434  0.6678
 3754SOL    HW212083   0.191   3.591   4.471 -2.4024 -2.5026 -0.3636
 3755SOL     OW12084   4.962   1.625   5.282 -0.0578  0.1687  0.2181
 3755SOL    HW112085   4.975   1.533   5.244 -0.2592  0.9521 -1.9030
 3755SOL    HW212086   4.866   1.652   5.271 -0.4701 -0.0642  2.6353
 3756SOL     OW12087   0.593   5.128   3.327  0.0884  0.6820  0.1543
 3756SOL    HW112088   0.588   5.164   3.421 -1.3396  0.4425  0.1999
 3756SOL    HW212089   0.682   5.150   3.287 -0.5874  4.1892  0.2333
 3757SOL     OW12090   1.587   5.260   3.347  0.1950  0.5760  0.1933
 3757SOL    HW112091   1.638   5.346   3.351  0.0511  0.6295  0.9890
 3757SOL    HW212092   1.586   5.227   3.253 -0.6079  1.9719 -0.3193
 3758SOL     OW12093   0.163   6.761   1.114  0.1390  0.2657 -0.0154
 3758SOL    HW112094   0.134   6.799   1.202 -0.9752 -0.6966  0.0528
 3758SOL    HW212095   0.246   6.809   1.083  0.6252  0.5426  1.6074
 3759SOL     OW12096   6.645   1.276   3.529 -0.1749 -0.1989  0.5240
 3759SOL    HW112097   6.549   1.302   3.540 -0.4959 -1.8861  2.2047
 3759SOL    HW212098   6.696   1.352   3.490 -2.5807  0.0123 -2.5527
 3760SOL     OW12099   0.823   6.248   0.344  0.0615  0.3726  0.3530
 3760SOL    HW112100   0.779   6.328   0.303  0.5432  1.1555  1.3279
 3760SOL    HW212101   0.922   6.253   0.328  0.0926 -0.0425  0.4055
 3761SOL     OW12102   5.796   5.201   1.914 -0.1238 -0.2065 -0.4481
 3761SOL    HW112103   5.790   5.121   1.854  1.2120 -0.3588 -0.4114
 3761SOL    HW212104   5.756   5.178   2.003  1.0017 -1.1472 -0.1525
 3762SOL     OW12105   5.985   5.427   0.983 -0.6700  0.2851 -0.1992
 3762SOL    HW112106   6.063   5.487   0.998 -0.7383  0.1067  0.9431
 3762SOL    HW212107   6.015   5.346   0.932 -0.3354  0.6970 -0.6732
 3763SOL     OW12108   4.566   2.975   1.033 -0.2261  0.5237  0.1998
 3763SOL    HW112109   4.504   3.025   1.093  0.0157  0.3408  0.6025
 3763SOL    HW212110   4.559   2.877   1.052  0.1538  0.4988  0.2148
 3764SOL     OW12111   0.167   1.270   6.853  0.7564 -0.5868  0.1266
 3764SOL    HW112112   0.152   1.323   6.936  1.4675 -0.9569  0.5039
 3764SOL    HW212113   0.189   1.175   6.877  1.5254 -0.5693 -0.4479
 3765SOL     OW12114   0.165   2.795   5.953  0.0659 -0.1629 -0.2467
 3765SOL    HW112115   0.262   2.783   5.932  0.0519 -2.1883  0.7022
 3765SOL    HW212116   0.155   2.855   6.032  0.5049  0.3923 -0.6007
 3766SOL     OW12117   6.281   2.960   1.291  0.1820 -0.0475 -0.1679
 3766SOL    HW112118   6.198   2.921   1.250 -0.0167 -0.9419  1.0074
 3766SOL    HW212119   6.361   2.912   1.257 -0.0991 -2.0008  1.6932
 3767SOL     OW12120   6.544   3.464   4.701 -0.5919 -0.1202 -0.1927
 3767SOL    HW112121   6.562   3.386   4.640 -2.1659 -0.2520 -0.5195
 3767SOL    HW212122   6.487   3.434   4.778 -1.4759  0.7544 -0.4881
 3768SOL     OW12123   5.747   4.888   2.750 -0.6008  0.1718  0.4818
 3768SOL    HW112124   5.781   4.949   2.822 -1.6963 -0.4708  1.5893
 3768SOL    HW212125   5.728   4.798   2.789 -1.7343 -0.0400 -0.4912
 3769SOL     OW12126   5.679   4.843   4.676 -0.2726 -0.4617 -0.1552
 3769SOL    HW112127   5.609   4.844   4.604 -1.2591 -1.4196  0.7604
 3769SOL    HW212128   5.686   4.934   4.717 -2.1254 -0.7125  0.7954
 3770SOL     OW12129   0.329   3.847   5.358 -0.3543  0.1197  0.0159
 3770SOL    HW112130   0.381   3.910   5.301  1.7954 -0.4671  1.2277
 3770SOL    HW212131   0.391   3.789   5.410 -2.1810 -3.4597 -1.4205
 3771SOL     OW12132   2.333   1.719   2.759  0.3300 -0.1459  0.0651
 3771SOL    HW112133   2.394   1.783   2.806  0.0576  1.4444 -1.6043
 3771SOL    HW212134   2.250   1.767   2.731  0.0839 -1.2358 -1.1598
 3772SOL     OW12135   2.967   6.805   1.195  0.4796 -0.0339 -0.3031
 3772SOL    HW112136   3.016   6.732   1.243  0.2881 -0.1473 -0.2793
 3772SOL    HW212137   3.033   6.870   1.157  0.7328 -1.1367 -1.8165
 3773SOL     OW12138   2.464   6.557   5.720 -0.0870 -0.3785  0.0969
 3773SOL    HW112139   2.472   6.652   5.750  0.1215 -0.8143  1.5458
 3773SOL    HW212140   2.384   6.546   5.661  1.0379  1.0745 -1.8011
 3774SOL     OW12141   2.850   4.646   6.141 -0.0111 -0.2104 -0.1896
 3774SOL    HW112142   2.817   4.703   6.216  1.0731 -0.2047  0.3132
 3774SOL    HW212143   2.950   4.650   6.138  0.1643 -2.6157  0.3032
 3775SOL     OW12144   6.231   3.387   3.811  0.1560  0.4638 -0.4283
 3775SOL    HW112145   6.313   3.345   3.849  1.0842  3.1044  0.6597
 3775SOL    HW212146   6.251   3.425   3.720 -0.0256  0.6249 -0.4027
 3776SOL     OW12147   5.702   3.711   1.202 -0.3133 -0.5637  0.4042
 3776SOL    HW112148   5.696   3.810   1.190 -1.8598 -0.7956 -1.1057
 3776SOL    HW212149   5.798   3.685   1.219  0.6788  0.9060 -2.2852
 3777SOL     OW12150   5.673   1.526   6.499 -0.1287 -0.1139  0.1539
 3777SOL    HW112151   5.591   1.471   6.486  0.5953 -1.4112  0.8383
 3777SOL    HW212152   5.717   1.542   6.411 -1.5704  1.4023 -0.3483
 3778SOL     OW12153   3.531   4.533   5.901  0.0285 -0.5933 -0.2433
 3778SOL    HW112154   3.575   4.582   5.826 -1.1975 -0.2181 -0.7406
 3778SOL    HW212155   3.586   4.452   5.924  0.4547 -0.6932 -1.5051
 3779SOL     OW12156   1.251   0.373   5.846  0.4334 -0.4693 -0.9667
 3779SOL    HW112157   1.256   0.298   5.779 -1.7360 -0.5804 -1.0689
 3779SOL    HW212158   1.159   0.377   5.884  0.8388  1.4466 -0.1004
 3780SOL     OW12159   4.291   0.732   2.578  0.3615  0.4031  0.1939
 3780SOL    HW112160   4.344   0.648   2.596  1.0619  0.2998 -2.0927
 3780SOL    HW212161   4.324   0.804   2.639  1.2358 -0.3988  0.7201
 3781SOL     OW12162   0.843   1.920   5.078 -0.0994 -0.5454 -0.0143
 3781SOL    HW112163   0.907   1.996   5.084 -0.7490  0.0635 -0.6647
 3781SOL    HW212164   0.787   1.930   4.996  0.2661 -2.0835 -0.4890
 3782SOL     OW12165   1.547   6.514   5.642  0.2316  0.2800  0.0585
 3782SOL    HW112166   1.457   6.485   5.676 -0.6386  2.2212 -0.4481
 3782SOL    HW212167   1.566   6.607   5.675  2.7899 -0.6538  1.4429
 3783SOL     OW12168   6.850   3.500   1.412  0.0154 -0.3742  0.7719
 3783SOL    HW112169   6.833   3.542   1.502 -2.4632  0.1281  0.1566
 3783SOL    HW212170   6.771   3.517   1.353  1.0851 -1.7259 -1.1335
 3784SOL     OW12171   3.091   4.856   4.162 -0.1018  0.8125 -0.3457
 3784SOL    HW112172   2.993   4.836   4.169 -0.1842  1.6365  1.2683
 3784SOL    HW212173   3.133   4.851   4.252  1.5365 -0.2739 -1.1047
 3785SOL     OW12174   5.279   0.576   0.639  0.1456 -0.0026 -0.4250
 3785SOL    HW112175   5.229   0.642   0.695 -0.3996  0.1658 -1.1010
 3785SOL    HW212176   5.231   0.489   0.639  0.0508  0.0513 -0.7810
 3786SOL     OW12177   3.461   1.725   3.762 -0.4092 -0.3536  0.1640
 3786SOL    HW112178   3.486   1.628   3.770  0.7713  0.0468  1.7325
 3786SOL    HW212179   3.425   1.758   3.848 -0.2101  0.7658 -0.1648
 3787SOL     OW12180   4.543   4.759   2.229  0.7136 -0.3542  0.2927
 3787SOL    HW112181   4.634   4.743   2.192  0.3407 -1.5465 -0.1588
 3787SOL    HW212182   4.510   4.849   2.201  1.4931 -0.1852 -0.0814
 3788SOL     OW12183   1.845   4.222   4.513 -0.1004 -0.1107  0.5103
 3788SOL    HW112184   1.929   4.277   4.517 -0.9188  1.2386  0.1122
 3788SOL    HW212185   1.785   4.248   4.589 -0.5410 -0.3715  0.2572
 3789SOL     OW12186   0.445   3.237   5.201  0.1918 -0.2656  0.3490
 3789SOL    HW112187   0.395   3.322   5.184  0.3338 -0.1301  0.6134
 3789SOL    HW212188   0.381   3.161   5.205  0.1157 -0.2531 -0.4523
 3790SOL     OW12189   5.972   4.252   3.852 -0.4166  0.4511  0.1000
 3790SOL    HW112190   5.886   4.206   3.830  0.0169  0.0130 -0.7303
 3790SOL    HW212191   6.042   4.184   3.873  0.4985  0.6180 -2.0815
 3791SOL     OW12192   6.455   6.193   5.844 -0.3973  0.1475 -0.5530
 3791SOL    HW112193   6.372   6.137   5.836  1.4179 -2.6320 -1.0482
 3791SOL    HW212194   6.473   6.238   5.756 -1.3163  0.7235 -0.4593
 3792SOL     OW12195   5.377   2.486   0.714  0.2766 -0.4258  0.0892
 3792SOL    HW112196   5.279   2.499   0.730  0.1793 -0.8307 -0.1746
 3792SOL    HW212197   5.398   2.507   0.619  0.3632 -0.8237  0.0215
 3793SOL     OW12198   2.570   4.204   0.747 -0.5832  0.1950  0.1563
 3793SOL    HW112199   2.598   4.194   0.843  0.1546 -0.3790 -0.1125
 3793SOL    HW212200   2.470   4.204   0.742 -0.6328  0.0788  0.9086
 3794SOL     OW12201   0.616   4.790   0.201  0.5098 -0.1679  0.5003
 3794SOL    HW112202   0.635   4.692   0.195 -0.5575 -0.3202 -0.9750
 3794SOL    HW212203   0.670   4.830   0.274 -0.2224 -2.1617  2.2407
 3795SOL     OW12204   2.003   5.769   6.088  0.5867  0.3832 -0.7468
 3795SOL    HW112205   2.021   5.844   6.024 -2.8158  2.0906  0.0519
 3795SOL    HW212206   2.036   5.795   6.179 -1.2807  1.3982 -0.2987
 3796SOL     OW12207   4.495   6.897   3.138 -0.2178 -0.0117  0.1693
 3796SOL    HW112208   4.563   6.959   3.098 -0.5705  0.1419 -0.1981
 3796SOL    HW212209   4.453   6.939   3.218  1.1437 -0.6803  1.2828
 3797SOL     OW12210   0.927   3.921   2.470  0.1764 -0.1018 -0.3651
 3797SOL    HW112211   0.991   3.847   2.449 -0.3692 -1.1110  1.4054
 3797SOL    HW212212   0.966   3.980   2.540 -1.4897 -1.8148  2.1583
 3798SOL     OW12213   2.297   2.231   2.517 -0.3647  0.6079  0.1058
 3798SOL    HW112214   2.244   2.169   2.459  1.4866 -2.1961  1.1826
 3798SOL    HW212215   2.389   2.242   2.479 -0.0618  1.1286  0.9463
 3799SOL     OW12216   5.667   2.548   2.408 -0.3632  0.1369 -0.5213
 3799SOL    HW112217   5.598   2.510   2.347 -0.5784  0.3651 -0.4243
 3799SOL    HW212218   5.622   2.588   2.488 -0.3647  2.5757 -1.6383
 3800SOL     OW12219   2.442   6.807   2.330  0.6035  0.2223 -0.2476
 3800SOL    HW112220   2.495   6.886   2.301  1.7363 -0.7371 -0.8734
 3800SOL    HW212221   2.498   6.750   2.391 -0.2780  0.0108  0.3870
 3801SOL     OW12222   5.901   5.821   1.112 -0.5783  0.0918 -1.0212
 3801SOL    HW112223   5.849   5.776   1.184  0.3399 -0.9133 -0.9622
 3801SOL    HW212224   5.908   5.760   1.033  1.6965 -0.4130 -0.5013
 3802SOL     OW12225   1.718   3.360   4.605  0.3085  0.0160  0.5836
 3802SOL    HW112226   1.646   3.429   4.598 -1.4564 -1.8616 -1.0633
 3802SOL    HW212227   1.800   3.394   4.559 -0.3977  1.1530  0.1008
 3803SOL     OW12228   5.914   1.348   5.410 -0.2475 -0.5235 -0.4721
 3803SOL    HW112229   5.924   1.290   5.492 -1.0221  0.8278  0.6199
 3803SOL    HW212230   6.003   1.360   5.367  0.1225 -1.5082 -0.0155
 3804SOL     OW12231   6.871   0.563   0.110 -0.4696  0.6249 -0.3694
 3804SOL    HW112232   6.942   0.582   0.178 -0.9951  0.2519  0.3022
 3804SOL    HW212233   6.874   0.633   0.039  0.5326  0.6374 -0.3247
 3805SOL     OW12234   0.117   0.800   1.893  0.5006  0.3192 -0.2835
 3805SOL    HW112235   0.169   0.854   1.958  0.4258  0.1195 -0.0566
 3805SOL    HW212236   0.153   0.814   1.801  1.0984  0.0129 -0.1002
 3806SOL     OW12237   6.403   0.250   0.336  0.2597  0.1338 -0.3598
 3806SOL    HW112238   6.308   0.264   0.362  0.1234 -0.4705 -0.5143
 3806SOL    HW212239   6.463   0.299   0.399 -0.0992 -0.4974  0.4736
 3807SOL     OW12240   4.064   1.514   2.007 -0.0565 -0.1949  0.2811
 3807SOL    HW112241   4.011   1.435   1.976 -0.5672  0.0230  0.5939
 3807SOL    HW212242   4.145   1.482   2.057 -0.2400 -0.5180  0.3771
 3808SOL     OW12243   6.528   1.320   3.248  0.0801  0.0318 -0.2473
 3808SOL    HW112244   6.469   1.338   3.328  1.4177 -0.7046  0.9542
 3808SOL    HW212245   6.482   1.256   3.187 -0.6647  0.0069  0.3115
 3809SOL     OW12246   1.927   1.896   0.553 -0.1150 -0.0014 -0.2898
 3809SOL    HW112247   1.963   1.910   0.646  1.6288 -1.0205 -0.7845
 3809SOL    HW212248   2.002   1.900   0.487 -1.3327  0.7021 -1.6836
 3810SOL     OW12249   4.825   4.984   5.312  0.4265  0.9216 -0.8152
 3810SOL    HW112250   4.737   4.937   5.304  0.3463  0.7014  1.0311
 3810SOL    HW212251   4.810   5.076   5.347  1.0354  0.0384  2.0774
 3811SOL     OW12252   4.025   2.913   0.687 -0.5261  0.5084  0.5574
 3811SOL    HW112253   4.039   2.815   0.706 -1.5667  0.7191  2.7568
 3811SOL    HW212254   3.958   2.950   0.752  0.0848  2.7710 -0.0193
 3812SOL     OW12255   6.125   1.191   4.887  0.7039 -0.4835  0.2650
 3812SOL    HW112256   6.201   1.254   4.907  0.4721  0.4576 -1.6442
 3812SOL    HW212257   6.080   1.166   4.972  0.7260  2.0485  1.1021
 3813SOL     OW12258   6.856   0.012   6.290  0.0314 -0.2691 -0.1972
 3813SOL    HW112259   6.799  -0.069   6.294  0.3383 -0.4840 -0.1234
 3813SOL    HW212260   6.849   0.054   6.199 -0.1661 -0.3490 -0.2173
 3814SOL     OW12261   4.212   4.798   3.057 -0.2285 -0.4294 -0.1878
 3814SOL    HW112262   4.312   4.795   3.048 -0.3892 -1.7839 -2.0701
 3814SOL    HW212263   4.174   4.710   3.029 -1.9679  0.0409  0.5944
 3815SOL     OW12264   0.853   2.290   1.842  0.0918 -0.2748 -0.1650
 3815SOL    HW112265   0.888   2.379   1.812  0.5044 -0.5553 -0.5075
 3815SOL    HW212266   0.860   2.224   1.768  1.2445 -1.0114  0.5633
 3816SOL     OW12267   3.819   2.043   1.027  0.2363  0.2838  0.7726
 3816SOL    HW112268   3.755   2.050   0.950 -1.0611 -0.9972  1.6813
 3816SOL    HW212269   3.823   1.948   1.058  2.4041  0.3814  0.9364
 3817SOL     OW12270   2.568   1.740   4.096 -0.4758 -0.2785  0.2179
 3817SOL    HW112271   2.610   1.651   4.113 -1.5541 -0.7651  0.4601
 3817SOL    HW212272   2.628   1.795   4.038  1.5603 -0.0427  2.4120
 3818SOL     OW12273   0.695   0.630   1.508  0.4262  0.2742  0.3981
 3818SOL    HW112274   0.791   0.613   1.528  0.5465  0.3378 -0.1289
 3818SOL    HW212275   0.640   0.610   1.590  0.8253 -0.2702  0.5387
 3819SOL     OW12276   3.505   4.768   2.867  0.3574 -0.2652 -0.2063
 3819SOL    HW112277   3.563   4.770   2.948 -0.1828  0.0782  0.1809
 3819SOL    HW212278   3.538   4.698   2.804  0.4794 -0.8865  0.5358
 3820SOL     OW12279   5.360   3.859   6.862 -0.3239 -0.2649  0.1436
 3820SOL    HW112280   5.260   3.857   6.865 -0.3056 -0.1521  1.4286
 3820SOL    HW212281   5.395   3.766   6.868 -0.3450 -0.2177  1.2351
 3821SOL     OW12282   2.892   3.025   0.861  0.4013 -0.2588 -0.5516
 3821SOL    HW112283   2.851   3.071   0.940  0.1836 -1.8278  0.2899
 3821SOL    HW212284   2.923   2.935   0.888  2.5620  0.0911 -1.7019
 3822SOL     OW12285   6.436   1.135   6.954  0.2193 -0.5110 -0.2738
 3822SOL    HW112286   6.383   1.194   6.893  0.7417 -0.7480 -0.9633
 3822SOL    HW212287   6.391   1.132   7.044  0.1392  0.8704 -0.2464
 3823SOL     OW12288   5.845   0.114   5.473 -0.0396 -0.0658  0.7568
 3823SOL    HW112289   5.872   0.193   5.528 -0.1660 -0.6976  1.7665
 3823SOL    HW212290   5.795   0.049   5.531  0.3888 -1.0529  0.0568
 3824SOL     OW12291   5.487   3.165   2.513 -0.4684  0.1564  0.4527
 3824SOL    HW112292   5.516   3.084   2.462 -4.5674 -0.5939 -1.0325
 3824SOL    HW212293   5.407   3.205   2.469 -2.0761  1.6450  4.3179
 3825SOL     OW12294   4.729   2.122   5.340 -0.0391  0.0360  0.0723
 3825SOL    HW112295   4.679   2.054   5.394 -0.8873  1.5000  1.1906
 3825SOL    HW212296   4.776   2.076   5.264 -1.2075 -1.6861  0.3365
 3826SOL     OW12297   0.079   0.443   5.194  0.5207 -0.1242 -0.1484
 3826SOL    HW112298   0.129   0.405   5.116  0.0976  0.5210 -0.7439
 3826SOL    HW212299   0.082   0.378   5.270  2.3724 -0.0477 -0.1064
 3827SOL     OW12300   6.538   6.088   2.566 -0.0644  0.1544 -0.3431
 3827SOL    HW112301   6.634   6.116   2.559  0.2162  0.2877  2.7268
 3827SOL    HW212302   6.520   6.015   2.500  2.8141 -1.4525  0.4568
 3828SOL     OW12303   6.718   5.054   3.452 -0.1955 -0.3473 -0.5897
 3828SOL    HW112304   6.741   5.083   3.359  0.8363  0.3708 -0.1257
 3828SOL    HW212305   6.707   5.135   3.510  1.4331 -0.8228  0.4319
 3829SOL     OW12306   0.497   2.338   2.974  0.1799 -0.1254 -0.3023
 3829SOL    HW112307   0.450   2.354   2.888 -1.1162 -2.3459 -0.0827
 3829SOL    HW212308   0.469   2.407   3.041 -1.3243 -0.2824 -0.7388
 3830SOL     OW12309   5.298   3.284   6.724 -0.0731 -0.1730 -0.0546
 3830SOL    HW112310   5.387   3.257   6.762 -0.0444 -2.2057 -1.3696
 3830SOL    HW212311   5.299   3.381   6.701  2.1654 -0.3208 -0.8593
 3831SOL     OW12312   3.270   0.249   4.666  0.1511 -0.5342 -0.2097
 3831SOL    HW112313   3.238   0.159   4.634 -1.7963 -0.3975  1.1374
 3831SOL    HW212314   3.293   0.243   4.763  0.4270  0.3232 -0.2188
 3832SOL     OW12315   2.524   1.490   4.612 -0.1981 -0.2074 -0.7700
 3832SOL    HW112316   2.620   1.505   4.585 -0.0981  1.4179  0.3558
 3832SOL    HW212317   2.467   1.488   4.530  0.7119 -0.4864 -1.4146
 3833SOL     OW12318   3.357   6.765   0.632 -0.2576  0.5068 -0.1294
 3833SOL    HW112319   3.385   6.859   0.648 -0.1138  1.0086 -2.7637
 3833SOL    HW212320   3.258   6.762   0.615 -0.4343  0.0172  0.9338
 3834SOL     OW12321   4.683   3.509   3.435  0.7820 -0.7392  0.4055
 3834SOL    HW112322   4.780   3.486   3.425  0.8329 -0.1786 -0.4646
 3834SOL    HW212323   4.674   3.602   3.471  0.6178  0.3849 -2.2800
 3835SOL     OW12324   3.324   2.032   6.316  0.1823 -0.3685  0.0103
 3835SOL    HW112325   3.420   2.005   6.321  0.5854  0.5298 -1.8658
 3835SOL    HW212326   3.312   2.122   6.357  0.1580 -0.4458  0.1726
 3836SOL     OW12327   4.264   3.285   0.759  0.2686 -0.0321 -0.1948
 3836SOL    HW112328   4.230   3.246   0.845 -1.6126 -0.7475 -1.1815
 3836SOL    HW212329   4.201   3.260   0.685  0.8035  2.1209 -1.4708
 3837SOL     OW12330   0.534   1.142   0.455  0.0912 -0.2379  0.1490
 3837SOL    HW112331   0.629   1.172   0.461 -0.3778  1.9377 -1.7823
 3837SOL    HW212332   0.473   1.220   0.468 -1.3270 -1.0027 -1.4242
 3838SOL     OW12333   0.092   6.015   1.944 -0.0977 -0.1129 -0.3098
 3838SOL    HW112334   0.091   6.038   1.847 -0.5157 -1.9135 -0.7704
 3838SOL    HW212335   0.125   5.922   1.957  2.7049  1.0169  1.5576
 3839SOL     OW12336   2.096   3.432   2.040 -0.0383  0.4291  0.3886
 3839SOL    HW112337   2.139   3.350   2.079  1.3370  0.5924 -0.6990
 3839SOL    HW212338   2.076   3.416   1.943  1.4498  1.7936 -0.1815
 3840SOL     OW12339   4.699   2.607   3.564 -0.3283 -0.0383  0.2233
 3840SOL    HW112340   4.677   2.551   3.484  0.7194  1.0768 -0.8864
 3840SOL    HW212341   4.615   2.632   3.612 -1.2487  1.2377 -1.9097
 3841SOL     OW12342   2.776   0.755   0.944  0.0689  0.1792  0.1594
 3841SOL    HW112343   2.862   0.716   0.910  0.9409  1.7082  0.5069
 3841SOL    HW212344   2.742   0.822   0.878 -1.1814 -0.8202 -0.2419
 3842SOL     OW12345   4.592   5.542   4.542  0.3025  0.4593 -0.2329
 3842SOL    HW112346   4.616   5.566   4.636  0.4578 -1.4738  0.2601
 3842SOL    HW212347   4.675   5.532   4.488  0.4775 -1.8532  0.3533
 3843SOL     OW12348   0.199   2.425   3.857 -0.1107  0.7878 -0.3100
 3843SOL    HW112349   0.263   2.463   3.791 -0.0287  0.0235 -0.6732
 3843SOL    HW212350   0.122   2.384   3.809  0.4496 -0.6981  0.0012
 3844SOL     OW12351   3.929   2.664   2.507  0.0719  0.2271 -0.2140
 3844SOL    HW112352   3.831   2.640   2.503  0.3758 -1.2110  0.1410
 3844SOL    HW212353   3.983   2.581   2.495  1.2359  0.7667  1.0642
 3845SOL     OW12354   5.768   4.800   1.548  0.1163 -0.0200  0.0816
 3845SOL    HW112355   5.700   4.727   1.552  0.3338 -0.3192 -1.1972
 3845SOL    HW212356   5.723   4.888   1.553 -0.5774 -0.1697 -2.3819
 3846SOL     OW12357   5.797   6.788   6.145 -0.1168 -0.0548  0.3650
 3846SOL    HW112358   5.725   6.838   6.097 -0.4482 -0.9218 -0.0590
 3846SOL    HW212359   5.759   6.706   6.187  1.0386 -1.9857 -2.1145
 3847SOL     OW12360   0.408   2.334   5.705 -0.2484  0.4777 -0.4448
 3847SOL    HW112361   0.345   2.368   5.635 -0.5751  0.4838 -0.1519
 3847SOL    HW212362   0.502   2.352   5.677 -0.3142 -0.5709 -1.4458
 3848SOL     OW12363   6.934   0.445   6.292  0.2458  0.1897  0.0399
 3848SOL    HW112364   6.840   0.476   6.300 -0.1009 -0.7483 -0.3481
 3848SOL    HW212365   6.936   0.351   6.259  1.3484  0.5043 -0.8534
 3849SOL     OW12366   4.638   4.703   6.051 -0.9807  0.2496 -0.4881
 3849SOL    HW112367   4.579   4.674   6.127  1.3571 -1.3869  0.7999
 3849SOL    HW212368   4.712   4.638   6.039 -0.0474  1.6172 -2.8288
 3850SOL     OW12369   6.061   3.658   0.345  0.4537 -0.3365 -0.4046
 3850SOL    HW112370   6.083   3.755   0.361  0.8543 -0.3469 -0.8731
 3850SOL    HW212371   6.142   3.611   0.310  0.4800 -1.0105  0.5151
 3851SOL     OW12372   2.216   1.078   2.445  0.6339 -0.6672  0.1206
 3851SOL    HW112373   2.153   1.063   2.521 -0.0417  1.7513  0.1284
 3851SOL    HW212374   2.302   1.115   2.480  0.2543  0.6277 -0.2559
 3852SOL     OW12375   4.376   2.457   3.855  0.0326 -0.1685  0.4311
 3852SOL    HW112376   4.332   2.374   3.891 -0.3459  0.4960  1.5602
 3852SOL    HW212377   4.434   2.497   3.926 -0.0104  0.6789 -0.0019
 3853SOL     OW12378   0.693   1.657   3.932  0.5603  0.3534  0.4111
 3853SOL    HW112379   0.749   1.591   3.982 -0.5946 -0.1351  1.0975
 3853SOL    HW212380   0.645   1.610   3.857 -2.1153 -0.1979  2.3231
 3854SOL     OW12381   0.667   2.590   0.192 -0.1277  0.2362 -0.0647
 3854SOL    HW112382   0.640   2.569   0.286 -0.4060 -2.6942 -0.7036
 3854SOL    HW212383   0.587   2.583   0.132  0.2245  1.1655 -0.6652
 3855SOL     OW12384   5.834   4.004   0.237  0.3923 -0.1015  0.3352
 3855SOL    HW112385   5.930   3.985   0.219  1.0986  1.7626  1.7728
 3855SOL    HW212386   5.815   4.100   0.217 -1.2807 -0.5181 -0.2444
 3856SOL     OW12387   2.573   6.112   6.214 -0.1703  0.1214  0.1985
 3856SOL    HW112388   2.631   6.122   6.295 -0.1179 -0.2203  0.2029
 3856SOL    HW212389   2.630   6.114   6.131  0.0213 -1.5638  0.2523
 3857SOL     OW12390   2.070   6.271   4.873  0.4028 -0.5028  0.6135
 3857SOL    HW112391   2.149   6.210   4.880  0.0176 -0.8042  3.3403
 3857SOL    HW212392   2.074   6.340   4.945 -0.6027  1.0146 -0.7183
 3858SOL     OW12393   6.376   6.138   1.587 -0.1181  0.1959  0.3367
 3858SOL    HW112394   6.392   6.222   1.536 -0.8427 -0.0068 -0.2455
 3858SOL    HW212395   6.456   6.077   1.577 -0.1161  0.2933 -0.2881
 3859SOL     OW12396   3.307   0.894   5.933 -0.4964 -0.4707 -0.0341
 3859SOL    HW112397   3.280   0.978   5.980  0.3016 -0.3911  0.3092
 3859SOL    HW212398   3.382   0.915   5.870 -0.6932 -0.8201 -0.3871
 3860SOL     OW12399   0.317   0.664   2.420  0.2124 -0.0146  0.6465
 3860SOL    HW112400   0.232   0.715   2.409  0.1699 -0.1488  0.3580
 3860SOL    HW212401   0.307   0.598   2.494  0.8280  1.5838  2.2479
 3861SOL     OW12402   4.910   3.323   6.443  0.7099  0.8206 -0.1711
 3861SOL    HW112403   4.873   3.392   6.380 -0.0344 -0.4035 -1.1204
 3861SOL    HW212404   4.880   3.343   6.536 -0.7916  0.9383 -0.6564
 3862SOL     OW12405   1.866   1.895   5.938 -0.5927 -0.3608  0.0668
 3862SOL    HW112406   1.916   1.909   6.023  1.0609 -1.2440 -0.7027
 3862SOL    HW212407   1.875   1.799   5.910  1.6606  0.5074 -2.6701
 3863SOL     OW12408   2.528   0.237   6.489 -0.1816 -0.4208  0.4307
 3863SOL    HW112409   2.548   0.285   6.575 -1.1439  0.1309  0.3650
 3863SOL    HW212410   2.609   0.238   6.431  0.0205  0.5705  0.7043
 3864SOL     OW12411   4.772   3.046   6.369 -0.0031  0.0591  0.6275
 3864SOL    HW112412   4.720   3.011   6.447  0.2486  0.4674  0.9826
 3864SOL    HW212413   4.793   3.143   6.384 -1.9501  0.8090 -0.9731
 3865SOL     OW12414   1.182   1.926   2.560  0.8890 -0.6888  0.3329
 3865SOL    HW112415   1.268   1.914   2.610  0.8842 -0.2901  0.4354
 3865SOL    HW212416   1.192   1.893   2.467  0.8448 -1.6260  0.6479
 3866SOL     OW12417   2.978   0.110   1.623  0.3322  0.4121 -0.4235
 3866SOL    HW112418   3.007   0.037   1.560 -1.0925 -1.6486  1.1853
 3866SOL    HW212419   2.944   0.188   1.570  0.8765 -0.4886 -2.1942
 3867SOL     OW12420   1.446   4.591   0.410 -0.2449  0.2880  0.9676
 3867SOL    HW112421   1.375   4.522   0.420  0.4047 -0.2634  1.9152
 3867SOL    HW212422   1.521   4.573   0.474  1.3406  0.1462 -0.8073
 3868SOL     OW12423   5.160   3.398   5.815  0.2908  0.1680  0.0984
 3868SOL    HW112424   5.123   3.354   5.897  0.2636 -1.2032 -0.6319
 3868SOL    HW212425   5.185   3.493   5.837 -1.1097  0.2993  1.2993
 3869SOL     OW12426   3.176   1.685   1.476  0.2026 -0.6339 -0.2989
 3869SOL    HW112427   3.091   1.635   1.493 -0.5826  0.7837  0.1663
 3869SOL    HW212428   3.154   1.779   1.451  1.6562  0.1490  1.1560
 3870SOL     OW12429   1.422   6.079   5.208  0.4733  0.4764 -0.4343
 3870SOL    HW112430   1.392   6.153   5.269  0.3951  0.7458 -0.7920
 3870SOL    HW212431   1.516   6.098   5.177  1.7829 -1.2888  2.1371
 3871SOL     OW12432   4.005   2.143   1.234  0.5787  0.2410  0.9387
 3871SOL    HW112433   4.082   2.148   1.171  0.2298  0.5387  0.5245
 3871SOL    HW212434   3.929   2.095   1.191  0.7540 -0.6387  1.5882
 3872SOL     OW12435   1.148   2.889   1.245 -0.8283 -0.2760  0.0256
 3872SOL    HW112436   1.205   2.914   1.167  0.8354 -0.4961  1.1127
 3872SOL    HW212437   1.102   2.802   1.226  0.2330 -0.7663 -0.3961
 3873SOL     OW12438   6.372   6.538   4.077  0.0091 -0.0762  0.0538
 3873SOL    HW112439   6.427   6.479   4.018  1.1886  0.7873  0.2339
 3873SOL    HW212440   6.309   6.592   4.022 -1.4683 -1.8509 -0.0653
 3874SOL     OW12441   2.081   2.804   1.082 -0.1404  0.5558 -0.3088
 3874SOL    HW112442   2.005   2.742   1.103 -0.6776  0.5752 -2.0141
 3874SOL    HW212443   2.161   2.750   1.057 -0.4468  0.5198 -1.2584
 3875SOL     OW12444   5.829   1.781   0.877 -0.6231 -0.4112  0.1401
 3875SOL    HW112445   5.774   1.730   0.942  0.7942 -1.0747  0.8730
 3875SOL    HW212446   5.825   1.737   0.787 -0.3254 -1.1680  0.4902
 3876SOL     OW12447   0.881   3.399   2.345  0.1791 -0.0769 -0.8295
 3876SOL    HW112448   0.830   3.313   2.339  0.1355 -0.5235  3.0758
 3876SOL    HW212449   0.963   3.384   2.400  2.3249  1.6035 -3.3644
 3877SOL     OW12450   4.057   5.685   1.835  0.2371 -0.1358  0.1626
 3877SOL    HW112451   4.078   5.628   1.915  0.6105  1.4615  1.2619
 3877SOL    HW212452   4.010   5.630   1.766  0.4842 -1.7273  1.2058
 3878SOL     OW12453   5.445   5.982   2.035  0.0142 -0.2039  0.2045
 3878SOL    HW112454   5.349   6.008   2.039 -0.2001 -0.7646 -1.0457
 3878SOL    HW212455   5.462   5.926   1.954  1.5558  0.5171 -0.0078
 3879SOL     OW12456   0.030   5.243   3.707  0.2064 -0.3718 -0.3554
 3879SOL    HW112457   0.062   5.331   3.743 -0.4785  0.1646 -1.0291
 3879SOL    HW212458   0.091   5.213   3.634  1.3031 -1.2118  0.8556
 3880SOL     OW12459   1.460   3.947   0.847  0.3516  0.0688  0.1402
 3880SOL    HW112460   1.412   4.029   0.815  0.5627  0.4683  0.8202
 3880SOL    HW212461   1.530   3.973   0.913 -0.0290 -0.7304  0.8722
 3881SOL     OW12462   1.800   4.636   4.335  0.3681 -0.7533  0.5009
 3881SOL    HW112463   1.747   4.673   4.259  1.7317  0.1653 -0.0428
 3881SOL    HW212464   1.884   4.594   4.299 -0.5661 -3.4565  1.1878
 3882SOL     OW12465   6.732   6.722   6.365  0.4616 -0.2881  0.1200
 3882SOL    HW112466   6.651   6.691   6.316 -0.7330  0.0049  1.7966
 3882SOL    HW212467   6.803   6.652   6.360 -1.1380 -2.1157  1.4496
 3883SOL     OW12468   2.681   2.693   1.004 -0.4283 -0.5997 -0.5842
 3883SOL    HW112469   2.589   2.714   0.971 -0.7323 -1.4426 -0.2863
 3883SOL    HW212470   2.691   2.594   1.015  0.7698 -0.5842 -1.3672
 3884SOL     OW12471   0.118   5.008   6.512 -0.7152 -0.7822 -0.1497
 3884SOL    HW112472   0.091   4.978   6.604 -1.1972  2.0397  0.7198
 3884SOL    HW212473   0.049   4.977   6.446  0.0042 -3.4778  0.2328
 3885SOL     OW12474   4.579   3.297   6.610 -0.2876 -0.0547  0.2956
 3885SOL    HW112475   4.540   3.222   6.662  1.0314 -1.3620 -0.5138
 3885SOL    HW212476   4.574   3.276   6.512  1.1625  0.3293  0.1075
 3886SOL     OW12477   5.919   5.191   6.607  0.1567 -0.6917  0.3181
 3886SOL    HW112478   5.827   5.153   6.623 -0.0056  0.0474  1.2808
 3886SOL    HW212479   5.983   5.150   6.671  0.4443 -0.9895 -0.1578
 3887SOL     OW12480   0.743   4.541   6.888  0.1797  0.3065  0.1592
 3887SOL    HW112481   0.801   4.621   6.900  0.0234  0.5312 -0.5151
 3887SOL    HW212482   0.666   4.565   6.829  0.6759 -0.5958 -0.8847
 3888SOL     OW12483   2.383   0.915   1.466 -0.0757 -0.0513 -0.0979
 3888SOL    HW112484   2.300   0.936   1.415 -1.0011  0.0041  1.3567
 3888SOL    HW212485   2.362   0.847   1.537  0.0597  2.8234  2.9659
 3889SOL     OW12486   4.461   1.140   4.052  0.1612  0.1171  0.0562
 3889SOL    HW112487   4.461   1.240   4.064  0.7945  0.1928 -0.4875
 3889SOL    HW212488   4.480   1.119   3.956  1.6820 -0.5487  0.4840
 3890SOL     OW12489   3.552   6.688   6.565 -0.1711  0.0404  0.3788
 3890SOL    HW112490   3.467   6.734   6.588 -0.3526 -1.3911  2.9947
 3890SOL    HW212491   3.628   6.732   6.613  0.4384  0.6394 -1.0784
 3891SOL     OW12492   3.925   2.026   2.992 -0.5810 -0.2761 -0.0325
 3891SOL    HW112493   3.871   2.099   2.950 -2.0413 -0.7153  1.0013
 3891SOL    HW212494   3.921   1.944   2.935  0.3612  0.1741 -0.7688
 3892SOL     OW12495   1.150   5.263   3.940  0.2044 -0.0400 -0.1365
 3892SOL    HW112496   1.069   5.315   3.912 -0.5446 -1.4211 -0.6161
 3892SOL    HW212497   1.212   5.254   3.862 -0.4039 -1.1890 -0.5003
 3893SOL     OW12498   2.117   3.118   5.435  0.4216 -0.0688  0.4570
 3893SOL    HW112499   2.132   3.024   5.465  1.2952  0.3697  1.4728
 3893SOL    HW212500   2.202   3.170   5.443 -0.5363  1.3785  2.0917
 3894SOL     OW12501   4.089   5.510   2.334 -0.3343  0.8389 -0.4024
 3894SOL    HW112502   4.044   5.526   2.246 -0.6556  0.1036 -0.3775
 3894SOL    HW212503   4.092   5.412   2.352  1.8720  0.7910 -0.7199
 3895SOL     OW12504   5.997   0.114   4.414 -0.2602 -0.4113  0.2191
 3895SOL    HW112505   6.042   0.165   4.340  0.7411  0.2168  1.2349
 3895SOL    HW212506   5.899   0.107   4.394 -0.5451  2.3611  0.2668
 3896SOL     OW12507   6.447   3.540   0.454  0.1665  0.4822  0.5033
 3896SOL    HW112508   6.445   3.606   0.379  2.1934  1.6855  1.4252
 3896SOL    HW212509   6.538   3.499   0.460 -0.3703 -0.6284  1.4544
 3897SOL     OW12510   1.625   1.541   6.824  0.3317  0.4209 -0.2447
 3897SOL    HW112511   1.542   1.491   6.798 -0.8418  3.4457 -2.9652
 3897SOL    HW212512   1.599   1.633   6.855  2.6345  1.4283 -1.1201
 3898SOL     OW12513   6.213   3.587   2.690 -0.4242 -0.1839  0.0522
 3898SOL    HW112514   6.238   3.681   2.715 -3.2464  0.2059  1.8971
 3898SOL    HW212515   6.287   3.546   2.637  0.5192  3.3934 -1.7490
 3899SOL     OW12516   1.190   3.006   4.627 -0.0992 -0.2593 -0.6153
 3899SOL    HW112517   1.129   2.982   4.703 -0.7603  3.3047  0.1619
 3899SOL    HW212518   1.283   2.973   4.647 -0.5018 -0.3905  1.1975
 3900SOL     OW12519   5.379   3.983   1.516 -0.3053 -0.1769 -0.7870
 3900SOL    HW112520   5.309   3.967   1.447  0.2484  1.4745 -1.7720
 3900SOL    HW212521   5.465   3.939   1.486 -0.2380 -0.0114 -0.8375
 3901SOL     OW12522   0.320   6.952   1.429 -0.5724 -0.4053 -0.4519
 3901SOL    HW112523   0.227   6.977   1.457 -0.8266 -1.7253 -0.0501
 3901SOL    HW212524   0.335   6.982   1.334 -0.8479  1.1876 -0.0271
 3902SOL     OW12525   0.565   6.748   6.823 -0.1734  0.2494 -0.4552
 3902SOL    HW112526   0.490   6.811   6.843 -0.2762  0.6925 -2.0992
 3902SOL    HW212527   0.642   6.798   6.783  0.4944 -0.3910 -0.0014
 3903SOL     OW12528   0.530   5.716   3.328  0.3193 -0.1169  0.0784
 3903SOL    HW112529   0.466   5.720   3.404  1.1155 -0.0386  0.7613
 3903SOL    HW212530   0.581   5.630   3.331  1.9742  0.8408  1.0118
 3904SOL     OW12531   6.772   4.510   1.326 -0.1694 -0.5405  0.0240
 3904SOL    HW112532   6.749   4.577   1.256 -1.7113 -0.5804  0.4495
 3904SOL    HW212533   6.768   4.552   1.416 -1.8542 -1.3227  0.3538
 3905SOL     OW12534   3.777   2.634   6.835  0.2270  0.2004 -0.7205
 3905SOL    HW112535   3.819   2.681   6.757  1.2005 -0.7970 -0.8108
 3905SOL    HW212536   3.843   2.626   6.909  0.0527 -0.9596 -0.6756
 3906SOL     OW12537   3.086   0.238   1.838  0.3076 -0.7127 -0.3452
 3906SOL    HW112538   3.036   0.195   1.762 -0.0501 -0.6247 -0.1638
 3906SOL    HW212539   3.184   0.220   1.828  0.1923 -1.3312 -0.4296
 3907SOL     OW12540   2.220   0.567   2.449 -0.2060 -0.1725 -0.0530
 3907SOL    HW112541   2.274   0.486   2.425 -1.5715 -0.5689 -1.9906
 3907SOL    HW212542   2.205   0.569   2.548 -0.7798 -2.7150 -0.0168
 3908SOL     OW12543   6.603   3.422   5.387  0.1092 -0.3246 -0.3823
 3908SOL    HW112544   6.665   3.343   5.391  1.2374  0.5447 -0.0243
 3908SOL    HW212545   6.593   3.450   5.292  0.3347 -0.4182 -0.4354
 3909SOL     OW12546   3.604   5.755   4.879  0.2911 -0.3953  0.0992
 3909SOL    HW112547   3.574   5.750   4.784 -0.8346 -0.9021  0.4510
 3909SOL    HW212548   3.686   5.700   4.892  1.6177  1.2301 -0.9587
 3910SOL     OW12549   3.482   1.389   6.407  0.2920 -0.2255 -0.2408
 3910SOL    HW112550   3.478   1.393   6.507 -1.9010 -1.1090 -0.2277
 3910SOL    HW212551   3.528   1.471   6.372  0.5877  0.3753  1.4641
 3911SOL     OW12552   6.297   1.700   3.112  0.0375 -0.4053 -0.8346
 3911SOL    HW112553   6.345   1.647   3.041  1.6005  0.7557 -0.6811
 3911SOL    HW212554   6.254   1.779   3.070 -0.8271 -0.8421 -0.7902
 3912SOL     OW12555   0.988   0.481   0.058  0.5418 -0.4061 -0.2914
 3912SOL    HW112556   1.043   0.439   0.129 -1.3956 -0.8540  1.0204
 3912SOL    HW212557   0.987   0.581   0.070  3.3770 -0.0363 -2.1204
 3913SOL     OW12558   2.480   0.214   3.049 -0.3997  0.0103 -0.1257
 3913SOL    HW112559   2.473   0.293   3.110  3.0880 -0.3742  0.9752
 3913SOL    HW212560   2.415   0.144   3.078 -1.6285  1.3679  0.5591
 3914SOL     OW12561   6.369   1.445   6.537  0.4336 -0.3518 -0.2000
 3914SOL    HW112562   6.440   1.434   6.467 -0.5299  0.0517 -1.2812
 3914SOL    HW212563   6.379   1.535   6.580 -0.3327  0.3708 -1.4566
 3915SOL     OW12564   3.344   3.819   1.689  0.0006 -0.5215 -0.2554
 3915SOL    HW112565   3.315   3.725   1.706 -0.7874 -0.2338  0.0095
 3915SOL    HW212566   3.284   3.883   1.737  1.6542  0.0731  1.1205
 3916SOL     OW12567   3.697   0.610   4.445  0.2924 -0.1055 -0.2678
 3916SOL    HW112568   3.775   0.547   4.440  0.4182  0.1251 -2.0702
 3916SOL    HW212569   3.619   0.564   4.488  1.7041  0.0121  2.5857
 3917SOL     OW12570   5.373   6.480   5.288  0.1367 -0.1536  0.0876
 3917SOL    HW112571   5.440   6.517   5.351 -1.3545  2.1729  0.4215
 3917SOL    HW212572   5.412   6.402   5.239  2.5220  0.2074  1.3020
 3918SOL     OW12573   1.868   1.669   1.773 -0.2361 -0.5501  0.3486
 3918SOL    HW112574   1.861   1.758   1.819 -0.5037 -0.4831  0.1783
 3918SOL    HW212575   1.895   1.599   1.840  3.6618  0.2718 -0.1408
 3919SOL     OW12576   2.474   1.355   3.411  0.3206 -0.1473  0.2941
 3919SOL    HW112577   2.573   1.341   3.402  0.3783  0.0235  0.6559
 3919SOL    HW212578   2.429   1.325   3.327  0.6184 -0.8177  0.3636
 3920SOL     OW12579   4.835   2.409   6.162  0.2868 -0.1987  0.1448
 3920SOL    HW112580   4.796   2.472   6.095 -0.5298  1.5133  2.1073
 3920SOL    HW212581   4.928   2.439   6.186  0.7996 -1.1376 -0.5889
 3921SOL     OW12582   5.879   2.074   6.678  0.4894  0.0368 -0.1114
 3921SOL    HW112583   5.779   2.073   6.671  0.5296  0.9535 -1.2026
 3921SOL    HW212584   5.906   2.111   6.767 -0.1710  1.6325 -0.5266
 3922SOL     OW12585   1.453   3.337   0.108  0.4658  0.0936 -0.1572
 3922SOL    HW112586   1.540   3.292   0.087  1.4765  2.3398 -1.1059
 3922SOL    HW212587   1.440   3.339   0.208  2.0150  0.6088  0.0619
 3923SOL     OW12588   6.484   2.539   1.206  0.3093  0.0743  0.1692
 3923SOL    HW112589   6.406   2.595   1.178 -1.0828 -1.5256  0.6576
 3923SOL    HW212590   6.479   2.522   1.304  0.4302 -1.2233 -0.0282
 3924SOL     OW12591   2.367   2.785   0.870 -0.5036  0.3073  0.3242
 3924SOL    HW112592   2.355   2.741   0.781  0.4106 -0.2434  0.4582
 3924SOL    HW212593   2.310   2.738   0.938  1.7036 -1.8839  0.8302
 3925SOL     OW12594   2.312   0.956   2.762  0.2252 -0.1077 -0.3732
 3925SOL    HW112595   2.408   0.984   2.756 -0.0104  0.6237 -0.8648
 3925SOL    HW212596   2.253   1.035   2.744 -0.4734 -0.5055  0.1232
 3926SOL     OW12597   1.375   0.746   6.141  0.3701  1.3281  0.2118
 3926SOL    HW112598   1.289   0.713   6.181 -0.3024  1.2090 -1.2706
 3926SOL    HW212599   1.439   0.768   6.214 -0.2743 -0.2832  1.3349
 3927SOL     OW12600   0.657   5.717   6.414  0.1479  0.4704  0.6478
 3927SOL    HW112601   0.669   5.678   6.506 -0.0551 -0.3545  0.3360
 3927SOL    HW212602   0.721   5.673   6.351  0.4043  1.1594  0.4242
 3928SOL     OW12603   6.459   5.775   3.347  0.0545  0.4488 -0.2911
 3928SOL    HW112604   6.516   5.701   3.312 -1.9937 -0.2680 -2.3123
 3928SOL    HW212605   6.420   5.749   3.435 -0.4935 -0.8122 -0.8919
 3929SOL     OW12606   5.216   0.672   4.901  0.1103  0.4148  0.2550
 3929SOL    HW112607   5.179   0.599   4.959 -0.2631  0.0769 -0.3957
 3929SOL    HW212608   5.190   0.655   4.806  1.6520  0.3712 -0.1753
 3930SOL     OW12609   5.621   4.564   5.776  0.1943 -0.6462  0.3138
 3930SOL    HW112610   5.688   4.628   5.814 -0.7377  1.7886 -1.8411
 3930SOL    HW212611   5.648   4.470   5.798  4.5416  0.1424 -0.8086
 3931SOL     OW12612   2.239   4.041   6.190 -0.1092 -0.3713 -0.4195
 3931SOL    HW112613   2.158   4.089   6.224 -0.0070  1.1903 -2.2190
 3931SOL    HW212614   2.211   3.971   6.124  0.0061  0.7242 -1.6680
 3932SOL     OW12615   6.641   4.293   0.165  0.5670 -0.0647 -0.5412
 3932SOL    HW112616   6.614   4.268   0.257  0.0383 -0.1721 -0.7199
 3932SOL    HW212617   6.681   4.385   0.165 -1.9074  1.1000 -0.5744
 3933SOL     OW12618   6.801   3.426   0.763  0.6408 -0.1418 -0.0303
 3933SOL    HW112619   6.836   3.484   0.837 -0.9569  1.8665 -0.7615
 3933SOL    HW212620   6.864   3.428   0.686 -0.2645  2.2549 -0.7789
 3934SOL     OW12621   0.772   3.260   3.128 -0.4345  0.0019  0.6536
 3934SOL    HW112622   0.780   3.341   3.186 -0.3582  1.3699 -1.1606
 3934SOL    HW212623   0.675   3.241   3.110 -0.4589 -0.4346  1.1988
 3935SOL     OW12624   3.308   4.935   6.068  0.0971  0.1000  0.0817
 3935SOL    HW112625   3.225   4.888   6.099  0.4402 -0.3375  0.3377
 3935SOL    HW212626   3.338   5.000   6.138  0.7433 -0.7258  0.5872
 3936SOL     OW12627   1.817   4.459   2.110 -0.4160  0.4522  0.8556
 3936SOL    HW112628   1.888   4.502   2.055 -0.9080  1.5195  1.0222
 3936SOL    HW212629   1.859   4.407   2.184  0.4350 -3.4418 -2.0227
 3937SOL     OW12630   4.251   1.394   4.335  0.2442 -0.3958  0.1680
 3937SOL    HW112631   4.276   1.470   4.396 -0.7369  0.3173 -0.2907
 3937SOL    HW212632   4.231   1.313   4.391  1.3079 -0.3432  0.6619
 3938SOL     OW12633   5.570   4.066   2.030 -0.1796 -0.1126  0.0873
 3938SOL    HW112634   5.620   4.105   2.108 -1.6536  0.3288  0.8444
 3938SOL    HW212635   5.521   4.138   1.982 -1.5626 -0.7477  0.4737
 3939SOL     OW12636   0.430   5.069   0.405  0.6105  0.6884 -0.3499
 3939SOL    HW112637   0.337   5.104   0.395  1.7035  3.9400 -0.4969
 3939SOL    HW212638   0.483   5.093   0.323  1.7698 -0.4622  0.0357
 3940SOL     OW12639   4.043   6.849   4.113  0.0204  0.6808  0.1703
 3940SOL    HW112640   3.953   6.832   4.073 -1.2699 -0.2200  3.1844
 3940SOL    HW212641   4.042   6.937   4.160  0.7597  0.6826  0.1901
 3941SOL     OW12642   2.176   5.712   3.988 -0.1472 -0.0961  0.6087
 3941SOL    HW112643   2.117   5.675   3.916  0.1516  0.2292  0.1878
 3941SOL    HW212644   2.159   5.810   3.997 -0.4397 -0.2003  1.2342
 3942SOL     OW12645   6.117   2.815   4.566  0.3041 -0.1082 -0.5824
 3942SOL    HW112646   6.193   2.877   4.583  0.7061 -0.8581  0.4774
 3942SOL    HW212647   6.147   2.741   4.506  0.9922 -1.3895  1.2274
 3943SOL     OW12648   1.953   0.024   4.452  0.0459  0.4230  0.0410
 3943SOL    HW112649   2.051   0.038   4.463 -0.1556  1.8872  0.1861
 3943SOL    HW212650   1.905   0.063   4.531 -0.5669 -1.8484  0.8488
 3944SOL     OW12651   0.119   5.072   5.200  0.2872  0.3313  0.3411
 3944SOL    HW112652   0.039   5.061   5.141  1.6851 -1.1003 -1.4144
 3944SOL    HW212653   0.187   5.127   5.153  0.3468  1.6243  1.8642
 3945SOL     OW12654   0.175   3.122   1.883  0.3820  0.1425  0.0929
 3945SOL    HW112655   0.120   3.141   1.964  1.1488 -1.4563  1.0292
 3945SOL    HW212656   0.257   3.180   1.883  0.3922  0.1261  0.4748
 3946SOL     OW12657   4.319   2.011   6.307 -0.3146  0.3612 -0.8545
 3946SOL    HW112658   4.402   2.014   6.362 -0.0227  1.1041 -1.3127
 3946SOL    HW212659   4.342   2.028   6.211 -1.2252  2.8574 -0.7017
 3947SOL     OW12660   3.784   4.295   6.824 -0.2020 -0.0944 -0.0072
 3947SOL    HW112661   3.775   4.199   6.797 -0.1727  0.1719 -1.0049
 3947SOL    HW212662   3.858   4.304   6.891 -0.4326 -0.8099  0.3553
 3948SOL     OW12663   2.869   0.320   6.948 -0.1058  0.0861  0.8725
 3948SOL    HW112664   2.819   0.407   6.947  0.2166  0.3084 -1.2847
 3948SOL    HW212665   2.803   0.245   6.942 -0.3130  0.3658 -1.4960
 3949SOL     OW12666   4.332   3.048   2.322  0.7276  0.4394  0.0907
 3949SOL    HW112667   4.317   3.033   2.225 -2.1688  0.5781  0.4263
 3949SOL    HW212668   4.307   2.966   2.373  0.0928  1.0652  0.8198
 3950SOL     OW12669   6.149   4.380   1.043  0.3387 -0.2227  0.3443
 3950SOL    HW112670   6.197   4.330   0.972 -1.2681 -0.7314 -0.4269
 3950SOL    HW212671   6.193   4.364   1.132  2.4488  0.5338 -0.5087
 3951SOL     OW12672   4.775   0.217   5.882  0.0308 -0.4103  0.3507
 3951SOL    HW112673   4.681   0.237   5.856 -0.2210 -2.3414 -0.3925
 3951SOL    HW212674   4.837   0.259   5.816 -0.3470  0.1476  0.3487
 3952SOL     OW12675   3.942   5.179   6.149 -0.3297  0.3790 -0.1581
 3952SOL    HW112676   3.995   5.160   6.232  0.4310  4.0854  0.3815
 3952SOL    HW212677   3.848   5.203   6.174 -0.4234  0.3690 -0.5021
 3953SOL     OW12678   4.960   5.352   4.710 -0.1904 -0.3464  0.0019
 3953SOL    HW112679   4.882   5.329   4.769  0.8585 -3.3440  0.4232
 3953SOL    HW212680   5.044   5.347   4.763  0.5348 -0.2610 -1.1150
 3954SOL     OW12681   3.236   3.196   0.890 -0.6443  0.2184  0.1065
 3954SOL    HW112682   3.240   3.184   0.791 -0.4106 -3.1016  0.4062
 3954SOL    HW212683   3.144   3.177   0.923 -1.0249  2.4574  0.4848
 3955SOL     OW12684   3.266   1.283   0.216  0.2422  0.6213  0.9236
 3955SOL    HW112685   3.361   1.315   0.206  0.0152  0.9307 -0.3291
 3955SOL    HW212686   3.246   1.214   0.147  0.1491 -0.9490  2.4526
 3956SOL     OW12687   1.773   6.862   5.518 -0.0302  0.1957  0.1673
 3956SOL    HW112688   1.713   6.845   5.596 -0.9966  1.0443 -0.3745
 3956SOL    HW212689   1.865   6.884   5.551 -0.1524 -0.4967  1.0219
 3957SOL     OW12690   1.654   1.595   6.039  0.1750  0.0437 -0.4622
 3957SOL    HW112691   1.579   1.639   5.989  0.3835 -1.5461 -2.3106
 3957SOL    HW212692   1.741   1.623   5.999  0.4872  0.4573  0.4866
 3958SOL     OW12693   5.952   1.151   5.112  0.3969  0.5875 -0.2756
 3958SOL    HW112694   6.023   1.136   5.181  1.7517 -0.6519 -1.8681
 3958SOL    HW212695   5.899   1.067   5.101  0.2200  0.7679 -0.7792
 3959SOL     OW12696   4.713   0.627   3.523  0.2988 -0.7928 -0.1223
 3959SOL    HW112697   4.789   0.619   3.588  0.5032  1.7586  0.0387
 3959SOL    HW212698   4.708   0.720   3.489 -0.5655 -1.7689 -2.9211
 3960SOL     OW12699   0.354   6.918   6.831 -0.1547  0.1119 -0.4151
 3960SOL    HW112700   0.298   6.843   6.798 -1.5734  0.4302  1.1730
 3960SOL    HW212701   0.324   6.946   6.922  2.6704  0.2249  0.5806
 3961SOL     OW12702   2.800   5.664   2.669 -0.1806  0.3563 -0.2965
 3961SOL    HW112703   2.759   5.581   2.631  2.2365 -1.3577  0.6020
 3961SOL    HW212704   2.893   5.675   2.632 -0.5076  2.8095 -0.5241
 3962SOL     OW12705   4.772   6.255   2.526  0.5460  0.0818  0.4417
 3962SOL    HW112706   4.780   6.354   2.516  0.1104  0.0152 -0.6204
 3962SOL    HW212707   4.829   6.225   2.603  0.4609  1.1833  0.9633
 3963SOL     OW12708   1.431   4.886   2.661  0.1558 -0.0845  0.2239
 3963SOL    HW112709   1.351   4.864   2.605  1.5227 -3.6243 -0.5991
 3963SOL    HW212710   1.496   4.939   2.606 -1.3484  2.5611  0.8102
 3964SOL     OW12711   3.849   6.551   5.771 -0.6660  0.2022 -0.0801
 3964SOL    HW112712   3.773   6.611   5.798 -0.6472  0.6570 -1.0160
 3964SOL    HW212713   3.846   6.535   5.673 -0.9366 -1.7269  0.2045
 3965SOL     OW12714   6.382   5.546   6.024  0.2560  0.1410  0.4617
 3965SOL    HW112715   6.375   5.615   6.096  0.4334  0.3411  0.2869
 3965SOL    HW212716   6.403   5.590   5.937  1.3051 -0.2183  0.5252
 3966SOL     OW12717   2.869   5.597   3.564 -0.4918  0.2387  0.4078
 3966SOL    HW112718   2.951   5.583   3.509 -1.3738  0.7044 -1.0679
 3966SOL    HW212719   2.862   5.694   3.588 -1.7079  0.6175 -1.3186
 3967SOL     OW12720   0.777   5.880   6.829 -0.4515 -0.2918  0.5318
 3967SOL    HW112721   0.862   5.871   6.778 -0.9087  1.3376 -0.6250
 3967SOL    HW212722   0.700   5.884   6.765 -1.0232  2.0476  1.2467
 3968SOL     OW12723   6.041   5.925   2.849  0.1916  0.7189 -0.2084
 3968SOL    HW112724   6.090   5.942   2.934  0.1371 -0.9408  0.2014
 3968SOL    HW212725   6.052   5.829   2.823  0.0888  1.1483 -2.0121
 3969SOL     OW12726   3.314   5.846   0.148  0.1517  0.6324  0.2250
 3969SOL    HW112727   3.261   5.783   0.092 -0.5877  1.3794  0.0698
 3969SOL    HW212728   3.411   5.834   0.129  0.0624 -0.7948  0.5509
 3970SOL     OW12729   5.958   2.869   3.908  0.0020 -0.5176  0.0567
 3970SOL    HW112730   6.021   2.937   3.870 -0.1076 -0.6429 -0.3559
 3970SOL    HW212731   5.941   2.889   4.004  0.4849 -0.3451  0.1075
 3971SOL     OW12732   4.831   1.381   4.609  0.0973  0.0027 -0.2250
 3971SOL    HW112733   4.856   1.477   4.597  0.8973 -0.3143 -1.2500
 3971SOL    HW212734   4.732   1.371   4.605 -0.1759  1.0667  2.1445
 3972SOL     OW12735   3.910   3.979   6.376  0.0468 -0.0985 -0.3656
 3972SOL    HW112736   3.977   3.911   6.345  2.1957  1.9831 -0.5808
 3972SOL    HW212737   3.930   4.067   6.334 -1.3041  1.2161  1.5586
 3973SOL     OW12738   4.768   6.433   4.885  0.4691 -0.3306 -0.3206
 3973SOL    HW112739   4.778   6.333   4.877 -0.7209 -0.4531 -0.4630
 3973SOL    HW212740   4.725   6.455   4.972 -1.5757 -0.1366 -1.3312
 3974SOL     OW12741   3.519   3.616   6.687  0.4609  0.2515  0.1840
 3974SOL    HW112742   3.475   3.703   6.664 -2.4115 -0.8765  0.9627
 3974SOL    HW212743   3.543   3.616   6.784  4.4192  1.6567 -0.6102
 3975SOL     OW12744   0.499   1.620   0.805  0.1439 -0.1540  0.0486
 3975SOL    HW112745   0.468   1.622   0.900  0.0136 -1.2920  0.0457
 3975SOL    HW212746   0.458   1.542   0.758  2.0344 -1.0038 -0.2927
 3976SOL     OW12747   3.011   6.608   3.509 -0.1280 -0.1389  0.7681
 3976SOL    HW112748   2.948   6.685   3.521  0.2229  0.0180  1.7504
 3976SOL    HW212749   3.091   6.638   3.457 -0.8381 -0.3281 -0.4477
 3977SOL     OW12750   3.541   2.291   2.444  0.0558  0.5327  0.6174
 3977SOL    HW112751   3.506   2.371   2.396 -2.1762  0.0308  1.2702
 3977SOL    HW212752   3.491   2.210   2.414  1.1885 -0.3815  1.1142
 3978SOL     OW12753   1.716   5.604   3.742 -0.1220  0.0681  0.1440
 3978SOL    HW112754   1.690   5.686   3.691  1.2787 -0.5439 -1.6442
 3978SOL    HW212755   1.814   5.606   3.760 -0.0293 -1.2881 -0.1086
 3979SOL     OW12756   3.093   5.143   0.687 -0.0359 -0.0511  0.3710
 3979SOL    HW112757   3.002   5.118   0.721 -1.1487  1.5202 -1.2497
 3979SOL    HW212758   3.093   5.136   0.587  1.2357  1.1435  0.2683
 3980SOL     OW12759   1.233   2.465   6.920 -0.2992 -0.3794  0.1993
 3980SOL    HW112760   1.282   2.383   6.951 -0.4467 -0.3618  0.4894
 3980SOL    HW212761   1.191   2.448   6.831 -0.3398 -0.6225  0.2653
 3981SOL     OW12762   3.103   3.696   3.570 -0.0600 -0.1393  0.3783
 3981SOL    HW112763   3.179   3.632   3.573  0.3018  0.3046  0.7560
 3981SOL    HW212764   3.137   3.790   3.574 -0.5484  0.1081 -0.8219
 3982SOL     OW12765   1.957   0.443   6.680 -0.1835  0.0668  0.2232
 3982SOL    HW112766   1.922   0.509   6.614 -1.0941  0.7907  1.3866
 3982SOL    HW212767   2.029   0.486   6.735 -0.6591  0.0356  0.8714
 3983SOL     OW12768   1.598   1.897   6.525 -0.5139 -0.1977 -0.1152
 3983SOL    HW112769   1.661   1.842   6.579 -0.3189 -0.2620 -0.4071
 3983SOL    HW212770   1.574   1.847   6.442 -2.2996 -0.9376  0.7843
 3984SOL     OW12771   6.890   2.616   5.307 -0.1130 -0.5183  0.1580
 3984SOL    HW112772   6.902   2.690   5.241  0.0735  0.9461  1.7849
 3984SOL    HW212773   6.895   2.652   5.400  1.0188 -2.7337  1.0341
 3985SOL     OW12774   1.480   2.159   4.190 -0.5708  0.1200  0.2855
 3985SOL    HW112775   1.446   2.184   4.281  0.4269 -0.0993  0.7314
 3985SOL    HW212776   1.441   2.071   4.163 -0.7618  0.1192  0.5612
 3986SOL     OW12777   2.506   0.071   0.781 -0.4002  0.3922 -0.1378
 3986SOL    HW112778   2.600   0.094   0.757  0.6804 -5.1425 -3.0382
 3986SOL    HW212779   2.505   0.020   0.868  0.0473 -2.2955 -1.5825
 3987SOL     OW12780   0.611   5.572   1.199  0.1623  0.2393 -0.2073
 3987SOL    HW112781   0.634   5.476   1.187  0.8717  0.3171  0.4666
 3987SOL    HW212782   0.691   5.622   1.233 -0.1123  1.1211 -0.7900
 3988SOL     OW12783   1.243   4.222   6.837 -0.0106  0.1854 -0.4534
 3988SOL    HW112784   1.296   4.222   6.922  0.9403 -0.2026 -1.0289
 3988SOL    HW212785   1.156   4.270   6.852  0.3683  0.5850  0.5846
 3989SOL     OW12786   5.848   2.372   3.466  0.0505 -0.5739 -0.5864
 3989SOL    HW112787   5.894   2.384   3.554  0.0707 -3.0893 -0.1593
 3989SOL    HW212788   5.757   2.412   3.470  1.1410  2.0663 -0.5188
 3990SOL     OW12789   2.789   6.693   1.659 -0.2022 -0.3188 -0.2129
 3990SOL    HW112790   2.778   6.607   1.710  0.7188 -1.1071 -1.3025
 3990SOL    HW212791   2.787   6.675   1.561  1.8601  0.6342 -0.4743
 3991SOL     OW12792   3.660   3.035   1.492  0.3740  0.6977 -0.3778
 3991SOL    HW112793   3.580   3.053   1.435 -0.0965  0.6632  0.2641
 3991SOL    HW212794   3.710   2.957   1.455 -1.4106 -1.0762  0.7316
 3992SOL     OW12795   3.289   6.633   6.219 -0.2973 -0.0929  0.0342
 3992SOL    HW112796   3.196   6.650   6.186 -0.1914 -0.3555 -0.4045
 3992SOL    HW212797   3.354   6.646   6.145  0.0796  0.6907  0.4956
 3993SOL     OW12798   3.260   1.093   5.655 -0.1708 -0.6823  0.0305
 3993SOL    HW112799   3.352   1.113   5.687 -0.3770 -1.2740  1.0453
 3993SOL    HW212800   3.252   0.995   5.635 -0.6841 -0.7120  0.3501
 3994SOL     OW12801   4.307   5.287   1.182 -0.1378 -0.0978 -0.4742
 3994SOL    HW112802   4.339   5.367   1.131 -1.1470 -0.0672 -1.0799
 3994SOL    HW212803   4.360   5.278   1.266  0.8170  0.4888 -0.9997
 3995SOL     OW12804   5.357   0.690   0.215 -0.0802  0.2811 -0.5742
 3995SOL    HW112805   5.446   0.666   0.251  0.4165  2.0072 -0.5641
 3995SOL    HW212806   5.366   0.765   0.150 -1.4300 -0.0860 -1.2361
 3996SOL     OW12807   4.810   5.692   1.553 -0.0831 -0.4665  0.3735
 3996SOL    HW112808   4.837   5.767   1.492  0.4579  0.5378  1.7947
 3996SOL    HW212809   4.753   5.728   1.627 -0.4882 -1.6035  0.6366
 3997SOL     OW12810   4.194   0.698   0.937  0.5172  0.2565 -0.4081
 3997SOL    HW112811   4.127   0.702   1.011  0.7788 -2.7976  0.1313
 3997SOL    HW212812   4.204   0.603   0.907  1.9342  1.1322 -3.0003
 3998SOL     OW12813   3.245   6.919   2.186 -0.5248 -0.0244  0.2330
 3998SOL    HW112814   3.337   6.890   2.210 -0.7888 -1.1539 -0.0795
 3998SOL    HW212815   3.247   7.014   2.155  0.1799  0.7534  2.4653
 3999SOL     OW12816   2.771   6.097   5.995  0.1512 -0.6621 -0.4664
 3999SOL    HW112817   2.811   6.176   5.949  0.8776 -0.0958  1.0533
 3999SOL    HW212818   2.811   6.013   5.957 -0.1365 -0.2935 -1.6356
 4000SOL     OW12819   0.696   2.526   3.891 -0.2068  0.2599 -0.6402
 4000SOL    HW112820   0.648   2.595   3.944 -2.3427 -2.4936  1.2492
 4000SOL    HW212821   0.789   2.514   3.927 -0.7736  0.1989  0.8294
 4001SOL     OW12822   4.263   6.562   5.745 -0.3844 -0.7057  0.2525
 4001SOL    HW112823   4.212   6.617   5.680 -0.4712 -0.4412  0.5447
 4001SOL    HW212824   4.346   6.527   5.701 -0.4300 -0.5084  0.0085
 4002SOL     OW12825   1.695   5.182   3.104  0.4537  0.0007  0.5116
 4002SOL    HW112826   1.700   5.244   3.026  1.3998  0.9466  1.2947
 4002SOL    HW212827   1.773   5.198   3.165 -0.8621  0.1351  2.2612
 4003SOL     OW12828   1.484   4.857   3.953  0.0949 -0.0508 -0.6771
 4003SOL    HW112829   1.503   4.895   3.863 -0.0117  1.1500 -0.2043
 4003SOL    HW212830   1.510   4.922   4.024 -0.4628 -0.6964  0.1475
 4004SOL     OW12831   6.740   4.045   4.303 -0.2740 -0.0155  0.1378
 4004SOL    HW112832   6.643   4.066   4.300 -0.2460  0.0355 -0.7009
 4004SOL    HW212833   6.781   4.090   4.382 -1.2840 -1.6823  1.6699
 4005SOL     OW12834   4.307   3.870   1.192  0.4331  0.3692 -0.5557
 4005SOL    HW112835   4.307   3.810   1.112  2.1764 -0.2971 -0.1156
 4005SOL    HW212836   4.397   3.865   1.237  0.1359  2.1931  0.3425
 4006SOL     OW12837   6.781   4.520   0.162  0.2054  0.2417 -0.4433
 4006SOL    HW112838   6.705   4.585   0.163 -0.2864 -0.3384  0.5543
 4006SOL    HW212839   6.864   4.567   0.133 -0.6312  0.7535 -2.1405
 4007SOL     OW12840   0.513   0.448   2.900 -0.5103  0.2101 -0.5725
 4007SOL    HW112841   0.517   0.406   2.810  0.5034  2.3075 -1.5716
 4007SOL    HW212842   0.605   0.476   2.928 -0.7521 -0.7438  1.3098
 4008SOL     OW12843   3.930   1.326   5.368 -0.1883  0.0265 -0.1836
 4008SOL    HW112844   3.928   1.227   5.376 -0.7841  0.0398 -0.1507
 4008SOL    HW212845   3.862   1.356   5.301  0.3075  0.3822 -0.5390
 4009SOL     OW12846   2.341   5.373   2.635  0.2446  0.1436 -0.3673
 4009SOL    HW112847   2.427   5.332   2.665  0.4988  0.3695 -0.7875
 4009SOL    HW212848   2.291   5.408   2.715  1.8838  2.6221 -0.3216
 4010SOL     OW12849   2.241   4.666   4.140 -0.7583 -0.0818  0.6830
 4010SOL    HW112850   2.313   4.597   4.148 -0.0620  0.6540  0.9466
 4010SOL    HW212851   2.254   4.717   4.055  0.3916  1.5046  1.7339
 4011SOL     OW12852   4.950   1.324   5.225 -0.0858  0.0430 -0.4908
 4011SOL    HW112853   4.907   1.234   5.222  0.4064 -0.2743  0.9362
 4011SOL    HW212854   5.047   1.316   5.203  0.2814 -0.0425  1.0161
 4012SOL     OW12855   2.820   3.393   0.925 -0.7213 -0.6054  0.2913
 4012SOL    HW112856   2.749   3.335   0.885 -0.3698 -1.8369  1.3574
 4012SOL    HW212857   2.862   3.345   1.003  0.9933  0.2512 -0.0465
 4013SOL     OW12858   2.621   4.783   4.744 -0.2548  0.2587 -0.3051
 4013SOL    HW112859   2.699   4.817   4.692 -0.6129  1.2440 -0.2109
 4013SOL    HW212860   2.640   4.690   4.775  1.1159  0.6765  0.1817
 4014SOL     OW12861   3.372   2.467   6.712 -1.0479  0.0699 -0.0486
 4014SOL    HW112862   3.334   2.410   6.785 -0.4096  0.0691  0.2969
 4014SOL    HW212863   3.431   2.537   6.753 -1.0511  0.3620 -0.5369
 4015SOL     OW12864   1.013   4.746   4.464  0.0754  0.2471  0.1443
 4015SOL    HW112865   0.922   4.749   4.424 -0.1532  0.6858  0.6891
 4015SOL    HW212866   1.012   4.790   4.554  0.4876 -1.0819  0.8236
 4016SOL     OW12867   5.281   5.774   2.222 -0.1476 -0.4348 -0.8242
 4016SOL    HW112868   5.202   5.764   2.282  1.0571 -0.4245  0.8348
 4016SOL    HW212869   5.263   5.846   2.155 -0.4705  1.7447  1.4470
 4017SOL     OW12870   1.871   4.994   0.313 -0.0896  0.5006  0.3495
 4017SOL    HW112871   1.917   4.969   0.228 -0.4999 -1.8523  0.7463
 4017SOL    HW212872   1.772   4.992   0.301 -0.1560 -0.0574  0.9256
 4018SOL     OW12873   0.014   1.727   0.872  0.4268  0.3211  0.2002
 4018SOL    HW112874  -0.034   1.711   0.786 -1.4578  2.5649  0.7209
 4018SOL    HW212875   0.014   1.644   0.926  0.3190 -0.7223 -1.3294
 4019SOL     OW12876   1.826   6.981   0.998 -0.3537 -0.1668  0.5047
 4019SOL    HW112877   1.918   6.944   0.985 -0.9375 -1.1142 -1.3720
 4019SOL    HW212878   1.760   6.905   1.004 -1.0334  0.4974  1.7101
 4020SOL     OW12879   6.054   1.159   0.723 -0.5735  0.3228 -0.5099
 4020SOL    HW112880   5.981   1.228   0.726 -1.4400 -0.5952  0.8255
 4020SOL    HW212881   6.013   1.068   0.726  0.5822 -0.2468 -1.5175
 4021SOL     OW12882   0.378   0.104   2.869 -0.0260  0.4649 -0.1424
 4021SOL    HW112883   0.348   0.089   2.963 -0.1464 -0.8438 -0.3700
 4021SOL    HW212884   0.457   0.046   2.849 -0.5361  0.0614 -1.1011
 4022SOL     OW12885   6.782   0.969   5.051  0.4912 -0.4698  0.0040
 4022SOL    HW112886   6.701   0.932   5.096  0.1517  0.7493  0.4214
 4022SOL    HW212887   6.790   0.930   4.959  0.1993 -1.6223  0.4489
 4023SOL     OW12888   1.371   2.282   3.823 -0.3553  1.0071 -0.4525
 4023SOL    HW112889   1.413   2.194   3.798 -1.0609  0.1865  1.0747
 4023SOL    HW212890   1.429   2.357   3.791  1.6616 -0.0589  0.5211
 4024SOL     OW12891   4.633   2.410   6.347  0.0166 -0.5225  0.1059
 4024SOL    HW112892   4.693   2.389   6.270  0.0827 -0.8579  0.2486
 4024SOL    HW212893   4.677   2.479   6.405 -0.6843  0.8524 -0.9560
 4025SOL     OW12894   0.213   6.400   5.702  0.2075  0.6315 -0.5121
 4025SOL    HW112895   0.140   6.346   5.742  0.9001  1.4184  1.9937
 4025SOL    HW212896   0.177   6.454   5.626 -1.8983  1.2046  0.8186
 4026SOL     OW12897   3.543   4.193   5.052  0.5299  0.2311  0.3062
 4026SOL    HW112898   3.480   4.191   5.130  0.9223  0.5206  0.6329
 4026SOL    HW212899   3.594   4.108   5.048  1.1122  0.5450  0.8710
 4027SOL     OW12900   2.798   6.614   1.079 -0.5493  0.5165  0.1904
 4027SOL    HW112901   2.873   6.680   1.092 -0.3217  0.3755 -0.3976
 4027SOL    HW212902   2.712   6.664   1.067 -0.7612  0.6718  2.0019
 4028SOL     OW12903   0.305   6.357   2.105 -0.1422 -0.8810 -0.2326
 4028SOL    HW112904   0.328   6.378   2.010  0.0612 -0.4989 -0.0978
 4028SOL    HW212905   0.385   6.370   2.163 -0.7169  0.6395  0.2712
 4029SOL     OW12906   4.068   3.304   1.680  0.1507  0.7426  0.9352
 4029SOL    HW112907   4.115   3.384   1.716 -0.0288  0.4836  1.7595
 4029SOL    HW212908   4.105   3.221   1.723 -0.4690  0.4718  0.9629
 4030SOL     OW12909   2.956   1.552   5.312 -0.0992 -0.3372 -0.0920
 4030SOL    HW112910   3.004   1.464   5.307 -1.3877 -1.0792  0.2130
 4030SOL    HW212911   2.914   1.572   5.224 -0.6596 -0.5360  0.1251
 4031SOL     OW12912   3.000   1.068   4.952 -0.0465 -0.2142  0.4097
 4031SOL    HW112913   2.976   1.021   5.037 -1.7825 -1.0036 -0.4590
 4031SOL    HW212914   2.938   1.144   4.937 -2.0784 -2.1494 -1.7722
 4032SOL     OW12915   2.494   5.833   1.803  0.4520 -0.1514  0.3520
 4032SOL    HW112916   2.440   5.907   1.843 -0.1048 -1.3288  1.8931
 4032SOL    HW212917   2.585   5.834   1.843  0.3670 -0.4376  0.5539
 4033SOL     OW12918   1.277   1.160   1.564  0.3272  0.2764 -0.6171
 4033SOL    HW112919   1.272   1.061   1.568 -0.4435  0.3504  1.6069
 4033SOL    HW212920   1.370   1.188   1.539  1.8341 -1.0362  2.9107
 4034SOL     OW12921   0.284   1.291   4.785 -0.2143  0.0457 -0.4817
 4034SOL    HW112922   0.239   1.378   4.767 -0.1208  0.2021  0.0313
 4034SOL    HW212923   0.340   1.266   4.705  0.3284  0.8138 -0.3501
 4035SOL     OW12924   6.636   2.339   1.632  0.0755  0.4364  0.1704
 4035SOL    HW112925   6.661   2.403   1.706 -1.4075  0.4367  0.7175
 4035SOL    HW212926   6.618   2.249   1.671 -0.6923  0.4277 -0.1810
 4036SOL     OW12927   0.880   1.708   1.816  0.1205 -0.8426  0.7262
 4036SOL    HW112928   0.801   1.763   1.844 -0.4246 -0.2426 -1.7652
 4036SOL    HW212929   0.946   1.704   1.891 -0.5073  1.9227  1.5266
 4037SOL     OW12930   4.847   3.777   2.061 -1.0214 -0.0169 -0.0758
 4037SOL    HW112931   4.844   3.781   1.961 -3.1847 -2.5043 -0.2394
 4037SOL    HW212932   4.765   3.821   2.099 -1.1001 -0.6061  0.4665
 4038SOL     OW12933   4.693   0.554   1.915 -0.6850 -0.6034 -0.0372
 4038SOL    HW112934   4.786   0.520   1.906  0.2986  1.6953  0.6662
 4038SOL    HW212935   4.644   0.540   1.829  0.9710 -0.0262 -1.1330
 4039SOL     OW12936   2.979   4.191   6.017 -0.4552 -0.2876 -0.2775
 4039SOL    HW112937   3.015   4.195   6.110  0.1318 -0.2928 -0.5024
 4039SOL    HW212938   3.024   4.260   5.960  0.0403 -1.0632 -0.8484
 4040SOL     OW12939   1.287   5.853   1.103 -0.2357 -0.7384 -0.2220
 4040SOL    HW112940   1.285   5.864   1.004 -1.6193  0.0038 -0.1475
 4040SOL    HW212941   1.346   5.777   1.128  0.2468 -0.8347 -1.6041
 4041SOL     OW12942   6.791   3.069   4.575  0.1468  0.5903  0.2026
 4041SOL    HW112943   6.849   2.993   4.545 -0.5377 -0.3171  1.0975
 4041SOL    HW212944   6.849   3.141   4.612  0.8409  0.7228 -1.0694
 4042SOL     OW12945   6.158   0.892   3.102  0.1284 -0.1502  0.0710
 4042SOL    HW112946   6.161   0.975   3.046 -1.7845 -1.1088 -1.5842
 4042SOL    HW212947   6.188   0.814   3.048 -1.5631 -1.0761  0.3754
 4043SOL     OW12948   0.038   6.699   4.130 -0.3474 -0.2605  0.3419
 4043SOL    HW112949   0.019   6.629   4.199 -2.1749  0.2150  0.3815
 4043SOL    HW212950   0.111   6.759   4.163 -0.1050 -0.9820  1.1596
 4044SOL     OW12951   0.078   2.638   3.952  0.0740  0.6139  0.0497
 4044SOL    HW112952   0.134   2.716   3.924  2.4457 -1.5071 -1.6459
 4044SOL    HW212953   0.130   2.553   3.937 -2.2623 -1.3141  2.0371
 4045SOL     OW12954   6.903   3.051   1.055  0.3653 -0.7216 -0.2763
 4045SOL    HW112955   6.831   2.984   1.039  0.7596 -1.6284  1.5216
 4045SOL    HW212956   6.870   3.119   1.121  0.9442 -0.8234  0.1256
 4046SOL     OW12957   6.596   4.053   5.346 -0.1015 -0.7160 -0.0201
 4046SOL    HW112958   6.533   3.976   5.357 -1.7370  0.5704  0.0084
 4046SOL    HW212959   6.690   4.019   5.348 -0.7446 -2.6045  0.7411
 4047SOL     OW12960   5.873   2.466   0.043 -0.3102  0.8122 -0.2139
 4047SOL    HW112961   5.829   2.500   0.126  0.9518 -0.0498  0.8498
 4047SOL    HW212962   5.969   2.445   0.062 -0.5265 -1.4648 -1.3043
 4048SOL     OW12963   5.249   5.133   2.164 -0.2662  0.0357 -0.2069
 4048SOL    HW112964   5.320   5.076   2.205 -0.4505 -1.0797 -1.3910
 4048SOL    HW212965   5.290   5.191   2.093 -0.3699  0.1472 -0.1766
 4049SOL     OW12966   0.364   1.933   3.568  0.4758 -0.8010  0.6094
 4049SOL    HW112967   0.327   1.841   3.576 -1.2236 -0.0664  1.7932
 4049SOL    HW212968   0.444   1.932   3.507 -0.0879 -2.8585 -0.1738
 4050SOL     OW12969   4.441   2.272   2.646  0.0816 -0.3669  0.1810
 4050SOL    HW112970   4.516   2.304   2.588 -0.1327  0.8335  0.5531
 4050SOL    HW212971   4.477   2.209   2.715  0.6763 -0.1231  0.0956
 4051SOL     OW12972   5.122   0.118   0.488  0.1590 -0.1852  0.5037
 4051SOL    HW112973   5.091   0.076   0.573 -1.2971 -1.0333 -0.3824
 4051SOL    HW212974   5.207   0.168   0.503  0.2830 -0.8770  2.2897
 4052SOL     OW12975   3.734   5.198   2.448  0.2525 -0.0720  0.0808
 4052SOL    HW112976   3.695   5.263   2.515  1.9614  0.4707  0.5984
 4052SOL    HW212977   3.799   5.138   2.494  0.7155 -0.3516 -0.9111
 4053SOL     OW12978   1.692   1.203   0.568  0.8422 -0.1350 -0.4105
 4053SOL    HW112979   1.775   1.190   0.514 -0.3831 -2.2539 -1.9151
 4053SOL    HW212980   1.666   1.299   0.566  1.2243 -0.0172 -3.1042
 4054SOL     OW12981   2.329   2.777   2.822  0.1711 -0.1129  0.6440
 4054SOL    HW112982   2.386   2.858   2.805  0.2869 -0.2817  0.2132
 4054SOL    HW212983   2.311   2.769   2.920  0.3928  0.2771  0.7199
 4055SOL     OW12984   5.395   1.042   5.162 -0.7238  0.0263 -0.3679
 4055SOL    HW112985   5.409   1.031   5.260 -0.1469  0.1328 -0.4346
 4055SOL    HW212986   5.380   0.953   5.120 -1.1587 -0.0018 -0.1578
 4056SOL     OW12987   3.272   5.062   5.728  0.4349  0.2391  0.5314
 4056SOL    HW112988   3.203   5.095   5.792 -0.4099  0.2545 -0.3579
 4056SOL    HW212989   3.322   4.986   5.769 -1.9851 -1.6520  0.2250
 4057SOL     OW12990   0.975   5.156   3.594 -0.4404 -0.3527  1.0063
 4057SOL    HW112991   0.925   5.102   3.662  0.3568 -1.5599  0.6569
 4057SOL    HW212992   1.057   5.107   3.566 -1.7790 -0.9322 -2.3633
 4058SOL     OW12993   2.956   6.023   6.914  0.1608 -0.5243  0.1829
 4058SOL    HW112994   2.916   6.095   6.857 -0.1731 -0.7005  0.1908
 4058SOL    HW212995   2.987   6.063   7.000 -0.0513 -0.3918  0.2012
 4059SOL     OW12996   3.353   1.230   0.697  0.4606 -0.1053  0.3928
 4059SOL    HW112997   3.452   1.218   0.705  0.4680 -0.9249 -0.7393
 4059SOL    HW212998   3.321   1.294   0.767  2.1882  2.2842 -0.8705
 4060SOL     OW12999   6.151   3.628   5.626 -0.6712 -0.6467 -0.1983
 4060SOL    HW113000   6.235   3.604   5.578  0.4611  0.5960  1.0473
 4060SOL    HW213001   6.165   3.617   5.724 -1.8066  0.0326  0.0534
 4061SOL     OW13002   1.908   5.716   1.938 -0.7078  0.1655  0.1223
 4061SOL    HW113003   1.958   5.641   1.894 -1.0211 -0.1361  0.2814
 4061SOL    HW213004   1.844   5.756   1.874  0.0773  0.8817 -0.2429
 4062SOL     OW13005   1.242   2.396   3.555  0.0051  0.3110  0.0725
 4062SOL    HW113006   1.334   2.369   3.527  0.1523  1.5169 -0.7004
 4062SOL    HW213007   1.178   2.322   3.532  0.7036 -0.3580  0.2159
 4063SOL     OW13008   3.591   1.928   2.911  0.4818  0.3523 -0.1900
 4063SOL    HW113009   3.556   1.861   2.977 -1.9094  1.4102 -0.2681
 4063SOL    HW213010   3.599   2.017   2.955  0.6082  0.6775 -0.8572
 4064SOL     OW13011   1.930   4.933   5.378 -0.0903  0.0869  0.1784
 4064SOL    HW113012   1.862   5.007   5.382 -0.6213 -0.3113 -1.1456
 4064SOL    HW213013   2.019   4.969   5.407 -0.6299  0.8797  0.9234
 4065SOL     OW13014   2.462   1.060   3.610 -0.2888 -0.3918  0.4891
 4065SOL    HW113015   2.441   1.137   3.669  1.0374  0.3942 -0.0148
 4065SOL    HW213016   2.461   1.090   3.514 -0.0771 -1.0727  0.2675
 4066SOL     OW13017   0.120   1.072   4.868  0.3001 -0.0776 -0.2325
 4066SOL    HW113018   0.061   1.103   4.942  0.6258  0.4612 -0.1969
 4066SOL    HW213019   0.187   1.143   4.845  1.2767 -0.8559  0.0840
 4067SOL     OW13020   4.057   4.258   3.518 -0.4837  0.5303  0.3531
 4067SOL    HW113021   4.088   4.163   3.515 -0.5648  0.4987  0.5177
 4067SOL    HW213022   4.082   4.304   3.433 -0.6789  0.2881  0.1624
 4068SOL     OW13023   0.623   0.126   0.691  0.1682 -0.1816  0.3963
 4068SOL    HW113024   0.713   0.162   0.667  0.5154 -1.5079 -0.3583
 4068SOL    HW213025   0.608   0.039   0.644 -1.6819  0.2210  0.1691
 4069SOL     OW13026   2.369   0.831   4.353  0.2311  0.9038 -0.3155
 4069SOL    HW113027   2.455   0.783   4.340 -0.6771 -0.3322 -2.1363
 4069SOL    HW213028   2.323   0.795   4.434 -0.3304 -1.2507 -1.5150
 4070SOL     OW13029   5.431   3.702   6.450  0.8124 -0.3944  0.3335
 4070SOL    HW113030   5.475   3.613   6.462 -0.3880 -1.0101  0.2672
 4070SOL    HW213031   5.444   3.733   6.356  1.2901 -0.4516  0.3736
 4071SOL     OW13032   0.764   3.516   5.164  0.3960 -0.3738  0.5169
 4071SOL    HW113033   0.841   3.559   5.115  0.1313  1.7731  1.8721
 4071SOL    HW213034   0.690   3.497   5.099  0.5930  1.1087 -0.1789
 4072SOL     OW13035   3.179   0.511   6.520 -0.5811  0.1998  0.3210
 4072SOL    HW113036   3.186   0.429   6.578  0.2740  0.9846  1.3653
 4072SOL    HW213037   3.269   0.537   6.488 -0.9770  0.1469 -0.8881
 4073SOL     OW13038   6.762   3.703   5.046 -0.4524 -0.8259  0.5952
 4073SOL    HW113039   6.668   3.738   5.054 -0.0656  0.1456  1.0548
 4073SOL    HW213040   6.796   3.679   5.137  0.0024 -0.4636  0.5246
 4074SOL     OW13041   3.371   1.673   6.145  0.3280  0.2415  0.2130
 4074SOL    HW113042   3.290   1.728   6.167 -0.1282  0.0831 -0.9648
 4074SOL    HW213043   3.349   1.611   6.070  0.9410 -1.3305  1.2946
 4075SOL     OW13044   5.202   6.223   5.685  0.1035  0.2883  0.4228
 4075SOL    HW113045   5.293   6.230   5.642 -0.1876 -1.5519 -0.6054
 4075SOL    HW213046   5.201   6.145   5.748 -1.1673 -0.6511 -0.7139
 4076SOL     OW13047   3.983   2.972   6.398  0.5997 -0.0145 -0.0345
 4076SOL    HW113048   3.886   2.993   6.401  0.6245 -0.0031  0.9158
 4076SOL    HW213049   4.034   3.054   6.370  0.4110  0.2573  0.4076
 4077SOL     OW13050   1.987   6.581   4.362 -0.3052 -0.2115 -0.0627
 4077SOL    HW113051   1.895   6.550   4.339 -0.3506 -0.8353  0.9008
 4077SOL    HW213052   1.982   6.653   4.432 -0.0719 -0.0667 -0.1927
 4078SOL     OW13053   0.360   0.892   3.301  0.1341  0.0904  0.2122
 4078SOL    HW113054   0.396   0.862   3.212 -0.3083  1.0116 -0.2851
 4078SOL    HW213055   0.265   0.862   3.310  0.2162 -0.1095  0.4364
 4079SOL     OW13056   3.806   1.848   3.199 -0.5106  0.1808 -0.4705
 4079SOL    HW113057   3.822   1.919   3.130 -1.1510 -0.5355 -1.3810
 4079SOL    HW213058   3.788   1.761   3.154  2.1832 -1.0426  0.6159
 4080SOL     OW13059   4.258   6.931   3.947  0.2386  0.4472 -0.2371
 4080SOL    HW113060   4.239   7.026   3.924  0.7420  0.3462 -1.1386
 4080SOL    HW213061   4.183   6.894   4.001 -0.8675  0.8234 -1.4494
 4081SOL     OW13062   6.817   5.983   0.133  0.6617  0.3526 -0.0185
 4081SOL    HW113063   6.841   5.944   0.222  0.3895 -0.8205 -0.4355
 4081SOL    HW213064   6.891   5.966   0.068 -0.0659 -0.7989 -0.5803
 4082SOL     OW13065   2.036   3.163   2.784  0.3033  0.5700 -0.3319
 4082SOL    HW113066   2.052   3.099   2.708 -0.2410  2.2847 -1.9558
 4082SOL    HW213067   2.062   3.255   2.757 -0.9099  1.4199  1.1918
 4083SOL     OW13068   5.720   1.576   4.142 -0.0883  0.1602  0.0448
 4083SOL    HW113069   5.658   1.502   4.114  1.4837 -1.2228  0.0672
 4083SOL    HW213070   5.803   1.537   4.182 -0.6569  1.9793  3.3827
 4084SOL     OW13071   5.413   5.688   0.911  0.7550  0.0540  0.3381
 4084SOL    HW113072   5.432   5.772   0.860 -0.4573  0.9265  1.2697
 4084SOL    HW213073   5.375   5.711   1.000 -1.8752 -1.4597 -0.2840
 4085SOL     OW13074   3.604   6.925   0.396 -0.5321 -0.2785 -1.0045
 4085SOL    HW113075   3.545   6.942   0.317  0.4797  2.8476 -1.1967
 4085SOL    HW213076   3.699   6.932   0.368 -0.1136 -1.0049  0.1766
 4086SOL     OW13077   1.264   6.624   3.811  0.0332  0.4157  0.3656
 4086SOL    HW113078   1.190   6.557   3.803  0.0869  0.1640  1.8169
 4086SOL    HW213079   1.317   6.625   3.726  0.0734 -1.4305  0.3471
 4087SOL     OW13080   4.656   1.030   2.491 -0.2516  0.7466 -0.4540
 4087SOL    HW113081   4.588   1.083   2.543 -1.8206 -1.1254 -0.4570
 4087SOL    HW213082   4.626   0.935   2.485  1.7062  0.1450 -1.7272
 4088SOL     OW13083   4.622   5.470   5.457  0.5660 -0.3145  0.5876
 4088SOL    HW113084   4.652   5.545   5.398  0.1775 -0.7070 -0.1312
 4088SOL    HW213085   4.542   5.500   5.510  0.8127 -0.0110  0.7893
 4089SOL     OW13086   2.405   4.412   3.679  0.3084  0.3269 -0.0579
 4089SOL    HW113087   2.341   4.489   3.680 -0.0295  0.1022 -1.7835
 4089SOL    HW213088   2.355   4.326   3.673  0.7172 -0.0004  0.9746
 4090SOL     OW13089   0.492   1.329   0.759 -0.0157  0.1304 -0.5841
 4090SOL    HW113090   0.403   1.304   0.798  0.2075  0.4804  0.1804
 4090SOL    HW213091   0.556   1.253   0.771  0.7246  1.0422  1.9354
 4091SOL     OW13092   5.658   4.566   2.511  0.3367 -0.4025 -0.3314
 4091SOL    HW113093   5.752   4.594   2.489  0.3518 -0.9936 -1.0632
 4091SOL    HW213094   5.595   4.601   2.442  0.0304 -0.1287  0.0798
 4092SOL     OW13095   2.814   5.710   0.810 -0.0663 -0.6953  0.1010
 4092SOL    HW113096   2.885   5.678   0.747 -0.8272  0.8606 -1.6638
 4092SOL    HW213097   2.724   5.690   0.770 -0.5558  1.1696  0.2185
 4093SOL     OW13098   3.518   4.992   0.656 -0.2329 -0.8880 -0.4340
 4093SOL    HW113099   3.597   4.939   0.687  1.6997  1.7463 -0.5169
 4093SOL    HW213100   3.492   5.058   0.727  1.6159  2.4118 -2.5736
 4094SOL     OW13101   1.431   2.394   4.061 -0.0739  0.3346 -0.3367
 4094SOL    HW113102   1.458   2.310   4.109 -1.8170  1.4376  2.8285
 4094SOL    HW213103   1.382   2.370   3.977 -1.0503 -1.8324  0.7872
 4095SOL     OW13104   0.504   4.415   6.548  0.3319  0.2006  0.7292
 4095SOL    HW113105   0.478   4.432   6.453  0.8426 -0.5859  0.4412
 4095SOL    HW213106   0.530   4.501   6.592  0.6125  0.4941 -0.0015
 4096SOL     OW13107   5.788   5.720   4.070  0.0129  0.2495 -0.3764
 4096SOL    HW113108   5.780   5.817   4.096  0.2816 -0.4693  2.7610
 4096SOL    HW213109   5.885   5.695   4.068 -0.0988 -0.4948  1.4037
 4097SOL     OW13110   5.832   3.566   4.877  0.1265 -0.5732 -0.5554
 4097SOL    HW113111   5.807   3.478   4.917 -1.5978 -0.6510 -1.7093
 4097SOL    HW213112   5.854   3.631   4.950  1.3179 -1.8955  0.3165
 4098SOL     OW13113   5.665   4.651   2.864  0.4184 -0.8084  0.6018
 4098SOL    HW113114   5.594   4.599   2.912 -0.9651 -1.8233 -2.3327
 4098SOL    HW213115   5.726   4.588   2.816  0.0900  0.1599 -1.1756
 4099SOL     OW13116   3.004   0.972   4.714  0.5863  0.2277  0.3374
 4099SOL    HW113117   2.990   1.013   4.804 -0.7710 -0.3551  0.4211
 4099SOL    HW213118   2.925   0.915   4.691  1.5697 -0.8073 -0.5964
 4100SOL     OW13119   2.713   2.457   2.085 -0.4632 -0.0838  0.2033
 4100SOL    HW113120   2.639   2.502   2.137 -0.2084  1.7315 -0.9091
 4100SOL    HW213121   2.725   2.504   1.998  2.1691 -0.1788  0.4455
 4101SOL     OW13122   1.912   1.768   3.040  0.3850  0.1895 -0.0498
 4101SOL    HW113123   1.917   1.856   2.992  0.3386 -0.1344 -0.6589
 4101SOL    HW213124   1.824   1.762   3.089  0.8994  0.9891  1.0251
 4102SOL     OW13125   3.200   2.442   3.781  0.4630 -0.3186 -0.1137
 4102SOL    HW113126   3.218   2.457   3.878  0.0853  0.8574 -0.2092
 4102SOL    HW213127   3.270   2.488   3.726  0.7249 -1.0508 -0.4116
 4103SOL     OW13128   0.444   2.508   1.205 -0.5397 -0.2882 -0.3819
 4103SOL    HW113129   0.468   2.559   1.122 -0.5330  0.0690 -0.1575
 4103SOL    HW213130   0.438   2.570   1.283 -1.2035 -0.5263 -0.2381
 4104SOL     OW13131   5.537   5.776   2.668  0.0360  0.3277  0.0715
 4104SOL    HW113132   5.615   5.763   2.728  1.0268  2.3218 -0.6854
 4104SOL    HW213133   5.569   5.798   2.576 -1.2734  3.5084  0.2487
 4105SOL     OW13134   5.866   3.727   2.976 -0.4035 -0.8420 -0.2050
 4105SOL    HW113135   5.784   3.758   3.024 -1.1251 -0.4701 -1.6166
 4105SOL    HW213136   5.883   3.631   2.997  0.7828 -0.0856  2.7580
 4106SOL     OW13137   4.420   2.384   0.242 -0.1855  0.4986 -0.0784
 4106SOL    HW113138   4.420   2.480   0.270 -0.7470  0.1777  1.0843
 4106SOL    HW213139   4.476   2.331   0.305  1.6689  0.3236 -1.7823
 4107SOL     OW13140   5.799   2.654   4.468 -0.1605  0.6928  0.5183
 4107SOL    HW113141   5.732   2.589   4.433  0.5832  0.4654 -0.5575
 4107SOL    HW213142   5.762   2.747   4.462 -0.4930  0.5402  0.1814
 4108SOL     OW13143   5.840   5.824   5.425 -0.0336 -0.0960 -0.4272
 4108SOL    HW113144   5.807   5.862   5.511 -2.1043 -1.3145 -0.6193
 4108SOL    HW213145   5.813   5.885   5.349  0.2983  0.1291 -0.3644
 4109SOL     OW13146   0.977   1.529   0.875 -0.4520  0.3721 -0.4580
 4109SOL    HW113147   0.990   1.446   0.929  0.9044  0.7315 -0.2070
 4109SOL    HW213148   0.982   1.608   0.935 -0.1397  0.7149 -0.9353
 4110SOL     OW13149   5.814   1.943   2.774 -0.1722  0.0890 -0.3684
 4110SOL    HW113150   5.743   1.991   2.723  1.3492  2.8914 -0.0699
 4110SOL    HW213151   5.899   1.944   2.721 -0.1760 -3.0152 -0.6298
 4111SOL     OW13152   5.887   6.848   6.592 -0.2393  0.4655  0.0970
 4111SOL    HW113153   5.920   6.942   6.586  1.4149  0.1561  2.7855
 4111SOL    HW213154   5.787   6.847   6.586 -0.3320  2.4909  0.6986
 4112SOL     OW13155   0.343   0.192   5.238 -0.5150  0.1162  0.5328
 4112SOL    HW113156   0.362   0.289   5.253 -3.1001  0.5023  1.8636
 4112SOL    HW213157   0.419   0.137   5.275 -0.6387  1.5480  3.1328
 4113SOL     OW13158   0.619   1.367   4.210  0.2254  0.0362 -0.3465
 4113SOL    HW113159   0.606   1.299   4.282  0.4681 -0.7957 -1.0559
 4113SOL    HW213160   0.563   1.342   4.131 -0.0512  0.9420 -0.4416
 4114SOL     OW13161   4.506   4.145   4.722  0.4444  0.0482 -0.5885
 4114SOL    HW113162   4.524   4.057   4.765 -1.5712 -0.3148 -0.3956
 4114SOL    HW213163   4.577   4.164   4.654  1.1627 -1.4994 -0.3186
 4115SOL     OW13164   1.815   0.613   5.360  0.4783  0.0390 -0.6209
 4115SOL    HW113165   1.790   0.704   5.325 -2.6734 -0.2944  0.4542
 4115SOL    HW213166   1.848   0.622   5.454 -1.8597 -0.0094  0.2744
 4116SOL     OW13167   4.762   1.649   0.895 -0.3268  0.0854 -0.4856
 4116SOL    HW113168   4.678   1.697   0.922 -0.2897 -0.4698  0.6899
 4116SOL    HW213169   4.802   1.604   0.975  0.4286 -0.6912 -1.2753
 4117SOL     OW13170   5.635   3.264   0.986  0.1735  0.6238  0.0583
 4117SOL    HW113171   5.713   3.291   1.043  0.0398  1.1979 -0.0235
 4117SOL    HW213172   5.553   3.260   1.043 -0.4647  3.6240 -0.4946
 4118SOL     OW13173   5.220   2.179   4.880  0.2073  0.4248 -0.4992
 4118SOL    HW113174   5.205   2.185   4.782 -1.6973 -0.5965 -0.3194
 4118SOL    HW213175   5.249   2.086   4.904  0.7822  0.6991 -0.0837
 4119SOL     OW13176   1.766   0.874   4.458 -0.2862 -0.1997 -0.2848
 4119SOL    HW113177   1.681   0.821   4.458  0.0207 -0.6862  0.0960
 4119SOL    HW213178   1.824   0.843   4.383  0.5794 -1.5037  0.8939
 4120SOL     OW13179   0.942   4.867   6.351  0.0271  0.2439 -0.5548
 4120SOL    HW113180   0.924   4.808   6.429 -0.5686 -2.7299 -2.7604
 4120SOL    HW213181   0.859   4.915   6.324 -0.0899  0.2567 -0.1699
 4121SOL     OW13182   4.551   5.795   6.475  0.1413 -0.0518  0.2934
 4121SOL    HW113183   4.580   5.714   6.423  0.2605  0.7149 -0.8720
 4121SOL    HW213184   4.596   5.795   6.564 -1.0369 -2.0668  0.9642
 4122SOL     OW13185   5.878   3.051   1.698 -0.2904  0.1941 -0.0493
 4122SOL    HW113186   5.919   2.970   1.655  3.3809  1.8961 -0.1058
 4122SOL    HW213187   5.780   3.036   1.710  0.2820 -4.5128  0.6074
 4123SOL     OW13188   5.230   5.583   1.993 -0.1281  0.4188  0.1315
 4123SOL    HW113189   5.183   5.600   2.079  0.0554  1.5421  0.0350
 4123SOL    HW213190   5.292   5.659   1.974  1.4354 -0.8329  0.0526
 4124SOL     OW13191   5.471   0.581   3.273  0.3304  0.1817  0.5129
 4124SOL    HW113192   5.457   0.669   3.319  1.0457  0.9668 -0.6982
 4124SOL    HW213193   5.543   0.591   3.205  0.7988 -1.5036  0.7186
 4125SOL     OW13194   6.847   1.871   1.557 -0.1887  0.2709  0.4027
 4125SOL    HW113195   6.868   1.851   1.461 -0.9720 -0.6804  0.4188
 4125SOL    HW213196   6.861   1.968   1.575  0.4082  0.3715 -0.5566
 4126SOL     OW13197   0.769   5.234   4.976  0.4575 -0.0298  0.4423
 4126SOL    HW113198   0.850   5.283   4.944 -1.0407  1.8675 -0.6714
 4126SOL    HW213199   0.724   5.287   5.048 -1.1397  0.2253 -0.6979
 4127SOL     OW13200   1.338   2.471   0.956 -0.1577  0.0305 -0.8272
 4127SOL    HW113201   1.335   2.371   0.963  2.5227 -0.0615  0.0521
 4127SOL    HW213202   1.395   2.498   0.878 -1.0949  0.9053 -1.2355
 4128SOL     OW13203   6.569   4.239   0.433 -0.3495  0.1644 -0.7216
 4128SOL    HW113204   6.477   4.277   0.445 -0.4195 -0.2656  0.2204
 4128SOL    HW213205   6.568   4.141   0.454  0.1607 -0.0184 -1.5135
 4129SOL     OW13206   6.130   6.058   2.623 -0.1038 -0.3257 -0.7382
 4129SOL    HW113207   6.208   6.113   2.651 -1.2158  1.6415 -1.3008
 4129SOL    HW213208   6.088   6.016   2.703 -0.7095  1.7340  0.0996
 4130SOL     OW13209   3.373   3.987   4.318 -0.3995 -0.0412  0.1002
 4130SOL    HW113210   3.348   4.009   4.413  1.0779  1.9230  0.0923
 4130SOL    HW213211   3.296   4.009   4.258 -0.0493  2.5367  0.4588
 4131SOL     OW13212   0.026   4.703   5.116 -0.2965 -0.4185 -0.1595
 4131SOL    HW113213  -0.071   4.719   5.132 -0.2200  0.8129 -0.7358
 4131SOL    HW213214   0.040   4.614   5.074 -1.0114 -1.2706  1.3613
 4132SOL     OW13215   2.927   4.648   2.882 -0.1676 -0.5220 -0.5411
 4132SOL    HW113216   2.910   4.604   2.971 -0.6978 -0.9156 -0.8297
 4132SOL    HW213217   2.898   4.587   2.809 -2.7779  1.0450 -0.9382
 4133SOL     OW13218   3.420   3.242   0.542  0.1089  0.4843 -0.2150
 4133SOL    HW113219   3.448   3.225   0.447  1.9958 -0.2969  0.4211
 4133SOL    HW213220   3.470   3.321   0.577 -0.8861  1.0203  0.0191
 4134SOL     OW13221   2.332   2.277   3.145 -0.3431  0.2315  0.1037
 4134SOL    HW113222   2.379   2.207   3.091 -0.8984  0.3543 -0.5528
 4134SOL    HW213223   2.396   2.318   3.210  0.3907  0.2079 -0.5909
 4135SOL     OW13224   6.309   4.978   2.347 -0.9648 -0.2232 -0.2535
 4135SOL    HW113225   6.382   4.981   2.279 -1.7123 -1.5120 -1.1456
 4135SOL    HW213226   6.287   5.072   2.375 -2.7258  0.7027 -4.1046
 4136SOL     OW13227   2.518   4.377   0.121  0.5385  0.2052  0.2453
 4136SOL    HW113228   2.430   4.421   0.106 -0.3117 -1.8857 -1.3250
 4136SOL    HW213229   2.529   4.357   0.219 -1.4257 -0.8646  0.2844
 4137SOL     OW13230   3.878   4.066   4.876  0.9145 -0.4303 -0.1122
 4137SOL    HW113231   3.855   4.117   4.793  0.5775 -1.0874 -0.4249
 4137SOL    HW213232   3.951   4.000   4.856  0.6491 -0.7753  0.0535
 4138SOL     OW13233   5.692   4.078   2.587 -0.5082 -0.0799  0.3053
 4138SOL    HW113234   5.637   4.156   2.557  0.8970  0.4680 -0.9916
 4138SOL    HW213235   5.696   4.010   2.514  0.1311 -0.3190  0.5496
 4139SOL     OW13236   1.318   5.634   0.233  0.4070 -0.0919 -0.1059
 4139SOL    HW113237   1.397   5.670   0.283 -0.1789  0.4714  0.4435
 4139SOL    HW213238   1.347   5.562   0.170  1.3231 -0.0202  0.2288
 4140SOL     OW13239   4.237   2.024   5.418 -0.2468 -0.4959 -0.6433
 4140SOL    HW113240   4.217   1.964   5.495  0.0542  0.4085  0.1576
 4140SOL    HW213241   4.256   2.116   5.451 -0.2616 -0.0510 -1.8149
 4141SOL     OW13242   5.796   0.206   2.367 -0.1444 -0.4816 -0.6988
 4141SOL    HW113243   5.870   0.139   2.358 -0.9997 -1.4759 -0.5296
 4141SOL    HW213244   5.830   0.296   2.342  1.9415 -0.3633  2.0648
 4142SOL     OW13245   4.736   1.824   5.047 -0.2418  0.5673 -0.3913
 4142SOL    HW113246   4.777   1.797   4.960  2.0420  2.6245 -0.0640
 4142SOL    HW213247   4.790   1.897   5.088 -2.3640  1.0213  1.8477
 4143SOL     OW13248   4.182   5.704   2.898  0.0747 -0.5895 -0.7809
 4143SOL    HW113249   4.183   5.789   2.950 -3.2729 -2.4171  2.8545
 4143SOL    HW213250   4.248   5.640   2.937 -1.2497 -1.3916  0.2536
 4144SOL     OW13251   3.774   3.545   0.305  0.3282  0.5436 -0.9822
 4144SOL    HW113252   3.686   3.573   0.343  0.5772 -0.5125  0.4459
 4144SOL    HW213253   3.827   3.627   0.280 -0.7917  1.2004 -1.2703
 4145SOL     OW13254   1.376   1.626   3.569  0.4703  0.2231  0.3101
 4145SOL    HW113255   1.401   1.545   3.623 -2.4131 -1.8125 -1.1519
 4145SOL    HW213256   1.278   1.644   3.578  0.0778  0.5588 -3.1623
 4146SOL     OW13257   1.932   2.199   2.685 -0.1885  0.3953  0.4830
 4146SOL    HW113258   1.996   2.261   2.731 -1.1836  1.2858  0.7194
 4146SOL    HW213259   1.968   2.175   2.595 -0.4185  2.5387 -0.2584
 4147SOL     OW13260   5.198   6.436   1.503  0.0325 -0.2096 -0.3440
 4147SOL    HW113261   5.256   6.359   1.477 -0.9049 -0.6198 -1.2815
 4147SOL    HW213262   5.107   6.423   1.465 -0.7949  0.2468  1.4078
 4148SOL     OW13263   1.552   0.645   2.410  0.1846 -0.4730 -0.1912
 4148SOL    HW113264   1.509   0.560   2.379 -0.2718 -0.1499 -0.4512
 4148SOL    HW213265   1.493   0.722   2.389  0.1349 -0.1780  0.9540
 4149SOL     OW13266   0.004   6.651   2.566  0.2873  0.0292 -0.3526
 4149SOL    HW113267  -0.080   6.609   2.531  0.5343 -1.2251  0.4769
 4149SOL    HW213268   0.083   6.607   2.523  0.6188  3.5086 -3.7929
 4150SOL     OW13269   4.423   6.416   2.884 -0.1197 -0.0234 -0.1137
 4150SOL    HW113270   4.459   6.500   2.925  1.6211 -0.9210  0.2944
 4150SOL    HW213271   4.346   6.383   2.938  0.3044  0.3750  0.7558
 4151SOL     OW13272   3.283   3.497   3.593  0.5640 -0.0798  0.5373
 4151SOL    HW113273   3.308   3.425   3.529  0.1240  0.1402  0.1119
 4151SOL    HW213274   3.366   3.534   3.636  1.0925  1.1222 -1.3698
 4152SOL     OW13275   2.434   3.879   1.344 -0.6709 -0.1036 -0.2684
 4152SOL    HW113276   2.335   3.889   1.344 -0.7405 -0.7597 -1.0245
 4152SOL    HW213277   2.467   3.870   1.250  0.0180 -0.6687  0.0170
 4153SOL     OW13278   2.773   1.297   6.474  0.1314 -0.4719  0.0981
 4153SOL    HW113279   2.769   1.332   6.381 -0.2062 -0.9831 -0.0838
 4153SOL    HW213280   2.866   1.266   6.495  0.8016  1.7208  0.7197
 4154SOL     OW13281   2.761   2.912   6.449  0.4019 -0.2585  0.0865
 4154SOL    HW113282   2.842   2.970   6.438  0.3674 -0.2877 -0.3335
 4154SOL    HW213283   2.783   2.834   6.506  0.3760  0.3200  0.9042
 4155SOL     OW13284   6.233   5.820   3.185  0.1787  0.1218  0.5096
 4155SOL    HW113285   6.212   5.911   3.150  1.1624  0.5091  0.8953
 4155SOL    HW213286   6.317   5.824   3.239  0.4658 -1.0970  0.1754
 4156SOL     OW13287   1.224   3.825   3.819 -0.0294  0.3432  0.1378
 4156SOL    HW113288   1.246   3.727   3.817 -1.3270  0.0121  0.7948
 4156SOL    HW213289   1.305   3.878   3.796  1.2184 -0.8230  1.5790
 4157SOL     OW13290   1.848   4.538   6.286 -0.5281  0.4922 -0.6371
 4157SOL    HW113291   1.887   4.567   6.199 -1.5772  2.8592 -0.4064
 4157SOL    HW213292   1.811   4.618   6.334  0.2864 -0.6711  2.1472
 4158SOL     OW13293   3.671   2.719   6.480  0.2092 -0.1474 -0.1203
 4158SOL    HW113294   3.577   2.752   6.482  0.9424  2.1912 -1.1333
 4158SOL    HW213295   3.684   2.661   6.400 -0.3269 -0.3732 -0.0493
 4159SOL     OW13296   6.102   2.649   3.819 -0.1410 -0.3524  0.1089
 4159SOL    HW113297   6.168   2.713   3.780 -1.1975  1.5877  1.3384
 4159SOL    HW213298   6.024   2.700   3.855 -0.7401 -2.2900  1.7093
 4160SOL     OW13299   0.143   1.191   2.171 -0.1624 -0.5254 -0.2250
 4160SOL    HW113300   0.088   1.173   2.253 -0.7345  0.6393 -0.3251
 4160SOL    HW213301   0.213   1.120   2.161 -0.6054 -1.1313  0.8173
 4161SOL     OW13302   5.525   1.029   6.441  0.0406  0.2412 -0.8243
 4161SOL    HW113303   5.533   1.102   6.373 -1.3902  2.5187  1.2609
 4161SOL    HW213304   5.434   1.033   6.483  1.6745  0.8407  3.1134
 4162SOL     OW13305   3.452   6.753   3.325 -0.2491 -0.3214 -0.8833
 4162SOL    HW113306   3.472   6.745   3.227  0.4253 -1.5803 -0.6651
 4162SOL    HW213307   3.385   6.683   3.351  0.6031 -0.9054 -0.1974
 4163SOL     OW13308   6.365   6.494   1.889  0.3311 -0.0234 -0.1541
 4163SOL    HW113309   6.300   6.521   1.818 -1.0910  2.2462  1.8670
 4163SOL    HW213310   6.339   6.405   1.926 -1.7232  0.8367  0.6124
 4164SOL     OW13311   5.913   3.842   4.652 -0.3641  0.1501  0.0224
 4164SOL    HW113312   5.998   3.790   4.640 -1.2033 -1.1447 -0.5173
 4164SOL    HW213313   5.903   3.906   4.576  0.3452  0.6328  0.3265
 4165SOL     OW13314   4.088   2.126   5.780 -0.1595 -0.0244 -0.2161
 4165SOL    HW113315   4.048   2.111   5.871  0.3181 -4.4574 -0.5278
 4165SOL    HW213316   4.186   2.141   5.789 -0.0475 -0.8484  0.0184
 4166SOL     OW13317   3.259   1.459   5.980  0.4733  0.0389  0.0494
 4166SOL    HW113318   3.282   1.406   6.061 -1.1857 -0.1002  0.4644
 4166SOL    HW213319   3.212   1.400   5.914 -0.2474  0.6859 -0.0258
 4167SOL     OW13320   0.930   0.852   1.520 -0.5012  0.0407  0.1937
 4167SOL    HW113321   0.956   0.756   1.534 -1.6480 -0.4424 -0.8358
 4167SOL    HW213322   0.849   0.872   1.576  1.4970  1.3391  2.8524
 4168SOL     OW13323   3.398   2.143   5.541 -0.3725 -0.2625 -0.1740
 4168SOL    HW113324   3.363   2.195   5.618  1.1292  0.2676  0.1967
 4168SOL    HW213325   3.426   2.052   5.571  0.5826  0.0794  0.0308
 4169SOL     OW13326   1.824   5.410   1.151  0.0431 -0.2811  0.0971
 4169SOL    HW113327   1.873   5.376   1.071 -0.2690  0.6401 -0.5039
 4169SOL    HW213328   1.726   5.391   1.141  0.3414 -3.3602  1.9218
 4170SOL     OW13329   6.182   1.793   6.615  0.0505 -0.6398  0.2991
 4170SOL    HW113330   6.185   1.796   6.515  0.9661 -1.1802  0.2957
 4170SOL    HW213331   6.091   1.764   6.645 -0.0321 -1.1173 -0.3952
 4171SOL     OW13332   4.050   6.300   5.113 -0.6642 -0.5859  0.7237
 4171SOL    HW113333   4.017   6.206   5.122 -1.2633 -0.5752 -0.9505
 4171SOL    HW213334   4.081   6.316   5.019  0.0005  0.7190  1.1323
 4172SOL     OW13335   6.574   2.142   3.518 -0.3214  0.5762  0.3078
 4172SOL    HW113336   6.582   2.078   3.595 -0.0514  0.7944  0.4634
 4172SOL    HW213337   6.586   2.091   3.433 -3.7257 -0.2466  0.2034
 4173SOL     OW13338   2.846   2.699   5.685  0.5353  0.0957 -0.0229
 4173SOL    HW113339   2.795   2.671   5.604  0.0543 -0.4526  0.4558
 4173SOL    HW213340   2.821   2.793   5.709 -0.2797 -0.1733  0.2187
 4174SOL     OW13341   0.509   2.092   3.939  0.1080 -0.0354 -0.9661
 4174SOL    HW113342   0.490   2.141   4.024 -3.0784  0.0055 -1.5623
 4174SOL    HW213343   0.589   2.034   3.951 -0.1021  0.1263  1.9844
 4175SOL     OW13344   5.078   1.358   0.982 -0.5017  0.2539  0.2771
 4175SOL    HW113345   5.148   1.363   0.910 -3.0117  0.6543 -2.3277
 4175SOL    HW213346   5.095   1.430   1.049  0.6190  1.5099 -1.2567
 4176SOL     OW13347   1.027   5.524   1.813  0.1032 -0.8091 -0.2639
 4176SOL    HW113348   0.949   5.464   1.800 -1.3517  1.3582 -2.4867
 4176SOL    HW213349   1.032   5.554   1.908 -0.5811 -2.4526  0.3164
 4177SOL     OW13350   6.002   6.748   5.357  0.3168 -0.3613  0.4217
 4177SOL    HW113351   5.994   6.724   5.454  0.3186 -0.1489  0.4771
 4177SOL    HW213352   6.076   6.815   5.346 -1.1943  1.4543  0.6329
 4178SOL     OW13353   2.930   0.183   0.639 -0.3125 -0.0746 -0.3450
 4178SOL    HW113354   2.851   0.128   0.611 -1.0572  0.4401  0.7085
 4178SOL    HW213355   2.906   0.238   0.718  0.8328  0.7868 -0.5746
 4179SOL     OW13356   6.331   0.928   5.098 -0.7843  0.5453  0.1320
 4179SOL    HW113357   6.240   0.895   5.121 -0.9889  1.3919  0.5796
 4179SOL    HW213358   6.353   0.904   5.004 -1.1926 -0.2461  0.2288
 4180SOL     OW13359   5.993   5.022   1.293  0.1297 -0.8588 -0.3509
 4180SOL    HW113360   5.965   4.931   1.325  0.0441 -0.5201  0.5688
 4180SOL    HW213361   6.091   5.033   1.303 -0.0464 -0.3107  1.0095
 4181SOL     OW13362   6.232   1.201   4.622  0.3710 -0.7091  0.0437
 4181SOL    HW113363   6.332   1.202   4.619  0.4321 -1.0247  1.2424
 4181SOL    HW213364   6.202   1.182   4.716 -0.8219  0.5333 -0.0472
 4182SOL     OW13365   5.000   2.665   0.165 -0.1947 -0.3611 -0.3944
 4182SOL    HW113366   4.956   2.681   0.253 -1.6272 -1.4309 -0.8734
 4182SOL    HW213367   5.044   2.575   0.166  1.5741  0.4645 -0.1135
 4183SOL     OW13368   5.486   3.277   3.033 -0.0351 -0.1138 -0.0245
 4183SOL    HW113369   5.582   3.277   3.007 -0.2500 -1.1366 -0.9245
 4183SOL    HW213370   5.453   3.371   3.042  1.3093  0.2571  1.3846
 4184SOL     OW13371   4.555   4.168   1.191  0.3738  0.4423  0.5337
 4184SOL    HW113372   4.605   4.243   1.235 -0.6368  0.1251  2.2913
 4184SOL    HW213373   4.612   4.085   1.193  0.1508  0.3014  1.7431
 4185SOL     OW13374   5.647   6.663   6.418  0.3822 -0.8523  0.3640
 4185SOL    HW113375   5.577   6.594   6.434  0.1732 -0.6574  0.3052
 4185SOL    HW213376   5.728   6.621   6.377 -0.1291 -0.9011 -0.6415
 4186SOL     OW13377   4.561   2.630   0.525  0.1542 -0.1068  0.0968
 4186SOL    HW113378   4.497   2.606   0.598 -0.6227  1.4522 -0.0349
 4186SOL    HW213379   4.565   2.729   0.516  1.8501 -0.2087 -0.5800
 4187SOL     OW13380   1.757   0.011   1.818  0.1798 -0.7524  0.0429
 4187SOL    HW113381   1.755   0.013   1.918 -2.3646  0.7543  0.0340
 4187SOL    HW213382   1.687  -0.052   1.784 -0.7116  0.6104 -0.7589
 4188SOL     OW13383   5.928   3.767   2.262 -0.0607  0.1065  0.4273
 4188SOL    HW113384   6.025   3.789   2.273 -0.4993  1.2832  2.5181
 4188SOL    HW213385   5.900   3.786   2.168  1.5901  0.2774 -0.0674
 4189SOL     OW13386   5.162   6.070   2.333  0.2546  0.4133  0.8747
 4189SOL    HW113387   5.094   6.142   2.343 -1.6964 -1.2416  0.2233
 4189SOL    HW213388   5.160   6.034   2.240  2.4681  0.6854  0.6734
 4190SOL     OW13389   1.915   1.243   0.074  0.0588  0.1707  0.0715
 4190SOL    HW113390   1.827   1.252   0.121  0.1706  0.5844  0.2101
 4190SOL    HW213391   1.905   1.182  -0.004 -0.0261 -0.8638  0.8754
 4191SOL     OW13392   6.710   1.185   3.858  0.2611 -0.3663 -0.1216
 4191SOL    HW113393   6.690   1.283   3.850  1.4628 -0.1965 -1.3810
 4191SOL    HW213394   6.785   1.172   3.924 -0.3596 -0.5199  0.5689
 4192SOL     OW13395   2.192   1.311   1.992  0.2440  1.0316 -0.1809
 4192SOL    HW113396   2.215   1.407   2.004 -0.1671  0.9739  1.2053
 4192SOL    HW213397   2.178   1.268   2.081  1.0535 -0.4821 -0.7361
 4193SOL     OW13398   5.044   6.492   3.909  0.6560  0.6191  0.0810
 4193SOL    HW113399   5.142   6.507   3.893  0.2031  2.3059 -1.4689
 4193SOL    HW213400   5.013   6.551   3.983  0.8785 -0.3515  0.9877
 4194SOL     OW13401   4.740   2.468   4.835 -0.3877  0.2252 -0.1445
 4194SOL    HW113402   4.671   2.404   4.870  0.7084 -0.9322 -0.0229
 4194SOL    HW213403   4.749   2.545   4.898 -0.2361 -0.5724  0.8509
 4195SOL     OW13404   6.671   2.636   6.457  0.5161  0.0304 -0.0738
 4195SOL    HW113405   6.647   2.570   6.529  1.7241  0.1256  0.4542
 4195SOL    HW213406   6.677   2.589   6.369 -1.9864  0.0929 -0.3561
 4196SOL     OW13407   6.146   5.056   4.596  0.0935  0.3097 -0.1750
 4196SOL    HW113408   6.101   5.004   4.524 -0.0450 -0.1807  0.2586
 4196SOL    HW213409   6.126   5.154   4.584 -1.8837  0.0474  0.5282
 4197SOL     OW13410   0.095   4.162   1.817 -0.3024 -0.1067  0.1969
 4197SOL    HW113411   0.155   4.136   1.892 -0.9966 -1.6722  0.2376
 4197SOL    HW213412   0.047   4.081   1.783 -1.6460  0.9471 -0.4872
 4198SOL     OW13413   0.381   1.808   1.358  0.5490 -0.3616  0.3177
 4198SOL    HW113414   0.447   1.874   1.393 -0.2820  1.6510 -1.6482
 4198SOL    HW213415   0.387   1.804   1.258 -1.2913 -1.2523  0.1971
 4199SOL     OW13416   4.091   6.509   3.453 -0.4720 -0.0408 -0.2037
 4199SOL    HW113417   4.005   6.524   3.406 -1.7768  0.0517  2.0646
 4199SOL    HW213418   4.096   6.414   3.483  1.4933 -0.7894 -2.5971
 4200SOL     OW13419   5.197   2.576   1.880 -0.3166 -0.2542 -0.5718
 4200SOL    HW113420   5.104   2.602   1.857 -0.3103  0.6521  0.3442
 4200SOL    HW213421   5.215   2.483   1.850 -1.8964 -0.8562  0.2894
 4201SOL     OW13422   4.217   1.383   3.347 -0.2452  0.4548  0.0452
 4201SOL    HW113423   4.207   1.284   3.339 -0.9304  0.5634 -0.5815
 4201SOL    HW213424   4.309   1.410   3.319  0.0240 -0.0303  0.4650
 4202SOL     OW13425   5.411   5.121   6.576  0.0099  0.4492  0.4113
 4202SOL    HW113426   5.377   5.027   6.583  3.4510 -1.0533 -0.5898
 4202SOL    HW213427   5.360   5.170   6.506  0.1993 -1.8017 -1.4397
 4203SOL     OW13428   3.303   6.207   6.491 -0.4525 -0.3649 -0.2099
 4203SOL    HW113429   3.319   6.218   6.393 -1.5433  0.7160 -0.2951
 4203SOL    HW213430   3.386   6.173   6.535  1.0782  2.0649 -1.0407
 4204SOL     OW13431   3.552   2.797   2.359  0.6891 -0.3960  0.4824
 4204SOL    HW113432   3.615   2.849   2.416  2.5435 -0.6411 -1.2088
 4204SOL    HW213433   3.482   2.858   2.321  1.5301  0.4463  0.2627
 4205SOL     OW13434   2.785   5.629   6.565  0.1811 -0.0974  0.1494
 4205SOL    HW113435   2.760   5.637   6.469  0.0169  2.5333  0.3408
 4205SOL    HW213436   2.875   5.587   6.573  0.8010  0.9049 -1.2603
 4206SOL     OW13437   0.600   2.161   6.641  0.0367 -0.0749  0.1704
 4206SOL    HW113438   0.629   2.239   6.697  0.5345  0.3914 -0.7086
 4206SOL    HW213439   0.672   2.139   6.575 -1.5369  1.0543 -2.0455
 4207SOL     OW13440   4.079   2.340   2.841  0.8284 -0.5877  0.4586
 4207SOL    HW113441   4.138   2.281   2.896 -0.0096 -0.2566  1.7544
 4207SOL    HW213442   4.106   2.436   2.854 -0.3043 -0.3906  1.4805
 4208SOL     OW13443   3.337   1.290   2.586 -0.4413 -0.1533 -0.0506
 4208SOL    HW113444   3.242   1.276   2.558  0.0614 -1.0112 -1.3784
 4208SOL    HW213445   3.397   1.233   2.531  0.6927 -1.2590  2.1929
 4209SOL     OW13446   5.321   1.665   3.771  0.3942 -0.9563  0.2653
 4209SOL    HW113447   5.355   1.746   3.725 -0.2977 -0.8355 -0.0517
 4209SOL    HW213448   5.374   1.648   3.854 -1.0136  1.2876  1.7341
 4210SOL     OW13449   1.662   0.177   5.046  0.0025  0.3215 -0.4576
 4210SOL    HW113450   1.583   0.231   5.018 -0.1366  0.0312 -0.6270
 4210SOL    HW213451   1.696   0.211   5.134  1.6274  2.4994 -1.8173
 4211SOL     OW13452   4.142   6.012   3.631  0.3092  0.0704  0.1366
 4211SOL    HW113453   4.084   5.952   3.577 -0.1751  0.8220 -0.2046
 4211SOL    HW213454   4.109   6.014   3.726 -2.4108  3.0162 -0.6783
 4212SOL     OW13455   3.011   3.846   4.263  0.6364  0.4125  0.6181
 4212SOL    HW113456   2.944   3.921   4.266 -0.3640 -0.3215 -1.5217
 4212SOL    HW213457   2.978   3.771   4.320  2.7638  2.2617  4.7834
 4213SOL     OW13458   1.727   0.940   4.940  0.4949  0.1126 -0.2512
 4213SOL    HW113459   1.724   0.962   5.037  1.3079  1.8807 -0.5920
 4213SOL    HW213460   1.820   0.910   4.915  0.6593  0.9872 -0.7294
 4214SOL     OW13461   4.056   3.024   4.853  0.1067  0.1552 -0.4162
 4214SOL    HW113462   4.150   2.992   4.865  0.2444  0.1564 -1.4141
 4214SOL    HW213463   4.024   3.066   4.938 -0.0358 -2.4696  0.9437
 4215SOL     OW13464   0.811   0.817   2.025  0.0106 -0.0482 -0.0844
 4215SOL    HW113465   0.822   0.916   2.024 -1.1247  0.0962  0.3736
 4215SOL    HW213466   0.737   0.792   2.087  0.6075 -1.2274  0.1803
 4216SOL     OW13467   5.904   4.565   2.082 -0.5210 -0.6379 -0.2746
 4216SOL    HW113468   5.916   4.465   2.086 -2.3475 -0.8435  2.3830
 4216SOL    HW213469   5.811   4.586   2.054 -0.7990  0.2490  1.2636
 4217SOL     OW13470   0.957   0.975   2.762  0.4018  0.4119  0.1433
 4217SOL    HW113471   0.939   1.043   2.692  0.5926  0.0065 -0.3046
 4217SOL    HW213472   1.025   1.010   2.826  0.7386  0.5178 -0.2718
 4218SOL     OW13473   4.894   2.827   1.661  0.1013 -0.5809  0.0008
 4218SOL    HW113474   4.971   2.827   1.597 -1.1472  0.3430 -1.5797
 4218SOL    HW213475   4.811   2.799   1.613 -0.9641  0.5833  1.0960
 4219SOL     OW13476   0.248   1.706   0.263  0.3844  0.3648  0.1868
 4219SOL    HW113477   0.261   1.613   0.226 -2.1310 -0.3900  1.0490
 4219SOL    HW213478   0.317   1.723   0.334  2.8824  0.4241 -2.0786
 4220SOL     OW13479   5.941   6.113   6.210 -0.2316  0.5648  0.1703
 4220SOL    HW113480   5.939   6.090   6.307  0.9933  0.4027  0.1720
 4220SOL    HW213481   5.903   6.037   6.157  2.6030 -1.0776  0.2694
 4221SOL     OW13482   2.611   1.595   6.322  0.4566 -0.6135 -0.1305
 4221SOL    HW113483   2.625   1.605   6.420 -0.1534  1.5470 -0.2234
 4221SOL    HW213484   2.689   1.547   6.281  2.4058  1.5271  0.9108
 4222SOL     OW13485   6.938   5.433   3.284 -0.1310  0.7543  0.2199
 4222SOL    HW113486   6.842   5.409   3.271 -0.1028  1.2483 -1.1464
 4222SOL    HW213487   6.953   5.465   3.377 -0.8699 -1.1853  1.0432
 4223SOL     OW13488   4.766   0.952   4.327 -0.1290 -0.6083 -0.1751
 4223SOL    HW113489   4.706   1.018   4.372  1.8984  1.6674 -0.6323
 4223SOL    HW213490   4.770   0.971   4.229  2.2643  0.1674  0.0108
 4224SOL     OW13491   4.960   4.006   0.439 -1.0038 -0.4707  0.1144
 4224SOL    HW113492   4.902   4.048   0.509  0.8629  0.2838  1.2616
 4224SOL    HW213493   4.961   3.907   0.452  0.8744 -0.2273  2.4986
 4225SOL     OW13494   1.785   4.865   1.867 -0.2610  0.0527  0.2243
 4225SOL    HW113495   1.834   4.950   1.884 -1.1193  0.4824  0.6392
 4225SOL    HW213496   1.849   4.788   1.871  1.1908  0.8831 -3.4734
 4226SOL     OW13497   3.453   0.637   2.056  0.4830 -0.2452 -0.8520
 4226SOL    HW113498   3.479   0.712   2.118 -0.6325  0.0270 -0.6964
 4226SOL    HW213499   3.406   0.675   1.977 -1.9030 -0.8910  0.1780
 4227SOL     OW13500   4.218   0.231   2.906 -0.0545  0.7056 -0.0335
 4227SOL    HW113501   4.249   0.136   2.905 -1.1161  0.2049 -4.2906
 4227SOL    HW213502   4.126   0.236   2.947 -0.6949 -0.4480 -1.2730
 4228SOL     OW13503   0.469   0.865   5.752  0.2650  0.1422 -0.2227
 4228SOL    HW113504   0.453   0.950   5.702  0.4991  0.9244  0.9922
 4228SOL    HW213505   0.468   0.884   5.851 -0.1011 -1.3387  0.0743
 4229SOL     OW13506   6.781   4.069   0.038  0.7920  0.2708 -0.2764
 4229SOL    HW113507   6.732   3.982   0.028  2.3786 -1.1866  3.0356
 4229SOL    HW213508   6.717   4.141   0.065 -0.0287 -0.7388  0.5119
 4230SOL     OW13509   3.600   4.760   3.130 -0.3429  0.5366  0.3956
 4230SOL    HW113510   3.505   4.780   3.155 -0.5640  0.3586 -0.2958
 4230SOL    HW213511   3.660   4.782   3.208 -0.8374  1.6088  0.4919
 4231SOL     OW13512   4.906   0.318   3.445 -0.4005 -0.1843 -0.4195
 4231SOL    HW113513   4.969   0.395   3.436 -0.5026  0.1045  0.9654
 4231SOL    HW213514   4.955   0.233   3.432  0.4832  0.0045  1.2806
 4232SOL     OW13515   2.011   0.547   4.033  0.4619 -0.2645  0.2356
 4232SOL    HW113516   2.037   0.632   4.079  0.9643 -0.0145 -0.4882
 4232SOL    HW213517   2.051   0.545   3.941 -1.3480 -0.2947 -0.5853
 4233SOL     OW13518   4.843   0.399   0.591 -0.1646 -0.4411 -0.1249
 4233SOL    HW113519   4.854   0.483   0.646 -0.1348 -1.2587  1.1696
 4233SOL    HW213520   4.920   0.390   0.528  1.4150 -0.9457  1.7663
 4234SOL     OW13521   5.001   3.240   0.667 -0.1812 -0.1885  0.3760
 4234SOL    HW113522   5.028   3.238   0.571  1.2381  1.0497  0.7014
 4234SOL    HW213523   4.971   3.149   0.696 -0.2860 -0.6508 -1.1338
 4235SOL     OW13524   3.622   1.256   1.789  0.1376 -0.0952  0.2947
 4235SOL    HW113525   3.603   1.211   1.876  0.9320 -3.3490 -1.0625
 4235SOL    HW213526   3.603   1.193   1.714  2.8704  1.2929 -1.7292
 4236SOL     OW13527   2.728   4.355   1.297 -0.2597  0.3795 -0.3166
 4236SOL    HW113528   2.648   4.325   1.348 -1.0502  0.3178 -1.5437
 4236SOL    HW213529   2.801   4.287   1.307 -1.4742 -1.2153 -1.7392
 4237SOL     OW13530   2.578   4.325   6.815 -0.5042  0.4606 -0.1605
 4237SOL    HW113531   2.537   4.398   6.760 -0.8506  0.6727  0.3668
 4237SOL    HW213532   2.568   4.347   6.912 -0.3734 -0.1606 -0.0019
 4238SOL     OW13533   2.492   2.684   0.401  0.0626  0.7233 -0.0038
 4238SOL    HW113534   2.526   2.602   0.448 -0.8148  0.9131  1.0061
 4238SOL    HW213535   2.418   2.659   0.339  1.4644  0.4202 -1.6186
 4239SOL     OW13536   1.766   1.919   5.653  0.2950 -0.2925  0.0040
 4239SOL    HW113537   1.704   1.990   5.688  0.8154  0.2600 -0.1770
 4239SOL    HW213538   1.831   1.894   5.724  0.5507 -0.0826 -0.1526
 4240SOL     OW13539   3.686   1.942   1.622  0.8914  0.4190  0.0124
 4240SOL    HW113540   3.654   1.924   1.715  2.9029 -0.8299  0.5339
 4240SOL    HW213541   3.610   1.977   1.567 -1.2195 -1.8660  1.2496
 4241SOL     OW13542   0.694   0.819   4.205 -0.2691  0.5559 -0.1930
 4241SOL    HW113543   0.721   0.875   4.283  0.8769  0.4260 -0.4795
 4241SOL    HW213544   0.768   0.754   4.183 -0.6397  0.4767 -1.2713
 4242SOL     OW13545   2.265   0.750   3.076  0.1872 -0.1464 -0.4605
 4242SOL    HW113546   2.351   0.718   3.035  0.6754  1.1243 -0.4782
 4242SOL    HW213547   2.197   0.763   3.004  1.1554  2.4416 -1.0377
 4243SOL     OW13548   0.838   0.708   2.479 -0.6302 -0.4679 -0.1844
 4243SOL    HW113549   0.875   0.769   2.550 -1.4236 -0.6946  0.4379
 4243SOL    HW213550   0.749   0.743   2.449  1.4196  2.0614 -4.1655
 4244SOL     OW13551   0.842   0.018   3.367 -0.5205 -1.0090  0.0390
 4244SOL    HW113552   0.813   0.066   3.284  2.2859 -0.3457 -0.6377
 4244SOL    HW213553   0.793  -0.069   3.374 -2.1553 -0.2500 -1.2840
 4245SOL     OW13554   1.613   3.986   5.018 -0.2246  0.2134  0.2853
 4245SOL    HW113555   1.690   3.998   5.081 -0.0558 -0.1209  0.1450
 4245SOL    HW213556   1.603   4.069   4.963  1.2763 -0.4592 -1.0593
 4246SOL     OW13557   0.004   5.177   5.424 -0.0788 -0.0822 -0.1768
 4246SOL    HW113558   0.063   5.165   5.344  0.4813  0.4748  0.1371
 4246SOL    HW213559  -0.039   5.090   5.448  1.1432 -0.6619 -0.0134
 4247SOL     OW13560   4.802   6.717   1.050  0.1173 -0.1501  0.3711
 4247SOL    HW113561   4.811   6.772   0.968  0.1628  0.7928  0.9924
 4247SOL    HW213562   4.880   6.654   1.057 -1.4315 -2.5315 -1.9250
 4248SOL     OW13563   6.831   6.740   0.786 -0.5260 -0.1582  0.1120
 4248SOL    HW113564   6.824   6.642   0.807  0.3847 -0.2520  0.0334
 4248SOL    HW213565   6.889   6.752   0.706  0.7113  0.5258  1.0765
 4249SOL     OW13566   3.131   4.257   2.638  0.3390  0.0663 -0.1055
 4249SOL    HW113567   3.113   4.158   2.645 -4.8782  0.8250  2.4870
 4249SOL    HW213568   3.083   4.293   2.557 -0.1263  0.7694  0.4696
 4250SOL     OW13569   3.300   4.905   5.477 -0.2976  0.2135  0.2395
 4250SOL    HW113570   3.279   4.957   5.560 -0.3889  0.0255  0.3335
 4250SOL    HW213571   3.279   4.809   5.491  0.7956 -0.0176  0.4100
 4251SOL     OW13572   3.840   3.097   0.788  0.0198 -0.5631 -0.1375
 4251SOL    HW113573   3.913   3.138   0.733  0.9014 -1.9264 -0.0335
 4251SOL    HW213574   3.762   3.075   0.729 -0.3650  0.9745 -0.2349
 4252SOL     OW13575   1.040   0.852   1.274 -0.3555 -0.5092 -0.0985
 4252SOL    HW113576   0.979   0.810   1.206 -0.4702  0.7100 -0.7662
 4252SOL    HW213577   0.987   0.870   1.357 -1.2424  1.5113 -1.0337
 4253SOL     OW13578   3.230   6.923   4.245  0.3925  0.0562 -0.3461
 4253SOL    HW113579   3.140   6.918   4.203 -0.7833 -0.0092  2.0262
 4253SOL    HW213580   3.228   6.985   4.323  2.4877  0.2501 -0.3763
 4254SOL     OW13581   2.655   1.867   4.910  0.0672  0.0983 -0.1583
 4254SOL    HW113582   2.581   1.906   4.965 -0.0738 -0.0308 -0.2534
 4254SOL    HW213583   2.617   1.797   4.849  0.4133 -0.6513  0.4674
 4255SOL     OW13584   2.497   3.320   2.654 -0.1017 -0.1882  0.0682
 4255SOL    HW113585   2.552   3.331   2.737  0.9319 -1.5735 -0.3925
 4255SOL    HW213586   2.547   3.360   2.577 -0.4803 -0.0366 -0.0972
 4256SOL     OW13587   2.715   5.356   3.562 -0.4944 -0.4617  0.3157
 4256SOL    HW113588   2.778   5.431   3.581  1.7354 -2.2880  0.6452
 4256SOL    HW213589   2.673   5.370   3.472 -1.0300  1.7069  0.8558
 4257SOL     OW13590   6.838   5.934   4.388  0.4498  0.2942  0.3794
 4257SOL    HW113591   6.791   5.862   4.338  1.9321 -0.1734 -0.3960
 4257SOL    HW213592   6.771   5.996   4.428 -0.8093 -0.4138 -0.5677
 4258SOL     OW13593   4.973   2.289   4.100 -0.2970  0.1795 -0.8642
 4258SOL    HW113594   5.040   2.347   4.146 -1.3070  0.5644  0.1384
 4258SOL    HW213595   4.911   2.345   4.046  0.2886 -0.1972 -1.9858
 4259SOL     OW13596   5.267   3.927   5.757  0.4374 -0.1088 -0.0987
 4259SOL    HW113597   5.362   3.936   5.787  0.4588  0.6414 -0.3679
 4259SOL    HW213598   5.262   3.928   5.657  0.2695 -1.6015 -0.1312
 4260SOL     OW13599   6.281   5.686   0.436 -0.1272  0.4714  0.7118
 4260SOL    HW113600   6.279   5.592   0.471 -2.9936 -0.2201 -0.9618
 4260SOL    HW213601   6.204   5.737   0.474 -1.1282  0.7979 -1.6062
 4261SOL     OW13602   0.876   5.982   4.833  0.0646 -0.0609  0.0120
 4261SOL    HW113603   0.920   6.001   4.921 -0.3761 -0.4584  0.3224
 4261SOL    HW213604   0.909   5.894   4.798  0.6448  0.3451 -0.4867
 4262SOL     OW13605   0.251   3.405   4.348 -0.0089 -0.9368 -0.2140
 4262SOL    HW113606   0.343   3.415   4.309  0.4718 -0.7469  0.9442
 4262SOL    HW213607   0.184   3.439   4.282  0.7787 -0.6509 -0.8907
 4263SOL     OW13608   1.611   0.288   4.567 -0.3713  0.0970 -0.2818
 4263SOL    HW113609   1.629   0.256   4.474  1.6545 -0.1973  0.1604
 4263SOL    HW213610   1.559   0.373   4.564  0.1210  0.3719 -1.6936
 4264SOL     OW13611   3.325   5.182   0.831 -0.3744  0.0529 -0.3727
 4264SOL    HW113612   3.363   5.254   0.773  0.8751 -1.9367 -2.2089
 4264SOL    HW213613   3.233   5.160   0.800 -0.7866  0.9029  0.2415
 4265SOL     OW13614   1.520   2.116   4.938  0.3853  0.0611 -0.0371
 4265SOL    HW113615   1.486   2.044   4.999 -2.3275  0.1313 -1.2757
 4265SOL    HW213616   1.493   2.205   4.974  1.7225  0.3382  0.3219
 4266SOL     OW13617   6.324   4.360   2.426  0.0397  0.4502  0.2479
 4266SOL    HW113618   6.234   4.401   2.437 -0.3502 -0.2819 -0.1364
 4266SOL    HW213619   6.394   4.432   2.428 -0.4792  0.9454  1.3478
 4267SOL     OW13620   2.644   2.626   5.136  0.1838  0.4670  0.0852
 4267SOL    HW113621   2.665   2.543   5.086 -1.1265  0.0398  0.2058
 4267SOL    HW213622   2.725   2.655   5.188  1.4577  0.7140 -1.9209
 4268SOL     OW13623   0.990   6.557   1.812 -0.3335  0.1918  0.3861
 4268SOL    HW113624   0.993   6.625   1.885  1.1284  0.2579  0.3018
 4268SOL    HW213625   0.974   6.466   1.850  1.7770  0.0229  0.9937
 4269SOL     OW13626   5.104   3.411   1.864 -0.4915  0.0328  0.2539
 4269SOL    HW113627   5.129   3.481   1.797  0.6994 -0.4396  0.1626
 4269SOL    HW213628   5.070   3.330   1.816  0.3451 -0.2990  0.1948
 4270SOL     OW13629   4.447   6.057   3.667 -0.1046 -0.3114  0.4134
 4270SOL    HW113630   4.472   6.122   3.739  0.2924 -2.7814  2.6717
 4270SOL    HW213631   4.349   6.038   3.671 -0.0808 -0.4617  0.3005
 4271SOL     OW13632   6.287   0.435   3.390  0.6315  0.2846  0.0538
 4271SOL    HW113633   6.210   0.465   3.334  1.2474  2.3397  0.2490
 4271SOL    HW213634   6.308   0.339   3.369 -1.1797  0.0482 -0.8640
 4272SOL     OW13635   0.261   6.038   5.767  0.0142  0.7519 -0.0450
 4272SOL    HW113636   0.354   6.072   5.778  0.4416 -0.6404  0.8543
 4272SOL    HW213637   0.231   6.054   5.673  2.2000 -1.2455 -1.1739
 4273SOL     OW13638   6.580   1.913   2.442  0.2339 -0.0656 -0.2596
 4273SOL    HW113639   6.664   1.897   2.494  1.2496 -0.4274 -1.9589
 4273SOL    HW213640   6.602   1.947   2.351 -1.4101 -0.9683 -1.0450
 4274SOL     OW13641   3.223   1.095   4.049 -0.2153 -0.4847  0.2362
 4274SOL    HW113642   3.141   1.063   4.096 -2.0538  1.3117 -1.5062
 4274SOL    HW213643   3.249   1.029   3.978 -1.5420 -0.0788 -0.6653
 4275SOL     OW13644   6.319   6.799   5.119 -0.0470 -0.7974  0.3461
 4275SOL    HW113645   6.293   6.720   5.176  0.8542  0.1183  2.1024
 4275SOL    HW213646   6.369   6.865   5.175  1.2020  0.0030 -1.6337
 4276SOL     OW13647   6.805   0.441   0.882  0.0051 -0.1531  0.0684
 4276SOL    HW113648   6.875   0.473   0.818 -1.3767  1.0106 -0.9296
 4276SOL    HW213649   6.742   0.380   0.834  0.4068 -1.3714  1.0147
 4277SOL     OW13650   2.986   0.620   0.885  0.2189 -0.6036 -0.2433
 4277SOL    HW113651   3.006   0.548   0.952  1.2985 -0.0917  0.0172
 4277SOL    HW213652   3.065   0.631   0.825 -0.5987 -0.8009 -1.3913
 4278SOL     OW13653   4.880   4.545   1.949  0.3222  0.0561  0.1724
 4278SOL    HW113654   4.973   4.556   1.984  0.6827 -0.7721 -0.5067
 4278SOL    HW213655   4.881   4.550   1.849  0.0173 -2.4490 -0.0020
 4279SOL     OW13656   4.053   1.970   6.032  0.2249  0.1828  0.3813
 4279SOL    HW113657   4.010   1.923   5.956  1.1234 -0.4923  0.2844
 4279SOL    HW213658   3.983   2.020   6.084 -0.5191 -0.0946 -0.3388
 4280SOL     OW13659   6.104   0.225   0.151 -0.0221 -0.0010 -0.4166
 4280SOL    HW113660   6.086   0.247   0.246  0.5739  1.7829 -0.6788
 4280SOL    HW213661   6.091   0.307   0.095  2.8118 -0.1516 -1.4227
 4281SOL     OW13662   5.405   1.604   4.026  0.0494 -0.2258 -0.3526
 4281SOL    HW113663   5.415   1.559   4.114  0.3929 -1.4856 -1.0056
 4281SOL    HW213664   5.366   1.696   4.039  2.0379  0.4647  1.2961
 4282SOL     OW13665   4.890   3.897   0.867 -0.3523 -0.7657 -0.5339
 4282SOL    HW113666   4.822   3.843   0.818  0.8238 -1.9566 -0.8965
 4282SOL    HW213667   4.919   3.848   0.949 -0.8391  0.3103  0.3028
 4283SOL     OW13668   2.776   6.357   2.791  0.5387  0.3254  0.4718
 4283SOL    HW113669   2.683   6.326   2.772  0.9676 -0.8230  0.1459
 4283SOL    HW213670   2.780   6.457   2.785 -0.8638  0.4602  1.3841
 4284SOL     OW13671   3.221   2.045   4.763  0.5529  0.4259 -0.1397
 4284SOL    HW113672   3.283   1.967   4.775 -1.0475 -0.6991  1.3215
 4284SOL    HW213673   3.203   2.059   4.665  2.1618  0.0566 -0.5187
 4285SOL     OW13674   4.830   4.899   6.920 -0.0552  0.5807  0.0992
 4285SOL    HW113675   4.776   4.964   6.866  0.2509 -0.3268 -1.3722
 4285SOL    HW213676   4.921   4.889   6.880  0.3691  0.2618  1.1058
 4286SOL     OW13677   5.131   4.072   3.105 -0.6865  0.1492  0.0232
 4286SOL    HW113678   5.127   4.064   3.005  1.6805 -2.0375  0.0061
 4286SOL    HW213679   5.065   4.010   3.146  0.0505 -0.8314 -0.2274
 4287SOL     OW13680   0.020   0.529   0.752 -0.4731 -0.3239 -0.1085
 4287SOL    HW113681   0.007   0.543   0.654 -0.3651 -0.3457 -0.1258
 4287SOL    HW213682   0.077   0.603   0.789  1.0422 -1.2865 -0.4045
 4288SOL     OW13683   5.145   1.258   3.526  0.0492  0.5190  0.0867
 4288SOL    HW113684   5.157   1.213   3.614 -0.4861 -1.0258 -0.5888
 4288SOL    HW213685   5.191   1.347   3.527  0.6589  0.2167  1.6692
 4289SOL     OW13686   5.461   1.002   6.083 -0.3692 -0.0667 -0.5285
 4289SOL    HW113687   5.384   0.960   6.130 -0.0266 -0.1077  0.0129
 4289SOL    HW213688   5.478   0.955   5.996 -0.2283 -0.8083 -0.1090
 4290SOL     OW13689   5.401   0.258   5.379 -0.2158 -0.4969 -0.6701
 4290SOL    HW113690   5.448   0.169   5.388  0.0741 -0.1578  1.7484
 4290SOL    HW213691   5.353   0.279   5.464 -1.6670  0.9278 -1.7962
 4291SOL     OW13692   5.343   4.001   0.162  0.1511 -0.1253  0.4202
 4291SOL    HW113693   5.284   3.946   0.221 -0.3420 -0.2542 -0.1807
 4291SOL    HW213694   5.382   3.943   0.090  0.7232  0.0337  0.6050
 4292SOL     OW13695   3.241   6.547   3.191  0.5323  0.7133 -0.4233
 4292SOL    HW113696   3.302   6.502   3.126 -0.4536  1.2186 -1.7654
 4292SOL    HW213697   3.201   6.628   3.148  2.2203  2.9326  1.8787
 4293SOL     OW13698   4.269   1.393   3.829  0.1981  0.1867 -0.3871
 4293SOL    HW113699   4.340   1.398   3.899 -0.8370  0.3345  0.6959
 4293SOL    HW213700   4.279   1.470   3.766 -0.0409  1.2563  0.8165
 4294SOL     OW13701   3.627   0.040   2.637  0.2027 -0.8640  0.1354
 4294SOL    HW113702   3.719   0.015   2.669  0.3646 -1.0278 -0.4379
 4294SOL    HW213703   3.635   0.105   2.561 -0.1798 -0.2996  0.5742
 4295SOL     OW13704   5.534   6.127   3.355 -0.3582  0.4151  0.3528
 4295SOL    HW113705   5.557   6.032   3.336 -1.1989 -0.0642  1.5914
 4295SOL    HW213706   5.458   6.156   3.297 -0.1347  0.3122  0.0112
 4296SOL     OW13707   4.737   1.939   1.496  0.0151 -0.4521  0.5497
 4296SOL    HW113708   4.654   1.994   1.486  1.0225  1.0354  0.0400
 4296SOL    HW213709   4.785   1.967   1.579 -0.9223 -2.6688  1.9466
 4297SOL     OW13710   6.043   1.630   1.876 -0.1461 -0.0025 -0.3259
 4297SOL    HW113711   6.095   1.587   1.803 -0.6048 -0.0164 -0.6443
 4297SOL    HW213712   6.072   1.726   1.885  0.2280 -0.1205 -0.2175
 4298SOL     OW13713   2.022   4.719   1.255  0.6267 -0.1832 -0.0985
 4298SOL    HW113714   2.078   4.799   1.276  0.8900 -0.5528  0.6337
 4298SOL    HW213715   1.926   4.747   1.248  0.5178 -0.0208  1.6076
 4299SOL     OW13716   0.524   5.312   6.861 -0.0366 -0.4692  0.3108
 4299SOL    HW113717   0.450   5.298   6.926 -2.3214 -0.0217 -2.0291
 4299SOL    HW213718   0.516   5.404   6.821  1.1474 -0.8060 -0.7648
 4300SOL     OW13719   6.819   4.176   6.093  0.6385 -0.4638 -0.1306
 4300SOL    HW113720   6.773   4.222   6.169 -0.2043 -1.1640 -0.2052
 4300SOL    HW213721   6.874   4.243   6.042  0.7251  0.1302  0.7221
 4301SOL     OW13722   1.966   5.866   6.972  0.2000  0.1316  0.0101
 4301SOL    HW113723   1.913   5.945   7.001 -0.5720  0.2571 -1.6013
 4301SOL    HW213724   2.062   5.879   6.997 -0.4304  0.0371  2.7049
 4302SOL     OW13725   0.821   2.654   0.990  0.2484  0.2876  0.6299
 4302SOL    HW113726   0.915   2.619   0.982 -0.1089 -0.3259 -1.5594
 4302SOL    HW213727   0.768   2.593   1.049 -0.0875 -2.5100 -2.2853
 4303SOL     OW13728   5.549   4.271   6.282  0.2810 -0.0573 -0.0191
 4303SOL    HW113729   5.607   4.256   6.363 -1.2887  0.9316  1.3648
 4303SOL    HW213730   5.547   4.188   6.227 -0.8595 -1.8537  2.5113
 4304SOL     OW13731   5.897   5.125   3.283 -0.7704 -0.5657 -0.7370
 4304SOL    HW113732   5.940   5.036   3.295 -1.1484 -0.5574  1.0079
 4304SOL    HW213733   5.906   5.178   3.368 -1.3555  0.7048 -1.4321
 4305SOL     OW13734   2.792   4.455   1.934  0.2284  0.0972 -0.0758
 4305SOL    HW113735   2.759   4.510   2.010  0.5376 -1.6489  1.3949
 4305SOL    HW213736   2.768   4.359   1.949  1.0741 -0.4222 -1.7443
 4306SOL     OW13737   2.511   4.598   1.656  0.4959  0.2674 -0.6721
 4306SOL    HW113738   2.499   4.543   1.573  2.2448 -1.8250  0.3432
 4306SOL    HW213739   2.592   4.566   1.706 -0.5156  1.3957  1.8913
 4307SOL     OW13740   1.298   0.829   1.971 -0.0310  0.3594 -0.1113
 4307SOL    HW113741   1.330   0.778   1.892 -0.2076  0.9247 -0.5561
 4307SOL    HW213742   1.318   0.926   1.959 -1.3283  0.6469 -0.1253
 4308SOL     OW13743   3.831   2.224   2.850 -0.1988  0.1567  0.6802
 4308SOL    HW113744   3.782   2.222   2.763 -0.8551  1.0898  1.0115
 4308SOL    HW213745   3.907   2.290   2.843 -1.0602  1.2373  1.2070
 4309SOL     OW13746   2.737   4.427   5.745  0.9715  0.0692  0.0360
 4309SOL    HW113747   2.647   4.388   5.730  1.5240 -0.7763 -1.2301
 4309SOL    HW213748   2.729   4.511   5.799 -0.7834  1.0667 -1.6480
 4310SOL     OW13749   0.238   4.735   4.728 -0.5266  0.6894  0.0489
 4310SOL    HW113750   0.235   4.641   4.694 -2.1809  1.7463 -3.1821
 4310SOL    HW213751   0.324   4.751   4.775 -0.1421 -2.3616  0.6100
 4311SOL     OW13752   4.870   3.747   0.430 -0.2035 -0.0327 -0.3739
 4311SOL    HW113753   4.773   3.729   0.447  0.1312 -1.4243  0.2366
 4311SOL    HW213754   4.919   3.660   0.423  0.9684  0.6423 -0.9467
 4312SOL     OW13755   0.447   6.721   3.682  0.7366  0.2222 -0.3928
 4312SOL    HW113756   0.525   6.663   3.707  0.6774  0.3448  0.0924
 4312SOL    HW213757   0.404   6.757   3.765  0.5679  0.6916 -0.6755
 4313SOL     OW13758   3.634   6.148   2.200  0.1601 -0.0474 -0.5728
 4313SOL    HW113759   3.728   6.130   2.173  0.7608  0.6429  0.9397
 4313SOL    HW213760   3.594   6.067   2.242  0.5982  0.1173  0.1660
 4314SOL     OW13761   1.499   1.829   6.897 -0.0328  0.3935 -0.4264
 4314SOL    HW113762   1.552   1.900   6.943  0.9088 -0.0732 -0.7733
 4314SOL    HW213763   1.446   1.778   6.965  2.0078 -0.8595  0.3103
 4315SOL     OW13764   6.711   2.997   5.418 -0.5680 -0.4003 -0.4943
 4315SOL    HW113765   6.643   2.924   5.426  0.4924 -1.3220  0.2832
 4315SOL    HW213766   6.803   2.959   5.428  0.0430  0.9466 -0.7604
 4316SOL     OW13767   5.971   4.104   2.631  0.2241 -0.4340  0.8590
 4316SOL    HW113768   5.987   4.015   2.675  1.9976 -1.6724 -1.9880
 4316SOL    HW213769   5.875   4.110   2.602  0.5621 -2.5378 -0.9741
 4317SOL     OW13770   3.277   3.808   6.755 -0.4001 -0.4074 -0.0392
 4317SOL    HW113771   3.344   3.833   6.684  0.2570 -1.6059  0.1152
 4317SOL    HW213772   3.186   3.835   6.726  0.1080  1.0417 -0.3761
 4318SOL     OW13773   6.625   2.345   6.869 -0.3328  0.4779 -0.0049
 4318SOL    HW113774   6.587   2.268   6.919  0.1058  0.2353 -0.0512
 4318SOL    HW213775   6.669   2.408   6.932  0.4175  0.0605 -0.1038
 4319SOL     OW13776   2.594   4.506   4.784 -0.0208  0.0221 -0.3414
 4319SOL    HW113777   2.619   4.525   4.879 -1.7483  0.6534  0.0124
 4319SOL    HW213778   2.520   4.439   4.781 -1.8982  2.0237 -1.0787
 4320SOL     OW13779   5.058   6.250   5.972  0.5701 -0.4085 -0.3008
 4320SOL    HW113780   5.139   6.287   6.016 -0.0972  0.3974  0.2925
 4320SOL    HW213781   5.071   6.153   5.953  1.4180 -0.4408  0.3909
 4321SOL     OW13782   0.407   1.079   3.079  0.3141 -1.1167 -0.2272
 4321SOL    HW113783   0.422   1.105   3.175 -1.2106 -2.5316  0.4540
 4321SOL    HW213784   0.318   1.033   3.071 -1.1121  1.7357 -2.8779
 4322SOL     OW13785   0.933   5.773   2.471  0.7605 -0.3318  0.4806
 4322SOL    HW113786   0.932   5.673   2.473 -2.6666 -0.4197 -0.1688
 4322SOL    HW213787   0.928   5.805   2.377  2.1231  0.5336  0.6611
 4323SOL     OW13788   1.035   6.392   5.243 -0.3547  0.1090  0.4089
 4323SOL    HW113789   1.060   6.334   5.166 -1.3500 -0.1617  0.2761
 4323SOL    HW213790   0.939   6.419   5.235  0.2280  2.3215  0.1293
 4324SOL     OW13791   5.918   0.877   2.518 -0.1478 -0.0694 -0.0299
 4324SOL    HW113792   5.878   0.947   2.458  0.3991  0.7475  0.5387
 4324SOL    HW213793   5.973   0.922   2.589  2.2184 -1.1331 -1.0704
 4325SOL     OW13794   2.878   5.574   2.992  0.2748  0.3796 -0.5359
 4325SOL    HW113795   2.861   5.661   2.945 -0.2245  1.0759  0.8561
 4325SOL    HW213796   2.792   5.523   2.999  0.3006  0.3719 -0.2365
 4326SOL     OW13797   3.921   2.019   4.545  0.4348 -0.4230 -0.0926
 4326SOL    HW113798   3.858   1.957   4.500  1.0894 -0.2333 -1.3095
 4326SOL    HW213799   3.993   2.046   4.481  0.3170  1.3855  0.4798
 4327SOL     OW13800   1.993   4.312   2.994  0.4138  0.0148 -0.1082
 4327SOL    HW113801   2.089   4.332   3.015  0.4052  1.2965 -1.1723
 4327SOL    HW213802   1.940   4.397   2.993 -0.5623 -0.5790 -0.3768
 4328SOL     OW13803   6.165   3.437   0.121  0.4297  0.1940  0.9582
 4328SOL    HW113804   6.228   3.482   0.057 -0.5738  0.0715 -0.1431
 4328SOL    HW213805   6.076   3.426   0.077  0.0765 -1.0240  1.9488
 4329SOL     OW13806   2.631   0.497   2.808 -0.2627  0.1295  0.1485
 4329SOL    HW113807   2.580   0.423   2.764 -0.7676  0.4365  0.2138
 4329SOL    HW213808   2.726   0.469   2.820 -0.8050 -1.1676  1.6958
 4330SOL     OW13809   6.335   3.058   3.630 -0.4041 -0.6055  0.4084
 4330SOL    HW113810   6.427   3.080   3.661 -0.2505  0.4185 -0.6747
 4330SOL    HW213811   6.268   3.099   3.693 -0.1538 -2.0240  1.6408
 4331SOL     OW13812   3.964   5.212   4.380 -0.2790 -0.1484 -0.0778
 4331SOL    HW113813   4.051   5.190   4.335 -0.1186 -0.4458  0.3704
 4331SOL    HW213814   3.913   5.129   4.397 -0.3523 -0.0341  0.2594
 4332SOL     OW13815   1.154   2.195   6.141  0.2239 -0.1777  0.1674
 4332SOL    HW113816   1.104   2.235   6.218  2.7029 -0.1483  1.8752
 4332SOL    HW213817   1.251   2.188   6.165  0.8258 -1.6338 -2.4043
 4333SOL     OW13818   1.028   1.110   5.450 -0.1866  0.2308 -0.4566
 4333SOL    HW113819   1.077   1.196   5.437  0.6775 -0.2526 -0.4404
 4333SOL    HW213820   1.023   1.089   5.548 -0.5813  0.3615 -0.4455
 4334SOL     OW13821   1.483   0.035   3.951  0.4579 -0.5127  0.9155
 4334SOL    HW113822   1.388   0.060   3.932  1.0863  0.6222 -1.0073
 4334SOL    HW213823   1.498  -0.061   3.926  0.2987 -0.1079 -0.8437
 4335SOL     OW13824   3.091   0.536   6.907  0.9362  0.1350  0.0140
 4335SOL    HW113825   3.139   0.450   6.886 -2.1002 -1.5743 -0.5728
 4335SOL    HW213826   3.030   0.558   6.832  0.3172  1.8655  0.9799
 4336SOL     OW13827   6.113   5.063   0.186 -0.0868 -0.3066 -0.5134
 4336SOL    HW113828   6.115   5.088   0.282  1.8654 -0.9097 -0.3566
 4336SOL    HW213829   6.062   4.977   0.175 -1.0313  0.1967 -0.1555
 4337SOL     OW13830   2.494   1.815   1.762 -0.3854 -0.6402  0.6608
 4337SOL    HW113831   2.420   1.799   1.697 -0.8472  2.1321  0.3821
 4337SOL    HW213832   2.582   1.801   1.717 -0.7142 -1.9005  0.3922
 4338SOL     OW13833   0.379   1.347   3.882 -0.8317 -0.1002  0.6122
 4338SOL    HW113834   0.302   1.385   3.832 -0.3150  0.3077  0.1154
 4338SOL    HW213835   0.369   1.369   3.980  0.6566  3.5856  0.1044
 4339SOL     OW13836   0.114   1.805   6.652  0.0273  0.1866 -0.0794
 4339SOL    HW113837   0.095   1.842   6.743  1.0837 -2.7939  1.4943
 4339SOL    HW213838   0.183   1.733   6.660 -0.3700 -0.6545 -3.1779
 4340SOL     OW13839   6.558   0.068   3.522  0.2426  0.2220 -0.4071
 4340SOL    HW113840   6.634   0.015   3.560 -0.6057 -0.7969 -0.0523
 4340SOL    HW213841   6.496   0.094   3.596 -0.3420  0.0359 -0.8214
 4341SOL     OW13842   0.778   5.477   5.800 -0.0501 -0.2334 -0.5957
 4341SOL    HW113843   0.800   5.379   5.799 -0.6881 -0.4004  0.2807
 4341SOL    HW213844   0.736   5.500   5.888  0.3679  0.8966 -0.6786
 4342SOL     OW13845   3.469   1.433   5.800 -0.2505 -0.0637  0.3509
 4342SOL    HW113846   3.401   1.455   5.870  0.6827 -0.2814  1.3481
 4342SOL    HW213847   3.440   1.472   5.713 -0.9218  1.1264  1.0737
 4343SOL     OW13848   1.329   6.165   0.977 -0.0474  0.2645 -0.4250
 4343SOL    HW113849   1.252   6.112   1.012 -1.2318  0.5172 -2.5443
 4343SOL    HW213850   1.400   6.103   0.945 -0.6128 -0.0316 -1.1241
 4344SOL     OW13851   4.770   6.876   2.740  0.6709 -0.5805 -0.2290
 4344SOL    HW113852   4.765   6.967   2.782  0.6170 -0.9352  0.5625
 4344SOL    HW213853   4.836   6.877   2.665  1.0877 -0.0227  0.1371
 4345SOL     OW13854   3.924   0.700   5.458  0.1660 -0.2883 -0.0586
 4345SOL    HW113855   3.877   0.783   5.490  0.5913 -0.0015 -0.1674
 4345SOL    HW213856   3.992   0.725   5.389  0.2580 -0.7378 -0.1322
 4346SOL     OW13857   4.524   3.646   6.905 -0.3001 -0.2630  0.6048
 4346SOL    HW113858   4.613   3.605   6.920  1.3242  1.3580 -3.1732
 4346SOL    HW213859   4.472   3.591   6.839 -0.4766  0.7277 -0.1110
 4347SOL     OW13860   5.246   2.054   4.426  1.4652  0.0905  0.4533
 4347SOL    HW113861   5.307   1.974   4.423  0.7679 -0.4272 -0.3489
 4347SOL    HW213862   5.182   2.050   4.349  0.3946  0.6023  1.2859
 4348SOL     OW13863   4.218   6.515   3.855 -0.2926 -0.5246 -0.1075
 4348SOL    HW113864   4.290   6.502   3.786  0.2835  0.0580  0.3652
 4348SOL    HW213865   4.176   6.427   3.877  0.3628 -0.8933 -0.3095
 4349SOL     OW13866   1.255   4.863   2.461  0.1054 -0.0946  0.1427
 4349SOL    HW113867   1.311   4.818   2.391 -1.6823 -2.9341  0.3646
 4349SOL    HW213868   1.215   4.946   2.422  0.4393 -0.7473 -1.7243
 4350SOL     OW13869   1.022   4.419   1.092 -0.0917  0.1889 -0.0131
 4350SOL    HW113870   1.027   4.419   1.192  2.5121 -0.0372 -0.0801
 4350SOL    HW213871   0.948   4.359   1.063  0.7262 -1.8050  1.7735
 4351SOL     OW13872   0.425   1.153   5.345 -0.2523 -0.8682 -0.0727
 4351SOL    HW113873   0.336   1.121   5.379 -0.8773  0.4109 -0.4543
 4351SOL    HW213874   0.457   1.093   5.272 -0.7907 -1.3466  0.0791
 4352SOL     OW13875   2.852   5.591   5.820 -0.1141  0.1971 -0.3985
 4352SOL    HW113876   2.859   5.491   5.814  1.9131 -0.1312  3.7437
 4352SOL    HW213877   2.782   5.615   5.887 -0.4287  1.6178 -1.1925
 4353SOL     OW13878   4.262   4.421   3.640  0.6523 -0.6452 -0.5706
 4353SOL    HW113879   4.180   4.401   3.587 -0.0777 -1.0960  0.6750
 4353SOL    HW213880   4.312   4.336   3.656 -0.4216 -0.9706  1.4608
 4354SOL     OW13881   2.804   4.778   4.134  0.2935  0.3544  0.2581
 4354SOL    HW113882   2.716   4.731   4.141  0.2320  0.2350 -1.1247
 4354SOL    HW213883   2.794   4.859   4.076  1.4357 -0.5821 -1.3194
 4355SOL     OW13884   5.505   1.096   3.049 -0.0894  0.6277  0.0861
 4355SOL    HW113885   5.580   1.080   2.985  1.1234 -1.1283  1.8272
 4355SOL    HW213886   5.461   1.009   3.072 -0.6198  1.2246  1.4637
 4356SOL     OW13887   2.672   5.505   3.998 -0.1107  0.0369  0.2510
 4356SOL    HW113888   2.746   5.566   3.972 -0.4822  0.6174  0.5317
 4356SOL    HW213889   2.584   5.553   3.991 -0.3788 -0.3549  0.8076
 4357SOL     OW13890   3.091   6.870   5.810 -0.3025  0.2294 -0.2673
 4357SOL    HW113891   3.126   6.793   5.756 -1.4593 -0.7105  0.2529
 4357SOL    HW213892   3.030   6.925   5.754  0.4903  0.7508 -0.6285
 4358SOL     OW13893   5.353   2.173   3.500 -0.4482 -0.3144  0.0073
 4358SOL    HW113894   5.304   2.259   3.517  0.9876  0.6707 -0.6039
 4358SOL    HW213895   5.316   2.101   3.559 -1.3080  0.8662  0.9603
 4359SOL     OW13896   1.404   2.493   4.687  0.3287 -0.0043 -0.6302
 4359SOL    HW113897   1.392   2.436   4.607  2.4735 -0.3576 -0.7558
 4359SOL    HW213898   1.420   2.436   4.768  3.1088  0.3149 -0.8637
 4360SOL     OW13899   0.862   5.032   0.829 -0.4799 -0.0694  0.0622
 4360SOL    HW113900   0.847   5.038   0.731  0.5798  1.8827 -0.0295
 4360SOL    HW213901   0.958   5.009   0.847 -0.1825  1.4585  0.6014
 4361SOL     OW13902   2.464   4.959   0.171  0.1105 -0.0083 -0.2401
 4361SOL    HW113903   2.535   5.019   0.133 -1.2190  0.7350 -1.6632
 4361SOL    HW213904   2.484   4.941   0.267  1.2647  1.6575 -0.1286
 4362SOL     OW13905   3.992   2.640   0.690  0.3149  0.0802 -0.4426
 4362SOL    HW113906   3.900   2.624   0.726  0.1918  1.7086  0.0387
 4362SOL    HW213907   4.006   2.585   0.608 -1.5618  0.7537 -1.2543
 4363SOL     OW13908   3.997   2.297   6.637  0.2190  0.7969  0.2744
 4363SOL    HW113909   4.074   2.333   6.584  1.1035  1.1653  1.7516
 4363SOL    HW213910   3.919   2.360   6.628  0.2779  0.7557 -0.7074
 4364SOL     OW13911   0.617   1.634   6.157 -0.2176  0.2269  0.5218
 4364SOL    HW113912   0.699   1.662   6.107  0.6822  0.4113  2.0639
 4364SOL    HW213913   0.562   1.574   6.098  0.4445  0.9727 -0.9252
 4365SOL     OW13914   5.781   1.572   0.180 -0.1036 -0.2622 -0.5102
 4365SOL    HW113915   5.788   1.487   0.127  0.6446  0.8152 -2.2157
 4365SOL    HW213916   5.685   1.589   0.202 -0.1405 -2.4239  1.4427
 4366SOL     OW13917   1.771   5.802   6.767  0.3627 -0.3681 -0.0303
 4366SOL    HW113918   1.814   5.837   6.851 -0.1936 -2.4569  1.2122
 4366SOL    HW213919   1.673   5.823   6.769  0.6794  1.4745 -1.2634
 4367SOL     OW13920   5.676   6.428   4.707  0.0809 -0.2077  0.3823
 4367SOL    HW113921   5.597   6.458   4.761 -1.1337 -1.3180 -0.6949
 4367SOL    HW213922   5.648   6.416   4.612  1.9893  0.9829 -0.3802
 4368SOL     OW13923   2.945   6.349   4.242 -0.1079  0.5302  0.6705
 4368SOL    HW113924   2.894   6.397   4.313 -0.2356 -0.0846  1.0031
 4368SOL    HW213925   2.888   6.278   4.202  0.1374  0.5336  0.3079
 4369SOL     OW13926   3.200   2.695   5.485  0.1855  0.1110  0.3733
 4369SOL    HW113927   3.186   2.722   5.580  1.5938 -1.2396  1.0052
 4369SOL    HW213928   3.125   2.730   5.429 -1.6309 -0.5553  2.2597
 4370SOL     OW13929   3.898   3.096   1.875  0.5779 -0.0271  0.3404
 4370SOL    HW113930   3.876   3.001   1.855  1.2510 -0.0419 -0.3434
 4370SOL    HW213931   3.829   3.155   1.832  0.6987 -0.1647 -0.0494
 4371SOL     OW13932   4.197   6.668   1.615 -0.0494  0.2844 -0.4034
 4371SOL    HW113933   4.279   6.703   1.569 -0.7585  3.7700  0.7303
 4371SOL    HW213934   4.118   6.678   1.554 -0.1238 -0.3284 -0.4161
 4372SOL     OW13935   2.804   6.132   6.676 -0.0130 -0.4098 -0.1756
 4372SOL    HW113936   2.706   6.146   6.667 -0.2333 -1.9378 -0.4973
 4372SOL    HW213937   2.828   6.041   6.641  1.4841 -0.1532  0.1050
 4373SOL     OW13938   6.105   3.301   4.663 -0.2656  0.0719  0.4591
 4373SOL    HW113939   6.023   3.348   4.630  0.8965  4.3588  2.8008
 4373SOL    HW213940   6.103   3.297   4.763  2.0152 -0.3202  0.5506
 4374SOL     OW13941   1.771   5.296   6.377  0.0106 -0.3607  0.2428
 4374SOL    HW113942   1.793   5.371   6.315 -0.9777 -0.4255 -0.2123
 4374SOL    HW213943   1.763   5.330   6.471 -0.2976  0.0812  0.0576
 4375SOL     OW13944   3.179   4.942   0.426 -0.4967 -0.6256 -1.4647
 4375SOL    HW113945   3.231   5.028   0.422 -1.2065 -0.1425 -0.6695
 4375SOL    HW213946   3.088   4.956   0.388 -1.2679 -0.5029  0.3052
 4376SOL     OW13947   5.850   2.082   6.399  0.3457  0.3986 -0.0754
 4376SOL    HW113948   5.853   2.100   6.498 -2.4529 -0.3901  0.2302
 4376SOL    HW213949   5.792   2.150   6.355  0.3186 -0.1677 -0.9282
 4377SOL     OW13950   1.458   2.945   2.781 -0.9491 -0.1653  0.7785
 4377SOL    HW113951   1.431   2.896   2.698  1.9660 -1.7697  0.6420
 4377SOL    HW213952   1.406   3.031   2.787 -1.4091 -0.0525 -2.6044
 4378SOL     OW13953   4.864   0.475   3.143  0.2492 -0.0778  0.0447
 4378SOL    HW113954   4.832   0.487   3.049 -2.2211  1.0998  0.9342
 4378SOL    HW213955   4.785   0.466   3.204  1.7483  0.2448  2.1454
 4379SOL     OW13956   3.255   4.688   2.948 -0.0307 -0.0724 -0.1242
 4379SOL    HW113957   3.326   4.740   2.900 -2.4603  3.4725 -0.2447
 4379SOL    HW213958   3.184   4.660   2.883  0.2175 -1.8345  0.3093
 4380SOL     OW13959   4.985   6.808   5.067  0.0723 -0.0434 -0.2655
 4380SOL    HW113960   4.916   6.826   4.997  0.0163 -0.4913 -0.3291
 4380SOL    HW213961   4.977   6.713   5.097 -0.0626  0.2163  0.5245
 4381SOL     OW13962   1.802   3.467   6.333 -0.3833  0.3212 -0.3525
 4381SOL    HW113963   1.893   3.445   6.367 -0.2181 -0.1492 -1.0680
 4381SOL    HW213964   1.803   3.466   6.233 -1.1212  0.5353 -0.3671
 4382SOL     OW13965   2.507   2.809   1.954 -0.8405  0.0581  0.3838
 4382SOL    HW113966   2.533   2.739   1.888 -0.6638  1.1309 -0.7158
 4382SOL    HW213967   2.516   2.900   1.913 -3.0173  0.6572  1.0800
 4383SOL     OW13968   0.865   4.324   1.659 -0.2974  0.2056 -0.1521
 4383SOL    HW113969   0.933   4.394   1.637 -0.7110  1.1880  1.5114
 4383SOL    HW213970   0.781   4.340   1.607  0.5699 -0.8244 -1.9751
 4384SOL     OW13971   3.939   0.753   3.479 -1.3735  0.3190 -0.2908
 4384SOL    HW113972   3.929   0.760   3.579  1.1266  0.1647  0.0396
 4384SOL    HW213973   3.940   0.844   3.439  1.7323  0.7137  0.4124
 4385SOL     OW13974   4.767   5.247   5.378 -0.3460 -0.3789  0.2847
 4385SOL    HW113975   4.862   5.273   5.361 -0.0760 -0.9777  0.8144
 4385SOL    HW213976   4.713   5.328   5.400  0.1590 -0.0944  0.4889
 4386SOL     OW13977   6.962   0.496   4.381 -0.3428  0.1215  0.2296
 4386SOL    HW113978   6.942   0.399   4.367 -1.4544  0.2950  0.5334
 4386SOL    HW213979   6.885   0.551   4.349  0.8096  0.9975 -1.1429
 4387SOL     OW13980   1.683   4.341   6.956 -0.6822 -0.0596  0.0715
 4387SOL    HW113981   1.587   4.316   6.967 -0.5251 -0.6001  0.2236
 4387SOL    HW213982   1.704   4.353   6.859 -0.9444  0.2422  0.0491
 4388SOL     OW13983   3.126   4.647   2.154 -0.3690  0.1580  0.3960
 4388SOL    HW113984   3.166   4.605   2.236  1.1404 -1.2989 -1.0062
 4388SOL    HW213985   3.074   4.578   2.103  1.1177  0.2125 -1.3077
 4389SOL     OW13986   1.092   5.282   3.164 -0.3217  0.8125  0.8240
 4389SOL    HW113987   1.047   5.359   3.117 -2.7407 -0.0900  1.5089
 4389SOL    HW213988   1.114   5.309   3.258 -0.8325  0.7898  0.9519
 4390SOL     OW13989   5.157   3.353   3.102  0.0059 -0.1029  0.1526
 4390SOL    HW113990   5.184   3.351   3.006 -0.8235 -0.4718 -0.0820
 4390SOL    HW213991   5.199   3.276   3.150 -1.0732 -1.0197 -0.3374
 4391SOL     OW13992   6.761   0.066   4.781  0.6436 -0.4370  0.0469
 4391SOL    HW113993   6.692   0.081   4.853 -0.3218  0.3391 -1.0074
 4391SOL    HW213994   6.771  -0.033   4.765 -1.4629 -0.5673 -0.8906
 4392SOL     OW13995   5.618   5.900   2.990 -0.0930 -0.3598  0.0017
 4392SOL    HW113996   5.602   5.997   3.007 -0.2913 -0.5615  1.0975
 4392SOL    HW213997   5.676   5.888   2.910 -1.0216  0.6145 -0.8430
 4393SOL     OW13998   4.532   6.220   2.676 -0.1473 -0.5257  0.2457
 4393SOL    HW113999   4.606   6.219   2.609 -1.0107 -1.0651 -0.7330
 4393SOL    HW214000   4.527   6.311   2.718  0.8447 -0.3837  0.0865
 4394SOL     OW14001   2.213   3.185   6.974 -0.4555  0.5491 -0.6168
 4394SOL    HW114002   2.207   3.220   7.068 -1.2085  1.6935 -1.0700
 4394SOL    HW214003   2.308   3.162   6.953 -0.3151  0.0272  0.4997
 4395SOL     OW14004   2.053   5.519   0.220  0.1724 -0.0701 -0.3228
 4395SOL    HW114005   2.080   5.424   0.206 -0.2967  0.0688 -2.4108
 4395SOL    HW214006   2.115   5.579   0.169  0.8196  0.8194  1.4334
 4396SOL     OW14007   6.166   3.677   2.036  0.7398 -0.5149  0.2745
 4396SOL    HW114008   6.175   3.718   2.127  1.6048 -0.3157  0.1135
 4396SOL    HW214009   6.078   3.630   2.029  0.0838  0.6202  0.7422
 4397SOL     OW14010   5.270   3.659   1.418  0.1129  0.2729  1.1491
 4397SOL    HW114011   5.346   3.636   1.479  2.5312  0.4095 -1.5921
 4397SOL    HW214012   5.258   3.758   1.415 -1.2498  0.2010  2.6794
 4398SOL     OW14013   3.236   0.086   5.464  0.0806 -0.7264  0.2935
 4398SOL    HW114014   3.223   0.179   5.427 -0.3098 -0.7883  0.2632
 4398SOL    HW214015   3.329   0.076   5.498  1.3856 -1.5284 -3.1361
 4399SOL     OW14016   4.164   4.879   2.324  0.0474 -0.6397 -0.1831
 4399SOL    HW114017   4.147   4.782   2.313 -1.5284 -0.6493  1.8393
 4399SOL    HW214018   4.209   4.896   2.412 -0.8851  0.5621  0.0935
 4400SOL     OW14019   6.313   5.413   3.186  0.5127  0.0478 -0.4654
 4400SOL    HW114020   6.264   5.326   3.196 -0.1578  0.4070 -0.5742
 4400SOL    HW214021   6.259   5.486   3.228  0.1566  0.7215 -2.0568
 4401SOL     OW14022   5.947   0.892   0.771 -0.0233  0.2001  0.5739
 4401SOL    HW114023   6.003   0.834   0.711 -0.2779  0.5500 -0.0065
 4401SOL    HW214024   6.001   0.920   0.850  0.0145 -1.0694  1.0187
 4402SOL     OW14025   2.966   2.300   5.669  0.2889 -0.1522 -0.3959
 4402SOL    HW114026   2.923   2.222   5.715  0.3063 -0.1026 -0.2960
 4402SOL    HW214027   2.945   2.384   5.719 -0.2912 -0.0069 -0.8783
 4403SOL     OW14028   4.169   4.370   4.846 -0.1770  0.2628 -0.2297
 4403SOL    HW114029   4.217   4.334   4.926  1.3663  1.8367 -0.3867
 4403SOL    HW214030   4.170   4.301   4.773  2.1464  0.3011 -0.3104
 4404SOL     OW14031   2.606   0.490   5.857 -0.2411 -0.4123 -0.0753
 4404SOL    HW114032   2.555   0.464   5.938  0.5203  1.0732  0.9351
 4404SOL    HW214033   2.678   0.555   5.882  0.6935 -0.7121 -1.7859
 4405SOL     OW14034   3.786   6.939   3.412 -0.6198  0.3544 -0.2272
 4405SOL    HW114035   3.778   6.931   3.312  0.5504  0.1169 -0.3272
 4405SOL    HW214036   3.738   6.863   3.456 -0.0597 -0.2855 -0.6816
 4406SOL     OW14037   4.731   0.949   0.107  0.1621  0.1015  0.4983
 4406SOL    HW114038   4.793   0.882   0.066 -0.2701  0.8335 -1.4636
 4406SOL    HW214039   4.664   0.978   0.039 -0.1662  1.9146  1.5239
 4407SOL     OW14040   3.409   1.923   0.155 -0.7986 -0.7244  0.2928
 4407SOL    HW114041   3.360   1.845   0.193 -0.2762 -1.2254 -0.0462
 4407SOL    HW214042   3.404   1.920   0.055  0.6241 -1.2610  0.2203
 4408SOL     OW14043   3.747   1.518   2.476  0.0318  0.3812 -0.1649
 4408SOL    HW114044   3.812   1.547   2.405  0.5633  2.6274  1.1412
 4408SOL    HW214045   3.684   1.593   2.497 -0.7168 -0.5499  1.0993
 4409SOL     OW14046   2.299   3.641   6.047 -0.7112 -0.2067  0.4607
 4409SOL    HW114047   2.260   3.707   5.982 -2.1755 -1.0891  0.4059
 4409SOL    HW214048   2.232   3.622   6.119  0.1589 -0.7349  1.1471
 4410SOL     OW14049   6.462   2.258   1.878 -0.2926  0.0729 -1.2084
 4410SOL    HW114050   6.511   2.297   1.956 -0.6884 -1.1927 -0.2959
 4410SOL    HW214051   6.381   2.314   1.858 -0.9313 -0.3096  0.1606
 4411SOL     OW14052   6.439   5.560   5.442 -0.0804  0.3124 -0.5383
 4411SOL    HW114053   6.392   5.576   5.355  1.3668  2.0582 -1.0446
 4411SOL    HW214054   6.468   5.464   5.447 -1.7902 -0.2812 -1.1186
 4412SOL     OW14055   4.783   4.956   6.026 -0.4726 -0.1537 -0.0328
 4412SOL    HW114056   4.764   5.009   6.108 -0.7472  1.2263 -0.9553
 4412SOL    HW214057   4.715   4.884   6.016 -1.2570  0.5418  0.2295
 4413SOL     OW14058   2.393   5.311   4.119  0.0757  0.4531  0.3576
 4413SOL    HW114059   2.329   5.342   4.190 -0.8021 -1.6985  0.5725
 4413SOL    HW214060   2.455   5.242   4.157  0.9123  0.7192 -0.4894
 4414SOL     OW14061   5.021   1.676   4.357 -0.2516  0.6473  0.3686
 4414SOL    HW114062   5.052   1.748   4.296 -0.3739  0.1209 -0.3295
 4414SOL    HW214063   4.961   1.613   4.308  0.1683 -0.1576  0.8489
 4415SOL     OW14064   1.856   6.106   0.053 -0.4784 -1.0572 -0.1744
 4415SOL    HW114065   1.762   6.071   0.054  0.0964 -2.6903  0.8576
 4415SOL    HW214066   1.861   6.188  -0.005 -2.9348  0.3075  1.4011
 4416SOL     OW14067   3.921   3.149   5.441  0.2643 -0.1076 -0.1218
 4416SOL    HW114068   4.008   3.105   5.422  0.1900 -0.9801  1.3688
 4416SOL    HW214069   3.882   3.111   5.525  0.0889  2.6888  1.1830
 4417SOL     OW14070   6.663   6.367   0.509  0.2441 -0.0588  0.0480
 4417SOL    HW114071   6.740   6.427   0.490 -0.3699  0.0563 -2.3821
 4417SOL    HW214072   6.597   6.415   0.566  1.1615  0.4452  0.7105
 4418SOL     OW14073   3.660   3.006   0.605  0.3737  0.2999  0.4220
 4418SOL    HW114074   3.649   2.913   0.569  0.4693  0.4834 -0.0909
 4418SOL    HW214075   3.670   3.070   0.529 -3.2512  1.2349  0.5612
 4419SOL     OW14076   5.937   3.642   3.345  0.1418  0.3635  0.5516
 4419SOL    HW114077   5.921   3.652   3.246  1.5066 -0.1110  0.2545
 4419SOL    HW214078   5.915   3.550   3.374  2.0809 -0.2881  0.1437
 4420SOL     OW14079   4.444   4.306   3.353 -0.0317 -0.5432  0.4205
 4420SOL    HW114080   4.491   4.219   3.334  1.3459  0.5308 -1.3895
 4420SOL    HW214081   4.482   4.347   3.436  0.2664 -0.9990  0.5163
 4421SOL     OW14082   0.371   1.589   1.568 -0.1534  0.4143  0.1524
 4421SOL    HW114083   0.347   1.662   1.505  0.3086  1.5772  1.2822
 4421SOL    HW214084   0.468   1.594   1.590  0.1613 -1.2997 -0.6651
 4422SOL     OW14085   6.889   0.724   6.906  0.7676 -0.0449 -0.2250
 4422SOL    HW114086   6.968   0.770   6.946  1.5181 -1.3763 -0.0914
 4422SOL    HW214087   6.884   0.746   6.808  2.6384 -1.6059 -0.7458
 4423SOL     OW14088   3.145   5.538   1.028  0.5090 -0.2399  0.4637
 4423SOL    HW114089   3.154   5.623   0.976  0.7733 -1.5136 -1.7303
 4423SOL    HW214090   3.048   5.512   1.033  0.2345  0.9652  2.5883
 4424SOL     OW14091   1.547   3.173   1.776  0.1475 -0.5501 -0.0263
 4424SOL    HW114092   1.546   3.126   1.864 -0.4363 -1.9611 -0.7514
 4424SOL    HW214093   1.474   3.241   1.773 -0.7614 -1.5015  0.0833
 4425SOL     OW14094   5.913   4.247   2.028  0.0970 -0.2325 -0.7407
 4425SOL    HW114095   5.857   4.196   2.093  0.5237  1.5981  1.1565
 4425SOL    HW214096   6.010   4.238   2.053  0.3621 -0.3286 -1.7489
 4426SOL     OW14097   1.621   3.597   4.090  0.6928 -0.2671 -0.1286
 4426SOL    HW114098   1.670   3.535   4.151 -0.2309  0.3827  1.3337
 4426SOL    HW214099   1.680   3.673   4.064  1.1374 -0.6132 -0.1333
 4427SOL     OW14100   0.394   2.931   6.276 -0.1021 -0.4155  0.1102
 4427SOL    HW114101   0.375   2.930   6.374 -0.9412  0.3029 -0.0315
 4427SOL    HW214102   0.465   2.864   6.255 -1.1846 -1.9087  0.9533
 4428SOL     OW14103   6.339   4.707   6.287  0.1343  0.2151 -0.1378
 4428SOL    HW114104   6.329   4.704   6.386 -2.4378 -0.7547 -0.3682
 4428SOL    HW214105   6.291   4.787   6.251  1.0973  0.5923 -0.6261
 4429SOL     OW14106   6.722   0.207   1.248 -0.0944 -0.3364  0.5052
 4429SOL    HW114107   6.710   0.130   1.185 -1.6645 -0.2415  0.6591
 4429SOL    HW214108   6.684   0.290   1.206  2.1881  0.5643  0.0392
 4430SOL     OW14109   4.331   6.384   1.320  0.2527 -0.5714  0.1403
 4430SOL    HW114110   4.392   6.353   1.248  0.3541 -2.0648  0.8415
 4430SOL    HW214111   4.237   6.386   1.286  0.5370  0.7681 -0.6387
 4431SOL     OW14112   3.436   0.958   0.626 -0.6823  0.6510 -0.5719
 4431SOL    HW114113   3.353   0.985   0.674  0.0707  0.1622  1.0590
 4431SOL    HW214114   3.412   0.927   0.534 -2.3909 -0.1986  0.1171
 4432SOL     OW14115   0.824   0.864   3.006 -0.2143 -0.0005  0.4247
 4432SOL    HW114116   0.888   0.795   2.973 -0.9032 -0.2070 -0.5201
 4432SOL    HW214117   0.873   0.949   3.024  0.4632 -0.4108  0.5358
 4433SOL     OW14118   2.350   5.198   5.498  0.0386 -0.1023 -0.3453
 4433SOL    HW114119   2.367   5.131   5.426  1.5462 -0.8842  0.6680
 4433SOL    HW214120   2.322   5.285   5.457 -0.6930 -0.9630 -1.7561
 4434SOL     OW14121   3.786   6.907   0.030 -0.4067  0.3284 -0.0949
 4434SOL    HW114122   3.705   6.857   0.059 -1.0003  0.2489 -1.7619
 4434SOL    HW214123   3.846   6.924   0.108 -1.3669 -0.8263  0.9146
 4435SOL     OW14124   3.549   5.262   4.424  0.2269 -0.3946  0.2657
 4435SOL    HW114125   3.482   5.327   4.386 -0.2484 -0.4673  0.9774
 4435SOL    HW214126   3.640   5.305   4.423  0.1222 -0.1647 -0.3770
 4436SOL     OW14127   5.680   3.075   1.288  0.3156 -0.1006 -0.5569
 4436SOL    HW114128   5.724   3.148   1.236  0.2822 -0.2369 -0.7756
 4436SOL    HW214129   5.734   2.991   1.281  1.0090  0.2057  0.6805
 4437SOL     OW14130   5.688   3.812   3.150 -0.4730  0.2809  0.3792
 4437SOL    HW114131   5.616   3.880   3.135 -1.0382 -0.3608  0.1155
 4437SOL    HW214132   5.664   3.754   3.228 -1.7579 -1.8244 -1.4285
 4438SOL     OW14133   5.440   0.003   1.799  0.0807  0.3421 -0.1027
 4438SOL    HW114134   5.449  -0.050   1.884  1.1211  0.5434 -0.0749
 4438SOL    HW214135   5.497  -0.038   1.728 -0.9508  0.0509 -0.7852
 4439SOL     OW14136   5.403   5.608   4.931 -0.1101 -0.5445  0.2380
 4439SOL    HW114137   5.457   5.632   5.011 -1.3592 -1.8744  1.5512
 4439SOL    HW214138   5.463   5.597   4.852  1.5473 -1.8610  1.5940
 4440SOL     OW14139   2.388   5.845   3.429  0.4435 -0.2528 -0.3608
 4440SOL    HW114140   2.427   5.935   3.449 -0.5378  0.6551 -2.2841
 4440SOL    HW214141   2.441   5.775   3.476  1.4891  1.2793  0.8518
 4441SOL     OW14142   4.179   4.357   5.765  0.2873  0.3943 -0.3451
 4441SOL    HW114143   4.216   4.415   5.838  1.1526 -0.9703  0.3521
 4441SOL    HW214144   4.224   4.380   5.679  0.2031  1.1372 -0.1987
 4442SOL     OW14145   6.223   1.923   2.968  0.5789  0.1981  0.0723
 4442SOL    HW114146   6.167   2.002   2.941  1.5149  0.9555  0.2714
 4442SOL    HW214147   6.310   1.926   2.918  1.1795  0.0474  1.0951
 4443SOL     OW14148   4.332   0.985   1.815  0.1853  0.1379 -0.0863
 4443SOL    HW114149   4.354   0.972   1.719  1.1604  2.6547 -0.2958
 4443SOL    HW214150   4.241   0.950   1.835 -0.7511  1.1493 -2.3453
 4444SOL     OW14151   1.230   5.251   1.311 -0.2012  0.6014  0.2860
 4444SOL    HW114152   1.248   5.239   1.409  0.3840  1.3531  0.2836
 4444SOL    HW214153   1.282   5.183   1.259 -1.0232 -0.2291  0.5155
 4445SOL     OW14154   2.187   3.813   5.832  0.1906 -0.1313  0.3051
 4445SOL    HW114155   2.093   3.847   5.836 -0.6553 -2.2536  0.1038
 4445SOL    HW214156   2.208   3.784   5.738  0.9936  0.1791  0.3837
 4446SOL     OW14157   4.636   2.786   1.580  0.1455  0.1195 -0.1920
 4446SOL    HW114158   4.562   2.824   1.636 -0.0364  0.1498 -0.4511
 4446SOL    HW214159   4.605   2.701   1.537  0.5617 -0.3493  0.4133
 4447SOL     OW14160   6.613   2.280   2.522 -0.2998  0.0477 -0.1996
 4447SOL    HW114161   6.675   2.311   2.595  0.0609  0.2619 -0.5954
 4447SOL    HW214162   6.538   2.227   2.563 -1.9081  2.8414  0.7179
 4448SOL     OW14163   0.379   1.771   6.046  0.2000 -0.0270  0.5795
 4448SOL    HW114164   0.393   1.731   5.955  0.4294  0.0007  0.6001
 4448SOL    HW214165   0.435   1.721   6.113 -0.6574 -0.6277  0.8584
 4449SOL     OW14166   1.965   2.814   2.137  1.0449  0.2493  0.0382
 4449SOL    HW114167   1.905   2.862   2.072  0.1159 -0.4984  0.3152
 4449SOL    HW214168   2.008   2.880   2.198 -0.4254  0.7254  0.6003
 4450SOL     OW14169   4.395   6.717   4.496  0.0328  0.1684  0.3445
 4450SOL    HW114170   4.321   6.699   4.561 -0.2445 -0.2923 -0.0922
 4450SOL    HW214171   4.476   6.748   4.545 -0.0831 -0.4652  0.9353
 4451SOL     OW14172   5.687   0.729   4.978 -0.4458 -0.1765 -0.5673
 4451SOL    HW114173   5.721   0.785   4.903 -1.5383 -0.1416 -1.0701
 4451SOL    HW214174   5.759   0.669   5.011 -0.5562 -2.0456 -3.3864
 4452SOL     OW14175   3.142   0.002   1.048 -0.2379 -0.1227 -0.0902
 4452SOL    HW114176   3.110   0.012   0.954 -0.3745  0.0002 -0.0304
 4452SOL    HW214177   3.235   0.039   1.055 -0.7559  1.1824  0.1403
 4453SOL     OW14178   5.019   3.533   6.832  0.6866  0.0041 -0.3711
 4453SOL    HW114179   5.100   3.561   6.780  0.6943  0.7868  0.0540
 4453SOL    HW214180   5.004   3.435   6.819  2.0350 -0.2708 -0.0062
 4454SOL     OW14181   1.308   4.383   0.656  0.6663  0.3074  0.7477
 4454SOL    HW114182   1.240   4.425   0.717  0.9304  0.5527  0.8783
 4454SOL    HW214183   1.372   4.329   0.711 -0.4163 -1.3306  0.4600
 4455SOL     OW14184   4.638   2.614   1.882 -0.1116 -0.0163 -0.3107
 4455SOL    HW114185   4.574   2.688   1.862  0.5392  0.5492 -0.3264
 4455SOL    HW214186   4.696   2.598   1.802  1.3607  1.0993  0.4842
 4456SOL     OW14187   0.216   6.898   0.095 -0.6440  0.0124  0.0415
 4456SOL    HW114188   0.130   6.851   0.115 -0.1179  0.0173  2.7620
 4456SOL    HW214189   0.258   6.928   0.181  1.3086  1.4176 -1.3175
 4457SOL     OW14190   3.845   6.101   0.194  0.1794  0.1182 -0.5790
 4457SOL    HW114191   3.889   6.012   0.182 -0.2137 -0.3012  0.8760
 4457SOL    HW214192   3.795   6.125   0.111  1.8145 -0.1316 -1.6746
 4458SOL     OW14193   6.840   5.001   1.951 -0.4061  0.3285 -0.0902
 4458SOL    HW114194   6.751   5.045   1.936  0.3661  1.6971 -0.9022
 4458SOL    HW214195   6.912   5.059   1.913  0.7376 -1.3781 -0.6302
 4459SOL     OW14196   3.170   3.315   1.299 -0.1745 -0.3759 -0.0098
 4459SOL    HW114197   3.159   3.413   1.316 -0.9774 -0.3684 -0.5235
 4459SOL    HW214198   3.267   3.292   1.303  0.2630  0.8589 -1.9247
 4460SOL     OW14199   0.145   3.599   2.867  0.0949 -0.0888  0.1385
 4460SOL    HW114200   0.236   3.604   2.826 -0.2564  0.1295 -0.6411
 4460SOL    HW214201   0.149   3.629   2.962  0.5378  1.6112 -0.3833
 4461SOL     OW14202   2.019   4.135   4.150 -0.0059  0.0331 -0.2121
 4461SOL    HW114203   2.093   4.154   4.215  1.3620 -0.6957 -1.5068
 4461SOL    HW214204   1.973   4.051   4.178  0.8823 -0.5395 -0.4271
 4462SOL     OW14205   1.766   0.338   3.576 -0.0688 -0.0852 -0.5981
 4462SOL    HW114206   1.827   0.307   3.504 -1.0504  0.0133 -1.4861
 4462SOL    HW214207   1.804   0.313   3.665  2.7133  2.3743 -0.9235
 4463SOL     OW14208   1.810   4.482   0.144 -0.0619 -0.1596 -0.1518
 4463SOL    HW114209   1.905   4.460   0.120 -0.2727 -1.3430  0.0466
 4463SOL    HW214210   1.748   4.419   0.097 -0.7581  0.5701 -0.2403
 4464SOL     OW14211   2.785   4.493   1.665 -0.1558  0.1756 -0.8301
 4464SOL    HW114212   2.859   4.489   1.598 -0.0749  0.4052 -0.7572
 4464SOL    HW214213   2.824   4.499   1.757 -0.2568 -1.1809 -0.6743
 4465SOL     OW14214   0.191   1.920   4.682 -0.2941 -0.3631  0.1020
 4465SOL    HW114215   0.121   1.970   4.732 -0.0274 -0.1476  0.2634
 4465SOL    HW214216   0.269   1.980   4.663 -0.9506 -0.0293 -1.7907
 4466SOL     OW14217   2.658   4.159   1.021 -0.1451 -0.6139  0.3853
 4466SOL    HW114218   2.620   4.235   1.074  1.2540  1.1004 -0.9305
 4466SOL    HW214219   2.746   4.186   0.983  0.2600 -2.8261 -0.4002
 4467SOL     OW14220   5.608   0.820   0.423 -0.3878  0.3913 -0.0846
 4467SOL    HW114221   5.584   0.736   0.472  1.3708  0.0018  0.1447
 4467SOL    HW214222   5.649   0.885   0.487  0.7532  0.3697 -0.7731
 4468SOL     OW14223   3.544   0.165   5.990 -0.3237 -0.1300 -0.1656
 4468SOL    HW114224   3.490   0.119   6.060 -1.6739 -1.8910 -2.2059
 4468SOL    HW214225   3.498   0.250   5.962 -1.0174 -0.6008 -0.4893
 4469SOL     OW14226   1.058   3.066   0.947 -0.3052  0.0580 -0.4047
 4469SOL    HW114227   1.038   3.001   0.874 -2.2909 -0.1266  0.2496
 4469SOL    HW214228   0.977   3.079   1.004  1.1443  0.2291  1.7618
 4470SOL     OW14229   4.242   2.847   1.009  0.7170  0.3750 -0.0065
 4470SOL    HW114230   4.142   2.845   1.000  0.8675 -0.8161 -2.3566
 4470SOL    HW214231   4.275   2.756   1.031  1.2939  0.8762  1.3061
 4471SOL     OW14232   5.431   6.754   3.463 -0.3354  0.7855 -0.0546
 4471SOL    HW114233   5.352   6.735   3.522  0.5285  1.0844  1.2459
 4471SOL    HW214234   5.401   6.801   3.380 -1.4782  1.2095  0.5868
 4472SOL     OW14235   6.871   3.904   1.526  0.1830  0.0397  0.3788
 4472SOL    HW114236   6.855   3.806   1.524 -1.6222  0.2583  1.4569
 4472SOL    HW214237   6.926   3.928   1.606  0.5302 -0.0788  0.1757
 4473SOL     OW14238   0.843   2.166   6.522 -0.1372 -0.2762 -0.2661
 4473SOL    HW114239   0.919   2.161   6.588 -1.9437  1.1662  2.0824
 4473SOL    HW214240   0.844   2.254   6.476  0.1436 -0.6332 -0.9580
 4474SOL     OW14241   0.469   5.161   4.830  0.9135 -0.1907  0.3706
 4474SOL    HW114242   0.460   5.260   4.847 -0.6981 -0.5321  1.8994
 4474SOL    HW214243   0.495   5.115   4.915  0.1451 -1.2289  0.0665
 4475SOL     OW14244   1.261   4.459   0.132 -0.4923 -0.1317 -0.8261
 4475SOL    HW114245   1.246   4.556   0.149  0.1655  0.2265 -2.1861
 4475SOL    HW214246   1.299   4.416   0.215 -2.7218  0.2813  0.5060
 4476SOL     OW14247   3.059   1.547   3.976 -0.1653  0.3132 -0.2195
 4476SOL    HW114248   3.002   1.564   3.896 -0.4554 -0.3775 -0.1692
 4476SOL    HW214249   3.145   1.505   3.948 -0.4499 -0.3314 -0.1308
 4477SOL     OW14250   3.093   4.886   4.461  0.6217 -1.0226  0.1233
 4477SOL    HW114251   3.039   4.970   4.471  0.1575 -1.1704 -0.9466
 4477SOL    HW214252   3.190   4.907   4.471  0.4730 -0.4564  0.4180
 4478SOL     OW14253   5.862   5.141   1.545  0.3691  0.0595  0.0492
 4478SOL    HW114254   5.771   5.108   1.523  0.4227  0.2837 -0.5185
 4478SOL    HW214255   5.929   5.067   1.532  0.3549  0.0912 -0.2142
 4479SOL     OW14256   0.386   1.594   3.315  0.6560 -0.1588 -0.0483
 4479SOL    HW114257   0.400   1.574   3.218  0.2176 -2.1215  0.2451
 4479SOL    HW214258   0.474   1.591   3.363  0.8512  0.6484 -0.3503
 4480SOL     OW14259   4.711   0.951   0.924  0.1435 -0.3707 -0.4747
 4480SOL    HW114260   4.755   1.010   0.856 -1.4102  2.0855  0.5135
 4480SOL    HW214261   4.749   0.972   1.015 -0.8141 -0.5163 -0.0367
 4481SOL     OW14262   2.954   2.048   6.610  0.0434 -0.2396 -0.0951
 4481SOL    HW114263   2.888   2.059   6.536 -2.1671 -0.9056  1.6556
 4481SOL    HW214264   2.906   2.016   6.693  1.8956  2.8541  2.3865
 4482SOL     OW14265   5.705   1.127   0.972 -0.5223  0.2565  0.0783
 4482SOL    HW114266   5.783   1.064   0.982  0.3623  1.4976  1.4189
 4482SOL    HW214267   5.719   1.184   0.892 -0.3605  0.0606 -0.0345
 4483SOL     OW14268   3.268   1.257   1.143 -0.1449 -0.6278  0.2265
 4483SOL    HW114269   3.315   1.248   1.055 -1.2481  0.4589 -0.5218
 4483SOL    HW214270   3.332   1.240   1.217  0.5139 -2.8977 -0.7797
 4484SOL     OW14271   5.267   6.278   2.033 -0.4796  0.3665  0.7996
 4484SOL    HW114272   5.261   6.315   1.940  0.4757  1.0021  0.9820
 4484SOL    HW214273   5.359   6.293   2.069  0.1108 -2.5574  0.7495
 4485SOL     OW14274   6.199   5.899   2.435 -0.1498 -0.4725  0.3450
 4485SOL    HW114275   6.169   5.945   2.352 -1.0811 -0.2479  0.7952
 4485SOL    HW214276   6.185   5.959   2.514 -1.5363 -1.5587  0.9672
 4486SOL     OW14277   4.458   2.533   3.295 -0.0577 -0.0212 -0.0339
 4486SOL    HW114278   4.490   2.446   3.333  0.3230  0.8812  1.8459
 4486SOL    HW214279   4.359   2.529   3.280 -0.4739 -0.0009  2.3988
 4487SOL     OW14280   4.989   2.528   2.975  0.3248 -0.1786 -0.0563
 4487SOL    HW114281   5.017   2.517   2.879 -0.4603 -2.9376 -0.0476
 4487SOL    HW214282   5.060   2.579   3.024  1.0589  0.7035 -1.9257
 4488SOL     OW14283   1.369   5.864   2.981  0.0326  0.2449 -0.1704
 4488SOL    HW114284   1.271   5.881   2.992 -0.2915 -1.6488  0.2632
 4488SOL    HW214285   1.389   5.843   2.886 -0.5859 -2.4675  0.2265
 4489SOL     OW14286   4.692   1.916   0.981  0.0276 -0.5577 -0.8135
 4489SOL    HW114287   4.774   1.919   0.923 -0.6080 -1.1978 -1.7758
 4489SOL    HW214288   4.717   1.882   1.072  0.7156 -1.3927 -1.3028
 4490SOL     OW14289   3.855   4.365   2.072  0.0726  0.1543  0.4197
 4490SOL    HW114290   3.919   4.288   2.084  1.1768  1.1699  1.2102
 4490SOL    HW214291   3.906   4.448   2.051 -1.0491  0.8601  0.4103
 4491SOL     OW14292   2.661   5.068   4.667 -0.2496 -0.0120 -0.3419
 4491SOL    HW114293   2.598   5.057   4.744  0.7410 -3.0185  0.1929
 4491SOL    HW214294   2.639   5.002   4.596 -1.3455  2.9282 -2.9375
 4492SOL     OW14295   1.516   6.100   5.996 -0.4383  0.8362  0.4995
 4492SOL    HW114296   1.531   6.198   6.008  1.1823  0.6984 -0.1378
 4492SOL    HW214297   1.602   6.051   6.011 -0.6517 -0.2568 -1.4587
 4493SOL     OW14298   6.976   3.306   6.508  0.1201  0.0098 -0.1186
 4493SOL    HW114299   6.947   3.230   6.450 -0.3135 -0.8660  1.1963
 4493SOL    HW214300   6.898   3.367   6.525 -0.1894 -0.6307  0.8501
 4494SOL     OW14301   1.381   6.405   4.270 -0.4235  0.3795  0.6893
 4494SOL    HW114302   1.386   6.318   4.222  0.3837 -0.8912  2.9359
 4494SOL    HW214303   1.307   6.460   4.232  0.9885  0.1212 -2.8909
 4495SOL     OW14304   1.131   2.864   4.385  0.1480 -0.4262  0.5759
 4495SOL    HW114305   1.220   2.833   4.354 -0.2113 -0.1432 -0.7859
 4495SOL    HW214306   1.140   2.906   4.476  1.3589 -0.5547  0.5279
 4496SOL     OW14307   1.027   1.282   4.541 -0.4036  0.2758  0.0046
 4496SOL    HW114308   1.006   1.230   4.458 -0.0890 -1.6305  1.0571
 4496SOL    HW214309   0.942   1.312   4.584 -0.5655  1.3742 -1.0381
 4497SOL     OW14310   2.251   6.733   0.754  0.4462  0.0904 -0.0629
 4497SOL    HW114311   2.297   6.820   0.734  0.1860 -0.0554 -1.3665
 4497SOL    HW214312   2.255   6.716   0.853  2.8455  0.2647 -0.0626
 4498SOL     OW14313   1.193   3.700   3.409 -0.2126  0.6075 -0.0454
 4498SOL    HW114314   1.262   3.771   3.419  0.7287 -0.3862  0.8601
 4498SOL    HW214315   1.128   3.705   3.485  0.6614 -0.3225  0.7887
 4499SOL     OW14316   6.274   0.004   3.797  0.0530 -0.0939  0.2736
 4499SOL    HW114317   6.280   0.010   3.897  0.0646 -0.2428  0.2829
 4499SOL    HW214318   6.309   0.088   3.756 -0.3240  0.1304  0.4063
 4500SOL     OW14319   6.039   3.149   2.054  0.0738  0.3002 -0.0362
 4500SOL    HW114320   6.040   3.208   2.135  1.8184  1.2695 -0.7248
 4500SOL    HW214321   5.996   3.197   1.978 -0.4540 -0.1578 -0.0399
 4501SOL     OW14322   2.401   6.275   5.639 -0.2132 -0.1782 -0.1974
 4501SOL    HW114323   2.486   6.316   5.673 -0.5645 -0.2177  0.7474
 4501SOL    HW214324   2.326   6.341   5.651 -0.4391 -0.4004 -0.3954
 4502SOL     OW14325   2.516   4.831   5.729  0.2132 -0.1841  0.1501
 4502SOL    HW114326   2.504   4.918   5.776 -1.3215 -0.3843  0.1871
 4502SOL    HW214327   2.569   4.846   5.645  0.0676  0.7607  0.2159
 4503SOL     OW14328   5.130   2.721   0.888  0.1799 -0.0025 -0.7882
 4503SOL    HW114329   5.042   2.766   0.899  1.3134  1.9467  1.0988
 4503SOL    HW214330   5.147   2.661   0.966 -0.9063 -3.1944 -2.8328
 4504SOL     OW14331   5.871   4.685   2.382  0.5637 -0.1042  0.3341
 4504SOL    HW114332   5.928   4.604   2.369  1.5156  0.7711 -1.2750
 4504SOL    HW214333   5.897   4.755   2.316 -1.5817  0.7893  0.3483
 4505SOL     OW14334   3.734   5.713   1.686 -1.5131  0.0539 -0.4380
 4505SOL    HW114335   3.814   5.666   1.647 -1.2614 -1.1068  1.3490
 4505SOL    HW214336   3.666   5.644   1.713 -1.6712  0.7775  1.1139
 4506SOL     OW14337   2.912   0.376   3.125  0.1257 -0.4973  0.0154
 4506SOL    HW114338   2.945   0.427   3.047  0.4818  0.9683  1.0899
 4506SOL    HW214339   2.840   0.428   3.172  1.1269 -0.5346  1.6580
 4507SOL     OW14340   0.681   3.316   3.947 -0.7257 -0.5326  0.4890
 4507SOL    HW114341   0.589   3.333   3.981 -0.0386  0.8602  1.7889
 4507SOL    HW214342   0.698   3.373   3.867 -1.1819 -1.2472 -0.1282
 4508SOL     OW14343   4.210   2.100   1.060 -0.7265 -0.0446  0.1182
 4508SOL    HW114344   4.308   2.099   1.040 -0.4378  0.6102  1.3847
 4508SOL    HW214345   4.160   2.125   0.977  0.0727 -1.4521 -0.8293
 4509SOL     OW14346   4.631   1.324   4.248 -0.2007  0.2858 -0.1579
 4509SOL    HW114347   4.648   1.258   4.321  0.7001  0.7640  0.0856
 4509SOL    HW214348   4.533   1.335   4.235 -0.3691 -0.2158  0.6146
 4510SOL     OW14349   6.522   4.039   3.620 -0.9203  0.2414 -0.3862
 4510SOL    HW114350   6.622   4.032   3.624 -0.9541 -0.0300  0.0664
 4510SOL    HW214351   6.483   3.947   3.608 -1.1970  0.0980  1.3792
 4511SOL     OW14352   5.227   6.709   6.354  0.1450 -0.6338 -0.4642
 4511SOL    HW114353   5.218   6.760   6.269 -0.3992  1.8911  1.0059
 4511SOL    HW214354   5.156   6.639   6.359  1.6029 -2.4531 -3.0398
 4512SOL     OW14355   6.098   0.953   1.004 -0.1094 -0.1584 -0.0003
 4512SOL    HW114356   6.177   0.901   1.034  0.2586 -0.8748 -2.0788
 4512SOL    HW214357   6.116   1.051   1.016  1.6870 -0.2318 -1.7122
 4513SOL     OW14358   2.772   6.976   1.294 -0.2897  1.1353  0.2545
 4513SOL    HW114359   2.836   6.914   1.249  1.5017  2.5058  0.7602
 4513SOL    HW214360   2.703   6.923   1.344 -1.2002 -0.3957 -2.4417
 4514SOL     OW14361   5.809   2.648   5.621  0.2068 -0.1331 -0.0706
 4514SOL    HW114362   5.901   2.664   5.658  0.1123  1.9770 -0.6328
 4514SOL    HW214363   5.744   2.711   5.663 -0.4736  0.2158 -1.5643
 4515SOL     OW14364   2.182   4.605   3.687 -0.6612 -0.5465  0.0201
 4515SOL    HW114365   2.105   4.647   3.735 -0.3310 -0.9758  0.9362
 4515SOL    HW214366   2.177   4.629   3.590 -1.6208 -0.0916  0.1679
 4516SOL     OW14367   0.376   4.525   4.936 -0.7201  0.1128  0.1251
 4516SOL    HW114368   0.325   4.603   4.973  0.2706  0.7887  0.1442
 4516SOL    HW214369   0.376   4.450   5.003 -0.5465  0.6183  0.7089
 4517SOL     OW14370   3.173   5.899   2.888  0.1066  0.1903 -0.5210
 4517SOL    HW114371   3.165   5.854   2.799 -0.6163 -1.0239  0.1295
 4517SOL    HW214372   3.084   5.898   2.934  0.4382  0.9121  0.1644
 4518SOL     OW14373   1.266   4.727   0.891  0.3911  0.3198  0.1746
 4518SOL    HW114374   1.224   4.641   0.861  0.9087 -0.7265  2.2413
 4518SOL    HW214375   1.344   4.748   0.831 -0.6731  0.2182 -1.3017
 4519SOL     OW14376   3.255   4.819   1.327  0.0448  0.0594 -0.2314
 4519SOL    HW114377   3.224   4.747   1.389  0.0316  0.1637 -0.1184
 4519SOL    HW214378   3.258   4.782   1.233 -0.0926 -0.0496 -0.1939
 4520SOL     OW14379   3.999   3.288   0.628 -0.1620 -0.2717  0.0363
 4520SOL    HW114380   4.023   3.276   0.532  2.2644 -1.5869  0.7290
 4520SOL    HW214381   4.011   3.384   0.653 -2.6150  0.4719 -1.3534
 4521SOL     OW14382   5.786   5.544   5.379  0.6497 -0.3292  0.1025
 4521SOL    HW114383   5.801   5.512   5.473 -1.5970  1.3607  1.1300
 4521SOL    HW214384   5.825   5.636   5.369 -0.6779  0.2501 -0.0032
 4522SOL     OW14385   5.568   6.093   6.911  0.1585  0.0548 -0.3135
 4522SOL    HW114386   5.476   6.077   6.947  0.7465 -0.9637  0.8154
 4522SOL    HW214387   5.583   6.191   6.900 -1.4024  0.1902 -1.4746
 4523SOL     OW14388   2.462   4.226   1.408  0.7508 -0.0651  0.1587
 4523SOL    HW114389   2.388   4.280   1.448  1.1620  0.2046  0.5743
 4523SOL    HW214390   2.447   4.215   1.310  1.6961  2.5454 -0.3508
 4524SOL     OW14391   2.901   3.942   2.359  0.4156  0.2244  0.6273
 4524SOL    HW114392   2.909   3.923   2.457  1.8540  1.1699  0.7138
 4524SOL    HW214393   2.985   3.912   2.313  0.2484  0.9060 -0.1274
 4525SOL     OW14394   1.774   3.417   4.237  0.1548  0.0017  0.2784
 4525SOL    HW114395   1.849   3.373   4.187  0.1314  2.4493 -2.1200
 4525SOL    HW214396   1.802   3.431   4.332  1.1962 -2.4942  0.4367
 4526SOL     OW14397   3.521   6.515   4.864 -0.6096 -0.3563 -0.5960
 4526SOL    HW114398   3.543   6.488   4.771  1.0449  0.4015 -0.4715
 4526SOL    HW214399   3.503   6.614   4.866 -0.3627 -0.3179 -0.0853
 4527SOL     OW14400   6.363   2.370   4.406  0.2185  0.5610 -0.1047
 4527SOL    HW114401   6.302   2.372   4.485 -0.9826  0.9766 -1.0095
 4527SOL    HW214402   6.426   2.294   4.415 -0.5317  0.0224  0.7921
 4528SOL     OW14403   1.314   2.093   0.615 -0.3904 -0.5371 -0.1757
 4528SOL    HW114404   1.245   2.034   0.574  0.9902 -2.0189 -0.4628
 4528SOL    HW214405   1.392   2.038   0.644  1.0560  1.1652 -0.6525
 4529SOL     OW14406   6.505   2.488   0.822  0.3842 -0.1213  0.6070
 4529SOL    HW114407   6.587   2.449   0.865 -0.4437 -0.7043  1.7052
 4529SOL    HW214408   6.518   2.587   0.811  1.7285 -0.3799 -0.4168
 4530SOL     OW14409   0.239   6.754   0.573 -0.0043 -0.5865 -0.2610
 4530SOL    HW114410   0.221   6.833   0.631  1.6407 -0.0690 -0.4052
 4530SOL    HW214411   0.269   6.677   0.631 -0.7040 -0.8382 -0.2160
 4531SOL     OW14412   2.546   0.386   5.624  0.2839 -0.0786  0.1263
 4531SOL    HW114413   2.452   0.420   5.612  0.5723  0.8974  0.4761
 4531SOL    HW214414   2.584   0.425   5.708  0.9289 -0.6350  0.0914
 4532SOL     OW14415   4.922   6.905   3.030  0.2240 -0.3131  0.3850
 4532SOL    HW114416   4.915   6.940   2.936  1.9587 -0.5948  0.1204
 4532SOL    HW214417   4.860   6.828   3.042  0.9489 -1.1365 -0.9659
 4533SOL     OW14418   4.530   2.409   0.721 -0.5944  0.0376 -0.0639
 4533SOL    HW114419   4.515   2.361   0.634  1.7299 -0.8704 -0.0426
 4533SOL    HW214420   4.511   2.347   0.797 -0.8986  0.2544  0.0372
 4534SOL     OW14421   5.535   1.089   4.631 -0.4177  0.0279 -0.2162
 4534SOL    HW114422   5.552   1.061   4.726 -1.5448 -1.3115 -0.3767
 4534SOL    HW214423   5.487   1.176   4.631  0.2820  0.4317  0.4079
 4535SOL     OW14424   6.690   3.041   4.997  0.2382 -0.4659  0.1342
 4535SOL    HW114425   6.749   3.121   5.003 -1.5821  0.9072  0.5558
 4535SOL    HW214426   6.650   3.035   4.905 -0.1157 -0.5295  0.2902
 4536SOL     OW14427   4.669   2.995   6.619  0.4296 -0.2567 -0.1468
 4536SOL    HW114428   4.641   2.899   6.617  2.7710 -1.0109 -1.4993
 4536SOL    HW214429   4.739   3.008   6.689 -1.1950  0.9582  1.3398
 4537SOL     OW14430   2.016   5.289   0.959  0.1817 -0.3102 -0.0195
 4537SOL    HW114431   1.991   5.247   0.872 -0.6501  0.9355 -0.4182
 4537SOL    HW214432   2.044   5.218   1.023  0.5366 -1.2846 -1.2027
 4538SOL     OW14433   6.209   5.531   2.566  0.7206  0.6107 -0.2519
 4538SOL    HW114434   6.167   5.548   2.655 -0.3464  0.2816 -0.6686
 4538SOL    HW214435   6.295   5.581   2.559 -0.6036  3.0153 -0.1525
 4539SOL     OW14436   1.796   3.397   5.370  0.3875 -0.1486 -0.4105
 4539SOL    HW114437   1.865   3.329   5.347  0.3670  0.1094 -1.2766
 4539SOL    HW214438   1.727   3.401   5.297 -1.6519 -1.7685  1.2694
 4540SOL     OW14439   1.775   4.575   2.978 -0.4362  0.4342 -0.3293
 4540SOL    HW114440   1.786   4.598   3.075 -0.4830 -1.4181  0.1472
 4540SOL    HW214441   1.862   4.592   2.930  0.4285 -1.1600  0.6011
 4541SOL     OW14442   3.562   6.642   6.073  0.0749  0.0617 -0.2818
 4541SOL    HW114443   3.569   6.559   6.017  2.3029  0.1119 -0.1416
 4541SOL    HW214444   3.571   6.618   6.170 -0.7294  0.3328 -0.1270
 4542SOL     OW14445   0.929   5.077   0.536 -0.0890  0.2165 -0.0962
 4542SOL    HW114446   0.977   5.157   0.572  3.1171 -2.2240  1.5464
 4542SOL    HW214447   0.976   5.043   0.455 -1.6308  0.1286 -0.9997
 4543SOL     OW14448   0.349   1.876   5.600  0.0779 -0.1591  0.5436
 4543SOL    HW114449   0.332   1.951   5.665 -0.0047  1.0924 -0.8623
 4543SOL    HW214450   0.365   1.792   5.650  1.5013  1.0511  2.2603
 4544SOL     OW14451   1.868   0.489   3.053 -0.2452  0.1203 -0.2517
 4544SOL    HW114452   1.892   0.551   3.127 -0.6665  1.9358 -1.5739
 4544SOL    HW214453   1.829   0.405   3.091  0.4414  0.5885  1.5882
 4545SOL     OW14454   0.249   5.425   5.266 -0.4652  0.2312  0.2654
 4545SOL    HW114455   0.261   5.367   5.347 -0.6950  0.3980  0.4211
 4545SOL    HW214456   0.308   5.505   5.272  1.0916 -0.8046 -0.7377
 4546SOL     OW14457   0.891   3.321   2.025 -0.5165 -0.3007  0.1724
 4546SOL    HW114458   0.838   3.258   2.081 -2.0549 -0.3210 -1.2279
 4546SOL    HW214459   0.902   3.408   2.074 -3.3091  0.2959 -0.0417
 4547SOL     OW14460   1.683   0.667   6.675  0.4971 -0.2657  0.3320
 4547SOL    HW114461   1.666   0.761   6.702 -1.6025 -0.2409 -0.9229
 4547SOL    HW214462   1.676   0.607   6.755 -1.7643  0.2442  0.5650
 4548SOL     OW14463   1.464   6.628   0.234  0.2533 -0.1044  0.1580
 4548SOL    HW114464   1.518   6.712   0.240  0.7826 -0.4581  0.3226
 4548SOL    HW214465   1.475   6.575   0.317  0.9499 -0.9664 -0.4735
 4549SOL     OW14466   3.892   0.627   6.487 -0.5707  0.0130  0.1234
 4549SOL    HW114467   3.896   0.560   6.413 -1.9607  0.0429  0.0039
 4549SOL    HW214468   3.878   0.580   6.575 -0.4743  0.0761  0.1731
 4550SOL     OW14469   0.465   1.099   5.635 -0.0319  0.7616 -0.0780
 4550SOL    HW114470   0.495   1.120   5.542 -1.3653 -0.2586 -0.7712
 4550SOL    HW214471   0.431   1.183   5.679  0.4610  1.2200 -0.5618
 4551SOL     OW14472   0.066   3.624   1.311  0.5511 -0.0642 -0.4503
 4551SOL    HW114473   0.151   3.576   1.290  0.7283  0.2080 -0.3612
 4551SOL    HW214474  -0.002   3.559   1.346  1.4898  0.0578  1.7776
 4552SOL     OW14475   5.405   2.681   6.674 -0.1452 -0.1456 -0.4622
 4552SOL    HW114476   5.467   2.734   6.731  1.3094 -1.4502 -0.7528
 4552SOL    HW214477   5.327   2.651   6.728  0.4194 -0.0287  0.4336
 4553SOL     OW14478   4.709   2.929   2.092 -0.4761 -0.2896 -0.4599
 4553SOL    HW114479   4.736   2.907   2.186  0.9952  2.7754 -0.0363
 4553SOL    HW214480   4.660   3.017   2.091 -0.3275 -0.1820 -2.5694
 4554SOL     OW14481   5.631   3.788   5.454  0.0846  0.3386 -0.0968
 4554SOL    HW114482   5.710   3.837   5.491  0.9962 -0.1847 -1.2953
 4554SOL    HW214483   5.656   3.743   5.369 -0.6853 -2.2146  0.9221
 4555SOL     OW14484   3.281   6.982   3.201 -0.0989  0.1160 -0.3410
 4555SOL    HW114485   3.377   6.958   3.215 -0.5319 -1.4833  0.1181
 4555SOL    HW214486   3.274   7.053   3.132  1.3030 -1.0872 -1.7878
 4556SOL     OW14487   5.923   4.306   4.246 -0.2141  0.1519  0.6160
 4556SOL    HW114488   5.965   4.391   4.279  0.2199 -0.1747  0.9233
 4556SOL    HW214489   5.995   4.245   4.210 -0.7069  0.7041 -1.4583
 4557SOL     OW14490   1.419   5.637   6.100 -0.2227 -0.2896 -0.1516
 4557SOL    HW114491   1.481   5.620   6.176 -2.0540 -2.8310  0.9257
 4557SOL    HW214492   1.469   5.630   6.014  1.4962  0.6590  0.7124
 4558SOL     OW14493   5.447   3.973   1.154  0.0225 -0.0850 -0.1581
 4558SOL    HW114494   5.510   4.050   1.146  0.7457 -0.7116 -0.5784
 4558SOL    HW214495   5.426   3.938   1.063 -0.2721 -0.4185  0.0367
 4559SOL     OW14496   1.077   3.726   2.643  0.0466  0.4728 -0.1031
 4559SOL    HW114497   1.109   3.651   2.701 -0.6957 -0.3292 -0.7112
 4559SOL    HW214498   1.122   3.722   2.554 -0.9738 -0.0753 -0.6139
 4560SOL     OW14499   5.331   0.893   2.695  0.0849 -0.3406 -0.5034
 4560SOL    HW114500   5.431   0.889   2.699  0.2309  0.3359 -2.4475
 4560SOL    HW214501   5.303   0.988   2.681 -0.8247 -0.5628 -0.2203
 4561SOL     OW14502   0.899   4.351   2.632  0.5643 -0.0333 -0.5449
 4561SOL    HW114503   0.878   4.317   2.540 -0.3053  0.9129 -0.7087
 4561SOL    HW214504   0.947   4.438   2.625 -1.9741  1.4957 -0.1455
 4562SOL     OW14505   3.144   5.258   5.326  0.0702 -0.1278 -0.1565
 4562SOL    HW114506   3.233   5.303   5.329  1.1705 -2.2100  0.6974
 4562SOL    HW214507   3.090   5.285   5.406 -0.3168  1.5400 -0.9421
 4563SOL     OW14508   3.753   0.391   3.314 -0.6076  0.5120  0.0581
 4563SOL    HW114509   3.838   0.349   3.282 -0.3481  1.3988 -0.4745
 4563SOL    HW214510   3.758   0.407   3.412 -0.0323  0.8297 -0.0201
 4564SOL     OW14511   0.573   5.849   0.022 -0.2028  0.2141 -0.7545
 4564SOL    HW114512   0.571   5.792   0.104 -4.1346 -1.1972 -1.6417
 4564SOL    HW214513   0.640   5.811  -0.042 -0.5638 -1.6438 -0.1038
 4565SOL     OW14514   3.600   6.563   6.312  0.1962 -1.1102 -0.1155
 4565SOL    HW114515   3.697   6.576   6.291 -0.0401  0.7489 -0.1798
 4565SOL    HW214516   3.580   6.601   6.403 -0.2990 -2.3288  0.3020
 4566SOL     OW14517   2.010   3.948   6.948 -0.3446 -0.1705 -0.2712
 4566SOL    HW114518   2.026   3.938   7.046  0.3694 -0.9412 -0.4477
 4566SOL    HW214519   1.944   3.879   6.918 -1.7909  1.0856 -0.0703
 4567SOL     OW14520   3.008   2.469   6.747  0.0154 -0.1201  0.1016
 4567SOL    HW114521   2.979   2.564   6.759 -0.5154 -0.2260 -0.2895
 4567SOL    HW214522   3.064   2.462   6.665  0.2726 -0.1041  0.2737
 4568SOL     OW14523   4.082   4.915   3.888  0.4533 -0.3369  0.3812
 4568SOL    HW114524   4.009   4.875   3.833  2.8281 -2.8714 -1.2075
 4568SOL    HW214525   4.167   4.915   3.835  1.7342  2.1305  2.2595
 4569SOL     OW14526   0.331   4.378   3.796  0.3337 -0.6761 -0.4985
 4569SOL    HW114527   0.247   4.429   3.775  1.1283  1.0864  0.3197
 4569SOL    HW214528   0.377   4.353   3.711  0.5873  1.2235 -0.9790
 4570SOL     OW14529   1.519   4.902   4.331 -0.3998 -0.0698 -0.4286
 4570SOL    HW114530   1.522   4.956   4.415 -1.3077 -0.0011 -0.4274
 4570SOL    HW214531   1.451   4.829   4.341  0.4008 -0.8695 -0.6372
 4571SOL     OW14532   5.636   5.008   5.162  0.1804  0.4044  0.7715
 4571SOL    HW114533   5.679   4.958   5.237  1.3009 -1.4398 -0.9748
 4571SOL    HW214534   5.537   5.006   5.173  0.3120 -0.0466  2.0490
 4572SOL     OW14535   0.642   6.130   0.082  0.0836 -0.3018 -0.6313
 4572SOL    HW114536   0.618   6.034   0.063  1.2403 -0.6339 -0.5057
 4572SOL    HW214537   0.586   6.164   0.158 -0.7595 -0.6754 -1.0645
 4573SOL     OW14538   6.605   1.830   0.500  0.0913  0.5380  0.4085
 4573SOL    HW114539   6.586   1.868   0.410 -1.5010 -0.6756  0.1835
 4573SOL    HW214540   6.518   1.810   0.547  0.8743 -0.4438  1.5108
 4574SOL     OW14541   6.830   5.976   5.713 -0.2645  0.4652 -0.0688
 4574SOL    HW114542   6.890   5.903   5.748  0.6797 -0.2533 -2.9085
 4574SOL    HW214543   6.747   5.936   5.675  0.4161  0.7439 -1.9708
 4575SOL     OW14544   0.471   2.659   0.965  0.3331 -0.4716 -0.5729
 4575SOL    HW114545   0.400   2.602   0.924 -1.0927  0.2104  0.8326
 4575SOL    HW214546   0.437   2.753   0.976  0.8203 -0.4900  1.6035
 4576SOL     OW14547   3.958   4.831   0.876  0.2188  0.6664  0.4011
 4576SOL    HW114548   3.987   4.822   0.971  1.4525  1.6238  0.1479
 4576SOL    HW214549   3.953   4.740   0.834  1.4011  0.3423  0.9116
 4577SOL     OW14550   2.359   0.338   2.392 -0.0986 -0.2307  0.0726
 4577SOL    HW114551   2.454   0.334   2.363  0.4808  1.0776  1.6624
 4577SOL    HW214552   2.312   0.255   2.362  1.7265 -1.2597 -0.0929
 4578SOL     OW14553   2.720   3.471   1.760  0.4153 -0.2910 -0.6749
 4578SOL    HW114554   2.659   3.535   1.713 -0.9487 -1.0034  0.0748
 4578SOL    HW214555   2.739   3.393   1.700 -0.9451 -0.9704 -0.2625
 4579SOL     OW14556   3.743   1.107   2.228 -0.0163 -0.4517 -0.6848
 4579SOL    HW114557   3.743   1.200   2.192 -2.1423 -0.6480 -1.3001
 4579SOL    HW214558   3.833   1.086   2.267  0.3065  2.0561  0.0540
 4580SOL     OW14559   1.582   3.471   1.924  0.4618 -0.3353  0.1424
 4580SOL    HW114560   1.635   3.477   2.008 -0.9760 -2.2200  1.2658
 4580SOL    HW214561   1.611   3.543   1.861  2.6606  0.1514  1.6021
 4581SOL     OW14562   4.310   3.729   5.803 -0.5498 -0.0218 -0.6316
 4581SOL    HW114563   4.282   3.747   5.708 -0.1389 -1.0159 -0.9503
 4581SOL    HW214564   4.276   3.802   5.862 -1.3431  0.2881 -1.4519
 4582SOL     OW14565   5.571   4.300   2.519  0.2952 -0.4918 -0.6088
 4582SOL    HW114566   5.616   4.382   2.554  0.2052 -0.7338  0.0950
 4582SOL    HW214567   5.537   4.317   2.427  0.9979 -0.0056 -0.7828
 4583SOL     OW14568   6.760   0.085   5.195  0.3682 -0.0845 -0.2425
 4583SOL    HW114569   6.745   0.175   5.237  0.9271  0.8583 -1.9738
 4583SOL    HW214570   6.804   0.024   5.262  1.0216  1.2882  0.6213
 4584SOL     OW14571   5.327   0.347   6.888  0.0469 -1.0268 -0.3148
 4584SOL    HW114572   5.265   0.424   6.904 -1.2218 -1.7615 -1.4457
 4584SOL    HW214573   5.315   0.280   6.962 -0.4384 -1.1118 -0.4659
 4585SOL     OW14574   1.080   6.313   0.254 -0.5286 -0.5505 -0.1703
 4585SOL    HW114575   1.112   6.362   0.173 -0.2698  1.4639  1.0630
 4585SOL    HW214576   1.155   6.259   0.293  0.2124  0.7943  0.3285
 4586SOL     OW14577   1.964   1.994   5.056 -0.5434 -0.1064  0.6518
 4586SOL    HW114578   1.950   2.093   5.044 -0.1695 -0.2912 -1.8927
 4586SOL    HW214579   1.895   1.944   5.003  1.7465 -1.1126 -1.5619
 4587SOL     OW14580   3.247   0.516   2.782  0.3601 -0.2444  0.2321
 4587SOL    HW114581   3.304   0.596   2.761  3.0033 -1.9844  0.3612
 4587SOL    HW214582   3.259   0.491   2.878  1.3834 -2.0764 -0.3255
 4588SOL     OW14583   2.473   3.330   3.979 -0.4660  0.0311  0.0960
 4588SOL    HW114584   2.540   3.264   3.946 -1.7371 -1.0617 -0.4140
 4588SOL    HW214585   2.381   3.302   3.949 -1.0054  2.2846 -0.5404
 4589SOL     OW14586   2.016   2.573   1.471  0.2224  0.0887 -0.1486
 4589SOL    HW114587   1.917   2.568   1.460  0.3022  1.7985 -2.6704
 4589SOL    HW214588   2.039   2.639   1.542 -0.5747  2.9994 -2.3810
 4590SOL     OW14589   2.964   6.177   0.831  0.1509  0.3584  0.4537
 4590SOL    HW114590   2.886   6.115   0.821  1.2253 -1.9083  4.1433
 4590SOL    HW214591   3.044   6.140   0.784 -0.0746  0.8795 -0.3673
 4591SOL     OW14592   2.667   4.889   5.507 -0.0927 -0.1576  0.0524
 4591SOL    HW114593   2.653   4.955   5.434 -0.4158 -0.2040  0.0723
 4591SOL    HW214594   2.680   4.798   5.467  2.4147  0.1997 -0.1023
 4592SOL     OW14595   2.068   5.169   0.670  0.4472  0.3131  0.4776
 4592SOL    HW114596   2.057   5.264   0.642  2.3055  0.5349  0.3339
 4592SOL    HW214597   1.990   5.115   0.638 -1.3320  2.0000  1.7508
 4593SOL     OW14598   5.749   3.192   2.648  0.2355  0.2670  0.7816
 4593SOL    HW114599   5.740   3.256   2.725  0.3586  0.1273  0.9141
 4593SOL    HW214600   5.680   3.213   2.579  1.1574  1.4283  0.1818
 4594SOL     OW14601   1.954   6.201   2.280 -0.2058 -0.0493  0.0303
 4594SOL    HW114602   1.876   6.153   2.238  1.1058 -1.8090 -0.5563
 4594SOL    HW214603   1.991   6.145   2.354 -0.4526  1.5200  1.3890
 4595SOL     OW14604   6.684   5.256   5.229  0.6195  0.1407  0.3749
 4595SOL    HW114605   6.743   5.320   5.277 -0.0810  0.2376  1.1232
 4595SOL    HW214606   6.661   5.293   5.139  0.6097  0.7219  0.6121
 4596SOL     OW14607   5.151   3.540   6.351  0.6929  0.6911 -0.3285
 4596SOL    HW114608   5.142   3.442   6.365  0.3481  0.6327 -0.9305
 4596SOL    HW214609   5.110   3.589   6.428 -0.8693  0.3822 -0.9298
 4597SOL     OW14610   0.158   6.885   3.672 -0.8293  0.0208 -0.1336
 4597SOL    HW114611   0.121   6.817   3.610 -1.1461  0.0072  0.0669
 4597SOL    HW214612   0.187   6.841   3.757 -2.3429  0.3072  0.5655
 4598SOL     OW14613   4.974   0.194   0.265 -0.4780  0.3693  0.0564
 4598SOL    HW114614   4.935   0.286   0.259  1.1376  1.1894  1.2986
 4598SOL    HW214615   5.010   0.179   0.357  0.7625 -0.8621 -0.5948
 4599SOL     OW14616   1.679   3.126   6.768  0.4763 -0.2768  0.1177
 4599SOL    HW114617   1.720   3.090   6.683  0.0323 -0.9770  0.1911
 4599SOL    HW214618   1.744   3.114   6.843  1.0231  0.6950 -0.1846
 4600SOL     OW14619   0.224   1.379   6.158  0.2709  0.7170  0.2823
 4600SOL    HW114620   0.184   1.452   6.213 -0.0566  0.0113  1.0160
 4600SOL    HW214621   0.203   1.291   6.201  0.0085  0.1449 -0.9757
 4601SOL     OW14622   4.136   5.432   3.205  0.3775 -0.0876 -0.6844
 4601SOL    HW114623   4.155   5.453   3.300 -2.2880 -1.1561  0.1916
 4601SOL    HW214624   4.202   5.478   3.146  1.9770  0.7522  1.6447
 4602SOL     OW14625   0.319   6.449   3.215 -0.3838 -0.4304  0.3118
 4602SOL    HW114626   0.258   6.524   3.190 -0.3055 -0.0374  1.2556
 4602SOL    HW214627   0.381   6.430   3.139 -0.4683  0.3971  0.0234
 4603SOL     OW14628   2.472   5.090   5.723 -0.2669 -0.2435 -0.5331
 4603SOL    HW114629   2.489   5.184   5.753 -0.8387 -0.1661 -0.4343
 4603SOL    HW214630   2.471   5.086   5.623  1.5843 -0.4904 -0.5676
 4604SOL     OW14631   0.544   5.101   3.663  0.5595  0.1378 -0.0449
 4604SOL    HW114632   0.526   5.148   3.750  1.4051  1.9835 -0.8248
 4604SOL    HW214633   0.642   5.105   3.642  0.3831 -0.3933 -1.0344
 4605SOL     OW14634   1.654   3.945   2.064 -0.3574 -0.5492  0.9181
 4605SOL    HW114635   1.581   3.989   2.116 -0.3060 -0.8449  1.2487
 4605SOL    HW214636   1.714   3.896   2.127  0.8464  0.6921  0.7869
 4606SOL     OW14637   3.567   6.562   1.199 -0.7364  0.2419  0.2238
 4606SOL    HW114638   3.507   6.641   1.216 -0.8464  0.0634  0.6898
 4606SOL    HW214639   3.538   6.485   1.256 -0.6469 -0.1479 -0.2501
 4607SOL     OW14640   3.936   6.970   6.465  0.4330 -0.6494  0.7807
 4607SOL    HW114641   3.969   6.928   6.381 -0.6755  0.6498 -0.3608
 4607SOL    HW214642   3.837   6.983   6.459  0.4769  0.3719  1.8560
 4608SOL     OW14643   5.922   5.466   2.906  0.0474 -0.5133  0.1332
 4608SOL    HW114644   5.846   5.421   2.860 -1.2152  0.2637  1.3913
 4608SOL    HW214645   5.969   5.400   2.964 -0.0235 -0.8557 -0.1913
 4609SOL     OW14646   5.456   2.028   3.807  0.1063  0.1302 -0.7866
 4609SOL    HW114647   5.480   2.122   3.831  0.4066  0.3839 -2.0123
 4609SOL    HW214648   5.363   2.025   3.770  0.3253  0.0553 -1.3404
 4610SOL     OW14649   2.173   4.359   5.325  0.3164  0.0862  0.3987
 4610SOL    HW114650   2.267   4.340   5.355 -0.2515 -0.7388  1.7706
 4610SOL    HW214651   2.170   4.362   5.225  1.8466  0.3836  0.3331
 4611SOL     OW14652   2.712   5.807   6.909  0.4633  0.1670 -0.4674
 4611SOL    HW114653   2.776   5.750   6.960  0.6707  1.3561  0.6608
 4611SOL    HW214654   2.763   5.872   6.853  0.2590 -1.7362 -3.0227
 4612SOL     OW14655   4.946   4.062   2.587 -0.3843  0.6781  0.1845
 4612SOL    HW114656   4.848   4.045   2.574 -0.3248  0.1368  0.4135
 4612SOL    HW214657   4.979   4.007   2.664 -0.2479  2.0689  1.1802
 4613SOL     OW14658   5.073   2.883   3.112 -0.4274  0.2273 -0.2055
 4613SOL    HW114659   4.973   2.877   3.123 -0.1955 -0.1745  2.3681
 4613SOL    HW214660   5.097   2.873   3.016 -2.8709  0.4205 -0.8967
 4614SOL     OW14661   6.845   2.846   6.014 -0.0270 -0.2097  0.0727
 4614SOL    HW114662   6.904   2.895   6.078  0.7524  0.0270 -0.7953
 4614SOL    HW214663   6.819   2.906   5.939  0.4291 -0.9267 -0.6819
 4615SOL     OW14664   0.356   1.521   1.023 -0.4424 -0.1555  0.5157
 4615SOL    HW114665   0.327   1.485   1.111 -2.8933  2.1893  0.7856
 4615SOL    HW214666   0.283   1.510   0.956 -0.7963  2.7843  0.2594
 4616SOL     OW14667   6.256   0.937   1.561 -0.2805 -0.3031 -0.7558
 4616SOL    HW114668   6.247   0.876   1.639 -1.2632 -0.9340 -1.3440
 4616SOL    HW214669   6.219   1.027   1.584  0.5800 -0.0984 -0.1015
 4617SOL     OW14670   2.361   2.333   1.220  0.0894  0.0556 -0.1242
 4617SOL    HW114671   2.437   2.269   1.230  0.1958 -0.1269 -1.7965
 4617SOL    HW214672   2.340   2.375   1.309  1.1054 -1.0482  0.6608
 4618SOL     OW14673   6.280   0.253   6.113 -0.5304 -0.1214 -0.5163
 4618SOL    HW114674   6.369   0.207   6.114  0.0244  0.9299  0.4817
 4618SOL    HW214675   6.213   0.194   6.158  0.2208  0.1060  0.9552
 4619SOL     OW14676   4.294   1.811   2.169  0.2221  0.5190 -0.4906
 4619SOL    HW114677   4.364   1.877   2.142  1.4351 -1.1600 -1.6572
 4619SOL    HW214678   4.321   1.767   2.254  0.6304 -0.1417 -0.9500
 4620SOL     OW14679   3.016   2.131   4.930 -0.3629 -0.1819  0.4299
 4620SOL    HW114680   3.051   2.187   5.005 -1.0662 -0.3353  0.8774
 4620SOL    HW214681   3.093   2.095   4.877  0.1074  1.3227  0.0321
 4621SOL     OW14682   4.852   0.373   5.049 -0.0581  0.3533  0.5831
 4621SOL    HW114683   4.821   0.305   4.982 -1.3676  0.2931  1.2255
 4621SOL    HW214684   4.779   0.438   5.067 -0.1713 -0.2873  2.7727
 4622SOL     OW14685   3.744   6.578   6.877 -0.1921  0.2662  0.1214
 4622SOL    HW114686   3.786   6.643   6.813  1.1783 -0.2607  0.4344
 4622SOL    HW214687   3.777   6.485   6.857 -2.3503 -0.4142 -0.5147
 4623SOL     OW14688   3.609   5.738   5.862 -0.3489  0.2410  0.5509
 4623SOL    HW114689   3.559   5.665   5.909 -0.2971 -1.4192 -1.8315
 4623SOL    HW214690   3.554   5.774   5.787  0.8323  0.5279 -0.2073
 4624SOL     OW14691   5.070   6.462   6.376  0.4082  0.1693  0.4490
 4624SOL    HW114692   4.973   6.460   6.352  0.8594  1.6337 -1.8323
 4624SOL    HW214693   5.085   6.409   6.460 -2.4006  0.3285  1.1484
 4625SOL     OW14694   4.052   5.052   2.112 -0.3643 -0.4750 -0.5968
 4625SOL    HW114695   4.108   5.029   2.191 -0.2867 -1.1211 -0.8303
 4625SOL    HW214696   4.011   4.968   2.075 -1.6520  0.0069 -0.3089
 4626SOL     OW14697   2.892   6.335   1.445 -0.4840  0.1084  0.6061
 4626SOL    HW114698   2.961   6.314   1.515 -0.9971 -0.1184  1.0469
 4626SOL    HW214699   2.903   6.272   1.368 -1.3741 -1.1439  1.4822
 4627SOL     OW14700   0.021   3.257   3.473  0.2443 -0.3642 -0.1047
 4627SOL    HW114701   0.047   3.343   3.517 -0.3428  0.0395 -0.5258
 4627SOL    HW214702  -0.037   3.277   3.394  2.5213 -0.9746 -2.0422
 4628SOL     OW14703   5.906   2.035   3.998  0.3913 -0.4853  0.9334
 4628SOL    HW114704   5.947   2.102   4.059  0.7322 -0.1315  0.3237
 4628SOL    HW214705   5.973   1.965   3.974  0.2131 -0.7100  1.0836
 4629SOL     OW14706   2.867   3.379   4.527 -0.5729  0.4024 -0.2696
 4629SOL    HW114707   2.866   3.475   4.556  2.5578  1.2642 -2.5299
 4629SOL    HW214708   2.797   3.364   4.457 -1.3725  0.8386  0.4061
 4630SOL     OW14709   0.292   6.756   5.821  0.6896 -0.0747 -0.6036
 4630SOL    HW114710   0.364   6.755   5.891  0.3599 -1.9993 -0.2139
 4630SOL    HW214711   0.331   6.735   5.732  0.7946  0.1048 -0.5989
 4631SOL     OW14712   1.084   4.538   3.847 -0.2155  0.3143  0.1986
 4631SOL    HW114713   1.155   4.542   3.918 -1.1646 -0.1876  1.2181
 4631SOL    HW214714   1.033   4.452   3.857 -0.1154  0.0401 -1.3715
 4632SOL     OW14715   4.754   4.715   4.469 -0.2632 -0.0894  0.7667
 4632SOL    HW114716   4.710   4.769   4.540 -2.6506 -2.1803  1.0234
 4632SOL    HW214717   4.685   4.664   4.418  1.6236 -0.7579 -1.2930
 4633SOL     OW14718   4.801   4.566   0.803 -0.5860  0.0069 -0.0115
 4633SOL    HW114719   4.847   4.651   0.777  1.1759 -0.2492  2.0060
 4633SOL    HW214720   4.703   4.584   0.813 -0.2274  1.8958  0.5950
 4634SOL     OW14721   5.392   5.816   3.833 -0.6516 -0.4420 -0.2962
 4634SOL    HW114722   5.476   5.836   3.782 -0.5813 -0.7054 -0.2867
 4634SOL    HW214723   5.343   5.741   3.789 -1.8437  0.9203 -1.3822
 4635SOL     OW14724   4.940   1.727   1.919 -0.0796 -0.5695 -0.0652
 4635SOL    HW114725   4.844   1.707   1.935 -0.6627  0.3231 -2.1294
 4635SOL    HW214726   4.958   1.728   1.821  1.1006  3.2706  0.0403
 4636SOL     OW14727   2.482   4.396   1.064  0.3371 -0.3038  0.3752
 4636SOL    HW114728   2.432   4.314   1.092 -1.4265  0.4971 -0.2533
 4636SOL    HW214729   2.418   4.472   1.056  1.8926  1.0872  0.6874
 4637SOL     OW14730   4.400   3.697   4.941 -0.0569  0.7290 -0.0477
 4637SOL    HW114731   4.488   3.659   4.914  0.6032  1.9976  0.2535
 4637SOL    HW214732   4.360   3.642   5.014  1.0946  0.8605  0.7018
 4638SOL     OW14733   3.078   5.019   4.779 -0.4936 -0.7210  0.1533
 4638SOL    HW114734   3.016   5.072   4.721 -1.6993 -0.7285  1.3582
 4638SOL    HW214735   3.046   5.025   4.874  1.0833 -1.1661  0.7354
 4639SOL     OW14736   6.661   6.951   0.524  0.3106 -0.4582  0.5117
 4639SOL    HW114737   6.642   7.004   0.607  1.3698  3.9835 -1.7286
 4639SOL    HW214738   6.760   6.949   0.509  0.2047 -2.2044 -0.1037
 4640SOL     OW14739   1.441   4.488   3.756 -0.5417  0.5785 -0.0724
 4640SOL    HW114740   1.418   4.395   3.728  1.4840  0.0319 -0.0812
 4640SOL    HW214741   1.402   4.507   3.847  1.7264 -1.5398  1.4787
 4641SOL     OW14742   5.245   4.817   5.098  0.1724 -0.2183 -0.2741
 4641SOL    HW114743   5.241   4.799   4.999 -0.3984 -1.1458 -0.0941
 4641SOL    HW214744   5.154   4.841   5.130  0.3566  0.0659  0.0374
 4642SOL     OW14745   5.086   4.462   0.974  0.0993 -0.0313 -0.3335
 4642SOL    HW114746   5.065   4.513   0.891  1.6425  0.6022 -0.3552
 4642SOL    HW214747   5.166   4.502   1.019  0.4145 -1.4957  0.4731
 4643SOL     OW14748   2.303   0.895   5.350 -0.4915 -0.0938 -0.5558
 4643SOL    HW114749   2.401   0.882   5.334 -0.5149  0.7976 -1.5758
 4643SOL    HW214750   2.253   0.816   5.314 -0.2156 -0.0778 -0.9883
 4644SOL     OW14751   1.978   2.643   6.028 -0.5001 -0.3294 -0.6542
 4644SOL    HW114752   2.055   2.666   6.087 -0.0595 -0.0225 -1.3310
 4644SOL    HW214753   1.968   2.713   5.957 -0.6159 -1.0159 -1.3345
 4645SOL     OW14754   2.513   4.694   5.218 -0.6083  0.6410  0.3327
 4645SOL    HW114755   2.609   4.691   5.190 -0.7667 -0.8587 -0.0992
 4645SOL    HW214756   2.503   4.657   5.310 -0.7926  0.7658  0.3645
 4646SOL     OW14757   1.027   6.518   3.276  0.3031 -0.0623 -0.1391
 4646SOL    HW114758   1.064   6.568   3.354  0.1027  1.2012 -0.8349
 4646SOL    HW214759   0.930   6.502   3.290  0.6587 -1.6449  0.7805
 4647SOL     OW14760   0.032   5.810   1.634  0.3993 -0.4137  0.7492
 4647SOL    HW114761   0.054   5.797   1.537  1.2768  1.5488  0.6509
 4647SOL    HW214762  -0.015   5.728   1.668 -1.8690 -0.3492 -1.8510
 4648SOL     OW14763   1.081   1.616   6.349 -0.2372 -0.1700  0.3063
 4648SOL    HW114764   1.033   1.564   6.278 -0.8822  0.9796 -0.1173
 4648SOL    HW214765   1.083   1.713   6.324  1.6906 -0.0816  0.6667
 4649SOL     OW14766   3.099   2.319   0.253 -0.8125  0.6078 -0.0054
 4649SOL    HW114767   3.009   2.277   0.247 -0.3105 -0.3851 -0.9457
 4649SOL    HW214768   3.113   2.381   0.176 -0.5724  0.5025 -0.0500
 4650SOL     OW14769   2.231   5.956   5.918  0.2193 -0.8095 -0.1052
 4650SOL    HW114770   2.167   5.990   5.987 -0.7092  0.2278 -1.4226
 4650SOL    HW214771   2.325   5.977   5.947 -0.2247  1.0992  0.1207
 4651SOL     OW14772   3.011   4.499   0.807 -0.1042 -0.0970  0.2656
 4651SOL    HW114773   2.943   4.553   0.759  0.3545  1.3083  1.1456
 4651SOL    HW214774   3.096   4.496   0.754  0.1485  0.7937  0.6104
 4652SOL     OW14775   6.042   2.191   4.155 -0.6267  0.4890 -0.0905
 4652SOL    HW114776   6.131   2.226   4.126 -0.8239 -0.4536 -1.9896
 4652SOL    HW214777   6.028   2.213   4.252  1.5004  0.9481  0.1763
 4653SOL     OW14778   0.485   6.335   4.484 -0.3329 -0.3480  0.4838
 4653SOL    HW114779   0.441   6.349   4.396 -0.8478  3.2953  1.1713
 4653SOL    HW214780   0.418   6.298   4.549 -1.4588  1.6457  0.5523
 4654SOL     OW14781   0.961   0.252   4.489  0.0199 -0.4061  0.0545
 4654SOL    HW114782   0.980   0.159   4.458 -0.0056 -0.7552  1.0585
 4654SOL    HW214783   0.930   0.250   4.584  0.9857  0.7159  0.4151
 4655SOL     OW14784   2.762   6.035   4.809 -0.4440  0.3577  0.5023
 4655SOL    HW114785   2.839   5.993   4.760 -1.3933  0.0620 -0.7852
 4655SOL    HW214786   2.761   6.002   4.904  1.3096  0.7836  0.7069
 4656SOL     OW14787   3.916   1.633   2.290 -0.5081  0.5917  0.0281
 4656SOL    HW114788   3.942   1.727   2.311  0.2601  0.3101  0.3956
 4656SOL    HW214789   3.990   1.589   2.240 -1.3619  0.5380 -1.2216
 4657SOL     OW14790   0.368   6.918   1.092  0.5656 -0.1433  0.0135
 4657SOL    HW114791   0.418   6.997   1.129 -1.5410  1.0622  0.4577
 4657SOL    HW214792   0.427   6.837   1.096  3.0884  1.5002 -1.1431
 4658SOL     OW14793   3.376   4.464   2.368 -0.5831  0.7085  0.0311
 4658SOL    HW114794   3.307   4.500   2.431  0.2840 -1.5418  2.4352
 4658SOL    HW214795   3.455   4.526   2.367 -1.5111  1.9300 -0.6846
 4659SOL     OW14796   1.393   5.169   0.001  0.2576  0.1833  0.2186
 4659SOL    HW114797   1.412   5.265   0.018  1.2377 -0.1157  0.8904
 4659SOL    HW214798   1.303   5.159  -0.041  0.9913  1.5757 -1.8320
 4660SOL     OW14799   2.495   3.552   1.152 -0.3008  0.1130 -0.0138
 4660SOL    HW114800   2.443   3.592   1.077  1.4006  0.6375 -0.9795
 4660SOL    HW214801   2.460   3.586   1.239 -1.1906  0.8788 -0.6506
 4661SOL     OW14802   6.914   6.333   2.524 -0.7121  0.2835  0.3173
 4661SOL    HW114803   6.942   6.348   2.619 -1.7571  0.7141  0.5664
 4661SOL    HW214804   6.827   6.379   2.508 -1.5144 -1.4162 -0.3188
 4662SOL     OW14805   4.008   5.140   3.125 -0.2756  0.0371  0.4831
 4662SOL    HW114806   3.924   5.116   3.076  1.3655 -2.0539 -1.5115
 4662SOL    HW214807   4.002   5.235   3.155 -2.5476  0.5815 -1.3731
 4663SOL     OW14808   1.827   1.183   1.506  0.3035  0.2404 -0.7825
 4663SOL    HW114809   1.916   1.146   1.532 -0.8668 -0.9855  1.8464
 4663SOL    HW214810   1.838   1.276   1.469  2.5437  0.5763  0.6101
 4664SOL     OW14811   5.671   2.668   3.230 -0.5320 -0.4347 -0.1807
 4664SOL    HW114812   5.700   2.653   3.136  0.6323  0.0902  0.0846
 4664SOL    HW214813   5.585   2.619   3.246 -1.0837 -0.0132 -1.6870
 4665SOL     OW14814   5.868   0.679   5.193 -0.0317 -0.0457  0.3059
 4665SOL    HW114815   5.894   0.619   5.269  0.4182  0.0336  0.2168
 4665SOL    HW214816   5.779   0.721   5.212  0.4707  0.6544  1.1939
 4666SOL     OW14817   4.733   1.157   1.883  0.0247  0.0018 -0.1895
 4666SOL    HW114818   4.730   1.231   1.816 -0.7951 -0.5586 -0.7983
 4666SOL    HW214819   4.776   1.189   1.967 -1.7629  1.6906  0.1653
 4667SOL     OW14820   2.541   3.929   0.450 -0.3392 -0.3819 -0.2135
 4667SOL    HW114821   2.591   3.909   0.534 -1.0363  1.6926  0.7759
 4667SOL    HW214822   2.583   3.881   0.374  2.0362 -0.1723  0.8658
 4668SOL     OW14823   6.882   1.032   4.360 -0.3078 -0.1460  0.5821
 4668SOL    HW114824   6.927   0.943   4.372  1.7507  0.6832 -0.5484
 4668SOL    HW214825   6.839   1.036   4.270  1.3188  0.6675 -0.1937
 4669SOL     OW14826   6.605   6.520   1.780 -0.3732  0.1465  0.3195
 4669SOL    HW114827   6.532   6.494   1.843 -1.4258  0.8141 -0.6046
 4669SOL    HW214828   6.630   6.440   1.725 -2.1099  0.4835 -1.0274
 4670SOL     OW14829   0.506   1.659   4.513 -0.2372 -0.1423  0.2906
 4670SOL    HW114830   0.483   1.661   4.416 -1.0356 -0.1007  0.4689
 4670SOL    HW214831   0.422   1.670   4.567  0.2036 -0.1136  0.9822
 4671SOL     OW14832   3.645   5.229   0.802  0.2816 -0.3671 -0.5302
 4671SOL    HW114833   3.617   5.272   0.717  0.8700 -0.2627 -0.6719
 4671SOL    HW214834   3.698   5.146   0.783 -0.6346 -1.0415 -0.2614
 4672SOL     OW14835   4.762   2.017   3.092 -0.2501  0.6119  0.2741
 4672SOL    HW114836   4.837   2.063   3.044 -0.8450  0.7122 -0.5772
 4672SOL    HW214837   4.687   2.081   3.105 -0.6722  0.1806  0.0132
 4673SOL     OW14838   4.493   3.867   6.754  0.1167 -0.5328 -0.0454
 4673SOL    HW114839   4.576   3.911   6.787  0.3151  0.2380 -1.4699
 4673SOL    HW214840   4.471   3.788   6.811 -0.0097  1.1477  2.3318
 4674SOL     OW14841   5.581   5.055   6.937  0.0677  0.2145 -0.0232
 4674SOL    HW114842   5.636   5.121   6.987 -0.5532 -1.0777  2.5383
 4674SOL    HW214843   5.499   5.032   6.991 -1.3048 -0.3762 -2.2124
 4675SOL     OW14844   5.625   5.036   1.463 -0.0087  0.0919 -0.2526
 4675SOL    HW114845   5.636   4.976   1.384 -2.0735 -1.1085  0.3050
 4675SOL    HW214846   5.529   5.059   1.475  0.4128  1.3051  1.1779
 4676SOL     OW14847   2.557   2.174   1.285 -0.2905  0.0278 -0.5597
 4676SOL    HW114848   2.622   2.214   1.349  0.9639 -0.3045 -1.5666
 4676SOL    HW214849   2.569   2.074   1.283  0.0015  0.0672 -1.6002
 4677SOL     OW14850   5.318   5.803   5.785 -0.1793 -0.6155  0.5214
 4677SOL    HW114851   5.305   5.873   5.856  0.5966  0.6746 -0.5725
 4677SOL    HW214852   5.321   5.713   5.828 -0.3482  0.0767  2.0602
 4678SOL     OW14853   1.779   3.790   3.964 -0.9195 -0.2157 -0.1678
 4678SOL    HW114854   1.718   3.736   3.904 -0.5187  0.6897 -1.4414
 4678SOL    HW214855   1.830   3.855   3.908 -0.0768  0.2536  1.1225
 4679SOL     OW14856   5.818   3.507   6.282 -0.1469  0.6867 -0.0690
 4679SOL    HW114857   5.847   3.488   6.375  1.7895 -0.5471 -0.8508
 4679SOL    HW214858   5.845   3.431   6.223 -3.7225  0.1170 -1.2427
 4680SOL     OW14859   0.292   4.807   5.098  0.2833  0.6750  0.3434
 4680SOL    HW114860   0.197   4.812   5.128 -0.0010  2.4096 -0.7585
 4680SOL    HW214861   0.348   4.769   5.172 -0.9282  1.5456  1.7658
 4681SOL     OW14862   1.656   3.852   6.276 -0.4721  0.2865 -0.0176
 4681SOL    HW114863   1.684   3.906   6.356 -1.7897 -0.2464  0.8393
 4681SOL    HW214864   1.563   3.877   6.250 -1.3959 -2.0195  0.8276
 4682SOL     OW14865   6.267   6.850   2.981 -0.0894 -0.1325 -0.4233
 4682SOL    HW114866   6.323   6.927   3.012 -0.7510  0.6055 -1.0442
 4682SOL    HW214867   6.208   6.879   2.906 -1.2898 -0.9123  0.1856
 4683SOL     OW14868   6.294   3.833   2.572 -0.2761  0.0333 -0.2495
 4683SOL    HW114869   6.276   3.932   2.575  0.2497  0.1212  0.0337
 4683SOL    HW214870   6.392   3.816   2.585 -0.2334 -0.4770 -1.1595
 4684SOL     OW14871   0.895   5.073   2.294  0.3362 -0.3638 -0.5466
 4684SOL    HW114872   0.889   5.091   2.196 -1.7875  0.0947 -0.3900
 4684SOL    HW214873   0.914   4.976   2.309  0.8809 -0.3967 -1.4036
 4685SOL     OW14874   1.306   2.435   5.824  0.3544  0.2691 -0.6789
 4685SOL    HW114875   1.366   2.446   5.903  0.7641 -1.3946 -0.7127
 4685SOL    HW214876   1.212   2.420   5.856  0.2137  1.3352 -0.5753
 4686SOL     OW14877   6.579   3.030   4.757 -0.0037 -0.0664 -0.4650
 4686SOL    HW114878   6.658   3.015   4.699  1.5908  1.3548  1.1892
 4686SOL    HW214879   6.515   2.954   4.748  0.7492 -0.4820 -3.0452
 4687SOL     OW14880   1.632   4.625   6.103 -0.5866 -0.2816  0.2004
 4687SOL    HW114881   1.549   4.676   6.124 -0.0398  0.3055  0.9906
 4687SOL    HW214882   1.654   4.564   6.179  0.3298  0.4046  0.4958
 4688SOL     OW14883   6.001   6.495   4.115  0.5243  0.4441 -0.0265
 4688SOL    HW114884   5.925   6.498   4.051 -0.0784  1.4350  0.7039
 4688SOL    HW214885   6.070   6.562   4.088  0.8585 -0.0150 -0.3321
 4689SOL     OW14886   5.907   6.111   4.517  0.0159 -0.9193  1.0642
 4689SOL    HW114887   5.888   6.181   4.449  0.4451 -1.4188  0.4054
 4689SOL    HW214888   5.938   6.027   4.470 -3.5069 -2.6635  1.5425
 4690SOL     OW14889   5.230   1.771   1.849 -0.6117 -0.4038  0.3515
 4690SOL    HW114890   5.297   1.697   1.842 -0.2848 -0.2259  1.3694
 4690SOL    HW214891   5.147   1.746   1.799 -0.0025 -0.8738 -0.4394
 4691SOL     OW14892   1.721   1.015   1.347 -0.6748  0.1581  0.4316
 4691SOL    HW114893   1.622   1.001   1.356 -1.2412  1.6615 -2.4697
 4691SOL    HW214894   1.753   1.073   1.422 -2.1289  0.3466  0.9383
 4692SOL     OW14895   1.966   2.268   5.041  0.0489  0.1194  0.5332
 4692SOL    HW114896   1.909   2.350   5.038 -0.2320 -0.1024 -1.4924
 4692SOL    HW214897   2.062   2.295   5.046  0.0748  0.6805 -1.9233
 4693SOL     OW14898   4.449   0.722   2.039  0.1219  0.1679 -0.5041
 4693SOL    HW114899   4.474   0.818   2.026  1.0084 -0.0479 -0.4298
 4693SOL    HW214900   4.520   0.663   2.000  0.6962 -0.4645  1.4086
 4694SOL     OW14901   1.324   1.851   4.424  0.9745  0.2634  0.2967
 4694SOL    HW114902   1.384   1.901   4.361  1.9940  0.7129  1.5563
 4694SOL    HW214903   1.355   1.757   4.432  1.4183  0.4387  0.7777
 4695SOL     OW14904   4.879   2.231   0.036  0.0016 -0.0739 -0.2255
 4695SOL    HW114905   4.969   2.232  -0.007  0.4022 -1.8406  0.4966
 4695SOL    HW214906   4.890   2.210   0.133 -1.0503  1.7831  0.3462
 4696SOL     OW14907   1.465   1.519   2.366 -0.0519  0.9816 -0.8285
 4696SOL    HW114908   1.529   1.562   2.302  0.7562  1.7371  0.4278
 4696SOL    HW214909   1.458   1.576   2.448 -2.2770  0.8441 -0.8702
 4697SOL     OW14910   5.075   5.672   3.016 -0.2845  0.2537 -0.1287
 4697SOL    HW114911   4.976   5.663   3.026 -0.5216  1.3823 -1.2598
 4697SOL    HW214912   5.103   5.634   2.928  0.4405 -0.9045  0.5743
 4698SOL     OW14913   1.746   6.572   3.470 -0.6340  0.2392  0.2984
 4698SOL    HW114914   1.773   6.583   3.566  2.9602  0.6962 -0.6137
 4698SOL    HW214915   1.793   6.494   3.431  0.1499  1.6412 -1.7378
 4699SOL     OW14916   1.641   5.106   6.841  0.4160 -0.0066 -0.4718
 4699SOL    HW114917   1.637   5.206   6.850 -0.2970 -0.0241 -0.5556
 4699SOL    HW214918   1.580   5.065   6.909  0.8054 -0.3887 -0.3538
 4700SOL     OW14919   5.241   2.616   0.428 -0.1986  0.3545  0.3335
 4700SOL    HW114920   5.214   2.551   0.358  1.6615 -0.5864  0.4250
 4700SOL    HW214921   5.176   2.612   0.504 -1.5635  0.5354 -0.7875
 4701SOL     OW14922   4.538   3.803   2.698 -0.3309  0.0377  0.2224
 4701SOL    HW114923   4.607   3.853   2.646  0.6821 -1.3940  0.1254
 4701SOL    HW214924   4.463   3.865   2.723 -0.7388  0.8684 -2.6843
 4702SOL     OW14925   3.577   4.879   5.372  0.0754 -0.5201  0.2797
 4702SOL    HW114926   3.486   4.847   5.344  0.5375 -1.2653 -0.4229
 4702SOL    HW214927   3.571   4.973   5.405 -1.1141 -0.8773  1.1666
 4703SOL     OW14928   5.427   6.510   6.413  0.2388  0.4698  0.4629
 4703SOL    HW114929   5.418   6.432   6.475  0.6164  0.8361  0.9772
 4703SOL    HW214930   5.338   6.554   6.403  0.1895  0.4477  0.7892
 4704SOL     OW14931   4.906   5.919   0.653 -0.3735 -0.0996 -0.2458
 4704SOL    HW114932   4.826   5.963   0.612 -0.3757 -1.2694 -1.5892
 4704SOL    HW214933   4.958   5.873   0.581 -0.5553 -2.5689  1.1145
 4705SOL     OW14934   1.056   3.309   5.405 -0.5677 -0.5137 -0.2638
 4705SOL    HW114935   0.964   3.280   5.378 -0.1849 -0.1013 -2.1773
 4705SOL    HW214936   1.082   3.388   5.350 -0.2145  1.2954  2.3605
 4706SOL     OW14937   5.005   3.506   1.411 -0.0804 -0.4108  0.2069
 4706SOL    HW114938   5.080   3.465   1.360 -0.4610 -1.3395  0.3686
 4706SOL    HW214939   5.004   3.605   1.397  0.8021 -0.4680 -0.2715
 4707SOL     OW14940   1.825   4.740   5.602 -0.1344  0.4544 -0.0418
 4707SOL    HW114941   1.886   4.784   5.537 -0.3054  0.9772  0.1517
 4707SOL    HW214942   1.863   4.747   5.695 -0.4176  0.6617  0.0603
 4708SOL     OW14943   2.495   1.350   5.472  0.7000  0.3046 -0.0435
 4708SOL    HW114944   2.500   1.278   5.542  2.8351  0.4162 -0.0426
 4708SOL    HW214945   2.575   1.346   5.413 -0.7962  0.5633 -2.2033
 4709SOL     OW14946   1.843   6.516   5.315  0.5414  0.1130  0.5969
 4709SOL    HW114947   1.809   6.580   5.247 -0.9181 -0.0234  1.1630
 4709SOL    HW214948   1.766   6.474   5.363  1.4786 -1.4577  0.8032
 4710SOL     OW14949   6.953   0.264   3.865 -0.6820  0.5122 -0.7951
 4710SOL    HW114950   6.934   0.327   3.940 -1.2071  1.9751 -2.1136
 4710SOL    HW214951   6.986   0.315   3.786 -0.7389 -0.9241 -1.7766
 4711SOL     OW14952   2.150   3.546   1.593  0.0558  0.7039 -0.2644
 4711SOL    HW114953   2.149   3.646   1.595  0.5263  0.7203  1.9142
 4711SOL    HW214954   2.131   3.511   1.685  2.1495 -1.1828 -0.4817
 4712SOL     OW14955   2.543   0.794   3.722  0.5285  0.1924  0.7639
 4712SOL    HW114956   2.490   0.871   3.686  0.8052 -0.9834 -2.4296
 4712SOL    HW214957   2.481   0.724   3.756  0.2482  1.0216  2.0592
 4713SOL     OW14958   3.397   3.034   0.103  0.0702  0.0928  0.1713
 4713SOL    HW114959   3.392   2.942   0.141  1.0907 -0.0608 -0.0228
 4713SOL    HW214960   3.333   3.044   0.027  0.7368 -0.8278 -0.5342
 4714SOL     OW14961   6.603   2.110   5.548 -0.1442  0.6114  0.1665
 4714SOL    HW114962   6.531   2.047   5.578 -1.4859  2.3566  0.8019
 4714SOL    HW214963   6.676   2.112   5.616 -0.2917  0.0486  0.3450
 4715SOL     OW14964   4.643   4.008   2.556 -0.1657  0.2107 -0.0480
 4715SOL    HW114965   4.543   3.997   2.553 -0.0171 -2.8241  1.8935
 4715SOL    HW214966   4.683   3.962   2.477 -0.2506  2.9221 -1.8111
 4716SOL     OW14967   1.937   4.437   5.017  0.6777 -0.3869  0.0433
 4716SOL    HW114968   1.926   4.370   4.943  2.4085  0.4664 -1.0605
 4716SOL    HW214969   1.926   4.530   4.979  1.3111  0.0526  0.9014
 4717SOL     OW14970   2.096   5.917   4.834  0.4200  0.0659  0.0989
 4717SOL    HW114971   2.075   5.908   4.931 -0.5649 -1.0860 -0.1895
 4717SOL    HW214972   2.186   5.959   4.822  1.7876 -2.2401  1.5686
 4718SOL     OW14973   1.473   2.992   0.879 -0.2170  0.7542 -0.3619
 4718SOL    HW114974   1.439   2.899   0.895 -1.0562  1.0838 -0.1798
 4718SOL    HW214975   1.571   2.995   0.898 -0.2607 -0.0027  0.0195
 4719SOL     OW14976   6.748   0.476   2.766  0.4933 -0.2049  0.1091
 4719SOL    HW114977   6.707   0.407   2.706 -2.1812  0.9793  0.4253
 4719SOL    HW214978   6.840   0.498   2.734  0.4372 -2.0574 -1.4936
 4720SOL     OW14979   4.429   0.397   3.247  0.0853  0.0510 -0.0300
 4720SOL    HW114980   4.374   0.352   3.317  0.5890  0.9165  0.9532
 4720SOL    HW214981   4.509   0.440   3.290  0.4509  0.5390 -1.1520
 4721SOL     OW14982   5.137   2.081   6.357 -0.6183  0.3342  0.2688
 4721SOL    HW114983   5.167   2.015   6.426 -1.6486  0.5820  0.9683
 4721SOL    HW214984   5.174   2.171   6.379 -0.8849  0.3982  0.4534
 4722SOL     OW14985   6.470   5.014   2.097  0.0200  0.0059 -0.2813
 4722SOL    HW114986   6.373   5.015   2.075 -0.5594  0.3219  2.0408
 4722SOL    HW214987   6.506   4.921   2.086 -1.0029 -0.5078  0.5283
 4723SOL     OW14988   0.410   3.465   2.827 -0.3459 -0.8210 -0.2147
 4723SOL    HW114989   0.405   3.460   2.728 -0.8832  1.5977 -0.3559
 4723SOL    HW214990   0.494   3.512   2.855  0.0391 -1.8888  0.5280
 4724SOL     OW14991   3.509   4.427   1.765  0.3568  0.0264 -0.8254
 4724SOL    HW114992   3.508   4.339   1.811  0.5163 -0.4977 -1.8144
 4724SOL    HW214993   3.595   4.439   1.715  0.3858  0.7883 -0.6181
 4725SOL     OW14994   1.931   6.992   5.852 -0.1025  0.4936 -0.3344
 4725SOL    HW114995   1.832   6.988   5.865 -0.6391  1.2342 -3.2971
 4725SOL    HW214996   1.970   7.068   5.903 -1.2024  0.7666  0.1102
 4726SOL     OW14997   1.088   4.626   2.498  0.1310 -0.2843  0.1049
 4726SOL    HW114998   1.149   4.705   2.498  1.1206 -1.0045 -1.1567
 4726SOL    HW214999   1.090   4.582   2.588  1.4676 -0.2532  0.1152
 4727SOL     OW15000   6.797   0.263   2.559 -0.2307 -0.3167 -0.4785
 4727SOL    HW115001   6.890   0.288   2.532 -0.2388 -0.5688 -0.7513
 4727SOL    HW215002   6.763   0.192   2.498 -0.9602  0.4471 -0.9771
 4728SOL     OW15003   3.867   0.022   0.303  0.0603  0.3529 -0.1655
 4728SOL    HW115004   3.925   0.006   0.383 -0.3122 -0.7541 -0.1082
 4728SOL    HW215005   3.875   0.118   0.275  0.1341  0.7769  1.2382
 4729SOL     OW15006   3.922   4.541   2.974 -0.1548 -0.2556  0.3162
 4729SOL    HW115007   4.019   4.520   2.963 -0.3932 -1.6641  0.7201
 4729SOL    HW215008   3.867   4.462   2.947 -1.1804  0.4085  0.3908
 4730SOL     OW15009   0.252   3.969   2.786 -0.0699  0.4346 -0.2223
 4730SOL    HW115010   0.307   3.896   2.746  0.4749  0.5731  0.2508
 4730SOL    HW215011   0.268   4.054   2.736 -0.1145  0.3983 -0.2978
 4731SOL     OW15012   3.436   6.592   0.264 -0.0328 -0.0588 -0.0567
 4731SOL    HW115013   3.361   6.550   0.212  0.5204  0.3703 -1.2555
 4731SOL    HW215014   3.429   6.565   0.360 -1.2058 -0.7382 -0.3029
 4732SOL     OW15015   5.974   5.984   1.728 -0.2075 -0.5976  0.7797
 4732SOL    HW115016   5.923   5.922   1.788 -0.1886 -2.9073 -1.4001
 4732SOL    HW215017   5.940   5.974   1.635  1.2347  1.1927  0.0151
 4733SOL     OW15018   3.903   4.602   6.178 -0.3455  0.0102  0.6679
 4733SOL    HW115019   3.878   4.533   6.110 -0.8522  0.1846  0.6724
 4733SOL    HW215020   3.859   4.689   6.155 -1.1705 -0.1322  1.6551
 4734SOL     OW15021   2.413   1.330   2.824  0.3813 -0.1570 -0.0311
 4734SOL    HW115022   2.432   1.345   2.727 -0.4623  0.9621 -0.0402
 4734SOL    HW215023   2.314   1.323   2.837  0.5481 -2.5558  0.4547
 4735SOL     OW15024   0.054   1.267   0.650 -0.5059  0.5609  0.3067
 4735SOL    HW115025   0.025   1.348   0.599 -0.2658 -0.5450 -1.6789
 4735SOL    HW215026   0.002   1.187   0.619 -0.5904 -0.1128  2.0764
 4736SOL     OW15027   5.350   1.486   0.457  0.8029  0.1356  0.4038
 4736SOL    HW115028   5.312   1.481   0.550 -1.0261 -0.9815 -0.3588
 4736SOL    HW215029   5.315   1.410   0.403  0.9377  1.4088 -1.5462
 4737SOL     OW15030   3.116   0.183   6.875 -0.0663 -0.2845 -0.0048
 4737SOL    HW115031   3.028   0.226   6.891 -0.1188 -0.6938  0.8572
 4737SOL    HW215032   3.108   0.084   6.888  0.0998 -0.5632 -1.7420
 4738SOL     OW15033   0.797   4.144   5.394 -0.5229 -0.3085  0.0649
 4738SOL    HW115034   0.776   4.168   5.299  1.7410  0.0269 -0.4111
 4738SOL    HW215035   0.887   4.101   5.398  0.0315  0.9188  2.2305
 4739SOL     OW15036   2.370   0.620   3.823 -0.1714 -0.3880 -0.0661
 4739SOL    HW115037   2.413   0.618   3.914 -0.5098  1.6035  0.1853
 4739SOL    HW215038   2.272   0.638   3.833 -0.4029 -1.1869 -0.7964
 4740SOL     OW15039   1.578   3.573   5.693  0.2981  0.3252 -0.5293
 4740SOL    HW115040   1.676   3.588   5.702  0.4612 -1.4151  1.5154
 4740SOL    HW215041   1.561   3.494   5.634  0.1647  0.3482 -0.5218
 4741SOL     OW15042   0.662   0.941   0.726 -0.0654  0.4993  0.2147
 4741SOL    HW115043   0.672   0.859   0.782  0.0274  0.2736 -0.1313
 4741SOL    HW215044   0.725   0.936   0.648 -0.2152  0.7971  0.0728
 4742SOL     OW15045   1.640   2.583   6.540  0.1900 -0.0314  0.6784
 4742SOL    HW115046   1.648   2.676   6.504 -0.4573 -0.3396 -0.2890
 4742SOL    HW215047   1.722   2.531   6.515  2.1689  1.1565  4.0556
 4743SOL     OW15048   3.648   1.891   0.429 -0.0700  0.1107 -0.1579
 4743SOL    HW115049   3.714   1.900   0.354  0.3253  1.2158  0.2975
 4743SOL    HW215050   3.587   1.814   0.411  1.0958 -0.7060 -0.7860
 4744SOL     OW15051   0.386   1.548   3.053 -0.4145 -0.2196  0.2797
 4744SOL    HW115052   0.372   1.450   3.034 -2.9610  0.0271  0.5342
 4744SOL    HW215053   0.364   1.601   2.972 -0.9679  0.2365  0.7171
 4745SOL     OW15054   4.700   4.223   5.376 -0.3984  0.0190 -0.2580
 4745SOL    HW115055   4.787   4.208   5.330 -0.3723  0.1813 -0.2608
 4745SOL    HW215056   4.631   4.163   5.337 -0.9584  1.7645 -2.1117
 4746SOL     OW15057   6.724   0.309   5.746 -0.1710 -0.9965  0.5462
 4746SOL    HW115058   6.804   0.268   5.702 -0.4855 -2.2130  1.0497
 4746SOL    HW215059   6.649   0.241   5.749 -0.7060 -0.3895  1.4306
 4747SOL     OW15060   4.770   3.167   3.837  0.2463  0.1377 -0.5925
 4747SOL    HW115061   4.696   3.100   3.824 -1.2575  1.2990  1.3695
 4747SOL    HW215062   4.824   3.142   3.917  1.3610 -0.1283 -1.4056
 4748SOL     OW15063   2.959   5.136   2.145 -0.3690 -0.1416 -0.0011
 4748SOL    HW115064   3.055   5.157   2.128 -0.8788  0.1208 -3.2565
 4748SOL    HW215065   2.947   5.037   2.153 -0.0105 -0.3003 -1.2810
 4749SOL     OW15066   1.086   1.542   5.721  0.0088 -0.0234 -0.3981
 4749SOL    HW115067   1.058   1.627   5.766 -0.6483 -0.2976 -0.2724
 4749SOL    HW215068   1.056   1.464   5.776  0.6718 -0.3395 -0.4752
 4750SOL     OW15069   4.060   5.873   4.549  0.1588  0.4167  0.0847
 4750SOL    HW115070   3.962   5.891   4.556 -0.9096 -3.7055 -1.2400
 4750SOL    HW215071   4.089   5.880   4.454  0.1536 -1.9105 -0.1618
 4751SOL     OW15072   6.103   0.092   5.821  0.3508  0.7739  0.3155
 4751SOL    HW115073   6.160   0.036   5.881  0.1788  0.5620  0.2856
 4751SOL    HW215074   6.131   0.187   5.827  1.4758  0.5198 -0.5704
 4752SOL     OW15075   6.689   6.131   4.545 -0.0615  0.4675  0.0628
 4752SOL    HW115076   6.615   6.194   4.522 -1.1748 -1.1013 -0.8292
 4752SOL    HW215077   6.655   6.060   4.608  0.9719  0.3443  0.5056
 4753SOL     OW15078   4.441   6.242   4.336 -0.2210 -0.1118 -0.0818
 4753SOL    HW115079   4.416   6.334   4.308 -0.2418  0.0422  0.4370
 4753SOL    HW215080   4.539   6.238   4.356 -0.1250 -0.3256 -0.5722
 4754SOL     OW15081   6.319   6.149   0.745 -0.1723 -0.0189 -0.6408
 4754SOL    HW115082   6.240   6.202   0.715  1.0306  1.1434 -1.9010
 4754SOL    HW215083   6.383   6.139   0.668  1.2792 -0.2108  0.5525
 4755SOL     OW15084   5.580   1.248   1.348 -0.1073 -0.4558 -0.0795
 4755SOL    HW115085   5.590   1.263   1.446 -1.4922 -1.5731  0.2594
 4755SOL    HW215086   5.577   1.150   1.329 -0.4694 -0.2483 -1.1687
 4756SOL     OW15087   0.788   1.424   5.584  0.1159 -0.0083 -0.0868
 4756SOL    HW115088   0.858   1.436   5.514  0.1218 -1.7822 -0.4481
 4756SOL    HW215089   0.728   1.504   5.586  0.0416  0.0484 -2.2109
 4757SOL     OW15090   0.964   4.410   3.527 -0.1042  0.1886  0.2975
 4757SOL    HW115091   0.868   4.436   3.538 -0.3872 -0.7702  0.2462
 4757SOL    HW215092   1.010   4.475   3.467 -1.4688 -0.8931 -2.0912
 4758SOL     OW15093   0.502   3.813   4.294  0.3176  0.3692 -0.3037
 4758SOL    HW115094   0.574   3.829   4.362  0.4964  0.2246 -0.4567
 4758SOL    HW215095   0.421   3.867   4.317 -0.1285 -0.7174  0.7974
 4759SOL     OW15096   6.172   4.369   1.631  0.5021  0.4047 -0.1765
 4759SOL    HW115097   6.180   4.464   1.599 -1.7830  1.6142  2.4414
 4759SOL    HW215098   6.087   4.358   1.682  1.0383 -2.9349  0.2027
 4760SOL     OW15099   0.329   4.169   2.599 -0.2469 -0.4784  0.0108
 4760SOL    HW115100   0.312   4.193   2.504 -0.5410 -2.0073 -0.3388
 4760SOL    HW215101   0.428   4.168   2.616 -0.2128  1.4116  0.1919
 4761SOL     OW15102   2.373   1.628   1.497 -0.6435 -0.2096  0.7907
 4761SOL    HW115103   2.466   1.632   1.462 -0.9234 -1.6884 -0.2069
 4761SOL    HW215104   2.328   1.716   1.482  0.3450  0.2832  0.6267
 4762SOL     OW15105   4.222   2.788   2.739 -0.3397 -0.0150 -0.3767
 4762SOL    HW115106   4.138   2.788   2.793  0.4682 -0.7181  0.9180
 4762SOL    HW215107   4.267   2.699   2.749  1.3369  0.8730  0.2021
 4763SOL     OW15108   0.541   5.142   6.183 -0.0109  0.1715  0.2644
 4763SOL    HW115109   0.445   5.123   6.203  0.2972 -0.3010  1.3184
 4763SOL    HW215110   0.552   5.240   6.164 -0.3099  0.7342  2.6595
 4764SOL     OW15111   2.748   0.185   6.343 -0.1524 -0.3270 -0.3122
 4764SOL    HW115112   2.765   0.244   6.264  0.1891 -0.3689 -0.2716
 4764SOL    HW215113   2.802   0.101   6.334  0.6511  0.1004  0.4520
 4765SOL     OW15114   2.137   4.635   6.169 -0.7694  0.1835 -0.2447
 4765SOL    HW115115   2.166   4.653   6.263 -0.2684  2.2397 -0.7542
 4765SOL    HW215116   2.192   4.560   6.131 -1.9624 -1.6774  1.5261
 4766SOL     OW15117   5.021   6.040   1.040 -0.5394  0.0780 -0.0868
 4766SOL    HW115118   5.026   6.002   1.132 -1.5801  0.7280  0.2429
 4766SOL    HW215119   5.021   5.965   0.974 -0.4456 -0.4152  0.4620
 4767SOL     OW15120   6.634   5.335   1.032 -0.1414 -0.0065  0.0848
 4767SOL    HW115121   6.725   5.305   1.062 -0.3704 -0.4132  0.3776
 4767SOL    HW215122   6.569   5.260   1.042 -0.8885  0.7845  1.5284
 4768SOL     OW15123   0.454   3.462   6.733 -0.4120  0.0894  0.3400
 4768SOL    HW115124   0.532   3.524   6.740 -0.5521  0.4442 -0.9751
 4768SOL    HW215125   0.372   3.515   6.709 -0.6347 -0.5257 -0.2960
 4769SOL     OW15126   3.965   3.805   4.809 -0.4397  0.2317  0.5380
 4769SOL    HW115127   4.006   3.723   4.770  0.8060  0.8451  0.4999
 4769SOL    HW215128   3.875   3.783   4.848  0.0063 -1.2042  0.8075
 4770SOL     OW15129   3.777   4.457   1.683 -0.1749 -0.4048 -0.2044
 4770SOL    HW115130   3.819   4.547   1.676 -0.4702 -0.0593  1.7761
 4770SOL    HW215131   3.832   4.390   1.633  0.4015  0.7458 -1.1471
 4771SOL     OW15132   2.623   5.612   4.271 -0.6843  0.2883  0.4282
 4771SOL    HW115133   2.614   5.606   4.171  0.5454 -1.4050  0.3835
 4771SOL    HW215134   2.531   5.613   4.312 -1.2242 -0.9075 -0.6568
 4772SOL     OW15135   6.769   2.800   1.816  0.3196 -0.3771 -0.4456
 4772SOL    HW115136   6.859   2.829   1.784 -0.7749  1.9332 -1.6535
 4772SOL    HW215137   6.707   2.791   1.738 -0.8793 -0.5325  0.4865
 4773SOL     OW15138   1.242   3.916   4.977  0.7906  0.1459  0.4090
 4773SOL    HW115139   1.287   4.000   4.947 -1.3273  0.8180 -1.0780
 4773SOL    HW215140   1.297   3.837   4.949  1.0305  0.9264 -1.4506
 4774SOL     OW15141   2.334   5.097   4.513 -0.2010  0.2764  0.3147
 4774SOL    HW115142   2.350   5.003   4.543 -2.2751 -0.8779 -1.8529
 4774SOL    HW215143   2.359   5.105   4.416  1.5421  2.4704  0.8656
 4775SOL     OW15144   0.155   0.435   1.768  0.0387 -0.2238  0.2089
 4775SOL    HW115145   0.183   0.450   1.863 -0.4096 -1.1192  0.4969
 4775SOL    HW215146   0.235   0.440   1.708  0.6156 -1.3999  0.8539
 4776SOL     OW15147   3.039   1.583   5.844  0.2973 -0.1384  0.4062
 4776SOL    HW115148   3.137   1.606   5.843  0.2452  0.0792 -0.1723
 4776SOL    HW215149   3.018   1.530   5.926  0.6563  0.8623  1.1548
 4777SOL     OW15150   0.366   2.389   2.493  0.1266  0.7866 -0.2545
 4777SOL    HW115151   0.362   2.412   2.590  0.5567  0.1697 -0.0831
 4777SOL    HW215152   0.287   2.333   2.469  0.7099 -0.1942  0.0593
 4778SOL     OW15153   4.129   3.935   6.970  0.7163  0.2519  0.1963
 4778SOL    HW115154   4.164   4.005   6.908  1.0800 -1.8400 -2.0927
 4778SOL    HW215155   4.205   3.896   7.022  0.9832 -0.3851 -0.6439
 4779SOL     OW15156   5.597   5.823   3.656  0.2078  0.2993  0.3572
 4779SOL    HW115157   5.586   5.771   3.572  0.1064 -0.0968  0.6100
 4779SOL    HW215158   5.680   5.879   3.651  0.8450 -0.6095  0.4451
 4780SOL     OW15159   2.600   1.696   6.615 -0.4015  0.1597 -0.1305
 4780SOL    HW115160   2.592   1.766   6.543 -1.3063  1.5765  1.2680
 4780SOL    HW215161   2.509   1.678   6.653  0.2315  0.5712  1.6601
 4781SOL     OW15162   2.942   0.306   3.888 -0.0525 -0.0934  0.1759
 4781SOL    HW115163   3.006   0.243   3.843  0.0817  0.3634 -0.2843
 4781SOL    HW215164   2.987   0.395   3.900 -0.2935 -0.0374  0.6805
 4782SOL     OW15165   5.693   0.348   6.307 -0.2456 -0.0555  0.2149
 4782SOL    HW115166   5.748   0.404   6.244 -2.5962  1.1048 -0.9169
 4782SOL    HW215167   5.695   0.388   6.398  1.5049 -0.5799  0.4452
 4783SOL     OW15168   5.289   4.246   6.631  0.2159  0.1716 -0.3069
 4783SOL    HW115169   5.264   4.186   6.555  0.7186  1.2358 -1.3401
 4783SOL    HW215170   5.388   4.259   6.632  0.1498  0.6783  0.1275
 4784SOL     OW15171   3.654   1.393   3.537  0.5258  0.2019 -0.5325
 4784SOL    HW115172   3.595   1.404   3.618 -0.4291 -4.0961 -0.3490
 4784SOL    HW215173   3.597   1.383   3.456  1.3234  1.3311 -1.2477
 4785SOL     OW15174   3.536   0.878   5.789  0.1493 -0.3967  0.5888
 4785SOL    HW115175   3.606   0.882   5.860  1.2545 -0.6623 -0.4614
 4785SOL    HW215176   3.541   0.961   5.732  0.2179 -0.8337 -0.0501
 4786SOL     OW15177   4.554   2.310   3.623 -0.4199  0.1353 -0.3458
 4786SOL    HW115178   4.650   2.302   3.653 -0.1570  1.9903 -0.6049
 4786SOL    HW215179   4.495   2.308   3.703 -0.2962 -2.0709 -0.2382
 4787SOL     OW15180   1.649   1.386   2.587 -0.4668 -0.0171 -0.1629
 4787SOL    HW115181   1.597   1.427   2.512 -1.2262  0.6052  0.6745
 4787SOL    HW215182   1.602   1.403   2.674  1.6848  1.5846  0.7938
 4788SOL     OW15183   6.324   2.926   5.337 -0.1777 -0.1168  0.1340
 4788SOL    HW115184   6.235   2.884   5.323 -1.0990  1.9729 -0.6761
 4788SOL    HW215185   6.378   2.919   5.253  0.5829 -1.6597  0.7217
 4789SOL     OW15186   3.632   4.519   0.444 -0.3405  0.5691 -0.7806
 4789SOL    HW115187   3.541   4.515   0.403 -0.4445  0.7589 -0.5668
 4789SOL    HW215188   3.656   4.429   0.481 -0.4903  0.5522 -0.7259
 4790SOL     OW15189   0.945   5.235   1.460 -0.0490  0.6076 -0.4781
 4790SOL    HW115190   0.950   5.234   1.560 -2.5262  0.0743 -0.3051
 4790SOL    HW215191   0.982   5.321   1.426  1.5156  0.4950  0.8104
 4791SOL     OW15192   5.929   1.743   0.347  0.2389 -0.1386 -0.1527
 4791SOL    HW115193   5.880   1.680   0.287 -1.5899  0.8722  0.2062
 4791SOL    HW215194   5.871   1.823   0.367  1.3719  0.2975  1.6956
 4792SOL     OW15195   0.460   3.275   5.626  0.0995  1.1092  0.0516
 4792SOL    HW115196   0.487   3.268   5.722  1.2278  1.6552 -0.1997
 4792SOL    HW215197   0.419   3.365   5.609  0.3339  1.1999 -0.0573
 4793SOL     OW15198   2.147   0.142   2.600 -0.1465 -0.2207 -0.0499
 4793SOL    HW115199   2.160   0.119   2.504  0.1631  0.0188 -0.0674
 4793SOL    HW215200   2.076   0.212   2.609  0.6237  0.5910 -0.2038
 4794SOL     OW15201   5.496   4.750   3.327 -0.1508 -0.0789 -0.6647
 4794SOL    HW115202   5.433   4.682   3.289  0.5032 -0.0910 -1.7686
 4794SOL    HW215203   5.590   4.724   3.306  0.0919  1.5323 -1.7656
 4795SOL     OW15204   6.968   5.942   0.759  0.1361 -0.5260 -0.0373
 4795SOL    HW115205   7.041   5.879   0.787  0.0342 -1.3754 -1.5513
 4795SOL    HW215206   6.896   5.890   0.713 -1.4433  0.3046  1.4121
 4796SOL     OW15207   6.532   6.762   6.951  0.0494 -0.2823  0.7514
 4796SOL    HW115208   6.442   6.742   6.913 -0.0965  0.0544  0.9223
 4796SOL    HW215209   6.599   6.698   6.912 -0.0169  0.3279 -0.4171
 4797SOL     OW15210   3.644   5.593   3.202 -0.7175  0.7045 -1.1313
 4797SOL    HW115211   3.703   5.620   3.278 -1.3740 -0.9625  0.0467
 4797SOL    HW215212   3.624   5.672   3.145 -2.4131  2.7539  1.9742
 4798SOL     OW15213   1.202   6.711   0.209  0.0922 -0.0149  0.0770
 4798SOL    HW115214   1.156   6.671   0.288 -0.7417 -0.7348 -0.7502
 4798SOL    HW215215   1.298   6.681   0.207 -0.3208 -1.3555 -0.0933
 4799SOL     OW15216   6.388   4.130   5.071 -0.0415 -0.0332 -0.2529
 4799SOL    HW115217   6.372   4.131   5.169 -0.6584  1.5391 -0.3345
 4799SOL    HW215218   6.482   4.100   5.052 -0.1106 -0.9300  0.7631
 4800SOL     OW15219   3.826   1.323   6.314 -0.3068  0.3579 -0.0740
 4800SOL    HW115220   3.761   1.268   6.261 -0.1135 -1.4543  1.4580
 4800SOL    HW215221   3.778   1.401   6.354 -0.7195  1.0431 -1.7866
 4801SOL     OW15222   0.496   3.796   4.683  0.8319  0.2011  0.2628
 4801SOL    HW115223   0.414   3.824   4.633  1.5697  0.4332 -0.8575
 4801SOL    HW215224   0.493   3.832   4.776 -0.8978 -0.8053  0.6434
 4802SOL     OW15225   6.313   6.323   2.218 -0.1803  0.0039 -0.8356
 4802SOL    HW115226   6.321   6.336   2.119  1.6155  0.1514 -0.7116
 4802SOL    HW215227   6.299   6.226   2.237  0.7212 -0.2202 -1.2145
 4803SOL     OW15228   1.194   3.603   1.963 -0.2887  0.4729  0.2466
 4803SOL    HW115229   1.207   3.692   2.006  0.0521  0.0266  1.1011
 4803SOL    HW215230   1.143   3.614   1.877 -0.2136  1.4832  0.3224
 4804SOL     OW15231   1.894   3.500   6.040 -0.2037 -0.2477  0.1406
 4804SOL    HW115232   1.986   3.481   6.073  0.4549 -1.1295 -2.0134
 4804SOL    HW215233   1.877   3.598   6.044 -0.0537 -0.2610  2.6113
 4805SOL     OW15234   2.541   0.292   5.149  0.5499 -0.1556 -0.3951
 4805SOL    HW115235   2.442   0.278   5.141  0.4440  1.4748 -3.6244
 4805SOL    HW215236   2.588   0.209   5.119  0.0800  0.2974 -2.5196
 4806SOL     OW15237   4.965   4.941   4.395  0.5274  0.1663 -0.2487
 4806SOL    HW115238   5.047   4.884   4.400 -0.3731 -1.1375  0.1843
 4806SOL    HW215239   4.988   5.035   4.420  1.6939 -0.3784  0.8154
 4807SOL     OW15240   0.524   2.873   3.523 -0.6026 -0.2271 -0.5491
 4807SOL    HW115241   0.604   2.821   3.493 -1.0028 -0.3171 -1.5062
 4807SOL    HW215242   0.544   2.918   3.609 -0.2371 -1.9584  0.3184
 4808SOL     OW15243   2.408   3.189   5.272  0.0030  0.4356  0.2917
 4808SOL    HW115244   2.494   3.139   5.284 -1.0922 -1.3630  0.9880
 4808SOL    HW215245   2.331   3.126   5.283 -1.4298  2.1054  0.1979
 4809SOL     OW15246   4.613   4.259   5.898  0.1241  0.1069  0.2609
 4809SOL    HW115247   4.554   4.193   5.852  0.8907 -0.3632 -0.0628
 4809SOL    HW215248   4.626   4.339   5.839 -0.7946  0.5568  0.6487
 4810SOL     OW15249   1.767   3.077   2.709 -0.1141 -0.7893 -0.2127
 4810SOL    HW115250   1.725   3.024   2.783 -0.4017  0.5943  0.6466
 4810SOL    HW215251   1.841   3.133   2.746 -1.1709  0.9811 -0.6891
 4811SOL     OW15252   6.617   2.188   5.897  0.0135 -0.1744 -0.6238
 4811SOL    HW115253   6.701   2.155   5.853 -0.2172 -0.3788 -0.9135
 4811SOL    HW215254   6.632   2.194   5.996 -0.5031 -3.1088 -0.2525
 4812SOL     OW15255   1.745   4.778   1.265  0.1327  0.1983 -0.1144
 4812SOL    HW115256   1.691   4.834   1.329  0.1679 -0.5006  0.5395
 4812SOL    HW215257   1.695   4.767   1.180 -0.7111 -0.3242  0.4343
 4813SOL     OW15258   5.724   3.878   2.399 -0.0246 -0.2935 -0.3658
 4813SOL    HW115259   5.636   3.831   2.395  0.0618 -0.4153 -1.0088
 4813SOL    HW215260   5.792   3.825   2.348  0.3739 -0.1091 -0.0239
 4814SOL     OW15261   6.160   0.913   1.316  0.9250  0.4904  1.0542
 4814SOL    HW115262   6.207   0.930   1.402  0.7614  0.0242  1.2371
 4814SOL    HW215263   6.099   0.834   1.326  0.0205  1.1477  0.8510
 4815SOL     OW15264   3.460   0.939   4.245  0.1389 -0.3315 -0.4309
 4815SOL    HW115265   3.533   0.957   4.179  0.7562 -4.0800 -1.0028
 4815SOL    HW215266   3.372   0.935   4.196  0.3064 -0.9957 -0.6925
 4816SOL     OW15267   5.684   1.838   4.511  0.1311 -0.4565 -0.1781
 4816SOL    HW115268   5.712   1.920   4.461  1.3640 -0.2611  0.7773
 4816SOL    HW215269   5.764   1.781   4.530 -0.0773 -0.0254  2.3784
 4817SOL     OW15270   4.331   6.262   4.005 -0.4197  0.3159  0.2454
 4817SOL    HW115271   4.247   6.222   3.969 -0.0745  0.2697 -0.5237
 4817SOL    HW215272   4.310   6.312   4.090 -1.3454  0.9287 -0.3267
 4818SOL     OW15273   3.114   6.641   1.338 -0.3463  0.0459 -0.5724
 4818SOL    HW115274   3.124   6.623   1.436 -0.6523  1.2098 -0.3094
 4818SOL    HW215275   3.161   6.569   1.286 -0.4019 -0.7260  0.4149
 4819SOL     OW15276   1.653   4.250   4.954  0.1921  0.0936  0.6270
 4819SOL    HW115277   1.675   4.319   4.885 -0.0671 -0.6073 -0.1774
 4819SOL    HW215278   1.618   4.295   5.037 -2.4938  0.8547 -0.8019
 4820SOL     OW15279   1.586   5.810   0.773  0.3083  0.2963  0.6291
 4820SOL    HW115280   1.619   5.725   0.814 -1.8900 -0.7169  0.4382
 4820SOL    HW215281   1.609   5.811   0.676 -1.2470 -1.0274  0.1949
 4821SOL     OW15282   6.368   5.086   0.574 -0.3766 -0.0250 -0.7718
 4821SOL    HW115283   6.463   5.057   0.574 -0.6404 -0.9385 -0.4108
 4821SOL    HW215284   6.362   5.183   0.551  0.6429  0.0746 -0.6413
 4822SOL     OW15285   5.145   5.204   3.470 -0.0971  0.7600 -0.1298
 4822SOL    HW115286   5.148   5.161   3.560  0.3616  1.5739  0.2546
 4822SOL    HW215287   5.091   5.288   3.475 -0.2871  0.6770 -0.6820
 4823SOL     OW15288   6.616   3.273   4.521 -0.7419 -0.3763  0.4762
 4823SOL    HW115289   6.601   3.282   4.423  1.9106  0.5569  0.0603
 4823SOL    HW215290   6.670   3.191   4.539 -1.6217 -0.8058  1.2350
 4824SOL     OW15291   2.192   4.800   5.459 -0.1596  0.3102 -0.2065
 4824SOL    HW115292   2.132   4.770   5.385  0.5683 -0.5943 -0.4517
 4824SOL    HW215293   2.149   4.780   5.547 -1.5899  2.5150 -0.3134
 4825SOL     OW15294   1.444   2.132   1.491  0.7081  0.1320  0.0677
 4825SOL    HW115295   1.454   2.046   1.540  0.0178 -1.0420 -1.7431
 4825SOL    HW215296   1.369   2.184   1.531 -0.4670 -1.2270 -0.2861
 4826SOL     OW15297   1.768   2.429   0.593  0.0403  0.4479  0.4468
 4826SOL    HW115298   1.684   2.386   0.627 -0.3992  0.2662 -0.7879
 4826SOL    HW215299   1.745   2.507   0.535  0.6407 -0.3007 -0.8601
 4827SOL     OW15300   6.129   5.819   6.230  0.2753 -0.2609  0.0146
 4827SOL    HW115301   6.039   5.796   6.267  0.1040  1.0469  0.4737
 4827SOL    HW215302   6.118   5.873   6.146  0.6484 -0.7275 -0.3431
 4828SOL     OW15303   5.384   1.659   1.624 -0.2973 -0.4618  0.0625
 4828SOL    HW115304   5.352   1.565   1.637 -3.9095  0.8744  2.4117
 4828SOL    HW215305   5.460   1.677   1.686 -0.3301 -1.5235  0.4323
 4829SOL     OW15306   1.839   5.438   5.169  0.2312 -0.5116  0.3192
 4829SOL    HW115307   1.828   5.471   5.075  0.8814 -1.4031 -0.0942
 4829SOL    HW215308   1.868   5.513   5.228  1.6405 -0.3022 -0.5849
 4830SOL     OW15309   5.162   6.441   4.666 -0.3947  0.1774 -0.2509
 4830SOL    HW115310   5.182   6.455   4.763  1.2034  1.9425 -0.7801
 4830SOL    HW215311   5.066   6.417   4.655 -0.5161 -0.4607  1.7817
 4831SOL     OW15312   5.591   4.887   0.204 -0.2642  0.0131  0.3074
 4831SOL    HW115313   5.538   4.870   0.287 -0.3232 -0.0872  0.2497
 4831SOL    HW215314   5.546   4.842   0.126 -1.1428  1.5203 -0.0872
 4832SOL     OW15315   5.860   0.360   1.440  1.4285  0.8132 -0.0020
 4832SOL    HW115316   5.858   0.360   1.340  0.0697  0.1748  0.0015
 4832SOL    HW215317   5.877   0.453   1.473  1.7711  1.0505 -0.8123
 4833SOL     OW15318   1.288   2.958   0.610 -0.7400  0.6393  1.3135
 4833SOL    HW115319   1.363   2.935   0.673  0.9653 -1.8666 -1.3603
 4833SOL    HW215320   1.212   2.895   0.625 -0.3636  0.0887  0.9306
 4834SOL     OW15321   3.948   0.454   6.929 -0.5765 -0.3906  0.7611
 4834SOL    HW115322   3.902   0.536   6.895  3.9826  1.9208 -0.6706
 4834SOL    HW215323   3.978   0.470   7.023  2.1546  0.6215 -0.2036
 4835SOL     OW15324   5.181   2.638   4.957  1.1850  0.1676  0.8467
 4835SOL    HW115325   5.204   2.710   5.023  1.3118  2.1028 -1.1810
 4835SOL    HW215326   5.212   2.665   4.866 -2.6446 -0.3466 -0.8210
 4836SOL     OW15327   6.346   0.187   1.953  0.1620 -0.1031 -0.1460
 4836SOL    HW115328   6.438   0.202   1.987  0.2366 -1.4641  0.2741
 4836SOL    HW215329   6.290   0.268   1.972  0.7702  0.0137  1.2585
 4837SOL     OW15330   6.990   3.736   5.620  0.1281  0.0918 -0.7229
 4837SOL    HW115331   6.921   3.673   5.583 -0.1347  0.0989 -0.2460
 4837SOL    HW215332   6.989   3.821   5.568 -0.7923  0.4067 -0.1970
 4838SOL     OW15333   4.820   2.253   0.895 -0.3927 -0.1585  0.7375
 4838SOL    HW115334   4.721   2.269   0.899 -0.2427  1.2385 -0.1696
 4838SOL    HW215335   4.837   2.156   0.877 -1.6392 -0.2388 -0.2084
 4839SOL     OW15336   1.882   5.013   4.090  0.3119  0.4255 -0.2213
 4839SOL    HW115337   1.877   4.995   3.992  0.0150 -0.5873 -0.0260
 4839SOL    HW215338   1.790   5.016   4.128  0.4905 -1.1789  0.3752
 4840SOL     OW15339   5.801   6.943   4.975 -0.0142  0.1363  0.0777
 4840SOL    HW115340   5.868   7.016   4.984  0.4557 -0.4657  1.7656
 4840SOL    HW215341   5.839   6.869   4.918 -0.1985  0.8326 -0.9806
 4841SOL     OW15342   1.614   6.043   3.774 -0.1168  0.1912  0.2618
 4841SOL    HW115343   1.631   5.961   3.719  0.4508  0.8293 -0.5360
 4841SOL    HW215344   1.660   6.121   3.732 -1.3401  1.0919  0.5399
 4842SOL     OW15345   5.912   5.454   6.123  0.2573  0.1625  0.0864
 4842SOL    HW115346   5.908   5.554   6.123  1.3661  0.2190  0.8480
 4842SOL    HW215347   5.936   5.422   6.031 -2.6990  0.4249 -0.8898
 4843SOL     OW15348   5.038   1.918   0.287  0.3472  0.2097  0.2047
 4843SOL    HW115349   4.965   1.849   0.278 -0.2428  0.8796 -0.2763
 4843SOL    HW215350   5.121   1.874   0.321 -0.1730 -0.6413  0.4227
 4844SOL     OW15351   3.635   3.965   4.278  0.4292  0.0277  0.0893
 4844SOL    HW115352   3.691   4.020   4.340 -1.3142  0.3159  1.5133
 4844SOL    HW215353   3.544   4.006   4.270  0.6968  0.2639 -3.1099
 4845SOL     OW15354   1.274   6.999   6.625  0.3007  0.3143  0.1323
 4845SOL    HW115355   1.371   6.974   6.615  0.1536 -0.7507  1.1035
 4845SOL    HW215356   1.254   7.016   6.722 -0.4539  0.6873 -0.0804
 4846SOL     OW15357   3.786   4.255   3.328  0.1481 -0.3119 -0.0310
 4846SOL    HW115358   3.823   4.316   3.398 -0.8627 -1.1694  1.3012
 4846SOL    HW215359   3.836   4.168   3.330 -1.3574 -1.2062  1.2796
 4847SOL     OW15360   1.728   6.382   2.463 -0.1091  0.5482 -0.4438
 4847SOL    HW115361   1.750   6.426   2.550  1.0197  0.6360 -0.7550
 4847SOL    HW215362   1.765   6.289   2.462  2.0703  1.3449 -1.7081
 4848SOL     OW15363   5.613   2.128   2.613  0.4875  0.2497  0.2942
 4848SOL    HW115364   5.525   2.095   2.649  0.6494  0.4921  0.9223
 4848SOL    HW215365   5.624   2.097   2.519 -0.1581 -0.0018  0.2974
 4849SOL     OW15366   6.034   4.275   3.062 -0.0242  0.3824  0.0435
 4849SOL    HW115367   5.973   4.211   3.016  0.2330  0.9635 -1.1369
 4849SOL    HW215368   6.128   4.241   3.058  0.1329  0.8795 -0.7089
 4850SOL     OW15369   5.740   1.753   1.562 -0.1087  0.5785 -0.0055
 4850SOL    HW115370   5.675   1.739   1.637 -1.9239  2.2842 -1.1535
 4850SOL    HW215371   5.833   1.756   1.599 -0.9798  2.2153  2.3318
 4851SOL     OW15372   5.863   5.666   0.921  0.0676  0.2030 -0.1040
 4851SOL    HW115373   5.914   5.581   0.910  0.1752  0.4167 -1.5749
 4851SOL    HW215374   5.824   5.692   0.832 -1.5052  0.7290  0.7033
 4852SOL     OW15375   1.738   6.286   3.219  0.0488  0.0318  0.2556
 4852SOL    HW115376   1.751   6.356   3.149  1.0026  0.1069  0.4931
 4852SOL    HW215377   1.815   6.222   3.217 -0.7183 -0.9123  0.1609
 4853SOL     OW15378   4.580   6.745   6.101 -0.2030 -0.0156 -0.5943
 4853SOL    HW115379   4.599   6.767   6.196 -0.2736  0.1463 -0.6172
 4853SOL    HW215380   4.572   6.830   6.048 -0.7325 -0.0875 -0.6322
 4854SOL     OW15381   4.033   4.147   6.652 -0.1620  0.6345  0.6467
 4854SOL    HW115382   3.985   4.070   6.609  0.1770  1.1413 -0.6805
 4854SOL    HW215383   4.125   4.118   6.678 -0.7200  0.0312  2.0049
 4855SOL     OW15384   5.826   4.788   0.362  0.0885 -0.1255 -0.1258
 4855SOL    HW115385   5.759   4.773   0.435  2.0534 -2.9672  1.2767
 4855SOL    HW215386   5.799   4.869   0.309 -2.1419  1.3559  2.9042
 4856SOL     OW15387   1.090   2.589   1.018  0.1285  0.7207  0.2456
 4856SOL    HW115388   1.184   2.569   0.993  0.4788 -1.2153  2.6774
 4856SOL    HW215389   1.083   2.593   1.118 -2.7856 -1.8002  0.2684
 4857SOL     OW15390   6.473   0.547   0.472  0.0396 -0.3423  0.1406
 4857SOL    HW115391   6.556   0.601   0.456  0.8446 -1.5477  0.0952
 4857SOL    HW215392   6.410   0.599   0.529 -1.1732  2.4750 -3.4184
 4858SOL     OW15393   6.868   5.257   4.189  0.3162  0.2030 -0.4103
 4858SOL    HW115394   6.847   5.329   4.256  2.6985  0.4406  0.1446
 4858SOL    HW215395   6.901   5.175   4.237  1.5073  0.1764 -1.2392
 4859SOL     OW15396   4.446   4.408   0.199  0.7397  0.3122  0.0206
 4859SOL    HW115397   4.389   4.385   0.278  1.3704 -1.9423 -0.1094
 4859SOL    HW215398   4.394   4.466   0.136 -1.0287 -0.7319  0.4386
 4860SOL     OW15399   4.432   4.693   1.070 -0.3847 -0.5372  0.4902
 4860SOL    HW115400   4.379   4.616   1.107  0.0515 -1.8047 -1.3602
 4860SOL    HW215401   4.448   4.678   0.972  0.9154  1.2524  0.3813
 4861SOL     OW15402   0.771   6.941   6.793  0.1823  0.7782  0.2535
 4861SOL    HW115403   0.823   6.899   6.719 -0.6777  0.5191 -0.2188
 4861SOL    HW215404   0.832   6.997   6.850  1.2500 -0.6882  0.6002
 4862SOL     OW15405   0.816   2.543   3.619  0.3319  0.4933 -0.2060
 4862SOL    HW115406   0.758   2.525   3.699 -0.1290  0.7257 -0.4816
 4862SOL    HW215407   0.850   2.457   3.582  0.6306  0.3899  0.2993
 4863SOL     OW15408   6.457   1.758   0.045  0.5883  0.0327  0.5295
 4863SOL    HW115409   6.373   1.718   0.080  0.2796 -0.0027 -0.2457
 4863SOL    HW215410   6.536   1.711   0.086  0.2614  0.6571  1.9433
 4864SOL     OW15411   0.534   6.495   1.644  0.0635 -0.2218 -0.1902
 4864SOL    HW115412   0.465   6.541   1.588 -0.3990  0.6298  1.0383
 4864SOL    HW215413   0.624   6.505   1.601  0.0782  2.3699  0.2642
 4865SOL     OW15414   5.803   1.171   4.563  0.2806 -0.1322  0.2527
 4865SOL    HW115415   5.722   1.113   4.565 -0.8282  1.3816  1.1420
 4865SOL    HW215416   5.811   1.220   4.650  2.0743 -0.1224  0.1261
 4866SOL     OW15417   3.033   1.051   0.792 -0.8142  0.0474 -0.1417
 4866SOL    HW115418   3.016   1.047   0.693 -1.3977 -1.8221  0.0035
 4866SOL    HW215419   3.131   1.056   0.808 -0.4263 -3.0885 -0.8393
 4867SOL     OW15420   5.008   6.572   1.725 -0.5316 -0.0095  0.0866
 4867SOL    HW115421   4.908   6.574   1.727 -0.6773 -2.3557 -1.1817
 4867SOL    HW215422   5.039   6.592   1.632  0.0439 -1.2742 -0.0163
 4868SOL     OW15423   1.455   1.745   0.888 -0.4201 -0.2620 -0.6023
 4868SOL    HW115424   1.389   1.684   0.844  2.1500 -1.3977 -3.2311
 4868SOL    HW215425   1.477   1.820   0.825  0.0951  0.6628  0.6382
 4869SOL     OW15426   1.434   1.626   3.949 -0.4079 -0.2017 -0.0832
 4869SOL    HW115427   1.340   1.640   3.917 -0.5971  1.4701  1.0374
 4869SOL    HW215428   1.445   1.533   3.982 -1.8199 -0.2811  0.2256
 4870SOL     OW15429   4.074   5.223   6.438  0.4528 -0.0399  0.3513
 4870SOL    HW115430   4.059   5.295   6.505 -0.0895 -0.4167  0.6369
 4870SOL    HW215431   4.166   5.185   6.451  0.5071  0.1740  0.6013
 4871SOL     OW15432   0.981   6.432   6.704  0.4592  0.5023  0.2202
 4871SOL    HW115433   1.002   6.440   6.607 -0.0279  0.6374  0.1245
 4871SOL    HW215434   0.882   6.437   6.718  0.4196 -0.7663  0.5928
 4872SOL     OW15435   4.368   3.482   2.816  0.2661  0.2041  0.5505
 4872SOL    HW115436   4.352   3.405   2.755  0.9073 -0.8733  1.6972
 4872SOL    HW215437   4.285   3.536   2.824 -0.7343 -1.3677  1.0982
 4873SOL     OW15438   2.295   1.020   6.863  0.0309  0.2872 -0.8124
 4873SOL    HW115439   2.281   1.099   6.804 -2.7715 -1.9776 -3.5154
 4873SOL    HW215440   2.353   0.953   6.817  0.1238 -0.3581  0.2146
 4874SOL     OW15441   3.958   3.585   1.005 -0.0277  0.0503  0.7476
 4874SOL    HW115442   3.889   3.542   1.063  0.4716  1.5421  2.5296
 4874SOL    HW215443   3.928   3.677   0.980  0.4758  0.0024 -0.0665
 4875SOL     OW15444   4.315   6.031   2.290 -0.4340 -0.8978 -0.7025
 4875SOL    HW115445   4.240   6.064   2.347 -0.7197 -0.6910 -1.1955
 4875SOL    HW215446   4.393   6.093   2.299 -1.0798  0.1181 -1.8770
 4876SOL     OW15447   2.822   0.654   5.943 -0.3688 -0.2672 -0.5290
 4876SOL    HW115448   2.864   0.732   5.896  1.5401 -1.2720 -0.6160
 4876SOL    HW215449   2.806   0.677   6.039  1.5547 -0.1702 -0.1820
 4877SOL     OW15450   1.018   1.240   1.502  0.0299 -0.3887  0.7571
 4877SOL    HW115451   1.044   1.310   1.436 -0.8643  0.7806  1.6189
 4877SOL    HW215452   1.101   1.197   1.540  0.5536 -0.7489 -0.7387
 4878SOL     OW15453   5.082   4.657   4.647  0.1819 -0.3910  0.1517
 4878SOL    HW115454   4.983   4.675   4.649  0.0742 -0.7394 -1.1228
 4878SOL    HW215455   5.124   4.714   4.577  1.1971  1.0727  1.8617
 4879SOL     OW15456   6.348   6.487   4.340 -0.2836  0.3075 -0.3125
 4879SOL    HW115457   6.415   6.546   4.385 -1.6763  1.7638 -0.0505
 4879SOL    HW215458   6.341   6.512   4.243  1.8174 -1.9992 -1.1410
 4880SOL     OW15459   6.534   5.925   5.875 -0.5952  0.1450  0.5131
 4880SOL    HW115460   6.539   6.022   5.850  0.1813 -0.0888 -0.3258
 4880SOL    HW215461   6.617   5.900   5.925 -1.1041  0.0708  1.3168
 4881SOL     OW15462   6.844   3.050   1.570  0.2845  0.0191  0.8333
 4881SOL    HW115463   6.825   3.073   1.666 -1.9700  0.4767  0.3394
 4881SOL    HW215464   6.943   3.041   1.557  0.9010  2.8547  2.5811
 4882SOL     OW15465   6.155   3.240   6.482  0.1630 -0.1175 -0.6074
 4882SOL    HW115466   6.244   3.282   6.502 -0.3533  1.0015 -0.5703
 4882SOL    HW215467   6.168   3.166   6.417  1.2653 -0.7350  0.2703
 4883SOL     OW15468   2.487   1.919   5.146  0.4909 -0.2029  0.6609
 4883SOL    HW115469   2.402   1.953   5.107  0.1082 -0.4890  1.2340
 4883SOL    HW215470   2.510   1.973   5.227  1.0837  0.1497  0.2660
 4884SOL     OW15471   4.782   4.901   5.611 -0.2203 -0.4107  0.1002
 4884SOL    HW115472   4.802   4.827   5.675 -0.1879 -0.6844 -0.2230
 4884SOL    HW215473   4.815   4.876   5.520 -1.8531 -0.8161 -0.4248
 4885SOL     OW15474   0.528   3.744   2.272  0.3789  0.1114  0.6440
 4885SOL    HW115475   0.460   3.674   2.251  1.1085 -0.2523 -0.5659
 4885SOL    HW215476   0.601   3.705   2.328  0.7028 -0.0723  0.1042
 4886SOL     OW15477   6.745   2.936   4.061  0.1618  0.3417 -0.5665
 4886SOL    HW115478   6.676   2.895   4.002 -0.0290 -0.0007 -0.1087
 4886SOL    HW215479   6.808   2.865   4.093  0.9228  0.6936 -1.2276
 4887SOL     OW15480   1.862   0.522   4.482 -0.2912 -0.0054  0.0240
 4887SOL    HW115481   1.825   0.432   4.507  0.8155 -1.1383 -2.1370
 4887SOL    HW215482   1.958   0.512   4.455  0.2409  2.0800  0.9708
 4888SOL     OW15483   0.468   5.054   0.699 -0.6691  0.3978 -0.2395
 4888SOL    HW115484   0.456   5.064   0.600 -0.9755  0.0545 -0.2413
 4888SOL    HW215485   0.506   5.138   0.737 -0.2988  0.4405 -0.6872
 4889SOL     OW15486   0.938   6.775   1.979 -0.4092 -0.6706 -0.1631
 4889SOL    HW115487   0.864   6.826   1.934 -1.8455 -0.0151  2.7046
 4889SOL    HW215488   0.917   6.766   2.077 -0.1057 -6.5372 -0.3338
 4890SOL     OW15489   4.405   0.179   1.314  0.1354  0.5452 -0.1013
 4890SOL    HW115490   4.503   0.179   1.336  0.1049 -0.1667  0.0705
 4890SOL    HW215491   4.374   0.085   1.301 -0.6858  0.7133  0.5508
 4891SOL     OW15492   3.833   1.038   6.707 -0.1497 -0.2530 -0.1868
 4891SOL    HW115493   3.774   1.095   6.764  0.5915  1.0764 -0.7030
 4891SOL    HW215494   3.778   0.990   6.639 -0.6998  0.5050 -0.2844
 4892SOL     OW15495   0.648   2.402   5.113 -0.0129 -0.6197 -0.2226
 4892SOL    HW115496   0.670   2.455   5.195  1.0420 -1.1106 -0.1690
 4892SOL    HW215497   0.588   2.326   5.138 -0.1044 -0.4742  0.0063
 4893SOL     OW15498   3.322   0.824   3.099 -0.0404 -0.1462  0.4454
 4893SOL    HW115499   3.285   0.834   3.006 -0.9852  2.9325  1.0545
 4893SOL    HW215500   3.393   0.891   3.114  0.6815 -1.1537  1.7325
 4894SOL     OW15501   5.295   5.300   0.952 -0.1908  0.2384 -0.3481
 4894SOL    HW115502   5.280   5.292   0.853 -1.8170  0.1478 -0.1316
 4894SOL    HW215503   5.209   5.283   1.000 -0.4937  4.2176  0.8863
 4895SOL     OW15504   0.532   3.086   1.219  0.0076  0.5864 -0.3344
 4895SOL    HW115505   0.480   3.027   1.281  0.4144  0.1736 -0.3747
 4895SOL    HW215506   0.579   3.029   1.151  2.0648  0.7357  0.8559
 4896SOL     OW15507   6.457   2.861   1.773  0.7270  0.0576 -0.3842
 4896SOL    HW115508   6.464   2.829   1.868  2.3539 -0.5074 -0.6678
 4896SOL    HW215509   6.406   2.947   1.771  2.2687  1.0999  1.2710
 4897SOL     OW15510   3.472   5.108   4.130  0.4084  0.3864 -0.1109
 4897SOL    HW115511   3.540   5.162   4.180  2.0803 -0.8145 -0.9756
 4897SOL    HW215512   3.514   5.073   4.046  0.3893 -4.5135  1.6311
 4898SOL     OW15513   1.602   5.552   3.970  0.1300  0.6120  0.4282
 4898SOL    HW115514   1.649   5.575   3.884  1.0867  0.2509  0.8453
 4898SOL    HW215515   1.531   5.621   3.988 -1.2265 -0.2084 -1.4855
 4899SOL     OW15516   3.749   4.112   5.252 -0.4166 -0.5825 -0.0218
 4899SOL    HW115517   3.736   4.023   5.209 -1.1882 -0.2847 -0.4307
 4899SOL    HW215518   3.733   4.104   5.351 -2.2624 -0.5767 -0.2796
 4900SOL     OW15519   2.878   2.758   6.649  0.2182  0.1488  0.0838
 4900SOL    HW115520   2.857   2.774   6.746  2.3896  1.1920  0.4609
 4900SOL    HW215521   2.963   2.806   6.626 -0.4372  0.2270 -2.4587
 4901SOL     OW15522   4.478   4.706   5.834 -0.6819 -0.2101 -0.5684
 4901SOL    HW115523   4.541   4.713   5.911 -0.5227  0.4035 -0.7462
 4901SOL    HW215524   4.492   4.784   5.772 -0.7484 -0.7342 -1.2610
 4902SOL     OW15525   1.283   4.037   2.523  0.1231  0.2865 -0.0933
 4902SOL    HW115526   1.261   4.074   2.433 -1.6370  0.4450  0.3691
 4902SOL    HW215527   1.201   4.036   2.580  0.8198 -1.4176  0.9538
 4903SOL     OW15528   2.207   5.755   5.720 -0.1078  0.0172 -0.0152
 4903SOL    HW115529   2.147   5.678   5.743 -0.4905  0.7027  1.3597
 4903SOL    HW215530   2.220   5.813   5.801  1.1914  0.7190 -0.6895
 4904SOL     OW15531   6.205   5.783   4.516 -0.5360  0.2981 -1.2191
 4904SOL    HW115532   6.187   5.838   4.434  0.8547  1.1131 -1.0052
 4904SOL    HW215533   6.119   5.747   4.551 -1.0658 -1.1476 -3.7483
 4905SOL     OW15534   1.312   6.382   2.570 -0.4364 -0.5371 -0.0187
 4905SOL    HW115535   1.365   6.466   2.583  1.9341 -1.8269 -0.6510
 4905SOL    HW215536   1.215   6.403   2.573  0.0532  2.3638 -0.9346
 4906SOL     OW15537   0.138   6.383   6.375 -0.1450 -0.0402  0.5904
 4906SOL    HW115538   0.208   6.352   6.439 -1.5589 -0.2264  2.1299
 4906SOL    HW215539   0.048   6.363   6.413 -1.1760  3.9515  0.7619
 4907SOL     OW15540   3.772   3.421   1.105 -0.6987 -0.3415  0.0838
 4907SOL    HW115541   3.769   3.388   1.199 -1.3491  0.0709  0.2118
 4907SOL    HW215542   3.687   3.396   1.058  0.1564 -1.7071 -0.7982
 4908SOL     OW15543   6.280   6.109   4.338 -0.0749  0.3721 -0.1720
 4908SOL    HW115544   6.301   6.029   4.281  1.0185  0.5741 -0.0743
 4908SOL    HW215545   6.242   6.079   4.425 -0.5582  0.0067 -0.5029
 4909SOL     OW15546   3.084   2.444   0.517 -0.5058  0.7005  0.2838
 4909SOL    HW115547   3.179   2.420   0.540 -0.3223  1.8465  0.8184
 4909SOL    HW215548   3.062   2.407   0.426  0.1093 -0.4388  0.5739
 4910SOL     OW15549   1.678   0.305   0.521  0.5260 -0.5384 -0.0421
 4910SOL    HW115550   1.598   0.252   0.550 -0.5910  1.4463  0.6918
 4910SOL    HW215551   1.679   0.312   0.421  1.2755 -2.7281 -0.2366
 4911SOL     OW15552   0.429   6.247   5.396  0.4137 -0.4596  0.4434
 4911SOL    HW115553   0.343   6.197   5.410 -0.0094 -0.1287 -0.8624
 4911SOL    HW215554   0.505   6.196   5.437 -0.3793 -0.7865  1.5626
 4912SOL     OW15555   3.568   1.762   5.808  0.0846  0.1517 -0.1652
 4912SOL    HW115556   3.633   1.698   5.768 -0.3956 -0.3190 -0.2030
 4912SOL    HW215557   3.477   1.745   5.770  0.3567  2.5411 -2.1701
 4913SOL     OW15558   0.161   3.950   0.284  0.2370  0.2501 -0.1549
 4913SOL    HW115559   0.246   3.899   0.301 -0.1633 -0.8199 -1.1991
 4913SOL    HW215560   0.091   3.887   0.250 -1.7924  0.5905  2.9675
 4914SOL     OW15561   5.118   0.446   5.053  0.9607 -0.2239  0.6739
 4914SOL    HW115562   5.161   0.447   5.143  0.4436 -0.5254  0.9329
 4914SOL    HW215563   5.021   0.424   5.064  0.8308  0.0527  0.0704
 4915SOL     OW15564   0.362   3.500   2.562 -0.5629 -0.5990  0.3630
 4915SOL    HW115565   0.408   3.417   2.529  0.5768  0.1181  0.0914
 4915SOL    HW215566   0.300   3.535   2.492  1.0325  0.3076 -0.6617
 4916SOL     OW15567   2.209   4.445   2.433  0.3565  0.0601 -0.3618
 4916SOL    HW115568   2.245   4.536   2.451 -1.7043  1.1870 -1.6194
 4916SOL    HW215569   2.229   4.385   2.511  2.2819  1.3694  0.2236
 4917SOL     OW15570   0.611   4.432   6.018  0.5381  0.1153 -0.2536
 4917SOL    HW115571   0.609   4.497   6.094 -1.8438 -1.2650  1.0032
 4917SOL    HW215572   0.517   4.408   5.993  1.2955 -0.3245 -2.9289
 4918SOL     OW15573   0.754   0.350   6.346  0.2570  0.4051  0.6556
 4918SOL    HW115574   0.745   0.437   6.394 -0.8583 -0.7490  2.6869
 4918SOL    HW215575   0.663   0.316   6.321  0.6483 -0.3286  0.1609
 4919SOL     OW15576   6.570   0.149   4.991  0.2563 -0.0658 -0.3310
 4919SOL    HW115577   6.597   0.126   5.085 -2.1851 -0.2154  0.3994
 4919SOL    HW215578   6.552   0.247   4.985 -0.7481 -0.2362 -0.2927
 4920SOL     OW15579   2.794   3.560   5.848 -0.8785  0.1972 -0.2119
 4920SOL    HW115580   2.837   3.645   5.818  0.2091 -0.3393 -0.2391
 4920SOL    HW215581   2.750   3.515   5.771  0.4072 -0.3158 -0.6772
 4921SOL     OW15582   3.780   5.782   2.493 -0.7970 -0.1944  0.1512
 4921SOL    HW115583   3.732   5.695   2.479  0.9683 -1.6595  2.5962
 4921SOL    HW215584   3.832   5.779   2.578  1.7782  2.1640 -1.1697
 4922SOL     OW15585   0.000   2.804   0.125 -0.4203 -0.3006  0.0435
 4922SOL    HW115586   0.051   2.776   0.206  0.2212  0.1148 -0.2111
 4922SOL    HW215587   0.010   2.902   0.111  0.6914 -0.5771 -1.3634
 4923SOL     OW15588   4.231   6.323   0.488 -0.1666  0.2810  0.0409
 4923SOL    HW115589   4.240   6.415   0.450  2.4425  0.1840  0.2982
 4923SOL    HW215590   4.138   6.289   0.470 -0.6312  2.2426 -1.6203
 4924SOL     OW15591   0.013   0.293   6.786  0.1062 -0.3142  0.2087
 4924SOL    HW115592   0.015   0.214   6.847  0.4848  1.3199  2.4383
 4924SOL    HW215593  -0.051   0.361   6.822  0.5007  0.7960 -1.1108
 4925SOL     OW15594   2.397   2.018   1.950  0.4666  0.5698  0.0570
 4925SOL    HW115595   2.454   2.043   2.028  1.7038 -0.1207 -0.5915
 4925SOL    HW215596   2.432   1.933   1.909 -1.7142 -0.5381  0.3265
 4926SOL     OW15597   2.110   5.092   5.565  0.1034 -0.5571 -0.3568
 4926SOL    HW115598   2.199   5.136   5.573 -1.0086  1.5108  2.3919
 4926SOL    HW215599   2.106   5.014   5.627 -0.2927 -0.0453  0.2714
 4927SOL     OW15600   5.393   2.328   2.579  0.5135  0.3725  0.0418
 4927SOL    HW115601   5.385   2.240   2.533 -1.4064  0.2879  0.4554
 4927SOL    HW215602   5.428   2.315   2.672 -0.5498 -0.0572  0.3862
 4928SOL     OW15603   1.940   3.526   4.469 -0.3303  0.4019  0.1886
 4928SOL    HW115604   1.980   3.616   4.484  0.2073  0.1494  0.2637
 4928SOL    HW215605   1.958   3.467   4.547 -0.2786  0.0809 -0.0647
 4929SOL     OW15606   4.294   5.348   5.445 -0.0053 -0.6856 -0.4906
 4929SOL    HW115607   4.208   5.334   5.395  0.5663  1.5920 -2.2853
 4929SOL    HW215608   4.291   5.296   5.530 -2.7215 -1.4976 -0.9589
 4930SOL     OW15609   2.757   1.766   0.235 -0.1482  1.0868 -0.2810
 4930SOL    HW115610   2.660   1.742   0.237  0.4613 -1.9105 -1.5089
 4930SOL    HW215611   2.805   1.718   0.309  0.7240  0.8162 -1.0082
 4931SOL     OW15612   0.444   2.695   5.244  0.0454 -0.1088 -0.2773
 4931SOL    HW115613   0.411   2.720   5.334  2.2735 -0.1591  0.6219
 4931SOL    HW215614   0.367   2.669   5.186 -1.7533  2.6558  0.6803
 4932SOL     OW15615   6.392   3.496   5.565  0.0166  0.4746 -0.4157
 4932SOL    HW115616   6.384   3.401   5.596  3.7323  0.8267  2.4251
 4932SOL    HW215617   6.454   3.500   5.487 -1.5321  0.5098 -1.6984
 4933SOL     OW15618   5.041   2.066   6.685 -0.2091  0.8244 -0.0478
 4933SOL    HW115619   4.978   1.994   6.658  0.2645 -0.6526  2.4098
 4933SOL    HW215620   5.015   2.152   6.642 -1.6867 -0.4814 -1.9135
 4934SOL     OW15621   5.409   5.034   4.712 -0.1145 -0.2243 -0.0756
 4934SOL    HW115622   5.508   5.027   4.697  0.2062 -0.4063  1.8438
 4934SOL    HW215623   5.391   5.070   4.804 -1.8022 -2.1738  0.4497
 4935SOL     OW15624   6.122   0.239   4.657  0.0292 -0.3033 -0.0726
 4935SOL    HW115625   6.141   0.181   4.736 -2.6834  0.5856  1.3733
 4935SOL    HW215626   6.076   0.185   4.586  0.5582 -0.6404 -0.1622
 4936SOL     OW15627   3.099   3.777   0.185  0.7417 -0.3120  0.2096
 4936SOL    HW115628   3.090   3.875   0.168  0.2384 -0.2379  0.8523
 4936SOL    HW215629   3.138   3.732   0.105 -0.2306  0.2186 -0.5788
 4937SOL     OW15630   0.792   6.941   0.327 -0.1024 -1.0133  0.3184
 4937SOL    HW115631   0.755   6.924   0.236 -3.8889  1.1976  1.2548
 4937SOL    HW215632   0.752   6.877   0.393 -1.2325  0.4758  1.1348
 4938SOL     OW15633   0.509   4.902   2.424 -0.3077  0.0898  0.2090
 4938SOL    HW115634   0.504   4.805   2.447  3.0096 -0.4490 -0.7897
 4938SOL    HW215635   0.577   4.947   2.482 -0.9827  1.5831 -0.0957
 4939SOL     OW15636   4.529   2.001   0.678  0.2490  0.3834 -0.6115
 4939SOL    HW115637   4.435   1.972   0.698  0.8243 -1.0647  0.1980
 4939SOL    HW215638   4.580   1.924   0.641  1.7403  0.4124  1.2138
 4940SOL     OW15639   3.970   5.851   0.100  0.2331  0.2223 -0.8301
 4940SOL    HW115640   4.069   5.846   0.083  0.0464 -1.2112 -1.6864
 4940SOL    HW215641   3.922   5.799   0.029 -1.1511  0.9565 -0.4622
 4941SOL     OW15642   4.709   1.694   5.278 -0.1093 -0.2567  0.1353
 4941SOL    HW115643   4.720   1.715   5.181 -0.1886  1.1815  0.4222
 4941SOL    HW215644   4.643   1.618   5.288 -1.6424  0.8758 -0.8487
 4942SOL     OW15645   6.281   6.763   3.287  0.3972  0.2021  0.3097
 4942SOL    HW115646   6.285   6.763   3.187  1.2957 -0.9289  0.3196
 4942SOL    HW215647   6.256   6.672   3.320  0.4610  0.4635  1.1223
 4943SOL     OW15648   3.954   0.130   5.828  0.2919 -0.9535  0.3733
 4943SOL    HW115649   3.970   0.044   5.876  0.2107 -1.0388  0.2514
 4943SOL    HW215650   3.943   0.204   5.894  2.5506 -0.6197  0.4563
 4944SOL     OW15651   6.991   0.122   5.879 -0.3043  0.5778  0.3294
 4944SOL    HW115652   7.068   0.157   5.933 -0.5634 -0.3311  1.3307
 4944SOL    HW215653   6.906   0.157   5.917 -0.4626  0.4212  0.1197
 4945SOL     OW15654   1.673   3.671   1.726  0.8680  0.3195 -0.0170
 4945SOL    HW115655   1.651   3.672   1.628 -0.2785  1.5672  0.2301
 4945SOL    HW215656   1.761   3.717   1.740  1.5091 -0.7014 -0.5388
 4946SOL     OW15657   5.593   4.258   6.597  0.5614  1.0019 -0.0742
 4946SOL    HW115658   5.692   4.263   6.588  0.6042 -1.5296 -2.1953
 4946SOL    HW215659   5.569   4.202   6.677  0.7162  2.9856  1.4473
 4947SOL     OW15660   5.921   0.524   2.636  0.6666 -0.2894  0.1219
 4947SOL    HW115661   5.968   0.482   2.559  0.2541 -1.4032  0.4623
 4947SOL    HW215662   5.896   0.454   2.703 -0.2099  0.4688  0.6197
 4948SOL     OW15663   6.120   0.044   5.313  0.1231  1.0392 -0.0352
 4948SOL    HW115664   6.022   0.048   5.334  0.2908  1.0426  0.8002
 4948SOL    HW215665   6.138   0.090   5.227 -0.7942 -0.1290 -0.8840
 4949SOL     OW15666   0.179   6.539   0.404  0.0540 -0.3171 -0.5753
 4949SOL    HW115667   0.174   6.624   0.457  0.3908 -0.6291 -0.0216
 4949SOL    HW215668   0.197   6.560   0.308  0.6294  0.2199 -0.3596
 4950SOL     OW15669   4.117   4.715   5.391  0.1370 -0.1788 -0.7093
 4950SOL    HW115670   4.192   4.738   5.453  0.7281 -1.2881 -0.9776
 4950SOL    HW215671   4.148   4.722   5.297 -0.5797  0.9040 -0.8788
 4951SOL     OW15672   1.956   5.613   5.333  0.2670  0.1548  0.5922
 4951SOL    HW115673   2.046   5.595   5.373  0.4320 -1.8400 -0.5842
 4951SOL    HW215674   1.943   5.712   5.324  2.8709  0.4784 -0.3609
 4952SOL     OW15675   6.764   0.443   5.979 -0.2518 -0.2405  0.0244
 4952SOL    HW115676   6.737   0.395   5.895 -0.6390 -0.1387  0.0887
 4952SOL    HW215677   6.707   0.524   5.991 -0.4770 -0.4791  0.6004
 4953SOL     OW15678   5.773   1.542   2.199  0.1308 -0.0182  0.5169
 4953SOL    HW115679   5.870   1.556   2.215 -0.2033  0.3856  2.4354
 4953SOL    HW215680   5.736   1.481   2.270 -0.6893 -1.6444 -1.1973
 4954SOL     OW15681   6.900   5.423   0.673 -0.2238 -0.2127 -0.5975
 4954SOL    HW115682   6.969   5.423   0.746 -0.3702 -0.7713 -0.4576
 4954SOL    HW215683   6.928   5.361   0.600  0.7327  1.5475 -1.8156
 4955SOL     OW15684   6.100   4.684   3.148  0.1654 -0.3032 -0.2288
 4955SOL    HW115685   6.033   4.610   3.155  0.4214 -0.5641 -0.4985
 4955SOL    HW215686   6.078   4.755   3.214 -2.3605  1.1996 -2.4603
 4956SOL     OW15687   4.431   4.389   0.802 -0.4552 -0.3482  0.0236
 4956SOL    HW115688   4.440   4.292   0.825  0.7890 -0.6309 -1.4615
 4956SOL    HW215689   4.477   4.406   0.715  0.4653  1.8422  0.8794
 4957SOL     OW15690   0.423   3.862   0.334  0.2403 -0.4224 -0.2567
 4957SOL    HW115691   0.472   3.932   0.282 -1.1057  0.5931 -0.1974
 4957SOL    HW215692   0.459   3.772   0.309  3.4828  0.3114  1.2145
 4958SOL     OW15693   5.852   2.240   1.842  0.3653 -0.3139 -0.3027
 4958SOL    HW115694   5.793   2.169   1.805 -0.0567 -0.4566  0.6295
 4958SOL    HW215695   5.890   2.294   1.767 -2.3064  0.8985 -0.8967
 4959SOL     OW15696   3.617   2.723   0.601 -0.6253 -0.1909 -0.3210
 4959SOL    HW115697   3.670   2.665   0.538 -2.0360 -2.0534  0.1159
 4959SOL    HW215698   3.520   2.719   0.576 -0.7846  2.0676 -0.2734
 4960SOL     OW15699   1.428   3.948   6.961 -0.0316 -1.0085  0.6486
 4960SOL    HW115700   1.360   3.931   7.033 -0.1042 -1.9934  0.3649
 4960SOL    HW215701   1.390   3.923   6.872  1.0891 -2.7755  0.6081
 4961SOL     OW15702   0.070   2.231   5.367 -0.6741 -0.2233 -0.8133
 4961SOL    HW115703   0.074   2.135   5.393  0.2020  0.2095  0.7902
 4961SOL    HW215704   0.163   2.268   5.360 -1.0161  0.7185 -0.5417
 4962SOL     OW15705   1.022   2.995   2.870  0.2879 -0.1965  0.3859
 4962SOL    HW115706   1.083   3.055   2.921 -0.3271 -0.0249  0.9268
 4962SOL    HW215707   0.986   2.924   2.931 -0.3846 -0.0437  0.1708
 4963SOL     OW15708   1.571   4.503   1.964  0.0631  0.1523 -0.0972
 4963SOL    HW115709   1.657   4.507   2.016  0.8520  0.6184 -1.3908
 4963SOL    HW215710   1.552   4.409   1.939  0.3979  0.0819 -0.1002
 4964SOL     OW15711   4.233   5.539   0.050 -0.5926  0.1431  0.0369
 4964SOL    HW115712   4.194   5.452   0.020  1.2395 -0.3294 -1.1418
 4964SOL    HW215713   4.224   5.607  -0.023 -1.2926  0.7185  0.6452
 4965SOL     OW15714   1.478   5.391   2.116  0.1433  0.2072 -0.1192
 4965SOL    HW115715   1.409   5.463   2.130 -0.4911 -0.5531  0.8155
 4965SOL    HW215716   1.557   5.410   2.174 -0.8322 -0.8279  1.6553
 4966SOL     OW15717   5.911   6.994   0.435  0.3593 -0.8286  0.1822
 4966SOL    HW115718   5.862   6.909   0.456  0.4760 -0.6714  1.1240
 4966SOL    HW215719   6.010   6.977   0.437  0.4838 -0.1558  2.8802
 4967SOL     OW15720   0.567   5.355   3.084 -0.0943 -0.1876  0.4678
 4967SOL    HW115721   0.622   5.329   3.004  1.5802 -1.4936  1.9619
 4967SOL    HW215722   0.626   5.393   3.154 -1.4288  0.2741  1.3793
 4968SOL     OW15723   2.796   0.765   3.617 -0.0361  0.0770 -0.2507
 4968SOL    HW115724   2.853   0.700   3.667 -0.8812  0.7951  1.7679
 4968SOL    HW215725   2.705   0.767   3.658 -0.8020  0.6930 -1.8933
 4969SOL     OW15726   6.870   5.536   0.145 -0.7537 -0.2893  0.2571
 4969SOL    HW115727   6.959   5.582   0.148 -0.9947  0.1800  0.2689
 4969SOL    HW215728   6.798   5.604   0.137 -1.0674 -0.7107 -0.6059
 4970SOL     OW15729   3.437   1.160   3.640  0.2793  0.2212 -0.3482
 4970SOL    HW115730   3.391   1.077   3.609  0.7549  0.2881 -1.2650
 4970SOL    HW215731   3.376   1.212   3.700 -0.6044  0.0035 -1.0428
 4971SOL     OW15732   4.113   4.796   5.855 -0.3909  0.1619 -0.2830
 4971SOL    HW115733   4.065   4.842   5.929  2.9247 -2.0417  3.6192
 4971SOL    HW215734   4.070   4.707   5.837 -0.9956  0.5530 -0.8057
 4972SOL     OW15735   1.149   4.178   4.793  0.0760  0.2058  0.0518
 4972SOL    HW115736   1.148   4.117   4.713  3.1635 -1.6727  1.2792
 4972SOL    HW215737   1.241   4.213   4.807 -0.7299  1.7520  1.9429
 4973SOL     OW15738   0.407   2.397   3.415  0.0380  0.1372 -0.3282
 4973SOL    HW115739   0.472   2.413   3.489  0.4522 -0.0494 -0.6471
 4973SOL    HW215740   0.373   2.303   3.421 -1.2569  0.6312  0.6535
 4974SOL     OW15741   6.421   2.845   2.076  0.0937 -0.0373  1.5285
 4974SOL    HW115742   6.385   2.917   2.137 -1.6896  0.1041  0.3985
 4974SOL    HW215743   6.391   2.756   2.109  1.6892 -0.2490  2.5141
 4975SOL     OW15744   0.734   0.713   4.967 -0.1354  0.0493  0.3128
 4975SOL    HW115745   0.770   0.765   5.044  0.8524  1.4503 -1.0299
 4975SOL    HW215746   0.768   0.752   4.881  0.1910 -2.4708 -0.8014
 4976SOL     OW15747   2.150   1.450   0.073  0.6500 -0.3355 -0.5734
 4976SOL    HW115748   2.203   1.428   0.156 -0.5763  0.2221  0.3936
 4976SOL    HW215749   2.066   1.396   0.073  0.7149 -0.4553 -1.5726
 4977SOL     OW15750   5.841   0.493   1.962  0.3584  0.2725 -0.4631
 4977SOL    HW115751   5.879   0.410   1.919  0.3618 -0.0611  0.1776
 4977SOL    HW215752   5.767   0.528   1.905 -0.2797 -0.7128 -0.2703
 4978SOL     OW15753   2.407   2.375   4.652 -0.0692 -0.0111 -0.2524
 4978SOL    HW115754   2.423   2.341   4.559  0.5128  0.1452 -0.2096
 4978SOL    HW215755   2.350   2.309   4.702  1.4307 -1.1790 -0.0129
 4979SOL     OW15756   2.358   4.841   4.641 -0.4944  0.3627  0.0997
 4979SOL    HW115757   2.351   4.803   4.549  0.0255  1.2651 -0.3353
 4979SOL    HW215758   2.449   4.823   4.678 -1.2939 -1.6483  1.2307
 4980SOL     OW15759   5.166   0.255   2.070 -0.2462  0.4235  0.5809
 4980SOL    HW115760   5.193   0.316   2.144 -1.1457  1.2370  0.2529
 4980SOL    HW215761   5.076   0.215   2.090 -0.7432  1.0541 -0.2905
 4981SOL     OW15762   3.294   5.216   4.834  0.2492  0.5087 -0.6579
 4981SOL    HW115763   3.236   5.156   4.778  0.0529  0.3024 -0.2395
 4981SOL    HW215764   3.372   5.247   4.780 -0.0562  0.4924 -1.1154
 4982SOL     OW15765   2.072   1.966   0.329  0.2471 -0.6234 -0.0449
 4982SOL    HW115766   2.057   2.063   0.315 -0.6874 -0.5126  1.4147
 4982SOL    HW215767   2.128   1.929   0.255  1.7898  1.2925  0.0740
 4983SOL     OW15768   4.992   0.051   6.249 -0.4944 -0.0482 -0.0360
 4983SOL    HW115769   4.937   0.120   6.202 -0.1714 -1.1234 -2.0900
 4983SOL    HW215770   5.087   0.082   6.253 -0.1094 -0.8208 -2.0434
 4984SOL     OW15771   5.212   0.180   1.805  0.2314 -0.4110 -0.6271
 4984SOL    HW115772   5.180   0.219   1.892 -1.5610 -0.3278 -1.2861
 4984SOL    HW215773   5.274   0.103   1.825 -0.3356 -0.5525  0.7386
 4985SOL     OW15774   5.551   5.837   3.307  0.1428  0.6206  0.3314
 4985SOL    HW115775   5.528   5.839   3.210 -2.1103 -1.6808  0.7336
 4985SOL    HW215776   5.645   5.806   3.318  0.4956  1.1065 -1.0929
 4986SOL     OW15777   2.944   1.430   6.776  0.6013  0.1526 -0.1529
 4986SOL    HW115778   2.845   1.427   6.765  0.3670  1.5685  1.1684
 4986SOL    HW215779   2.977   1.344   6.814  0.0867 -0.8253 -1.8266
 4987SOL     OW15780   3.629   6.683   0.547  0.3794 -0.0942  0.2981
 4987SOL    HW115781   3.647   6.776   0.514 -0.1698  0.6174  1.8822
 4987SOL    HW215782   3.563   6.687   0.623 -1.5194 -2.0038 -1.1318
 4988SOL     OW15783   5.754   1.746   2.966 -0.1398 -0.0316  0.4181
 4988SOL    HW115784   5.846   1.758   3.001  0.1472 -0.4178 -0.1888
 4988SOL    HW215785   5.729   1.824   2.909  0.4507 -0.7015 -0.7795
 4989SOL     OW15786   1.245   6.297   6.371  0.0484  0.0831 -0.4685
 4989SOL    HW115787   1.243   6.197   6.360  0.3727  0.1118 -0.8217
 4989SOL    HW215788   1.325   6.322   6.426 -0.4884  0.0912  0.3262
 4990SOL     OW15789   4.251   5.729   0.426  0.1162 -0.9929  0.1634
 4990SOL    HW115790   4.153   5.726   0.406  0.2618  0.1355 -0.8717
 4990SOL    HW215791   4.297   5.654   0.378  0.0568 -0.0540 -1.4557
 4991SOL     OW15792   5.525   0.196   4.702  1.0662 -0.5904  0.5628
 4991SOL    HW115793   5.585   0.239   4.769 -0.1885 -1.1596  2.1017
 4991SOL    HW215794   5.556   0.101   4.687  1.8937 -0.1877 -0.3916
 4992SOL     OW15795   0.715   1.846   4.240  0.0798  0.2444  0.1728
 4992SOL    HW115796   0.740   1.924   4.297  0.2516 -0.9450  1.7726
 4992SOL    HW215797   0.704   1.877   4.145  0.3212  2.1600  0.7247
 4993SOL     OW15798   1.994   3.672   0.728 -0.1192  0.4982  0.0241
 4993SOL    HW115799   1.991   3.608   0.650 -0.0869  1.7603 -1.0394
 4993SOL    HW215800   1.925   3.743   0.716  1.1193  1.7799  0.1809
 4994SOL     OW15801   1.544   0.356   2.716  0.0609 -0.6377  0.5361
 4994SOL    HW115802   1.616   0.328   2.652 -0.1461  1.4257 -0.6995
 4994SOL    HW215803   1.571   0.441   2.761 -2.2747  1.3193 -1.4332
 4995SOL     OW15804   3.116   6.619   5.656 -0.0105 -0.3300 -0.2084
 4995SOL    HW115805   3.019   6.597   5.657 -0.0534 -0.1864 -0.7585
 4995SOL    HW215806   3.166   6.554   5.714 -0.5743  0.3325  1.0368
 4996SOL     OW15807   1.103   2.625   3.260  0.4196  0.3117 -0.4185
 4996SOL    HW115808   1.016   2.575   3.255  0.9634 -0.6374 -0.6329
 4996SOL    HW215809   1.128   2.638   3.356  0.3972 -0.0472 -0.3634
 4997SOL     OW15810   6.496   5.077   2.767  0.5367  0.0082 -0.0168
 4997SOL    HW115811   6.488   5.013   2.691 -0.5267 -0.5305  0.5344
 4997SOL    HW215812   6.424   5.146   2.760  1.1502  0.6500 -0.1302
 4998SOL     OW15813   2.415   3.655   6.801 -0.2761 -0.4446  0.0297
 4998SOL    HW115814   2.495   3.614   6.757 -0.5443 -0.7371 -0.1941
 4998SOL    HW215815   2.339   3.657   6.736 -0.6045 -0.6515  0.4039
 4999SOL     OW15816   0.642   2.914   1.529  0.4245 -0.1744  0.6643
 4999SOL    HW115817   0.652   2.901   1.627 -1.5796  0.3280  0.9979
 4999SOL    HW215818   0.562   2.973   1.511 -0.4347 -1.8088 -1.3178
 5000SOL     OW15819   5.908   5.337   5.844 -0.1645 -0.8075 -0.2691
 5000SOL    HW115820   5.953   5.251   5.819  0.2247 -0.4661 -0.7733
 5000SOL    HW215821   5.975   5.411   5.844 -0.0542 -0.8305  2.1968
 5001SOL     OW15822   5.702   6.407   1.869 -0.5494 -0.2577 -0.2927
 5001SOL    HW115823   5.661   6.353   1.796 -2.1385  1.3799 -0.6908
 5001SOL    HW215824   5.676   6.368   1.957  0.0633 -1.3187 -0.5564
 5002SOL     OW15825   2.596   4.356   5.074 -0.0183  0.1141 -0.0106
 5002SOL    HW115826   2.575   4.264   5.041  0.8242 -0.2154  0.3244
 5002SOL    HW215827   2.552   4.370   5.163 -0.2326  0.0665 -0.1103
 5003SOL     OW15828   0.102   2.327   4.418 -0.1680 -0.2610  0.0794
 5003SOL    HW115829   0.038   2.251   4.410 -1.0102  0.5648 -1.4519
 5003SOL    HW215830   0.112   2.352   4.514 -1.4364 -1.0067  0.4248
 5004SOL     OW15831   1.335   2.901   5.717 -0.3943 -0.2051 -0.8312
 5004SOL    HW115832   1.325   2.827   5.783 -0.0774 -1.1315 -1.7845
 5004SOL    HW215833   1.260   2.896   5.650 -2.1014  2.1530  0.7540
 5005SOL     OW15834   5.009   0.819   3.468  0.1361 -0.4233 -0.2678
 5005SOL    HW115835   5.064   0.888   3.421 -1.0780 -0.0108 -1.1401
 5005SOL    HW215836   5.009   0.838   3.566  3.4994 -1.8621  0.1451
 5006SOL     OW15837   0.464   2.158   5.494 -0.2052  0.0490  0.7864
 5006SOL    HW115838   0.433   2.065   5.513 -0.0139 -0.3852 -0.8631
 5006SOL    HW215839   0.414   2.223   5.552 -0.1650 -1.0803  2.1250
 5007SOL     OW15840   6.872   4.049   5.681  0.5428 -0.0441 -0.3276
 5007SOL    HW115841   6.958   4.080   5.641 -0.2009 -0.4348 -2.3610
 5007SOL    HW215842   6.798   4.109   5.651  0.1157  0.4664  1.6440
 5008SOL     OW15843   0.841   3.846   5.745 -0.1089 -0.2477 -0.3041
 5008SOL    HW115844   0.742   3.829   5.738  0.2344 -2.7251 -0.0045
 5008SOL    HW215845   0.882   3.839   5.654  0.0252 -1.1488 -0.1870
 5009SOL     OW15846   6.808   0.438   6.864  0.3353  0.5076  0.5488
 5009SOL    HW115847   6.806   0.537   6.875 -1.7653  1.1145 -3.3327
 5009SOL    HW215848   6.745   0.395   6.928 -2.1213  2.2296 -0.5616
 5010SOL     OW15849   6.053   4.996   3.746 -0.0544 -0.0308  0.0585
 5010SOL    HW115850   6.057   4.897   3.733 -0.4450  0.0994 -1.1314
 5010SOL    HW215851   6.129   5.025   3.805 -0.2696 -1.0967  0.8980
 5011SOL     OW15852   2.158   0.255   3.316  0.1779 -0.1200  0.1318
 5011SOL    HW115853   2.168   0.314   3.236  0.3568  2.4688  1.9723
 5011SOL    HW215854   2.248   0.239   3.358 -0.0202 -0.7253  0.3400
 5012SOL     OW15855   2.261   2.377   0.069  0.3667 -0.6262  0.1859
 5012SOL    HW115856   2.173   2.368   0.116  0.1005 -0.8124 -0.3430
 5012SOL    HW215857   2.248   2.430  -0.015  0.8357 -0.3152  0.3086
 5013SOL     OW15858   3.460   0.319   0.797  0.0708  0.0588 -0.3815
 5013SOL    HW115859   3.482   0.364   0.711 -2.0470 -0.7755 -1.4163
 5013SOL    HW215860   3.452   0.221   0.782  1.6342 -0.3709  1.2263
 5014SOL     OW15861   2.809   4.974   3.686 -0.0977  0.0409  0.4581
 5014SOL    HW115862   2.725   5.023   3.662  0.5867  1.3989  0.7447
 5014SOL    HW215863   2.848   4.934   3.603  0.0211  1.1137 -0.0226
 5015SOL     OW15864   6.442   6.375   2.447 -0.0474 -0.2067 -0.3097
 5015SOL    HW115865   6.408   6.303   2.507  0.2548 -1.1662 -1.2527
 5015SOL    HW215866   6.386   6.379   2.364  0.4638  0.0550 -0.6488
 5016SOL     OW15867   1.977   4.859   6.561 -0.5108 -0.2078 -0.0986
 5016SOL    HW115868   1.921   4.927   6.609 -1.2289 -0.7448 -0.1568
 5016SOL    HW215869   1.938   4.841   6.471 -0.2314 -0.5734 -0.1509
 5017SOL     OW15870   1.542   3.920   1.812  0.0456 -0.2686  0.0678
 5017SOL    HW115871   1.550   3.942   1.909  0.4621 -2.7292  0.6674
 5017SOL    HW215872   1.608   3.848   1.789  0.8546  1.1498 -2.3737
 5018SOL     OW15873   6.781   3.160   2.803 -0.7939 -0.2966 -0.3469
 5018SOL    HW115874   6.802   3.151   2.900  1.2736 -2.0561 -0.8598
 5018SOL    HW215875   6.766   3.070   2.763 -1.0096  0.3306 -1.7754
 5019SOL     OW15876   5.040   4.655   6.609 -0.0510  0.3557  0.0394
 5019SOL    HW115877   5.023   4.618   6.700 -1.3892  0.1652 -0.2606
 5019SOL    HW215878   5.069   4.581   6.548 -1.3636  0.0221 -0.2183
 5020SOL     OW15879   5.361   6.991   2.821 -0.0743  0.8040 -0.1447
 5020SOL    HW115880   5.333   7.029   2.733 -0.3380 -0.0101 -0.4204
 5020SOL    HW215881   5.301   7.026   2.893 -1.5756 -0.5731 -0.6659
 5021SOL     OW15882   3.519   1.468   6.660  0.4799  0.5704 -0.4499
 5021SOL    HW115883   3.590   1.464   6.730  0.4364  0.2936 -0.4195
 5021SOL    HW215884   3.478   1.559   6.659  1.4883  1.0367 -1.1228
 5022SOL     OW15885   3.945   3.784   5.764  0.4125  0.4553  0.2775
 5022SOL    HW115886   3.945   3.851   5.690 -1.1708  0.2812  0.0822
 5022SOL    HW215887   3.859   3.789   5.814  1.0832 -0.0719  1.5338
 5023SOL     OW15888   5.671   6.123   0.395 -0.7333  0.3702 -0.2614
 5023SOL    HW115889   5.734   6.084   0.327 -0.6927 -0.3510  0.1787
 5023SOL    HW215890   5.680   6.072   0.480 -0.2658  1.7107  0.5127
 5024SOL     OW15891   6.384   0.395   1.712  0.0536 -0.4004 -0.1684
 5024SOL    HW115892   6.434   0.471   1.755 -1.2311 -0.0290  0.6930
 5024SOL    HW215893   6.287   0.418   1.706 -0.6600 -2.6345  1.6110
 5025SOL     OW15894   3.850   4.546   6.451  0.2618  0.0394 -0.4068
 5025SOL    HW115895   3.861   4.564   6.354 -1.8534  0.4400 -0.6327
 5025SOL    HW215896   3.849   4.632   6.502 -1.3295  0.0621 -0.4137
 5026SOL     OW15897   5.082   0.875   1.499 -0.1163  0.4659 -0.4928
 5026SOL    HW115898   5.063   0.957   1.553 -1.2283 -1.0915  1.6366
 5026SOL    HW215899   5.177   0.847   1.512  0.3188  1.4357 -1.3605
 5027SOL     OW15900   2.817   2.214   4.764  0.4746  0.2159  0.0817
 5027SOL    HW115901   2.776   2.128   4.735 -2.0528  1.2148  0.4101
 5027SOL    HW215902   2.896   2.196   4.821 -0.2720 -1.9009  0.5346
 5028SOL     OW15903   3.666   5.399   1.394  0.1559 -0.1753 -0.5643
 5028SOL    HW115904   3.761   5.395   1.426  0.2564 -2.8168 -0.9162
 5028SOL    HW215905   3.648   5.319   1.336 -2.4158  0.0522 -0.1742
 5029SOL     OW15906   4.344   3.458   5.681 -0.2651  0.2077 -0.3001
 5029SOL    HW115907   4.407   3.410   5.620  1.8264 -0.8532  2.4901
 5029SOL    HW215908   4.376   3.552   5.694  1.3431 -0.5299  1.6751
 5030SOL     OW15909   2.477   3.970   1.633  0.1047 -0.5212  0.2299
 5030SOL    HW115910   2.486   4.069   1.643 -2.7658 -0.1911  0.2930
 5030SOL    HW215911   2.496   3.944   1.538  1.8427 -0.1196  0.4199
 5031SOL     OW15912   4.284   2.533   2.785  0.6646  0.6678  0.5335
 5031SOL    HW115913   4.290   2.439   2.751  0.3956  0.9221 -0.2597
 5031SOL    HW215914   4.376   2.570   2.795  0.7620  0.4860  0.3483
 5032SOL     OW15915   6.152   6.458   6.714 -0.2714 -0.2037  0.2609
 5032SOL    HW115916   6.139   6.368   6.756  0.5892 -0.8444 -0.7912
 5032SOL    HW215917   6.195   6.447   6.624  0.5051  1.3153  0.4168
 5033SOL     OW15918   6.520   2.189   3.951 -0.0205  0.3796 -0.6870
 5033SOL    HW115919   6.474   2.208   4.038  2.8498  1.2157  0.7546
 5033SOL    HW215920   6.555   2.274   3.912  2.2353 -0.4139 -0.5408
 5034SOL     OW15921   3.642   5.093   0.365  0.0180 -0.1104 -0.3640
 5034SOL    HW115922   3.664   5.191   0.368 -0.3832 -0.0330  1.5026
 5034SOL    HW215923   3.569   5.074   0.431 -0.5028 -1.5476 -1.3146
 5035SOL     OW15924   5.398   5.259   6.819  0.2223 -0.3883 -0.2932
 5035SOL    HW115925   5.364   5.219   6.904  0.5170  0.9867  0.5091
 5035SOL    HW215926   5.384   5.195   6.744 -1.0989 -1.1922  0.5877
 5036SOL     OW15927   4.557   6.356   3.566 -0.1299  0.1067 -0.1165
 5036SOL    HW115928   4.593   6.324   3.654 -0.3633 -2.0904 -0.7730
 5036SOL    HW215929   4.479   6.417   3.582 -0.0844 -0.1416  1.1820
 5037SOL     OW15930   4.880   6.597   3.296  0.4256  0.1834  0.2911
 5037SOL    HW115931   4.937   6.594   3.214 -0.7195 -0.1005 -0.5297
 5037SOL    HW215932   4.786   6.621   3.270  0.2418  1.0445  1.6483
 5038SOL     OW15933   6.065   1.165   4.243 -0.2612  0.1582  0.7177
 5038SOL    HW115934   6.067   1.110   4.326 -0.8578 -2.5928 -0.9414
 5038SOL    HW215935   6.157   1.199   4.222  0.6819 -2.2541  0.6254
 5039SOL     OW15936   1.673   6.602   2.724  0.3313 -0.5272  0.5388
 5039SOL    HW115937   1.615   6.609   2.805  1.6030  0.1506  1.4358
 5039SOL    HW215938   1.720   6.514   2.723 -2.0364 -1.8750 -1.1751
 5040SOL     OW15939   5.491   5.645   5.517 -0.0201 -0.1159  0.5963
 5040SOL    HW115940   5.503   5.687   5.607  0.3823 -0.0045  0.4957
 5040SOL    HW215941   5.536   5.555   5.516  3.5447  1.4874 -0.6495
 5041SOL     OW15942   6.902   5.009   4.379 -0.2228  0.6899  0.0606
 5041SOL    HW115943   6.937   4.983   4.470  1.5266  1.5725 -0.3174
 5041SOL    HW215944   6.951   4.956   4.309 -0.7430  0.8541 -0.4274
 5042SOL     OW15945   0.557   6.430   4.033  0.0194 -0.4618  0.7993
 5042SOL    HW115946   0.607   6.357   3.987  1.7901  1.2575 -0.2066
 5042SOL    HW215947   0.615   6.469   4.105 -0.2772  0.8466  0.3651
 5043SOL     OW15948   5.835   2.079   5.654  0.2865  0.4789 -0.2391
 5043SOL    HW115949   5.789   2.109   5.571 -0.6064  0.6973  0.3187
 5043SOL    HW215950   5.795   1.993   5.686 -0.7818  1.4060  1.0501
 5044SOL     OW15951   4.430   2.690   3.703 -0.5878  0.2639  0.0870
 5044SOL    HW115952   4.365   2.717   3.632 -0.8166  0.2601  0.2944
 5044SOL    HW215953   4.381   2.644   3.777 -0.0609 -1.8522 -0.8059
 5045SOL     OW15954   3.836   5.877   1.352  0.2892  0.0746  0.1137
 5045SOL    HW115955   3.772   5.830   1.413 -2.0291  1.2317 -1.2691
 5045SOL    HW215956   3.845   5.824   1.267  0.2442  0.4860 -0.1497
 5046SOL     OW15957   4.235   4.655   1.928  0.5866  0.3582 -0.6459
 5046SOL    HW115958   4.298   4.578   1.927  1.0228  0.6869 -2.4101
 5046SOL    HW215959   4.142   4.622   1.911  0.5294  0.0620  0.2091
 5047SOL     OW15960   3.471   6.291   5.549 -0.0397  0.4276  0.2498
 5047SOL    HW115961   3.479   6.371   5.490 -0.9307 -0.2083 -0.7753
 5047SOL    HW215962   3.374   6.268   5.561  0.2251 -1.4810 -0.8696
 5048SOL     OW15963   2.822   0.069   3.957  0.5096 -0.4397 -0.4430
 5048SOL    HW115964   2.861   0.158   3.935 -0.9554  0.4709  0.5445
 5048SOL    HW215965   2.867   0.032   4.039  1.1155 -0.6362 -0.8533
 5049SOL     OW15966   2.672   2.088   0.721 -0.4020 -0.3445  0.4485
 5049SOL    HW115967   2.760   2.137   0.719 -0.0582 -0.9602  0.3781
 5049SOL    HW215968   2.685   1.997   0.760 -0.3357 -1.7248 -2.4947
 5050SOL     OW15969   0.848   4.720   6.572 -0.2432  0.4559  0.1424
 5050SOL    HW115970   0.933   4.669   6.583 -0.5948  0.2216  2.1758
 5050SOL    HW215971   0.778   4.684   6.634 -0.7739  2.8099  1.0407
 5051SOL     OW15972   2.311   1.371   1.426  0.1316 -0.1055 -0.2031
 5051SOL    HW115973   2.354   1.455   1.458  3.8943 -2.0170  0.3703
 5051SOL    HW215974   2.221   1.361   1.468  1.6242  1.2535  3.7726
 5052SOL     OW15975   2.487   0.288   0.249  0.0797  0.3372  0.1689
 5052SOL    HW115976   2.541   0.251   0.174 -1.2473 -2.8597  0.6390
 5052SOL    HW215977   2.402   0.327   0.214 -0.6121 -1.2959 -0.0582
 5053SOL     OW15978   2.545   6.699   0.545 -0.3904  0.2365 -0.1686
 5053SOL    HW115979   2.594   6.675   0.629 -2.3296  1.9431  1.5926
 5053SOL    HW215980   2.460   6.646   0.539 -0.8702  0.9983 -0.3553
 5054SOL     OW15981   2.412   2.273   5.743  0.3791  0.3302  0.2493
 5054SOL    HW115982   2.368   2.341   5.802 -0.6025  2.1356 -2.3928
 5054SOL    HW215983   2.344   2.204   5.717  0.7112 -0.2437  0.8700
 5055SOL     OW15984   4.697   3.222   5.765  0.0092  0.2309  0.1450
 5055SOL    HW115985   4.791   3.220   5.801  0.0524 -1.5306  0.0315
 5055SOL    HW215986   4.634   3.250   5.837  0.4707  0.0087  0.6423
 5056SOL     OW15987   3.525   4.873   1.398 -0.2244  0.0474 -0.3690
 5056SOL    HW115988   3.575   4.790   1.375 -0.6299  0.1758 -1.8365
 5056SOL    HW215989   3.432   4.868   1.361 -0.1202  1.3095 -0.8854
 5057SOL     OW15990   5.425   3.649   4.494  0.9178 -0.4478 -0.0305
 5057SOL    HW115991   5.353   3.717   4.483  0.4284 -0.6491  1.5858
 5057SOL    HW215992   5.426   3.587   4.416 -0.9865 -0.7369  0.1257
 5058SOL     OW15993   3.126   1.658   2.086  0.1733 -0.2041  0.3763
 5058SOL    HW115994   3.225   1.668   2.080  0.1896 -0.9205 -3.7883
 5058SOL    HW215995   3.085   1.746   2.113  1.8398  0.8158 -0.2649
 5059SOL     OW15996   5.353   5.410   0.438 -0.2612 -0.4858 -0.2821
 5059SOL    HW115997   5.253   5.405   0.432 -0.3022 -2.4811  1.2937
 5059SOL    HW215998   5.394   5.349   0.370 -0.1810 -1.5188  0.6785
 5060SOL     OW15999   1.383   3.785   2.624  1.0789 -0.0804  1.1150
 5060SOL    HW116000   1.311   3.854   2.630  1.2721  0.1712  0.5694
 5060SOL    HW216001   1.352   3.701   2.669  0.0686 -0.2869  0.0786
 5061SOL     OW16002   5.144   0.194   1.076  1.0029  0.0585  0.0459
 5061SOL    HW116003   5.199   0.261   1.025 -1.6056  2.4840  0.1538
 5061SOL    HW216004   5.159   0.207   1.174 -1.7196  2.8569  0.2596
 5062SOL     OW16005   5.517   3.897   6.618  0.3761 -0.1856 -0.0287
 5062SOL    HW116006   5.510   3.813   6.565  0.7708  0.5781 -1.3332
 5062SOL    HW216007   5.449   3.896   6.692  0.8580 -1.9409  0.4336
 5063SOL     OW16008   2.993   2.467   1.426  0.3939 -0.3626 -0.2552
 5063SOL    HW116009   2.934   2.504   1.354  0.4258  2.0412  0.8460
 5063SOL    HW216010   3.088   2.470   1.396  0.3672  0.2219 -0.2917
 5064SOL     OW16011   5.455   2.936   1.360 -0.1676 -0.3898  0.5534
 5064SOL    HW116012   5.391   2.955   1.285 -0.7553 -2.7239  0.3971
 5064SOL    HW216013   5.545   2.973   1.336 -0.8138  0.6498 -0.3959
 5065SOL     OW16014   5.880   4.619   5.520  0.2313  0.3297 -0.2316
 5065SOL    HW116015   5.881   4.530   5.564 -0.3158  0.1586 -0.5590
 5065SOL    HW216016   5.960   4.628   5.461 -0.6870 -0.7147 -1.6929
 5066SOL     OW16017   4.960   1.551   2.505  0.0070  0.0898  0.1245
 5066SOL    HW116018   4.938   1.644   2.536  1.0357  0.3380  0.1555
 5066SOL    HW216019   4.943   1.544   2.407 -1.5964 -0.1781  0.3982
 5067SOL     OW16020   0.105   5.508   6.911 -0.0543  0.3526  0.1364
 5067SOL    HW116021   0.131   5.553   6.997 -2.0784  0.3935  0.7636
 5067SOL    HW216022   0.125   5.410   6.917 -0.0307  0.3827  0.5959
 5068SOL     OW16023   1.113   0.852   5.352 -0.0877 -0.0396 -0.3391
 5068SOL    HW116024   1.080   0.857   5.258  0.9767 -0.5887 -0.7569
 5068SOL    HW216025   1.105   0.943   5.395  2.3627  1.0764 -2.0057
 5069SOL     OW16026   4.631   6.997   5.970  0.1437  0.1007 -0.2575
 5069SOL    HW116027   4.584   7.056   6.035 -0.5815 -2.9413  2.2143
 5069SOL    HW216028   4.695   7.051   5.916 -0.4169  3.0755  1.8308
 5070SOL     OW16029   1.694   6.635   1.715 -0.5606 -0.2291  0.9920
 5070SOL    HW116030   1.695   6.565   1.786  0.0002 -0.8222  0.4118
 5070SOL    HW216031   1.655   6.720   1.752  0.8221 -0.1522  2.3646
 5071SOL     OW16032   5.364   5.334   5.705  0.1053  0.6249  0.4422
 5071SOL    HW116033   5.383   5.295   5.615 -2.0584 -2.4990  1.1652
 5071SOL    HW216034   5.287   5.398   5.698  0.2213  0.7163  0.0062
 5072SOL     OW16035   5.134   5.512   6.471  0.5584  0.6485 -0.1222
 5072SOL    HW116036   5.126   5.500   6.570  2.6583  0.1344  0.0365
 5072SOL    HW216037   5.044   5.534   6.433 -0.6008 -0.6200  1.6783
 5073SOL     OW16038   3.287   1.292   3.816 -0.3725 -0.0536 -0.0159
 5073SOL    HW116039   3.289   1.319   3.913 -1.9911  0.9614 -0.2310
 5073SOL    HW216040   3.195   1.265   3.791  0.2899 -1.5263 -1.0035
 5074SOL     OW16041   4.456   1.049   0.888 -0.6370 -0.1747  0.1312
 5074SOL    HW116042   4.433   1.034   0.792 -0.3542  2.3055 -0.3872
 5074SOL    HW216043   4.552   1.023   0.904 -0.9848 -1.5711  0.0181
 5075SOL     OW16044   4.393   4.924   6.407  0.9230  0.1999 -0.4340
 5075SOL    HW116045   4.378   5.019   6.382 -2.9532  0.3461  1.7106
 5075SOL    HW216046   4.422   4.918   6.502 -0.3796 -0.7579 -0.0722
 5076SOL     OW16047   2.630   0.031   5.555 -0.4826  0.4406  0.5203
 5076SOL    HW116048   2.687   0.110   5.533 -1.5518  0.9247 -0.6505
 5076SOL    HW216049   2.672  -0.052   5.519 -1.0781  0.9469 -1.5110
 5077SOL     OW16050   3.890   6.894   6.026 -0.0932 -0.1071 -0.0570
 5077SOL    HW116051   3.951   6.829   6.071 -0.5439 -0.5617 -0.0930
 5077SOL    HW216052   3.802   6.850   6.007 -0.8097  0.8407  0.9260
 5078SOL     OW16053   0.561   2.124   0.491 -0.4652 -0.0712 -0.2988
 5078SOL    HW116054   0.527   2.084   0.576 -0.8457 -1.5022 -1.0865
 5078SOL    HW216055   0.516   2.080   0.413  1.9200 -0.8267 -1.3372
 5079SOL     OW16056   6.420   3.183   0.540  0.3027  0.1208 -0.7185
 5079SOL    HW116057   6.351   3.255   0.539  1.2408  1.0916  0.8452
 5079SOL    HW216058   6.388   3.107   0.596 -0.9459 -1.0351 -2.8495
 5080SOL     OW16059   0.540   2.165   5.236  0.1752 -0.3811  0.2525
 5080SOL    HW116060   0.471   2.176   5.165 -0.0049  2.6366  0.7519
 5080SOL    HW216061   0.497   2.176   5.326  0.5056 -3.5208  0.8902
 5081SOL     OW16062   3.278   3.820   0.712 -0.0593  0.1231  0.4736
 5081SOL    HW116063   3.212   3.799   0.640 -3.2160  0.2022  3.1352
 5081SOL    HW216064   3.296   3.738   0.766  1.2019  0.3773  0.4732
 5082SOL     OW16065   1.290   0.647   2.878 -0.1161  0.8009 -0.0870
 5082SOL    HW116066   1.383   0.684   2.874  1.2503 -2.2774  0.1454
 5082SOL    HW216067   1.277   0.601   2.965 -1.6426  0.5789 -0.4100
 5083SOL     OW16068   3.833   1.870   5.006 -0.2266  0.1565  0.2953
 5083SOL    HW116069   3.881   1.919   4.933 -0.3225 -0.3595 -0.1187
 5083SOL    HW216070   3.799   1.936   5.074 -2.3996  0.9484 -1.4247
 5084SOL     OW16071   0.276   4.648   5.536 -0.0584  0.2444 -0.0075
 5084SOL    HW116072   0.353   4.611   5.485 -1.4608  0.7556 -2.6881
 5084SOL    HW216073   0.302   4.661   5.632  2.7663 -0.6463 -0.5692
 5085SOL     OW16074   1.727   3.031   0.307 -0.0733 -0.0987  0.4944
 5085SOL    HW116075   1.673   3.099   0.357  0.7247 -0.1683  1.4729
 5085SOL    HW216076   1.674   2.947   0.298  0.1673 -0.4681  2.2181
 5086SOL     OW16077   3.233   3.165   4.003 -0.0296  0.2970  0.0180
 5086SOL    HW116078   3.290   3.245   3.988 -0.2682  0.2620 -1.1540
 5086SOL    HW216079   3.230   3.145   4.101  2.4501 -0.0576  0.1045
 5087SOL     OW16080   1.744   2.763   6.091  0.1625 -0.4998  0.0546
 5087SOL    HW116081   1.815   2.694   6.086 -0.2472 -0.9706  0.5572
 5087SOL    HW216082   1.666   2.735   6.035 -1.0910 -1.7818  2.2913
 5088SOL     OW16083   0.409   2.460   5.999  0.0771  0.7400  0.2162
 5088SOL    HW116084   0.396   2.417   5.910  4.5844 -1.0928  0.1723
 5088SOL    HW216085   0.333   2.434   6.060 -1.5679 -0.4319 -2.1902
 5089SOL     OW16086   0.734   2.473   1.183  0.1230 -0.6603  0.0667
 5089SOL    HW116087   0.642   2.444   1.209  0.7476 -1.1621  1.8517
 5089SOL    HW216088   0.792   2.393   1.169  0.7657 -0.3534  0.8584
 5090SOL     OW16089   2.807   6.140   5.639 -0.5072  0.3601  0.1638
 5090SOL    HW116090   2.744   6.107   5.569 -1.4471 -2.6321  2.2539
 5090SOL    HW216091   2.901   6.138   5.603 -0.9188 -1.4188 -0.9374
 5091SOL     OW16092   1.346   6.763   5.365 -0.5952  0.3580 -0.0659
 5091SOL    HW116093   1.309   6.827   5.433 -1.7973  0.6340 -0.9356
 5091SOL    HW216094   1.345   6.670   5.403 -2.0588  0.3831  0.0255
 5092SOL     OW16095   5.615   0.653   1.859 -0.1878 -0.2023  0.1410
 5092SOL    HW116096   5.602   0.663   1.760  0.3504  1.6647  0.2152
 5092SOL    HW216097   5.617   0.744   1.902 -0.1827 -0.9670  1.8455
 5093SOL     OW16098   0.790   3.525   4.192  0.1662 -0.0023 -0.4370
 5093SOL    HW116099   0.752   3.535   4.100 -0.0244  0.0670 -0.3518
 5093SOL    HW216100   0.721   3.552   4.260 -0.7214 -2.7425 -0.1372
 5094SOL     OW16101   6.141   4.067   4.569 -0.7000  0.3235  0.0699
 5094SOL    HW116102   6.070   4.036   4.506  1.2482 -2.0674 -1.1031
 5094SOL    HW216103   6.115   4.041   4.663 -1.5714 -0.1187 -0.2759
 5095SOL     OW16104   5.841   4.358   6.532 -0.2583  0.0068 -0.0486
 5095SOL    HW116105   5.934   4.341   6.565 -0.1216  0.5115 -0.1601
 5095SOL    HW216106   5.823   4.457   6.532 -0.7612 -0.0810 -0.1159
 5096SOL     OW16107   4.098   2.170   5.166 -0.5761  0.2986  0.6335
 5096SOL    HW116108   4.121   2.099   5.233 -2.6123  0.1827  1.2982
 5096SOL    HW216109   4.043   2.241   5.211 -2.5994 -0.1191 -1.0073
 5097SOL     OW16110   5.312   1.323   1.975  0.2045  0.2663 -0.2993
 5097SOL    HW116111   5.337   1.391   2.045 -0.3942  0.0771  0.1072
 5097SOL    HW216112   5.287   1.237   2.020 -0.2636  0.1654 -0.7402
 5098SOL     OW16113   1.072   1.549   0.585 -0.2292  0.0150 -0.4976
 5098SOL    HW116114   1.070   1.575   0.681  0.5026 -0.6086 -0.3085
 5098SOL    HW216115   1.075   1.450   0.577  0.2811  0.0799 -1.1544
 5099SOL     OW16116   3.953   4.857   1.928  0.4741 -0.0611 -0.0473
 5099SOL    HW116117   4.013   4.890   1.855  1.1566 -0.9956  0.0862
 5099SOL    HW216118   3.875   4.920   1.937  0.3364  0.0411 -1.6217
 5100SOL     OW16119   0.087   1.967   5.435  0.4878  0.0686  0.1756
 5100SOL    HW116120  -0.005   1.966   5.395  0.3363 -0.1339  0.5186
 5100SOL    HW216121   0.147   1.907   5.383  0.2592 -0.2931  0.3275
 5101SOL     OW16122   5.889   0.427   1.089  0.0415  0.6046 -0.1272
 5101SOL    HW116123   5.989   0.418   1.091  0.0470 -0.2105 -2.0528
 5101SOL    HW216124   5.854   0.391   1.002 -2.2129 -1.8687  1.6529
 5102SOL     OW16125   4.014   0.838   6.106  0.5440 -0.4200 -0.5408
 5102SOL    HW116126   4.050   0.745   6.101  1.5177 -0.2360  1.8046
 5102SOL    HW216127   4.052   0.885   6.186 -2.6836  0.7790  0.4592
 5103SOL     OW16128   0.562   1.508   3.746 -0.4879 -0.4138 -0.6738
 5103SOL    HW116129   0.503   1.435   3.782 -0.7391  0.0875 -0.0520
 5103SOL    HW216130   0.514   1.557   3.673 -0.8303 -0.0216 -0.1846
 5104SOL     OW16131   5.956   6.599   5.138 -0.2999 -0.7048 -0.0217
 5104SOL    HW116132   5.979   6.650   5.055 -1.9743 -0.2472 -0.2386
 5104SOL    HW216133   5.974   6.656   5.218  2.2735 -1.4982  0.0515
 5105SOL     OW16134   4.390   5.542   4.325  0.4974  0.0620 -0.3175
 5105SOL    HW116135   4.449   5.562   4.404 -1.5278 -1.1718  1.6155
 5105SOL    HW216136   4.394   5.444   4.305 -2.0553 -0.3664  0.9303
 5106SOL     OW16137   4.412   0.681   4.602  0.0425  0.3504  0.5264
 5106SOL    HW116138   4.408   0.641   4.693  0.8143  0.4935  0.6297
 5106SOL    HW216139   4.392   0.610   4.534  1.5691 -0.3004  0.6973
 5107SOL     OW16140   2.677   4.206   6.537  0.4415 -0.5410  0.3915
 5107SOL    HW116141   2.634   4.239   6.621 -0.9979  0.3826 -0.6564
 5107SOL    HW216142   2.610   4.154   6.483  0.7721  0.4055 -1.0047
 5108SOL     OW16143   6.231   5.387   0.020  0.0052  0.7710  0.0544
 5108SOL    HW116144   6.208   5.292   0.041 -0.3392  0.7186 -0.5150
 5108SOL    HW216145   6.242   5.397  -0.079  2.1943  0.8673  0.2724
 5109SOL     OW16146   2.278   2.603   1.057  0.0294 -0.4044 -0.4548
 5109SOL    HW116147   2.344   2.622   1.130  1.1394 -1.6410 -1.0883
 5109SOL    HW216148   2.304   2.519   1.010 -0.2712  0.6965 -2.7270
 5110SOL     OW16149   5.445   2.185   6.242 -0.1172 -0.0817  0.2264
 5110SOL    HW116150   5.374   2.254   6.242  0.9724  1.0856 -0.9224
 5110SOL    HW216151   5.464   2.157   6.336 -0.9792  0.7538  0.6630
 5111SOL     OW16152   4.625   3.066   0.403 -0.3735 -0.3135 -0.3828
 5111SOL    HW116153   4.620   3.040   0.307  1.9390 -0.8034 -0.4369
 5111SOL    HW216154   4.707   3.121   0.419 -0.8320 -0.0420  1.2757
 5112SOL     OW16155   0.424   3.391   3.986  0.2654  0.1463 -0.3862
 5112SOL    HW116156   0.338   3.379   4.035 -0.5892  0.3768 -1.7753
 5112SOL    HW216157   0.438   3.488   3.967  1.2774  0.2109  0.5507
 5113SOL     OW16158   0.581   3.665   1.279 -0.0837 -0.5251  0.6303
 5113SOL    HW116159   0.654   3.652   1.346 -1.9825 -1.7157  2.6120
 5113SOL    HW216160   0.608   3.621   1.193  1.7712 -0.3688  1.0779
 5114SOL     OW16161   5.172   6.757   5.834 -0.9047  0.1685 -0.1210
 5114SOL    HW116162   5.085   6.739   5.788 -0.1765 -0.8876 -1.1352
 5114SOL    HW216163   5.154   6.784   5.928 -2.3557  0.5536 -0.4765
 5115SOL     OW16164   4.115   0.648   5.042 -0.3067  0.1161 -0.1398
 5115SOL    HW116165   4.106   0.675   4.946 -0.3801 -0.3282 -0.2615
 5115SOL    HW216166   4.212   0.641   5.066 -0.1812  3.5289  0.7776
 5116SOL     OW16167   2.208   5.867   1.405  0.2669  1.0839  0.7869
 5116SOL    HW116168   2.286   5.847   1.465 -0.6454  1.3878  2.1344
 5116SOL    HW216169   2.226   5.952   1.355  1.6574  0.0780 -0.5102
 5117SOL     OW16170   4.479   1.644   1.872  0.4794  0.1333 -0.0239
 5117SOL    HW116171   4.441   1.593   1.795  1.1197 -1.3294  0.5881
 5117SOL    HW216172   4.409   1.706   1.908  0.5842  1.9089 -2.5891
 5118SOL     OW16173   2.739   1.127   3.588  0.5839  0.1102 -0.1250
 5118SOL    HW116174   2.646   1.089   3.594  0.7373 -0.3417 -0.5605
 5118SOL    HW216175   2.802   1.069   3.640  1.0413 -0.9878 -1.8142
 5119SOL     OW16176   6.721   2.857   0.022  0.4411 -0.6846 -0.8801
 5119SOL    HW116177   6.808   2.834   0.065  0.1710  2.2492  1.5736
 5119SOL    HW216178   6.688   2.944   0.058 -2.8799 -1.0056 -2.7429
 5120SOL     OW16179   0.712   0.016   4.308 -0.6424 -0.0859  0.2784
 5120SOL    HW116180   0.664   0.101   4.328  0.0050 -0.2088  2.5543
 5120SOL    HW216181   0.645  -0.055   4.284 -1.2999  0.6191 -0.0186
 5121SOL     OW16182   6.482   0.191   5.466 -0.2289 -0.4139 -0.0182
 5121SOL    HW116183   6.499   0.135   5.547  2.3002  1.0751  0.5811
 5121SOL    HW216184   6.431   0.273   5.492 -0.2020 -0.3662 -0.1144
 5122SOL     OW16185   3.719   1.384   5.231 -0.0292  0.5419  0.6940
 5122SOL    HW116186   3.665   1.444   5.289 -0.6229  0.6074  0.0948
 5122SOL    HW216187   3.657   1.330   5.172  0.4960 -0.5294  1.0991
 5123SOL     OW16188   1.716   1.306   3.338 -0.2378  0.3653 -0.3784
 5123SOL    HW116189   1.726   1.261   3.427  2.3292  1.2883 -0.1162
 5123SOL    HW216190   1.703   1.404   3.351 -0.4516  0.4297 -1.0290
 5124SOL     OW16191   5.529   6.659   1.866 -0.0920  0.0998  0.5183
 5124SOL    HW116192   5.609   6.600   1.872 -0.5770 -0.9577 -2.0993
 5124SOL    HW216193   5.548   6.747   1.911  2.0969 -0.5173  0.9002
 5125SOL     OW16194   1.880   0.411   1.926 -0.0774  0.3503  0.3099
 5125SOL    HW116195   1.910   0.407   2.022 -0.1142  0.4659  0.3264
 5125SOL    HW216196   1.959   0.394   1.866 -0.1154 -0.0351  0.3658
 5126SOL     OW16197   3.725   3.816   6.543  0.1812  0.4914 -0.1995
 5126SOL    HW116198   3.774   3.867   6.472  1.6896 -0.8632 -0.1856
 5126SOL    HW216199   3.721   3.719   6.517 -0.8496  0.2666  0.7254
 5127SOL     OW16200   4.677   2.304   2.490 -0.0515 -0.2306  0.2058
 5127SOL    HW116201   4.680   2.213   2.450  1.7930 -0.6497  1.1920
 5127SOL    HW216202   4.701   2.373   2.421  0.0482 -0.6352 -0.1646
 5128SOL     OW16203   2.769   2.856   1.192  0.6844 -0.4794  0.0641
 5128SOL    HW116204   2.716   2.806   1.123 -2.1447  1.6995  0.4818
 5128SOL    HW216205   2.781   2.951   1.162  0.3862  0.2162  2.0463
 5129SOL     OW16206   2.474   4.495   3.188  0.4169 -1.2380 -0.7320
 5129SOL    HW116207   2.570   4.524   3.185  0.0144  0.1822 -0.3241
 5129SOL    HW216208   2.442   4.496   3.282 -0.9395  1.5763 -1.1432
 5130SOL     OW16209   5.990   1.477   4.239 -0.3573  0.1411  0.0760
 5130SOL    HW116210   5.981   1.388   4.195 -1.2295 -0.0956  0.7185
 5130SOL    HW216211   6.068   1.476   4.302 -1.0338 -0.5396  0.9273
 5131SOL     OW16212   2.568   3.789   6.373 -0.1507 -0.0133 -0.4763
 5131SOL    HW116213   2.498   3.858   6.362 -0.4939 -0.3018 -0.1461
 5131SOL    HW216214   2.641   3.804   6.306  0.8331  1.9384  0.9416
 5132SOL     OW16215   6.173   1.858   1.043 -0.8685  0.3898 -0.0983
 5132SOL    HW116216   6.113   1.921   0.993 -0.5151  0.4467 -0.4547
 5132SOL    HW216217   6.224   1.909   1.112 -1.8376  0.2053  0.7860
 5133SOL     OW16218   6.132   4.403   4.068  0.3688  0.0505 -0.0565
 5133SOL    HW116219   6.067   4.349   4.014 -0.0648  1.5170 -1.0482
 5133SOL    HW216220   6.167   4.478   4.013  0.5041  1.1425  1.4670
 5134SOL     OW16221   0.837   5.680   5.197  0.4397  0.6261  0.1918
 5134SOL    HW116222   0.778   5.624   5.139  1.4455 -0.9642  0.6368
 5134SOL    HW216223   0.801   5.680   5.291 -1.3990  3.5011 -0.3638
 5135SOL     OW16224   4.741   6.602   1.707 -0.0463 -0.3290  0.4926
 5135SOL    HW116225   4.686   6.643   1.780  2.2794  1.4152  1.4083
 5135SOL    HW216226   4.686   6.535   1.657 -3.2684  1.9663  0.6474
 5136SOL     OW16227   1.005   6.949   6.567  0.4841 -0.3839  0.1536
 5136SOL    HW116228   0.956   7.015   6.510  1.0129 -0.7731 -0.7717
 5136SOL    HW216229   1.102   6.973   6.572  1.0690 -2.1066 -1.7792
 5137SOL     OW16230   6.343   3.823   4.887 -0.0008  0.0167 -0.0103
 5137SOL    HW116231   6.299   3.746   4.841 -2.3452  0.0251  2.0165
 5137SOL    HW216232   6.290   3.906   4.870  2.0915  1.1290 -1.5780
 5138SOL     OW16233   5.381   4.394   4.941  0.1079  0.2506 -0.0099
 5138SOL    HW116234   5.431   4.309   4.955 -1.9046 -1.1918 -1.0839
 5138SOL    HW216235   5.294   4.375   4.895 -1.1517  2.6938  1.1262
 5139SOL     OW16236   6.980   1.422   3.054 -0.5090  0.1368 -0.3665
 5139SOL    HW116237   7.075   1.453   3.042 -0.3535  0.2438  1.0037
 5139SOL    HW216238   6.973   1.368   3.138 -1.6030 -0.1329 -0.6192
 5140SOL     OW16239   1.554   5.339   1.678 -0.0331  0.0476  0.0200
 5140SOL    HW116240   1.469   5.303   1.638 -0.4364  0.9907 -0.0102
 5140SOL    HW216241   1.607   5.384   1.606 -0.3364  0.9742  0.3656
 5141SOL     OW16242   2.148   5.310   3.936  0.1708  0.8543 -0.2281
 5141SOL    HW116243   2.138   5.232   3.874 -0.2335  0.3034  0.5130
 5141SOL    HW216244   2.236   5.303   3.984  0.2088  0.9456 -0.2846
 5142SOL     OW16245   6.706   2.869   6.744  0.7012 -0.3388  0.2745
 5142SOL    HW116246   6.619   2.916   6.729  0.9870  0.1474  0.1199
 5142SOL    HW216247   6.727   2.868   6.842  0.6904 -0.1483  0.2792
 5143SOL     OW16248   1.656   0.971   2.129  0.5399  0.2016 -0.3731
 5143SOL    HW116249   1.616   0.881   2.142 -1.0526  1.1334  1.6728
 5143SOL    HW216250   1.675   0.986   2.031  3.7797 -3.4554 -0.5459
 5144SOL     OW16251   3.459   1.143   0.964 -0.2279  0.2773  0.0892
 5144SOL    HW116252   3.540   1.111   1.014  0.2781  0.7561 -0.4011
 5144SOL    HW216253   3.487   1.176   0.874 -1.2761 -1.6155 -0.9760
 5145SOL     OW16254   3.349   4.794   0.153  0.1283 -0.3900 -0.2250
 5145SOL    HW116255   3.263   4.765   0.109  0.3928 -0.1238 -0.9435
 5145SOL    HW216256   3.385   4.720   0.208 -0.7469 -0.3914  0.3692
 5146SOL     OW16257   3.744   2.194   2.580  0.3140 -0.2841  0.4614
 5146SOL    HW116258   3.667   2.242   2.539  0.2797  0.3052  1.2095
 5146SOL    HW216259   3.821   2.196   2.516  0.1834  0.4128  0.3134
 5147SOL     OW16260   6.372   6.393   1.413  0.2416 -0.2999 -0.1293
 5147SOL    HW116261   6.303   6.364   1.347  0.7343 -1.4341 -0.1678
 5147SOL    HW216262   6.336   6.469   1.467 -0.6302 -0.1696 -0.8665
 5148SOL     OW16263   1.616   0.200   4.313 -0.5782  0.8822 -0.0616
 5148SOL    HW116264   1.590   0.103   4.306 -0.1201  0.7412  0.1304
 5148SOL    HW216265   1.696   0.217   4.256  0.9335  0.5448  1.8483
 5149SOL     OW16266   3.686   0.681   3.297  0.2915  0.2434  0.4053
 5149SOL    HW116267   3.774   0.700   3.253  0.4446  0.0181  0.6104
 5149SOL    HW216268   3.689   0.589   3.337  0.6394  0.9410  2.0789
 5150SOL     OW16269   6.124   6.935   2.776 -0.4695 -0.1266  0.1888
 5150SOL    HW116270   6.122   6.878   2.694 -1.4160  0.7281 -0.4117
 5150SOL    HW216271   6.067   7.016   2.762  0.0692  0.4924  1.3704
 5151SOL     OW16272   4.208   3.742   1.419 -0.2311 -0.0113 -0.0517
 5151SOL    HW116273   4.262   3.787   1.348  0.7012  0.6846  1.0477
 5151SOL    HW216274   4.111   3.758   1.403 -0.0097  0.6684 -0.8082
 5152SOL     OW16275   1.104   2.268   1.367  0.6554 -0.4133  0.1899
 5152SOL    HW116276   1.159   2.201   1.317  0.5077 -0.0331 -0.4984
 5152SOL    HW216277   1.159   2.310   1.439  0.3594 -2.2436  1.5421
 5153SOL     OW16278   1.132   2.910   3.654  0.4636  0.0829  0.2675
 5153SOL    HW116279   1.140   2.962   3.569  1.1226 -0.9204 -0.2951
 5153SOL    HW216280   1.127   2.813   3.634 -0.3205 -0.1166  1.3395
 5154SOL     OW16281   4.528   4.797   2.903 -0.0336 -0.3472 -0.6727
 5154SOL    HW116282   4.479   4.872   2.949 -1.0087 -2.0300  1.2080
 5154SOL    HW216283   4.603   4.834   2.849 -0.7872  2.0116 -0.2200
 5155SOL     OW16284   4.691   5.213   2.063 -0.2893 -0.1021 -0.5918
 5155SOL    HW116285   4.699   5.198   1.965  1.5145  3.7859 -1.1977
 5155SOL    HW216286   4.775   5.183   2.109  0.9249  2.4323 -1.0142
 5156SOL     OW16287   6.016   1.345   3.559  0.0654  0.8529  0.3028
 5156SOL    HW116288   5.977   1.296   3.481  1.8844 -1.3097  0.6696
 5156SOL    HW216289   5.958   1.331   3.639 -0.4079  0.9023 -0.0207
 5157SOL     OW16290   3.325   0.901   3.543  0.1246 -0.5277  0.4018
 5157SOL    HW116291   3.378   0.825   3.507  0.0747 -0.2880 -0.1846
 5157SOL    HW216292   3.248   0.920   3.482  1.3010  1.3322 -0.6017
 5158SOL     OW16293   2.357   3.149   3.042  0.1253  0.2796 -0.1167
 5158SOL    HW116294   2.364   3.247   3.021  2.0420  0.0104 -0.9416
 5158SOL    HW216295   2.444   3.117   3.079 -0.7975 -0.9246  1.1206
 5159SOL     OW16296   4.987   6.546   5.871  0.4120  0.3001  0.0565
 5159SOL    HW116297   5.020   6.453   5.887 -1.2992 -0.1677  1.2655
 5159SOL    HW216298   4.926   6.573   5.947 -0.5945  1.7039 -1.1875
 5160SOL     OW16299   4.150   1.268   5.150  0.0216  0.3657 -0.3667
 5160SOL    HW116300   4.094   1.343   5.113 -1.7817 -0.4767  0.5091
 5160SOL    HW216301   4.140   1.188   5.092 -1.7279 -0.5441  1.0934
 5161SOL     OW16302   4.986   0.783   6.252  0.2207 -0.1501 -0.0405
 5161SOL    HW116303   4.968   0.782   6.154 -0.8917 -2.0635  0.1152
 5161SOL    HW216304   5.038   0.701   6.276 -2.0194 -1.2661  1.3182
 5162SOL     OW16305   3.759   3.705   2.132 -0.1827 -0.1106  1.0460
 5162SOL    HW116306   3.689   3.649   2.177  0.5579 -0.2982  2.0065
 5162SOL    HW216307   3.844   3.697   2.183  0.9423 -0.9969 -0.8611
 5163SOL     OW16308   0.167   1.494   5.672 -0.2287 -0.4990 -0.2961
 5163SOL    HW116309   0.216   1.504   5.585  0.3839 -1.1032 -0.0324
 5163SOL    HW216310   0.100   1.568   5.681  0.3780  0.1343 -0.8349
 5164SOL     OW16311   6.543   2.152   4.933 -0.0995 -0.7935  0.0317
 5164SOL    HW116312   6.463   2.104   4.969 -0.4463  0.9349  1.7394
 5164SOL    HW216313   6.513   2.222   4.868  0.0067 -0.2533  0.5505
 5165SOL     OW16314   3.585   2.290   5.264  0.1050 -0.1093  0.0623
 5165SOL    HW116315   3.494   2.249   5.251 -0.5887  1.1823  0.7225
 5165SOL    HW216316   3.585   2.345   5.346  0.5106  2.5804 -1.6302
 5166SOL     OW16317   4.206   2.902   6.538 -0.2137  0.8598 -0.1573
 5166SOL    HW116318   4.193   2.811   6.577  1.0063  0.8520  0.2823
 5166SOL    HW216319   4.124   2.928   6.487 -1.5984  0.5786  1.8140
 5167SOL     OW16320   2.517   2.861   5.146 -0.2436 -0.0880  0.3138
 5167SOL    HW116321   2.572   2.784   5.114  0.1169  1.3192 -2.9224
 5167SOL    HW216322   2.577   2.931   5.186  0.0112  0.2298 -0.5898
 5168SOL     OW16323   5.324   6.193   3.219  0.1801  0.0147  0.0673
 5168SOL    HW116324   5.390   6.206   3.145 -0.3439  0.0629 -0.4018
 5168SOL    HW216325   5.235   6.170   3.180 -0.0219 -0.2984  0.7030
 5169SOL     OW16326   4.769   5.991   3.848  0.7156 -0.0127 -0.0443
 5169SOL    HW116327   4.689   6.047   3.872  2.1748  1.0156  2.9086
 5169SOL    HW216328   4.839   6.049   3.808  0.4467 -0.7350 -1.6592
 5170SOL     OW16329   0.340   0.531   4.562 -0.0746 -0.2198  0.0848
 5170SOL    HW116330   0.382   0.620   4.548  0.9542 -0.7698 -0.4211
 5170SOL    HW216331   0.262   0.541   4.624 -0.1927  1.0733 -0.2376
 5171SOL     OW16332   1.700   6.069   2.274  0.0460 -0.8138  0.0110
 5171SOL    HW116333   1.722   6.038   2.182 -1.7577  0.1949 -0.8190
 5171SOL    HW216334   1.601   6.065   2.287  0.0125  1.6541  0.9186
 5172SOL     OW16335   5.504   1.107   5.718  0.2103  0.5488  0.7104
 5172SOL    HW116336   5.444   1.115   5.797  0.3592 -0.1599  0.9012
 5172SOL    HW216337   5.522   1.198   5.681 -1.9520  0.7167 -0.0897
 5173SOL     OW16338   4.558   5.948   2.798 -0.0408 -0.1316  1.0525
 5173SOL    HW116339   4.520   6.024   2.746 -0.7136 -0.4545  1.0562
 5173SOL    HW216340   4.654   5.935   2.775 -0.6399 -1.1051 -1.1130
 5174SOL     OW16341   2.346   0.004   3.811 -0.4086 -0.1335  0.1817
 5174SOL    HW116342   2.367  -0.033   3.902 -0.5590  0.8659  0.6291
 5174SOL    HW216343   2.254  -0.026   3.784 -0.0540 -1.1069 -0.0093
 5175SOL     OW16344   3.647   2.756   4.084 -0.4904  0.1980 -0.6533
 5175SOL    HW116345   3.713   2.685   4.059 -1.0814  0.2771 -2.5998
 5175SOL    HW216346   3.581   2.768   4.010 -1.2573  1.8072  0.2333
 5176SOL     OW16347   0.595   3.598   2.009  0.3289 -0.2234  0.1139
 5176SOL    HW116348   0.541   3.676   2.040  0.8391 -0.0080  0.4601
 5176SOL    HW216349   0.686   3.602   2.049  0.7638 -0.3385 -0.8355
 5177SOL     OW16350   1.122   0.315   3.140 -0.4435  0.2401 -0.0588
 5177SOL    HW116351   1.066   0.397   3.128  0.0474  0.4009 -1.4135
 5177SOL    HW216352   1.197   0.335   3.202  0.8479  1.4659 -1.9080
 5178SOL     OW16353   6.599   1.981   2.144  0.4516 -0.0107 -0.6288
 5178SOL    HW116354   6.538   1.935   2.079 -0.9388  0.4712  0.2967
 5178SOL    HW216355   6.564   2.072   2.164  0.9672 -0.0733  0.6407
 5179SOL     OW16356   4.690   5.198   4.255  0.2724 -1.3485  0.3442
 5179SOL    HW116357   4.601   5.244   4.260  0.3766 -1.0812 -0.2438
 5179SOL    HW216358   4.715   5.165   4.346  0.4069  0.1697  0.8910
 5180SOL     OW16359   1.613   0.556   1.897 -0.1522  0.3274  0.3423
 5180SOL    HW116360   1.611   0.609   1.982  1.0326 -0.3075  0.7776
 5180SOL    HW216361   1.655   0.467   1.913 -1.5116 -0.5232 -0.5366
 5181SOL     OW16362   5.808   1.249   3.709  0.1078  0.2569  0.2403
 5181SOL    HW116363   5.762   1.179   3.654 -0.7076 -0.9192  2.3227
 5181SOL    HW216364   5.775   1.339   3.682 -2.6439 -0.4761  0.8725
 5182SOL     OW16365   0.155   4.251   3.419 -0.2666  0.3688 -0.5295
 5182SOL    HW116366   0.166   4.175   3.354  1.4895  0.5503 -0.4886
 5182SOL    HW216367   0.155   4.338   3.369  1.6955  0.5456 -0.2850
 5183SOL     OW16368   1.687   3.943   6.950 -0.5594 -0.4544 -0.1861
 5183SOL    HW116369   1.589   3.961   6.948 -0.5944 -0.6586 -0.4224
 5183SOL    HW216370   1.709   3.870   6.885 -0.3078 -0.6820  0.1470
 5184SOL     OW16371   6.925   1.656   6.028  0.1875 -0.0938 -0.2937
 5184SOL    HW116372   6.904   1.729   6.094  2.6489  0.8409 -0.4214
 5184SOL    HW216373   6.915   1.567   6.073  0.1284  0.4483  0.8105
 5185SOL     OW16374   4.465   5.586   4.985  0.1572  0.5020  0.0340
 5185SOL    HW116375   4.484   5.633   4.899 -1.7690  1.9857  0.3553
 5185SOL    HW216376   4.430   5.651   5.052 -1.4861 -1.1382  0.8767
 5186SOL     OW16377   3.205   3.029   1.515  0.4295 -0.6791 -0.1594
 5186SOL    HW116378   3.206   3.128   1.531  1.5544 -0.7193  0.0870
 5186SOL    HW216379   3.231   2.981   1.599 -2.8394 -1.3550  0.6091
 5187SOL     OW16380   3.977   5.376   5.545 -0.1461  0.1593  0.1177
 5187SOL    HW116381   4.065   5.360   5.589 -0.3138  0.9911  0.7754
 5187SOL    HW216382   3.972   5.324   5.459  1.7722  1.6054 -0.9356
 5188SOL     OW16383   2.528   5.601   3.521 -0.0150 -0.1484 -0.1577
 5188SOL    HW116384   2.628   5.611   3.527 -0.0889  0.5456 -0.0176
 5188SOL    HW216385   2.490   5.597   3.614 -0.2960  1.5291 -0.1742
 5189SOL     OW16386   0.163   0.994   3.033  0.0128  0.0584 -0.9591
 5189SOL    HW116387   0.139   0.916   3.090  0.7349 -0.3082 -1.1455
 5189SOL    HW216388   0.080   1.042   3.004 -0.3782  0.1978  0.3204
 5190SOL     OW16389   2.094   4.508   0.123  0.2419  0.0100  0.2288
 5190SOL    HW116390   2.172   4.516   0.061  0.7542 -0.7190  0.7555
 5190SOL    HW216391   2.101   4.577   0.194 -0.9833  1.6507 -1.1524
 5191SOL     OW16392   4.152   0.658   4.287  0.3096  0.1216 -0.3388
 5191SOL    HW116393   4.158   0.561   4.312 -0.5445  0.1069 -0.1791
 5191SOL    HW216394   4.111   0.710   4.362  1.1086  0.6733 -0.2753
 5192SOL     OW16395   3.869   5.014   0.496 -0.2261 -0.3559  0.1749
 5192SOL    HW116396   3.913   4.927   0.471 -0.4914 -0.4857  0.1549
 5192SOL    HW216397   3.787   5.026   0.441  0.2714  0.3245 -0.4304
 5193SOL     OW16398   3.570   1.527   5.003 -0.2828  0.2378  0.6332
 5193SOL    HW116399   3.510   1.471   4.945 -1.4047  0.6314  1.3735
 5193SOL    HW216400   3.553   1.623   4.985  1.5493  0.3875 -0.5436
 5194SOL     OW16401   3.153   2.730   3.233  0.3102 -0.4371 -0.2245
 5194SOL    HW116402   3.210   2.810   3.253  0.8634 -0.2383 -2.3307
 5194SOL    HW216403   3.114   2.695   3.318  1.0681  1.3009  0.9061
 5195SOL     OW16404   3.232   5.265   6.269  0.6403 -0.5511  0.1281
 5195SOL    HW116405   3.225   5.326   6.191 -1.2807 -2.0466 -0.9726
 5195SOL    HW216406   3.155   5.201   6.269  0.7720 -0.8772  3.0544
 5196SOL     OW16407   6.686   4.534   3.760 -0.9250 -0.1796  0.5671
 5196SOL    HW116408   6.605   4.516   3.705  0.0551  0.6405 -1.2042
 5196SOL    HW216409   6.706   4.453   3.817 -2.7676 -0.4958  0.8177
 5197SOL     OW16410   2.364   6.807   1.323 -0.6043  0.2150 -0.2929
 5197SOL    HW116411   2.372   6.708   1.338 -1.6745 -0.0206 -1.0978
 5197SOL    HW216412   2.438   6.854   1.369  0.3590 -1.0331 -0.5030
 5198SOL     OW16413   6.756   1.038   1.773  0.4488  0.7190 -0.1944
 5198SOL    HW116414   6.690   0.992   1.714 -0.4341  2.8484 -0.9735
 5198SOL    HW216415   6.843   1.047   1.724  1.2142 -1.5409  0.6063
 5199SOL     OW16416   6.455   0.946   5.527  0.2702  0.2600 -0.6843
 5199SOL    HW116417   6.531   0.988   5.577  0.2795  0.6691 -1.0408
 5199SOL    HW216418   6.481   0.932   5.432  0.1489 -0.2569 -0.6432
 5200SOL     OW16419   1.066   5.302   5.659 -0.3334 -0.3638  0.5555
 5200SOL    HW116420   1.021   5.268   5.577 -1.4945  0.9527  0.6162
 5200SOL    HW216421   1.128   5.376   5.635  0.3043 -0.8311  0.7245
 5201SOL     OW16422   5.237   3.400   4.452  0.2378 -1.3339  0.4243
 5201SOL    HW116423   5.208   3.473   4.390 -0.3558 -1.6242  0.3544
 5201SOL    HW216424   5.160   3.373   4.510  0.8609 -0.8793  1.4833
 5202SOL     OW16425   6.549   5.741   0.426  0.9285  0.4043  0.2471
 5202SOL    HW116426   6.458   5.699   0.425  1.6681 -1.2753  0.0350
 5202SOL    HW216427   6.567   5.781   0.516  0.8302 -1.2464  1.0243
 5203SOL     OW16428   4.843   5.215   0.205 -0.3928  0.7686 -0.3290
 5203SOL    HW116429   4.831   5.117   0.219  1.8658  0.6747  1.4719
 5203SOL    HW216430   4.939   5.240   0.219 -1.0267  3.3423  0.0215
 5204SOL     OW16431   5.849   4.054   3.067  0.0919  0.2645  0.1677
 5204SOL    HW116432   5.777   4.077   3.001 -0.4747 -0.0632  0.6613
 5204SOL    HW216433   5.844   3.957   3.089  0.4593  0.3169  0.4762
 5205SOL     OW16434   3.845   5.048   3.507  0.1050 -0.2932 -0.3465
 5205SOL    HW116435   3.938   5.015   3.523  1.0390  1.9487 -0.7397
 5205SOL    HW216436   3.848   5.128   3.446 -1.7569  1.6367  1.8733
 5206SOL     OW16437   0.708   6.899   0.059 -0.7215  0.1332  0.7411
 5206SOL    HW116438   0.716   6.908  -0.040 -0.1373  1.6687  0.8948
 5206SOL    HW216439   0.628   6.949   0.091 -2.1126 -2.0704  0.8661
 5207SOL     OW16440   3.460   5.545   5.188 -0.4406  0.3349 -0.1939
 5207SOL    HW116441   3.416   5.633   5.168 -0.1011  0.5984  0.1976
 5207SOL    HW216442   3.442   5.480   5.114  0.3376  1.1098 -1.0833
 5208SOL     OW16443   5.728   6.570   6.961  0.9053 -0.1990  0.5981
 5208SOL    HW116444   5.740   6.607   7.054  2.0317 -1.9403  1.1993
 5208SOL    HW216445   5.815   6.574   6.913  0.2124  1.1561 -0.6049
 5209SOL     OW16446   5.286   0.578   2.561 -0.5651 -0.2848 -0.0687
 5209SOL    HW116447   5.378   0.618   2.566 -0.6007  0.2026 -2.2781
 5209SOL    HW216448   5.270   0.520   2.641  1.9103 -0.9050  0.0547
 5210SOL     OW16449   6.507   1.965   0.257  0.0164  0.1542 -0.6445
 5210SOL    HW116450   6.417   2.008   0.249 -0.6336 -0.8566  0.8265
 5210SOL    HW216451   6.512   1.888   0.194 -1.2695 -1.5456  1.2099
 5211SOL     OW16452   3.233   4.014   4.563  0.3920  0.0795  0.4443
 5211SOL    HW116453   3.174   3.934   4.562  0.5447 -0.0927  1.9062
 5211SOL    HW216454   3.256   4.036   4.658  1.9103  0.7037 -0.0446
 5212SOL     OW16455   5.680   5.051   4.862  0.2932  0.3161  0.3539
 5212SOL    HW116456   5.726   5.140   4.860  1.6168 -0.3436 -0.0375
 5212SOL    HW216457   5.672   5.020   4.956  2.7139 -0.5354  0.3456
 5213SOL     OW16458   1.935   0.737   3.174 -0.2845  0.1669 -0.0164
 5213SOL    HW116459   1.947   0.775   3.265  0.9954 -1.2053  0.4391
 5213SOL    HW216460   1.995   0.785   3.110 -2.0596  1.9544 -0.4626
 5214SOL     OW16461   5.976   3.105   3.532  0.5963 -0.3986 -0.2944
 5214SOL    HW116462   5.877   3.112   3.542  0.5057 -2.6259  0.7384
 5214SOL    HW216463   6.004   3.010   3.536  2.6612  0.0407 -2.1781
 5215SOL     OW16464   0.811   4.897   1.165  0.1348  0.3073  0.0807
 5215SOL    HW116465   0.866   4.835   1.108  0.3661  0.5366  0.0494
 5215SOL    HW216466   0.753   4.953   1.106  2.4389  2.5984 -0.2388
 5216SOL     OW16467   6.847   3.317   3.245 -0.2372 -0.0989  0.6570
 5216SOL    HW116468   6.902   3.275   3.172 -0.3309 -0.0139  0.5383
 5216SOL    HW216469   6.752   3.324   3.215 -0.0310  1.2191  0.2337
 5217SOL     OW16470   0.431   1.152   3.625  0.3178 -0.2403  0.4044
 5217SOL    HW116471   0.460   1.212   3.699  2.7052 -2.3771  1.3587
 5217SOL    HW216472   0.331   1.142   3.627  0.2000  0.8355  2.4274
 5218SOL     OW16473   0.237   4.328   2.855 -0.5771  0.1058  0.3003
 5218SOL    HW116474   0.225   4.265   2.778 -0.4668 -1.0497  1.2022
 5218SOL    HW216475   0.166   4.399   2.851 -0.8144 -0.1641 -0.6346
 5219SOL     OW16476   0.538   3.216   6.832 -0.7064  0.0654  0.4272
 5219SOL    HW116477   0.512   3.303   6.791  0.2035 -0.2960 -0.9594
 5219SOL    HW216478   0.621   3.181   6.789 -0.9675 -1.4291  1.0406
 5220SOL     OW16479   0.133   0.107   0.430  0.3860  0.3084  0.1056
 5220SOL    HW116480   0.103   0.162   0.507  1.3302 -1.3248  1.7229
 5220SOL    HW216481   0.107   0.152   0.344 -1.0341  1.9881  1.3460
 5221SOL     OW16482   2.192   5.026   6.478  0.0764  0.1058  0.8610
 5221SOL    HW116483   2.113   4.972   6.506 -2.1596  2.2442 -0.8809
 5221SOL    HW216484   2.214   5.005   6.382 -0.3390  1.6418  0.3995
 5222SOL     OW16485   4.552   4.417   4.088  0.0214  0.4199  0.1525
 5222SOL    HW116486   4.480   4.480   4.118 -0.0153  0.2425  0.4379
 5222SOL    HW216487   4.589   4.368   4.167 -1.3041 -1.3665 -0.2657
 5223SOL     OW16488   1.526   5.848   1.485  0.1532 -0.3177 -0.0946
 5223SOL    HW116489   1.491   5.883   1.571  5.0832  0.4416  1.9506
 5223SOL    HW216490   1.554   5.924   1.426 -1.1667 -0.8591 -1.4923
 5224SOL     OW16491   1.438   3.217   1.194 -0.1114 -0.0741 -0.7076
 5224SOL    HW116492   1.387   3.147   1.144  0.0868 -0.3518 -0.5266
 5224SOL    HW216493   1.529   3.182   1.217 -1.0804 -1.0263  2.2093
 5225SOL     OW16494   3.595   4.206   3.098 -0.1530 -0.2696 -0.0284
 5225SOL    HW116495   3.644   4.189   3.183 -1.6858  0.5433  1.0532
 5225SOL    HW216496   3.608   4.302   3.070 -0.3765 -0.2981 -0.2358
 5226SOL     OW16497   2.041   1.698   5.043  0.5531  0.3612  0.1842
 5226SOL    HW116498   2.117   1.646   5.005 -1.0962 -1.4871 -0.8248
 5226SOL    HW216499   2.034   1.786   4.997  0.6672 -0.4472 -1.4583
 5227SOL     OW16500   6.459   0.088   6.952  0.7819 -0.2276  0.0577
 5227SOL    HW116501   6.434   0.054   7.042 -1.3101 -0.2195 -0.4701
 5227SOL    HW216502   6.413   0.176   6.935 -0.0209 -0.9031 -1.5198
 5228SOL     OW16503   1.852   1.934   1.929 -0.2065  0.4607  0.1875
 5228SOL    HW116504   1.803   2.003   1.876  0.5541 -0.4014 -1.7374
 5228SOL    HW216505   1.820   1.935   2.024 -2.7968  0.9904 -0.6271
 5229SOL     OW16506   1.931   4.128   6.623 -0.4425  0.6410 -0.6225
 5229SOL    HW116507   1.978   4.164   6.703 -1.5081 -1.2016  0.8983
 5229SOL    HW216508   1.995   4.076   6.566  0.0101  0.7480 -0.2100
 5230SOL     OW16509   0.066   5.288   0.122 -0.2800 -0.5738 -0.2152
 5230SOL    HW116510   0.034   5.365   0.177 -1.1100 -0.8199 -0.3353
 5230SOL    HW216511  -0.007   5.220   0.115  1.0183 -2.2226  1.3962
 5231SOL     OW16512   3.450   0.857   1.758 -0.5435  0.1438 -0.1941
 5231SOL    HW116513   3.406   0.767   1.750 -2.5792  1.1337 -0.9291
 5231SOL    HW216514   3.530   0.850   1.818 -0.9109 -2.0487  0.1276
 5232SOL     OW16515   3.680   2.442   6.595  0.2794 -0.2461  0.4694
 5232SOL    HW116516   3.692   2.519   6.658 -1.2192  1.1589 -0.8613
 5232SOL    HW216517   3.607   2.463   6.530  1.0529 -2.0750 -1.0939
 5233SOL     OW16518   6.986   2.345   5.888 -0.8510  0.0650 -0.2286
 5233SOL    HW116519   6.935   2.313   5.808  0.4239 -1.6108 -0.4328
 5233SOL    HW216520   6.984   2.275   5.960  0.7804  0.0973 -0.1071
 5234SOL     OW16521   2.589   2.188   0.209 -0.6200 -0.2704 -0.0769
 5234SOL    HW116522   2.508   2.157   0.159 -1.2201 -0.1394  0.7816
 5234SOL    HW216523   2.581   2.160   0.305  0.3844 -0.2980  0.0062
 5235SOL     OW16524   0.938   2.745   6.185 -0.2831 -0.0832  0.2003
 5235SOL    HW116525   0.934   2.834   6.140 -0.7419 -0.3575 -0.3093
 5235SOL    HW216526   0.902   2.753   6.278 -0.5670  0.2091  0.0657
 5236SOL     OW16527   5.290   6.399   2.421 -0.1561 -0.3335  0.7121
 5236SOL    HW116528   5.345   6.461   2.365 -1.8647 -0.1143 -0.8481
 5236SOL    HW216529   5.348   6.326   2.458  1.2850  0.2607 -0.2872
 5237SOL     OW16530   1.040   4.492   6.485 -0.0875 -0.1114  0.3735
 5237SOL    HW116531   1.073   4.537   6.402 -1.2980  1.1565  0.5373
 5237SOL    HW216532   0.954   4.445   6.465 -1.2174  1.5213  1.2273
 5238SOL     OW16533   6.420   0.509   2.599  0.2328 -0.6576  0.0833
 5238SOL    HW116534   6.436   0.495   2.697  0.5484 -1.3259 -0.0575
 5238SOL    HW216535   6.419   0.608   2.580  0.4900 -0.5245  0.7044
 5239SOL     OW16536   2.290   2.633   0.630  0.4458 -0.1596  0.0744
 5239SOL    HW116537   2.208   2.663   0.583  0.8021  0.7863  0.0313
 5239SOL    HW216538   2.356   2.597   0.564  1.1037  1.5338 -0.2412
 5240SOL     OW16539   5.223   5.613   0.693 -0.3815  0.4239  0.1199
 5240SOL    HW116540   5.234   5.520   0.727 -1.5162  0.2668  0.0780
 5240SOL    HW216541   5.248   5.678   0.766 -0.2468  0.0939  0.3702
 5241SOL     OW16542   0.885   6.432   1.159 -0.1143  0.5583  0.1023
 5241SOL    HW116543   0.943   6.490   1.216 -0.7605  1.9171 -0.5776
 5241SOL    HW216544   0.921   6.429   1.066  0.6227 -1.2027  0.4084
 5242SOL     OW16545   4.067   6.027   1.097  0.4354  0.2870  0.2644
 5242SOL    HW116546   4.075   6.057   1.192 -1.6061 -0.3021  0.6871
 5242SOL    HW216547   4.062   5.927   1.095 -2.0699  0.3590 -0.1532
 5243SOL     OW16548   6.188   0.716   6.861 -0.0611 -0.4668 -0.3761
 5243SOL    HW116549   6.284   0.693   6.876  0.1153  0.1285 -0.5482
 5243SOL    HW216550   6.181   0.810   6.827 -0.9135  1.2141  3.7701
 5244SOL     OW16551   4.811   2.338   3.242  0.0913  0.0423  0.0339
 5244SOL    HW116552   4.795   2.434   3.219 -1.1265  0.2160  1.4522
 5244SOL    HW216553   4.741   2.281   3.198  1.1519 -0.3001 -1.2816
 5245SOL     OW16554   5.735   4.120   2.229  0.2308  0.2663  0.2010
 5245SOL    HW116555   5.762   4.198   2.285  1.1065  0.2153 -0.1311
 5245SOL    HW216556   5.746   4.036   2.282  0.6801  0.2513  0.0895
 5246SOL     OW16557   0.848   4.424   1.938 -0.4249 -0.2855 -0.4677
 5246SOL    HW116558   0.829   4.338   1.986 -1.2646  0.4580  0.5768
 5246SOL    HW216559   0.874   4.404   1.844 -0.2013 -1.7047 -0.1299
 5247SOL     OW16560   0.172   4.790   0.967 -0.4613  0.0677  0.3183
 5247SOL    HW116561   0.267   4.758   0.960  0.1431  2.0607 -2.5256
 5247SOL    HW216562   0.113   4.729   0.913 -0.8116 -0.9421  1.7678
 5248SOL     OW16563   2.134   0.801   6.472  0.4028  0.0357 -0.4143
 5248SOL    HW116564   2.167   0.794   6.378  2.8163 -2.0443  0.4678
 5248SOL    HW216565   2.043   0.761   6.478 -0.5937  1.8377 -2.1246
 5249SOL     OW16566   0.942   1.443   6.538  0.3607 -0.1859  0.1546
 5249SOL    HW116567   0.992   1.509   6.483  2.9346 -0.4425  1.9522
 5249SOL    HW216568   0.897   1.490   6.614 -0.5141 -0.1762 -0.3606
 5250SOL     OW16569   5.517   4.421   0.276  0.3757  0.1711  0.5162
 5250SOL    HW116570   5.437   4.466   0.237  0.8879  1.2359  0.6683
 5250SOL    HW216571   5.560   4.364   0.207 -0.0847  0.1742  0.2191
 5251SOL     OW16572   4.990   6.151   1.497  0.2996  0.1307  0.1639
 5251SOL    HW116573   4.955   6.227   1.442 -1.1922  0.2160  1.1822
 5251SOL    HW216574   4.975   6.170   1.594  3.3553  0.2174  0.7078
 5252SOL     OW16575   2.476   5.884   3.950 -0.1050  0.3000 -0.1832
 5252SOL    HW116576   2.390   5.834   3.961 -0.8030  1.5803  0.2877
 5252SOL    HW216577   2.525   5.886   4.037 -0.6033  1.3693  0.0795
 5253SOL     OW16578   1.207   1.441   4.680  0.4329 -0.1883 -0.1528
 5253SOL    HW116579   1.299   1.406   4.660  0.4473 -0.0953 -0.2475
 5253SOL    HW216580   1.141   1.397   4.619  0.7370  1.6236 -1.8771
 5254SOL     OW16581   1.710   6.876   0.709  0.4626 -0.1694  0.1146
 5254SOL    HW116582   1.733   6.905   0.802 -0.8280  0.0677  0.3787
 5254SOL    HW216583   1.780   6.908   0.646 -0.1328  2.3162  0.6037
 5255SOL     OW16584   2.534   2.300   6.312 -0.1836  0.4380  0.3314
 5255SOL    HW116585   2.626   2.275   6.344 -1.2617 -2.0534  1.7618
 5255SOL    HW216586   2.473   2.311   6.390 -1.3204  1.2045 -0.6270
 5256SOL     OW16587   2.127   1.579   6.481  0.5182  0.1792 -0.1609
 5256SOL    HW116588   2.057   1.612   6.417  1.0334 -1.1171 -1.4347
 5256SOL    HW216589   2.217   1.590   6.439  0.9292 -0.0195  0.6593
 5257SOL     OW16590   5.423   5.613   1.489 -0.1844 -0.5143  0.3129
 5257SOL    HW116591   5.472   5.590   1.573  1.8796  0.7653 -0.4604
 5257SOL    HW216592   5.325   5.611   1.506  0.1663 -0.8557  2.5983
 5258SOL     OW16593   1.264   0.230   5.617 -0.2497 -0.7089 -0.2439
 5258SOL    HW116594   1.270   0.325   5.588 -0.2920  0.2663  2.6261
 5258SOL    HW216595   1.168   0.203   5.621 -0.2297 -0.9436 -1.2275
 5259SOL     OW16596   2.419   2.051   0.856  0.2710 -0.1605 -0.0891
 5259SOL    HW116597   2.330   2.094   0.872  0.3428  0.3173 -0.9281
 5259SOL    HW216598   2.455   2.081   0.768  1.1952 -0.4766  0.1743
 5260SOL     OW16599   6.550   6.501   4.677  0.4984 -0.1840 -0.6713
 5260SOL    HW116600   6.452   6.523   4.684  0.2051 -0.6579 -2.6233
 5260SOL    HW216601   6.585   6.533   4.589  1.8304 -1.0202 -0.4692
 5261SOL     OW16602   2.233   5.671   0.505  0.0384  0.1010 -0.0389
 5261SOL    HW116603   2.275   5.698   0.592 -0.2728 -0.5399  0.3158
 5261SOL    HW216604   2.282   5.592   0.468  0.3944  0.5835 -0.6364
 5262SOL     OW16605   5.302   4.576   3.255 -0.3218 -0.3661 -0.3968
 5262SOL    HW116606   5.211   4.618   3.246 -0.7981 -1.6030 -1.7178
 5262SOL    HW216607   5.293   4.476   3.251  1.1740 -0.4908 -1.2992
 5263SOL     OW16608   4.960   2.210   3.024  0.0234 -0.5571 -0.2315
 5263SOL    HW116609   4.942   2.271   2.948 -1.5989 -0.7430 -0.0397
 5263SOL    HW216610   4.941   2.257   3.110 -0.8195 -1.1684 -0.0666
 5264SOL     OW16611   3.001   1.024   1.847  0.3971 -0.5978 -0.0947
 5264SOL    HW116612   2.904   1.001   1.856  0.1064  0.3059 -0.8273
 5264SOL    HW216613   3.043   0.965   1.777  0.3035 -0.7513 -0.0225
 5265SOL     OW16614   4.508   5.387   5.147 -0.4492 -0.0567  0.3217
 5265SOL    HW116615   4.536   5.421   5.237  2.8087  0.6090 -0.8184
 5265SOL    HW216616   4.499   5.464   5.084  0.4237 -0.7190 -0.6544
 5266SOL     OW16617   6.737   4.287   6.324  0.2149  0.5686 -0.2491
 5266SOL    HW116618   6.781   4.377   6.325  1.5351 -0.0540  0.4272
 5266SOL    HW216619   6.657   4.288   6.384 -0.6986  1.7028 -1.4372
 5267SOL     OW16620   6.130   5.446   4.866  0.1561  0.0499  0.0874
 5267SOL    HW116621   6.097   5.376   4.802 -0.5028  0.1986  0.2571
 5267SOL    HW216622   6.201   5.501   4.821  1.4656 -1.3809  0.2875
 5268SOL     OW16623   0.209   4.156   6.121 -0.0017  0.1135 -0.2336
 5268SOL    HW116624   0.234   4.133   6.027 -1.2239  1.5482 -0.9609
 5268SOL    HW216625   0.285   4.136   6.182  0.7273 -1.0823 -1.4752
 5269SOL     OW16626   0.475   1.350   4.589  0.5146  0.1121  0.3528
 5269SOL    HW116627   0.505   1.301   4.507  0.0810  1.0493 -0.4000
 5269SOL    HW216628   0.429   1.434   4.561  0.5862  0.5750  1.5847
 5270SOL     OW16629   4.393   4.542   2.299  0.1703  0.0774  0.2112
 5270SOL    HW116630   4.366   4.568   2.391  1.2439  0.2470  0.4895
 5270SOL    HW216631   4.444   4.616   2.256  4.6564 -1.8504  1.5794
 5271SOL     OW16632   6.704   3.810   6.972 -0.2229 -0.1569  0.1782
 5271SOL    HW116633   6.616   3.834   6.931 -0.2972 -0.7342 -0.0085
 5271SOL    HW216634   6.689   3.754   7.054 -0.0559  0.5043  0.6641
 5272SOL     OW16635   2.359   4.355   4.818  0.0983 -0.1078  0.5747
 5272SOL    HW116636   2.337   4.260   4.799  1.1771 -0.4183  0.7832
 5272SOL    HW216637   2.307   4.386   4.898 -0.6486 -0.3479  0.1937
 5273SOL     OW16638   1.007   0.411   5.913 -0.5169  0.4335 -0.3985
 5273SOL    HW116639   0.924   0.418   5.857  0.0617  1.3254 -1.1914
 5273SOL    HW216640   0.985   0.429   6.008 -1.2455  0.6136 -0.5944
 5274SOL     OW16641   5.507   0.453   1.967  0.1163  0.1446 -0.2006
 5274SOL    HW116642   5.547   0.531   1.919 -0.1617  0.7510  0.5474
 5274SOL    HW216643   5.413   0.474   1.993  0.6396  0.3159  1.6875
 5275SOL     OW16644   2.907   3.014   4.443  0.0398  0.6426  0.0679
 5275SOL    HW116645   2.812   2.995   4.467  0.5020 -2.4047 -0.1143
 5275SOL    HW216646   2.912   3.034   4.345 -0.2059 -1.9745 -0.5662
 5276SOL     OW16647   4.275   1.420   2.157  0.2532  0.2282  0.4632
 5276SOL    HW116648   4.233   1.333   2.131 -0.8464  0.4856  1.2923
 5276SOL    HW216649   4.373   1.418   2.134  0.0675 -0.8747 -0.3403
 5277SOL     OW16650   5.249   6.492   4.406  0.0322  0.5139 -0.8001
 5277SOL    HW116651   5.234   6.472   4.502 -1.7655  1.9552 -0.7114
 5277SOL    HW216652   5.172   6.457   4.352  0.2517  1.0484 -1.4825
 5278SOL     OW16653   4.395   0.135   3.623  0.3750  0.3393  0.7751
 5278SOL    HW116654   4.405   0.035   3.620 -0.1089  0.3139 -1.0787
 5278SOL    HW216655   4.335   0.160   3.699 -0.8453 -0.9321  0.2667
 5279SOL     OW16656   0.945   1.932   6.406  0.6925 -0.0638 -0.0988
 5279SOL    HW116657   0.869   1.867   6.395  0.3287  0.5302 -1.3549
 5279SOL    HW216658   0.916   2.007   6.465  0.7941 -0.5487  0.5802
 5280SOL     OW16659   5.792   6.045   2.032  0.3512  0.1858  0.7943
 5280SOL    HW116660   5.737   5.982   2.087  0.4124 -0.8129 -0.2656
 5280SOL    HW216661   5.811   6.128   2.086 -2.0603  0.5188  1.2376
 5281SOL     OW16662   4.914   2.006   5.150  0.3368 -0.4745 -0.5603
 5281SOL    HW116663   5.013   1.993   5.152  0.6785  1.7764 -0.7947
 5281SOL    HW216664   4.891   2.086   5.094 -1.4636  0.1658  0.9662
 5282SOL     OW16665   0.214   6.923   2.017  0.2568  0.5950  0.4456
 5282SOL    HW116666   0.129   6.877   1.990 -0.1895  1.2666  0.6809
 5282SOL    HW216667   0.206   7.021   1.998  2.0961  0.3009 -2.3456
 5283SOL     OW16668   6.235   5.677   6.439  0.1861  0.1887  0.0303
 5283SOL    HW116669   6.296   5.607   6.403 -0.5202 -1.1741  1.3618
 5283SOL    HW216670   6.196   5.730   6.364  1.1396 -0.4994 -0.9753
 5284SOL     OW16671   0.089   6.073   1.680 -0.3655  0.4528  0.0061
 5284SOL    HW116672   0.101   5.975   1.664  0.8975  0.8616 -1.8653
 5284SOL    HW216673   0.162   6.124   1.633 -3.3689  2.5475 -2.8243
 5285SOL     OW16674   4.664   5.288   6.473 -0.0671 -0.2630 -0.3347
 5285SOL    HW116675   4.586   5.271   6.532  0.7480 -0.5701  0.6877
 5285SOL    HW216676   4.748   5.286   6.527  0.5363  1.7543 -1.0886
 5286SOL     OW16677   1.614   3.678   3.787  0.6000 -0.0784  0.4082
 5286SOL    HW116678   1.565   3.723   3.712 -0.0963  2.7263  2.3987
 5286SOL    HW216679   1.591   3.581   3.787 -3.4156  0.6902 -0.0447
 5287SOL     OW16680   4.595   0.092   1.859  0.8057  0.7916  0.1185
 5287SOL    HW116681   4.658   0.067   1.785 -1.2426 -1.8190 -0.9167
 5287SOL    HW216682   4.591   0.018   1.926 -3.3749 -0.7591 -1.5196
 5288SOL     OW16683   2.195   6.174   5.407  0.3784  0.6974 -0.6024
 5288SOL    HW116684   2.275   6.204   5.458  0.2002 -0.7542  0.6168
 5288SOL    HW216685   2.224   6.133   5.320  1.0038 -0.1221 -0.0214
 5289SOL     OW16686   5.048   0.648   5.691  0.1702  0.0548 -0.4929
 5289SOL    HW116687   4.957   0.681   5.713 -0.8695 -2.4751 -0.7087
 5289SOL    HW216688   5.097   0.718   5.638 -1.6832  1.3689 -0.5655
 5290SOL     OW16689   2.184   0.912   3.645  0.2596 -0.5589  0.3625
 5290SOL    HW116690   2.187   0.852   3.566  1.5540  0.0707 -0.1052
 5290SOL    HW216691   2.261   0.976   3.641 -1.5306  1.7360  0.3712
 5291SOL     OW16692   6.225   3.389   0.425  0.5250 -0.2722 -0.7594
 5291SOL    HW116693   6.224   3.345   0.335 -0.8275 -1.0352 -0.3918
 5291SOL    HW216694   6.297   3.459   0.427  0.1867  0.1674 -2.6178
 5292SOL     OW16695   5.642   0.703   3.875  0.1309  0.5551  0.3429
 5292SOL    HW116696   5.716   0.753   3.830 -0.4627  0.8996 -0.2578
 5292SOL    HW216697   5.653   0.605   3.858 -0.0051  0.6731 -0.4130
 5293SOL     OW16698   6.072   5.405   1.927  0.1549  0.6674 -0.1319
 5293SOL    HW116699   6.125   5.333   1.883 -0.7313  0.4708 -0.9208
 5293SOL    HW216700   6.041   5.471   1.858 -0.2910  0.9919  0.3678
 5294SOL     OW16701   5.693   4.237   1.529  0.2188 -0.1579 -0.3107
 5294SOL    HW116702   5.693   4.332   1.499  0.5779 -0.0356  0.0621
 5294SOL    HW216703   5.778   4.217   1.578 -1.2949  0.3528  2.7752
 5295SOL     OW16704   1.611   5.249   5.259  0.1635  0.6645 -0.2832
 5295SOL    HW116705   1.611   5.168   5.200 -0.2016  0.6652 -0.2834
 5295SOL    HW216706   1.689   5.307   5.235 -0.4163  1.0543 -1.3052
 5296SOL     OW16707   3.560   5.224   1.798 -0.2958  0.3376 -0.7104
 5296SOL    HW116708   3.502   5.171   1.860  0.0224  0.7034 -0.0972
 5296SOL    HW216709   3.560   5.180   1.708 -3.6186  1.6933 -1.5452
 5297SOL     OW16710   4.594   2.362   5.197  0.3568 -0.1420 -0.9501
 5297SOL    HW116711   4.524   2.325   5.137  0.5915  2.0548 -2.7161
 5297SOL    HW216712   4.662   2.292   5.216  0.0280 -1.0566 -2.8954
 5298SOL     OW16713   0.501   2.788   3.119 -0.8620  0.8272  0.2439
 5298SOL    HW116714   0.423   2.851   3.123 -1.2145  0.3883  0.2883
 5298SOL    HW216715   0.468   2.695   3.102 -0.5435  0.2693  2.4104
 5299SOL     OW16716   2.038   5.368   4.663  0.4108  0.3281 -0.3270
 5299SOL    HW116717   2.107   5.438   4.678  2.1865 -1.1363 -1.2399
 5299SOL    HW216718   2.081   5.285   4.628 -1.8673 -0.5401 -1.3409
 5300SOL     OW16719   1.968   5.323   5.637  0.1337 -0.2697 -0.1521
 5300SOL    HW116720   1.981   5.309   5.735  0.3099  0.6315 -0.0352
 5300SOL    HW216721   2.008   5.247   5.586  2.5085  0.5636  0.3612
 5301SOL     OW16722   1.458   0.063   3.560 -0.2228 -0.3117 -0.2408
 5301SOL    HW116723   1.514   0.140   3.592 -0.5564  0.8340 -2.2135
 5301SOL    HW216724   1.362   0.086   3.570 -0.3514 -1.3088  0.9579
 5302SOL     OW16725   1.744   2.043   6.316 -0.0551 -0.0664  0.5265
 5302SOL    HW116726   1.836   2.008   6.336  0.0271 -0.9113 -1.1063
 5302SOL    HW216727   1.681   2.013   6.387  0.8138 -0.0039  1.3452
 5303SOL     OW16728   2.056   1.348   5.857 -0.2838  0.0364 -0.5852
 5303SOL    HW116729   1.980   1.373   5.917 -0.2335 -0.4786 -0.3026
 5303SOL    HW216730   2.094   1.431   5.815  0.7394  0.5857  1.3449
 5304SOL     OW16731   2.082   6.944   3.723  0.1376 -0.4185  0.1438
 5304SOL    HW116732   2.051   6.933   3.628  0.1983 -1.2775  0.2125
 5304SOL    HW216733   2.006   6.922   3.785  0.5589 -1.4774  0.3022
 5305SOL     OW16734   0.026   4.927   3.772 -0.5037 -0.3764 -0.4952
 5305SOL    HW116735   0.032   4.961   3.678 -1.1216 -0.9341 -0.7446
 5305SOL    HW216736  -0.022   4.840   3.773 -1.0784 -0.0653  0.4162
 5306SOL     OW16737   1.513   6.028   6.445  0.1276  0.6005  0.0279
 5306SOL    HW116738   1.425   6.038   6.399  0.7438  2.6499 -0.8359
 5306SOL    HW216739   1.557   5.942   6.415 -0.4977  0.7655 -1.4686
 5307SOL     OW16740   5.103   0.688   2.403  0.0666 -0.2396  0.1563
 5307SOL    HW116741   5.041   0.619   2.366  0.8021 -0.5722 -0.4891
 5307SOL    HW216742   5.173   0.642   2.459  0.6377 -0.0449 -0.3833
 5308SOL     OW16743   5.083   0.260   4.219 -0.3008 -0.4286 -0.0691
 5308SOL    HW116744   5.147   0.327   4.180  1.4313 -2.1362 -0.3209
 5308SOL    HW216745   5.100   0.250   4.317  0.6813 -1.7603 -0.3576
 5309SOL     OW16746   2.230   6.419   0.744  0.2497 -0.4715  0.1005
 5309SOL    HW116747   2.240   6.518   0.745 -2.6406 -0.1006 -0.2316
 5309SOL    HW216748   2.274   6.382   0.662 -3.0079  1.2301 -2.6689
 5310SOL     OW16749   2.547   1.124   0.180 -0.1227  0.5991 -0.2001
 5310SOL    HW116750   2.499   1.163   0.101  0.3349  0.8478 -0.3532
 5310SOL    HW216751   2.487   1.128   0.260 -0.4849  0.6035 -0.4649
 5311SOL     OW16752   5.879   5.972   5.742 -0.2018 -0.0737 -0.0388
 5311SOL    HW116753   5.803   5.980   5.806 -0.7529  1.6648 -0.8536
 5311SOL    HW216754   5.891   5.876   5.717 -0.8677 -0.6088  1.5746
 5312SOL     OW16755   1.032   1.258   6.942  0.5247 -0.2874  0.2721
 5312SOL    HW116756   0.972   1.292   7.014  0.3549  1.1922 -0.5271
 5312SOL    HW216757   0.977   1.221   6.867  0.6110  0.3104 -0.0970
 5313SOL     OW16758   5.121   3.632   1.716  0.0511 -0.1410 -0.1584
 5313SOL    HW116759   5.065   3.715   1.717 -0.6169 -0.5985  0.2034
 5313SOL    HW216760   5.116   3.590   1.625 -1.5699 -1.1062  0.3463
 5314SOL     OW16761   4.608   2.213   2.065 -0.4122  0.1739  0.4559
 5314SOL    HW116762   4.579   2.195   2.159 -0.9112  0.6286  0.3923
 5314SOL    HW216763   4.561   2.150   2.003 -0.0624 -0.1444  0.5125
 5315SOL     OW16764   5.046   6.042   4.742 -0.7641  0.1399  0.2549
 5315SOL    HW116765   5.105   6.072   4.817 -0.0931  1.6461 -0.8205
 5315SOL    HW216766   5.096   6.048   4.656 -2.4372  1.4455 -0.6870
 5316SOL     OW16767   6.278   6.427   3.041  0.1131 -0.5149 -0.0799
 5316SOL    HW116768   6.198   6.448   3.097  1.1632  0.6687  1.0407
 5316SOL    HW216769   6.277   6.483   2.958  0.1511  0.0554  0.2979
 5317SOL     OW16770   0.237   6.352   2.929 -0.4331 -0.3284  0.1156
 5317SOL    HW116771   0.318   6.304   2.960  0.2825  0.9836  0.3613
 5317SOL    HW216772   0.240   6.447   2.961 -2.6156 -0.5326  1.0772
 5318SOL     OW16773   2.005   6.137   1.769  0.1066  0.1235 -0.0248
 5318SOL    HW116774   1.926   6.154   1.710 -1.4648 -0.6381  1.7542
 5318SOL    HW216775   2.031   6.041   1.764 -0.9425 -0.2779  1.5032
 5319SOL     OW16776   5.437   3.332   4.616 -0.1203  0.4481 -0.6842
 5319SOL    HW116777   5.362   3.376   4.567  0.2213  1.9999  0.1152
 5319SOL    HW216778   5.513   3.396   4.626 -0.4855  0.5691  2.5419
 5320SOL     OW16779   6.428   1.830   1.771  0.2976  0.5835  0.1518
 5320SOL    HW116780   6.410   1.772   1.691 -0.2732 -0.4523  1.0080
 5320SOL    HW216781   6.473   1.914   1.741 -0.6840  0.6151 -1.3619
 5321SOL     OW16782   2.425   1.341   0.501 -0.0446  0.4321 -0.0236
 5321SOL    HW116783   2.362   1.341   0.579  1.3483  1.4258  1.1568
 5321SOL    HW216784   2.474   1.254   0.498  1.1565  1.0230  1.3251
 5322SOL     OW16785   2.307   5.733   6.542 -0.6961 -0.1573 -0.3018
 5322SOL    HW116786   2.386   5.792   6.529 -1.4167  1.4524  2.0312
 5322SOL    HW216787   2.325   5.668   6.616 -1.2908 -0.2517 -0.2339
 5323SOL     OW16788   0.601   3.091   3.732 -0.4158  0.7285  0.2227
 5323SOL    HW116789   0.617   3.141   3.817 -0.1664 -0.0260  0.6264
 5323SOL    HW216790   0.678   3.106   3.670  0.0895  0.1176  0.6979
 5324SOL     OW16791   6.328   6.841   4.600  0.2654 -0.1018 -0.4362
 5324SOL    HW116792   6.391   6.882   4.535  0.9888 -0.1503  0.2159
 5324SOL    HW216793   6.371   6.836   4.690 -0.5418 -0.4635 -0.0540
 5325SOL     OW16794   6.173   2.989   4.141  0.4905  0.1691 -0.1558
 5325SOL    HW116795   6.232   3.042   4.079  0.1785  1.7187  0.8113
 5325SOL    HW216796   6.230   2.945   4.210  0.8175 -1.3630 -1.3378
 5326SOL     OW16797   1.122   1.280   0.653 -0.1342 -0.4414  0.1957
 5326SOL    HW116798   1.164   1.292   0.743  1.6584 -4.3671  0.1012
 5326SOL    HW216799   1.100   1.183   0.639  0.2166 -0.1158 -3.8244
 5327SOL     OW16800   5.834   2.661   6.246  0.2815 -0.1640  0.2092
 5327SOL    HW116801   5.862   2.713   6.326  0.3501  0.8847 -0.4728
 5327SOL    HW216802   5.869   2.568   6.252 -1.3032 -0.7142  2.3089
 5328SOL     OW16803   6.703   3.477   0.464  0.3369 -0.4818 -0.2161
 5328SOL    HW116804   6.698   3.400   0.528 -1.8456  0.2069  0.5141
 5328SOL    HW216805   6.761   3.548   0.503 -1.4852  0.2091  1.4088
 5329SOL     OW16806   4.173   4.338   5.210 -0.0122 -0.1246 -0.2535
 5329SOL    HW116807   4.080   4.314   5.185 -0.4587  0.9620  0.2898
 5329SOL    HW216808   4.237   4.287   5.153 -0.8529 -2.8158  1.0539
 5330SOL     OW16809   4.285   3.549   1.581  0.0538  0.1818  0.3113
 5330SOL    HW116810   4.293   3.599   1.667  0.1359 -2.2682  1.8241
 5330SOL    HW216811   4.246   3.609   1.511 -1.2061  1.8885  2.3619
 5331SOL     OW16812   2.770   5.131   2.359 -0.2958 -0.1608 -0.2466
 5331SOL    HW116813   2.852   5.127   2.301  0.0603  0.8577  0.1512
 5331SOL    HW216814   2.692   5.158   2.303 -0.2198 -0.4585 -0.5007
 5332SOL     OW16815   5.953   0.656   2.999 -0.3533 -0.3378  0.1969
 5332SOL    HW116816   5.968   0.640   3.097  0.2073  0.1206  0.1941
 5332SOL    HW216817   5.865   0.619   2.972 -1.0553  0.5797  1.1345
 5333SOL     OW16818   2.715   6.542   4.048  0.2085  0.3575  0.1413
 5333SOL    HW116819   2.748   6.629   4.013 -0.2018  0.5510  0.2220
 5333SOL    HW216820   2.628   6.556   4.095 -1.9523 -0.6463 -3.1919
 5334SOL     OW16821   3.346   6.724   6.948 -0.3713 -0.2580 -0.1868
 5334SOL    HW116822   3.311   6.689   6.861 -0.4474  2.5520 -1.3981
 5334SOL    HW216823   3.438   6.688   6.964 -0.2792 -0.6783 -1.5389
 5335SOL     OW16824   1.676   0.484   6.862  0.5808  0.3141 -0.5568
 5335SOL    HW116825   1.754   0.441   6.908 -0.9460 -0.8959  1.0715
 5335SOL    HW216826   1.609   0.413   6.837 -0.2228  1.3652 -1.4920
 5336SOL     OW16827   5.125   1.317   3.865 -0.9301  0.2314  0.1406
 5336SOL    HW116828   5.069   1.278   3.938 -0.8981 -2.5782 -1.1949
 5336SOL    HW216829   5.222   1.309   3.890 -0.9613  0.6334  0.3992
 5337SOL     OW16830   2.380   5.581   5.643  0.0207 -0.0133 -1.1213
 5337SOL    HW116831   2.462   5.619   5.600 -0.1942 -0.7563 -2.2258
 5337SOL    HW216832   2.326   5.655   5.681  1.2722  0.4782 -0.2362
 5338SOL     OW16833   5.048   2.141   1.395 -0.1963 -0.5807 -0.6899
 5338SOL    HW116834   5.045   2.116   1.492 -0.3027 -1.0369 -0.8067
 5338SOL    HW216835   5.080   2.063   1.342 -0.2778 -0.3781 -1.0379
 5339SOL     OW16836   4.883   2.993   1.885  0.2985 -0.0684 -0.2949
 5339SOL    HW116837   4.896   2.915   1.823  2.4603 -0.5070  0.6388
 5339SOL    HW216838   4.829   2.964   1.964 -2.5653  0.5159 -1.8825
 5340SOL     OW16839   2.860   4.289   2.937 -0.3967 -0.4013 -0.0213
 5340SOL    HW116840   2.840   4.195   2.968 -4.2560 -0.0490 -0.9294
 5340SOL    HW216841   2.867   4.349   3.017  0.2964 -1.1436  0.4939
 5341SOL     OW16842   3.399   0.434   3.950  0.2382  0.5127  0.5439
 5341SOL    HW116843   3.459   0.354   3.941 -0.4076  0.2495 -2.2310
 5341SOL    HW216844   3.453   0.517   3.936  0.3974  0.4049  0.5091
 5342SOL     OW16845   0.335   4.471   5.869  0.0768 -0.4239 -0.5039
 5342SOL    HW116846   0.248   4.433   5.839 -0.6160  1.4976 -1.0472
 5342SOL    HW216847   0.407   4.444   5.805  0.1200 -2.7005  0.3794
 5343SOL     OW16848   4.600   6.835   5.034  0.2099  0.2223 -0.7778
 5343SOL    HW116849   4.676   6.799   4.981  1.1105 -0.5719  0.9817
 5343SOL    HW216850   4.607   6.805   5.129 -2.1674  0.3473 -0.4869
 5344SOL     OW16851   4.745   2.646   2.950  0.0119  0.2105 -0.1991
 5344SOL    HW116852   4.814   2.573   2.950  0.8931  0.9550 -2.0920
 5344SOL    HW216853   4.706   2.656   3.041 -0.0101 -2.4812  0.1622
 5345SOL     OW16854   3.089   6.309   1.632 -0.2746 -0.1992 -0.0172
 5345SOL    HW116855   3.105   6.226   1.686 -2.5228 -0.5323  0.2417
 5345SOL    HW216856   3.111   6.389   1.687 -0.8154 -0.5852  0.7897
 5346SOL     OW16857   3.289   5.263   1.086 -0.4682 -0.6184  0.2589
 5346SOL    HW116858   3.308   5.230   0.994  2.3358 -0.7777  0.8156
 5346SOL    HW216859   3.227   5.342   1.081  1.1990  0.6624 -1.9662
 5347SOL     OW16860   6.426   2.088   2.588  0.1111 -0.4010  0.1924
 5347SOL    HW116861   6.343   2.137   2.561 -0.1207 -0.1040  1.3859
 5347SOL    HW216862   6.458   2.032   2.512 -1.2006 -0.5352 -0.2826
 5348SOL     OW16863   5.363   5.235   2.609 -0.2062 -0.2865 -0.2948
 5348SOL    HW116864   5.438   5.194   2.660  0.7029  1.5789 -0.0290
 5348SOL    HW216865   5.281   5.238   2.667  0.6179  1.1627  0.8869
 5349SOL     OW16866   0.542   3.537   5.892  0.3676  0.2877 -0.7020
 5349SOL    HW116867   0.497   3.614   5.847  0.9742  0.1004 -1.6472
 5349SOL    HW216868   0.640   3.539   5.872  0.7612  0.5258  1.0989
 5350SOL     OW16869   0.472   0.297   6.266 -0.0107  0.3328  0.1106
 5350SOL    HW116870   0.413   0.367   6.227 -0.4688 -0.0272  0.1598
 5350SOL    HW216871   0.428   0.257   6.346 -0.0578 -0.4978 -0.3229
 5351SOL     OW16872   3.853   1.627   3.994 -0.4033 -0.2158  0.7855
 5351SOL    HW116873   3.877   1.694   3.924 -0.8786  1.9157  2.5503
 5351SOL    HW216874   3.919   1.552   3.993  1.3798  1.2935  0.0747
 5352SOL     OW16875   5.664   5.479   2.499 -0.3183 -0.3128 -0.6271
 5352SOL    HW116876   5.760   5.501   2.481 -1.0861  2.0060 -2.4546
 5352SOL    HW216877   5.615   5.475   2.412 -1.8574 -1.6547  0.2662
 5353SOL     OW16878   5.974   6.607   3.818 -0.1848 -0.1492 -0.6769
 5353SOL    HW116879   6.019   6.544   3.754 -2.1769 -0.3705 -1.9461
 5353SOL    HW216880   5.890   6.564   3.854 -0.8299  1.2384 -0.4696
 5354SOL     OW16881   1.113   3.158   0.536  0.0394 -0.3708  0.0259
 5354SOL    HW116882   1.186   3.090   0.549  1.7417  1.0079 -1.6705
 5354SOL    HW216883   1.042   3.120   0.477  0.7067 -0.8883 -0.4615
 5355SOL     OW16884   4.403   2.408   1.163 -0.2264 -0.2724  0.1906
 5355SOL    HW116885   4.406   2.338   1.091  0.2938 -0.0710  0.0159
 5355SOL    HW216886   4.467   2.383   1.236 -1.0380 -0.6787  0.7753
 5356SOL     OW16887   0.121   4.453   5.713 -0.0938  0.2825 -0.0604
 5356SOL    HW116888   0.153   4.469   5.620 -0.9904 -0.1222 -0.4571
 5356SOL    HW216889   0.029   4.492   5.723 -0.5253 -0.7864  0.2632
 5357SOL     OW16890   3.995   2.412   5.946  0.1642  0.0590  0.3196
 5357SOL    HW116891   4.035   2.354   6.017  0.6007 -0.5190 -0.3827
 5357SOL    HW216892   4.062   2.428   5.873 -0.3640  0.4016 -0.1026
 5358SOL     OW16893   2.250   4.653   5.066  0.4680 -0.0740 -0.3121
 5358SOL    HW116894   2.343   4.685   5.080 -0.0009  0.5729  1.7499
 5358SOL    HW216895   2.192   4.684   5.142 -1.4265 -0.4819 -1.5109
 5359SOL     OW16896   5.866   4.691   6.014  0.1344 -0.5855 -0.3729
 5359SOL    HW116897   5.932   4.703   6.088 -0.8574  0.6559  0.3556
 5359SOL    HW216898   5.810   4.610   6.031  0.4708 -0.7872 -0.2200
 5360SOL     OW16899   3.092   1.510   6.302  0.3279 -0.1467 -0.7853
 5360SOL    HW116900   3.052   1.488   6.213  0.3217  2.2682 -1.4289
 5360SOL    HW216901   3.039   1.582   6.346  1.3399 -0.0960  0.4137
 5361SOL     OW16902   2.519   1.293   6.919 -0.0218  0.7931 -0.5814
 5361SOL    HW116903   2.581   1.256   6.849  0.7760  0.4542  0.2932
 5361SOL    HW216904   2.424   1.282   6.888  0.1343 -2.3466 -0.2280
 5362SOL     OW16905   1.316   0.236   2.829 -0.5531 -0.5275  0.2522
 5362SOL    HW116906   1.390   0.302   2.816 -0.1987 -1.3149 -2.3901
 5362SOL    HW216907   1.232   0.272   2.789 -1.3918 -0.0768  2.3171
 5363SOL     OW16908   4.279   5.741   5.122 -0.7909 -0.1011 -0.5368
 5363SOL    HW116909   4.243   5.835   5.128  1.1207  0.6710 -0.5211
 5363SOL    HW216910   4.207   5.680   5.090 -1.4554  1.7964 -2.9846
 5364SOL     OW16911   2.381   4.853   3.506  0.3446 -0.3712 -0.1752
 5364SOL    HW116912   2.417   4.910   3.580  0.6121 -3.6803  2.4974
 5364SOL    HW216913   2.283   4.872   3.495  0.3858  0.4775  0.7054
 5365SOL     OW16914   3.970   5.436   2.851 -0.1335  0.3529  0.3212
 5365SOL    HW116915   4.026   5.427   2.769  0.6168  0.6801  0.7832
 5365SOL    HW216916   4.029   5.439   2.932 -0.7372  1.7076  0.7474
 5366SOL     OW16917   4.963   5.827   1.800 -0.3030  0.2583 -0.0574
 5366SOL    HW116918   4.926   5.736   1.818 -0.2067  0.3907  0.8675
 5366SOL    HW216919   4.927   5.891   1.868 -0.2045  0.8706 -0.5758
 5367SOL     OW16920   6.451   4.828   6.631 -0.3002  0.1969 -0.0036
 5367SOL    HW116921   6.423   4.883   6.710 -0.5629  1.7780 -1.1474
 5367SOL    HW216922   6.551   4.821   6.630 -0.2802  0.4043  0.3176
 5368SOL     OW16923   3.412   2.997   0.912  0.5081 -0.2133 -0.2663
 5368SOL    HW116924   3.440   2.966   0.821  0.5802  0.7897 -0.5947
 5368SOL    HW216925   3.337   3.063   0.903 -0.7322 -1.4589  0.5081
 5369SOL     OW16926   4.539   6.697   6.917 -0.3133  0.4998  0.3140
 5369SOL    HW116927   4.519   6.773   6.978 -3.6434 -0.9524  1.2547
 5369SOL    HW216928   4.483   6.705   6.834 -0.5619 -0.7479  0.3330
 5370SOL     OW16929   3.207   2.742   1.463  0.5135  0.3857 -0.0129
 5370SOL    HW116930   3.150   2.793   1.398  1.9565  1.5057 -0.4300
 5370SOL    HW216931   3.215   2.647   1.431  0.2434  0.6263 -0.8280
 5371SOL     OW16932   0.733   6.125   3.045  0.1925  0.5091  0.4397
 5371SOL    HW116933   0.805   6.102   2.981  0.4515 -0.3335  1.0152
 5371SOL    HW216934   0.764   6.107   3.138 -1.4777 -2.0273  0.5962
 5372SOL     OW16935   2.034   5.520   3.302  0.1215  0.2849 -0.1971
 5372SOL    HW116936   2.065   5.606   3.343  1.0455 -0.0022 -0.2654
 5372SOL    HW216937   2.097   5.493   3.230 -0.9460  0.2722 -1.1532
 5373SOL     OW16938   2.563   5.205   0.933  0.9179  0.0432  0.0767
 5373SOL    HW116939   2.477   5.181   0.889  0.7046  2.7621 -1.1728
 5373SOL    HW216940   2.545   5.245   1.022  0.5820  2.8624 -1.1578
 5374SOL     OW16941   0.870   3.138   3.645  0.2003 -0.0703 -0.0519
 5374SOL    HW116942   0.917   3.211   3.694 -0.3232 -1.7387  3.2718
 5374SOL    HW216943   0.933   3.093   3.583  1.1838  1.6288 -0.3355
 5375SOL     OW16944   2.311   4.392   2.780  0.6793  0.7399 -0.3598
 5375SOL    HW116945   2.278   4.326   2.713 -0.1530  0.1559  0.5993
 5375SOL    HW216946   2.411   4.399   2.772  0.8005 -0.6807 -0.4590
 5376SOL     OW16947   5.620   3.540   4.672 -0.0814  0.1587  0.0161
 5376SOL    HW116948   5.689   3.591   4.723 -1.3524  0.4456  1.5127
 5376SOL    HW216949   5.563   3.604   4.621 -0.3308  0.0519  0.1644
 5377SOL     OW16950   4.737   6.439   3.812 -0.5227  0.4390 -0.9472
 5377SOL    HW116951   4.827   6.411   3.845  0.1593  1.7134 -1.6463
 5377SOL    HW216952   4.736   6.539   3.800 -1.2511  0.2144 -3.1913
 5378SOL     OW16953   6.052   2.768   5.662 -0.1094  0.1215 -0.1769
 5378SOL    HW116954   6.094   2.736   5.747  0.9547  0.9124 -0.3830
 5378SOL    HW216955   6.106   2.735   5.584 -2.1081 -2.1961 -0.7105
 5379SOL     OW16956   3.683   2.992   6.389 -0.2406  0.0226 -0.5250
 5379SOL    HW116957   3.630   3.039   6.318  1.7102 -0.2830 -2.2628
 5379SOL    HW216958   3.644   2.901   6.404 -0.7201  0.1125 -1.1635
 5380SOL     OW16959   5.490   1.699   6.328 -0.3002  0.3864  0.5376
 5380SOL    HW116960   5.415   1.756   6.293 -0.6754 -0.4661 -0.0808
 5380SOL    HW216961   5.578   1.738   6.300 -0.4488  1.8281  1.9166
 5381SOL     OW16962   2.529   6.061   4.683  0.1309 -1.1140 -0.1752
 5381SOL    HW116963   2.617   6.062   4.730 -0.3307 -0.9595  0.7142
 5381SOL    HW216964   2.513   5.970   4.644  1.2231 -0.7968 -1.4367
 5382SOL     OW16965   2.298   1.418   5.223  0.2970  0.3180 -0.2444
 5382SOL    HW116966   2.301   1.365   5.308 -4.1230 -3.0719 -1.8052
 5382SOL    HW216967   2.381   1.401   5.171  0.0817 -3.5592  0.3608
 5383SOL     OW16968   6.138   5.235   4.315  0.0209  0.0680  0.8193
 5383SOL    HW116969   6.224   5.184   4.316 -0.3090 -0.4880  1.1564
 5383SOL    HW216970   6.101   5.238   4.223 -0.1892 -0.7047  0.8708
 5384SOL     OW16971   2.461   0.785   5.754 -0.4949  0.1406  0.4392
 5384SOL    HW116972   2.453   0.778   5.853  0.9570 -1.7601  0.4740
 5384SOL    HW216973   2.370   0.772   5.713 -0.7324 -1.6483  1.4369
 5385SOL     OW16974   4.771   2.354   5.635 -0.7208  0.1246 -0.6991
 5385SOL    HW116975   4.705   2.427   5.656 -0.5133  0.0336  0.3234
 5385SOL    HW216976   4.782   2.348   5.536 -1.9997  0.3589 -0.8846
 5386SOL     OW16977   1.163   3.333   5.659  0.3672 -0.3030 -0.2148
 5386SOL    HW116978   1.163   3.417   5.713  0.2235 -0.8014  0.5679
 5386SOL    HW216979   1.134   3.355   5.565  0.2766  0.5088 -0.0115
 5387SOL     OW16980   6.036   6.211   2.164  0.2690  0.8563 -0.0524
 5387SOL    HW116981   6.022   6.310   2.158  1.1653  0.9339 -1.2399
 5387SOL    HW216982   5.997   6.177   2.249 -0.1247  2.2190  0.3363
 5388SOL     OW16983   0.041   0.116   4.782  0.7035  0.0520  0.2073
 5388SOL    HW116984  -0.059   0.108   4.778  0.4180  2.6949 -0.3480
 5388SOL    HW216985   0.073   0.096   4.874 -0.3216 -0.9089  0.3696
 5389SOL     OW16986   1.280   2.703   5.950 -0.4334  0.0499 -0.5725
 5389SOL    HW116987   1.267   2.692   6.049 -0.5349 -0.2370 -0.6144
 5389SOL    HW216988   1.191   2.702   5.905 -0.3776  0.0226 -0.6823
 5390SOL     OW16989   1.642   5.625   5.937 -0.0861  0.0208  0.0223
 5390SOL    HW116990   1.702   5.693   5.894 -1.5736  1.8808  0.7635
 5390SOL    HW216991   1.610   5.561   5.868  0.4396  0.7590 -0.9415
 5391SOL     OW16992   4.038   1.182   3.149  0.2848 -0.0357  0.3778
 5391SOL    HW116993   3.938   1.181   3.149  0.2807 -0.1040  0.9210
 5391SOL    HW216994   4.072   1.110   3.209  0.6986 -1.4540 -1.4586
 5392SOL     OW16995   3.623   3.543   1.930  0.2596 -0.6458 -0.1184
 5392SOL    HW116996   3.673   3.504   1.853 -0.7322  0.9188 -1.6163
 5392SOL    HW216997   3.679   3.614   1.973 -0.0379  0.0307 -0.8244
 5393SOL     OW16998   0.773   1.213   4.011  0.0300  0.4950 -0.0177
 5393SOL    HW116999   0.681   1.175   4.014 -0.2359  1.1202 -0.1136
 5393SOL    HW217000   0.840   1.139   4.020 -0.4584 -0.0929 -1.0444
 5394SOL     OW17001   0.683   4.214   4.181 -0.8085  0.4591 -1.3187
 5394SOL    HW117002   0.600   4.177   4.222  0.1216  0.3449  0.5343
 5394SOL    HW217003   0.753   4.142   4.176 -0.3494  0.9104 -1.5203
 5395SOL     OW17004   3.039   0.561   5.755  0.1784 -0.0003 -0.0570
 5395SOL    HW117005   2.952   0.594   5.792 -0.2164 -1.4653  0.3954
 5395SOL    HW217006   3.027   0.468   5.719  2.1416 -1.4707  2.6654
 5396SOL     OW17007   2.149   0.980   1.322  0.0095 -0.8124 -0.2808
 5396SOL    HW117008   2.199   1.050   1.269  0.1000  0.1683  1.0411
 5396SOL    HW217009   2.070   0.949   1.270  0.6409 -0.6194 -1.4018
 5397SOL     OW17010   2.222   6.451   4.312  0.6052 -0.4035  0.5190
 5397SOL    HW117011   2.129   6.486   4.314  0.9436  0.9566 -2.6285
 5397SOL    HW217012   2.278   6.501   4.379 -0.1909  1.1439  0.0669
 5398SOL     OW17013   4.428   1.643   5.322  0.1842  0.0982 -0.0041
 5398SOL    HW117014   4.381   1.617   5.406  0.5423  0.1638  0.2216
 5398SOL    HW217015   4.368   1.700   5.266  0.0439  0.2975  0.3452
 5399SOL     OW17016   5.319   4.022   4.389 -0.2385 -0.4615 -0.4836
 5399SOL    HW117017   5.418   4.027   4.405 -0.4902  0.0923  1.0459
 5399SOL    HW217018   5.302   3.972   4.304  1.3852  0.1949 -1.2393
 5400SOL     OW17019   0.342   3.544   4.634  0.1882 -0.5996 -0.4133
 5400SOL    HW117020   0.409   3.482   4.594  1.7821 -0.6928  2.1800
 5400SOL    HW217021   0.387   3.625   4.669 -1.3482  0.2639 -0.3285
 5401SOL     OW17022   6.831   5.745   3.794  0.4276  0.4773  0.5826
 5401SOL    HW117023   6.928   5.769   3.799  0.7152 -0.8410  2.5020
 5401SOL    HW217024   6.811   5.703   3.706  1.7589  0.1325  0.4253
 5402SOL     OW17025   4.053   3.488   0.339 -0.2273  0.2902 -0.2211
 5402SOL    HW117026   3.953   3.492   0.342 -0.1852  0.6451  1.1596
 5402SOL    HW217027   4.091   3.570   0.382  0.6560 -0.5908  0.7073
 5403SOL     OW17028   4.453   2.121   6.613  0.2788 -0.1665  0.2115
 5403SOL    HW117029   4.492   2.046   6.666 -1.1622 -0.5112  0.8411
 5403SOL    HW217030   4.521   2.155   6.548  1.5147 -0.8732  1.0980
 5404SOL     OW17031   5.015   0.685   6.011  0.6947 -0.5684  0.0530
 5404SOL    HW117032   4.961   0.692   5.928 -0.8901 -1.1824  0.9844
 5404SOL    HW217033   5.108   0.655   5.988  0.5898  0.2370 -1.5583
 5405SOL     OW17034   4.739   3.405   3.716 -0.7778  0.2184  0.4334
 5405SOL    HW117035   4.745   3.319   3.766 -1.8054 -0.5755 -0.7783
 5405SOL    HW217036   4.673   3.397   3.642 -3.8710  3.1559  2.5529
 5406SOL     OW17037   1.623   0.391   6.107 -0.4808  0.4418 -0.4353
 5406SOL    HW117038   1.608   0.476   6.056 -0.6266 -0.4958 -2.0053
 5406SOL    HW217039   1.574   0.396   6.194 -2.1833  1.1738 -1.3773
 5407SOL     OW17040   5.958   4.689   0.600  0.3373  0.5235  0.3876
 5407SOL    HW117041   6.018   4.752   0.551  1.3819 -1.3896 -0.8955
 5407SOL    HW217042   5.884   4.660   0.539  1.4012 -1.5468  0.0133
 5408SOL     OW17043   0.449   5.566   4.247 -0.0645 -0.0085  0.0150
 5408SOL    HW117044   0.493   5.599   4.330 -1.2030 -2.5412  1.7398
 5408SOL    HW217045   0.359   5.610   4.237  0.5896  1.2553 -0.6622
 5409SOL     OW17046   0.817   6.198   4.185  0.3377 -0.1665 -0.3464
 5409SOL    HW117047   0.800   6.230   4.092  0.2884  1.1247  0.0832
 5409SOL    HW217048   0.732   6.163   4.224 -0.2837  1.7020  0.0832
 5410SOL     OW17049   5.232   3.989   6.208 -0.0882  0.4444  0.0906
 5410SOL    HW117050   5.188   4.066   6.163  1.8238  1.0644 -0.8126
 5410SOL    HW217051   5.321   3.972   6.166 -0.6455 -2.6195 -0.1072
 5411SOL     OW17052   1.061   6.492   5.671 -0.0408  0.6032 -0.0230
 5411SOL    HW117053   0.967   6.469   5.697  0.4886 -0.3438  1.1552
 5411SOL    HW217054   1.125   6.443   5.731  1.2126  0.7468 -1.2046
 5412SOL     OW17055   2.510   1.726   2.419  0.2177 -0.0392  0.5449
 5412SOL    HW117056   2.531   1.815   2.457 -1.3177 -0.1601  1.7657
 5412SOL    HW217057   2.589   1.692   2.368  1.4724  1.1992  1.5869
 5413SOL     OW17058   5.348   0.381   0.997 -0.3017 -0.1270 -0.1778
 5413SOL    HW117059   5.347   0.358   1.095  2.3810  1.1656  0.2445
 5413SOL    HW217060   5.363   0.479   0.987 -2.7061  0.1402 -1.9553
 5414SOL     OW17061   3.808   6.078   6.179 -0.4842 -0.2078 -0.1581
 5414SOL    HW117062   3.796   6.012   6.253  0.6931  1.4410  1.6051
 5414SOL    HW217063   3.719   6.116   6.154 -1.0725 -1.8343 -0.6356
 5415SOL     OW17064   5.262   0.103   6.109 -0.5547  0.0271 -0.5040
 5415SOL    HW117065   5.359   0.100   6.085 -1.1891 -4.2349 -3.5035
 5415SOL    HW217066   5.217   0.176   6.056  0.7185  1.2603  0.0356
 5416SOL     OW17067   1.533   1.064   0.382  0.5282  0.0917 -0.3502
 5416SOL    HW117068   1.588   1.104   0.456  1.5627  0.5557 -1.3464
 5416SOL    HW217069   1.478   0.989   0.419  0.4043  0.8269  1.0558
 5417SOL     OW17070   5.283   3.710   6.185 -0.8871 -0.6431  0.0199
 5417SOL    HW117071   5.248   3.803   6.194  1.8515  0.3882  1.4559
 5417SOL    HW217072   5.251   3.654   6.262  1.5235  0.7074  2.1845
 5418SOL     OW17073   5.268   0.673   1.885  0.3063  0.1524  0.8652
 5418SOL    HW117074   5.208   0.596   1.863 -1.0193  1.3733  0.0296
 5418SOL    HW217075   5.294   0.721   1.801  0.5675  1.0081  1.4181
 5419SOL     OW17076   2.102   3.256   0.809 -0.7354  0.1332 -0.7031
 5419SOL    HW117077   2.038   3.234   0.735 -0.8358 -1.0373 -0.2901
 5419SOL    HW217078   2.101   3.183   0.877 -2.1855  2.1175  1.5613
 5420SOL     OW17079   0.902   5.459   6.564 -0.0836  0.0699  0.5271
 5420SOL    HW117080   0.921   5.541   6.509  0.7845 -1.5758 -1.8275
 5420SOL    HW217081   0.838   5.481   6.637 -2.2772  2.2393 -1.8648
 5421SOL     OW17082   0.164   2.046   4.220  0.2419 -0.4987 -0.6104
 5421SOL    HW117083   0.231   1.981   4.182 -0.6797 -1.3954 -0.7326
 5421SOL    HW217084   0.212   2.129   4.249  1.2122 -0.4750 -2.1359
 5422SOL     OW17085   2.553   4.777   2.559 -0.1162 -0.4061 -0.3607
 5422SOL    HW117086   2.572   4.792   2.656 -0.6253 -1.9867  0.0066
 5422SOL    HW217087   2.455   4.758   2.547  0.2271 -1.9359 -0.9402
 5423SOL     OW17088   0.913   6.586   4.050  0.1013 -0.9099  0.2472
 5423SOL    HW117089   0.922   6.569   4.149 -0.2379 -0.3001  0.3883
 5423SOL    HW217090   0.901   6.684   4.035 -1.0750 -1.1267 -0.3147
 5424SOL     OW17091   6.228   3.724   1.323  0.3016 -0.0012 -0.6397
 5424SOL    HW117092   6.164   3.801   1.323  0.1785 -0.0707  0.7977
 5424SOL    HW217093   6.297   3.738   1.253 -1.3085  0.0403 -2.3075
 5425SOL     OW17094   2.190   2.422   2.280 -0.0750 -0.7003  0.3659
 5425SOL    HW117095   2.116   2.417   2.348  1.0592 -1.8338  1.5531
 5425SOL    HW217096   2.207   2.332   2.242 -1.6783  0.1200 -2.6119
 5426SOL     OW17097   3.838   0.622   0.909 -0.3573 -0.1475 -0.1730
 5426SOL    HW117098   3.868   0.637   1.004 -3.4603  3.4879  0.4804
 5426SOL    HW217099   3.800   0.530   0.901 -0.3659 -0.4259  2.2460
 5427SOL     OW17100   6.859   6.131   5.471 -0.1488 -0.0446  0.2465
 5427SOL    HW117101   6.845   6.048   5.526 -1.0663 -0.2751 -0.3128
 5427SOL    HW217102   6.896   6.203   5.529 -0.3889 -0.5147  1.0025
 5428SOL     OW17103   6.306   3.195   6.863 -0.2226  0.8320 -0.4558
 5428SOL    HW117104   6.272   3.284   6.834 -1.1137 -0.0961 -2.4650
 5428SOL    HW217105   6.230   3.131   6.869 -0.0662  0.8097  3.8198
 5429SOL     OW17106   4.487   5.680   0.076  0.5464 -0.0694 -0.1771
 5429SOL    HW117107   4.399   5.635   0.092  1.9598 -2.5999  1.1616
 5429SOL    HW217108   4.520   5.656  -0.016 -0.3864  1.4299 -0.9481
 5430SOL     OW17109   1.765   4.250   0.661 -0.2154 -0.0496 -0.3456
 5430SOL    HW117110   1.779   4.200   0.575  1.4371 -0.7720  0.2845
 5430SOL    HW217111   1.853   4.261   0.707 -0.7896  2.0133  0.3640
 5431SOL     OW17112   3.523   3.544   3.720 -0.2558 -0.2710  0.2085
 5431SOL    HW117113   3.577   3.615   3.766  0.3895  0.4295 -1.5431
 5431SOL    HW217114   3.577   3.460   3.714  0.1313  0.0075 -0.3131
 5432SOL     OW17115   0.785   4.693   4.936 -0.0491  0.4821 -0.0356
 5432SOL    HW117116   0.756   4.788   4.951 -3.0968 -0.1328 -1.2963
 5432SOL    HW217117   0.726   4.651   4.867  1.9399 -2.0498 -0.3515
 5433SOL     OW17118   5.677   3.567   6.058 -0.4173 -0.2759  0.1989
 5433SOL    HW117119   5.727   3.553   6.143 -0.5912  1.0891  0.5485
 5433SOL    HW217120   5.739   3.554   5.980  0.3777  0.8489  0.6122
 5434SOL     OW17121   3.966   4.063   0.976  0.4682  0.6619  0.1326
 5434SOL    HW117122   3.888   4.126   0.967  1.6050  2.0664 -0.1476
 5434SOL    HW217123   4.042   4.095   0.920  0.0995 -2.6957 -2.6297
 5435SOL     OW17124   3.086   0.089   2.606  0.1531  0.2947  0.0301
 5435SOL    HW117125   3.120   0.182   2.594  0.4407  0.3724  1.2609
 5435SOL    HW217126   3.034   0.084   2.691 -1.6528 -0.1823 -1.0448
 5436SOL     OW17127   0.422   2.732   4.862 -0.0152  0.3380  0.0199
 5436SOL    HW117128   0.443   2.635   4.850 -0.2482 -0.0641  2.4385
 5436SOL    HW217129   0.498   2.778   4.907  0.6053  1.6147 -2.1820
 5437SOL     OW17130   2.861   4.129   1.952  0.3144 -0.2842 -0.8167
 5437SOL    HW117131   2.914   4.137   1.868  1.2117  2.3970 -0.1087
 5437SOL    HW217132   2.763   4.133   1.930  0.5377  0.4961 -1.7568
 5438SOL     OW17133   6.048   3.294   1.333  0.3091  0.1825  0.0579
 5438SOL    HW117134   5.971   3.309   1.395 -0.0647  1.2254 -0.6255
 5438SOL    HW217135   6.119   3.242   1.380 -0.0032  0.8563  1.3158
 5439SOL     OW17136   6.642   1.008   3.416 -0.5298 -0.3886 -0.4473
 5439SOL    HW117137   6.630   1.104   3.443  0.8920  0.1635 -1.6235
 5439SOL    HW217138   6.564   0.978   3.362 -0.9300  0.1425 -0.1722
 5440SOL     OW17139   4.595   0.613   0.623 -0.5076 -0.3671 -0.1197
 5440SOL    HW117140   4.618   0.591   0.718  0.8990 -0.3464 -0.4404
 5440SOL    HW217141   4.506   0.573   0.600 -1.1989  0.2108  1.4013
 5441SOL     OW17142   4.039   3.507   0.751 -0.3022 -0.0158  0.1585
 5441SOL    HW117143   4.123   3.556   0.726 -0.9248  2.1318  1.9037
 5441SOL    HW217144   4.015   3.528   0.846 -1.0597 -3.2472  0.7832
 5442SOL     OW17145   0.437   0.310   6.886 -0.4274 -0.3054  0.0570
 5442SOL    HW117146   0.470   0.250   6.959  3.9646  0.5990 -0.8422
 5442SOL    HW217147   0.459   0.269   6.798  0.8467  1.6176 -0.5899
 5443SOL     OW17148   3.332   0.681   4.476  0.2815  0.2840 -0.6636
 5443SOL    HW117149   3.395   0.611   4.510  1.3610  1.7118  0.4418
 5443SOL    HW217150   3.319   0.750   4.547 -0.5744  1.3204 -1.7938
 5444SOL     OW17151   3.277   6.703   2.032 -0.0285  0.0287  0.5083
 5444SOL    HW117152   3.320   6.719   1.943 -1.9347 -0.5941 -0.5890
 5444SOL    HW217153   3.238   6.789   2.066 -0.6505 -0.0375 -0.0252
 5445SOL     OW17154   5.868   0.451   2.249  0.7153  0.4559 -0.6379
 5445SOL    HW117155   5.861   0.546   2.278  2.1891  0.9657 -1.8162
 5445SOL    HW217156   5.865   0.446   2.149 -0.6052 -0.8745 -0.5515
 5446SOL     OW17157   2.033   1.496   2.459 -0.5391 -0.3061 -0.1099
 5446SOL    HW117158   2.107   1.516   2.523  0.1720 -0.5381 -0.8392
 5446SOL    HW217159   1.980   1.419   2.493 -1.3802  0.7994  1.1584
 5447SOL     OW17160   0.730   4.597   4.627  0.8855 -0.1773  0.2601
 5447SOL    HW117161   0.818   4.549   4.624 -0.1135 -2.1594  0.8283
 5447SOL    HW217162   0.672   4.565   4.552  0.7947  1.5345 -0.4626
 5448SOL     OW17163   2.078   2.975   2.317 -0.1105  1.2525  0.3165
 5448SOL    HW117164   2.170   2.937   2.310  0.2749  1.8772  1.6231
 5448SOL    HW217165   2.033   2.940   2.399 -1.0298  0.9816 -0.2887
 5449SOL     OW17166   6.484   6.538   5.841  0.0430 -0.2113  0.0326
 5449SOL    HW117167   6.485   6.512   5.938 -2.5965 -2.5699 -0.4478
 5449SOL    HW217168   6.578   6.547   5.808  1.0442  1.5778  2.9483
 5450SOL     OW17169   5.055   0.500   1.662  0.0515 -0.1913  0.5283
 5450SOL    HW117170   5.000   0.583   1.661  1.9681  1.1583 -0.2596
 5450SOL    HW217171   5.027   0.441   1.738 -0.7508  1.5969  1.6694
 5451SOL     OW17172   2.903   1.542   3.762  0.1425  0.5745  0.6228
 5451SOL    HW117173   2.856   1.574   3.680  0.5137  1.6626  0.8126
 5451SOL    HW217174   2.977   1.480   3.735  1.4416  2.3110 -0.0736
 5452SOL     OW17175   2.406   0.506   5.331  0.3958 -0.6508 -0.6388
 5452SOL    HW117176   2.444   0.598   5.322 -1.3556  0.2045  0.1624
 5452SOL    HW217177   2.416   0.457   5.245 -0.0284  0.8622 -1.5953
 5453SOL     OW17178   1.027   0.351   1.708 -0.0914 -0.1562  0.4276
 5453SOL    HW117179   0.979   0.315   1.788 -0.2982  0.4320  0.5729
 5453SOL    HW217180   1.115   0.389   1.736 -0.9416  1.7261  0.6927
 5454SOL     OW17181   1.813   2.583   6.854 -0.5623  0.0786  0.0968
 5454SOL    HW117182   1.728   2.629   6.829 -0.0768  1.2390  0.5121
 5454SOL    HW217183   1.846   2.617   6.942  1.4058  1.2137 -0.9979
 5455SOL     OW17184   4.721   5.886   6.051  0.4356 -0.2081  0.0495
 5455SOL    HW117185   4.667   5.911   5.970  1.0517 -0.3994 -0.4240
 5455SOL    HW217186   4.685   5.801   6.089  0.0346 -0.0284  0.0810
 5456SOL     OW17187   0.698   1.427   5.218  0.9328 -0.2207 -0.2494
 5456SOL    HW117188   0.777   1.457   5.271  0.8433 -2.8151  1.5113
 5456SOL    HW217189   0.616   1.432   5.275  0.4912 -1.1921 -0.7770
 5457SOL     OW17190   2.803   2.156   6.125  0.1558  0.1891 -0.0882
 5457SOL    HW117191   2.717   2.182   6.083  0.3653 -1.3103 -1.5153
 5457SOL    HW217192   2.835   2.070   6.087  1.5453 -0.0608  1.5023
 5458SOL     OW17193   6.762   0.809   2.174 -0.1597 -0.0729  0.3024
 5458SOL    HW117194   6.789   0.776   2.084 -2.4697 -1.8263  0.1575
 5458SOL    HW217195   6.769   0.909   2.177  2.8474 -0.1645 -0.7286
 5459SOL     OW17196   1.978   3.310   4.662 -0.3704  0.3257  0.3401
 5459SOL    HW117197   1.944   3.247   4.592  0.7831  0.5762 -0.4696
 5459SOL    HW217198   2.019   3.257   4.737 -0.0611  0.0919  0.0093
 5460SOL     OW17199   0.159   1.440   0.829 -0.0358  0.4830 -0.0128
 5460SOL    HW117200   0.106   1.381   0.768  1.7907  0.5894 -1.8066
 5460SOL    HW217201   0.103   1.465   0.908 -1.6365 -1.7198 -0.3613
 5461SOL     OW17202   2.362   0.009   2.052 -0.5484  0.7687  0.6329
 5461SOL    HW117203   2.439   0.043   2.106  0.2799  1.9833 -1.2028
 5461SOL    HW217204   2.386  -0.079   2.011 -1.1861 -0.1653  2.1749
 5462SOL     OW17205   2.167   6.502   4.690 -0.2097 -0.6452  0.1246
 5462SOL    HW117206   2.122   6.590   4.704 -0.3675 -0.6643 -0.2402
 5462SOL    HW217207   2.200   6.467   4.777  0.2689 -0.0010  0.2084
 5463SOL     OW17208   1.530   5.866   6.860 -0.7802 -0.1814  0.1855
 5463SOL    HW117209   1.455   5.912   6.812 -0.6031  0.5456  0.5951
 5463SOL    HW217210   1.545   5.909   6.949  0.6373  0.2060 -0.2049
 5464SOL     OW17211   5.948   6.467   2.178  0.4147  0.5186  0.2788
 5464SOL    HW117212   5.993   6.510   2.257  0.8022  1.0944 -0.2448
 5464SOL    HW217213   5.927   6.538   2.110  1.8624 -0.2372 -0.9997
 5465SOL     OW17214   3.974   2.388   1.041  0.0089 -0.4567 -0.0605
 5465SOL    HW117215   4.013   2.327   0.973 -0.9886 -1.2504  0.0549
 5465SOL    HW217216   4.008   2.362   1.132  1.3901  0.6431 -0.2313
 5466SOL     OW17217   6.147   5.467   5.833 -0.5511 -0.0410 -0.0630
 5466SOL    HW117218   6.230   5.441   5.883 -1.2664 -0.9854  0.6661
 5466SOL    HW217219   6.172   5.516   5.750  0.7752 -1.0167 -0.2683
 5467SOL     OW17220   2.307   5.577   6.780  0.3446 -0.9455  0.0315
 5467SOL    HW117221   2.404   5.598   6.767  0.0503  1.1122  0.7231
 5467SOL    HW217222   2.292   5.548   6.874  0.0766  0.3211  0.3935
 5468SOL     OW17223   3.890   1.566   2.697 -0.3398  0.1031  0.5253
 5468SOL    HW117224   3.842   1.537   2.614 -3.2708  3.2681  0.8460
 5468SOL    HW217225   3.837   1.538   2.777 -0.4197  1.5774  1.0210
 5469SOL     OW17226   2.177   2.972   2.609  0.2536  0.0286  0.4660
 5469SOL    HW117227   2.265   2.979   2.656 -0.7459  0.9073  2.3243
 5469SOL    HW217228   2.160   2.877   2.582  1.2208 -0.3553  1.1871
 5470SOL     OW17229   2.544   3.263   1.050 -0.1798 -0.0797 -0.4231
 5470SOL    HW117230   2.536   3.359   1.078 -0.0385 -0.0833 -0.3700
 5470SOL    HW217231   2.490   3.206   1.112  2.0859 -0.3742  1.3828
 5471SOL     OW17232   6.858   3.162   6.852  0.1299 -0.3090  0.4948
 5471SOL    HW117233   6.913   3.147   6.770 -0.0513 -2.2056  0.6638
 5471SOL    HW217234   6.761   3.151   6.829  0.0408 -0.1997  0.8207
 5472SOL     OW17235   0.918   2.894   0.167  0.1107  0.1774 -0.1840
 5472SOL    HW117236   0.975   2.967   0.129 -0.2698 -0.0026 -1.1361
 5472SOL    HW217237   0.824   2.905   0.135 -0.0043 -0.5815 -0.1290
 5473SOL     OW17238   3.786   5.898   4.481 -0.1518 -0.2924 -0.3209
 5473SOL    HW117239   3.774   5.802   4.507  0.9679 -0.2128  0.5863
 5473SOL    HW217240   3.697   5.944   4.481 -0.9949 -1.7335 -2.6159
 5474SOL     OW17241   1.569   5.980   4.045  0.6028 -0.5952 -0.1252
 5474SOL    HW117242   1.575   6.022   3.954  1.7792 -2.4156 -0.9449
 5474SOL    HW217243   1.644   6.011   4.102 -0.9136  1.6508  0.7865
 5475SOL     OW17244   0.189   0.302   4.973  0.1002  0.4452 -0.0315
 5475SOL    HW117245   0.219   0.234   5.040  1.0487  0.1290 -0.7594
 5475SOL    HW217246   0.240   0.290   4.888 -0.3859  1.4715 -0.4864
 5476SOL     OW17247   4.861   6.691   0.392 -0.2520 -0.3359 -0.3462
 5476SOL    HW117248   4.767   6.709   0.422 -0.1322  0.0758 -0.2107
 5476SOL    HW217249   4.875   6.731   0.302 -0.3619 -0.8531 -0.5971
 5477SOL     OW17250   3.996   0.447   5.557 -0.0673  0.4403  0.1752
 5477SOL    HW117251   4.020   0.515   5.489  2.2166  0.0068  0.4459
 5477SOL    HW217252   4.063   0.450   5.632 -1.0806 -0.7371  1.1753
 5478SOL     OW17253   1.932   6.299   4.559 -0.0584 -0.0218  0.1746
 5478SOL    HW117254   1.926   6.208   4.601  2.1661 -0.5145 -0.4467
 5478SOL    HW217255   1.985   6.360   4.617  1.0433 -0.0303 -0.7837
 5479SOL     OW17256   5.168   0.643   3.887  0.3084  0.5044  0.1768
 5479SOL    HW117257   5.185   0.553   3.846  1.2243  1.0061 -0.5914
 5479SOL    HW217258   5.240   0.664   3.952 -1.3615 -0.4679  2.4687
 5480SOL     OW17259   0.769   5.844   2.235  0.2304 -0.3333  0.6268
 5480SOL    HW117260   0.736   5.757   2.198  2.1326 -0.4946 -0.8228
 5480SOL    HW217261   0.692   5.907   2.246 -1.1926 -2.1476  1.6868
 5481SOL     OW17262   2.287   4.710   6.775  0.1761 -0.3861  0.4560
 5481SOL    HW117263   2.192   4.681   6.765  0.5651 -0.8779 -2.9598
 5481SOL    HW217264   2.289   4.801   6.815 -1.6985 -0.5072  0.9473
 5482SOL     OW17265   2.433   1.925   1.410  0.5213 -0.3206  0.5235
 5482SOL    HW117266   2.397   1.993   1.474 -0.5599 -0.4053  0.0180
 5482SOL    HW217267   2.369   1.912   1.335  2.2805  0.6406 -1.2333
 5483SOL     OW17268   5.889   3.048   3.238  0.2993 -0.2162  0.7389
 5483SOL    HW117269   5.910   2.972   3.301  0.2933 -0.3022  0.6381
 5483SOL    HW217270   5.843   3.121   3.288  0.2923 -0.2852  0.8341
 5484SOL     OW17271   1.384   2.120   6.299 -0.5555  0.4830 -0.0024
 5484SOL    HW117272   1.329   2.078   6.372  2.3394 -0.9848  1.5264
 5484SOL    HW217273   1.396   2.218   6.319 -0.5787  0.2945  0.9890
 5485SOL     OW17274   5.017   4.826   3.074 -0.2020 -0.1663  0.6775
 5485SOL    HW117275   5.054   4.739   3.108 -0.6475 -0.3412  0.7259
 5485SOL    HW217276   4.921   4.813   3.049  0.0442  0.0188 -0.4162
 5486SOL     OW17277   3.849   0.806   2.878  0.0235  0.0823 -0.2533
 5486SOL    HW117278   3.763   0.850   2.853  0.3344  0.2132 -1.0995
 5486SOL    HW217279   3.871   0.829   2.973 -1.1875 -0.4725  0.1760
 5487SOL     OW17280   4.761   0.463   3.891  0.0452  0.5394 -0.0707
 5487SOL    HW117281   4.819   0.535   3.930  1.1722  0.0631 -0.8259
 5487SOL    HW217282   4.669   0.498   3.879  0.5183  1.7944 -0.2139
 5488SOL     OW17283   6.197   5.738   6.860 -0.4141 -0.5212  0.6153
 5488SOL    HW117284   6.294   5.760   6.874 -0.2869 -0.8448  0.2753
 5488SOL    HW217285   6.154   5.720   6.949 -0.4168  0.6294  0.8522
 5489SOL     OW17286   0.808   2.428   6.429  0.1843  0.0325  0.2203
 5489SOL    HW117287   0.813   2.508   6.489 -2.7308 -0.8189  1.8045
 5489SOL    HW217288   0.745   2.448   6.354 -0.6823 -0.7708  0.7123
 5490SOL     OW17289   6.726   4.396   4.019  0.4213  0.5801 -0.0370
 5490SOL    HW117290   6.668   4.320   4.047  1.8068 -0.4984 -0.0103
 5490SOL    HW217291   6.812   4.394   4.071  0.1724  2.6455  0.5613
 5491SOL     OW17292   2.820   0.363   5.239  0.2432 -0.3362  0.0775
 5491SOL    HW117293   2.789   0.398   5.327  0.5859 -1.3986  0.6339
 5491SOL    HW217294   2.746   0.369   5.173 -0.3613 -0.5467  0.7231
 5492SOL     OW17295   5.987   6.105   2.402  0.0474  0.4586 -0.0750
 5492SOL    HW117296   6.034   6.106   2.490  1.5628 -1.2943 -0.7841
 5492SOL    HW217297   5.892   6.075   2.414  0.7300 -1.4907  0.7998
 5493SOL     OW17298   2.050   4.560   5.460  0.4526  0.2081  0.3344
 5493SOL    HW117299   1.953   4.539   5.471  0.5590 -1.9215 -1.9760
 5493SOL    HW217300   2.095   4.486   5.409  3.2547  1.2513  1.1153
 5494SOL     OW17301   4.581   4.017   0.245 -0.1896  0.3768 -0.3960
 5494SOL    HW117302   4.504   4.000   0.306 -0.7328  0.9776 -0.8877
 5494SOL    HW217303   4.546   4.038   0.153  0.6490 -2.5755 -1.5072
 5495SOL     OW17304   1.460   3.270   5.342  0.1694  0.3797  0.5730
 5495SOL    HW117305   1.383   3.224   5.298  1.1994  1.6782 -2.9406
 5495SOL    HW217306   1.426   3.346   5.398 -1.1841 -0.6564  1.1977
 5496SOL     OW17307   0.051   1.591   1.920  0.6402 -0.7683 -0.0947
 5496SOL    HW117308   0.103   1.532   1.982  1.7704  0.8766  0.5938
 5496SOL    HW217309   0.072   1.567   1.826 -0.0076 -2.3677  0.1348
 5497SOL     OW17310   4.058   1.755   1.515  0.6598  0.5461  0.0160
 5497SOL    HW117311   4.076   1.846   1.479  2.2413  1.0644  1.8968
 5497SOL    HW217312   4.048   1.760   1.615  0.1612 -1.2577  0.1003
 5498SOL     OW17313   0.564   0.368   4.728  0.2931 -0.1164  0.0926
 5498SOL    HW117314   0.466   0.369   4.709  0.6066  1.7691 -1.7142
 5498SOL    HW217315   0.612   0.322   4.654  0.8338 -0.5059  0.6753
 5499SOL     OW17316   3.413   4.368   6.536 -0.1056  0.3205 -0.7349
 5499SOL    HW117317   3.373   4.401   6.622 -1.5414 -1.1100 -0.7849
 5499SOL    HW217318   3.511   4.384   6.536 -0.6288  4.6549 -0.8655
 5500SOL     OW17319   4.417   2.269   1.636  0.1919 -0.4729 -0.1536
 5500SOL    HW117320   4.427   2.323   1.720  0.9771  1.3483 -1.3524
 5500SOL    HW217321   4.321   2.273   1.606  0.1731 -0.0001 -0.0489
 5501SOL     OW17322   2.659   3.569   6.506  0.0798  0.0895 -0.2902
 5501SOL    HW117323   2.623   3.651   6.462  0.8589  0.1110 -0.9097
 5501SOL    HW217324   2.759   3.570   6.503  0.1459 -0.0806  1.1926
 5502SOL     OW17325   5.600   3.155   6.607 -0.1202  0.4733  0.4097
 5502SOL    HW117326   5.514   3.156   6.556  0.5157 -1.0413 -0.7893
 5502SOL    HW217327   5.584   3.186   6.701 -1.6419  1.7207 -0.2257
 5503SOL     OW17328   4.492   0.552   0.884  0.3844  0.1399 -0.0906
 5503SOL    HW117329   4.473   0.627   0.948  1.0479  1.3477 -1.2580
 5503SOL    HW217330   4.543   0.480   0.932 -1.4369 -0.2274  1.3991
 5504SOL     OW17331   6.032   0.125   6.525  0.3906 -0.3337  0.4232
 5504SOL    HW117332   6.059   0.069   6.604  0.2164 -0.0001  0.7224
 5504SOL    HW217333   5.997   0.213   6.558 -0.9654 -0.7097  0.0411
 5505SOL     OW17334   2.938   6.156   2.853 -0.1188  0.2882  0.1405
 5505SOL    HW117335   3.002   6.142   2.778 -1.1102 -1.3610 -0.4504
 5505SOL    HW217336   2.888   6.241   2.839  0.6162  0.6576 -0.3490
 5506SOL     OW17337   5.629   5.929   5.035 -0.4910 -0.4497 -0.0798
 5506SOL    HW117338   5.704   5.962   5.093 -1.0033  1.5736 -0.4832
 5506SOL    HW217339   5.546   5.918   5.091 -0.4112 -0.6995 -0.0111
 5507SOL     OW17340   1.958   2.336   1.595  0.0341  0.5586 -0.1728
 5507SOL    HW117341   1.969   2.418   1.540  1.7714  0.4294 -0.0727
 5507SOL    HW217342   2.040   2.321   1.650 -0.8348 -0.4491  0.9210
 5508SOL     OW17343   4.047   2.064   2.162 -0.3483  0.0125 -0.1201
 5508SOL    HW117344   4.013   2.019   2.080  0.9432 -0.8092 -0.2406
 5508SOL    HW217345   4.143   2.089   2.149 -0.3982  0.7239  0.7968
 5509SOL     OW17346   0.011   4.350   0.672 -0.2168 -0.1724 -0.3043
 5509SOL    HW117347   0.072   4.274   0.651 -0.5849 -0.8028  0.8215
 5509SOL    HW217348   0.053   4.410   0.740  0.0374  0.6160 -1.1250
 5510SOL     OW17349   1.463   1.276   6.498 -0.4524 -0.0171 -0.3555
 5510SOL    HW117350   1.394   1.348   6.493  0.5513  0.9851 -0.1900
 5510SOL    HW217351   1.553   1.315   6.481 -0.0759 -1.6079 -2.4871
 5511SOL     OW17352   0.396   0.738   2.171  0.2655 -0.4514  0.3400
 5511SOL    HW117353   0.368   0.686   2.252  1.6305 -1.1130  0.4232
 5511SOL    HW217354   0.493   0.720   2.153  0.4216  1.0411 -0.4279
 5512SOL     OW17355   0.310   2.876   0.957  0.2251  1.3949  0.4290
 5512SOL    HW117356   0.211   2.879   0.945  0.3238  0.6834 -0.6795
 5512SOL    HW217357   0.352   2.953   0.910  0.3355  0.6096 -0.7880
 5513SOL     OW17358   2.267   4.398   1.482 -0.5423  0.0038 -0.1701
 5513SOL    HW117359   2.232   4.359   1.567  1.1685 -0.7377  0.2282
 5513SOL    HW217360   2.279   4.497   1.493 -0.9986  0.0201  0.2093
 5514SOL     OW17361   3.077   4.171   1.684 -0.1840 -0.0982 -0.3555
 5514SOL    HW117362   3.110   4.169   1.589  0.0491  1.3082 -0.3202
 5514SOL    HW217363   3.096   4.261   1.724 -0.3875 -0.6391  0.9948
 5515SOL     OW17364   6.041   2.845   1.192 -0.2085 -0.3972 -0.1591
 5515SOL    HW117365   6.033   2.871   1.096  2.0315  3.4728  0.4822
 5515SOL    HW217366   5.953   2.858   1.237 -1.1341 -1.6884 -1.5261
 5516SOL     OW17367   1.978   1.676   1.165  0.9599 -0.0586 -0.3794
 5516SOL    HW117368   1.962   1.599   1.104  0.3297 -1.0483  0.9845
 5516SOL    HW217369   1.892   1.704   1.207  1.7233 -1.4060  2.3239
 5517SOL     OW17370   1.618   6.425   1.523  0.3538 -0.2478  0.1833
 5517SOL    HW117371   1.536   6.380   1.560  0.2664 -0.2903 -0.0592
 5517SOL    HW217372   1.623   6.518   1.557  1.2533 -0.8435  1.7732
 5518SOL     OW17373   1.781   1.404   1.175  0.5078  0.3531 -0.2626
 5518SOL    HW117374   1.847   1.335   1.202  0.3917  0.1677 -0.4533
 5518SOL    HW217375   1.794   1.428   1.079 -0.9518 -1.1213 -0.8808
 5519SOL     OW17376   0.782   4.785   4.330 -0.0727  0.3062 -0.1607
 5519SOL    HW117377   0.711   4.724   4.294  0.2574  0.2023 -0.6476
 5519SOL    HW217378   0.744   4.876   4.343 -0.9509 -0.2813  1.8644
 5520SOL     OW17379   5.982   0.486   4.798 -0.3176  0.3749  0.7512
 5520SOL    HW117380   6.069   0.530   4.821  0.7985 -2.4762  2.5779
 5520SOL    HW217381   5.996   0.423   4.722 -0.7265 -0.1718  1.1184
 5521SOL     OW17382   3.760   5.548   3.748  0.2435 -0.1732  0.8352
 5521SOL    HW117383   3.686   5.610   3.775 -0.0977  0.3404 -1.1016
 5521SOL    HW217384   3.810   5.518   3.829 -0.5613  1.4067  1.9679
 5522SOL     OW17385   4.414   5.489   4.016  0.4818  0.0567 -0.2657
 5522SOL    HW117386   4.327   5.511   4.060  1.4439 -0.4738  2.0222
 5522SOL    HW217387   4.404   5.404   3.964 -0.2228 -0.2885  0.4183
 5523SOL     OW17388   6.379   6.066   3.907  0.3017  0.4679  0.0687
 5523SOL    HW117389   6.333   6.119   3.979 -0.6567  0.7019 -0.6891
 5523SOL    HW217390   6.457   6.118   3.873 -0.2063  1.0880 -0.1695
 5524SOL     OW17391   2.321   0.478   2.736 -0.4320 -0.1977  0.1131
 5524SOL    HW117392   2.234   0.488   2.785 -0.8345  0.1473 -0.6570
 5524SOL    HW217393   2.358   0.387   2.754 -0.6728 -0.1601  0.8806
 5525SOL     OW17394   5.930   4.658   1.722 -0.8180 -0.4159  0.1781
 5525SOL    HW117395   6.023   4.662   1.757 -1.0317  0.5502  0.6829
 5525SOL    HW217396   5.922   4.718   1.642 -0.8228 -1.1076 -0.3565
 5526SOL     OW17397   6.583   3.844   3.936  0.2703 -0.4268 -0.7470
 5526SOL    HW117398   6.658   3.890   3.983 -0.6757  0.4059 -0.0032
 5526SOL    HW217399   6.597   3.745   3.940  0.9157 -0.3117  0.1015
 5527SOL     OW17400   3.846   0.377   6.677 -0.0051 -0.0031 -0.1214
 5527SOL    HW117401   3.871   0.401   6.771 -1.1372 -0.4116  0.3100
 5527SOL    HW217402   3.748   0.353   6.674  0.2803 -1.1374 -1.1769
 5528SOL     OW17403   0.823   5.355   1.897 -0.1168  0.3999  0.2828
 5528SOL    HW117404   0.724   5.348   1.899 -0.0381 -0.7818  0.7657
 5528SOL    HW217405   0.863   5.277   1.945  1.0711 -0.1174 -1.4584
 5529SOL     OW17406   4.602   2.146   0.338  0.0121  0.0670 -0.2931
 5529SOL    HW117407   4.559   2.153   0.428  1.8672 -0.9296  0.7349
 5529SOL    HW217408   4.654   2.229   0.319  1.4019 -0.5661  0.5793
 5530SOL     OW17409   1.544   0.264   0.812 -0.6506  0.1303 -0.3137
 5530SOL    HW117410   1.506   0.337   0.869 -0.0686 -0.2069  0.5247
 5530SOL    HW217411   1.635   0.239   0.845 -1.0571 -1.3580 -0.2311
 5531SOL     OW17412   6.279   4.799   3.451  0.2338  0.2118 -0.7854
 5531SOL    HW117413   6.322   4.760   3.533  1.7537  0.3984 -1.4673
 5531SOL    HW217414   6.231   4.883   3.476 -0.3122 -0.3411  0.1070
 5532SOL     OW17415   6.127   4.603   6.872  0.2118 -0.1081 -0.4678
 5532SOL    HW117416   6.158   4.636   6.782  0.0443  1.0352 -0.1188
 5532SOL    HW217417   6.031   4.629   6.885  0.5620  0.7560  0.5079
 5533SOL     OW17418   5.099   5.810   0.520  0.4219  0.5429 -0.2114
 5533SOL    HW117419   5.139   5.726   0.557  1.2133 -0.7760 -3.7001
 5533SOL    HW217420   5.173   5.873   0.494 -0.0385  0.9675 -0.5128
 5534SOL     OW17421   1.746   5.571   4.280 -0.3929 -0.1466 -0.0696
 5534SOL    HW117422   1.790   5.489   4.315 -0.6389  0.0045  0.5976
 5534SOL    HW217423   1.816   5.632   4.242 -0.3163 -1.1918 -1.7221
 5535SOL     OW17424   5.467   2.161   0.609  0.0010  0.9486 -0.2199
 5535SOL    HW117425   5.453   2.255   0.578 -1.2055  1.3933  1.5147
 5535SOL    HW217426   5.442   2.153   0.705 -0.5536 -1.2917 -0.4794
 5536SOL     OW17427   6.436   6.845   0.424 -0.0655  0.7893  0.0548
 5536SOL    HW117428   6.455   6.772   0.359 -0.9409 -1.0170  1.6927
 5536SOL    HW217429   6.522   6.887   0.454  0.4144  0.8175 -1.2904
 5537SOL     OW17430   2.405   6.068   3.203 -0.2138  0.0974  0.6642
 5537SOL    HW117431   2.385   5.981   3.248 -1.4750  0.0716  0.0994
 5537SOL    HW217432   2.498   6.065   3.165 -0.0379 -0.7881  1.1273
 5538SOL     OW17433   2.470   6.518   2.821  0.4468  0.4114 -0.5423
 5538SOL    HW117434   2.395   6.584   2.819  0.1809  0.1551  0.4551
 5538SOL    HW217435   2.524   6.532   2.904  2.6528  1.8217 -2.0996
 5539SOL     OW17436   0.223   4.335   4.093 -0.6531 -0.4859 -0.2512
 5539SOL    HW117437   0.216   4.289   4.182 -0.5866  0.2042  0.1164
 5539SOL    HW217438   0.304   4.392   4.091 -0.8376 -0.2307 -0.6318
 5540SOL     OW17439   6.816   4.548   6.304  0.1952  0.3579  0.9006
 5540SOL    HW117440   6.860   4.584   6.222  0.2486  0.9199  1.1684
 5540SOL    HW217441   6.834   4.609   6.381 -1.3955  0.8287  0.9360
 5541SOL     OW17442   3.099   1.006   1.262 -0.3226  0.0658 -0.5360
 5541SOL    HW117443   3.034   0.935   1.235  1.0127 -1.2071 -0.5334
 5541SOL    HW217444   3.100   1.078   1.193 -0.4831 -0.7566 -1.4109
 5542SOL     OW17445   1.810   5.735   0.588  0.1701  0.1171 -0.5602
 5542SOL    HW117446   1.877   5.776   0.650  0.5647 -1.0829 -0.1736
 5542SOL    HW217447   1.843   5.742   0.494  0.8606 -0.4984 -0.3710
 5543SOL     OW17448   1.795   4.177   1.976  0.1675  0.7279 -0.5765
 5543SOL    HW117449   1.697   4.162   1.971  0.4242 -0.9368 -1.0179
 5543SOL    HW217450   1.813   4.265   2.020 -1.4684  0.2903  1.0498
 5544SOL     OW17451   5.902   2.971   4.169  0.3173 -0.2687  0.1301
 5544SOL    HW117452   5.870   2.995   4.261 -0.0607  1.0647 -0.3258
 5544SOL    HW217453   6.001   2.987   4.164  0.3375 -0.3358  0.3044
 5545SOL     OW17454   1.273   0.852   4.218 -0.5570 -0.0135  0.1331
 5545SOL    HW117455   1.326   0.898   4.146  2.0148 -1.5608  0.8870
 5545SOL    HW217456   1.302   0.887   4.307 -2.4618  0.6434  0.5443
 5546SOL     OW17457   2.246   5.965   0.056 -0.4246  0.0602  0.2648
 5546SOL    HW117458   2.231   5.933   0.150 -0.5248  0.3520  0.3493
 5546SOL    HW217459   2.283   5.891   0.001  1.4402  0.3945  0.9992
 5547SOL     OW17460   2.965   0.491   5.448  0.0685 -0.1230  0.6522
 5547SOL    HW117461   3.022   0.567   5.418  1.1115 -0.8437  0.7291
 5547SOL    HW217462   2.880   0.526   5.487 -0.0295  0.9420 -0.4411
 5548SOL     OW17463   4.378   1.642   3.125 -0.2890  0.0477  0.0949
 5548SOL    HW117464   4.284   1.645   3.092 -0.7189 -0.3490  1.2563
 5548SOL    HW217465   4.402   1.728   3.169 -0.1826  0.0532  0.0286
 5549SOL     OW17466   3.119   3.562   1.454  0.1237  0.0617 -0.4180
 5549SOL    HW117467   3.040   3.623   1.467 -0.0678 -0.6779  2.4673
 5549SOL    HW217468   3.203   3.616   1.455 -0.1688  0.5279 -0.4547
 5550SOL     OW17469   4.428   3.754   5.341 -0.0412  0.4899 -0.3146
 5550SOL    HW117470   4.389   3.686   5.279 -0.2171  1.8317 -1.7437
 5550SOL    HW217471   4.526   3.737   5.351 -0.0674  0.0692 -0.7358
 5551SOL     OW17472   4.882   0.575   4.303 -0.0787 -0.1996  0.5573
 5551SOL    HW117473   4.876   0.478   4.326  1.3352 -0.0344  1.7355
 5551SOL    HW217474   4.880   0.630   4.387 -0.5535  0.7845 -0.0747
 5552SOL     OW17475   2.172   4.749   0.231  0.1160  0.2393  0.1576
 5552SOL    HW117476   2.140   4.840   0.203  2.4430  1.1587  0.2273
 5552SOL    HW217477   2.194   4.750   0.328 -0.3446 -0.5812  0.2770
 5553SOL     OW17478   5.382   1.343   4.593 -0.0149 -0.2061  0.4303
 5553SOL    HW117479   5.433   1.428   4.596 -1.5875  0.7552  1.4992
 5553SOL    HW217480   5.331   1.337   4.506  0.7446 -0.4780 -0.0054
 5554SOL     OW17481   6.250   5.204   1.382  0.4714 -0.4076 -0.2652
 5554SOL    HW117482   6.249   5.107   1.361 -0.1534 -0.2760 -0.8811
 5554SOL    HW217483   6.251   5.218   1.481 -2.3587 -1.0474 -0.0746
 5555SOL     OW17484   3.392   0.572   1.785 -0.3831 -0.3656  0.1287
 5555SOL    HW117485   3.449   0.507   1.835 -1.1701 -1.3091 -0.1715
 5555SOL    HW217486   3.297   0.540   1.786 -0.9997  1.3832  0.9721
 5556SOL     OW17487   5.511   4.666   1.298 -0.0139 -0.4622  0.1473
 5556SOL    HW117488   5.513   4.638   1.394  0.2811 -2.5017 -0.4252
 5556SOL    HW217489   5.593   4.633   1.252  0.4187  1.4896 -0.5843
 5557SOL     OW17490   0.552   4.269   3.167 -0.5646  0.7607 -0.1715
 5557SOL    HW117491   0.586   4.259   3.261 -1.3482  1.6744  0.2324
 5557SOL    HW217492   0.481   4.340   3.165 -1.5858 -0.2572 -1.1930
 5558SOL     OW17493   0.637   4.608   0.446 -0.0286 -0.6327 -0.3241
 5558SOL    HW117494   0.703   4.680   0.428  0.9617 -0.9921  1.5294
 5558SOL    HW217495   0.658   4.528   0.390  0.9372 -0.6253  0.0046
 5559SOL     OW17496   5.085   6.506   2.589 -0.0875  0.7119  0.4343
 5559SOL    HW117497   5.095   6.497   2.688 -0.8508 -1.3279  0.3864
 5559SOL    HW217498   5.152   6.447   2.543  0.0936  1.4496 -0.2595
 5560SOL     OW17499   0.360   2.831   0.357  0.0973  0.0922 -0.5794
 5560SOL    HW117500   0.383   2.877   0.271  1.1261  0.4462 -0.1291
 5560SOL    HW217501   0.422   2.754   0.372 -0.1716 -0.0594 -0.2263
 5561SOL     OW17502   1.893   3.068   1.729  0.3580  0.3942 -0.3384
 5561SOL    HW117503   1.839   3.023   1.657 -0.8275  0.6018  0.3959
 5561SOL    HW217504   1.989   3.042   1.720  0.2961  0.6700 -2.1920
 5562SOL     OW17505   1.531   1.253   1.555  0.3357 -0.3749  0.8649
 5562SOL    HW117506   1.526   1.353   1.548 -0.4334 -0.4636 -0.0046
 5562SOL    HW217507   1.622   1.227   1.588  1.3041  0.5360 -0.8904
 5563SOL     OW17508   1.323   4.627   3.995  0.1121  0.5450  0.0313
 5563SOL    HW117509   1.386   4.698   3.964  3.2051 -0.2496  3.7724
 5563SOL    HW217510   1.267   4.662   4.070  0.9209 -0.5428  1.1919
 5564SOL     OW17511   4.682   0.753   5.569  0.2524  0.3169 -0.0005
 5564SOL    HW117512   4.718   0.661   5.554 -1.4608 -0.3276 -0.4595
 5564SOL    HW217513   4.654   0.763   5.665 -1.2934 -0.3384 -0.3519
 5565SOL     OW17514   4.318   0.701   2.265 -0.2516  0.2990  0.0125
 5565SOL    HW117515   4.304   0.790   2.310 -2.7988  1.2482 -2.3180
 5565SOL    HW217516   4.373   0.715   2.183  2.9396 -1.1185  1.7619
 5566SOL     OW17517   0.896   5.136   1.706  0.8405  0.1104 -0.1564
 5566SOL    HW117518   0.871   5.224   1.747  3.0183  1.8173 -2.2251
 5566SOL    HW217519   0.958   5.087   1.768  0.4048  0.4855  0.5888
 5567SOL     OW17520   1.524   6.044   3.255  0.7298  0.2114  0.2937
 5567SOL    HW117521   1.582   6.088   3.324 -0.5486  1.1950  0.7679
 5567SOL    HW217522   1.582   6.004   3.184  1.9845  2.1265  0.1646
 5568SOL     OW17523   4.753   6.933   0.889 -0.2538  0.0805 -0.3818
 5568SOL    HW117524   4.662   6.953   0.927 -0.2922 -0.1501 -0.3475
 5568SOL    HW217525   4.742   6.876   0.808 -0.1719  0.5829 -0.7452
 5569SOL     OW17526   2.914   1.909   4.797  0.4741 -0.2374 -0.0294
 5569SOL    HW117527   2.816   1.908   4.818  0.5403  0.8808  0.4145
 5569SOL    HW217528   2.959   1.980   4.851  1.8509 -1.8590  1.0598
 5570SOL     OW17529   6.388   5.000   0.826 -0.3456 -0.4652 -0.4636
 5570SOL    HW117530   6.356   5.039   0.740 -0.3979 -0.0232 -0.2502
 5570SOL    HW217531   6.313   4.950   0.870 -0.4972 -0.1793 -0.3894
 5571SOL     OW17532   3.156   6.097   1.780 -0.1334  0.9057  0.0030
 5571SOL    HW117533   3.218   6.021   1.762 -0.3859  0.7485 -0.2097
 5571SOL    HW217534   3.163   6.123   1.877 -0.4648  0.2355  0.2123
 5572SOL     OW17535   3.331   3.092   6.810 -0.0217 -0.0935  0.0439
 5572SOL    HW117536   3.319   3.190   6.819 -2.6337 -0.4288  1.0830
 5572SOL    HW217537   3.425   3.072   6.779  1.0537  2.6042  1.2675
 5573SOL     OW17538   6.473   1.527   1.616  0.0104 -0.0847  0.2601
 5573SOL    HW117539   6.531   1.447   1.636 -0.6412 -0.2153  1.7002
 5573SOL    HW217540   6.529   1.599   1.575  1.0338 -0.5015  0.8965
 5574SOL     OW17541   0.621   0.188   1.978 -0.3164 -0.0028 -0.4277
 5574SOL    HW117542   0.551   0.260   1.981 -1.6434 -1.0718 -2.9684
 5574SOL    HW217543   0.712   0.229   1.973 -1.0929  1.6510 -3.4609
 5575SOL     OW17544   5.405   2.271   1.948 -0.1151  0.0471 -0.2361
 5575SOL    HW117545   5.492   2.319   1.955 -0.7636  1.2562 -0.2179
 5575SOL    HW217546   5.377   2.267   1.852  0.0446 -0.5141 -0.2638
 5576SOL     OW17547   1.324   1.076   6.341 -0.0563 -0.0958  0.2065
 5576SOL    HW117548   1.382   1.065   6.261 -1.5340  0.2130 -0.9602
 5576SOL    HW217549   1.368   1.138   6.406  0.3148  1.2541 -1.2691
 5577SOL     OW17550   1.999   6.133   1.091 -0.6774 -0.5762 -0.0342
 5577SOL    HW117551   1.904   6.135   1.121 -1.4565 -0.1593 -2.3232
 5577SOL    HW217552   2.003   6.106   0.995  1.3997  0.8952 -0.4375
 5578SOL     OW17553   3.885   2.837   1.799  0.3463 -0.2751  0.8458
 5578SOL    HW117554   3.804   2.779   1.793 -0.3648  0.2590  3.7602
 5578SOL    HW217555   3.931   2.839   1.710 -2.3126 -1.2796 -0.6732
 5579SOL     OW17556   1.468   6.398   3.911 -0.0506  0.0410  0.0987
 5579SOL    HW117557   1.399   6.327   3.927  0.8510 -1.5899 -2.4961
 5579SOL    HW217558   1.448   6.478   3.968 -1.1143 -2.2359  3.2024
 5580SOL     OW17559   0.605   0.254   4.975  0.3845  0.2107 -0.5933
 5580SOL    HW117560   0.640   0.332   5.026 -1.3171  1.0328 -0.5958
 5580SOL    HW217561   0.567   0.285   4.887 -1.9251 -0.2751  0.1466
 5581SOL     OW17562   6.585   3.090   3.728  0.5616 -0.0859  0.2479
 5581SOL    HW117563   6.640   3.128   3.802  0.5134 -3.0780  1.9772
 5581SOL    HW217564   6.641   3.082   3.645  1.8940 -0.3846  1.1423
 5582SOL     OW17565   1.255   6.973   6.353 -0.5469  0.3058 -0.0916
 5582SOL    HW117566   1.261   7.007   6.447 -0.3764 -0.8155  0.3113
 5582SOL    HW217567   1.180   7.021   6.306 -0.0016  1.5923  0.2875
 5583SOL     OW17568   2.159   1.701   6.938 -0.3470 -0.1914  0.3072
 5583SOL    HW117569   2.064   1.715   6.910 -0.3242 -0.0404  0.3041
 5583SOL    HW217570   2.166   1.617   6.991 -0.4204 -0.3881  0.0082
 5584SOL     OW17571   3.231   1.044   0.089 -0.7319 -0.1220  0.0132
 5584SOL    HW117572   3.213   0.953   0.052  0.2907  0.2077 -1.3875
 5584SOL    HW217573   3.303   1.039   0.158 -0.1229 -0.2841 -0.6239
 5585SOL     OW17574   1.159   3.363   2.233  0.5643  0.3577 -0.3741
 5585SOL    HW117575   1.203   3.451   2.252  0.6656  0.7587 -2.2139
 5585SOL    HW217576   1.203   3.321   2.154 -0.0573 -0.9436 -0.0410
 5586SOL     OW17577   0.918   1.902   6.749 -0.4394 -0.3689  0.0697
 5586SOL    HW117578   0.990   1.889   6.817 -0.0097  1.8558  0.1123
 5586SOL    HW217579   0.893   1.813   6.710  2.1370 -1.2580  0.2401
 5587SOL     OW17580   3.019   3.199   6.125 -0.0483 -0.2814  0.0701
 5587SOL    HW117581   3.062   3.180   6.037 -0.1366 -2.4856  0.4299
 5587SOL    HW217582   2.921   3.179   6.119 -0.2586  0.6392  0.3672
 5588SOL     OW17583   0.958   4.098   1.787 -0.5648  0.0028  0.7524
 5588SOL    HW117584   0.905   4.164   1.733 -0.9574 -0.3964  0.6456
 5588SOL    HW217585   1.009   4.038   1.727  1.0152  1.1737  0.8676
 5589SOL     OW17586   2.121   0.513   3.199 -0.8455  0.6475  0.1662
 5589SOL    HW117587   2.074   0.600   3.182 -0.2588  0.7893 -0.8192
 5589SOL    HW217588   2.220   0.527   3.191 -0.6677  0.1700  1.3380
 5590SOL     OW17589   5.108   5.941   6.696 -0.3765 -0.7919 -0.4784
 5590SOL    HW117590   5.049   5.863   6.675 -0.0829 -1.6860  1.7759
 5590SOL    HW217591   5.060   6.026   6.671 -2.5961 -1.4892  1.0797
 5591SOL     OW17592   6.082   5.874   0.774 -0.3247 -0.5992  0.5091
 5591SOL    HW117593   6.008   5.883   0.840 -0.6565 -1.2470  0.2300
 5591SOL    HW217594   6.162   5.926   0.806 -1.5821  1.9674 -0.2665
 5592SOL     OW17595   2.461   6.406   1.787 -1.0334  0.0635  0.6889
 5592SOL    HW117596   2.361   6.408   1.785 -1.0437  0.0236 -1.6846
 5592SOL    HW217597   2.493   6.324   1.738  0.1553  0.5239  0.6727
 5593SOL     OW17598   6.389   5.883   5.176 -0.0714  0.0428 -0.2246
 5593SOL    HW117599   6.445   5.964   5.166  0.0075  0.0079 -0.0700
 5593SOL    HW217600   6.336   5.868   5.092  0.3810 -0.1019 -0.4868
 5594SOL     OW17601   6.016   6.995   0.962 -0.0086 -0.4348 -0.2921
 5594SOL    HW117602   6.090   6.990   0.895 -0.1005  0.7082 -0.5029
 5594SOL    HW217603   6.048   7.045   1.042 -0.0150 -1.4812  0.3865
 5595SOL     OW17604   6.265   3.187   0.814 -0.1912  0.5418  0.1356
 5595SOL    HW117605   6.344   3.157   0.867  0.8473 -0.0952 -1.6722
 5595SOL    HW217606   6.238   3.114   0.750  0.4840  2.2640 -2.2586
 5596SOL     OW17607   2.086   5.223   1.396  0.0750 -0.2112 -0.1449
 5596SOL    HW117608   2.154   5.293   1.373 -0.0593 -0.4796 -1.3984
 5596SOL    HW217609   2.111   5.137   1.353 -0.0999 -0.7967  0.8792
 5597SOL     OW17610   0.121   4.498   3.316 -0.1125  0.0936 -0.3111
 5597SOL    HW117611   0.042   4.549   3.281 -0.3306 -0.8383 -1.2061
 5597SOL    HW217612   0.178   4.559   3.372 -0.5680  1.2140 -1.0444
 5598SOL     OW17613   4.641   5.582   2.469 -0.6263  0.4858  0.0342
 5598SOL    HW117614   4.569   5.596   2.538 -0.4614  0.4478  0.2142
 5598SOL    HW217615   4.689   5.668   2.454 -1.2633  0.7240 -0.7129
 5599SOL     OW17616   5.502   4.733   1.618  0.1073 -0.1148 -0.4729
 5599SOL    HW117617   5.426   4.796   1.599  0.6116 -0.3655 -4.1906
 5599SOL    HW217618   5.469   4.639   1.614 -0.0961 -0.2069  2.1563
 5600SOL     OW17619   2.725   5.039   5.049 -0.4240  0.1517 -0.3266
 5600SOL    HW117620   2.757   5.126   5.086  0.3823 -0.3743  0.2308
 5600SOL    HW217621   2.636   5.053   5.005 -0.6461  1.1085  0.3854
 5601SOL     OW17622   1.455   2.431   2.744  0.1312 -0.0323 -0.2017
 5601SOL    HW117623   1.465   2.517   2.794 -0.1482  1.9173 -3.2434
 5601SOL    HW217624   1.358   2.404   2.744 -0.0135  0.4777 -0.4729
 5602SOL     OW17625   3.693   1.552   1.732  0.0825 -0.3226  0.5521
 5602SOL    HW117626   3.693   1.562   1.632 -2.3486  0.7910  0.5911
 5602SOL    HW217627   3.688   1.455   1.755 -3.0283 -0.5397 -0.5714
 5603SOL     OW17628   6.298   2.810   3.727 -0.4152  0.4995 -0.2404
 5603SOL    HW117629   6.297   2.899   3.682  1.1719  0.9128  0.4693
 5603SOL    HW217630   6.390   2.791   3.762 -0.6043 -1.6277 -0.7511
 5604SOL     OW17631   6.077   0.438   2.438  0.6416  0.2695 -0.4617
 5604SOL    HW117632   6.129   0.356   2.461  0.5684  0.5284  0.6794
 5604SOL    HW217633   6.013   0.417   2.365  0.0186 -0.9304  0.3874
 5605SOL     OW17634   2.953   4.777   6.882  0.1994 -1.1087 -0.0769
 5605SOL    HW117635   2.986   4.750   6.973 -0.5131 -1.1543  0.1767
 5605SOL    HW217636   3.028   4.773   6.816  1.3628  1.3054  0.9680
 5606SOL     OW17637   3.895   6.534   0.861  0.4162 -0.1679  0.3085
 5606SOL    HW117638   3.945   6.508   0.944 -1.4545 -1.2047  1.1976
 5606SOL    HW217639   3.866   6.451   0.813  1.6148  0.4203 -1.5204
 5607SOL     OW17640   6.690   0.698   5.118  0.1677 -0.1128 -0.1044
 5607SOL    HW117641   6.616   0.630   5.111 -0.8534  0.9324  0.2367
 5607SOL    HW217642   6.778   0.651   5.122 -0.3318 -1.3678 -2.2496
 5608SOL     OW17643   0.310   1.958   1.590  0.0609 -0.3056  0.6808
 5608SOL    HW117644   0.278   1.927   1.501 -0.9301 -1.1551  1.3041
 5608SOL    HW217645   0.240   1.939   1.659  1.1142 -0.3717  1.7723
 5609SOL     OW17646   3.840   4.740   2.820 -0.3566 -0.2010  0.1702
 5609SOL    HW117647   3.831   4.823   2.875  2.6526  0.1029  0.3622
 5609SOL    HW217648   3.874   4.666   2.877  0.6117 -0.5073 -0.7717
 5610SOL     OW17649   4.331   1.748   6.084  0.0748  0.0077 -0.2729
 5610SOL    HW117650   4.376   1.835   6.065  0.8177 -0.0629  1.0530
 5610SOL    HW217651   4.347   1.722   6.179 -1.5699 -0.7561 -0.1761
 5611SOL     OW17652   5.429   6.393   4.020 -0.2633  0.1910  0.0938
 5611SOL    HW117653   5.392   6.476   3.978 -0.7593  0.5379  1.1729
 5611SOL    HW217654   5.356   6.344   4.067  0.3980  0.1875  1.1410
 5612SOL     OW17655   6.395   0.193   3.303 -0.1944 -0.0206 -0.4308
 5612SOL    HW117656   6.300   0.160   3.306 -0.3728  0.5334  0.8202
 5612SOL    HW217657   6.450   0.142   3.369  0.2718  0.0000 -0.7981
 5613SOL     OW17658   2.713   3.961   2.156  0.4905 -0.3185 -0.2987
 5613SOL    HW117659   2.748   4.033   2.096 -0.5871  0.8813  0.4497
 5613SOL    HW217660   2.766   3.960   2.241 -0.0492  0.2188  0.0557
 5614SOL     OW17661   3.392   4.146   2.934 -0.3912 -0.0538 -0.1311
 5614SOL    HW117662   3.308   4.168   2.983 -0.4991 -0.0452 -0.3194
 5614SOL    HW217663   3.471   4.160   2.994 -0.4820  0.4940 -0.1365
 5615SOL     OW17664   0.368   1.025   0.652 -0.8982 -0.2373 -0.4014
 5615SOL    HW117665   0.432   1.063   0.585 -0.7675  1.3482  0.5911
 5615SOL    HW217666   0.290   0.985   0.604 -0.5299  0.3455 -1.5223
 5616SOL     OW17667   5.281   4.762   2.397 -0.4431 -0.0930  0.9229
 5616SOL    HW117668   5.291   4.809   2.484 -0.2976 -0.9078  1.3592
 5616SOL    HW217669   5.371   4.728   2.368 -0.0942  1.9348 -0.5822
 5617SOL     OW17670   2.980   1.400   6.079  0.4359  0.3152  0.4233
 5617SOL    HW117671   2.898   1.422   6.131 -1.1377  1.1087 -2.1886
 5617SOL    HW217672   2.961   1.323   6.018  2.3323 -0.8647  1.2281
 5618SOL     OW17673   0.788   3.521   2.931 -0.2545 -0.7328 -0.3949
 5618SOL    HW117674   0.753   3.508   3.024  0.1028 -0.1641 -0.1781
 5618SOL    HW217675   0.722   3.576   2.879 -0.1302 -0.4642 -0.2698
 5619SOL     OW17676   5.645   5.429   3.184 -0.1004 -0.3098  0.3018
 5619SOL    HW117677   5.558   5.478   3.192 -0.0367 -0.4733  3.2543
 5619SOL    HW217678   5.628   5.331   3.192  0.3724 -0.3037  1.6498
 5620SOL     OW17679   0.122   4.957   5.863  0.2087 -0.5843 -0.3576
 5620SOL    HW117680   0.210   4.914   5.840  0.5117  0.8430 -2.0121
 5620SOL    HW217681   0.053   4.931   5.796 -0.2744 -0.5308  0.1083
 5621SOL     OW17682   3.048   0.099   0.318 -0.8476 -0.5132  0.1749
 5621SOL    HW117683   3.024   0.143   0.405 -0.0548 -0.8871  0.5939
 5621SOL    HW217684   3.070   0.169   0.250 -0.0346 -0.2426  0.7039
 5622SOL     OW17685   5.390   2.778   4.378 -0.2342  0.2332 -0.2397
 5622SOL    HW117686   5.383   2.817   4.470 -0.0765 -0.4495  0.0705
 5622SOL    HW217687   5.313   2.808   4.323 -1.1373 -0.5371  0.5703
 5623SOL     OW17688   6.242   2.645   1.104 -0.5785  0.3764  0.3201
 5623SOL    HW117689   6.203   2.716   1.163 -1.1939  1.1853 -1.0075
 5623SOL    HW217690   6.302   2.688   1.036 -1.0002 -0.3554 -0.5332
 5624SOL     OW17691   0.768   1.508   1.216  0.4795  0.1662 -0.0282
 5624SOL    HW117692   0.838   1.460   1.269  1.2082 -0.3839 -1.4224
 5624SOL    HW217693   0.736   1.448   1.142  1.0023  1.5798 -1.4646
 5625SOL     OW17694   5.950   6.380   2.551 -0.2486  0.5020  0.0576
 5625SOL    HW117695   5.995   6.379   2.462 -0.4560 -0.3636 -0.0360
 5625SOL    HW217696   6.019   6.377   2.623 -0.1126  0.3001 -0.0807
 5626SOL     OW17697   3.955   5.401   6.642  0.2051 -0.2515  0.6876
 5626SOL    HW117698   3.860   5.368   6.639 -0.0478  0.4754  0.6669
 5626SOL    HW217699   3.961   5.490   6.598  0.5457  0.5666  2.2943
 5627SOL     OW17700   2.171   2.284   1.769  0.2124 -0.4704  0.5254
 5627SOL    HW117701   2.164   2.200   1.823  0.4271 -0.6650  0.2574
 5627SOL    HW217702   2.179   2.363   1.830 -1.1159 -0.5235  0.7990
 5628SOL     OW17703   0.532   4.560   3.387  0.0235  0.0753  0.1056
 5628SOL    HW117704   0.539   4.607   3.299 -0.1004 -0.2023 -0.0542
 5628SOL    HW217705   0.435   4.556   3.415  0.1049  0.5781  0.4842
 5629SOL     OW17706   6.131   4.516   4.315 -0.0671 -0.0607 -0.5073
 5629SOL    HW117707   6.126   4.482   4.221  1.3350  0.3169 -0.7392
 5629SOL    HW217708   6.180   4.604   4.316 -0.2030  0.0116  0.5528
 5630SOL     OW17709   4.199   4.591   3.864  0.1774  0.0131  0.3518
 5630SOL    HW117710   4.149   4.673   3.835 -0.0029  0.2649  1.3546
 5630SOL    HW217711   4.226   4.539   3.783 -1.8777 -0.2499 -0.2209
 5631SOL     OW17712   1.056   4.067   5.430 -0.0753  0.7055 -0.2764
 5631SOL    HW117713   1.104   4.114   5.505  0.9897  2.0250 -1.7169
 5631SOL    HW217714   1.121   4.047   5.357 -0.7286 -2.0633 -0.2432
 5632SOL     OW17715   1.896   2.700   3.273 -0.0277 -0.0995  0.3415
 5632SOL    HW117716   1.975   2.639   3.287 -1.0246 -1.2013  1.4417
 5632SOL    HW217717   1.915   2.789   3.315  0.5797 -0.3909  0.7071
 5633SOL     OW17718   1.451   0.455   3.843 -0.0826 -0.5856  0.3092
 5633SOL    HW117719   1.357   0.425   3.861 -0.7215  0.7994 -0.5698
 5633SOL    HW217720   1.514   0.403   3.901 -1.0337 -3.8770 -1.3498
 5634SOL     OW17721   1.867   1.692   4.301 -0.5561  0.3172  0.6493
 5634SOL    HW117722   1.904   1.785   4.301  2.3154 -0.7007 -0.5107
 5634SOL    HW217723   1.818   1.675   4.215 -0.9966  0.7039  0.8200
 5635SOL     OW17724   5.212   6.751   4.536 -0.5552 -0.1160 -0.2125
 5635SOL    HW117725   5.268   6.735   4.618 -0.9851 -1.6568 -0.1889
 5635SOL    HW217726   5.236   6.684   4.466 -1.7124 -0.1961 -0.5510
 5636SOL     OW17727   2.657   0.147   0.032  0.0463 -0.2179  0.1691
 5636SOL    HW117728   2.632   0.105  -0.055  0.7798 -0.6311  0.1506
 5636SOL    HW217729   2.685   0.076   0.096  1.0397  0.2133  0.2245
 5637SOL     OW17730   3.471   1.536   2.082 -0.1193 -0.0188 -0.0744
 5637SOL    HW117731   3.439   1.541   1.988  1.8334  0.5041 -0.7484
 5637SOL    HW217732   3.513   1.623   2.108  3.3093 -1.4623 -0.2728
 5638SOL     OW17733   4.498   1.400   3.266  0.1688  0.1939 -0.2764
 5638SOL    HW117734   4.580   1.356   3.229  0.6966  0.7757  0.1845
 5638SOL    HW217735   4.463   1.465   3.198  0.5117  0.4725 -0.1914
 5639SOL     OW17736   5.222   0.873   6.184 -0.1508  0.0002 -0.3025
 5639SOL    HW117737   5.221   0.917   6.273  0.3391 -0.3949 -0.0985
 5639SOL    HW217738   5.152   0.801   6.181 -0.8710  0.6975 -0.5960
 5640SOL     OW17739   4.149   0.306   4.095 -0.1512  0.1290 -0.1448
 5640SOL    HW117740   4.158   0.230   4.159 -0.1983  1.0024  0.9098
 5640SOL    HW217741   4.237   0.351   4.082 -0.1948  0.1184 -0.5036
 5641SOL     OW17742   0.834   2.159   5.359  0.3525  0.3354  0.4900
 5641SOL    HW117743   0.736   2.164   5.339 -0.0861  1.6406  2.6686
 5641SOL    HW217744   0.885   2.146   5.274 -1.5143  2.5845 -1.1042
 5642SOL     OW17745   0.928   0.173   0.382 -0.3458  0.5074  0.6034
 5642SOL    HW117746   0.879   0.091   0.354  0.9073  0.3580 -1.3464
 5642SOL    HW217747   1.024   0.150   0.400  0.1953  1.6150 -0.6633
 5643SOL     OW17748   2.586   5.743   0.619  0.3630  0.3635 -0.0215
 5643SOL    HW117749   2.564   5.662   0.564 -0.9581  2.5412 -2.9921
 5643SOL    HW217750   2.507   5.771   0.672  0.0619  0.9003 -0.7263
 5644SOL     OW17751   3.844   3.614   2.751  0.5032 -0.4120  0.6626
 5644SOL    HW117752   3.904   3.657   2.818 -0.0477 -1.5221  1.8993
 5644SOL    HW217753   3.886   3.529   2.718  1.3068  0.6645 -1.3211
 5645SOL     OW17754   3.088   0.327   3.353 -0.3532  0.1051  0.1646
 5645SOL    HW117755   3.156   0.394   3.323  0.2700 -0.9069 -0.7431
 5645SOL    HW217756   3.000   0.347   3.309 -0.0827  0.1387 -0.3682
 5646SOL     OW17757   6.622   2.513   4.106  0.4995  0.1787  0.1137
 5646SOL    HW117758   6.620   2.472   4.015  0.9886 -0.3519  0.3317
 5646SOL    HW217759   6.552   2.584   4.113  0.0491 -0.2004 -0.4772
 5647SOL     OW17760   5.057   3.374   5.542 -0.4499 -0.4880  0.3785
 5647SOL    HW117761   5.103   3.380   5.630  1.3272  0.2164 -0.5544
 5647SOL    HW217762   4.971   3.425   5.546  0.8597  1.7923  0.9687
 5648SOL     OW17763   2.521   1.111   2.956  0.0194  0.0148 -0.3622
 5648SOL    HW117764   2.492   1.201   2.923  2.5010  0.8008 -0.6257
 5648SOL    HW217765   2.455   1.077   3.024 -0.1558  2.7798  0.9768
 5649SOL     OW17766   2.761   1.066   5.645 -0.0954 -0.0541 -0.1009
 5649SOL    HW117767   2.782   1.086   5.741  0.2064 -1.7490  0.2145
 5649SOL    HW217768   2.743   1.152   5.597 -3.4790  0.6932  2.1667
 5650SOL     OW17769   6.666   4.764   2.544 -0.1104 -0.0392  1.1617
 5650SOL    HW117770   6.697   4.715   2.625  0.1238  0.7369  1.5488
 5650SOL    HW217771   6.606   4.840   2.571 -0.8999 -0.4258  0.5360
 5651SOL     OW17772   0.020   4.038   4.294  0.2877 -0.0857  0.2034
 5651SOL    HW117773  -0.079   4.040   4.307  0.1625  1.4892 -0.6872
 5651SOL    HW217774   0.046   3.951   4.255 -1.1107  0.3604 -1.8927
 5652SOL     OW17775   4.284   1.192   3.039  0.1408  0.0786  0.4057
 5652SOL    HW117776   4.196   1.165   3.078 -0.5013  0.3814 -0.7793
 5652SOL    HW217777   4.351   1.120   3.057 -1.4955 -2.5109 -2.6053
 5653SOL     OW17778   6.656   6.206   3.742 -0.0030  0.2103 -0.5637
 5653SOL    HW117779   6.690   6.115   3.718  0.4103  0.2106 -0.0072
 5653SOL    HW217780   6.621   6.251   3.660  1.4541  0.2590 -1.2037
 5654SOL     OW17781   1.106   1.858   6.921  0.4336  0.1068 -0.2818
 5654SOL    HW117782   1.128   1.761   6.915 -1.4780 -0.3382 -1.1286
 5654SOL    HW217783   1.044   1.873   6.999  0.4687  0.5984 -0.3462
 5655SOL     OW17784   3.839   1.418   4.957 -0.0101  0.1910  0.4451
 5655SOL    HW117785   3.862   1.327   4.993  0.7483 -0.4721 -1.5742
 5655SOL    HW217786   3.752   1.448   4.996 -1.0691 -2.1100  0.0362
 5656SOL     OW17787   1.161   3.947   3.198  0.4176 -0.2482  1.0035
 5656SOL    HW117788   1.097   3.927   3.272  1.1244 -1.7210  1.2467
 5656SOL    HW217789   1.224   3.870   3.186 -0.1723 -0.4116 -1.6855
 5657SOL     OW17790   2.914   6.432   0.358  0.0423 -0.3871  0.2025
 5657SOL    HW117791   2.903   6.392   0.267  0.3458 -2.0191  0.8440
 5657SOL    HW217792   3.007   6.413   0.391  0.1646  0.8139  0.5735
 5658SOL     OW17793   5.574   6.872   2.675  0.0604 -0.1354  0.2242
 5658SOL    HW117794   5.600   6.941   2.607  0.5740 -0.1851  0.3633
 5658SOL    HW217795   5.496   6.905   2.728 -0.4831 -0.1861 -0.5262
 5659SOL     OW17796   5.209   0.467   2.227  0.3104  0.2478 -0.5036
 5659SOL    HW117797   5.290   0.524   2.216  0.8918 -0.4300  0.1335
 5659SOL    HW217798   5.158   0.498   2.307  0.6430 -0.1397 -0.1392
 5660SOL     OW17799   5.823   4.205   0.948  0.0078 -0.0780  0.6307
 5660SOL    HW117800   5.908   4.240   0.985 -0.2498  1.1855  0.0960
 5660SOL    HW217801   5.755   4.198   1.021 -0.7377  3.1287  0.4204
 5661SOL     OW17802   1.020   4.826   2.768 -0.0716 -0.0166  0.3337
 5661SOL    HW117803   1.100   4.770   2.789  1.3056  2.0775  0.9364
 5661SOL    HW217804   0.950   4.769   2.725  1.7463 -1.8975 -0.2840
 5662SOL     OW17805   4.549   2.628   0.906  0.1927 -0.2223  0.0725
 5662SOL    HW117806   4.494   2.619   0.990 -0.0610 -0.7973 -0.1529
 5662SOL    HW217807   4.516   2.564   0.837  0.4448  0.2026 -0.4518
 5663SOL     OW17808   4.195   5.691   4.686  0.2742 -0.4304 -0.0630
 5663SOL    HW117809   4.120   5.749   4.654 -1.0020 -2.0293 -0.0691
 5663SOL    HW217810   4.191   5.602   4.640  1.1989 -1.1179  1.1182
 5664SOL     OW17811   0.588   6.122   2.718  0.1335  0.4403 -0.0947
 5664SOL    HW117812   0.520   6.068   2.668  2.1008 -0.8065 -1.6001
 5664SOL    HW217813   0.556   6.216   2.728 -0.9339  0.4254 -2.6360
 5665SOL     OW17814   6.665   2.813   1.503  0.1481 -0.0525 -0.1495
 5665SOL    HW117815   6.718   2.897   1.518  1.0598 -0.5106 -0.7119
 5665SOL    HW217816   6.599   2.801   1.577  0.2597  0.9696  0.1253
 5666SOL     OW17817   3.489   5.514   0.805 -0.0228  0.3116 -0.1923
 5666SOL    HW117818   3.553   5.576   0.759  1.7615 -1.6301 -0.4767
 5666SOL    HW217819   3.451   5.558   0.886 -0.4380  2.4945 -1.5066
 5667SOL     OW17820   4.029   6.296   2.670 -0.2294  0.4659  0.3566
 5667SOL    HW117821   4.016   6.205   2.632  0.6015  0.7595 -0.6858
 5667SOL    HW217822   4.124   6.325   2.656 -1.0600  2.5034 -1.7406
 5668SOL     OW17823   0.041   1.133   6.209 -0.1461 -0.1989 -0.1701
 5668SOL    HW117824   0.043   1.072   6.289  0.0266 -0.7674 -0.6011
 5668SOL    HW217825  -0.025   1.206   6.225  0.0239 -0.1950  0.5740
 5669SOL     OW17826   0.462   2.753   5.933  0.0435  0.1093 -0.5688
 5669SOL    HW117827   0.483   2.655   5.934 -0.3039 -0.0472  3.0464
 5669SOL    HW217828   0.504   2.794   5.852  2.2306 -2.6122 -1.0027
 5670SOL     OW17829   6.082   5.024   5.540  0.8290  0.8681 -0.2309
 5670SOL    HW117830   6.035   4.993   5.457  0.9904  2.9195 -1.1307
 5670SOL    HW217831   6.172   4.980   5.546 -0.5380 -2.1084  0.8438
 5671SOL     OW17832   3.442   4.736   3.736  0.1625  0.2515 -0.1303
 5671SOL    HW117833   3.446   4.748   3.835  0.0676  0.3282 -0.1360
 5671SOL    HW217834   3.533   4.713   3.702 -0.1066 -1.3865  0.1835
 5672SOL     OW17835   5.008   4.565   5.596  0.2508 -0.1145 -0.5268
 5672SOL    HW117836   4.937   4.592   5.661  0.6430  1.2409 -0.6200
 5672SOL    HW217837   4.989   4.606   5.507  1.3033  0.5418 -0.4702
 5673SOL     OW17838   6.868   0.550   5.655 -0.4915  0.0585 -0.0639
 5673SOL    HW117839   6.911   0.487   5.720 -1.9626  0.2157  1.1211
 5673SOL    HW217840   6.777   0.517   5.632 -1.5792  2.0767  1.1378
 5674SOL     OW17841   1.615   3.079   6.158  0.6886 -1.0829  0.0031
 5674SOL    HW117842   1.636   3.175   6.141  0.3217 -0.9829  0.0941
 5674SOL    HW217843   1.538   3.051   6.100  0.5047 -1.1962  0.3004
 5675SOL     OW17844   6.868   6.567   4.642  0.3638  0.2084  0.0441
 5675SOL    HW117845   6.846   6.470   4.645 -0.0929  0.3113  0.1505
 5675SOL    HW217846   6.967   6.579   4.631  1.1649 -0.2990  4.6720
 5676SOL     OW17847   5.608   1.324   6.297 -0.7738 -0.2984  0.1961
 5676SOL    HW117848   5.629   1.403   6.239  2.1908 -0.6461  0.6356
 5676SOL    HW217849   5.533   1.271   6.256  0.9599 -0.3670 -3.2464
 5677SOL     OW17850   5.213   1.993   3.652 -0.2798  0.1740 -0.5716
 5677SOL    HW117851   5.152   1.973   3.576 -2.0351  1.4326  0.4287
 5677SOL    HW217852   5.160   2.034   3.727  1.2124 -1.7413  1.6666
 5678SOL     OW17853   2.557   2.876   2.964  0.1998 -0.4183 -0.1683
 5678SOL    HW117854   2.599   2.787   2.982  1.2172 -0.0510 -0.6464
 5678SOL    HW217855   2.566   2.934   3.045 -0.5495 -0.7717  0.1777
 5679SOL     OW17856   1.280   0.407   4.633 -0.4063  0.2115 -0.3072
 5679SOL    HW117857   1.321   0.453   4.553 -1.6393  1.1709 -0.4067
 5679SOL    HW217858   1.247   0.317   4.606 -1.1838  0.6927 -0.9977
 5680SOL     OW17859   6.807   2.250   4.536 -0.1537 -0.2422  1.2603
 5680SOL    HW117860   6.820   2.151   4.539 -2.3573 -0.5703  3.1584
 5680SOL    HW217861   6.864   2.293   4.606 -0.2099 -0.3544  1.3774
 5681SOL     OW17862   0.722   1.968   1.831 -0.1287  0.1353 -0.0127
 5681SOL    HW117863   0.796   1.984   1.765 -0.5183  0.1242 -0.4579
 5681SOL    HW217864   0.673   2.054   1.847  0.5136  0.3435  0.9488
 5682SOL     OW17865   4.613   6.890   0.419  0.2419 -0.1298 -0.3027
 5682SOL    HW117866   4.548   6.933   0.481 -0.3499 -0.2931 -0.8007
 5682SOL    HW217867   4.671   6.960   0.377  0.6133 -0.0156  0.3879
 5683SOL     OW17868   1.067   6.825   3.188 -0.0312 -0.2335 -0.1663
 5683SOL    HW117869   1.014   6.897   3.143  0.3405 -0.0671 -0.3414
 5683SOL    HW217870   1.032   6.736   3.160  2.3752 -0.2687 -3.6057
 5684SOL     OW17871   4.595   6.362   6.675  0.1289 -0.3162  0.5478
 5684SOL    HW117872   4.563   6.273   6.641 -2.5514  0.2689  1.2515
 5684SOL    HW217873   4.650   6.407   6.605 -0.8180 -1.3578 -0.9284
 5685SOL     OW17874   6.957   2.943   2.915 -0.2263 -0.1865 -0.1693
 5685SOL    HW117875   6.897   2.908   2.843 -2.1020 -2.7084  2.4208
 5685SOL    HW217876   7.051   2.917   2.896 -0.4908  0.1528 -2.1813
 5686SOL     OW17877   6.001   6.058   1.055  0.5213  0.0351  0.4255
 5686SOL    HW117878   5.971   5.965   1.079 -0.9677 -0.0181 -1.3999
 5686SOL    HW217879   5.930   6.103   1.000  1.9203  1.6510 -0.1513
 5687SOL     OW17880   4.508   0.058   4.636 -0.2456  0.0415 -0.1442
 5687SOL    HW117881   4.551   0.127   4.694  0.4350  0.0444 -0.6411
 5687SOL    HW217882   4.420   0.092   4.602 -0.1785  0.4337  0.0762
 5688SOL     OW17883   6.564   5.849   5.564 -0.1985  0.2620 -0.2720
 5688SOL    HW117884   6.560   5.782   5.638  1.7498  0.4454  0.0583
 5688SOL    HW217885   6.509   5.816   5.487 -1.2507 -0.5274  0.7681
 5689SOL     OW17886   6.829   3.682   5.299 -0.4372 -0.4409  0.1139
 5689SOL    HW117887   6.804   3.678   5.396  1.4722  1.8592  0.7777
 5689SOL    HW217888   6.926   3.661   5.288 -0.2733  0.7904 -1.0981
 5690SOL     OW17889   6.570   5.642   0.906 -0.0776  0.4464  0.0186
 5690SOL    HW117890   6.573   5.567   0.971 -0.5398  0.5671  0.1830
 5690SOL    HW217891   6.585   5.608   0.814  0.7169  0.2914  0.1962
 5691SOL     OW17892   3.325   0.376   1.185 -0.5272  0.7412  0.6408
 5691SOL    HW117893   3.242   0.425   1.159 -0.4937 -0.2117 -1.4530
 5691SOL    HW217894   3.405   0.433   1.165 -0.6080  1.3288  1.8850
 5692SOL     OW17895   5.150   6.013   6.365 -0.3446  0.1726  0.6115
 5692SOL    HW117896   5.244   6.045   6.348 -0.7469  0.8078 -0.5291
 5692SOL    HW217897   5.149   5.913   6.365  0.1432  0.1419 -0.6691
 5693SOL     OW17898   5.183   6.153   4.963  0.2911 -0.0938  0.0968
 5693SOL    HW117899   5.191   6.252   4.974  1.2946 -0.1369 -0.1384
 5693SOL    HW217900   5.132   6.115   5.040 -0.8190  0.6937 -0.2227
 5694SOL     OW17901   0.027   4.963   3.109  0.7806  0.4581  0.2147
 5694SOL    HW117902  -0.015   4.874   3.128  1.1567  0.1332 -0.4147
 5694SOL    HW217903   0.126   4.956   3.121  1.1745 -0.0454 -2.6531
 5695SOL     OW17904   2.837   6.733   2.386  0.0485 -1.0235  0.6260
 5695SOL    HW117905   2.842   6.640   2.423  0.1608 -1.7957 -1.2303
 5695SOL    HW217906   2.924   6.780   2.401  0.3488 -1.5835  0.6696
 5696SOL     OW17907   6.229   4.331   4.569 -0.2383  0.0187 -0.2364
 5696SOL    HW117908   6.160   4.388   4.614 -0.2591  0.4341 -0.7843
 5696SOL    HW217909   6.192   4.241   4.551  0.1079 -0.5321  1.5459
 5697SOL     OW17910   5.846   1.376   1.995  0.2660  0.9970 -0.2078
 5697SOL    HW117911   5.802   1.293   2.029 -0.1633  0.4846 -1.8825
 5697SOL    HW217912   5.790   1.455   2.019 -1.1564  0.4411 -1.4947
 5698SOL     OW17913   1.951   1.296   6.407 -0.3636 -0.0464 -0.4047
 5698SOL    HW117914   1.994   1.206   6.410 -0.2004  0.0514  0.4083
 5698SOL    HW217915   2.000   1.354   6.343  1.2523  0.3145  1.0784
 5699SOL     OW17916   1.049   6.598   1.295 -0.2689  0.6214 -0.1478
 5699SOL    HW117917   1.006   6.617   1.384  0.5753  0.4472  0.3069
 5699SOL    HW217918   1.148   6.593   1.307 -0.2533 -1.0171 -0.8111
 5700SOL     OW17919   2.072   5.825   6.360 -0.5294 -0.3560  0.6243
 5700SOL    HW117920   2.059   5.922   6.381  0.0294 -0.0988 -0.1490
 5700SOL    HW217921   2.142   5.787   6.420  1.8882  0.6517 -1.3694
 5701SOL     OW17922   1.083   1.243   0.357 -0.2196 -0.2891  0.1635
 5701SOL    HW117923   1.057   1.294   0.275 -1.3541  0.1112  0.7557
 5701SOL    HW217924   1.155   1.292   0.406 -0.8397  0.4153  0.3802
 5702SOL     OW17925   1.247   5.886   1.348 -0.4172  0.3070 -0.2322
 5702SOL    HW117926   1.255   5.870   1.250  2.4366 -0.7890  0.0861
 5702SOL    HW217927   1.251   5.798   1.396  2.9950  0.9696  0.9982
 5703SOL     OW17928   1.462   0.489   0.940  0.4777  0.3256  0.0929
 5703SOL    HW117929   1.516   0.545   0.878 -0.3828 -0.6001 -1.5559
 5703SOL    HW217930   1.365   0.511   0.931  0.2101 -0.7622  0.0777
 5704SOL     OW17931   5.242   1.876   3.174 -0.1752 -0.2554  0.4051
 5704SOL    HW117932   5.339   1.884   3.193 -0.0406  0.3171 -0.4864
 5704SOL    HW217933   5.220   1.780   3.154  0.5509 -0.1128 -1.1725
 5705SOL     OW17934   1.062   6.865   2.599 -0.0326 -0.0510 -0.0682
 5705SOL    HW117935   1.157   6.884   2.626 -0.6031  1.1486  1.1748
 5705SOL    HW217936   1.034   6.932   2.530  0.4824 -1.3549 -1.6210
 5706SOL     OW17937   6.772   0.862   1.407  0.1123  0.3319 -0.5215
 5706SOL    HW117938   6.719   0.881   1.489  0.5711 -0.9320  0.0953
 5706SOL    HW217939   6.728   0.790   1.354  0.7016 -0.0560 -0.4942
 5707SOL     OW17940   5.614   3.891   4.264  0.1370 -0.2699  0.7506
 5707SOL    HW117941   5.617   3.936   4.175  1.4309 -2.8906 -0.6290
 5707SOL    HW217942   5.528   3.842   4.273  0.7210 -1.4351  0.1532
 5708SOL     OW17943   0.001   6.448   5.293 -0.0569 -0.2667 -0.0128
 5708SOL    HW117944  -0.048   6.535   5.287  0.7209  0.1484 -0.5786
 5708SOL    HW217945   0.014   6.411   5.201  0.4290 -0.5086  0.1477
 5709SOL     OW17946   1.876   4.991   3.727 -0.8382  0.5130  0.8589
 5709SOL    HW117947   1.913   4.898   3.729  1.7207  1.3850 -0.6135
 5709SOL    HW217948   1.789   4.992   3.678  0.0014 -0.9064 -0.7910
 5710SOL     OW17949   4.087   6.970   4.518  0.5838 -0.1179 -0.9862
 5710SOL    HW117950   3.990   6.973   4.543  1.2502  1.6695  1.8819
 5710SOL    HW217951   4.124   6.880   4.539  0.0219 -0.0910  0.2619
 5711SOL     OW17952   0.618   1.607   3.447 -0.1997  0.3496 -0.4363
 5711SOL    HW117953   0.659   1.521   3.415 -0.8724  0.0324 -0.4686
 5711SOL    HW217954   0.691   1.672   3.470  0.3152  0.0572 -1.1817
 5712SOL     OW17955   3.259   0.155   2.976  0.5893 -0.6041  0.0805
 5712SOL    HW117956   3.331   0.157   2.907  1.0750  2.1731  0.5618
 5712SOL    HW217957   3.172   0.180   2.934  1.1738  2.8368  0.6055
 5713SOL     OW17958   1.252   6.339   6.080 -0.0936  0.0194  0.0239
 5713SOL    HW117959   1.251   6.312   6.177 -1.1021 -1.1279 -0.2833
 5713SOL    HW217960   1.325   6.405   6.065  0.3061 -0.0480  1.5041
 5714SOL     OW17961   6.536   3.789   6.706  0.0773  0.6259  0.4590
 5714SOL    HW117962   6.499   3.840   6.783  0.3291 -0.9252  1.6577
 5714SOL    HW217963   6.634   3.810   6.695  0.3513 -0.1028  1.3991
 5715SOL     OW17964   2.104   5.753   1.137 -0.6095  0.3964 -0.2090
 5715SOL    HW117965   2.085   5.834   1.193  0.8701 -0.6564  1.9672
 5715SOL    HW217966   2.071   5.671   1.184  0.6179 -0.5314 -0.8960
 5716SOL     OW17967   6.635   5.853   3.942 -0.1237  0.0575 -0.2911
 5716SOL    HW117968   6.714   5.814   3.894  0.5353  2.8775 -1.7349
 5716SOL    HW217969   6.554   5.798   3.923  1.1022 -1.7526 -0.4624
 5717SOL     OW17970   1.163   4.809   0.545  0.0026 -0.0606  0.5546
 5717SOL    HW117971   1.145   4.870   0.622 -0.7331 -0.4538  0.7065
 5717SOL    HW217972   1.091   4.739   0.540  0.2334 -0.2571 -0.2720
 5718SOL     OW17973   1.447   5.569   2.737 -0.5124  0.0390 -0.1092
 5718SOL    HW117974   1.434   5.514   2.654 -2.4448 -0.1940  0.2957
 5718SOL    HW217975   1.440   5.666   2.714 -0.1973  0.0120 -0.3345
 5719SOL     OW17976   0.900   4.770   2.325  0.2240  0.2459 -0.0116
 5719SOL    HW117977   0.983   4.749   2.378 -0.5069 -0.7057  0.7899
 5719SOL    HW217978   0.834   4.695   2.336 -0.6740  0.9110 -0.7864
 5720SOL     OW17979   0.103   0.109   2.809 -0.3124 -0.4599 -0.0415
 5720SOL    HW117980   0.091   0.159   2.894 -2.1750 -0.6141 -0.1577
 5720SOL    HW217981   0.200   0.103   2.786  0.2073 -0.2261  1.9331
 5721SOL     OW17982   5.837   2.914   6.995 -0.1230 -0.1452 -0.5460
 5721SOL    HW117983   5.795   2.938   6.908 -0.4951 -1.5156 -0.7786
 5721SOL    HW217984   5.930   2.950   6.998 -0.9444  2.1474 -0.4036
 5722SOL     OW17985   6.808   4.985   6.825  0.5687  0.0705 -0.0817
 5722SOL    HW117986   6.753   5.024   6.899  0.9778 -0.9029  0.7611
 5722SOL    HW217987   6.866   5.057   6.785  0.5021  0.5632  0.6862
 5723SOL     OW17988   1.733   6.606   3.946 -0.1017  0.4756  0.1118
 5723SOL    HW117989   1.741   6.507   3.937  2.2161  0.7638 -2.3224
 5723SOL    HW217990   1.806   6.641   4.004  0.0779  0.8739 -0.3400
 5724SOL     OW17991   0.503   1.320   1.292 -0.1469  0.3326 -0.0620
 5724SOL    HW117992   0.409   1.353   1.283 -0.5353 -0.0516  2.0143
 5724SOL    HW217993   0.562   1.369   1.228 -1.4962  1.6535 -0.3536
 5725SOL     OW17994   4.088   4.840   6.341  0.2381 -0.4204  0.0392
 5725SOL    HW117995   4.009   4.838   6.402  0.0704  1.0759 -0.0747
 5725SOL    HW217996   4.172   4.842   6.395  0.0908  0.9063  0.2564
 5726SOL     OW17997   0.944   4.685   1.047  0.1320  0.2653  0.5291
 5726SOL    HW117998   1.040   4.678   1.071  0.9587  1.4875 -2.0286
 5726SOL    HW217999   0.910   4.596   1.015  1.1063  0.3141 -0.7231
 5727SOL     OW18000   2.769   1.305   5.450 -0.6349  0.3950  0.2205
 5727SOL    HW118001   2.781   1.265   5.359 -2.0920  0.5590 -0.0610
 5727SOL    HW218002   2.800   1.400   5.448  1.3662 -0.2080  0.4860
 5728SOL     OW18003   5.970   2.854   2.787  0.0534  0.4060  0.1392
 5728SOL    HW118004   5.950   2.941   2.741 -1.1957 -0.1635 -0.4301
 5728SOL    HW218005   5.897   2.789   2.768  0.9977 -0.7963  0.5280
 5729SOL     OW18006   5.690   6.768   0.164 -0.1686  0.0656 -0.4401
 5729SOL    HW118007   5.753   6.764   0.242 -3.0138  0.0880  2.0120
 5729SOL    HW218008   5.731   6.824   0.092  2.6199 -0.0053  0.9358
 5730SOL     OW18009   0.541   3.344   1.339 -0.1660  0.0418  0.6610
 5730SOL    HW118010   0.574   3.341   1.434 -2.1838 -1.1314  1.3836
 5730SOL    HW218011   0.553   3.255   1.296 -1.3277 -0.1032  0.5937
 5731SOL     OW18012   6.858   6.010   3.310  0.1904 -0.1017 -0.2024
 5731SOL    HW118013   6.926   6.033   3.379 -0.1012 -0.8788  0.3738
 5731SOL    HW218014   6.901   5.957   3.236  0.2243 -0.5934  0.1616
 5732SOL     OW18015   2.589   0.552   0.880 -0.8592 -0.0677  0.2838
 5732SOL    HW118016   2.629   0.638   0.910  2.4181 -1.1317 -0.6046
 5732SOL    HW218017   2.599   0.483   0.951 -0.3017 -0.5594 -0.2523
 5733SOL     OW18018   3.144   6.852   3.936  0.0454 -0.0616 -0.2235
 5733SOL    HW118019   3.162   6.890   3.844 -0.8506  2.7653  0.6453
 5733SOL    HW218020   3.057   6.803   3.935 -1.3898  2.2871 -0.4227
 5734SOL     OW18021   2.932   3.072   3.217  0.1318 -0.5468 -0.3777
 5734SOL    HW118022   2.894   3.010   3.286  1.7237 -0.4847  0.6034
 5734SOL    HW218023   2.927   3.166   3.251  0.1498 -0.4172 -0.7313
 5735SOL     OW18024   0.536   1.999   0.262 -0.0324  0.0607 -0.3700
 5735SOL    HW118025   0.543   1.900   0.249  1.7760 -0.0088  0.8114
 5735SOL    HW218026   0.589   2.046   0.191  0.2042  0.1340 -0.1447
 5736SOL     OW18027   3.235   4.696   1.075  0.5647  0.5712  0.0038
 5736SOL    HW118028   3.291   4.644   1.010 -0.5875 -1.3014  0.4198
 5736SOL    HW218029   3.149   4.722   1.032  0.4039  0.6011  0.3415
 5737SOL     OW18030   4.274   1.959   0.686  0.2227  0.1902  0.5990
 5737SOL    HW118031   4.258   1.925   0.594 -0.7341  0.0312  0.8100
 5737SOL    HW218032   4.188   1.993   0.724  1.0328  2.4720  0.5573
 5738SOL     OW18033   0.454   1.680   2.402 -0.2743 -0.0630  0.1378
 5738SOL    HW118034   0.446   1.678   2.302 -1.8177  1.4254  0.1935
 5738SOL    HW218035   0.547   1.709   2.426  0.6045 -1.8711 -0.7958
 5739SOL     OW18036   2.006   2.375   1.227 -0.1088 -0.5845 -0.2727
 5739SOL    HW118037   2.023   2.463   1.272 -2.0292  0.3160 -1.1663
 5739SOL    HW218038   2.000   2.390   1.128 -0.8737 -1.6456 -0.4001
 5740SOL     OW18039   3.540   0.063   3.091 -0.8059  0.4665  0.3268
 5740SOL    HW118040   3.529   0.116   3.006  1.3331  1.4531  0.5900
 5740SOL    HW218041   3.516   0.120   3.169  0.6948  0.8351  0.5583
 5741SOL     OW18042   0.919   5.803   1.807 -0.1289 -0.1360 -0.0430
 5741SOL    HW118043   0.924   5.795   1.708  0.3796 -1.8585  0.0807
 5741SOL    HW218044   0.908   5.712   1.847 -1.1103  0.6003  1.4527
 5742SOL     OW18045   6.889   0.978   5.984  0.1188 -0.0992  0.3961
 5742SOL    HW118046   6.852   0.909   5.923 -0.6062 -3.0183  3.8051
 5742SOL    HW218047   6.989   0.979   5.978  0.1480 -1.5579  0.3170
 5743SOL     OW18048   2.305   0.214   6.841 -0.6673  0.3973  0.0501
 5743SOL    HW118049   2.282   0.171   6.928 -0.9936  1.1077  0.3236
 5743SOL    HW218050   2.367   0.291   6.857  1.8096 -1.3207 -0.6499
 5744SOL     OW18051   4.683   1.716   3.387 -0.4395  0.1038  0.1027
 5744SOL    HW118052   4.715   1.661   3.464 -2.2694 -0.8114  0.2651
 5744SOL    HW218053   4.693   1.663   3.302 -2.7836 -0.8454  0.3324
 5745SOL     OW18054   2.029   4.131   5.916 -0.3164  0.0721 -0.2159
 5745SOL    HW118055   1.947   4.165   5.963 -0.2114  0.7883 -0.5406
 5745SOL    HW218056   2.010   4.041   5.878 -1.9540  1.3593 -2.7654
 5746SOL     OW18057   6.331   1.257   6.325  0.3168 -0.0583 -0.1974
 5746SOL    HW118058   6.309   1.294   6.415 -0.9000  0.4418 -0.6812
 5746SOL    HW218059   6.414   1.201   6.332  1.0895  1.1643  0.9285
 5747SOL     OW18060   1.599   2.808   1.664 -0.1634 -0.2708 -0.3972
 5747SOL    HW118061   1.513   2.843   1.702  0.2575  0.3792 -0.0149
 5747SOL    HW218062   1.611   2.713   1.690 -0.9092 -0.4488 -0.7006
 5748SOL     OW18063   5.036   1.944   5.695  0.4546  0.3124  0.4273
 5748SOL    HW118064   5.080   2.002   5.626 -2.7782  1.7207 -0.6284
 5748SOL    HW218065   4.969   1.998   5.746  1.6796 -1.0685  3.7849
 5749SOL     OW18066   4.782   4.268   3.724 -0.6142 -0.0183  0.5104
 5749SOL    HW118067   4.820   4.298   3.812  1.0419 -1.2016  0.2520
 5749SOL    HW218068   4.728   4.185   3.737 -0.5914 -0.0411  0.4627
 5750SOL     OW18069   1.296   5.209   1.555  0.2274 -0.0077  0.3413
 5750SOL    HW118070   1.288   5.109   1.551  0.2565  0.0297 -0.8036
 5750SOL    HW218071   1.262   5.241   1.644 -1.8184 -0.8439 -0.0875
 5751SOL     OW18072   2.457   6.606   0.220  0.2823  0.0415 -0.4704
 5751SOL    HW118073   2.414   6.694   0.199  0.5419  0.5378  0.9875
 5751SOL    HW218074   2.400   6.556   0.285 -0.0547 -1.0669 -1.5739
 5752SOL     OW18075   4.042   1.345   2.924 -0.1147 -0.5459 -0.1427
 5752SOL    HW118076   4.089   1.432   2.916 -0.0378 -0.4858  0.8551
 5752SOL    HW218077   4.052   1.310   3.017 -2.5725 -0.1991  0.3268
 5753SOL     OW18078   5.877   0.151   0.713 -0.1173 -0.2279  0.4598
 5753SOL    HW118079   5.858   0.064   0.667  0.6612 -0.1222 -0.0791
 5753SOL    HW218080   5.810   0.165   0.786 -2.5794  0.4388 -1.7352
 5754SOL     OW18081   0.352   6.151   5.005 -0.3778 -0.7581 -0.3571
 5754SOL    HW118082   0.364   6.066   4.952  1.7757 -1.3164  0.9135
 5754SOL    HW218083   0.428   6.213   4.986 -1.6102  0.6868 -0.7943
 5755SOL     OW18084   6.403   2.901   1.016  0.2028  0.3820 -0.1602
 5755SOL    HW118085   6.474   2.857   1.072 -0.9340 -0.4902  0.6420
 5755SOL    HW218086   6.412   3.000   1.024  0.3258  0.2802  1.2711
 5756SOL     OW18087   3.522   0.230   3.298 -0.2539  0.2001 -0.0663
 5756SOL    HW118088   3.489   0.292   3.369  2.7359  1.2201  0.5918
 5756SOL    HW218089   3.611   0.262   3.265  2.0199 -4.2501  0.9969
 5757SOL     OW18090   6.020   3.584   5.085  0.0001 -0.0372 -0.2072
 5757SOL    HW118091   5.948   3.534   5.134 -0.8671  2.7886  1.6730
 5757SOL    HW218092   6.109   3.562   5.126 -0.5571  1.1279  1.8054
 5758SOL     OW18093   4.618   4.412   1.999 -0.1756  0.1806 -0.5611
 5758SOL    HW118094   4.696   4.444   1.944  0.5552  0.7577  0.7740
 5758SOL    HW218095   4.641   4.418   2.096 -0.8057 -2.4475 -0.1835
 5759SOL     OW18096   3.784   5.339   3.110 -0.2591  1.0292  0.1687
 5759SOL    HW118097   3.739   5.414   3.159 -0.1606  1.4183 -0.3352
 5759SOL    HW218098   3.769   5.349   3.012  2.8257  2.5073 -0.2663
 5760SOL     OW18099   6.795   4.698   4.569 -0.3495 -0.7463 -0.6390
 5760SOL    HW118100   6.733   4.763   4.527  1.7788  2.2056  0.4123
 5760SOL    HW218101   6.775   4.692   4.667 -0.4891 -1.6603 -0.7177
 5761SOL     OW18102   5.974   3.570   0.592 -0.8627  1.1846  0.0894
 5761SOL    HW118103   6.009   3.597   0.502 -1.1748  1.1112 -0.0571
 5761SOL    HW218104   6.050   3.546   0.652 -0.7121 -0.6700 -0.7687
 5762SOL     OW18105   2.606   4.591   3.750  0.5270 -0.7344  0.0616
 5762SOL    HW118106   2.549   4.513   3.726  0.8305 -1.2562  0.9728
 5762SOL    HW218107   2.685   4.594   3.689 -1.4835  1.2645 -2.6479
 5763SOL     OW18108   6.795   3.474   6.578  0.0816 -0.3091 -0.5695
 5763SOL    HW118109   6.708   3.520   6.562 -0.7381 -0.5480  2.5422
 5763SOL    HW218110   6.834   3.506   6.664  1.7719 -2.0859 -0.6121
 5764SOL     OW18111   2.649   0.493   6.171 -0.3591 -0.1288 -0.7925
 5764SOL    HW118112   2.569   0.476   6.229  0.0232  0.0518 -0.2073
 5764SOL    HW218113   2.688   0.405   6.142  0.1917 -0.2454  0.2616
 5765SOL     OW18114   6.067   3.656   6.919 -0.4728 -0.8045 -0.6439
 5765SOL    HW118115   6.097   3.700   7.004  0.4592  0.1350 -1.4190
 5765SOL    HW218116   6.019   3.724   6.862 -0.0564 -1.0979 -1.3587
 5766SOL     OW18117   4.778   4.464   2.515 -0.2311  0.4014  0.2790
 5766SOL    HW118118   4.721   4.546   2.513 -0.2991  0.3474 -0.5303
 5766SOL    HW218119   4.723   4.386   2.543  0.0122  0.7535  1.7959
 5767SOL     OW18120   1.933   3.888   5.833 -0.0379  0.0910  0.0150
 5767SOL    HW118121   1.864   3.912   5.765 -0.4752 -0.1236  0.3780
 5767SOL    HW218122   1.889   3.868   5.920  0.4633 -0.2674  0.1942
 5768SOL     OW18123   1.717   5.362   6.005  0.3833 -0.3834 -0.4051
 5768SOL    HW118124   1.689   5.456   5.985  0.4316 -0.3494 -0.3114
 5768SOL    HW218125   1.638   5.301   6.000  0.5540 -0.5332 -1.7058
 5769SOL     OW18126   6.591   5.993   3.432  0.0127  0.1644  0.7741
 5769SOL    HW118127   6.531   5.920   3.400  0.8135  0.0225 -0.4787
 5769SOL    HW218128   6.676   5.992   3.378  0.2401  1.7062  1.0727
 5770SOL     OW18129   6.054   1.691   5.343  0.0551 -0.0862 -0.0952
 5770SOL    HW118130   5.971   1.687   5.399  0.1614  0.0646  0.0767
 5770SOL    HW218131   6.082   1.598   5.319 -0.8157 -0.1014 -1.1349
 5771SOL     OW18132   0.510   1.041   2.293  1.0483 -0.1178  0.6314
 5771SOL    HW118133   0.601   1.044   2.334  1.2381 -0.9443  0.2794
 5771SOL    HW218134   0.474   0.948   2.297  0.6140  0.0102 -0.0858
 5772SOL     OW18135   3.807   0.148   6.069  0.7264 -0.4027 -0.3246
 5772SOL    HW118136   3.709   0.167   6.058  0.7153  0.4165  0.9767
 5772SOL    HW218137   3.824   0.052   6.049 -0.6413 -0.9795  1.0332
 5773SOL     OW18138   6.644   0.760   4.521  0.1171  0.5105 -0.5925
 5773SOL    HW118139   6.558   0.714   4.544 -0.0240  1.2760  0.5242
 5773SOL    HW218140   6.689   0.712   4.446 -1.1873 -0.0202 -1.0713
 5774SOL     OW18141   4.900   3.089   4.068 -0.5857  0.0239  0.1508
 5774SOL    HW118142   4.931   3.176   4.107  2.2991 -1.7567  2.2518
 5774SOL    HW218143   4.973   3.050   4.011 -0.8915 -2.0004  1.0467
 5775SOL     OW18144   0.140   1.527   1.679  0.4956 -0.7173  0.1769
 5775SOL    HW118145   0.080   1.546   1.601 -1.7849  2.6638  2.5034
 5775SOL    HW218146   0.235   1.541   1.651 -0.2793  1.1691 -1.8241
 5776SOL     OW18147   1.851   4.487   3.962  0.1961  0.2853 -0.2388
 5776SOL    HW118148   1.822   4.394   3.937  2.3371 -0.7007  0.6747
 5776SOL    HW218149   1.771   4.540   3.989 -1.1666 -1.0796 -1.3878
 5777SOL     OW18150   6.235   5.892   1.691 -0.0054  0.3440 -0.4848
 5777SOL    HW118151   6.279   5.972   1.650  0.0171  1.7022  2.0196
 5777SOL    HW218152   6.151   5.920   1.737  0.7047 -0.7788  1.6032
 5778SOL     OW18153   6.343   0.760   3.356 -0.2166 -0.1562 -0.0638
 5778SOL    HW118154   6.411   0.703   3.311  0.3132 -0.1383  0.6974
 5778SOL    HW218155   6.304   0.824   3.290  1.9842  1.2399 -0.0980
 5779SOL     OW18156   2.496   4.169   5.539 -0.2283 -0.9804  0.4525
 5779SOL    HW118157   2.569   4.112   5.575  0.4233  0.5752  1.7286
 5779SOL    HW218158   2.422   4.175   5.607 -0.2899 -0.3196  0.3307
 5780SOL     OW18159   0.169   6.478   1.520 -0.1772  0.8398 -0.0709
 5780SOL    HW118160   0.165   6.436   1.429 -1.1017 -1.2172  0.8579
 5780SOL    HW218161   0.093   6.443   1.575  1.5129  0.4864  2.1352
 5781SOL     OW18162   4.533   3.665   6.467  0.3204 -0.4474  0.1364
 5781SOL    HW118163   4.464   3.600   6.501 -1.3136  0.5655 -1.0941
 5781SOL    HW218164   4.604   3.678   6.537 -2.0248  0.3523  2.5430
 5782SOL     OW18165   5.715   1.491   3.643 -0.0196 -0.0809 -0.1231
 5782SOL    HW118166   5.760   1.565   3.693  0.8754  0.2845 -1.4518
 5782SOL    HW218167   5.715   1.511   3.545  0.9046 -2.1733 -0.5944
 5783SOL     OW18168   1.924   3.843   5.353  0.1503  0.2696 -0.3997
 5783SOL    HW118169   1.879   3.774   5.410 -0.1851  3.1438  3.1620
 5783SOL    HW218170   2.021   3.820   5.344  0.2021 -0.3478  1.3123
 5784SOL     OW18171   4.421   3.026   6.923 -0.2474  0.5402 -0.2267
 5784SOL    HW118172   4.423   3.024   6.823 -0.5455  2.3368 -0.2863
 5784SOL    HW218173   4.414   3.120   6.955  3.4475  0.4155  1.5547
 5785SOL     OW18174   4.833   1.335   2.648 -0.2120 -0.1523  0.2721
 5785SOL    HW118175   4.894   1.267   2.689  0.1091 -0.1540 -0.1969
 5785SOL    HW218176   4.888   1.410   2.610 -0.4186 -0.6288 -1.0315
 5786SOL     OW18177   1.222   0.596   1.535 -0.2291 -0.1538 -0.6736
 5786SOL    HW118178   1.255   0.565   1.446 -1.2737 -0.9915 -0.7829
 5786SOL    HW218179   1.293   0.583   1.603  0.2729 -0.3173 -1.2188
 5787SOL     OW18180   2.103   3.629   1.867 -0.0474  0.3516 -0.1120
 5787SOL    HW118181   2.104   3.582   1.955 -2.0261 -0.9943 -0.7488
 5787SOL    HW218182   2.194   3.623   1.825  0.3869 -0.7371  0.9297
 5788SOL     OW18183   6.103   4.314   2.744 -1.0071  0.9544 -0.1963
 5788SOL    HW118184   6.075   4.342   2.836 -1.8880  3.7248 -1.2069
 5788SOL    HW218185   6.050   4.234   2.716  2.2694 -2.8469  3.2059
 5789SOL     OW18186   3.279   1.724   5.803 -0.1225  0.0167  0.5460
 5789SOL    HW118187   3.267   1.805   5.859 -0.3250 -0.0916  0.6592
 5789SOL    HW218188   3.223   1.732   5.720 -0.2883 -0.0929  0.6485
 5790SOL     OW18189   6.820   1.669   3.804  0.2757  0.1255 -0.3380
 5790SOL    HW118190   6.898   1.718   3.845  0.5335  0.2969 -1.0114
 5790SOL    HW218191   6.743   1.732   3.795  0.0585 -0.0436  0.3281
 5791SOL     OW18192   5.280   5.309   4.243  0.0153 -0.0794 -0.1215
 5791SOL    HW118193   5.287   5.270   4.335  0.3282  1.2760  0.4565
 5791SOL    HW218194   5.371   5.330   4.209 -0.1405  0.1150 -0.4209
 5792SOL     OW18195   1.438   4.817   6.173  0.6489 -0.2382 -0.7879
 5792SOL    HW118196   1.401   4.827   6.265  0.6568 -0.4626 -0.7574
 5792SOL    HW218197   1.365   4.791   6.110  0.6034  0.1328 -0.8872
 5793SOL     OW18198   5.985   4.366   5.586  0.3468 -0.3723 -0.5562
 5793SOL    HW118199   6.082   4.369   5.607  0.3164  0.2747 -0.4891
 5793SOL    HW218200   5.968   4.295   5.518  0.7588 -0.9679 -0.0478
 5794SOL     OW18201   1.339   6.736   5.065  0.2766  0.0354  0.1151
 5794SOL    HW118202   1.393   6.809   5.024 -0.1286  0.1726 -0.1866
 5794SOL    HW218203   1.335   6.747   5.164  0.4599  0.2536  0.0964
 5795SOL     OW18204   3.046   2.064   6.983 -0.6015  0.5289 -0.3002
 5795SOL    HW118205   2.976   2.028   6.920 -0.8071  1.6463 -0.7244
 5795SOL    HW218206   3.113   1.992   7.001 -2.6360 -1.1292  1.3305
 5796SOL     OW18207   5.820   4.772   4.293 -0.4821  0.2021  0.0166
 5796SOL    HW118208   5.758   4.845   4.323  0.4279  0.7740  0.5234
 5796SOL    HW218209   5.806   4.691   4.350 -1.1199  0.1386 -0.2101
 5797SOL     OW18210   4.750   4.638   0.007 -0.1554  0.6074  0.4804
 5797SOL    HW118211   4.764   4.727  -0.036 -5.0625  1.3702 -0.1184
 5797SOL    HW218212   4.736   4.650   0.105 -0.2817  0.3858  0.4910
 5798SOL     OW18213   5.711   2.902   2.586  0.3098  0.1259  0.7466
 5798SOL    HW118214   5.763   2.884   2.503 -2.2992 -0.8170 -0.7946
 5798SOL    HW218215   5.727   2.996   2.616  1.3725  0.4517 -0.7739
 5799SOL     OW18216   4.860   1.428   0.616 -0.0253  0.0568  0.0741
 5799SOL    HW118217   4.942   1.484   0.611 -0.3245  0.5423  0.5292
 5799SOL    HW218218   4.817   1.424   0.525 -0.7891  1.7731  0.3301
 5800SOL     OW18219   5.905   2.865   4.796 -1.1977  0.2590  0.3074
 5800SOL    HW118220   5.968   2.834   4.725 -2.3457  1.0071 -1.0949
 5800SOL    HW218221   5.935   2.830   4.885  0.6504 -0.1489 -0.4338
 5801SOL     OW18222   0.130   2.500   3.457 -0.1047 -0.6944  0.1536
 5801SOL    HW118223   0.097   2.440   3.530 -0.4874 -0.4220  0.2108
 5801SOL    HW218224   0.225   2.524   3.473 -0.1939 -0.6215  0.5767
 5802SOL     OW18225   2.363   6.276   1.443  0.0260 -0.2610 -0.6711
 5802SOL    HW118226   2.422   6.230   1.510 -2.1905 -0.0276  1.5852
 5802SOL    HW218227   2.326   6.209   1.379  0.1940 -0.9054 -0.0991
 5803SOL     OW18228   3.363   4.593   0.856 -0.2216  0.2399 -0.0395
 5803SOL    HW118229   3.350   4.670   0.795 -1.9246  1.5066  1.7828
 5803SOL    HW218230   3.333   4.509   0.812 -0.3664  0.9410 -1.3037
 5804SOL     OW18231   4.173   0.125   4.292  0.2378 -0.4501  0.4063
 5804SOL    HW118232   4.263   0.083   4.283  0.6860  0.6117 -0.4016
 5804SOL    HW218233   4.127   0.090   4.373  1.0464 -1.6104  0.3836
 5805SOL     OW18234   5.336   4.942   1.531  0.3082 -0.1987  0.4367
 5805SOL    HW118235   5.296   5.015   1.586  3.1075  1.5089  0.4395
 5805SOL    HW218236   5.343   4.971   1.436  1.9320 -0.1800  0.5274
 5806SOL     OW18237   5.212   4.631   6.847  0.0092 -0.0741 -0.2389
 5806SOL    HW118238   5.146   4.558   6.866  0.9975 -0.8489  0.3647
 5806SOL    HW218239   5.270   4.604   6.771  1.0910 -0.4363  0.6795
 5807SOL     OW18240   2.454   4.624   5.466 -0.0476 -0.6007 -0.2320
 5807SOL    HW118241   2.460   4.565   5.546 -0.1914 -1.0458 -0.5469
 5807SOL    HW218242   2.387   4.697   5.483 -0.2493 -0.8301 -0.0337
 5808SOL     OW18243   5.650   1.862   6.963 -0.1529  0.2120 -0.2907
 5808SOL    HW118244   5.744   1.832   6.976 -0.3985 -0.2240  0.5487
 5808SOL    HW218245   5.596   1.786   6.925 -0.1692  0.4651 -0.7851
 5809SOL     OW18246   3.286   2.940   4.706  0.3279 -0.0249 -0.3181
 5809SOL    HW118247   3.367   2.963   4.759  1.0384  1.5260 -1.9619
 5809SOL    HW218248   3.207   2.992   4.740 -0.4108 -2.5041  2.1410
 5810SOL     OW18249   0.433   5.753   0.503  0.6369  0.3845  0.6200
 5810SOL    HW118250   0.456   5.684   0.572  1.2224 -0.7720 -0.6936
 5810SOL    HW218251   0.334   5.772   0.507  0.4416 -0.6348  0.9169
 5811SOL     OW18252   4.952   5.868   5.078  0.2364 -0.2038 -0.2033
 5811SOL    HW118253   4.875   5.905   5.129  1.6999  0.4048  1.6585
 5811SOL    HW218254   4.931   5.870   4.980 -1.4011  1.6067  0.1287
 5812SOL     OW18255   6.595   0.600   6.623  0.1813  0.3959  0.4422
 5812SOL    HW118256   6.548   0.593   6.711 -0.5247  0.8753  0.1122
 5812SOL    HW218257   6.571   0.521   6.567 -2.4937  1.9230 -0.7677
 5813SOL     OW18258   4.890   5.420   2.105 -0.4524  0.7883  0.5398
 5813SOL    HW118259   4.918   5.324   2.103 -0.9590  0.6426 -0.8100
 5813SOL    HW218260   4.792   5.427   2.088 -0.6120  1.5045  1.6227
 5814SOL     OW18261   2.244   2.895   1.990  0.2479 -0.2245  0.1469
 5814SOL    HW118262   2.218   2.807   2.029  0.7194 -0.1577  0.6179
 5814SOL    HW218263   2.342   2.909   2.001  0.2888  0.0663 -0.5249
 5815SOL     OW18264   6.756   4.896   3.916  0.1736 -0.4435  0.1939
 5815SOL    HW118265   6.693   4.882   3.992 -1.5275  0.3147 -1.0117
 5815SOL    HW218266   6.770   4.994   3.901  0.0883 -0.5621 -0.7645
 5816SOL     OW18267   0.529   2.627   0.451 -0.5878 -0.3054  0.1686
 5816SOL    HW118268   0.535   2.528   0.466  1.1424 -0.3608 -0.6090
 5816SOL    HW218269   0.553   2.675   0.535  0.4594 -0.5858  0.0514
 5817SOL     OW18270   1.805   6.331   0.312 -0.5261 -0.1240  0.4884
 5817SOL    HW118271   1.869   6.406   0.328 -1.2028  0.3623  1.0133
 5817SOL    HW218272   1.855   6.247   0.291  0.2767  0.2046  1.0700
 5818SOL     OW18273   5.396   4.021   5.168 -0.4372 -0.8301  0.2647
 5818SOL    HW118274   5.389   3.947   5.234 -0.7283 -1.6419 -0.6426
 5818SOL    HW218275   5.356   4.104   5.206  2.0391 -0.4450  2.2257
 5819SOL     OW18276   2.456   3.340   0.729  0.3905  0.2875  0.1734
 5819SOL    HW118277   2.432   3.288   0.811 -0.0327  1.2234  0.6570
 5819SOL    HW218278   2.373   3.367   0.681  0.5399  1.4130  0.5118
 5820SOL     OW18279   2.471   1.075   0.460  0.4439  0.1731 -0.1152
 5820SOL    HW118280   2.413   1.025   0.395 -0.3900  0.5400  0.3216
 5820SOL    HW218281   2.561   1.032   0.465 -0.0966 -0.9975 -0.1088
 5821SOL     OW18282   5.339   0.533   4.691 -0.2302  0.1596  0.0951
 5821SOL    HW118283   5.354   0.553   4.594 -1.0351  1.4420  0.1964
 5821SOL    HW218284   5.289   0.447   4.700  0.4382 -0.3104 -0.5824
 5822SOL     OW18285   2.589   1.278   1.546  0.3178  0.4086  0.0489
 5822SOL    HW118286   2.597   1.361   1.490  1.3141 -1.0395 -2.0997
 5822SOL    HW218287   2.493   1.253   1.555  0.1333 -0.1936 -2.5418
 5823SOL     OW18288   0.727   3.461   3.289  0.0949  0.5347  0.7092
 5823SOL    HW118289   0.684   3.406   3.360  0.3991 -0.7110 -0.0281
 5823SOL    HW218290   0.700   3.557   3.299 -0.7287  0.2053  1.8259
 5824SOL     OW18291   6.415   5.268   6.078 -0.0131 -0.2200  0.0591
 5824SOL    HW118292   6.432   5.249   5.982 -0.3097  0.2903 -0.0940
 5824SOL    HW218293   6.397   5.366   6.091  0.1296 -0.2649  0.6448
 5825SOL     OW18294   2.995   2.389   3.613  0.3050  0.4631 -0.3017
 5825SOL    HW118295   3.088   2.362   3.635  0.5555  0.0144 -1.8671
 5825SOL    HW218296   2.937   2.376   3.694  1.1707 -1.2039  0.0929
 5826SOL     OW18297   2.840   1.617   0.440 -0.0362  0.5652  0.4420
 5826SOL    HW118298   2.773   1.559   0.486  0.5051  0.3719  0.9985
 5826SOL    HW218299   2.933   1.591   0.468  0.4450 -0.6964 -2.0229
 5827SOL     OW18300   0.158   1.957   0.214 -0.4695  0.2408  0.2890
 5827SOL    HW118301   0.199   1.866   0.213  0.2774  0.5757 -0.3545
 5827SOL    HW218302   0.126   1.978   0.306  2.2690  0.5864  1.2625
 5828SOL     OW18303   0.081   5.709   1.382 -0.6818 -0.0578  0.3513
 5828SOL    HW118304   0.010   5.739   1.319 -0.2154  1.5801  0.5590
 5828SOL    HW218305   0.138   5.640   1.338 -1.1772  0.0824 -0.5258
 5829SOL     OW18306   1.386   2.251   6.961 -0.3410 -0.4900 -0.9229
 5829SOL    HW118307   1.461   2.208   7.012 -0.4725  2.3698  1.9975
 5829SOL    HW218308   1.317   2.182   6.938 -0.4253 -2.0289  3.1818
 5830SOL     OW18309   0.339   2.963   0.601 -0.2727  0.3282 -0.1149
 5830SOL    HW118310   0.258   3.021   0.590  0.0315  1.0273  1.1139
 5830SOL    HW218311   0.355   2.912   0.517 -0.2301  2.4324 -1.4535
 5831SOL     OW18312   4.562   1.168   5.368  0.0079  0.9152 -0.0343
 5831SOL    HW118313   4.588   1.155   5.272  0.4620 -1.2046  0.3408
 5831SOL    HW218314   4.621   1.237   5.410  1.1958  0.3453 -0.7342
 5832SOL     OW18315   2.981   3.537   1.729 -0.7511  0.1492  0.3047
 5832SOL    HW118316   2.881   3.535   1.724 -0.7644 -0.3342  0.6990
 5832SOL    HW218317   3.019   3.558   1.639 -1.2017  0.2004  0.1255
 5833SOL     OW18318   4.958   3.551   0.710 -0.4503 -0.1114  0.4049
 5833SOL    HW118319   4.893   3.478   0.734  0.9737 -0.5889  3.3545
 5833SOL    HW218320   4.968   3.556   0.611 -1.9437 -2.7246  0.0289
 5834SOL     OW18321   2.408   5.469   0.477  1.0511 -0.2524  0.5595
 5834SOL    HW118322   2.380   5.378   0.446  1.0157 -0.3973  0.9988
 5834SOL    HW218323   2.502   5.486   0.450  1.0931 -0.4681  0.5650
 5835SOL     OW18324   3.134   0.239   4.209  0.2321 -0.1330  0.1228
 5835SOL    HW118325   3.171   0.164   4.155 -0.8093  0.0324 -0.8441
 5835SOL    HW218326   3.128   0.321   4.152 -1.8988 -0.2339  0.1177
 5836SOL     OW18327   2.648   6.284   4.867 -0.4284 -0.5660  0.0625
 5836SOL    HW118328   2.701   6.200   4.851 -0.0745 -0.4546  0.6146
 5836SOL    HW218329   2.650   6.340   4.785  1.7234  0.1959  0.5502
 5837SOL     OW18330   1.261   5.897   0.231  0.0745 -0.2841 -0.2294
 5837SOL    HW118331   1.289   5.803   0.213 -0.9530 -0.5454 -0.5160
 5837SOL    HW218332   1.199   5.898   0.310  2.2569  0.4953  1.5686
 5838SOL     OW18333   3.445   4.639   6.791  0.3772 -0.1193 -0.2023
 5838SOL    HW118334   3.497   4.599   6.867 -0.2401 -0.4212  0.0655
 5838SOL    HW218335   3.359   4.589   6.780  0.6456 -0.3440 -1.3700
 5839SOL     OW18336   2.060   3.746   6.299  0.1403 -0.3435  0.0407
 5839SOL    HW118337   2.009   3.686   6.360 -0.5317  1.2761  1.1635
 5839SOL    HW218338   2.137   3.787   6.350 -1.1900  2.0379  0.3049
 5840SOL     OW18339   6.434   3.436   2.603 -0.2313 -0.1537 -0.6803
 5840SOL    HW118340   6.505   3.417   2.671 -0.5341 -1.1033 -0.6193
 5840SOL    HW218341   6.477   3.453   2.515  0.1215  0.2545 -0.4352
 5841SOL     OW18342   5.793   1.975   0.340  0.3527  0.1001  0.6751
 5841SOL    HW118343   5.740   1.985   0.256  2.5692 -1.1585 -0.9948
 5841SOL    HW218344   5.803   2.064   0.384 -0.6993  0.8388 -0.4949
 5842SOL     OW18345   0.135   5.423   2.420  0.4585  0.0504 -0.0205
 5842SOL    HW118346   0.205   5.402   2.351  0.0865 -1.3135 -0.0092
 5842SOL    HW218347   0.179   5.444   2.507  0.8761 -2.4278  0.4345
 5843SOL     OW18348   6.711   6.413   5.176 -0.2439  0.1013 -0.5394
 5843SOL    HW118349   6.745   6.505   5.195 -0.9209  0.4210 -0.8272
 5843SOL    HW218350   6.724   6.392   5.079 -0.1038 -0.1006 -0.4771
 5844SOL     OW18351   6.946   3.495   2.503  0.0135 -0.4474 -0.1127
 5844SOL    HW118352   6.934   3.526   2.597  1.2170 -0.1896 -0.0220
 5844SOL    HW218353   6.912   3.564   2.440  0.5752  0.0582  0.1237
 5845SOL     OW18354   5.769   5.739   2.790  0.2793  0.0454  0.5113
 5845SOL    HW118355   5.839   5.747   2.719 -0.4035 -0.9762 -0.3021
 5845SOL    HW218356   5.763   5.644   2.821 -1.3123 -0.0642 -0.0430
 5846SOL     OW18357   4.870   6.817   6.134 -0.0585 -0.6784  0.6617
 5846SOL    HW118358   4.853   6.904   6.182 -0.9802  0.0433 -0.8720
 5846SOL    HW218359   4.786   6.763   6.134  0.3224 -1.2766  1.0222
 5847SOL     OW18360   0.219   4.830   3.943  0.1007 -0.3753  0.4309
 5847SOL    HW118361   0.171   4.902   3.893  0.1336  0.0938  1.0482
 5847SOL    HW218362   0.184   4.741   3.916  1.9840 -0.3649 -2.4629
 5848SOL     OW18363   6.531   3.080   2.250  0.4836  0.0199 -0.4514
 5848SOL    HW118364   6.534   3.043   2.343  0.1714  1.4803  0.1765
 5848SOL    HW218365   6.442   3.125   2.235  0.7684  0.3456 -1.2250
 5849SOL     OW18366   1.841   3.044   5.666 -0.6768  0.4045 -0.3650
 5849SOL    HW118367   1.782   3.054   5.746 -0.5140  0.9980 -0.3177
 5849SOL    HW218368   1.785   3.022   5.586 -0.6901 -1.8779  0.2135
 5850SOL     OW18369   0.759   2.628   0.680 -0.3789 -0.4363  0.4668
 5850SOL    HW118370   0.683   2.693   0.687 -2.2419 -2.3560 -0.5985
 5850SOL    HW218371   0.765   2.575   0.764 -0.3885 -0.4679  0.4476
 5851SOL     OW18372   1.803   0.855   2.441 -0.2483  0.0186  0.0726
 5851SOL    HW118373   1.703   0.865   2.439 -0.3154 -0.6563 -0.8532
 5851SOL    HW218374   1.826   0.758   2.443  0.3879  0.1654 -0.0524
 5852SOL     OW18375   0.994   2.522   2.389 -0.1399  0.0160 -0.4300
 5852SOL    HW118376   1.024   2.491   2.479  0.2824 -1.5191 -1.0794
 5852SOL    HW218377   1.047   2.603   2.363  3.6487 -2.5939 -1.5606
 5853SOL     OW18378   0.076   1.776   4.485 -0.1825  0.1017  0.0148
 5853SOL    HW118379   0.006   1.842   4.456 -0.4713 -0.2753 -0.1700
 5853SOL    HW218380   0.144   1.821   4.542 -0.5107  0.5037  0.0899
 5854SOL     OW18381   2.155   6.440   1.798 -0.0160  0.3329  0.4422
 5854SOL    HW118382   2.115   6.532   1.797  0.4580  0.5616  1.3787
 5854SOL    HW218383   2.126   6.390   1.716  0.3313  1.5807 -0.4738
 5855SOL     OW18384   0.822   2.288   4.925  0.2167  0.3347  0.2144
 5855SOL    HW118385   0.741   2.323   4.972 -0.2857 -1.0218  0.4033
 5855SOL    HW218386   0.798   2.262   4.831  0.4546  0.0316  0.2333
 5856SOL     OW18387   6.504   6.674   0.220 -0.1700 -0.5427  0.2511
 5856SOL    HW118388   6.532   6.707   0.130  0.0889  0.7799  0.7837
 5856SOL    HW218389   6.431   6.607   0.210  0.9005 -1.5684 -0.9975
 5857SOL     OW18390   3.861   5.710   1.119 -0.0113 -0.0223  0.1080
 5857SOL    HW118391   3.801   5.644   1.073  1.2498  0.3708 -2.2732
 5857SOL    HW218392   3.951   5.670   1.131  0.3211  0.7089  0.1079
 5858SOL     OW18393   0.046   2.993   4.467  0.1566 -0.7627  1.1674
 5858SOL    HW118394   0.082   2.936   4.393 -1.4125 -0.1485 -0.1174
 5858SOL    HW218395   0.098   3.078   4.472  0.1996 -0.7574  0.6810
 5859SOL     OW18396   3.063   1.389   4.896 -0.7603  0.4842  0.1912
 5859SOL    HW118397   3.047   1.487   4.884 -1.2923  0.3602 -0.1362
 5859SOL    HW218398   3.101   1.351   4.812  0.4134  0.5978  0.6562
 5860SOL     OW18399   3.944   5.286   2.038 -0.4380 -0.1499 -0.4099
 5860SOL    HW118400   3.941   5.265   1.941 -1.7954 -0.4519 -0.3293
 5860SOL    HW218401   3.992   5.213   2.087  0.6281  0.2191 -0.8925
 5861SOL     OW18402   2.822   1.815   6.240  0.0934 -0.0386 -0.0298
 5861SOL    HW118403   2.743   1.859   6.284 -1.1827 -0.6364 -1.6155
 5861SOL    HW218404   2.883   1.779   6.311 -0.8281  0.8235  1.2555
 5862SOL     OW18405   0.894   0.513   6.138 -0.1489  0.5808 -0.0724
 5862SOL    HW118406   0.843   0.445   6.191  0.6918 -0.9272 -1.1235
 5862SOL    HW218407   0.931   0.583   6.200 -1.3985  0.3520  0.9816
 5863SOL     OW18408   0.631   0.730   1.254 -0.4725  0.4039 -0.3470
 5863SOL    HW118409   0.678   0.706   1.339  1.7719 -1.0600 -1.8589
 5863SOL    HW218410   0.572   0.654   1.227  0.6603 -0.2065 -1.2265
 5864SOL     OW18411   3.315   1.732   2.676  0.3529 -0.0611 -0.1271
 5864SOL    HW118412   3.261   1.813   2.698 -0.3242 -0.5661  0.0983
 5864SOL    HW218413   3.306   1.665   2.749  1.0636 -0.2706 -0.2234
 5865SOL     OW18414   2.590   2.878   1.544 -0.0388  0.0196 -0.1144
 5865SOL    HW118415   2.635   2.870   1.455 -1.0524 -0.0045 -0.6337
 5865SOL    HW218416   2.655   2.852   1.616  0.5708 -0.6877 -0.8920
 5866SOL     OW18417   4.841   4.867   2.546 -0.2820 -0.4597 -0.5225
 5866SOL    HW118418   4.915   4.823   2.495  1.9773  1.5680  0.7868
 5866SOL    HW218419   4.830   4.962   2.515 -0.5382  0.0556  1.0243
 5867SOL     OW18420   3.598   0.231   2.426 -0.3463  0.0585 -0.0259
 5867SOL    HW118421   3.528   0.300   2.445 -0.1285  0.2147  0.2221
 5867SOL    HW218422   3.616   0.227   2.328 -1.4141 -0.6823 -0.1997
 5868SOL     OW18423   5.343   4.552   6.622 -0.2130 -1.1109 -0.3096
 5868SOL    HW118424   5.316   4.456   6.610  1.7496 -1.6402 -0.9358
 5868SOL    HW218425   5.338   4.600   6.535  1.1607 -1.3429 -0.5463
 5869SOL     OW18426   4.784   0.099   3.636  0.0680 -0.4294  0.3964
 5869SOL    HW118427   4.724   0.040   3.582 -0.7996  1.2255 -0.5178
 5869SOL    HW218428   4.738   0.127   3.720 -0.6662  1.1511 -0.4846
 5870SOL     OW18429   0.276   3.938   6.723  0.1434 -0.0896  0.1353
 5870SOL    HW118430   0.258   3.985   6.810  0.0727  1.4812 -0.6912
 5870SOL    HW218431   0.375   3.928   6.711  0.2083  0.8618 -0.1815
 5871SOL     OW18432   4.427   2.216   0.523  0.0026 -0.7918  0.3641
 5871SOL    HW118433   4.344   2.264   0.551  0.3463 -0.2847  0.5295
 5871SOL    HW218434   4.450   2.146   0.591 -0.6715 -1.4150 -0.0314
 5872SOL     OW18435   1.711   2.398   5.284  0.1922  0.5618  0.2467
 5872SOL    HW118436   1.692   2.489   5.249  0.9107  0.3980 -0.5745
 5872SOL    HW218437   1.680   2.329   5.218 -0.3824  0.2013  0.8757
 5873SOL     OW18438   4.297   2.607   1.443 -0.1923  0.1202 -0.0484
 5873SOL    HW118439   4.241   2.637   1.521 -0.5231  1.3562 -0.7424
 5873SOL    HW218440   4.391   2.592   1.474 -0.9418 -2.4653  1.2412
 5874SOL     OW18441   5.570   3.134   0.724  0.4318 -0.3275 -0.4189
 5874SOL    HW118442   5.667   3.147   0.701  0.7790 -1.3270  0.3818
 5874SOL    HW218443   5.545   3.197   0.797  0.3360  0.2778 -0.9676
 5875SOL     OW18444   2.234   6.016   2.878  0.1187  0.6445  0.2253
 5875SOL    HW118445   2.216   6.027   2.780  0.2494  0.0514  0.1353
 5875SOL    HW218446   2.231   6.106   2.922  0.3400  0.9476 -0.3674
 5876SOL     OW18447   4.840   2.046   2.216  0.5564  0.6486 -0.9472
 5876SOL    HW118448   4.750   2.045   2.259  0.8714 -1.2757 -0.2449
 5876SOL    HW218449   4.830   2.033   2.117  0.1109 -1.9710 -0.6222
 5877SOL     OW18450   3.024   0.766   3.879 -0.1440 -0.3008  0.1494
 5877SOL    HW118451   3.120   0.794   3.885  0.0819 -1.0458  0.2039
 5877SOL    HW218452   2.986   0.755   3.971 -0.3753  0.2794  0.1280
 5878SOL     OW18453   3.606   3.896   1.220 -0.0862  0.4954 -0.0523
 5878SOL    HW118454   3.706   3.898   1.223 -0.1104  0.4538  1.0675
 5878SOL    HW218455   3.571   3.860   1.306 -1.0614  0.0797 -0.6072
 5879SOL     OW18456   6.246   3.171   1.470  0.3884  0.7377 -0.2750
 5879SOL    HW118457   6.238   3.092   1.409 -0.9189  0.9543 -0.4053
 5879SOL    HW218458   6.339   3.175   1.507 -0.3852 -3.1262  2.7627
 5880SOL     OW18459   2.296   2.070   1.622  0.1405  0.4350  0.3917
 5880SOL    HW118460   2.266   2.160   1.653  2.6495  1.0346  1.2793
 5880SOL    HW218461   2.238   2.000   1.665 -1.7316  1.5490 -0.1789
 5881SOL     OW18462   0.676   6.253   1.105  0.2405 -0.6575 -0.0231
 5881SOL    HW118463   0.754   6.310   1.130 -0.4167  0.9213 -1.4005
 5881SOL    HW218464   0.679   6.168   1.157  3.3181 -1.0288 -0.6139
 5882SOL     OW18465   5.205   2.139   5.574 -0.0597  0.5229  0.2214
 5882SOL    HW118466   5.166   2.182   5.493  0.4002  1.1406  0.3183
 5882SOL    HW218467   5.302   2.164   5.581  0.2809 -0.6744  0.1831
 5883SOL     OW18468   3.340   2.623   3.614 -0.3167 -0.1261 -0.0250
 5883SOL    HW118469   3.256   2.667   3.585  0.3077  0.3056 -1.2516
 5883SOL    HW218470   3.379   2.571   3.537  0.5777 -0.2409  0.4916
 5884SOL     OW18471   2.858   0.582   1.261  0.0171 -0.0279  0.0450
 5884SOL    HW118472   2.885   0.677   1.245  0.0224 -0.1141 -0.4774
 5884SOL    HW218473   2.765   0.579   1.296  0.6051  0.2627  1.6919
 5885SOL     OW18474   1.336   3.349   1.930 -0.3266  0.1308 -0.4202
 5885SOL    HW118475   1.431   3.377   1.923 -0.3258  0.4505  0.6296
 5885SOL    HW218476   1.277   3.430   1.935 -0.8326 -0.0264 -2.6336
 5886SOL     OW18477   1.431   2.601   0.528  0.2684 -0.0761  0.2294
 5886SOL    HW118478   1.433   2.528   0.460 -1.9557 -0.9832  1.0316
 5886SOL    HW218479   1.337   2.626   0.547  0.9193  1.6609  1.4348
 5887SOL     OW18480   3.154   4.383   1.802  0.1880 -0.3574 -0.0516
 5887SOL    HW118481   3.194   4.464   1.759 -0.6849 -0.0213 -0.2376
 5887SOL    HW218482   3.118   4.407   1.892 -1.4392 -0.1786 -0.7327
 5888SOL     OW18483   1.601   6.340   6.083 -0.1829 -0.5989 -0.0556
 5888SOL    HW118484   1.544   6.421   6.094  1.0366  0.1830  0.7252
 5888SOL    HW218485   1.598   6.285   6.166  0.1003 -0.6046 -0.0467
 5889SOL     OW18486   1.280   6.043   4.792 -0.1036 -0.1014  0.3942
 5889SOL    HW118487   1.348   5.999   4.851 -0.0520 -0.3778  0.1334
 5889SOL    HW218488   1.291   6.142   4.795 -0.0773 -0.1153  0.8185
 5890SOL     OW18489   6.215   0.583   4.917  0.4162  0.0275 -0.9717
 5890SOL    HW118490   6.292   0.646   4.929  1.0705 -0.8769 -0.2092
 5890SOL    HW218491   6.175   0.562   5.007  1.5053 -2.1723 -0.9306
 5891SOL     OW18492   1.129   5.325   5.930 -0.0032  0.2205 -0.1134
 5891SOL    HW118493   1.089   5.339   5.840 -1.2251  0.4469  0.4539
 5891SOL    HW218494   1.098   5.238   5.967 -0.6048  0.7524  0.6574
 5892SOL     OW18495   5.601   4.564   6.685  0.1063 -0.1392 -0.1556
 5892SOL    HW118496   5.504   4.549   6.667  0.1951 -0.5421 -0.3000
 5892SOL    HW218497   5.651   4.566   6.598  0.6295 -2.6876  0.0254
 5893SOL     OW18498   6.963   2.969   6.574  0.2494 -0.3569 -0.2609
 5893SOL    HW118499   6.872   2.930   6.563 -0.5541  1.6315 -1.1709
 5893SOL    HW218500   7.018   2.910   6.634 -1.4423 -1.8605 -0.1139
 5894SOL     OW18501   5.126   4.599   2.053  0.2566 -0.0966 -0.8305
 5894SOL    HW118502   5.161   4.690   2.073  0.3826 -0.7936  2.8066
 5894SOL    HW218503   5.179   4.531   2.103 -1.2622 -1.9810 -1.6270
 5895SOL     OW18504   0.744   3.051   6.413  0.3789  0.4015 -0.1041
 5895SOL    HW118505   0.824   3.093   6.370  0.1510  0.8700 -0.0808
 5895SOL    HW218506   0.661   3.087   6.370  0.1804 -0.2502 -0.2825
 5896SOL     OW18507   1.782   2.318   0.210  0.0433  0.6048  0.1068
 5896SOL    HW118508   1.737   2.253   0.272  1.1056 -0.0329  0.2194
 5896SOL    HW218509   1.718   2.345   0.138 -0.8819  0.5806  0.8975
 5897SOL     OW18510   2.253   1.331   6.865 -0.2706  0.7998  0.8111
 5897SOL    HW118511   2.190   1.349   6.789  1.2787  2.9076 -0.0525
 5897SOL    HW218512   2.215   1.370   6.949  0.5757  3.6849 -0.0419
 5898SOL     OW18513   0.910   1.167   4.907  0.0793  0.1017  0.1718
 5898SOL    HW118514   0.949   1.232   4.841  1.0101  1.6307  2.1293
 5898SOL    HW218515   0.817   1.195   4.929 -1.1537 -1.7988 -2.2034
 5899SOL     OW18516   6.378   2.284   3.002 -0.0580  0.4208 -0.5772
 5899SOL    HW118517   6.427   2.203   3.036 -1.9626 -0.9925 -1.0127
 5899SOL    HW218518   6.334   2.330   3.078 -0.8593 -0.3083 -0.5852
 5900SOL     OW18519   0.041   1.105   1.815 -0.6832  0.1884 -0.4721
 5900SOL    HW118520   0.133   1.144   1.810  0.2284 -1.8557 -0.7078
 5900SOL    HW218521  -0.001   1.129   1.902  0.7248 -0.1684  0.3388
 5901SOL     OW18522   4.550   1.636   2.555  0.9415  0.7904 -1.0122
 5901SOL    HW118523   4.588   1.592   2.474 -0.6175 -0.1516 -1.2668
 5901SOL    HW218524   4.560   1.576   2.634 -0.5680  0.2235 -1.2188
 5902SOL     OW18525   1.748   0.640   5.053  0.3166 -0.7785  0.4381
 5902SOL    HW118526   1.765   0.595   5.141  0.9220 -1.9012 -0.2318
 5902SOL    HW218527   1.833   0.680   5.019  0.0672 -0.2831  0.3882
 5903SOL     OW18528   1.828   4.164   3.633  0.0770 -0.3997  0.4184
 5903SOL    HW118529   1.784   4.243   3.589 -0.8178  0.1763  2.2396
 5903SOL    HW218530   1.787   4.080   3.598 -0.8316  0.0463  0.3717
 5904SOL     OW18531   3.036   5.363   5.559  0.2141  0.1054 -0.1650
 5904SOL    HW118532   2.966   5.343   5.628  0.8048 -0.9745  0.1621
 5904SOL    HW218533   3.125   5.368   5.604  0.5586 -0.2354 -0.7945
 5905SOL     OW18534   1.221   3.502   6.138  0.3131 -0.2313  0.1804
 5905SOL    HW118535   1.274   3.567   6.193 -0.8708  0.6509  0.3451
 5905SOL    HW218536   1.271   3.479   6.055  0.7158  1.0454  0.0438
 5906SOL     OW18537   3.002   6.436   5.981 -0.7392  0.2416  0.0812
 5906SOL    HW118538   2.920   6.416   5.926  0.0070  0.6305 -1.2270
 5906SOL    HW218539   3.082   6.395   5.937 -0.0291  1.0895  0.5504
 5907SOL     OW18540   4.250   6.284   2.114 -0.2186 -0.1694 -0.3246
 5907SOL    HW118541   4.250   6.350   2.189  1.5350 -0.1824 -0.2730
 5907SOL    HW218542   4.166   6.230   2.116 -0.7107  0.6194  0.9199
 5908SOL     OW18543   0.418   3.416   6.099  0.1688  0.0650  0.4761
 5908SOL    HW118544   0.466   3.355   6.162 -1.6644 -1.3884  0.5478
 5908SOL    HW218545   0.466   3.417   6.011  2.0721  1.1844  1.4603
 5909SOL     OW18546   3.780   6.858   3.136 -0.6077  0.7952  0.1832
 5909SOL    HW118547   3.853   6.899   3.081 -0.0057  1.6241  1.5543
 5909SOL    HW218548   3.712   6.817   3.075  0.0523  1.6295 -1.1699
 5910SOL     OW18549   2.935   1.889   2.054 -0.3443 -0.5060 -0.2129
 5910SOL    HW118550   2.990   1.967   2.024 -0.1578 -0.3867  0.4188
 5910SOL    HW218551   2.914   1.831   1.976  0.6097 -0.5060 -0.4834
 5911SOL     OW18552   5.868   1.304   0.064 -0.4935 -0.3819  0.4592
 5911SOL    HW118553   5.961   1.319   0.095 -0.5195 -0.5505  0.6159
 5911SOL    HW218554   5.869   1.257  -0.024 -0.4289 -0.2336  0.3796
 5912SOL     OW18555   0.517   3.605   0.287 -0.1726 -0.0886  0.3387
 5912SOL    HW118556   0.597   3.618   0.229 -0.6333  2.3498  0.1518
 5912SOL    HW218557   0.481   3.512   0.274  1.4492 -0.5739 -1.0351
 5913SOL     OW18558   0.077   1.523   2.299  0.3297  0.0677 -0.6061
 5913SOL    HW118559   0.151   1.505   2.364 -1.1181 -0.1256  1.0578
 5913SOL    HW218560   0.107   1.497   2.207  1.7031 -1.6963  0.2720
 5914SOL     OW18561   5.969   5.777   5.142  0.0231 -0.1054  0.0765
 5914SOL    HW118562   5.964   5.677   5.142 -1.7619 -0.0716 -1.2291
 5914SOL    HW218563   6.045   5.807   5.199  2.1652 -2.2603 -1.4585
 5915SOL     OW18564   0.343   6.621   4.386 -0.6396  0.7257 -0.1327
 5915SOL    HW118565   0.416   6.621   4.454 -0.3859 -0.4157 -0.3762
 5915SOL    HW218566   0.341   6.532   4.341 -1.5691  1.0757 -0.7953
 5916SOL     OW18567   1.820   5.709   5.682  0.0688  0.0179  0.6519
 5916SOL    HW118568   1.884   5.695   5.757  0.6894 -0.7529 -0.0129
 5916SOL    HW218569   1.838   5.644   5.608 -0.3175  0.9635 -0.3189
 5917SOL     OW18570   5.115   0.322   5.997  0.4830  0.0197 -0.1506
 5917SOL    HW118571   5.084   0.326   5.902  1.3380  1.3880 -0.4069
 5917SOL    HW218572   5.038   0.296   6.056  0.2593 -2.2527 -1.3179
 5918SOL     OW18573   3.228   0.874   6.722  0.5165 -0.2605  0.1143
 5918SOL    HW118574   3.178   0.839   6.643 -2.1247 -0.0152  1.5539
 5918SOL    HW218575   3.210   0.816   6.801  0.0561  1.5440  1.3936
 5919SOL     OW18576   3.870   5.298   1.760 -0.6259 -0.2359 -0.1373
 5919SOL    HW118577   3.790   5.356   1.772 -0.7109 -0.3699 -0.0543
 5919SOL    HW218578   3.851   5.227   1.692  1.0468  2.7684 -4.1866
 5920SOL     OW18579   4.250   0.093   1.614  0.1989  0.5579 -0.6529
 5920SOL    HW118580   4.325   0.158   1.613  0.3454  0.4712  1.4056
 5920SOL    HW218581   4.174   0.130   1.667  0.3193 -0.9403  0.6501
 5921SOL     OW18582   1.453   3.999   2.229  0.2223  0.0396  0.3284
 5921SOL    HW118583   1.370   4.050   2.253  0.1303 -0.0990  0.3109
 5921SOL    HW218584   1.477   3.937   2.303 -0.5879 -1.0563 -0.2810
 5922SOL     OW18585   3.422   2.801   6.392 -0.0991  0.3258  0.2875
 5922SOL    HW118586   3.399   2.796   6.295 -1.0842  3.2985  0.2503
 5922SOL    HW218587   3.347   2.764   6.446  0.2234 -0.8421 -0.0351
 5923SOL     OW18588   0.292   4.846   0.465 -0.2900 -0.2818 -0.1864
 5923SOL    HW118589   0.354   4.925   0.471  0.6201 -1.0708  2.1341
 5923SOL    HW218590   0.309   4.796   0.381  1.8887 -0.1670  0.1294
 5924SOL     OW18591   0.739   2.751   2.328 -0.2924 -0.0954  0.3181
 5924SOL    HW118592   0.723   2.654   2.310 -0.4792  0.4343 -2.7826
 5924SOL    HW218593   0.653   2.796   2.352 -0.5274 -0.3370 -0.0826
 5925SOL     OW18594   4.384   0.427   2.978  0.2611  0.6399 -0.5421
 5925SOL    HW118595   4.338   0.345   2.945  2.9795 -0.9751 -0.6162
 5925SOL    HW218596   4.393   0.422   3.078  0.6299  0.7050 -0.5693
 5926SOL     OW18597   0.327   5.819   1.129  0.6430  0.5597 -0.1290
 5926SOL    HW118598   0.362   5.830   1.222  0.6929 -0.6360  0.0138
 5926SOL    HW218599   0.235   5.857   1.123 -0.5617 -1.8852  1.2356
 5927SOL     OW18600   1.208   6.011   3.809 -0.1082  0.3306 -0.8381
 5927SOL    HW118601   1.209   5.932   3.870 -3.4759 -0.0685 -1.1414
 5927SOL    HW218602   1.218   5.980   3.714  1.4929  0.6295 -0.8088
 5928SOL     OW18603   0.226   6.815   1.700 -0.1734 -0.2064  0.1379
 5928SOL    HW118604   0.286   6.874   1.754  1.5070 -0.8510 -0.9365
 5928SOL    HW218605   0.218   6.852   1.607 -0.3202 -0.8613 -0.1155
 5929SOL     OW18606   2.859   1.522   1.332 -0.0086 -0.0589  0.0650
 5929SOL    HW118607   2.857   1.459   1.411 -2.2578 -2.0408 -1.4119
 5929SOL    HW218608   2.889   1.472   1.251 -1.7081  0.7678 -1.1292
 5930SOL     OW18609   4.835   0.555   4.702 -0.1098  0.8502 -0.6124
 5930SOL    HW118610   4.785   0.637   4.731  0.8981  1.4757 -0.5944
 5930SOL    HW218611   4.809   0.533   4.608 -1.2313  0.5117 -0.2398
 5931SOL     OW18612   4.886   2.793   2.631  0.0849  0.1114 -0.3333
 5931SOL    HW118613   4.848   2.700   2.635  2.0825 -0.9173 -2.5620
 5931SOL    HW218614   4.866   2.833   2.541  0.7176  1.1793 -0.0153
 5932SOL     OW18615   6.302   1.441   1.847 -0.3673 -0.1211  0.5902
 5932SOL    HW118616   6.224   1.437   1.785 -0.1001 -0.8564  0.2841
 5932SOL    HW218617   6.372   1.501   1.808 -0.7528  0.4793  0.8297
 5933SOL     OW18618   5.531   6.144   6.455  0.0790  0.5509 -0.2397
 5933SOL    HW118619   5.605   6.205   6.484  1.6177 -2.0995  1.8496
 5933SOL    HW218620   5.521   6.148   6.356  0.5447  3.6106 -0.2601
 5934SOL     OW18621   6.042   3.324   6.240 -0.4371  0.4287 -0.7185
 5934SOL    HW118622   6.080   3.309   6.332  0.9505  1.4678 -1.0940
 5934SOL    HW218623   5.988   3.244   6.213 -0.4975 -0.0780  0.8195
 5935SOL     OW18624   0.088   2.925   4.746  0.2647 -0.3032  0.1785
 5935SOL    HW118625   0.104   2.938   4.648  1.4207  0.1460  0.4083
 5935SOL    HW218626   0.001   2.966   4.771  1.0995  1.8525 -0.2188
 5936SOL     OW18627   0.430   6.671   2.647 -0.1900 -0.2564 -0.2723
 5936SOL    HW118628   0.398   6.618   2.568  0.3167 -0.8565 -0.0853
 5936SOL    HW218629   0.383   6.640   2.730  0.6911 -0.9995 -0.0292
 5937SOL     OW18630   5.224   6.437   0.266  0.2183  0.0710  0.1483
 5937SOL    HW118631   5.320   6.408   0.275  0.1290 -0.0652  0.6784
 5937SOL    HW218632   5.207   6.516   0.324  0.1846  0.5277 -0.4819
 5938SOL     OW18633   4.144   0.920   2.977  0.1631 -0.0658 -0.2770
 5938SOL    HW118634   4.170   0.824   2.965 -1.8431 -0.8830  1.2705
 5938SOL    HW218635   4.140   0.964   2.888  2.7908 -0.8768 -0.9063
 5939SOL     OW18636   0.660   3.100   3.389  1.4428 -0.1675 -0.0250
 5939SOL    HW118637   0.750   3.083   3.349  1.6123 -0.2831  0.4009
 5939SOL    HW218638   0.617   3.013   3.412  0.3310 -0.2335 -2.1322
 5940SOL     OW18639   1.928   4.562   1.721  0.2634 -0.2079 -0.4331
 5940SOL    HW118640   1.907   4.474   1.765  1.1187  0.3428  1.1607
 5940SOL    HW218641   1.974   4.545   1.634  1.3336 -1.3649  0.3164
 5941SOL     OW18642   1.767   1.059   1.887  0.0927  0.4663  0.3261
 5941SOL    HW118643   1.682   1.091   1.844  1.4099  1.9313 -1.3147
 5941SOL    HW218644   1.844   1.113   1.853  1.8857 -1.7069  0.7421
 5942SOL     OW18645   4.173   1.242   0.685  0.1849 -0.1289  0.1095
 5942SOL    HW118646   4.256   1.297   0.675  0.6798 -0.6730  1.0278
 5942SOL    HW218647   4.196   1.145   0.669 -0.7921 -0.0560 -2.0967
 5943SOL     OW18648   0.380   1.817   0.468  0.9687  0.2439 -0.7234
 5943SOL    HW118649   0.378   1.887   0.539  3.1256  1.8543 -2.1206
 5943SOL    HW218650   0.468   1.769   0.472  0.6975 -0.3474 -1.6590
 5944SOL     OW18651   6.686   6.696   3.620 -0.1752 -0.0009 -0.2128
 5944SOL    HW118652   6.651   6.721   3.710  0.7652  0.3151  0.0802
 5944SOL    HW218653   6.731   6.607   3.625  2.1698  1.1451  0.2731
 5945SOL     OW18654   6.051   1.549   2.168  0.7150  0.3079 -0.1927
 5945SOL    HW118655   6.131   1.606   2.184  1.7220 -0.4620 -2.1952
 5945SOL    HW218656   6.031   1.545   2.070 -2.3884  1.2464  0.2806
 5946SOL     OW18657   0.746   3.105   6.689 -0.0813  0.7373  0.6907
 5946SOL    HW118658   0.843   3.124   6.704  0.9297 -2.3281 -1.0321
 5946SOL    HW218659   0.733   3.063   6.600 -2.5358 -1.7098  2.0127
 5947SOL     OW18660   0.798   6.476   2.750  0.1210 -0.4272  0.1713
 5947SOL    HW118661   0.882   6.422   2.741 -0.3898 -1.3593  0.8472
 5947SOL    HW218662   0.815   6.569   2.719  1.2910 -0.7155 -0.1007
 5948SOL     OW18663   1.059   4.466   4.451  0.3148 -0.0929  0.2482
 5948SOL    HW118664   0.972   4.495   4.410  1.2215 -0.4142 -2.1076
 5948SOL    HW218665   1.108   4.547   4.486 -0.2055  0.3094  0.0565
 5949SOL     OW18666   0.821   5.061   4.628 -0.0067 -0.2619  0.0918
 5949SOL    HW118667   0.733   5.015   4.639 -0.7543  0.8839 -0.8205
 5949SOL    HW218668   0.894   5.005   4.668 -0.9128 -2.0275 -0.6057
 5950SOL     OW18669   0.094   3.897   5.832 -0.4657 -0.5469  0.3505
 5950SOL    HW118670   0.100   3.829   5.760  0.4126 -0.2909  0.1668
 5950SOL    HW218671   0.018   3.959   5.814  0.2270  0.0113 -0.8119
 5951SOL     OW18672   5.114   4.959   6.324  0.3543  0.4462  0.2652
 5951SOL    HW118673   5.088   5.051   6.296 -0.6464 -0.3426 -1.4879
 5951SOL    HW218674   5.206   4.939   6.291 -0.0468  0.2469 -0.7405
 5952SOL     OW18675   3.901   1.067   5.345 -0.1615 -0.2126  0.1419
 5952SOL    HW118676   3.843   1.029   5.417  1.7062 -1.6777  0.9650
 5952SOL    HW218677   3.962   0.996   5.310  2.1929  1.5401  0.4134
 5953SOL     OW18678   1.113   1.009   6.543 -0.3346 -0.2705  0.2159
 5953SOL    HW118679   1.117   0.910   6.557  0.6648 -0.5697 -1.8847
 5953SOL    HW218680   1.185   1.037   6.479  0.1496  1.9984  1.6247
 5954SOL     OW18681   4.575   5.223   0.560  0.4736 -0.3028 -0.0230
 5954SOL    HW118682   4.600   5.278   0.481  2.7090 -3.1416 -1.5133
 5954SOL    HW218683   4.631   5.250   0.639  1.0603  0.0012 -0.5335
 5955SOL     OW18684   1.032   3.971   1.546  0.1779  0.1278 -0.6246
 5955SOL    HW118685   1.117   4.012   1.513  0.6987 -0.3013  0.1508
 5955SOL    HW218686   0.962   3.979   1.475 -0.2582  3.7653  0.0338
 5956SOL     OW18687   0.481   0.767   5.345 -0.6380 -0.5554 -0.1559
 5956SOL    HW118688   0.555   0.782   5.279 -0.9496  0.7463 -0.2331
 5956SOL    HW218689   0.397   0.809   5.311 -0.2260  2.4939  2.1734
 5957SOL     OW18690   4.169   4.284   0.124 -0.6854 -0.4450  0.4191
 5957SOL    HW118691   4.076   4.317   0.108 -0.8170 -0.3285  1.3627
 5957SOL    HW218692   4.167   4.210   0.192 -0.0380 -0.0588  0.8753
 5958SOL     OW18693   6.276   2.664   0.578 -0.0497  0.0982 -0.2973
 5958SOL    HW118694   6.362   2.647   0.529 -1.4242 -1.0031 -2.4796
 5958SOL    HW218695   6.236   2.577   0.606 -0.5342  0.5970  0.5914
 5959SOL     OW18696   6.637   5.740   0.176 -0.0064  0.0707  0.9382
 5959SOL    HW118697   6.675   5.830   0.156 -0.7503  0.3355  0.6746
 5959SOL    HW218698   6.600   5.740   0.269 -0.3599  0.1641  0.7991
 5960SOL     OW18699   1.635   4.709   6.482  0.6819 -0.4864 -0.5733
 5960SOL    HW118700   1.667   4.708   6.577  0.1021 -0.7918 -0.3771
 5960SOL    HW218701   1.704   4.753   6.425  0.7863  0.2328  0.0796
 5961SOL     OW18702   1.669   2.164   6.059 -0.3143  0.1371 -0.0800
 5961SOL    HW118703   1.671   2.108   6.142 -0.5258  0.4264  0.1226
 5961SOL    HW218704   1.762   2.196   6.038  0.1773 -1.9802 -1.3704
 5962SOL     OW18705   0.965   6.673   1.561 -0.4127  0.3168  0.5887
 5962SOL    HW118706   0.886   6.733   1.563  0.9045  2.1253  0.8090
 5962SOL    HW218707   0.996   6.656   1.655  0.9639  1.7725  0.4406
 5963SOL     OW18708   1.087   1.123   2.988  0.2089 -0.2464  0.1161
 5963SOL    HW118709   0.994   1.111   3.025  0.2896 -0.2567  0.3160
 5963SOL    HW218710   1.146   1.162   3.058  0.1320  0.6257 -0.3028
 5964SOL     OW18711   1.667   3.302   0.356 -0.0653  0.3044  0.3287
 5964SOL    HW118712   1.709   3.390   0.333 -0.0295 -0.2725 -2.1147
 5964SOL    HW218713   1.568   3.315   0.367 -0.2481  0.4876 -1.2994
 5965SOL     OW18714   3.393   5.800   5.041  0.5137 -0.2027 -0.3544
 5965SOL    HW118715   3.305   5.810   4.996  0.0535 -0.2506  0.5108
 5965SOL    HW218716   3.462   5.775   4.974  0.3104  1.8583 -1.4260
 5966SOL     OW18717   6.729   6.726   1.645  0.0925  0.5121 -0.3873
 5966SOL    HW118718   6.686   6.816   1.649  1.8380  1.3839 -0.1905
 5966SOL    HW218719   6.664   6.656   1.673 -0.8954  1.8571  0.7833
 5967SOL     OW18720   1.818   3.596   5.022 -0.2789  0.0549 -0.5152
 5967SOL    HW118721   1.859   3.577   5.111 -0.5259  0.6195 -0.2740
 5967SOL    HW218722   1.790   3.511   4.978  1.7596 -0.4252 -0.9832
 5968SOL     OW18723   6.234   5.164   3.236  0.0023 -0.2541 -0.0664
 5968SOL    HW118724   6.236   5.104   3.316  1.5429  0.4909  0.4944
 5968SOL    HW218725   6.270   5.115   3.157  2.2145  0.1810  0.6128
 5969SOL     OW18726   1.620   4.662   0.182 -0.1715 -0.0417  0.1902
 5969SOL    HW118727   1.704   4.610   0.169 -0.3734 -0.5453  0.8104
 5969SOL    HW218728   1.567   4.620   0.256 -0.7305  0.5646  0.1380
 5970SOL     OW18729   3.589   5.231   1.065  0.5130  0.6813  0.4948
 5970SOL    HW118730   3.490   5.230   1.076  0.5470 -0.8979  0.8257
 5970SOL    HW218731   3.612   5.225   0.968  0.2666 -1.3135  0.5232
 5971SOL     OW18732   2.695   5.452   0.183  0.2125 -0.2927 -0.0626
 5971SOL    HW118733   2.724   5.360   0.155  0.9400  0.5563 -2.3509
 5971SOL    HW218734   2.753   5.520   0.138 -1.1402  1.3275  0.5458
 5972SOL     OW18735   4.891   6.304   1.778 -0.2291 -0.3834  0.9646
 5972SOL    HW118736   4.869   6.312   1.876 -0.0346  0.6238  0.9410
 5972SOL    HW218737   4.949   6.381   1.751 -2.0727  0.6016 -0.4219
 5973SOL     OW18738   0.329   4.225   4.806 -0.9679 -0.3896 -0.7621
 5973SOL    HW118739   0.326   4.245   4.708 -1.1175 -0.0939 -0.6977
 5973SOL    HW218740   0.421   4.195   4.831 -1.1310 -1.2292 -1.1415
 5974SOL     OW18741   3.098   5.987   3.394  0.6646  0.1900  0.0989
 5974SOL    HW118742   3.030   6.047   3.352 -0.6665 -1.4414 -0.1562
 5974SOL    HW218743   3.161   5.954   3.324  0.6848  0.3470  0.0410
 5975SOL     OW18744   1.857   0.187   4.655 -0.0394 -0.0818  0.3881
 5975SOL    HW118745   1.837   0.117   4.724  0.0553  0.8145  1.3512
 5975SOL    HW218746   1.771   0.228   4.624 -0.0397  0.0126  0.5120
 5976SOL     OW18747   4.594   6.784   5.310 -0.3651 -0.0311  0.4810
 5976SOL    HW118748   4.554   6.854   5.370  1.4291 -0.8384  2.7625
 5976SOL    HW218749   4.688   6.808   5.287 -0.3947 -0.7106 -0.4355
 5977SOL     OW18750   6.717   1.009   5.585  0.6330 -0.5791 -0.1321
 5977SOL    HW118751   6.772   0.964   5.513 -0.5959  0.4281 -1.7643
 5977SOL    HW218752   6.761   1.095   5.611  0.6794 -0.5640 -0.2579
 5978SOL     OW18753   1.943   6.401   4.127  0.0970 -0.4700  0.7807
 5978SOL    HW118754   1.993   6.327   4.172  0.0724 -1.4702 -0.7676
 5978SOL    HW218755   1.860   6.365   4.085 -0.2517  0.5665  0.5447
 5979SOL     OW18756   5.553   1.806   6.600 -0.1815  0.2556  0.6508
 5979SOL    HW118757   5.575   1.741   6.527  1.3248 -0.0057  1.2984
 5979SOL    HW218758   5.520   1.891   6.559  0.7066  0.1433 -0.3605
 5980SOL     OW18759   1.711   4.359   6.675  0.1276  0.1651 -0.3970
 5980SOL    HW118760   1.808   4.360   6.650  0.3676 -1.9000  0.2231
 5980SOL    HW218761   1.662   4.296   6.614 -0.4429 -0.2761  0.5074
 5981SOL     OW18762   5.879   3.136   6.129  0.0875  0.5494 -0.1670
 5981SOL    HW118763   5.792   3.151   6.175 -0.4796 -0.6602 -0.8189
 5981SOL    HW218764   5.892   3.039   6.112  1.9607  0.6002  0.6514
 5982SOL     OW18765   5.834   5.991   5.195 -0.7892 -0.1673  0.3242
 5982SOL    HW118766   5.875   6.081   5.176 -1.6099  0.4484  1.3697
 5982SOL    HW218767   5.899   5.920   5.170  0.7805  0.7693  1.4918
 5983SOL     OW18768   6.192   5.502   6.707  0.7810  0.6248 -0.6446
 5983SOL    HW118769   6.190   5.582   6.766 -0.3935 -1.1393  1.8822
 5983SOL    HW218770   6.141   5.522   6.623 -1.1349  2.0010  0.7407
 5984SOL     OW18771   0.402   2.959   1.842 -0.5143  0.8314  0.4507
 5984SOL    HW118772   0.396   3.036   1.778  0.7817 -0.7368 -1.7237
 5984SOL    HW218773   0.310   2.931   1.869 -1.1262  1.4723 -0.8713
 5985SOL     OW18774   6.821   0.011   2.057 -0.5492  0.1343  0.2003
 5985SOL    HW118775   6.790   0.100   2.023  1.5488  1.2622  1.0602
 5985SOL    HW218776   6.881  -0.031   1.989 -0.2514  0.1348  0.4593
 5986SOL     OW18777   5.398   0.687   2.908  0.0740 -0.1024  0.6726
 5986SOL    HW118778   5.444   0.598   2.899 -1.2144 -0.7734  0.4252
 5986SOL    HW218779   5.380   0.724   2.817  0.9524  0.6189  0.7773
 5987SOL     OW18780   0.330   5.624   1.644 -1.1103 -0.2461 -0.5819
 5987SOL    HW118781   0.296   5.655   1.555 -2.2380 -0.5148 -0.2659
 5987SOL    HW218782   0.256   5.577   1.693 -0.6525  0.3259  0.7021
 5988SOL     OW18783   3.342   5.047   6.364  0.0194  0.2279 -0.0963
 5988SOL    HW118784   3.310   5.137   6.336  0.2055  0.1972 -0.4052
 5988SOL    HW218785   3.278   5.008   6.431 -1.0876 -0.2265 -1.3802
 5989SOL     OW18786   2.945   6.970   4.187  0.5997 -0.2463 -0.6392
 5989SOL    HW118787   2.953   7.020   4.274  0.4079 -0.5837 -0.4258
 5989SOL    HW218788   2.940   6.872   4.205  0.7540 -0.3292 -1.0461
 5990SOL     OW18789   2.823   0.288   6.101 -0.2574  0.0751  0.3754
 5990SOL    HW118790   2.916   0.311   6.071 -0.2711  0.1342  0.3798
 5990SOL    HW218791   2.788   0.212   6.046  1.0341 -2.1451  2.4180
 5991SOL     OW18792   1.198   4.382   5.879 -0.3521  0.2023  0.1671
 5991SOL    HW118793   1.194   4.299   5.823  0.0187  0.7141 -0.6354
 5991SOL    HW218794   1.266   4.444   5.841 -0.2905  0.6798  1.0401
 5992SOL     OW18795   1.363   0.431   2.495  0.0427 -0.7744  0.4399
 5992SOL    HW118796   1.309   0.515   2.501  0.1754 -0.6174 -0.4176
 5992SOL    HW218797   1.418   0.421   2.578  1.1564  0.7741 -0.0703
 5993SOL     OW18798   6.664   4.016   3.325 -0.8686 -0.2536 -0.6404
 5993SOL    HW118799   6.681   3.968   3.411  0.9217 -0.3901 -1.0245
 5993SOL    HW218800   6.733   4.088   3.313 -1.9618  0.7202 -1.2901
 5994SOL     OW18801   2.295   3.987   5.334  0.2074 -0.4312  0.4255
 5994SOL    HW118802   2.392   3.984   5.307  0.3253 -1.1230  0.9038
 5994SOL    HW218803   2.279   4.068   5.390  0.6587 -0.6401  0.8708
 5995SOL     OW18804   5.558   6.609   0.765 -0.1794 -0.2529  0.4577
 5995SOL    HW118805   5.599   6.700   0.773  0.0567 -0.2545 -0.6082
 5995SOL    HW218806   5.465   6.611   0.801 -1.0280  1.0150 -1.6164
 5996SOL     OW18807   1.011   3.465   2.742  0.5605 -0.1485 -0.0055
 5996SOL    HW118808   0.920   3.473   2.782  1.1522 -1.4108  1.7218
 5996SOL    HW218809   1.019   3.377   2.695  1.0335 -0.2601  0.2758
 5997SOL     OW18810   4.300   6.988   2.914 -0.1637 -0.0769 -0.1043
 5997SOL    HW118811   4.212   6.948   2.942 -0.5158  0.0658 -0.9737
 5997SOL    HW218812   4.375   6.932   2.948 -0.6500 -1.5106 -1.3167
 5998SOL     OW18813   6.887   0.770   5.481 -0.7658  0.5061  0.0677
 5998SOL    HW118814   6.957   0.755   5.411 -0.0422  2.2569  0.3702
 5998SOL    HW218815   6.876   0.687   5.536  0.8695  0.1063 -0.1695
 5999SOL     OW18816   4.359   3.045   5.748 -0.3533  0.3519  0.1751
 5999SOL    HW118817   4.401   2.957   5.770  0.9076  0.9435  0.2345
 5999SOL    HW218818   4.371   3.108   5.825 -1.5178  0.5008  0.2579
 6000SOL     OW18819   2.496   1.736   0.208  0.6635 -0.0784 -0.2107
 6000SOL    HW118820   2.503   1.666   0.137 -0.4868  1.1814 -1.6494
 6000SOL    HW218821   2.483   1.692   0.297  2.5197 -1.7178 -0.6650
 6001SOL     OW18822   1.599   0.512   3.221  0.3007 -0.0831 -0.3155
 6001SOL    HW118823   1.524   0.548   3.276 -0.2968 -0.5877 -0.7838
 6001SOL    HW218824   1.561   0.461   3.144  1.1329 -0.8704 -0.2089
 6002SOL     OW18825   0.981   0.416   2.231 -0.5980  0.0273  0.1779
 6002SOL    HW118826   1.046   0.484   2.195  1.1865 -1.1488  1.0613
 6002SOL    HW218827   0.900   0.463   2.264  0.6597  1.7956  0.9360
 6003SOL     OW18828   6.884   1.915   1.049  0.0173 -0.1287  0.1170
 6003SOL    HW118829   6.931   1.853   0.986 -0.9089  0.1124 -0.8414
 6003SOL    HW218830   6.848   1.993   0.998  0.5708  0.8628  1.2066
 6004SOL     OW18831   6.529   0.181   0.949  0.0179  0.5298  0.1889
 6004SOL    HW118832   6.601   0.114   0.932 -1.2783 -0.9050  0.1765
 6004SOL    HW218833   6.484   0.204   0.863  0.0552  0.9564  0.2813
 6005SOL     OW18834   3.432   1.516   5.230  0.2518 -0.4140 -0.4679
 6005SOL    HW118835   3.487   1.519   5.147 -0.6282 -0.2539 -1.0667
 6005SOL    HW218836   3.337   1.493   5.206 -0.1390  0.2030  0.4256
 6006SOL     OW18837   5.151   3.220   2.847 -0.3987 -0.0392 -0.0664
 6006SOL    HW118838   5.109   3.153   2.786 -0.2879 -0.5779  0.4454
 6006SOL    HW218839   5.206   3.173   2.915 -0.1931  0.5835  0.2000
 6007SOL     OW18840   2.741   6.075   4.045  0.5953  0.9656  0.6368
 6007SOL    HW118841   2.778   6.163   4.014  0.9041  1.0014  1.0921
 6007SOL    HW218842   2.810   6.004   4.032 -0.0676  0.5561 -0.8293
 6008SOL     OW18843   2.840   2.864   0.359 -0.4136  0.3038  0.0849
 6008SOL    HW118844   2.784   2.781   0.357  1.8881 -1.3451  0.3084
 6008SOL    HW218845   2.818   2.918   0.440 -0.6365 -1.0763  0.9705
 6009SOL     OW18846   2.045   1.065   0.753 -0.4390 -0.2569  0.1611
 6009SOL    HW118847   2.007   0.995   0.693 -0.6258  0.8951 -1.1182
 6009SOL    HW218848   1.980   1.087   0.825 -0.3069 -1.5002  0.6858
 6010SOL     OW18849   3.596   3.606   6.949 -0.2722 -0.1489  0.1976
 6010SOL    HW118850   3.575   3.526   7.006 -2.4247  2.1624  3.0091
 6010SOL    HW218851   3.694   3.611   6.933  0.1505 -2.2480  1.7182
 6011SOL     OW18852   4.304   0.604   6.011 -1.2281  0.2924  0.4508
 6011SOL    HW118853   4.225   0.606   6.072  0.5716 -1.5734  3.0143
 6011SOL    HW218854   4.381   0.652   6.052 -0.2989  0.0548 -0.9098
 6012SOL     OW18855   3.838   5.462   2.570  0.3334  1.0506  0.1358
 6012SOL    HW118856   3.893   5.421   2.497 -0.3124 -0.5915  0.5397
 6012SOL    HW218857   3.899   5.497   2.641  0.8914  0.6393 -0.1317
 6013SOL     OW18858   3.245   4.369   0.737 -0.2076  0.5917  0.3567
 6013SOL    HW118859   3.307   4.305   0.693  0.5909  1.3590  0.3309
 6013SOL    HW218860   3.223   4.338   0.829 -0.8820 -0.3754 -0.1118
 6014SOL     OW18861   1.922   4.872   4.445 -0.0942  0.3100  0.4698
 6014SOL    HW118862   1.873   4.786   4.429 -0.2080  0.4623 -0.0252
 6014SOL    HW218863   1.990   4.885   4.373 -1.8734  1.9252 -0.9991
 6015SOL     OW18864   0.696   0.586   4.623 -0.0819 -0.1128 -0.1675
 6015SOL    HW118865   0.655   0.524   4.689 -1.8729  1.4350  0.2884
 6015SOL    HW218866   0.723   0.671   4.669  1.0771 -0.0043 -0.9936
 6016SOL     OW18867   6.008   5.515   5.113  0.0533  0.0239 -0.2310
 6016SOL    HW118868   6.015   5.426   5.159  0.9420 -0.5101 -1.3621
 6016SOL    HW218869   6.057   5.512   5.026  0.3596  1.7294 -0.1468
 6017SOL     OW18870   5.149   5.936   3.480  0.0359 -0.3037  0.4630
 6017SOL    HW118871   5.091   5.958   3.401  0.0909 -0.8534  0.2610
 6017SOL    HW218872   5.220   6.005   3.490  1.1394 -1.1565 -1.0702
 6018SOL     OW18873   6.788   1.466   5.814 -0.4361  0.0176 -0.1444
 6018SOL    HW118874   6.820   1.559   5.796 -2.5565  0.4030 -2.3980
 6018SOL    HW218875   6.827   1.434   5.900  1.9330  2.2135 -0.2743
 6019SOL     OW18876   0.138   4.047   3.239 -0.2128  0.2030 -0.3838
 6019SOL    HW118877   0.098   3.955   3.242 -1.6611  0.8044 -0.4125
 6019SOL    HW218878   0.224   4.045   3.188  0.8252 -1.4901  1.2955
 6020SOL     OW18879   5.043   5.606   2.211  0.1935 -0.1142 -0.6376
 6020SOL    HW118880   5.072   5.590   2.306 -2.9381  2.0754  0.8613
 6020SOL    HW218881   4.985   5.530   2.181  0.7144 -0.5269 -0.6242
 6021SOL     OW18882   3.083   2.821   0.836  0.2083 -0.1769 -0.3075
 6021SOL    HW118883   3.167   2.866   0.805  0.1917 -0.0107 -0.1143
 6021SOL    HW218884   3.049   2.761   0.763  1.3186 -1.4251  0.1591
 6022SOL     OW18885   5.613   2.482   3.439 -0.2019 -0.5439 -0.0036
 6022SOL    HW118886   5.664   2.567   3.453 -0.4242 -0.7060  2.3143
 6022SOL    HW218887   5.516   2.502   3.427 -0.2850 -0.4503  0.7608
 6023SOL     OW18888   4.475   0.843   5.872  0.3362  0.0078  0.2450
 6023SOL    HW118889   4.437   0.792   5.794  2.8928 -1.5543 -0.0942
 6023SOL    HW218890   4.400   0.874   5.931 -1.5600 -0.5362 -1.7433
 6024SOL     OW18891   3.328   2.302   6.391 -0.2213  0.1169  0.6905
 6024SOL    HW118892   3.247   2.335   6.439  1.6188  2.9764  2.0724
 6024SOL    HW218893   3.336   2.349   6.303 -0.1670 -0.3021  0.4695
 6025SOL     OW18894   1.018   3.723   3.650 -0.1417  0.1525  0.1599
 6025SOL    HW118895   1.055   3.760   3.736  0.0094  2.7910 -0.9273
 6025SOL    HW218896   0.918   3.733   3.651 -0.0511  1.3919 -0.4093
 6026SOL     OW18897   1.067   1.972   3.415 -0.2014 -0.1514  0.3945
 6026SOL    HW118898   1.156   2.012   3.395 -0.0140 -1.2335 -1.1219
 6026SOL    HW218899   1.016   2.033   3.476  1.5597  0.4728  1.3304
 6027SOL     OW18900   5.074   3.517   2.295  0.5738 -0.1101  0.1144
 6027SOL    HW118901   5.114   3.492   2.383  2.1147  1.5543 -0.0512
 6027SOL    HW218902   5.099   3.448   2.226  0.3927 -0.7790  0.7052
 6028SOL     OW18903   4.310   5.838   6.605 -0.0818  0.2517 -0.1208
 6028SOL    HW118904   4.234   5.892   6.569  0.9764  2.1189  0.3004
 6028SOL    HW218905   4.383   5.834   6.536  0.1787  0.0401  0.1664
 6029SOL     OW18906   5.111   3.596   4.260  0.5970  0.3606  0.0043
 6029SOL    HW118907   5.104   3.648   4.345 -0.4740  1.4077 -0.7012
 6029SOL    HW218908   5.075   3.651   4.184 -0.3859 -1.3472 -0.8003
 6030SOL     OW18909   1.724   3.996   6.517 -0.2161 -0.3482 -0.9471
 6030SOL    HW118910   1.803   4.021   6.573 -0.3487 -2.6675  0.4007
 6030SOL    HW218911   1.656   4.069   6.521  0.8954  0.6897 -0.2603
 6031SOL     OW18912   0.298   2.881   6.521  0.0214 -0.0790 -0.1794
 6031SOL    HW118913   0.342   2.794   6.543  0.7258  0.7589  2.0024
 6031SOL    HW218914   0.300   2.941   6.601 -3.1341  0.8663 -0.6446
 6032SOL     OW18915   0.912   6.848   3.944 -0.4674  0.8386  0.3153
 6032SOL    HW118916   0.850   6.912   3.898 -0.7640 -0.7858 -1.6969
 6032SOL    HW218917   0.992   6.831   3.887 -0.1074 -0.1207  1.0733
 6033SOL     OW18918   1.482   3.865   0.568  0.4512 -0.2227 -0.3744
 6033SOL    HW118919   1.558   3.802   0.551 -0.8378 -2.2093  0.8842
 6033SOL    HW218920   1.486   3.897   0.663  1.0077  1.5765 -0.9482
 6034SOL     OW18921   6.855   1.836   0.127 -0.7676  0.4271  0.0087
 6034SOL    HW118922   6.882   1.927   0.096 -0.9454  0.1406 -1.0473
 6034SOL    HW218923   6.866   1.771   0.052 -0.0847 -0.5451  0.9222
 6035SOL     OW18924   2.682   4.796   1.237  0.2060  0.3769  0.1842
 6035SOL    HW118925   2.663   4.780   1.334  0.5403 -1.4858 -0.0286
 6035SOL    HW218926   2.704   4.710   1.193  1.0808  1.3505 -1.3469
 6036SOL     OW18927   4.713   5.131   6.831  0.3318 -0.0508  0.2454
 6036SOL    HW118928   4.789   5.141   6.766 -1.8172  0.8642 -2.3170
 6036SOL    HW218929   4.675   5.221   6.853 -0.7120 -0.5456  0.5398
 6037SOL     OW18930   3.692   5.235   6.232 -0.2349 -0.7143  0.0280
 6037SOL    HW118931   3.645   5.301   6.291  0.4369  0.8103 -1.0830
 6037SOL    HW218932   3.630   5.204   6.160 -0.0385  0.0415 -0.4709
 6038SOL     OW18933   4.063   3.622   4.624  0.6409 -0.1218 -0.6338
 6038SOL    HW118934   4.096   3.701   4.572  1.3563 -0.4600 -0.7051
 6038SOL    HW218935   4.130   3.548   4.619 -1.4732 -2.0851 -3.4874
 6039SOL     OW18936   0.109   3.457   3.629 -0.2270  0.1214  0.6304
 6039SOL    HW118937   0.085   3.538   3.684 -1.2727 -0.5712  1.2275
 6039SOL    HW218938   0.199   3.424   3.658 -1.0961 -0.7243  2.5955
 6040SOL     OW18939   3.343   2.197   0.318  0.5114 -0.6992  0.0377
 6040SOL    HW118940   3.333   2.118   0.259  0.3912 -1.2700  0.8090
 6040SOL    HW218941   3.269   2.262   0.299 -0.1106 -1.3351  0.2560
 6041SOL     OW18942   6.589   5.113   1.350  0.9841  0.0684 -0.0790
 6041SOL    HW118943   6.675   5.063   1.344  1.8204  1.4804 -0.4587
 6041SOL    HW218944   6.529   5.087   1.275  1.6016 -0.0151 -0.5438
 6042SOL     OW18945   2.570   0.853   5.272  0.7265 -0.5222  0.4079
 6042SOL    HW118946   2.619   0.852   5.359 -1.6511 -2.9664  1.9014
 6042SOL    HW218947   2.601   0.775   5.217 -1.8466 -2.7081  1.7870
 6043SOL     OW18948   0.397   5.025   2.920  0.0197 -0.8548 -0.0248
 6043SOL    HW118949   0.457   5.046   2.842 -0.3223  0.1374 -0.0438
 6043SOL    HW218950   0.385   5.108   2.975 -1.9911 -0.7920 -0.4884
 6044SOL     OW18951   4.639   6.275   3.063 -0.2809 -0.0755  0.0560
 6044SOL    HW118952   4.546   6.288   3.029  0.2336  0.6710 -1.1276
 6044SOL    HW218953   4.652   6.179   3.087 -0.5395 -0.8001 -2.4049
 6045SOL     OW18954   5.153   6.468   5.635  0.3882 -0.2726 -0.1162
 6045SOL    HW118955   5.087   6.531   5.677 -1.8013 -1.3339 -1.7770
 6045SOL    HW218956   5.134   6.375   5.667  1.0676 -0.5964 -0.6529
 6046SOL     OW18957   1.405   1.145   3.575 -0.1428  0.2996  0.3582
 6046SOL    HW118958   1.325   1.147   3.515  0.5510  1.6188 -0.5811
 6046SOL    HW218959   1.435   1.051   3.589 -1.8231 -0.2123  0.7076
 6047SOL     OW18960   4.822   5.272   1.795  0.0735 -0.7047 -0.1533
 6047SOL    HW118961   4.788   5.304   1.707 -2.2164 -2.3517  0.0197
 6047SOL    HW218962   4.841   5.351   1.854  1.4057  0.4131 -1.9643
 6048SOL     OW18963   5.606   6.390   6.779 -0.8008 -0.1609  0.3507
 6048SOL    HW118964   5.519   6.433   6.756 -0.6736  0.7290  1.4402
 6048SOL    HW218965   5.652   6.444   6.850  0.1306 -1.2167  0.5774
 6049SOL     OW18966   3.781   2.038   5.885 -0.1559 -0.0440  0.1814
 6049SOL    HW118967   3.751   2.074   5.797 -0.6389  0.8598  0.7019
 6049SOL    HW218968   3.797   1.939   5.877  0.4043  0.1396 -1.0565
 6050SOL     OW18969   5.311   2.640   1.347  0.1496 -0.4200  0.3849
 6050SOL    HW118970   5.355   2.730   1.347 -0.4223 -0.1001  2.1442
 6050SOL    HW218971   5.368   2.575   1.397 -0.3852 -0.5179  0.8787
 6051SOL     OW18972   0.381   6.423   1.851  0.4310 -0.0507  0.1761
 6051SOL    HW118973   0.464   6.458   1.808 -0.1489  2.4601  0.9550
 6051SOL    HW218974   0.308   6.490   1.841 -1.3245 -1.8770  0.1857
 6052SOL     OW18975   0.163   0.786   4.176  0.0247 -0.3338  0.3178
 6052SOL    HW118976   0.192   0.835   4.093 -2.2586 -0.0140 -0.3629
 6052SOL    HW218977   0.242   0.776   4.237  0.9088  3.3008  0.0508
 6053SOL     OW18978   2.021   6.295   5.833 -0.3934 -0.2049  0.4055
 6053SOL    HW118979   1.952   6.330   5.896 -1.5750 -3.4649  1.0938
 6053SOL    HW218980   1.977   6.242   5.760  1.2732 -1.1281  0.0049
 6054SOL     OW18981   0.836   3.712   1.706 -0.1688  0.3057  0.2444
 6054SOL    HW118982   0.890   3.644   1.756  0.0867 -0.1134 -0.5768
 6054SOL    HW218983   0.806   3.784   1.769  0.2160 -0.1573  0.9733
 6055SOL     OW18984   5.412   6.624   6.955  0.7427  0.3651  0.2267
 6055SOL    HW118985   5.397   6.541   7.008 -0.6105  1.2647  1.3391
 6055SOL    HW218986   5.489   6.675   6.994  0.0379  0.8009  1.0940
 6056SOL     OW18987   4.166   3.691   0.515 -0.2590  0.5662 -0.5067
 6056SOL    HW118988   4.218   3.641   0.584  0.1593  1.7323  0.0565
 6056SOL    HW218989   4.112   3.762   0.560  0.5580  1.7988 -1.4303
 6057SOL     OW18990   2.427   4.074   6.377  0.2642 -0.3365 -0.2505
 6057SOL    HW118991   2.363   4.083   6.301 -0.9472 -0.0574  0.7644
 6057SOL    HW218992   2.384   4.021   6.450  0.3110  1.7057  1.3518
 6058SOL     OW18993   3.157   0.491   1.884  0.3244 -0.4912  0.1086
 6058SOL    HW118994   3.095   0.557   1.926  0.7629 -0.8062  1.2905
 6058SOL    HW218995   3.110   0.403   1.874  0.2600 -0.4504  0.0514
 6059SOL     OW18996   4.077   6.241   4.196  0.1005  0.0697 -0.7554
 6059SOL    HW118997   3.994   6.272   4.241  1.5821  1.7454  0.9473
 6059SOL    HW218998   4.142   6.208   4.264  0.1697 -3.1510 -2.1898
 6060SOL     OW18999   5.950   3.175   0.385 -0.0014 -0.0883 -0.4563
 6060SOL    HW119000   5.874   3.125   0.427 -1.1259 -0.2283 -2.5360
 6060SOL    HW219001   5.917   3.261   0.348  1.1300  0.4102 -0.3657
 6061SOL     OW19002   5.556   0.435   6.797  0.1895 -0.1914 -0.0929
 6061SOL    HW119003   5.469   0.394   6.822 -0.5821  0.9152 -0.8763
 6061SOL    HW219004   5.561   0.528   6.833  0.9890 -0.1879 -0.1850
 6062SOL     OW19005   1.546   6.002   1.777 -0.4710 -0.3130  0.4076
 6062SOL    HW119006   1.458   5.988   1.731 -0.5442  0.7623  0.1823
 6062SOL    HW219007   1.550   5.945   1.858  0.2922 -3.4337 -1.6632
 6063SOL     OW19008   4.307   1.886   5.176 -0.5669 -0.0040 -0.4402
 6063SOL    HW119009   4.250   1.805   5.169  0.1929 -0.5596 -0.3902
 6063SOL    HW219010   4.298   1.927   5.267  0.0033 -0.7768 -0.0226
 6064SOL     OW19011   4.403   6.371   0.155  0.2280  0.2290  0.4782
 6064SOL    HW119012   4.468   6.362   0.080  0.6466 -2.1100  1.0281
 6064SOL    HW219013   4.444   6.425   0.229 -0.4611  3.1844 -1.1521
 6065SOL     OW19014   2.797   4.438   2.244 -0.1611  0.6074 -0.5569
 6065SOL    HW119015   2.866   4.494   2.290  0.1003 -0.1131 -0.0323
 6065SOL    HW219016   2.725   4.496   2.208  1.5371  1.5534 -2.6022
 6066SOL     OW19017   1.337   5.591   4.633  0.1811 -0.3577  0.2945
 6066SOL    HW119018   1.355   5.530   4.556  1.4586 -1.3983  1.3737
 6066SOL    HW219019   1.349   5.686   4.603 -2.8536 -0.4484 -1.6833
 6067SOL     OW19020   2.202   4.379   5.059  0.5425 -0.4525 -0.8663
 6067SOL    HW119021   2.106   4.381   5.031  0.5897 -2.6219 -1.3551
 6067SOL    HW219022   2.237   4.473   5.067 -2.0521  0.4642  0.9270
 6068SOL     OW19023   2.228   0.695   0.154  0.0484  0.7939 -0.2789
 6068SOL    HW119024   2.232   0.605   0.198  0.1510  0.6529 -0.5701
 6068SOL    HW219025   2.152   0.697   0.089  0.3540  0.7472 -0.6398
 6069SOL     OW19026   4.590   3.013   0.122 -0.3060  0.3099  0.1461
 6069SOL    HW119027   4.517   2.998   0.055 -1.3478 -0.0421  1.3221
 6069SOL    HW219028   4.635   2.926   0.143  0.1366  0.4471 -0.1981
 6070SOL     OW19029   5.715   0.866   4.242 -0.3161  0.3670 -0.3631
 6070SOL    HW119030   5.676   0.883   4.151  0.3102 -2.0666 -1.1856
 6070SOL    HW219031   5.793   0.804   4.233 -0.8986 -0.8181  1.9342
 6071SOL     OW19032   1.018   5.978   2.615 -0.0215  0.5357  0.2625
 6071SOL    HW119033   0.956   6.057   2.610 -1.1940 -0.2640  1.7123
 6071SOL    HW219034   0.975   5.899   2.572  1.6795  0.9282 -2.3852
 6072SOL     OW19035   3.298   1.829   1.691 -0.1196  0.4444  0.5094
 6072SOL    HW119036   3.240   1.779   1.626  0.9935 -1.3026  0.7905
 6072SOL    HW219037   3.332   1.912   1.647  2.5639 -1.8375 -2.2216
 6073SOL     OW19038   2.321   1.017   3.185 -0.5568  0.6300  0.2583
 6073SOL    HW119039   2.273   0.931   3.174 -0.7545  0.8694 -0.7752
 6073SOL    HW219040   2.262   1.083   3.232  0.3108 -0.3989  3.0554
 6074SOL     OW19041   5.267   5.669   0.229 -0.1766 -0.1429 -0.0041
 6074SOL    HW119042   5.171   5.666   0.203 -0.4699 -1.8463  1.1031
 6074SOL    HW219043   5.297   5.765   0.236 -2.2120  0.4672  1.1221
 6075SOL     OW19044   1.468   6.632   3.591 -0.3074  0.3113 -0.7261
 6075SOL    HW119045   1.562   6.599   3.587 -0.4462 -0.1323 -0.4143
 6075SOL    HW219046   1.449   6.691   3.512 -0.1710 -0.6756 -1.5170
 6076SOL     OW19047   3.338   0.842   0.383  0.0242 -0.1071 -0.3214
 6076SOL    HW119048   3.404   0.767   0.375  0.3512  0.1291  0.0996
 6076SOL    HW219049   3.255   0.819   0.332  0.4933 -0.3400 -0.9912
 6077SOL     OW19050   1.516   6.710   1.384 -0.0091  0.2238  0.0118
 6077SOL    HW119051   1.497   6.791   1.329 -1.8767 -1.6078 -2.2692
 6077SOL    HW219052   1.430   6.667   1.411  0.7558 -2.7122 -1.6661
 6078SOL     OW19053   3.604   1.621   6.305 -0.2490  0.9072  0.6283
 6078SOL    HW119054   3.670   1.645   6.234 -0.6307  1.1113  0.3454
 6078SOL    HW219055   3.514   1.656   6.281 -1.3197 -2.4176 -0.8038
 6079SOL     OW19056   5.372   2.540   0.046  0.1866  0.4882  0.0744
 6079SOL    HW119057   5.385   2.441   0.053  1.0604  0.6220  0.4473
 6079SOL    HW219058   5.454   2.582   0.007 -0.3806  1.0142 -0.5992
 6080SOL     OW19059   0.104   2.758   0.382 -0.5422 -0.3918  0.3640
 6080SOL    HW119060   0.197   2.795   0.373 -0.7955 -0.0324 -1.2070
 6080SOL    HW219061   0.108   2.659   0.395  0.0826 -0.6064 -1.1774
 6081SOL     OW19062   0.876   6.783   3.599  0.5880 -0.1159 -0.0460
 6081SOL    HW119063   0.942   6.851   3.568 -0.1464 -0.1731 -1.8535
 6081SOL    HW219064   0.808   6.826   3.658  0.7943  0.4602 -0.2244
 6082SOL     OW19065   6.281   2.985   0.132  0.2620  0.5566 -0.2250
 6082SOL    HW119066   6.319   3.077   0.138  0.8777  0.1968  2.0919
 6082SOL    HW219067   6.353   2.917   0.148 -0.7198 -0.2215  1.1526
 6083SOL     OW19068   5.750   0.868   4.699 -0.4421 -0.4243 -0.4070
 6083SOL    HW119069   5.659   0.890   4.664  0.6445 -0.4508 -3.5518
 6083SOL    HW219070   5.763   0.769   4.696 -0.1881 -0.3930 -0.3433
 6084SOL     OW19071   0.006   5.037   6.099  0.2805 -0.3393 -0.4934
 6084SOL    HW119072   0.014   5.136   6.082 -0.0830 -0.3058 -0.4624
 6084SOL    HW219073   0.064   4.988   6.035 -0.6048 -0.1814 -1.4369
 6085SOL     OW19074   0.176   5.176   4.839 -0.4267  0.2058 -0.1897
 6085SOL    HW119075   0.156   5.167   4.742 -1.1126  1.5540 -0.1975
 6085SOL    HW219076   0.275   5.182   4.853 -0.2893 -0.6223 -0.7226
 6086SOL     OW19077   3.984   3.064   1.257 -0.0552  0.3195  0.0862
 6086SOL    HW119078   3.942   3.106   1.176 -1.0248  0.0493  0.4296
 6086SOL    HW219079   3.987   2.965   1.245 -0.4603  0.2555  0.4953
 6087SOL     OW19080   2.731   0.205   2.983  0.4112  0.2093  0.3723
 6087SOL    HW119081   2.635   0.213   3.012  0.0863  1.2308 -0.9340
 6087SOL    HW219082   2.790   0.245   3.053 -0.3048  1.9072  0.0376
 6088SOL     OW19083   4.497   3.950   0.673  0.1882 -0.2977  0.1238
 6088SOL    HW119084   4.575   3.892   0.695  0.2144 -0.5993 -0.7313
 6088SOL    HW219085   4.466   3.997   0.756  0.1071 -1.5875  0.8438
 6089SOL     OW19086   6.692   1.118   0.826 -0.0757 -0.4159  0.2622
 6089SOL    HW119087   6.734   1.129   0.736  0.2102 -0.0073  0.4416
 6089SOL    HW219088   6.749   1.164   0.895  0.8762 -2.5428  0.9738
 6090SOL     OW19089   2.068   0.380   1.074 -0.1165  0.2611  0.3279
 6090SOL    HW119090   2.010   0.423   1.144  0.7912  0.8429  0.7347
 6090SOL    HW219091   2.152   0.432   1.063  0.5195 -0.7912  0.0235
 6091SOL     OW19092   1.640   2.164   5.765 -0.3875  0.5354 -0.2719
 6091SOL    HW119093   1.657   2.263   5.756  1.0759  0.3749  0.4121
 6091SOL    HW219094   1.663   2.135   5.858 -0.8306 -0.4514 -0.4615
 6092SOL     OW19095   6.092   5.216   4.018 -0.1128  0.1794 -0.1825
 6092SOL    HW119096   5.996   5.187   4.019 -0.1612  0.3380  0.2274
 6092SOL    HW219097   6.149   5.140   3.988 -0.4865  0.5013 -1.7669
 6093SOL     OW19098   0.995   4.924   4.759 -0.8100 -0.2366 -0.1857
 6093SOL    HW119099   1.071   4.975   4.799 -1.3825 -0.3475  1.0919
 6093SOL    HW219100   0.999   4.829   4.789 -1.9574 -0.0433  0.6659
 6094SOL     OW19101   3.495   4.025   0.753 -0.2831  0.4778 -0.2380
 6094SOL    HW119102   3.419   3.963   0.731  0.7779 -1.1729  0.5841
 6094SOL    HW219103   3.506   4.091   0.678 -0.0722 -1.6871 -2.2384
 6095SOL     OW19104   5.078   0.091   3.969  0.2821  0.1210 -0.5634
 6095SOL    HW119105   5.072   0.158   4.044 -1.7650 -1.1538  0.4873
 6095SOL    HW219106   5.061   0.138   3.882 -2.1028  0.8807  0.2329
 6096SOL     OW19107   3.723   5.278   6.603 -0.1296 -0.3943  0.3394
 6096SOL    HW119108   3.693   5.321   6.518  0.5863 -0.7137 -0.0818
 6096SOL    HW219109   3.648   5.279   6.668 -1.9512 -3.3303 -1.4965
 6097SOL     OW19110   2.990   1.913   0.554 -0.5253  0.0978 -0.4288
 6097SOL    HW119111   3.068   1.885   0.497 -1.1248 -0.6676 -0.8971
 6097SOL    HW219112   2.905   1.894   0.505 -1.0458 -0.3355  0.6158
 6098SOL     OW19113   4.485   0.691   6.215  0.3619  0.3263 -0.2216
 6098SOL    HW119114   4.574   0.718   6.179  1.8318 -0.8799  2.2415
 6098SOL    HW219115   4.489   0.597   6.248 -1.9942  0.0833 -0.4156
 6099SOL     OW19116   3.517   3.705   3.978 -0.2502  0.4631  0.1319
 6099SOL    HW119117   3.439   3.642   3.983  0.4777 -0.6043 -1.1712
 6099SOL    HW219118   3.483   3.799   3.980 -1.8429  0.0659 -2.5609
 6100SOL     OW19119   4.638   6.105   0.843 -0.0416 -0.3330 -0.0039
 6100SOL    HW119120   4.647   6.107   0.743 -1.2842  1.0128 -0.1110
 6100SOL    HW219121   4.544   6.084   0.868  0.5152 -1.9056  0.9340
 6101SOL     OW19122   3.102   5.813   0.429  0.0875 -0.4365 -0.1743
 6101SOL    HW119123   3.088   5.871   0.349 -0.0331  0.0718  0.2133
 6101SOL    HW219124   3.200   5.800   0.444  0.1104 -0.5222 -0.3958
 6102SOL     OW19125   0.821   5.777   6.058 -0.1536  1.2669  0.6011
 6102SOL    HW119126   0.851   5.869   6.082  2.3000  0.5416  0.6694
 6102SOL    HW219127   0.875   5.745   5.980 -0.2754 -0.4476  1.1878
 6103SOL     OW19128   1.857   6.218   1.551  0.1570 -0.2728 -0.1143
 6103SOL    HW119129   1.780   6.280   1.565 -0.6850 -1.7296  2.6848
 6103SOL    HW219130   1.941   6.270   1.542 -0.7791  1.3086 -0.0277
 6104SOL     OW19131   6.769   5.427   4.389 -0.1315  0.2821  0.2196
 6104SOL    HW119132   6.857   5.475   4.390 -0.2671  0.5416 -0.2991
 6104SOL    HW219133   6.697   5.488   4.422 -0.0435 -0.0872  1.1285
 6105SOL     OW19134   1.293   1.478   6.436  0.0569  0.1063 -0.4726
 6105SOL    HW119135   1.355   1.557   6.439 -1.0209  0.9474  0.5820
 6105SOL    HW219136   1.198   1.510   6.447 -0.2840 -1.4788  1.6933
 6106SOL     OW19137   5.649   4.869   3.080  0.0855  0.2991  0.0098
 6106SOL    HW119138   5.669   4.778   3.116  0.1068 -0.1145 -1.0171
 6106SOL    HW219139   5.560   4.869   3.035  0.7384  0.3712 -1.3270
 6107SOL     OW19140   6.059   0.271   5.556 -0.1673 -0.1594  0.8024
 6107SOL    HW119141   6.040   0.327   5.637 -0.1609  0.4360  0.4033
 6107SOL    HW219142   6.157   0.257   5.547 -0.2024 -0.6825  1.1926
 6108SOL     OW19143   3.460   0.184   2.815  0.4202 -0.0592  0.1883
 6108SOL    HW119144   3.516   0.141   2.744 -0.8685 -1.0055 -0.3094
 6108SOL    HW219145   3.466   0.283   2.807 -0.0767 -0.1323 -1.6046
 6109SOL     OW19146   5.493   4.127   3.373 -0.2011  0.6039  0.2720
 6109SOL    HW119147   5.583   4.159   3.342  0.0201 -0.7777 -0.6076
 6109SOL    HW219148   5.435   4.206   3.395  0.9570  1.5355  0.0975
 6110SOL     OW19149   0.610   6.494   0.763 -0.1706  0.2245 -0.0527
 6110SOL    HW119150   0.680   6.490   0.692 -1.7046  0.3296 -1.6048
 6110SOL    HW219151   0.581   6.401   0.786 -0.7994  0.2570 -0.7072
 6111SOL     OW19152   4.968   1.937   0.572  0.2384 -0.3700 -0.0175
 6111SOL    HW119153   5.057   1.958   0.531  0.0855  2.4582  0.8584
 6111SOL    HW219154   4.898   1.930   0.501  0.6645  0.3259 -0.5116
 6112SOL     OW19155   4.587   6.458   0.359  0.0975 -0.3000  0.2447
 6112SOL    HW119156   4.685   6.466   0.377  0.1159 -0.4296  0.2017
 6112SOL    HW219157   4.539   6.534   0.404  0.0924 -0.8542  1.1941
 6113SOL     OW19158   1.939   1.673   6.317  0.0734 -0.2454 -0.6133
 6113SOL    HW119159   1.841   1.670   6.341  0.6043 -0.7711  1.8153
 6113SOL    HW219160   1.965   1.586   6.276  0.1037 -1.3406  1.5887
 6114SOL     OW19161   5.379   2.295   1.175 -0.1438 -0.0198 -0.0582
 6114SOL    HW119162   5.390   2.197   1.194  1.6624  0.2122  0.2372
 6114SOL    HW219163   5.415   2.348   1.252 -0.9595  0.8885 -0.2904
 6115SOL     OW19164   5.736   4.606   1.176  0.1010  0.3911  0.2667
 6115SOL    HW119165   5.819   4.658   1.157  0.7517 -0.3484  0.9783
 6115SOL    HW219166   5.701   4.566   1.092  1.1738 -0.3027  0.1249
 6116SOL     OW19167   6.390   5.298   4.637  0.0447 -0.2877 -0.5613
 6116SOL    HW119168   6.375   5.392   4.669  2.7275  0.9029 -2.5038
 6116SOL    HW219169   6.403   5.238   4.716  0.4450  1.3795  0.6962
 6117SOL     OW19170   6.739   5.637   2.804  0.1131  0.1550  0.8463
 6117SOL    HW119171   6.760   5.557   2.860  0.2883  0.6558  1.5092
 6117SOL    HW219172   6.812   5.705   2.813 -0.6346  0.9148  1.2836
 6118SOL     OW19173   4.099   1.376   6.292 -0.2180 -0.8365  0.1725
 6118SOL    HW119174   4.004   1.349   6.307 -0.0451 -1.3991  0.2606
 6118SOL    HW219175   4.103   1.447   6.221 -0.6641 -1.0998 -0.1180
 6119SOL     OW19176   4.760   1.578   3.123  0.4728 -0.2619 -0.0053
 6119SOL    HW119177   4.853   1.613   3.115  0.3915 -0.3081 -1.5376
 6119SOL    HW219178   4.760   1.479   3.113  0.3380 -0.3531  0.8426
 6120SOL     OW19179   0.715   1.864   2.107 -0.3073 -0.3462  0.3503
 6120SOL    HW119180   0.721   1.904   2.016 -1.1905  0.9591  0.8371
 6120SOL    HW219181   0.676   1.772   2.100  2.1995 -1.4063 -0.8370
 6121SOL     OW19182   4.744   2.973   6.086  0.0334 -0.4504  0.1304
 6121SOL    HW119183   4.655   2.945   6.050 -0.6105  0.7316  0.7391
 6121SOL    HW219184   4.737   2.991   6.184  1.0156 -0.6022  0.2423
 6122SOL     OW19185   2.452   3.493   0.185 -0.0269  0.4716 -0.0415
 6122SOL    HW119186   2.477   3.396   0.183  1.1138  0.7423 -2.4270
 6122SOL    HW219187   2.507   3.543   0.118 -2.1563  2.4037 -0.4667
 6123SOL     OW19188   3.205   6.357   5.283  0.4517 -0.0507  0.3966
 6123SOL    HW119189   3.289   6.402   5.252  1.4500 -0.7890  1.9327
 6123SOL    HW219190   3.149   6.423   5.333  0.0970  0.4391 -0.6109
 6124SOL     OW19191   1.960   3.272   5.627  0.4287 -0.0416  0.3191
 6124SOL    HW119192   1.913   3.191   5.663  1.1268 -0.7950 -0.4504
 6124SOL    HW219193   2.016   3.247   5.549 -1.4898  1.6589 -1.7334
 6125SOL     OW19194   0.054   6.857   2.898  0.4330 -0.0021 -0.0581
 6125SOL    HW119195   0.057   6.953   2.870  1.0833  0.1987  0.6652
 6125SOL    HW219196  -0.004   6.806   2.835 -0.1809  0.9247 -0.2705
 6126SOL     OW19197   2.009   5.878   3.266  0.8055  0.1162 -0.1950
 6126SOL    HW119198   2.057   5.858   3.351  2.2084  4.0359  0.1127
 6126SOL    HW219199   2.066   5.851   3.189  1.6969  0.9125  0.1647
 6127SOL     OW19200   0.662   2.142   2.876  0.2935 -0.6607 -0.1300
 6127SOL    HW119201   0.684   2.190   2.791 -0.3996 -0.0147  0.0434
 6127SOL    HW219202   0.584   2.186   2.920  0.7714 -0.8678  0.9535
 6128SOL     OW19203   5.516   0.635   6.127 -0.2702  0.0817 -0.7608
 6128SOL    HW119204   5.424   0.597   6.118 -0.6958  0.0831  2.5297
 6128SOL    HW219205   5.584   0.563   6.112 -0.8378 -0.3110 -1.5124
 6129SOL     OW19206   3.335   1.464   4.029 -0.6876 -0.2609 -0.0658
 6129SOL    HW119207   3.382   1.551   4.045 -0.0827 -0.5112 -0.4556
 6129SOL    HW219208   3.402   1.390   4.027 -1.2258 -0.7724  0.4947
 6130SOL     OW19209   2.936   5.763   1.486 -0.2123 -0.8838 -0.3717
 6130SOL    HW119210   2.875   5.693   1.524 -1.1304 -0.3371 -0.8068
 6130SOL    HW219211   2.945   5.839   1.551  0.5256 -1.2449 -0.0378
 6131SOL     OW19212   0.158   2.196   6.551 -0.5219  0.0976 -0.2287
 6131SOL    HW119213   0.116   2.286   6.542  0.6334  0.6153 -0.7010
 6131SOL    HW219214   0.153   2.147   6.463  0.0663  0.2705 -0.3659
 6132SOL     OW19215   4.573   3.690   0.507  0.6104 -0.1522 -0.3915
 6132SOL    HW119216   4.528   3.604   0.533 -0.8050  0.8283  0.5082
 6132SOL    HW219217   4.589   3.690   0.408 -0.1001 -1.1298 -0.5249
 6133SOL     OW19218   4.933   4.133   0.703  0.1338  0.1237 -0.1260
 6133SOL    HW119219   4.906   4.063   0.770  0.3531  2.0361  2.0864
 6133SOL    HW219220   5.032   4.147   0.708  0.0474  0.8209 -0.3071
 6134SOL     OW19221   0.599   4.498   1.777  0.1812 -0.4728 -1.2167
 6134SOL    HW119222   0.626   4.537   1.865  0.2192  1.2576 -1.9570
 6134SOL    HW219223   0.547   4.414   1.793  1.6489 -1.1438  0.3789
 6135SOL     OW19224   2.984   4.774   0.988 -0.1135 -0.0509 -0.2895
 6135SOL    HW119225   2.962   4.866   1.022  1.6664  0.1702  0.3648
 6135SOL    HW219226   2.904   4.715   0.999 -0.7998  1.0139  0.7453
 6136SOL     OW19227   0.747   2.476   2.250  0.0204 -0.2390  0.0315
 6136SOL    HW119228   0.732   2.389   2.204 -0.3350  0.1432 -0.5978
 6136SOL    HW219229   0.844   2.498   2.252  0.0221 -0.1717 -0.7156
 6137SOL     OW19230   6.849   4.412   5.200  0.2698 -0.1111 -0.1394
 6137SOL    HW119231   6.908   4.467   5.141 -0.0950 -0.4331 -0.8126
 6137SOL    HW219232   6.757   4.408   5.162 -0.7321  1.8970  1.8107
 6138SOL     OW19233   3.706   0.815   2.161  0.4978  0.1248 -0.1238
 6138SOL    HW119234   3.748   0.905   2.158  0.3586  0.2050  0.2121
 6138SOL    HW219235   3.677   0.795   2.255  0.8404 -0.4129 -0.1265
 6139SOL     OW19236   3.658   3.809   0.599  0.7781  0.7364 -0.6680
 6139SOL    HW119237   3.656   3.865   0.682  1.6884  1.0726 -0.8651
 6139SOL    HW219238   3.589   3.736   0.606 -0.8215  2.1836 -0.6330
 6140SOL     OW19239   6.217   4.345   1.328 -0.2198  0.6192 -0.1658
 6140SOL    HW119240   6.242   4.421   1.389  0.8522 -0.0838  0.3059
 6140SOL    HW219241   6.123   4.318   1.345 -0.2260  1.0468  0.5319
 6141SOL     OW19242   6.438   6.952   6.299  0.2558  0.8256 -0.5144
 6141SOL    HW119243   6.456   6.930   6.203 -0.4701 -1.4438 -0.1772
 6141SOL    HW219244   6.514   7.007   6.335  0.2929  2.1458 -2.4927
 6142SOL     OW19245   2.008   5.310   2.538 -0.3132  0.3421 -0.4804
 6142SOL    HW119246   1.939   5.309   2.465 -0.6852 -1.9934 -0.1748
 6142SOL    HW219247   2.063   5.227   2.533  0.1226  0.4675  1.4702
 6143SOL     OW19248   4.723   0.580   6.577  0.0269  0.1893 -0.1993
 6143SOL    HW119249   4.778   0.528   6.642  1.0749  1.3109 -0.1385
 6143SOL    HW219250   4.681   0.518   6.511  0.5628 -0.7918  0.3667
 6144SOL     OW19251   5.816   4.926   3.872  0.0987  0.1615  0.6971
 6144SOL    HW119252   5.895   4.965   3.823  1.1797 -0.8829  1.5655
 6144SOL    HW219253   5.848   4.867   3.945 -1.5154  0.2015  1.4732
 6145SOL     OW19254   1.980   5.991   4.438  0.8071  0.6065  0.0374
 6145SOL    HW119255   1.968   6.029   4.529  0.7125  1.1950 -0.2146
 6145SOL    HW219256   2.011   6.063   4.376 -2.5539  1.1532 -1.2184
 6146SOL     OW19257   6.048   5.628   0.674 -0.7418 -0.3897 -0.0225
 6146SOL    HW119258   6.054   5.727   0.689 -0.0432 -0.1334 -1.8095
 6146SOL    HW219259   6.134   5.585   0.701 -0.0234 -0.1185 -1.7670
 6147SOL     OW19260   6.844   2.665   4.111  0.1173  0.7541  0.0770
 6147SOL    HW119261   6.779   2.589   4.111  0.5107  0.4140 -0.0044
 6147SOL    HW219262   6.926   2.639   4.061  1.2378  0.3866  1.9944
 6148SOL     OW19263   0.605   4.651   6.677 -0.7851  0.4143  0.2331
 6148SOL    HW119264   0.602   4.724   6.608 -2.8736  0.2135  0.0725
 6148SOL    HW219265   0.537   4.670   6.748 -3.1250 -2.5184 -1.0342
 6149SOL     OW19266   3.959   2.543   1.737  0.0594 -0.6736 -0.4154
 6149SOL    HW119267   3.962   2.592   1.650  0.9552 -0.4851 -0.2872
 6149SOL    HW219268   3.872   2.561   1.782 -0.1140 -0.1767 -0.9312
 6150SOL     OW19269   3.007   2.689   4.122  0.2266  1.0778  0.2018
 6150SOL    HW119270   2.963   2.778   4.110 -1.0150  0.6008  0.9581
 6150SOL    HW219271   3.042   2.682   4.215  1.0482  1.0773 -0.1045
 6151SOL     OW19272   2.285   1.338   6.449 -0.3708 -0.0755  0.0403
 6151SOL    HW119273   2.231   1.407   6.496  0.6141  0.3411  0.6030
 6151SOL    HW219274   2.261   1.337   6.352 -0.8120  0.6528  0.1318
 6152SOL     OW19275   2.145   0.796   5.870 -0.2013  0.5045  0.0941
 6152SOL    HW119276   2.221   0.806   5.935  1.0600  1.3865 -1.4318
 6152SOL    HW219277   2.179   0.751   5.787 -1.7576 -0.5431 -0.0009
 6153SOL     OW19278   1.850   6.367   6.016  0.5148 -0.3582  0.0644
 6153SOL    HW119279   1.751   6.351   6.014  0.2567  1.1652 -0.0386
 6153SOL    HW219280   1.878   6.392   6.108  0.7235 -0.2553 -0.0266
 6154SOL     OW19281   5.023   0.714   3.118  0.5050 -0.3973  0.1633
 6154SOL    HW119282   4.948   0.649   3.132  0.3118 -0.2395 -0.1221
 6154SOL    HW219283   5.080   0.718   3.200  0.6238 -1.0568  0.1152
 6155SOL     OW19284   1.457   2.393   6.483  0.2816  0.1588 -0.4030
 6155SOL    HW119285   1.481   2.307   6.527 -0.6127 -0.0429 -0.2765
 6155SOL    HW219286   1.530   2.460   6.497 -0.2436  0.3150  1.9874
 6156SOL     OW19287   5.523   1.698   5.524 -0.6146 -0.0651  0.0684
 6156SOL    HW119288   5.476   1.612   5.506 -0.9362  0.5788 -2.5717
 6156SOL    HW219289   5.458   1.764   5.561 -1.4094  0.2294 -1.7448
 6157SOL     OW19290   4.461   0.248   5.839 -0.0012  0.4678  0.7339
 6157SOL    HW119291   4.390   0.182   5.816  1.0855 -0.1342 -1.0351
 6157SOL    HW219292   4.460   0.265   5.938 -0.4885 -1.9885  1.2132
 6158SOL     OW19293   1.832   1.369   6.032 -0.4275 -0.2327  0.4003
 6158SOL    HW119294   1.817   1.277   5.996  2.0276 -0.6077  0.1822
 6158SOL    HW219295   1.746   1.420   6.027 -0.9600 -1.1383 -3.4300
 6159SOL     OW19296   4.742   2.806   0.210 -0.8279  0.8258  0.0235
 6159SOL    HW119297   4.732   2.709   0.191 -1.6873  1.0931 -0.9974
 6159SOL    HW219298   4.828   2.822   0.259 -0.3398 -0.3607 -0.4078
 6160SOL     OW19299   2.389   5.217   3.081 -0.1790  0.9540 -0.0036
 6160SOL    HW119300   2.460   5.181   3.140 -0.1393 -0.2033 -0.7202
 6160SOL    HW219301   2.353   5.302   3.119 -0.7022 -0.1533  2.0801
 6161SOL     OW19302   3.566   5.598   2.756 -0.1618 -0.2986 -0.2390
 6161SOL    HW119303   3.623   5.626   2.679 -2.5446  1.6224 -1.4421
 6161SOL    HW219304   3.471   5.625   2.739 -0.9455 -0.5972  3.0044
 6162SOL     OW19305   1.816   6.440   5.675  0.0396  0.3461 -0.0022
 6162SOL    HW119306   1.732   6.483   5.642 -0.9139  0.1750  2.0479
 6162SOL    HW219307   1.895   6.498   5.652 -0.9517  1.9560  0.5381
 6163SOL     OW19308   1.566   1.258   1.283 -0.3953  0.0913  0.2263
 6163SOL    HW119309   1.559   1.252   1.382 -0.0517  0.4977  0.2755
 6163SOL    HW219310   1.653   1.300   1.257  1.1028 -3.0455 -0.3266
 6164SOL     OW19311   2.132   4.369   2.199 -0.5469 -0.3277  0.3902
 6164SOL    HW119312   2.166   4.404   2.286 -2.1508  2.0523  0.1641
 6164SOL    HW219313   2.140   4.441   2.130 -3.1720 -0.6766 -0.3677
 6165SOL     OW19314   6.624   1.742   5.381  0.0783 -0.5551  0.2405
 6165SOL    HW119315   6.669   1.748   5.470  0.9526 -0.6864 -0.1816
 6165SOL    HW219316   6.618   1.646   5.353 -0.9407 -0.5845  0.5222
 6166SOL     OW19317   6.231   1.635   0.184  0.4895 -0.2553 -0.2572
 6166SOL    HW119318   6.289   1.598   0.256 -0.7265 -1.5996  0.0718
 6166SOL    HW219319   6.201   1.727   0.210 -0.7420 -1.1045  1.4590
 6167SOL     OW19320   5.117   6.338   6.900  0.2738 -0.1481 -0.3051
 6167SOL    HW119321   5.104   6.434   6.925  1.5352 -0.2434  0.8602
 6167SOL    HW219322   5.030   6.289   6.908 -0.0128  0.5164  0.8686
 6168SOL     OW19323   6.453   1.451   4.660 -0.3322 -0.4010 -0.1394
 6168SOL    HW119324   6.453   1.351   4.653  0.5005 -0.7047  2.8390
 6168SOL    HW219325   6.545   1.485   4.639  0.5115 -0.7436  2.5463
 6169SOL     OW19326   5.938   3.511   2.369  0.4410 -0.2963  0.0980
 6169SOL    HW119327   5.934   3.508   2.469  1.0873 -1.6474  0.1186
 6169SOL    HW219328   5.937   3.606   2.338 -0.9306  0.1179  1.3169
 6170SOL     OW19329   5.902   4.893   0.770 -0.3157 -0.3816 -0.0330
 6170SOL    HW119330   5.935   4.802   0.746 -0.5035 -0.2824 -0.6987
 6170SOL    HW219331   5.852   4.932   0.692 -3.5396 -1.2258  1.4096
 6171SOL     OW19332   5.488   3.121   5.266 -0.0590 -0.2176 -0.0819
 6171SOL    HW119333   5.512   3.060   5.191 -0.6956 -0.8311  0.2043
 6171SOL    HW219334   5.569   3.173   5.294  0.0158  0.6412 -1.7275
 6172SOL     OW19335   4.393   4.840   4.868 -1.0989 -0.3045 -0.1175
 6172SOL    HW119336   4.321   4.775   4.892 -0.2509 -1.0727  0.4190
 6172SOL    HW219337   4.438   4.809   4.784 -0.9729 -0.1879 -0.0928
 6173SOL     OW19338   5.166   6.571   3.181  0.3590 -0.8656 -0.3362
 6173SOL    HW119339   5.227   6.581   3.102  0.5097 -0.2501 -0.1516
 6173SOL    HW219340   5.208   6.509   3.248 -0.0085 -1.8035 -0.9609
 6174SOL     OW19341   1.580   4.235   0.868 -0.0885  0.4942 -0.1703
 6174SOL    HW119342   1.609   4.162   0.930 -0.7025 -0.5850 -1.1030
 6174SOL    HW219343   1.644   4.242   0.792  0.1677  1.1866  0.1070
 6175SOL     OW19344   0.839   1.131   3.108  0.2117  0.0397  0.0239
 6175SOL    HW119345   0.862   1.173   3.195 -0.4840 -0.1152  0.2894
 6175SOL    HW219346   0.762   1.179   3.067 -1.4012 -1.6821  0.9128
 6176SOL     OW19347   5.900   5.482   3.386 -0.4152 -0.2591  0.4844
 6176SOL    HW119348   5.868   5.542   3.313  0.2360 -1.0788 -0.5129
 6176SOL    HW219349   5.904   5.532   3.472  2.3605  1.8366 -0.7122
 6177SOL     OW19350   4.934   5.873   2.226 -0.3896 -0.0961  0.3667
 6177SOL    HW119351   4.918   5.928   2.144 -2.7007  1.0911  1.5067
 6177SOL    HW219352   4.904   5.779   2.209 -1.8639  0.3873  0.1228
 6178SOL     OW19353   6.348   2.561   2.135  0.0170  0.4323  0.1099
 6178SOL    HW119354   6.392   2.512   2.211 -0.3053  1.9673  1.3447
 6178SOL    HW219355   6.263   2.602   2.167  0.2177  1.6957 -0.8867
 6179SOL     OW19356   6.933   6.324   3.913  0.0120  0.5874 -0.0065
 6179SOL    HW119357   6.958   6.245   3.856  2.4366 -0.8331  2.7462
 6179SOL    HW219358   6.849   6.303   3.963  0.3734 -0.0814  0.3387
 6180SOL     OW19359   6.268   1.818   3.403  0.1724 -0.3264 -0.0934
 6180SOL    HW119360   6.281   1.741   3.341 -0.1241 -0.3885 -0.0777
 6180SOL    HW219361   6.255   1.902   3.350  2.7197  0.1169 -0.1379
 6181SOL     OW19362   3.446   6.858   1.505  0.0103 -0.1365 -0.5533
 6181SOL    HW119363   3.370   6.895   1.559  1.5976  0.0787  1.6816
 6181SOL    HW219364   3.468   6.766   1.539 -0.2849 -0.9029 -2.3224
 6182SOL     OW19365   6.464   3.576   3.008  0.4424  0.1637 -0.0571
 6182SOL    HW119366   6.496   3.600   2.916 -1.2811  1.1856 -0.4342
 6182SOL    HW219367   6.384   3.517   3.001  1.9063 -2.0944  0.8671
 6183SOL     OW19368   0.124   3.229   3.925 -0.1407 -0.0765 -0.5901
 6183SOL    HW119369   0.164   3.150   3.971 -1.3543 -0.4396 -0.1237
 6183SOL    HW219370   0.179   3.252   3.845 -0.3043 -2.0066 -1.3143
 6184SOL     OW19371   4.905   3.051   0.074 -0.0539  0.3257  0.4042
 6184SOL    HW119372   4.963   3.111   0.130 -0.1823  1.9783 -1.1277
 6184SOL    HW219373   4.812   3.088   0.072 -0.2363 -0.1538 -0.2675
 6185SOL     OW19374   0.289   2.725   2.351 -0.4690 -0.1671 -0.0981
 6185SOL    HW119375   0.202   2.676   2.364 -1.2796  0.7060 -1.8752
 6185SOL    HW219376   0.363   2.658   2.343 -0.8369 -0.9117  2.0409
 6186SOL     OW19377   6.293   0.529   6.117 -0.2917 -0.3306 -0.3598
 6186SOL    HW119378   6.330   0.436   6.124  0.8528  0.1459  0.1703
 6186SOL    HW219379   6.256   0.557   6.205  1.8913  0.7081  0.2941
 6187SOL     OW19380   5.772   6.012   0.147  0.0850  0.4557 -0.5315
 6187SOL    HW119381   5.868   6.036   0.130  0.3763 -0.9264 -0.9440
 6187SOL    HW219382   5.714   6.092   0.129  0.9566  0.7486 -2.2086
 6188SOL     OW19383   0.714   2.603   5.373  0.0178 -0.6235 -0.2415
 6188SOL    HW119384   0.621   2.639   5.360 -0.6016 -1.6745  0.9666
 6188SOL    HW219385   0.772   2.675   5.410 -1.3225 -0.8504  2.6032
 6189SOL     OW19386   6.845   5.541   2.318 -0.3931  0.2212  0.2994
 6189SOL    HW119387   6.788   5.569   2.395 -1.1856  1.7271 -0.7792
 6189SOL    HW219388   6.933   5.507   2.353 -0.2311  2.0209  1.8543
 6190SOL     OW19389   0.110   4.807   2.592 -0.4297  0.0213 -0.1689
 6190SOL    HW119390   0.193   4.804   2.537 -1.3190  0.4373 -1.5756
 6190SOL    HW219391   0.060   4.721   2.582 -0.4531 -0.0169  0.2415
 6191SOL     OW19392   0.248   0.660   5.597 -0.5596  0.0690  0.0015
 6191SOL    HW119393   0.188   0.584   5.620  0.1726 -0.4843  0.0789
 6191SOL    HW219394   0.207   0.712   5.522 -1.2153 -0.2047  0.1633
 6192SOL     OW19395   4.183   4.846   0.014  0.0453  0.1364  0.3285
 6192SOL    HW119396   4.108   4.842  -0.052  0.8441 -1.7069 -0.5588
 6192SOL    HW219397   4.147   4.833   0.107 -0.7900 -0.3236 -0.0512
 6193SOL     OW19398   1.529   0.914   1.655  0.3015 -0.1692  0.3426
 6193SOL    HW119399   1.501   0.928   1.560 -2.3853  0.7003  1.2003
 6193SOL    HW219400   1.620   0.872   1.656  1.6561  2.2788 -2.5682
 6194SOL     OW19401   0.949   5.483   2.455  0.3468  0.3108 -0.7471
 6194SOL    HW119402   0.910   5.422   2.386  0.0478  1.2366 -1.4091
 6194SOL    HW219403   0.958   5.433   2.542 -0.8560 -0.3790 -0.9951
 6195SOL     OW19404   6.171   2.773   1.803 -0.6662 -0.3948 -0.0187
 6195SOL    HW119405   6.079   2.739   1.787  0.4391 -2.1979 -3.7009
 6195SOL    HW219406   6.181   2.864   1.763 -0.7034 -0.4495 -0.1530
 6196SOL     OW19407   1.344   6.588   4.668 -0.4520 -0.6591  0.0428
 6196SOL    HW119408   1.393   6.551   4.746 -1.6099 -0.3205  0.9484
 6196SOL    HW219409   1.310   6.513   4.611  0.3799 -0.9048 -0.1375
 6197SOL     OW19410   6.758   6.272   1.006  0.1655 -0.0083 -0.1753
 6197SOL    HW119411   6.671   6.222   1.007 -0.0441  0.0608  3.8040
 6197SOL    HW219412   6.741   6.368   1.025  1.0868 -0.3129  2.6608
 6198SOL     OW19413   4.696   5.310   4.836  0.2469  0.2367 -0.1539
 6198SOL    HW119414   4.691   5.341   4.931 -0.4423 -2.6820  0.8845
 6198SOL    HW219415   4.619   5.346   4.785 -0.9137 -0.3059  1.1528
 6199SOL     OW19416   2.867   6.462   2.461  0.1855 -0.8675  0.0868
 6199SOL    HW119417   2.814   6.382   2.489 -0.7685  0.1047  1.1589
 6199SOL    HW219418   2.936   6.482   2.531 -0.9633  0.4589  0.8879
 6200SOL     OW19419   6.139   3.091   0.568 -0.5079 -0.4599 -0.3868
 6200SOL    HW119420   6.078   3.124   0.496 -0.1896 -0.2243 -0.5481
 6200SOL    HW219421   6.134   2.991   0.572 -0.8599 -0.4465 -0.4370
 6201SOL     OW19422   4.435   1.280   1.094  0.1163  0.1981 -0.2192
 6201SOL    HW119423   4.483   1.216   1.035 -0.3779 -1.1617  0.8150
 6201SOL    HW219424   4.476   1.279   1.185  0.1758  1.4544 -0.2129
 6202SOL     OW19425   0.056   3.774   4.179 -0.1516 -0.0177  0.1106
 6202SOL    HW119426   0.087   3.720   4.257 -1.2614 -0.4533  0.2774
 6202SOL    HW219427   0.019   3.712   4.109  0.8155  0.3660 -0.7649
 6203SOL     OW19428   3.600   1.045   5.272  0.1061  0.4612 -0.3669
 6203SOL    HW119429   3.690   1.089   5.266  0.4079  0.0504  0.9600
 6203SOL    HW219430   3.609   0.956   5.317 -1.1808  1.1216  1.3080
 6204SOL     OW19431   6.776   3.483   6.143  0.0018 -0.2305  0.6954
 6204SOL    HW119432   6.743   3.435   6.062 -0.5470  1.4086 -0.1028
 6204SOL    HW219433   6.873   3.461   6.157  0.3943  0.2293 -1.0272
 6205SOL     OW19434   6.432   2.358   0.575 -0.5566 -0.2983 -0.2527
 6205SOL    HW119435   6.431   2.260   0.559  0.1546 -0.3281 -0.1245
 6205SOL    HW219436   6.452   2.376   0.672 -0.5149 -0.0197 -0.3129
 6206SOL     OW19437   1.958   0.695   1.060  0.1934  0.4012 -0.1030
 6206SOL    HW119438   1.927   0.672   0.968 -0.3429  1.3293 -0.1621
 6206SOL    HW219439   1.917   0.631   1.126 -0.1912  0.3346 -0.4054
 6207SOL     OW19440   6.808   5.010   5.183 -0.2937 -0.1503 -0.0521
 6207SOL    HW119441   6.767   5.098   5.207  2.9924  1.0921  1.5740
 6207SOL    HW219442   6.852   5.017   5.094 -0.4291 -0.3043 -0.1314
 6208SOL     OW19443   0.515   5.798   1.776  0.6275  0.3049  0.2750
 6208SOL    HW119444   0.558   5.860   1.711 -0.6329  2.2235  1.1422
 6208SOL    HW219445   0.461   5.730   1.728 -0.9498  2.1790 -0.7684
 6209SOL     OW19446   0.335   3.198   1.636  0.2924 -0.1527 -0.3910
 6209SOL    HW119447   0.362   3.256   1.713 -1.0021 -0.8816  0.6438
 6209SOL    HW219448   0.268   3.245   1.580  2.1146  0.8704 -1.8408
 6210SOL     OW19449   6.998   1.457   5.015  0.3499  0.3254  0.0004
 6210SOL    HW119450   6.903   1.484   4.999  1.0504  1.4726 -2.8061
 6210SOL    HW219451   7.035   1.509   5.092 -0.8097  1.0693  0.0830
 6211SOL     OW19452   3.206   0.897   2.864  0.1370 -1.2077 -0.1179
 6211SOL    HW119453   3.201   0.893   2.764  1.5029 -1.4060 -0.1912
 6211SOL    HW219454   3.200   0.992   2.894  2.1676 -0.9060 -0.5567
 6212SOL     OW19455   6.332   2.718   3.360  0.0184 -0.3881 -0.7742
 6212SOL    HW119456   6.270   2.653   3.404 -0.7433  0.8906  0.0857
 6212SOL    HW219457   6.287   2.757   3.279  0.1967 -0.3743 -0.8670
 6213SOL     OW19458   3.653   0.680   0.628 -0.7469 -0.1398  0.0424
 6213SOL    HW119459   3.670   0.673   0.726 -2.0089  0.1928  0.3011
 6213SOL    HW219460   3.589   0.756   0.610 -1.2840 -0.7989 -0.9392
 6214SOL     OW19461   2.065   6.573   6.581  0.4297 -0.1606 -0.2167
 6214SOL    HW119462   1.983   6.534   6.539 -0.4918  1.4117  0.0639
 6214SOL    HW219463   2.097   6.650   6.527 -1.6325  2.8646  2.5065
 6215SOL     OW19464   6.343   4.841   1.637 -0.1302  0.4270  0.1823
 6215SOL    HW119465   6.436   4.865   1.666  0.3560 -0.2454 -0.7899
 6215SOL    HW219466   6.302   4.778   1.704  0.8753 -0.8787 -0.3949
 6216SOL     OW19467   4.181   0.473   5.799 -0.2232 -0.3702 -0.0324
 6216SOL    HW119468   4.235   0.510   5.875 -1.0344 -0.3247  0.5337
 6216SOL    HW219469   4.207   0.378   5.783  1.8177  0.3604 -1.4416
 6217SOL     OW19470   6.613   1.286   1.709  0.1219 -0.4221 -0.8629
 6217SOL    HW119471   6.705   1.252   1.690  0.6978  0.4627  0.2213
 6217SOL    HW219472   6.559   1.214   1.752  1.1278 -0.2101  0.8372
 6218SOL     OW19473   1.104   2.032   0.417 -0.6310  0.9482 -0.2508
 6218SOL    HW119474   1.076   2.124   0.392 -0.4971  1.3089  0.8689
 6218SOL    HW219475   1.023   1.978   0.441 -0.6155  1.1039  0.1507
 6219SOL     OW19476   6.378   4.195   0.029 -0.4875 -0.5011 -0.3594
 6219SOL    HW119477   6.451   4.203   0.097  0.3564 -0.4042 -1.2541
 6219SOL    HW219478   6.301   4.254   0.056  0.3166  0.4502 -0.0967
 6220SOL     OW19479   1.833   1.424   1.898 -0.2596 -0.1706  0.0313
 6220SOL    HW119480   1.894   1.347   1.881 -0.7494 -0.7096  0.6623
 6220SOL    HW219481   1.798   1.419   1.992 -1.6592 -0.1557 -0.4648
 6221SOL     OW19482   5.409   2.948   0.184 -0.2500  0.4674  0.4643
 6221SOL    HW119483   5.464   3.026   0.213  2.3492 -1.2863  0.6523
 6221SOL    HW219484   5.435   2.867   0.237 -1.6943 -0.8959 -0.7872
 6222SOL     OW19485   0.895   4.334   6.138 -0.1993  0.4247 -0.3607
 6222SOL    HW119486   0.964   4.265   6.118 -0.3557  0.3908 -0.8090
 6222SOL    HW219487   0.831   4.339   6.061  0.0792  1.3941 -0.5333
 6223SOL     OW19488   2.340   5.461   0.819  0.3908  0.1877 -0.1522
 6223SOL    HW119489   2.421   5.428   0.770 -0.5974  0.0006 -1.7199
 6223SOL    HW219490   2.267   5.394   0.811 -0.3422  0.9350  0.1292
 6224SOL     OW19491   0.333   3.738   4.041  0.3665  0.2681 -0.1963
 6224SOL    HW119492   0.261   3.723   4.108  0.4186 -1.7721 -0.5244
 6224SOL    HW219493   0.294   3.733   3.949  0.9679 -1.5247 -0.3944
 6225SOL     OW19494   0.251   5.977   4.082 -0.5974 -0.7909  0.3092
 6225SOL    HW119495   0.241   6.077   4.078  1.0699 -0.6164 -0.7618
 6225SOL    HW219496   0.237   5.939   3.990  1.8518 -1.1478  0.0219
 6226SOL     OW19497   6.005   4.880   5.307 -0.3386 -0.0011  0.6560
 6226SOL    HW119498   6.045   4.861   5.217  1.1291  1.4713  0.9450
 6226SOL    HW219499   5.907   4.863   5.304 -0.2739 -0.2929 -1.1374
 6227SOL     OW19500   6.994   1.021   1.381  0.1778 -0.1039 -0.2388
 6227SOL    HW119501   6.925   0.951   1.395  0.5987 -0.2538  1.3214
 6227SOL    HW219502   7.082   0.978   1.360 -0.2977  0.1036 -3.0233
 6228SOL     OW19503   4.903   2.780   3.780 -0.0259  0.0979 -0.0476
 6228SOL    HW119504   4.826   2.845   3.779 -0.0368  0.0794 -0.4599
 6228SOL    HW219505   4.886   2.709   3.848  0.0793  0.6411  0.5559
 6229SOL     OW19506   4.578   0.243   5.195  0.3836 -0.2583  0.1264
 6229SOL    HW119507   4.620   0.188   5.267  0.9360  0.4840  0.3798
 6229SOL    HW219508   4.571   0.338   5.226  0.5057  0.0406 -0.7524
 6230SOL     OW19509   4.050   3.637   2.228 -0.3456 -0.1720  0.2095
 6230SOL    HW119510   4.114   3.700   2.184  0.4235 -0.6258  0.6659
 6230SOL    HW219511   4.043   3.553   2.173  1.0004 -0.9498  1.1635
 6231SOL     OW19512   1.655   0.370   1.154 -1.0330 -0.3727  0.0923
 6231SOL    HW119513   1.597   0.316   1.215 -1.6415 -0.7715 -0.8261
 6231SOL    HW219514   1.599   0.434   1.102 -0.7637 -1.2310 -1.3061
 6232SOL     OW19515   1.168   5.642   1.626  0.1945  0.1371  0.4648
 6232SOL    HW119516   1.113   5.585   1.688 -2.8435  1.1999 -1.0247
 6232SOL    HW219517   1.237   5.585   1.582 -0.0924 -1.4774  1.9656
 6233SOL     OW19518   4.606   4.279   2.674 -0.1593 -0.1853  0.7171
 6233SOL    HW119519   4.621   4.191   2.628  0.5229  0.4275 -0.2719
 6233SOL    HW219520   4.519   4.277   2.723 -0.3273 -1.2750  0.3959
 6234SOL     OW19521   3.017   2.872   6.006 -0.3748  0.1087  0.1071
 6234SOL    HW119522   2.970   2.801   6.059 -1.1607  0.0587 -0.6419
 6234SOL    HW219523   3.061   2.936   6.069  0.7983 -1.3148  0.7980
 6235SOL     OW19524   0.509   0.747   1.773  0.2206 -0.0477  0.1135
 6235SOL    HW119525   0.538   0.661   1.814  0.8356  0.1833  0.1674
 6235SOL    HW219526   0.410   0.745   1.759  0.2719 -0.8881 -0.1879
 6236SOL     OW19527   6.653   5.828   4.217  0.2372 -0.8104  0.2593
 6236SOL    HW119528   6.571   5.794   4.263  1.3993 -2.2085  1.3905
 6236SOL    HW219529   6.644   5.815   4.118 -1.2457 -0.1199  0.2884
 6237SOL     OW19530   3.773   1.332   1.100  0.1666  0.0712 -0.4532
 6237SOL    HW119531   3.731   1.405   1.154  0.8592  0.7490 -0.8155
 6237SOL    HW219532   3.709   1.256   1.092 -1.6706  1.6923 -2.3309
 6238SOL     OW19533   5.329   1.833   5.689  0.3893  0.2762  0.0970
 6238SOL    HW119534   5.369   1.788   5.769 -0.9063 -1.4125 -0.1382
 6238SOL    HW219535   5.272   1.910   5.720 -0.0443 -0.3152  0.7960
 6239SOL     OW19536   2.859   5.895   0.240 -0.0685  0.1031  0.6967
 6239SOL    HW119537   2.934   5.961   0.232  0.9834 -1.0771  0.4827
 6239SOL    HW219538   2.806   5.914   0.322  0.7352  0.7046  1.0852
 6240SOL     OW19539   3.596   6.225   4.371 -1.3493 -0.0535  0.1093
 6240SOL    HW119540   3.589   6.292   4.297 -0.1216  0.3593  0.3411
 6240SOL    HW219541   3.692   6.200   4.384 -1.5741 -0.2834  1.4272
 6241SOL     OW19542   6.582   2.649   1.969  0.4359  0.0792  0.0443
 6241SOL    HW119543   6.657   2.697   1.923 -0.1067  0.0839 -0.8745
 6241SOL    HW219544   6.509   2.714   1.991 -0.5306 -0.3588 -1.6852
 6242SOL     OW19545   4.508   6.744   4.072  0.1843  0.1519  0.0411
 6242SOL    HW119546   4.430   6.806   4.060 -0.0946 -0.3193 -0.6011
 6242SOL    HW219547   4.476   6.657   4.108  0.1998 -0.5723 -1.6363
 6243SOL     OW19548   1.226   0.807   4.503 -0.0148  0.3807  0.1947
 6243SOL    HW119549   1.222   0.896   4.547 -1.8048  0.4592 -0.0451
 6243SOL    HW219550   1.141   0.758   4.519  1.3124 -1.7503  1.1924
 6244SOL     OW19551   4.661   1.500   2.022  0.2471 -0.0734  0.2672
 6244SOL    HW119552   4.611   1.560   1.959  3.2226  2.2820 -0.0674
 6244SOL    HW219553   4.713   1.433   1.969 -0.1142 -0.5042  0.4498
 6245SOL     OW19554   6.989   6.773   0.146  0.2799  0.2330 -0.3326
 6245SOL    HW119555   6.993   6.698   0.080 -0.4739 -0.4654  0.4004
 6245SOL    HW219556   6.902   6.771   0.194 -0.0869  2.0437 -0.8205
 6246SOL     OW19557   6.271   5.486   0.722 -0.2741  0.2471  0.3859
 6246SOL    HW119558   6.307   5.437   0.801  0.6701  1.1239  0.5248
 6246SOL    HW219559   6.317   5.453   0.639  0.6804  1.1566  0.5287
 6247SOL     OW19560   1.903   0.230   3.382 -0.1560 -0.2567  0.4860
 6247SOL    HW119561   1.862   0.203   3.295 -0.3516 -1.8490  1.0329
 6247SOL    HW219562   1.990   0.276   3.365 -0.8479  0.7058 -0.5853
 6248SOL     OW19563   0.780   6.497   5.747  0.1505  0.5180 -0.1520
 6248SOL    HW119564   0.753   6.519   5.653  0.6317 -0.7438 -0.6113
 6248SOL    HW219565   0.738   6.411   5.775 -1.0871  1.5384  1.3206
 6249SOL     OW19566   1.147   1.280   5.964 -0.1084  0.3314  0.1914
 6249SOL    HW119567   1.166   1.329   6.049 -1.0134  1.9273 -0.4623
 6249SOL    HW219568   1.220   1.299   5.898  0.0022  0.0586  0.2375
 6250SOL     OW19569   0.488   2.697   1.407  0.0186  0.2599 -0.0273
 6250SOL    HW119570   0.573   2.746   1.428 -0.8524  1.2605  1.3594
 6250SOL    HW219571   0.465   2.635   1.482  0.0562 -0.7992 -0.8736
 6251SOL     OW19572   2.964   0.152   4.412 -0.6324  0.2094  0.0898
 6251SOL    HW119573   2.872   0.190   4.407 -0.2828  1.7389  2.8381
 6251SOL    HW219574   3.024   0.201   4.348 -1.5361 -0.2935 -1.1724
 6252SOL     OW19575   5.266   5.658   4.054 -0.0235  0.0954  0.5760
 6252SOL    HW119576   5.252   5.567   4.014  0.4523  0.0959  0.4112
 6252SOL    HW219577   5.315   5.716   3.990  3.1696 -0.7122  2.1140
 6253SOL     OW19578   0.752   3.916   2.249 -0.8864  0.8052  0.0869
 6253SOL    HW119579   0.672   3.856   2.255 -1.4504  1.4423 -0.8303
 6253SOL    HW219580   0.799   3.917   2.337 -2.1451  0.7597  0.7886
 6254SOL     OW19581   4.048   6.803   0.028  0.3586 -0.3486  0.0560
 6254SOL    HW119582   4.116   6.876   0.030 -0.0375  0.0146  0.3394
 6254SOL    HW219583   3.960   6.839  -0.004 -0.6871  0.0540  3.0513
 6255SOL     OW19584   2.030   4.486   4.282  0.4996  0.1965 -0.5089
 6255SOL    HW119585   2.103   4.534   4.233 -0.5004  0.0244 -2.2636
 6255SOL    HW219586   2.047   4.387   4.280  0.7218  0.2222 -0.0349
 6256SOL     OW19587   6.222   4.685   6.630 -0.2131 -0.3984  0.0473
 6256SOL    HW119588   6.167   4.744   6.570 -1.7396 -2.2990 -0.5115
 6256SOL    HW219589   6.302   4.736   6.662 -2.1347  2.4700  0.7350
 6257SOL     OW19590   1.101   6.928   4.825  0.1319  0.0587  0.3557
 6257SOL    HW119591   1.091   6.839   4.779 -0.9880  0.7943 -0.8945
 6257SOL    HW219592   1.086   6.916   4.923 -0.5654 -1.0504  0.1393
 6258SOL     OW19593   1.903   2.900   2.512  0.1087 -0.6325  0.2430
 6258SOL    HW119594   1.853   2.816   2.494 -0.0461 -0.6893  0.9015
 6258SOL    HW219595   1.869   2.942   2.596  0.8593 -0.4383  0.4623
 6259SOL     OW19596   5.987   3.071   2.605 -0.9811 -0.5031  0.0943
 6259SOL    HW119597   5.908   3.131   2.619  0.6806  2.0026 -0.5027
 6259SOL    HW219598   5.980   3.027   2.516 -1.2848  0.4342 -0.3615
 6260SOL     OW19599   3.495   6.128   3.670 -0.3725 -0.0967 -0.3019
 6260SOL    HW119600   3.410   6.170   3.701  0.4485  1.5566 -0.2130
 6260SOL    HW219601   3.563   6.132   3.744  0.7018  1.3171 -1.3168
 6261SOL     OW19602   2.678   4.040   1.438 -0.0317  0.2140  0.3894
 6261SOL    HW119603   2.696   4.033   1.536 -0.5748  0.2329  0.4962
 6261SOL    HW219604   2.620   4.120   1.421  1.0909  0.9485 -0.0961
 6262SOL     OW19605   1.548   4.595   1.449  0.4909  0.7518 -0.3281
 6262SOL    HW119606   1.455   4.621   1.423  0.1609  1.1584  1.1247
 6262SOL    HW219607   1.599   4.676   1.477  1.6158  0.6598 -1.9919
 6263SOL     OW19608   3.898   5.766   2.732  0.4061  0.0236 -0.1022
 6263SOL    HW119609   3.987   5.722   2.746  1.7035  2.1042 -1.2382
 6263SOL    HW219610   3.872   5.815   2.815  0.7205  0.0275 -0.0033
 6264SOL     OW19611   5.768   1.808   3.464 -0.0653 -0.2297  0.3817
 6264SOL    HW119612   5.766   1.893   3.412 -0.3734 -0.3822  0.1430
 6264SOL    HW219613   5.747   1.826   3.560 -0.7997 -0.1291  0.2072
 6265SOL     OW19614   3.654   5.786   0.295  0.2330  0.0496 -0.0171
 6265SOL    HW119615   3.575   5.737   0.331  0.7762 -0.3432  0.6749
 6265SOL    HW219616   3.656   5.878   0.334 -0.2929  0.3169 -0.6181
 6266SOL     OW19617   2.717   6.375   0.960 -0.2523  0.2472 -0.3512
 6266SOL    HW119618   2.715   6.311   1.036  2.4725  0.1232 -0.2636
 6266SOL    HW219619   2.753   6.463   0.991 -1.3407  0.9487 -1.0282
 6267SOL     OW19620   0.842   0.582   4.164 -0.0738  0.0364 -0.2898
 6267SOL    HW119621   0.878   0.503   4.214  0.6695  1.0473  0.8422
 6267SOL    HW219622   0.788   0.551   4.086  1.7552 -1.5842 -0.9891
 6268SOL     OW19623   1.444   2.209   3.183 -0.2144  0.2777  0.2329
 6268SOL    HW119624   1.363   2.267   3.196  0.5971  0.9528  2.8872
 6268SOL    HW219625   1.502   2.249   3.112 -1.1910  0.9555 -0.2025
 6269SOL     OW19626   4.513   3.451   0.651 -0.5221 -0.1468  0.0535
 6269SOL    HW119627   4.470   3.364   0.626  1.4556 -0.5305 -2.4134
 6269SOL    HW219628   4.594   3.432   0.707 -0.4718  0.1634  0.0837
 6270SOL     OW19629   4.602   1.125   4.469 -0.2323 -0.2652 -0.3785
 6270SOL    HW119630   4.586   1.184   4.548 -1.2418 -1.2575  0.1980
 6270SOL    HW219631   4.515   1.083   4.441  0.2889 -0.7198 -1.3780
 6271SOL     OW19632   2.881   4.956   5.758 -0.3183  0.5289  0.4401
 6271SOL    HW119633   2.831   4.935   5.842 -0.5487 -1.2135 -0.1088
 6271SOL    HW219634   2.830   4.923   5.679  2.6295 -3.6001 -0.0520
 6272SOL     OW19635   4.640   1.866   2.704 -0.4676 -0.0003  0.2473
 6272SOL    HW119636   4.599   1.796   2.646  2.1443 -1.0395 -0.5035
 6272SOL    HW219637   4.657   1.828   2.795 -0.3083  0.1155  0.2648
 6273SOL     OW19638   1.842   2.007   1.558 -0.0077  0.8239  0.3233
 6273SOL    HW119639   1.936   1.991   1.589  1.0011  1.2885 -2.2269
 6273SOL    HW219640   1.781   2.007   1.637  2.1430  0.7301  2.1076
 6274SOL     OW19641   2.340   2.755   1.539  0.2201  0.2717  0.2785
 6274SOL    HW119642   2.430   2.797   1.530 -0.1601  0.7422 -1.9371
 6274SOL    HW219643   2.349   2.658   1.560  1.2787  0.1613 -0.6251
 6275SOL     OW19644   5.704   3.840   3.845 -0.7101 -0.4954 -0.5165
 6275SOL    HW119645   5.633   3.769   3.851 -0.7439 -0.4911 -0.8901
 6275SOL    HW219646   5.718   3.865   3.750 -0.1998 -0.5018 -0.4436
 6276SOL     OW19647   6.671   5.804   1.460  0.3196 -0.0388  0.0929
 6276SOL    HW119648   6.723   5.747   1.397  1.3020  0.7160  0.2063
 6276SOL    HW219649   6.591   5.842   1.413  0.8736  0.2681 -0.6077
 6277SOL     OW19650   2.630   6.758   5.098 -0.2278  0.3144 -0.4868
 6277SOL    HW119651   2.554   6.784   5.156 -0.2664  1.5783 -1.0636
 6277SOL    HW219652   2.658   6.664   5.118 -1.8638 -0.1329 -0.2012
 6278SOL     OW19653   4.610   4.291   6.976 -0.3058 -0.2861  0.2496
 6278SOL    HW119654   4.601   4.344   7.060 -1.2497  0.5501 -0.3528
 6278SOL    HW219655   4.570   4.342   6.900  1.9499 -0.2731 -1.0368
 6279SOL     OW19656   5.501   6.928   4.181  0.0299 -0.1703  0.3689
 6279SOL    HW119657   5.577   6.963   4.236  1.6497 -0.6620 -1.4266
 6279SOL    HW219658   5.473   6.838   4.216 -0.4165  0.4514  1.6457
 6280SOL     OW19659   0.817   4.848   5.611  0.0420 -0.2127  0.2148
 6280SOL    HW119660   0.856   4.939   5.628 -0.9375 -0.1091  2.1605
 6280SOL    HW219661   0.728   4.841   5.657 -0.3821 -1.8263 -0.7644
 6281SOL     OW19662   4.233   5.287   1.666 -0.2900  0.1301 -0.4779
 6281SOL    HW119663   4.291   5.221   1.714  0.0538  1.4688  1.0180
 6281SOL    HW219664   4.180   5.340   1.732 -1.8027  0.2616 -1.7257
 6282SOL     OW19665   4.480   2.779   3.028 -0.0345 -0.4472  0.0897
 6282SOL    HW119666   4.553   2.792   3.095 -0.2582 -1.2829  0.5184
 6282SOL    HW219667   4.393   2.765   3.077 -0.1896 -1.1444 -0.3634
 6283SOL     OW19668   3.867   6.632   6.317 -1.0163  0.0973 -0.2751
 6283SOL    HW119669   3.904   6.604   6.405 -1.0722  0.3686 -0.1653
 6283SOL    HW219670   3.942   6.644   6.252 -0.9879 -0.2743 -0.3168
 6284SOL     OW19671   0.220   3.191   0.815 -0.4779 -0.3962 -0.1302
 6284SOL    HW119672   0.317   3.173   0.800 -0.3231  0.8504 -0.6896
 6284SOL    HW219673   0.171   3.181   0.729 -1.0158 -1.8559  0.3029
 6285SOL     OW19674   1.734   5.652   2.654 -0.4479 -0.5123 -0.0474
 6285SOL    HW119675   1.682   5.589   2.713 -2.7961  2.3720  1.2764
 6285SOL    HW219676   1.675   5.683   2.579  0.0027  1.2513  0.2694
 6286SOL     OW19677   4.483   2.732   1.187  0.1610 -0.1938  0.0352
 6286SOL    HW119678   4.568   2.709   1.234  0.2819  2.0102  1.0518
 6286SOL    HW219679   4.431   2.649   1.168  1.6355 -1.4183  1.1371
 6287SOL     OW19680   0.677   0.930   6.414  0.2099  0.3761 -0.5459
 6287SOL    HW119681   0.763   0.979   6.399 -1.2380  3.0490 -0.7139
 6287SOL    HW219682   0.646   0.946   6.507 -0.4516  0.0299 -0.7055
 6288SOL     OW19683   2.636   6.654   5.990  0.1771  0.9026 -0.0135
 6288SOL    HW119684   2.551   6.690   5.953  0.2130  1.8286  0.7822
 6288SOL    HW219685   2.659   6.568   5.943 -1.3952  0.4223  0.0500
 6289SOL     OW19686   3.074   0.686   3.445  0.0655 -0.2517 -0.1228
 6289SOL    HW119687   3.126   0.649   3.369  0.1795 -1.0452  0.3347
 6289SOL    HW219688   3.088   0.785   3.450  2.4625 -0.5639  0.6860
 6290SOL     OW19689   2.211   1.364   2.293 -0.8928 -0.4984 -0.2343
 6290SOL    HW119690   2.254   1.290   2.345  0.1332  0.1249 -0.1586
 6290SOL    HW219691   2.161   1.424   2.355 -0.1321 -0.0685 -0.0181
 6291SOL     OW19692   0.191   2.099   1.093 -0.2880 -0.5074  0.4201
 6291SOL    HW119693   0.140   2.165   1.038  0.5956 -0.4469 -0.3445
 6291SOL    HW219694   0.157   2.100   1.187 -0.4766  0.8272  0.3472
 6292SOL     OW19695   4.481   6.675   0.478 -0.3217  0.1527  0.0506
 6292SOL    HW119696   4.537   6.756   0.463  1.2915 -0.7066  1.0974
 6292SOL    HW219697   4.479   6.654   0.576 -2.6101  0.2108  0.0604
 6293SOL     OW19698   4.397   5.863   1.366  0.2583  0.4162  0.0488
 6293SOL    HW119699   4.410   5.781   1.422 -1.1961 -0.6257 -1.0506
 6293SOL    HW219700   4.326   5.920   1.407 -0.1980  0.0754 -0.2476
 6294SOL     OW19701   2.608   0.560   1.635 -0.1465  0.1786 -0.5653
 6294SOL    HW119702   2.655   0.645   1.659 -1.3963  0.3978  1.3131
 6294SOL    HW219703   2.625   0.492   1.706  1.6724 -1.5580 -2.5262
 6295SOL     OW19704   0.238   1.032   6.044  0.1089 -0.0007 -0.5566
 6295SOL    HW119705   0.171   1.068   6.109  0.9536 -0.3071  0.5072
 6295SOL    HW219706   0.215   1.064   5.952 -0.0816  1.9421  0.1198
 6296SOL     OW19707   3.971   0.789   2.634  0.1080 -0.4007  0.1507
 6296SOL    HW119708   4.070   0.775   2.630 -0.0314 -1.2234 -0.7932
 6296SOL    HW219709   3.940   0.784   2.729  0.8816 -0.7986  0.3863
 6297SOL     OW19710   6.230   4.783   2.724 -0.0321  0.2918  0.0084
 6297SOL    HW119711   6.211   4.811   2.818  0.6961  1.6210 -0.2085
 6297SOL    HW219712   6.169   4.832   2.662  0.9623  1.1336 -0.3489
 6298SOL     OW19713   4.195   5.462   1.929  0.6333 -0.3893 -0.8321
 6298SOL    HW119714   4.144   5.443   2.013  1.7332  1.3781  0.2967
 6298SOL    HW219715   4.280   5.410   1.929 -0.3130 -2.0425 -1.9272
 6299SOL     OW19716   3.523   1.597   0.723  0.1716 -0.1251  0.6636
 6299SOL    HW119717   3.477   1.671   0.674  0.2992 -0.6343 -0.2351
 6299SOL    HW219718   3.547   1.628   0.815 -1.0301  0.4918  0.7930
 6300SOL     OW19719   5.651   2.922   6.392 -0.3260 -0.4368  0.0411
 6300SOL    HW119720   5.659   3.002   6.451  0.1941  0.1151 -0.7561
 6300SOL    HW219721   5.628   2.952   6.299 -1.0839 -1.2868 -0.0581
 6301SOL     OW19722   4.263   5.025   5.806 -0.0858 -0.1479  0.0235
 6301SOL    HW119723   4.220   4.937   5.789 -0.8266  0.3292 -0.6586
 6301SOL    HW219724   4.309   5.024   5.895 -1.1877 -0.7996  0.5936
 6302SOL     OW19725   2.102   4.402   0.849 -0.2126 -0.2377 -0.0377
 6302SOL    HW119726   2.044   4.416   0.930 -0.0767 -0.0297  0.0252
 6302SOL    HW219727   2.098   4.306   0.822 -2.6461  0.2293 -1.6139
 6303SOL     OW19728   0.541   0.085   6.690 -0.0060 -0.1797 -0.1521
 6303SOL    HW119729   0.469   0.034   6.737  1.1193 -1.7477 -0.0439
 6303SOL    HW219730   0.629   0.041   6.707  0.9933  1.6767 -0.2922
 6304SOL     OW19731   0.818   3.511   5.827  0.4171 -0.5636  0.3806
 6304SOL    HW119732   0.822   3.470   5.736 -1.0331  1.4146 -0.6495
 6304SOL    HW219733   0.856   3.603   5.824 -4.2525  1.6805  0.3423
 6305SOL     OW19734   0.010   1.896   3.876 -0.2912  0.2489  0.1632
 6305SOL    HW119735  -0.040   1.913   3.960 -1.0975  0.3669 -0.3315
 6305SOL    HW219736   0.108   1.907   3.893 -0.2983 -1.2999  1.4597
 6306SOL     OW19737   3.494   4.944   2.076  0.2085  0.7302  0.5891
 6306SOL    HW119738   3.401   4.910   2.060 -0.1111  0.8755  2.0048
 6306SOL    HW219739   3.508   4.956   2.174  2.3434 -1.0335  0.5829
 6307SOL     OW19740   0.761   0.536   5.397 -0.1266 -0.9169  0.3906
 6307SOL    HW119741   0.840   0.479   5.415  0.1638 -0.4183  0.7456
 6307SOL    HW219742   0.770   0.623   5.447 -0.0925 -0.1498 -0.8926
 6308SOL     OW19743   2.633   2.885   5.530  0.0582 -0.0233 -0.6674
 6308SOL    HW119744   2.602   2.791   5.547  0.3444 -0.0841 -0.4825
 6308SOL    HW219745   2.693   2.915   5.604 -0.2483  0.4034 -0.5847
 6309SOL     OW19746   5.244   6.923   5.139  0.5752 -0.1482 -0.2882
 6309SOL    HW119747   5.157   6.920   5.090  0.9763  1.9432 -1.2568
 6309SOL    HW219748   5.292   6.836   5.127  0.4793  0.1009 -3.3990
 6310SOL     OW19749   3.086   5.121   4.107  0.2466 -0.3713 -0.1263
 6310SOL    HW119750   3.116   5.029   4.133 -1.0295 -0.9657 -0.6517
 6310SOL    HW219751   3.060   5.121   4.010 -1.4422  0.0740  0.3013
 6311SOL     OW19752   3.373   4.551   0.332  0.0611 -0.3126  0.2014
 6311SOL    HW119753   3.354   4.592   0.421 -1.5809 -0.0705 -0.2299
 6311SOL    HW219754   3.309   4.476   0.315 -0.7612  0.6844 -1.4342
 6312SOL     OW19755   1.273   0.456   6.777  0.0446 -0.4502 -0.0996
 6312SOL    HW119756   1.348   0.392   6.793  0.7866 -0.0208 -1.6926
 6312SOL    HW219757   1.262   0.471   6.679 -0.5354  1.3857  0.2120
 6313SOL     OW19758   1.838   1.629   1.508 -0.5129 -0.4230  0.1723
 6313SOL    HW119759   1.859   1.653   1.603  1.5506  0.9652 -0.5599
 6313SOL    HW219760   1.739   1.633   1.493 -0.6707  3.2789  1.3133
 6314SOL     OW19761   2.664   5.237   1.433 -0.2307 -0.3892 -0.3489
 6314SOL    HW119762   2.599   5.163   1.448  0.3643 -0.8589 -0.0733
 6314SOL    HW219763   2.746   5.202   1.389  0.4726 -0.0964  0.6770
 6315SOL     OW19764   0.366   5.982   4.757 -0.3532 -0.0253  0.4022
 6315SOL    HW119765   0.435   5.960   4.688 -0.1140  2.5174 -0.2984
 6315SOL    HW219766   0.315   5.900   4.781 -0.7541 -0.9984 -3.1531
 6316SOL     OW19767   4.384   2.352   6.255  0.1940 -0.4674  0.5013
 6316SOL    HW119768   4.464   2.357   6.316  2.5487  1.2850 -2.4229
 6316SOL    HW219769   4.410   2.307   6.170 -1.8905  0.3850 -0.6577
 6317SOL     OW19770   2.066   4.871   4.217 -0.3224 -0.0715  0.2467
 6317SOL    HW119771   2.002   4.905   4.149  1.1664  4.6936  0.8783
 6317SOL    HW219772   2.131   4.808   4.173 -2.8873 -1.8363 -1.2394
 6318SOL     OW19773   4.407   6.584   2.639 -0.6413  0.0805  0.6436
 6318SOL    HW119774   4.366   6.506   2.592 -0.8809  0.6999 -0.1998
 6318SOL    HW219775   4.469   6.551   2.710  0.7290 -0.9245 -0.9372
 6319SOL     OW19776   6.683   0.665   1.000 -0.6769 -0.4887  0.2593
 6319SOL    HW119777   6.727   0.580   0.972  3.0533  1.3547 -0.0655
 6319SOL    HW219778   6.668   0.664   1.099 -0.2434 -1.3297  0.3233
 6320SOL     OW19779   2.239   6.225   1.970 -0.1988 -0.2590  0.0060
 6320SOL    HW119780   2.204   6.264   2.055  1.4529  2.2830 -0.3690
 6320SOL    HW219781   2.207   6.280   1.893 -0.6107 -1.7629 -0.9354
 6321SOL     OW19782   2.885   5.124   1.842 -0.1815  0.0459 -0.1327
 6321SOL    HW119783   2.896   5.112   1.941  2.9951 -0.0437 -0.3895
 6321SOL    HW219784   2.794   5.159   1.823 -0.6395  0.8230  2.8954
 6322SOL     OW19785   3.489   3.189   0.287  0.6332  0.0213  1.3352
 6322SOL    HW119786   3.450   3.124   0.222 -0.5984  4.8798 -3.4311
 6322SOL    HW219787   3.585   3.166   0.304  0.1969 -3.0668  0.2090
 6323SOL     OW19788   4.131   6.007   6.839  0.8453  0.2894  0.1669
 6323SOL    HW119789   4.139   6.059   6.925  0.8191 -0.8140  0.8547
 6323SOL    HW219790   4.144   6.069   6.762  1.3681  1.2209  0.9719
 6324SOL     OW19791   2.506   4.945   4.047  0.6876 -0.0304 -0.2582
 6324SOL    HW119792   2.441   4.873   4.024  0.2563  0.1110  0.4846
 6324SOL    HW219793   2.555   4.973   3.964  1.2160 -1.5075 -0.4679
 6325SOL     OW19794   2.253   1.858   0.136  1.0003  0.2643 -0.0076
 6325SOL    HW119795   2.202   1.798   0.075 -1.2159  1.2525  0.7662
 6325SOL    HW219796   2.341   1.817   0.158 -0.1852 -2.4209  0.0645
 6326SOL     OW19797   6.527   4.847   3.096  0.1297  0.5976  0.4821
 6326SOL    HW119798   6.456   4.786   3.132  0.5320  0.1839  0.5728
 6326SOL    HW219799   6.487   4.937   3.078 -0.7565 -0.0384 -0.8260
 6327SOL     OW19800   0.422   1.096   1.871  0.1225  0.2764  0.4674
 6327SOL    HW119801   0.465   1.054   1.791  1.9103  2.9137 -0.0771
 6327SOL    HW219802   0.362   1.170   1.841 -0.3682  0.3175  1.5291
 6328SOL     OW19803   1.395   1.403   6.781  0.3193 -0.0964  0.1251
 6328SOL    HW119804   1.378   1.392   6.683 -0.3953  1.5031  0.0395
 6328SOL    HW219805   1.355   1.326   6.831 -0.3450 -0.3285 -0.7452
 6329SOL     OW19806   2.845   0.683   2.506  0.8246 -0.5591 -0.3532
 6329SOL    HW119807   2.778   0.612   2.526  1.4258 -0.5721  1.9371
 6329SOL    HW219808   2.935   0.642   2.495  0.9747 -0.2806 -0.1867
 6330SOL     OW19809   5.566   6.975   6.069  0.1974 -0.8934  0.3313
 6330SOL    HW119810   5.616   7.052   6.108  0.0333 -0.8945  0.5429
 6330SOL    HW219811   5.509   6.932   6.139  1.2225 -1.9758  0.5361
 6331SOL     OW19812   6.471   3.577   3.335  0.0308 -0.3509  0.1939
 6331SOL    HW119813   6.377   3.611   3.329 -0.1387 -0.1979  2.7000
 6331SOL    HW219814   6.531   3.635   3.279 -1.1125  0.5787 -0.1093
 6332SOL     OW19815   5.417   1.979   2.178  0.0525  0.2683 -0.5478
 6332SOL    HW119816   5.462   1.924   2.108 -2.2067  0.1973 -2.0362
 6332SOL    HW219817   5.373   1.918   2.244  0.8301  0.3370  0.0487
 6333SOL     OW19818   3.566   1.144   6.658  0.5535 -0.3032  0.1197
 6333SOL    HW119819   3.529   1.058   6.693  2.0409 -1.7760 -1.6555
 6333SOL    HW219820   3.580   1.208   6.733  1.4513 -2.4271  1.8870
 6334SOL     OW19821   3.732   6.179   6.966  0.4657 -0.0421  0.4246
 6334SOL    HW119822   3.766   6.221   6.881  0.2719  1.1388  0.9093
 6334SOL    HW219823   3.672   6.244   7.013  0.9588 -0.4933  1.7046
 6335SOL     OW19824   1.980   3.043   6.212  0.4299 -0.1375 -0.4714
 6335SOL    HW119825   1.885   3.014   6.206  0.4901 -0.2363 -1.0583
 6335SOL    HW219826   2.020   3.045   6.120  1.6042 -2.1587 -0.0753
 6336SOL     OW19827   6.582   2.986   2.495  0.5131 -0.0222 -0.1937
 6336SOL    HW119828   6.521   2.991   2.573 -1.5323 -2.5366 -1.4854
 6336SOL    HW219829   6.629   2.898   2.495  0.9860  0.2102 -1.4378
 6337SOL     OW19830   0.232   4.784   2.349 -0.2369 -0.0275 -0.4423
 6337SOL    HW119831   0.302   4.740   2.293 -0.5677 -1.2501  0.0741
 6337SOL    HW219832   0.193   4.861   2.299 -0.3664 -0.9493 -1.8112
 6338SOL     OW19833   0.429   6.082   3.676  0.3760  0.7368  0.3305
 6338SOL    HW119834   0.485   6.059   3.597  0.2194  1.1695  0.0890
 6338SOL    HW219835   0.397   6.177   3.668 -1.9408 -0.0371 -0.4924
 6339SOL     OW19836   3.422   5.876   3.669 -0.2695  0.2766  0.4606
 6339SOL    HW119837   3.417   5.837   3.577 -1.8009  0.5351  0.4065
 6339SOL    HW219838   3.463   5.968   3.664  0.5096 -0.0776  0.1782
 6340SOL     OW19839   1.740   5.368   6.625  0.3454  0.2052  0.1079
 6340SOL    HW119840   1.755   5.466   6.617  2.1029  0.2285  2.5255
 6340SOL    HW219841   1.645   5.347   6.606  0.4647  1.9808 -2.9966
 6341SOL     OW19842   4.651   3.026   3.482 -1.1032 -0.7460  0.3333
 6341SOL    HW119843   4.610   3.108   3.524 -1.5697 -0.1560 -1.1963
 6341SOL    HW219844   4.646   3.034   3.383  1.5990 -1.2593  0.0831
 6342SOL     OW19845   2.273   4.716   6.463 -0.0077 -0.0384 -0.3186
 6342SOL    HW119846   2.197   4.748   6.518  0.8660  0.3656  0.6887
 6342SOL    HW219847   2.355   4.769   6.485  0.2444  0.5717 -2.4605
 6343SOL     OW19848   3.941   1.268   1.944  0.2335 -0.0155 -0.1351
 6343SOL    HW119849   3.846   1.273   1.975 -0.0259 -1.3417 -0.6590
 6343SOL    HW219850   3.946   1.210   1.863  1.6646 -1.0796  0.6662
 6344SOL     OW19851   1.533   1.850   3.875 -0.1605  0.0810  0.4551
 6344SOL    HW119852   1.452   1.891   3.835 -0.4973  0.3544  1.3769
 6344SOL    HW219853   1.508   1.765   3.923  0.0385  0.3119  0.9811
 6345SOL     OW19854   2.901   4.477   3.143 -0.3075 -0.0911  0.4620
 6345SOL    HW119855   2.840   4.553   3.165  0.0241  0.0709  0.8404
 6345SOL    HW219856   2.956   4.455   3.224 -0.1897 -0.5366  0.2626
 6346SOL     OW19857   4.584   3.387   5.945  0.1504  0.0754 -0.6806
 6346SOL    HW119858   4.505   3.434   5.984 -0.7584 -0.0226 -2.3158
 6346SOL    HW219859   4.628   3.446   5.878  1.7649  0.2967  0.5294
 6347SOL     OW19860   2.120   0.123   2.298  0.3370  0.1203 -0.8757
 6347SOL    HW119861   2.027   0.145   2.327  0.2264 -0.8289 -0.4495
 6347SOL    HW219862   2.120   0.097   2.201  0.1420  0.0761 -0.8639
 6348SOL     OW19863   1.222   2.160   1.795 -0.5785  0.2795  0.2042
 6348SOL    HW119864   1.317   2.127   1.800  0.4696  3.0885  0.5702
 6348SOL    HW219865   1.183   2.163   1.887  0.2693  2.3836  0.5568
 6349SOL     OW19866   2.665   1.597   6.053  0.1177  0.0058  0.4868
 6349SOL    HW119867   2.687   1.657   5.976  0.4319  0.4299  0.9014
 6349SOL    HW219868   2.628   1.652   6.129  0.2384 -0.3458  0.8050
 6350SOL     OW19869   4.002   0.524   0.178  0.1863 -0.4177 -0.4780
 6350SOL    HW119870   4.069   0.526   0.253 -1.1461 -0.9031  0.7746
 6350SOL    HW219871   3.937   0.599   0.190 -0.5465 -1.0232 -0.6722
 6351SOL     OW19872   4.341   6.110   0.802  0.0610  0.3515  0.3451
 6351SOL    HW119873   4.299   6.042   0.741  0.5283  0.2656  0.1140
 6351SOL    HW219874   4.327   6.201   0.764 -2.4743  0.6372  1.7321
 6352SOL     OW19875   1.278   1.352   1.277  0.0325 -0.3476  0.3602
 6352SOL    HW119876   1.370   1.324   1.305  1.3157 -0.8027 -3.6778
 6352SOL    HW219877   1.222   1.271   1.262  0.6885 -0.4230 -2.0661
 6353SOL     OW19878   5.870   2.250   5.882  0.3203  0.5301 -0.4085
 6353SOL    HW119879   5.855   2.153   5.861 -0.3137  0.3488  0.7954
 6353SOL    HW219880   5.844   2.305   5.803  1.1508 -0.3014 -1.2848
 6354SOL     OW19881   0.031   5.194   1.899  0.1025 -0.0720  0.2273
 6354SOL    HW119882   0.105   5.143   1.858 -0.1001  0.4574 -0.8331
 6354SOL    HW219883   0.057   5.223   1.992  0.8394 -0.6849  0.2151
 6355SOL     OW19884   5.455   3.397   5.766 -0.1833  0.0510 -0.2984
 6355SOL    HW119885   5.510   3.346   5.832  0.5512  2.5244  1.1207
 6355SOL    HW219886   5.359   3.370   5.774  0.1776 -1.0870  0.3809
 6356SOL     OW19887   2.084   0.007   2.053 -0.5928  0.3202 -0.3176
 6356SOL    HW119888   2.180  -0.000   2.028 -0.4034  0.3380  0.4109
 6356SOL    HW219889   2.038  -0.080   2.032 -0.8130  0.8481 -2.2670
 6357SOL     OW19890   5.850   0.204   4.068  0.2902 -0.1687  0.1623
 6357SOL    HW119891   5.895   0.121   4.102  2.1224  0.3389 -0.8868
 6357SOL    HW219892   5.919   0.271   4.042 -1.0572  0.4097 -2.2102
 6358SOL     OW19893   6.369   1.774   0.625  0.3615  0.0536  0.0483
 6358SOL    HW119894   6.270   1.779   0.629  0.2245 -2.2870  1.1166
 6358SOL    HW219895   6.407   1.787   0.717  1.1571  1.7924 -0.4699
 6359SOL     OW19896   2.827   3.713   2.026  0.1294 -0.3346  0.1338
 6359SOL    HW119897   2.762   3.637   2.020 -0.4168  0.2059 -2.0627
 6359SOL    HW219898   2.788   3.785   2.083 -1.3303  0.0265 -1.2332
 6360SOL     OW19899   0.775   3.838   2.679 -0.8156 -0.0309 -0.1540
 6360SOL    HW119900   0.831   3.866   2.602  0.5811 -0.5158  0.6499
 6360SOL    HW219901   0.834   3.814   2.757 -2.1427 -0.3755  0.7875
 6361SOL     OW19902   5.899   1.808   6.632  0.0815  0.2271 -0.2889
 6361SOL    HW119903   5.888   1.907   6.632  1.9138  0.4915 -2.0814
 6361SOL    HW219904   5.848   1.769   6.708  1.1007  2.7516  1.8412
 6362SOL     OW19905   0.212   6.327   0.116  0.5190 -0.4725 -0.1575
 6362SOL    HW119906   0.223   6.289   0.024 -0.8289  1.4837 -1.1969
 6362SOL    HW219907   0.167   6.416   0.110  0.4484 -0.2646  2.4199
 6363SOL     OW19908   6.658   4.285   1.444 -0.1724  0.0264  0.7433
 6363SOL    HW119909   6.737   4.225   1.454 -0.5930 -0.4547  1.2617
 6363SOL    HW219910   6.684   4.367   1.392  0.3806 -0.6506 -0.0718
 6364SOL     OW19911   5.060   3.764   3.609  0.1181  0.2703  0.4032
 6364SOL    HW119912   5.138   3.827   3.609  0.2129  0.1589  0.8255
 6364SOL    HW219913   5.092   3.671   3.589 -0.3689  0.7222 -3.1119
 6365SOL     OW19914   2.648   2.974   3.786  0.2465  0.3056  0.1334
 6365SOL    HW119915   2.694   2.885   3.781 -1.7773 -0.7735 -0.2793
 6365SOL    HW219916   2.549   2.960   3.793 -0.1176  2.5429  0.1049
 6366SOL     OW19917   3.442   5.346   0.596 -0.1547  0.0241  0.2774
 6366SOL    HW119918   3.460   5.413   0.667  1.8871 -0.3715  0.1980
 6366SOL    HW219919   3.508   5.357   0.522 -1.4598 -0.3766 -0.9895
 6367SOL     OW19920   1.244   1.080   2.673  0.0719 -0.6458 -0.1335
 6367SOL    HW119921   1.159   1.115   2.712 -0.3555 -1.5910 -0.1932
 6367SOL    HW219922   1.319   1.093   2.738 -0.4644 -1.4008  0.6515
 6368SOL     OW19923   0.782   2.752   6.898  0.2062 -0.0597  0.0864
 6368SOL    HW119924   0.752   2.813   6.971  2.9498  0.8296  0.5946
 6368SOL    HW219925   0.823   2.670   6.938 -0.7891 -0.8987 -0.5504
 6369SOL     OW19926   2.118   0.480   6.396 -0.1977  0.2421  0.2431
 6369SOL    HW119927   2.149   0.558   6.341  2.4899 -1.7569 -1.3246
 6369SOL    HW219928   2.181   0.468   6.473 -0.4556 -0.5169  0.3380
 6370SOL     OW19929   1.257   4.976   1.981  0.6856  0.7010  0.2155
 6370SOL    HW119930   1.206   4.890   1.976 -0.2268  1.2875 -0.6682
 6370SOL    HW219931   1.325   4.978   1.908  0.7492  0.7163  0.2746
 6371SOL     OW19932   0.818   6.649   6.339 -1.0157  0.1439 -0.3324
 6371SOL    HW119933   0.832   6.683   6.246  0.2110 -1.1062 -0.6344
 6371SOL    HW219934   0.901   6.604   6.371 -1.6069  0.0661  1.1705
 6372SOL     OW19935   1.502   2.814   5.497 -0.7055  0.0515  0.0785
 6372SOL    HW119936   1.447   2.731   5.492 -1.8124  0.6693  1.2521
 6372SOL    HW219937   1.480   2.863   5.582  3.2939 -0.8148  1.8378
 6373SOL     OW19938   1.265   5.060   4.337 -0.2416  0.5692 -0.1861
 6373SOL    HW119939   1.275   5.130   4.266  0.4590 -0.0058 -0.6636
 6373SOL    HW219940   1.320   4.980   4.313  0.6718  0.6712  1.3908
 6374SOL     OW19941   5.878   3.268   5.806  0.4830 -0.1198  0.3272
 6374SOL    HW119942   5.958   3.225   5.848  0.6569  1.5261  1.8072
 6374SOL    HW219943   5.899   3.364   5.786 -0.8185  0.0722 -0.1800
 6375SOL     OW19944   3.031   3.659   2.160 -0.0632  0.3946  0.0132
 6375SOL    HW119945   3.065   3.573   2.122 -0.1727 -0.1980  1.2269
 6375SOL    HW219946   2.948   3.686   2.111 -0.3725 -0.5029  0.0246
 6376SOL     OW19947   0.900   6.981   5.426  0.2899  0.3014 -0.3118
 6376SOL    HW119948   0.870   7.001   5.333 -3.4904  0.4441  0.7366
 6376SOL    HW219949   0.888   6.884   5.445 -0.8848  0.5797  0.5240
 6377SOL     OW19950   1.579   3.399   6.837 -0.0049 -0.0257  0.2555
 6377SOL    HW119951   1.587   3.300   6.828  1.1686  0.1792 -1.7496
 6377SOL    HW219952   1.669   3.437   6.859 -0.0687  0.6860 -0.6393
 6378SOL     OW19953   1.461   6.233   0.106 -0.7510  0.2323  0.4823
 6378SOL    HW119954   1.397   6.218   0.030 -2.0650  0.6081  1.4597
 6378SOL    HW219955   1.531   6.298   0.078 -1.5526  0.8146 -0.2533
 6379SOL     OW19956   0.520   4.538   4.430  0.2829 -0.5609  0.1057
 6379SOL    HW119957   0.562   4.449   4.410  2.7998  0.6726 -0.5275
 6379SOL    HW219958   0.485   4.577   4.345  0.4854 -0.3348  0.1256
 6380SOL     OW19959   2.364   6.552   4.890 -1.0267  0.6274  0.3954
 6380SOL    HW119960   2.460   6.552   4.863 -1.2175 -1.0751 -0.4156
 6380SOL    HW219961   2.336   6.645   4.916 -0.0156  1.8130 -2.3782
 6381SOL     OW19962   5.879   6.967   3.186  0.1139  0.3815 -0.3517
 6381SOL    HW119963   5.854   7.062   3.168  1.7017  1.1225  1.1251
 6381SOL    HW219964   5.827   6.934   3.266  1.1636  0.7607  0.5088
 6382SOL     OW19965   1.790   6.365   5.077  0.6937  0.0451  0.4080
 6382SOL    HW119966   1.829   6.398   5.163 -1.7214  1.7272  0.9642
 6382SOL    HW219967   1.772   6.442   5.017  1.2128 -0.9990 -1.1498
 6383SOL     OW19968   1.088   6.097   1.577  0.1054  0.0563 -0.0888
 6383SOL    HW119969   1.082   6.064   1.672  1.2668 -1.2726 -0.4452
 6383SOL    HW219970   1.143   6.033   1.523  0.4503  1.4030 -1.3964
 6384SOL     OW19971   6.882   0.884   6.263 -0.0848  0.9726  0.1767
 6384SOL    HW119972   6.892   0.928   6.174 -2.9614 -1.4730 -1.5683
 6384SOL    HW219973   6.937   0.801   6.266  0.0694  1.0889  0.7255
 6385SOL     OW19974   2.195   4.769   2.158  0.3688 -0.0301 -0.1201
 6385SOL    HW119975   2.149   4.856   2.139 -0.3842  0.0227  1.6941
 6385SOL    HW219976   2.294   4.782   2.155  0.2602  0.9212  0.2314
 6386SOL     OW19977   4.525   0.281   4.476  0.4501 -0.3910 -0.7464
 6386SOL    HW119978   4.448   0.220   4.496 -0.3200  0.4900 -0.9852
 6386SOL    HW219979   4.491   0.368   4.441  1.4493  0.8432  1.2086
 6387SOL     OW19980   3.513   1.152   2.042  0.4007 -0.4468  0.0432
 6387SOL    HW119981   3.467   1.221   2.098 -0.2493 -0.1160 -0.8786
 6387SOL    HW219982   3.543   1.076   2.101 -1.5492 -0.7998  0.6604
 6388SOL     OW19983   5.169   4.361   0.418 -0.1643 -0.3240  0.3502
 6388SOL    HW119984   5.071   4.378   0.419  0.1173  1.6019  0.1296
 6388SOL    HW219985   5.210   4.411   0.342  1.1177 -0.2511  1.0589
 6389SOL     OW19986   4.180   4.366   6.339  0.3827 -0.5748  0.4996
 6389SOL    HW119987   4.194   4.453   6.292  5.1449 -0.3168  1.9041
 6389SOL    HW219988   4.135   4.382   6.427  0.7911  0.3990  0.5445
 6390SOL     OW19989   1.251   0.499   5.440 -0.0912 -0.5940  0.3107
 6390SOL    HW119990   1.157   0.525   5.461 -0.4175 -1.0900 -0.4927
 6390SOL    HW219991   1.260   0.483   5.341  1.4947  2.1440 -0.1009
 6391SOL     OW19992   5.900   0.703   3.742 -0.2697 -0.0765  0.2465
 6391SOL    HW119993   5.938   0.617   3.777  0.3395  0.7705  1.7905
 6391SOL    HW219994   5.967   0.776   3.756 -0.8622  0.6928 -0.8519
 6392SOL     OW19995   6.832   0.460   5.094 -0.2585 -0.7325 -0.3509
 6392SOL    HW119996   6.791   0.422   5.177  1.6128 -2.1906 -0.0118
 6392SOL    HW219997   6.931   0.446   5.096  0.4924  3.3902 -0.7212
 6393SOL     OW19998   3.528   5.424   5.952 -0.5264  0.8829 -0.5134
 6393SOL    HW119999   3.517   5.325   5.953 -1.6533  0.9995  1.2974
 6393SOL    HW220000   3.590   5.449   5.877 -2.7979 -0.8882 -3.1608
 6394SOL     OW20001   6.191   2.235   2.581 -0.6805 -0.2259 -0.0922
 6394SOL    HW120002   6.194   2.335   2.590 -1.0689 -0.2506  0.3891
 6394SOL    HW220003   6.171   2.210   2.487  2.5515  0.0926 -0.9823
 6395SOL     OW20004   4.246   6.131   2.802 -0.0754 -0.1149 -0.5366
 6395SOL    HW120005   4.318   6.182   2.755 -1.6067  1.8454 -0.9198
 6395SOL    HW220006   4.188   6.086   2.734  0.1823 -0.8262 -0.2884
 6396SOL     OW20007   1.642   0.628   4.038 -0.1262  0.0683  0.0683
 6396SOL    HW120008   1.678   0.548   4.085 -0.0725  0.5850  0.9245
 6396SOL    HW220009   1.714   0.672   3.985  0.0153 -0.0469  0.1666
 6397SOL     OW20010   6.112   5.367   5.501 -0.5081 -0.1957  0.0730
 6397SOL    HW120011   6.059   5.364   5.416 -0.6550  0.7896  0.1191
 6397SOL    HW220012   6.149   5.276   5.520 -2.8389 -1.1288  0.4726
 6398SOL     OW20013   1.871   2.365   3.165 -0.3390 -0.0379 -0.1440
 6398SOL    HW120014   1.940   2.295   3.186 -1.7600 -1.0103  1.6288
 6398SOL    HW220015   1.888   2.446   3.221 -0.4719 -0.1615  0.0747
 6399SOL     OW20016   5.313   6.120   3.600 -0.3436 -0.1395 -0.1580
 6399SOL    HW120017   5.395   6.176   3.607 -0.5404  0.4269 -1.9234
 6399SOL    HW220018   5.249   6.145   3.673  0.1260  0.9912 -0.1120
 6400SOL     OW20019   6.251   4.038   1.881 -0.2921  0.0260  0.1301
 6400SOL    HW120020   6.262   3.943   1.853 -0.7546 -0.4824  1.5861
 6400SOL    HW220021   6.287   4.099   1.810  1.0880 -1.2571 -0.3071
 6401SOL     OW20022   0.748   4.266   0.643  0.5747 -0.4614 -0.2959
 6401SOL    HW120023   0.684   4.343   0.647  0.4127 -0.6235  0.5304
 6401SOL    HW220024   0.696   4.180   0.643  0.7632 -0.5779 -0.9401
 6402SOL     OW20025   2.783   3.869   6.179 -0.5711  0.5549 -0.0855
 6402SOL    HW120026   2.793   3.810   6.099 -0.6382  0.2257  0.1447
 6402SOL    HW220027   2.756   3.961   6.150 -1.1216  0.3008 -0.4081
 6403SOL     OW20028   0.591   1.860   3.045 -0.1834 -0.0477  0.0484
 6403SOL    HW120029   0.525   1.931   3.070 -1.1494 -0.0873 -2.1546
 6403SOL    HW220030   0.665   1.900   2.991 -0.2945 -0.5493 -0.4961
 6404SOL     OW20031   3.525   1.151   5.750  0.4444 -0.5401 -0.1550
 6404SOL    HW120032   3.508   1.197   5.837 -0.2052 -1.0253 -0.0180
 6404SOL    HW220033   3.595   1.201   5.699  0.2198  0.2218  0.2721
 6405SOL     OW20034   3.345   2.433   0.949 -0.4477 -0.0785 -0.0310
 6405SOL    HW120035   3.249   2.460   0.960 -0.1950  1.0575 -0.4247
 6405SOL    HW220036   3.403   2.513   0.965  0.3330 -0.2873 -1.6150
 6406SOL     OW20037   1.372   2.797   2.572  0.0491 -0.2244  0.3723
 6406SOL    HW120038   1.439   2.809   2.498 -0.9374  0.8917 -0.3742
 6406SOL    HW220039   1.317   2.716   2.554  0.4251 -0.4810  0.3698
 6407SOL     OW20040   1.881   1.776   6.910  0.3666  0.2136 -0.1025
 6407SOL    HW120041   1.813   1.736   6.971 -1.8345  1.8809 -1.2937
 6407SOL    HW220042   1.894   1.873   6.932  0.2787  0.5945 -1.5738
 6408SOL     OW20043   3.723   4.361   4.945 -0.4247 -0.0168 -0.2676
 6408SOL    HW120044   3.654   4.294   4.969 -1.2793  0.6959 -0.6742
 6408SOL    HW220045   3.814   4.327   4.970 -1.0388 -0.3915  1.5360
 6409SOL     OW20046   1.274   4.169   0.852 -0.2242  0.1902  0.4606
 6409SOL    HW120047   1.291   4.125   0.940  0.3393 -0.9949 -0.2200
 6409SOL    HW220048   1.176   4.163   0.830 -0.4692  1.0144  1.2524
 6410SOL     OW20049   1.041   5.083   6.031  0.0761 -0.8412 -0.1113
 6410SOL    HW120050   1.107   5.082   6.106 -1.1283 -1.4919  0.9904
 6410SOL    HW220051   0.980   5.005   6.040 -0.0914 -0.9435 -1.8075
 6411SOL     OW20052   4.773   5.146   2.430  0.1577  0.5121 -0.3181
 6411SOL    HW120053   4.820   5.157   2.343 -0.0064  1.5930 -0.2870
 6411SOL    HW220054   4.678   5.120   2.414  0.7754 -1.9376 -0.3756
 6412SOL     OW20055   6.186   6.225   6.304  0.0861  0.1132 -0.2955
 6412SOL    HW120056   6.268   6.189   6.260  0.4571 -1.8418  1.8194
 6412SOL    HW220057   6.105   6.199   6.252  0.7059  2.7168 -2.8401
 6413SOL     OW20058   1.729   2.701   5.286 -0.3784  0.8798  0.1891
 6413SOL    HW120059   1.776   2.769   5.342 -0.4699  0.8282  0.3289
 6413SOL    HW220060   1.659   2.746   5.231  0.2393  1.0469 -0.4736
 6414SOL     OW20061   6.469   2.737   4.741  0.0662  0.2311  0.0368
 6414SOL    HW120062   6.410   2.674   4.691 -2.8827  1.3783  1.8108
 6414SOL    HW220063   6.512   2.689   4.817 -0.0531 -0.2170 -0.1746
 6415SOL     OW20064   0.163   3.816   1.499  0.2646 -0.1206  0.5072
 6415SOL    HW120065   0.108   3.750   1.448  0.3564 -0.2493  0.5757
 6415SOL    HW220066   0.146   3.908   1.463 -0.1324 -0.1369  0.6453
 6416SOL     OW20067   5.456   3.027   4.215  0.1589  0.1235  0.1084
 6416SOL    HW120068   5.463   2.943   4.269 -2.4369 -0.8790 -0.9547
 6416SOL    HW220069   5.506   3.100   4.261  1.6725 -1.7330  1.5779
 6417SOL     OW20070   5.844   3.184   0.710  0.0383 -0.2929 -0.1627
 6417SOL    HW120071   5.914   3.192   0.781  2.5824  0.9506 -2.5788
 6417SOL    HW220072   5.871   3.112   0.645 -1.1386 -0.0556 -0.9373
 6418SOL     OW20073   5.489   5.136   1.806  0.1476  0.1436  0.2112
 6418SOL    HW120074   5.484   5.167   1.711  0.1492  1.5917  0.6608
 6418SOL    HW220075   5.452   5.207   1.866  0.9761 -0.3652  1.3590
 6419SOL     OW20076   2.963   4.342   6.586  0.3547  0.3468  0.1324
 6419SOL    HW120077   2.942   4.258   6.538  1.0808  0.1528  0.1407
 6419SOL    HW220078   2.885   4.404   6.582  0.1483  0.0388 -0.6541
 6420SOL     OW20079   6.190   6.151   6.596 -0.5439 -0.6719 -0.2992
 6420SOL    HW120080   6.212   6.169   6.500  1.1819  1.3712  0.3902
 6420SOL    HW220081   6.182   6.053   6.610  3.2157 -1.3981 -1.8216
 6421SOL     OW20082   1.076   2.346   0.138 -0.1693  0.2597 -0.3732
 6421SOL    HW120083   1.135   2.424   0.116  1.4237 -1.0265 -0.8994
 6421SOL    HW220084   1.097   2.270   0.075 -0.6012 -1.0955  1.0560
 6422SOL     OW20085   2.630   3.319   6.401 -0.7838  0.1703 -0.0176
 6422SOL    HW120086   2.703   3.285   6.460 -2.0890 -1.7105  0.6170
 6422SOL    HW220087   2.598   3.407   6.434 -1.3358 -0.7394  2.0248
 6423SOL     OW20088   5.071   6.331   2.214  0.4892 -0.3006 -0.1435
 6423SOL    HW120089   5.108   6.356   2.303 -0.8279  1.3639 -0.0315
 6423SOL    HW220090   5.146   6.319   2.149  1.5078 -2.0085  1.2468
 6424SOL     OW20091   3.486   2.209   1.988  0.6667  0.1298 -0.0986
 6424SOL    HW120092   3.457   2.209   1.892  0.5484 -1.4822 -0.0927
 6424SOL    HW220093   3.584   2.229   1.993  0.6635  0.2759 -0.5461
 6425SOL     OW20094   2.195   0.378   0.624  0.7455  0.0295 -0.4039
 6425SOL    HW120095   2.232   0.455   0.676  0.4578 -0.5251  0.6549
 6425SOL    HW220096   2.271   0.319   0.593  0.8656 -0.1722  0.2585
 6426SOL     OW20097   6.039   0.086   6.260 -0.4163  0.5333 -0.1599
 6426SOL    HW120098   6.029   0.109   6.356  0.7893  2.1167 -0.3701
 6426SOL    HW220099   6.069  -0.009   6.251  0.0998  0.5699  1.0512
 6427SOL     OW20100   6.477   4.486   6.884 -0.3004 -0.1636  0.6708
 6427SOL    HW120101   6.480   4.500   6.785  0.1532  0.9823  0.8314
 6427SOL    HW220102   6.383   4.466   6.911 -0.7047  0.9490  0.1743
 6428SOL     OW20103   4.772   1.080   1.438 -0.0654 -0.0668  0.0882
 6428SOL    HW120104   4.731   1.073   1.529  1.3206 -1.2280  0.6635
 6428SOL    HW220105   4.854   1.136   1.443 -0.1470  0.1093 -0.5126
 6429SOL     OW20106   1.011   3.900   0.623 -0.2232 -0.4509 -0.0142
 6429SOL    HW120107   0.986   3.967   0.693 -0.0957  0.9110 -1.2116
 6429SOL    HW220108   1.076   3.834   0.662 -0.9929 -0.3963  1.4301
 6430SOL     OW20109   2.783   3.142   1.073 -0.4091 -0.1485  0.4360
 6430SOL    HW120110   2.832   3.204   1.134 -1.0951  0.5950  0.2464
 6430SOL    HW220111   2.695   3.183   1.047  0.5378  0.3293 -2.3541
 6431SOL     OW20112   2.670   2.011   4.649 -0.2715  0.1248  0.0857
 6431SOL    HW120113   2.609   1.933   4.637 -0.7087  0.2214  1.5386
 6431SOL    HW220114   2.729   2.020   4.568 -0.5681 -1.3777 -0.3234
 6432SOL     OW20115   3.772   1.696   1.435 -0.5018  0.8611 -0.2892
 6432SOL    HW120116   3.742   1.775   1.489  0.2796  0.2847  1.0451
 6432SOL    HW220117   3.870   1.683   1.447 -0.1879  1.0311 -2.3340
 6433SOL     OW20118   4.360   0.901   5.243 -0.0879 -0.4823 -0.1076
 6433SOL    HW120119   4.418   0.943   5.174  0.4136  0.5271  0.9068
 6433SOL    HW220120   4.312   0.972   5.295 -0.4337 -1.2147  0.6017
 6434SOL     OW20121   0.511   5.513   4.745  0.3717 -0.6170 -0.3281
 6434SOL    HW120122   0.426   5.559   4.769  0.5942 -0.8535  0.9736
 6434SOL    HW220123   0.490   5.422   4.710  0.1139 -1.2496  1.3611
 6435SOL     OW20124   0.451   3.123   4.620 -0.4073  0.4150 -0.5395
 6435SOL    HW120125   0.497   3.127   4.708 -1.2519 -1.3161  0.0282
 6435SOL    HW220126   0.362   3.167   4.626 -0.7068 -0.2064 -0.3516
 6436SOL     OW20127   0.420   2.478   1.568 -0.0194 -0.2512  0.8223
 6436SOL    HW120128   0.427   2.527   1.654  2.1455  0.2074  0.4435
 6436SOL    HW220129   0.484   2.401   1.568 -1.3625 -1.4037  0.3373
 6437SOL     OW20130   6.307   3.074   3.348 -0.3395 -0.1929  0.9016
 6437SOL    HW120131   6.231   3.013   3.329  1.1458 -1.2291 -2.5235
 6437SOL    HW220132   6.321   3.080   3.446 -3.7292 -1.2387  1.5966
 6438SOL     OW20133   0.181   0.614   6.727  0.3305  0.2166 -0.4737
 6438SOL    HW120134   0.137   0.548   6.667  1.4746 -0.3237 -0.7347
 6438SOL    HW220135   0.152   0.707   6.702 -2.1657 -0.1831  0.6204
 6439SOL     OW20136   3.727   5.585   6.171 -0.1121 -0.0929 -0.0764
 6439SOL    HW120137   3.686   5.513   6.115  0.2649 -0.0171 -0.4495
 6439SOL    HW220138   3.804   5.625   6.123  0.5317 -0.3702  0.7021
 6440SOL     OW20139   2.453   6.968   1.057  0.3194 -0.0998  0.0089
 6440SOL    HW120140   2.397   6.930   1.131  0.9186 -0.4790  0.2702
 6440SOL    HW220141   2.433   7.066   1.047 -1.2703 -0.4509 -0.6995
 6441SOL     OW20142   5.547   5.373   5.479 -0.1953  0.2797 -0.7468
 6441SOL    HW120143   5.538   5.279   5.512  0.5544  0.1258 -0.9381
 6441SOL    HW220144   5.642   5.403   5.492 -1.0402  2.1126  2.1512
 6442SOL     OW20145   0.163   6.578   1.839 -0.3260 -0.5823  0.2954
 6442SOL    HW120146   0.073   6.543   1.812 -0.0536 -2.2186  1.3340
 6442SOL    HW220147   0.180   6.666   1.794 -2.9468  0.3805  0.9920
 6443SOL     OW20148   0.559   6.794   4.190 -0.0394  0.0973 -0.2414
 6443SOL    HW120149   0.584   6.713   4.241  1.8252  0.4005 -0.5893
 6443SOL    HW220150   0.461   6.792   4.169 -0.3839 -1.1378  1.3085
 6444SOL     OW20151   4.676   4.267   0.283 -0.1065 -0.4424  0.7088
 6444SOL    HW120152   4.654   4.170   0.280 -2.3596 -0.0025  0.9934
 6444SOL    HW220153   4.596   4.320   0.254 -0.4729  1.4753  4.5693
 6445SOL     OW20154   4.608   4.716   2.529  0.0499  0.0811 -0.3354
 6445SOL    HW120155   4.694   4.763   2.551  0.0852  0.2690 -0.8563
 6445SOL    HW220156   4.590   4.725   2.431  1.2571 -2.9465 -0.9686
 6446SOL     OW20157   4.074   5.104   1.505 -0.1256  0.1204  0.0445
 6446SOL    HW120158   4.126   5.168   1.561  0.2758  0.2835 -0.5085
 6446SOL    HW220159   3.977   5.129   1.507 -0.1774 -0.1215  0.9886
 6447SOL     OW20160   1.176   3.507   5.195  0.1540 -0.0535 -0.3386
 6447SOL    HW120161   1.101   3.551   5.146 -0.4321 -0.1488  0.4506
 6447SOL    HW220162   1.233   3.456   5.131  0.3937  1.2055 -1.1685
 6448SOL     OW20163   2.256   4.990   1.626 -0.0820 -0.2632  0.0957
 6448SOL    HW120164   2.168   4.968   1.585 -0.3225 -2.3697  1.5614
 6448SOL    HW220165   2.245   5.006   1.724  1.0439  0.3112  0.1457
 6449SOL     OW20166   0.941   1.852   0.135 -0.0819  0.1395  0.3805
 6449SOL    HW120167   0.896   1.931   0.177 -0.5849 -0.4254  0.9183
 6449SOL    HW220168   0.971   1.789   0.206 -1.3093 -1.0284 -0.0981
 6450SOL     OW20169   4.692   6.013   3.133  0.4315  0.7819 -0.2728
 6450SOL    HW120170   4.714   5.976   3.223  2.3812  2.1592 -0.1253
 6450SOL    HW220171   4.689   5.939   3.066 -0.3464 -0.1702  0.7700
 6451SOL     OW20172   2.155   2.719   2.501  0.1995 -0.3554  0.3990
 6451SOL    HW120173   2.148   2.635   2.447 -0.8517  0.3205 -0.5686
 6451SOL    HW220174   2.219   2.782   2.457 -0.5884  0.1606 -0.0341
 6452SOL     OW20175   1.120   0.730   6.691  0.6514 -0.6483 -0.2921
 6452SOL    HW120176   1.219   0.728   6.701  0.6333  1.3141  0.7516
 6452SOL    HW220177   1.083   0.638   6.700  2.4416 -1.5728 -1.7418
 6453SOL     OW20178   4.512   5.264   5.753 -0.4542  0.5037  0.0646
 6453SOL    HW120179   4.430   5.209   5.767 -1.1950  1.2382 -1.2042
 6453SOL    HW220180   4.570   5.221   5.684  0.7043 -0.4677  1.5615
 6454SOL     OW20181   6.063   1.850   3.587  0.5492  0.5329 -0.1530
 6454SOL    HW120182   6.149   1.831   3.540 -0.1472  1.3561 -1.8376
 6454SOL    HW220183   6.027   1.765   3.626  1.7919  0.0734  0.0511
 6455SOL     OW20184   3.871   6.476   5.494 -0.2930  0.7274  0.4651
 6455SOL    HW120185   3.783   6.459   5.449 -0.2593 -0.7269  0.9045
 6455SOL    HW220186   3.929   6.395   5.486  0.0629  0.7548  2.3158
 6456SOL     OW20187   4.007   2.966   6.064 -0.4712  0.1484  0.1693
 6456SOL    HW120188   4.085   2.954   6.002 -0.9176  1.2915 -0.6510
 6456SOL    HW220189   3.991   2.881   6.115 -1.4792 -1.6134 -2.8489
 6457SOL     OW20190   3.058   5.146   3.819  0.0691 -0.4392  0.0058
 6457SOL    HW120191   3.020   5.078   3.756  1.2189  0.2247 -1.4703
 6457SOL    HW220192   3.033   5.238   3.789 -2.4534 -0.1288  2.6286
 6458SOL     OW20193   0.476   4.241   1.831 -0.3619  0.4212 -0.3793
 6458SOL    HW120194   0.436   4.274   1.917  0.3262  1.0620 -0.3029
 6458SOL    HW220195   0.493   4.143   1.838 -1.2576  0.2677 -0.1608
 6459SOL     OW20196   4.041   4.825   1.143  0.0758  0.3527 -0.0302
 6459SOL    HW120197   3.984   4.907   1.149 -0.5318  0.2299 -2.8386
 6459SOL    HW220198   4.136   4.849   1.162 -0.3856  1.2629  1.2392
 6460SOL     OW20199   4.859   5.499   3.969  0.1648  0.0137 -0.2592
 6460SOL    HW120200   4.865   5.477   3.872 -2.0963 -0.7624 -0.2659
 6460SOL    HW220201   4.898   5.423   4.022 -1.0695 -0.8187 -0.5061
 6461SOL     OW20202   4.449   1.526   5.852  0.0566  0.0669  0.4756
 6461SOL    HW120203   4.429   1.460   5.924 -2.6532  0.2742  0.0213
 6461SOL    HW220204   4.547   1.525   5.832  0.6276 -1.2338  2.9115
 6462SOL     OW20205   3.647   0.548   6.292 -0.3550 -0.4700 -0.2835
 6462SOL    HW120206   3.648   0.643   6.261 -0.2455 -0.6818 -0.9554
 6462SOL    HW220207   3.725   0.499   6.252 -1.3012 -1.2369 -1.2668
 6463SOL     OW20208   6.207   6.146   0.438  0.3655  0.4485 -0.3694
 6463SOL    HW120209   6.183   6.057   0.399  0.2960  0.3630 -0.1311
 6463SOL    HW220210   6.304   6.147   0.462  0.0172 -0.1438  1.1657
 6464SOL     OW20211   5.689   3.303   3.327 -0.1926  0.0503 -0.4698
 6464SOL    HW120212   5.741   3.292   3.412 -0.3109 -0.0835 -0.4140
 6464SOL    HW220213   5.594   3.275   3.342  0.5010 -3.4999 -1.5263
 6465SOL     OW20214   0.220   5.305   0.689 -0.2192 -0.4307  0.1232
 6465SOL    HW120215   0.227   5.293   0.590  0.2496 -0.4534  0.1582
 6465SOL    HW220216   0.311   5.308   0.729 -0.3599  1.0078  0.3893
 6466SOL     OW20217   1.086   6.647   3.484 -0.1971 -0.5387 -0.3491
 6466SOL    HW120218   0.995   6.655   3.526  0.6580  1.6820  1.2720
 6466SOL    HW220219   1.104   6.728   3.428  1.5329  0.1253  1.0620
 6467SOL     OW20220   5.586   6.898   4.709 -0.1605  0.2087  0.3888
 6467SOL    HW120221   5.678   6.861   4.715 -0.3147 -0.3644 -0.5854
 6467SOL    HW220222   5.553   6.921   4.801 -0.3903 -2.9119  1.2083
 6468SOL     OW20223   3.301   6.592   2.306 -0.0546  0.5222  0.0777
 6468SOL    HW120224   3.295   6.637   2.217  0.8023  0.7690  0.1350
 6468SOL    HW220225   3.346   6.503   2.296  2.3154  1.5917  0.5849
 6469SOL     OW20226   0.037   2.678   3.271 -0.1361  0.4684  0.2156
 6469SOL    HW120227   0.057   2.775   3.286 -1.8705  0.7692  0.7790
 6469SOL    HW220228   0.084   2.624   3.340  2.9082  0.6081 -1.5689
 6470SOL     OW20229   2.041   3.386   6.425  0.7337  0.6798  0.1353
 6470SOL    HW120230   2.069   3.298   6.464  1.4392  0.9777  0.3122
 6470SOL    HW220231   2.120   3.429   6.381  0.0995  0.6257 -1.1078
 6471SOL     OW20232   5.136   0.789   5.275  0.3319  0.1771  0.0761
 6471SOL    HW120233   5.216   0.774   5.217  0.9415  0.8702  0.7069
 6471SOL    HW220234   5.060   0.825   5.220 -0.3360 -2.6177 -0.9804
 6472SOL     OW20235   4.182   5.090   4.251  0.1180  0.1160 -0.2413
 6472SOL    HW120236   4.137   5.087   4.162  2.9235 -1.3113 -1.7411
 6472SOL    HW220237   4.214   4.998   4.275  1.0473  0.8203  1.3693
 6473SOL     OW20238   5.640   1.395   2.383 -0.9582  0.4398  0.1398
 6473SOL    HW120239   5.623   1.414   2.479  0.0780 -0.6111  0.5495
 6473SOL    HW220240   5.574   1.327   2.350 -1.2480  0.7250  0.1279
 6474SOL     OW20241   2.191   4.842   3.199 -0.3019  0.6663 -0.5015
 6474SOL    HW120242   2.189   4.786   3.282  1.0733  0.5649 -0.5275
 6474SOL    HW220243   2.097   4.856   3.167 -0.6945 -2.3961 -1.0198
 6475SOL     OW20244   0.447   1.663   4.912 -0.6162  0.0052 -0.2014
 6475SOL    HW120245   0.411   1.733   4.974 -1.9867 -0.8746  0.0503
 6475SOL    HW220246   0.376   1.638   4.846  0.7696  0.8401 -2.1179
 6476SOL     OW20247   3.087   6.389   6.562 -0.0303 -0.7187  0.1434
 6476SOL    HW120248   3.173   6.345   6.538 -0.4435 -0.8660 -1.1532
 6476SOL    HW220249   3.010   6.330   6.537 -0.5608  0.2556 -0.6289
 6477SOL     OW20250   4.220   2.633   3.074  0.2519 -0.5058  0.2483
 6477SOL    HW120251   4.196   2.563   3.142  1.0388  0.4925  1.6129
 6477SOL    HW220252   4.209   2.596   2.982  0.1759 -2.2534  0.9269
 6478SOL     OW20253   2.892   4.783   4.614  0.0881 -0.1906  0.0440
 6478SOL    HW120254   2.908   4.789   4.712 -0.3616 -0.6685  0.1533
 6478SOL    HW220255   2.977   4.800   4.565  0.1194  0.9856  0.4802
 6479SOL     OW20256   0.782   4.526   5.166 -0.5328  0.3873 -0.0227
 6479SOL    HW120257   0.752   4.581   5.088  1.5983  0.8723 -0.5770
 6479SOL    HW220258   0.868   4.563   5.201 -0.0528 -1.4446  0.8380
 6480SOL     OW20259   6.875   2.369   3.306  0.8382  0.0559  0.1404
 6480SOL    HW120260   6.835   2.395   3.394  1.0035  1.4154 -0.1636
 6480SOL    HW220261   6.967   2.333   3.321  0.3883 -0.9496  0.6245
 6481SOL     OW20262   0.563   5.252   2.009  0.1826  0.2424  0.1413
 6481SOL    HW120263   0.538   5.157   2.028  2.7510 -0.3655  0.7504
 6481SOL    HW220264   0.561   5.304   2.094 -1.6755  0.9301 -0.2577
 6482SOL     OW20265   6.060   4.430   0.583  0.2831 -0.4241  0.0124
 6482SOL    HW120266   6.022   4.518   0.612 -1.8436 -0.8803 -1.1643
 6482SOL    HW220267   6.023   4.357   0.640  0.5164 -0.7591 -0.2598
 6483SOL     OW20268   2.934   0.930   0.267  0.0562  0.3920  0.0829
 6483SOL    HW120269   2.950   1.000   0.197 -1.2728  1.2560  0.6142
 6483SOL    HW220270   2.885   0.853   0.227 -1.6063  1.3253  0.2435
 6484SOL     OW20271   3.988   1.738   6.219 -0.2747 -0.1778 -0.3081
 6484SOL    HW120272   3.952   1.649   6.190  0.2911 -0.7184  0.5894
 6484SOL    HW220273   4.070   1.759   6.166 -0.2020 -0.3611 -0.2698
 6485SOL     OW20274   4.036   4.124   5.785 -0.5067 -0.7414  0.1957
 6485SOL    HW120275   4.093   4.205   5.769  1.2324 -1.7500  1.0616
 6485SOL    HW220276   4.088   4.056   5.837 -1.5940 -2.8257 -1.3087
 6486SOL     OW20277   1.414   3.998   4.118  0.4300  0.3043 -0.4612
 6486SOL    HW120278   1.399   3.970   4.023 -1.9844 -0.1762 -0.0056
 6486SOL    HW220279   1.455   3.922   4.168  0.7456  0.1868 -0.8954
 6487SOL     OW20280   0.745   0.683   0.862  0.2760 -0.2678 -0.3997
 6487SOL    HW120281   0.805   0.613   0.824 -0.0452 -1.0648  0.5176
 6487SOL    HW220282   0.651   0.649   0.865 -0.3918  1.1953 -2.4119
 6488SOL     OW20283   0.957   0.315   3.464  0.0355  0.1343 -0.2764
 6488SOL    HW120284   0.938   0.285   3.557  0.5011  2.7657  0.7524
 6488SOL    HW220285   1.028   0.256   3.424  2.3161  0.8973  2.3099
 6489SOL     OW20286   2.681   1.880   1.547  0.5650 -0.3682  0.5307
 6489SOL    HW120287   2.755   1.877   1.481  1.3597 -0.5960  1.4102
 6489SOL    HW220288   2.593   1.867   1.500  0.8037  2.5522 -0.9233
 6490SOL     OW20289   2.399   5.571   4.007 -0.1390 -0.3941 -0.1456
 6490SOL    HW120290   2.310   5.617   4.013  0.6070  1.1386 -0.1176
 6490SOL    HW220291   2.390   5.476   4.035 -1.4106  0.2126  1.6891
 6491SOL     OW20292   1.893   5.500   6.209  0.2435 -0.2169  0.2496
 6491SOL    HW120293   1.918   5.583   6.161 -2.5130  1.6268  1.7754
 6491SOL    HW220294   1.851   5.435   6.146 -0.8385  1.0297 -0.3367
 6492SOL     OW20295   6.371   2.311   1.037  0.2697  0.0034 -0.0064
 6492SOL    HW120296   6.365   2.345   0.943 -2.0332 -0.6913 -0.1632
 6492SOL    HW220297   6.432   2.370   1.090  2.1554  0.0181 -2.0684
 6493SOL     OW20298   1.053   6.127   6.703 -0.0587 -0.3702 -0.8704
 6493SOL    HW120299   1.007   6.195   6.645  0.4230  1.3144  0.6430
 6493SOL    HW220300   0.998   6.110   6.785  1.5342  1.0178  0.5446
 6494SOL     OW20301   1.048   1.927   2.169  0.0022  0.3883 -0.0486
 6494SOL    HW120302   1.016   1.941   2.263  1.7474 -1.3144  0.8633
 6494SOL    HW220303   1.036   2.012   2.117 -1.5494  1.1921  1.5119
 6495SOL     OW20304   4.903   2.721   0.415 -0.2053  0.3498 -0.0554
 6495SOL    HW120305   4.961   2.782   0.469  1.3091  0.3216 -1.5797
 6495SOL    HW220306   4.836   2.678   0.475 -0.0324  1.9894  1.4006
 6496SOL     OW20307   3.638   5.897   6.934 -0.1327 -0.0261 -0.5575
 6496SOL    HW120308   3.544   5.899   6.898 -0.0771  0.8814 -0.6696
 6496SOL    HW220309   3.666   5.989   6.958 -0.7137 -0.6953  3.3039
 6497SOL     OW20310   3.266   1.749   6.742 -0.1805  0.4796 -0.3927
 6497SOL    HW120311   3.221   1.664   6.714 -0.0204 -0.0973  1.0471
 6497SOL    HW220312   3.236   1.823   6.682 -1.8082 -0.2029 -0.4803
 6498SOL     OW20313   3.437   2.770   0.189 -0.3515 -0.0224  0.1514
 6498SOL    HW120314   3.423   2.702   0.261  0.4241 -0.8564 -0.4804
 6498SOL    HW220315   3.394   2.738   0.104 -1.7217  1.1923  0.3388
 6499SOL     OW20316   5.483   1.677   6.832  0.1610 -0.0359  0.5780
 6499SOL    HW120317   5.512   1.583   6.812  1.7774 -0.0587  2.7130
 6499SOL    HW220318   5.507   1.736   6.754 -0.6142 -1.3017 -0.6642
 6500SOL     OW20319   5.962   2.209   1.131 -0.0142  0.0442  0.1847
 6500SOL    HW120320   5.945   2.165   1.043 -1.5807 -1.1013  1.0362
 6500SOL    HW220321   5.964   2.308   1.118  0.2669 -0.1171 -1.2025
 6501SOL     OW20322   0.876   4.074   3.486 -0.3327 -0.6947 -0.1708
 6501SOL    HW120323   0.841   4.044   3.575 -2.2381  0.4111 -0.4913
 6501SOL    HW220324   0.932   4.156   3.498  0.3193 -1.1731  0.1100
 6502SOL     OW20325   0.633   4.196   2.650  0.4742 -0.6994  0.2958
 6502SOL    HW120326   0.574   4.273   2.673  1.1710  0.4854 -1.5996
 6502SOL    HW220327   0.725   4.212   2.686  0.0612 -1.8583  1.9951
 6503SOL     OW20328   3.244   4.273   0.985 -0.0819 -0.6106 -0.0344
 6503SOL    HW120329   3.285   4.319   1.063 -0.1978  0.1968 -0.4467
 6503SOL    HW220330   3.226   4.177   1.009 -0.7625 -0.2068  1.1742
 6504SOL     OW20331   6.609   3.137   5.858  0.1527  0.1878 -0.0048
 6504SOL    HW120332   6.666   3.216   5.882  0.7747  0.0457 -0.9197
 6504SOL    HW220333   6.538   3.166   5.794  0.6174 -0.0477 -0.6417
 6505SOL     OW20334   4.943   3.505   3.498  0.7717  0.5732 -0.5859
 6505SOL    HW120335   4.921   3.474   3.590 -1.4331  0.2244 -1.1689
 6505SOL    HW220336   5.041   3.494   3.481  0.8341 -1.6824  0.8468
 6506SOL     OW20337   2.268   0.369   5.102 -0.0428  0.0627  0.1519
 6506SOL    HW120338   2.210   0.369   5.184 -0.0500 -0.2500  0.1474
 6506SOL    HW220339   2.258   0.457   5.055 -2.2142 -0.7300 -1.0295
 6507SOL     OW20340   3.820   4.978   4.427  0.8446 -0.7351  0.5006
 6507SOL    HW120341   3.817   4.972   4.327  1.2054 -1.1563  0.5109
 6507SOL    HW220342   3.727   4.984   4.463  0.6061 -2.4122  0.2308
 6508SOL     OW20343   2.238   6.282   2.949  0.2056  0.1125  0.1764
 6508SOL    HW120344   2.309   6.285   3.019 -0.7010 -0.7581  1.1691
 6508SOL    HW220345   2.151   6.313   2.987 -0.7555 -2.2146  0.0687
 6509SOL     OW20346   1.455   6.397   1.298 -0.5878 -0.0138  0.7039
 6509SOL    HW120347   1.423   6.309   1.333  1.6120 -1.4001 -0.5190
 6509SOL    HW220348   1.529   6.431   1.357 -0.8877  0.6355  0.7141
 6510SOL     OW20349   2.838   2.032   1.821 -0.0047  0.4756 -0.0011
 6510SOL    HW120350   2.760   2.076   1.775 -0.9045  0.7987  1.7528
 6510SOL    HW220351   2.850   2.072   1.911  2.6114  0.8406 -0.4431
 6511SOL     OW20352   0.706   3.903   1.454 -0.7669 -0.4140  0.4220
 6511SOL    HW120353   0.733   3.811   1.426 -0.3879 -0.6064  1.3764
 6511SOL    HW220354   0.611   3.902   1.487 -1.2376 -0.1732 -0.8646
 6512SOL     OW20355   6.920   1.254   6.578 -0.0139 -0.0808 -0.1885
 6512SOL    HW120356   6.920   1.154   6.577  0.4818 -0.0949  0.8075
 6512SOL    HW220357   7.002   1.288   6.533 -0.9601 -0.0761 -2.0138
 6513SOL     OW20358   3.930   5.536   2.108  0.4999 -0.0035  0.5302
 6513SOL    HW120359   3.834   5.563   2.118  0.8063  1.0722  0.7565
 6513SOL    HW220360   3.936   5.448   2.061 -0.5397  0.6439 -0.8855
 6514SOL     OW20361   5.256   1.954   6.576  0.4892  0.0407 -0.1030
 6514SOL    HW120362   5.259   1.859   6.605  0.0436 -0.5362 -1.8362
 6514SOL    HW220363   5.192   2.005   6.635 -0.0781 -0.9731  0.1751
 6515SOL     OW20364   3.349   4.106   6.188  0.5051 -0.2411  0.1381
 6515SOL    HW120365   3.365   4.008   6.200 -0.6252 -0.7762 -2.0972
 6515SOL    HW220366   3.251   4.124   6.190  0.6169  0.5909 -0.8511
 6516SOL     OW20367   0.070   6.589   2.134  0.1504 -0.2298  0.1234
 6516SOL    HW120368   0.022   6.645   2.067  1.7375  0.7390 -0.2648
 6516SOL    HW220369   0.146   6.542   2.090  1.1000  0.2620  1.1740
 6517SOL     OW20370   3.633   4.197   1.927 -0.1903  0.8064 -0.4908
 6517SOL    HW120371   3.591   4.147   2.002 -3.0070  1.1743 -1.6850
 6517SOL    HW220372   3.710   4.250   1.961  0.7180 -1.5959  1.4352
 6518SOL     OW20373   3.098   6.616   2.860 -0.0539 -0.1939 -0.3711
 6518SOL    HW120374   3.112   6.541   2.925  0.8225 -0.5340 -0.9318
 6518SOL    HW220375   3.139   6.699   2.898  0.4135 -0.3794 -0.4548
 6519SOL     OW20376   0.255   3.716   6.990  0.2322  0.6729 -0.3792
 6519SOL    HW120377   0.184   3.779   6.957 -0.1185  1.3573  1.5856
 6519SOL    HW220378   0.343   3.744   6.953 -0.2551  0.8038 -1.5091
 6520SOL     OW20379   0.087   5.403   0.890  0.2236 -0.2033 -0.6366
 6520SOL    HW120380   0.152   5.450   0.951  0.6656 -1.1540 -0.3574
 6520SOL    HW220381   0.138   5.353   0.820 -0.2713  0.4493 -1.4722
 6521SOL     OW20382   4.942   6.097   3.353  0.7962  0.0488 -0.3194
 6521SOL    HW120383   4.910   6.168   3.416  0.7057 -0.7323  0.5333
 6521SOL    HW220384   4.955   6.137   3.262 -0.3130  0.9020 -0.1252
 6522SOL     OW20385   1.930   3.814   4.856  0.1129 -0.3185  0.1563
 6522SOL    HW120386   1.893   3.901   4.823  0.2832  0.3082  1.5268
 6522SOL    HW220387   1.857   3.762   4.900  0.2852 -0.2713  0.5034
 6523SOL     OW20388   2.403   3.049   0.891  0.1531 -0.0963 -0.5935
 6523SOL    HW120389   2.397   2.949   0.891 -1.2330 -0.0431  0.0458
 6523SOL    HW220390   2.486   3.078   0.938  0.0756 -0.9428  0.0883
 6524SOL     OW20391   5.734   3.016   5.609  0.0231  0.6464  0.1915
 6524SOL    HW120392   5.676   3.016   5.528  0.5389  1.3522 -0.1849
 6524SOL    HW220393   5.811   3.078   5.595  0.4201  0.3479  1.0057
 6525SOL     OW20394   4.286   6.093   1.896 -0.3685 -0.5803  0.4375
 6525SOL    HW120395   4.295   6.178   1.949 -0.6174 -0.5159  0.3748
 6525SOL    HW220396   4.299   6.015   1.958 -0.3564 -0.5015  0.5359
 6526SOL     OW20397   5.267   0.050   4.840 -0.2417 -0.0794 -0.4291
 6526SOL    HW120398   5.350  -0.000   4.816 -1.6066 -2.8909  0.3322
 6526SOL    HW220399   5.275   0.085   4.934  0.9590  1.7760 -1.1725
 6527SOL     OW20400   3.662   5.104   1.293  0.0805 -0.0568  0.5541
 6527SOL    HW120401   3.634   5.140   1.204 -0.8263  0.2938  0.9679
 6527SOL    HW220402   3.611   5.020   1.312  0.4516 -0.2637  0.6378
 6528SOL     OW20403   6.285   6.436   6.471 -0.0145 -0.2754  0.3940
 6528SOL    HW120404   6.257   6.363   6.408 -1.1090  0.1269  0.3758
 6528SOL    HW220405   6.354   6.401   6.534 -3.2795 -2.6424  3.0309
 6529SOL     OW20406   6.168   2.696   5.209  0.1887 -0.2205 -0.2223
 6529SOL    HW120407   6.122   2.634   5.273 -2.6425  0.5364 -1.3635
 6529SOL    HW220408   6.260   2.663   5.190 -0.3722 -2.7062  1.0542
 6530SOL     OW20409   5.607   4.179   1.097 -0.3218  0.2021  0.6480
 6530SOL    HW120410   5.592   4.278   1.092 -0.8176  0.1176  0.4298
 6530SOL    HW220411   5.593   4.138   1.007  2.3303  0.2541  0.1358
 6531SOL     OW20412   2.319   5.366   1.314  0.1791 -0.2582  0.1846
 6531SOL    HW120413   2.393   5.341   1.252  0.6460  0.8504  0.2757
 6531SOL    HW220414   2.357   5.412   1.395 -0.5399 -0.4262  0.6301
 6532SOL     OW20415   2.345   2.763   5.527 -0.4289  0.3120 -0.3379
 6532SOL    HW120416   2.362   2.695   5.456 -1.2776 -1.2266  0.8730
 6532SOL    HW220417   2.247   2.769   5.544 -0.2611  0.8934  0.4818
 6533SOL     OW20418   3.902   4.343   5.201 -0.5052  0.5189  0.4922
 6533SOL    HW120419   3.861   4.418   5.252 -1.4945 -0.7018  1.5497
 6533SOL    HW220420   3.849   4.260   5.214 -0.0831 -0.1486 -1.5490
 6534SOL     OW20421   3.538   3.774   0.165  0.7493  0.1251 -0.1030
 6534SOL    HW120422   3.496   3.711   0.230  0.5266 -0.3792 -0.7269
 6534SOL    HW220423   3.573   3.723   0.086  2.0854  0.5861  0.1542
 6535SOL     OW20424   0.645   1.803   0.579 -0.4582  0.6101  0.0242
 6535SOL    HW120425   0.689   1.736   0.639 -0.8592  1.2830  1.0952
 6535SOL    HW220426   0.716   1.858   0.534 -0.1645  1.2683  1.2542
 6536SOL     OW20427   1.252   2.538   5.125 -0.1459 -0.5284  0.1498
 6536SOL    HW120428   1.239   2.510   5.220  0.0949 -2.4303 -0.3468
 6536SOL    HW220429   1.163   2.545   5.080 -0.4150  2.1052  0.9164
 6537SOL     OW20430   2.966   6.482   6.261  0.1363  0.3371 -0.4421
 6537SOL    HW120431   2.941   6.509   6.168 -1.9122 -1.6090 -0.5411
 6537SOL    HW220432   2.965   6.382   6.268  0.2695  0.4425  1.6721
 6538SOL     OW20433   1.137   4.674   5.658  0.7343 -0.6450  0.0625
 6538SOL    HW120434   1.058   4.659   5.717  1.0760 -1.7968  0.2695
 6538SOL    HW220435   1.115   4.741   5.588 -0.5708 -1.2396 -0.1240
 6539SOL     OW20436   0.502   2.451   4.863 -0.6586  0.3048 -0.2488
 6539SOL    HW120437   0.542   2.473   4.952 -0.9224  0.0846 -0.0738
 6539SOL    HW220438   0.514   2.354   4.844 -2.0214  0.0002  0.2868
 6540SOL     OW20439   4.329   6.856   2.283 -0.5653 -0.7494  0.2567
 6540SOL    HW120440   4.344   6.790   2.210  1.3089  0.2268 -0.3134
 6540SOL    HW220441   4.380   6.828   2.364 -0.3221 -0.3562  0.2403
 6541SOL     OW20442   0.761   0.937   1.092  0.6748 -0.3189 -0.7440
 6541SOL    HW120443   0.819   0.891   1.026  0.5375 -0.9369 -0.4426
 6541SOL    HW220444   0.721   0.869   1.154 -1.0899 -0.0301 -1.5019
 6542SOL     OW20445   5.512   3.449   1.858 -0.3425 -0.5714 -0.5311
 6542SOL    HW120446   5.435   3.510   1.842 -0.2362 -0.5824 -1.1083
 6542SOL    HW220447   5.594   3.504   1.876 -0.8275 -0.5299  2.0566
 6543SOL     OW20448   3.685   5.262   3.987  0.0277 -0.4581  0.3986
 6543SOL    HW120449   3.628   5.323   3.933  0.7780 -0.5057 -0.4795
 6543SOL    HW220450   3.761   5.313   4.026  0.7616 -0.8344 -0.4890
 6544SOL     OW20451   5.912   0.315   2.870 -0.2909  0.4810 -0.1768
 6544SOL    HW120452   5.886   0.249   2.941  1.6669 -1.0260 -0.7698
 6544SOL    HW220453   6.003   0.350   2.891 -0.8669  2.2110 -0.4693
 6545SOL     OW20454   5.427   0.765   5.061  0.4854  0.1396  1.0078
 6545SOL    HW120455   5.508   0.755   5.002  0.3291 -1.4667  1.0270
 6545SOL    HW220456   5.346   0.735   5.011 -0.1024  1.6135  1.0370
 6546SOL     OW20457   5.865   2.096   4.832 -0.6272  0.4796  0.8118
 6546SOL    HW120458   5.878   2.192   4.856  1.8697  0.2215  0.6711
 6546SOL    HW220459   5.894   2.082   4.737  1.0991 -0.7948  1.4939
 6547SOL     OW20460   6.382   1.998   1.371  0.6910  0.7171 -0.0237
 6547SOL    HW120461   6.325   2.056   1.312 -0.3912 -0.0377  0.2553
 6547SOL    HW220462   6.469   1.981   1.327  0.2689  0.9626 -0.9740
 6548SOL     OW20463   3.459   3.594   1.241  0.1991  0.8112  0.1234
 6548SOL    HW120464   3.551   3.615   1.275 -0.1472  1.8389  0.4679
 6548SOL    HW220465   3.466   3.539   1.158  1.1839  2.0065 -0.6231
 6549SOL     OW20466   6.585   5.610   1.627 -0.2669  0.0475 -0.4849
 6549SOL    HW120467   6.612   5.683   1.564 -0.0805 -0.7782 -1.3721
 6549SOL    HW220468   6.517   5.645   1.691  1.0164  1.4679  0.1668
 6550SOL     OW20469   1.725   0.784   0.307 -0.1366 -0.7177  0.1995
 6550SOL    HW120470   1.787   0.851   0.266 -0.3044 -0.8229 -0.2341
 6550SOL    HW220471   1.664   0.748   0.237 -2.1430  0.9610  0.9845
 6551SOL     OW20472   1.044   6.288   1.869 -0.1982  0.4343 -0.6712
 6551SOL    HW120473   1.089   6.313   1.955 -1.6746 -0.0436  0.2660
 6551SOL    HW220474   0.981   6.212   1.885 -0.1509  0.0216 -2.2828
 6552SOL     OW20475   0.382   6.581   6.890  0.2614  0.2017 -0.2797
 6552SOL    HW120476   0.298   6.590   6.837 -0.2403 -3.2936 -0.3345
 6552SOL    HW220477   0.458   6.622   6.841 -1.1985  2.5358 -0.6992
 6553SOL     OW20478   1.304   1.527   4.330  0.7370  0.1083 -0.1508
 6553SOL    HW120479   1.242   1.473   4.273  1.8459  0.4046 -1.6828
 6553SOL    HW220480   1.287   1.505   4.426 -0.2948 -1.3658 -0.6280
 6554SOL     OW20481   3.423   0.417   3.507  0.0801  0.1459 -0.5059
 6554SOL    HW120482   3.422   0.512   3.478 -0.7564  0.2844 -0.0548
 6554SOL    HW220483   3.374   0.408   3.594 -1.0064 -0.8978 -1.2004
 6555SOL     OW20484   0.702   0.728   3.845  0.0163 -0.0208  0.0314
 6555SOL    HW120485   0.683   0.649   3.903 -1.9114  0.8340  0.6417
 6555SOL    HW220486   0.617   0.759   3.803  0.6969  1.8346 -0.0540
 6556SOL     OW20487   3.976   0.978   2.104 -0.0147 -0.0752 -0.1070
 6556SOL    HW120488   3.978   1.075   2.083 -1.8731  0.2008  0.8121
 6556SOL    HW220489   3.973   0.965   2.203 -1.1383 -1.0046 -0.2383
 6557SOL     OW20490   3.094   1.777   4.633  0.8613  0.5511 -0.2424
 6557SOL    HW120491   3.013   1.826   4.668  0.4205 -0.5318  0.2995
 6557SOL    HW220492   3.141   1.733   4.710  2.7158  2.1932 -0.3586
 6558SOL     OW20493   2.414   3.267   1.960 -0.7157  0.0174 -0.5763
 6558SOL    HW120494   2.401   3.360   1.925 -0.0814 -0.0890 -1.1019
 6558SOL    HW220495   2.340   3.246   2.024  0.2197  1.6224  1.1380
 6559SOL     OW20496   5.288   5.758   5.353 -0.0325  0.3420 -0.3508
 6559SOL    HW120497   5.270   5.716   5.265 -0.3652  2.1344 -1.1836
 6559SOL    HW220498   5.368   5.715   5.395 -0.9770 -1.8050 -0.6151
 6560SOL     OW20499   5.783   0.205   3.076  0.1213 -0.2791  0.0943
 6560SOL    HW120500   5.806   0.288   3.126 -1.3377 -0.3834  0.9901
 6560SOL    HW220501   5.684   0.191   3.076  0.1111 -0.6486 -2.2982
 6561SOL     OW20502   1.840   3.490   2.169 -0.2249  0.0818  0.3062
 6561SOL    HW120503   1.905   3.487   2.093 -3.7417 -1.4029 -2.9668
 6561SOL    HW220504   1.839   3.402   2.215 -1.7192 -0.9054 -1.4750
 6562SOL     OW20505   3.154   6.211   3.575  0.4770  0.4693  0.6171
 6562SOL    HW120506   3.111   6.133   3.529  1.2069 -0.1760  1.0243
 6562SOL    HW220507   3.238   6.236   3.527  0.5930  0.5769  0.8734
 6563SOL     OW20508   1.012   1.086   4.054 -0.4664 -0.3622 -0.1848
 6563SOL    HW120509   1.050   1.111   3.965 -0.7531 -0.0430 -0.2239
 6563SOL    HW220510   1.024   0.988   4.071 -0.7855 -0.5039 -0.7619
 6564SOL     OW20511   5.554   3.099   6.192  0.1724 -0.2463  0.7020
 6564SOL    HW120512   5.479   3.038   6.167 -0.0716 -0.0414  0.9361
 6564SOL    HW220513   5.591   3.142   6.110  0.4511 -0.8292  0.5166
 6565SOL     OW20514   4.803   2.642   4.029 -0.6136  0.1171 -0.5295
 6565SOL    HW120515   4.742   2.643   4.109 -0.6864 -0.0444 -0.5827
 6565SOL    HW220516   4.794   2.555   3.982  0.9089 -0.5895  0.4168
 6566SOL     OW20517   0.317   0.712   6.955 -0.6538 -0.1285  0.1646
 6566SOL    HW120518   0.343   0.677   7.045 -0.4423 -0.8691 -0.1800
 6566SOL    HW220519   0.264   0.643   6.906  0.5071 -0.3270 -0.8560
 6567SOL     OW20520   6.296   0.615   3.032  0.0414 -0.0917 -0.7806
 6567SOL    HW120521   6.368   0.612   3.101 -0.9384  2.0034  0.4425
 6567SOL    HW220522   6.336   0.632   2.942  1.2052 -1.1537 -0.4907
 6568SOL     OW20523   1.200   2.318   2.735  0.2948 -0.1952  0.0067
 6568SOL    HW120524   1.199   2.229   2.780  0.1825 -0.5966 -0.7612
 6568SOL    HW220525   1.144   2.383   2.786 -1.1551 -1.0769 -0.3990
 6569SOL     OW20526   0.889   1.551   3.285  0.5013 -0.4914 -0.1313
 6569SOL    HW120527   0.853   1.643   3.301  1.8332  0.7067 -3.1455
 6569SOL    HW220528   0.823   1.498   3.232  0.5389 -0.5533 -0.1164
 6570SOL     OW20529   3.698   1.856   3.664  0.0956  0.5223 -0.2798
 6570SOL    HW120530   3.623   1.796   3.691 -0.8121  1.2416 -1.1436
 6570SOL    HW220531   3.750   1.882   3.745 -0.5757  0.0023  0.3343
 6571SOL     OW20532   1.487   4.051   3.225 -0.0573 -0.0059 -0.0579
 6571SOL    HW120533   1.468   4.142   3.262 -0.4312  0.7999 -2.1060
 6571SOL    HW220534   1.568   4.055   3.166 -2.4144  0.0744 -3.5902
 6572SOL     OW20535   1.996   1.486   3.532  0.1148 -0.4431 -0.5459
 6572SOL    HW120536   1.956   1.561   3.584 -1.8260  0.1597 -2.7365
 6572SOL    HW220537   2.007   1.406   3.592  0.3421  0.9294  1.3314
 6573SOL     OW20538   4.694   3.568   2.415  0.2893 -0.4099 -0.1089
 6573SOL    HW120539   4.724   3.662   2.426  0.4920 -0.5164  0.2531
 6573SOL    HW220540   4.615   3.551   2.475  1.6624 -1.1144  1.5735
 6574SOL     OW20541   6.242   0.565   1.178  1.2396 -0.5583  0.6924
 6574SOL    HW120542   6.306   0.556   1.254  0.6879  0.5807  1.3177
 6574SOL    HW220543   6.247   0.658   1.142 -0.3190 -0.3261  0.9981
 6575SOL     OW20544   6.902   5.317   1.087  0.3219 -0.4938  0.3823
 6575SOL    HW120545   6.969   5.346   1.018  1.1946 -1.5572  0.7542
 6575SOL    HW220546   6.943   5.326   1.178 -0.0733 -1.0786  0.6191
 6576SOL     OW20547   3.973   4.547   5.821  0.4177  0.0508 -0.3051
 6576SOL    HW120548   4.039   4.474   5.806 -1.3156 -1.3664 -1.4259
 6576SOL    HW220549   3.898   4.514   5.879 -1.6537  0.0357 -2.7927
 6577SOL     OW20550   4.477   2.846   1.836  0.3020 -0.2976 -0.2509
 6577SOL    HW120551   4.542   2.916   1.866  1.1048 -0.1563 -2.1618
 6577SOL    HW220552   4.399   2.844   1.898  0.2597  2.2790 -0.1105
 6578SOL     OW20553   4.522   5.919   4.494 -0.1121  0.0280  0.2422
 6578SOL    HW120554   4.616   5.883   4.492  0.1896  0.7464  0.8212
 6578SOL    HW220555   4.483   5.915   4.402 -0.2128 -2.0371  0.3221
 6579SOL     OW20556   2.320   4.497   6.958 -0.0525  0.3013 -0.0033
 6579SOL    HW120557   2.327   4.578   6.899  1.8938 -0.2880 -0.6488
 6579SOL    HW220558   2.262   4.429   6.913  1.7462 -0.3111 -1.5250
 6580SOL     OW20559   0.342   3.518   5.627  0.6376 -0.1154 -0.1619
 6580SOL    HW120560   0.252   3.517   5.582  1.3115 -0.0060 -1.5482
 6580SOL    HW220561   0.333   3.559   5.717 -0.5240  0.8584 -0.6957
 6581SOL     OW20562   6.501   3.416   4.172  0.6433 -0.4864  0.1121
 6581SOL    HW120563   6.490   3.497   4.229  2.3543  0.2900 -0.5623
 6581SOL    HW220564   6.577   3.361   4.207 -0.2793 -1.6361  0.3557
 6582SOL     OW20565   6.778   4.992   5.956 -0.2949  0.7535 -0.1465
 6582SOL    HW120566   6.851   5.009   6.022 -0.8299 -0.4648  0.7981
 6582SOL    HW220567   6.818   4.982   5.865  0.9386 -1.3384  0.5516
 6583SOL     OW20568   0.646   1.627   1.664  0.4594  0.1936 -0.2455
 6583SOL    HW120569   0.588   1.674   1.731 -0.4823  0.3079 -1.0998
 6583SOL    HW220570   0.723   1.583   1.710  1.3336  2.4943  0.6075
 6584SOL     OW20571   6.074   4.053   2.349  0.1688  0.5005 -0.7322
 6584SOL    HW120572   6.065   4.116   2.273 -2.4232  1.1394  0.0144
 6584SOL    HW220573   6.038   4.095   2.432 -1.3547 -1.7704 -0.1279
 6585SOL     OW20574   1.355   0.784   0.853 -0.4042  0.7728 -0.8390
 6585SOL    HW120575   1.317   0.746   0.769 -0.7900  0.8262 -0.6933
 6585SOL    HW220576   1.303   0.749   0.931 -0.3869  1.1314 -0.6638
 6586SOL     OW20577   4.910   4.314   3.309 -0.0240  0.5126  0.0045
 6586SOL    HW120578   4.864   4.395   3.271  1.2363  0.8923 -0.7914
 6586SOL    HW220579   4.939   4.255   3.234  0.5423  0.1590  0.5006
 6587SOL     OW20580   2.939   3.771   1.511 -0.3287  0.2066 -0.1108
 6587SOL    HW120581   2.850   3.784   1.467 -1.3323 -3.8721  0.2876
 6587SOL    HW220582   2.933   3.797   1.607  0.0060  3.0535 -0.7639
 6588SOL     OW20583   2.158   4.075   5.586  0.5437  0.8059  0.2152
 6588SOL    HW120584   2.059   4.083   5.574  0.5226 -0.1163 -0.3985
 6588SOL    HW220585   2.184   3.978   5.579  1.4621  1.0227  0.5525
 6589SOL     OW20586   6.504   6.234   0.162 -0.1761  0.3107  0.8641
 6589SOL    HW120587   6.560   6.240   0.245  0.1654  3.2020  0.5428
 6589SOL    HW220588   6.537   6.301   0.095 -1.0003 -1.3479 -1.2932
 6590SOL     OW20589   0.746   6.337   1.986 -0.5867 -0.0067 -0.2040
 6590SOL    HW120590   0.722   6.434   1.993 -1.3353 -0.2163  0.2844
 6590SOL    HW220591   0.694   6.296   1.911  0.9591  0.3108 -1.5156
 6591SOL     OW20592   0.740   6.662   2.418  0.4806  0.2909  0.5392
 6591SOL    HW120593   0.748   6.743   2.477 -1.5912  0.0237  1.2669
 6591SOL    HW220594   0.649   6.660   2.377  0.5841 -1.5510  0.3544
 6592SOL     OW20595   0.702   4.389   0.314 -0.7162 -0.1713 -0.1069
 6592SOL    HW120596   0.734   4.302   0.352 -1.4262 -0.8319 -0.9884
 6592SOL    HW220597   0.723   4.391   0.216 -1.7168  0.1760 -0.3149
 6593SOL     OW20598   3.723   1.628   4.259 -0.2692  0.5022  0.0044
 6593SOL    HW120599   3.670   1.543   4.257  0.0771  0.0841  3.1081
 6593SOL    HW220600   3.807   1.616   4.207 -0.8732 -0.5590 -0.7631
 6594SOL     OW20601   2.761   5.597   1.638 -0.1721 -0.1641  0.1450
 6594SOL    HW120602   2.766   5.522   1.704 -2.3161 -0.9841 -0.5285
 6594SOL    HW220603   2.665   5.620   1.620  0.2458 -0.3661 -3.0714
 6595SOL     OW20604   2.817   5.116   6.442  0.0281 -0.1532 -0.3367
 6595SOL    HW120605   2.833   5.077   6.533 -0.5574  0.9877  0.2813
 6595SOL    HW220606   2.743   5.183   6.447  0.0442 -0.0052 -1.6484
 6596SOL     OW20607   5.518   5.981   4.057  0.0919  0.3168 -0.1132
 6596SOL    HW120608   5.488   6.064   4.011 -1.5962 -0.0464  0.2444
 6596SOL    HW220609   5.517   5.904   3.993  0.9786  0.4317 -0.2732
 6597SOL     OW20610   1.765   6.752   4.858 -0.2110 -0.3524  0.3269
 6597SOL    HW120611   1.750   6.653   4.855 -3.7443 -0.0543  2.0926
 6597SOL    HW220612   1.755   6.789   4.766 -0.8143 -1.4794 -0.0907
 6598SOL     OW20613   5.771   1.694   1.949  0.1202  0.4612  0.4196
 6598SOL    HW120614   5.868   1.685   1.928  0.3734  0.2647  1.6028
 6598SOL    HW220615   5.757   1.682   2.047 -1.1041  0.4901  0.2623
 6599SOL     OW20616   0.469   4.184   3.659 -0.1943  0.4082  0.1486
 6599SOL    HW120617   0.539   4.199   3.589 -0.4229 -0.7884 -0.3827
 6599SOL    HW220618   0.512   4.161   3.746  0.0950 -0.5293 -0.2263
 6600SOL     OW20619   6.711   2.120   6.141 -0.4941 -0.5039 -0.2312
 6600SOL    HW120620   6.742   2.025   6.149  0.8083 -0.0801 -0.0097
 6600SOL    HW220621   6.637   2.136   6.206 -0.6305 -1.3317 -0.1691
 6601SOL     OW20622   0.646   5.081   6.738 -0.6741 -0.1822  0.1978
 6601SOL    HW120623   0.589   5.033   6.672  0.3729 -0.2242 -0.6973
 6601SOL    HW220624   0.592   5.152   6.783 -1.7186 -0.9481  0.1792
 6602SOL     OW20625   6.788   1.798   3.512 -0.1859 -0.1209 -0.1211
 6602SOL    HW120626   6.694   1.779   3.541  0.1570  0.4735  1.4584
 6602SOL    HW220627   6.849   1.729   3.549  0.0206 -0.5034 -1.1428
 6603SOL     OW20628   6.831   4.738   2.280 -0.1206 -0.0765 -0.0279
 6603SOL    HW120629   6.830   4.763   2.377  0.7374 -0.0922 -0.0092
 6603SOL    HW220630   6.813   4.640   2.271 -0.7610  0.0274  0.0725
 6604SOL     OW20631   5.728   2.030   4.259  0.2097  0.7016 -0.3372
 6604SOL    HW120632   5.789   2.051   4.182  0.8074 -0.5406 -0.2415
 6604SOL    HW220633   5.677   1.947   4.239  1.4795 -0.5199  1.1662
 6605SOL     OW20634   5.313   1.900   4.078 -0.0502  1.0256  0.2012
 6605SOL    HW120635   5.283   1.935   3.989 -1.3132 -2.0559 -0.7309
 6605SOL    HW220636   5.237   1.905   4.143  0.5101  2.1800  0.7901
 6606SOL     OW20637   6.920   2.585   6.060 -0.3363 -0.4492 -0.2573
 6606SOL    HW120638   6.884   2.668   6.017 -0.1501 -0.0554  0.3345
 6606SOL    HW220639   6.961   2.526   5.991  0.3917  0.3982 -0.5658
 6607SOL     OW20640   0.619   6.938   2.896  0.2892 -0.4693  0.1057
 6607SOL    HW120641   0.589   6.855   2.943 -2.5067  0.6164  0.4432
 6607SOL    HW220642   0.680   6.990   2.956  0.1127 -1.1034  0.8527
 6608SOL     OW20643   0.911   0.618   1.094  0.1750 -0.2099 -0.1838
 6608SOL    HW120644   0.955   0.532   1.120 -0.3953 -0.1412  1.1251
 6608SOL    HW220645   0.832   0.599   1.035 -0.6711 -0.7250  1.0553
 6609SOL     OW20646   5.948   3.374   2.878  0.4644 -0.3581 -0.0252
 6609SOL    HW120647   5.948   3.389   2.779 -0.9403 -0.0055  0.0036
 6609SOL    HW220648   5.879   3.306   2.901 -1.1214  1.4824  0.9317
 6610SOL     OW20649   2.458   4.699   0.837 -0.0383  0.1624  0.5708
 6610SOL    HW120650   2.516   4.780   0.844 -1.1712  1.0078  0.3418
 6610SOL    HW220651   2.498   4.634   0.772 -0.5145  1.7593 -1.3918
 6611SOL     OW20652   5.174   6.045   3.955 -0.0431 -0.0044 -0.5327
 6611SOL    HW120653   5.137   6.073   3.866 -2.6969 -1.8143 -0.1031
 6611SOL    HW220654   5.250   5.982   3.942 -0.4689 -0.3259 -1.5240
 6612SOL     OW20655   5.775   1.221   6.505 -0.0981 -0.2325  0.5169
 6612SOL    HW120656   5.687   1.219   6.553 -0.2195  2.0779  0.4959
 6612SOL    HW220657   5.758   1.223   6.407  0.1331 -3.6057  0.2732
 6613SOL     OW20658   5.289   1.158   5.889 -0.0526  0.1856 -0.2401
 6613SOL    HW120659   5.225   1.185   5.818 -0.5401  1.2928  0.5761
 6613SOL    HW220660   5.325   1.241   5.934  0.6844 -0.4656  0.4050
 6614SOL     OW20661   1.566   2.171   6.604 -0.2521 -0.4202  0.2036
 6614SOL    HW120662   1.561   2.071   6.595 -0.0987 -0.4391  0.3231
 6614SOL    HW220663   1.654   2.196   6.644  0.1845 -0.1695 -0.8697
 6615SOL     OW20664   4.853   1.673   6.193  0.0770  0.1138 -0.1913
 6615SOL    HW120665   4.892   1.737   6.259 -1.5030  3.0219 -1.8863
 6615SOL    HW220666   4.855   1.714   6.101 -1.0807 -2.2730 -1.3695
 6616SOL     OW20667   2.152   1.220   4.438 -0.1522  0.1811 -0.1645
 6616SOL    HW120668   2.122   1.307   4.397 -3.4832 -0.9779 -0.4965
 6616SOL    HW220669   2.106   1.208   4.526  1.7901 -0.4187  0.8182
 6617SOL     OW20670   0.775   5.003   2.935 -0.1612  0.4643 -0.5961
 6617SOL    HW120671   0.789   5.047   3.024  1.0470 -2.2721  0.6968
 6617SOL    HW220672   0.864   4.980   2.895 -0.6909  1.6599 -2.5779
 6618SOL     OW20673   4.881   5.226   6.639  0.2599  0.2122  0.3569
 6618SOL    HW120674   4.920   5.315   6.618  0.7137 -0.3952 -1.7029
 6618SOL    HW220675   4.950   5.155   6.623 -1.1416 -0.7746 -1.9087
 6619SOL     OW20676   6.983   3.922   6.429  0.1748 -0.0962  0.9745
 6619SOL    HW120677   6.936   3.994   6.480 -0.7612  1.4307 -1.8311
 6619SOL    HW220678   6.931   3.837   6.434 -0.7506  0.4773  1.1696
 6620SOL     OW20679   1.113   1.023   1.837  0.7191 -0.1314  0.0202
 6620SOL    HW120680   1.015   1.024   1.852  0.6373 -0.8285 -0.4552
 6620SOL    HW220681   1.138   0.944   1.782  1.5728 -0.0788  0.3136
 6621SOL     OW20682   0.034   2.151   6.092 -0.1731 -0.3756  0.0894
 6621SOL    HW120683  -0.043   2.091   6.112 -0.7403  0.3703  0.2008
 6621SOL    HW220684   0.117   2.097   6.081 -1.0878 -1.4785 -2.2806
 6622SOL     OW20685   5.916   0.824   6.578  0.1022 -1.0649  0.4987
 6622SOL    HW120686   5.923   0.798   6.482  0.1479  1.2716 -0.2007
 6622SOL    HW220687   5.969   0.908   6.593 -1.5500 -0.2594  2.1039
 6623SOL     OW20688   1.653   3.150   0.070 -0.2768  0.3404  0.0524
 6623SOL    HW120689   1.611   3.073   0.021 -0.2625  0.3660 -0.0000
 6623SOL    HW220690   1.686   3.118   0.159  2.2761 -0.4089 -1.0738
 6624SOL     OW20691   3.432   0.743   1.020 -0.0019  0.6813 -0.3933
 6624SOL    HW120692   3.522   0.760   0.978 -0.3597  0.5256 -1.2400
 6624SOL    HW220693   3.385   0.671   0.970 -0.0349 -0.2519  0.9084
 6625SOL     OW20694   4.820   3.246   0.402 -0.2263 -0.5278 -0.7282
 6625SOL    HW120695   4.910   3.241   0.360  0.6413 -0.8831  1.1042
 6625SOL    HW220696   4.780   3.336   0.384  1.2784  0.3048 -0.0364
 6626SOL     OW20697   5.152   2.775   2.854 -0.2561 -0.3065 -0.0018
 6626SOL    HW120698   5.248   2.753   2.875 -0.4803  0.7225  2.5020
 6626SOL    HW220699   5.109   2.697   2.808  1.0818 -1.8416  1.2237
 6627SOL     OW20700   4.841   1.536   2.254 -0.3041  0.1146 -0.1502
 6627SOL    HW120701   4.753   1.514   2.296 -0.7468 -0.4893 -1.3452
 6627SOL    HW220702   4.831   1.538   2.155  1.8381 -4.2479 -0.7279
 6628SOL     OW20703   2.818   2.721   5.330  0.6597  0.8473 -0.1182
 6628SOL    HW120704   2.736   2.702   5.385  0.8533 -0.2360 -0.1826
 6628SOL    HW220705   2.867   2.799   5.370 -0.1444  1.2079  0.1956
 6629SOL     OW20706   5.599   0.044   2.479 -0.1197  0.5682 -0.2060
 6629SOL    HW120707   5.670   0.100   2.437  0.8556 -1.0528 -0.8271
 6629SOL    HW220708   5.512   0.093   2.479  0.5251  1.7561 -1.3780
 6630SOL     OW20709   6.286   0.261   2.563  0.2206  0.4418  0.1052
 6630SOL    HW120710   6.345   0.196   2.611  0.1895  0.7987  0.6455
 6630SOL    HW220711   6.331   0.351   2.562  0.1223  0.4861 -0.3493
 6631SOL     OW20712   0.282   0.960   2.049  0.2347 -0.4026 -0.0017
 6631SOL    HW120713   0.329   0.883   2.092 -1.3327 -1.8957 -0.8098
 6631SOL    HW220714   0.340   0.999   1.977  0.4757 -1.8410 -0.6198
 6632SOL     OW20715   6.986   4.636   1.740 -0.2013 -0.2191 -0.3226
 6632SOL    HW120716   7.042   4.714   1.712 -0.3806  0.2325  0.5501
 6632SOL    HW220717   7.019   4.553   1.694  0.0047  0.3595 -1.2388
 6633SOL     OW20718   6.916   0.212   5.600 -0.5242 -0.1244 -0.5471
 6633SOL    HW120719   6.965   0.214   5.513  0.8887  0.3748  0.2262
 6633SOL    HW220720   6.953   0.138   5.657 -0.3543  0.5350  0.2179
 6634SOL     OW20721   3.056   2.203   1.410  0.1073 -0.2125 -0.1261
 6634SOL    HW120722   2.994   2.282   1.412  0.3491 -0.0250 -0.0121
 6634SOL    HW220723   3.143   2.230   1.369  0.0694 -0.5096 -0.4103
 6635SOL     OW20724   2.361   1.793   0.971  0.2575  0.0646  0.1352
 6635SOL    HW120725   2.308   1.802   1.055  1.0378  0.3793  0.6094
 6635SOL    HW220726   2.396   1.882   0.943 -0.3164  0.0271 -0.7496
 6636SOL     OW20727   4.187   2.332   0.577 -0.3278 -0.4777 -0.4894
 6636SOL    HW120728   4.174   2.416   0.524  1.4970 -0.6048 -1.1739
 6636SOL    HW220729   4.146   2.255   0.528  0.4184 -0.4213 -1.2195
 6637SOL     OW20730   6.548   4.963   5.711  0.5149 -0.4511 -0.6037
 6637SOL    HW120731   6.644   4.958   5.687  0.5553 -1.9080 -0.2335
 6637SOL    HW220732   6.535   4.934   5.806 -0.4603 -2.1737 -1.1996
 6638SOL     OW20733   3.111   6.991   0.731  1.0494 -0.0123  0.3197
 6638SOL    HW120734   3.053   7.068   0.705  2.1154  0.1992 -1.6957
 6638SOL    HW220735   3.068   6.905   0.702  1.0827  0.0329  0.1360
 6639SOL     OW20736   3.705   2.154   5.628  0.3127  0.0082 -0.3753
 6639SOL    HW120737   3.725   2.068   5.582  1.2178  0.9389 -1.8232
 6639SOL    HW220738   3.640   2.207   5.573  0.8146  0.8244 -0.2068
 6640SOL     OW20739   3.375   6.055   0.314  0.0692  0.3890  0.2808
 6640SOL    HW120740   3.311   6.131   0.303 -3.4634 -2.0821  1.9227
 6640SOL    HW220741   3.359   5.988   0.242  2.9489  0.9233 -0.9866
 6641SOL     OW20742   1.626   5.820   3.581 -0.0822  0.2602 -0.2185
 6641SOL    HW120743   1.538   5.780   3.556 -0.8068  1.6862 -0.0855
 6641SOL    HW220744   1.686   5.823   3.500  0.1275 -1.3547 -0.1475
 6642SOL     OW20745   0.633   4.159   5.830 -0.4382 -0.0040 -0.2527
 6642SOL    HW120746   0.727   4.190   5.845 -0.8232  1.7484 -1.1988
 6642SOL    HW220747   0.621   4.137   5.733 -1.2240  0.5879 -0.2938
 6643SOL     OW20748   3.148   3.892   1.333  0.5882 -0.3113  0.3710
 6643SOL    HW120749   3.078   3.870   1.401  1.8363  0.2584  1.8950
 6643SOL    HW220750   3.149   3.820   1.263 -2.8027  0.6270 -0.8349
 6644SOL     OW20751   0.411   5.060   6.555  0.2572  0.2844  0.5914
 6644SOL    HW120752   0.317   5.026   6.543 -0.3479  2.2614 -0.6270
 6644SOL    HW220753   0.474   5.003   6.502 -0.7749  1.1061 -1.6530
 6645SOL     OW20754   3.058   4.454   5.844 -0.0126  0.1556 -0.1259
 6645SOL    HW120755   3.071   4.549   5.819 -0.8154  0.3564  0.1788
 6645SOL    HW220756   2.961   4.437   5.863  0.3002 -0.4237  1.0296
 6646SOL     OW20757   5.019   2.988   2.758  0.2601 -0.3718 -0.1001
 6646SOL    HW120758   5.069   2.916   2.807 -0.6162 -0.9648 -0.0546
 6646SOL    HW220759   4.951   2.947   2.698 -0.1145  0.4191 -0.2314
 6647SOL     OW20760   3.421   5.689   1.011 -0.1733  0.2347  0.2021
 6647SOL    HW120761   3.460   5.777   1.041 -0.6368 -0.1810  2.1916
 6647SOL    HW220762   3.389   5.638   1.091 -2.1250 -0.7144 -1.0914
 6648SOL     OW20763   4.049   4.120   5.351 -0.0742 -0.0144  0.1275
 6648SOL    HW120764   4.119   4.189   5.332  0.3752 -0.7850 -1.1378
 6648SOL    HW220765   4.023   4.075   5.266 -1.1643 -0.6503  0.7775
 6649SOL     OW20766   2.211   2.267   2.773 -0.0655 -0.1828 -0.1346
 6649SOL    HW120767   2.270   2.339   2.810  0.3570 -0.8818  0.5757
 6649SOL    HW220768   2.250   2.234   2.687  0.5657 -0.6057  0.3038
 6650SOL     OW20769   1.929   2.760   5.783  0.6899  0.0527 -1.1098
 6650SOL    HW120770   1.912   2.849   5.741  1.5369  1.9552  2.2472
 6650SOL    HW220771   1.842   2.710   5.792 -0.2710  1.7679 -0.4920
 6651SOL     OW20772   4.057   0.870   1.869  0.3355  0.0352 -0.0803
 6651SOL    HW120773   4.048   0.892   1.966  0.9017  1.6480 -0.3605
 6651SOL    HW220774   4.007   0.938   1.815  2.5831  1.0352 -1.0300
 6652SOL     OW20775   2.502   3.197   6.210 -0.2986  0.0608  0.0324
 6652SOL    HW120776   2.418   3.148   6.233  1.0520 -1.4872  1.9911
 6652SOL    HW220777   2.548   3.227   6.294  0.4719  2.0629 -1.0301
 6653SOL     OW20778   0.509   2.739   2.731  0.1362 -0.0712  0.7655
 6653SOL    HW120779   0.487   2.822   2.782  0.7510  0.5194  0.0963
 6653SOL    HW220780   0.599   2.705   2.760 -0.3832 -0.8593  1.4753
 6654SOL     OW20781   5.841   1.352   3.950  0.2163 -0.2413 -0.0763
 6654SOL    HW120782   5.823   1.318   3.857 -1.9427  1.4652 -0.3670
 6654SOL    HW220783   5.754   1.359   3.999  1.3161 -1.0314  2.0878
 6655SOL     OW20784   3.263   6.584   6.680 -0.4774  1.0093  0.6088
 6655SOL    HW120785   3.185   6.531   6.646  1.4167 -0.9641 -0.8828
 6655SOL    HW220786   3.271   6.669   6.627 -0.8797  0.6135 -0.1068
 6656SOL     OW20787   3.950   1.459   3.255  0.1001  0.2495 -0.3812
 6656SOL    HW120788   3.960   1.529   3.326 -0.5052 -1.3646  1.3863
 6656SOL    HW220789   4.001   1.377   3.282 -0.4196 -0.5214 -1.6624
 6657SOL     OW20790   5.110   5.982   5.911 -0.0055  0.2940  0.6480
 6657SOL    HW120791   5.055   5.908   5.873  0.5240  0.1701  0.0999
 6657SOL    HW220792   5.185   5.943   5.965 -2.0154  0.4656  3.7799
 6658SOL     OW20793   3.925   1.708   6.479 -0.0273  0.1299  0.1480
 6658SOL    HW120794   3.950   1.725   6.384  0.9883 -2.3189 -0.1108
 6658SOL    HW220795   3.851   1.769   6.506  1.5644  2.9009 -1.2738
 6659SOL     OW20796   5.910   5.798   6.378  0.2663  0.0652 -0.3682
 6659SOL    HW120797   5.868   5.888   6.391 -2.2356 -0.9905 -0.5721
 6659SOL    HW220798   5.923   5.755   6.467  0.9126  0.3745 -0.3077
 6660SOL     OW20799   0.649   2.392   6.155 -0.1156 -0.3269  0.4833
 6660SOL    HW120800   0.728   2.442   6.120 -0.3390  0.2977  0.8582
 6660SOL    HW220801   0.565   2.441   6.130 -0.3748 -0.8713  0.2732
 6661SOL     OW20802   5.996   4.482   4.625  0.4404  0.1997  0.3063
 6661SOL    HW120803   5.950   4.443   4.545  0.8877 -1.4676  0.8150
 6661SOL    HW220804   6.001   4.581   4.616  2.4614 -0.0490 -2.8289
 6662SOL     OW20805   5.477   6.159   6.183 -0.0999  0.2418 -0.1355
 6662SOL    HW120806   5.390   6.205   6.197  0.6714  2.1825 -1.3461
 6662SOL    HW220807   5.540   6.220   6.135  1.6718 -1.3926 -0.0152
 6663SOL     OW20808   5.654   2.080   2.347  0.0547  0.7418  0.6538
 6663SOL    HW120809   5.605   2.116   2.267  1.9886  1.4944 -0.2454
 6663SOL    HW220810   5.693   1.990   2.323  1.7657  1.5530  0.2378
 6664SOL     OW20811   3.094   3.040   1.273 -0.5366 -0.1212 -0.1598
 6664SOL    HW120812   3.111   3.026   1.370  2.7819  0.7488 -0.4947
 6664SOL    HW220813   3.116   3.135   1.248 -1.0048 -0.4134 -1.8092
 6665SOL     OW20814   4.466   1.935   4.317  0.2656  0.1932 -0.3770
 6665SOL    HW120815   4.401   1.950   4.391 -0.5547 -1.2559 -0.7703
 6665SOL    HW220816   4.555   1.908   4.354  0.1120  0.3503  0.1034
 6666SOL     OW20817   4.370   3.814   0.386  0.6390 -0.5828  0.0606
 6666SOL    HW120818   4.442   3.806   0.455 -0.7295  0.9913  1.7761
 6666SOL    HW220819   4.294   3.754   0.410  0.0278  0.1952  0.0652
 6667SOL     OW20820   6.664   0.096   2.397  0.2544 -0.0396  0.0264
 6667SOL    HW120821   6.648   0.125   2.302  0.8204  0.0570 -0.0388
 6667SOL    HW220822   6.654  -0.004   2.403  4.3885 -0.6724 -1.0482
 6668SOL     OW20823   1.359   5.455   6.670 -0.2313 -0.3275  1.0456
 6668SOL    HW120824   1.426   5.529   6.679  0.0555 -0.1290 -1.8144
 6668SOL    HW220825   1.284   5.471   6.734 -0.0044  2.2651  0.7695
 6669SOL     OW20826   5.178   3.440   2.516  0.1884 -0.6020 -0.0483
 6669SOL    HW120827   5.155   3.439   2.613  0.3705  0.1959  0.0113
 6669SOL    HW220828   5.188   3.346   2.483 -0.7923 -0.8939  0.4747
 6670SOL     OW20829   5.111   1.173   2.471 -0.0922  0.3265 -0.2674
 6670SOL    HW120830   5.031   1.174   2.531  0.8058  1.5073  0.9891
 6670SOL    HW220831   5.093   1.231   2.391  0.0369  1.9316  0.8147
 6671SOL     OW20832   6.990   6.122   3.745 -0.2531 -0.0917 -0.5342
 6671SOL    HW120833   6.913   6.063   3.724  0.1353 -0.5145 -0.7882
 6671SOL    HW220834   7.022   6.168   3.662  1.2340 -1.7079 -0.9139
 6672SOL     OW20835   3.540   5.774   6.291 -0.0653 -0.5318  0.0906
 6672SOL    HW120836   3.591   5.697   6.253  0.3392 -0.1561 -0.1410
 6672SOL    HW220837   3.603   5.835   6.339 -0.2512  0.0676 -0.4094
 6673SOL     OW20838   0.203   0.024   5.021 -0.1044  0.0800  0.2581
 6673SOL    HW120839   0.302   0.019   5.008 -0.1302 -0.2812  0.1840
 6673SOL    HW220840   0.173  -0.051   5.079 -0.4371 -0.2808 -0.3692
 6674SOL     OW20841   5.801   1.744   5.430 -0.1745 -0.5265  0.3511
 6674SOL    HW120842   5.807   1.820   5.366 -0.6880 -1.1539 -0.4576
 6674SOL    HW220843   5.706   1.733   5.460 -0.0518 -0.6663  0.6886
 6675SOL     OW20844   3.661   4.014   5.493 -0.1587  0.5176 -0.3336
 6675SOL    HW120845   3.753   3.982   5.516  1.0823  0.8009 -4.0974
 6675SOL    HW220846   3.641   4.099   5.541  0.4750 -0.7617  2.3822
 6676SOL     OW20847   0.779   0.554   0.561  0.5402 -0.4001 -0.3235
 6676SOL    HW120848   0.844   0.567   0.487  0.0156 -1.8213 -1.0726
 6676SOL    HW220849   0.691   0.596   0.536  0.3217 -0.9995 -0.5924
 6677SOL     OW20850   0.045   2.622   2.416  0.1274  0.8656  0.6888
 6677SOL    HW120851  -0.014   2.666   2.347  0.8267 -1.6626 -1.6791
 6677SOL    HW220852   0.010   2.530   2.435  2.2921 -0.0350  0.5322
 6678SOL     OW20853   3.808   3.797   5.331 -0.6008  0.0774  0.0720
 6678SOL    HW120854   3.731   3.760   5.383 -1.3608  0.4127 -0.7900
 6678SOL    HW220855   3.836   3.731   5.261 -0.9241  0.4600 -0.4265
 6679SOL     OW20856   1.708   6.141   3.449 -0.0278 -0.0289 -0.0094
 6679SOL    HW120857   1.782   6.076   3.464 -0.7888 -1.6719 -2.5798
 6679SOL    HW220858   1.745   6.225   3.408  0.4833 -0.7375 -1.0460
 6680SOL     OW20859   0.690   2.416   5.607  0.2984 -0.1885 -0.0408
 6680SOL    HW120860   0.722   2.469   5.528 -0.3014  0.9510  0.4452
 6680SOL    HW220861   0.747   2.335   5.618 -0.1478 -0.8683 -2.1775
 6681SOL     OW20862   0.478   1.426   6.020  0.0266 -0.1791  0.2338
 6681SOL    HW120863   0.388   1.410   6.060 -0.5238 -1.4343 -1.3472
 6681SOL    HW220864   0.529   1.340   6.020  0.9547  0.3617  0.4591
 6682SOL     OW20865   4.582   0.164   6.741  0.6631  0.2390  0.1755
 6682SOL    HW120866   4.533   0.155   6.828 -0.0738 -1.8633 -0.3886
 6682SOL    HW220867   4.671   0.119   6.749  0.2410 -0.7092 -0.3936
 6683SOL     OW20868   2.857   2.703   6.210 -0.0958  0.6595 -0.3405
 6683SOL    HW120869   2.784   2.711   6.277  1.3582 -2.5302  1.8778
 6683SOL    HW220870   2.945   2.696   6.257  1.1568 -0.2232 -2.6366
 6684SOL     OW20871   5.070   5.734   4.408  0.0330 -0.3669 -0.3758
 6684SOL    HW120872   4.981   5.749   4.450  0.1297 -0.8457 -0.0002
 6684SOL    HW220873   5.080   5.796   4.330 -0.5087 -0.1078 -0.2466
 6685SOL     OW20874   0.905   6.704   6.066  0.0713  0.1307 -0.0507
 6685SOL    HW120875   0.917   6.606   6.079 -0.4719  0.1567  0.7019
 6685SOL    HW220876   0.923   6.727   5.970  3.0627 -0.2605  0.3113
 6686SOL     OW20877   1.336   6.347   0.570  0.6958 -0.7849  0.2285
 6686SOL    HW120878   1.407   6.416   0.554  1.0347 -1.0317  0.6260
 6686SOL    HW220879   1.365   6.260   0.532 -0.2935 -0.4291 -1.4063
 6687SOL     OW20880   1.420   0.062   5.758 -0.3727  0.2536 -0.2744
 6687SOL    HW120881   1.384   0.080   5.849 -0.5397 -0.0722 -0.2768
 6687SOL    HW220882   1.378   0.124   5.692  0.8388  1.5315  0.0916
 6688SOL     OW20883   3.349   5.459   2.267  0.4844  0.4065 -0.2071
 6688SOL    HW120884   3.338   5.382   2.330  0.9876 -0.4468 -1.1262
 6688SOL    HW220885   3.393   5.427   2.183 -0.3417  1.4672 -1.0769
 6689SOL     OW20886   0.025   3.278   0.339  0.3971 -1.1410  0.1469
 6689SOL    HW120887   0.081   3.304   0.260 -0.5172  0.5365 -0.0001
 6689SOL    HW220888  -0.058   3.231   0.307 -0.0830 -0.2625  0.0572
 6690SOL     OW20889   0.003   0.229   3.528  0.0349  0.0344  0.3942
 6690SOL    HW120890  -0.012   0.326   3.548 -1.3177  0.3950 -1.9910
 6690SOL    HW220891   0.072   0.192   3.591 -1.0143  1.9274  2.8391
 6691SOL     OW20892   5.000   1.900   4.702  0.6936  0.0193 -0.1430
 6691SOL    HW120893   5.088   1.929   4.664  0.5424  0.6958  0.0152
 6691SOL    HW220894   4.999   1.800   4.709  1.8207  0.0509  0.7566
 6692SOL     OW20895   4.609   4.440   6.252  0.2808 -0.1558 -0.5311
 6692SOL    HW120896   4.587   4.533   6.281  2.6144  0.4394 -0.5104
 6692SOL    HW220897   4.533   4.379   6.277 -0.1093  1.2369  2.0491
 6693SOL     OW20898   6.084   6.726   4.937 -0.0504  0.2152 -0.5466
 6693SOL    HW120899   6.122   6.677   4.859  1.5508  0.0120  0.3397
 6693SOL    HW220900   6.149   6.725   5.013 -2.0086 -0.5608  1.2115
 6694SOL     OW20901   3.083   5.822   6.812  0.7201  0.1623 -0.0134
 6694SOL    HW120902   3.153   5.779   6.870  0.9174  2.3490  1.5018
 6694SOL    HW220903   3.032   5.889   6.866 -1.0324  0.2643 -1.6917
 6695SOL     OW20904   0.752   6.939   4.585  0.4765 -0.2388 -0.4975
 6695SOL    HW120905   0.730   6.967   4.492  0.2557  1.1194 -0.0544
 6695SOL    HW220906   0.804   7.012   4.630  1.1638 -1.1582  0.2290
 6696SOL     OW20907   4.620   3.885   2.155 -0.0317  0.3875  0.0015
 6696SOL    HW120908   4.546   3.835   2.199  0.6040 -0.9483 -0.3870
 6696SOL    HW220909   4.583   3.950   2.089 -0.9261  1.3852  1.4229
 6697SOL     OW20910   6.215   4.617   1.477  0.1396  0.3921 -0.1212
 6697SOL    HW120911   6.135   4.677   1.479 -0.3787 -0.1569 -1.9829
 6697SOL    HW220912   6.298   4.672   1.473 -0.2539  0.9825 -0.2614
 6698SOL     OW20913   5.101   0.864   5.529 -0.0945 -0.3420  0.1896
 6698SOL    HW120914   5.111   0.845   5.431 -0.6036 -3.0223  0.5669
 6698SOL    HW220915   5.015   0.912   5.545 -1.7272 -2.8583 -0.4521
 6699SOL     OW20916   3.532   5.952   4.582  0.0972  0.6205 -0.3592
 6699SOL    HW120917   3.503   5.858   4.600  1.0050  0.4643  0.3675
 6699SOL    HW220918   3.484   5.987   4.501  0.8669 -1.0062 -1.5819
 6700SOL     OW20919   6.270   4.423   0.375  0.3062  0.2919  0.2642
 6700SOL    HW120920   6.211   4.430   0.456  1.0362 -1.2867  0.9687
 6700SOL    HW220921   6.335   4.500   0.375  0.9374 -0.2024  1.7414
 6701SOL     OW20922   6.907   6.230   1.944 -0.0377  0.0346  0.1323
 6701SOL    HW120923   6.984   6.172   1.972  0.1348  0.0205 -0.3551
 6701SOL    HW220924   6.892   6.301   2.012  1.7281  1.3032 -0.7360
 6702SOL     OW20925   1.108   0.754   5.590  0.2479  0.2091 -0.1729
 6702SOL    HW120926   1.123   0.789   5.497 -0.3721 -0.4071 -0.5141
 6702SOL    HW220927   1.018   0.711   5.595  0.9769 -1.3342  0.2215
 6703SOL     OW20928   0.797   2.010   6.190  0.5496 -0.6248 -0.1291
 6703SOL    HW120929   0.845   1.992   6.276  0.7191  0.0815 -0.0751
 6703SOL    HW220930   0.861   2.008   6.114  1.2204  2.8063  0.1859
 6704SOL     OW20931   0.588   4.058   0.506  0.3675 -0.3948  0.1480
 6704SOL    HW120932   0.636   3.971   0.496  1.3430  0.1743 -0.3820
 6704SOL    HW220933   0.511   4.062   0.443 -0.1800 -1.1822  0.7494
 6705SOL     OW20934   3.439   0.441   5.916 -0.0555 -0.4902 -0.0388
 6705SOL    HW120935   3.484   0.489   5.841 -0.6528  0.5132  0.2277
 6705SOL    HW220936   3.340   0.456   5.910 -0.3106 -2.0583 -0.1986
 6706SOL     OW20937   2.213   3.809   4.870 -0.0778  0.1676 -0.1473
 6706SOL    HW120938   2.202   3.839   4.965 -0.6734 -2.0631  0.5492
 6706SOL    HW220939   2.127   3.825   4.821 -0.2075  0.1138  0.0579
 6707SOL     OW20940   2.396   0.105   5.436 -0.4979  0.5716 -0.2239
 6707SOL    HW120941   2.488   0.078   5.465 -0.9133 -1.4604 -0.6519
 6707SOL    HW220942   2.385   0.203   5.449  1.0480  0.5572  1.7077
 6708SOL     OW20943   6.765   3.362   5.887  0.4800 -0.2372  0.8325
 6708SOL    HW120944   6.857   3.399   5.874  0.5621 -1.0765 -1.5129
 6708SOL    HW220945   6.700   3.415   5.832 -0.2527 -0.3363  1.5961
 6709SOL     OW20946   3.699   1.879   5.522 -0.2787  0.0551 -0.3292
 6709SOL    HW120947   3.615   1.845   5.481 -0.4778  0.2679 -0.1033
 6709SOL    HW220948   3.767   1.806   5.527 -0.8463 -0.4346  0.5392
 6710SOL     OW20949   5.853   6.127   2.876  0.0312  0.3985 -0.4094
 6710SOL    HW120950   5.927   6.069   2.842 -1.3822 -1.2222 -0.8676
 6710SOL    HW220951   5.891   6.196   2.937  1.9307 -0.2738 -0.7491
 6711SOL     OW20952   5.612   2.053   6.782  0.2908 -0.7252 -0.0882
 6711SOL    HW120953   5.629   2.139   6.830 -1.0984 -0.7717  0.5343
 6711SOL    HW220954   5.630   1.976   6.844 -0.1713 -0.8295 -0.0830
 6712SOL     OW20955   4.915   1.941   6.304 -0.6354  0.3884 -0.2962
 6712SOL    HW120956   4.860   1.987   6.235  0.9548  2.5294 -0.2287
 6712SOL    HW220957   4.993   1.998   6.329  2.0547 -2.7570 -0.8522
 6713SOL     OW20958   2.491   1.619   0.476  0.4367 -0.4001 -0.4830
 6713SOL    HW120959   2.487   1.519   0.464 -0.1093 -0.4110 -0.2056
 6713SOL    HW220960   2.495   1.640   0.574  1.5074 -0.1811 -0.5614
 6714SOL     OW20961   3.076   5.663   3.394 -0.1837 -0.6813 -0.7650
 6714SOL    HW120962   3.092   5.760   3.411  0.8228 -0.8273 -0.8667
 6714SOL    HW220963   3.104   5.639   3.301  0.7596 -1.3251 -0.3264
 6715SOL     OW20964   2.632   0.011   6.801 -0.0006 -0.4908  0.5640
 6715SOL    HW120965   2.674   0.043   6.716  0.3616 -1.5697  0.3213
 6715SOL    HW220966   2.540  -0.024   6.783 -0.2216 -0.0238  0.7539
 6716SOL     OW20967   5.793   6.464   3.940 -0.1318 -0.1787 -0.0638
 6716SOL    HW120968   5.710   6.437   3.891 -0.9344 -1.2503  1.7782
 6716SOL    HW220969   5.769   6.521   4.018  1.0150  0.6466 -0.2859
 6717SOL     OW20970   6.203   2.567   6.874 -0.6926  0.8512  0.3802
 6717SOL    HW120971   6.271   2.611   6.816 -1.1443 -1.0039 -1.7042
 6717SOL    HW220972   6.198   2.469   6.852 -2.2828  0.4509  2.2193
 6718SOL     OW20973   2.464   6.256   2.184 -0.6905 -0.6003  0.1152
 6718SOL    HW120974   2.545   6.241   2.128 -1.2159 -0.4203 -0.7156
 6718SOL    HW220975   2.459   6.353   2.211 -0.5345 -0.6490  0.3179
 6719SOL     OW20976   2.376   1.997   4.367  0.1827 -0.1868 -0.9640
 6719SOL    HW120977   2.307   2.066   4.391 -1.0846 -1.5715 -0.4733
 6719SOL    HW220978   2.348   1.951   4.283 -0.8938 -2.4696  0.5328
 6720SOL     OW20979   6.697   0.218   3.110 -0.1593  0.7209 -0.5677
 6720SOL    HW120980   6.786   0.181   3.084  0.1373  1.3250 -0.4402
 6720SOL    HW220981   6.686   0.310   3.071 -0.6512  0.7228 -0.4368
 6721SOL     OW20982   2.942   5.995   1.622  0.6210  0.1286  0.2192
 6721SOL    HW120983   2.905   6.066   1.562 -0.0708  0.9167  1.5384
 6721SOL    HW220984   3.036   6.019   1.648  1.1672 -0.5526 -1.0453
 6722SOL     OW20985   5.121   0.046   6.810  0.3119 -0.5936 -0.0817
 6722SOL    HW120986   5.174  -0.039   6.803  1.9541  0.2598  1.3377
 6722SOL    HW220987   5.105   0.068   6.906  0.4712  1.0115 -0.3897
 6723SOL     OW20988   3.686   6.714   5.409  0.3432 -0.4462 -0.2094
 6723SOL    HW120989   3.752   6.768   5.462  0.3946  0.6141 -1.3111
 6723SOL    HW220990   3.733   6.636   5.367  1.0983  0.7037 -1.5810
 6724SOL     OW20991   5.093   1.057   1.806 -0.4588 -0.8057  0.5233
 6724SOL    HW120992   5.100   1.078   1.904  0.7047 -1.3055  0.5612
 6724SOL    HW220993   5.033   0.978   1.793 -2.7679  0.8100  0.5838
 6725SOL     OW20994   2.652   6.578   0.771  0.0700  0.0339  0.0850
 6725SOL    HW120995   2.595   6.631   0.833 -0.2347 -0.1991  0.0051
 6725SOL    HW220996   2.660   6.484   0.804  0.5258  0.0998  0.1722
 6726SOL     OW20997   4.314   3.246   4.882  0.4429 -0.1421 -0.0067
 6726SOL    HW120998   4.233   3.254   4.940  0.2034 -0.1067 -0.3432
 6726SOL    HW220999   4.303   3.168   4.819  0.3445  0.3082 -0.5593
 6727SOL     OW21000   1.133   1.853   5.542 -0.4009 -0.1879  0.4613
 6727SOL    HW121001   1.035   1.869   5.555 -0.1992  1.3279  0.2320
 6727SOL    HW221002   1.146   1.774   5.481 -1.4977  0.2122 -0.3210
 6728SOL     OW21003   6.177   1.896   3.989 -0.3098  0.0154  0.6459
 6728SOL    HW121004   6.228   1.936   4.065  0.9956 -0.2404 -0.0753
 6728SOL    HW221005   6.212   1.932   3.903 -1.0419 -0.5263  0.1117
 6729SOL     OW21006   5.820   2.544   3.980  0.4086  0.0780 -0.0705
 6729SOL    HW121007   5.826   2.453   3.938  0.1745  0.2275 -0.4305
 6729SOL    HW221008   5.734   2.587   3.954  1.3215  1.1729 -1.4621
 6730SOL     OW21009   6.901   6.627   6.714 -0.2167  0.1733  1.0627
 6730SOL    HW121010   6.896   6.552   6.648  0.0759  0.9466  0.1377
 6730SOL    HW221011   6.839   6.701   6.686 -0.0308  0.5479  1.6120
 6731SOL     OW21012   2.312   6.889   0.238  0.3158 -0.1047 -0.2770
 6731SOL    HW121013   2.247   6.862   0.310  1.0447 -0.1842  0.3572
 6731SOL    HW221014   2.392   6.931   0.280  0.5914  0.1666 -1.0751
 6732SOL     OW21015   2.100   2.527   4.872 -0.1391  0.1875  0.1645
 6732SOL    HW121016   2.150   2.600   4.919 -2.9759  2.5328 -0.0953
 6732SOL    HW221017   2.149   2.501   4.789  1.8675  0.4517  1.2037
 6733SOL     OW21018   4.998   5.173   6.188 -0.2840 -0.1416  0.1143
 6733SOL    HW121019   5.004   5.139   6.095 -0.3154  1.6281 -0.5783
 6733SOL    HW221020   4.904   5.165   6.221 -0.1263 -1.4308  0.2724
 6734SOL     OW21021   0.574   0.511   1.841 -0.4959  0.2551 -0.0146
 6734SOL    HW121022   0.520   0.478   1.918 -0.9472 -0.7122 -0.7295
 6734SOL    HW221023   0.670   0.519   1.869 -0.5482 -0.6847  0.4862
 6735SOL     OW21024   6.314   0.823   1.120  0.3780 -0.2494  0.5811
 6735SOL    HW121025   6.401   0.872   1.127  0.7236 -0.4887 -1.3913
 6735SOL    HW221026   6.254   0.850   1.196  1.8692  0.4928  1.5451
 6736SOL     OW21027   0.190   0.621   4.787  0.2241 -0.7011 -0.0617
 6736SOL    HW121028   0.103   0.581   4.759 -1.8062  0.1352  4.2735
 6736SOL    HW221029   0.222   0.577   4.870  2.0719  1.4330  0.4538
 6737SOL     OW21030   4.646   1.268   6.214 -0.1900 -0.7506 -0.6878
 6737SOL    HW121031   4.656   1.365   6.236 -0.0562 -0.5205 -1.6974
 6737SOL    HW221032   4.667   1.213   6.295  1.5091  0.0053 -0.5730
 6738SOL     OW21033   4.115   0.092   6.901  0.5083 -0.0479 -0.1765
 6738SOL    HW121034   4.018   0.080   6.880  0.1911 -0.0859  1.2290
 6738SOL    HW221035   4.135   0.189   6.912  0.2251 -0.1304  1.2553
 6739SOL     OW21036   5.133   5.559   2.474 -0.6183  0.1233  0.2704
 6739SOL    HW121037   5.226   5.524   2.485 -0.9870 -0.6340  1.0979
 6739SOL    HW221038   5.115   5.629   2.543 -1.0562 -0.6022  0.9078
 6740SOL     OW21039   6.280   2.467   3.182  0.3735  0.0009 -0.3870
 6740SOL    HW121040   6.201   2.437   3.234  1.2384 -1.0102  0.3730
 6740SOL    HW221041   6.305   2.560   3.209  2.2704 -1.3004  2.8978
 6741SOL     OW21042   6.600   3.406   6.778  0.1674 -0.1920 -0.3201
 6741SOL    HW121043   6.652   3.333   6.732 -0.7243 -0.4106 -1.0222
 6741SOL    HW221044   6.575   3.475   6.711  0.8742  0.7016  0.3170
 6742SOL     OW21045   2.449   0.935   1.207  0.1131 -0.2773 -0.9275
 6742SOL    HW121046   2.444   0.937   1.307 -0.6527  0.0988 -0.9702
 6742SOL    HW221047   2.361   0.907   1.170  0.8734 -2.1831 -1.4551
 6743SOL     OW21048   3.535   1.443   2.718  0.1886 -0.3878 -0.3286
 6743SOL    HW121049   3.484   1.381   2.658  1.5884 -0.7682 -1.1666
 6743SOL    HW221050   3.565   1.523   2.666  0.0206  0.0817  0.2842
 6744SOL     OW21051   0.265   6.608   0.145 -0.9675 -0.4049 -0.1872
 6744SOL    HW121052   0.257   6.707   0.155  1.1560 -0.1631 -0.4592
 6744SOL    HW221053   0.288   6.586   0.050 -1.7812 -1.2115 -0.2158
 6745SOL     OW21054   2.482   2.747   6.387 -0.0586  0.1758  0.6885
 6745SOL    HW121055   2.461   2.840   6.358 -0.4724  0.1955  1.0481
 6745SOL    HW221056   2.425   2.722   6.465  1.4237  0.3147  1.8511
 6746SOL     OW21057   3.146   3.490   6.654  0.0042 -0.6242 -0.3401
 6746SOL    HW121058   3.204   3.529   6.583  1.0153 -1.1409  0.1909
 6746SOL    HW221059   3.066   3.548   6.667  0.4690  0.1775 -0.9715
 6747SOL     OW21060   3.216   1.969   6.603 -0.0028 -0.5427  0.0499
 6747SOL    HW121061   3.287   2.036   6.586 -0.0177 -0.6207 -0.3292
 6747SOL    HW221062   3.127   2.015   6.607 -0.2337 -0.7380 -1.9951
 6748SOL     OW21063   6.008   0.683   1.321  0.0487  0.4745 -0.2977
 6748SOL    HW121064   6.080   0.621   1.291  1.4929  1.6193  0.6683
 6748SOL    HW221065   5.968   0.648   1.406  0.9748  0.9047  0.3373
 6749SOL     OW21066   4.604   2.001   6.231 -0.8892  0.3738  0.0916
 6749SOL    HW121067   4.551   1.920   6.254  1.5517 -1.1823  0.6011
 6749SOL    HW221068   4.653   1.986   6.145  1.6787  0.1108  1.4900
 6750SOL     OW21069   3.139   3.408   4.356  0.5756 -0.6719 -0.1696
 6750SOL    HW121070   3.124   3.397   4.454 -1.0982 -0.8647 -0.4170
 6750SOL    HW221071   3.164   3.503   4.336 -0.3498 -0.3208  0.3059
 6751SOL     OW21072   0.879   4.758   0.794 -0.1299  0.1160 -0.3010
 6751SOL    HW121073   0.921   4.737   0.882  0.4300 -0.2500 -0.6470
 6751SOL    HW221074   0.872   4.857   0.783  1.4953  0.2156 -0.6212
 6752SOL     OW21075   6.076   0.781   5.073 -0.0359 -0.1904 -0.7548
 6752SOL    HW121076   5.995   0.734   5.107 -0.1313 -1.4410 -2.5636
 6752SOL    HW221077   6.057   0.822   4.984  0.4755  2.1506  0.1327
 6753SOL     OW21078   6.370   0.342   0.057 -0.0476  0.1654  0.2540
 6753SOL    HW121079   6.276   0.362   0.031 -0.2399 -0.2430  0.6116
 6753SOL    HW221080   6.373   0.311   0.152  0.1471 -1.8659 -0.3509
 6754SOL     OW21081   5.422   6.492   2.759 -0.2696 -0.2394  0.5180
 6754SOL    HW121082   5.465   6.451   2.678 -0.5079 -2.3075  1.3778
 6754SOL    HW221083   5.474   6.465   2.840 -0.8481  0.6323  1.1818
 6755SOL     OW21084   5.055   5.282   5.358 -0.0846 -0.5114 -0.2488
 6755SOL    HW121085   5.069   5.241   5.449 -0.1721 -1.0009 -0.4543
 6755SOL    HW221086   5.135   5.337   5.334 -0.0656 -0.3715  0.1317
 6756SOL     OW21087   0.570   4.411   2.210  0.6556 -0.1963 -0.1274
 6756SOL    HW121088   0.546   4.502   2.176  1.2703 -0.3175 -0.9458
 6756SOL    HW221089   0.632   4.420   2.288  0.7144  0.0946 -0.2034
 6757SOL     OW21090   5.624   3.872   1.455 -0.5882  0.4426  0.0413
 6757SOL    HW121091   5.612   3.815   1.374  1.1926 -1.1561  0.8142
 6757SOL    HW221092   5.634   3.813   1.536 -0.8219  1.9434  1.2187
 6758SOL     OW21093   1.462   1.392   3.701  0.1931  0.0983  0.0954
 6758SOL    HW121094   1.449   1.386   3.799 -1.0505  1.9576  0.1078
 6758SOL    HW221095   1.445   1.303   3.658  0.0471 -0.5519  1.4751
 6759SOL     OW21096   1.957   3.001   3.264 -0.2452  0.5404 -0.4613
 6759SOL    HW121097   1.942   3.083   3.209 -1.1770 -0.7272 -2.1892
 6759SOL    HW221098   2.001   2.930   3.208 -0.1676 -0.4114  0.7555
 6760SOL     OW21099   4.744   0.513   1.402 -0.8197  0.5615 -0.0899
 6760SOL    HW121100   4.833   0.473   1.382 -0.2772  0.8518  1.5720
 6760SOL    HW221101   4.713   0.567   1.324 -0.0551 -0.4227 -1.1037
 6761SOL     OW21102   2.255   6.125   2.591  0.0407  0.1495  0.1874
 6761SOL    HW121103   2.339   6.136   2.539  1.8758 -1.4699  2.5868
 6761SOL    HW221104   2.226   6.213   2.627  0.3338  0.8242 -1.1648
 6762SOL     OW21105   6.099   4.357   5.277  0.2486  0.0790  0.0407
 6762SOL    HW121106   6.183   4.308   5.254 -0.3812 -0.1512 -1.8935
 6762SOL    HW221107   6.049   4.305   5.346  1.4682  0.0097  0.9101
 6763SOL     OW21108   0.728   1.483   4.425 -0.4750 -0.3670  0.2485
 6763SOL    HW121109   0.658   1.552   4.442  0.1921  0.7027 -1.1975
 6763SOL    HW221110   0.727   1.456   4.329  2.8093  1.6816 -0.5196
 6764SOL     OW21111   5.188   2.925   6.509 -0.4769  0.1138 -0.2251
 6764SOL    HW121112   5.264   2.974   6.467 -0.1312 -0.9298 -0.8445
 6764SOL    HW221113   5.179   2.953   6.604 -0.1999  1.2572 -0.5162
 6765SOL     OW21114   3.798   3.266   6.466  0.1335 -0.7285  0.3151
 6765SOL    HW121115   3.775   3.327   6.542  0.1158  0.7245 -0.8156
 6765SOL    HW221116   3.745   3.181   6.475 -1.4049  0.2327  0.8607
 6766SOL     OW21117   6.304   6.759   6.408  0.2920  0.0786 -0.0665
 6766SOL    HW121118   6.366   6.685   6.433  1.8139  0.7107 -1.7163
 6766SOL    HW221119   6.356   6.833   6.366 -1.0891  2.3759  2.0039
 6767SOL     OW21120   3.926   3.813   2.964 -0.1404  0.0792 -0.3838
 6767SOL    HW121121   3.826   3.807   2.960 -0.0437 -0.7772 -1.7490
 6767SOL    HW221122   3.958   3.767   3.047 -0.8179 -0.2958 -0.3216
 6768SOL     OW21123   1.415   6.279   1.645  0.1721 -0.5516 -0.7236
 6768SOL    HW121124   1.437   6.268   1.742 -1.1180  1.7956 -0.0929
 6768SOL    HW221125   1.360   6.201   1.614 -1.1683 -0.3586  1.0098
 6769SOL     OW21126   1.756   5.793   3.357  0.3637 -0.1436 -0.1226
 6769SOL    HW121127   1.707   5.813   3.272  0.5628 -0.7844 -0.3966
 6769SOL    HW221128   1.853   5.818   3.346  0.0413  1.5261  0.5642
 6770SOL     OW21129   1.555   1.517   4.246 -0.0348  0.2444 -0.4000
 6770SOL    HW121130   1.603   1.568   4.318 -0.6843  0.6220 -0.2294
 6770SOL    HW221131   1.457   1.521   4.262 -0.1221 -0.6393 -0.6736
 6771SOL     OW21132   4.829   3.967   4.911  0.0100 -0.6510  0.3609
 6771SOL    HW121133   4.795   3.929   4.825 -0.7904  0.1522  0.3014
 6771SOL    HW221134   4.918   4.009   4.896  1.2677 -3.0485  0.5761
 6772SOL     OW21135   6.485   1.820   4.331  0.1337  0.0779  0.3839
 6772SOL    HW121136   6.462   1.734   4.287  0.0963  0.3901 -0.2141
 6772SOL    HW221137   6.438   1.895   4.285  0.3451  0.4455  0.7543
 6773SOL     OW21138   4.296   4.751   1.567  0.5053 -0.2146  0.0128
 6773SOL    HW121139   4.278   4.660   1.531 -1.5554  0.6732 -1.4505
 6773SOL    HW221140   4.365   4.796   1.511  0.0110 -0.1719 -0.5773
 6774SOL     OW21141   0.946   1.472   5.355 -0.1410  0.2604 -0.3858
 6774SOL    HW121142   1.023   1.488   5.417  1.2119 -0.5597 -1.7848
 6774SOL    HW221143   0.972   1.498   5.262 -1.2690 -0.8090 -1.0337
 6775SOL     OW21144   4.042   6.257   3.853  0.3883 -0.1064 -0.1744
 6775SOL    HW121145   4.038   6.162   3.885  1.7917 -0.6281 -1.4014
 6775SOL    HW221146   3.985   6.314   3.912  1.5912 -1.2459  2.2645
 6776SOL     OW21147   4.420   1.190   2.358 -0.5262 -0.0292 -0.0842
 6776SOL    HW121148   4.366   1.111   2.329  1.7732 -1.4706 -0.7660
 6776SOL    HW221149   4.468   1.228   2.279  0.3654  0.4582  0.6742
 6777SOL     OW21150   3.799   6.000   1.719 -0.1037  0.5146 -0.4265
 6777SOL    HW121151   3.898   5.995   1.711 -0.2803 -1.1940 -2.2733
 6777SOL    HW221152   3.761   5.907   1.723 -1.6696  1.1250 -0.3345
 6778SOL     OW21153   5.102   0.753   2.864 -0.1098  0.1810 -0.3683
 6778SOL    HW121154   5.074   0.745   2.959  1.3689 -0.0372  0.0685
 6778SOL    HW221155   5.175   0.820   2.856 -1.6415  1.8065 -1.6910
 6779SOL     OW21156   3.055   4.652   0.405  0.0222 -0.3315  0.2266
 6779SOL    HW121157   2.996   4.594   0.462  0.0347 -1.0252 -0.4526
 6779SOL    HW221158   3.074   4.738   0.453  0.3577 -1.0617  1.4420
 6780SOL     OW21159   1.432   6.303   3.372 -0.4545  0.6410  0.1793
 6780SOL    HW121160   1.399   6.297   3.466 -1.0376 -0.6957 -0.0751
 6780SOL    HW221161   1.527   6.271   3.368  0.0652  2.0644  0.5131
 6781SOL     OW21162   2.627   1.478   4.185  1.0906 -0.6101 -0.5232
 6781SOL    HW121163   2.608   1.407   4.252  0.0341 -0.3160 -0.4794
 6781SOL    HW221164   2.674   1.438   4.106  1.1569 -1.2098 -0.1828
 6782SOL     OW21165   4.761   6.742   3.871  0.1781 -1.1402 -0.3994
 6782SOL    HW121166   4.838   6.704   3.921  1.5455  1.8769  0.0370
 6782SOL    HW221167   4.681   6.746   3.931  0.3564 -2.0942 -0.0818
 6783SOL     OW21168   6.676   1.096   6.109 -0.2150 -0.6103 -0.7756
 6783SOL    HW121169   6.747   1.056   6.051  1.1436 -1.0242  1.0986
 6783SOL    HW221170   6.586   1.076   6.069  0.6520 -0.8300 -2.7327
 6784SOL     OW21171   4.130   6.528   5.242  0.5511 -0.5337  0.3286
 6784SOL    HW121172   4.214   6.510   5.295  2.2128 -2.3397 -2.6724
 6784SOL    HW221173   4.101   6.445   5.196 -2.0270  0.4811 -0.0389
 6785SOL     OW21174   1.815   1.274   5.455 -0.2819  0.0991  0.0110
 6785SOL    HW121175   1.814   1.189   5.401  1.5557  0.1733 -0.2248
 6785SOL    HW221176   1.745   1.336   5.421 -1.5623 -1.2470  0.0860
 6786SOL     OW21177   5.202   5.200   1.666  0.2097  0.0256  0.0880
 6786SOL    HW121178   5.169   5.134   1.733  0.5375  1.0650  1.3041
 6786SOL    HW221179   5.179   5.292   1.696  0.6300  0.5322 -1.0913
 6787SOL     OW21180   5.394   2.645   2.897  0.3804  0.1738  0.1805
 6787SOL    HW121181   5.435   2.695   2.974  3.4415 -1.0767 -0.5147
 6787SOL    HW221182   5.398   2.547   2.915 -3.0661 -0.0805  0.3031
 6788SOL     OW21183   5.206   0.186   2.697  0.2320  0.0722  0.1768
 6788SOL    HW121184   5.223   0.253   2.769  0.5764 -0.8827  1.0080
 6788SOL    HW221185   5.111   0.154   2.703 -0.3521  1.4594 -1.0835
 6789SOL     OW21186   5.671   5.165   2.160  0.4004  0.3684  0.6372
 6789SOL    HW121187   5.678   5.261   2.134  0.7780  0.1746 -0.0011
 6789SOL    HW221188   5.642   5.158   2.255 -2.0882  1.1064  0.0316
 6790SOL     OW21189   0.707   0.435   3.665 -0.1645 -0.3084  0.0519
 6790SOL    HW121190   0.696   0.341   3.631 -2.1877 -0.5742  1.3054
 6790SOL    HW221191   0.692   0.499   3.589  0.4074 -0.9473 -0.6271
 6791SOL     OW21192   5.823   2.046   5.331  0.3474 -0.3899  0.0706
 6791SOL    HW121193   5.808   2.140   5.298 -0.5563 -0.5846 -0.0966
 6791SOL    HW221194   5.889   2.000   5.271  0.8505  0.1572  0.1945
 6792SOL     OW21195   0.528   3.982   1.836 -0.2625  0.0739 -0.3095
 6792SOL    HW121196   0.491   3.914   1.899  3.3430 -0.8138  1.1090
 6792SOL    HW221197   0.495   3.963   1.744 -1.9754 -1.4991  0.5651
 6793SOL     OW21198   3.320   5.857   2.570 -0.1360 -0.2340  0.5510
 6793SOL    HW121199   3.250   5.929   2.567 -0.2224 -0.3412 -0.4343
 6793SOL    HW221200   3.316   5.804   2.485  0.5955 -0.7675  0.8453
 6794SOL     OW21201   1.292   4.587   4.875  0.1013 -0.6082  0.1131
 6794SOL    HW121202   1.339   4.641   4.805 -0.4572 -1.8028 -1.2428
 6794SOL    HW221203   1.195   4.611   4.877  0.0850 -0.6900  0.3612
 6795SOL     OW21204   4.547   6.890   0.107 -0.0296  0.9204 -0.1709
 6795SOL    HW121205   4.595   6.935   0.182 -0.6214 -0.8058  1.3185
 6795SOL    HW221206   4.449   6.892   0.124 -0.3125  1.9429 -1.7572
 6796SOL     OW21207   5.305   4.876   6.551 -0.0746 -0.0180  0.2104
 6796SOL    HW121208   5.256   4.878   6.463  0.8102  1.2708 -0.2700
 6796SOL    HW221209   5.280   4.792   6.600 -0.6654 -0.7139 -1.2137
 6797SOL     OW21210   4.831   2.820   3.415  0.2890 -0.1559  0.1455
 6797SOL    HW121211   4.836   2.754   3.491  2.0811  1.0773  1.1964
 6797SOL    HW221212   4.797   2.907   3.449  1.9797  0.6866 -0.2213
 6798SOL     OW21213   5.083   5.552   0.996  0.0613 -0.2156 -0.2556
 6798SOL    HW121214   5.053   5.603   1.076 -0.5214 -3.1499  1.5655
 6798SOL    HW221215   5.183   5.542   0.999 -0.0710 -1.7306  1.1792
 6799SOL     OW21216   4.542   5.529   5.766 -0.0959  0.6357  0.1167
 6799SOL    HW121217   4.631   5.575   5.753  0.7119 -1.2278 -1.4217
 6799SOL    HW221218   4.557   5.431   5.781 -1.9375 -0.2067 -2.7668
 6800SOL     OW21219   1.229   2.722   6.941  0.5637 -0.0194 -0.1198
 6800SOL    HW121220   1.232   2.623   6.928 -0.1284  0.1565 -1.8549
 6800SOL    HW221221   1.255   2.744   7.035 -1.2530 -1.9827  0.9336
 6801SOL     OW21222   4.669   1.881   3.842 -0.6143  0.0854 -0.1975
 6801SOL    HW121223   4.659   1.784   3.866 -1.8253  0.3087  0.2630
 6801SOL    HW221224   4.726   1.889   3.760  0.5743 -0.9252  0.4951
 6802SOL     OW21225   2.037   5.875   2.106  0.9811 -0.1380 -0.4706
 6802SOL    HW121226   2.003   5.810   2.039 -0.7326 -0.7551  0.9089
 6802SOL    HW221227   1.984   5.960   2.101  2.7490  0.9614 -1.7892
 6803SOL     OW21228   4.710   3.246   0.024 -0.1239 -0.3937 -0.3690
 6803SOL    HW121229   4.660   3.292   0.097 -0.0406  1.5910 -1.4859
 6803SOL    HW221230   4.660   3.164  -0.004 -1.0624 -0.2189  0.7183
 6804SOL     OW21231   2.513   3.875   5.594  0.5607  0.5414 -0.4834
 6804SOL    HW121232   2.421   3.839   5.609  1.6757 -2.0878  0.6587
 6804SOL    HW221233   2.562   3.815   5.530  2.1429  0.6844  0.5484
 6805SOL     OW21234   1.516   1.000   2.389  0.5571  0.3941 -0.3199
 6805SOL    HW121235   1.575   0.991   2.309  1.2110  0.5734  0.1321
 6805SOL    HW221236   1.474   1.091   2.389 -1.7591 -0.6029 -1.9930
 6806SOL     OW21237   4.460   5.772   4.728 -0.7239 -0.1994 -0.2761
 6806SOL    HW121238   4.364   5.745   4.726 -0.8257  0.0232  0.9781
 6806SOL    HW221239   4.483   5.821   4.644 -1.6092 -0.5425 -0.7307
 6807SOL     OW21240   5.457   1.542   0.917  0.1019 -0.1683 -0.2092
 6807SOL    HW121241   5.531   1.500   0.969  0.1710  1.3764  1.0217
 6807SOL    HW221242   5.463   1.642   0.924 -1.4103  0.0274 -1.0770
 6808SOL     OW21243   0.021   0.276   2.359 -0.5376 -0.1935 -0.0568
 6808SOL    HW121244   0.009   0.324   2.272 -1.4994  0.9148  0.6591
 6808SOL    HW221245   0.104   0.221   2.355 -0.4700 -0.0193 -1.6106
 6809SOL     OW21246   3.315   6.032   5.537 -0.3224  0.8295 -0.4543
 6809SOL    HW121247   3.378   5.993   5.470 -0.4902  1.4842 -1.0040
 6809SOL    HW221248   3.226   6.046   5.496 -0.6440  0.5326  0.1316
 6810SOL     OW21249   6.053   5.196   2.243 -0.1761  0.0368  0.1050
 6810SOL    HW121250   6.141   5.228   2.278  0.9484 -1.2703 -1.3321
 6810SOL    HW221251   5.987   5.271   2.243  0.4517  0.6785  2.6260
 6811SOL     OW21252   0.869   2.402   4.258 -0.0526  0.4704 -0.0776
 6811SOL    HW121253   0.890   2.499   4.266 -1.7569  0.7666  1.5370
 6811SOL    HW221254   0.937   2.348   4.308 -0.8235  1.1111  1.7592
 6812SOL     OW21255   4.306   4.102   6.734  0.1595  0.0190 -0.2844
 6812SOL    HW121256   4.359   4.183   6.760  1.1114 -0.4276 -0.7816
 6812SOL    HW221257   4.368   4.027   6.714 -0.6586 -0.4256 -1.2187
 6813SOL     OW21258   1.234   3.125   5.297  0.2824  0.3644 -0.3682
 6813SOL    HW121259   1.158   3.184   5.325 -1.5551 -1.8684 -0.3596
 6813SOL    HW221260   1.249   3.055   5.367  1.6782  0.1327 -0.8738
 6814SOL     OW21261   0.119   4.820   1.347 -0.1969  0.0267  0.8173
 6814SOL    HW121262   0.100   4.892   1.281  0.4406 -0.0247  0.5679
 6814SOL    HW221263   0.047   4.817   1.416 -1.2976 -0.4267 -0.3140
 6815SOL     OW21264   3.737   4.311   2.347 -0.9632 -0.3474  0.2663
 6815SOL    HW121265   3.727   4.407   2.369 -1.9395 -0.5967  0.9741
 6815SOL    HW221266   3.762   4.301   2.251  0.4655  0.6464  0.5101
 6816SOL     OW21267   6.741   5.801   5.260  0.0268  0.2792  0.0421
 6816SOL    HW121268   6.825   5.769   5.303  0.1555  0.5454 -0.0161
 6816SOL    HW221269   6.742   5.900   5.251 -0.6426  0.3653  0.7818
 6817SOL     OW21270   6.072   5.663   1.718  0.3985 -0.2540 -0.2483
 6817SOL    HW121271   6.082   5.675   1.619  0.2134 -1.5443 -0.4386
 6817SOL    HW221272   6.128   5.730   1.766  1.0096 -0.0485 -1.2361
 6818SOL     OW21273   6.620   2.429   3.836  0.0105 -0.3766 -0.0992
 6818SOL    HW121274   6.562   2.468   3.764  0.0348  1.9268  1.0248
 6818SOL    HW221275   6.705   2.482   3.842  0.1366 -0.7170  1.3961
 6819SOL     OW21276   2.456   2.675   2.174 -0.3225  0.3981 -0.2846
 6819SOL    HW121277   2.486   2.728   2.094 -1.4055  1.4850 -0.0058
 6819SOL    HW221278   2.356   2.682   2.183 -0.0661  2.0210  2.3119
 6820SOL     OW21279   6.388   2.382   1.531 -0.4109  0.2640 -0.7502
 6820SOL    HW121280   6.379   2.477   1.560 -0.3492 -0.1073  0.5953
 6820SOL    HW221281   6.480   2.349   1.553 -0.4830 -0.1435 -1.0445
 6821SOL     OW21282   0.989   4.391   0.570  0.1366  0.3740 -0.1859
 6821SOL    HW121283   1.047   4.329   0.517  0.7420  1.6853 -1.1163
 6821SOL    HW221284   0.897   4.353   0.576  0.4172 -0.4732 -1.0088
 6822SOL     OW21285   0.175   1.175   3.542 -0.2825  0.3327 -0.2245
 6822SOL    HW121286   0.203   1.203   3.450  0.3725  0.4174 -0.0023
 6822SOL    HW221287   0.083   1.211   3.561 -0.3642  0.4379 -0.7869
 6823SOL     OW21288   2.624   5.867   5.809  1.1174  0.0892  0.2171
 6823SOL    HW121289   2.568   5.919   5.872  0.5469 -0.8069  0.4758
 6823SOL    HW221290   2.624   5.911   5.719 -0.6611 -0.2781 -0.0073
 6824SOL     OW21291   3.509   4.913   5.776  0.1451 -0.0209  0.1749
 6824SOL    HW121292   3.571   4.906   5.698  0.7413  0.8999  0.5533
 6824SOL    HW221293   3.554   4.878   5.858  0.0254  0.3066  0.3809
 6825SOL     OW21294   1.225   1.220   3.202  0.2276  0.6242 -0.0154
 6825SOL    HW121295   1.183   1.206   3.292 -2.1115 -0.8493 -1.2278
 6825SOL    HW221296   1.294   1.149   3.186 -1.0874 -0.6483 -0.2827
 6826SOL     OW21297   6.116   6.025   3.801  0.5865 -0.3801 -0.1247
 6826SOL    HW121298   6.055   6.035   3.880  1.4971  0.1177  0.5317
 6826SOL    HW221299   6.203   6.072   3.820  0.4156  0.7215 -1.8526
 6827SOL     OW21300   0.007   1.524   1.050 -0.0828  0.1598 -0.2771
 6827SOL    HW121301   0.030   1.542   1.146  0.5188 -0.0764 -0.3674
 6827SOL    HW221302  -0.040   1.436   1.043 -1.1156  0.6864 -0.0788
 6828SOL     OW21303   3.887   1.615   4.592  0.5081  1.2111 -0.1182
 6828SOL    HW121304   3.849   1.659   4.673 -1.7703  0.8183 -0.8783
 6828SOL    HW221305   3.876   1.675   4.513  2.3250  1.4203 -0.2564
 6829SOL     OW21306   5.098   2.515   0.711 -0.4689 -0.0153 -0.3423
 6829SOL    HW121307   5.002   2.493   0.697 -0.3222 -0.4071 -0.7516
 6829SOL    HW221308   5.105   2.595   0.771 -1.0268 -0.4695  0.3494
 6830SOL     OW21309   1.598   4.553   2.560 -0.2866  0.6135 -0.0596
 6830SOL    HW121310   1.686   4.595   2.538 -0.0687  0.4230  0.4329
 6830SOL    HW221311   1.578   4.568   2.657  0.9424 -2.4647  0.7770
 6831SOL     OW21312   0.988   0.827   4.160 -0.5681  0.3547 -0.2577
 6831SOL    HW121313   0.954   0.735   4.138 -1.9473  1.2018 -1.8270
 6831SOL    HW221314   1.088   0.824   4.169 -0.6329 -1.3848  0.3060
 6832SOL     OW21315   1.051   4.822   1.619  0.0655  0.5881  0.6965
 6832SOL    HW121316   1.110   4.896   1.651 -0.8404  1.3501  0.6443
 6832SOL    HW221317   1.002   4.852   1.538 -1.1142  0.3196  1.2920
 6833SOL     OW21318   2.736   1.015   1.892  0.7684 -0.5757 -0.4053
 6833SOL    HW121319   2.663   1.016   1.961  0.5629 -0.3158 -0.6181
 6833SOL    HW221320   2.753   1.109   1.861  1.5076 -0.5829 -0.0358
 6834SOL     OW21321   5.185   1.039   3.368  0.1132  0.1255 -0.5800
 6834SOL    HW121322   5.165   1.098   3.447  2.6276  0.0871  0.1514
 6834SOL    HW221323   5.209   1.097   3.290  0.0394  0.1060 -0.6174
 6835SOL     OW21324   4.217   6.694   0.451  0.0307 -0.1354 -0.7515
 6835SOL    HW121325   4.201   6.629   0.377  0.1363 -1.0639  0.0124
 6835SOL    HW221326   4.315   6.715   0.456 -0.0444  0.3286 -1.1933
 6836SOL     OW21327   3.453   1.162   4.405  0.0973 -0.2514 -0.2828
 6836SOL    HW121328   3.493   1.081   4.363 -0.2919 -0.2474 -0.6677
 6836SOL    HW221329   3.354   1.150   4.413  0.0686  0.0823 -0.1066
 6837SOL     OW21330   6.181   2.782   3.143 -0.0340 -0.0657 -1.2207
 6837SOL    HW121331   6.084   2.765   3.159 -0.0478  0.3596 -0.8245
 6837SOL    HW221332   6.202   2.765   3.047 -0.5862  0.2266 -1.3999
 6838SOL     OW21333   1.601   1.147   4.454  0.0765 -0.0906  0.1829
 6838SOL    HW121334   1.674   1.114   4.514 -0.6269 -0.1870  1.0016
 6838SOL    HW221335   1.557   1.069   4.409 -1.2734 -0.2785  1.7538
 6839SOL     OW21336   3.476   0.688   6.922  0.4773 -0.5885 -0.1039
 6839SOL    HW121337   3.519   0.639   6.998 -0.7883 -0.2456  0.8841
 6839SOL    HW221338   3.468   0.627   6.843  2.1062 -0.8533 -0.0919
 6840SOL     OW21339   5.182   6.444   4.963 -0.2201  0.0725 -0.0461
 6840SOL    HW121340   5.248   6.460   5.037 -0.8203 -0.4815  0.6286
 6840SOL    HW221341   5.090   6.461   4.997 -0.6631 -1.9181 -0.1041
 6841SOL     OW21342   6.358   0.244   3.640  0.1841  0.4420  0.5604
 6841SOL    HW121343   6.410   0.320   3.679 -0.4226  0.1155  2.1009
 6841SOL    HW221344   6.262   0.271   3.629  0.4632  0.7558 -1.4444
 6842SOL     OW21345   1.186   2.818   5.475 -0.3323 -0.0776 -0.1666
 6842SOL    HW121346   1.235   2.816   5.389 -0.9545 -1.9205 -0.5097
 6842SOL    HW221347   1.212   2.740   5.531 -2.0284 -0.5105  0.0866
 6843SOL     OW21348   6.580   1.698   6.633  0.2423 -0.2249  0.1562
 6843SOL    HW121349   6.522   1.661   6.705 -0.0632  0.3084  0.1924
 6843SOL    HW221350   6.674   1.670   6.648  0.4051  0.9207  1.4903
 6844SOL     OW21351   4.986   4.019   3.765 -0.0561 -0.8949  0.0463
 6844SOL    HW121352   4.893   3.984   3.754 -0.8981  0.5682  1.9246
 6844SOL    HW221353   4.999   4.100   3.707 -0.3402 -0.4715  0.5603
 6845SOL     OW21354   5.753   0.618   5.492  0.5476 -0.6873 -0.4998
 6845SOL    HW121355   5.703   0.603   5.406  0.5314 -0.7480 -0.4800
 6845SOL    HW221356   5.758   0.716   5.511 -1.0578 -0.7355  0.3733
 6846SOL     OW21357   2.166   3.846   1.339  0.3912 -0.6488  0.4021
 6846SOL    HW121358   2.141   3.833   1.435  2.4108  1.7133  1.3430
 6846SOL    HW221359   2.167   3.758   1.293 -4.6893 -1.5637  1.3504
 6847SOL     OW21360   1.037   6.209   5.955 -0.0303 -0.6830  0.8747
 6847SOL    HW121361   1.112   6.255   6.003 -0.4772 -0.2647  1.1790
 6847SOL    HW221362   1.017   6.122   6.001  0.2912 -0.8135  0.7712
 6848SOL     OW21363   0.097   3.004   1.303 -0.1607  0.1539  0.0837
 6848SOL    HW121364   0.035   3.019   1.225 -1.9218 -3.9045  0.4573
 6848SOL    HW221365   0.174   2.947   1.274 -0.2247 -0.4372  1.0233
 6849SOL     OW21366   0.678   0.659   3.465 -0.1729 -0.0439  0.4508
 6849SOL    HW121367   0.593   0.707   3.487 -1.2672 -1.3270 -0.7520
 6849SOL    HW221368   0.687   0.652   3.365  1.6622  0.5857  0.5483
 6850SOL     OW21369   6.878   1.867   2.503 -0.8451  0.7532 -0.2771
 6850SOL    HW121370   6.957   1.903   2.454  0.4691  0.3027  1.3932
 6850SOL    HW221371   6.907   1.834   2.593 -3.2405  2.3273  1.2049
 6851SOL     OW21372   4.610   2.206   3.935 -0.8773  0.0842  0.3146
 6851SOL    HW121373   4.510   2.216   3.933 -0.8144  0.6188 -0.5631
 6851SOL    HW221374   4.639   2.149   3.859 -0.3696  1.3816 -0.4993
 6852SOL     OW21375   1.213   2.669   6.243 -0.2892 -0.6550  0.3340
 6852SOL    HW121376   1.113   2.671   6.230 -0.0534  0.8934 -1.7105
 6852SOL    HW221377   1.238   2.734   6.315 -0.6681 -0.1110 -0.0165
 6853SOL     OW21378   4.459   4.985   3.076 -0.2973  0.1666  0.3757
 6853SOL    HW121379   4.463   4.995   3.175  0.3381  0.0844  0.3657
 6853SOL    HW221380   4.410   5.063   3.036 -0.2829  0.3569  0.7293
 6854SOL     OW21381   1.835   2.275   6.691 -0.1387  0.0413  1.0229
 6854SOL    HW121382   1.911   2.223   6.653 -1.6741 -1.1161 -0.6515
 6854SOL    HW221383   1.844   2.279   6.791  1.8204 -0.4770  0.9111
 6855SOL     OW21384   5.044   5.213   4.475 -0.1892 -0.1434  0.8708
 6855SOL    HW121385   5.029   5.239   4.570  0.1628 -1.6762  1.3788
 6855SOL    HW221386   5.075   5.293   4.423  3.2199  0.0122  2.8545
 6856SOL     OW21387   6.550   1.083   6.391  0.0428  1.0686  0.1718
 6856SOL    HW121388   6.582   1.002   6.341  2.0742 -0.3082  3.3791
 6856SOL    HW221389   6.625   1.148   6.400 -1.0864  2.5616 -0.8635
 6857SOL     OW21390   3.578   6.388   6.010  0.3937  0.3585 -0.0192
 6857SOL    HW121391   3.649   6.341   5.957 -0.6196  0.2924 -1.3769
 6857SOL    HW221392   3.569   6.345   6.100  0.8736 -0.7411 -0.4811
 6858SOL     OW21393   6.154   0.030   6.802  0.0240  0.0349  0.1763
 6858SOL    HW121394   6.068   0.065   6.838 -0.3298  1.0696 -1.5607
 6858SOL    HW221395   6.209  -0.009   6.876 -1.6668 -0.0979  1.3970
 6859SOL     OW21396   0.408   0.539   4.971 -0.4250 -0.1717 -0.1490
 6859SOL    HW121397   0.390   0.458   5.027  0.4825  0.7194  1.5220
 6859SOL    HW221398   0.469   0.514   4.896  0.8286 -0.8456  1.0457
 6860SOL     OW21399   0.829   5.747   1.274  0.6145  0.3052  0.1371
 6860SOL    HW121400   0.814   5.830   1.220 -0.7892 -0.2369 -0.3721
 6860SOL    HW221401   0.917   5.707   1.250  0.3750  0.5204 -1.1736
 6861SOL     OW21402   1.607   2.797   0.345 -0.1019 -0.6614 -0.1184
 6861SOL    HW121403   1.576   2.805   0.439 -0.3005  0.1927 -0.2421
 6861SOL    HW221404   1.606   2.701   0.317  2.5316 -1.2890  1.5918
 6862SOL     OW21405   2.841   6.370   0.077  0.4223 -0.4511  0.4300
 6862SOL    HW121406   2.893   6.350  -0.006  1.1154  0.0192  0.7324
 6862SOL    HW221407   2.800   6.461   0.070  2.1078  0.4468  1.3414
 6863SOL     OW21408   1.980   2.966   2.964 -0.2924 -0.2298  0.1852
 6863SOL    HW121409   1.885   2.936   2.952 -0.7265  0.7653  1.0116
 6863SOL    HW221410   1.999   3.042   2.902 -0.2390 -0.0055  0.4732
 6864SOL     OW21411   6.508   6.330   6.596  0.1112  0.0136 -0.1936
 6864SOL    HW121412   6.506   6.232   6.573  2.4228  0.0521 -0.7625
 6864SOL    HW221413   6.514   6.340   6.695  1.0703 -0.4669 -0.1944
 6865SOL     OW21414   6.381   5.072   0.099  0.0463 -0.9089 -0.2943
 6865SOL    HW121415   6.437   5.055   0.181 -0.2220 -0.3730  0.0093
 6865SOL    HW221416   6.286   5.089   0.127  0.5409  2.6151 -0.3737
 6866SOL     OW21417   3.112   6.239   2.583  0.5730  0.2216 -0.3259
 6866SOL    HW121418   3.114   6.337   2.603  2.8564  0.5958 -1.9892
 6866SOL    HW221419   3.179   6.192   2.639 -0.2317 -0.3335  0.1745
 6867SOL     OW21420   4.203   1.890   3.882 -0.8428 -0.0318  0.1992
 6867SOL    HW121421   4.256   1.939   3.951  0.0978  0.5495 -0.9093
 6867SOL    HW221422   4.258   1.818   3.842 -1.3358 -0.2691 -0.0604
 6868SOL     OW21423   0.412   0.262   0.609 -0.0870  1.0274  0.2964
 6868SOL    HW121424   0.502   0.231   0.641  0.0904 -0.2029 -1.2739
 6868SOL    HW221425   0.342   0.201   0.645  0.1835 -0.8610 -2.0838
 6869SOL     OW21426   1.656   0.526   5.718  0.0651 -0.0302  0.0163
 6869SOL    HW121427   1.638   0.557   5.811 -1.7068  0.2847 -0.3960
 6869SOL    HW221428   1.570   0.522   5.667  0.6024 -2.7051 -0.8495
 6870SOL     OW21429   6.407   1.701   1.318 -0.0600 -0.1467 -0.0118
 6870SOL    HW121430   6.395   1.759   1.399 -0.0779  1.2203 -0.9654
 6870SOL    HW221431   6.465   1.748   1.252 -2.3345  0.0184 -2.0101
 6871SOL     OW21432   2.403   1.142   6.582  0.0831  0.3485  0.8076
 6871SOL    HW121433   2.490   1.163   6.626 -0.7200  0.2827  2.5484
 6871SOL    HW221434   2.358   1.226   6.553  0.1974  0.4680  0.9786
 6872SOL     OW21435   5.410   1.754   2.887 -0.1411  0.1398 -0.1927
 6872SOL    HW121436   5.502   1.739   2.922 -1.0041 -1.2335  1.7032
 6872SOL    HW221437   5.402   1.847   2.852  2.0298  0.1810 -0.6912
 6873SOL     OW21438   5.932   5.492   2.453 -0.0798  0.1176 -0.1509
 6873SOL    HW121439   5.907   5.451   2.365 -0.3375  0.5432 -0.2782
 6873SOL    HW221440   6.029   5.476   2.470  0.2513  1.0416 -1.0725
 6874SOL     OW21441   0.297   3.307   2.221  0.2025  0.0005  0.2183
 6874SOL    HW121442   0.264   3.309   2.127  0.3151  1.3940  0.1869
 6874SOL    HW221443   0.247   3.238   2.273  0.8049 -1.4795 -1.0834
 6875SOL     OW21444   4.385   2.774   0.048 -0.5234  0.3880  0.1195
 6875SOL    HW121445   4.450   2.707   0.012 -2.7755 -1.8235 -0.0977
 6875SOL    HW221446   4.375   2.849  -0.018  0.8201  0.1146 -0.4281
 6876SOL     OW21447   3.709   6.268   2.942 -0.1783 -0.0538 -0.0032
 6876SOL    HW121448   3.783   6.296   3.003  0.8674 -0.0016 -1.2481
 6876SOL    HW221449   3.721   6.312   2.853 -1.0342 -0.9948 -0.5994
 6877SOL     OW21450   1.110   4.523   3.312 -0.4257  0.3990 -0.1692
 6877SOL    HW121451   1.093   4.622   3.312 -1.6397  0.2085  0.4525
 6877SOL    HW221452   1.209   4.507   3.305  0.0774  1.7379  2.5214
 6878SOL     OW21453   3.919   5.020   2.550 -0.0686  0.5263 -0.6286
 6878SOL    HW121454   3.942   4.951   2.482 -0.1374  0.4543 -0.5789
 6878SOL    HW221455   3.986   5.018   2.624  0.5490  1.2315 -1.1438
 6879SOL     OW21456   1.968   2.051   6.909  0.0684 -0.6569 -0.2779
 6879SOL    HW121457   1.955   2.143   6.948 -1.4452 -1.1174  0.4108
 6879SOL    HW221458   2.041   2.053   6.841  0.0803  1.0500 -0.2532
 6880SOL     OW21459   5.453   5.644   4.393 -0.1747  0.2490  0.4322
 6880SOL    HW121460   5.416   5.585   4.321  0.7409 -0.7907  0.7910
 6880SOL    HW221461   5.418   5.737   4.381 -1.4792 -0.3096 -0.2636
 6881SOL     OW21462   0.485   6.976   3.508  0.2945 -0.0265 -0.9192
 6881SOL    HW121463   0.394   7.014   3.490  0.6801  0.4237 -2.0051
 6881SOL    HW221464   0.475   6.887   3.553 -0.6889 -0.1677 -1.3821
 6882SOL     OW21465   1.075   5.672   1.127  0.1085  0.4072  0.1749
 6882SOL    HW121466   1.032   5.621   1.053 -3.7907  0.4641  2.1900
 6882SOL    HW221467   1.107   5.760   1.093  1.5121 -0.8611 -2.0440
 6883SOL     OW21468   0.473   0.323   3.844  0.3714 -0.1062 -0.3493
 6883SOL    HW121469   0.523   0.395   3.893  0.6783  0.6747 -1.7335
 6883SOL    HW221470   0.471   0.240   3.899 -1.9728  1.5610  2.3779
 6884SOL     OW21471   1.694   2.572   4.319 -0.0577 -0.2403  0.7487
 6884SOL    HW121472   1.617   2.511   4.301 -0.4534  0.2504  0.7612
 6884SOL    HW221473   1.672   2.631   4.396  0.2595  0.0273  0.6352
 6885SOL     OW21474   0.440   3.154   3.222  0.9668  0.1899 -0.1467
 6885SOL    HW121475   0.525   3.125   3.266  0.8825  0.3537  0.1280
 6885SOL    HW221476   0.386   3.207   3.287  1.1373  1.0055 -0.6568
 6886SOL     OW21477   5.985   0.722   1.970 -0.2272  0.1009 -0.3094
 6886SOL    HW121478   5.954   0.634   2.005 -2.4226 -0.0030 -2.2431
 6886SOL    HW221479   5.945   0.796   2.026  0.7411 -0.0834  0.6546
 6887SOL     OW21480   6.963   0.546   1.145  0.5091 -0.1024 -0.3532
 6887SOL    HW121481   6.940   0.643   1.148  1.7710  0.2274 -0.9045
 6887SOL    HW221482   6.939   0.509   1.055  1.7344  0.1604 -0.8065
 6888SOL     OW21483   1.058   4.190   6.421 -0.4648 -1.0405  0.7829
 6888SOL    HW121484   0.992   4.133   6.372 -0.0220 -0.2742 -0.7616
 6888SOL    HW221485   1.022   4.283   6.429  0.8752 -0.3058 -1.1378
 6889SOL     OW21486   3.333   1.104   5.365 -0.2742 -0.1326  0.2067
 6889SOL    HW121487   3.432   1.114   5.355 -0.1533 -2.6364 -2.1994
 6889SOL    HW221488   3.312   1.011   5.397 -1.8765 -0.9190 -2.7536
 6890SOL     OW21489   6.698   6.399   4.910  0.5321  0.3975 -0.3247
 6890SOL    HW121490   6.776   6.460   4.895 -0.7464  2.6080  1.4237
 6890SOL    HW221491   6.632   6.410   4.836  0.2769  1.2075  0.0167
 6891SOL     OW21492   3.073   1.541   4.500 -0.7153 -0.1885 -0.0214
 6891SOL    HW121493   3.069   1.636   4.530  0.2379 -0.0252 -0.3837
 6891SOL    HW221494   3.104   1.537   4.405  1.3441 -0.9214  0.6172
 6892SOL     OW21495   6.061   5.911   0.449 -0.1176  0.3129 -0.0302
 6892SOL    HW121496   6.011   5.836   0.405 -1.2002  0.5960  0.6705
 6892SOL    HW221497   6.040   5.912   0.547  2.9654 -0.8928  0.7723
 6893SOL     OW21498   6.163   4.390   0.081  0.2863 -0.0709 -0.0499
 6893SOL    HW121499   6.132   4.407   0.174  0.8394 -1.1188  0.3438
 6893SOL    HW221500   6.165   4.476   0.030 -1.1907  0.3289  0.5261
 6894SOL     OW21501   6.709   5.355   0.279  0.1972  0.3703  0.4375
 6894SOL    HW121502   6.611   5.364   0.260  0.2895 -2.2395 -1.8383
 6894SOL    HW221503   6.760   5.417   0.219  0.0304  0.8176  0.7466
 6895SOL     OW21504   3.829   1.630   1.976  0.4483  1.0877 -0.2020
 6895SOL    HW121505   3.798   1.604   1.885  0.6841  2.6875 -0.7590
 6895SOL    HW221506   3.920   1.591   1.992 -0.9113 -2.0054  0.7011
 6896SOL     OW21507   6.903   3.296   4.240  0.3532 -0.8790  0.1651
 6896SOL    HW121508   6.929   3.307   4.336 -0.6092 -1.9386  0.5791
 6896SOL    HW221509   6.830   3.228   4.233  0.8161 -1.2616 -1.3859
 6897SOL     OW21510   4.836   2.232   1.262  0.1410 -0.1862 -0.0321
 6897SOL    HW121511   4.919   2.199   1.306  0.5496  0.0365 -0.6206
 6897SOL    HW221512   4.857   2.315   1.210 -0.9571  1.4157  1.8980
 6898SOL     OW21513   3.753   3.782   4.083 -0.0197 -0.2640  0.3527
 6898SOL    HW121514   3.677   3.735   4.037 -0.9061  1.4964 -0.0598
 6898SOL    HW221515   3.717   3.859   4.135  1.5209  0.7689 -0.0649
 6899SOL     OW21516   0.438   5.078   5.101 -0.4560 -0.1276  0.2506
 6899SOL    HW121517   0.375   5.010   5.140  0.1742 -0.4714  0.6875
 6899SOL    HW221518   0.522   5.081   5.156 -0.8505  1.7037  0.8278
 6900SOL     OW21519   1.588   2.538   1.751  0.3051  0.5763 -0.4973
 6900SOL    HW121520   1.573   2.516   1.847  2.4131  0.8433 -0.0500
 6900SOL    HW221521   1.618   2.456   1.702  1.9726  1.0031 -0.2556
 6901SOL     OW21522   4.527   2.965   5.541 -0.4362 -0.4008  0.2565
 6901SOL    HW121523   4.502   3.008   5.454 -0.0700  0.3617  0.5155
 6901SOL    HW221524   4.500   3.025   5.616  1.8325  0.3522  0.5560
 6902SOL     OW21525   1.290   1.306   5.741 -0.0003 -0.3290 -0.3346
 6902SOL    HW121526   1.367   1.277   5.685  1.4523  1.6592  0.5313
 6902SOL    HW221527   1.237   1.375   5.691  0.1378  0.0067 -0.0144
 6903SOL     OW21528   6.024   6.652   5.606  0.7245 -0.0959  0.3506
 6903SOL    HW121529   6.078   6.668   5.688  2.1264 -2.6559  0.0215
 6903SOL    HW221530   6.059   6.573   5.557 -1.1867  0.2600 -1.8021
 6904SOL     OW21531   1.482   5.322   6.471 -0.1332  0.3730 -0.2883
 6904SOL    HW121532   1.419   5.367   6.534  0.3682 -0.3182  0.7311
 6904SOL    HW221533   1.432   5.251   6.420 -0.1842 -0.1674  0.5068
 6905SOL     OW21534   5.274   1.790   2.427  0.1058 -0.1729  0.4721
 6905SOL    HW121535   5.299   1.693   2.428 -0.7712 -0.4142  1.0638
 6905SOL    HW221536   5.219   1.809   2.346  1.6339  0.2157 -0.4999
 6906SOL     OW21537   3.149   0.460   3.994  0.2035 -0.0893 -0.1938
 6906SOL    HW121538   3.242   0.447   3.959 -0.1897 -0.5042 -1.1248
 6906SOL    HW221539   3.148   0.537   4.058  1.4288 -0.8833  0.8330
 6907SOL     OW21540   0.741   3.055   0.734  0.1304 -0.0760  0.6028
 6907SOL    HW121541   0.791   3.142   0.738  0.4054 -0.2602  1.4494
 6907SOL    HW221542   0.805   2.979   0.734 -0.0704 -0.2926 -1.1896
 6908SOL     OW21543   4.321   6.285   5.429  0.2675 -0.1655 -0.0799
 6908SOL    HW121544   4.255   6.259   5.358  2.6018 -2.2780 -1.6392
 6908SOL    HW221545   4.355   6.377   5.410 -1.7669  0.7637  0.4728
 6909SOL     OW21546   0.031   1.616   1.311 -0.2948 -0.0305  0.4539
 6909SOL    HW121547   0.022   1.715   1.317 -1.8393 -0.1452  0.3327
 6909SOL    HW221548  -0.032   1.572   1.375  0.0260 -0.9431  0.1636
 6910SOL     OW21549   0.143   0.512   3.287  0.7423  0.1759  0.0678
 6910SOL    HW121550   0.072   0.458   3.241  0.6611 -0.0487  0.4489
 6910SOL    HW221551   0.233   0.481   3.256  0.6888  0.0143  0.0704
 6911SOL     OW21552   5.655   5.421   6.482 -0.7788  0.4130  0.0841
 6911SOL    HW121553   5.579   5.400   6.544 -0.1355  0.8410  1.0300
 6911SOL    HW221554   5.677   5.339   6.428 -1.2903  0.0125  0.4728
 6912SOL     OW21555   3.207   0.791   6.995 -0.4946 -0.3512  0.3044
 6912SOL    HW121556   3.306   0.781   7.002 -0.3880  0.9132  0.8021
 6912SOL    HW221557   3.165   0.700   6.991  0.7666 -0.9162 -1.4505
 6913SOL     OW21558   4.686   0.257   4.094 -0.3582  0.2512 -0.6843
 6913SOL    HW121559   4.656   0.236   4.001  0.6424  1.9182 -1.4373
 6913SOL    HW221560   4.757   0.328   4.091  0.2916 -0.2533  1.3101
 6914SOL     OW21561   5.688   0.144   1.196 -0.3922 -0.0095 -0.1822
 6914SOL    HW121562   5.653   0.237   1.207 -1.1963 -0.4755  1.5950
 6914SOL    HW221563   5.770   0.133   1.252 -0.3693 -0.4134 -0.2932
 6915SOL     OW21564   3.448   1.368   4.827 -0.2347  0.6990 -0.4317
 6915SOL    HW121565   3.476   1.364   4.731  0.5648 -0.5172 -0.1700
 6915SOL    HW221566   3.368   1.310   4.841 -0.0556  0.4949 -0.2625
 6916SOL     OW21567   0.047   2.956   3.301 -0.1428 -0.7207  0.1857
 6916SOL    HW121568   0.114   2.975   3.229 -1.7722 -1.6859 -1.6883
 6916SOL    HW221569   0.042   3.034   3.363  0.4187  0.7176 -1.4771
 6917SOL     OW21570   5.268   2.388   1.652 -0.2205  0.2350  0.4738
 6917SOL    HW121571   5.319   2.422   1.572 -2.3432  0.3184 -0.9285
 6917SOL    HW221572   5.254   2.289   1.642 -0.4229  0.2344  0.7812
 6918SOL     OW21573   1.794   0.824   0.558 -0.2760 -0.4320  0.1619
 6918SOL    HW121574   1.752   0.790   0.474 -2.6119  0.5219  0.8402
 6918SOL    HW221575   1.728   0.881   0.607  1.6093  0.4750  1.7943
 6919SOL     OW21576   0.708   4.465   3.590  0.2573 -0.6122  0.4566
 6919SOL    HW121577   0.667   4.516   3.514  2.1577 -0.6014 -0.6137
 6919SOL    HW221578   0.677   4.504   3.676  0.1804  1.1664 -0.3275
 6920SOL     OW21579   4.066   2.041   3.232  0.7174 -0.0813 -0.1044
 6920SOL    HW121580   4.024   2.031   3.142  0.4613 -1.6323  0.1502
 6920SOL    HW221581   3.994   2.050   3.301  0.8069 -1.3206  0.1793
 6921SOL     OW21582   0.109   0.218   0.186 -0.2851  0.4273  0.1502
 6921SOL    HW121583   0.153   0.298   0.144 -2.1204  1.4001 -0.0424
 6921SOL    HW221584   0.084   0.153   0.114  1.3757 -0.4508  0.3246
 6922SOL     OW21585   1.267   1.944   3.759 -0.4505 -0.0654 -0.0504
 6922SOL    HW121586   1.212   2.027   3.764 -0.4226  0.0940 -1.8548
 6922SOL    HW221587   1.207   1.864   3.757 -0.4742 -0.1351  1.8233
 6923SOL     OW21588   2.725   6.456   1.783  0.3554 -1.0152 -0.4681
 6923SOL    HW121589   2.627   6.443   1.771 -0.1700  2.0113 -0.1208
 6923SOL    HW221590   2.752   6.427   1.875 -0.3990 -0.9825 -0.2346
 6924SOL     OW21591   5.383   5.918   0.257  0.5560 -0.0012 -0.2334
 6924SOL    HW121592   5.478   5.887   0.255  0.3596 -0.5790 -1.1220
 6924SOL    HW221593   5.379   6.016   0.237  1.1120  0.4731  1.7525
 6925SOL     OW21594   1.165   2.729   1.741 -0.6517  0.0928  0.0581
 6925SOL    HW121595   1.115   2.777   1.669  2.2369 -1.8979 -3.6324
 6925SOL    HW221596   1.252   2.775   1.758 -0.7093 -0.2366  1.3361
 6926SOL     OW21597   5.132   0.738   4.299  0.0892 -0.5669  0.6092
 6926SOL    HW121598   5.168   0.658   4.252  0.9234  0.3375 -0.3155
 6926SOL    HW221599   5.032   0.739   4.291  0.0359 -1.6605  0.9026
 6927SOL     OW21600   6.548   3.523   5.805  0.1529 -0.2420 -0.2256
 6927SOL    HW121601   6.484   3.564   5.870  1.1376 -0.6197  1.0462
 6927SOL    HW221602   6.498   3.468   5.738 -1.0030  1.2675 -0.6498
 6928SOL     OW21603   1.228   1.917   1.371  0.9238 -0.3473  0.0124
 6928SOL    HW121604   1.299   1.894   1.438 -0.0865 -0.4394  1.0909
 6928SOL    HW221605   1.140   1.930   1.418  0.4123  0.7392 -1.1696
 6929SOL     OW21606   3.713   3.405   4.702 -0.0537 -0.4350 -0.4419
 6929SOL    HW121607   3.765   3.405   4.617  0.0698 -0.2662 -0.3677
 6929SOL    HW221608   3.642   3.335   4.698  0.2942 -0.7919 -0.4775
 6930SOL     OW21609   0.120   3.632   5.142 -0.0843 -0.0825 -0.2426
 6930SOL    HW121610   0.178   3.551   5.130 -2.1877 -1.8773  0.9604
 6930SOL    HW221611   0.170   3.701   5.195  0.6006 -2.0102  1.7640
 6931SOL     OW21612   1.009   3.179   0.248 -0.9107 -0.6107 -0.6904
 6931SOL    HW121613   1.023   3.271   0.285 -4.1605 -0.1399 -0.3538
 6931SOL    HW221614   1.059   3.170   0.162  0.7430  0.8711  0.0533
 6932SOL     OW21615   1.583   0.634   0.109  0.1141 -0.8004  0.8348
 6932SOL    HW121616   1.489   0.602   0.114  0.1141 -1.1216 -0.7780
 6932SOL    HW221617   1.628   0.597   0.028  0.7755  1.5383  0.0257
 6933SOL     OW21618   5.314   2.744   3.592  0.2682 -0.0845  0.3612
 6933SOL    HW121619   5.377   2.822   3.594 -0.7704  0.8186 -0.6576
 6933SOL    HW221620   5.221   2.777   3.580 -0.2702 -1.4774  0.4950
 6934SOL     OW21621   3.774   5.533   4.013 -0.7341 -0.3850 -0.8324
 6934SOL    HW121622   3.679   5.555   4.035 -0.4461 -0.6980  0.8866
 6934SOL    HW221623   3.826   5.522   4.098  0.8673 -0.1269 -1.7395
 6935SOL     OW21624   4.854   6.350   3.479  0.2574  0.0866 -0.1070
 6935SOL    HW121625   4.764   6.374   3.515  0.5733 -0.6724  1.2714
 6935SOL    HW221626   4.893   6.429   3.432  0.1488  1.4162  1.9085
 6936SOL     OW21627   5.709   1.665   1.077  0.1608  0.3061  0.0662
 6936SOL    HW121628   5.727   1.568   1.093  0.0495  0.1014 -1.0085
 6936SOL    HW221629   5.639   1.697   1.141 -1.8897 -1.0439 -1.3777
 6937SOL     OW21630   5.558   3.395   5.189 -0.1793 -0.5308  0.3585
 6937SOL    HW121631   5.477   3.351   5.228 -1.2435 -1.1577 -2.3023
 6937SOL    HW221632   5.531   3.452   5.112  1.8386  0.0269 -0.0010
 6938SOL     OW21633   1.198   2.587   2.564 -0.5174  0.0084  0.2036
 6938SOL    HW121634   1.247   2.504   2.592 -1.1009 -0.8037 -1.0557
 6938SOL    HW221635   1.129   2.610   2.633 -0.0457 -0.2869  0.7836
 6939SOL     OW21636   3.720   0.453   4.097 -0.1507 -0.4664  0.2987
 6939SOL    HW121637   3.738   0.546   4.130 -2.5272  0.1509  0.0122
 6939SOL    HW221638   3.744   0.448   4.000 -0.6220  0.0425  0.1510
 6940SOL     OW21639   0.797   0.895   5.153  0.2332  0.0597 -0.5457
 6940SOL    HW121640   0.777   0.992   5.170  0.6202  0.0521 -0.0164
 6940SOL    HW221641   0.896   0.883   5.143  0.5976 -0.7474  2.7540
 6941SOL     OW21642   3.895   2.240   5.341  0.0628  0.0053  0.4979
 6941SOL    HW121643   3.809   2.291   5.338  0.6509  0.9736 -1.0924
 6941SOL    HW221644   3.947   2.266   5.422 -0.7468  0.0514  1.0131
 6942SOL     OW21645   2.144   6.902   1.707 -0.0476  0.3547  0.0131
 6942SOL    HW121646   2.128   6.821   1.763 -0.2873 -0.5376 -1.3075
 6942SOL    HW221647   2.057   6.944   1.682  0.0750  1.0715  0.7226
 6943SOL     OW21648   2.562   6.838   3.383  0.2414 -0.3305 -0.0749
 6943SOL    HW121649   2.472   6.881   3.384  0.2575 -0.2673 -0.6321
 6943SOL    HW221650   2.622   6.889   3.321 -0.0837 -1.8096 -1.6856
 6944SOL     OW21651   6.578   3.605   6.519 -0.3665 -0.1621 -0.2148
 6944SOL    HW121652   6.539   3.679   6.574  0.0767 -0.0874  0.0025
 6944SOL    HW221653   6.549   3.616   6.423  1.7113  1.7872 -0.7156
 6945SOL     OW21654   3.637   1.722   2.172  0.2352 -0.0977 -0.3198
 6945SOL    HW121655   3.704   1.679   2.113  0.0210 -0.9177  0.0224
 6945SOL    HW221656   3.676   1.734   2.264  0.4968  0.9804 -0.5570
 6946SOL     OW21657   3.504   1.609   4.469  0.5364  0.2201  0.2301
 6946SOL    HW121658   3.501   1.540   4.542 -0.2382 -1.4494 -1.3193
 6946SOL    HW221659   3.581   1.590   4.408  1.5447  1.9571  0.8623
 6947SOL     OW21660   0.973   3.480   4.779 -0.0345 -0.0137 -0.3178
 6947SOL    HW121661   1.003   3.396   4.735  1.1434  0.4107 -0.3570
 6947SOL    HW221662   0.875   3.491   4.767  0.1982 -0.0264 -2.6315
 6948SOL     OW21663   1.246   1.778   3.261  0.0140 -0.3016 -0.3790
 6948SOL    HW121664   1.247   1.700   3.200 -1.1705 -0.2372 -0.5090
 6948SOL    HW221665   1.174   1.766   3.330  1.5197 -0.5349  1.2475
 6949SOL     OW21666   3.218   1.758   2.434  0.2787  0.8444 -0.1955
 6949SOL    HW121667   3.279   1.716   2.500  0.3218 -1.4606 -1.5851
 6949SOL    HW221668   3.128   1.771   2.476  0.6101  0.4637  0.6606
 6950SOL     OW21669   2.516   2.545   6.932 -0.2517  0.3702  0.1771
 6950SOL    HW121670   2.421   2.537   6.963 -0.6230 -1.3437 -1.2150
 6950SOL    HW221671   2.573   2.483   6.985  0.3908  2.3348  1.8972
 6951SOL     OW21672   0.204   0.555   2.042 -0.0177  0.4383  0.0693
 6951SOL    HW121673   0.120   0.507   2.067  0.7817 -1.1498 -0.1876
 6951SOL    HW221674   0.192   0.653   2.057 -1.6729  0.1684  0.6889
 6952SOL     OW21675   2.603   5.657   5.505  0.1030 -0.2080 -0.1659
 6952SOL    HW121676   2.702   5.673   5.510 -0.1949  1.4496  1.7166
 6952SOL    HW221677   2.559   5.732   5.456 -0.2771 -0.8207 -0.7922
 6953SOL     OW21678   2.891   2.936   4.073  0.4085  0.4486  0.2421
 6953SOL    HW121679   2.928   3.018   4.117 -1.3779  1.0517  0.7132
 6953SOL    HW221680   2.872   2.956   3.977  0.4921  0.4174  0.2194
 6954SOL     OW21681   3.943   4.573   0.788  0.3905 -0.3272 -0.7181
 6954SOL    HW121682   4.040   4.560   0.812  0.0941 -1.9854 -0.2798
 6954SOL    HW221683   3.900   4.484   0.775 -1.1056  0.3857 -0.8614
 6955SOL     OW21684   3.894   6.551   0.148 -0.7393 -0.5049  0.5841
 6955SOL    HW121685   3.850   6.519   0.064  0.1154 -1.2064  0.3866
 6955SOL    HW221686   3.952   6.630   0.127 -1.0275 -0.2739  0.6429
 6956SOL     OW21687   4.442   0.918   1.552  0.3875 -0.1717  0.0118
 6956SOL    HW121688   4.375   0.980   1.510 -0.6989 -0.8068  0.7505
 6956SOL    HW221689   4.428   0.825   1.516  0.7129 -0.3585  0.3657
 6957SOL     OW21690   4.651   0.922   2.004  0.6011  0.1447 -1.4251
 6957SOL    HW121691   4.749   0.917   2.025  0.4670  1.4743 -0.3350
 6957SOL    HW221692   4.630   1.013   1.968 -0.3089 -0.0035 -1.2830
 6958SOL     OW21693   3.945   4.226   6.260 -0.5355 -0.1870  0.3627
 6958SOL    HW121694   4.009   4.299   6.286 -1.3647 -0.1061  2.2897
 6958SOL    HW221695   3.852   4.262   6.257 -1.0277 -1.2424  1.8694
 6959SOL     OW21696   6.152   1.508   5.728  0.2932 -0.0863  0.1101
 6959SOL    HW121697   6.168   1.583   5.792 -0.1451  0.2891 -0.2130
 6959SOL    HW221698   6.104   1.542   5.647  0.1523 -0.7015 -0.0753
 6960SOL     OW21699   0.194   5.169   3.507 -0.1283 -0.6868  0.2410
 6960SOL    HW121700   0.258   5.103   3.467 -0.3097  0.3185 -1.8294
 6960SOL    HW221701   0.242   5.256   3.524 -0.4795 -0.5580  0.5974
 6961SOL     OW21702   0.248   5.679   2.264 -0.6460 -0.1212 -0.1063
 6961SOL    HW121703   0.217   5.725   2.348 -2.4123  0.8823 -1.2324
 6961SOL    HW221704   0.216   5.731   2.184 -0.8257 -2.1511 -1.4211
 6962SOL     OW21705   4.285   0.115   6.286 -0.2035 -0.5035  0.0010
 6962SOL    HW121706   4.323   0.184   6.347  0.8755 -0.0248 -1.1736
 6962SOL    HW221707   4.193   0.142   6.257 -0.0427  0.0961  0.0550
 6963SOL     OW21708   3.431   2.538   0.403 -0.1020  0.2818  0.5497
 6963SOL    HW121709   3.363   2.486   0.454 -2.6502  0.5832 -2.2302
 6963SOL    HW221710   3.469   2.481   0.330 -1.3526  1.5330 -1.1839
 6964SOL     OW21711   3.613   6.126   5.703 -0.2163  0.2818 -0.1084
 6964SOL    HW121712   3.543   6.179   5.656 -0.9662 -0.3317  0.3051
 6964SOL    HW221713   3.668   6.188   5.760 -0.1106  0.8345 -0.7977
 6965SOL     OW21714   6.264   3.051   6.313 -0.1206  0.2490 -0.7950
 6965SOL    HW121715   6.338   3.087   6.256  0.8834 -0.8327 -0.2420
 6965SOL    HW221716   6.236   2.962   6.277  1.2771 -0.9625  0.9393
 6966SOL     OW21717   0.121   1.569   5.224  0.2970  0.2507 -0.2105
 6966SOL    HW121718   0.129   1.665   5.198 -0.4742  0.3920  0.0476
 6966SOL    HW221719   0.212   1.530   5.238  0.5920  1.2002  0.6092
 6967SOL     OW21720   0.893   3.078   1.728 -0.4687  0.3862  0.7774
 6967SOL    HW121721   0.865   3.076   1.631  0.2876  1.5428  0.5170
 6967SOL    HW221722   0.902   3.173   1.757 -1.2062  0.0542  2.1588
 6968SOL     OW21723   3.322   5.049   1.858 -0.5531  0.0471  0.0956
 6968SOL    HW121724   3.256   4.974   1.869 -2.4465  1.7386  0.9606
 6968SOL    HW221725   3.337   5.066   1.761 -1.6314 -0.2057 -0.1314
 6969SOL     OW21726   1.281   5.861   0.848 -0.2921 -0.3900  0.9497
 6969SOL    HW121727   1.223   5.854   0.767  0.1189  0.8938  0.5204
 6969SOL    HW221728   1.377   5.861   0.820 -0.1413 -0.1189  1.4466
 6970SOL     OW21729   3.100   0.566   2.456  0.3154 -0.2499 -0.1722
 6970SOL    HW121730   3.126   0.491   2.517 -2.9180 -2.0236 -0.7117
 6970SOL    HW221731   3.171   0.580   2.387  1.9307 -1.3610  1.1920
 6971SOL     OW21732   1.518   6.511   1.052 -0.5314  0.9100  0.2655
 6971SOL    HW121733   1.479   6.471   1.135 -1.4898  0.7816 -0.2342
 6971SOL    HW221734   1.445   6.547   0.995  0.1136  0.9153 -0.5755
 6972SOL     OW21735   5.139   1.124   2.096 -0.5554 -0.0503  0.3312
 6972SOL    HW121736   5.155   1.058   2.169  0.1384  1.4430  1.5656
 6972SOL    HW221737   5.099   1.207   2.134 -0.1690  0.7617 -0.9793
 6973SOL     OW21738   0.813   6.959   1.792  0.4223  0.4369  0.0517
 6973SOL    HW121739   0.743   7.018   1.833  0.2689  0.2955 -0.0064
 6973SOL    HW221740   0.806   6.962   1.693 -0.0563 -0.2393  0.0600
 6974SOL     OW21741   3.379   1.711   1.054 -0.4383  0.1523 -0.2210
 6974SOL    HW121742   3.392   1.697   1.153 -0.6019  1.4818  0.0097
 6974SOL    HW221743   3.458   1.676   1.005  0.7076  1.5441  0.5813
 6975SOL     OW21744   1.065   5.753   5.019 -0.5858 -0.3204 -0.5023
 6975SOL    HW121745   0.995   5.713   5.078 -1.9726 -0.3955 -2.1402
 6975SOL    HW221746   1.156   5.725   5.051 -1.2439  0.0036  1.8312
 6976SOL     OW21747   2.475   3.351   6.758  0.2794  0.1019 -0.0450
 6976SOL    HW121748   2.567   3.379   6.731  0.2385 -0.5329 -0.9085
 6976SOL    HW221749   2.479   3.265   6.809 -0.0211 -2.0167 -3.2863
 6977SOL     OW21750   0.371   2.038   2.017 -0.3543 -0.1651  0.2003
 6977SOL    HW121751   0.314   1.957   2.003 -2.3231  1.2338 -0.3552
 6977SOL    HW221752   0.413   2.064   1.929 -2.4305  1.2648 -0.4542
 6978SOL     OW21753   5.788   6.524   1.589  0.5299 -0.2349 -0.3481
 6978SOL    HW121754   5.742   6.487   1.669 -0.5255 -0.8952 -1.2364
 6978SOL    HW221755   5.856   6.458   1.557  1.1963  0.1760  0.1836
 6979SOL     OW21756   1.944   4.412   6.515 -0.6889  0.2551  0.4926
 6979SOL    HW121757   2.044   4.408   6.512 -0.6403  1.3429  0.4432
 6979SOL    HW221758   1.909   4.445   6.427 -0.8688  3.3740  1.6177
 6980SOL     OW21759   0.628   5.577   5.002 -0.4767 -0.2488  0.9041
 6980SOL    HW121760   0.618   5.671   4.969  3.5968 -0.2718 -1.0095
 6980SOL    HW221761   0.601   5.513   4.930  2.2312 -0.3774 -0.0877
 6981SOL     OW21762   3.749   3.603   4.331  0.6590 -0.0307  0.1532
 6981SOL    HW121763   3.727   3.549   4.249  0.6333  1.7530 -1.0617
 6981SOL    HW221764   3.804   3.682   4.305 -0.4468  1.2874  1.6838
 6982SOL     OW21765   4.180   1.270   1.666  0.4873  0.0588 -0.1697
 6982SOL    HW121766   4.174   1.365   1.636 -0.8848 -0.0048 -0.1387
 6982SOL    HW221767   4.229   1.265   1.753 -2.2285  1.1688  1.5618
 6983SOL     OW21768   5.453   1.115   2.219  0.2644  0.3644 -0.0254
 6983SOL    HW121769   5.416   1.051   2.287 -1.7999  1.3468 -0.1461
 6983SOL    HW221770   5.421   1.208   2.240  0.6970  0.8940 -1.5839
 6984SOL     OW21771   3.576   5.148   5.152 -0.0135  0.2936  0.3093
 6984SOL    HW121772   3.507   5.135   5.223 -0.7502  0.3208 -0.3902
 6984SOL    HW221773   3.617   5.059   5.129  0.0502  0.2499  0.5798
 6985SOL     OW21774   3.360   6.388   6.899  0.0566 -0.4006 -0.1022
 6985SOL    HW121775   3.272   6.366   6.856  0.5003 -2.5631 -0.0008
 6985SOL    HW221776   3.427   6.410   6.828 -0.4935  1.1167 -0.1879
 6986SOL     OW21777   4.136   2.261   6.123 -0.3031  0.4121 -0.1452
 6986SOL    HW121778   4.182   2.278   6.210 -0.3655  0.8465 -0.1966
 6986SOL    HW221779   4.150   2.165   6.097 -1.3860 -0.0849  0.9913
 6987SOL     OW21780   5.859   1.123   1.535 -0.9226 -0.1446 -0.3289
 6987SOL    HW121781   5.787   1.153   1.598 -2.5521 -1.1713 -1.6291
 6987SOL    HW221782   5.917   1.201   1.511 -2.8397  1.1962 -0.8065
 6988SOL     OW21783   5.864   1.286   4.803 -0.2327 -0.2103 -0.4265
 6988SOL    HW121784   5.962   1.304   4.811 -0.8879  3.9605  0.2034
 6988SOL    HW221785   5.819   1.305   4.890 -1.8591  0.1487 -1.3047
 6989SOL     OW21786   5.500   2.951   1.637  0.3693 -0.5680 -0.3897
 6989SOL    HW121787   5.425   2.903   1.683 -0.8753  0.4491 -1.3016
 6989SOL    HW221788   5.475   2.970   1.542  1.9139 -0.4655 -0.7988
 6990SOL     OW21789   4.779   5.514   1.192 -0.1488  0.1642  0.3727
 6990SOL    HW121790   4.745   5.545   1.103 -0.0677  1.5117  0.7917
 6990SOL    HW221791   4.715   5.448   1.231 -1.4700  1.4050  0.3983
 6991SOL     OW21792   4.302   5.851   3.952  0.9457  0.1181  0.3864
 6991SOL    HW121793   4.377   5.846   3.887 -1.3688 -2.4543 -2.3607
 6991SOL    HW221794   4.321   5.790   4.029  1.9011 -0.0632  0.0233
 6992SOL     OW21795   1.194   3.696   4.388  0.3924  0.1905 -0.0781
 6992SOL    HW121796   1.266   3.668   4.325  1.6463  1.8490  0.5519
 6992SOL    HW221797   1.234   3.733   4.472 -1.1823 -3.0928  2.3951
 6993SOL     OW21798   1.437   6.917   2.010 -0.1659 -0.3525 -0.1792
 6993SOL    HW121799   1.471   6.900   1.918 -1.2146  2.0917 -1.1183
 6993SOL    HW221800   1.344   6.881   2.019 -0.4682  0.3376 -0.4626
 6994SOL     OW21801   0.342   4.672   0.249  0.1593 -0.0466  0.6831
 6994SOL    HW121802   0.325   4.585   0.296 -0.3314  0.9748  2.4898
 6994SOL    HW221803   0.438   4.677   0.221  0.5477 -0.5617  1.8812
 6995SOL     OW21804   2.407   5.975   2.198  0.1627 -0.1352 -0.2066
 6995SOL    HW121805   2.430   5.938   2.109  0.2196  1.8833 -1.0877
 6995SOL    HW221806   2.407   6.075   2.194  0.4870  0.0227  2.1379
 6996SOL     OW21807   1.293   5.175   0.765 -0.8080  0.3353  0.1678
 6996SOL    HW121808   1.381   5.159   0.722 -0.9286  1.8759 -0.7086
 6996SOL    HW221809   1.298   5.257   0.822 -1.4243 -0.0936  0.8594
 6997SOL     OW21810   4.050   6.902   2.248  0.2333  0.4478  0.1859
 6997SOL    HW121811   4.032   6.992   2.209 -0.1240  0.4799  0.4278
 6997SOL    HW221812   4.149   6.887   2.252  0.2991 -0.1564 -2.1177
 6998SOL     OW21813   5.728   3.854   6.047  0.3072 -0.3405  0.0217
 6998SOL    HW121814   5.704   3.758   6.058 -0.5837 -0.1711 -0.2978
 6998SOL    HW221815   5.825   3.867   6.064  0.4704 -1.3260 -0.1163
 6999SOL     OW21816   1.443   0.193   2.003 -0.8918 -0.0275  0.1926
 6999SOL    HW121817   1.515   0.233   2.059 -0.5562 -0.3130 -0.0273
 6999SOL    HW221818   1.456   0.093   2.000 -1.2353 -0.0668  0.0690
 7000SOL     OW21819   4.121   2.661   6.630  0.0380 -0.0102 -0.2566
 7000SOL    HW121820   4.030   2.702   6.639 -0.0030 -0.2385  0.3669
 7000SOL    HW221821   4.113   2.576   6.578 -0.1822 -0.2864  0.2234
 7001SOL     OW21822   1.941   6.005   3.563 -0.0131 -0.6465 -0.1695
 7001SOL    HW121823   1.970   5.926   3.618  1.9099  1.8010  2.6374
 7001SOL    HW221824   2.022   6.049   3.524 -0.9571  0.4884 -0.8836
 7002SOL     OW21825   3.390   6.413   2.923  0.4221 -0.5683  0.5180
 7002SOL    HW121826   3.467   6.429   2.985  0.1614  0.8539  0.5223
 7002SOL    HW221827   3.397   6.475   2.845 -1.2451  0.3413  1.0323
 7003SOL     OW21828   4.211   1.028   1.129 -0.0904  0.5274 -0.4604
 7003SOL    HW121829   4.189   1.038   1.032  0.4162  1.2541 -0.5131
 7003SOL    HW221830   4.310   1.031   1.141 -0.0368 -1.4403 -0.1008
 7004SOL     OW21831   0.384   6.803   5.535 -0.2687 -0.5647  0.2799
 7004SOL    HW121832   0.467   6.772   5.487 -0.3748 -1.6158  0.7663
 7004SOL    HW221833   0.304   6.755   5.499 -0.6368  0.2017  0.0482
 7005SOL     OW21834   6.095   1.767   0.692 -0.1236 -0.1398 -0.4506
 7005SOL    HW121835   6.006   1.732   0.662 -0.5423  0.3495  0.1859
 7005SOL    HW221836   6.154   1.691   0.718 -0.4821 -0.4525 -0.5405
 7006SOL     OW21837   4.380   1.634   5.578  0.2055 -0.0562 -0.7772
 7006SOL    HW121838   4.377   1.646   5.677  2.6090 -1.7047 -0.4118
 7006SOL    HW221839   4.385   1.536   5.556  1.8407  0.3109 -2.3718
 7007SOL     OW21840   0.849   2.500   0.020  0.1517 -0.1158  0.2907
 7007SOL    HW121841   0.777   2.517   0.087  0.7554  1.6114  0.5616
 7007SOL    HW221842   0.929   2.459   0.066  0.4678  0.8250  0.6104
 7008SOL     OW21843   5.658   6.726   5.405  0.4774 -0.6260  0.6631
 7008SOL    HW121844   5.697   6.801   5.459  1.5801 -1.1606  0.6283
 7008SOL    HW221845   5.657   6.642   5.459 -2.3994 -0.2690  1.3447
 7009SOL     OW21846   6.382   0.560   4.248 -0.0424 -0.2572 -0.6635
 7009SOL    HW121847   6.400   0.571   4.346  1.6353 -0.4218 -0.9267
 7009SOL    HW221848   6.283   0.553   4.233 -0.4446  1.4177  0.8411
 7010SOL     OW21849   3.925   3.235   1.478 -0.1562 -0.7941 -0.0660
 7010SOL    HW121850   3.987   3.227   1.556  0.2151  0.1960 -0.2464
 7010SOL    HW221851   3.949   3.166   1.409  1.4813  0.2316 -0.6059
 7011SOL     OW21852   4.673   4.450   1.300 -0.5020 -0.3464 -0.0482
 7011SOL    HW121853   4.654   4.548   1.293 -0.4153 -0.1563  1.9000
 7011SOL    HW221854   4.721   4.420   1.217 -0.6568  1.2045 -0.7472
 7012SOL     OW21855   6.063   2.497   6.257  0.4574 -0.1516 -0.0331
 7012SOL    HW121856   6.052   2.409   6.212 -0.8370  0.1688 -0.3594
 7012SOL    HW221857   6.052   2.485   6.356 -0.7923 -0.1878 -0.1696
 7013SOL     OW21858   2.725   0.570   6.930  0.1772 -0.2255  0.5172
 7013SOL    HW121859   2.754   0.650   6.878  0.5380 -0.8782 -0.3072
 7013SOL    HW221860   2.641   0.591   6.980 -0.4713  0.2483 -0.7471
 7014SOL     OW21861   2.641   0.817   0.518 -0.0478  0.0891  0.2118
 7014SOL    HW121862   2.706   0.812   0.443 -0.2098 -2.5113  0.1793
 7014SOL    HW221863   2.568   0.751   0.504 -2.8378  2.9233  0.2289
 7015SOL     OW21864   6.933   1.821   5.084  0.1987 -0.3227  0.1594
 7015SOL    HW121865   6.899   1.728   5.069  1.7366 -0.8096 -0.4740
 7015SOL    HW221866   6.908   1.851   5.176  0.3570 -1.6617  0.6608
 7016SOL     OW21867   0.739   0.334   5.772  0.0898  0.0586 -0.8050
 7016SOL    HW121868   0.711   0.350   5.677  1.8084  2.4205 -0.9878
 7016SOL    HW221869   0.657   0.324   5.829 -0.9780 -2.2302 -2.5797
 7017SOL     OW21870   5.952   1.596   4.780  0.4543  0.1345 -0.6447
 7017SOL    HW121871   5.860   1.617   4.813 -0.7655 -3.7591 -1.1384
 7017SOL    HW221872   5.954   1.603   4.680  0.3741 -0.7921 -0.7164
 7018SOL     OW21873   0.623   5.739   4.125 -0.5423 -0.1601  0.5470
 7018SOL    HW121874   0.559   5.677   4.171 -0.5364  0.5240  1.5098
 7018SOL    HW221875   0.613   5.832   4.162  0.7121  0.0489  0.4310
 7019SOL     OW21876   2.601   5.158   2.591 -0.4170 -0.1409 -0.0649
 7019SOL    HW121877   2.561   5.072   2.624 -1.3544 -0.1577 -1.1882
 7019SOL    HW221878   2.678   5.138   2.530 -1.0658 -0.2284 -0.8777
 7020SOL     OW21879   6.930   1.890   6.177  0.4045 -0.1596  0.0800
 7020SOL    HW121880   6.892   1.900   6.270  1.2743  0.1536  0.4110
 7020SOL    HW221881   7.015   1.838   6.182  0.2603 -0.4607 -0.5968
 7021SOL     OW21882   3.187   0.321   6.223  0.4622  0.0686  0.2824
 7021SOL    HW121883   3.126   0.307   6.301 -0.4996  1.4174 -0.1921
 7021SOL    HW221884   3.148   0.390   6.163  1.3506 -0.7165 -1.2392
 7022SOL     OW21885   0.219   2.901   2.545  0.2635 -1.0741 -0.0809
 7022SOL    HW121886   0.219   2.994   2.508 -1.3259 -0.6575  0.9108
 7022SOL    HW221887   0.234   2.836   2.471 -1.0660 -0.1571 -1.2032
 7023SOL     OW21888   0.678   3.681   0.910  0.1567  0.1989  0.3819
 7023SOL    HW121889   0.677   3.586   0.942  0.0473  0.5517  1.4643
 7023SOL    HW221890   0.771   3.708   0.887  0.3159  0.0894  0.8889
 7024SOL     OW21891   0.550   2.859   4.616  0.5431 -0.6054  0.1486
 7024SOL    HW121892   0.501   2.942   4.591 -0.3009 -0.9288  0.6854
 7024SOL    HW221893   0.498   2.809   4.686  1.3391 -1.2697  0.2851
 7025SOL     OW21894   3.661   6.682   3.910 -0.2239  0.1780  0.0621
 7025SOL    HW121895   3.613   6.596   3.893  1.2674 -0.7458  0.3516
 7025SOL    HW221896   3.623   6.754   3.852 -0.4612 -1.0401 -1.3291
 7026SOL     OW21897   3.300   1.935   4.497  0.0975  0.0392  0.6324
 7026SOL    HW121898   3.320   1.893   4.408  1.1860  0.3238  0.7273
 7026SOL    HW221899   3.223   1.889   4.539 -1.3821  0.8131 -1.1028
 7027SOL     OW21900   6.704   6.200   1.340  0.1320  0.1735 -0.1606
 7027SOL    HW121901   6.745   6.154   1.261  0.7195  0.0918  0.1875
 7027SOL    HW221902   6.752   6.173   1.423  0.7082  1.6797  0.0172
 7028SOL     OW21903   3.733   2.894   5.867 -0.1003  0.0241  0.5956
 7028SOL    HW121904   3.766   2.970   5.922  0.1123  0.1486  0.3003
 7028SOL    HW221905   3.783   2.810   5.892  1.3800  0.4623 -0.7314
 7029SOL     OW21906   3.427   0.858   2.256 -0.4655 -0.8180 -0.2157
 7029SOL    HW121907   3.346   0.879   2.201 -0.3535 -0.4531 -0.2458
 7029SOL    HW221908   3.430   0.918   2.336 -0.6249 -1.3441  0.1897
 7030SOL     OW21909   6.769   2.413   5.146 -0.4268  0.3299  0.4823
 7030SOL    HW121910   6.841   2.468   5.188  1.2640 -0.6950 -0.9353
 7030SOL    HW221911   6.712   2.373   5.217  2.0522 -1.0089  1.8582
 7031SOL     OW21912   5.869   4.340   5.120  0.1290  0.2643  0.0404
 7031SOL    HW121913   5.910   4.376   5.036  0.5952  0.4461  0.3400
 7031SOL    HW221914   5.935   4.347   5.195  0.5775 -2.0441 -0.0697
 7032SOL     OW21915   6.722   3.816   5.773 -0.3119  0.1247  0.4919
 7032SOL    HW121916   6.740   3.775   5.862 -0.0475  0.5342  0.6274
 7032SOL    HW221917   6.800   3.872   5.745 -0.1935 -0.3719 -0.2113
 7033SOL     OW21918   4.788   0.078   3.217  0.0101 -0.3429  0.1607
 7033SOL    HW121919   4.832   0.131   3.290 -0.5122  2.4352 -1.4285
 7033SOL    HW221920   4.858   0.033   3.162  0.4899 -0.9017  1.1815
 7034SOL     OW21921   6.629   5.399   1.352 -0.7850  0.6723 -0.2093
 7034SOL    HW121922   6.618   5.443   1.441 -1.1455  0.7487 -0.2910
 7034SOL    HW221923   6.632   5.299   1.364  2.1731  0.7087  0.2253
 7035SOL     OW21924   3.560   6.370   3.873 -0.8105 -0.2513 -0.1575
 7035SOL    HW121925   3.629   6.301   3.854 -1.1651 -0.3963 -0.9833
 7035SOL    HW221926   3.489   6.366   3.803 -1.1989  0.4815  0.1792
 7036SOL     OW21927   0.553   5.709   0.261  0.0678  0.2604 -0.4023
 7036SOL    HW121928   0.531   5.614   0.242  1.3204 -0.2159  0.3684
 7036SOL    HW221929   0.496   5.742   0.336 -0.2547  0.0664 -0.5612
 7037SOL     OW21930   2.000   1.218   1.837 -0.4698 -0.3512  0.4110
 7037SOL    HW121931   2.034   1.175   1.754  0.5689  0.9550  0.1488
 7037SOL    HW221932   2.076   1.245   1.895 -1.1351  0.3903  0.9612
 7038SOL     OW21933   1.519   4.185   6.515  0.5780  0.0622  0.5927
 7038SOL    HW121934   1.489   4.193   6.420 -0.7923  0.5860  1.0450
 7038SOL    HW221935   1.440   4.167   6.574  1.0361  2.0598  1.9248
 7039SOL     OW21936   5.701   3.819   4.790  0.4759  0.4702  0.2081
 7039SOL    HW121937   5.740   3.814   4.882  2.9517  1.9364 -0.6753
 7039SOL    HW221938   5.774   3.811   4.722 -1.1097  0.8034 -1.6190
 7040SOL     OW21939   1.645   4.022   1.012 -0.5332  1.0896  0.3816
 7040SOL    HW121940   1.733   3.981   0.987 -1.4355 -0.3946 -0.5254
 7040SOL    HW221941   1.626   4.003   1.109 -0.0693  1.0451  0.4676
 7041SOL     OW21942   3.123   4.017   5.874 -0.3423 -0.0315 -0.3891
 7041SOL    HW121943   3.165   4.093   5.825 -1.1937  1.1500  0.6432
 7041SOL    HW221944   3.070   4.052   5.951 -1.9911 -1.5706 -0.7552
 7042SOL     OW21945   3.882   1.296   1.491 -0.1672 -0.3383  0.0758
 7042SOL    HW121946   3.800   1.332   1.447  0.6115  1.7256  0.1954
 7042SOL    HW221947   3.956   1.289   1.424  0.8738  2.3343  0.8149
 7043SOL     OW21948   4.077   6.686   5.023 -0.3329 -0.3640  0.1929
 7043SOL    HW121949   4.095   6.612   5.088  1.2046 -0.2396 -0.0642
 7043SOL    HW221950   4.163   6.717   4.982 -0.9382  1.5874  0.2917
 7044SOL     OW21951   6.451   3.558   2.343 -0.1108  0.4235  0.4960
 7044SOL    HW121952   6.451   3.654   2.316 -0.8765  0.3798  0.2996
 7044SOL    HW221953   6.467   3.501   2.263  1.9630  0.4214  0.8678
 7045SOL     OW21954   2.360   6.379   3.745  0.0819  0.4013  0.2944
 7045SOL    HW121955   2.380   6.282   3.759  0.3367  0.7251  2.6408
 7045SOL    HW221956   2.381   6.405   3.651 -2.9522 -2.4812 -1.3988
 7046SOL     OW21957   6.163   3.831   5.299  0.5153 -0.0553  0.1475
 7046SOL    HW121958   6.119   3.868   5.380  0.1109 -0.5356  0.1556
 7046SOL    HW221959   6.093   3.807   5.231  0.8790  0.8853 -0.5846
 7047SOL     OW21960   0.371   0.537   0.186 -1.1628 -0.2919  0.5928
 7047SOL    HW121961   0.410   0.488   0.263  1.0795 -1.4498 -1.1395
 7047SOL    HW221962   0.325   0.473   0.125 -0.6599  0.1781 -0.3041
 7048SOL     OW21963   2.369   1.541   5.614  0.7209 -0.1081 -0.2487
 7048SOL    HW121964   2.434   1.617   5.621  0.1144  0.3797  0.2697
 7048SOL    HW221965   2.404   1.472   5.551  2.1058 -0.2426  0.6359
 7049SOL     OW21966   4.025   4.985   5.396 -0.8822 -0.2406 -0.4613
 7049SOL    HW121967   3.935   5.021   5.422 -0.0665  1.6148  0.0001
 7049SOL    HW221968   4.037   4.894   5.435 -1.6652  0.4322  1.4661
 7050SOL     OW21969   6.694   6.014   2.837 -0.1365 -0.5175 -0.2220
 7050SOL    HW121970   6.700   6.113   2.854  0.7623 -0.3041 -1.5937
 7050SOL    HW221971   6.634   5.997   2.759 -0.6994 -1.1082  0.3294
 7051SOL     OW21972   2.741   6.998   0.542 -0.3922 -0.0151 -0.1195
 7051SOL    HW121973   2.746   6.903   0.574  0.5237  0.0004 -0.2086
 7051SOL    HW221974   2.656   7.011   0.491 -0.4190 -0.8476 -0.3030
 7052SOL     OW21975   3.168   2.539   6.519 -0.4725  0.0724  0.0487
 7052SOL    HW121976   3.247   2.538   6.580 -0.1196  0.9357 -0.3786
 7052SOL    HW221977   3.183   2.606   6.446 -1.4673  0.0227 -0.2132
 7053SOL     OW21978   1.022   4.352   1.350 -0.0702 -0.1245 -0.4920
 7053SOL    HW121979   1.022   4.402   1.437  0.3055  1.6934 -1.4821
 7053SOL    HW221980   0.944   4.289   1.348 -1.1664  1.1404  0.4416
 7054SOL     OW21981   0.402   4.893   1.810 -0.6335 -0.4019  0.6399
 7054SOL    HW121982   0.501   4.893   1.795 -0.7859  0.5925 -0.4580
 7054SOL    HW221983   0.366   4.985   1.797 -2.0477 -1.1863 -1.5249
 7055SOL     OW21984   6.057   3.755   5.886  0.0434 -0.1738  0.3042
 7055SOL    HW121985   6.119   3.833   5.878  1.1470 -1.0303  0.2462
 7055SOL    HW221986   6.070   3.712   5.975  0.9323 -1.5111 -0.4496
 7056SOL     OW21987   4.117   6.374   6.835  0.2650 -0.1739  0.4734
 7056SOL    HW121988   4.115   6.323   6.921  0.1680 -0.1676  0.4749
 7056SOL    HW221989   4.144   6.313   6.761  0.0875 -0.2417  0.4651
 7057SOL     OW21990   3.181   3.388   4.660  0.1056  0.2287  0.0016
 7057SOL    HW121991   3.134   3.300   4.655 -0.6406  0.6108  0.1277
 7057SOL    HW221992   3.269   3.381   4.614  0.6072 -0.9328  1.0670
 7058SOL     OW21993   1.533   3.687   0.917  0.3950  0.4987 -0.6935
 7058SOL    HW121994   1.520   3.777   0.875  1.1366  0.3639 -1.2246
 7058SOL    HW221995   1.500   3.617   0.853 -0.6743  0.4071 -0.0667
 7059SOL     OW21996   1.604   5.053   4.116  0.0274 -0.4446 -0.1899
 7059SOL    HW121997   1.577   5.015   4.205  0.4292 -0.5314 -0.1057
 7059SOL    HW221998   1.608   5.153   4.121  2.1965 -0.5283  0.5094
 7060SOL     OW21999   6.918   6.999   3.399  0.0102  0.1360 -0.0076
 7060SOL    HW122000   6.861   6.940   3.456  0.9357 -0.5873  0.2072
 7060SOL    HW222001   6.962   7.068   3.456 -1.1202  1.0923 -0.2685
 7061SOL     OW22002   2.505   1.060   2.460 -0.1188 -0.2479  0.0246
 7061SOL    HW122003   2.597   1.044   2.423  0.0286 -0.1492  0.3453
 7061SOL    HW222004   2.479   1.156   2.444  1.2611  0.7340  2.9814
 7062SOL     OW22005   2.710   2.418   0.959  0.2313  0.1689 -0.3160
 7062SOL    HW122006   2.738   2.440   0.866 -0.6701 -0.2654 -0.7033
 7062SOL    HW222007   2.766   2.343   0.994 -0.1674 -0.4309 -0.9337
 7063SOL     OW22008   6.264   1.276   6.767 -0.2680  0.4129  0.1654
 7063SOL    HW122009   6.187   1.321   6.813  0.7662  2.0403  0.4075
 7063SOL    HW222010   6.303   1.339   6.699  0.5095 -0.5921 -0.3405
 7064SOL     OW22011   6.166   5.474   4.084 -0.5342  0.0695 -0.3485
 7064SOL    HW122012   6.144   5.376   4.090  0.5634 -0.4553 -3.2881
 7064SOL    HW222013   6.265   5.486   4.080 -0.6631  1.3179 -0.0647
 7065SOL     OW22014   5.111   6.138   3.090  0.1353  0.2798 -0.1729
 7065SOL    HW122015   5.043   6.211   3.095 -0.0602  0.0471  0.7034
 7065SOL    HW222016   5.162   6.146   3.005 -2.0772 -0.5162 -1.6559
 7066SOL     OW22017   4.757   2.582   6.503 -0.5117  0.2124  0.3396
 7066SOL    HW122018   4.786   2.667   6.459 -0.1457  0.0679  0.2917
 7066SOL    HW222019   4.813   2.566   6.584 -0.2609 -0.2147  0.0918
 7067SOL     OW22020   5.004   1.521   5.840 -0.1559  0.0817  0.3377
 7067SOL    HW122021   5.050   1.592   5.786 -0.1414  0.6045  1.0221
 7067SOL    HW222022   5.026   1.533   5.936  0.8218 -1.5960  0.3525
 7068SOL     OW22023   0.730   5.571   2.076  0.2916 -0.4467 -0.0429
 7068SOL    HW122024   0.684   5.562   1.987 -1.4114  1.2350  0.5968
 7068SOL    HW222025   0.662   5.585   2.147  1.7320  1.7039  1.0312
 7069SOL     OW22026   0.365   4.809   6.261  0.5438 -0.0455  0.0347
 7069SOL    HW122027   0.338   4.905   6.247  0.9435 -0.0825 -1.1437
 7069SOL    HW222028   0.285   4.750   6.248  0.3134  0.1159  0.6861
 7070SOL     OW22029   0.168   3.703   6.340 -0.2503  0.3253  0.2719
 7070SOL    HW122030   0.082   3.732   6.382  0.0288 -0.2105  1.2403
 7070SOL    HW222031   0.179   3.604   6.354 -0.7869 -0.1547 -2.2160
 7071SOL     OW22032   2.223   1.790   1.985  0.1346  0.2946 -0.6006
 7071SOL    HW122033   2.212   1.703   2.032  0.2035 -0.4115 -1.8432
 7071SOL    HW222034   2.299   1.841   2.026 -0.3503  0.0963  0.5803
 7072SOL     OW22035   5.725   6.471   3.629  0.1279 -0.0324  0.3529
 7072SOL    HW122036   5.727   6.571   3.616  1.3077  0.1456  1.6632
 7072SOL    HW222037   5.815   6.433   3.608 -0.6282 -1.0259 -1.3032
 7073SOL     OW22038   2.651   0.218   1.293  0.9455 -0.2835 -0.2754
 7073SOL    HW122039   2.698   0.130   1.298  1.3251 -0.0242  1.1159
 7073SOL    HW222040   2.552   0.203   1.293  1.0058 -0.7147  0.2571
 7074SOL     OW22041   5.585   1.500   0.669  0.0253  0.0462  0.6474
 7074SOL    HW122042   5.513   1.480   0.603 -0.2243  0.3302  0.8312
 7074SOL    HW222043   5.545   1.541   0.751  0.2250 -1.0408  1.3151
 7075SOL     OW22044   4.190   6.339   4.812 -0.5143 -0.2507 -0.1691
 7075SOL    HW122045   4.267   6.390   4.851  0.2992 -0.0660 -1.9185
 7075SOL    HW222046   4.223   6.282   4.737 -1.9291 -0.9979 -0.2480
 7076SOL     OW22047   1.325   6.162   0.318 -0.1933  0.1958 -0.1547
 7076SOL    HW122048   1.375   6.193   0.237  0.5450 -0.0635  0.1923
 7076SOL    HW222049   1.286   6.072   0.300  1.4680 -0.6659  0.3552
 7077SOL     OW22050   5.442   3.536   2.967 -0.1155  0.1603 -0.0077
 7077SOL    HW122051   5.499   3.538   2.884  1.5493  1.9062  1.0823
 7077SOL    HW222052   5.369   3.604   2.958 -1.1853 -1.0322 -0.7873
 7078SOL     OW22053   6.465   2.505   2.556 -0.6464 -0.0748 -0.1913
 7078SOL    HW122054   6.443   2.498   2.653  0.0147 -2.2216 -0.1432
 7078SOL    HW222055   6.501   2.417   2.523 -1.3584  0.4168 -2.5026
 7079SOL     OW22056   3.384   2.504   5.561 -0.2067  0.4627 -0.3996
 7079SOL    HW122057   3.322   2.432   5.592 -0.1430  1.7890  3.2563
 7079SOL    HW222058   3.331   2.576   5.517 -0.9262  0.4138  0.3705
 7080SOL     OW22059   4.096   5.645   4.966  0.1720  0.3615  0.0521
 7080SOL    HW122060   4.146   5.561   4.943 -0.2308 -0.0597  0.6599
 7080SOL    HW222061   4.100   5.709   4.889 -0.4241 -0.6468 -0.8542
 7081SOL     OW22062   5.531   6.255   3.602  0.3144  0.3832  0.8210
 7081SOL    HW122063   5.539   6.194   3.523 -3.0125  0.4880  0.2617
 7081SOL    HW222064   5.578   6.341   3.582  2.0857 -0.6647  0.2208
 7082SOL     OW22065   5.763   4.342   6.860 -0.0498 -0.1890 -0.3255
 7082SOL    HW122066   5.710   4.257   6.858 -1.4212  0.5797  0.8490
 7082SOL    HW222067   5.730   4.403   6.789  1.0756 -0.6872 -1.3043
 7083SOL     OW22068   5.673   4.849   2.041  0.2379 -0.1921  0.3753
 7083SOL    HW122069   5.700   4.935   1.998  2.9484 -0.2185  1.8179
 7083SOL    HW222070   5.671   4.776   1.972  2.2997  0.1923 -0.1442
 7084SOL     OW22071   0.306   2.774   3.378 -0.8596  0.6994  0.1176
 7084SOL    HW122072   0.376   2.814   3.437 -1.8765  1.6717  0.6978
 7084SOL    HW222073   0.280   2.839   3.307 -1.7983  0.6923  0.4409
 7085SOL     OW22074   2.538   4.517   4.470  0.2492  0.8134 -0.2348
 7085SOL    HW122075   2.619   4.536   4.414 -0.5808  4.9062 -0.4016
 7085SOL    HW222076   2.556   4.543   4.565 -0.9197  2.1264 -0.3453
 7086SOL     OW22077   6.602   4.887   1.663 -0.4434 -0.3404  0.1961
 7086SOL    HW122078   6.586   4.826   1.741  0.1359 -1.5230 -0.5811
 7086SOL    HW222079   6.699   4.887   1.640 -0.0218  2.6008  1.5158
 7087SOL     OW22080   4.139   4.921   1.734  0.2253  0.1784 -0.0004
 7087SOL    HW122081   4.219   4.867   1.707 -0.4673 -0.2862 -1.2014
 7087SOL    HW222082   4.094   4.957   1.652 -1.0745  0.0180  0.6140
 7088SOL     OW22083   1.029   4.729   1.337  0.1019 -0.5716 -0.1281
 7088SOL    HW122084   1.021   4.826   1.362  0.7989 -0.3358 -0.7857
 7088SOL    HW222085   0.942   4.697   1.301 -0.7880 -0.7886  2.0749
 7089SOL     OW22086   1.728   1.473   3.851  0.0537 -0.0782 -0.1855
 7089SOL    HW122087   1.782   1.539   3.799  0.2447  0.3610  0.5582
 7089SOL    HW222088   1.640   1.459   3.805  0.3279  0.0847 -0.7741
 7090SOL     OW22089   2.476   6.741   1.907 -0.1378  0.6307  0.4508
 7090SOL    HW122090   2.395   6.702   1.951 -0.0586  0.7487  0.7029
 7090SOL    HW222091   2.513   6.675   1.841 -0.2384  0.4395  0.5850
 7091SOL     OW22092   3.832   4.590   0.230  0.0103  0.1550  0.0269
 7091SOL    HW122093   3.757   4.558   0.288 -0.9660  2.3386  0.0679
 7091SOL    HW222094   3.803   4.672   0.181  0.8466 -1.4082 -3.4176
 7092SOL     OW22095   6.494   4.775   1.403  0.5677  0.0155 -0.3995
 7092SOL    HW122096   6.515   4.788   1.500  1.0155  0.7884 -0.5912
 7092SOL    HW222097   6.576   4.794   1.348 -0.3784  2.4355 -1.1214
 7093SOL     OW22098   6.934   3.597   3.848  0.8748  0.8428 -0.5835
 7093SOL    HW122099   6.885   3.514   3.819 -0.9943  0.1128  3.8619
 7093SOL    HW222100   6.911   3.672   3.786 -4.0167 -0.1189 -0.3203
 7094SOL     OW22101   3.433   0.682   3.374  0.5148 -0.2015 -0.1168
 7094SOL    HW122102   3.361   0.714   3.313  0.6669 -0.4924 -0.4570
 7094SOL    HW222103   3.522   0.693   3.328  0.5268 -1.5864 -0.4622
 7095SOL     OW22104   3.611   3.935   5.051  0.4996  0.2838  0.1344
 7095SOL    HW122105   3.539   3.879   5.092 -1.2792  0.6825 -2.1654
 7095SOL    HW222106   3.617   3.914   4.953  2.7130  1.1388  0.0399
 7096SOL     OW22107   5.599   4.034   4.032  0.0569  0.6103 -0.0842
 7096SOL    HW122108   5.637   3.986   3.953 -0.4036  2.1856 -1.2995
 7096SOL    HW222109   5.509   4.070   4.010 -0.7898 -0.2714  1.7093
 7097SOL     OW22110   1.714   6.817   3.715  0.2534 -0.4179  0.6590
 7097SOL    HW122111   1.625   6.789   3.750  0.0356 -0.4566  0.0946
 7097SOL    HW222112   1.712   6.815   3.615  0.9627 -0.6539  0.6452
 7098SOL     OW22113   4.627   3.867   5.919  0.1421 -0.0833  0.3274
 7098SOL    HW122114   4.601   3.852   6.014 -0.4966  1.8555  0.5082
 7098SOL    HW222115   4.567   3.936   5.878  0.1341 -1.1717 -1.6281
 7099SOL     OW22116   6.987   5.049   2.598  0.0092 -0.0435 -0.0977
 7099SOL    HW122117   7.040   5.078   2.678 -2.3296 -1.4256  2.1195
 7099SOL    HW222118   7.012   4.955   2.574  0.7212  0.3751 -1.0783
 7100SOL     OW22119   6.426   2.827   2.715  0.3290  0.3278  0.7955
 7100SOL    HW122120   6.365   2.898   2.749 -0.0340  0.5036 -0.1880
 7100SOL    HW222121   6.464   2.776   2.792 -1.5954 -0.2529  1.4260
 7101SOL     OW22122   1.329   6.390   5.778 -0.2217 -0.0025 -0.5874
 7101SOL    HW122123   1.344   6.313   5.715 -0.1295 -0.0031 -0.5653
 7101SOL    HW222124   1.313   6.356   5.870 -0.3439 -0.0013 -0.6081
 7102SOL     OW22125   1.556   3.811   2.397 -0.2279  0.4742 -0.2976
 7102SOL    HW122126   1.651   3.823   2.428 -0.0987 -0.3701 -0.3239
 7102SOL    HW222127   1.498   3.791   2.476 -0.2634  0.3340 -0.3587
 7103SOL     OW22128   2.097   4.722   0.517  0.2724 -0.4275 -0.4528
 7103SOL    HW122129   2.151   4.670   0.583 -0.3232 -1.4169 -0.7139
 7103SOL    HW222130   2.015   4.670   0.493 -0.7571  0.9914 -0.1427
 7104SOL     OW22131   6.176   0.458   0.801  0.6070 -0.0427 -0.1545
 7104SOL    HW122132   6.172   0.414   0.891 -1.0315 -1.2025 -0.7293
 7104SOL    HW222133   6.221   0.546   0.809  0.0976  0.0930  1.9023
 7105SOL     OW22134   5.453   1.938   0.450  0.4405 -0.3608 -0.6369
 7105SOL    HW122135   5.511   1.960   0.371  0.2377  0.6371 -0.5219
 7105SOL    HW222136   5.464   2.008   0.520  1.4907 -1.8341  0.7286
 7106SOL     OW22137   0.048   3.970   2.946  0.0635 -0.3733  0.3577
 7106SOL    HW122138   0.083   4.030   3.018  0.4611 -1.4196  1.0611
 7106SOL    HW222139   0.122   3.945   2.885 -0.2755  0.5222 -0.4597
 7107SOL     OW22140   2.503   4.484   6.096 -0.0156  0.2319  0.2768
 7107SOL    HW122141   2.472   4.559   6.037 -3.9099  0.1722  1.9483
 7107SOL    HW222142   2.506   4.399   6.043  1.8113  1.0303 -0.9911
 7108SOL     OW22143   6.946   2.885   5.420  0.1516 -0.0109 -0.4394
 7108SOL    HW122144   7.027   2.873   5.477 -0.5949 -1.0362  0.4702
 7108SOL    HW222145   6.973   2.899   5.325  1.3847 -2.2377 -0.4936
 7109SOL     OW22146   4.255   2.593   1.051  0.1415  0.0082 -0.8930
 7109SOL    HW122147   4.228   2.558   0.961 -0.3104  0.4842 -0.9479
 7109SOL    HW222148   4.296   2.520   1.105  3.9193  0.4483 -2.8301
 7110SOL     OW22149   5.208   2.323   6.233 -0.1915  0.1059 -0.0635
 7110SOL    HW122150   5.183   2.266   6.154 -0.7167 -0.6688  0.6309
 7110SOL    HW222151   5.176   2.416   6.219  0.3678  0.1535 -1.0767
 7111SOL     OW22152   1.973   0.873   0.195  0.3203  0.7975 -0.1263
 7111SOL    HW122153   1.995   0.927   0.113  0.4909 -0.7178 -1.1260
 7111SOL    HW222154   2.054   0.824   0.225  0.0137  0.5853  0.3641
 7112SOL     OW22155   1.527   3.207   1.502  0.2264 -0.4616  0.0927
 7112SOL    HW122156   1.593   3.187   1.429 -0.2614  1.4801 -0.9408
 7112SOL    HW222157   1.547   3.150   1.581  2.2123 -1.0005 -0.7411
 7113SOL     OW22158   1.864   2.435   1.890 -0.2938  0.3273 -0.1111
 7113SOL    HW122159   1.817   2.384   1.818  1.5557 -1.1737 -0.3502
 7113SOL    HW222160   1.894   2.524   1.855  0.5409 -0.3624 -1.2320
 7114SOL     OW22161   2.809   4.990   3.951  0.0399  0.5987 -0.4545
 7114SOL    HW122162   2.790   5.088   3.943  2.2085  1.0278 -0.8426
 7114SOL    HW222163   2.811   4.948   3.861 -3.4746 -0.4250 -0.1920
 7115SOL     OW22164   5.053   6.793   3.456  0.1964 -0.1446  0.6095
 7115SOL    HW122165   5.071   6.697   3.431  1.1214  0.0655  0.4288
 7115SOL    HW222166   5.038   6.799   3.555 -1.9470 -0.7585  0.3731
 7116SOL     OW22167   1.458   1.921   3.214 -0.2691  0.6305 -0.3333
 7116SOL    HW122168   1.445   2.019   3.195 -0.8654  0.7818  0.7651
 7116SOL    HW222169   1.371   1.873   3.201 -0.0760  0.3148 -0.4650
 7117SOL     OW22170   5.255   1.673   4.735  0.3765  0.2566 -0.0584
 7117SOL    HW122171   5.344   1.712   4.756  0.1802  0.4848  0.3761
 7117SOL    HW222172   5.238   1.594   4.794 -1.2608  2.4141  2.6723
 7118SOL     OW22173   3.837   0.976   0.471 -0.3069  0.0524 -0.4550
 7118SOL    HW122174   3.915   0.929   0.430  0.2243  0.1374  0.4386
 7118SOL    HW222175   3.862   1.070   0.494 -0.5940  0.0119  0.0484
 7119SOL     OW22176   5.686   4.474   0.954  0.1629 -0.3150  0.3263
 7119SOL    HW122177   5.631   4.496   0.873  1.1081 -0.7127 -0.4407
 7119SOL    HW222178   5.774   4.436   0.925  0.0350 -1.6446  1.5493
 7120SOL     OW22179   4.672   6.325   1.644  0.2618  0.1204  0.1455
 7120SOL    HW122180   4.767   6.322   1.674  0.2637  1.0969  0.2396
 7120SOL    HW222181   4.662   6.270   1.561  1.0292  0.4825 -0.1988
 7121SOL     OW22182   5.686   2.763   1.562 -0.8743  0.3621  0.2925
 7121SOL    HW122183   5.641   2.687   1.608 -1.1861  0.2080 -0.2537
 7121SOL    HW222184   5.621   2.839   1.552 -0.2075  1.1880  1.9509
 7122SOL     OW22185   5.521   1.834   3.216  0.6892  0.4899  0.3409
 7122SOL    HW122186   5.590   1.895   3.177  1.0674  0.2610  0.6484
 7122SOL    HW222187   5.563   1.747   3.241  0.1741  0.1422  0.0195
 7123SOL     OW22188   2.900   3.564   0.567 -0.0047 -0.2831 -0.1539
 7123SOL    HW122189   2.943   3.543   0.655 -1.9405  0.9683  1.1636
 7123SOL    HW222190   2.808   3.525   0.565 -0.5522  0.9881 -0.9930
 7124SOL     OW22191   6.997   5.553   5.291 -0.7853 -0.7446 -0.4739
 7124SOL    HW122192   6.990   5.577   5.194  0.7629 -1.8808 -0.9184
 7124SOL    HW222193   7.081   5.500   5.306 -0.7279 -0.1579  1.5913
 7125SOL     OW22194   4.867   0.101   4.569 -0.0546 -0.6342 -0.3948
 7125SOL    HW122195   4.963   0.085   4.593 -0.2923 -2.4685 -0.4888
 7125SOL    HW222196   4.844   0.047   4.488 -1.9469 -2.7249  1.4108
 7126SOL     OW22197   5.612   4.400   5.195 -0.3428 -0.2545  0.1744
 7126SOL    HW122198   5.692   4.375   5.142  1.9993  0.4782  3.1304
 7126SOL    HW222199   5.580   4.491   5.167  1.7022  0.7208  0.8511
 7127SOL     OW22200   1.325   2.777   5.235  0.1613  0.0847  0.5416
 7127SOL    HW122201   1.421   2.803   5.238  0.1747  0.1158 -0.0354
 7127SOL    HW222202   1.315   2.689   5.189 -0.1121  0.2146  0.3472
 7128SOL     OW22203   0.497   1.010   2.619 -0.1699  0.3946 -0.4814
 7128SOL    HW122204   0.513   0.980   2.713 -0.9796 -1.1260 -0.7885
 7128SOL    HW222205   0.400   1.032   2.608  0.3959  3.4531 -0.2342
 7129SOL     OW22206   6.020   1.911   5.186  0.1233  0.1706  0.3686
 7129SOL    HW122207   6.043   1.836   5.248  0.8317  0.5751  0.6113
 7129SOL    HW222208   6.001   1.874   5.095  1.7668 -0.2046  0.1506
 7130SOL     OW22209   4.005   6.179   5.418  0.5593  0.2437  0.3952
 7130SOL    HW122210   3.914   6.156   5.452  0.3992 -0.9673 -0.7549
 7130SOL    HW222211   4.074   6.145   5.482  0.2171  0.4951  0.9006
 7131SOL     OW22212   5.950   0.830   5.710  0.2766  0.2254  0.1140
 7131SOL    HW122213   5.874   0.894   5.698 -0.4009 -0.3486  1.1751
 7131SOL    HW222214   5.973   0.788   5.622 -1.2907 -0.3152 -0.0758
 7132SOL     OW22215   2.369   5.382   4.552  0.5825 -0.0709  0.1615
 7132SOL    HW122216   2.354   5.442   4.631  2.6549  1.4012 -0.4624
 7132SOL    HW222217   2.381   5.288   4.583 -0.5361  0.1655  1.3937
 7133SOL     OW22218   4.826   0.024   6.862  0.3243 -0.4945 -0.6970
 7133SOL    HW122219   4.866   0.004   6.952  1.7792  0.3837 -1.1302
 7133SOL    HW222220   4.898   0.051   6.798 -1.0684  2.6994 -1.1016
 7134SOL     OW22221   3.233   6.054   4.717  0.0707 -0.3714  0.3502
 7134SOL    HW122222   3.232   6.154   4.730 -1.6689 -0.3033 -0.0562
 7134SOL    HW222223   3.223   6.009   4.806 -0.1744 -0.1658  0.4264
 7135SOL     OW22224   6.840   4.231   3.819  0.8121 -0.5111  0.4980
 7135SOL    HW122225   6.802   4.281   3.897  0.4370 -1.5666  1.0187
 7135SOL    HW222226   6.914   4.285   3.778 -1.7967  2.0553 -1.1639
 7136SOL     OW22227   6.121   3.468   1.714 -0.1489  0.1542 -0.3019
 7136SOL    HW122228   6.175   3.474   1.630  0.0090  2.5814 -0.0994
 7136SOL    HW222229   6.047   3.536   1.711 -1.5205 -1.2315  0.6064
 7137SOL     OW22230   0.700   3.617   0.089  0.1138 -0.0512  0.3113
 7137SOL    HW122231   0.791   3.650   0.065  0.8278 -1.8744  0.2993
 7137SOL    HW222232   0.667   3.556   0.018 -0.8836  0.1486  0.5887
 7138SOL     OW22233   4.857   2.786   6.905  0.2103  0.1806 -0.0989
 7138SOL    HW122234   4.895   2.834   6.826 -0.2244  1.0151  0.1827
 7138SOL    HW222235   4.900   2.820   6.988 -0.9677  0.9881  0.2069
 7139SOL     OW22236   0.764   4.201   2.146  0.3081 -0.1106  0.0719
 7139SOL    HW122237   0.670   4.237   2.137  0.3421  0.5220  1.8758
 7139SOL    HW222238   0.761   4.103   2.160 -0.0472 -0.1537 -0.2698
 7140SOL     OW22239   1.301   4.682   1.378 -0.4366  0.7889  0.4870
 7140SOL    HW122240   1.203   4.693   1.395 -0.3959  1.1326  0.5079
 7140SOL    HW222241   1.326   4.727   1.293 -0.5548 -0.5500 -0.2754
 7141SOL     OW22242   1.143   0.682   4.970  0.3253  0.0527  0.2448
 7141SOL    HW122243   1.092   0.638   4.897  0.3011 -1.4260  1.1014
 7141SOL    HW222244   1.240   0.688   4.944  0.3610 -0.6992  0.1888
 7142SOL     OW22245   4.961   3.801   4.043 -0.3427 -0.5842  0.0213
 7142SOL    HW122246   4.916   3.846   4.121  1.1673  1.5914 -0.2697
 7142SOL    HW222247   4.894   3.785   3.971 -1.7247 -2.3980  1.5813
 7143SOL     OW22248   3.450   0.165   0.212  0.1275 -0.3951 -0.0409
 7143SOL    HW122249   3.494   0.205   0.132  1.3498  0.6712  1.1091
 7143SOL    HW222250   3.397   0.084   0.185 -1.7010  1.4425 -2.3084
 7144SOL     OW22251   5.302   1.648   1.176  0.1909 -0.4366  0.8132
 7144SOL    HW122252   5.364   1.597   1.235  1.7981  1.0246  0.4774
 7144SOL    HW222253   5.355   1.705   1.113 -1.5025  0.8203  0.4407
 7145SOL     OW22254   5.166   5.313   0.147  0.1983 -0.0316  0.1149
 7145SOL    HW122255   5.199   5.384   0.086 -0.3146 -0.8837 -1.2037
 7145SOL    HW222256   5.178   5.342   0.242  2.5031  0.6588 -0.3287
 7146SOL     OW22257   2.785   6.195   2.563  0.6398  0.3839 -0.3734
 7146SOL    HW122258   2.868   6.167   2.612  0.6246  0.0103 -0.5574
 7146SOL    HW222259   2.728   6.251   2.622 -1.8770 -4.0873  1.9839
 7147SOL     OW22260   0.841   0.770   6.648 -0.2691  0.1861  0.5862
 7147SOL    HW122261   0.941   0.771   6.655 -0.1364  0.8695 -0.8489
 7147SOL    HW222262   0.805   0.859   6.675 -0.4940 -0.0697  1.1306
 7148SOL     OW22263   1.720   5.925   5.786  0.0354  0.0894 -0.1408
 7148SOL    HW122264   1.767   5.849   5.740  0.9710  0.9354 -0.6265
 7148SOL    HW222265   1.752   6.011   5.748 -0.9120  0.7425  0.5045
 7149SOL     OW22266   6.961   3.941   6.140  0.2869  0.0715 -0.3413
 7149SOL    HW122267   6.921   4.030   6.117 -0.6636  0.0330  1.0200
 7149SOL    HW222268   6.980   3.938   6.238  1.7941 -0.6680 -0.6389
 7150SOL     OW22269   4.557   6.217   2.366  0.1892  0.2591  0.1598
 7150SOL    HW122270   4.573   6.266   2.280  1.8335 -3.0758 -1.6321
 7150SOL    HW222271   4.635   6.231   2.427  1.4777 -1.2440 -1.0268
 7151SOL     OW22272   2.200   6.763   3.021 -0.2365  0.0549  0.4239
 7151SOL    HW122273   2.244   6.851   3.002 -2.0294  0.8488 -0.2855
 7151SOL    HW222274   2.114   6.756   2.970  0.7740 -2.9718 -1.1039
 7152SOL     OW22275   3.731   1.960   0.670 -0.2970  0.0906 -0.1446
 7152SOL    HW122276   3.808   1.896   0.676 -1.3789 -1.2455  0.0070
 7152SOL    HW222277   3.690   1.955   0.578 -0.4130  0.5418 -0.1203
 7153SOL     OW22278   0.538   6.403   2.719  0.3748 -0.1706  0.0057
 7153SOL    HW122279   0.490   6.449   2.794  0.7636 -1.2902  0.9879
 7153SOL    HW222280   0.637   6.413   2.732  0.4625  1.2045 -1.4123
 7154SOL     OW22281   3.263   0.936   3.820  0.4122  0.7823  0.5712
 7154SOL    HW122282   3.335   0.930   3.750  0.0462 -0.7599  0.2915
 7154SOL    HW222283   3.182   0.979   3.780 -0.2698 -1.2931 -0.4313
 7155SOL     OW22284   6.878   2.655   5.033  0.3636 -0.1219  0.2065
 7155SOL    HW122285   6.866   2.691   4.940 -0.5494 -0.0524  0.3399
 7155SOL    HW222286   6.835   2.565   5.040  0.6916 -0.2618  0.4888
 7156SOL     OW22287   2.799   6.714   2.117  0.0339 -1.0954 -0.7848
 7156SOL    HW122288   2.817   6.707   2.215 -0.5358  0.0727 -0.5898
 7156SOL    HW222289   2.748   6.634   2.087 -0.6867 -0.9729  0.0795
 7157SOL     OW22290   4.650   1.438   0.759 -0.6673 -0.4008  0.3050
 7157SOL    HW122291   4.733   1.397   0.721 -1.4659 -0.7230 -1.1484
 7157SOL    HW222292   4.671   1.530   0.793  0.6023 -1.0481  1.3810
 7158SOL     OW22293   3.125   5.910   3.711 -0.1407 -0.0199 -0.5777
 7158SOL    HW122294   3.225   5.916   3.704  0.0428 -2.5233 -1.1361
 7158SOL    HW222295   3.091   5.984   3.770  1.8373  1.7999 -1.5788
 7159SOL     OW22296   1.261   5.542   4.890 -0.4533  0.3502  0.1443
 7159SOL    HW122297   1.288   5.557   4.795 -1.0083  2.1557  0.2289
 7159SOL    HW222298   1.298   5.615   4.947  0.9169 -1.3758  1.5644
 7160SOL     OW22299   1.742   2.677   3.057 -0.2106  0.1230 -0.3238
 7160SOL    HW122300   1.803   2.617   3.005 -0.2658 -1.0038  0.8522
 7160SOL    HW222301   1.786   2.702   3.143 -0.9114  0.3030 -0.0138
 7161SOL     OW22302   5.162   2.884   4.265 -0.3651 -0.5620 -0.2797
 7161SOL    HW122303   5.064   2.874   4.279 -0.6664  0.7859 -1.1315
 7161SOL    HW222304   5.178   2.931   4.177  0.8502  2.5745  1.4429
 7162SOL     OW22305   4.356   3.549   6.035  0.7276  0.3544 -0.0889
 7162SOL    HW122306   4.296   3.592   6.103  0.1051  0.5354 -0.7400
 7162SOL    HW222307   4.339   3.590   5.945  1.3474 -0.0747 -0.4086
 7163SOL     OW22308   4.694   3.624   5.843 -0.7328  0.5506 -0.2068
 7163SOL    HW122309   4.652   3.714   5.854 -0.0147  0.7894  0.6836
 7163SOL    HW222310   4.773   3.616   5.904 -0.1523 -0.2978 -1.0453
 7164SOL     OW22311   1.850   4.604   0.880  0.0580 -0.8811 -0.0844
 7164SOL    HW122312   1.898   4.680   0.837 -2.1281 -0.2103 -1.5424
 7164SOL    HW222313   1.915   4.547   0.929  2.0326  0.9051 -0.4594
 7165SOL     OW22314   6.987   6.228   3.487 -0.1584 -0.5378 -0.3754
 7165SOL    HW122315   7.071   6.252   3.437 -0.6555 -1.7578 -1.8771
 7165SOL    HW222316   6.912   6.285   3.454 -0.1977 -0.3803 -0.0086
 7166SOL     OW22317   1.242   2.357   1.582 -0.0305  0.0785  0.3665
 7166SOL    HW122318   1.289   2.438   1.617 -1.6872  0.8650  0.8935
 7166SOL    HW222319   1.215   2.299   1.659  0.4159 -0.5625  0.0460
 7167SOL     OW22320   5.101   4.911   6.816 -0.1394  0.3271  0.4845
 7167SOL    HW122321   5.105   4.812   6.802  0.9284  0.7147 -2.4671
 7167SOL    HW222322   5.153   4.935   6.898 -0.5598 -1.5248  1.3556
 7168SOL     OW22323   0.998   0.489   2.511 -0.2259 -0.3089  0.5027
 7168SOL    HW122324   0.994   0.422   2.437  1.9390 -1.7578  1.6141
 7168SOL    HW222325   0.921   0.553   2.501 -0.2735 -0.6644 -2.7296
 7169SOL     OW22326   4.972   2.602   4.305 -0.0549  0.1806 -0.0784
 7169SOL    HW122327   5.013   2.584   4.395 -0.8850 -0.7919  0.1334
 7169SOL    HW222328   4.988   2.698   4.280  0.5120  0.3733  0.9358
 7170SOL     OW22329   1.335   1.605   3.000  0.4018  0.0817  0.1879
 7170SOL    HW122330   1.257   1.568   3.049  0.9352  1.6593  2.3674
 7170SOL    HW222331   1.305   1.683   2.944 -0.6052 -2.9072 -3.9241
 7171SOL     OW22332   6.165   1.427   5.342 -0.7446 -0.0913  0.1002
 7171SOL    HW122333   6.247   1.449   5.396 -1.1937 -0.8039  1.0866
 7171SOL    HW222334   6.172   1.334   5.308 -0.9217  0.0219 -0.2478
 7172SOL     OW22335   4.298   5.611   2.167  0.1660  0.2024  0.1043
 7172SOL    HW122336   4.351   5.528   2.188 -0.3351 -0.8271 -2.2497
 7172SOL    HW222337   4.212   5.609   2.217  0.1897 -0.6937  0.1397
 7173SOL     OW22338   6.010   6.191   5.881  0.2082  0.0126  0.2308
 7173SOL    HW122339   5.917   6.156   5.889  0.4216 -0.5113  0.5074
 7173SOL    HW222340   6.009   6.291   5.884 -0.1897 -0.0012  2.2520
 7174SOL     OW22341   2.751   3.493   6.778 -0.4913  1.3192 -0.1269
 7174SOL    HW122342   2.753   3.403   6.734 -3.1013  1.0759  0.0970
 7174SOL    HW222343   2.756   3.564   6.707 -0.2346  0.9922 -0.4447
 7175SOL     OW22344   2.483   2.560   6.203 -0.2877  0.0383  0.2067
 7175SOL    HW122345   2.468   2.466   6.233 -0.3801 -0.3502 -0.9871
 7175SOL    HW222346   2.470   2.622   6.280 -1.6649 -0.8051  0.6942
 7176SOL     OW22347   0.770   3.096   2.628  0.6986 -0.0799 -0.2975
 7176SOL    HW122348   0.855   3.147   2.642  1.3028 -1.2824  0.5959
 7176SOL    HW222349   0.791   3.006   2.589 -0.1425 -0.4893  0.1770
 7177SOL     OW22350   1.883   4.697   3.739 -0.2309 -0.0773 -0.0051
 7177SOL    HW122351   1.806   4.684   3.676  0.1540 -0.1902 -0.4622
 7177SOL    HW222352   1.891   4.618   3.800  1.3725 -1.5454 -1.9773
 7178SOL     OW22353   2.507   3.357   5.885  0.4222  0.1181 -0.0215
 7178SOL    HW122354   2.578   3.389   5.948 -0.8962  0.8791  1.1552
 7178SOL    HW222355   2.457   3.436   5.848 -2.6544 -0.3364  2.6540
 7179SOL     OW22356   5.419   5.300   5.163 -0.1629 -0.4606 -0.5307
 7179SOL    HW122357   5.404   5.286   5.065 -0.0242 -0.7913 -0.5064
 7179SOL    HW222358   5.516   5.319   5.180  0.0891 -1.8722 -0.3025
 7180SOL     OW22359   1.191   5.900   4.596  0.6409  0.4068 -0.2119
 7180SOL    HW122360   1.222   5.947   4.513 -0.5208 -0.6821 -1.3198
 7180SOL    HW222361   1.208   5.958   4.676 -0.2675  2.4927 -1.4461
 7181SOL     OW22362   1.390   6.434   3.118 -0.1252  0.1771  0.5332
 7181SOL    HW122363   1.441   6.517   3.139 -1.8105  1.0401  1.4086
 7181SOL    HW222364   1.363   6.389   3.204 -1.4345  0.1642  0.1441
 7182SOL     OW22365   3.984   0.040   3.543 -0.2194  0.5752 -0.2110
 7182SOL    HW122366   3.949  -0.022   3.613 -1.2693  0.8160 -0.5065
 7182SOL    HW222367   3.919   0.045   3.467  1.0901 -0.0222 -1.4268
 7183SOL     OW22368   0.769   3.967   4.789 -0.1395 -0.2247 -0.5477
 7183SOL    HW122369   0.798   4.031   4.718  0.1323  2.1450  1.5810
 7183SOL    HW222370   0.670   3.970   4.799 -0.0558  0.4895  0.1000
 7184SOL     OW22371   1.822   2.646   2.616 -0.0819  0.5857  0.2921
 7184SOL    HW122372   1.873   2.705   2.679  0.9374 -0.0435  0.0828
 7184SOL    HW222373   1.797   2.561   2.662 -1.4346  1.1090  0.5539
 7185SOL     OW22374   4.002   4.919   4.649  0.4625 -0.1933  0.3566
 7185SOL    HW122375   3.975   4.860   4.726 -0.4852 -1.0299 -0.5741
 7185SOL    HW222376   3.925   4.928   4.586  0.3245  2.6787  0.8028
 7186SOL     OW22377   5.635   2.575   6.929 -0.3933 -0.3012  0.2265
 7186SOL    HW122378   5.729   2.566   6.962 -0.0657 -0.7840 -0.7800
 7186SOL    HW222379   5.621   2.512   6.852 -1.0749  0.8596 -0.6281
 7187SOL     OW22380   5.433   0.212   3.360 -0.3892 -0.2681  0.2481
 7187SOL    HW122381   5.346   0.260   3.350  0.8780  1.8134 -1.6235
 7187SOL    HW222382   5.426   0.122   3.319 -2.0599 -0.7818  1.5171
 7188SOL     OW22383   4.601   2.600   5.358 -0.1181 -0.0411 -0.2320
 7188SOL    HW122384   4.614   2.524   5.295  0.9180 -1.0940  1.2109
 7188SOL    HW222385   4.663   2.675   5.334  1.3338 -1.0090  0.3832
 7189SOL     OW22386   3.811   6.078   4.165 -1.0227 -0.0239 -0.7613
 7189SOL    HW122387   3.784   5.982   4.169 -0.0936 -0.2702 -0.0274
 7189SOL    HW222388   3.860   6.102   4.249 -0.4949  0.8606 -1.3090
 7190SOL     OW22389   6.439   2.710   4.074  0.4365 -0.3473  0.0041
 7190SOL    HW122390   6.453   2.750   3.983 -2.1348  1.5781  0.3708
 7190SOL    HW222391   6.352   2.660   4.076  1.7900 -2.8734  0.6775
 7191SOL     OW22392   0.828   0.500   2.910 -0.8224  0.2290 -0.0120
 7191SOL    HW122393   0.882   0.579   2.880 -1.5606  0.9126  0.4122
 7191SOL    HW222394   0.843   0.424   2.847 -0.9718  1.0638 -1.0923
 7192SOL     OW22395   2.738   6.945   3.718  0.9877  0.0905 -0.3338
 7192SOL    HW122396   2.731   6.998   3.802  2.2346  0.2641 -0.3194
 7192SOL    HW222397   2.775   7.002   3.645  0.6440 -0.2690 -0.7928
 7193SOL     OW22398   2.744   4.479   6.482  0.1736 -0.0150  0.2275
 7193SOL    HW122399   2.729   4.424   6.399 -1.1135 -0.2497  0.6016
 7193SOL    HW222400   2.657   4.514   6.515  0.2220 -2.1819  3.0300
 7194SOL     OW22401   3.679   0.811   0.902  0.0570 -0.7615  0.3742
 7194SOL    HW122402   3.715   0.902   0.923 -0.3287 -0.4568 -0.2395
 7194SOL    HW222403   3.752   0.743   0.910  0.5445 -0.2854  0.0486
 7195SOL     OW22404   0.098   0.938   0.610  0.4044 -0.1010  0.2574
 7195SOL    HW122405   0.098   0.955   0.709  0.7146  1.4659  0.0092
 7195SOL    HW222406   0.017   0.883   0.586  1.5566 -2.5702  1.6625
 7196SOL     OW22407   4.361   4.953   1.047 -0.2010 -0.1744 -0.2245
 7196SOL    HW122408   4.373   4.854   1.040  0.0743 -0.1736  0.1583
 7196SOL    HW222409   4.331   4.976   1.140  0.6443  0.1850 -0.0336
 7197SOL     OW22410   0.238   0.779   5.861  0.0596 -0.3892 -0.2471
 7197SOL    HW122411   0.231   0.878   5.852  1.9114  0.2515  3.4428
 7197SOL    HW222412   0.310   0.745   5.801  1.0347  0.9359  0.1098
 7198SOL     OW22413   2.531   2.552   1.443 -0.0447 -0.1620  0.2228
 7198SOL    HW122414   2.595   2.477   1.456  0.1014 -0.3452 -1.4003
 7198SOL    HW222415   2.438   2.519   1.461  0.2556  0.1994  2.9514
 7199SOL     OW22416   1.636   5.803   6.293  0.0495 -0.0900 -0.4487
 7199SOL    HW122417   1.646   5.848   6.204  1.2105  1.0516  0.2179
 7199SOL    HW222418   1.723   5.759   6.317  0.3458  1.1468  0.8920
 7200SOL     OW22419   4.231   6.462   1.828  0.0283  0.2406  0.4700
 7200SOL    HW122420   4.196   6.521   1.756 -0.0505  0.1234  0.4112
 7200SOL    HW222421   4.155   6.418   1.875  0.1028 -0.2257  0.1628
 7201SOL     OW22422   4.464   0.773   6.674 -0.1475  0.9096  0.4660
 7201SOL    HW122423   4.474   0.837   6.750  0.3208  1.3695  0.0363
 7201SOL    HW222424   4.551   0.767   6.625 -0.4272  0.5808  0.0043
 7202SOL     OW22425   2.567   6.194   4.222  0.1898  0.0828 -0.2159
 7202SOL    HW122426   2.611   6.157   4.140  2.7264  3.8734 -0.8060
 7202SOL    HW222427   2.622   6.171   4.302  0.3593  0.4207 -0.2349
 7203SOL     OW22428   1.977   5.001   1.590  0.3625 -0.3041 -0.7290
 7203SOL    HW122429   1.946   4.928   1.530  0.8055  0.8158 -2.3971
 7203SOL    HW222430   1.961   5.089   1.546  1.6869  0.5196  0.3453
 7204SOL     OW22431   2.178   6.363   2.694  0.0406  0.1366 -0.1239
 7204SOL    HW122432   2.157   6.460   2.693 -2.1937 -0.2411  1.6383
 7204SOL    HW222433   2.195   6.333   2.788 -4.6414 -2.0536  0.2828
 7205SOL     OW22434   2.749   1.051   2.317  0.3727 -0.5551  0.6560
 7205SOL    HW122435   2.816   1.074   2.247 -1.9421  1.5828 -1.0617
 7205SOL    HW222436   2.712   0.959   2.299  1.1422 -0.7828  0.2017
 7206SOL     OW22437   5.682   5.634   6.324  0.5778 -0.4721 -0.3283
 7206SOL    HW122438   5.656   5.548   6.369 -0.7831 -1.0349 -2.0664
 7206SOL    HW222439   5.732   5.691   6.388 -1.1509 -1.2555  1.8692
 7207SOL     OW22440   1.104   3.717   1.702 -0.0022 -0.2091  0.0007
 7207SOL    HW122441   1.028   3.770   1.666  0.5707  0.1496 -0.6997
 7207SOL    HW222442   1.178   3.779   1.729 -0.2154 -0.5016  1.3264
 7208SOL     OW22443   5.179   0.003   0.889 -0.0033  0.3402 -0.2664
 7208SOL    HW122444   5.104   0.038   0.832 -1.3315 -0.1569  1.1060
 7208SOL    HW222445   5.177   0.049   0.977  0.1383 -0.9905  0.4535
 7209SOL     OW22446   6.187   1.445   6.203  0.4298  0.8151 -0.4308
 7209SOL    HW122447   6.259   1.390   6.243  0.0552  1.8010  1.7469
 7209SOL    HW222448   6.114   1.385   6.168 -0.3104 -0.1543  2.5137
 7210SOL     OW22449   4.135   5.590   4.300  0.4472 -0.1862  0.4065
 7210SOL    HW122450   4.106   5.542   4.382  0.8150  3.9553  3.2625
 7210SOL    HW222451   4.235   5.598   4.299  0.3881  0.7580  0.2240
 7211SOL     OW22452   2.017   1.419   1.445 -0.1176  0.4893  0.1738
 7211SOL    HW122453   1.961   1.497   1.470  2.3746  1.9928  1.4784
 7211SOL    HW222454   1.992   1.388   1.353  0.5796  4.6557 -1.6648
 7212SOL     OW22455   2.928   3.821   5.904 -0.7144 -0.4082 -0.0167
 7212SOL    HW122456   2.987   3.895   5.871 -0.7061  0.9968  2.8219
 7212SOL    HW222457   2.833   3.842   5.883 -0.6665  0.2255  0.3506
 7213SOL     OW22458   1.480   4.725   0.700 -0.9467 -0.3006 -0.8301
 7213SOL    HW122459   1.563   4.669   0.692 -0.8050 -0.2738  0.3274
 7213SOL    HW222460   1.445   4.745   0.608  0.1007 -0.6433 -1.3232
 7214SOL     OW22461   2.377   5.702   3.193 -0.1046 -0.2363 -0.0915
 7214SOL    HW122462   2.464   5.683   3.147  0.6877 -0.8882  1.5999
 7214SOL    HW222463   2.394   5.753   3.277 -1.4476  0.2929 -0.1173
 7215SOL     OW22464   6.896   6.517   0.404 -0.3703  0.2889  0.1557
 7215SOL    HW122465   6.871   6.606   0.365  1.1068  1.0228  0.8017
 7215SOL    HW222466   6.995   6.512   0.415 -0.3901 -1.6513 -0.3059
 7216SOL     OW22467   3.682   3.778   4.566  0.3419 -0.3135  0.0535
 7216SOL    HW122468   3.667   3.870   4.529  0.7492 -1.2661 -2.7911
 7216SOL    HW222469   3.704   3.716   4.490  0.0080 -2.7810  1.8661
 7217SOL     OW22470   0.952   0.074   6.916  0.3571 -0.2887  0.3721
 7217SOL    HW122471   0.998   0.055   7.003  1.9747 -1.2153 -0.6209
 7217SOL    HW222472   0.971   0.169   6.888 -2.2940  0.8970  2.1840
 7218SOL     OW22473   3.871   3.824   0.903 -0.1130  0.4357  0.4076
 7218SOL    HW122474   3.897   3.921   0.909 -1.1764  0.7024  0.8571
 7218SOL    HW222475   3.771   3.816   0.906 -0.0535 -0.6452 -0.1233
 7219SOL     OW22476   6.478   5.246   4.367  0.4493  0.1098 -0.0055
 7219SOL    HW122477   6.453   5.272   4.461  0.7752  0.3092  0.0299
 7219SOL    HW222478   6.577   5.235   4.361  0.4721  0.5126 -0.4265
 7220SOL     OW22479   0.460   4.661   3.126 -0.1603 -0.1065  0.3865
 7220SOL    HW122480   0.388   4.730   3.131 -0.8663 -0.7075 -0.9161
 7220SOL    HW222481   0.420   4.571   3.143  0.8277 -0.1978  2.5362
 7221SOL     OW22482   0.909   1.153   6.001  0.3251  0.1980 -0.1388
 7221SOL    HW122483   0.932   1.056   6.001  1.7773  0.5206  0.5485
 7221SOL    HW222484   0.989   1.206   5.973 -0.7692  1.1486 -1.6429
 7222SOL     OW22485   4.239   4.126   4.727 -0.4866 -0.1384 -0.0244
 7222SOL    HW122486   4.333   4.146   4.701 -0.4920 -0.1443 -0.0482
 7222SOL    HW222487   4.237   4.052   4.795 -0.5136 -0.5944 -0.5129
 7223SOL     OW22488   2.389   5.113   6.291  0.1704  0.1284 -0.3894
 7223SOL    HW122489   2.434   5.155   6.212  1.3382 -0.2101  0.0751
 7223SOL    HW222490   2.373   5.182   6.362  1.2464 -0.0020  0.0002
 7224SOL     OW22491   6.476   0.440   2.299  0.0018 -0.0252 -0.3148
 7224SOL    HW122492   6.416   0.440   2.378  1.0005 -0.7825  0.4731
 7224SOL    HW222493   6.460   0.521   2.244 -1.5677 -0.1051 -0.0022
 7225SOL     OW22494   3.457   3.899   6.585  0.0088 -0.1224  0.1339
 7225SOL    HW122495   3.440   3.986   6.538  1.0734 -0.1890 -0.4132
 7225SOL    HW222496   3.541   3.858   6.549 -0.5403 -1.4435  0.2980
 7226SOL     OW22497   0.431   6.625   4.855 -0.5109  0.0792 -0.5106
 7226SOL    HW122498   0.437   6.644   4.953 -1.4246  0.1315 -0.4567
 7226SOL    HW222499   0.498   6.680   4.806  0.8302 -0.8532  0.1885
 7227SOL     OW22500   1.965   5.101   1.868 -0.4237 -0.1098 -0.2464
 7227SOL    HW122501   1.983   5.049   1.785 -1.0950  0.0837 -0.5240
 7227SOL    HW222502   1.877   5.149   1.859  0.4534  1.5815 -0.2698
 7228SOL     OW22503   1.488   0.874   3.354 -0.1234  0.0534  0.2800
 7228SOL    HW122504   1.435   0.790   3.364 -3.1966  1.8705  0.5243
 7228SOL    HW222505   1.519   0.904   3.445 -1.6892  0.7171  0.6290
 7229SOL     OW22506   2.400   4.993   3.773  0.0553  0.2044  0.7707
 7229SOL    HW122507   2.316   5.047   3.770 -0.1831 -0.1480  0.9832
 7229SOL    HW222508   2.479   5.054   3.771 -0.2154  0.5829  1.3811
 7230SOL     OW22509   4.926   2.491   6.746 -0.0694 -0.7677  0.4935
 7230SOL    HW122510   5.005   2.468   6.803 -0.1588  0.1270  0.9903
 7230SOL    HW222511   4.851   2.523   6.804 -0.4841 -0.7273 -0.0552
 7231SOL     OW22512   5.383   0.756   3.992  0.4085 -0.2262  0.4932
 7231SOL    HW122513   5.394   0.855   3.986  1.5611 -0.2897  1.2181
 7231SOL    HW222514   5.470   0.711   3.972 -0.1322 -1.1071  0.0533
 7232SOL     OW22515   2.866   4.766   4.889  0.1516  0.6192 -0.1860
 7232SOL    HW122516   2.798   4.785   4.960  0.2583  0.0156  0.0824
 7232SOL    HW222517   2.958   4.771   4.928  0.2839  1.5984 -0.5869
 7233SOL     OW22518   4.447   2.272   2.302 -0.2200 -0.4788 -0.3575
 7233SOL    HW122519   4.372   2.277   2.236 -0.2828 -2.6174 -0.5403
 7233SOL    HW222520   4.433   2.340   2.373 -0.3857  1.6110 -2.2624
 7234SOL     OW22521   1.272   0.424   1.838  0.5186 -0.3620  0.1507
 7234SOL    HW122522   1.342   0.372   1.887 -1.0691  0.4671  3.5812
 7234SOL    HW222523   1.300   0.520   1.830  0.0978 -0.1609  0.9619
 7235SOL     OW22524   0.405   1.804   1.105 -0.3534 -0.3341  0.2259
 7235SOL    HW122525   0.386   1.707   1.093 -1.9129 -0.0921  0.4702
 7235SOL    HW222526   0.397   1.850   1.016  0.8940 -0.4863  0.0170
 7236SOL     OW22527   3.546   5.637   0.022  0.0333 -0.2162  0.0168
 7236SOL    HW122528   3.606   5.705   0.064 -0.5509  0.9127 -0.9490
 7236SOL    HW222529   3.507   5.579   0.094 -1.4906  2.1086  1.1824
 7237SOL     OW22530   2.439   4.814   3.061 -0.6045 -0.5349 -0.4394
 7237SOL    HW122531   2.342   4.800   3.081 -0.6095 -0.5113 -0.4469
 7237SOL    HW222532   2.492   4.803   3.145 -0.6651 -0.0511 -0.3381
 7238SOL     OW22533   2.919   2.683   2.778 -0.0931 -0.4815 -0.4740
 7238SOL    HW122534   2.838   2.679   2.719  1.5415 -3.6832 -2.8089
 7238SOL    HW222535   2.913   2.614   2.849  1.0756 -1.6865 -1.4935
 7239SOL     OW22536   0.948   4.823   6.058  0.1063 -0.3443 -0.0944
 7239SOL    HW122537   0.957   4.741   6.001 -1.2009 -0.1533 -0.6165
 7239SOL    HW222538   0.983   4.804   6.150  3.8828 -0.1511 -1.3173
 7240SOL     OW22539   3.756   5.958   0.618 -0.4159 -0.4500  0.1802
 7240SOL    HW122540   3.717   5.993   0.533 -0.7936 -1.6846 -0.1721
 7240SOL    HW222541   3.855   5.972   0.617 -0.4064 -0.5717 -0.5110
 7241SOL     OW22542   0.996   5.659   0.848  0.6106 -0.4838 -0.0594
 7241SOL    HW122543   0.935   5.738   0.855 -0.0024 -0.9493 -0.0190
 7241SOL    HW222544   1.049   5.665   0.764 -1.6375 -1.5241 -1.6872
 7242SOL     OW22545   0.777   5.497   0.787  0.2490  0.3740 -0.3980
 7242SOL    HW122546   0.760   5.481   0.690 -0.0132 -0.4306 -0.2228
 7242SOL    HW222547   0.860   5.553   0.797  0.5403  0.0720 -1.0628
 7243SOL     OW22548   2.035   3.566   0.464  0.2692  0.0914 -0.1693
 7243SOL    HW122549   1.965   3.568   0.392  1.0034 -4.6443 -1.4025
 7243SOL    HW222550   2.106   3.632   0.444 -1.0677  1.0515 -2.0629
 7244SOL     OW22551   2.349   5.168   6.678 -0.2282 -0.2743 -0.4346
 7244SOL    HW122552   2.292   5.111   6.620  0.0667 -0.5621 -0.4463
 7244SOL    HW222553   2.299   5.192   6.761 -0.3282 -0.6153 -0.3934
 7245SOL     OW22554   5.626   6.939   6.550 -0.7297 -0.1223 -0.0605
 7245SOL    HW122555   5.540   6.920   6.597  0.3752 -0.5247  1.9004
 7245SOL    HW222556   5.636   6.875   6.474 -2.2713  0.1195 -0.5122
 7246SOL     OW22557   0.074   2.597   1.229  0.0569  0.1409  1.0039
 7246SOL    HW122558   0.088   2.581   1.327 -0.0539  0.0274  1.0013
 7246SOL    HW222559   0.157   2.638   1.191 -0.4218  1.5582  1.4285
 7247SOL     OW22560   2.058   6.396   3.136  0.1401  0.3182  0.1718
 7247SOL    HW122561   2.102   6.463   3.195  0.5871 -0.0846  0.3097
 7247SOL    HW222562   2.029   6.317   3.191  1.0285 -0.2903 -0.2105
 7248SOL     OW22563   1.250   3.850   0.163  0.8632 -0.2259 -0.8859
 7248SOL    HW122564   1.248   3.774   0.098  1.8388 -0.9887 -0.0543
 7248SOL    HW222565   1.262   3.815   0.255  3.3281  1.0109 -0.6615
 7249SOL     OW22566   0.345   1.069   4.277 -0.3216  0.3182  0.8215
 7249SOL    HW122567   0.287   1.084   4.357  0.4104 -0.4191  1.5063
 7249SOL    HW222568   0.349   0.971   4.257  1.2087  0.2737  1.2049
 7250SOL     OW22569   1.911   3.323   0.118  0.7008 -0.2445  0.2494
 7250SOL    HW122570   1.991   3.286   0.164 -1.0791 -3.0188  1.3451
 7250SOL    HW222571   1.837   3.256   0.119 -2.3422  2.8114  0.9895
 7251SOL     OW22572   5.847   4.990   3.548 -0.7570 -0.2473 -0.0482
 7251SOL    HW122573   5.933   5.012   3.593 -0.9457 -1.9730  1.2431
 7251SOL    HW222574   5.791   5.073   3.541  0.8256  0.8178 -0.5850
 7252SOL     OW22575   4.815   1.476   4.972  0.5127  0.4507 -0.3012
 7252SOL    HW122576   4.840   1.448   5.065  0.2265  2.8958  0.5874
 7252SOL    HW222577   4.726   1.437   4.948  0.4722  0.0014  0.5457
 7253SOL     OW22578   3.407   5.561   6.510  0.4916 -0.2396  0.2159
 7253SOL    HW122579   3.332   5.500   6.483  0.3186 -0.1416  0.4668
 7253SOL    HW222580   3.416   5.560   6.610 -1.5961  2.4974  0.5539
 7254SOL     OW22581   4.424   1.292   6.061 -0.6262  0.5837 -0.1395
 7254SOL    HW122582   4.517   1.309   6.094 -0.5195  0.4506 -0.3715
 7254SOL    HW222583   4.373   1.243   6.132 -0.2943 -0.0002 -0.2937
 7255SOL     OW22584   5.966   6.395   0.076  0.3187 -0.5046 -0.0597
 7255SOL    HW122585   6.039   6.369   0.140  0.8214  1.1939  0.0959
 7255SOL    HW222586   5.959   6.494   0.072  0.0265 -0.5692 -2.3512
 7256SOL     OW22587   2.984   1.165   3.470  0.2401 -0.0509 -0.0821
 7256SOL    HW122588   3.025   1.256   3.478  0.2865 -0.0447 -0.3948
 7256SOL    HW222589   2.892   1.166   3.509  0.9538 -0.3565  1.7468
 7257SOL     OW22590   3.025   5.008   6.308 -0.4020 -0.3269  0.1805
 7257SOL    HW122591   2.938   5.041   6.344  0.4888  1.4512  0.8161
 7257SOL    HW222592   3.013   4.980   6.213 -1.6766 -0.2184  0.2862
 7258SOL     OW22593   5.093   0.547   3.474  0.1628 -0.2762  1.1004
 7258SOL    HW122594   5.078   0.639   3.437  0.1382 -0.9065 -0.5433
 7258SOL    HW222595   5.038   0.534   3.557 -0.4816  0.8906  0.8712
 7259SOL     OW22596   4.110   4.035   0.688  0.0770  0.4843  0.3400
 7259SOL    HW122597   4.146   4.098   0.619  2.1441 -0.7472  0.2053
 7259SOL    HW222598   4.041   3.976   0.646  0.9796  0.0574 -0.5841
 7260SOL     OW22599   2.837   6.989   2.060  0.1578  0.7075  1.1972
 7260SOL    HW122600   2.842   6.889   2.063  2.0865  0.7825  1.7756
 7260SOL    HW222601   2.825   7.018   1.965 -3.5993 -0.0878  1.2547
 7261SOL     OW22602   0.498   1.653   4.261  1.1952 -0.1243 -0.0946
 7261SOL    HW122603   0.582   1.703   4.239 -0.5772  2.6817 -0.8470
 7261SOL    HW222604   0.457   1.618   4.178 -0.5586  2.3006 -0.3548
 7262SOL     OW22605   0.384   2.997   1.468  0.7110  0.2010  0.0625
 7262SOL    HW122606   0.332   2.927   1.517 -1.0671  0.9340 -0.7124
 7262SOL    HW222607   0.382   3.083   1.519 -0.1757  0.6494 -0.6954
 7263SOL     OW22608   4.322   5.604   0.805  0.4265  0.4431  0.0891
 7263SOL    HW122609   4.245   5.665   0.821 -0.7848 -0.7248 -1.0614
 7263SOL    HW222610   4.305   5.548   0.724  2.3231 -0.1291  0.0189
 7264SOL     OW22611   4.709   3.896   3.067 -0.1540 -0.3806 -0.9309
 7264SOL    HW122612   4.665   3.824   3.013 -0.6045 -0.5149 -0.3967
 7264SOL    HW222613   4.684   3.986   3.031  0.5149 -0.4830 -1.6807
 7265SOL     OW22614   4.274   5.877   0.647 -0.0619 -0.1209  0.7124
 7265SOL    HW122615   4.265   5.825   0.562 -0.5008 -0.2629  0.8379
 7265SOL    HW222616   4.314   5.818   0.718 -1.0291 -0.4590  0.9945
 7266SOL     OW22617   4.883   2.857   4.227  0.0922 -0.4828 -0.4539
 7266SOL    HW122618   4.875   2.950   4.190  0.0523  0.5276  1.9171
 7266SOL    HW222619   4.845   2.792   4.161 -0.9975  1.2915 -1.6754
 7267SOL     OW22620   4.993   3.106   5.107 -0.4486  0.0047  0.5265
 7267SOL    HW122621   5.063   3.146   5.166 -0.1466  3.0048 -1.6152
 7267SOL    HW222622   5.037   3.053   5.034 -0.6261 -0.9353  1.0947
 7268SOL     OW22623   1.002   1.908   3.031  0.6474  0.3125 -0.5093
 7268SOL    HW122624   1.056   1.890   3.114 -0.6220 -2.4188 -0.1588
 7268SOL    HW222625   0.936   1.981   3.050 -0.6585 -1.2531  1.4905
 7269SOL     OW22626   5.218   1.091   1.224  0.2323  0.3089  0.3416
 7269SOL    HW122627   5.278   1.150   1.170 -0.5785  0.2308 -0.6944
 7269SOL    HW222628   5.267   1.007   1.247  0.5673  0.2958 -0.3789
 7270SOL     OW22629   6.391   6.987   5.298  0.2732 -0.1000 -0.3789
 7270SOL    HW122630   6.292   6.986   5.305  0.3696  0.8532  1.8541
 7270SOL    HW222631   6.428   7.062   5.353  2.1928  0.2880 -2.0785
 7271SOL     OW22632   6.177   1.119   2.960  0.1281 -0.7285 -0.3417
 7271SOL    HW122633   6.204   1.164   3.045  0.2493 -0.2835 -0.6152
 7271SOL    HW222634   6.181   1.184   2.884  0.5373 -1.2554 -0.7847
 7272SOL     OW22635   6.838   3.296   1.192  0.4404 -0.0736 -0.0987
 7272SOL    HW122636   6.778   3.233   1.241  1.9422 -0.3643  1.4689
 7272SOL    HW222637   6.889   3.352   1.258  0.9802  1.0365 -1.4065
 7273SOL     OW22638   1.799   0.016   0.084 -0.4104 -0.6614 -0.4880
 7273SOL    HW122639   1.857   0.074   0.140 -1.3888  0.3997 -0.5294
 7273SOL    HW222640   1.855  -0.046   0.030  0.7453  0.9958 -1.2697
 7274SOL     OW22641   5.100   4.169   1.890 -0.7442  0.2634 -0.6478
 7274SOL    HW122642   5.146   4.081   1.885 -0.5733  0.3326 -0.3304
 7274SOL    HW222643   5.083   4.204   1.798 -0.9088 -0.1494 -0.7768
 7275SOL     OW22644   4.723   2.059   6.890 -0.4608  0.4058 -0.0442
 7275SOL    HW122645   4.647   2.082   6.951 -1.4159  1.4013 -1.5356
 7275SOL    HW222646   4.807   2.099   6.925 -0.9724  0.9190  0.6314
 7276SOL     OW22647   4.053   3.402   6.194 -0.1271 -0.3680  0.7657
 7276SOL    HW122648   3.985   3.423   6.123  0.6131 -1.1013 -0.1912
 7276SOL    HW222649   4.112   3.480   6.208 -0.7978  0.0740  1.1879
 7277SOL     OW22650   1.031   4.787   1.994  0.3995 -0.0049  0.1401
 7277SOL    HW122651   1.034   4.719   1.921 -1.4871 -0.4589  0.4283
 7277SOL    HW222652   0.936   4.814   2.011  0.8832  0.8306  1.7564
 7278SOL     OW22653   4.228   5.088   6.830 -0.3450 -0.3091 -0.0918
 7278SOL    HW122654   4.298   5.036   6.879 -1.6586  0.1473  2.4057
 7278SOL    HW222655   4.153   5.027   6.805  0.2038 -0.4869 -1.3716
 7279SOL     OW22656   1.280   3.796   0.422 -0.3443 -0.2180  0.2004
 7279SOL    HW122657   1.354   3.816   0.487 -0.6875  1.4235  0.1160
 7279SOL    HW222658   1.213   3.736   0.466 -0.3650  0.5276  1.2306
 7280SOL     OW22659   6.047   6.476   5.903  0.2200 -0.1356  0.5834
 7280SOL    HW122660   5.981   6.549   5.885  0.8900  0.4420  0.4245
 7280SOL    HW222661   6.058   6.465   6.002  1.0318  0.8305  0.6107
 7281SOL     OW22662   3.874   4.742   3.805 -0.1823  0.4402  0.3674
 7281SOL    HW122663   3.811   4.724   3.880  0.2936 -1.6851  0.3241
 7281SOL    HW222664   3.823   4.747   3.719 -0.4248 -0.3552  0.4491
 7282SOL     OW22665   0.728   6.947   6.453  0.0476 -0.0420 -0.1208
 7282SOL    HW122666   0.785   7.026   6.432  3.4585 -1.4795  2.7045
 7282SOL    HW222667   0.780   6.863   6.435 -2.4827 -1.6401 -0.5027
 7283SOL     OW22668   4.640   6.800   1.447  0.0200  0.1576 -0.1130
 7283SOL    HW122669   4.550   6.837   1.467  0.3777  1.0599 -0.1342
 7283SOL    HW222670   4.639   6.700   1.458 -0.4752  0.3423  1.7702
 7284SOL     OW22671   2.524   5.411   3.322 -0.0240 -0.3119 -0.0129
 7284SOL    HW122672   2.568   5.481   3.266  3.2030 -0.7452  1.7232
 7284SOL    HW222673   2.471   5.455   3.395  2.1920  0.4659  1.2292
 7285SOL     OW22674   0.463   4.792   6.928  0.1382 -0.3774 -0.8225
 7285SOL    HW122675   0.401   4.861   6.892  1.3412  1.0376 -0.2898
 7285SOL    HW222676   0.544   4.837   6.968 -0.0099 -1.9483  1.4534
 7286SOL     OW22677   5.804   3.705   4.368  0.3153  0.5560  0.0281
 7286SOL    HW122678   5.777   3.712   4.464  0.4684  1.8467 -0.0041
 7286SOL    HW222679   5.756   3.775   4.315  1.5305  0.9989 -0.5234
 7287SOL     OW22680   2.912   2.869   6.922  0.3035 -0.0472  0.1399
 7287SOL    HW122681   2.939   2.812   6.999 -0.4046 -0.6500 -0.0390
 7287SOL    HW222682   2.812   2.879   6.923  0.4570  1.6899  0.5096
 7288SOL     OW22683   0.415   4.423   0.325  0.4418  0.2767  0.5532
 7288SOL    HW122684   0.350   4.355   0.359 -0.6976  1.2220  0.3742
 7288SOL    HW222685   0.508   4.396   0.348 -0.1205 -0.2674  2.3701
 7289SOL     OW22686   0.799   6.075   3.310  0.4327  0.0912  0.0105
 7289SOL    HW122687   0.729   6.022   3.357  1.4769 -1.5866 -0.2146
 7289SOL    HW222688   0.855   6.123   3.377 -0.4003  0.7650  0.2353
 7290SOL     OW22689   4.218   5.831   1.589 -0.6853 -0.1326  0.1166
 7290SOL    HW122690   4.199   5.762   1.658 -0.8475 -0.5099 -0.3052
 7290SOL    HW222691   4.307   5.873   1.607 -1.5701  1.1954  1.7369
 7291SOL     OW22692   5.723   1.655   4.892  0.0084 -0.5425  0.0935
 7291SOL    HW122693   5.703   1.585   4.960  2.9803 -0.7459  0.8879
 7291SOL    HW222694   5.717   1.746   4.934 -2.5382 -0.3090 -0.6048
 7292SOL     OW22695   4.769   6.794   4.327 -0.1386 -0.0198 -0.6903
 7292SOL    HW122696   4.846   6.848   4.293 -0.4530  0.7089 -0.2809
 7292SOL    HW222697   4.683   6.837   4.299 -0.3986  0.1549  0.3330
 7293SOL     OW22698   1.795   6.416   1.112  0.2203 -0.3071 -0.4375
 7293SOL    HW122699   1.703   6.448   1.093 -0.5706 -2.0304  0.2927
 7293SOL    HW222700   1.850   6.492   1.147 -0.8319  0.7896 -1.0740
 7294SOL     OW22701   1.088   4.142   6.093  0.5640  0.1277 -0.0760
 7294SOL    HW122702   1.124   4.063   6.143  0.9795 -0.2084 -0.8950
 7294SOL    HW222703   1.163   4.191   6.049  0.5211  1.9293  1.7176
 7295SOL     OW22704   5.587   3.403   3.815  0.1863  0.6669 -0.4141
 7295SOL    HW122705   5.528   3.371   3.741 -2.2273  2.3183  0.6976
 7295SOL    HW222706   5.641   3.326   3.849 -1.0361 -0.8508 -1.7288
 7296SOL     OW22707   0.568   6.227   0.833 -0.0174 -0.2464 -0.2029
 7296SOL    HW122708   0.520   6.140   0.836  0.3505 -0.4366  0.4638
 7296SOL    HW222709   0.596   6.253   0.926  0.4393  0.2620 -0.4741
 7297SOL     OW22710   6.856   3.589   3.298  0.0842  0.2439 -0.0466
 7297SOL    HW122711   6.786   3.636   3.244  1.4368 -0.1467 -2.2937
 7297SOL    HW222712   6.843   3.490   3.292 -0.9021  0.1798  2.0819
 7298SOL     OW22713   1.688   2.899   2.888 -0.0806  0.4234  0.2472
 7298SOL    HW122714   1.594   2.902   2.851  0.0124 -0.3495 -0.0765
 7298SOL    HW222715   1.699   2.817   2.944  0.3944  0.5230  0.3026
 7299SOL     OW22716   5.856   1.769   3.919 -0.3039 -0.1235 -0.4463
 7299SOL    HW122717   5.819   1.718   3.997  0.8157 -1.3166 -0.6678
 7299SOL    HW222718   5.785   1.830   3.883 -0.9522  0.2034  1.2709
 7300SOL     OW22719   4.044   6.319   1.282 -0.1245 -0.6079  0.0935
 7300SOL    HW122720   4.064   6.253   1.355  0.7033 -0.4577  0.0082
 7300SOL    HW222721   3.971   6.380   1.312  0.8857  0.0995  1.2269
 7301SOL     OW22722   1.807   0.800   3.606  0.5576  0.5034  0.1863
 7301SOL    HW122723   1.872   0.855   3.555  1.8301  0.1743  1.3968
 7301SOL    HW222724   1.778   0.722   3.550 -0.4833  1.7758 -1.1494
 7302SOL     OW22725   0.990   1.942   3.947  0.3783  0.2390  0.7448
 7302SOL    HW122726   1.049   1.916   4.024  0.9106  1.3527  0.7343
 7302SOL    HW222727   1.001   2.040   3.928  1.0350 -0.2102 -1.4209
 7303SOL     OW22728   0.678   3.445   3.710  0.5431 -0.2934 -0.1431
 7303SOL    HW122729   0.624   3.419   3.630  2.0708 -1.1984 -0.9330
 7303SOL    HW222730   0.699   3.543   3.706 -1.1206  0.1119  0.2679
 7304SOL     OW22731   0.949   5.896   6.349 -0.1171  0.2091  0.3673
 7304SOL    HW122732   0.920   5.920   6.441 -1.5023  0.5083 -0.1212
 7304SOL    HW222733   0.959   5.797   6.342  0.4850  0.2198  0.9612
 7305SOL     OW22734   3.767   1.259   5.621  0.1435  0.0158  0.6542
 7305SOL    HW122735   3.788   1.280   5.526 -1.2233  0.7351  0.4881
 7305SOL    HW222736   3.835   1.196   5.657  1.2946  0.5662 -0.4743
 7306SOL     OW22737   1.786   5.140   2.750  0.4898  0.0153 -0.4726
 7306SOL    HW122738   1.822   5.105   2.664 -0.9300 -1.1760 -0.6309
 7306SOL    HW222739   1.779   5.065   2.816  0.2439  0.6241  0.2129
 7307SOL     OW22740   2.436   5.362   0.150 -0.2290 -0.0711  0.1030
 7307SOL    HW122741   2.409   5.314   0.234 -1.1654  1.3595  0.6503
 7307SOL    HW222742   2.517   5.417   0.168 -1.3946  1.5436  0.5609
 7308SOL     OW22743   6.770   4.641   0.663  0.5276  0.0398 -0.1038
 7308SOL    HW122744   6.675   4.642   0.695  0.8590 -1.8421  1.0449
 7308SOL    HW222745   6.771   4.655   0.564 -0.9290  0.2140 -0.1165
 7309SOL     OW22746   3.753   2.368   5.806 -0.2104 -0.0379  0.2061
 7309SOL    HW122747   3.838   2.375   5.857 -0.2590  0.5835  0.2024
 7309SOL    HW222748   3.762   2.297   5.736 -0.4548 -1.5440  1.6541
 7310SOL     OW22749   1.181   3.864   5.862 -0.1674 -0.2062  0.4485
 7310SOL    HW122750   1.266   3.911   5.885  0.2552 -0.8820  0.2808
 7310SOL    HW222751   1.126   3.853   5.945  0.1848 -0.3223  0.6709
 7311SOL     OW22752   4.275   5.004   5.296  0.2568  0.5249 -0.1544
 7311SOL    HW122753   4.190   5.016   5.348  0.5601  0.5295  0.3456
 7311SOL    HW222754   4.253   4.994   5.199 -0.4312 -0.9822  0.1279
 7312SOL     OW22755   3.342   2.023   2.133 -0.1714  0.3189 -0.0751
 7312SOL    HW122756   3.341   2.022   2.233 -0.6711  0.6225 -0.0747
 7312SOL    HW222757   3.395   2.101   2.101  0.3174  0.0000 -0.0501
 7313SOL     OW22758   6.156   0.184   5.083 -0.0482  0.0634 -0.0182
 7313SOL    HW122759   6.100   0.264   5.064  0.6370  0.6462  0.3483
 7313SOL    HW222760   6.154   0.122   5.004 -0.1525  0.7028 -0.5263
 7314SOL     OW22761   1.962   5.464   3.802 -0.2108  0.1552  0.8828
 7314SOL    HW122762   2.020   5.406   3.859 -1.9270 -0.2946  2.2297
 7314SOL    HW222763   1.897   5.408   3.752  1.5184  0.4863 -1.9962
 7315SOL     OW22764   4.996   5.674   1.233  0.5882 -0.0928  0.0398
 7315SOL    HW122765   4.990   5.727   1.317 -2.0202  0.4577 -0.4235
 7315SOL    HW222766   4.920   5.609   1.228  1.8917 -1.6276 -0.9263
 7316SOL     OW22767   1.322   4.667   1.918 -0.4097 -0.2916 -0.6125
 7316SOL    HW122768   1.262   4.603   1.966 -0.4363 -0.1998 -0.5229
 7316SOL    HW222769   1.417   4.646   1.940 -0.4695  1.1972  1.3655
 7317SOL     OW22770   0.950   5.698   5.834 -0.1256  0.1545  0.1763
 7317SOL    HW122771   0.901   5.611   5.830 -0.1553  0.2285 -1.5635
 7317SOL    HW222772   1.025   5.698   5.768 -0.3750  1.5782 -0.1460
 7318SOL     OW22773   5.358   6.329   6.595 -0.2295  0.1146 -0.1748
 7318SOL    HW122774   5.421   6.255   6.619 -0.9122 -0.0048  1.3360
 7318SOL    HW222775   5.267   6.291   6.577 -0.4825  0.5294  0.1989
 7319SOL     OW22776   6.208   2.351   4.635  0.2077  0.0498  0.2168
 7319SOL    HW122777   6.122   2.401   4.635  0.3843  0.5735 -3.3431
 7319SOL    HW222778   6.190   2.253   4.644 -0.4034  0.3188  2.9846
 7320SOL     OW22779   0.073   6.657   3.555  0.4742 -0.1675  0.2092
 7320SOL    HW122780   0.015   6.611   3.488  0.4561 -1.6890  1.2178
 7320SOL    HW222781   0.042   6.634   3.647  2.0685 -0.2167  0.7631
 7321SOL     OW22782   4.294   0.273   3.426 -0.0708 -0.2830 -0.3724
 7321SOL    HW122783   4.354   0.244   3.501 -1.7985 -3.1080  0.0754
 7321SOL    HW222784   4.200   0.275   3.458 -0.5544  1.5189 -1.7423
 7322SOL     OW22785   2.236   0.702   1.055  0.4968 -0.0325  0.2843
 7322SOL    HW122786   2.291   0.767   1.004  1.2722 -2.7911 -2.7643
 7322SOL    HW222787   2.140   0.728   1.050  0.7356  0.6921 -1.2508
 7323SOL     OW22788   0.202   6.184   6.042  0.1476  0.1621 -0.8386
 7323SOL    HW122789   0.224   6.160   6.137  0.5177  0.4646 -0.8446
 7323SOL    HW222790   0.287   6.203   5.992 -0.0925  0.7464 -1.0272
 7324SOL     OW22791   4.604   4.834   4.667 -0.3927 -0.7620  0.8816
 7324SOL    HW122792   4.629   4.909   4.728  0.7105 -0.7274  0.4112
 7324SOL    HW222793   4.530   4.864   4.606  0.4814  0.1772  0.2510
 7325SOL     OW22794   1.875   4.974   3.367  0.4155  0.3629 -0.3653
 7325SOL    HW122795   1.795   4.948   3.421  0.2334 -0.3939 -0.9966
 7325SOL    HW222796   1.897   5.070   3.385 -0.9922  0.7567 -0.6465
 7326SOL     OW22797   6.637   5.586   4.573 -0.1286  0.4676 -0.7095
 7326SOL    HW122798   6.593   5.548   4.655  0.7710  0.6735 -0.1158
 7326SOL    HW222799   6.720   5.635   4.600 -0.9861  2.4653 -1.4940
 7327SOL     OW22800   4.227   0.976   5.969  0.0503  0.2826 -0.0539
 7327SOL    HW122801   4.173   0.942   5.892 -1.0890  2.9921 -0.5581
 7327SOL    HW222802   4.165   1.011   6.040  1.1059  1.3034  0.4008
 7328SOL     OW22803   4.736   1.424   1.774 -0.7319 -0.1071  0.3120
 7328SOL    HW122804   4.797   1.380   1.707 -2.7124 -1.1423 -0.9038
 7328SOL    HW222805   4.686   1.498   1.730 -0.9923  0.1715  1.0678
 7329SOL     OW22806   4.963   3.793   1.335 -0.3604 -0.4233 -0.0315
 7329SOL    HW122807   4.916   3.760   1.253  2.7197 -1.9384 -1.3388
 7329SOL    HW222808   4.901   3.851   1.388 -2.5465  0.5485 -3.3418
 7330SOL     OW22809   6.513   4.988   0.318  0.1880 -0.1974  0.2953
 7330SOL    HW122810   6.533   4.893   0.294  0.4090 -0.2673  0.7418
 7330SOL    HW222811   6.591   5.027   0.368 -0.0654  0.0913  0.4726
 7331SOL     OW22812   2.861   6.530   5.663  0.0799  0.7540  0.2915
 7331SOL    HW122813   2.783   6.504   5.606  0.3262  0.4523  0.0911
 7331SOL    HW222814   2.869   6.466   5.739 -0.1060  1.0194  0.5387
 7332SOL     OW22815   4.410   5.287   1.966 -0.6479  0.3055 -0.1058
 7332SOL    HW122816   4.438   5.279   2.062  1.4357 -0.6660 -0.7321
 7332SOL    HW222817   4.418   5.198   1.922 -3.8375  0.1836 -0.6867
 7333SOL     OW22818   4.093   3.168   5.741 -0.2932 -0.2030  0.1979
 7333SOL    HW122819   4.185   3.152   5.774 -0.0570  1.0485  0.2041
 7333SOL    HW222820   4.085   3.262   5.709 -0.6011 -1.1877 -3.0013
 7334SOL     OW22821   3.468   4.961   3.312  0.1412 -0.2923  0.3050
 7334SOL    HW122822   3.562   4.954   3.346  0.3679  0.0734 -0.2363
 7334SOL    HW222823   3.406   4.977   3.389  0.3512 -1.8383  0.8342
 7335SOL     OW22824   5.574   0.911   1.925  0.1609  0.1388  0.0390
 7335SOL    HW122825   5.614   0.994   1.963 -1.2351 -0.0802  2.1436
 7335SOL    HW222826   5.486   0.893   1.969 -0.5942 -1.3116 -1.9013
 7336SOL     OW22827   5.430   3.809   4.997 -0.6388 -0.2626 -0.0602
 7336SOL    HW122828   5.454   3.853   4.910  1.4028 -2.2498 -0.5984
 7336SOL    HW222829   5.443   3.875   5.071  0.3055  0.6627 -1.0026
 7337SOL     OW22830   2.570   1.684   5.253 -0.0083 -0.2798 -0.2566
 7337SOL    HW122831   2.495   1.660   5.315  1.5848  0.1571  1.9601
 7337SOL    HW222832   2.543   1.761   5.195 -0.7405  1.0155  1.7137
 7338SOL     OW22833   2.171   1.595   3.915 -0.1923  0.0256  0.0283
 7338SOL    HW122834   2.146   1.691   3.907 -1.0715 -0.2955 -1.3416
 7338SOL    HW222835   2.267   1.583   3.890 -0.0386  0.5586  0.3514
 7339SOL     OW22836   4.357   5.485   0.306  0.1747  0.8363  0.1124
 7339SOL    HW122837   4.452   5.457   0.300 -0.0378 -0.2409  1.2940
 7339SOL    HW222838   4.310   5.462   0.221  0.9865  1.5302 -0.5430
 7340SOL     OW22839   2.452   5.558   1.798  0.4874 -0.3844 -0.9086
 7340SOL    HW122840   2.442   5.656   1.781 -0.3799 -0.5590 -1.4605
 7340SOL    HW222841   2.432   5.539   1.894  0.5270 -0.0430 -0.8318
 7341SOL     OW22842   0.300   4.890   3.129 -0.6049  0.3894  0.0608
 7341SOL    HW122843   0.320   4.904   3.226 -2.8009  2.2573  0.3283
 7341SOL    HW222844   0.354   4.955   3.074 -0.8377  0.6862  0.1862
 7342SOL     OW22845   3.987   5.774   0.387  0.3250  0.5604  0.2147
 7342SOL    HW122846   3.933   5.711   0.443  0.0697 -0.7141 -1.4013
 7342SOL    HW222847   3.937   5.797   0.304  2.3427 -1.0047 -1.5627
 7343SOL     OW22848   1.673   4.897   3.538 -0.2115  0.1804 -0.7406
 7343SOL    HW122849   1.599   4.962   3.554  0.3704  0.3918  1.2437
 7343SOL    HW222850   1.656   4.814   3.590 -0.2497 -0.7468 -2.1892
 7344SOL     OW22851   0.955   3.348   1.745 -0.2120 -0.4041 -0.5253
 7344SOL    HW122852   0.970   3.371   1.841 -1.7585  0.0461 -0.3646
 7344SOL    HW222853   1.033   3.379   1.690  1.4838 -2.1354  0.7530
 7345SOL     OW22854   1.070   2.382   5.945  0.0250 -0.0186 -0.0797
 7345SOL    HW122855   1.009   2.432   6.006 -1.2152 -1.5419 -0.0263
 7345SOL    HW222856   1.113   2.307   5.995  0.0681 -0.4417 -0.7404
 7346SOL     OW22857   6.057   5.789   2.043 -0.0451 -0.7900  0.6280
 7346SOL    HW122858   6.084   5.868   2.098  1.8853 -1.4931  0.7795
 7346SOL    HW222859   6.112   5.710   2.070 -0.7348 -1.7583 -0.6915
 7347SOL     OW22860   5.005   1.711   1.659 -0.6066 -0.1184  0.6045
 7347SOL    HW122861   5.077   1.718   1.590  1.5075 -0.0119  2.6687
 7347SOL    HW222862   4.921   1.677   1.617  1.0557 -1.7516 -1.6473
 7348SOL     OW22863   3.144   0.973   3.365 -0.3652 -0.1717  0.3535
 7348SOL    HW122864   3.091   0.950   3.283 -1.5589 -0.9764  1.3145
 7348SOL    HW222865   3.113   1.062   3.400  0.4692  0.3947 -0.3052
 7349SOL     OW22866   5.427   6.525   5.561  0.4438 -0.3254 -0.4060
 7349SOL    HW122867   5.471   6.443   5.526  1.6954 -0.0195  0.3869
 7349SOL    HW222868   5.328   6.510   5.570  0.7490 -1.9782  0.4168
 7350SOL     OW22869   0.707   3.751   4.511 -0.3661  0.2669  0.2124
 7350SOL    HW122870   0.641   3.772   4.583 -0.6145 -1.5743  0.5607
 7350SOL    HW222871   0.799   3.753   4.548 -0.4073  0.4191  0.3077
 7351SOL     OW22872   4.501   6.254   5.781 -0.1022 -0.4113 -0.1625
 7351SOL    HW122873   4.548   6.340   5.762 -0.6667 -0.1226 -0.2519
 7351SOL    HW222874   4.414   6.273   5.826 -0.4586 -0.9132 -0.6400
 7352SOL     OW22875   4.763   2.029   4.763  0.2916 -0.0870  0.4008
 7352SOL    HW122876   4.774   2.116   4.811 -0.9783  0.7022 -0.6941
 7352SOL    HW222877   4.851   1.981   4.762  2.2523  3.1010 -2.6224
 7353SOL     OW22878   5.733   6.481   0.952 -0.7490 -0.0529  0.3999
 7353SOL    HW122879   5.670   6.515   0.882 -0.5953 -0.8646 -0.1582
 7353SOL    HW222880   5.700   6.506   1.042 -1.8634 -0.4330  0.1157
 7354SOL     OW22881   5.395   3.129   6.429 -0.3711 -0.2169  0.4389
 7354SOL    HW122882   5.345   3.215   6.417  1.7328  0.9944 -0.1612
 7354SOL    HW222883   5.439   3.104   6.343 -1.9640 -2.6372  0.2388
 7355SOL     OW22884   1.604   5.808   3.101  0.3019 -0.3066  0.4576
 7355SOL    HW122885   1.637   5.714   3.110 -0.4103 -0.5370  0.7998
 7355SOL    HW222886   1.518   5.808   3.049  1.5627  0.4354 -1.7766
 7356SOL     OW22887   2.053   0.261   5.554  0.4943  0.1422  0.3681
 7356SOL    HW122888   1.975   0.262   5.617  1.3993 -1.9881  1.6274
 7356SOL    HW222889   2.019   0.254   5.460 -0.8372 -0.4580  0.8623
 7357SOL     OW22890   6.716   1.520   3.433 -0.3002 -0.2726  0.5437
 7357SOL    HW122891   6.668   1.606   3.450  2.7671  1.6977  0.2067
 7357SOL    HW222892   6.746   1.517   3.338  0.1816 -1.4306  0.7145
 7358SOL     OW22893   5.860   5.006   2.986 -0.4963 -0.1668  0.2052
 7358SOL    HW122894   5.780   4.993   3.044 -0.8947 -0.0880 -0.3162
 7358SOL    HW222895   5.902   5.094   3.005 -0.0535 -0.5485  1.0453
 7359SOL     OW22896   6.921   2.303   1.183 -0.3060  0.0978  0.1823
 7359SOL    HW122897   6.976   2.229   1.222  0.8804  1.8340  2.0309
 7359SOL    HW222898   6.841   2.319   1.241 -0.0129  0.8871  0.3868
 7360SOL     OW22899   1.670   4.448   4.778  0.1678  0.2100  0.0596
 7360SOL    HW122900   1.655   4.456   4.679 -2.4934  0.6570  0.4245
 7360SOL    HW222901   1.694   4.538   4.815 -2.1876  0.8497  0.2220
 7361SOL     OW22902   1.055   0.966   4.756 -0.0855 -0.0242 -0.2910
 7361SOL    HW122903   0.996   1.026   4.810 -0.1792 -0.9751  0.6912
 7361SOL    HW222904   1.125   1.020   4.710  0.0865  0.8014  0.9087
 7362SOL     OW22905   6.236   6.242   0.157 -0.4001  0.2506  0.1814
 7362SOL    HW122906   6.335   6.255   0.164 -0.1288 -1.2352 -0.6023
 7362SOL    HW222907   6.217   6.161   0.102 -2.0680  0.6617  0.1196
 7363SOL     OW22908   6.224   0.020   5.585  0.3494 -0.0933 -0.3152
 7363SOL    HW122909   6.166   0.055   5.659  0.7886  0.9112 -0.4432
 7363SOL    HW222910   6.186   0.047   5.497  0.2884 -0.5794 -0.4412
 7364SOL     OW22911   2.761   1.397   3.513  0.5467  0.4540 -0.0933
 7364SOL    HW122912   2.737   1.321   3.573  0.7003  0.7224  0.3107
 7364SOL    HW222913   2.860   1.410   3.513  0.7807 -0.9319 -2.0987
 7365SOL     OW22914   0.463   4.935   5.526  0.1578 -0.1215  0.1491
 7365SOL    HW122915   0.472   4.891   5.436 -0.1432 -0.3032  0.2068
 7365SOL    HW222916   0.428   4.869   5.592  0.1519  0.0788  0.3458
 7366SOL     OW22917   6.513   4.545   5.631  0.4776  0.6507 -0.3602
 7366SOL    HW122918   6.424   4.583   5.607  0.6089  1.6312  0.6005
 7366SOL    HW222919   6.583   4.583   5.570  0.6178  2.0724  0.6374
 7367SOL     OW22920   3.241   1.306   3.045  0.6698  0.0551  0.2876
 7367SOL    HW122921   3.150   1.267   3.027  0.4021  1.5878 -2.2921
 7367SOL    HW222922   3.258   1.309   3.143 -2.1667 -0.0580  0.8590
 7368SOL     OW22923   1.276   3.856   2.035 -0.5013  0.2583 -0.1870
 7368SOL    HW122924   1.266   3.879   1.938 -0.4649  1.2647  0.0394
 7368SOL    HW222925   1.351   3.909   2.075 -1.5524  1.0764  0.7726
 7369SOL     OW22926   6.800   6.423   6.549 -0.1176 -0.7126 -0.1535
 7369SOL    HW122927   6.797   6.351   6.480  0.0657 -1.6606  0.7938
 7369SOL    HW222928   6.739   6.398   6.625 -2.1642  1.4218 -0.9944
 7370SOL     OW22929   3.427   0.064   6.891  0.2264  0.4344  0.0639
 7370SOL    HW122930   3.360   0.051   6.964  1.3130 -0.5723  0.9254
 7370SOL    HW222931   3.491   0.137   6.918 -1.0690  2.0897 -1.1902
 7371SOL     OW22932   1.653   5.376   4.522  0.1218  0.2818  0.1529
 7371SOL    HW122933   1.571   5.343   4.475 -0.4410 -0.5412  1.6528
 7371SOL    HW222934   1.729   5.313   4.504 -0.7636 -1.5845  2.4100
 7372SOL     OW22935   2.406   1.921   6.653 -0.2144 -0.3905 -0.2532
 7372SOL    HW122936   2.413   1.836   6.706  1.7841 -1.7123 -2.4333
 7372SOL    HW222937   2.498   1.949   6.625 -0.8411  2.5077  0.3424
 7373SOL     OW22938   5.265   6.353   1.760 -0.1076 -0.1347  0.5347
 7373SOL    HW122939   5.332   6.293   1.717 -0.7758 -1.0525  0.7477
 7373SOL    HW222940   5.216   6.405   1.690 -0.1087 -0.4576  0.2988
 7374SOL     OW22941   1.531   3.442   0.566  0.2823  0.1655 -0.0304
 7374SOL    HW122942   1.534   3.383   0.646 -0.4248  1.6136  1.1301
 7374SOL    HW222943   1.462   3.408   0.502 -0.2908 -0.1477  0.7325
 7375SOL     OW22944   2.765   4.665   5.371 -0.6071 -0.6156  0.1072
 7375SOL    HW122945   2.792   4.629   5.282  1.4101  0.7748  0.0773
 7375SOL    HW222946   2.800   4.605   5.443  0.2510 -0.2714 -0.0054
 7376SOL     OW22947   0.704   1.596   3.052  0.2110  0.2098 -0.2890
 7376SOL    HW122948   0.774   1.656   3.091  0.2475  0.4808 -0.7636
 7376SOL    HW222949   0.614   1.638   3.063  0.1475 -0.0176  0.0859
 7377SOL     OW22950   6.471   6.105   0.504  0.2397 -0.2876  0.0914
 7377SOL    HW122951   6.526   6.030   0.543 -2.3350 -1.1982  2.3087
 7377SOL    HW222952   6.521   6.191   0.512  1.6070 -1.1543  1.4373
 7378SOL     OW22953   0.745   2.387   6.788 -0.1359 -0.0327  0.2210
 7378SOL    HW122954   0.783   2.430   6.870 -0.6586 -1.5666  1.2951
 7378SOL    HW222955   0.724   2.458   6.720  4.1704  0.9929 -0.3330
 7379SOL     OW22956   4.814   5.877   2.692 -0.2425 -0.6085 -0.2316
 7379SOL    HW122957   4.876   5.808   2.729  0.9272  0.7858  0.4732
 7379SOL    HW222958   4.769   5.840   2.610  0.7420 -2.0152 -0.1710
 7380SOL     OW22959   5.987   6.231   3.088 -0.1056  0.2101  0.1668
 7380SOL    HW122960   5.913   6.218   3.154 -0.3011  1.6444  0.2549
 7380SOL    HW222961   6.024   6.324   3.097  2.5933 -0.8422  1.0388
 7381SOL     OW22962   4.572   2.231   3.122 -0.6786 -0.6036 -0.2434
 7381SOL    HW122963   4.536   2.307   3.068  1.5687  1.0155  0.3676
 7381SOL    HW222964   4.532   2.232   3.213  0.0240  0.4817  0.0722
 7382SOL     OW22965   1.590   1.878   1.088  0.0844 -0.4213 -0.1619
 7382SOL    HW122966   1.535   1.954   1.120  0.8289 -0.0894  0.3322
 7382SOL    HW222967   1.534   1.820   1.027 -1.2789 -0.9468  1.5148
 7383SOL     OW22968   4.740   1.440   5.743  0.1645  0.0262  0.0686
 7383SOL    HW122969   4.701   1.353   5.713 -0.8278  1.1453 -2.2542
 7383SOL    HW222970   4.835   1.428   5.769  0.3623 -1.5801 -1.2496
 7384SOL     OW22971   2.473   6.094   1.900  0.1843  0.2421 -0.6005
 7384SOL    HW122972   2.407   6.164   1.927 -0.3278 -0.5825  0.3490
 7384SOL    HW222973   2.552   6.097   1.961  1.2910  1.5482 -2.0315
 7385SOL     OW22974   0.408   0.234   2.289  0.1940  0.6641  0.3920
 7385SOL    HW122975   0.480   0.197   2.347 -0.2972 -0.2211  0.4510
 7385SOL    HW222976   0.336   0.165   2.277 -0.1455  1.1622 -0.5133
 7386SOL     OW22977   0.620   5.733   5.594 -0.4573 -0.5257  0.0384
 7386SOL    HW122978   0.691   5.784   5.644 -0.4088 -0.6889  0.1359
 7386SOL    HW222979   0.659   5.647   5.560 -1.0489 -1.4016  1.5068
 7387SOL     OW22980   2.182   3.573   1.212 -0.0920  0.0307 -0.1325
 7387SOL    HW122981   2.222   3.492   1.255  1.1580  0.4980 -0.3565
 7387SOL    HW222982   2.233   3.595   1.129 -1.3747  0.1699 -0.9040
 7388SOL     OW22983   5.467   3.454   2.273  0.1849  0.0760 -0.3808
 7388SOL    HW122984   5.556   3.451   2.228 -0.2650 -0.2755 -1.2714
 7388SOL    HW222985   5.396   3.426   2.209 -0.5810  0.3976  0.3017
 7389SOL     OW22986   6.415   3.226   3.973  0.1043  0.5992  0.1406
 7389SOL    HW122987   6.495   3.173   3.946 -0.9347 -1.7988  1.3840
 7389SOL    HW222988   6.438   3.285   4.051  0.9385  0.8393 -0.2859
 7390SOL     OW22989   5.523   5.920   0.807  0.0108  0.0895  0.2762
 7390SOL    HW122990   5.533   6.006   0.855  0.1308 -0.9933  2.2833
 7390SOL    HW222991   5.609   5.895   0.764  0.2304  0.5246  0.4582
 7391SOL     OW22992   0.254   3.656   5.873 -0.0054  0.4862 -0.0989
 7391SOL    HW122993   0.223   3.750   5.862 -0.3130  0.3244 -0.6264
 7391SOL    HW222994   0.254   3.633   5.971  1.2002  1.4032  0.1339
 7392SOL     OW22995   0.964   2.160   5.125 -0.0060 -0.1353  0.1275
 7392SOL    HW122996   1.061   2.180   5.117  0.6459 -2.6697  0.7118
 7392SOL    HW222997   0.914   2.204   5.050  1.2808  2.5752  0.7514
 7393SOL     OW22998   5.736   2.611   0.236 -0.5894  0.0481  0.2651
 7393SOL    HW122999   5.641   2.608   0.268 -0.6271  0.0323  0.1509
 7393SOL    HW223000   5.769   2.705   0.239 -1.4282  0.4860 -2.0912
 7394SOL     OW23001   4.411   1.356   0.623  0.1736 -0.4886 -0.1354
 7394SOL    HW123002   4.469   1.358   0.704  0.7473 -1.1621 -0.5128
 7394SOL    HW223003   4.455   1.405   0.548  0.1644 -0.8224 -0.3646
 7395SOL     OW23004   5.529   6.283   5.908  0.4564  0.2522 -0.4074
 7395SOL    HW123005   5.432   6.279   5.881  0.0587 -3.1068  0.9910
 7395SOL    HW223006   5.542   6.355   5.976 -1.1574  0.4656 -0.2868
 7396SOL     OW23007   5.438   3.061   4.773  0.6081 -0.3418 -0.4161
 7396SOL    HW123008   5.403   3.111   4.852  1.1640 -1.5743  0.6281
 7396SOL    HW223009   5.412   3.110   4.689 -0.5013  0.6618  0.4814
 7397SOL     OW23010   2.698   5.332   2.956 -0.2794 -0.2218  0.3404
 7397SOL    HW123011   2.755   5.267   3.005 -0.9257 -0.6253  0.5674
 7397SOL    HW223012   2.652   5.287   2.880  1.3545  0.5740 -1.2108
 7398SOL     OW23013   6.721   1.927   2.982  0.4147 -0.0457  0.3156
 7398SOL    HW123014   6.805   1.897   3.027  0.2504 -0.3283  0.4355
 7398SOL    HW223015   6.652   1.949   3.051  0.2407 -0.2512  0.2062
 7399SOL     OW23016   5.969   4.284   1.409  0.2729 -0.0431 -0.5353
 7399SOL    HW123017   5.913   4.367   1.407 -0.0292 -0.2556 -1.2819
 7399SOL    HW223018   5.918   4.209   1.367  0.5486 -0.6057  0.1185
 7400SOL     OW23019   6.566   5.545   5.737  0.2470 -0.1389  0.0318
 7400SOL    HW123020   6.474   5.578   5.716 -0.8556 -2.4544  0.8485
 7400SOL    HW223021   6.565   5.445   5.744  2.0337 -0.0880  3.4515
 7401SOL     OW23022   6.946   5.066   0.309  0.4961 -0.0266 -0.8841
 7401SOL    HW123023   6.899   5.106   0.387  2.4867  1.1887 -0.2373
 7401SOL    HW223024   6.909   4.975   0.292  0.8458 -0.9341  2.3708
 7402SOL     OW23025   0.255   2.847   3.884  0.3376 -0.3875  0.0778
 7402SOL    HW123026   0.255   2.920   3.952 -1.7944 -1.1072  0.9114
 7402SOL    HW223027   0.189   2.868   3.813  1.3507 -0.4577 -0.9143
 7403SOL     OW23028   1.750   2.795   6.392 -0.9705 -0.0854 -0.4816
 7403SOL    HW123029   1.847   2.778   6.408 -1.0781 -0.8171 -0.5949
 7403SOL    HW223030   1.732   2.797   6.294 -1.4678 -2.3569 -0.4822
 7404SOL     OW23031   5.269   5.265   2.915  0.4375 -0.5513 -0.6238
 7404SOL    HW123032   5.367   5.250   2.928  0.3624  0.5568  1.8123
 7404SOL    HW223033   5.219   5.180   2.933  0.8636 -0.8145 -0.6800
 7405SOL     OW23034   5.261   0.156   3.022  0.0428  0.2764  0.0538
 7405SOL    HW123035   5.215   0.245   3.021  0.1622  0.3536  0.7682
 7405SOL    HW223036   5.219   0.097   3.091  0.8758  0.2839  0.5843
 7406SOL     OW23037   2.566   4.494   0.711  0.2108  0.2423 -0.0194
 7406SOL    HW123038   2.573   4.431   0.788 -1.5706  1.3964  1.1794
 7406SOL    HW223039   2.500   4.459   0.645 -0.9104  0.8560  0.7310
 7407SOL     OW23040   5.560   3.180   0.265  0.2583  0.0317  0.4450
 7407SOL    HW123041   5.641   3.229   0.233  0.8133 -3.0689 -3.8862
 7407SOL    HW223042   5.577   3.141   0.355  3.0237  0.7040  0.3016
 7408SOL     OW23043   6.014   0.560   0.356  0.8788 -0.2411 -0.5659
 7408SOL    HW123044   5.922   0.543   0.320 -0.2216  2.5821  0.6574
 7408SOL    HW223045   6.079   0.564   0.280 -0.0083 -2.0109 -1.4765
 7409SOL     OW23046   6.395   0.554   4.523  0.2880  0.7588 -0.3156
 7409SOL    HW123047   6.408   0.500   4.606  0.4599  1.1488 -0.0865
 7409SOL    HW223048   6.309   0.603   4.528 -0.5877 -0.6142 -1.1597
 7410SOL     OW23049   2.839   6.698   0.390  0.0344 -0.1472  0.1409
 7410SOL    HW123050   2.862   6.601   0.388 -1.0101 -0.4005 -0.2473
 7410SOL    HW223051   2.758   6.712   0.448 -0.2715  0.3805 -0.4033
 7411SOL     OW23052   2.223   3.459   3.229 -0.6433  0.4146  0.1538
 7411SOL    HW123053   2.157   3.385   3.218 -0.0989  0.0211 -0.5821
 7411SOL    HW223054   2.214   3.500   3.319 -1.3435 -0.1679  0.3493
 7412SOL     OW23055   5.471   2.445   1.473 -0.2451  0.4231  0.1160
 7412SOL    HW123056   5.543   2.400   1.421  0.6652 -0.5357  2.1018
 7412SOL    HW223057   5.508   2.478   1.560 -2.3370 -0.9045  1.6060
 7413SOL     OW23058   5.946   1.342   6.117 -0.5840 -0.1826 -0.7075
 7413SOL    HW123059   5.891   1.269   6.159  1.5136 -1.6875 -0.4277
 7413SOL    HW223060   5.950   1.327   6.018 -1.8462  0.7840 -0.9244
 7414SOL     OW23061   2.781   0.640   6.489  0.2230 -0.0525  0.3055
 7414SOL    HW123062   2.793   0.560   6.431  0.4535  0.0365  0.2315
 7414SOL    HW223063   2.807   0.723   6.439 -1.7808  0.2752 -0.2753
 7415SOL     OW23064   4.149   0.124   0.216 -0.6204  0.1735 -0.0388
 7415SOL    HW123065   4.208   0.200   0.189 -0.4312 -0.0545 -0.2753
 7415SOL    HW223066   4.057   0.158   0.234 -0.0061  0.8622  2.1929
 7416SOL     OW23067   4.559   6.434   1.875  0.6043  0.1074  0.1617
 7416SOL    HW123068   4.602   6.382   1.802  0.2294  1.7623 -1.3048
 7416SOL    HW223069   4.460   6.431   1.866  0.5768  1.2326 -0.0921
 7417SOL     OW23070   0.040   5.733   5.509  0.2567  0.0124  0.0106
 7417SOL    HW123071   0.016   5.822   5.470 -1.8910 -0.5014  0.0136
 7417SOL    HW223072   0.020   5.661   5.443 -0.4472 -0.6389  0.9172
 7418SOL     OW23073   1.215   3.762   0.734 -0.0552 -0.3627  0.5718
 7418SOL    HW123074   1.295   3.804   0.776 -0.2882  1.3602 -0.6068
 7418SOL    HW223075   1.223   3.663   0.738  1.7266 -0.2215  1.2168
 7419SOL     OW23076   2.416   3.578   0.437  0.3191  0.7491  0.3833
 7419SOL    HW123077   2.454   3.570   0.345 -1.2159  1.2123 -0.3294
 7419SOL    HW223078   2.353   3.503   0.455 -1.0500  1.7940  0.1864
 7420SOL     OW23079   3.362   0.350   6.935 -0.0550  0.3633 -0.0116
 7420SOL    HW123080   3.351   0.387   7.027  1.2190  1.2795 -0.2057
 7420SOL    HW223081   3.290   0.282   6.917 -1.1242  1.1589  1.1501
 7421SOL     OW23082   3.020   0.345   0.190 -0.4128  0.6834  0.3292
 7421SOL    HW123083   2.968   0.334   0.106  0.1726 -2.7147  0.2740
 7421SOL    HW223084   2.957   0.363   0.266 -1.1341  1.5793 -0.4475
 7422SOL     OW23085   4.143   3.645   2.773  0.1826  0.0095 -0.4873
 7422SOL    HW123086   4.129   3.631   2.675  0.5865 -0.7120 -0.4527
 7422SOL    HW223087   4.179   3.737   2.789  1.7262 -0.4286 -1.1970
 7423SOL     OW23088   5.658   6.913   1.588  0.0439 -0.2918 -0.1601
 7423SOL    HW123089   5.689   6.853   1.515  0.0558  0.0221 -0.4141
 7423SOL    HW223090   5.638   7.004   1.551 -0.9903 -0.4256  0.0206
 7424SOL     OW23091   5.518   0.887   0.032  0.2661  0.3206 -0.1227
 7424SOL    HW123092   5.603   0.887   0.085 -0.3167  0.3493  0.8350
 7424SOL    HW223093   5.500   0.980  -0.003  0.6874  0.2856 -0.4399
 7425SOL     OW23094   4.913   4.291   2.073 -0.0199 -0.2342  0.6368
 7425SOL    HW123095   4.925   4.390   2.079 -1.8870  0.0530  0.3015
 7425SOL    HW223096   4.983   4.252   2.012 -0.2253  1.1134 -0.5104
 7426SOL     OW23097   0.382   5.695   6.373  0.0420 -0.6856  0.5199
 7426SOL    HW123098   0.469   5.729   6.409 -1.0077  2.2317  0.6043
 7426SOL    HW223099   0.396   5.605   6.333  2.1171 -2.3978  4.4921
 7427SOL     OW23100   3.249   1.641   3.116 -0.1536 -0.1843  0.1951
 7427SOL    HW123101   3.285   1.732   3.099 -0.0331 -0.1688  0.5275
 7427SOL    HW223102   3.280   1.578   3.044  1.4757 -0.4342  1.0701
 7428SOL     OW23103   6.624   3.130   6.552 -0.3725  0.0354  0.3110
 7428SOL    HW123104   6.659   3.050   6.504 -0.5084 -1.5471  2.6613
 7428SOL    HW223105   6.644   3.212   6.499  0.2588 -1.4575 -1.9414
 7429SOL     OW23106   6.557   5.392   6.571 -0.0357  0.3660 -0.2848
 7429SOL    HW123107   6.533   5.453   6.495  0.1880  2.0508  0.9598
 7429SOL    HW223108   6.479   5.332   6.590 -0.2706  0.2526 -1.5070
 7430SOL     OW23109   6.188   5.945   4.960 -0.6358  0.0673 -0.2954
 7430SOL    HW123110   6.096   5.939   4.923 -0.4959  3.7270 -1.6446
 7430SOL    HW223111   6.207   6.039   4.989  1.8135 -1.1104  2.4905
 7431SOL     OW23112   6.021   4.807   0.177 -0.5289  0.4399  0.2953
 7431SOL    HW123113   5.983   4.750   0.105 -0.1505 -0.2390  0.6202
 7431SOL    HW223114   5.968   4.794   0.261  0.4189 -0.5713  0.7732
 7432SOL     OW23115   5.980   4.452   0.311 -0.1096 -0.0232 -0.1041
 7432SOL    HW123116   5.998   4.439   0.409  1.1983  0.4554 -0.2591
 7432SOL    HW223117   5.900   4.511   0.300  0.8813  1.5625  0.7362
 7433SOL     OW23118   5.331   1.889   0.052  0.0168 -0.3959 -0.0073
 7433SOL    HW123119   5.412   1.900  -0.006  0.3801 -1.3247  0.3127
 7433SOL    HW223120   5.304   1.979   0.088  1.6918 -0.2219  0.9361
 7434SOL     OW23121   4.234   4.518   1.430 -0.2469  0.5878  0.0715
 7434SOL    HW123122   4.142   4.528   1.392 -0.0851 -1.8256 -1.1775
 7434SOL    HW223123   4.229   4.461   1.513  0.0232  1.2873  0.5753
 7435SOL     OW23124   5.222   3.186   2.398 -0.7367  0.3165  0.7686
 7435SOL    HW123125   5.169   3.216   2.318 -0.3075  0.4850  0.5464
 7435SOL    HW223126   5.191   3.095   2.427 -0.8349  0.2210  0.3625
 7436SOL     OW23127   0.662   3.056   6.032 -0.3509  0.1977  0.0432
 7436SOL    HW123128   0.759   3.037   6.045  0.0230  1.6197 -0.5017
 7436SOL    HW223129   0.627   3.109   6.110 -0.5643  0.1578 -0.0232
 7437SOL     OW23130   5.330   2.867   5.122 -0.3005 -0.2689 -0.4198
 7437SOL    HW123131   5.415   2.818   5.103 -0.1627 -0.2055  0.0217
 7437SOL    HW223132   5.332   2.902   5.216 -1.3741 -1.4260  0.0726
 7438SOL     OW23133   4.986   5.829   0.874 -0.0508 -0.0018  0.1045
 7438SOL    HW123134   4.938   5.756   0.922 -0.7721 -0.9335 -1.9481
 7438SOL    HW223135   4.942   5.847   0.786  0.4453  2.5551  0.3010
 7439SOL     OW23136   4.115   0.414   5.217 -0.2019  0.8576  0.7101
 7439SOL    HW123137   4.084   0.351   5.145  2.9790 -0.5498  0.3584
 7439SOL    HW223138   4.138   0.502   5.176  1.2659  0.1726 -0.0374
 7440SOL     OW23139   5.084   0.428   4.777  0.0019 -0.4021  0.0346
 7440SOL    HW123140   5.011   0.491   4.752  1.9634  2.1311  0.3061
 7440SOL    HW223141   5.095   0.426   4.877  2.0698  1.5540 -0.0625
 7441SOL     OW23142   6.140   6.282   1.637  0.7544 -0.1838 -0.4969
 7441SOL    HW123143   6.222   6.227   1.621 -0.0165 -1.1555 -1.2899
 7441SOL    HW223144   6.084   6.239   1.708  0.7062  0.2004 -0.3041
 7442SOL     OW23145   1.449   5.886   2.721  0.0614 -0.0297 -0.0661
 7442SOL    HW123146   1.397   5.961   2.682  1.1457  1.2215  0.8197
 7442SOL    HW223147   1.547   5.904   2.713  0.3912 -1.8652 -0.8000
 7443SOL     OW23148   6.473   2.576   3.669 -0.1302  0.2954  0.3119
 7443SOL    HW123149   6.500   2.653   3.612 -0.0226 -1.4381 -2.1823
 7443SOL    HW223150   6.380   2.548   3.645  0.5393 -1.5503 -0.3991
 7444SOL     OW23151   3.112   3.488   1.976  0.0426  0.6654  0.2751
 7444SOL    HW123152   3.063   3.527   1.897  1.3394 -1.1223 -1.5185
 7444SOL    HW223153   3.211   3.497   1.961  0.3187  0.0275  1.5763
 7445SOL     OW23154   3.985   1.918   1.944 -0.1015  0.4689  0.0671
 7445SOL    HW123155   4.052   1.845   1.928  1.2341  1.6221  0.2500
 7445SOL    HW223156   3.894   1.878   1.951  0.5283 -1.1207 -0.3991
 7446SOL     OW23157   6.238   0.510   1.463  0.0329 -1.0040  0.5905
 7446SOL    HW123158   6.222   0.414   1.440 -1.5469 -0.6118 -0.0038
 7446SOL    HW223159   6.178   0.536   1.538 -0.5731 -0.0978 -0.1960
 7447SOL     OW23160   4.602   4.449   1.010 -0.2975  0.3871  0.0874
 7447SOL    HW123161   4.542   4.420   0.936 -0.0470 -0.3924  0.1804
 7447SOL    HW223162   4.548   4.463   1.093 -0.3335 -0.4598  0.2098
 7448SOL     OW23163   5.969   0.484   5.728  0.2992 -0.2153 -0.1349
 7448SOL    HW123164   6.005   0.574   5.749 -0.3213  0.1438 -0.5933
 7448SOL    HW223165   5.877   0.492   5.689  0.6788 -0.9778 -1.2413
 7449SOL     OW23166   3.192   0.798   5.685 -0.4465 -0.8613  0.1016
 7449SOL    HW123167   3.135   0.722   5.714  0.3872 -2.1708 -1.5310
 7449SOL    HW223168   3.280   0.795   5.734 -0.3901 -0.9785 -0.0077
 7450SOL     OW23169   5.157   0.495   0.064 -0.0033  0.1004  0.2144
 7450SOL    HW123170   5.214   0.575   0.049 -1.2783  1.0648  0.3772
 7450SOL    HW223171   5.060   0.521   0.058 -0.4544 -1.1840  1.4582
 7451SOL     OW23172   0.479   0.890   0.332 -0.1101  0.7858  0.2996
 7451SOL    HW123173   0.475   0.805   0.384 -0.2531  1.0599  0.7428
 7451SOL    HW223174   0.529   0.959   0.385  2.4877  0.1820 -1.2086
 7452SOL     OW23175   5.724   3.626   5.276  0.3261 -0.0567  0.4652
 7452SOL    HW123176   5.798   3.597   5.336 -0.4488  0.8041  1.8851
 7452SOL    HW223177   5.665   3.548   5.255  0.1114 -0.1989  1.5524
 7453SOL     OW23178   0.920   6.987   0.703  0.5401 -0.3133 -0.2505
 7453SOL    HW123179   0.842   6.946   0.750 -0.2683  0.5898 -0.7902
 7453SOL    HW223180   0.936   6.940   0.616 -0.0950  0.2061 -0.6519
 7454SOL     OW23181   1.845   6.711   1.480 -0.3623  0.1128 -0.5943
 7454SOL    HW123182   1.788   6.675   1.554  0.8219 -1.2951 -0.3284
 7454SOL    HW223183   1.787   6.733   1.401 -1.3343 -0.8656 -0.1751
 7455SOL     OW23184   5.782   3.739   0.625  0.4115 -0.2181  0.5438
 7455SOL    HW123185   5.857   3.673   0.636  1.7287  1.3407  1.4200
 7455SOL    HW223186   5.799   3.795   0.544  0.2643  0.1983  0.7937
 7456SOL     OW23187   1.970   2.004   5.477  0.2757 -1.0025 -0.2744
 7456SOL    HW123188   1.914   1.926   5.503 -1.9493  0.4183 -0.5817
 7456SOL    HW223189   1.989   2.000   5.379 -0.6463 -0.6956 -0.4758
 7457SOL     OW23190   2.070   5.252   0.199  0.5024  0.0433 -0.0407
 7457SOL    HW123191   1.976   5.224   0.181 -0.7293  2.1971  2.4968
 7457SOL    HW223192   2.109   5.193   0.269 -1.3819  2.9154  3.7705
 7458SOL     OW23193   3.792   1.292   0.364  0.7436  0.6803 -0.4226
 7458SOL    HW123194   3.854   1.270   0.439  0.3598  1.1658  0.0447
 7458SOL    HW223195   3.832   1.261   0.277  0.3389 -1.6492  0.1472
 7459SOL     OW23196   4.498   5.879   4.969 -0.2241  0.8165  0.1987
 7459SOL    HW123197   4.498   5.835   4.880  1.6821  2.1012 -0.5010
 7459SOL    HW223198   4.404   5.889   5.002 -0.9600  0.3229 -1.6474
 7460SOL     OW23199   3.080   0.790   4.185 -0.7138  0.2622 -0.0503
 7460SOL    HW123200   3.138   0.712   4.209 -1.8691 -0.4588  0.5097
 7460SOL    HW223201   3.054   0.839   4.268  1.1428  2.1458 -0.4933
 7461SOL     OW23202   5.265   1.052   3.737 -0.6858 -0.3058  0.5495
 7461SOL    HW123203   5.330   1.070   3.663 -0.6812 -0.3548  0.5419
 7461SOL    HW223204   5.305   1.079   3.824 -0.9253  0.3275  0.4669
 7462SOL     OW23205   3.561   0.788   5.398  0.0730  0.0865 -0.1284
 7462SOL    HW123206   3.466   0.767   5.377  0.4547 -2.0509  0.0471
 7462SOL    HW223207   3.608   0.705   5.427  2.3313  0.8095 -1.4619
 7463SOL     OW23208   5.488   3.625   6.812 -0.0034  0.3270 -0.5181
 7463SOL    HW123209   5.498   3.565   6.892  0.1162  1.4122  0.2998
 7463SOL    HW223210   5.572   3.623   6.759  0.4119  0.6054  0.1113
 7464SOL     OW23211   1.891   3.835   1.779  0.2254 -0.3181  0.0696
 7464SOL    HW123212   1.970   3.783   1.812  1.1101 -0.2419 -1.8099
 7464SOL    HW223213   1.913   3.933   1.778 -0.6233 -0.0834  1.4045
 7465SOL     OW23214   0.871   2.778   5.002 -0.4312  0.4342  0.1320
 7465SOL    HW123215   0.903   2.686   4.981 -1.6821  0.1639 -0.7406
 7465SOL    HW223216   0.938   2.826   5.059  0.6683 -0.6731 -0.2097
 7466SOL     OW23217   5.740   5.896   0.547  0.1347 -0.5632  0.5487
 7466SOL    HW123218   5.672   5.825   0.531 -0.5210 -0.1195  1.2889
 7466SOL    HW223219   5.832   5.858   0.533 -0.2714 -0.9732 -1.1765
 7467SOL     OW23220   3.572   0.379   1.863  0.1652  0.7993 -0.2795
 7467SOL    HW123221   3.568   0.336   1.953 -1.5944  4.0194  1.3468
 7467SOL    HW223222   3.538   0.315   1.794  0.4595 -1.3542  1.4719
 7468SOL     OW23223   1.829   0.996   6.407  0.2949  0.1988 -0.2174
 7468SOL    HW123224   1.911   0.996   6.465 -0.6624 -0.8983  1.2117
 7468SOL    HW223225   1.748   0.999   6.465 -0.6956  0.4590 -1.5869
 7469SOL     OW23226   4.786   1.965   1.973 -0.6028  0.0383  0.3247
 7469SOL    HW123227   4.856   1.902   1.939 -1.0066 -0.4131  0.3232
 7469SOL    HW223228   4.713   1.973   1.905 -1.4826 -0.9725  1.1072
 7470SOL     OW23229   2.017   4.580   1.993 -0.0253  0.0448  0.4291
 7470SOL    HW123230   2.070   4.649   2.043  2.0569 -1.7076  0.8158
 7470SOL    HW223231   2.033   4.591   1.895  0.2428  0.1672  0.4847
 7471SOL     OW23232   5.741   6.330   2.326 -0.1661 -0.1644 -0.6783
 7471SOL    HW123233   5.814   6.360   2.264  1.0252 -1.5806 -0.0254
 7471SOL    HW223234   5.767   6.352   2.420 -0.2624 -1.2812 -0.3849
 7472SOL     OW23235   2.418   5.491   3.743  0.2438 -0.3580 -0.5730
 7472SOL    HW123236   2.484   5.423   3.712  1.3573 -0.2593  1.4015
 7472SOL    HW223237   2.433   5.511   3.840 -0.8619  1.7819 -0.7686
 7473SOL     OW23238   0.125   0.322   6.088  0.5671  0.0259  1.2320
 7473SOL    HW123239   0.187   0.373   6.148  2.4887 -0.7769  0.0391
 7473SOL    HW223240   0.104   0.377   6.008  0.6478 -0.1199  1.1100
 7474SOL     OW23241   5.819   5.638   3.126 -0.2985 -0.0458 -0.8672
 7474SOL    HW123242   5.751   5.570   3.151  1.9192 -2.3694 -0.6839
 7474SOL    HW223243   5.863   5.610   3.040 -0.0192  1.7426 -1.3421
 7475SOL     OW23244   5.745   5.115   0.420  0.0678 -0.3374 -0.3926
 7475SOL    HW123245   5.673   5.156   0.364 -0.1256 -1.0076 -0.6343
 7475SOL    HW223246   5.748   5.162   0.509  0.6073  0.9524 -1.0705
 7476SOL     OW23247   3.000   3.030   6.465  0.3597  0.2312 -0.5336
 7476SOL    HW123248   3.075   3.028   6.399  1.5832  0.7698  0.7815
 7476SOL    HW223249   2.981   3.125   6.491 -0.3322  0.0497 -0.3408
 7477SOL     OW23250   2.181   2.491   3.028  0.3118  0.3398 -0.0340
 7477SOL    HW123251   2.211   2.412   3.083  1.3548 -0.5093 -1.7294
 7477SOL    HW223252   2.084   2.482   3.007  0.2343 -0.0650  0.4707
 7478SOL     OW23253   5.390   0.056   0.708  0.1983  0.4635  0.5469
 7478SOL    HW123254   5.382   0.129   0.640 -1.7958 -1.8475 -1.9304
 7478SOL    HW223255   5.318   0.066   0.776 -2.0179 -0.6806 -1.4836
 7479SOL     OW23256   5.325   1.872   5.352 -0.0515 -0.1018  0.1326
 7479SOL    HW123257   5.316   1.905   5.446  0.2728  1.5890 -0.3875
 7479SOL    HW223258   5.399   1.805   5.347  0.6506  0.5883  0.9124
 7480SOL     OW23259   6.921   6.833   4.495 -0.1808  0.1407  0.0701
 7480SOL    HW123260   7.016   6.826   4.524  0.3635 -1.0279 -1.8182
 7480SOL    HW223261   6.881   6.742   4.487 -0.1929  0.3039 -2.8948
 7481SOL     OW23262   2.074   6.751   4.750 -0.3202 -0.0765 -0.3391
 7481SOL    HW123263   2.142   6.825   4.749  0.4137 -0.7350 -1.6290
 7481SOL    HW223264   2.030   6.748   4.840  3.2538 -1.3583  1.5527
 7482SOL     OW23265   6.965   4.885   1.105 -0.2785  0.3291  0.3902
 7482SOL    HW123266   7.045   4.843   1.063 -0.1301  0.5165  0.4885
 7482SOL    HW223267   6.913   4.934   1.034 -0.7305 -0.4376  0.1687
 7483SOL     OW23268   1.022   4.586   5.900 -0.4701 -0.1833  0.1551
 7483SOL    HW123269   1.086   4.510   5.908  2.0197  1.3146 -3.2391
 7483SOL    HW223270   0.930   4.550   5.881  0.2556 -2.3212  0.3953
 7484SOL     OW23271   6.171   3.423   0.695 -0.2937  0.4348  0.0890
 7484SOL    HW123272   6.215   3.348   0.745 -0.7433 -0.1354 -0.3567
 7484SOL    HW223273   6.157   3.396   0.600  1.3946  1.8514 -0.6212
 7485SOL     OW23274   3.280   5.309   2.799 -0.1335 -0.6331 -0.0258
 7485SOL    HW123275   3.192   5.350   2.775  0.6559  0.4196 -1.2461
 7485SOL    HW223276   3.278   5.281   2.895 -2.1461 -1.6072 -0.3024
 7486SOL     OW23277   5.839   6.138   1.281 -0.6821 -0.2898  1.0079
 7486SOL    HW123278   5.762   6.076   1.294  0.7906 -2.0010  2.1376
 7486SOL    HW223279   5.870   6.134   1.186 -0.1238 -1.9623  1.2290
 7487SOL     OW23280   6.985   6.341   1.666 -0.3199  0.1125  0.0484
 7487SOL    HW123281   6.886   6.332   1.670 -0.3183  0.2546  0.3881
 7487SOL    HW223282   7.027   6.252   1.685 -0.3795  0.0750  0.0050
 7488SOL     OW23283   3.364   5.975   1.282 -0.4637  0.4426 -0.1517
 7488SOL    HW123284   3.282   6.015   1.242 -0.3850  0.0334 -0.7289
 7488SOL    HW223285   3.424   5.941   1.210 -0.4152 -0.4908  0.3115
 7489SOL     OW23286   5.934   2.421   0.373  0.0053  0.3574  0.2110
 7489SOL    HW123287   5.888   2.495   0.421  0.2218 -1.4397  3.5025
 7489SOL    HW223288   5.883   2.336   0.384  1.5678 -0.7134 -0.3352
 7490SOL     OW23289   1.031   0.350   6.836  0.0931 -0.0319  0.5969
 7490SOL    HW123290   1.013   0.392   6.925  0.6761 -0.3562  0.8761
 7490SOL    HW223291   1.127   0.365   6.811  0.2865 -1.1040  0.6591
 7491SOL     OW23292   0.729   3.633   2.420 -0.0826  0.4835  0.0875
 7491SOL    HW123293   0.762   3.540   2.411 -1.7922 -0.2105  0.5496
 7491SOL    HW223294   0.770   3.676   2.500  2.3971  0.9447 -1.3215
 7492SOL     OW23295   4.256   2.598   6.232  0.2451  0.1368 -0.0857
 7492SOL    HW123296   4.315   2.518   6.237  1.0308  0.7331  0.5333
 7492SOL    HW223297   4.266   2.642   6.143 -1.3558 -1.2971 -1.0236
 7493SOL     OW23298   4.401   3.047   2.682 -0.1751  0.4229 -0.0973
 7493SOL    HW123299   4.434   3.079   2.771  0.4892  0.2436 -0.2682
 7493SOL    HW223300   4.343   2.967   2.694 -2.1356  1.8273  0.3656
 7494SOL     OW23301   2.199   5.472   2.852  0.1916  0.1229  0.2141
 7494SOL    HW123302   2.115   5.459   2.800  0.8807 -0.6328 -0.7551
 7494SOL    HW223303   2.245   5.555   2.820  0.7679 -0.5055 -0.6255
 7495SOL     OW23304   0.850   2.785   1.748 -0.7532  0.4412 -0.0932
 7495SOL    HW123305   0.886   2.878   1.741  1.6127 -0.4913 -1.4404
 7495SOL    HW223306   0.923   2.723   1.778 -1.5772 -1.3422 -1.5722
 7496SOL     OW23307   3.606   2.076   0.870  0.4193 -0.3819  0.1372
 7496SOL    HW123308   3.632   2.018   0.793  1.0004 -0.4793  0.3989
 7496SOL    HW223309   3.639   2.169   0.854  0.6020 -0.4179  0.2957
 7497SOL     OW23310   4.364   3.467   0.279  0.1975  0.0472 -0.3754
 7497SOL    HW123311   4.368   3.383   0.333 -0.4385  0.3694  0.1975
 7497SOL    HW223312   4.268   3.492   0.265  0.3887  1.1386  0.1901
 7498SOL     OW23313   4.916   0.956   3.030  0.1234  0.2276 -0.7878
 7498SOL    HW123314   4.946   0.862   3.048 -1.2858 -0.1590 -0.3099
 7498SOL    HW223315   4.995   1.014   3.013  1.1339 -0.7072  0.5500
 7499SOL     OW23316   3.230   1.951   5.986  0.2345  0.2895  0.0125
 7499SOL    HW123317   3.249   2.045   6.014 -1.0738  0.9769 -1.2566
 7499SOL    HW223318   3.189   1.902   6.063  0.8878  0.7599  0.6770
 7500SOL     OW23319   2.639   5.324   6.456  0.1854 -0.0123  0.1824
 7500SOL    HW123320   2.550   5.316   6.412  0.7409  0.1607 -1.0483
 7500SOL    HW223321   2.664   5.421   6.463  1.0558 -0.1052 -1.2042
 7501SOL     OW23322   0.574   5.227   3.898  0.6218  0.3694  0.0470
 7501SOL    HW123323   0.556   5.323   3.919  0.7904  0.5383 -0.5496
 7501SOL    HW223324   0.664   5.201   3.934 -0.4843 -0.3020  2.4808
 7502SOL     OW23325   4.740   1.659   1.593 -0.1471 -0.5134 -0.1279
 7502SOL    HW123326   4.707   1.593   1.526  0.9352  0.2993 -1.5155
 7502SOL    HW223327   4.706   1.750   1.569  1.4462  0.0246 -0.4734
 7503SOL     OW23328   2.836   1.801   1.017 -0.1197  0.7217  0.1990
 7503SOL    HW123329   2.754   1.798   1.074 -1.2729 -1.6385 -1.4165
 7503SOL    HW223330   2.811   1.820   0.922  1.0119 -0.9870 -0.5073
 7504SOL     OW23331   4.288   3.788   6.610 -0.1816 -0.0809  0.6548
 7504SOL    HW123332   4.246   3.848   6.541 -0.6535  1.5382  2.2818
 7504SOL    HW223333   4.364   3.835   6.654  0.9368 -1.5790  0.4046
 7505SOL     OW23334   1.294   4.092   1.123  0.2505 -0.0955  0.1093
 7505SOL    HW123335   1.245   4.162   1.174 -0.0666 -0.2042 -0.0424
 7505SOL    HW223336   1.363   4.050   1.182  0.2813  0.1806  0.2706
 7506SOL     OW23337   2.992   3.608   4.644 -0.1241  0.5538 -0.2376
 7506SOL    HW123338   3.026   3.693   4.685  0.1025 -0.8557  2.6895
 7506SOL    HW223339   3.061   3.536   4.653 -0.8140 -0.3195 -1.5332
 7507SOL     OW23340   0.337   3.510   1.264 -0.3640 -0.1289 -0.0105
 7507SOL    HW123341   0.413   3.448   1.286  0.0839 -0.3715 -2.0483
 7507SOL    HW223342   0.372   3.601   1.246 -0.8092  0.2541  0.9622
 7508SOL     OW23343   4.977   6.677   4.109  0.0327  0.4151 -0.2870
 7508SOL    HW123344   5.065   6.720   4.089 -0.6324  0.8681 -2.4746
 7508SOL    HW223345   4.917   6.744   4.152  0.4851  0.3237  0.5075
 7509SOL     OW23346   2.601   1.310   4.399 -0.0457 -0.1335 -0.2903
 7509SOL    HW123347   2.634   1.303   4.493  1.9069 -0.2698 -0.9414
 7509SOL    HW223348   2.552   1.226   4.375  0.7164 -0.7234  0.1603
 7510SOL     OW23349   5.215   6.008   2.592  0.2175 -0.6350 -0.3224
 7510SOL    HW123350   5.200   6.026   2.495 -0.0549 -1.3269 -0.4148
 7510SOL    HW223351   5.135   6.035   2.644  1.2808  2.1547  0.0643
 7511SOL     OW23352   5.036   5.026   6.584  0.0854 -0.0920  0.1149
 7511SOL    HW123353   5.070   4.962   6.654 -0.0751 -0.5838 -0.2558
 7511SOL    HW223354   5.059   4.991   6.493  1.4813  1.1945 -0.0771
 7512SOL     OW23355   5.429   3.207   3.344  0.8382 -0.6743 -0.0141
 7512SOL    HW123356   5.462   3.220   3.250  1.0428  0.2143  0.1724
 7512SOL    HW223357   5.347   3.150   3.342  0.6916 -0.4543 -0.7595
 7513SOL     OW23358   2.287   2.653   6.541  0.0842 -0.1919  0.5557
 7513SOL    HW123359   2.189   2.668   6.528  0.3582  0.7382 -0.5926
 7513SOL    HW223360   2.314   2.568   6.496  0.3145  1.0643 -1.8531
 7514SOL     OW23361   6.624   2.385   2.054  0.1403 -0.3746 -0.1680
 7514SOL    HW123362   6.611   2.480   2.024 -0.4373 -0.9921 -1.9845
 7514SOL    HW223363   6.720   2.372   2.079  0.2595  0.6469 -0.0194
 7515SOL     OW23364   5.645   4.734   0.569 -0.1746 -0.3615  0.0988
 7515SOL    HW123365   5.597   4.813   0.608 -0.7378 -0.6354 -0.0400
 7515SOL    HW223366   5.629   4.654   0.626 -1.5602 -0.9299 -1.0206
 7516SOL     OW23367   5.189   4.819   1.261 -0.2644  0.1315 -0.3870
 7516SOL    HW123368   5.265   4.882   1.277  0.0340  0.1633 -1.7973
 7516SOL    HW223369   5.169   4.769   1.345  1.3741  0.0555 -0.0117
 7517SOL     OW23370   5.265   3.088   4.480 -0.0959 -0.1100 -0.0581
 7517SOL    HW123371   5.263   3.036   4.394  3.3394  0.7918 -0.8626
 7517SOL    HW223372   5.302   3.179   4.462  0.5696  0.1557  2.3489
 7518SOL     OW23373   5.599   2.000   5.793 -0.4742 -0.2624 -0.2684
 7518SOL    HW123374   5.582   1.908   5.828  0.6553 -0.6241 -0.6398
 7518SOL    HW223375   5.609   2.064   5.869 -0.3179 -0.6177  0.0084
 7519SOL     OW23376   0.197   6.852   4.607 -0.1059  0.2435 -0.1343
 7519SOL    HW123377   0.239   6.928   4.558  0.6895  0.4978  0.9068
 7519SOL    HW223378   0.166   6.884   4.697 -0.5687 -0.4597 -0.0393
 7520SOL     OW23379   5.737   4.884   5.393 -0.6929  0.3220  0.3146
 7520SOL    HW123380   5.763   4.904   5.487 -0.3225  0.9155  0.0953
 7520SOL    HW223381   5.686   4.799   5.390 -0.0784 -0.0803  0.9555
 7521SOL     OW23382   1.165   6.711   6.399 -0.0107  0.7672 -0.2693
 7521SOL    HW123383   1.156   6.712   6.499  2.5349 -1.6330  0.0880
 7521SOL    HW223384   1.179   6.805   6.367 -0.6815  1.5803  1.6047
 7522SOL     OW23385   3.822   6.567   5.226 -0.3096  0.2054 -0.1159
 7522SOL    HW123386   3.917   6.538   5.244  0.8565  2.1181 -2.6726
 7522SOL    HW223387   3.790   6.525   5.142 -1.6706 -0.1766  0.5717
 7523SOL     OW23388   3.959   2.928   2.608  0.1210  0.1352 -0.2460
 7523SOL    HW123389   3.965   2.935   2.707 -0.5436  1.3370 -0.2771
 7523SOL    HW223390   3.981   2.835   2.580 -0.0205 -0.3037  1.0478
 7524SOL     OW23391   0.776   5.997   5.242 -0.3289 -0.4053 -0.5394
 7524SOL    HW123392   0.794   6.051   5.160 -1.5499 -1.0508 -1.2693
 7524SOL    HW223393   0.861   5.957   5.276  0.3781  0.8603 -0.7712
 7525SOL     OW23394   4.914   6.306   3.141 -0.3606  0.1372  0.6815
 7525SOL    HW123395   4.814   6.310   3.141 -0.3917 -0.4112  0.2468
 7525SOL    HW223396   4.950   6.377   3.081 -0.5636 -0.7236 -0.5029
 7526SOL     OW23397   1.169   4.657   3.627  0.1187 -0.1005 -0.2581
 7526SOL    HW123398   1.204   4.734   3.681  1.0510 -0.7021  0.0062
 7526SOL    HW223399   1.113   4.598   3.686 -1.4977  0.9217 -0.7066
 7527SOL     OW23400   5.082   0.997   6.694  0.5911 -0.5458 -0.7156
 7527SOL    HW123401   5.059   0.927   6.762  1.7691  0.3462  0.6779
 7527SOL    HW223402   5.005   1.010   6.632  0.0545 -2.4954 -0.5226
 7528SOL     OW23403   3.757   6.483   0.365 -0.6690 -0.1969 -0.3339
 7528SOL    HW123404   3.711   6.566   0.396 -0.2355 -0.2933  0.5986
 7528SOL    HW223405   3.794   6.498   0.273  2.5612  1.9728  1.1241
 7529SOL     OW23406   5.840   2.766   2.384 -0.1907 -0.3865 -0.2928
 7529SOL    HW123407   5.875   2.801   2.297  3.8380 -4.4021 -0.6785
 7529SOL    HW223408   5.789   2.682   2.368 -2.1520  0.4683  1.1183
 7530SOL     OW23409   4.896   4.692   5.368 -0.0221 -0.4869  0.0607
 7530SOL    HW123410   4.797   4.687   5.352  0.3256 -1.8455 -1.9457
 7530SOL    HW223411   4.938   4.754   5.302  0.5000 -0.0130  0.8209
 7531SOL     OW23412   1.904   1.930   2.794 -0.0659  0.2447  0.1852
 7531SOL    HW123413   1.885   1.842   2.749 -2.9826  0.6320  0.4725
 7531SOL    HW223414   1.885   2.004   2.730 -1.7147  0.7245  1.1650
 7532SOL     OW23415   1.613   1.405   5.346  0.4360 -0.3355 -0.5199
 7532SOL    HW123416   1.551   1.388   5.270  0.8703  3.2505 -1.9033
 7532SOL    HW223417   1.569   1.467   5.411  1.6639  0.2636 -0.2263
 7533SOL     OW23418   2.179   0.524   2.156  0.5861  0.5038 -0.3971
 7533SOL    HW123419   2.256   0.464   2.132 -0.5852 -0.5291 -1.7208
 7533SOL    HW223420   2.162   0.519   2.254 -1.3727 -3.8408 -0.7469
 7534SOL     OW23421   5.557   0.457   4.871  0.2496  0.8259  1.2498
 7534SOL    HW123422   5.486   0.433   4.937 -0.6966 -0.0854 -0.0533
 7534SOL    HW223423   5.515   0.474   4.782  1.5282  1.7499  0.7950
 7535SOL     OW23424   3.376   6.305   4.128  0.5850 -0.4343 -0.0915
 7535SOL    HW123425   3.444   6.372   4.101  1.3504 -0.8390  0.7601
 7535SOL    HW223426   3.291   6.321   4.078  1.6429 -0.6295 -2.0441
 7536SOL     OW23427   4.166   2.056   1.708 -0.3491  0.2790 -0.0052
 7536SOL    HW123428   4.165   2.037   1.610  2.2882  1.3410 -0.3250
 7536SOL    HW223429   4.112   2.138   1.727  1.4145  1.7713 -1.0750
 7537SOL     OW23430   6.331   6.439   3.615 -0.0312 -0.1947  0.5960
 7537SOL    HW123431   6.237   6.415   3.639 -0.2616 -0.1615 -0.2403
 7537SOL    HW223432   6.337   6.537   3.596 -0.3298 -0.5369 -1.4979
 7538SOL     OW23433   6.206   0.419   2.010 -0.1132 -0.6711  0.2146
 7538SOL    HW123434   6.196   0.481   2.087  1.6091 -0.9384  0.7144
 7538SOL    HW223435   6.180   0.465   1.926 -0.7902  0.0492  0.8094
 7539SOL     OW23436   0.707   4.345   3.925  0.3426  0.1649 -0.0024
 7539SOL    HW123437   0.669   4.434   3.901 -1.2572 -0.0473  1.4794
 7539SOL    HW223438   0.703   4.333   4.024  1.9362 -0.9745 -0.0380
 7540SOL     OW23439   1.113   2.139   6.952 -0.5080 -0.1344  0.0165
 7540SOL    HW123440   1.013   2.143   6.957 -0.5607 -0.7335 -0.4477
 7540SOL    HW223441   1.141   2.045   6.933  0.0089  0.4776 -2.6081
 7541SOL     OW23442   3.254   2.750   1.958  0.5580 -0.3326  0.0594
 7541SOL    HW123443   3.308   2.811   2.016  1.2188 -0.7861 -0.0653
 7541SOL    HW223444   3.177   2.714   2.010  0.4808  0.1658  0.3014
 7542SOL     OW23445   1.040   2.567   4.740 -0.1927 -0.0576  0.0263
 7542SOL    HW123446   1.092   2.637   4.788 -0.6774 -0.5349  1.2984
 7542SOL    HW223447   1.042   2.482   4.793  0.5878 -1.1084 -1.5958
 7543SOL     OW23448   2.129   3.920   0.965 -0.4537  0.2634 -0.5564
 7543SOL    HW123449   2.036   3.887   0.953 -0.7859  0.8361  0.3582
 7543SOL    HW223450   2.130   3.996   1.030  0.7348 -0.1689 -0.0298
 7544SOL     OW23451   5.155   2.783   1.518 -0.3464 -0.3796  0.2413
 7544SOL    HW123452   5.191   2.736   1.599 -0.3964 -2.6123 -0.9393
 7544SOL    HW223453   5.183   2.733   1.436 -2.7370  0.0960 -0.9536
 7545SOL     OW23454   4.434   6.267   5.097  0.5967  0.8026  0.4632
 7545SOL    HW123455   4.421   6.184   5.043 -1.1524  0.4688  1.3293
 7545SOL    HW223456   4.408   6.346   5.043  0.9909  0.6821  0.0865
 7546SOL     OW23457   6.399   0.770   2.774 -0.6224  0.3929  0.3921
 7546SOL    HW123458   6.301   0.777   2.791 -1.0121 -2.4045 -0.2328
 7546SOL    HW223459   6.421   0.812   2.686 -1.6974 -0.9094 -0.5324
 7547SOL     OW23460   3.552   3.893   2.725 -0.3379 -0.2098 -0.4436
 7547SOL    HW123461   3.471   3.952   2.719  0.5378  1.0970  0.1298
 7547SOL    HW223462   3.538   3.824   2.795 -1.3786 -0.6926 -1.1092
 7548SOL     OW23463   4.088   0.601   3.237  0.2356  0.4784 -0.7581
 7548SOL    HW123464   4.066   0.579   3.332 -1.6086 -0.8873 -1.4540
 7548SOL    HW223465   4.161   0.670   3.235  1.5649 -0.7270  1.6108
 7549SOL     OW23466   6.878   1.988   1.858 -0.8301 -0.4737  0.5250
 7549SOL    HW123467   6.812   2.047   1.904 -0.5222  0.2708  0.0325
 7549SOL    HW223468   6.862   1.893   1.884 -0.9227 -0.1119  1.8467
 7550SOL     OW23469   2.735   3.717   0.340 -0.7930 -0.1768  0.6160
 7550SOL    HW123470   2.757   3.626   0.304  1.6857 -0.0394  1.5784
 7550SOL    HW223471   2.785   3.732   0.425  1.1212  3.0875 -0.8927
 7551SOL     OW23472   2.808   6.783   5.516 -0.0141 -0.4918  0.2308
 7551SOL    HW123473   2.824   6.691   5.553 -0.6016 -0.3224  0.9154
 7551SOL    HW223474   2.883   6.843   5.543  0.5169 -0.8291 -0.4559
 7552SOL     OW23475   6.103   0.288   1.558 -0.2724  0.2780 -0.0642
 7552SOL    HW123476   6.133   0.196   1.531 -0.2342  0.5520 -0.9840
 7552SOL    HW223477   6.006   0.299   1.536 -0.0833  0.7268 -0.7085
 7553SOL     OW23478   4.806   6.809   4.851 -0.4479 -0.2032 -0.2157
 7553SOL    HW123479   4.874   6.762   4.796  1.1760  1.6958  0.0595
 7553SOL    HW223480   4.734   6.846   4.792  0.3100  0.2617 -0.8499
 7554SOL     OW23481   2.623   5.705   4.709  0.4267 -0.0403  0.4235
 7554SOL    HW123482   2.554   5.695   4.780  1.1308 -0.1015  1.1192
 7554SOL    HW223483   2.680   5.623   4.705 -0.6197 -0.7169 -1.3459
 7555SOL     OW23484   1.725   4.948   2.973  0.1454  0.3424 -0.3989
 7555SOL    HW123485   1.705   5.017   3.042 -0.3605 -0.4950  0.3144
 7555SOL    HW223486   1.640   4.902   2.947  0.7046 -1.2820  0.5222
 7556SOL     OW23487   0.820   5.875   0.865 -0.2523  0.0143  0.0141
 7556SOL    HW123488   0.820   5.973   0.842 -1.4480  0.3850  1.4523
 7556SOL    HW223489   0.725   5.842   0.871  0.1382 -1.3624 -0.8775
 7557SOL     OW23490   5.020   4.423   2.379  0.8723  0.4300  0.1422
 7557SOL    HW123491   5.070   4.366   2.445 -0.0355 -0.3221  0.1985
 7557SOL    HW223492   4.927   4.437   2.411  0.3148 -0.2335 -1.1362
 7558SOL     OW23493   1.778   1.550   0.318  0.3994  0.7263  0.0395
 7558SOL    HW123494   1.793   1.617   0.390  2.0458  1.5021 -0.9584
 7558SOL    HW223495   1.841   1.473   0.330 -0.3229  0.1583  0.2333
 7559SOL     OW23496   0.475   5.297   1.357 -0.3513  0.6263 -0.0011
 7559SOL    HW123497   0.566   5.284   1.317 -0.5642  0.4256 -0.4334
 7559SOL    HW223498   0.406   5.273   1.289 -0.7477  1.9795 -0.0914
 7560SOL     OW23499   4.668   6.832   6.345  0.1490  0.4860 -0.3320
 7560SOL    HW123500   4.604   6.873   6.410 -1.6262  1.4849 -2.5724
 7560SOL    HW223501   4.762   6.845   6.377 -0.6074  2.0126  1.3953
 7561SOL     OW23502   5.023   4.719   2.386  0.0430  0.0499 -0.3776
 7561SOL    HW123503   5.114   4.723   2.427  0.0361 -0.4870 -0.3032
 7561SOL    HW223504   5.003   4.625   2.358 -0.4570  0.1804 -0.4707
 7562SOL     OW23505   3.803   1.917   3.901  0.0526 -0.3626  1.1597
 7562SOL    HW123506   3.875   1.986   3.889 -0.2949 -0.4365 -2.4073
 7562SOL    HW223507   3.797   1.892   3.998  2.2749  2.3161  2.1360
 7563SOL     OW23508   0.762   2.774   6.402  0.8855  0.1344 -0.1817
 7563SOL    HW123509   0.698   2.766   6.325  1.4067 -0.8206 -0.5321
 7563SOL    HW223510   0.778   2.871   6.421  1.3821  0.4165 -1.8306
 7564SOL     OW23511   5.894   4.630   6.995  0.0845 -0.7041  0.3104
 7564SOL    HW123512   5.850   4.576   7.067 -0.4496 -2.2689 -1.1186
 7564SOL    HW223513   5.824   4.679   6.943  0.3165 -0.8025 -0.0986
 7565SOL     OW23514   3.736   3.858   6.145  0.3781 -0.1211 -0.4205
 7565SOL    HW123515   3.752   3.957   6.147 -0.9194  0.1028  1.2569
 7565SOL    HW223516   3.645   3.838   6.179  1.3865 -2.0260  1.4168
 7566SOL     OW23517   1.882   0.382   2.188  0.1131 -0.5886  0.2410
 7566SOL    HW123518   1.887   0.325   2.269  0.4387 -0.2938  0.4303
 7566SOL    HW223519   1.932   0.467   2.204  0.0523 -0.4651 -0.2140
 7567SOL     OW23520   6.814   1.956   5.328 -0.0554  0.2577 -0.9017
 7567SOL    HW123521   6.744   1.893   5.360  0.4302  0.3705  0.4984
 7567SOL    HW223522   6.772   2.034   5.283 -0.7392 -0.3237 -1.2825
 7568SOL     OW23523   1.864   6.604   2.299  0.0882  1.2350 -0.1292
 7568SOL    HW123524   1.853   6.528   2.364  2.3515  0.3620 -0.6739
 7568SOL    HW223525   1.827   6.688   2.339 -2.7268 -0.1281  0.3980
 7569SOL     OW23526   5.813   0.089   0.171 -0.1473 -0.2017 -0.6149
 7569SOL    HW123527   5.842   0.075   0.265  2.9595  3.4840 -0.8057
 7569SOL    HW223528   5.840   0.010   0.116 -0.7173 -1.7542  1.2205
 7570SOL     OW23529   2.750   0.348   3.517  0.5710  0.6898 -0.6916
 7570SOL    HW123530   2.789   0.440   3.518  2.8280 -0.1815 -1.6130
 7570SOL    HW223531   2.724   0.324   3.423  0.2428  0.2829 -0.4989
 7571SOL     OW23532   5.673   2.405   6.027  0.7516 -0.2133  0.2530
 7571SOL    HW123533   5.739   2.370   5.960  0.4845  2.1430 -1.3676
 7571SOL    HW223534   5.637   2.493   5.996 -2.0446 -0.6666  1.8410
 7572SOL     OW23535   2.282   6.217   0.557  0.3683 -0.2837  0.6922
 7572SOL    HW123536   2.227   6.188   0.635 -0.0442  0.0160  0.5175
 7572SOL    HW223537   2.346   6.144   0.532 -0.9002 -1.2162  0.0230
 7573SOL     OW23538   3.054   1.144   2.812 -0.0865  0.2080 -0.3980
 7573SOL    HW123539   3.078   1.238   2.788 -0.5721  0.3267 -0.4151
 7573SOL    HW223540   2.964   1.121   2.775 -1.1777  0.6108  1.8490
 7574SOL     OW23541   3.430   6.452   5.124 -0.8172  0.0750  0.4008
 7574SOL    HW123542   3.444   6.547   5.151  0.4697 -0.3415  1.2781
 7574SOL    HW223543   3.458   6.441   5.028 -1.3012  0.6387  0.1866
 7575SOL     OW23544   6.884   5.873   1.238 -0.0040  0.2817 -0.5441
 7575SOL    HW123545   6.870   5.915   1.327  1.2536  1.7318 -0.9820
 7575SOL    HW223546   6.801   5.826   1.209 -1.2362  1.8362  0.3361
 7576SOL     OW23547   3.745   6.761   0.860 -0.5046 -0.3510 -0.0840
 7576SOL    HW123548   3.766   6.746   0.956  0.8050 -0.3662 -0.3631
 7576SOL    HW223549   3.784   6.688   0.805  1.2998  1.1560 -0.9033
 7577SOL     OW23550   3.455   3.923   6.932  0.0857  0.1236 -0.2809
 7577SOL    HW123551   3.390   3.870   6.878 -0.2768  0.8737 -0.5970
 7577SOL    HW223552   3.478   3.873   7.016  1.0085 -1.2740 -1.3203
 7578SOL     OW23553   1.281   2.437   3.132 -0.0316 -0.5863 -0.0308
 7578SOL    HW123554   1.323   2.473   3.049  0.4123 -2.4465 -0.6384
 7578SOL    HW223555   1.226   2.510   3.174 -1.5571  0.0180 -2.7743
 7579SOL     OW23556   4.276   0.336   2.644 -0.0527 -0.0797  0.2928
 7579SOL    HW123557   4.251   0.297   2.733 -0.0634 -4.6803 -1.4824
 7579SOL    HW223558   4.375   0.337   2.635 -0.0589 -1.8682 -0.4018
 7580SOL     OW23559   0.371   4.272   5.439 -0.9327 -0.1658 -0.4111
 7580SOL    HW123560   0.392   4.310   5.529 -0.8375  0.1088 -0.5509
 7580SOL    HW223561   0.434   4.308   5.371 -0.0677 -1.4705 -0.3413
 7581SOL     OW23562   5.480   6.198   2.998  0.3760  0.3962  0.0455
 7581SOL    HW123563   5.410   6.186   2.927  1.7339 -1.5634 -1.0911
 7581SOL    HW223564   5.551   6.259   2.963  0.3075  0.6502  0.3463
 7582SOL     OW23565   2.880   4.481   5.536 -0.9048 -0.2338 -0.1102
 7582SOL    HW123566   2.825   4.456   5.616 -1.3494  0.5064 -0.1769
 7582SOL    HW223567   2.911   4.398   5.490 -0.5955 -0.6695  0.8619
 7583SOL     OW23568   5.016   6.567   1.079  0.2919 -0.3943 -0.1845
 7583SOL    HW123569   5.049   6.474   1.097 -0.5252 -0.8763 -1.0974
 7583SOL    HW223570   5.094   6.630   1.077  0.8951 -1.1182  0.0656
 7584SOL     OW23571   0.976   6.474   4.529 -0.0268  0.4398  0.4283
 7584SOL    HW123572   1.005   6.440   4.619 -0.1319  0.8508  0.6181
 7584SOL    HW223573   0.960   6.396   4.468  1.2338  0.1833  0.3945
 7585SOL     OW23574   2.804   2.332   0.476 -0.0291 -0.2828 -0.6509
 7585SOL    HW123575   2.837   2.274   0.550  0.0178  0.7048  0.1304
 7585SOL    HW223576   2.806   2.281   0.390 -0.4737 -1.5909  0.0840
 7586SOL     OW23577   6.621   3.155   1.280  0.3204  0.4112 -0.1529
 7586SOL    HW123578   6.562   3.134   1.202  0.2529 -0.9802  0.2324
 7586SOL    HW223579   6.591   3.102   1.359 -0.0889  2.3874  1.0600
 7587SOL     OW23580   3.078   0.428   4.512 -0.2378  0.1060 -0.4238
 7587SOL    HW123581   3.151   0.440   4.445  0.5502 -0.4549  0.3201
 7587SOL    HW223582   3.110   0.370   4.587 -0.9871  0.9688  0.6037
 7588SOL     OW23583   4.263   3.045   2.044  0.2781  0.1969  0.1546
 7588SOL    HW123584   4.260   3.057   1.945  0.3075  1.0706  0.2540
 7588SOL    HW223585   4.210   3.118   2.088 -0.0634 -0.4062  0.7664
 7589SOL     OW23586   0.671   6.139   5.504 -0.2296 -0.0760 -0.2960
 7589SOL    HW123587   0.731   6.117   5.427 -1.4409  0.9732 -1.6199
 7589SOL    HW223588   0.704   6.094   5.587  1.6330 -0.5279 -1.2285
 7590SOL     OW23589   1.611   5.117   0.985 -0.3681  0.4842 -0.4083
 7590SOL    HW123590   1.666   5.111   0.901  0.8134 -2.7207  0.4567
 7590SOL    HW223591   1.545   5.042   0.987 -0.0854  0.2311  1.6907
 7591SOL     OW23592   2.587   0.041   2.203 -0.3293 -0.1247  0.0519
 7591SOL    HW123593   2.662  -0.021   2.179  1.0056  1.3263  0.3370
 7591SOL    HW223594   2.624   0.130   2.229 -2.0411  0.0723  2.1117
 7592SOL     OW23595   4.878   2.042   3.326  0.1304  0.0874 -0.2720
 7592SOL    HW123596   4.833   2.020   3.239  0.5261  0.7287 -0.6450
 7592SOL    HW223597   4.809   2.048   3.398 -0.1017 -1.3235 -0.3588
 7593SOL     OW23598   6.647   3.363   0.987 -0.0094 -0.6189 -0.1962
 7593SOL    HW123599   6.718   3.350   1.057  0.0038  1.3292  0.2148
 7593SOL    HW223600   6.690   3.367   0.897  0.3385 -0.0638 -0.0099
 7594SOL     OW23601   6.467   5.786   2.846  0.2154 -0.0848  0.6705
 7594SOL    HW123602   6.414   5.730   2.911 -0.3316 -0.4604 -0.0874
 7594SOL    HW223603   6.564   5.767   2.857  0.2288  0.7141  2.1888
 7595SOL     OW23604   0.286   5.628   4.759 -0.0684  0.2955 -0.0315
 7595SOL    HW123605   0.215   5.569   4.720 -0.7894  1.3098 -0.3105
 7595SOL    HW223606   0.242   5.703   4.808  0.8344  0.0129  1.2284
 7596SOL     OW23607   5.168   4.147   1.072  0.6993 -0.0126 -0.2420
 7596SOL    HW123608   5.109   4.222   1.043  0.7811  0.5300  0.9349
 7596SOL    HW223609   5.255   4.184   1.106  0.7947 -0.6404  0.2198
 7597SOL     OW23610   4.297   1.141   3.499 -0.3560  0.4371 -0.0459
 7597SOL    HW123611   4.338   1.058   3.461 -0.8987  1.4927 -3.2677
 7597SOL    HW223612   4.366   1.213   3.502 -0.3573  0.4126  0.9604
 7598SOL     OW23613   6.424   2.815   6.526 -0.3852 -0.6660  0.2745
 7598SOL    HW123614   6.451   2.727   6.488 -0.3449 -0.3874 -0.3485
 7598SOL    HW223615   6.475   2.888   6.480 -3.0173  0.0176 -1.8239
 7599SOL     OW23616   2.624   6.809   6.463 -0.2891  0.4532  0.0185
 7599SOL    HW123617   2.574   6.739   6.412  0.7372 -1.8603  1.9725
 7599SOL    HW223618   2.717   6.816   6.426  0.5124 -1.3519  1.5042
 7600SOL     OW23619   1.758   5.015   6.614  0.1128  0.3274 -0.0231
 7600SOL    HW123620   1.699   5.054   6.685  1.5792  0.2311  1.3118
 7600SOL    HW223621   1.712   5.020   6.526 -2.4172 -0.9126  1.1258
 7601SOL     OW23622   1.879   3.259   2.291 -0.2392 -0.2837 -0.0987
 7601SOL    HW123623   1.963   3.265   2.345  0.0398 -1.5702 -0.3532
 7601SOL    HW223624   1.824   3.181   2.323 -1.2690  0.4537 -0.0322
 7602SOL     OW23625   1.899   6.126   6.295  0.0056  0.0870 -0.0133
 7602SOL    HW123626   1.939   6.095   6.381 -0.2096  0.7332  0.3241
 7602SOL    HW223627   1.807   6.162   6.312  0.2186  0.8320 -0.4083
 7603SOL     OW23628   3.802   0.718   2.445  0.5911  1.2903  0.3205
 7603SOL    HW123629   3.851   0.750   2.527 -0.1743  3.1020  0.1332
 7603SOL    HW223630   3.855   0.647   2.399  2.2636  2.0673  0.9841
 7604SOL     OW23631   4.306   3.516   6.515 -0.0676 -0.1712 -0.5585
 7604SOL    HW123632   4.221   3.568   6.504 -1.0700 -1.7657 -0.5361
 7604SOL    HW223633   4.335   3.480   6.426 -0.3235 -1.0101 -0.3066
 7605SOL     OW23634   3.521   3.148   4.361  0.1601 -0.4204  0.1965
 7605SOL    HW123635   3.588   3.074   4.374  0.7077  0.3259  1.7514
 7605SOL    HW223636   3.536   3.190   4.272  0.8548 -1.1657 -0.0558
 7606SOL     OW23637   0.449   0.160   1.689 -0.1563  0.4044 -0.2483
 7606SOL    HW123638   0.381   0.102   1.645  0.8051 -0.5081 -0.5460
 7606SOL    HW223639   0.506   0.105   1.750  1.1236  0.9261 -0.9555
 7607SOL     OW23640   1.755   0.584   3.462 -0.2401 -0.2373 -0.1152
 7607SOL    HW123641   1.770   0.501   3.516 -1.4888  0.6376  1.6629
 7607SOL    HW223642   1.704   0.560   3.379 -2.0117 -1.0808  1.1449
 7608SOL     OW23643   1.625   1.604   3.402 -0.6487 -0.6297  0.0392
 7608SOL    HW123644   1.527   1.610   3.422 -0.4757  0.6072  0.6102
 7608SOL    HW223645   1.675   1.661   3.467  0.2738  0.4333 -1.5673
 7609SOL     OW23646   4.262   2.424   3.562 -0.6840  0.0669  0.1560
 7609SOL    HW123647   4.210   2.358   3.615  0.1432  0.0995  1.0361
 7609SOL    HW223648   4.341   2.455   3.615  0.3884 -0.1757 -1.2318
 7610SOL     OW23649   1.416   0.606   5.614  0.2757  0.2741  0.1923
 7610SOL    HW123650   1.369   0.553   5.543  1.0193  1.3529 -1.1522
 7610SOL    HW223651   1.376   0.697   5.620  0.8068  0.4922  0.5266
 7611SOL     OW23652   2.117   0.558   2.871  0.1371  0.1513  0.2735
 7611SOL    HW123653   2.081   0.511   2.952 -0.7339  0.0045 -0.1923
 7611SOL    HW223654   2.098   0.656   2.878 -0.5177  0.0534 -0.0460
 7612SOL     OW23655   5.995   4.631   1.151  0.0292  0.1763 -0.4271
 7612SOL    HW123656   6.017   4.543   1.108 -0.8247 -0.0323 -0.4415
 7612SOL    HW223657   6.080   4.675   1.181  0.3326 -2.0491  2.4069
 7613SOL     OW23658   0.419   1.259   2.491 -0.3365 -0.2424  0.2329
 7613SOL    HW123659   0.334   1.205   2.491 -0.7386  0.2906  2.2977
 7613SOL    HW223660   0.496   1.200   2.512 -0.6672 -0.1934  1.6707
 7614SOL     OW23661   3.003   2.932   2.901  0.2497 -0.0193  0.1532
 7614SOL    HW123662   3.091   2.895   2.932  0.4082 -0.6110 -0.9271
 7614SOL    HW223663   2.958   2.865   2.842 -1.0554  0.1759  0.8754
 7615SOL     OW23664   3.065   4.855   3.308  0.2797 -0.0286  0.4632
 7615SOL    HW123665   3.094   4.941   3.351  1.5337  0.4185 -1.1484
 7615SOL    HW223666   2.971   4.834   3.336  0.1734  1.5160  1.4214
 7616SOL     OW23667   1.002   0.725   2.809 -0.4273 -0.2380 -0.2187
 7616SOL    HW123668   0.971   0.812   2.771 -0.1672  0.5038  1.1957
 7616SOL    HW223669   1.094   0.705   2.776  0.2873  1.0084  0.8957
 7617SOL     OW23670   5.422   6.210   5.547  0.4843  0.3044  0.4711
 7617SOL    HW123671   5.520   6.222   5.556  0.4018  0.4846  1.2201
 7617SOL    HW223672   5.402   6.142   5.477  1.2432 -1.9473  2.3316
 7618SOL     OW23673   0.479   0.929   6.003  0.3873 -0.7285  0.1979
 7618SOL    HW123674   0.395   0.975   6.031 -0.6770 -1.5174 -1.4822
 7618SOL    HW223675   0.500   0.855   6.067 -0.7727 -1.1343  0.1392
 7619SOL     OW23676   5.329   3.282   0.371  0.8295  0.1234  0.8028
 7619SOL    HW123677   5.391   3.245   0.302 -0.8522  1.1118 -1.3881
 7619SOL    HW223678   5.372   3.361   0.416  1.0705  1.0419 -0.9533
 7620SOL     OW23679   6.704   2.457   1.071  0.1715  0.1937 -0.4118
 7620SOL    HW123680   6.631   2.500   1.124  0.9447 -0.0844  0.9382
 7620SOL    HW223681   6.791   2.501   1.092  0.6718 -0.6781 -0.5782
 7621SOL     OW23682   3.160   0.498   6.022 -0.1072  0.2811 -0.1425
 7621SOL    HW123683   3.096   0.535   5.955 -1.2100 -0.6650  0.3481
 7621SOL    HW223684   3.222   0.570   6.052 -0.2050  0.9487 -1.4692
 7622SOL     OW23685   2.908   4.027   0.006 -0.3140 -0.4775 -0.3348
 7622SOL    HW123686   2.989   4.037   0.063  0.1819 -0.7802 -0.9721
 7622SOL    HW223687   2.875   4.118  -0.022 -0.7599 -0.3121  0.6896
 7623SOL     OW23688   2.948   5.694   6.078  0.3162  0.3078 -0.2461
 7623SOL    HW123689   2.940   5.630   6.002  0.9723  0.8398 -0.7718
 7623SOL    HW223690   3.002   5.773   6.050 -0.2598  0.9724  0.4776
 7624SOL     OW23691   2.429   2.010   2.751  0.1972  0.2874  0.3017
 7624SOL    HW123692   2.337   1.999   2.789  0.4818 -1.4441  0.5862
 7624SOL    HW223693   2.477   2.083   2.800 -0.9544  1.0770  0.2741
 7625SOL     OW23694   3.637   6.053   0.372  0.1790  0.8328 -0.0446
 7625SOL    HW123695   3.542   6.078   0.351 -0.5510 -0.9897  0.8419
 7625SOL    HW223696   3.696   6.081   0.296 -1.6850 -1.5077 -2.5804
 7626SOL     OW23697   2.442   5.736   1.530  0.3032  0.2925 -0.2781
 7626SOL    HW123698   2.445   5.791   1.613 -0.5396 -1.0681  0.6930
 7626SOL    HW223699   2.386   5.655   1.546  1.2017 -0.6592 -1.7843
 7627SOL     OW23700   2.190   6.309   0.270 -0.5639 -0.0655 -0.1041
 7627SOL    HW123701   2.241   6.244   0.326  1.2464  0.5934 -0.9067
 7627SOL    HW223702   2.215   6.298   0.174  0.9654  2.7044 -0.1300
 7628SOL     OW23703   4.195   2.112   4.483  0.9014  0.1361  0.2942
 7628SOL    HW123704   4.169   2.168   4.562 -0.7561  0.8726 -0.7350
 7628SOL    HW223705   4.229   2.023   4.515 -0.7084  0.0204  1.8075
 7629SOL     OW23706   6.469   6.306   0.896  0.5088  0.1749 -0.5917
 7629SOL    HW123707   6.457   6.265   0.987 -0.1928  2.8591  0.6215
 7629SOL    HW223708   6.408   6.260   0.831 -1.8238  0.5863  1.1608
 7630SOL     OW23709   1.193   6.501   5.440  0.3208  0.1196 -0.3468
 7630SOL    HW123710   1.135   6.459   5.371  0.6222  2.9095 -2.4612
 7630SOL    HW223711   1.147   6.499   5.529 -1.3279 -1.0469 -1.1924
 7631SOL     OW23712   3.758   5.912   3.213  0.4201  0.4644 -0.5073
 7631SOL    HW123713   3.802   5.898   3.124  0.2925 -0.4117 -0.4458
 7631SOL    HW223714   3.827   5.904   3.286  0.3338  0.0639 -0.4671
 7632SOL     OW23715   4.940   5.222   0.553  0.0590  0.3736  0.1442
 7632SOL    HW123716   4.876   5.251   0.625 -0.4601 -0.9341  0.2325
 7632SOL    HW223717   4.921   5.128   0.527  0.8015  0.5494 -1.1256
 7633SOL     OW23718   4.782   1.516   1.131 -0.4833 -0.1020 -0.1213
 7633SOL    HW123719   4.700   1.468   1.163 -1.8996  2.3214  0.1648
 7633SOL    HW223720   4.847   1.524   1.205 -1.9986  1.8914  1.0943
 7634SOL     OW23721   5.776   0.194   5.206  0.5482  0.6164 -0.6779
 7634SOL    HW123722   5.792   0.220   5.302 -0.8094  3.5723 -1.1648
 7634SOL    HW223723   5.736   0.102   5.204 -1.0430  1.1446  1.7467
 7635SOL     OW23724   3.880   5.543   0.852  0.3288 -0.5317 -0.5027
 7635SOL    HW123725   3.801   5.502   0.898  1.0944 -0.7970  0.6103
 7635SOL    HW223726   3.962   5.490   0.873  1.2514  1.1679  0.4644
 7636SOL     OW23727   6.459   2.768   0.017  0.5084  0.3069 -0.0166
 7636SOL    HW123728   6.546   2.819   0.020  0.0106  1.1287  0.9665
 7636SOL    HW223729   6.436   2.747  -0.078  1.3521  0.8318 -0.3474
 7637SOL     OW23730   5.870   2.827   0.715  0.4359  0.1022  0.2685
 7637SOL    HW123731   5.924   2.829   0.631 -0.3794  2.1898 -0.2707
 7637SOL    HW223732   5.929   2.846   0.793  0.8084  0.4556 -0.0943
 7638SOL     OW23733   6.898   1.573   4.586 -0.2716 -0.1511 -0.0226
 7638SOL    HW123734   6.965   1.636   4.546 -0.6958  1.2467  1.3624
 7638SOL    HW223735   6.841   1.535   4.513 -0.8437  2.0862 -0.8582
 7639SOL     OW23736   6.851   1.099   5.284 -0.6685  0.5771  0.4140
 7639SOL    HW123737   6.934   1.149   5.260 -0.1982 -0.4672 -0.1911
 7639SOL    HW223738   6.812   1.058   5.201 -1.1864  0.1616  0.8602
 7640SOL     OW23739   5.767   4.150   3.320 -0.4340 -0.7048 -0.5240
 7640SOL    HW123740   5.806   4.135   3.229 -0.8367 -2.5780 -0.4143
 7640SOL    HW223741   5.814   4.092   3.387 -1.6080 -0.9751  0.0882
 7641SOL     OW23742   1.994   0.245   6.933 -0.3877 -0.4974 -0.1501
 7641SOL    HW123743   2.028   0.241   6.839 -0.2678 -0.3516 -0.1120
 7641SOL    HW223744   1.922   0.176   6.945 -1.2050  0.2457 -0.6665
 7642SOL     OW23745   0.554   2.465   4.588 -0.2358 -0.2732 -0.1346
 7642SOL    HW123746   0.512   2.465   4.679  0.0565  0.9494  0.0225
 7642SOL    HW223747   0.645   2.507   4.594  0.7250 -2.1866 -0.5996
 7643SOL     OW23748   0.086   6.902   5.477 -0.2223 -0.2579  0.0501
 7643SOL    HW123749   0.131   6.943   5.556 -1.1671  0.9558 -0.0217
 7643SOL    HW223750   0.014   6.840   5.508 -0.2063 -0.2317  0.1406
 7644SOL     OW23751   6.052   1.971   2.560  0.0091 -0.2769 -0.2048
 7644SOL    HW123752   6.002   2.048   2.520 -0.1797  0.4171  1.2913
 7644SOL    HW223753   6.150   1.980   2.539  0.0655  0.6801  0.3885
 7645SOL     OW23754   6.710   6.770   4.740 -0.2340 -0.3183  0.3606
 7645SOL    HW123755   6.651   6.724   4.806  2.8762 -1.4110  2.6364
 7645SOL    HW223756   6.768   6.703   4.694  1.0332  0.8675  0.1638
 7646SOL     OW23757   4.814   0.519   2.888  0.0333  0.5576  1.1160
 7646SOL    HW123758   4.729   0.498   2.839 -0.4922 -1.1451  2.6387
 7646SOL    HW223759   4.891   0.479   2.839 -0.1951  0.9167  0.4487
 7647SOL     OW23760   5.018   1.203   1.390  0.3157  0.4686  0.2181
 7647SOL    HW123761   5.082   1.149   1.335 -0.4617 -1.1766  0.8750
 7647SOL    HW223762   4.980   1.276   1.333  1.5061  0.4435 -0.6555
 7648SOL     OW23763   4.117   1.489   0.276 -0.0699  0.1867  0.0242
 7648SOL    HW123764   4.076   1.440   0.353 -0.0040  3.3890  2.2684
 7648SOL    HW223765   4.056   1.563   0.247  2.1532  2.4312  0.6810
 7649SOL     OW23766   3.584   1.378   4.235 -0.4951 -0.1365 -0.2271
 7649SOL    HW123767   3.536   1.345   4.154  1.3067 -0.6305 -1.1481
 7649SOL    HW223768   3.551   1.330   4.316 -0.7517 -1.2772 -0.9883
 7650SOL     OW23769   1.619   0.290   2.180  0.6527 -0.7283  0.0371
 7650SOL    HW123770   1.686   0.350   2.223  0.8576 -0.1885 -0.9900
 7650SOL    HW223771   1.662   0.204   2.153  0.3699 -1.3405  1.4722
 7651SOL     OW23772   6.099   2.816   0.243 -0.4986 -0.3579  0.1490
 7651SOL    HW123773   6.155   2.896   0.224 -1.8024  1.0285  1.7612
 7651SOL    HW223774   6.152   2.732   0.228  1.5365  0.8453  0.3825
 7652SOL     OW23775   2.586   1.765   1.192 -0.3253 -0.5703  0.6471
 7652SOL    HW123776   2.546   1.698   1.129  0.1014 -0.6926  0.5012
 7652SOL    HW223777   2.561   1.857   1.163 -1.2435 -0.6657  1.0709
 7653SOL     OW23778   3.437   1.755   4.749  0.8607 -0.6208  0.1889
 7653SOL    HW123779   3.502   1.829   4.730 -0.7717  0.7537 -0.3674
 7653SOL    HW223780   3.432   1.693   4.671  0.5312  0.0537 -0.3369
 7654SOL     OW23781   6.791   3.838   2.969  0.6282 -0.4649 -0.7061
 7654SOL    HW123782   6.887   3.857   2.948  0.7754  0.2491  0.5814
 7654SOL    HW223783   6.743   3.923   2.989  0.4746 -1.0536  1.6818
 7655SOL     OW23784   4.221   3.900   6.349 -0.7266  0.3899 -0.1925
 7655SOL    HW123785   4.308   3.948   6.359 -0.9179  0.9967 -1.3581
 7655SOL    HW223786   4.165   3.945   6.280 -0.7256 -1.7829 -1.6913
 7656SOL     OW23787   1.929   5.919   5.390 -0.2758 -0.1633  0.0450
 7656SOL    HW123788   1.837   5.883   5.403 -0.0657 -0.1337  1.9772
 7656SOL    HW223789   1.926   6.019   5.384 -0.2651  0.0211  2.1368
 7657SOL     OW23790   2.707   1.278   0.738 -0.3960 -0.2005  0.0801
 7657SOL    HW123791   2.779   1.236   0.794  0.4618 -0.6326 -1.2878
 7657SOL    HW223792   2.624   1.223   0.746 -0.4107 -0.0333  1.2211
 7658SOL     OW23793   0.207   0.043   2.266 -0.5517  0.1131  0.0962
 7658SOL    HW123794   0.157  -0.014   2.332  0.3859 -1.0794 -0.1968
 7658SOL    HW223795   0.196   0.006   2.174  0.5693  0.0306 -0.0228
 7659SOL     OW23796   3.810   5.552   0.165  0.0611 -0.0749  0.1514
 7659SOL    HW123797   3.765   5.618   0.225  0.2681  0.2620 -0.0609
 7659SOL    HW223798   3.838   5.598   0.081  1.1433 -0.1878  0.4401
 7660SOL     OW23799   2.728   0.290   4.526  0.2902 -0.6303  0.2478
 7660SOL    HW123800   2.748   0.209   4.580 -0.1539 -1.1634 -0.3796
 7660SOL    HW223801   2.773   0.369   4.567  1.4147 -1.3300  0.3916
 7661SOL     OW23802   3.726   5.957   6.431  0.2505 -0.0072 -0.6155
 7661SOL    HW123803   3.794   5.917   6.493 -2.2781 -2.7749  0.6440
 7661SOL    HW223804   3.663   6.015   6.484 -0.6215 -0.6154 -0.9537
 7662SOL     OW23805   5.678   5.038   6.644 -0.4512 -0.1427 -0.5291
 7662SOL    HW123806   5.582   5.043   6.614 -0.5596  0.6761 -0.0874
 7662SOL    HW223807   5.681   5.028   6.743 -0.0854 -1.7646 -0.6866
 7663SOL     OW23808   5.887   4.465   4.883  0.4728  0.3514 -0.3211
 7663SOL    HW123809   5.916   4.462   4.787 -0.4364  0.2546 -0.6023
 7663SOL    HW223810   5.866   4.559   4.908 -1.3924  0.1256 -0.8856
 7664SOL     OW23811   4.431   5.382   6.189 -0.2034 -0.3672 -0.1416
 7664SOL    HW123812   4.456   5.465   6.139  1.1397 -0.3439  0.5465
 7664SOL    HW223813   4.467   5.302   6.141  0.9793 -0.3531  0.6932
 7665SOL     OW23814   2.502   3.474   6.172  0.1118  0.1784  0.1913
 7665SOL    HW123815   2.433   3.515   6.113  1.1763  1.7967  0.0207
 7665SOL    HW223816   2.485   3.375   6.179 -1.3278  0.3042 -1.0138
 7666SOL     OW23817   0.137   5.494   0.427 -0.2419 -0.6220  0.1849
 7666SOL    HW123818   0.194   5.553   0.484  0.3071  0.1190 -1.0858
 7666SOL    HW223819   0.042   5.523   0.433 -0.1195 -0.2551  0.3573
 7667SOL     OW23820   3.742   2.644   0.828  0.1727  0.4572 -0.3250
 7667SOL    HW123821   3.698   2.665   0.741 -0.0429 -1.3251 -0.6863
 7667SOL    HW223822   3.675   2.649   0.901 -0.2164 -0.4077 -0.6125
 7668SOL     OW23823   2.908   6.713   4.218 -0.2647  0.1730  0.0303
 7668SOL    HW123824   2.817   6.731   4.255 -0.6909 -2.1868  0.2461
 7668SOL    HW223825   2.906   6.631   4.162  1.4426  0.9317 -1.2214
 7669SOL     OW23826   0.169   0.202   1.984  0.2407  0.5731  0.3585
 7669SOL    HW123827   0.117   0.209   2.069 -1.0567  0.8415 -0.4261
 7669SOL    HW223828   0.158   0.286   1.931 -0.3580 -0.2153 -0.8283
 7670SOL     OW23829   0.055   6.058   4.869  0.3353 -0.5647 -0.1870
 7670SOL    HW123830   0.123   6.085   4.937 -0.2635 -1.0868  0.6367
 7670SOL    HW223831  -0.014   6.130   4.861 -0.6009 -1.2699  1.1299
 7671SOL     OW23832   1.437   5.082   3.122  0.9319 -0.0927  0.0260
 7671SOL    HW123833   1.499   5.155   3.093  0.7841 -0.4949 -1.3527
 7671SOL    HW223834   1.460   4.998   3.073 -0.0646 -0.5005  0.2530
 7672SOL     OW23835   5.444   3.512   4.263 -0.1184  0.3985  0.3289
 7672SOL    HW123836   5.484   3.421   4.254  2.0160  1.1599  1.3517
 7672SOL    HW223837   5.412   3.543   4.174  2.5437  0.0858 -0.8238
 7673SOL     OW23838   6.591   0.722   4.090  0.4692  0.3129  0.0941
 7673SOL    HW123839   6.504   0.729   4.138 -0.8590  4.4122 -2.4503
 7673SOL    HW223840   6.578   0.673   4.004  1.1144 -0.4759  0.4287
 7674SOL     OW23841   6.833   5.134   3.211  0.0520  1.0383 -0.6366
 7674SOL    HW123842   6.855   5.067   3.140 -0.0080  1.4277 -1.0216
 7674SOL    HW223843   6.913   5.192   3.228 -0.8008  2.8809 -2.4915
 7675SOL     OW23844   2.234   6.272   0.001 -0.2558  0.1985  0.4621
 7675SOL    HW123845   2.205   6.312  -0.086  0.6387  2.1752  1.0125
 7675SOL    HW223846   2.219   6.173  -0.001 -0.9865  0.3023 -1.6248
 7676SOL     OW23847   0.441   6.255   0.271 -0.1930 -0.2582  0.0360
 7676SOL    HW123848   0.413   6.276   0.364 -0.8888 -0.9030 -0.0164
 7676SOL    HW223849   0.372   6.289   0.207 -1.1578 -2.2669 -0.0681
 7677SOL     OW23850   0.411   4.212   0.979 -0.0455  0.2025  0.3143
 7677SOL    HW123851   0.485   4.260   1.026  1.7845 -0.9981 -1.1369
 7677SOL    HW223852   0.328   4.215   1.034  0.4384  3.4544  1.0473
 7678SOL     OW23853   4.884   5.495   5.067 -0.2893  0.2746  0.0524
 7678SOL    HW123854   4.951   5.524   5.135  0.1308  1.2944 -0.7598
 7678SOL    HW223855   4.921   5.418   5.014 -0.4203 -0.2005  0.6416
 7679SOL     OW23856   5.084   5.258   2.470  0.1197 -0.4395  0.0367
 7679SOL    HW123857   5.044   5.350   2.474  0.2950 -0.3964  1.2781
 7679SOL    HW223858   5.016   5.194   2.433  0.1692  0.2662 -1.3229
 7680SOL     OW23859   3.695   3.915   0.358  0.2648  0.5810 -0.2200
 7680SOL    HW123860   3.652   3.860   0.287 -0.9695  1.3727 -0.1303
 7680SOL    HW223861   3.676   3.876   0.448  0.4379  0.4732 -0.2307
 7681SOL     OW23862   6.664   0.314   5.283  0.4070  0.0106  0.2721
 7681SOL    HW123863   6.627   0.267   5.363  0.2758 -0.4259 -0.0413
 7681SOL    HW223864   6.597   0.379   5.248 -0.3424 -1.2577 -0.6943
 7682SOL     OW23865   0.151   2.501   4.821  0.4705 -0.0955 -0.0320
 7682SOL    HW123866   0.062   2.546   4.823  0.4848 -0.0855  0.9452
 7682SOL    HW223867   0.194   2.514   4.732  0.1466  1.1749 -0.0130
 7683SOL     OW23868   4.000   5.027   0.184 -0.4025  0.2151 -0.2667
 7683SOL    HW123869   4.021   4.933   0.213  0.5969  0.1084 -1.2732
 7683SOL    HW223870   4.063   5.090   0.229 -1.2752  0.4528  0.6508
 7684SOL     OW23871   5.164   4.318   5.584  0.5550  0.0280  0.2964
 7684SOL    HW123872   5.190   4.331   5.679 -3.8858 -0.8654  1.8595
 7684SOL    HW223873   5.109   4.395   5.553 -0.2766 -0.9079 -0.6375
 7685SOL     OW23874   1.959   4.493   3.375  0.4052 -0.0034  0.5193
 7685SOL    HW123875   1.893   4.441   3.429  1.4849 -0.6630  1.2418
 7685SOL    HW223876   2.049   4.451   3.383  0.6307 -0.0561 -1.7260
 7686SOL     OW23877   1.263   2.188   0.943 -0.4254 -0.4054 -0.2537
 7686SOL    HW123878   1.231   2.094   0.950 -0.2434 -0.5011 -0.7096
 7686SOL    HW223879   1.260   2.218   0.848 -0.5844  0.0869 -0.1028
 7687SOL     OW23880   1.802   3.500   6.945  0.8177 -0.0514  0.5902
 7687SOL    HW123881   1.834   3.423   7.001 -1.2079 -1.0411  0.4702
 7687SOL    HW223882   1.875   3.568   6.937  2.0528 -1.1134  2.2099
 7688SOL     OW23883   1.433   1.929   2.769  0.5935 -0.1257  0.0804
 7688SOL    HW123884   1.489   2.008   2.793  1.0435  0.3432 -2.2114
 7688SOL    HW223885   1.470   1.847   2.812  1.2667  0.6128  0.9490
 7689SOL     OW23886   5.595   3.001   2.291  0.0856 -0.3548 -0.3761
 7689SOL    HW123887   5.676   3.056   2.312  0.7912 -1.0161 -1.3016
 7689SOL    HW223888   5.596   2.975   2.195  0.0621 -2.4310  0.1255
 7690SOL     OW23889   1.013   3.119   2.285 -0.4139 -0.2785 -0.7542
 7690SOL    HW123890   0.917   3.146   2.284 -0.0288  1.9838  3.2776
 7690SOL    HW223891   1.067   3.185   2.233 -0.7742 -0.4060 -1.3034
 7691SOL     OW23892   3.874   3.962   0.047  0.3461  0.2484 -0.2585
 7691SOL    HW123893   3.823   3.975  -0.038  0.3513 -0.4170 -0.3687
 7691SOL    HW223894   3.971   3.952   0.027  0.4181  0.6701 -0.1229
 7692SOL     OW23895   0.189   1.827   1.955  0.0663 -0.1205 -0.0378
 7692SOL    HW123896   0.132   1.748   1.937  0.1897 -0.3150  0.4180
 7692SOL    HW223897   0.178   1.894   1.881 -0.3921 -0.3553 -0.1818
 7693SOL     OW23898   2.599   5.035   5.286  0.3909  0.6791  0.0651
 7693SOL    HW123899   2.601   5.135   5.293  1.9738  0.7339 -0.6183
 7693SOL    HW223900   2.648   5.007   5.203  0.4737 -0.6786  0.5505
 7694SOL     OW23901   2.561   5.335   1.193 -0.4644 -0.2604  0.2882
 7694SOL    HW123902   2.605   5.300   1.275 -2.2716 -0.3733  1.2709
 7694SOL    HW223903   2.565   5.435   1.193  1.4053 -0.3025 -0.6105
 7695SOL     OW23904   2.180   5.137   3.296 -0.3800 -0.1920  0.5338
 7695SOL    HW123905   2.271   5.163   3.262 -1.3309  1.6656 -0.7514
 7695SOL    HW223906   2.164   5.040   3.276  1.8283 -0.9852  2.1036
 7696SOL     OW23907   4.105   6.275   3.580 -0.4716 -0.1962  0.0685
 7696SOL    HW123908   4.120   6.177   3.584  0.5156 -0.0632 -0.1555
 7696SOL    HW223909   4.064   6.306   3.666  0.6460 -0.5870  0.7642
 7697SOL     OW23910   6.714   0.671   3.600  0.7032  0.9403 -0.4961
 7697SOL    HW123911   6.680   0.736   3.668  2.9013  0.2121  1.4303
 7697SOL    HW223912   6.646   0.599   3.586  0.9107  0.0353  2.4901
 7698SOL     OW23913   6.425   1.944   5.956 -0.4787  0.5829 -0.5575
 7698SOL    HW123914   6.494   1.871   5.958 -1.2437 -0.1469  0.1632
 7698SOL    HW223915   6.459   2.025   6.003  0.4337  0.7571 -1.4783
 7699SOL     OW23916   5.836   2.856   0.260  0.3217 -0.7827  0.1134
 7699SOL    HW123917   5.799   2.863   0.168 -0.4977 -3.5445  0.1582
 7699SOL    HW223918   5.934   2.837   0.255  0.7319  1.2049 -0.0983
 7700SOL     OW23919   0.733   0.867   1.724 -0.6863  0.0408 -0.1104
 7700SOL    HW123920   0.647   0.824   1.749  0.1415 -0.3415  2.4727
 7700SOL    HW223921   0.800   0.851   1.797  1.8380 -0.3761 -2.3749
 7701SOL     OW23922   0.335   6.304   0.572  0.1663 -0.5004  0.3506
 7701SOL    HW123923   0.296   6.352   0.651 -0.1066 -0.9637  0.4983
 7701SOL    HW223924   0.428   6.274   0.594 -0.3260 -1.6670  0.9341
 7702SOL     OW23925   4.437   3.235   5.310  0.0050  0.1589 -0.2774
 7702SOL    HW123926   4.491   3.283   5.380  0.0961  1.8430 -1.4202
 7702SOL    HW223927   4.498   3.177   5.255 -0.2588 -2.1800  1.7485
 7703SOL     OW23928   5.186   4.192   0.072  0.3425  0.1488 -0.4349
 7703SOL    HW123929   5.090   4.175   0.092  0.0977  1.0451 -0.8283
 7703SOL    HW223930   5.241   4.119   0.112 -0.4937 -0.3566 -0.1800
 7704SOL     OW23931   1.150   0.155   2.555  0.2766  0.0716  0.3735
 7704SOL    HW123932   1.193   0.231   2.507 -0.4966  0.3550  0.1197
 7704SOL    HW223933   1.220   0.101   2.601  1.0811 -0.5428 -1.5264
 7705SOL     OW23934   1.335   4.446   6.149  0.0880  0.2185 -0.0376
 7705SOL    HW123935   1.354   4.516   6.081  1.0726  1.3131  1.3149
 7705SOL    HW223936   1.379   4.470   6.235 -1.6860 -0.7666  1.2102
 7706SOL     OW23937   4.910   2.379   4.639  0.0537  0.3944 -0.1337
 7706SOL    HW123938   4.862   2.307   4.589 -1.0220  1.1978 -0.2804
 7706SOL    HW223939   4.853   2.411   4.714  1.4426 -0.4339  1.3199
 7707SOL     OW23940   1.597   1.691   2.873 -0.4771  0.4692  0.0041
 7707SOL    HW123941   1.617   1.728   2.964 -0.5280 -0.6036  0.4662
 7707SOL    HW223942   1.580   1.593   2.880  0.1240  0.2539 -1.2549
 7708SOL     OW23943   3.253   5.369   4.001 -0.1486 -1.0809  0.6447
 7708SOL    HW123944   3.233   5.293   4.062  0.1435  1.0031  3.5183
 7708SOL    HW223945   3.224   5.455   4.043 -0.5429  0.4868 -2.4872
 7709SOL     OW23946   4.191   4.526   2.995  0.1765 -0.0309  0.3387
 7709SOL    HW123947   4.287   4.522   2.965  0.1908  0.1199  0.3622
 7709SOL    HW223948   4.155   4.433   3.005 -0.4774 -0.1280 -2.2455
 7710SOL     OW23949   6.473   5.927   2.357  0.2189  0.1242 -0.5580
 7710SOL    HW123950   6.513   5.859   2.295  0.8545 -0.2677  0.2691
 7710SOL    HW223951   6.375   5.908   2.368  0.1767 -0.0292 -1.1360
 7711SOL     OW23952   5.870   3.437   0.313  0.5712 -0.3927 -0.2266
 7711SOL    HW123953   5.818   3.446   0.398  0.2554 -0.8514 -0.3682
 7711SOL    HW223954   5.945   3.504   0.312 -2.5434  3.5061 -1.8943
 7712SOL     OW23955   4.757   5.370   2.608 -0.3586  0.4434  0.3331
 7712SOL    HW123956   4.714   5.447   2.560  1.1850  1.1278 -0.0342
 7712SOL    HW223957   4.760   5.291   2.548  0.4892  0.9349 -0.2940
 7713SOL     OW23958   6.915   1.135   4.001 -0.2456 -0.5889 -0.3837
 7713SOL    HW123959   6.993   1.113   3.943 -0.3259 -0.7320 -0.4384
 7713SOL    HW223960   6.879   1.051   4.042  0.1877 -0.4270  0.3571
 7714SOL     OW23961   0.899   1.664   2.317  0.2042 -0.4202 -0.4068
 7714SOL    HW123962   0.831   1.664   2.243 -1.0812 -1.1461  0.7388
 7714SOL    HW223963   0.853   1.664   2.405  1.7024  1.8422  0.4716
 7715SOL     OW23964   6.261   2.071   3.278  0.5433  0.1180 -0.2765
 7715SOL    HW123965   6.338   2.129   3.254  1.4423 -1.5702 -1.7025
 7715SOL    HW223966   6.201   2.061   3.199 -0.4804  0.4019  0.4435
 7716SOL     OW23967   1.109   5.166   0.284  0.1450 -0.3439 -0.3342
 7716SOL    HW123968   1.038   5.235   0.299  0.7641  0.3923 -0.7003
 7716SOL    HW223969   1.071   5.090   0.232 -0.5486 -0.2828  0.0685
 7717SOL     OW23970   4.961   4.175   5.306 -0.5464  0.1140  0.4068
 7717SOL    HW123971   4.998   4.263   5.276 -0.1348 -0.4928 -0.9373
 7717SOL    HW223972   5.031   4.126   5.358 -0.8897  0.7011  1.4551
 7718SOL     OW23973   4.831   1.435   6.524  0.6372 -0.9713  0.1817
 7718SOL    HW123974   4.909   1.489   6.557  0.4124 -0.6644  0.2201
 7718SOL    HW223975   4.777   1.402   6.602 -0.5494  0.7239  0.1358
 7719SOL     OW23976   0.175   4.638   6.284 -0.1302  0.1611 -0.3087
 7719SOL    HW123977   0.097   4.654   6.223 -1.3692  0.2005  1.2308
 7719SOL    HW223978   0.143   4.629   6.378  1.7480  0.2474  0.3871
 7720SOL     OW23979   3.617   3.518   5.246  0.4394  0.2709  0.2839
 7720SOL    HW123980   3.597   3.556   5.336  3.5492  1.4176  0.6150
 7720SOL    HW223981   3.655   3.426   5.256  0.7312  0.3750  0.1552
 7721SOL     OW23982   2.333   0.949   0.254  0.3185 -0.4508 -0.1480
 7721SOL    HW123983   2.305   0.857   0.228 -1.6287 -0.5020  1.7985
 7721SOL    HW223984   2.270   1.015   0.214 -0.5106 -0.2820  1.3592
 7722SOL     OW23985   4.612   1.477   1.401  0.2516  0.4784 -0.1478
 7722SOL    HW123986   4.558   1.532   1.337 -0.9550  0.9636  1.2362
 7722SOL    HW223987   4.646   1.396   1.354 -0.0161  1.1665 -1.5771
 7723SOL     OW23988   2.870   5.660   0.112 -0.2021 -0.1025 -0.0107
 7723SOL    HW123989   2.966   5.632   0.124 -0.9235 -1.8877  2.3307
 7723SOL    HW223990   2.856   5.749   0.154  0.3061 -0.0625  0.0868
 7724SOL     OW23991   2.069   6.379   1.523 -0.4684  0.4225  0.1455
 7724SOL    HW123992   2.069   6.479   1.518  1.1650  0.4825  0.7365
 7724SOL    HW223993   2.155   6.343   1.486  0.4312 -0.5271  2.8795
 7725SOL     OW23994   3.645   4.533   6.980  0.3205 -0.1526 -0.4127
 7725SOL    HW123995   3.615   4.519   7.074  0.8565  1.8909  0.1138
 7725SOL    HW223996   3.689   4.450   6.946  1.3110 -0.5151  1.6074
 7726SOL     OW23997   0.624   0.533   6.865  0.5910  0.5960  0.0345
 7726SOL    HW123998   0.665   0.474   6.796  0.6531 -0.8520  1.2533
 7726SOL    HW223999   0.530   0.504   6.883  1.0411 -0.0367  1.5897
 7727SOL     OW24000   1.724   2.943   5.435  0.1668  0.1095 -0.4925
 7727SOL    HW124001   1.637   2.895   5.445  0.2860  0.3135  2.4586
 7727SOL    HW224002   1.713   3.020   5.371 -2.2559  1.0099  0.8669
 7728SOL     OW24003   6.912   3.262   2.343  0.0284  0.0391 -0.1135
 7728SOL    HW124004   6.827   3.292   2.300 -0.0653  0.1247  0.1276
 7728SOL    HW224005   6.949   3.336   2.400  0.9889  0.4929 -1.2793
 7729SOL     OW24006   4.134   1.653   3.002  0.5345  0.1092 -0.0690
 7729SOL    HW124007   4.091   1.729   2.952  1.1290 -1.3417 -3.0216
 7729SOL    HW224008   4.067   1.611   3.063  0.0346  2.5725  1.1918
 7730SOL     OW24009   3.862   5.229   5.311  0.4410 -0.1581  0.6711
 7730SOL    HW124010   3.777   5.212   5.262 -0.2662  3.1668  0.5258
 7730SOL    HW224011   3.939   5.210   5.250 -0.2931 -0.1237 -0.3035
 7731SOL     OW24012   4.257   0.174   4.594  0.3659  0.1847 -0.2646
 7731SOL    HW124013   4.172   0.146   4.549  0.7724  1.1653 -1.6842
 7731SOL    HW224014   4.244   0.263   4.638 -0.3497 -1.2197  2.5853
 7732SOL     OW24015   5.138   5.464   1.736  0.0256  0.3233 -0.3367
 7732SOL    HW124016   5.044   5.498   1.738 -0.5642 -1.2622  0.1750
 7732SOL    HW224017   5.189   5.504   1.812 -1.4075 -1.8542  1.9415
 7733SOL     OW24018   2.170   4.184   0.500 -0.9014  0.0684 -0.5363
 7733SOL    HW124019   2.138   4.113   0.436  1.3109  0.7910 -2.5952
 7733SOL    HW224020   2.169   4.273   0.454  1.1330  0.5671  0.2712
 7734SOL     OW24021   3.136   0.687   4.733  0.4822  0.0351  0.1724
 7734SOL    HW124022   3.152   0.784   4.718  1.3086  0.0410  0.9672
 7734SOL    HW224023   3.111   0.643   4.647  0.1640  0.9402 -0.1974
 7735SOL     OW24024   1.063   5.327   0.605 -0.3813  0.2138 -0.6453
 7735SOL    HW124025   1.096   5.374   0.524  0.0716 -0.4126 -0.8327
 7735SOL    HW224026   1.133   5.328   0.676 -0.4158 -0.0751 -0.6062
 7736SOL     OW24027   2.287   0.997   4.699  0.1560  0.2127  0.5468
 7736SOL    HW124028   2.366   1.058   4.697  0.0185  0.4471  1.6750
 7736SOL    HW224029   2.204   1.050   4.682  0.3357 -0.2867 -2.3273
 7737SOL     OW24030   0.098   0.188   4.525 -0.1060  0.5374  0.6802
 7737SOL    HW124031   0.020   0.212   4.467  0.4658  0.5324 -0.1077
 7737SOL    HW224032   0.065   0.162   4.616 -1.1033 -0.5477  0.0385
 7738SOL     OW24033   0.756   6.450   3.343  0.0767 -1.0005 -0.3759
 7738SOL    HW124034   0.761   6.442   3.244  0.2540  1.6948 -0.6544
 7738SOL    HW224035   0.666   6.418   3.374 -0.6792 -0.1984 -1.6496
 7739SOL     OW24036   4.849   4.344   1.053 -0.0844  0.2172 -0.1392
 7739SOL    HW124037   4.766   4.381   1.011 -0.3513 -0.3153 -0.0926
 7739SOL    HW224038   4.923   4.411   1.045 -0.3841  0.5005 -0.6168
 7740SOL     OW24039   5.533   3.534   4.947 -0.0067 -0.3158 -0.0921
 7740SOL    HW124040   5.631   3.535   4.930  0.1215 -0.7636  0.5743
 7740SOL    HW224041   5.494   3.624   4.928  0.2142 -0.5983 -2.1107
 7741SOL     OW24042   6.425   5.814   1.054  0.1077 -0.2658 -0.2687
 7741SOL    HW124043   6.372   5.881   1.003  0.0383 -0.9725 -1.1529
 7741SOL    HW224044   6.483   5.762   0.991  0.3261 -0.8747  0.4219
 7742SOL     OW24045   1.111   4.150   0.507  0.1925  0.2907 -0.2002
 7742SOL    HW124046   1.073   4.071   0.556 -1.8631  1.7340  0.6280
 7742SOL    HW224047   1.194   4.181   0.554  0.2343 -0.5120  0.2826
 7743SOL     OW24048   6.146   5.936   5.978  0.6058  0.2717  1.1054
 7743SOL    HW124049   6.229   5.942   5.922  0.3668  0.4768  0.7656
 7743SOL    HW224050   6.082   6.008   5.950  0.5198  0.4302  1.7117
 7744SOL     OW24051   1.043   5.022   5.271  0.1565  0.3845 -0.2268
 7744SOL    HW124052   1.020   4.936   5.225  0.5580  0.6456 -0.9251
 7744SOL    HW224053   1.055   5.094   5.203  1.3012  0.6562  0.2454
 7745SOL     OW24054   3.976   2.596   0.018  0.4956 -0.1683 -0.0594
 7745SOL    HW124055   4.011   2.514  -0.028 -0.0602 -0.1936 -0.4502
 7745SOL    HW224056   4.050   2.662   0.028  0.5226  0.0539 -1.4911
 7746SOL     OW24057   3.106   1.106   5.998 -0.4738  0.0013  0.4374
 7746SOL    HW124058   3.060   1.166   5.933 -0.1920 -1.3602 -1.0886
 7746SOL    HW224059   3.202   1.132   6.006 -0.6026  0.4305  0.6697
 7747SOL     OW24060   0.125   5.854   0.148  0.0964  0.2616 -0.2176
 7747SOL    HW124061   0.212   5.904   0.154  0.7387 -1.0076  1.8587
 7747SOL    HW224062   0.096   5.851   0.052  4.0765 -2.0539 -1.6064
 7748SOL     OW24063   6.394   4.214   6.714 -1.1853  0.5742  0.5940
 7748SOL    HW124064   6.385   4.254   6.805 -0.8638  1.8562  0.0827
 7748SOL    HW224065   6.306   4.176   6.685 -1.1778 -0.2723  1.6120
 7749SOL     OW24066   0.067   1.463   3.686 -0.1661  0.1925  0.3353
 7749SOL    HW124067   0.102   1.467   3.780  0.6325  0.3776  0.0306
 7749SOL    HW224068  -0.033   1.465   3.689 -0.1688 -0.4288  1.2178
 7750SOL     OW24069   4.479   1.849   3.287  0.4964  0.1268  0.4667
 7750SOL    HW124070   4.462   1.926   3.348  0.1750 -0.4272  1.0853
 7750SOL    HW224071   4.534   1.780   3.334 -0.8217 -0.8762  0.5716
 7751SOL     OW24072   3.442   5.526   0.257  0.1329  0.3035 -0.5642
 7751SOL    HW124073   3.365   5.585   0.283 -1.2722 -0.9361 -1.7062
 7751SOL    HW224074   3.407   5.438   0.225  2.1849 -1.4169  1.5899
 7752SOL     OW24075   3.938   4.135   0.324 -0.6785  0.4559 -0.2711
 7752SOL    HW124076   4.025   4.089   0.341 -1.0201 -0.3357 -0.5878
 7752SOL    HW224077   3.864   4.067   0.325 -1.0202  0.7321 -2.3132
 7753SOL     OW24078   2.236   3.516   5.736  0.2453  0.0081  0.0967
 7753SOL    HW124079   2.199   3.431   5.774 -2.3347  1.6877  1.6266
 7753SOL    HW224080   2.207   3.593   5.793  2.1322  2.0075 -1.4816
 7754SOL     OW24081   2.862   0.992   4.195  0.4109  0.1345  0.0238
 7754SOL    HW124082   2.913   0.989   4.281 -0.7393  1.2297  0.7891
 7754SOL    HW224083   2.803   0.912   4.188  0.1858  0.2596  0.4744
 7755SOL     OW24084   0.932   0.218   0.833  0.5663  0.5441 -0.5525
 7755SOL    HW124085   0.996   0.197   0.907  1.6719  1.3991 -1.2396
 7755SOL    HW224086   0.928   0.141   0.770 -0.3260 -0.1591  0.3369
 7756SOL     OW24087   1.675   4.368   1.528  0.5051 -0.1630 -0.1862
 7756SOL    HW124088   1.626   4.453   1.509  1.0391  0.8932  2.7098
 7756SOL    HW224089   1.612   4.304   1.573  1.4569  1.1083  3.3197
 7757SOL     OW24090   2.899   3.634   4.379 -0.7610 -0.0979  0.1801
 7757SOL    HW124091   2.907   3.543   4.337  0.1844  0.0752 -0.0388
 7757SOL    HW224092   2.935   3.631   4.472 -3.1427 -0.5583  1.1704
 7758SOL     OW24093   4.902   1.003   6.080  0.0082 -0.1123  0.1231
 7758SOL    HW124094   4.977   1.030   6.141 -0.2204  1.1271 -0.1296
 7758SOL    HW224095   4.904   1.059   5.998  0.6595 -2.1242 -1.3427
 7759SOL     OW24096   1.987   6.056   6.037 -0.3519  0.1330  0.5545
 7759SOL    HW124097   1.999   6.138   5.981  0.9194  0.3257  1.0648
 7759SOL    HW224098   1.930   6.078   6.116 -3.0727 -0.4059 -1.1312
 7760SOL     OW24099   0.987   3.910   6.783  0.7444  0.1141 -0.2818
 7760SOL    HW124100   1.084   3.899   6.759  1.3388  2.5649  0.6479
 7760SOL    HW224101   0.978   3.986   6.849 -2.0330  1.3587 -1.9303
 7761SOL     OW24102   6.254   3.541   5.215 -0.0571  0.2019 -0.2793
 7761SOL    HW124103   6.252   3.620   5.275 -1.3145  0.5443 -0.7341
 7761SOL    HW224104   6.344   3.534   5.171 -0.3521  2.2439 -1.3299
 7762SOL     OW24105   5.093   2.507   2.717 -0.1089  0.1086 -0.7562
 7762SOL    HW124106   5.048   2.512   2.628  1.4308  0.0756 -1.5675
 7762SOL    HW224107   5.113   2.411   2.739  2.3971  0.2912 -1.9287
 7763SOL     OW24108   6.171   6.980   0.470 -0.2885  0.4273  0.4098
 7763SOL    HW124109   6.249   6.957   0.411  0.0695 -1.6309  1.5636
 7763SOL    HW224110   6.204   6.993   0.564 -1.0966  1.5864  0.5421
 7764SOL     OW24111   5.453   0.184   6.360  0.4169  0.4284  0.2625
 7764SOL    HW124112   5.472   0.087   6.375  2.1440  0.5508 -0.8388
 7764SOL    HW224113   5.540   0.234   6.358 -0.1537  1.4706 -2.5272
 7765SOL     OW24114   5.624   5.149   3.210 -0.2071 -0.5288  0.6028
 7765SOL    HW124115   5.576   5.150   3.298  1.0881  1.3890  1.3446
 7765SOL    HW224116   5.722   5.135   3.226  0.2252  1.1202 -0.4065
 7766SOL     OW24117   3.498   6.345   1.321  0.3476 -0.4137 -0.3414
 7766SOL    HW124118   3.442   6.313   1.398  2.1466 -0.5224  0.9682
 7766SOL    HW224119   3.570   6.278   1.302  0.5969  0.1450 -1.4174
 7767SOL     OW24120   1.593   0.561   4.596 -0.1302  0.5559  0.4789
 7767SOL    HW124121   1.688   0.573   4.565 -0.5530 -0.9997 -1.6840
 7767SOL    HW224122   1.592   0.550   4.695  2.1172 -0.4713  0.4746
 7768SOL     OW24123   1.499   1.129   1.829 -0.5005 -0.3020 -0.3226
 7768SOL    HW124124   1.502   1.051   1.767 -0.3455 -1.4918  1.1306
 7768SOL    HW224125   1.475   1.212   1.777 -2.1971 -1.5485 -1.6417
 7769SOL     OW24126   6.057   2.126   2.011  0.1385  0.1908 -0.3248
 7769SOL    HW124127   5.974   2.165   1.970  0.5919  0.4712 -1.0047
 7769SOL    HW224128   6.083   2.179   2.092 -1.6736 -1.3289  1.3415
 7770SOL     OW24129   1.766   0.710   1.699 -0.1876  0.6413  0.0408
 7770SOL    HW124130   1.759   0.670   1.607  2.1840 -0.5660  0.3213
 7770SOL    HW224131   1.730   0.644   1.766  1.2154  0.0470  0.2484
 7771SOL     OW24132   3.596   1.937   6.309  0.0993 -0.3295  0.4605
 7771SOL    HW124133   3.576   1.904   6.217 -0.1730 -0.6076  0.6147
 7771SOL    HW224134   3.678   1.995   6.308  0.6508 -1.1005  0.2004
 7772SOL     OW24135   5.445   0.559   6.407 -1.2348  0.4938 -0.4432
 7772SOL    HW124136   5.522   0.496   6.415  0.0837  1.9464 -1.0490
 7772SOL    HW224137   5.418   0.565   6.311 -1.0289  1.1837 -0.4646
 7773SOL     OW24138   6.570   6.451   3.070  0.2712  0.2829  0.4240
 7773SOL    HW124139   6.528   6.475   3.157 -1.9280  0.8685 -0.7122
 7773SOL    HW224140   6.503   6.463   2.996  1.1395 -2.8902 -1.0521
 7774SOL     OW24141   0.628   3.156   4.154 -0.1357  0.1044  0.0694
 7774SOL    HW124142   0.659   3.167   4.249 -0.6718 -0.5367  0.3237
 7774SOL    HW224143   0.638   3.243   4.106 -1.7228  1.0160  1.2785
 7775SOL     OW24144   4.706   0.807   6.050  0.1651 -0.0356 -0.2144
 7775SOL    HW124145   4.621   0.836   6.005 -0.3895 -0.7813  0.3169
 7775SOL    HW224146   4.755   0.887   6.084  0.0066  0.4546 -1.0958
 7776SOL     OW24147   6.899   1.666   6.529  0.7285  0.4118 -0.1694
 7776SOL    HW124148   6.962   1.712   6.591  1.9257 -0.5862 -0.6090
 7776SOL    HW224149   6.868   1.731   6.459  0.7191  1.0830  0.4473
 7777SOL     OW24150   1.688   6.556   4.565 -0.3286  0.0114  0.6250
 7777SOL    HW124151   1.772   6.610   4.562  0.1233 -0.7269 -0.5870
 7777SOL    HW224152   1.634   6.573   4.483 -0.3731 -1.0639  0.4171
 7778SOL     OW24153   0.895   2.241   1.152  0.4408 -0.8061  0.2588
 7778SOL    HW124154   0.949   2.245   1.067  0.2409 -1.2043  0.1106
 7778SOL    HW224155   0.957   2.246   1.230  0.5737  0.3379  0.1028
 7779SOL     OW24156   1.581   3.606   6.336 -0.3434  0.0222 -0.1920
 7779SOL    HW124157   1.664   3.551   6.334 -0.0002  0.3268  2.0689
 7779SOL    HW224158   1.603   3.702   6.320 -0.3428  0.0124 -0.2477
 7780SOL     OW24159   1.021   6.831   0.510  0.3901  0.4656 -0.4451
 7780SOL    HW124160   1.119   6.813   0.503  0.4855  0.6002  0.4925
 7780SOL    HW224161   0.973   6.785   0.435  1.1097 -0.0094 -0.6185
 7781SOL     OW24162   0.811   1.342   6.336  0.5731  0.3949  0.2522
 7781SOL    HW124163   0.732   1.282   6.348 -0.6818  2.1058  0.7642
 7781SOL    HW224164   0.854   1.358   6.425  0.1566  1.2502  0.3003
 7782SOL     OW24165   3.391   3.200   6.192  0.0418 -0.0695 -0.3680
 7782SOL    HW124166   3.310   3.255   6.213  0.8801  0.8442  0.5822
 7782SOL    HW224167   3.461   3.217   6.260  1.7556  0.6031 -2.2058
 7783SOL     OW24168   3.524   6.776   3.045  0.3072  0.6317 -0.1814
 7783SOL    HW124169   3.508   6.772   2.947  2.0194  1.1170 -0.5056
 7783SOL    HW224170   3.532   6.871   3.074 -0.4170  0.5027  0.4864
 7784SOL     OW24171   2.767   5.995   0.789 -0.5369 -0.0639  0.0102
 7784SOL    HW124172   2.807   5.905   0.809 -0.0245  0.2051  0.2170
 7784SOL    HW224173   2.747   6.002   0.691  0.7668  0.1236 -0.2622
 7785SOL     OW24174   1.605   4.962   0.740  0.0633 -0.0467 -0.2985
 7785SOL    HW124175   1.567   5.029   0.676 -0.6094 -1.9707 -2.0427
 7785SOL    HW224176   1.540   4.887   0.752  1.3632 -1.0981  0.4329
 7786SOL     OW24177   0.437   2.261   1.092  0.3735 -0.2557 -0.6975
 7786SOL    HW124178   0.350   2.213   1.103  0.1470  0.1532 -0.7203
 7786SOL    HW224179   0.431   2.352   1.134  0.9600 -0.4284 -0.2091
 7787SOL     OW24180   1.532   3.927   2.828  0.2423  0.8279  0.2327
 7787SOL    HW124181   1.561   3.905   2.735 -1.7389  0.3501 -0.3191
 7787SOL    HW224182   1.465   4.001   2.825 -0.9326 -0.1673  1.1219
 7788SOL     OW24183   3.866   0.411   4.383 -0.1422  0.6756  0.5298
 7788SOL    HW124184   3.793   0.413   4.315  0.3702  1.9625 -0.0102
 7788SOL    HW224185   3.897   0.316   4.395  0.5759  0.5063 -1.9663
 7789SOL     OW24186   3.853   1.815   2.836  0.3201  0.1924  0.0657
 7789SOL    HW124187   3.858   1.731   2.780  0.9706  0.1067  0.2435
 7789SOL    HW224188   3.757   1.842   2.846 -0.0031 -1.1316  0.8849
 7790SOL     OW24189   1.074   2.466   6.679 -0.3650  0.5096  0.4456
 7790SOL    HW124190   0.982   2.502   6.661 -0.2340  0.8208  0.3817
 7790SOL    HW224191   1.074   2.367   6.669 -0.3188  0.6399 -1.2579
 7791SOL     OW24192   0.516   5.272   0.884 -0.5266  0.0140  0.1275
 7791SOL    HW124193   0.603   5.264   0.933 -0.1729 -1.8792 -0.7182
 7791SOL    HW224194   0.442   5.237   0.942 -0.6591  1.0727  0.6202
 7792SOL     OW24195   2.859   3.600   3.216  0.4613  0.1460 -0.0616
 7792SOL    HW124196   2.956   3.580   3.230  0.5832  0.0017 -1.0395
 7792SOL    HW224197   2.817   3.625   3.303  1.3527  0.1067  0.3884
 7793SOL     OW24198   4.218   5.194   0.271  0.2262  0.2421  0.6999
 7793SOL    HW124199   4.214   5.286   0.309  1.2231 -0.0442  1.5357
 7793SOL    HW224200   4.280   5.193   0.193 -1.9691  0.8727 -1.1643
 7794SOL     OW24201   1.113   5.879   2.897 -0.1279 -0.1138 -0.1618
 7794SOL    HW124202   1.033   5.844   2.946 -0.1665 -4.1982 -2.7051
 7794SOL    HW224203   1.085   5.951   2.834 -1.3543  0.0874  0.5903
 7795SOL     OW24204   6.086   6.813   6.193  0.0698 -0.3864 -0.4405
 7795SOL    HW124205   6.121   6.738   6.249 -0.5528 -1.0086 -0.8768
 7795SOL    HW224206   5.994   6.791   6.162  0.2330  0.1600 -1.3340
 7796SOL     OW24207   3.041   6.477   2.250  0.4192 -0.2552 -0.2650
 7796SOL    HW124208   3.125   6.521   2.283 -0.7654  0.7725  1.5227
 7796SOL    HW224209   2.977   6.466   2.326 -0.5707 -2.2730 -1.3114
 7797SOL     OW24210   1.982   2.229   4.749  0.1889  0.3149 -0.3336
 7797SOL    HW124211   2.037   2.300   4.706 -0.1206  1.9149  1.7431
 7797SOL    HW224212   1.984   2.241   4.848 -3.3488  0.0479 -0.1046
 7798SOL     OW24213   6.850   3.678   6.386  0.2470  0.2907 -0.3527
 7798SOL    HW124214   6.861   3.608   6.456  1.2718  0.1363 -0.6631
 7798SOL    HW224215   6.752   3.691   6.368 -0.0287  0.2087  0.9652
 7799SOL     OW24216   5.814   3.348   1.476  0.2693  0.2525 -0.3321
 7799SOL    HW124217   5.739   3.387   1.423  0.3118 -0.2963 -0.8022
 7799SOL    HW224218   5.778   3.280   1.540  0.0237  1.8826  1.3869
 7800SOL     OW24219   0.462   2.699   3.952 -0.2123  0.1604  0.5917
 7800SOL    HW124220   0.383   2.759   3.959 -0.1570  0.1145  1.8203
 7800SOL    HW224221   0.545   2.753   3.936 -0.3907  0.2613 -0.0071
 7801SOL     OW24222   0.412   3.820   6.418  0.0773  0.3154  0.1929
 7801SOL    HW124223   0.330   3.784   6.372 -0.9136  1.5119  0.9614
 7801SOL    HW224224   0.421   3.917   6.398  0.4418  0.5375  1.3797
 7802SOL     OW24225   2.848   1.072   0.015 -0.2120 -0.9173  0.2588
 7802SOL    HW124226   2.768   1.017   0.038 -1.7774  1.5841  1.1941
 7802SOL    HW224227   2.842   1.161   0.060  3.2582 -0.6776  0.5730
 7803SOL     OW24228   6.444   1.886   5.644  0.3765  0.5411 -0.0903
 7803SOL    HW124229   6.368   1.894   5.580  0.1371 -0.6180  0.0307
 7803SOL    HW224230   6.416   1.918   5.734  0.0439  0.1742 -0.0613
 7804SOL     OW24231   5.402   0.256   2.451 -0.1294 -0.0308 -0.7619
 7804SOL    HW124232   5.315   0.251   2.499 -1.0420  0.8684 -2.2228
 7804SOL    HW224233   5.387   0.292   2.359  1.9633  1.4917 -0.5892
 7805SOL     OW24234   2.409   4.532   1.995  0.1710 -0.4833  0.1970
 7805SOL    HW124235   2.390   4.444   1.952  0.6496 -0.9954  1.0107
 7805SOL    HW224236   2.393   4.606   1.929  3.3550 -1.3292 -1.7348
 7806SOL     OW24237   5.594   6.552   1.188  0.2258 -0.2089 -0.2046
 7806SOL    HW124238   5.598   6.472   1.248  0.3030 -0.5505 -0.6614
 7806SOL    HW224239   5.528   6.617   1.224 -0.3581 -0.7910 -0.2107
 7807SOL     OW24240   5.772   3.936   5.651  0.0499 -0.7561 -0.0641
 7807SOL    HW124241   5.683   3.893   5.668 -0.0721 -0.7704 -0.6857
 7807SOL    HW224242   5.790   4.005   5.720 -1.3634  0.6523 -1.0177
 7808SOL     OW24243   6.106   1.071   3.317  0.0817 -0.0891  0.2276
 7808SOL    HW124244   6.014   1.043   3.343  0.1154  0.9109  1.5202
 7808SOL    HW224245   6.132   1.027   3.231 -3.3868  3.0167 -2.7876
 7809SOL     OW24246   6.559   1.171   2.383 -0.1973 -0.1071  0.6450
 7809SOL    HW124247   6.549   1.162   2.284 -2.4772  1.0516  0.7017
 7809SOL    HW224248   6.596   1.086   2.420 -1.3691 -1.3871 -0.9625
 7810SOL     OW24249   3.136   3.908   2.160  0.4308 -0.4602  0.3119
 7810SOL    HW124250   3.103   3.820   2.126 -0.4737 -0.2925  0.7303
 7810SOL    HW224251   3.220   3.894   2.213  0.6268 -0.9898 -0.1387
 7811SOL     OW24252   6.059   5.726   4.039  0.5918 -0.7661 -0.3795
 7811SOL    HW124253   6.102   5.648   4.084  2.0194  0.2453  0.0439
 7811SOL    HW224254   6.088   5.729   3.943 -0.0544 -1.1581 -0.5991
 7812SOL     OW24255   6.225   4.786   1.146  0.0574  0.4974  0.0783
 7812SOL    HW124256   6.183   4.821   1.063 -1.8558 -1.2633  0.2285
 7812SOL    HW224257   6.294   4.718   1.122 -1.5193 -1.1053 -0.1264
 7813SOL     OW24258   2.879   1.195   0.933 -0.1434 -0.0318  0.2594
 7813SOL    HW124259   2.946   1.134   0.890 -0.2605  0.8535 -1.2499
 7813SOL    HW224260   2.824   1.143   0.999 -0.1840 -1.5309 -0.9106
 7814SOL     OW24261   1.543   6.610   4.352  0.5228 -0.5735  0.5812
 7814SOL    HW124262   1.510   6.704   4.355  1.5657 -0.2101  1.0550
 7814SOL    HW224263   1.472   6.551   4.313 -0.0859  0.4205  0.1555
 7815SOL     OW24264   6.944   2.696   4.772  0.1761 -0.2400 -0.0889
 7815SOL    HW124265   7.006   2.773   4.753 -0.8473  0.8628  0.9443
 7815SOL    HW224266   6.865   2.701   4.710 -0.3357  0.0715  0.5813
 7816SOL     OW24267   4.413   4.401   6.779  0.1719 -0.0065  0.1743
 7816SOL    HW124268   4.349   4.434   6.848  0.3958 -1.5260  1.1394
 7816SOL    HW224269   4.402   4.455   6.695 -1.2108  0.8208  0.8551
 7817SOL     OW24270   3.699   1.725   6.073  0.4105  0.0116 -0.2976
 7817SOL    HW124271   3.772   1.726   6.004  1.5158  1.4783  0.8343
 7817SOL    HW224272   3.622   1.780   6.041  0.8589  0.5651 -0.4337
 7818SOL     OW24273   0.686   6.406   4.634 -0.0130 -0.4373 -0.4193
 7818SOL    HW124274   0.622   6.395   4.558  1.6179 -0.6785 -1.8192
 7818SOL    HW224275   0.733   6.320   4.652  0.4700 -0.0776  0.0923
 7819SOL     OW24276   4.399   0.503   4.390 -0.0578 -0.7821 -0.0964
 7819SOL    HW124277   4.426   0.528   4.297  0.1959 -1.7237 -0.2921
 7819SOL    HW224278   4.304   0.472   4.390 -0.0523 -0.7986 -0.0529
 7820SOL     OW24279   1.270   5.823   2.297 -0.2094 -0.0161  0.0127
 7820SOL    HW124280   1.260   5.797   2.393 -0.7278 -1.0705 -0.3221
 7820SOL    HW224281   1.180   5.848   2.260 -0.2543 -1.0483 -0.5982
 7821SOL     OW24282   0.709   2.473   2.534  0.3478  0.4443 -0.0039
 7821SOL    HW124283   0.618   2.434   2.522  0.0226  1.1346  0.1711
 7821SOL    HW224284   0.743   2.506   2.446 -0.2859  1.7108  0.2015
 7822SOL     OW24285   5.633   4.294   5.860  0.0762 -0.0157  0.4925
 7822SOL    HW124286   5.720   4.260   5.822 -0.3246 -0.5971  0.0818
 7822SOL    HW224287   5.557   4.242   5.820 -0.4791  0.6712  0.6493
 7823SOL     OW24288   6.720   6.623   1.129  0.4838  0.7920 -0.5128
 7823SOL    HW124289   6.678   6.622   1.038  2.2733 -1.1440 -1.3942
 7823SOL    HW224290   6.660   6.577   1.195  0.7375 -1.1141 -1.5487
 7824SOL     OW24291   0.975   1.782   4.349 -0.0777  0.1821  0.4944
 7824SOL    HW124292   0.876   1.786   4.332 -0.0399  0.3431  0.3100
 7824SOL    HW224293   0.991   1.748   4.441 -0.3168  0.5495  0.6739
 7825SOL     OW24294   5.158   0.087   5.778 -0.4596 -0.1001  0.3953
 7825SOL    HW124295   5.214   0.160   5.817 -1.5342  0.4186  1.0036
 7825SOL    HW224296   5.216   0.009   5.756  1.0033  1.4665 -1.7476
 7826SOL     OW24297   2.301   2.889   5.899  0.3061  0.3442 -0.2249
 7826SOL    HW124298   2.349   2.814   5.854  1.6538  1.0236  0.0134
 7826SOL    HW224299   2.342   2.976   5.871 -0.8883  0.9678 -0.1013
 7827SOL     OW24300   6.188   5.399   3.794  0.3488  0.3099 -0.2654
 7827SOL    HW124301   6.122   5.326   3.815 -1.2523  1.1510 -2.0109
 7827SOL    HW224302   6.165   5.480   3.848  0.1417  0.5049 -0.6440
 7828SOL     OW24303   2.883   0.873   1.170 -0.3362 -0.1017  0.0154
 7828SOL    HW124304   2.840   0.839   1.087  0.0850  0.3175 -0.3811
 7828SOL    HW224305   2.825   0.944   1.211  0.0408  0.5983 -0.6215
 7829SOL     OW24306   6.836   1.956   6.831  0.5278  0.0676  0.5117
 7829SOL    HW124307   6.888   2.001   6.903  2.1612  0.0117 -0.5602
 7829SOL    HW224308   6.828   2.017   6.752  2.1716 -1.1674 -0.7026
 7830SOL     OW24309   4.501   5.899   6.881  0.2158  0.2229 -0.4951
 7830SOL    HW124310   4.567   5.970   6.907  0.0998  0.1818 -0.0915
 7830SOL    HW224311   4.409   5.928   6.907  0.3365 -0.7643  1.1255
 7831SOL     OW24312   3.828   4.710   0.515  0.7575  0.2132 -0.5482
 7831SOL    HW124313   3.755   4.666   0.462  0.2900  1.9265 -1.3869
 7831SOL    HW224314   3.828   4.673   0.608 -0.0765 -1.0138 -1.0075
 7832SOL     OW24315   0.626   4.427   4.841 -0.4797  0.4178  0.0954
 7832SOL    HW124316   0.652   4.487   4.765  0.3751 -0.1463 -0.0657
 7832SOL    HW224317   0.542   4.461   4.883 -1.5017  0.2384 -1.6913
 7833SOL     OW24318   1.937   5.970   0.287 -0.5902 -0.0772 -0.3864
 7833SOL    HW124319   1.885   6.017   0.216  1.4627  1.1022 -1.1873
 7833SOL    HW224320   1.971   6.036   0.353 -0.4871 -0.8757  0.3850
 7834SOL     OW24321   4.019   5.208   4.714 -0.0440  0.0700  0.2909
 7834SOL    HW124322   4.028   5.133   4.779  2.5379  0.5028  0.5073
 7834SOL    HW224323   4.024   5.172   4.621 -1.4387 -0.2820  0.3307
 7835SOL     OW24324   1.434   1.143   2.860 -0.0228  0.2934 -0.1316
 7835SOL    HW124325   1.487   1.226   2.879 -1.6495  1.2167  0.5918
 7835SOL    HW224326   1.447   1.078   2.934 -0.2631  0.7139  0.2872
 7836SOL     OW24327   5.709   6.512   3.198  0.1027 -0.0755 -0.1444
 7836SOL    HW124328   5.681   6.596   3.152 -0.0574 -0.9443 -1.6852
 7836SOL    HW224329   5.646   6.493   3.274 -0.3346  0.7536 -0.2858
 7837SOL     OW24330   5.429   0.873   1.267  0.4647  0.3042  0.0577
 7837SOL    HW124331   5.508   0.903   1.320 -0.5347  1.3771  1.0106
 7837SOL    HW224332   5.416   0.935   1.190  0.6459  0.0379 -0.1859
 7838SOL     OW24333   3.871   1.170   6.072  0.2927 -0.0062  0.7186
 7838SOL    HW124334   3.921   1.185   6.157  1.2564 -0.5362  0.2565
 7838SOL    HW224335   3.889   1.245   6.009  0.6947 -0.3084  0.4694
 7839SOL     OW24336   2.672   2.177   5.570 -1.0819 -0.1273 -0.0457
 7839SOL    HW124337   2.711   2.130   5.649 -0.8400 -1.9249 -1.1964
 7839SOL    HW224338   2.643   2.269   5.598  1.1729  0.1911  1.5587
 7840SOL     OW24339   5.197   6.034   4.524  0.2039 -1.0017 -0.2071
 7840SOL    HW124340   5.284   6.078   4.545 -1.1328  2.1277 -0.7421
 7840SOL    HW224341   5.208   5.977   4.443  1.3770  0.8518 -1.4302
 7841SOL     OW24342   6.100   4.169   6.686 -0.1083  0.4887 -0.4965
 7841SOL    HW124343   6.104   4.267   6.665 -0.5135  0.7340  0.5442
 7841SOL    HW224344   6.051   4.155   6.771  1.7544 -0.4654  0.4815
 7842SOL     OW24345   6.607   3.679   6.254  0.2127  0.5029  0.1605
 7842SOL    HW124346   6.608   3.771   6.214  1.9128  1.4634  2.2225
 7842SOL    HW224347   6.669   3.620   6.203  1.3286  1.3275  0.5256
 7843SOL     OW24348   6.361   5.878   0.240  0.0215 -0.0582 -0.0359
 7843SOL    HW124349   6.312   5.807   0.291 -0.4987 -0.7275 -1.4269
 7843SOL    HW224350   6.454   5.886   0.275 -0.0645 -1.0942  0.4512
 7844SOL     OW24351   1.193   5.116   4.819 -0.7087 -0.3794  0.7547
 7844SOL    HW124352   1.184   5.178   4.741 -0.8088 -1.0495  0.2263
 7844SOL    HW224353   1.228   5.167   4.898  0.3408  0.1147  0.0040
 7845SOL     OW24354   0.107   5.670   6.405 -0.1380  0.1384 -1.0021
 7845SOL    HW124355   0.206   5.682   6.396 -0.2873  0.7221 -2.1028
 7845SOL    HW224356   0.062   5.699   6.320 -1.4214  2.0913  0.2367
 7846SOL     OW24357   2.300   2.331   5.301  0.1685 -0.5320  0.4371
 7846SOL    HW124358   2.290   2.247   5.355  0.2095 -1.6057 -1.1407
 7846SOL    HW224359   2.296   2.308   5.203  0.5381  1.2719 -0.0374
 7847SOL     OW24360   2.269   6.758   4.427  0.5780  0.0265  0.0630
 7847SOL    HW124361   2.342   6.788   4.366  1.1271  0.5689  0.9596
 7847SOL    HW224362   2.239   6.835   4.484 -0.1807 -0.3723  0.2236
 7848SOL     OW24363   1.539   4.046   5.360  0.1022 -0.1107 -0.0845
 7848SOL    HW124364   1.496   3.958   5.383  1.1348 -0.4326  0.6548
 7848SOL    HW224365   1.621   4.030   5.305 -2.3900  0.6155 -4.5792
 7849SOL     OW24366   0.522   5.844   5.327  0.1244 -0.3722 -0.0034
 7849SOL    HW124367   0.579   5.912   5.282  0.9663 -0.3978  0.9924
 7849SOL    HW224368   0.550   5.834   5.423  0.0518 -2.1392 -0.1305
 7850SOL     OW24369   2.023   4.151   0.733 -0.1538 -0.2357 -0.6227
 7850SOL    HW124370   2.055   4.145   0.638  2.0299  0.9816 -0.0356
 7850SOL    HW224371   2.040   4.063   0.779 -0.7305 -0.6584 -1.2042
 7851SOL     OW24372   2.303   0.955   0.968  0.1073  0.2247 -0.5062
 7851SOL    HW124373   2.386   1.010   0.959  0.0960  0.2478 -0.4708
 7851SOL    HW224374   2.227   1.002   0.923  0.4104 -0.4481 -1.7561
 7852SOL     OW24375   0.215   4.087   6.472 -0.0619 -0.6235  0.2022
 7852SOL    HW124376   0.129   4.060   6.429 -1.2452  0.5229  1.7390
 7852SOL    HW224377   0.233   4.026   6.550  0.3161 -0.6033  0.1315
 7853SOL     OW24378   3.613   1.375   3.235 -0.6394  0.2617 -0.1633
 7853SOL    HW124379   3.677   1.310   3.194 -1.8257 -0.0646 -1.5684
 7853SOL    HW224380   3.638   1.468   3.208  0.1402  0.2904  0.5900
 7854SOL     OW24381   0.149   3.487   4.003 -0.2177  0.4613 -0.0144
 7854SOL    HW124382   0.107   3.542   3.930  0.4966  2.1734  0.7962
 7854SOL    HW224383   0.131   3.390   3.986 -0.1965  0.7946 -2.3730
 7855SOL     OW24384   6.541   6.828   6.057 -0.6844 -0.1221 -0.0870
 7855SOL    HW124385   6.449   6.798   6.031 -0.6572 -2.4620  2.1312
 7855SOL    HW224386   6.609   6.771   6.010 -0.3483  1.1730 -1.2200
 7856SOL     OW24387   0.996   2.514   1.808  0.0460  0.0455 -0.0193
 7856SOL    HW124388   1.029   2.500   1.901  2.8114 -0.4487 -0.9736
 7856SOL    HW224389   1.068   2.556   1.752 -0.6502 -1.7312 -2.4640
 7857SOL     OW24390   1.352   5.891   6.628  0.2485  0.2496  0.1988
 7857SOL    HW124391   1.374   5.943   6.546 -0.9720 -3.0583 -2.4721
 7857SOL    HW224392   1.276   5.829   6.609 -1.4504  0.6627  4.5160
 7858SOL     OW24393   6.867   5.344   5.608 -0.0047 -0.0795 -0.0719
 7858SOL    HW124394   6.934   5.306   5.544  0.7901  0.9096  0.1492
 7858SOL    HW224395   6.794   5.389   5.557 -0.0056 -0.3363 -0.2983
 7859SOL     OW24396   4.205   6.168   6.622  0.3929 -0.1643  0.5586
 7859SOL    HW124397   4.295   6.210   6.614 -0.0669  0.5196 -1.4437
 7859SOL    HW224398   4.192   6.102   6.548 -0.1149 -1.5621  1.8372
 7860SOL     OW24399   3.878   1.996   6.250  0.1356 -0.1253 -0.6766
 7860SOL    HW124400   3.947   2.024   6.317 -1.3155 -0.7171  1.1787
 7860SOL    HW224401   3.886   1.897   6.234 -1.6142 -0.6850  1.3476
 7861SOL     OW24402   5.546   0.622   0.625 -0.3082 -0.2556  0.7623
 7861SOL    HW124403   5.446   0.616   0.634 -0.3956 -0.0178  0.0097
 7861SOL    HW224404   5.587   0.544   0.672 -0.8975 -0.8276  0.3532
 7862SOL     OW24405   6.686   2.061   4.136  0.5241  0.3370  0.5177
 7862SOL    HW124406   6.650   2.106   4.054  0.2979 -0.9807 -0.1364
 7862SOL    HW224407   6.673   2.120   4.215 -1.1727  0.7994 -0.0558
 7863SOL     OW24408   1.127   4.962   0.782  0.0036  0.2387 -0.0955
 7863SOL    HW124409   1.182   4.885   0.813  0.2225 -0.6158 -2.3908
 7863SOL    HW224410   1.187   5.041   0.766 -0.1324  0.7358  1.6488
 7864SOL     OW24411   2.105   6.359   6.763  0.3624 -0.1387  0.1093
 7864SOL    HW124412   2.046   6.367   6.843  1.8863 -0.2619  1.3034
 7864SOL    HW224413   2.087   6.434   6.700 -1.5080 -0.5560  0.0971
 7865SOL     OW24414   0.887   4.040   1.164 -0.4415  0.4897 -0.2860
 7865SOL    HW124415   0.801   3.990   1.161 -0.8470  1.1014  0.7256
 7865SOL    HW224416   0.963   3.976   1.154 -0.9789 -0.1636 -0.2543
 7866SOL     OW24417   1.834   5.914   2.963  0.0341  0.1308  0.3213
 7866SOL    HW124418   1.755   5.879   3.012  1.0818 -0.7997  1.4194
 7866SOL    HW224419   1.898   5.839   2.946  1.7418  1.2514  1.5433
 7867SOL     OW24420   4.385   3.802   0.084 -0.6877 -0.1349  0.4633
 7867SOL    HW124421   4.434   3.755   0.010 -1.0356  0.7696 -0.3632
 7867SOL    HW224422   4.442   3.803   0.166  0.4212  0.3121 -0.2864
 7868SOL     OW24423   1.981   3.239   5.234 -0.2946  0.0794  0.6023
 7868SOL    HW124424   2.042   3.181   5.288  1.7191  0.5395 -1.0272
 7868SOL    HW224425   2.026   3.327   5.217 -2.3775  1.3001  1.1853
 7869SOL     OW24426   2.824   4.913   2.960  0.2377  0.6002  0.0669
 7869SOL    HW124427   2.858   4.853   2.888  0.7164 -1.2925  1.7852
 7869SOL    HW224428   2.876   4.999   2.958  3.0235 -0.9372  0.5519
 7870SOL     OW24429   1.056   6.971   6.150 -0.3280 -0.1200 -0.5359
 7870SOL    HW124430   0.996   7.021   6.088 -1.2756 -0.0697  0.3859
 7870SOL    HW224431   1.033   6.873   6.147 -0.8445 -0.0293  0.2241
 7871SOL     OW24432   5.930   0.132   6.902  0.9437  0.5113 -0.3952
 7871SOL    HW124433   5.867   0.206   6.877 -0.5252 -0.1966  0.9905
 7871SOL    HW224434   5.972   0.153   6.991 -1.9537 -1.6313  1.6691
 7872SOL     OW24435   1.545   5.962   0.402  0.5655 -0.1179 -0.7812
 7872SOL    HW124436   1.572   6.038   0.462  2.3649  0.3210 -2.0658
 7872SOL    HW224437   1.465   5.990   0.348 -0.5129 -0.1939  0.7064
 7873SOL     OW24438   4.396   5.643   3.618 -0.6343 -0.3496 -0.4780
 7873SOL    HW124439   4.442   5.712   3.674 -0.9765  1.5010 -2.3562
 7873SOL    HW224440   4.404   5.553   3.662  0.8896  0.6571  1.4406
 7874SOL     OW24441   5.497   3.728   0.551 -0.0990  0.6580 -0.8138
 7874SOL    HW124442   5.596   3.736   0.559 -0.1167  0.1290  0.0672
 7874SOL    HW224443   5.454   3.744   0.640 -0.8627  1.5848 -1.3356
 7875SOL     OW24444   0.474   2.558   2.302  0.5666  0.0878 -0.3125
 7875SOL    HW124445   0.571   2.541   2.320  0.2178  0.3587  2.3416
 7875SOL    HW224446   0.419   2.501   2.362 -0.9740 -0.3837 -2.0854
 7876SOL     OW24447   0.920   5.196   6.455 -0.4456 -0.2750 -0.4063
 7876SOL    HW124448   0.957   5.136   6.525  0.5184 -0.0989 -0.7475
 7876SOL    HW224449   0.892   5.282   6.497  2.5594  0.8887 -0.5249
 7877SOL     OW24450   2.398   2.674   3.231  0.2950 -0.0560  0.5503
 7877SOL    HW124451   2.487   2.716   3.244  0.2536  0.3981 -0.4823
 7877SOL    HW224452   2.350   2.720   3.156  0.1856 -1.8122 -0.5280
 7878SOL     OW24453   1.209   4.737   2.965  0.0945 -0.2639  0.3037
 7878SOL    HW124454   1.179   4.830   2.982  0.7424 -0.2264  1.3255
 7878SOL    HW224455   1.136   4.673   2.989  0.1758 -0.0866  1.0472
 7879SOL     OW24456   6.141   3.800   6.392  0.5963  0.7430 -0.3951
 7879SOL    HW124457   6.092   3.777   6.475 -0.1379  1.7748 -0.5201
 7879SOL    HW224458   6.220   3.857   6.414  0.1723  1.3508 -0.4335
 7880SOL     OW24459   1.870   1.649   5.848  0.3674  0.2192 -0.3779
 7880SOL    HW124460   1.816   1.588   5.790 -1.8022  3.2750 -1.8840
 7880SOL    HW224461   1.966   1.621   5.846 -0.0594 -1.4745 -3.2165
 7881SOL     OW24462   2.942   6.442   0.726  0.4945  0.0816 -0.2301
 7881SOL    HW124463   2.942   6.349   0.763 -1.5383 -0.2523 -0.9626
 7881SOL    HW224464   2.951   6.508   0.801  0.1237 -0.6575  0.4772
 7882SOL     OW24465   3.577   1.454   3.830  0.2112  0.0857  0.2610
 7882SOL    HW124466   3.494   1.400   3.834 -0.0869  0.5639  0.7162
 7882SOL    HW224467   3.632   1.438   3.913 -0.4117  1.2904  0.9454
 7883SOL     OW24468   5.007   0.240   3.764 -0.2541  0.2377  0.0857
 7883SOL    HW124469   4.952   0.211   3.685  0.1142 -0.5438  0.1091
 7883SOL    HW224470   4.946   0.269   3.838 -0.7075 -1.7899  0.5626
 7884SOL     OW24471   4.550   3.883   4.724  0.1763  0.2413 -0.0614
 7884SOL    HW124472   4.602   3.813   4.772 -0.5193  1.1801  2.2121
 7884SOL    HW224473   4.452   3.865   4.736 -0.0479  0.2522 -1.6035
 7885SOL     OW24474   3.469   3.264   1.275 -0.0602 -0.5548 -0.7362
 7885SOL    HW124475   3.533   3.307   1.339 -1.1405 -0.4663  0.3245
 7885SOL    HW224476   3.450   3.170   1.305 -1.9229  0.0415  0.1570
 7886SOL     OW24477   6.236   4.627   2.395  0.6370  0.2537 -0.6078
 7886SOL    HW124478   6.206   4.713   2.436  1.2359  0.2547 -0.1612
 7886SOL    HW224479   6.307   4.644   2.327  0.2797  0.1698 -1.0068
 7887SOL     OW24480   1.923   4.505   0.403 -0.4016  0.0843 -0.8582
 7887SOL    HW124481   2.018   4.488   0.376 -0.1443  0.2904 -0.1104
 7887SOL    HW224482   1.870   4.533   0.322  0.6034  1.7875 -0.9866
 7888SOL     OW24483   3.388   2.453   6.133 -0.5243  0.1522 -0.4792
 7888SOL    HW124484   3.333   2.527   6.096  0.8356  2.3533  1.5856
 7888SOL    HW224485   3.485   2.471   6.115 -0.1740 -1.2433 -0.1246
 7889SOL     OW24486   0.927   4.064   4.194  0.2138  0.4128  0.0341
 7889SOL    HW124487   0.915   3.974   4.237  0.0568  0.7397  0.6950
 7889SOL    HW224488   0.990   4.119   4.249  0.6954  0.5389 -0.6337
 7890SOL     OW24489   4.977   2.247   0.322 -0.8660  0.3239  0.0875
 7890SOL    HW124490   4.891   2.255   0.372 -0.5890  0.1944  0.5833
 7890SOL    HW224491   5.052   2.229   0.385 -0.6900 -1.0768 -0.4838
 7891SOL     OW24492   4.812   3.086   0.968 -1.2744 -0.0414 -0.1886
 7891SOL    HW124493   4.728   3.036   0.989  0.9167 -3.3751  1.7284
 7891SOL    HW224494   4.868   3.032   0.905  0.3976  0.9409  0.3902
 7892SOL     OW24495   3.737   3.414   6.706 -0.5053  0.2961 -0.0859
 7892SOL    HW124496   3.806   3.457   6.765  1.8375 -1.5079 -1.3512
 7892SOL    HW224497   3.672   3.483   6.675 -0.0594  1.8446  2.1784
 7893SOL     OW24498   1.969   4.168   2.766 -0.3783 -0.1796 -0.2509
 7893SOL    HW124499   1.949   4.237   2.836 -0.1017  0.8179 -1.1287
 7893SOL    HW224500   2.032   4.100   2.803  3.1848  2.6058 -0.6643
 7894SOL     OW24501   6.797   2.648   1.302 -0.3684  0.1313 -0.1731
 7894SOL    HW124502   6.892   2.630   1.278  0.0991  3.6375 -1.4557
 7894SOL    HW224503   6.793   2.691   1.393 -0.9963 -1.8073  0.7749
 7895SOL     OW24504   3.394   2.478   2.056  0.1243  0.2491 -0.1888
 7895SOL    HW124505   3.434   2.389   2.036  1.0429  0.3844  0.9863
 7895SOL    HW224506   3.332   2.504   1.981  1.5222 -0.3803 -1.6142
 7896SOL     OW24507   5.175   1.960   0.977  0.4974  0.4810  0.0792
 7896SOL    HW124508   5.243   1.887   0.986  0.7345  0.7566  0.5742
 7896SOL    HW224509   5.218   2.039   0.933  0.1075  0.1519 -0.9145
 7897SOL     OW24510   5.081   6.125   0.755  0.4926  0.4480  0.3081
 7897SOL    HW124511   5.123   6.087   0.837 -1.3846  0.4758  1.3401
 7897SOL    HW224512   5.011   6.062   0.720  1.9985 -0.0834 -1.9580
 7898SOL     OW24513   2.727   4.562   1.123 -0.1208 -0.1355 -0.5040
 7898SOL    HW124514   2.772   4.479   1.158 -0.5956 -0.5401 -0.8398
 7898SOL    HW224515   2.636   4.539   1.089 -0.8921  0.8098  0.8466
 7899SOL     OW24516   6.757   5.677   0.704  0.0962 -0.4045 -0.1655
 7899SOL    HW124517   6.810   5.597   0.676  1.2007  0.3125 -0.2014
 7899SOL    HW224518   6.728   5.666   0.799 -1.2970 -1.6236 -0.7109
 7900SOL     OW24519   2.369   6.946   4.742 -0.0665 -0.7462  0.5181
 7900SOL    HW124520   2.370   7.038   4.779 -1.5281 -1.4689  2.4939
 7900SOL    HW224521   2.396   6.881   4.814 -0.0596 -1.9570 -0.5461
 7901SOL     OW24522   5.962   1.777   0.004 -0.1286  0.4508  0.0534
 7901SOL    HW124523   5.944   1.750   0.098 -1.4773 -0.4126 -0.4077
 7901SOL    HW224524   5.942   1.699  -0.057  3.1670  0.1326 -0.7828
 7902SOL     OW24525   1.297   3.602   0.003  0.4278  0.8096 -0.5309
 7902SOL    HW124526   1.258   3.570  -0.083 -0.0867  0.8772 -0.3301
 7902SOL    HW224527   1.370   3.540   0.032  0.7981  0.9460 -1.1565
 7903SOL     OW24528   5.897   6.055   6.502  0.2235 -0.4934  0.5950
 7903SOL    HW124529   5.827   6.036   6.571 -0.8220  0.7206 -0.0880
 7903SOL    HW224530   5.981   6.086   6.546 -0.2013 -0.4164  1.3583
 7904SOL     OW24531   3.304   2.947   4.438 -0.2505 -0.2949 -0.1256
 7904SOL    HW124532   3.302   2.943   4.538  0.8097  4.2070  0.3061
 7904SOL    HW224533   3.396   2.928   4.405 -0.3185 -0.6243 -0.1233
 7905SOL     OW24534   5.488   4.527   6.012 -0.2088 -0.9921 -0.2773
 7905SOL    HW124535   5.516   4.580   5.932 -0.0144 -2.2651 -1.0849
 7905SOL    HW224536   5.470   4.432   5.985 -1.1393 -1.2188  1.0089
 7906SOL     OW24537   0.151   5.324   6.062 -0.1058  0.1971 -0.4809
 7906SOL    HW124538   0.197   5.413   6.065  0.4732 -0.0091 -2.2270
 7906SOL    HW224539   0.080   5.326   5.991 -0.7531 -0.4494  0.1303
 7907SOL     OW24540   6.368   5.785   3.988 -0.3682 -0.4998 -0.2854
 7907SOL    HW124541   6.353   5.754   3.894 -2.3804  1.7899 -0.8258
 7907SOL    HW224542   6.366   5.885   3.991  0.1678 -0.4925  2.1521
 7908SOL     OW24543   1.730   4.751   1.617  0.5562  0.1820 -0.5285
 7908SOL    HW124544   1.753   4.813   1.691  2.1690  1.6810 -2.1843
 7908SOL    HW224545   1.772   4.661   1.634  0.5009  0.3491  0.5643
 7909SOL     OW24546   4.668   0.225   1.400  0.5993 -0.5445 -0.4382
 7909SOL    HW124547   4.696   0.168   1.323  2.0745 -3.6022  2.1264
 7909SOL    HW224548   4.700   0.318   1.385  0.1271 -0.7973 -3.8041
 7910SOL     OW24549   5.064   1.892   4.188 -0.0095 -0.3834 -0.2411
 7910SOL    HW124550   5.006   1.839   4.127 -1.1380 -0.3892  0.7886
 7910SOL    HW224551   5.017   1.977   4.213  1.3719  0.6969 -1.1178
 7911SOL     OW24552   2.558   2.451   0.580 -0.0723  0.3642 -0.3385
 7911SOL    HW124553   2.637   2.419   0.527  0.6501  1.8445 -0.2031
 7911SOL    HW224554   2.501   2.373   0.605  0.3954 -0.5465 -1.9651
 7912SOL     OW24555   4.124   3.146   2.524 -0.0814  0.2122  0.0118
 7912SOL    HW124556   4.204   3.121   2.470 -0.8560  0.3583 -1.2457
 7912SOL    HW224557   4.054   3.075   2.514 -0.5642  0.6723  0.1008
 7913SOL     OW24558   2.883   1.169   2.115  0.2543  0.4791  0.3390
 7913SOL    HW124559   2.844   1.256   2.084 -0.3673  0.1389  0.1296
 7913SOL    HW224560   2.886   1.105   2.038  1.0622  0.4313  0.4000
 7914SOL     OW24561   1.322   6.903   2.729  0.1179  0.1490  0.1174
 7914SOL    HW124562   1.402   6.875   2.675  0.1293 -1.3562  0.8829
 7914SOL    HW224563   1.324   6.857   2.818  0.5380  3.1500  1.8087
 7915SOL     OW24564   2.668   4.627   6.827  0.1117  0.1793 -0.2760
 7915SOL    HW124565   2.742   4.626   6.760  0.3348  0.3303 -0.0338
 7915SOL    HW224566   2.694   4.572   6.906 -0.6355 -0.9967 -0.8246
 7916SOL     OW24567   1.592   2.417   0.009 -0.0364 -0.0496  0.3864
 7916SOL    HW124568   1.656   2.453  -0.060  1.2812 -1.4577  0.8035
 7916SOL    HW224569   1.517   2.369  -0.037  0.2925 -0.1184 -0.0902
 7917SOL     OW24570   1.290   6.111   2.629 -0.2518 -0.3641 -0.4966
 7917SOL    HW124571   1.193   6.091   2.614 -1.2958  1.4219  2.8119
 7917SOL    HW224572   1.312   6.200   2.590 -0.3806 -0.0552  0.1308
 7918SOL     OW24573   1.165   5.692   5.648  0.1088  0.1627  0.0282
 7918SOL    HW124574   1.232   5.755   5.688  2.6030 -1.3500 -1.5099
 7918SOL    HW224575   1.208   5.602   5.635 -2.7288 -1.3491  0.3476
 7919SOL     OW24576   3.847   5.866   2.234  0.1180 -0.1586  0.2569
 7919SOL    HW124577   3.828   5.813   2.316  2.2830 -0.6627  0.5177
 7919SOL    HW224578   3.889   5.807   2.165 -0.0475  0.6286 -0.5408
 7920SOL     OW24579   6.472   5.247   5.401  0.1532  0.5159 -0.1191
 7920SOL    HW124580   6.386   5.217   5.359 -0.2369 -0.5930  1.3800
 7920SOL    HW224581   6.549   5.221   5.342 -0.2959 -1.9594  0.2789
 7921SOL     OW24582   6.741   0.823   5.802  0.8071 -0.0294 -0.0067
 7921SOL    HW124583   6.710   0.886   5.730  0.9698 -0.8167 -0.7783
 7921SOL    HW224584   6.804   0.756   5.762  1.3098 -0.1590  0.9822
 7922SOL     OW24585   2.751   4.766   1.911 -0.2385  0.4401  0.0048
 7922SOL    HW124586   2.679   4.831   1.887  0.5682  0.6060 -2.1173
 7922SOL    HW224587   2.710   4.685   1.954 -1.7868  0.2312 -1.7693
 7923SOL     OW24588   3.715   3.279   5.246 -0.2262 -0.2043  0.5355
 7923SOL    HW124589   3.759   3.238   5.167  0.9679 -0.5719  1.3685
 7923SOL    HW224590   3.756   3.243   5.330 -0.3945  1.3323  1.3087
 7924SOL     OW24591   6.839   2.783   3.611  0.2964  0.3930  0.3591
 7924SOL    HW124592   6.806   2.878   3.608 -1.5032 -0.1967  0.5963
 7924SOL    HW224593   6.820   2.739   3.524 -0.7000 -0.3141  0.9173
 7925SOL     OW24594   1.621   1.704   2.210 -0.0425  0.0517 -0.3132
 7925SOL    HW124595   1.567   1.744   2.137  0.6342 -0.0866 -0.9021
 7925SOL    HW224596   1.692   1.645   2.171  1.8105  1.7447  0.2817
 7926SOL     OW24597   2.492   4.241   5.948  0.0756  0.5344 -0.2192
 7926SOL    HW124598   2.569   4.177   5.936  0.0839  0.5469 -0.2316
 7926SOL    HW224599   2.415   4.211   5.891 -0.1833  0.1086  0.3464
 7927SOL     OW24600   2.553   3.547   5.451 -0.0304 -0.0096 -0.2454
 7927SOL    HW124601   2.575   3.618   5.384  0.5426 -1.9405 -2.2145
 7927SOL    HW224602   2.465   3.506   5.428  0.0259 -0.4877  0.3910
 7928SOL     OW24603   6.184   2.043   6.502  0.3557  0.0685 -0.4748
 7928SOL    HW124604   6.171   1.969   6.567  1.5772  0.1245 -0.1385
 7928SOL    HW224605   6.133   2.024   6.418 -0.0497 -0.7131 -0.0507
 7929SOL     OW24606   2.017   2.314   0.553 -0.2022 -0.1016  0.3073
 7929SOL    HW124607   2.070   2.397   0.539  0.3123 -0.3208  0.9097
 7929SOL    HW224608   1.922   2.338   0.575 -0.3205  0.2922 -0.6340
 7930SOL     OW24609   6.622   6.749   3.892  0.2287  0.3125 -0.3317
 7930SOL    HW124610   6.678   6.831   3.909 -0.2900  0.8086 -0.9801
 7930SOL    HW224611   6.672   6.668   3.924  0.0180  1.0086  2.0065
 7931SOL     OW24612   4.248   3.917   2.314 -0.2212  0.1830  0.0500
 7931SOL    HW124613   4.293   3.828   2.307 -2.5727 -1.0113 -0.5271
 7931SOL    HW224614   4.268   3.971   2.232  0.6440 -0.0575  0.0871
 7932SOL     OW24615   3.621   0.894   0.085 -0.8174 -0.5913 -0.0793
 7932SOL    HW124616   3.612   0.805   0.040  0.7312 -1.2925  0.9399
 7932SOL    HW224617   3.656   0.961   0.020 -0.8197 -1.0163 -0.5206
 7933SOL     OW24618   0.654   3.101   5.101  0.3636 -0.4039 -0.1223
 7933SOL    HW124619   0.612   3.016   5.070 -0.0779 -0.3192  0.2306
 7933SOL    HW224620   0.586   3.157   5.148  0.9121 -0.3400  0.6207
 7934SOL     OW24621   2.768   3.783   4.060  0.3383  0.4195  0.5635
 7934SOL    HW124622   2.677   3.742   4.053  0.1917  0.7433  0.5735
 7934SOL    HW224623   2.821   3.732   4.128  0.2074  0.1557  0.4719
 7935SOL     OW24624   4.846   4.678   3.625 -0.2032 -0.2383  0.2175
 7935SOL    HW124625   4.886   4.769   3.610 -0.3443 -0.3135 -0.6808
 7935SOL    HW224626   4.898   4.630   3.696  1.5157 -0.4319 -1.0978
 7936SOL     OW24627   6.823   1.740   1.927 -0.1777 -0.2618  0.3148
 7936SOL    HW124628   6.789   1.765   2.018 -2.8288 -2.6778  0.0951
 7936SOL    HW224629   6.895   1.671   1.936  0.0940  0.0449  0.5555
 7937SOL     OW24630   1.944   2.737   4.524 -0.3082 -0.1705 -0.1901
 7937SOL    HW124631   2.037   2.764   4.551 -0.6145  1.5648 -0.7145
 7937SOL    HW224632   1.930   2.759   4.428 -1.0001 -1.2056 -0.3371
 7938SOL     OW24633   6.005   4.680   5.760 -0.1337  0.1876  0.2300
 7938SOL    HW124634   5.948   4.711   5.836  1.0236 -0.8445  1.5825
 7938SOL    HW224635   5.947   4.660   5.681 -1.7102 -1.1090  1.6359
 7939SOL     OW24636   1.724   5.095   5.467  0.5531  0.4730  0.1112
 7939SOL    HW124637   1.657   5.137   5.405  0.6701  1.6663  0.7600
 7939SOL    HW224638   1.725   5.146   5.553  2.7929  0.9271 -0.1260
 7940SOL     OW24639   4.261   6.282   1.564 -0.4051  0.3881 -0.1171
 7940SOL    HW124640   4.284   6.346   1.638  1.5298 -1.2914  0.8413
 7940SOL    HW224641   4.288   6.322   1.476 -1.8321  2.0133  0.1319
 7941SOL     OW24642   0.738   0.173   1.049  0.2817 -0.1968 -0.5367
 7941SOL    HW124643   0.811   0.174   1.117 -1.1384  0.0560  1.0623
 7941SOL    HW224644   0.776   0.154   0.959  2.2959 -0.0607  0.2396
 7942SOL     OW24645   5.538   5.826   6.781 -0.6623  0.2185 -0.1304
 7942SOL    HW124646   5.591   5.769   6.844  1.5799 -0.7547 -2.7080
 7942SOL    HW224647   5.554   5.922   6.801 -0.8235 -0.0421  1.3717
 7943SOL     OW24648   4.026   3.006   2.862  0.0500  0.1707  0.2094
 7943SOL    HW124649   4.090   2.975   2.933 -0.8201  0.9043  1.3411
 7943SOL    HW224650   4.001   3.101   2.879 -1.5848 -0.1956 -0.0219
 7944SOL     OW24651   4.155   0.808   1.619  0.1794 -0.2977 -0.7417
 7944SOL    HW124652   4.136   0.833   1.714  0.0698 -1.3806 -0.4624
 7944SOL    HW224653   4.195   0.716   1.616 -2.1876 -1.3855 -1.8936
 7945SOL     OW24654   5.714   4.173   3.773  0.0219 -0.3662  0.7856
 7945SOL    HW124655   5.669   4.250   3.820 -0.7882 -0.4619  0.1849
 7945SOL    HW224656   5.728   4.196   3.677 -1.8873 -1.6333  0.1569
 7946SOL     OW24657   4.142   5.427   3.487 -0.3797  0.2164  0.3989
 7946SOL    HW124658   4.137   5.493   3.562 -2.1317  0.4376  0.1270
 7946SOL    HW224659   4.050   5.393   3.466  0.3397 -1.4820 -0.2199
 7947SOL     OW24660   5.550   3.887   5.818  0.3934  0.2303 -0.1923
 7947SOL    HW124661   5.634   3.888   5.871  0.7432 -0.9588 -0.6858
 7947SOL    HW224662   5.501   3.802   5.834 -0.1313  0.4077 -0.7932
 7948SOL     OW24663   1.591   5.052   0.271 -0.0516  0.1496  0.2643
 7948SOL    HW124664   1.504   5.033   0.316  0.9110 -0.5537  1.8944
 7948SOL    HW224665   1.585   5.024   0.175 -1.5508 -0.0735  0.4014
 7949SOL     OW24666   4.775   3.263   5.097  0.4252 -0.0446  0.3341
 7949SOL    HW124667   4.846   3.193   5.094  0.1849 -0.2747 -0.1331
 7949SOL    HW224668   4.685   3.220   5.090  0.2897  0.3388 -0.4435
 7950SOL     OW24669   1.327   6.698   1.737  0.0367 -0.4536 -0.0865
 7950SOL    HW124670   1.295   6.604   1.738 -1.5894  0.0668 -0.1101
 7950SOL    HW224671   1.262   6.756   1.787  1.7214  0.4527  1.1561
 7951SOL     OW24672   4.135   4.075   6.142 -0.2618  0.6706 -0.0059
 7951SOL    HW124673   4.071   4.128   6.198  1.5431  2.0510  0.8767
 7951SOL    HW224674   4.217   4.130   6.125  0.0835 -0.4695 -2.3779
 7952SOL     OW24675   6.823   3.245   5.328 -0.1419 -0.6754 -0.2263
 7952SOL    HW124676   6.779   3.158   5.351 -1.1292  0.2597  1.6240
 7952SOL    HW224677   6.815   3.261   5.230 -2.2879 -1.4475 -0.2393
 7953SOL     OW24678   0.384   4.952   3.375 -0.1314  0.3285 -0.3705
 7953SOL    HW124679   0.467   5.002   3.355  0.5652 -0.5931  0.1237
 7953SOL    HW224680   0.389   4.915   3.468 -0.7415 -0.4013 -0.6110
 7954SOL     OW24681   4.787   4.911   4.163 -0.0530 -0.1969  0.1388
 7954SOL    HW124682   4.820   4.890   4.255  2.4096  0.3738 -0.5668
 7954SOL    HW224683   4.804   5.007   4.142 -0.4950 -0.3500 -0.9610
 7955SOL     OW24684   1.781   6.101   4.150 -0.5455  0.5161  0.0617
 7955SOL    HW124685   1.785   6.120   4.248 -1.9180  1.3012 -0.0139
 7955SOL    HW224686   1.773   6.186   4.099 -1.6376  0.0307 -0.6169
 7956SOL     OW24687   0.288   5.443   3.441 -0.1776  0.1843 -0.1181
 7956SOL    HW124688   0.198   5.463   3.481 -0.3173  0.5467 -0.6146
 7956SOL    HW224689   0.346   5.401   3.511 -0.7781 -0.1898  0.1697
 7957SOL     OW24690   4.519   2.125   0.071  0.1528  0.5780  0.0406
 7957SOL    HW124691   4.496   2.220   0.051 -1.9754  0.1498  0.2214
 7957SOL    HW224692   4.524   2.112   0.170 -2.6146 -0.0885  0.1562
 7958SOL     OW24693   0.920   1.040   6.341  0.2559  0.0387 -0.1276
 7958SOL    HW124694   0.923   1.125   6.288 -2.7391  1.3000  1.4701
 7958SOL    HW224695   0.994   1.039   6.407  1.1977  0.6822 -1.1432
 7959SOL     OW24696   5.095   6.297   6.628  0.4719 -0.1359 -0.2336
 7959SOL    HW124697   5.027   6.225   6.616 -0.3042  0.5058  0.2443
 7959SOL    HW224698   5.077   6.347   6.713  1.4604  0.1320 -0.1667
 7960SOL     OW24699   0.282   1.662   4.687 -0.2730  0.3897 -0.4191
 7960SOL    HW124700   0.217   1.587   4.699  0.9288 -0.3940  2.0651
 7960SOL    HW224701   0.236   1.749   4.700 -1.2402 -0.0344 -0.9469
 7961SOL     OW24702   3.888   0.350   0.550  0.6672  0.2264  0.0898
 7961SOL    HW124703   3.847   0.321   0.636  2.2549  1.2230  1.2352
 7961SOL    HW224704   3.821   0.341   0.476 -1.1872  0.6398  1.6463
 7962SOL     OW24705   3.253   6.468   1.172  0.3307 -0.4417 -0.0980
 7962SOL    HW124706   3.348   6.457   1.143 -0.3656 -0.0419 -2.7100
 7962SOL    HW224707   3.197   6.394   1.133 -0.7243  0.2555  0.0485
 7963SOL     OW24708   6.095   3.068   3.782  0.0543  0.5350 -0.0542
 7963SOL    HW124709   6.057   3.123   3.857 -0.3435  1.1675 -0.7095
 7963SOL    HW224710   6.061   3.102   3.695 -0.5011 -0.9820 -0.4654
 7964SOL     OW24711   3.801   0.900   1.503  0.6985 -0.0042 -0.5735
 7964SOL    HW124712   3.751   0.818   1.532 -0.7947  1.1477  0.2929
 7964SOL    HW224713   3.855   0.935   1.580  1.8957 -0.5385 -1.1464
 7965SOL     OW24714   5.389   1.284   3.952 -0.1007  0.2238  0.6637
 7965SOL    HW124715   5.389   1.371   3.999 -0.2742 -0.1031  1.2781
 7965SOL    HW224716   5.363   1.211   4.015  0.0711 -0.2797  0.1706
 7966SOL     OW24717   4.315   1.410   6.767 -0.7022  0.1027 -0.0502
 7966SOL    HW124718   4.250   1.415   6.691 -3.5402 -0.3053  2.1971
 7966SOL    HW224719   4.392   1.471   6.749 -1.3562  0.1869 -3.0923
 7967SOL     OW24720   1.386   4.248   3.759 -0.0678  0.0643  0.0361
 7967SOL    HW124721   1.407   4.257   3.856  1.0975  1.3788 -0.2957
 7967SOL    HW224722   1.289   4.228   3.747 -0.0174 -1.2509  1.4958
 7968SOL     OW24723   4.874   2.244   4.990  0.2007 -0.2031 -0.0385
 7968SOL    HW124724   4.814   2.310   4.944  0.8135 -0.0963 -0.7067
 7968SOL    HW224725   4.962   2.287   5.008  0.7078 -0.9270 -0.7416
 7969SOL     OW24726   1.000   0.068   2.329  0.1564 -0.5337  0.6246
 7969SOL    HW124727   1.025   0.073   2.232  0.7054 -0.5854  0.7582
 7969SOL    HW224728   1.084   0.069   2.384 -0.1110 -1.4091  1.0588
 7970SOL     OW24729   3.576   0.256   6.320  0.1710  0.2632  0.1380
 7970SOL    HW124730   3.590   0.342   6.271 -1.7741  0.3357 -0.3630
 7970SOL    HW224731   3.502   0.204   6.277 -0.0631 -0.7210  1.6329
 7971SOL     OW24732   1.441   4.189   4.393  0.2642  0.2561 -0.1934
 7971SOL    HW124733   1.541   4.192   4.396  0.4209 -2.2097 -0.8578
 7971SOL    HW224734   1.412   4.122   4.325 -1.8506  0.0486  0.8363
 7972SOL     OW24735   2.421   1.095   4.389  0.0101 -0.3750  0.1292
 7972SOL    HW124736   2.332   1.139   4.400 -0.5710 -1.3713 -0.4485
 7972SOL    HW224737   2.409   0.995   4.386  1.0077 -0.4831 -1.1555
 7973SOL     OW24738   1.622   4.971   1.409  0.0390 -0.3703 -0.4168
 7973SOL    HW124739   1.655   5.056   1.369  0.2668 -0.3444 -0.1776
 7973SOL    HW224740   1.659   4.961   1.501  0.0097 -0.7275 -0.4426
 7974SOL     OW24741   5.394   6.699   5.107 -0.1274  0.0801  0.0347
 7974SOL    HW124742   5.375   6.610   5.149  0.1026 -0.8418 -1.6972
 7974SOL    HW224743   5.486   6.728   5.131 -0.7477  0.6480  1.8883
 7975SOL     OW24744   0.862   4.678   0.270  0.1711 -0.9578 -0.5998
 7975SOL    HW124745   0.911   4.690   0.356  0.0396 -0.1763 -0.6341
 7975SOL    HW224746   0.915   4.617   0.211  0.6046 -0.9378 -0.2406
 7976SOL     OW24747   1.460   2.946   4.546 -0.0881 -0.1088  0.9958
 7976SOL    HW124748   1.505   2.857   4.547 -0.2876 -0.2650 -0.5752
 7976SOL    HW224749   1.520   3.013   4.500 -1.7178 -0.5389 -2.0107
 7977SOL     OW24750   2.468   0.601   0.419 -0.3157  0.1596 -0.3312
 7977SOL    HW124751   2.386   0.637   0.463 -0.9260 -0.5106 -0.8861
 7977SOL    HW224752   2.507   0.528   0.475 -1.7531 -1.5000 -1.3687
 7978SOL     OW24753   1.258   3.575   2.803 -0.9786 -0.0985 -0.1221
 7978SOL    HW124754   1.330   3.527   2.853 -0.4566 -0.1784 -0.9222
 7978SOL    HW224755   1.176   3.518   2.800 -0.9906 -0.1279  0.5557
 7979SOL     OW24756   2.333   1.316   3.164  0.2152 -0.3832  0.0680
 7979SOL    HW124757   2.256   1.360   3.211 -0.9129 -0.5796 -1.5125
 7979SOL    HW224758   2.388   1.386   3.117  0.0443 -0.3946 -0.1502
 7980SOL     OW24759   6.612   2.006   3.756  0.4254  0.0131 -0.0747
 7980SOL    HW124760   6.572   2.085   3.802  0.0779  0.1539 -0.6158
 7980SOL    HW224761   6.622   1.931   3.822  0.4636  0.4002  0.3637
 7981SOL     OW24762   3.613   0.262   2.135 -0.2783  0.1970  0.1829
 7981SOL    HW124763   3.679   0.331   2.106 -2.5113  1.2150 -2.9933
 7981SOL    HW224764   3.649   0.171   2.113  0.4914  0.6707 -0.5874
 7982SOL     OW24765   4.718   2.436   0.394  0.0795  0.0782  0.1030
 7982SOL    HW124766   4.643   2.500   0.414 -0.2774 -0.6728  1.2364
 7982SOL    HW224767   4.778   2.428   0.474  0.1428 -0.9695 -0.0343
 7983SOL     OW24768   2.589   0.441   2.031 -0.4362  0.1489 -0.1052
 7983SOL    HW124769   2.578   0.538   2.013  1.2677  0.8099  1.9162
 7983SOL    HW224770   2.615   0.393   1.947 -0.0134  1.6863 -0.8731
 7984SOL     OW24771   6.852   2.599   2.860 -0.1604  0.0004  0.2508
 7984SOL    HW124772   6.905   2.654   2.796 -0.1324  0.9371  1.0597
 7984SOL    HW224773   6.837   2.650   2.944 -2.1332 -0.3318  0.1533
 7985SOL     OW24774   0.371   2.565   3.714 -0.0582 -0.4402 -0.3694
 7985SOL    HW124775   0.385   2.619   3.796  0.1358 -0.6511 -0.2617
 7985SOL    HW224776   0.401   2.618   3.634 -3.0912  1.0136 -0.6779
 7986SOL     OW24777   1.802   1.066   4.634 -0.2821  0.2084 -0.1594
 7986SOL    HW124778   1.810   0.996   4.564 -0.3863  1.3426 -1.3482
 7986SOL    HW224779   1.755   1.029   4.714  2.1387 -1.8875  0.4113
 7987SOL     OW24780   5.951   3.567   5.419  0.0005  0.4291 -0.0060
 7987SOL    HW124781   5.992   3.615   5.497  0.8536 -0.7820  0.3173
 7987SOL    HW224782   5.999   3.480   5.404 -1.1510 -0.0751 -0.9175
 7988SOL     OW24783   2.000   0.044   2.842 -0.0650 -0.1244  0.9141
 7988SOL    HW124784   1.988   0.115   2.911  3.5136  0.8494  0.7028
 7988SOL    HW224785   2.063   0.076   2.772 -2.7567 -1.4707 -2.3737
 7989SOL     OW24786   2.749   6.563   1.418  0.6207 -0.2362  0.4517
 7989SOL    HW124787   2.739   6.582   1.320  0.7932 -1.3323  0.2049
 7989SOL    HW224788   2.809   6.484   1.430  1.6013  0.6403  1.5087
 7990SOL     OW24789   4.304   3.157   3.044  0.5927 -0.0419  0.6157
 7990SOL    HW124790   4.384   3.120   2.997  0.1523  2.2917 -2.3170
 7990SOL    HW224791   4.232   3.088   3.046  0.9836 -0.5877 -1.4101
 7991SOL     OW24792   6.269   6.950   1.801 -0.3681 -0.1402  0.2863
 7991SOL    HW124793   6.202   6.893   1.848 -1.8545  0.3764 -1.0957
 7991SOL    HW224794   6.296   7.026   1.860  1.1015 -1.7927  1.8716
 7992SOL     OW24795   2.078   2.820   1.626 -0.3514  0.5888  0.4436
 7992SOL    HW124796   2.017   2.868   1.564 -0.2181 -1.6807 -1.6090
 7992SOL    HW224797   2.173   2.836   1.599 -0.3199 -3.1696 -2.4621
 7993SOL     OW24798   1.053   6.426   0.497  0.1431  0.1794 -0.1084
 7993SOL    HW124799   1.137   6.408   0.548  0.1281  0.2615 -0.0542
 7993SOL    HW224800   1.070   6.411   0.399 -0.2849 -1.6515  0.0655
 7994SOL     OW24801   4.785   4.615   4.035  0.4263  0.2607 -0.5474
 7994SOL    HW124802   4.697   4.572   4.056  0.8415 -0.1774  0.3421
 7994SOL    HW224803   4.792   4.702   4.085 -0.1543  1.1068 -1.8653
 7995SOL     OW24804   1.399   0.874   0.541 -0.2807 -0.1375 -0.0025
 7995SOL    HW124805   1.456   0.925   0.606  0.1368  0.2255 -0.6352
 7995SOL    HW224806   1.334   0.818   0.591  0.1207  0.0284  0.7314
 7996SOL     OW24807   3.877   0.369   2.738 -0.1066 -0.1502 -0.0710
 7996SOL    HW124808   3.930   0.311   2.675  0.6193  1.9042 -1.4900
 7996SOL    HW224809   3.940   0.412   2.803 -0.2657  0.9418 -0.6305
 7997SOL     OW24810   5.687   6.297   0.136  0.1536 -0.3112 -0.4383
 7997SOL    HW124811   5.626   6.367   0.175 -0.3407  0.1820 -2.0288
 7997SOL    HW224812   5.776   6.337   0.117 -0.6610  0.4848 -3.0440
 7998SOL     OW24813   0.577   4.037   5.581  0.3720 -0.5348  0.3534
 7998SOL    HW124814   0.664   4.055   5.535  0.0362 -0.5025 -0.2796
 7998SOL    HW224815   0.502   4.072   5.526 -0.0977 -1.3152  0.4839
 7999SOL     OW24816   2.784   1.813   0.742 -0.6493 -0.3835  0.2972
 7999SOL    HW124817   2.755   1.718   0.733 -1.9818 -0.0390  0.7156
 7999SOL    HW224818   2.868   1.828   0.690 -1.8315 -1.1546 -1.9411
 8000SOL     OW24819   1.372   1.992   3.479 -0.0035  0.3116 -0.0563
 8000SOL    HW124820   1.375   1.953   3.571 -0.9144 -0.2500 -0.2550
 8000SOL    HW224821   1.406   1.926   3.413 -0.9476  0.0724 -0.3178
 8001SOL     OW24822   5.153   4.975   4.756  0.2963 -0.1545 -0.1630
 8001SOL    HW124823   5.252   4.984   4.740  0.3394  1.2856  0.6471
 8001SOL    HW224824   5.104   4.994   4.672  0.6731  1.3648 -0.0792
 8002SOL     OW24825   5.424   4.333   4.339 -0.0883 -0.2271  0.0301
 8002SOL    HW124826   5.504   4.279   4.312  1.4122  1.9931 -0.2360
 8002SOL    HW224827   5.451   4.405   4.403 -2.3206 -0.7851  1.7523
 8003SOL     OW24828   2.456   5.900   5.449 -0.1474  1.0134  0.4300
 8003SOL    HW124829   2.451   5.932   5.544  0.4174  1.8265  0.1967
 8003SOL    HW224830   2.364   5.876   5.417 -0.1173 -1.1896  1.8027
 8004SOL     OW24831   4.077   1.088   2.768 -0.6978 -0.5144 -0.1115
 8004SOL    HW124832   4.082   1.098   2.669  1.7088 -0.9697 -0.0882
 8004SOL    HW224833   4.080   1.178   2.811  2.1463 -0.3772 -0.4128
 8005SOL     OW24834   3.373   1.815   1.981  0.6792 -0.0288  0.3701
 8005SOL    HW124835   3.328   1.836   1.894  1.3069  0.2419  0.1112
 8005SOL    HW224836   3.378   1.897   2.037  2.6358  0.4262 -0.4183
 8006SOL     OW24837   3.735   4.257   1.220 -0.1186 -0.3420  0.0265
 8006SOL    HW124838   3.792   4.221   1.294 -1.0343 -0.7058  0.5860
 8006SOL    HW224839   3.708   4.351   1.241 -0.9947 -0.6956  0.5469
 8007SOL     OW24840   1.136   5.863   1.977  0.4018  0.4118 -0.1012
 8007SOL    HW124841   1.070   5.818   1.917  0.5492 -2.9287  2.0067
 8007SOL    HW224842   1.089   5.899   2.057  0.8189  0.2515  0.2215
 8008SOL     OW24843   4.947   4.441   4.402  0.2937  0.0325 -0.0943
 8008SOL    HW124844   4.917   4.536   4.395  0.2811  0.0675  0.4084
 8008SOL    HW224845   5.045   4.434   4.383  0.7290  0.4388  1.7934
 8009SOL     OW24846   0.289   3.933   4.536 -0.1338 -0.3897 -0.4222
 8009SOL    HW124847   0.201   3.898   4.503  1.2572 -4.5141 -0.2979
 8009SOL    HW224848   0.278   3.973   4.627 -2.4434  3.0116 -1.9840
 8010SOL     OW24849   1.092   0.980   0.415  0.3971 -0.6302  0.4461
 8010SOL    HW124850   1.163   0.967   0.485  0.6678 -2.4039 -0.1153
 8010SOL    HW224851   1.101   1.071   0.375  2.1266 -0.6755  0.6508
 8011SOL     OW24852   6.997   3.331   6.205  0.3308 -0.5325  0.2280
 8011SOL    HW124853   6.949   3.277   6.275  1.7905 -1.0017  0.9112
 8011SOL    HW224854   7.083   3.285   6.182  0.5443  0.3757 -0.8367
 8012SOL     OW24855   0.101   0.714   5.308  0.8156  0.5801  0.6396
 8012SOL    HW124856   0.097   0.616   5.287 -4.4103  0.8774 -1.1525
 8012SOL    HW224857   0.161   0.760   5.242 -1.5751 -0.8017 -2.7855
 8013SOL     OW24858   2.839   3.400   3.708 -0.1628  0.1853 -0.1791
 8013SOL    HW124859   2.776   3.323   3.704 -1.0651  0.9018 -0.0985
 8013SOL    HW224860   2.892   3.396   3.793 -0.6956  0.0233  0.1513
 8014SOL     OW24861   4.705   0.606   5.029  0.0152  0.7924 -0.0868
 8014SOL    HW124862   4.776   0.658   5.076  0.5503  0.0734 -0.0885
 8014SOL    HW224863   4.650   0.668   4.973  1.1626  1.2466 -0.7452
 8015SOL     OW24864   0.190   1.950   6.932 -0.7953 -0.3608  0.3404
 8015SOL    HW124865   0.142   1.951   7.020 -0.0148  0.9162  0.7820
 8015SOL    HW224866   0.212   2.044   6.905  2.1846 -0.8817  0.5991
 8016SOL     OW24867   1.658   4.658   4.067 -0.0548 -0.7482  0.3648
 8016SOL    HW124868   1.587   4.609   4.118 -0.6727 -0.0634  0.1716
 8016SOL    HW224869   1.618   4.737   4.022  0.5841 -1.0490 -0.7657
 8017SOL     OW24870   0.499   6.167   6.059 -0.1837 -0.3305  0.6026
 8017SOL    HW124871   0.593   6.185   6.087 -0.2187 -0.6527  0.9340
 8017SOL    HW224872   0.470   6.236   5.992  1.1561 -1.6932 -1.4907
 8018SOL     OW24873   1.447   3.467   1.459  0.2410 -0.9823  0.2817
 8018SOL    HW124874   1.520   3.532   1.437 -0.9500 -0.0064 -0.9861
 8018SOL    HW224875   1.487   3.378   1.482  1.9158  0.1039  1.9097
 8019SOL     OW24876   0.642   4.610   3.802  0.3386 -0.6782 -0.4787
 8019SOL    HW124877   0.722   4.665   3.826 -0.6717  1.0422 -0.9734
 8019SOL    HW224878   0.560   4.666   3.803 -0.8222 -2.2927 -0.5255
 8020SOL     OW24879   5.734   2.954   0.919  0.5014 -0.7489  0.0885
 8020SOL    HW124880   5.680   3.023   0.870  0.1111 -1.8552 -1.1161
 8020SOL    HW224881   5.797   2.910   0.854  1.2301 -1.0436  0.9819
 8021SOL     OW24882   3.254   5.404   6.025  0.3112  0.2127 -0.5063
 8021SOL    HW124883   3.238   5.499   6.000  1.0014 -0.3894 -3.7172
 8021SOL    HW224884   3.344   5.375   5.990 -0.0069 -1.6955  0.1258
 8022SOL     OW24885   4.040   0.699   4.565 -0.2526  0.5193 -0.4632
 8022SOL    HW124886   3.997   0.618   4.606 -0.2875  0.2488 -1.0219
 8022SOL    HW224887   4.064   0.764   4.637 -3.7414  1.7724 -0.2527
 8023SOL     OW24888   5.525   4.659   2.290  0.3160  0.0583 -0.2031
 8023SOL    HW124889   5.512   4.562   2.268  0.2978  0.2010 -0.8216
 8023SOL    HW224890   5.565   4.706   2.212  2.4616  0.1027  0.8441
 8024SOL     OW24891   6.893   4.014   2.673  0.5877 -0.1167 -0.2884
 8024SOL    HW124892   6.955   3.971   2.738 -0.7037  0.2794  1.2533
 8024SOL    HW224893   6.830   3.946   2.636 -0.3041  0.0870  0.8082
 8025SOL     OW24894   3.119   6.772   3.132  0.5663 -0.3720 -0.2390
 8025SOL    HW124895   3.178   6.849   3.157 -1.4473  1.7098 -1.5346
 8025SOL    HW224896   3.043   6.805   3.077 -2.1861 -2.8214  1.8039
 8026SOL     OW24897   5.438   4.003   5.483  0.0775  1.3024 -0.4676
 8026SOL    HW124898   5.476   3.911   5.475 -0.7379  0.8286  0.7887
 8026SOL    HW224899   5.509   4.070   5.461  1.2234  0.4223  0.3947
 8027SOL     OW24900   5.160   5.019   2.959 -0.2612  0.0710 -0.1379
 8027SOL    HW124901   5.138   5.029   2.862  0.2730 -0.1854 -0.2895
 8027SOL    HW224902   5.093   4.958   3.002  0.5213 -1.2648 -0.7488
 8028SOL     OW24903   1.583   5.196   2.385  0.3590  0.2947  0.0780
 8028SOL    HW124904   1.606   5.125   2.452 -0.0547  1.0129  1.0126
 8028SOL    HW224905   1.484   5.196   2.370  0.4109  0.3761 -0.2612
 8029SOL     OW24906   4.078   2.019   6.422 -0.4585  0.6398  0.2818
 8029SOL    HW124907   4.089   1.964   6.505 -1.0591  0.3680  0.1893
 8029SOL    HW224908   4.163   2.020   6.370 -0.0773  0.8141  0.9042
 8030SOL     OW24909   6.017   0.456   5.354 -0.5928 -0.0984 -0.1210
 8030SOL    HW124910   6.035   0.376   5.411 -3.8397 -1.2773 -0.4847
 8030SOL    HW224911   6.008   0.427   5.259 -1.7272  0.6470 -0.2695
 8031SOL     OW24912   2.781   2.986   0.584  0.0058 -0.1715  0.1442
 8031SOL    HW124913   2.698   2.936   0.608 -0.6189  0.6231 -0.3027
 8031SOL    HW224914   2.835   3.001   0.667 -0.6310 -0.1069  0.5576
 8032SOL     OW24915   6.262   3.954   2.919 -0.0420  0.2582 -0.1097
 8032SOL    HW124916   6.253   4.040   2.970  0.1597  0.6385 -0.7006
 8032SOL    HW224917   6.358   3.937   2.899  0.1033 -1.0222  1.5219
 8033SOL     OW24918   6.257   6.410   0.506 -0.8053 -0.2600 -0.2397
 8033SOL    HW124919   6.230   6.330   0.452  1.4343 -0.4052 -1.2599
 8033SOL    HW224920   6.205   6.490   0.476 -2.0748 -1.0349 -0.1677
 8034SOL     OW24921   2.939   3.005   3.623  0.0084 -0.2282 -0.3260
 8034SOL    HW124922   2.902   3.028   3.533 -2.6442  2.1910  1.2063
 8034SOL    HW224923   2.883   2.932   3.664 -0.4677  0.4827  0.3287
 8035SOL     OW24924   5.217   4.737   3.641 -0.6286 -0.3222 -0.0335
 8035SOL    HW124925   5.284   4.810   3.633 -1.7318  0.6326 -0.7117
 8035SOL    HW224926   5.226   4.675   3.562 -0.8040  0.0172 -0.3204
 8036SOL     OW24927   4.053   1.442   3.986 -0.1584 -0.1343  0.6556
 8036SOL    HW124928   4.038   1.364   4.047  0.9953 -0.1809  0.8908
 8036SOL    HW224929   4.143   1.434   3.943 -0.6840  0.2433 -0.5548
 8037SOL     OW24930   4.573   2.269   4.854 -0.1826 -0.4723  0.9305
 8037SOL    HW124931   4.535   2.243   4.943  1.0059 -0.8721  1.3478
 8037SOL    HW224932   4.535   2.209   4.784 -0.8529 -0.3993  1.2256
 8038SOL     OW24933   0.096   3.947   5.490 -0.0612  0.2887  0.0370
 8038SOL    HW124934   0.181   3.910   5.451 -1.4560  0.2126 -3.2525
 8038SOL    HW224935   0.116   4.033   5.536  1.7890  0.4964 -1.0277
 8039SOL     OW24936   1.317   3.296   6.285  0.0878 -0.2520 -0.0704
 8039SOL    HW124937   1.263   3.350   6.221 -0.7928 -0.1654  0.7126
 8039SOL    HW224938   1.377   3.355   6.338  2.6567 -0.5595 -2.4430
 8040SOL     OW24939   5.200   1.225   5.104  0.4749  0.3134 -0.2729
 8040SOL    HW124940   5.207   1.244   5.006 -1.1781 -1.3549 -0.7607
 8040SOL    HW224941   5.270   1.159   5.131 -0.1537 -0.5504 -0.7198
 8041SOL     OW24942   4.520   2.671   2.767  0.8822  0.3117 -0.0449
 8041SOL    HW124943   4.617   2.653   2.748  1.2317  0.2256  1.6336
 8041SOL    HW224944   4.512   2.729   2.848 -0.4786 -0.5619  0.4906
 8042SOL     OW24945   0.575   6.634   4.551 -0.6399 -0.5353  0.0458
 8042SOL    HW124946   0.628   6.717   4.572 -1.3296 -0.0878  0.0348
 8042SOL    HW224947   0.606   6.559   4.609  0.0839 -0.3115 -0.0353
 8043SOL     OW24948   6.573   4.014   1.756 -0.0205  0.3250 -0.0960
 8043SOL    HW124949   6.644   4.050   1.816  1.3653  0.1902 -1.6002
 8043SOL    HW224950   6.513   4.088   1.727  1.6774  1.1632 -1.6535
 8044SOL     OW24951   6.232   3.086   2.724 -0.2363  0.0318 -0.4487
 8044SOL    HW124952   6.218   3.117   2.817  0.9110  0.1272 -0.2838
 8044SOL    HW224953   6.145   3.058   2.684 -0.8879  0.9724  0.2860
 8045SOL     OW24954   2.718   5.151   6.172  0.1452 -0.1280  0.2667
 8045SOL    HW124955   2.764   5.148   6.260  0.6613  1.2943  0.0650
 8045SOL    HW224956   2.680   5.242   6.157 -0.2856 -0.4689 -0.8080
 8046SOL     OW24957   2.228   6.635   5.999  0.5198  0.4056 -0.2565
 8046SOL    HW124958   2.142   6.674   5.966  0.9351 -0.5605 -2.7353
 8046SOL    HW224959   2.218   6.536   6.006  1.6630  0.1893 -1.4549
 8047SOL     OW24960   0.857   0.203   1.418 -0.2291 -0.0373  0.2023
 8047SOL    HW124961   0.827   0.267   1.347 -0.2986  1.6164  1.6452
 8047SOL    HW224962   0.799   0.215   1.499 -0.1395 -1.8597  0.5708
 8048SOL     OW24963   3.767   0.938   5.552 -0.4110  0.2432  0.4288
 8048SOL    HW124964   3.798   0.953   5.646  1.3008 -0.1721 -0.0214
 8048SOL    HW224965   3.674   0.903   5.552 -0.2069 -0.3615  2.0079
 8049SOL     OW24966   1.631   4.943   2.460 -0.3857  0.2415 -0.2717
 8049SOL    HW124967   1.711   4.906   2.506 -0.9995 -0.0736  0.5751
 8049SOL    HW224968   1.580   4.869   2.416 -1.7715 -0.0528  1.6659
 8050SOL     OW24969   2.781   2.929   3.388  0.1958  0.7988 -0.7863
 8050SOL    HW124970   2.757   2.835   3.364  0.4010  0.4544  0.3378
 8050SOL    HW224971   2.699   2.986   3.382 -0.3580  0.1550  0.4194
 8051SOL     OW24972   2.162   0.797   4.128  0.1766  0.4460 -0.0972
 8051SOL    HW124973   2.071   0.833   4.149 -0.7131 -2.2711  1.1129
 8051SOL    HW224974   2.225   0.821   4.201  0.1628  1.3394 -0.3668
 8052SOL     OW24975   0.385   6.632   2.927 -0.5077 -0.3359  0.0326
 8052SOL    HW124976   0.329   6.637   3.010 -0.6246 -2.2879  0.1179
 8052SOL    HW224977   0.481   6.652   2.951 -0.9320  1.9202  0.0788
 8053SOL     OW24978   1.847   3.630   5.510  0.1927  0.2615  0.0794
 8053SOL    HW124979   1.832   3.549   5.453  1.4706 -0.5776  0.8920
 8053SOL    HW224980   1.866   3.602   5.604  1.7855  1.4187  0.1469
 8054SOL     OW24981   1.087   5.656   0.055 -0.3442  0.4173  0.1404
 8054SOL    HW124982   1.155   5.627   0.123 -0.9438 -1.6068 -0.0767
 8054SOL    HW224983   1.067   5.753   0.069  2.1847  0.9632  0.5377
 8055SOL     OW24984   5.332   2.561   4.659 -0.1634 -0.2381  0.6830
 8055SOL    HW124985   5.372   2.470   4.649  1.6674  0.4385  1.3735
 8055SOL    HW224986   5.405   2.628   4.676 -1.5066  1.2816  0.7284
 8056SOL     OW24987   4.543   2.534   6.010  0.4763  0.2194 -0.0795
 8056SOL    HW124988   4.544   2.458   6.074  0.3007  0.7924  0.6067
 8056SOL    HW224989   4.612   2.517   5.939 -0.4830 -1.2273 -0.7303
 8057SOL     OW24990   1.668   6.673   6.968 -0.3294  0.5766 -0.6318
 8057SOL    HW124991   1.748   6.686   6.910 -0.1829  1.4006 -0.2657
 8057SOL    HW224992   1.610   6.754   6.964 -1.2014 -0.0414 -0.9567
 8058SOL     OW24993   6.163   2.689   5.876  0.0315  0.2930 -0.2469
 8058SOL    HW124994   6.173   2.776   5.925  0.9858  0.7084 -1.1532
 8058SOL    HW224995   6.140   2.617   5.942 -1.2787  1.3002  0.4545
 8059SOL     OW24996   3.943   3.841   0.616 -0.4850  0.5492 -0.1467
 8059SOL    HW124997   3.864   3.880   0.568 -0.6664 -0.3760 -0.6396
 8059SOL    HW224998   3.914   3.808   0.706 -0.4670  0.9938  0.0220
 8060SOL     OW24999   6.427   5.480   4.207  0.8567  0.0778  0.2736
 8060SOL    HW125000   6.425   5.548   4.281  0.7700  0.0259  0.3186
 8060SOL    HW225001   6.451   5.391   4.245  0.7190  0.0321  0.2552
 8061SOL     OW25002   0.900   4.147   5.878  0.1977  0.8136  0.1608
 8061SOL    HW125003   0.959   4.167   5.956  0.5235  1.4827 -0.2419
 8061SOL    HW225004   0.950   4.089   5.813 -0.8282 -1.6399  1.4386
 8062SOL     OW25005   2.118   0.133   1.212  0.0831  0.2154 -0.0682
 8062SOL    HW125006   2.042   0.160   1.270 -0.1238  0.1098 -0.2859
 8062SOL    HW225007   2.127   0.199   1.137 -1.1049 -0.8643 -1.2156
 8063SOL     OW25008   6.065   3.287   2.309  0.4668  0.8890  0.2575
 8063SOL    HW125009   6.013   3.368   2.335  0.3466  1.1211 -0.6892
 8063SOL    HW225010   6.140   3.274   2.373 -1.1575  0.1182  2.1313
 8064SOL     OW25011   2.779   0.112   5.909 -0.6128  0.8387  0.6377
 8064SOL    HW125012   2.797   0.022   5.950 -0.2284  1.1714  1.2021
 8064SOL    HW225013   2.847   0.131   5.838 -0.9350  0.5154  0.2331
 8065SOL     OW25014   6.943   1.992   3.622 -0.2880 -0.3369 -0.7172
 8065SOL    HW125015   6.961   1.967   3.717 -3.6953  2.0701  0.7585
 8065SOL    HW225016   6.890   1.919   3.579  1.4430 -1.5332 -0.9455
 8066SOL     OW25017   6.059   2.810   0.520 -0.1475 -0.1817 -0.4844
 8066SOL    HW125018   6.062   2.817   0.420 -0.9095  0.0356 -0.5030
 8066SOL    HW225019   6.144   2.770   0.554  0.7118  1.0367 -1.1118
 8067SOL     OW25020   0.272   0.925   5.241  0.0159  0.3883 -0.3423
 8067SOL    HW125021   0.294   0.961   5.150 -0.4010  0.7026 -0.3207
 8067SOL    HW225022   0.198   0.979   5.281 -1.2593 -1.0323 -0.6808
 8068SOL     OW25023   0.148   5.780   0.851 -0.0247 -0.4895  0.4064
 8068SOL    HW125024   0.184   5.843   0.919  1.9606 -1.4696  0.3470
 8068SOL    HW225025   0.077   5.723   0.892  1.3641 -1.2877  1.8298
 8069SOL     OW25026   4.415   3.560   4.576  0.1372  0.5683  0.0720
 8069SOL    HW125027   4.373   3.650   4.563  1.0477  1.2347  1.4545
 8069SOL    HW225028   4.504   3.558   4.530  1.7678  1.7154  2.8749
 8070SOL     OW25029   2.457   6.143   0.166  0.1134  0.2098  0.1473
 8070SOL    HW125030   2.489   6.199   0.089 -0.7630  1.5086  0.6912
 8070SOL    HW225031   2.390   6.077   0.133 -0.0201  0.5379 -0.2481
 8071SOL     OW25032   6.290   1.357   2.132 -0.1869  0.3383  0.0515
 8071SOL    HW125033   6.268   1.384   2.038  0.9019  0.0623 -0.3012
 8071SOL    HW225034   6.354   1.423   2.171  0.0049  0.0020  0.3110
 8072SOL     OW25035   6.284   1.187   0.533 -0.1681 -0.2407 -0.3869
 8072SOL    HW125036   6.254   1.216   0.442  0.9872  0.5163 -0.5593
 8072SOL    HW225037   6.205   1.178   0.593 -1.0242 -1.4584 -1.6406
 8073SOL     OW25038   2.085   2.682   2.750 -0.3235  0.1684 -0.0995
 8073SOL    HW125039   2.170   2.713   2.791 -0.3007 -2.3624  2.0830
 8073SOL    HW225040   2.097   2.670   2.652  1.2537  1.5219 -0.1066
 8074SOL     OW25041   4.810   3.331   6.147 -0.1474  0.2332  0.0245
 8074SOL    HW125042   4.735   3.298   6.090 -1.6187  0.2166  1.9114
 8074SOL    HW225043   4.794   3.426   6.172 -0.4450 -0.2636  1.8338
 8075SOL     OW25044   6.080   0.758   0.541  0.3579  0.7755  0.5150
 8075SOL    HW125045   6.072   0.682   0.476  3.2687  1.7377 -1.1396
 8075SOL    HW225046   6.173   0.763   0.576  1.2661  5.2693 -1.7818
 8076SOL     OW25047   0.630   1.896   4.597  0.2224  0.6152  0.4319
 8076SOL    HW125048   0.596   1.802   4.596  0.3960  0.5485  0.6954
 8076SOL    HW225049   0.556   1.959   4.576  0.0157  0.4453  0.6491
 8077SOL     OW25050   2.964   6.728   1.869  0.3063  0.8314  0.2598
 8077SOL    HW125051   2.903   6.722   1.789 -1.1026 -0.4928  1.3682
 8077SOL    HW225052   2.908   6.741   1.951  1.5933  0.4029  1.2237
 8078SOL     OW25053   1.584   5.633   0.023 -0.1455 -0.4895 -0.1922
 8078SOL    HW125054   1.595   5.711  -0.039 -0.3235 -0.4123 -0.1270
 8078SOL    HW225055   1.673   5.592   0.042  0.0593  0.2689  0.5107
 8079SOL     OW25056   6.480   5.445   0.186 -0.8538  0.4729  0.2656
 8079SOL    HW125057   6.537   5.519   0.149  0.1730  0.3608  1.5521
 8079SOL    HW225058   6.418   5.413   0.115  1.0330  0.2444 -1.3924
 8080SOL     OW25059   5.264   3.050   5.442 -0.2612  0.8185 -0.5340
 8080SOL    HW125060   5.334   3.084   5.380 -0.3977  2.5774  0.2065
 8080SOL    HW225061   5.176   3.093   5.419 -0.4049  1.1406  0.5563
 8081SOL     OW25062   4.442   0.778   1.049 -0.1507 -0.2963  0.4864
 8081SOL    HW125063   4.463   0.863   1.000 -1.1123  0.8844  2.0234
 8081SOL    HW225064   4.345   0.757   1.038  0.3949 -2.2563 -1.3749
 8082SOL     OW25065   1.836   0.280   5.736 -0.0364  0.2278 -0.1212
 8082SOL    HW125066   1.776   0.351   5.699 -0.9478 -0.0126  0.8533
 8082SOL    HW225067   1.852   0.297   5.833  0.4158 -0.4365 -0.0736
 8083SOL     OW25068   6.547   5.586   6.339 -0.1877 -0.0937 -0.8234
 8083SOL    HW125069   6.502   5.671   6.313 -0.4832  0.0968  0.2825
 8083SOL    HW225070   6.599   5.551   6.261 -0.3383  0.9133 -1.3898
 8084SOL     OW25071   1.054   2.319   6.346 -0.2888  0.2472  0.8228
 8084SOL    HW125072   0.959   2.349   6.339  0.0617  1.1960 -0.2038
 8084SOL    HW225073   1.109   2.390   6.388  0.2210  0.3060  0.0800
 8085SOL     OW25074   1.107   2.000   4.553  0.1472 -0.1122  0.1694
 8085SOL    HW125075   1.040   1.948   4.605  0.4654 -0.3758  0.3150
 8085SOL    HW225076   1.161   1.938   4.497 -0.5914  0.2181 -0.9498
 8086SOL     OW25077   5.478   1.132   3.550 -0.1504 -0.7952 -0.0336
 8086SOL    HW125078   5.475   1.217   3.602 -0.3102 -0.3516 -0.7551
 8086SOL    HW225079   5.470   1.152   3.452  5.1062 -1.1504 -0.7834
 8087SOL     OW25080   5.735   5.666   5.967 -0.4187  0.5273 -0.3886
 8087SOL    HW125081   5.660   5.616   5.924  0.3211 -0.4252 -0.5921
 8087SOL    HW225082   5.810   5.676   5.902 -0.5704  1.9998 -0.3899
 8088SOL     OW25083   4.663   1.547   6.334  0.5286 -0.2711 -0.0909
 8088SOL    HW125084   4.704   1.524   6.422 -1.2870 -0.7978  0.6683
 8088SOL    HW225085   4.724   1.607   6.283  2.3512 -1.2588  0.8167
 8089SOL     OW25086   3.540   4.556   1.062  0.4164  0.3648 -0.5819
 8089SOL    HW125087   3.629   4.602   1.056  0.1032  0.9621 -0.7817
 8089SOL    HW225088   3.486   4.576   0.979  0.3026 -0.4344 -0.7059
 8090SOL     OW25089   4.452   6.775   3.763  0.2184  0.0327 -0.0786
 8090SOL    HW125090   4.532   6.728   3.801 -1.9122 -3.5177  0.4926
 8090SOL    HW225091   4.408   6.829   3.835  0.3061 -0.6291  0.4763
 8091SOL     OW25092   6.963   3.752   0.159 -0.0818  0.4846  0.1955
 8091SOL    HW125093   7.053   3.709   0.150 -1.1951 -2.8361  2.5185
 8091SOL    HW225094   6.954   3.825   0.092  4.0239  0.5113 -0.6111
 8092SOL     OW25095   1.724   5.942   2.586 -0.5755 -0.3608 -0.3694
 8092SOL    HW125096   1.746   5.998   2.506 -1.2679  0.6073  0.1035
 8092SOL    HW225097   1.808   5.903   2.623 -0.2117 -0.6024 -1.3903
 8093SOL     OW25098   4.972   1.337   4.383 -0.0372 -0.5766 -0.2159
 8093SOL    HW125099   4.923   1.348   4.469 -0.8048  0.7450 -0.7913
 8093SOL    HW225100   4.950   1.413   4.322  0.3178 -1.5772 -1.6585
 8094SOL     OW25101   1.025   4.261   3.915  0.2577  0.4011  0.1176
 8094SOL    HW125102   0.929   4.238   3.932  0.5593 -0.4519  0.7958
 8094SOL    HW225103   1.083   4.198   3.967  1.1873  0.7539 -0.4763
 8095SOL     OW25104   1.376   5.079   5.573  0.0871 -0.0896 -0.6876
 8095SOL    HW125105   1.394   5.138   5.495 -0.4179  1.5468  0.3722
 8095SOL    HW225106   1.290   5.030   5.560 -0.0067  0.1971 -1.1412
 8096SOL     OW25107   0.026   2.004   2.200  0.0613  0.0414  0.6139
 8096SOL    HW125108   0.080   2.049   2.271 -1.1008 -1.3174  2.4921
 8096SOL    HW225109   0.086   1.948   2.143  1.6345  4.1370 -2.1688
 8097SOL     OW25110   2.369   1.126   5.640 -0.3560  0.4527  0.5874
 8097SOL    HW125111   2.406   1.034   5.647 -1.7497 -0.3930 -1.8031
 8097SOL    HW225112   2.307   1.143   5.717  0.0589 -0.5090  1.1500
 8098SOL     OW25113   1.494   0.289   6.834 -0.1453  0.4675  0.2859
 8098SOL    HW125114   1.534   0.233   6.761 -0.7505 -0.0558  0.3382
 8098SOL    HW225115   1.506   0.242   6.922 -0.7903  0.3374  0.3097
 8099SOL     OW25116   0.479   3.783   3.575  0.4870  0.0002 -0.2232
 8099SOL    HW125117   0.475   3.841   3.494  0.4321  0.5170  0.1375
 8099SOL    HW225118   0.430   3.829   3.650 -0.1492 -0.8223 -0.1170
 8100SOL     OW25119   1.264   4.057   5.205 -0.2264 -0.4425  0.4371
 8100SOL    HW125120   1.251   3.966   5.165  1.9169 -0.8794  0.6233
 8100SOL    HW225121   1.357   4.065   5.240 -1.0509  1.0623  2.4542
 8101SOL     OW25122   3.055   1.442   2.257  0.7735  0.4374  0.1760
 8101SOL    HW125123   3.117   1.517   2.234  2.4388 -1.4902 -2.1821
 8101SOL    HW225124   3.015   1.404   2.173 -1.1954 -0.3772  1.4134
 8102SOL     OW25125   6.632   2.930   3.261 -0.3488  0.3163  0.3483
 8102SOL    HW125126   6.575   2.989   3.204 -0.3976 -1.0022 -1.0242
 8102SOL    HW225127   6.725   2.925   3.222 -0.2600 -0.2521  0.6189
 8103SOL     OW25128   2.158   0.291   1.870  0.1158 -0.1686  0.5000
 8103SOL    HW125129   2.115   0.201   1.874  0.2391 -0.2044  1.0449
 8103SOL    HW225130   2.225   0.299   1.943 -1.4919  1.1854  1.9243
 8104SOL     OW25131   5.874   6.817   4.680 -0.2388 -0.3416 -0.3804
 8104SOL    HW125132   5.886   6.722   4.709  1.2224  0.1749  0.8619
 8104SOL    HW225133   5.944   6.839   4.612  1.3599  0.6201  1.4751
 8105SOL     OW25134   2.322   4.151   2.203 -0.0495 -0.0260  0.1149
 8105SOL    HW125135   2.269   4.233   2.185  0.1029 -0.3285 -1.8640
 8105SOL    HW225136   2.298   4.115   2.294 -1.7092  0.9655  0.1051
 8106SOL     OW25137   3.911   5.665   6.531 -0.1096 -0.4182  0.0832
 8106SOL    HW125138   3.947   5.697   6.444  2.1437 -1.0599  0.7082
 8106SOL    HW225139   3.902   5.742   6.594 -1.3962 -0.0131 -0.5499
 8107SOL     OW25140   4.428   4.600   0.489  0.1146  0.0407 -0.5311
 8107SOL    HW125141   4.375   4.523   0.454 -1.1655  0.0106  1.3060
 8107SOL    HW225142   4.366   4.674   0.515  1.1109  0.7000  0.0400
 8108SOL     OW25143   6.294   1.134   2.564 -0.5018  0.0996  0.2231
 8108SOL    HW125144   6.208   1.106   2.522 -0.7690 -0.0062  0.8476
 8108SOL    HW225145   6.368   1.124   2.497 -1.0341  0.5846 -0.4483
 8109SOL     OW25146   1.287   0.907   2.461  0.2337  0.3300 -0.2144
 8109SOL    HW125147   1.367   0.950   2.418 -0.8822  1.8175 -0.8884
 8109SOL    HW225148   1.255   0.965   2.536  0.0517 -0.4950  0.3572
 8110SOL     OW25149   5.911   5.385   0.266 -0.0051 -0.4220 -0.1830
 8110SOL    HW125150   6.005   5.356   0.279  1.3408  2.3541 -2.6150
 8110SOL    HW225151   5.879   5.430   0.350  1.2486 -0.3432  0.2775
 8111SOL     OW25152   4.562   6.993   2.149 -1.0828  0.1796  0.4295
 8111SOL    HW125153   4.471   6.953   2.156 -0.1933 -1.8087  1.4992
 8111SOL    HW225154   4.630   6.921   2.138  0.4084  1.6012 -0.1775
 8112SOL     OW25155   3.024   6.085   3.890 -0.1118 -0.5810 -0.0213
 8112SOL    HW125156   3.009   6.183   3.893  0.7042 -0.4629  0.8752
 8112SOL    HW225157   3.081   6.058   3.967 -0.2961 -1.7567 -0.2752
 8113SOL     OW25158   0.589   4.159   4.928  0.3600 -0.7030 -0.4298
 8113SOL    HW125159   0.636   4.247   4.920  0.5198 -0.4894  2.0943
 8113SOL    HW225160   0.632   4.105   5.001 -1.2086 -1.8999 -0.3543
 8114SOL     OW25161   4.887   1.058   2.631  0.7675 -0.4543 -0.2442
 8114SOL    HW125162   4.893   0.975   2.687  1.4327 -0.0928  0.2501
 8114SOL    HW225163   4.808   1.053   2.571  0.8370 -1.4719 -0.2624
 8115SOL     OW25164   3.514   1.929   6.034  0.7877  0.1393  0.2731
 8115SOL    HW125165   3.533   1.909   5.938  1.2097 -1.5483  0.6600
 8115SOL    HW225166   3.418   1.911   6.053  0.7389  0.3206  0.1955
 8116SOL     OW25167   3.526   6.736   5.167 -0.1600  0.2188 -0.4110
 8116SOL    HW125168   3.578   6.734   5.252  0.5911 -0.4568 -0.8777
 8116SOL    HW225169   3.565   6.805   5.106 -0.8717  0.9005 -0.1097
 8117SOL     OW25170   4.714   6.563   6.491  0.1591  0.2178  0.2051
 8117SOL    HW125171   4.800   6.594   6.532  1.3010 -0.5310 -1.5548
 8117SOL    HW225172   4.732   6.513   6.407 -1.9974 -0.2907 -0.0227
 8118SOL     OW25173   4.110   4.817   4.182 -0.0129  0.4295 -0.6730
 8118SOL    HW125174   4.036   4.848   4.242 -2.0575 -0.5140 -2.5431
 8118SOL    HW225175   4.074   4.805   4.089  2.3481 -0.7718 -1.5085
 8119SOL     OW25176   3.475   6.606   3.690  0.2289  0.0633  0.0260
 8119SOL    HW125177   3.450   6.541   3.761 -0.6855 -0.5898 -0.8641
 8119SOL    HW225178   3.424   6.586   3.606  0.6076  1.3661 -0.5533
 8120SOL     OW25179   1.150   5.404   6.176 -0.2889 -0.2073  0.1716
 8120SOL    HW125180   1.242   5.374   6.198 -0.1002 -2.0961 -2.7350
 8120SOL    HW225181   1.137   5.403   6.077 -3.1106  1.1065  0.4256
 8121SOL     OW25182   3.630   4.983   2.330  0.1399  0.0268 -0.1674
 8121SOL    HW125183   3.655   5.051   2.399 -2.7765  0.4734  0.5610
 8121SOL    HW225184   3.573   4.912   2.371  1.7844 -2.0635 -1.2854
 8122SOL     OW25185   4.489   5.552   3.228 -0.2983  0.1634 -0.6508
 8122SOL    HW125186   4.431   5.597   3.297  0.7226 -0.5667  0.7228
 8122SOL    HW225187   4.542   5.480   3.271  1.4537  0.6248 -1.9305
 8123SOL     OW25188   0.020   2.497   0.655  0.0741  0.4234 -0.1744
 8123SOL    HW125189  -0.070   2.457   0.673 -1.9848  4.0024 -1.5153
 8123SOL    HW225190   0.051   2.470   0.564 -0.0777 -0.0254 -0.0979
 8124SOL     OW25191   1.887   6.958   1.596  0.1468 -0.2954 -0.3194
 8124SOL    HW125192   1.888   6.863   1.563  1.9667 -0.7403  0.8758
 8124SOL    HW225193   1.860   6.960   1.692 -1.6784  0.6198 -0.8211
 8125SOL     OW25194   5.127   2.580   5.432  0.0334  0.2300  0.1785
 8125SOL    HW125195   5.104   2.555   5.526 -0.6930  0.0697 -0.0370
 8125SOL    HW225196   5.059   2.644   5.397 -1.3553 -1.8660 -1.1792
 8126SOL     OW25197   4.293   2.703   0.298 -0.4685  0.2926 -0.8627
 8126SOL    HW125198   4.315   2.761   0.377 -0.6285 -2.0794  1.0317
 8126SOL    HW225199   4.337   2.740   0.216 -0.3415  2.8813  0.2762
 8127SOL     OW25200   3.219   5.219   4.329  0.1675  0.3883 -0.0315
 8127SOL    HW125201   3.155   5.185   4.261 -0.4851  0.6007  0.4713
 8127SOL    HW225202   3.274   5.143   4.364  0.2733  0.2253 -0.5442
 8128SOL     OW25203   4.959   1.379   1.611 -0.0312  0.1868  0.5099
 8128SOL    HW125204   5.026   1.313   1.576 -2.3642 -2.5865  0.8347
 8128SOL    HW225205   4.993   1.419   1.696  1.6071 -0.3769  0.1572
 8129SOL     OW25206   2.923   5.895   4.650  0.5288 -0.1830  0.2490
 8129SOL    HW125207   3.008   5.904   4.597 -0.0360  4.0157 -0.2967
 8129SOL    HW225208   2.850   5.866   4.589  0.6673  0.8734 -0.4620
 8130SOL     OW25209   4.314   5.027   0.453 -0.0716 -0.2009  0.6268
 8130SOL    HW125210   4.398   5.063   0.492  0.1159  0.9534 -0.7695
 8130SOL    HW225211   4.270   5.097   0.396 -1.7479 -0.9235  0.9511
 8131SOL     OW25212   3.486   1.040   1.543 -0.0217 -0.0693 -0.6088
 8131SOL    HW125213   3.451   0.969   1.604 -2.0341 -1.0538 -2.7645
 8131SOL    HW225214   3.568   1.006   1.497 -0.9921 -1.0622 -1.6565
 8132SOL     OW25215   1.556   2.778   1.328 -0.5026 -0.1692  0.3009
 8132SOL    HW125216   1.606   2.826   1.256 -0.7282 -1.4363 -0.7311
 8132SOL    HW225217   1.486   2.839   1.366 -0.4241  0.4900 -0.5863
 8133SOL     OW25218   6.418   4.739   3.803  0.5161  0.2171  0.4804
 8133SOL    HW125219   6.475   4.795   3.743  3.0774 -1.5315  1.0967
 8133SOL    HW225220   6.402   4.650   3.760  1.0393 -0.4843  1.6954
 8134SOL     OW25221   3.295   0.192   4.933  0.1685 -0.4117  0.0737
 8134SOL    HW125222   3.288   0.109   4.988 -1.6289 -0.6040 -0.3944
 8134SOL    HW225223   3.227   0.259   4.963  0.2759  0.1244 -0.8186
 8135SOL     OW25224   1.117   4.071   0.230  1.5500  0.0532  0.3401
 8135SOL    HW125225   1.154   3.980   0.216 -1.2823 -1.2300  0.5366
 8135SOL    HW225226   1.122   4.096   0.327  0.9096 -0.5974  0.5484
 8136SOL     OW25227   6.160   2.077   5.588  0.2049  0.0955 -0.3241
 8136SOL    HW125228   6.062   2.088   5.569  0.0619 -0.8999 -0.2170
 8136SOL    HW225229   6.194   2.157   5.637 -0.6634  0.2316  0.0626
 8137SOL     OW25230   5.441   1.495   1.355  0.5969  0.3263 -0.5498
 8137SOL    HW125231   5.405   1.529   1.442  1.2765  0.9531 -0.5047
 8137SOL    HW225232   5.441   1.395   1.356 -1.7402  0.2681 -0.8032
 8138SOL     OW25233   5.081   4.456   6.432  0.4807  0.1818 -0.4096
 8138SOL    HW125234   5.032   4.376   6.465 -0.0191  0.4645 -0.4498
 8138SOL    HW225235   5.141   4.430   6.357  0.0520 -0.0922 -0.6608
 8139SOL     OW25236   6.049   2.336   3.246  0.4084 -0.1304  0.8270
 8139SOL    HW125237   6.060   2.335   3.345  1.7894  0.8579  0.7172
 8139SOL    HW225238   6.058   2.242   3.211  2.1070 -0.2555  1.4631
 8140SOL     OW25239   4.796   6.533   2.529  0.0403  0.2629 -0.3779
 8140SOL    HW125240   4.799   6.632   2.520  1.8729  0.0785 -2.9321
 8140SOL    HW225241   4.884   6.500   2.565  0.1950 -0.5186 -1.4131
 8141SOL     OW25242   2.027   6.491   0.403 -0.1262  0.2217  0.8136
 8141SOL    HW125243   2.081   6.575   0.399  0.8989 -0.3836  1.5480
 8141SOL    HW225244   2.083   6.413   0.374 -1.0341 -0.2353  0.2447
 8142SOL     OW25245   0.034   3.780   4.643 -0.3947  0.5533  0.3047
 8142SOL    HW125246  -0.050   3.737   4.674  0.8102 -3.0505 -0.8803
 8142SOL    HW225247   0.091   3.803   4.723 -1.1951  0.0887  1.0284
 8143SOL     OW25248   4.532   1.097   3.793 -0.0706 -0.5604 -0.4047
 8143SOL    HW125249   4.524   0.998   3.793 -0.7867 -0.5185  0.4542
 8143SOL    HW225250   4.477   1.135   3.718 -0.0833 -0.7913 -0.5142
 8144SOL     OW25251   1.249   6.384   0.819 -0.0860 -0.0474  0.0290
 8144SOL    HW125252   1.283   6.381   0.725  2.3527 -0.6363  0.8541
 8144SOL    HW225253   1.285   6.306   0.870 -1.5734  0.1138  1.4245
 8145SOL     OW25254   6.868   4.286   2.616 -0.5281  0.4045  0.4507
 8145SOL    HW125255   6.862   4.291   2.516 -0.4529 -0.8881  0.3542
 8145SOL    HW225256   6.895   4.193   2.642 -0.0144  0.8773  1.6564
 8146SOL     OW25257   0.103   6.830   5.209  0.0547 -0.4371 -0.1717
 8146SOL    HW125258   0.174   6.763   5.188  0.4192  0.0436 -0.4780
 8146SOL    HW225259   0.121   6.871   5.298  0.6760  0.3467 -0.6498
 8147SOL     OW25260   4.105   5.257   5.167 -0.3099  0.1438 -0.3363
 8147SOL    HW125261   4.135   5.190   5.099  2.2652  1.3093 -0.4389
 8147SOL    HW225262   4.112   5.349   5.129 -0.4200  0.7163  0.9736
 8148SOL     OW25263   0.473   1.389   2.266  0.5699  0.1272  0.0513
 8148SOL    HW125264   0.470   1.350   2.359  0.8879 -0.3701 -0.1414
 8148SOL    HW225265   0.483   1.315   2.200 -2.1473  0.2485 -0.5921
 8149SOL     OW25266   2.209   2.274   6.072  0.2560 -0.0735  0.0376
 8149SOL    HW125267   2.118   2.276   6.030  0.1981 -1.9840 -0.0534
 8149SOL    HW225268   2.205   2.217   6.155  1.0167  1.2164  0.9874
 8150SOL     OW25269   3.970   4.804   4.894  0.4197 -0.3395  0.0498
 8150SOL    HW125270   3.904   4.749   4.946  0.1847 -0.2993 -0.2044
 8150SOL    HW225271   3.965   4.899   4.924 -1.9201  0.3271 -2.1304
 8151SOL     OW25272   3.106   6.235   1.078  0.4820  0.2564 -0.2606
 8151SOL    HW125273   3.042   6.201   1.148  1.0417 -2.0102 -0.7687
 8151SOL    HW225274   3.059   6.241   0.990  0.8662 -1.2236 -0.5931
 8152SOL     OW25275   5.229   1.716   6.724 -0.1124  0.0637 -0.1917
 8152SOL    HW125276   5.175   1.671   6.795  0.2028 -1.7413 -1.0243
 8152SOL    HW225277   5.322   1.732   6.757  0.0675 -0.8773 -0.2193
 8153SOL     OW25278   5.657   3.451   2.755 -0.0383 -0.2768  0.0703
 8153SOL    HW125279   5.716   3.519   2.712 -0.5118  0.6691  0.8863
 8153SOL    HW225280   5.581   3.430   2.694  0.2705 -0.3086 -0.3111
 8154SOL     OW25281   0.220   6.448   4.807  0.1003 -0.2714 -0.3703
 8154SOL    HW125282   0.162   6.502   4.745 -0.2774  2.6995  2.3538
 8154SOL    HW225283   0.298   6.503   4.836  1.2719 -2.2466  0.3781
 8155SOL     OW25284   4.876   5.516   6.985  0.2157  0.2018 -0.3265
 8155SOL    HW125285   4.948   5.573   7.023  0.2979  0.2197 -0.5050
 8155SOL    HW225286   4.917   5.448   6.923 -0.0681  1.3792 -1.8666
 8156SOL     OW25287   2.864   1.736   1.828  0.3724 -0.6908  0.2535
 8156SOL    HW125288   2.923   1.679   1.770 -0.7529 -0.7507 -0.8989
 8156SOL    HW225289   2.861   1.829   1.791 -0.3965 -0.7417  0.1763
 8157SOL     OW25290   1.447   4.523   6.399 -0.7661  0.1219 -0.0643
 8157SOL    HW125291   1.535   4.567   6.418 -0.9582  0.7455 -0.6017
 8157SOL    HW225292   1.416   4.474   6.481  0.6321 -1.0779 -0.2234
 8158SOL     OW25293   1.457   4.220   0.038 -0.6856 -0.0904  0.5501
 8158SOL    HW125294   1.456   4.205   0.137  2.0788 -1.3015  0.5136
 8158SOL    HW225295   1.466   4.132  -0.008  1.9653  0.6380 -0.5027
 8159SOL     OW25296   5.317   4.700   0.407 -0.2498  0.0935  0.2017
 8159SOL    HW125297   5.241   4.654   0.362 -1.0112  0.0289  1.4870
 8159SOL    HW225298   5.400   4.644   0.401 -0.8431 -0.8489  0.6245
 8160SOL     OW25299   3.008   0.660   0.412  0.3554  0.1523  0.2582
 8160SOL    HW125300   3.050   0.751   0.416  0.1122  0.2560  0.4388
 8160SOL    HW225301   2.931   0.662   0.349 -0.5346  0.4349  1.3197
 8161SOL     OW25302   4.402   4.565   2.779 -0.0559 -0.6257 -0.2868
 8161SOL    HW125303   4.476   4.511   2.740 -0.4544 -1.0872 -0.4182
 8161SOL    HW225304   4.439   4.644   2.828  0.5141 -0.8258 -0.3975
 8162SOL     OW25305   3.244   6.535   4.336  0.4483  0.1285 -0.0617
 8162SOL    HW125306   3.204   6.516   4.247 -0.3507  0.0855  0.2912
 8162SOL    HW225307   3.211   6.467   4.402  1.5573 -0.2384  0.1202
 8163SOL     OW25308   2.398   0.269   0.503  0.3602 -0.1251 -0.4265
 8163SOL    HW125309   2.458   0.316   0.567 -1.2139  0.5589  0.6051
 8163SOL    HW225310   2.425   0.291   0.409  1.0134  1.0714  0.0308
 8164SOL     OW25311   0.202   2.103   2.397  0.1643  0.4399 -0.4897
 8164SOL    HW125312   0.180   2.089   2.493 -0.9725  1.5176 -0.5704
 8164SOL    HW225313   0.287   2.056   2.375  0.0688 -0.4198  0.8605
 8165SOL     OW25314   4.393   0.470   2.411  0.0507 -0.0971 -0.3417
 8165SOL    HW125315   4.384   0.391   2.351 -1.2300  0.7017 -1.2437
 8165SOL    HW225316   4.354   0.551   2.367  0.0502  0.7463  1.1204
 8166SOL     OW25317   6.841   0.703   6.632 -0.2548 -0.2525  0.0350
 8166SOL    HW125318   6.751   0.664   6.611  0.1322 -0.7995 -0.6456
 8166SOL    HW225319   6.913   0.639   6.604  0.4389  1.2880 -1.9939
 8167SOL     OW25320   6.766   6.733   0.285  0.8498 -0.3552 -0.1784
 8167SOL    HW125321   6.767   6.811   0.346  0.6672  0.1546 -0.8135
 8167SOL    HW225322   6.672   6.701   0.272  1.1342 -2.7112  2.5717
 8168SOL     OW25323   5.487   4.558   4.503 -0.7250 -0.0621 -1.0710
 8168SOL    HW125324   5.463   4.647   4.464  2.9383  0.3081 -2.9023
 8168SOL    HW225325   5.524   4.571   4.595  0.7570  0.5002 -1.7211
 8169SOL     OW25326   0.216   6.066   6.631 -0.4423  0.4335  0.4280
 8169SOL    HW125327   0.171   5.977   6.629  1.7224 -0.7281  0.6774
 8169SOL    HW225328   0.230   6.094   6.726 -0.1488  0.5472  0.3507
 8170SOL     OW25329   5.084   1.712   5.540  0.3542  0.0158  0.1869
 8170SOL    HW125330   5.069   1.797   5.589  3.0705  0.8995 -0.3351
 8170SOL    HW225331   5.046   1.719   5.448 -0.5759  0.1509  0.5768
 8171SOL     OW25332   5.069   1.708   2.878 -0.5006 -0.1198  0.5716
 8171SOL    HW125333   5.079   1.694   2.976  2.3529 -2.4030  0.0946
 8171SOL    HW225334   5.113   1.794   2.852  2.1594 -1.2809  0.9240
 8172SOL     OW25335   0.617   5.088   1.649 -0.5618 -0.0695  0.1395
 8172SOL    HW125336   0.717   5.086   1.648 -0.5668 -0.8317  0.6275
 8172SOL    HW225337   0.582   5.038   1.569 -0.5562  0.3263 -0.1134
 8173SOL     OW25338   3.222   4.812   1.961 -0.4006  0.3087  0.4318
 8173SOL    HW125339   3.177   4.758   2.031  1.3041 -0.4675  0.9865
 8173SOL    HW225340   3.272   4.752   1.899 -1.0671  1.0589 -0.8723
 8174SOL     OW25341   0.035   6.388   5.028  0.4023 -0.5114  0.1395
 8174SOL    HW125342   0.125   6.387   4.985  0.8230 -2.8944  0.9080
 8174SOL    HW225343  -0.018   6.465   4.993  2.3516  0.3648 -1.0822
 8175SOL     OW25344   6.912   3.627   2.749 -0.5882 -0.1069  0.1292
 8175SOL    HW125345   6.859   3.693   2.802 -0.3264 -0.2073  0.5217
 8175SOL    HW225346   6.997   3.606   2.798 -0.5920 -0.6051 -0.0768
 8176SOL     OW25347   3.245   1.313   1.663  0.1772 -0.4126  0.2914
 8176SOL    HW125348   3.291   1.399   1.684  1.3370 -0.8735 -0.3013
 8176SOL    HW225349   3.299   1.237   1.698  0.5384 -1.0292 -1.5315
 8177SOL     OW25350   5.573   1.778   1.782 -0.6990 -0.4750  0.3876
 8177SOL    HW125351   5.646   1.758   1.847 -0.6513  0.8932  0.7868
 8177SOL    HW225352   5.545   1.874   1.791 -0.3079 -0.0724 -1.9617
 8178SOL     OW25353   6.869   3.719   2.374  0.2160  0.1748 -0.1096
 8178SOL    HW125354   6.839   3.663   2.297  0.0123 -0.1231  0.1822
 8178SOL    HW225355   6.891   3.811   2.342  1.7400 -0.4031 -0.8097
 8179SOL     OW25356   6.319   0.685   3.826 -0.1474 -0.7207 -0.1558
 8179SOL    HW125357   6.349   0.762   3.770 -1.3526  1.6213  2.1724
 8179SOL    HW225358   6.389   0.614   3.827  2.3325  1.5839 -0.1467
 8180SOL     OW25359   4.282   4.773   5.602  0.2986 -0.3000  0.3399
 8180SOL    HW125360   4.247   4.766   5.695  0.2964  0.2693  0.3905
 8180SOL    HW225361   4.372   4.818   5.604  1.1913 -1.9999  0.2405
 8181SOL     OW25362   5.500   2.209   4.256  0.1366  0.1867  0.0088
 8181SOL    HW125363   5.582   2.153   4.266  0.1310  0.4653  1.7688
 8181SOL    HW225364   5.526   2.304   4.240  0.1466  0.1680 -0.0895
 8182SOL     OW25365   3.621   4.604   2.380  0.8836 -0.2222 -0.3889
 8182SOL    HW125366   3.690   4.598   2.308  1.6603  2.9630 -0.0459
 8182SOL    HW225367   3.662   4.641   2.463 -0.9490  0.3772  0.2997
 8183SOL     OW25368   1.201   5.498   2.374  0.1463 -0.0440  0.1100
 8183SOL    HW125369   1.238   5.587   2.401 -1.6106  0.5777  0.5549
 8183SOL    HW225370   1.111   5.485   2.416  1.0513 -2.7671  1.4411
 8184SOL     OW25371   6.962   6.697   1.502  0.0725 -0.1226 -0.2669
 8184SOL    HW125372   6.995   6.605   1.481  1.2212 -0.6289  3.2106
 8184SOL    HW225373   6.881   6.691   1.559  0.6285  0.9944  0.6652
 8185SOL     OW25374   1.380   3.680   4.843 -0.5812  0.3330 -0.4207
 8185SOL    HW125375   1.471   3.692   4.882 -1.1422 -0.2882  1.1633
 8185SOL    HW225376   1.372   3.587   4.807 -1.0462 -0.1391  0.8286
 8186SOL     OW25377   2.758   6.741   3.537 -0.4159  0.0574  0.0017
 8186SOL    HW125378   2.746   6.806   3.612 -2.2835 -0.4764  0.2098
 8186SOL    HW225379   2.674   6.736   3.483 -1.2990 -3.9104  1.4265
 8187SOL     OW25380   5.313   1.543   6.493 -0.0373  0.3763  0.2908
 8187SOL    HW125381   5.298   1.610   6.565 -1.0262  0.2220  0.2361
 8187SOL    HW225382   5.388   1.575   6.434 -0.5268  1.4589  0.2303
 8188SOL     OW25383   4.933   5.296   4.129  0.6111 -0.1703 -0.5878
 8188SOL    HW125384   4.841   5.281   4.165  1.0270 -0.4189  0.4110
 8188SOL    HW225385   4.979   5.366   4.184  0.7703  0.4880 -1.5397
 8189SOL     OW25386   5.660   3.926   3.489  0.4119 -0.3121 -0.1838
 8189SOL    HW125387   5.753   3.923   3.452  0.0633 -0.4055 -1.0931
 8189SOL    HW225388   5.610   4.003   3.449  0.2140 -0.0307  0.5917
 8190SOL     OW25389   5.972   0.680   4.185 -0.2412 -0.3358  0.0016
 8190SOL    HW125390   5.925   0.632   4.111  0.3674  0.2482 -0.7912
 8190SOL    HW225391   6.060   0.714   4.151 -0.2674  0.5622  0.7952
 8191SOL     OW25392   6.529   0.007   6.683 -0.1682 -0.3148  0.4149
 8191SOL    HW125393   6.457   0.013   6.613 -0.2550  1.9077  0.5999
 8191SOL    HW225394   6.486   0.003   6.773 -0.1086  0.9737  0.5229
 8192SOL     OW25395   3.704   2.182   6.550  0.3119  0.5397 -0.2316
 8192SOL    HW125396   3.664   2.168   6.460 -0.6600  0.2799  0.2241
 8192SOL    HW225397   3.715   2.280   6.566 -0.0593  0.6105 -0.4033
 8193SOL     OW25398   2.772   1.372   2.670  0.3455  0.7769 -0.3438
 8193SOL    HW125399   2.748   1.285   2.713  2.0091  0.6670  0.4395
 8193SOL    HW225400   2.782   1.359   2.571  0.3549  0.1238 -0.2616
 8194SOL     OW25401   2.933   4.610   2.410 -0.5977  0.6154 -0.4212
 8194SOL    HW125402   2.904   4.704   2.429 -0.5348  0.3432  1.1625
 8194SOL    HW225403   3.026   4.596   2.444 -0.7742 -0.1347 -0.2140
 8195SOL     OW25404   6.258   6.929   5.986  0.5667  0.0172  0.0799
 8195SOL    HW125405   6.253   6.841   5.937 -0.8282  0.6840 -1.0609
 8195SOL    HW225406   6.206   6.922   6.071 -1.9330  0.4501 -1.2994
 8196SOL     OW25407   4.350   3.155   6.213  0.1326  0.2525 -0.7633
 8196SOL    HW125408   4.260   3.147   6.257  0.7194  1.8348  0.8310
 8196SOL    HW225409   4.411   3.084   6.250 -0.5273 -1.1257 -2.1863
 8197SOL     OW25410   5.421   0.645   1.002  0.3780  0.2060  0.2083
 8197SOL    HW125411   5.432   0.733   0.954  2.5400 -0.7814 -1.2479
 8197SOL    HW225412   5.461   0.652   1.093 -1.2119  1.2458  0.8908
 8198SOL     OW25413   5.166   5.497   2.818 -0.2128 -0.2112 -0.2769
 8198SOL    HW125414   5.236   5.537   2.759  0.3731  0.0496  0.5629
 8198SOL    HW225415   5.190   5.403   2.840 -0.5247 -0.3671 -0.6020
 8199SOL     OW25416   2.049   0.201   5.983  0.3049  0.8589  0.0611
 8199SOL    HW125417   2.133   0.231   5.938  0.0397  1.1101 -0.2727
 8199SOL    HW225418   1.979   0.272   5.973 -0.3387  0.1260 -0.7560
 8200SOL     OW25419   4.700   1.111   2.961  0.7653  0.0889  0.1446
 8200SOL    HW125420   4.776   1.046   2.971 -0.6322 -1.9651 -1.4616
 8200SOL    HW225421   4.712   1.162   2.875  1.1996  1.0926  0.7789
 8201SOL     OW25422   3.366   4.836   4.020  0.0816  0.4670  0.2124
 8201SOL    HW125423   3.294   4.815   4.086  1.0080  1.7431  1.6869
 8201SOL    HW225424   3.342   4.918   3.968 -0.0010  0.2792 -0.0498
 8202SOL     OW25425   2.518   4.829   0.420  0.0009 -0.3017  0.0943
 8202SOL    HW125426   2.522   4.755   0.353 -0.2139 -1.3318  1.1876
 8202SOL    HW225427   2.595   4.822   0.483  2.1743  2.6308 -1.9531
 8203SOL     OW25428   0.878   4.012   6.271  0.0876 -0.0420 -0.4275
 8203SOL    HW125429   0.818   4.070   6.215  1.0218 -0.1058 -1.5402
 8203SOL    HW225430   0.829   3.930   6.299 -0.8529  0.6830  0.0878
 8204SOL     OW25431   4.374   2.437   6.889  0.0526 -0.2756 -0.0487
 8204SOL    HW125432   4.390   2.399   6.797  1.8646 -1.8399  0.8394
 8204SOL    HW225433   4.452   2.416   6.947 -0.3881  1.9959  1.4905
 8205SOL     OW25434   6.624   4.271   5.878 -0.2686 -0.2121 -0.2419
 8205SOL    HW125435   6.653   4.224   5.794 -0.8032  1.3316 -1.3528
 8205SOL    HW225436   6.649   4.368   5.872 -1.0392  0.0887  1.0437
 8206SOL     OW25437   2.147   1.120   0.183 -0.1024  0.0354 -0.4013
 8206SOL    HW125438   2.068   1.146   0.238 -0.0181 -1.9286  0.7248
 8206SOL    HW225439   2.117   1.092   0.092 -0.5009  0.8510 -0.5350
 8207SOL     OW25440   2.817   4.888   2.487  0.7089  0.3426 -0.0978
 8207SOL    HW125441   2.735   4.856   2.535 -0.2702 -0.1604 -2.0055
 8207SOL    HW225442   2.794   4.966   2.429  2.0579  1.5134  0.8837
 8208SOL     OW25443   3.815   4.543   3.305  0.1767  0.3978 -0.1540
 8208SOL    HW125444   3.895   4.553   3.244 -0.4903  1.5571 -0.8708
 8208SOL    HW225445   3.759   4.466   3.273  1.7675 -1.4857  1.2911
 8209SOL     OW25446   5.395   3.307   3.596 -0.1825  0.3578 -0.6707
 8209SOL    HW125447   5.410   3.257   3.511 -1.3622  0.3227 -0.8624
 8209SOL    HW225448   5.323   3.262   3.649 -1.9236  2.3059 -1.2447
 8210SOL     OW25449   4.057   5.457   0.242  0.3035 -0.3410 -0.0166
 8210SOL    HW125450   3.972   5.479   0.194  0.0167 -0.3788  0.4686
 8210SOL    HW225451   4.109   5.541   0.257  0.8607 -0.4480 -1.2515
 8211SOL     OW25452   4.500   2.480   4.128 -0.3488 -0.0015 -0.6518
 8211SOL    HW125453   4.556   2.542   4.183  0.7312  0.2056 -1.9244
 8211SOL    HW225454   4.492   2.392   4.175  2.7146 -0.7216 -1.2242
 8212SOL     OW25455   2.662   2.557   3.879  0.3571  0.0978  0.2195
 8212SOL    HW125456   2.619   2.571   3.968  0.6324  0.8214  0.2462
 8212SOL    HW225457   2.751   2.513   3.892 -0.5409 -1.8837  0.1300
 8213SOL     OW25458   4.198   6.657   0.973  0.3368 -0.4346 -0.5549
 8213SOL    HW125459   4.179   6.559   0.978  1.1776 -0.6217 -0.8353
 8213SOL    HW225460   4.155   6.696   0.892 -0.8545 -0.3581  0.0906
 8214SOL     OW25461   5.804   0.390   6.911 -0.1334  0.1355  0.0892
 8214SOL    HW125462   5.868   0.462   6.883 -1.7957  2.3737  1.6891
 8214SOL    HW225463   5.728   0.386   6.846  0.3956 -0.9069 -0.5087
 8215SOL     OW25464   5.416   4.366   6.986  0.0409  0.0054 -0.0508
 8215SOL    HW125465   5.468   4.298   6.935 -0.2224 -0.3259  0.1155
 8215SOL    HW225466   5.339   4.398   6.931  0.7166  0.8892 -0.5028
 8216SOL     OW25467   4.490   5.360   3.696 -0.2521 -0.1760  0.4038
 8216SOL    HW125468   4.492   5.307   3.781  1.7552  0.4389  0.7750
 8216SOL    HW225469   4.447   5.306   3.624  0.4096 -1.7316  1.1437
 8217SOL     OW25470   5.252   6.939   0.326 -0.2380  0.2599 -0.1719
 8217SOL    HW125471   5.199   7.019   0.355 -0.3749  0.4048 -0.8034
 8217SOL    HW225472   5.344   6.944   0.365  0.4408  1.7943 -1.8174
 8218SOL     OW25473   0.778   4.492   5.813 -0.1523 -0.5696  0.0173
 8218SOL    HW125474   0.768   4.421   5.743  1.2703  1.0241 -1.9048
 8218SOL    HW225475   0.716   4.473   5.889 -2.9833 -1.5359 -2.3690
 8219SOL     OW25476   3.187   4.439   6.751  0.0052 -0.6018 -0.9419
 8219SOL    HW125477   3.188   4.346   6.788 -3.2374  0.1881  1.6586
 8219SOL    HW225478   3.119   4.444   6.677 -1.1286  0.0035  0.1096
 8220SOL     OW25479   5.077   5.124   5.560 -0.2422  0.2557 -0.2356
 8220SOL    HW125480   5.166   5.104   5.602  0.0735  1.3528 -0.3439
 8220SOL    HW225481   5.016   5.045   5.571 -0.9717  1.1721  4.3035
 8221SOL     OW25482   2.444   0.720   2.634 -0.2451  0.1642  0.2164
 8221SOL    HW125483   2.380   0.792   2.662  0.0377  1.4279 -2.1752
 8221SOL    HW225484   2.395   0.633   2.626 -1.2081  0.6803  0.3734
 8222SOL     OW25485   0.557   3.375   2.242 -0.2782 -0.8506  0.3255
 8222SOL    HW125486   0.462   3.346   2.234 -0.8598  1.1209 -0.6548
 8222SOL    HW225487   0.578   3.440   2.170  1.3513 -0.0650  1.4433
 8223SOL     OW25488   4.207   6.157   0.069  0.1795 -0.1933  0.6567
 8223SOL    HW125489   4.258   6.072   0.084 -1.0533 -0.9091  0.8364
 8223SOL    HW225490   4.266   6.235   0.092  0.6765 -1.0451  2.4682
 8224SOL     OW25491   0.312   6.307   6.556  0.2876 -0.4192  0.4160
 8224SOL    HW125492   0.409   6.326   6.573  0.5155 -1.1827  0.0092
 8224SOL    HW225493   0.290   6.214   6.583 -0.0948 -0.5837 -0.4049
 8225SOL     OW25494   4.911   5.577   2.751  0.4254  0.4813 -0.4316
 8225SOL    HW125495   5.003   5.544   2.773 -0.1393  0.7703  2.8075
 8225SOL    HW225496   4.859   5.504   2.707  1.9763  0.1683 -1.8914
 8226SOL     OW25497   3.866   4.776   6.589 -0.1834  0.2126  0.1231
 8226SOL    HW125498   3.842   4.858   6.537  2.3270  1.1755  0.3171
 8226SOL    HW225499   3.823   4.779   6.679 -0.5397  1.0440 -0.0672
 8227SOL     OW25500   4.186   0.467   4.692  0.6714  0.2259 -0.1140
 8227SOL    HW125501   4.094   0.467   4.731  0.7792 -2.0179  0.2819
 8227SOL    HW225502   4.250   0.506   4.758  0.4449 -1.1041  0.9362
 8228SOL     OW25503   0.130   6.264   0.387 -0.1563  0.5357  0.0216
 8228SOL    HW125504   0.159   6.293   0.296  0.6048 -2.1683 -0.6869
 8228SOL    HW225505   0.200   6.289   0.454  0.3000  0.6437 -0.4884
 8229SOL     OW25506   6.828   2.583   3.798  0.1657 -0.7036 -0.4271
 8229SOL    HW125507   6.832   2.647   3.721  0.3308 -0.9226 -0.6046
 8229SOL    HW225508   6.900   2.605   3.863 -0.2343 -0.2607 -0.1270
 8230SOL     OW25509   4.985   5.774   4.779  0.4532 -0.2310 -0.0747
 8230SOL    HW125510   5.050   5.716   4.730  0.0119  0.1976 -1.1971
 8230SOL    HW225511   5.006   5.870   4.760  0.2110 -0.0652  0.4984
 8231SOL     OW25512   2.742   1.921   5.507  0.3100  0.2999 -0.5204
 8231SOL    HW125513   2.711   2.015   5.497 -2.0785 -0.4746 -0.9839
 8231SOL    HW225514   2.816   1.904   5.441  0.1855  1.5941 -1.0319
 8232SOL     OW25515   4.067   4.932   6.104 -0.4828 -0.3878 -0.3466
 8232SOL    HW125516   4.027   5.024   6.097 -3.0094 -1.4448 -0.7184
 8232SOL    HW225517   4.070   4.904   6.200  0.4032  0.0967 -0.2209
 8233SOL     OW25518   0.482   6.852   6.404 -0.0805 -0.4424 -0.4828
 8233SOL    HW125519   0.397   6.904   6.414 -1.1850 -2.0484 -1.1261
 8233SOL    HW225520   0.560   6.913   6.418 -1.3028  1.3751 -1.2118
 8234SOL     OW25521   5.760   5.636   4.392 -0.1780 -0.1087 -0.8327
 8234SOL    HW125522   5.755   5.539   4.419  0.3347 -0.0623 -0.5597
 8234SOL    HW225523   5.679   5.660   4.339 -0.4435 -0.6169 -0.6622
 8235SOL     OW25524   1.817   3.944   4.202 -0.1739 -0.2927 -0.2120
 8235SOL    HW125525   1.788   3.893   4.282 -0.5544 -0.1068 -0.2269
 8235SOL    HW225526   1.814   3.884   4.121 -2.7843  0.2753 -0.6403
 8236SOL     OW25527   4.715   6.967   1.241  0.5634 -0.0085 -0.1486
 8236SOL    HW125528   4.714   6.897   1.313 -1.1739  0.7659  0.6485
 8236SOL    HW225529   4.699   6.924   1.152  2.9936 -1.0115 -0.1898
 8237SOL     OW25530   0.653   5.331   5.206  0.2406  0.3655  0.8491
 8237SOL    HW125531   0.658   5.292   5.298 -0.4632  1.0921  1.2019
 8237SOL    HW225532   0.604   5.418   5.209  0.6901  0.6631 -0.1301
 8238SOL     OW25533   6.209   1.168   5.518 -0.2412  0.4181  0.3403
 8238SOL    HW125534   6.272   1.239   5.550 -0.0733  0.5618 -0.2805
 8238SOL    HW225535   6.184   1.108   5.594  0.4961  0.4736  0.6368
 8239SOL     OW25536   0.471   5.918   6.595 -0.4333 -0.3872  0.2563
 8239SOL    HW125537   0.375   5.945   6.608 -0.5234 -0.9082  0.7065
 8239SOL    HW225538   0.491   5.914   6.497 -1.8490 -3.5274 -0.0253
 8240SOL     OW25539   3.973   4.174   4.639 -0.0453 -0.1060 -0.0423
 8240SOL    HW125540   3.970   4.270   4.609  0.5510 -0.7036 -2.1653
 8240SOL    HW225541   4.067   4.149   4.660  0.1168 -0.7881 -1.5214
 8241SOL     OW25542   4.527   2.238   6.054 -0.4694  0.3107 -0.1777
 8241SOL    HW125543   4.577   2.164   6.099 -2.4737 -1.3130 -0.4107
 8241SOL    HW225544   4.525   2.221   5.955 -1.4515  0.3232 -0.1719
 8242SOL     OW25545   6.506   2.081   1.661 -0.5449 -0.1715 -0.6367
 8242SOL    HW125546   6.456   2.094   1.576 -1.1074  0.0725 -0.2688
 8242SOL    HW225547   6.459   2.127   1.736 -0.1911 -0.5985 -0.1403
 8243SOL     OW25548   2.077   4.061   4.511  0.1383  0.7315 -0.1021
 8243SOL    HW125549   1.979   4.083   4.505 -0.0836 -0.2721 -0.3540
 8243SOL    HW225550   2.130   4.135   4.471 -0.4560  1.7274  0.8790
 8244SOL     OW25551   6.453   6.932   4.373 -0.5669 -0.5057  0.3479
 8244SOL    HW125552   6.446   6.879   4.289  0.9543 -0.1993  0.0071
 8244SOL    HW225553   6.538   6.984   4.373 -1.3648  0.8710  1.2947
 8245SOL     OW25554   2.023   6.939   6.848 -0.5120 -0.4172 -0.4162
 8245SOL    HW125555   2.087   6.949   6.925  0.5134 -2.5029 -0.9371
 8245SOL    HW225556   1.993   6.844   6.842 -0.8351 -0.2234 -2.4116
 8246SOL     OW25557   1.388   2.621   1.537  0.2139  0.0905 -0.1121
 8246SOL    HW125558   1.395   2.715   1.505  2.6164 -0.2853 -0.9297
 8246SOL    HW225559   1.446   2.609   1.618  1.3240 -1.0186 -1.0149
 8247SOL     OW25560   6.294   5.260   2.748 -0.2466 -0.0441  0.3457
 8247SOL    HW125561   6.363   5.332   2.739 -1.3456  0.7981 -2.0171
 8247SOL    HW225562   6.220   5.276   2.683 -0.7360 -3.1031 -0.0025
 8248SOL     OW25563   4.651   3.999   1.742 -0.4071 -0.2762  0.4599
 8248SOL    HW125564   4.722   3.928   1.749 -0.1093 -0.1546 -1.0046
 8248SOL    HW225565   4.663   4.065   1.816  1.0131 -0.2627  0.2502
 8249SOL     OW25566   3.887   6.151   2.096 -0.2021 -0.1558 -0.4156
 8249SOL    HW125567   3.878   6.055   2.069 -1.5946 -0.4952  1.0749
 8249SOL    HW225568   3.934   6.201   2.024  0.2460 -1.8767 -1.3904
 8250SOL     OW25569   2.886   5.632   5.539  0.0974 -0.4988 -0.0165
 8250SOL    HW125570   2.877   5.628   5.639 -1.8052 -1.2304 -0.1743
 8250SOL    HW225571   2.959   5.571   5.510  0.9238 -0.0015  0.9396
 8251SOL     OW25572   1.727   4.350   3.415 -0.0771  0.0205  0.4744
 8251SOL    HW125573   1.631   4.321   3.407 -0.4528  1.2117  0.5292
 8251SOL    HW225574   1.785   4.286   3.365 -0.7811 -1.2894  1.2894
 8252SOL     OW25575   4.899   5.987   6.228 -0.1506  0.1639  0.1161
 8252SOL    HW125576   4.994   5.971   6.202  0.4608  2.8968  0.2828
 8252SOL    HW225577   4.840   5.966   6.150  0.9000  1.0490 -0.9807
 8253SOL     OW25578   0.417   5.837   1.380  0.1231  0.2511  0.1597
 8253SOL    HW125579   0.451   5.879   1.464  0.7291  1.5278 -0.6745
 8253SOL    HW225580   0.461   5.749   1.366  1.6355  0.9697  0.1311
 8254SOL     OW25581   4.451   4.239   6.320  0.1233  0.1756  0.0702
 8254SOL    HW125582   4.356   4.272   6.324 -0.4360 -1.3345  0.2924
 8254SOL    HW225583   4.462   4.163   6.385  0.5013 -1.9519 -2.3144
 8255SOL     OW25584   2.590   2.257   5.962 -0.3233  0.1833  0.0884
 8255SOL    HW125585   2.630   2.341   5.996  2.7166 -0.4398 -1.6134
 8255SOL    HW225586   2.538   2.275   5.879 -2.5540  0.7736  1.5205
 8256SOL     OW25587   6.830   2.828   2.665  0.1339 -0.6513 -0.3082
 8256SOL    HW125588   6.763   2.803   2.595  0.8206  0.6381 -1.4814
 8256SOL    HW225589   6.906   2.763   2.662 -0.3303 -1.2177 -0.0231
 8257SOL     OW25590   2.263   6.645   1.005 -0.4330 -0.6981  0.1226
 8257SOL    HW125591   2.224   6.708   1.072 -0.7979 -0.9401  0.1365
 8257SOL    HW225592   2.226   6.554   1.019 -2.4981 -0.2713 -1.9987
 8258SOL     OW25593   4.675   5.329   0.039  0.4766  0.4461  0.2165
 8258SOL    HW125594   4.714   5.273   0.111  1.0854  0.4030 -0.1390
 8258SOL    HW225595   4.741   5.398   0.011 -0.0707  1.0135  0.2893
 8259SOL     OW25596   3.206   4.601   1.525  0.5150  0.2113 -0.4128
 8259SOL    HW125597   3.283   4.574   1.467 -1.6064 -0.9407 -2.8950
 8259SOL    HW225598   3.130   4.537   1.512 -0.6114  0.7431  2.6674
 8260SOL     OW25599   4.819   0.112   2.855 -0.0433  0.1232  0.6451
 8260SOL    HW125600   4.830   0.183   2.785 -0.9928 -1.0178 -0.7241
 8260SOL    HW225601   4.736   0.131   2.908 -0.5204 -0.1484  0.0146
 8261SOL     OW25602   4.004   1.476   6.033  0.1351 -0.7116 -0.2422
 8261SOL    HW125603   3.907   1.491   6.011  0.5057  0.6246 -1.0919
 8261SOL    HW225604   4.057   1.476   5.948  0.9308 -1.0099  0.2557
 8262SOL     OW25605   3.805   4.758   6.867 -0.3584  0.3308  0.1399
 8262SOL    HW125606   3.753   4.844   6.862 -3.3229 -1.3874 -1.4217
 8262SOL    HW225607   3.748   4.688   6.910  1.4223 -1.2524  0.0110
 8263SOL     OW25608   3.193   5.626   6.998  0.4309 -0.6954 -0.3842
 8263SOL    HW125609   3.187   5.584   7.088 -0.6268 -2.0583 -1.0661
 8263SOL    HW225610   3.181   5.557   6.927 -0.1138  0.5516 -1.5708
 8264SOL     OW25611   5.219   6.263   6.226 -0.1461 -0.6631 -0.5829
 8264SOL    HW125612   5.192   6.344   6.277  1.3617 -1.2080  1.1754
 8264SOL    HW225613   5.142   6.200   6.219  0.1088 -1.5915  3.1178
 8265SOL     OW25614   0.897   2.098   1.665 -1.0755 -0.4768  0.1652
 8265SOL    HW125615   0.985   2.057   1.687 -1.4214 -1.4730 -0.2471
 8265SOL    HW225616   0.865   2.065   1.577 -1.4242  0.6264 -0.1450
 8266SOL     OW25617   1.285   0.911   5.882  0.2022 -0.1376  0.2550
 8266SOL    HW125618   1.242   0.830   5.842  0.2513 -0.4098  0.7448
 8266SOL    HW225619   1.319   0.890   5.974  0.0314  0.4959  0.4730
 8267SOL     OW25620   3.906   2.430   1.359 -0.0463  0.1346 -0.4239
 8267SOL    HW125621   3.846   2.445   1.281  0.2710 -1.0561 -0.9160
 8267SOL    HW225622   3.909   2.333   1.381  0.3785  0.3806  0.6651
 8268SOL     OW25623   5.366   0.808   3.439  0.2390  0.7669 -0.1522
 8268SOL    HW125624   5.372   0.787   3.537  0.0454  0.0148 -0.2956
 8268SOL    HW225625   5.352   0.906   3.427  0.4606  0.8933  0.5685
 8269SOL     OW25626   1.691   2.512   2.401  0.2199 -0.0494  0.1553
 8269SOL    HW125627   1.745   2.561   2.470 -0.5559  0.6934  0.2528
 8269SOL    HW225628   1.660   2.577   2.331 -1.5939 -0.2120  0.7745
 8270SOL     OW25629   5.674   6.300   5.519  0.3281  0.1839  0.0002
 8270SOL    HW125630   5.690   6.390   5.560  1.7573  0.6766 -1.5198
 8270SOL    HW225631   5.753   6.241   5.534  0.5111  0.0846 -1.2125
 8271SOL     OW25632   3.177   3.981   1.824  0.5556  0.2028 -0.3334
 8271SOL    HW125633   3.147   4.048   1.756  1.9559  0.0148 -1.1633
 8271SOL    HW225634   3.189   4.027   1.912 -0.2959  0.6487 -0.4351
 8272SOL     OW25635   1.968   0.815   4.871  0.5351 -0.1818 -0.2320
 8272SOL    HW125636   1.979   0.752   4.794  2.3743  0.3088 -0.4020
 8272SOL    HW225637   2.057   0.841   4.906 -0.2667  0.0781  1.7164
 8273SOL     OW25638   3.003   1.026   3.059  0.2726  0.0665 -0.0808
 8273SOL    HW125639   3.008   1.085   3.139  6.1422 -0.6035  0.4711
 8273SOL    HW225640   3.004   1.083   2.976 -0.4909  0.7161  0.3424
 8274SOL     OW25641   2.275   4.920   6.958  0.9195  0.7050  0.1396
 8274SOL    HW125642   2.343   4.915   7.031  0.4818  0.5999  0.5408
 8274SOL    HW225643   2.248   5.015   6.944  0.0612  0.6048  0.9961
 8275SOL     OW25644   2.519   3.050   1.835 -0.8405  0.0226 -0.0175
 8275SOL    HW125645   2.505   3.057   1.736  2.7338  0.2368 -0.6596
 8275SOL    HW225646   2.490   3.135   1.879 -0.5706  0.7580 -1.2101
 8276SOL     OW25647   3.288   2.922   1.753 -0.9418 -0.8084  0.0847
 8276SOL    HW125648   3.387   2.919   1.739 -0.9303  1.3937 -0.6157
 8276SOL    HW225649   3.265   2.869   1.835  0.7690 -1.4890  0.1780
 8277SOL     OW25650   2.609   5.167   3.731  0.7660 -0.5141 -0.6665
 8277SOL    HW125651   2.657   5.233   3.673 -0.7276  1.1937 -0.0695
 8277SOL    HW225652   2.647   5.171   3.824  0.3527 -0.1083 -0.5102
 8278SOL     OW25653   4.538   3.371   3.005 -0.1264  0.0466  0.8700
 8278SOL    HW125654   4.623   3.408   2.968  0.6735 -3.2929 -0.9849
 8278SOL    HW225655   4.463   3.394   2.943  0.7599 -3.1463 -1.6430
 8279SOL     OW25656   5.373   6.790   5.624  0.2117  0.0840  0.1933
 8279SOL    HW125657   5.412   6.704   5.591  1.4782  0.5493  0.4180
 8279SOL    HW225658   5.323   6.773   5.709 -0.5462 -0.6096 -0.3708
 8280SOL     OW25659   4.084   4.099   1.863 -0.4729 -0.1917 -0.4661
 8280SOL    HW125660   3.998   4.056   1.890  0.1091 -0.8796  0.3634
 8280SOL    HW225661   4.151   4.029   1.840  0.3455  0.2651  0.4430
 8281SOL     OW25662   6.139   5.585   3.300 -0.6581 -0.2520  0.3664
 8281SOL    HW125663   6.047   5.544   3.300 -0.8360  0.1408 -0.1949
 8281SOL    HW225664   6.134   5.677   3.261  0.1422 -0.5898 -0.5479
 8282SOL     OW25665   0.996   5.655   4.387 -0.1661 -0.2056 -0.3874
 8282SOL    HW125666   0.979   5.753   4.396 -1.7667 -0.3956 -1.0011
 8282SOL    HW225667   1.039   5.621   4.471 -3.6508  0.2515  1.8049
 8283SOL     OW25668   2.443   3.941   2.070  1.0623 -0.4455 -0.5494
 8283SOL    HW125669   2.376   4.001   2.114 -0.5512 -1.1600 -1.9285
 8283SOL    HW225670   2.531   3.952   2.116  0.7108  2.4970 -0.3434
 8284SOL     OW25671   6.553   2.809   3.810  0.1193  0.0826 -0.4749
 8284SOL    HW125672   6.589   2.891   3.765 -0.1494 -0.2780 -1.3678
 8284SOL    HW225673   6.608   2.730   3.783 -0.2581 -0.1937 -0.4380
 8285SOL     OW25674   2.828   6.861   6.927 -0.0963 -0.2234  0.3015
 8285SOL    HW125675   2.817   6.769   6.889  1.8060 -0.3779  0.0155
 8285SOL    HW225676   2.756   6.921   6.890 -0.6824 -1.3187 -0.3915
 8286SOL     OW25677   5.384   2.850   0.877  0.4448 -0.1918 -0.4358
 8286SOL    HW125678   5.315   2.779   0.892  1.5597 -1.0306  1.0203
 8286SOL    HW225679   5.380   2.916   0.952  1.4246 -0.4302 -0.1653
 8287SOL     OW25680   5.249   3.371   2.113 -0.0730 -0.1830  0.0574
 8287SOL    HW125681   5.186   3.401   2.041 -1.4209 -1.4169  0.6675
 8287SOL    HW225682   5.271   3.275   2.100 -1.9707 -1.0313  2.3431
 8288SOL     OW25683   6.743   3.183   1.835  0.7748 -0.3109  0.4463
 8288SOL    HW125684   6.772   3.117   1.905  1.0144 -1.2389 -0.5128
 8288SOL    HW225685   6.644   3.194   1.839  0.8006 -0.2529  1.0222
 8289SOL     OW25686   1.131   1.087   2.257 -0.7884 -0.7396  0.1743
 8289SOL    HW125687   1.192   1.101   2.179 -0.6990  1.9388  0.6312
 8289SOL    HW225688   1.170   1.018   2.318 -0.1885 -1.8825 -1.4462
 8290SOL     OW25689   2.576   1.508   1.370  0.0149 -0.2319 -0.2839
 8290SOL    HW125690   2.511   1.506   1.294  2.4418 -0.0362 -2.5372
 8290SOL    HW225691   2.657   1.560   1.342 -0.3061  2.7700  3.6846
 8291SOL     OW25692   5.634   5.405   6.954 -0.5878  0.0569  0.3201
 8291SOL    HW125693   5.572   5.362   6.889 -1.4887  0.0751  1.1324
 8291SOL    HW225694   5.727   5.405   6.918 -1.1963  0.8277 -1.3152
 8292SOL     OW25695   3.929   3.033   5.125 -0.1683  0.2280  0.4099
 8292SOL    HW125696   3.925   2.946   5.175  0.5304 -0.6817 -1.0640
 8292SOL    HW225697   3.851   3.040   5.064  1.1403 -0.6396 -1.4427
 8293SOL     OW25698   2.271   4.832   6.043  0.3893 -0.3706  0.0407
 8293SOL    HW125699   2.207   4.768   6.086  1.2504  1.6404  4.8910
 8293SOL    HW225700   2.364   4.804   6.063  0.7962  2.1978  2.3804
 8294SOL     OW25701   1.133   0.310   0.222  0.2677 -0.3144 -0.0906
 8294SOL    HW125702   1.153   0.352   0.310  1.5888  0.0739 -0.5548
 8294SOL    HW225703   1.111   0.213   0.236  0.7878 -0.3389  0.6349
 8295SOL     OW25704   3.527   1.686   2.501  0.3070 -0.3228  0.5512
 8295SOL    HW125705   3.491   1.717   2.413 -1.0265  0.7879  1.4410
 8295SOL    HW225706   3.483   1.737   2.575  0.3710 -2.1986  1.9525
 8296SOL     OW25707   1.889   0.118   6.237 -0.1762  0.2227  0.0050
 8296SOL    HW125708   1.982   0.086   6.256 -0.0007  0.3055 -0.6662
 8296SOL    HW225709   1.894   0.208   6.193 -0.5836  0.3303  0.1812
 8297SOL     OW25710   4.565   6.219   3.867 -0.0085 -0.0629 -0.1555
 8297SOL    HW125711   4.624   6.296   3.845  0.3056 -0.2831 -0.0925
 8297SOL    HW225712   4.489   6.250   3.924 -0.0406  0.2495 -0.3702
 8298SOL     OW25713   6.393   2.478   2.811  0.9181 -0.3384  0.5926
 8298SOL    HW125714   6.405   2.397   2.868  0.0252  0.1363  1.4848
 8298SOL    HW225715   6.328   2.540   2.855  3.1425  1.8507  1.0208
 8299SOL     OW25716   1.778   4.441   5.247  0.2006  0.4446 -0.2678
 8299SOL    HW125717   1.825   4.409   5.165  1.0705  1.3233 -0.1208
 8299SOL    HW225718   1.757   4.538   5.239  1.1547  0.7778  0.9294
 8300SOL     OW25719   6.296   6.677   6.861  0.0280  0.1223 -0.0221
 8300SOL    HW125720   6.274   6.609   6.791 -0.3042  0.9226 -0.7106
 8300SOL    HW225721   6.214   6.698   6.914  0.4217 -0.9620  1.0611
 8301SOL     OW25722   2.343   1.472   3.604  0.4510  0.2761 -0.0728
 8301SOL    HW125723   2.256   1.474   3.554  0.1572 -1.2097  0.3252
 8301SOL    HW225724   2.417   1.446   3.542  0.0300 -1.9421  0.2483
 8302SOL     OW25725   4.581   4.403   3.581 -0.1629 -0.0672 -0.2987
 8302SOL    HW125726   4.646   4.330   3.598 -1.1242 -0.7374  0.6349
 8302SOL    HW225727   4.547   4.439   3.668 -0.3360  0.9176 -0.7537
 8303SOL     OW25728   0.290   1.110   1.107  0.2915 -0.6031 -0.0431
 8303SOL    HW125729   0.280   1.127   1.009  0.1166  1.0612  0.2369
 8303SOL    HW225730   0.334   1.021   1.121  1.2703 -0.4172 -1.6513
 8304SOL     OW25731   1.518   4.584   2.849 -1.0721 -0.1087 -0.0571
 8304SOL    HW125732   1.607   4.575   2.893 -1.8320  0.0749  1.5894
 8304SOL    HW225733   1.482   4.676   2.865 -1.1911  0.0981 -1.4465
 8305SOL     OW25734   0.663   1.603   2.186 -0.9586  0.9282 -0.0394
 8305SOL    HW125735   0.597   1.565   2.250 -1.5968  1.2279 -0.5149
 8305SOL    HW225736   0.691   1.533   2.121 -2.6652  1.4177 -1.3529
 8306SOL     OW25737   3.872   6.292   0.696  1.0091 -0.2897  0.3339
 8306SOL    HW125738   3.922   6.230   0.757  1.1823 -0.5798 -0.0952
 8306SOL    HW225739   3.908   6.284   0.603  1.4313  0.9092  0.3835
 8307SOL     OW25740   5.194   6.793   1.063  0.1480  0.1103 -0.4915
 8307SOL    HW125741   5.199   6.870   0.999  0.3002  0.3473 -0.1960
 8307SOL    HW225742   5.244   6.815   1.146 -0.7072  0.1165  0.0353
 8308SOL     OW25743   1.246   5.745   4.249 -0.2763 -0.5224 -0.1378
 8308SOL    HW125744   1.329   5.741   4.306 -0.3096  2.6715  0.3472
 8308SOL    HW225745   1.182   5.674   4.278  0.5617 -0.3396  2.4473
 8309SOL     OW25746   3.625   5.542   2.439  0.6093 -0.2478 -0.3690
 8309SOL    HW125747   3.702   5.508   2.492  0.5456  2.1277  1.4285
 8309SOL    HW225748   3.540   5.506   2.478  0.6935 -1.0470 -0.9086
 8310SOL     OW25749   0.919   3.355   0.502  0.3780 -0.0130  0.4986
 8310SOL    HW125750   0.833   3.306   0.489  0.7258 -0.6007  0.3581
 8310SOL    HW225751   0.995   3.290   0.497  0.9120  0.6668 -0.5529
 8311SOL     OW25752   5.055   0.865   3.737  0.3446  0.0377  0.6225
 8311SOL    HW125753   5.100   0.808   3.805  2.9315 -0.0435 -1.0098
 8311SOL    HW225754   5.110   0.947   3.720  0.6666 -0.6677 -2.3672
 8312SOL     OW25755   4.261   0.994   5.591 -0.1471 -0.2774 -0.1492
 8312SOL    HW125756   4.235   1.021   5.499  0.5915 -1.2511 -0.6576
 8312SOL    HW225757   4.361   0.990   5.598 -0.1332  1.3016  1.1451
 8313SOL     OW25758   1.773   2.144   4.230 -0.0222 -0.5882 -0.4497
 8313SOL    HW125759   1.676   2.169   4.225  0.8008  2.8850 -1.3163
 8313SOL    HW225760   1.806   2.121   4.138  0.3964  0.0371 -0.4552
 8314SOL     OW25761   0.713   5.387   0.247  0.4130  0.3469 -0.0396
 8314SOL    HW125762   0.735   5.331   0.167  0.4625 -0.6909  0.6843
 8314SOL    HW225763   0.617   5.375   0.270  0.2403  1.1426 -0.3135
 8315SOL     OW25764   3.179   6.943   3.683 -0.0461  0.6097  0.4922
 8315SOL    HW125765   3.179   6.925   3.585 -0.3073 -0.0783  0.6154
 8315SOL    HW225766   3.233   7.025   3.702 -0.2313  0.9090 -0.2519
 8316SOL     OW25767   2.762   4.668   4.405  0.2705 -0.1168  0.3772
 8316SOL    HW125768   2.799   4.713   4.323  0.7976  0.5952  0.9922
 8316SOL    HW225769   2.822   4.687   4.483  0.7738 -2.2746  0.5797
 8317SOL     OW25770   4.658   6.426   5.640  0.1152 -0.0584  0.4038
 8317SOL    HW125771   4.663   6.468   5.549  3.0195  1.5131  1.1776
 8317SOL    HW225772   4.711   6.341   5.640  0.7267  0.3117  0.7636
 8318SOL     OW25773   3.078   0.290   5.629 -0.0910  0.0667  0.0094
 8318SOL    HW125774   3.176   0.302   5.612  0.0064 -0.3428  0.2691
 8318SOL    HW225775   3.063   0.266   5.725 -0.5675  1.4392  0.2915
 8319SOL     OW25776   5.717   6.498   6.118 -0.7528 -0.2018 -0.0385
 8319SOL    HW125777   5.776   6.481   6.197 -0.0098  0.0378 -0.5269
 8319SOL    HW225778   5.621   6.498   6.147 -0.4487  0.8584  1.0384
 8320SOL     OW25779   0.635   3.750   3.294 -0.4933  0.2839 -0.1387
 8320SOL    HW125780   0.731   3.774   3.276  0.0084 -1.0768  0.5487
 8320SOL    HW225781   0.584   3.831   3.320  0.6673  0.9064  0.2662
 8321SOL     OW25782   2.988   4.751   5.526 -0.0912  0.4116  0.6473
 8321SOL    HW125783   2.936   4.666   5.526 -0.6986  0.7412 -0.8457
 8321SOL    HW225784   2.940   4.819   5.470  1.9919  0.6819 -0.9240
 8322SOL     OW25785   5.346   2.976   0.627 -0.1939 -0.1369  0.6421
 8322SOL    HW125786   5.411   3.051   0.645 -1.4394  1.4393 -0.9791
 8322SOL    HW225787   5.343   2.915   0.706  0.3149  1.9453  2.3804
 8323SOL     OW25788   0.122   0.769   3.262 -0.1919  0.1073  0.0294
 8323SOL    HW125789   0.040   0.782   3.317 -0.2926  0.0851 -0.1142
 8323SOL    HW225790   0.133   0.672   3.241 -0.0273  0.0881  0.2045
 8324SOL     OW25791   0.632   4.867   4.691 -0.2473  0.2808  0.1287
 8324SOL    HW125792   0.559   4.853   4.758 -0.7248  0.7412 -0.2759
 8324SOL    HW225793   0.674   4.780   4.668 -2.1730 -0.3585 -1.2825
 8325SOL     OW25794   1.345   6.303   2.174  0.0154  0.1553  0.4724
 8325SOL    HW125795   1.247   6.318   2.160  0.4365  2.1028 -0.8342
 8325SOL    HW225796   1.391   6.296   2.086  1.3157  1.4954  0.9947
 8326SOL     OW25797   4.692   3.938   1.122  0.2724  0.3134 -0.2716
 8326SOL    HW125798   4.774   3.885   1.106  0.0603  0.3292 -1.5403
 8326SOL    HW225799   4.643   3.950   1.035 -0.0070  2.0300  0.0875
 8327SOL     OW25800   0.344   6.378   5.186 -0.3940 -0.3053 -0.8640
 8327SOL    HW125801   0.374   6.317   5.113  0.2365  0.6705 -1.4482
 8327SOL    HW225802   0.363   6.337   5.275 -2.7278 -2.2760 -1.1978
 8328SOL     OW25803   4.860   3.118   3.193 -0.1693 -0.0435 -0.1603
 8328SOL    HW125804   4.878   3.210   3.158 -0.2327 -0.4914 -1.4313
 8328SOL    HW225805   4.878   3.051   3.121 -2.2060 -0.8852  0.0508
 8329SOL     OW25806   1.054   3.461   6.868 -0.1620 -0.4259  0.7703
 8329SOL    HW125807   1.023   3.421   6.782 -1.4068  1.5131  0.2537
 8329SOL    HW225808   1.123   3.402   6.910  0.0883 -1.6648 -1.2867
 8330SOL     OW25809   3.048   5.509   2.741 -0.1858 -0.4681  0.3721
 8330SOL    HW125810   3.006   5.522   2.831 -0.3073 -0.4146  0.3078
 8330SOL    HW225811   2.994   5.443   2.689 -1.2456  0.9529 -0.3954
 8331SOL     OW25812   0.736   6.466   1.396  0.3690 -0.4963  0.1124
 8331SOL    HW125813   0.759   6.454   1.299 -0.5951 -0.7781 -0.0937
 8331SOL    HW225814   0.820   6.465   1.450  1.2631  2.7011 -0.9923
 8332SOL     OW25815   3.787   5.074   5.764  0.3598 -0.1540 -0.2853
 8332SOL    HW125816   3.769   5.085   5.666 -1.4008  1.3240  0.1336
 8332SOL    HW225817   3.786   4.977   5.788  0.7298 -0.5236 -1.7176
 8333SOL     OW25818   0.944   2.953   4.803 -0.0055 -0.0135  0.2616
 8333SOL    HW125819   0.906   2.898   4.878 -0.3282  0.8965  0.7865
 8333SOL    HW225820   0.887   2.943   4.722  1.1432 -2.1506 -0.3446
 8334SOL     OW25821   5.999   0.438   5.075 -0.3755  0.1358  0.4311
 8334SOL    HW125822   5.907   0.427   5.114 -0.3024 -0.6365  0.4043
 8334SOL    HW225823   5.991   0.460   4.978 -0.5390 -0.6645  0.2512
 8335SOL     OW25824   0.838   6.388   2.431 -0.5723  0.2033 -0.2202
 8335SOL    HW125825   0.830   6.335   2.346 -4.4052 -0.4950  0.4088
 8335SOL    HW225826   0.788   6.474   2.422 -0.2925  0.5202  1.0374
 8336SOL     OW25827   0.893   5.334   4.558 -0.1100 -0.0947  0.4872
 8336SOL    HW125828   0.847   5.254   4.596  0.0033  0.4567  1.8731
 8336SOL    HW225829   0.879   5.412   4.620  0.3197  0.7853 -0.5031
 8337SOL     OW25830   3.518   5.235   6.797 -0.1186 -0.0157 -0.3476
 8337SOL    HW125831   3.429   5.264   6.762 -0.7028 -1.4009 -0.0803
 8337SOL    HW225832   3.540   5.286   6.880 -0.7651  0.1805 -0.2975
 8338SOL     OW25833   2.716   0.452   3.808 -0.4121  0.3480 -0.0273
 8338SOL    HW125834   2.656   0.426   3.732 -0.5529 -0.5003  0.3641
 8338SOL    HW225835   2.805   0.410   3.796 -1.0047 -1.3436  1.2220
 8339SOL     OW25836   1.909   0.974   1.165  0.5093 -0.1464 -0.0100
 8339SOL    HW125837   1.912   0.882   1.125  0.3866  0.1808 -0.7767
 8339SOL    HW225838   1.830   0.981   1.226  1.0160 -0.8244  0.7434
 8340SOL     OW25839   1.044   4.185   5.076 -0.1900  0.0881 -0.1863
 8340SOL    HW125840   1.055   4.195   4.977  1.4171  0.4252  0.0033
 8340SOL    HW225841   1.131   4.156   5.116 -0.4130  1.3972  1.3117
 8341SOL     OW25842   1.346   2.425   6.228 -0.3955 -0.6320  0.9898
 8341SOL    HW125843   1.301   2.512   6.211  2.0565  0.5649  0.0349
 8341SOL    HW225844   1.380   2.422   6.322 -0.4368 -0.5061  1.0085
 8342SOL     OW25845   5.124   6.316   1.052 -0.1771 -0.0763  0.0127
 8342SOL    HW125846   5.085   6.224   1.049 -0.0082 -0.3004  2.5654
 8342SOL    HW225847   5.117   6.358   0.962 -0.5501 -2.4498 -1.1419
 8343SOL     OW25848   6.451   5.117   1.608  0.4458 -0.2122 -0.0911
 8343SOL    HW125849   6.404   5.028   1.609 -1.9193  0.9594 -1.0659
 8343SOL    HW225850   6.495   5.131   1.520  1.2257 -0.5713  0.2258
 8344SOL     OW25851   5.909   6.308   1.468 -0.0808 -0.0372 -0.6978
 8344SOL    HW125852   5.885   6.226   1.416  0.6013 -0.0080 -1.0705
 8344SOL    HW225853   5.999   6.296   1.511  0.2703  0.7071 -1.1913
 8345SOL     OW25854   6.758   6.212   4.098  0.2690 -0.3401 -0.5727
 8345SOL    HW125855   6.734   6.266   4.179  0.0799 -1.1256 -0.0901
 8345SOL    HW225856   6.680   6.155   4.072  0.1000  0.3967 -1.7228
 8346SOL     OW25857   5.521   6.206   4.387 -0.1549 -0.4513 -0.0822
 8346SOL    HW125858   5.538   6.129   4.448 -0.3433  0.0630  0.6364
 8346SOL    HW225859   5.442   6.258   4.421  0.8328  0.8803  0.2694
 8347SOL     OW25860   5.935   4.853   3.337  0.2077 -0.4644 -0.0668
 8347SOL    HW125861   5.889   4.907   3.407  1.9051 -0.6457  1.2633
 8347SOL    HW225862   5.874   4.779   3.305 -0.3012 -0.9435  1.8917
 8348SOL     OW25863   2.396   4.623   5.903  0.2887  0.2307 -1.0492
 8348SOL    HW125864   2.298   4.609   5.893  0.0597  0.9650 -0.0123
 8348SOL    HW225865   2.422   4.711   5.864  0.1618  0.9916  0.5192
 8349SOL     OW25866   4.460   0.292   1.610  0.2604  0.2058 -0.0952
 8349SOL    HW125867   4.523   0.231   1.563 -0.7880  0.8157 -2.4496
 8349SOL    HW225868   4.497   0.385   1.611  0.0915  0.2739 -0.0881
 8350SOL     OW25869   4.108   0.851   4.010 -0.1979 -0.2555 -0.0771
 8350SOL    HW125870   4.018   0.864   4.051  0.2804  2.2646  0.3145
 8350SOL    HW225871   4.099   0.843   3.910 -0.9868 -2.2795  0.1056
 8351SOL     OW25872   6.493   1.750   4.716 -0.3669 -0.1720  0.3387
 8351SOL    HW125873   6.525   1.762   4.810 -2.1579  0.9756  0.8591
 8351SOL    HW225874   6.468   1.654   4.702  0.0557 -0.3851  0.9884
 8352SOL     OW25875   2.392   2.203   6.755  0.2440 -0.1169 -0.7356
 8352SOL    HW125876   2.391   2.105   6.738 -0.5760 -0.4338  0.9311
 8352SOL    HW225877   2.454   2.223   6.831  0.1738  0.6300 -0.8657
 8353SOL     OW25878   4.853   6.862   5.290 -0.1097  0.2419  0.3372
 8353SOL    HW125879   4.911   6.834   5.214  0.4653  1.4801  0.2849
 8353SOL    HW225880   4.897   6.837   5.376 -0.3670 -0.4296  0.2738
 8354SOL     OW25881   5.199   4.324   3.170 -0.3514  0.0487  0.4427
 8354SOL    HW125882   5.177   4.229   3.148  0.0097  0.2516 -0.8887
 8354SOL    HW225883   5.124   4.384   3.142 -0.3697  0.2075  0.8212
 8355SOL     OW25884   4.396   1.231   0.133  0.3489  0.1402  0.0679
 8355SOL    HW125885   4.321   1.233   0.066 -0.7677 -0.0427  1.2659
 8355SOL    HW225886   4.386   1.151   0.192  2.3242 -0.6756 -0.6273
 8356SOL     OW25887   3.192   4.572   2.530  0.0593 -0.1470  0.6586
 8356SOL    HW125888   3.238   4.658   2.553 -1.1371  0.7307 -0.1182
 8356SOL    HW225889   3.175   4.520   2.614 -0.5618  1.0958  1.3221
 8357SOL     OW25890   0.367   3.802   1.954 -0.3730 -0.5154  0.6781
 8357SOL    HW125891   0.404   3.738   1.887  0.3174  2.0027 -1.5329
 8357SOL    HW225892   0.343   3.753   2.037  0.7698 -3.4727 -0.5930
 8358SOL     OW25893   2.079   0.485   0.027 -0.2804  0.0852 -0.2913
 8358SOL    HW125894   2.037   0.404  -0.014 -0.9062  1.1971 -1.9191
 8358SOL    HW225895   2.162   0.508  -0.023  1.0241 -0.6653  1.4080
 8359SOL     OW25896   5.029   6.622   2.241 -0.8357 -0.1097  0.8180
 8359SOL    HW125897   5.122   6.602   2.208 -1.6653 -4.4892  0.4506
 8359SOL    HW225898   5.010   6.566   2.322 -3.5784 -0.5030  0.0114
 8360SOL     OW25899   0.546   4.314   5.245 -0.0124  0.3413  0.3959
 8360SOL    HW125900   0.632   4.306   5.196 -0.2976  0.0789 -0.0709
 8360SOL    HW225901   0.470   4.306   5.180 -0.3845  0.7516  0.7769
 8361SOL     OW25902   4.608   0.335   0.381  0.3979 -1.1874 -0.1903
 8361SOL    HW125903   4.655   0.343   0.469  1.5294  0.6652 -0.9080
 8361SOL    HW225904   4.533   0.401   0.378  1.4925  0.0519 -1.2576
 8362SOL     OW25905   6.595   4.867   3.647  0.1255 -0.0816  0.2067
 8362SOL    HW125906   6.610   4.907   3.556 -0.1198 -0.2592  0.0865
 8362SOL    HW225907   6.667   4.898   3.709  0.6484 -0.4413 -0.2071
 8363SOL     OW25908   2.334   1.635   6.299 -0.2039 -0.4660  0.1196
 8363SOL    HW125909   2.326   1.644   6.199  0.0613 -0.6903  0.0753
 8363SOL    HW225910   2.426   1.604   6.321 -0.3622 -0.7165  0.4178
 8364SOL     OW25911   4.415   5.097   1.781  0.0904 -0.2398  0.8415
 8364SOL    HW125912   4.491   5.106   1.716 -0.5103 -1.0139  0.0091
 8364SOL    HW225913   4.413   5.004   1.817 -1.2592 -0.6302 -0.1737
 8365SOL     OW25914   6.562   0.667   5.425 -0.2366 -0.3176 -0.0815
 8365SOL    HW125915   6.620   0.611   5.366 -0.3506 -1.4477  0.8563
 8365SOL    HW225916   6.578   0.764   5.405  0.7711 -0.6493 -0.9545
 8366SOL     OW25917   3.313   5.184   0.417 -0.2904  0.2698  0.7758
 8366SOL    HW125918   3.346   5.250   0.485 -0.7722  3.0539 -1.4889
 8366SOL    HW225919   3.364   5.196   0.331 -0.1732 -2.6452  0.3333
 8367SOL     OW25920   1.161   3.715   5.478  0.4823  0.4474  0.1429
 8367SOL    HW125921   1.064   3.731   5.460 -0.3774 -3.1424  0.7883
 8367SOL    HW225922   1.214   3.733   5.395 -0.6692  2.4716 -0.2198
 8368SOL     OW25923   0.081   6.893   2.449 -0.3085 -0.4715 -0.0555
 8368SOL    HW125924   0.081   6.800   2.486 -1.7009 -0.9910 -1.2751
 8368SOL    HW225925   0.036   6.954   2.514  1.9372 -0.2671  1.4627
 8369SOL     OW25926   3.679   1.987   2.079  0.2806 -0.0358 -0.0072
 8369SOL    HW125927   3.641   1.977   1.987 -2.4218  0.8161  0.9242
 8369SOL    HW225928   3.678   1.898   2.125  0.0655 -0.1520 -0.2378
 8370SOL     OW25929   0.871   6.070   1.879 -0.0332  0.2532 -0.1372
 8370SOL    HW125930   0.782   6.066   1.925  1.4034 -2.5942  2.7507
 8370SOL    HW225931   0.890   5.982   1.835  0.6496  1.4395 -2.4096
 8371SOL     OW25932   1.617   2.487   2.029 -0.0725 -0.1962  0.6417
 8371SOL    HW125933   1.595   2.406   2.083 -0.5017 -0.0214  0.7369
 8371SOL    HW225934   1.703   2.473   1.980 -1.5293 -1.8359 -1.5960
 8372SOL     OW25935   0.597   6.142   4.318  0.0823 -0.1221  0.2022
 8372SOL    HW125936   0.528   6.073   4.340 -1.2846  1.3469  0.7138
 8372SOL    HW225937   0.587   6.220   4.380  0.6604  1.1375 -1.2287
 8373SOL     OW25938   5.285   0.440   4.282 -1.0477 -0.2486  0.3112
 8373SOL    HW125939   5.254   0.402   4.369 -1.9216 -0.0157  0.1058
 8373SOL    HW225940   5.344   0.519   4.300 -1.0585 -0.3253  0.6896
 8374SOL     OW25941   5.672   0.158   0.439 -0.1367 -0.5835  0.0399
 8374SOL    HW125942   5.763   0.130   0.470 -0.1806  0.4171  1.1741
 8374SOL    HW225943   5.645   0.241   0.488 -1.3394 -0.4262 -0.8512
 8375SOL     OW25944   5.402   4.948   0.434  0.5259 -0.3332  0.3158
 8375SOL    HW125945   5.350   4.863   0.424 -0.6569  0.3644  0.3891
 8375SOL    HW225946   5.434   4.957   0.528 -0.8115  0.1172  0.7382
 8376SOL     OW25947   3.184   5.714   4.023 -0.1137 -0.1889 -0.0074
 8376SOL    HW125948   3.270   5.760   4.042 -1.0994  1.5709  0.4512
 8376SOL    HW225949   3.191   5.666   3.935  1.6986 -1.1463  0.6170
 8377SOL     OW25950   6.432   3.928   6.937 -0.0479  0.2409 -0.3616
 8377SOL    HW125951   6.412   4.012   6.988 -0.2556 -0.1564  0.2340
 8377SOL    HW225952   6.378   3.853   6.976  0.4026 -0.2408 -0.6569
 8378SOL     OW25953   5.017   5.079   0.800 -0.1609 -0.0328  0.2438
 8378SOL    HW125954   5.060   5.132   0.727 -1.0428  0.1679 -0.1390
 8378SOL    HW225955   5.088   5.035   0.855  0.4859 -1.6578 -1.7970
 8379SOL     OW25956   5.869   1.193   5.627  0.5642 -0.3630  0.3846
 8379SOL    HW125957   5.900   1.115   5.572  1.5275 -0.5264  1.1203
 8379SOL    HW225958   5.770   1.188   5.639  0.3889 -0.5368 -0.9770
 8380SOL     OW25959   1.750   6.149   1.136 -0.0747 -0.1217  0.1994
 8380SOL    HW125960   1.703   6.108   1.057  1.5619  2.0079 -2.0498
 8380SOL    HW225961   1.755   6.248   1.123  1.2090  0.1702  2.5123
 8381SOL     OW25962   3.997   0.902   0.072 -0.1486  0.4173  0.7205
 8381SOL    HW125963   4.081   0.881   0.023 -1.5825 -1.8391 -1.0082
 8381SOL    HW225964   4.007   0.881   0.169  0.6835 -1.8829  0.1943
 8382SOL     OW25965   2.663   0.836   3.360  0.0669  0.0905  0.1850
 8382SOL    HW125966   2.623   0.927   3.350  0.8043  0.4267  0.2307
 8382SOL    HW225967   2.696   0.824   3.454  0.3809 -0.0484  0.0585
 8383SOL     OW25968   4.039   0.392   1.969  0.6035 -0.1849 -0.2527
 8383SOL    HW125969   4.080   0.455   1.902 -1.5074  1.1067 -0.4077
 8383SOL    HW225970   3.945   0.419   1.987  0.6938 -1.2793  2.3050
 8384SOL     OW25971   4.278   5.490   6.674  0.2249  0.2855  0.8201
 8384SOL    HW125972   4.189   5.469   6.714  0.7112  0.9050  2.2829
 8384SOL    HW225973   4.279   5.586   6.644  0.5226  0.3941  1.1709
 8385SOL     OW25974   6.783   3.391   3.742 -0.4413 -0.1136  0.1604
 8385SOL    HW125975   6.796   3.294   3.763  1.0750 -0.0965 -0.5564
 8385SOL    HW225976   6.733   3.401   3.656  2.2196 -0.3692 -1.5191
 8386SOL     OW25977   6.208   6.018   2.156  0.3833  0.0276 -0.1068
 8386SOL    HW125978   6.137   6.087   2.138  0.9183  0.5296 -0.3184
 8386SOL    HW225979   6.275   6.020   2.082  1.1076  0.1812  0.5421
 8387SOL     OW25980   6.635   1.746   5.759  0.0695  0.1677 -0.4939
 8387SOL    HW125981   6.681   1.700   5.683 -0.6851  0.9492 -1.4430
 8387SOL    HW225982   6.562   1.804   5.724 -1.8964 -1.2643  0.9604
 8388SOL     OW25983   2.717   6.399   2.115 -0.1417 -0.3750 -0.2695
 8388SOL    HW125984   2.777   6.323   2.142  2.7962  1.8854  0.0590
 8388SOL    HW225985   2.676   6.439   2.197  0.0008 -0.3062 -0.2313
 8389SOL     OW25986   6.598   2.976   0.542  0.2098 -0.7691  0.0578
 8389SOL    HW125987   6.558   3.068   0.542  1.4074 -0.1878  2.0076
 8389SOL    HW225988   6.607   2.944   0.448 -1.9647  0.3015 -0.5933
 8390SOL     OW25989   0.065   0.186   0.679  0.7154 -0.1904 -0.0226
 8390SOL    HW125990   0.113   0.118   0.735  1.7275  0.3764 -0.1875
 8390SOL    HW225991   0.054   0.271   0.731  1.1199  0.1366 -0.4647
 8391SOL     OW25992   5.119   5.878   3.202 -0.2956 -0.4740  0.1649
 8391SOL    HW125993   5.127   5.970   3.164  0.2789 -0.0348  1.3045
 8391SOL    HW225994   5.116   5.811   3.127 -1.0845  0.4830 -0.6862
 8392SOL     OW25995   3.969   0.406   5.950  0.0878 -0.6970 -0.1582
 8392SOL    HW125996   3.883   0.457   5.959  0.4601  0.0662 -0.7790
 8392SOL    HW225997   4.028   0.452   5.883  0.5741 -1.7719 -0.4892
 8393SOL     OW25998   2.762   4.571   5.128  0.2027  0.0914 -0.0393
 8393SOL    HW125999   2.833   4.568   5.058 -0.4669 -1.9608 -0.7218
 8393SOL    HW226000   2.704   4.490   5.119 -1.4616  1.0736  1.2928
 8394SOL     OW26001   2.521   3.892   1.086 -0.3122  0.1335  0.2926
 8394SOL    HW126002   2.480   3.830   1.019  0.0276  0.9048 -0.6573
 8394SOL    HW226003   2.590   3.949   1.041 -0.0179  0.6221  1.3225
 8395SOL     OW26004   5.930   3.660   1.709 -0.3006  0.0323  0.0777
 8395SOL    HW126005   5.840   3.627   1.681 -0.2841 -0.8811  1.0083
 8395SOL    HW226006   5.939   3.757   1.687 -2.4369  0.7820  2.0745
 8396SOL     OW26007   3.027   4.605   6.389 -0.5209 -0.6262 -0.8950
 8396SOL    HW126008   3.089   4.595   6.311 -0.2441 -2.7275 -0.4705
 8396SOL    HW226009   2.971   4.523   6.398 -1.7612  0.2789  0.1257
 8397SOL     OW26010   1.090   0.433   1.148 -0.3599  0.3503  0.3088
 8397SOL    HW126011   1.157   0.439   1.223  0.0340 -0.8646  0.0731
 8397SOL    HW226012   1.136   0.451   1.061 -0.2657 -0.7481  0.1202
 8398SOL     OW26013   2.203   4.355   3.426  0.6413  0.4061 -0.2268
 8398SOL    HW126014   2.303   4.358   3.437  0.6929  2.3563 -0.9003
 8398SOL    HW226015   2.162   4.319   3.510  1.9363 -1.8926 -0.4717
 8399SOL     OW26016   3.165   5.295   3.108 -0.4035 -0.1337  0.6192
 8399SOL    HW126017   3.155   5.394   3.111 -0.2216 -0.1101  0.4808
 8399SOL    HW226018   3.179   5.259   3.200 -1.5981 -0.1549  0.8055
 8400SOL     OW26019   0.202   1.685   6.925  0.1069  0.4794  0.5474
 8400SOL    HW126020   0.207   1.785   6.927  1.6276  0.4633 -0.3977
 8400SOL    HW226021   0.262   1.651   6.853  0.0348 -1.1551  1.2225
 8401SOL     OW26022   6.598   0.118   6.419 -0.4228  0.4102  0.4703
 8401SOL    HW126023   6.690   0.156   6.411 -0.5065  0.4211 -0.5729
 8401SOL    HW226024   6.570   0.120   6.515  0.4138  0.9840  0.7210
 8402SOL     OW26025   0.468   1.993   2.291 -0.2285 -0.0304  0.3234
 8402SOL    HW126026   0.457   1.990   2.192 -1.3323  0.1722  0.4227
 8402SOL    HW226027   0.564   2.002   2.314  0.2437 -2.0207 -0.6845
 8403SOL     OW26028   2.984   0.214   1.168  0.0296 -0.1619  0.3498
 8403SOL    HW126029   3.052   0.142   1.177  1.6859  1.2382 -0.4489
 8403SOL    HW226030   2.892   0.174   1.177  0.8911 -2.2242  0.6134
 8404SOL     OW26031   1.995   0.157   0.252  0.2433  0.2594  0.8036
 8404SOL    HW126032   2.045   0.124   0.332  0.2040  2.5569  1.8730
 8404SOL    HW226033   1.975   0.254   0.264  0.8791  0.8827 -2.3309
 8405SOL     OW26034   5.910   2.077   3.586  0.0068 -0.1468 -0.1294
 8405SOL    HW126035   5.925   2.137   3.664  0.2574 -0.4831  0.0832
 8405SOL    HW226036   5.955   1.989   3.602  0.4684 -0.0533 -0.8575
 8406SOL     OW26037   6.409   2.603   1.663 -0.4764 -0.1375 -0.2071
 8406SOL    HW126038   6.409   2.695   1.702 -0.8505 -0.4065  0.4434
 8406SOL    HW226039   6.353   2.543   1.720 -1.6850 -0.3664 -1.6014
 8407SOL     OW26040   6.303   1.389   4.955 -0.3725 -0.4904  0.2863
 8407SOL    HW126041   6.237   1.457   4.988  0.6167  0.2051  0.8833
 8407SOL    HW226042   6.349   1.425   4.873 -0.4622 -0.8171  0.0909
 8408SOL     OW26043   2.028   5.848   6.669  0.4336  0.4162  0.0039
 8408SOL    HW126044   1.956   5.849   6.739 -0.6657 -0.0441 -1.0755
 8408SOL    HW226045   2.054   5.754   6.650  0.6982  0.5371 -0.2252
 8409SOL     OW26046   0.488   6.424   3.426 -0.0094  0.3335 -0.5234
 8409SOL    HW126047   0.441   6.444   3.340  0.0988  1.7344 -0.2766
 8409SOL    HW226048   0.422   6.388   3.492 -0.8477  2.4165 -0.1282
 8410SOL     OW26049   6.440   5.013   4.544 -0.1825 -0.1070  0.1747
 8410SOL    HW126050   6.342   5.021   4.558 -0.2671  0.5201 -0.6741
 8410SOL    HW226051   6.482   5.104   4.549 -0.0257 -0.0014 -2.0004
 8411SOL     OW26052   2.555   4.880   3.317 -0.9607  0.3164  0.3730
 8411SOL    HW126053   2.475   4.875   3.377 -2.2717  0.8747 -1.2515
 8411SOL    HW226054   2.573   4.976   3.296  0.0559  0.1779  0.5853
 8412SOL     OW26055   1.406   6.991   4.188  0.7113 -0.5419  0.1263
 8412SOL    HW126056   1.455   6.992   4.101  0.4196  0.1520 -0.0378
 8412SOL    HW226057   1.372   7.083   4.209  0.2750 -0.8206  0.6848
 8413SOL     OW26058   4.641   3.186   1.941 -0.1617 -0.2296  0.3619
 8413SOL    HW126059   4.729   3.228   1.962 -0.4658  0.0263  1.2042
 8413SOL    HW226060   4.639   3.155   1.846  0.1350  1.5554 -0.2592
 8414SOL     OW26061   5.793   4.094   1.783 -0.3000 -0.0874 -0.1357
 8414SOL    HW126062   5.853   4.035   1.729 -0.8200  0.4685 -1.3691
 8414SOL    HW226063   5.823   4.189   1.774  1.8172 -0.2216  3.4823
 8415SOL     OW26064   3.318   3.881   5.098  0.1388 -0.0459  0.2763
 8415SOL    HW126065   3.343   3.790   5.131 -0.6696  0.4054  2.3232
 8415SOL    HW226066   3.242   3.875   5.035 -1.2556 -0.7034  1.9513
 8416SOL     OW26067   4.118   4.961   3.537  0.3457 -0.0129 -0.0872
 8416SOL    HW126068   4.093   4.937   3.443 -0.1972  0.8762 -0.1751
 8416SOL    HW226069   4.172   4.886   3.577  1.3368 -0.0281 -1.3860
 8417SOL     OW26070   1.632   4.502   4.514  0.2943 -0.0430 -0.0468
 8417SOL    HW126071   1.554   4.481   4.454 -0.2247  1.2615  0.1422
 8417SOL    HW226072   1.696   4.562   4.465 -1.3516  3.1559  1.4158
 8418SOL     OW26073   5.537   4.014   0.871 -0.1069  0.1746  0.2193
 8418SOL    HW126074   5.616   3.956   0.855 -0.5692 -0.1650 -0.9000
 8418SOL    HW226075   5.487   4.028   0.786 -0.0024  2.2493  0.4411
 8419SOL     OW26076   1.690   6.995   2.124  0.5530  0.3234  0.1022
 8419SOL    HW126077   1.739   6.949   2.198  0.2537 -1.0450 -0.5375
 8419SOL    HW226078   1.613   6.940   2.094 -1.1946  2.2664  0.8126
 8420SOL     OW26079   2.272   1.179   1.206  0.4495  0.6366 -0.3824
 8420SOL    HW126080   2.295   1.231   1.288 -0.9825  0.7828 -0.0493
 8420SOL    HW226081   2.342   1.195   1.136  2.0408  0.0139  0.9780
 8421SOL     OW26082   6.713   1.308   5.372  0.5816  0.3413 -0.4732
 8421SOL    HW126083   6.668   1.321   5.284  1.1331  1.2265 -0.6361
 8421SOL    HW226084   6.765   1.223   5.371 -1.1014 -0.7366 -0.2591
 8422SOL     OW26085   1.034   3.457   3.071  0.3904  0.0694 -0.1570
 8422SOL    HW126086   1.057   3.553   3.088 -0.9064  0.2807  0.4638
 8422SOL    HW226087   0.956   3.451   3.009 -2.2847 -0.4260  3.0408
 8423SOL     OW26088   6.980   3.839   3.283 -0.2169 -0.4055  0.2693
 8423SOL    HW126089   6.927   3.759   3.310  0.9865 -1.5929 -0.7645
 8423SOL    HW226090   6.919   3.909   3.245 -1.2505 -0.9141  0.9423
 8424SOL     OW26091   4.538   5.506   6.845  0.1297 -0.2412  0.2910
 8424SOL    HW126092   4.529   5.434   6.913 -1.0937 -1.0699 -0.6938
 8424SOL    HW226093   4.485   5.482   6.763 -0.6454  1.9435  0.0639
 8425SOL     OW26094   3.269   5.259   1.512 -0.3210  0.1969 -0.1402
 8425SOL    HW126095   3.244   5.206   1.431  0.6350  1.3131 -1.2050
 8425SOL    HW226096   3.248   5.356   1.497 -0.8803  0.3194  1.2792
 8426SOL     OW26097   4.304   5.900   6.117 -0.9495 -0.0912  0.3259
 8426SOL    HW126098   4.317   5.992   6.155 -1.5718  0.6319 -1.1350
 8426SOL    HW226099   4.287   5.906   6.019  0.0176 -1.8673  0.0124
 8427SOL     OW26100   4.091   5.337   1.013 -0.2289 -0.4254  0.3746
 8427SOL    HW126101   4.178   5.312   1.057  0.4402  0.6104 -0.2890
 8427SOL    HW226102   4.102   5.334   0.914 -0.9246 -0.1949  0.2835
 8428SOL     OW26103   5.420   2.642   5.722 -0.3710 -0.3574  0.3251
 8428SOL    HW126104   5.438   2.695   5.805 -1.6223 -0.2574  0.5561
 8428SOL    HW226105   5.321   2.631   5.710 -0.2680  0.5593 -1.7388
 8429SOL     OW26106   2.779   0.270   5.575 -0.2212  0.0747  0.3150
 8429SOL    HW126107   2.689   0.315   5.579 -0.5881 -0.0133 -3.2800
 8429SOL    HW226108   2.850   0.339   5.563  0.0166  0.0238  1.3278
 8430SOL     OW26109   5.084   0.921   1.015  0.5572 -0.0815 -0.2104
 8430SOL    HW126110   4.985   0.904   1.018  0.4655  0.5141  0.9599
 8430SOL    HW226111   5.109   0.980   1.091  1.7816  0.0199 -0.6749
 8431SOL     OW26112   5.339   6.204   0.034 -0.1053  0.0368 -0.0143
 8431SOL    HW126113   5.259   6.258   0.006  0.5365 -0.0440 -2.1231
 8431SOL    HW226114   5.348   6.209   0.134 -1.9350  1.1590  0.1520
 8432SOL     OW26115   6.303   1.233   4.196  0.0735  0.0092 -0.7026
 8432SOL    HW126116   6.316   1.246   4.098  0.4493  0.6702 -0.5676
 8432SOL    HW226117   6.353   1.152   4.226 -0.1525 -0.2727 -1.0788
 8433SOL     OW26118   1.407   0.298   6.377  0.1313 -0.1297 -0.1772
 8433SOL    HW126119   1.492   0.246   6.378  0.3874  0.2694 -0.5739
 8433SOL    HW226120   1.366   0.292   6.286  0.3798  0.6958 -0.3527
 8434SOL     OW26121   0.103   0.905   6.712 -0.1307 -0.1602  0.1505
 8434SOL    HW126122   0.114   0.954   6.798  2.0245  0.3276 -0.3478
 8434SOL    HW226123   0.174   0.934   6.648 -0.6248 -1.7856 -1.1957
 8435SOL     OW26124   1.621   0.737   0.951 -0.2974  0.3777 -0.2903
 8435SOL    HW126125   1.710   0.734   0.905 -0.4720  0.8972 -0.6670
 8435SOL    HW226126   1.552   0.776   0.889 -0.6752  0.4675  0.1786
 8436SOL     OW26127   1.204   6.070   4.367  0.0920 -0.0496  0.2499
 8436SOL    HW126128   1.266   6.083   4.289 -2.3137  2.4743 -1.4738
 8436SOL    HW226129   1.126   6.014   4.338 -2.1283  2.9882 -0.1676
 8437SOL     OW26130   4.783   3.323   2.550  0.0106  0.6393  0.4690
 8437SOL    HW126131   4.722   3.246   2.535  1.8800 -0.7340 -0.4935
 8437SOL    HW226132   4.763   3.395   2.484  0.9446 -0.8048 -1.4847
 8438SOL     OW26133   4.929   6.609   6.655 -0.0453 -0.2930 -0.3139
 8438SOL    HW126134   4.883   6.653   6.733 -0.8872 -0.7963 -0.5129
 8438SOL    HW226135   5.006   6.554   6.687 -0.9707 -1.2766  0.2815
 8439SOL     OW26136   4.950   1.383   3.330  0.4949 -0.8418 -0.2908
 8439SOL    HW126137   4.990   1.467   3.368  1.8258 -0.7090 -1.8898
 8439SOL    HW226138   5.008   1.348   3.257  0.0545 -3.2817  0.4266
 8440SOL     OW26139   5.433   0.257   5.748  0.5458 -0.0790  0.5321
 8440SOL    HW126140   5.444   0.159   5.766 -0.1900 -0.1695  0.5002
 8440SOL    HW226141   5.342   0.275   5.712  0.4652  0.6943  1.0898
 8441SOL     OW26142   0.881   1.905   4.752 -0.4082  0.1178  0.4447
 8441SOL    HW126143   0.859   1.821   4.801 -1.4188  0.7679  1.1431
 8441SOL    HW226144   0.815   1.919   4.678 -0.3396  0.3774  0.4313
 8442SOL     OW26145   0.696   6.308   6.212  0.2753  0.2429  0.2032
 8442SOL    HW126146   0.629   6.353   6.271 -0.9167  0.6496 -1.3992
 8442SOL    HW226147   0.755   6.376   6.169  1.0172 -0.0394  0.7389
 8443SOL     OW26148   5.080   4.466   3.754 -0.5159  1.0646 -0.3526
 8443SOL    HW126149   5.177   4.489   3.746 -0.3723  0.1404 -1.5694
 8443SOL    HW226150   5.049   4.422   3.669 -2.0215  1.4109 -0.0125
 8444SOL     OW26151   4.866   0.718   7.000 -0.4147 -0.2475  0.0917
 8444SOL    HW126152   4.894   0.720   6.904  0.9759 -0.3413  0.4818
 8444SOL    HW226153   4.813   0.635   7.017 -0.1475 -0.5379 -0.4570
 8445SOL     OW26154   5.326   4.874   2.656  0.0278  0.4044  0.6386
 8445SOL    HW126155   5.359   4.814   2.729  1.8616 -0.0873 -0.5183
 8445SOL    HW226156   5.403   4.925   2.618 -0.9980  1.1292 -0.5358
 8446SOL     OW26157   4.810   4.983   1.796  0.4979 -0.1846  0.5352
 8446SOL    HW126158   4.855   5.072   1.798  0.8992 -0.3461 -0.5729
 8446SOL    HW226159   4.842   4.931   1.717 -0.4995 -0.9103  0.5848
 8447SOL     OW26160   4.208   0.436   6.889  0.0808 -0.0967 -0.4522
 8447SOL    HW126161   4.109   0.439   6.901  0.2648 -0.4291  1.3358
 8447SOL    HW226162   4.234   0.492   6.810 -1.2756  2.3646  0.7511
 8448SOL     OW26163   6.684   6.700   3.289  0.4285  0.2608 -0.0474
 8448SOL    HW126164   6.612   6.642   3.326  0.6676 -0.5887 -0.8639
 8448SOL    HW226165   6.652   6.794   3.283  0.1364  0.2880  1.5926
 8449SOL     OW26166   5.572   3.235   2.025 -0.1937 -1.1277  0.0047
 8449SOL    HW126167   5.536   3.288   1.948  2.8226 -1.0870 -1.5197
 8449SOL    HW226168   5.637   3.291   2.076  1.8461 -2.7265 -0.6865
 8450SOL     OW26169   2.861   1.262   5.193 -0.2524  0.2189  0.1223
 8450SOL    HW126170   2.841   1.264   5.095 -0.5270 -3.1388 -0.0232
 8450SOL    HW226171   2.939   1.201   5.210 -1.2302 -0.5959  2.0697
 8451SOL     OW26172   6.109   2.293   1.512  0.5306 -0.3730 -0.1603
 8451SOL    HW126173   6.203   2.322   1.530  0.5363 -0.8429  0.5957
 8451SOL    HW226174   6.098   2.197   1.538  0.1305 -0.6460 -1.2830
 8452SOL     OW26175   6.208   2.517   4.041  0.0036 -0.2853 -0.7928
 8452SOL    HW126176   6.129   2.545   4.095  0.5640  0.8824 -0.5467
 8452SOL    HW226177   6.201   2.557   3.949  0.4382  0.0657 -0.6793
 8453SOL     OW26178   2.689   4.162   0.508 -0.4124 -0.8298  0.7721
 8453SOL    HW126179   2.660   4.190   0.599 -1.0653  0.1719  0.2660
 8453SOL    HW226180   2.628   4.090   0.475 -1.0470 -0.1991  0.5579
 8454SOL     OW26181   4.113   4.356   2.663  0.4328  0.2961 -0.2231
 8454SOL    HW126182   4.138   4.321   2.573  0.9398 -1.0919  0.4189
 8454SOL    HW226183   4.113   4.456   2.662 -2.8378  0.4221 -2.6576
 8455SOL     OW26184   3.224   5.021   6.701  0.0010  0.5176  0.3494
 8455SOL    HW126185   3.174   4.950   6.651  0.8103 -0.0400  0.3087
 8455SOL    HW226186   3.285   4.978   6.768  0.0721  1.2027  0.7345
 8456SOL     OW26187   1.801   5.494   5.525 -0.1797  0.4917 -0.1937
 8456SOL    HW126188   1.858   5.420   5.561 -0.9499 -0.6013 -1.1537
 8456SOL    HW226189   1.841   5.529   5.440 -0.7533 -0.0632 -0.7015
 8457SOL     OW26190   4.865   5.894   1.391  0.0871 -0.2952  0.2350
 8457SOL    HW126191   4.837   5.874   1.297  1.4367 -0.1247 -0.2346
 8457SOL    HW226192   4.931   5.969   1.390  0.4017 -0.5435  1.2743
 8458SOL     OW26193   0.112   2.573   4.298 -0.0701 -0.0760 -0.2311
 8458SOL    HW126194   0.095   2.480   4.329  0.5633 -0.2741 -0.4675
 8458SOL    HW226195   0.027   2.612   4.261 -0.6522 -0.0901  1.0336
 8459SOL     OW26196   5.355   4.326   4.039  0.3593 -0.6412  0.3252
 8459SOL    HW126197   5.383   4.304   4.132 -1.9916 -2.1133  0.7453
 8459SOL    HW226198   5.437   4.341   3.983  1.8362 -0.3794  2.4347
 8460SOL     OW26199   1.867   4.044   4.752  0.2620 -0.0596  0.4975
 8460SOL    HW126200   1.803   4.050   4.675  1.3039  1.3410 -0.3218
 8460SOL    HW226201   1.903   4.135   4.771  2.4968 -0.8837  0.4775
 8461SOL     OW26202   4.161   1.901   5.652 -0.4042  0.1798 -0.2284
 8461SOL    HW126203   4.190   1.822   5.706 -0.1883  0.3741 -0.0579
 8461SOL    HW226204   4.122   1.970   5.713  1.8609  1.3502  0.0191
 8462SOL     OW26205   4.209   3.690   1.001  0.0792 -0.6214 -0.1644
 8462SOL    HW126206   4.113   3.664   1.004  0.1719 -0.9617  0.0451
 8462SOL    HW226207   4.265   3.607   0.990  0.2977 -0.3385 -1.2725
 8463SOL     OW26208   6.778   1.684   6.896 -0.0614  0.2106 -0.2548
 8463SOL    HW126209   6.813   1.773   6.866  2.0344 -0.3901  0.2265
 8463SOL    HW226210   6.820   1.612   6.842 -1.5392 -0.5319 -0.4581
 8464SOL     OW26211   2.504   1.810   5.607 -0.0382 -0.5340 -0.2321
 8464SOL    HW126212   2.443   1.885   5.581  0.1803 -0.2011  0.2016
 8464SOL    HW226213   2.595   1.827   5.570  0.9221  1.1494  2.5702
 8465SOL     OW26214   6.672   1.000   6.949 -0.2206  0.1882 -0.4423
 8465SOL    HW126215   6.690   0.943   6.870  0.7507 -0.3899  0.1814
 8465SOL    HW226216   6.594   1.060   6.930 -0.4138 -0.4044 -1.5807
 8466SOL     OW26217   6.508   0.818   5.952 -0.1263 -0.4014  0.0947
 8466SOL    HW126218   6.596   0.827   5.904 -0.3279 -0.8948 -0.3798
 8466SOL    HW226219   6.433   0.826   5.886 -0.4276 -0.3894  0.4363
 8467SOL     OW26220   3.539   0.160   4.477 -0.0200  0.4981  0.7800
 8467SOL    HW126221   3.450   0.172   4.434 -0.4153 -0.7769  1.1893
 8467SOL    HW226222   3.609   0.207   4.422 -0.6990  0.0240 -0.5369
 8468SOL     OW26223   5.366   1.539   2.131  0.1011 -0.1832 -0.5169
 8468SOL    HW126224   5.446   1.587   2.166  0.8733 -1.7240 -0.0873
 8468SOL    HW226225   5.291   1.605   2.118  1.0911  1.1135  0.0537
 8469SOL     OW26226   1.302   3.995   1.499  0.0511 -0.5109 -0.3932
 8469SOL    HW126227   1.355   3.939   1.434  1.7110 -0.7314  1.0765
 8469SOL    HW226228   1.354   4.077   1.521 -0.0150 -0.9185  1.3989
 8470SOL     OW26229   0.910   4.736   6.961  0.4263 -0.0571 -0.2973
 8470SOL    HW126230   0.987   4.731   6.898 -0.3949 -0.9212 -1.2701
 8470SOL    HW226231   0.911   4.657   7.022 -0.6238 -1.0075 -1.4615
 8471SOL     OW26232   0.504   1.256   6.599 -0.0395 -0.0925 -0.2917
 8471SOL    HW126233   0.583   1.196   6.613  0.2362  0.5992  1.4015
 8471SOL    HW226234   0.440   1.213   6.536  1.4187 -0.9265 -1.2522
 8472SOL     OW26235   4.960   0.732   1.260  0.1605  0.5980  0.0476
 8472SOL    HW126236   4.962   0.632   1.267  0.1821  0.6357  0.6249
 8472SOL    HW226237   4.989   0.772   1.347  0.1162  1.1072 -0.1703
 8473SOL     OW26238   2.896   5.379   2.009  0.1263 -0.5474  0.3855
 8473SOL    HW126239   2.908   5.299   2.067  0.4337 -0.4430  0.4688
 8473SOL    HW226240   2.868   5.457   2.065 -0.5861 -0.6929  0.2471
 8474SOL     OW26241   3.573   3.298   3.581  0.0972  0.0447  0.4614
 8474SOL    HW126242   3.567   3.364   3.506  0.2726  1.1003  1.3325
 8474SOL    HW226243   3.481   3.269   3.608 -0.1623  1.6920  1.5185
 8475SOL     OW26244   3.445   5.256   3.571 -0.1154  0.2362  0.5778
 8475SOL    HW126245   3.436   5.292   3.664  0.0745  1.5975  0.0930
 8475SOL    HW226246   3.541   5.257   3.543  0.1476 -2.2974  1.1411
 8476SOL     OW26247   4.750   5.146   4.511 -0.0702  0.4268 -0.0329
 8476SOL    HW126248   4.798   5.217   4.562  0.2533  0.4427 -0.3488
 8476SOL    HW226249   4.778   5.056   4.544  1.1072  0.4035 -1.0028
 8477SOL     OW26250   4.856   3.093   5.549  0.2183 -0.2285 -0.0391
 8477SOL    HW126251   4.909   3.177   5.534  0.2997  0.0249  1.4621
 8477SOL    HW226252   4.852   3.074   5.647 -1.0253 -1.1947 -0.2545
 8478SOL     OW26253   0.704   2.854   4.268 -0.4413  0.0414 -0.7215
 8478SOL    HW126254   0.612   2.818   4.285 -0.1097 -1.0797 -1.2160
 8478SOL    HW226255   0.702   2.913   4.187 -1.0547  1.4605  0.2888
 8479SOL     OW26256   1.778   3.968   1.516 -0.2949  0.5429  0.0111
 8479SOL    HW126257   1.697   4.022   1.540 -1.0733  0.0536 -1.4391
 8479SOL    HW226258   1.807   3.914   1.596 -3.0284 -1.3335 -0.1425
 8480SOL     OW26259   0.668   2.300   4.399 -0.4296 -0.3403  0.1216
 8480SOL    HW126260   0.729   2.333   4.327 -0.5563 -1.4436 -0.5142
 8480SOL    HW226261   0.621   2.378   4.441 -0.5897  0.3056 -1.2086
 8481SOL     OW26262   6.810   6.445   5.548 -0.0324  0.3823 -0.2882
 8481SOL    HW126263   6.720   6.481   5.524  0.5453  2.0617 -0.0744
 8481SOL    HW226264   6.866   6.438   5.465  0.7233  2.6219 -0.0540
 8482SOL     OW26265   0.094   0.548   5.910 -0.3559 -0.3112 -0.0714
 8482SOL    HW126266  -0.002   0.570   5.929 -0.0516  1.4725 -0.4140
 8482SOL    HW226267   0.144   0.632   5.891  1.5904 -1.0488  1.4150
 8483SOL     OW26268   0.269   4.191   0.649  0.1541 -0.1847  0.5413
 8483SOL    HW126269   0.363   4.187   0.682 -0.0853 -0.4916  1.2075
 8483SOL    HW226270   0.269   4.192   0.549  0.8755  0.2470  0.5344
 8484SOL     OW26271   1.860   2.987   0.699  0.0789  0.4291 -0.3874
 8484SOL    HW126272   1.874   3.077   0.659  0.1932 -0.5228 -2.6410
 8484SOL    HW226273   1.895   2.917   0.636  0.7431 -1.1643  1.6550
 8485SOL     OW26274   2.701   2.451   6.659 -0.6161 -0.1271 -0.1148
 8485SOL    HW126275   2.671   2.486   6.748  0.7946  0.7279  0.0546
 8485SOL    HW226276   2.787   2.402   6.669 -0.0433  0.6399 -1.1110
 8486SOL     OW26277   0.419   0.831   0.872  0.2723 -0.1995  0.0603
 8486SOL    HW126278   0.421   0.740   0.829  0.0419 -0.7426  1.1580
 8486SOL    HW226279   0.417   0.901   0.801  0.6504 -1.0449 -0.8141
 8487SOL     OW26280   6.887   6.289   4.633 -0.0172 -0.0290 -0.0616
 8487SOL    HW126281   6.816   6.220   4.621 -0.5233  0.0260  2.1873
 8487SOL    HW226282   6.938   6.300   4.547 -1.0203 -1.9429 -0.9657
 8488SOL     OW26283   3.914   5.751   6.046 -0.1500  0.2180 -0.1656
 8488SOL    HW126284   3.972   5.679   6.009  0.0031  1.3113 -2.2151
 8488SOL    HW226285   3.863   5.795   5.972 -0.5342  1.9651  1.0515
 8489SOL     OW26286   5.576   1.411   2.650  0.2842  0.0400  0.4838
 8489SOL    HW126287   5.495   1.401   2.708  0.9097  0.2493  1.4120
 8489SOL    HW226288   5.658   1.385   2.702  1.2067  3.0333  0.7121
 8490SOL     OW26289   1.571   5.739   2.418 -0.2008  0.1417 -0.2084
 8490SOL    HW126290   1.578   5.817   2.479  1.0241 -0.7777  0.8830
 8490SOL    HW226291   1.614   5.761   2.330  1.3040  0.2882  0.5388
 8491SOL     OW26292   0.959   6.955   4.209 -0.4280  0.7352  0.2889
 8491SOL    HW126293   0.959   6.951   4.109  0.6960  0.3463  0.2917
 8491SOL    HW226294   0.865   6.965   4.242 -1.1655 -2.0101 -0.7032
 8492SOL     OW26295   0.769   0.136   5.177  0.2680 -0.4472  0.1800
 8492SOL    HW126296   0.741   0.183   5.261 -3.4027 -0.5344 -0.8409
 8492SOL    HW226297   0.710   0.165   5.102  2.1862 -1.8375 -1.9896
 8493SOL     OW26298   1.056   2.499   2.865 -0.1430 -0.9457  0.1872
 8493SOL    HW126299   1.002   2.451   2.935  0.6412  0.4040  1.7896
 8493SOL    HW226300   1.039   2.597   2.872 -1.0082 -0.8294 -2.4141
 8494SOL     OW26301   3.247   4.375   3.083  0.4901 -0.2069  0.6509
 8494SOL    HW126302   3.258   4.461   3.132  0.0768  0.9514 -1.1989
 8494SOL    HW226303   3.152   4.345   3.089 -0.2664  1.4808 -1.7871
 8495SOL     OW26304   3.021   6.143   3.111  0.4750  0.1003 -0.0926
 8495SOL    HW126305   3.111   6.105   3.131 -0.4332 -1.9885  0.2359
 8495SOL    HW226306   3.013   6.161   3.013  1.5784  1.3270  0.0030
 8496SOL     OW26307   0.396   6.375   5.913 -0.0118 -0.3747 -0.2704
 8496SOL    HW126308   0.328   6.379   5.840 -0.7728  0.1415  0.4523
 8496SOL    HW226309   0.458   6.453   5.904  0.0114 -0.4130 -0.4661
 8497SOL     OW26310   6.696   2.014   3.308  0.3886 -0.2583 -0.7095
 8497SOL    HW126311   6.781   2.030   3.257  0.4850 -2.4022 -1.3179
 8497SOL    HW226312   6.710   1.939   3.373 -0.3786  0.9593  0.9350
 8498SOL     OW26313   2.806   0.237   6.669 -0.5499 -0.6585 -0.4335
 8498SOL    HW126314   2.853   0.167   6.616  1.3687  1.3389 -1.5444
 8498SOL    HW226315   2.859   0.322   6.666 -2.2701  0.5928  1.6615
 8499SOL     OW26316   1.468   5.932   4.984 -0.2253 -0.0512  0.3208
 8499SOL    HW126317   1.448   5.989   5.064  1.3517 -0.8341  1.3079
 8499SOL    HW226318   1.560   5.952   4.951 -0.5322 -0.3776 -0.7660
 8500SOL     OW26319   3.623   0.162   1.213  0.2431 -0.3003 -0.1262
 8500SOL    HW126320   3.659   0.149   1.121  0.2288  2.9309 -0.7280
 8500SOL    HW226321   3.620   0.260   1.233 -1.0871 -0.8448  2.8096
 8501SOL     OW26322   0.986   3.765   4.206  0.4599  0.5833 -0.2114
 8501SOL    HW126323   0.909   3.701   4.216  1.0382 -0.1753 -0.5606
 8501SOL    HW226324   1.068   3.725   4.246  0.8453  1.0833 -0.4940
 8502SOL     OW26325   0.210   3.451   6.415  0.3251  0.1226 -0.8909
 8502SOL    HW126326   0.142   3.396   6.463  0.1555  0.5218 -0.6635
 8502SOL    HW226327   0.285   3.392   6.383 -0.1209 -0.3132 -1.1363
 8503SOL     OW26328   3.583   5.846   1.148  0.0792  0.1146 -0.6464
 8503SOL    HW126329   3.605   5.772   1.212 -0.9603 -2.3599 -2.9358
 8503SOL    HW226330   3.666   5.876   1.101  1.0261  2.6156  2.3018
 8504SOL     OW26331   4.675   2.847   5.180 -0.7627 -0.4650 -0.7166
 8504SOL    HW126332   4.681   2.926   5.241 -3.1502 -0.0034 -0.9746
 8504SOL    HW226333   4.761   2.837   5.129  0.3198  0.7019  0.7879
 8505SOL     OW26334   0.257   5.929   5.233  0.4096 -0.0657 -0.2838
 8505SOL    HW126335   0.281   5.992   5.160 -1.0346 -0.0383 -0.7690
 8505SOL    HW226336   0.339   5.883   5.266  1.4543  1.7911 -0.1501
 8506SOL     OW26337   0.613   2.817   5.060 -0.4134 -0.0658  0.3114
 8506SOL    HW126338   0.708   2.787   5.061  0.1650  1.6786  0.6099
 8506SOL    HW226339   0.563   2.774   5.135  0.1704 -0.8546  0.2559
 8507SOL     OW26340   1.249   6.228   3.937  0.1975 -0.6551 -0.1049
 8507SOL    HW126341   1.185   6.297   3.904  0.3358 -0.5036 -0.0625
 8507SOL    HW226342   1.228   6.140   3.896 -1.8400 -1.2536  2.0375
 8508SOL     OW26343   3.769   6.265   1.713  0.3200  0.4180  0.5404
 8508SOL    HW126344   3.783   6.168   1.694 -1.2678  0.1454  0.6297
 8508SOL    HW226345   3.677   6.279   1.751  1.7456  1.4725  4.0401
 8509SOL     OW26346   4.901   3.332   1.117 -0.2314 -0.3281 -0.5507
 8509SOL    HW126347   4.968   3.259   1.121 -0.4889 -0.5047  1.7327
 8509SOL    HW226348   4.817   3.304   1.163 -0.0429  1.6335  1.1610
 8510SOL     OW26349   2.748   4.816   6.350  0.3016  0.2938  0.2632
 8510SOL    HW126350   2.804   4.885   6.397  0.0910 -0.3424  1.4888
 8510SOL    HW226351   2.678   4.782   6.412 -0.9555  0.4821 -0.9990
 8511SOL     OW26352   4.529   5.182   6.033  0.3979 -0.0210 -0.2555
 8511SOL    HW126353   4.469   5.103   6.037 -0.5381  0.5983 -1.4623
 8511SOL    HW226354   4.557   5.199   5.939  1.0438  0.7544  0.0577
 8512SOL     OW26355   3.262   5.370   6.844  0.7100  0.1646  0.1246
 8512SOL    HW126356   3.183   5.357   6.784  0.2612 -0.7750  0.8918
 8512SOL    HW226357   3.254   5.309   6.923  0.1675  2.8889  2.3084
 8513SOL     OW26358   0.700   0.162   3.547 -0.1752  0.5520 -0.3996
 8513SOL    HW126359   0.607   0.130   3.529 -0.3034 -0.1753  1.3664
 8513SOL    HW226360   0.765   0.106   3.497 -0.6243  0.2572 -0.6596
 8514SOL     OW26361   0.735   4.948   6.968 -0.2330  0.6115  0.1735
 8514SOL    HW126362   0.733   4.990   6.877 -1.4610  0.1082 -0.0538
 8514SOL    HW226363   0.791   4.865   6.965  0.7309  1.2433  0.1920
 8515SOL     OW26364   4.127   2.454   6.439  0.0625  0.5438  0.4209
 8515SOL    HW126365   4.176   2.514   6.376 -1.9811  2.3795  0.4588
 8515SOL    HW226366   4.049   2.413   6.391  0.5899 -0.9920  0.8104
 8516SOL     OW26367   2.887   0.984   2.532 -0.2844 -0.0374  0.2758
 8516SOL    HW126368   2.824   0.935   2.593 -1.1395  1.0462  0.3044
 8516SOL    HW226369   2.834   1.030   2.461  0.4978  0.7927  0.2242
 8517SOL     OW26370   0.239   0.044   4.068  0.0710  0.1893  0.7435
 8517SOL    HW126371   0.147   0.083   4.065  0.1014  0.1941 -0.5873
 8517SOL    HW226372   0.249  -0.009   4.152 -1.1348  0.2125  0.9300
 8518SOL     OW26373   0.793   5.244   4.054  0.1583 -0.9880  0.1448
 8518SOL    HW126374   0.851   5.162   4.046 -0.8921 -1.8220  0.7578
 8518SOL    HW226375   0.819   5.295   4.136 -2.3774 -3.4574  2.7558
 8519SOL     OW26376   6.538   5.273   5.673 -0.0683  0.0936  0.3887
 8519SOL    HW126377   6.540   5.286   5.574  1.2496  0.4209  0.4377
 8519SOL    HW226378   6.531   5.175   5.694  0.9620 -0.0896 -0.0498
 8520SOL     OW26379   2.167   4.652   4.805  0.3199  0.0771 -0.1719
 8520SOL    HW126380   2.245   4.670   4.746  0.3989 -0.6037 -0.2905
 8520SOL    HW226381   2.193   4.665   4.900  0.8970 -1.1757 -0.1400
 8521SOL     OW26382   6.713   1.304   6.421 -0.1038  0.5171  0.1194
 8521SOL    HW126383   6.778   1.292   6.496  0.1792 -3.2330 -0.5055
 8521SOL    HW226384   6.762   1.331   6.338  0.3487 -0.1422  0.1673
 8522SOL     OW26385   0.676   2.914   1.078 -0.5467 -0.6803 -0.3524
 8522SOL    HW126386   0.732   2.900   1.160 -2.2917 -1.1822  0.7940
 8522SOL    HW226387   0.694   2.841   1.013  0.5102 -0.5378 -0.2389
 8523SOL     OW26388   3.468   5.413   3.838 -0.4126 -0.4933  0.3154
 8523SOL    HW126389   3.463   5.511   3.820  0.5808  0.0382  2.5161
 8523SOL    HW226390   3.390   5.384   3.894 -1.0059 -1.1025 -0.7967
 8524SOL     OW26391   3.911   1.148   0.154 -0.2707  0.1088  0.1911
 8524SOL    HW126392   3.955   1.226   0.110 -0.5670  0.2013  0.0586
 8524SOL    HW226393   3.941   1.064   0.109 -0.8239  0.2254 -0.4008
 8525SOL     OW26394   4.978   6.093   2.680  0.0591 -0.0949  0.6609
 8525SOL    HW126395   4.945   6.157   2.749 -0.2399 -1.3508  1.7157
 8525SOL    HW226396   4.912   6.019   2.668  0.4016 -0.2395 -0.5205
 8526SOL     OW26397   6.611   1.854   4.995  0.0571 -0.1913  0.3938
 8526SOL    HW126398   6.550   1.853   5.074 -0.6893 -0.4011 -0.1759
 8526SOL    HW226399   6.602   1.942   4.946  1.2838  0.3648  1.1117
 8527SOL     OW26400   2.349   0.111   4.260  0.2332 -0.2607 -0.1010
 8527SOL    HW126401   2.428   0.065   4.221  0.2316 -1.2674  1.0274
 8527SOL    HW226402   2.265   0.068   4.228  0.1958 -0.2036 -0.0796
 8528SOL     OW26403   6.187   3.007   5.043 -0.5230 -0.0870 -0.5747
 8528SOL    HW126404   6.110   3.024   5.104 -0.1647  1.0537 -0.4099
 8528SOL    HW226405   6.252   2.946   5.087 -0.7298 -0.0516 -0.2150
 8529SOL     OW26406   6.174   0.710   5.945 -0.5459  0.2405 -0.6246
 8529SOL    HW126407   6.227   0.663   6.016 -0.3624  2.9179  1.1397
 8529SOL    HW226408   6.230   0.723   5.864  0.3937  0.0969 -0.0146
 8530SOL     OW26409   4.843   0.970   5.480  0.2903 -0.2811 -0.4361
 8530SOL    HW126410   4.784   0.889   5.477  0.8024 -0.7345  0.9146
 8530SOL    HW226411   4.837   1.011   5.571  0.5166  0.8463 -0.9217
 8531SOL     OW26412   6.616   4.439   5.079 -0.4490  0.2979  0.1156
 8531SOL    HW126413   6.637   4.439   4.981  1.0375  0.0999  0.4167
 8531SOL    HW226414   6.517   4.450   5.092 -0.4375  2.8546 -1.3512
 8532SOL     OW26415   2.060   0.353   4.779 -0.0561 -0.0428 -0.4542
 8532SOL    HW126416   2.150   0.344   4.735  0.9726  0.7700  1.3817
 8532SOL    HW226417   2.001   0.279   4.747  0.7237  0.2719 -2.8625
 8533SOL     OW26418   6.045   4.034   0.774  0.4398 -0.6220 -0.3048
 8533SOL    HW126419   6.060   4.045   0.872  1.7839  1.9273 -0.7127
 8533SOL    HW226420   5.949   4.013   0.757  0.0150 -0.3134  1.5188
 8534SOL     OW26421   0.817   4.152   4.611 -0.3908  0.4828 -0.0476
 8534SOL    HW126422   0.722   4.155   4.579  0.3063 -2.3230 -2.8620
 8534SOL    HW226423   0.878   4.185   4.539  0.9081  0.2052  0.8818
 8535SOL     OW26424   3.941   6.552   2.910 -0.1990 -0.3653  0.1446
 8535SOL    HW126425   4.020   6.611   2.897 -2.3841  2.6318 -0.4772
 8535SOL    HW226426   3.913   6.514   2.821 -0.4034 -0.1345  0.1108
 8536SOL     OW26427   4.571   0.539   1.602 -0.2599  0.1006 -0.2130
 8536SOL    HW126428   4.508   0.603   1.557  0.9681  1.9551  0.5552
 8536SOL    HW226429   4.650   0.524   1.542 -0.6939 -0.9828 -0.5255
 8537SOL     OW26430   1.151   1.630   3.887 -0.0345  0.3537  0.5496
 8537SOL    HW126431   1.112   1.685   3.961 -2.2589 -0.9310  0.4323
 8537SOL    HW226432   1.085   1.621   3.813  0.4270 -1.9643  0.3215
 8538SOL     OW26433   6.348   6.543   5.246  0.1028 -0.2041  0.1673
 8538SOL    HW126434   6.283   6.475   5.281  0.4153 -0.5657  0.0505
 8538SOL    HW226435   6.374   6.518   5.152  0.5335 -0.1471  0.2712
 8539SOL     OW26436   4.423   1.536   1.609  0.0796  0.5450  0.1174
 8539SOL    HW126437   4.502   1.527   1.547 -0.5551  0.1447 -0.6486
 8539SOL    HW226438   4.339   1.535   1.556 -0.6292 -2.3359  1.1351
 8540SOL     OW26439   2.235   0.714   5.624 -0.0964  0.4409  0.0136
 8540SOL    HW126440   2.233   0.757   5.534 -1.3810  2.0824  0.7785
 8540SOL    HW226441   2.232   0.614   5.614 -3.2989  0.5930 -1.7673
 8541SOL     OW26442   1.343   5.274   3.742  0.3444 -0.3251  0.2526
 8541SOL    HW126443   1.369   5.324   3.660 -0.3376  0.6759  0.6179
 8541SOL    HW226444   1.424   5.239   3.788  0.7689 -0.3498 -0.5029
 8542SOL     OW26445   0.614   2.134   5.855 -0.2560 -0.3002  0.0793
 8542SOL    HW126446   0.586   2.123   5.950 -0.7722 -2.0089 -0.2390
 8542SOL    HW226447   0.543   2.097   5.794  0.3020  0.2723 -0.9597
 8543SOL     OW26448   6.173   0.304   1.070 -0.2308  0.1336  0.1241
 8543SOL    HW126449   6.145   0.235   1.136  3.2473 -0.9069  0.7176
 8543SOL    HW226450   6.190   0.391   1.117 -0.9068  0.3474 -0.0053
 8544SOL     OW26451   4.069   3.500   5.755  0.4620 -0.0963  0.0634
 8544SOL    HW126452   4.166   3.483   5.772  0.0708 -1.1310  1.4435
 8544SOL    HW226453   4.048   3.596   5.774  0.5178 -0.6603  3.5893
 8545SOL     OW26454   1.260   0.571   3.137  0.4765  0.1844 -1.0555
 8545SOL    HW126455   1.309   0.551   3.221  1.1273  2.1950 -0.9098
 8545SOL    HW226456   1.166   0.597   3.158  0.0503 -1.2023 -1.1389
 8546SOL     OW26457   4.226   6.882   3.614  0.4022  0.4414 -0.3780
 8546SOL    HW126458   4.222   6.815   3.688  1.1097 -0.0196 -0.7495
 8546SOL    HW226459   4.139   6.932   3.610 -0.4803 -1.0557 -0.6672
 8547SOL     OW26460   4.551   5.136   5.071  0.2137 -0.3190 -0.2493
 8547SOL    HW126461   4.517   5.228   5.088 -2.2144 -1.3849  1.2672
 8547SOL    HW226462   4.610   5.108   5.147 -0.3098 -0.5379  0.0848
 8548SOL     OW26463   0.111   1.527   6.343  0.3465  0.2757 -0.0133
 8548SOL    HW126464   0.160   1.486   6.420  0.1649  1.3168  0.6847
 8548SOL    HW226465   0.024   1.563   6.375 -0.7830 -1.3076 -1.1864
 8549SOL     OW26466   5.162   4.198   1.392 -0.3873  0.0935  0.3469
 8549SOL    HW126467   5.067   4.209   1.363  0.0075  0.0711 -1.0260
 8549SOL    HW226468   5.187   4.101   1.386  0.0418  0.2440 -0.3718
 8550SOL     OW26469   5.255   4.712   4.202 -0.3379 -0.2113 -0.1949
 8550SOL    HW126470   5.248   4.656   4.119  1.6720 -0.9599  0.0718
 8550SOL    HW226471   5.231   4.806   4.180 -0.4629 -0.5118 -1.4791
 8551SOL     OW26472   3.123   1.116   2.241  0.2808 -0.3313 -0.0435
 8551SOL    HW126473   3.103   1.019   2.229 -0.2821 -0.6265  2.4904
 8551SOL    HW226474   3.065   1.170   2.180  0.9043 -1.5611 -1.7942
 8552SOL     OW26475   0.790   3.910   1.878  0.2409  0.0317  0.2351
 8552SOL    HW126476   0.853   3.970   1.829 -1.3999  0.8215 -1.0426
 8552SOL    HW226477   0.697   3.946   1.869 -0.7769 -2.5177 -0.2926
 8553SOL     OW26478   6.971   1.499   6.952 -0.3230 -0.4815  0.3663
 8553SOL    HW126479   7.053   1.552   6.933 -0.0601 -0.9662  0.1239
 8553SOL    HW226480   6.960   1.488   7.051 -0.9052  0.8243  0.4699
 8554SOL     OW26481   2.584   6.857   1.464 -0.3189  1.2860  0.0413
 8554SOL    HW126482   2.600   6.759   1.468 -1.3073  1.1457  1.0605
 8554SOL    HW226483   2.592   6.896   1.556 -0.6370  2.0303 -0.2398
 8555SOL     OW26484   3.916   0.487   4.753 -0.1434 -0.5848  0.3358
 8555SOL    HW126485   3.843   0.537   4.801  1.0379 -0.6286  2.2378
 8555SOL    HW226486   3.897   0.389   4.757  0.2180 -0.6262  1.2050
 8556SOL     OW26487   0.623   1.367   1.039 -0.1690  0.4144 -0.3319
 8556SOL    HW126488   0.547   1.417   0.997 -1.1858 -0.4535  0.4073
 8556SOL    HW226489   0.628   1.275   1.000 -0.2654  0.0689  0.4446
 8557SOL     OW26490   6.525   6.039   4.733 -0.0633 -0.1259 -0.5085
 8557SOL    HW126491   6.487   5.947   4.726 -0.1457 -0.0111 -1.9624
 8557SOL    HW226492   6.452   6.104   4.751  0.0725 -0.3942  1.1024
 8558SOL     OW26493   5.934   2.168   2.392  0.0903  0.1819 -0.2155
 8558SOL    HW126494   5.956   2.095   2.327 -0.8536 -0.5425  0.2453
 8558SOL    HW226495   5.834   2.176   2.400  0.1308 -1.1026  2.5759
 8559SOL     OW26496   5.322   2.971   6.145  0.2977  0.3699 -0.2508
 8559SOL    HW126497   5.228   2.984   6.177  0.8668  0.5459  1.4661
 8559SOL    HW226498   5.353   2.879   6.168  1.0474  0.8263  0.6588
 8560SOL     OW26499   5.440   3.045   5.680 -0.2239 -0.1510  0.0729
 8560SOL    HW126500   5.382   3.035   5.599 -1.8329 -1.2606  1.2782
 8560SOL    HW226501   5.533   3.066   5.652 -0.8978  0.3392 -2.0144
 8561SOL     OW26502   4.223   5.995   5.082 -0.5655  0.2400 -0.2847
 8561SOL    HW126503   4.254   6.077   5.035  0.2369  0.6078  0.8406
 8561SOL    HW226504   4.140   6.016   5.133  0.2557  0.6959  0.9177
 8562SOL     OW26505   1.982   6.610   1.227  0.7421 -1.3505 -0.0835
 8562SOL    HW126506   1.963   6.592   1.324 -0.6319 -1.1607 -0.2875
 8562SOL    HW226507   2.011   6.705   1.216 -1.7162 -0.5368 -0.1186
 8563SOL     OW26508   5.136   0.037   2.391  0.3932 -0.1740 -0.4416
 8563SOL    HW126509   5.193  -0.020   2.449  2.0895  1.3877 -0.4881
 8563SOL    HW226510   5.125  -0.006   2.301  2.6219  0.0756 -0.8779
 8564SOL     OW26511   0.926   2.679   4.296 -0.8368 -0.0723 -0.5018
 8564SOL    HW126512   1.002   2.737   4.323 -0.8977  1.2289 -2.8516
 8564SOL    HW226513   0.841   2.732   4.295 -1.1409 -0.5485 -1.3703
 8565SOL     OW26514   5.136   1.714   1.399  0.4941  0.1194  0.1897
 8565SOL    HW126515   5.081   1.780   1.348  1.0555  1.2792  1.0117
 8565SOL    HW226516   5.227   1.708   1.358 -0.1282 -1.6612 -1.0611
 8566SOL     OW26517   5.845   5.777   1.863  0.0594  0.4118  0.8437
 8566SOL    HW126518   5.880   5.710   1.797 -0.8772  1.5075 -0.8580
 8566SOL    HW226519   5.897   5.772   1.948  0.2193 -2.2293  0.6662
 8567SOL     OW26520   6.178   2.181   2.840 -0.0855  0.1738 -0.1075
 8567SOL    HW126521   6.261   2.212   2.888 -0.2823 -0.1198  0.4333
 8567SOL    HW226522   6.181   2.212   2.745  0.2264  0.9361  0.1402
 8568SOL     OW26523   2.254   1.667   6.021 -0.4049  0.3425  0.2351
 8568SOL    HW126524   2.293   1.617   5.943 -0.5112  1.1756 -0.3599
 8568SOL    HW226525   2.274   1.764   6.013 -2.3146  0.7728  0.0634
 8569SOL     OW26526   3.064   6.558   5.348 -0.2387  0.5283 -0.4355
 8569SOL    HW126527   3.106   6.642   5.313  0.4459  0.2796 -0.2413
 8569SOL    HW226528   3.083   6.550   5.446 -1.1816  0.6572 -0.2314
 8570SOL     OW26529   5.506   0.011   5.406 -0.3659 -0.0631  1.1270
 8570SOL    HW126530   5.528  -0.046   5.485  1.5074 -3.2413 -1.4483
 8570SOL    HW226531   5.453  -0.042   5.340  1.0604  1.2698 -1.2289
 8571SOL     OW26532   1.744   1.384   3.082 -0.5787 -0.0412  0.3230
 8571SOL    HW126533   1.654   1.399   3.042 -0.8451 -1.1814  0.4781
 8571SOL    HW226534   1.734   1.352   3.176  0.0261  1.4060  0.9175
 8572SOL     OW26535   6.002   4.702   3.685  0.1203 -0.4243 -0.1692
 8572SOL    HW126536   6.036   4.616   3.649 -0.2039 -0.3903 -0.5619
 8572SOL    HW226537   5.906   4.714   3.659  0.1464  0.0263 -0.0709
 8573SOL     OW26538   6.161   2.390   0.633  0.4479 -0.0659 -0.3465
 8573SOL    HW126539   6.246   2.338   0.626  0.0449 -0.7839  0.1374
 8573SOL    HW226540   6.118   2.395   0.542  0.7204 -0.1693 -0.4831
 8574SOL     OW26541   1.590   0.582   4.860 -0.1059 -0.0176  0.1818
 8574SOL    HW126542   1.529   0.528   4.918 -1.7988  1.7338  0.1075
 8574SOL    HW226543   1.664   0.620   4.915  0.1572 -1.0303  0.5451
 8575SOL     OW26544   3.106   4.781   1.706 -0.8520 -0.8223 -0.3715
 8575SOL    HW126545   3.151   4.705   1.661  0.0245  0.0437 -0.9953
 8575SOL    HW226546   3.137   4.788   1.801  0.2243 -0.3364 -0.7486
 8576SOL     OW26547   1.017   2.910   3.989 -0.3275  0.4658  0.3494
 8576SOL    HW126548   1.111   2.901   3.957 -0.7614 -1.0130 -0.5763
 8576SOL    HW226549   0.966   2.970   3.927 -0.5319 -0.4369 -0.3717
 8577SOL     OW26550   1.016   0.823   0.916  0.2347  0.1907  0.0357
 8577SOL    HW126551   0.953   0.747   0.928 -1.0954  1.3262  0.4111
 8577SOL    HW226552   1.108   0.795   0.946  0.1205 -1.7064 -1.1960
 8578SOL     OW26553   6.228   5.210   1.818 -0.4030  0.0999  0.7600
 8578SOL    HW126554   6.291   5.136   1.794  0.9296  1.0190  1.3188
 8578SOL    HW226555   6.257   5.294   1.773 -0.7504  0.7253  1.6793
 8579SOL     OW26556   0.972   0.818   6.976 -0.4790  0.3128 -0.4039
 8579SOL    HW126557   0.887   0.869   6.971 -0.5627  0.3690  1.0853
 8579SOL    HW226558   1.021   0.825   6.889 -2.1840 -0.0867 -1.4317
 8580SOL     OW26559   3.554   4.971   4.562 -0.3888 -0.4322  0.2546
 8580SOL    HW126560   3.471   4.945   4.612  1.0401 -0.2898  2.8341
 8580SOL    HW226561   3.539   5.059   4.517 -1.8147 -0.6931  0.1495
 8581SOL     OW26562   3.332   0.407   2.097  0.1710  0.0770 -0.1789
 8581SOL    HW126563   3.283   0.411   2.009 -0.2948  0.6883  0.0990
 8581SOL    HW226564   3.396   0.483   2.103  1.4779 -0.9505 -0.7105
 8582SOL     OW26565   1.530   4.477   4.190  0.0077 -0.7640  0.7977
 8582SOL    HW126566   1.505   4.406   4.124 -1.5862  0.5631 -0.1084
 8582SOL    HW226567   1.455   4.490   4.254 -0.3156  1.0405  0.0893
 8583SOL     OW26568   4.017   3.542   6.585  0.1580  0.5071 -0.2260
 8583SOL    HW126569   4.075   3.592   6.650  0.9777  0.4887 -0.9318
 8583SOL    HW226570   4.026   3.444   6.600 -0.2601  0.5186  0.1376
 8584SOL     OW26571   6.156   3.392   5.877 -0.0048  0.5230  0.6106
 8584SOL    HW126572   6.093   3.458   5.919 -0.6771 -1.1522  2.3511
 8584SOL    HW226573   6.207   3.344   5.949  0.1878 -1.1271 -0.5725
 8585SOL     OW26574   3.259   3.623   6.422  0.1966 -0.3184 -0.4441
 8585SOL    HW126575   3.356   3.598   6.425  0.2818 -0.1317 -1.3638
 8585SOL    HW226576   3.215   3.574   6.347 -0.5515 -0.8289  0.3228
 8586SOL     OW26577   5.763   4.953   5.673  0.6209 -0.2933 -0.7467
 8586SOL    HW126578   5.713   4.898   5.741 -1.1206  0.2837 -1.4869
 8586SOL    HW226579   5.847   4.988   5.713  1.9793 -3.6444 -0.2976
 8587SOL     OW26580   4.760   1.344   5.463 -0.4676 -0.0483  0.1653
 8587SOL    HW126581   4.798   1.399   5.537 -0.0142  0.0861 -0.1679
 8587SOL    HW226582   4.827   1.335   5.390 -0.5425 -1.0088  0.1955
 8588SOL     OW26583   4.463   5.119   5.439 -0.0771  0.7258  0.0326
 8588SOL    HW126584   4.388   5.072   5.392  0.7435 -1.5159  0.8285
 8588SOL    HW226585   4.452   5.217   5.429 -1.8265  0.4032 -1.8541
 8589SOL     OW26586   0.004   6.876   0.941  0.3111 -0.6193 -0.1199
 8589SOL    HW126587   0.057   6.811   0.997 -0.3405 -2.4293 -1.4847
 8589SOL    HW226588  -0.061   6.825   0.884 -1.9322  1.4103  0.4316
 8590SOL     OW26589   4.425   2.673   2.294  0.0340 -0.0006  0.4808
 8590SOL    HW126590   4.346   2.701   2.349 -1.5180 -1.0815 -1.1200
 8590SOL    HW226591   4.509   2.696   2.344 -1.2127 -2.4712  4.1587
 8591SOL     OW26592   5.629   1.462   6.758 -0.3540 -0.2463 -0.4251
 8591SOL    HW126593   5.662   1.477   6.665  0.3856  1.9448  0.1288
 8591SOL    HW226594   5.592   1.370   6.766  0.7586 -0.9325 -2.5269
 8592SOL     OW26595   5.891   4.049   4.415 -0.0332 -0.0680  0.4714
 8592SOL    HW126596   5.854   4.141   4.413 -1.5617 -0.6549  0.5016
 8592SOL    HW226597   5.929   4.026   4.326  0.0701  0.4769  0.3743
 8593SOL     OW26598   5.333   5.357   2.347  0.0762  0.2160 -0.0473
 8593SOL    HW126599   5.344   5.325   2.441 -1.1622 -0.4464 -0.1019
 8593SOL    HW226600   5.270   5.296   2.298 -0.4643  1.3870 -0.8744
 8594SOL     OW26601   3.745   1.279   2.582  0.0626  0.5697 -0.4192
 8594SOL    HW126602   3.677   1.224   2.535  2.6862 -0.3067 -3.5100
 8594SOL    HW226603   3.754   1.368   2.537  1.0899  0.5820 -0.2345
 8595SOL     OW26604   1.071   2.851   1.520  0.2089 -0.2728 -0.3988
 8595SOL    HW126605   1.047   2.947   1.534  0.4277 -0.2255 -0.3415
 8595SOL    HW226606   1.103   2.838   1.426 -1.7667 -0.6921 -1.0654
 8596SOL     OW26607   0.661   5.216   5.446  0.4475 -0.2297 -0.4777
 8596SOL    HW126608   0.681   5.220   5.544  0.5546  0.4900 -0.5253
 8596SOL    HW226609   0.570   5.177   5.433  0.2564  0.0668 -0.0630
 8597SOL     OW26610   4.761   5.939   3.512 -0.3863 -0.3518 -0.1444
 8597SOL    HW126611   4.787   5.931   3.608  1.5504  0.3902 -0.5530
 8597SOL    HW226612   4.835   5.984   3.461 -1.7008  0.0116 -1.8379
 8598SOL     OW26613   1.918   1.696   3.746  0.4619  0.4829 -0.1090
 8598SOL    HW126614   1.918   1.738   3.655  0.5802  0.0026 -0.3310
 8598SOL    HW226615   1.936   1.767   3.815  1.3240  0.6907 -0.5322
 8599SOL     OW26616   6.421   0.162   0.678  0.3915  0.7961 -0.4712
 8599SOL    HW126617   6.328   0.199   0.676  0.4476  0.9391 -2.5823
 8599SOL    HW226618   6.484   0.226   0.634  1.1300 -0.2041 -0.9174
 8600SOL     OW26619   5.011   5.238   5.099 -0.6271  0.1695  0.2600
 8600SOL    HW126620   4.990   5.143   5.077  1.5809 -0.3908  0.3650
 8600SOL    HW226621   5.012   5.250   5.198 -2.1869  0.6633  0.2511
 8601SOL     OW26622   1.673   6.769   1.013 -0.4042  0.5333 -0.0260
 8601SOL    HW126623   1.613   6.743   1.089 -1.4718  1.7255 -0.4132
 8601SOL    HW226624   1.673   6.698   0.943  3.1260 -2.1596  2.3835
 8602SOL     OW26625   5.957   0.489   4.381 -0.2029 -0.1010 -0.9821
 8602SOL    HW126626   5.952   0.571   4.323  1.4662  1.1021  0.4689
 8602SOL    HW226627   6.022   0.424   4.342 -2.6266 -1.5187 -2.9482
 8603SOL     OW26628   4.126   6.650   6.804  0.0186 -0.0777  0.0894
 8603SOL    HW126629   4.083   6.689   6.886 -0.0591 -0.3343  0.1725
 8603SOL    HW226630   4.144   6.553   6.820 -2.3540 -0.7792 -1.1344
 8604SOL     OW26631   4.195   5.718   1.128  0.3127 -0.3510 -0.2240
 8604SOL    HW126632   4.294   5.724   1.141  0.2189 -1.5442  1.3110
 8604SOL    HW226633   4.155   5.658   1.198 -1.6240  0.7874 -0.2737
 8605SOL     OW26634   3.315   1.105   1.844 -0.4465 -0.3622 -0.0534
 8605SOL    HW126635   3.343   1.134   1.935  2.1745 -1.8184 -0.3135
 8605SOL    HW226636   3.346   1.012   1.827 -0.7095 -0.0710 -2.5254
 8606SOL     OW26637   0.078   5.942   6.008  0.9871 -0.1711  0.2865
 8606SOL    HW126638   0.079   5.903   5.916  0.9678  0.1134  0.1633
 8606SOL    HW226639   0.108   6.038   6.004  1.0027 -0.1623  0.5782
 8607SOL     OW26640   0.174   4.153   1.169 -0.0866 -0.0582 -0.2174
 8607SOL    HW126641   0.137   4.245   1.150 -0.0803 -0.3895 -2.0122
 8607SOL    HW226642   0.110   4.084   1.136  0.4558 -0.6984  0.0492
 8608SOL     OW26643   1.500   2.000   2.218  1.0253 -0.0403  0.2972
 8608SOL    HW126644   1.427   1.933   2.203 -0.8533  2.0646 -0.5978
 8608SOL    HW226645   1.491   2.040   2.309  0.5626  0.7469 -0.0827
 8609SOL     OW26646   4.645   3.271   1.236  0.2224 -0.3823  0.2188
 8609SOL    HW126647   4.667   3.175   1.255  0.8527 -0.8199 -2.2430
 8609SOL    HW226648   4.548   3.279   1.213  0.3847 -0.6440 -0.5899
 8610SOL     OW26649   0.595   4.345   1.154  0.0784  0.7284  0.3514
 8610SOL    HW126650   0.680   4.332   1.204 -0.1828  1.1552  0.9138
 8610SOL    HW226651   0.518   4.338   1.217 -0.2492  1.3593  0.0294
 8611SOL     OW26652   6.964   1.322   4.492  0.9335 -0.0924 -0.3274
 8611SOL    HW126653   6.960   1.311   4.392  0.0161 -1.9055 -0.1430
 8611SOL    HW226654   7.058   1.335   4.521  1.3083 -0.3636 -1.3767
 8612SOL     OW26655   3.181   2.630   6.040  0.1247  0.4817 -0.5224
 8612SOL    HW126656   3.222   2.663   5.955  0.3093  2.0225  0.1337
 8612SOL    HW226657   3.101   2.574   6.018 -0.3503  1.5635 -1.7080
 8613SOL     OW26658   3.953   1.615   3.535  0.0711 -0.6623 -0.0304
 8613SOL    HW126659   3.993   1.687   3.592  0.2115 -0.7273 -0.0476
 8613SOL    HW226660   3.863   1.590   3.572 -0.6603  0.5736 -0.8703
 8614SOL     OW26661   5.677   2.290   2.827  0.8336 -0.4404 -0.6175
 8614SOL    HW126662   5.768   2.329   2.834 -0.1262  2.1791 -1.4523
 8614SOL    HW226663   5.655   2.270   2.731  0.4355 -0.8564 -0.4500
 8615SOL     OW26664   4.140   1.613   2.593 -0.0102  0.2012  0.0942
 8615SOL    HW126665   4.139   1.692   2.531  1.6350  1.6570  1.8063
 8615SOL    HW226666   4.049   1.598   2.629 -0.3106  1.4631 -0.0998
 8616SOL     OW26667   4.119   0.385   1.025 -0.4154  0.2900 -0.3851
 8616SOL    HW126668   4.086   0.404   0.932  0.4266 -1.1401 -1.0061
 8616SOL    HW226669   4.063   0.313   1.067  0.1618 -0.1606 -0.3788
 8617SOL     OW26670   6.308   6.601   2.828 -0.0386  0.1416  0.7453
 8617SOL    HW126671   6.301   6.680   2.889 -0.9954  0.0830  0.7294
 8617SOL    HW226672   6.360   6.627   2.747  0.3350  0.5267  1.0996
 8618SOL     OW26673   3.218   6.510   0.110  0.2316 -0.3106  0.4038
 8618SOL    HW126674   3.261   6.454   0.039 -0.8236 -2.4366  1.3376
 8618SOL    HW226675   3.176   6.591   0.068  1.0821 -0.6377 -1.1396
 8619SOL     OW26676   5.835   4.360   3.471 -0.1280 -0.2372 -0.1562
 8619SOL    HW126677   5.925   4.323   3.495 -0.4981 -0.0026  1.7865
 8619SOL    HW226678   5.783   4.292   3.420  0.8640 -0.6533 -0.6422
 8620SOL     OW26679   1.095   6.666   5.193 -0.1103  0.3807  0.3873
 8620SOL    HW126680   1.153   6.626   5.122  0.7097  0.2252  1.1199
 8620SOL    HW226681   1.074   6.597   5.262 -1.8879  0.2056 -0.2776
 8621SOL     OW26682   4.214   0.087   4.868 -0.1701 -0.4547  0.1660
 8621SOL    HW126683   4.231   0.097   4.770  0.4426  1.1272  0.4055
 8621SOL    HW226684   4.301   0.086   4.917 -0.5037  1.1493  0.8664
 8622SOL     OW26685   6.316   2.636   0.203 -0.2374  0.0049  0.3270
 8622SOL    HW126686   6.378   2.691   0.147  0.0185 -0.3170  0.2940
 8622SOL    HW226687   6.363   2.604   0.285  0.0066 -1.2250 -0.2731
 8623SOL     OW26688   6.661   3.142   4.233  0.2630 -0.3526  0.3327
 8623SOL    HW126689   6.577   3.106   4.273 -0.3217  0.5788 -0.0114
 8623SOL    HW226690   6.701   3.074   4.172  0.2433 -1.1359  1.1849
 8624SOL     OW26691   0.853   6.731   2.702  0.0131 -0.1726 -0.3104
 8624SOL    HW126692   0.940   6.767   2.667  1.1741 -1.1042  1.4669
 8624SOL    HW226693   0.781   6.799   2.689  1.1662  0.9423 -1.1178
 8625SOL     OW26694   5.563   0.036   4.935 -0.4407 -0.5914  0.4113
 8625SOL    HW126695   5.660   0.029   4.956  0.2811  1.5951 -1.8043
 8625SOL    HW226696   5.515   0.082   5.009  0.6829  0.5594  0.4366
 8626SOL     OW26697   6.015   4.187   6.954  0.2029  0.3586  0.1411
 8626SOL    HW126698   6.070   4.256   7.001  1.0070  0.7063 -1.2548
 8626SOL    HW226699   5.934   4.231   6.915 -0.4265  0.0827  1.0787
 8627SOL     OW26700   0.942   6.165   1.329  0.0222  0.3143 -0.2147
 8627SOL    HW126701   0.995   6.148   1.412  1.1393 -0.8460 -1.1090
 8627SOL    HW226702   1.001   6.207   1.260 -0.7289  0.7190 -0.6245
 8628SOL     OW26703   2.386   0.366   6.284  0.4267 -0.3602 -0.2712
 8628SOL    HW126704   2.300   0.360   6.336  0.2930  0.9990 -0.2996
 8628SOL    HW226705   2.457   0.312   6.330 -0.0207 -0.1844  0.6394
 8629SOL     OW26706   2.196   5.162   5.201  0.3689  0.2100  0.1604
 8629SOL    HW126707   2.208   5.133   5.106  1.6035  1.2301 -0.0263
 8629SOL    HW226708   2.243   5.099   5.262 -0.2327 -0.3172  0.0948
 8630SOL     OW26709   5.001   2.239   2.311 -0.1073  0.1004  0.1572
 8630SOL    HW126710   5.081   2.228   2.251 -0.4283  1.2339 -0.4972
 8630SOL    HW226711   4.930   2.175   2.282  0.5146 -0.8838  0.7121
 8631SOL     OW26712   6.773   6.552   5.788  0.5050  0.3790 -0.3399
 8631SOL    HW126713   6.807   6.502   5.708  0.1403 -1.0735  0.3936
 8631SOL    HW226714   6.848   6.568   5.852  0.0117 -2.4244  1.0682
 8632SOL     OW26715   3.362   3.558   1.781  0.7409  0.2155 -0.1758
 8632SOL    HW126716   3.451   3.593   1.813  1.3154  1.5121 -2.9133
 8632SOL    HW226717   3.365   3.458   1.777  1.1638  0.0795  2.0848
 8633SOL     OW26718   3.235   5.941   3.168  0.2997  0.4065  0.2196
 8633SOL    HW126719   3.241   5.910   3.073  0.0601 -0.7713  0.5651
 8633SOL    HW226720   3.326   5.941   3.209  0.2888  0.0158  0.2494
 8634SOL     OW26721   5.751   0.606   4.703 -0.0858  0.5054 -0.4185
 8634SOL    HW126722   5.707   0.567   4.784  0.4687 -1.4074 -0.9824
 8634SOL    HW226723   5.850   0.594   4.710  0.0718  1.4926 -0.8127
 8635SOL     OW26724   5.252   3.963   6.497  0.8778 -0.2304 -0.4575
 8635SOL    HW126725   5.340   3.922   6.520  0.6147 -1.3111 -1.3068
 8635SOL    HW226726   5.239   3.960   6.398 -0.4621 -0.8178 -0.2842
 8636SOL     OW26727   0.879   3.859   3.307 -0.2222  0.3611  0.2092
 8636SOL    HW126728   0.871   3.943   3.360  2.9304  0.7806  0.1926
 8636SOL    HW226729   0.935   3.793   3.357 -0.7946 -0.8889 -0.7429
 8637SOL     OW26730   2.249   4.442   0.419  0.0294 -0.0027  0.5160
 8637SOL    HW126731   2.301   4.446   0.504  0.7836  2.5095  0.0105
 8637SOL    HW226732   2.294   4.380   0.355 -0.1749 -1.3929  1.6562
 8638SOL     OW26733   4.867   4.851   1.566 -0.4806  0.2020 -0.0489
 8638SOL    HW126734   4.823   4.875   1.479  1.1667 -1.4892 -1.4329
 8638SOL    HW226735   4.965   4.865   1.558 -0.1031 -1.5928  0.9373
 8639SOL     OW26736   2.507   6.119   6.617 -0.3372 -0.2399  0.1786
 8639SOL    HW126737   2.461   6.192   6.565  1.7012 -0.9485 -2.8590
 8639SOL    HW226738   2.439   6.071   6.673 -1.9120  3.3109  1.6351
 8640SOL     OW26739   6.274   1.493   3.564 -0.1534 -0.5716  0.4003
 8640SOL    HW126740   6.181   1.521   3.542  0.5484  0.8324 -1.0274
 8640SOL    HW226741   6.322   1.570   3.607  1.2582 -0.1112 -1.8279
 8641SOL     OW26742   0.716   5.205   5.710 -0.6143 -0.4924 -0.1987
 8641SOL    HW126743   0.632   5.163   5.746 -0.7403 -0.7170 -0.7480
 8641SOL    HW226744   0.788   5.136   5.704 -1.9285 -1.7821 -4.9118
 8642SOL     OW26745   2.538   6.217   0.740  0.4990 -0.5319 -0.1622
 8642SOL    HW126746   2.575   6.239   0.650  0.8504  1.5176  0.4273
 8642SOL    HW226747   2.613   6.208   0.806  0.2412 -1.9310 -0.0235
 8643SOL     OW26748   2.384   4.420   4.138 -0.4284  0.1041 -0.5663
 8643SOL    HW126749   2.466   4.469   4.110 -0.4770  0.2475 -0.4602
 8643SOL    HW226750   2.381   4.330   4.094  0.3362 -0.3443  0.2719
 8644SOL     OW26751   6.229   2.132   1.177 -0.5585  0.1360  0.1239
 8644SOL    HW126752   6.133   2.157   1.183  0.0711  3.0548 -0.5098
 8644SOL    HW226753   6.277   2.196   1.117  1.9228 -0.8759  0.8704
 8645SOL     OW26754   0.086   2.121   1.360 -0.3597  0.0828  0.1970
 8645SOL    HW126755   0.181   2.126   1.391 -0.0965 -0.1098 -0.5537
 8645SOL    HW226756   0.024   2.131   1.439  0.2796 -0.2208  0.7463
 8646SOL     OW26757   2.975   3.146   0.449 -0.2515 -0.5023  1.0344
 8646SOL    HW126758   2.901   3.114   0.509 -1.6491  0.1352 -0.2553
 8646SOL    HW226759   2.938   3.162   0.357  1.4785  0.0299  0.3902
 8647SOL     OW26760   4.016   2.088   3.895 -0.1293 -0.7679  0.0385
 8647SOL    HW126761   4.093   2.024   3.886  0.8350  0.1982  1.0646
 8647SOL    HW226762   4.014   2.125   3.988 -0.0310  1.4053 -0.7505
 8648SOL     OW26763   0.994   1.572   1.618 -0.0447 -0.0383  0.3244
 8648SOL    HW126764   0.937   1.616   1.688 -1.0883 -0.7582 -0.0505
 8648SOL    HW226765   1.019   1.480   1.648  0.5016  0.0898  0.2629
 8649SOL     OW26766   3.287   3.063   3.713  0.3063 -0.0477  0.4725
 8649SOL    HW126767   3.371   3.038   3.664 -0.7613 -2.1555 -0.3842
 8649SOL    HW226768   3.276   3.003   3.792 -0.2965  0.3516  0.6929
 8650SOL     OW26769   1.179   1.286   0.918 -0.0567  0.2045 -0.0767
 8650SOL    HW126770   1.218   1.378   0.921  1.2238 -0.3476  1.0900
 8650SOL    HW226771   1.137   1.264   1.005  0.2346 -0.5531 -0.1177
 8651SOL     OW26772   6.979   4.583   2.572  0.9431 -0.2464  0.4423
 8651SOL    HW126773   6.991   4.576   2.671  2.5964 -2.3587  0.1696
 8651SOL    HW226774   6.943   4.497   2.537 -1.3354  1.0747 -0.6482
 8652SOL     OW26775   4.677   3.768   3.591  0.6848  0.0002  0.4277
 8652SOL    HW126776   4.733   3.828   3.534 -0.7187  0.0890 -0.9112
 8652SOL    HW226777   4.691   3.791   3.688  0.7026  1.9957 -0.0121
 8653SOL     OW26778   3.818   0.123   4.326 -0.4248 -0.4997 -0.2602
 8653SOL    HW126779   3.812   0.131   4.226 -0.2105  1.3708 -0.1594
 8653SOL    HW226780   3.816   0.026   4.352 -1.2316 -0.9943 -2.0152
 8654SOL     OW26781   3.616   1.138   0.717 -0.5614  0.8917  0.1813
 8654SOL    HW126782   3.552   1.072   0.676  1.0820 -0.1093 -0.8570
 8654SOL    HW226783   3.684   1.089   0.771 -1.1920  2.0248  2.1082
 8655SOL     OW26784   3.818   4.702   2.183  0.5282 -0.0803 -0.9324
 8655SOL    HW126785   3.856   4.656   2.103 -1.5748 -1.1941 -1.3606
 8655SOL    HW226786   3.780   4.790   2.156 -1.1586 -0.9299 -1.4247
 8656SOL     OW26787   6.966   4.155   4.882  0.0198 -0.0555 -0.1368
 8656SOL    HW126788   6.927   4.066   4.858  1.9369 -0.7543 -0.8654
 8656SOL    HW226789   6.991   4.155   4.979 -1.1904  0.1932  0.1922
 8657SOL     OW26790   2.860   0.603   4.413  0.3582 -0.0942  0.7719
 8657SOL    HW126791   2.857   0.623   4.315  0.1787  0.8874  0.9635
 8657SOL    HW226792   2.932   0.536   4.431 -0.3009 -1.0970 -0.1578
 8658SOL     OW26793   5.436   6.306   1.063 -0.3731 -0.2680 -0.2995
 8658SOL    HW126794   5.477   6.386   1.106 -0.4981  0.2416 -1.0919
 8658SOL    HW226795   5.339   6.324   1.047 -0.2939 -0.3807 -0.9270
 8659SOL     OW26796   5.183   3.230   3.748 -0.1191 -0.2218 -0.4523
 8659SOL    HW126797   5.180   3.151   3.810  2.9920 -0.9135 -0.9969
 8659SOL    HW226798   5.179   3.314   3.802  1.1411 -0.8082  0.6115
 8660SOL     OW26799   5.565   1.109   2.495 -0.0698  0.4736 -0.4077
 8660SOL    HW126800   5.523   1.020   2.479 -0.3173  1.0380 -3.6705
 8660SOL    HW226801   5.513   1.158   2.565 -1.6615 -0.8878 -0.5589
 8661SOL     OW26802   3.679   6.097   3.868 -0.1583  0.1435  0.5813
 8661SOL    HW126803   3.633   6.045   3.939 -0.1948 -0.9790 -0.2366
 8661SOL    HW226804   3.774   6.112   3.893 -0.3987  0.5618  1.2716
 8662SOL     OW26805   3.791   5.628   5.530 -0.5953 -0.1932  0.2400
 8662SOL    HW126806   3.836   5.717   5.518 -0.8000 -0.0441  0.5651
 8662SOL    HW226807   3.857   5.555   5.513 -0.2944  0.0224  0.4698
 8663SOL     OW26808   0.793   4.581   1.301 -0.1917  0.2880 -0.1161
 8663SOL    HW126809   0.761   4.536   1.384 -0.2125  0.2380 -0.1510
 8663SOL    HW226810   0.839   4.513   1.243 -1.4693 -0.0002 -0.8171
 8664SOL     OW26811   4.416   1.431   4.063  0.0371  0.1487 -0.3685
 8664SOL    HW126812   4.343   1.441   4.131 -1.0612  0.4180 -1.5514
 8664SOL    HW226813   4.491   1.493   4.087 -0.8261  1.1001 -0.0185
 8665SOL     OW26814   1.803   5.927   1.773 -0.1425  0.4201 -0.2161
 8665SOL    HW126815   1.842   5.923   1.681  0.8700  1.2607  0.1573
 8665SOL    HW226816   1.705   5.946   1.767 -0.3691 -0.9290 -1.1471
 8666SOL     OW26817   1.666   5.157   1.856 -0.7996 -0.1612 -0.3926
 8666SOL    HW126818   1.602   5.146   1.932 -0.4629  3.7489  0.6722
 8666SOL    HW226819   1.626   5.218   1.787  1.0877  0.9744 -0.5398
 8667SOL     OW26820   0.086   4.341   4.571  0.6908 -0.4748  0.1536
 8667SOL    HW126821   0.022   4.337   4.648  0.4813  1.5113  0.1473
 8667SOL    HW226822   0.172   4.382   4.601 -0.2266  2.6828 -1.0523
 8668SOL     OW26823   4.402   2.395   1.933  0.7887 -0.5760  0.2266
 8668SOL    HW126824   4.368   2.489   1.927 -0.3114 -1.0745 -1.9495
 8668SOL    HW226825   4.501   2.397   1.950  0.6638  0.9461  0.9528
 8669SOL     OW26826   3.072   5.956   2.201 -0.3583 -0.4599 -0.3780
 8669SOL    HW126827   3.167   5.941   2.229 -0.9524 -0.9211  1.5099
 8669SOL    HW226828   3.051   6.054   2.204 -0.4257 -0.5033  0.9117
 8670SOL     OW26829   5.378   5.921   6.042  0.3224 -0.0687 -0.2257
 8670SOL    HW126830   5.401   5.842   6.100 -0.0319 -0.7689 -1.0240
 8670SOL    HW226831   5.414   6.004   6.084  0.0116 -0.5464  1.0488
 8671SOL     OW26832   3.138   5.860   4.945 -0.1205  0.3455  0.5312
 8671SOL    HW126833   3.083   5.778   4.964  0.8840 -0.5754 -0.4244
 8671SOL    HW226834   3.097   5.938   4.992 -0.7757 -0.7977  1.9515
 8672SOL     OW26835   6.714   2.993   2.041  0.7939  0.5346 -0.5871
 8672SOL    HW126836   6.733   2.896   2.055  2.2730  1.2121  3.1441
 8672SOL    HW226837   6.636   3.021   2.097  1.9368  1.9323  0.3743
 8673SOL     OW26838   2.603   1.946   0.005  0.0737  0.7430  0.7163
 8673SOL    HW126839   2.607   1.858   0.053  0.2405 -0.3057 -1.1476
 8673SOL    HW226840   2.510   1.983   0.013 -0.6700 -0.7617 -0.3946
 8674SOL     OW26841   5.999   5.228   6.270  0.4718 -0.0302 -0.1918
 8674SOL    HW126842   5.922   5.212   6.331  1.2817  0.2710  0.9394
 8674SOL    HW226843   5.987   5.316   6.224  0.4177  0.2865  0.4188
 8675SOL     OW26844   4.095   6.965   0.441  0.2101 -0.1392  0.0455
 8675SOL    HW126845   4.140   6.876   0.440 -0.4954 -0.5152 -1.8322
 8675SOL    HW226846   4.143   7.028   0.380  0.4436  0.6520  1.0156
 8676SOL     OW26847   6.272   5.270   2.415  0.4864  0.0233 -0.1628
 8676SOL    HW126848   6.370   5.272   2.398  0.3582 -1.2637 -1.1454
 8676SOL    HW226849   6.241   5.362   2.439  1.5168  0.9683 -2.1859
 8677SOL     OW26850   1.384   2.596   1.248 -0.0306  0.4099  0.0648
 8677SOL    HW126851   1.459   2.652   1.284  1.1148 -0.0226 -1.5335
 8677SOL    HW226852   1.298   2.623   1.291  0.8290  1.8671  0.9409
 8678SOL     OW26853   6.248   6.415   1.128 -0.6631 -0.1625 -0.0508
 8678SOL    HW126854   6.327   6.473   1.112  0.5312 -1.4169  1.0669
 8678SOL    HW226855   6.176   6.437   1.062  0.3232  1.4961 -0.6185
 8679SOL     OW26856   1.225   5.756   2.545  0.2825 -0.1055  0.6097
 8679SOL    HW126857   1.161   5.825   2.578 -0.5277  0.5945 -2.1658
 8679SOL    HW226858   1.295   5.739   2.615 -0.2061  2.5793  1.8696
 8680SOL     OW26859   0.170   5.745   0.572 -0.4222  0.0393  0.3166
 8680SOL    HW126860   0.146   5.725   0.667 -0.2052 -0.9530  0.1766
 8680SOL    HW226861   0.148   5.840   0.551 -3.5814 -0.5352  0.4183
 8681SOL     OW26862   5.342   4.280   5.233  0.2799  0.1578  0.5006
 8681SOL    HW126863   5.295   4.329   5.160  0.7514 -0.7039 -0.4030
 8681SOL    HW226864   5.425   4.329   5.259 -0.6816  1.2823  1.5683
 8682SOL     OW26865   0.564   4.926   5.995  0.5653 -0.0750 -0.0326
 8682SOL    HW126866   0.547   4.993   5.923 -0.6712  0.2150  0.5159
 8682SOL    HW226867   0.560   4.970   6.084  0.5835 -0.7213  0.2935
 8683SOL     OW26868   4.400   0.934   2.725  0.2072 -0.0863 -0.3324
 8683SOL    HW126869   4.397   1.034   2.715 -1.8427 -0.0332  0.4277
 8683SOL    HW226870   4.493   0.902   2.704  1.0977  2.0356  0.0622
 8684SOL     OW26871   0.260   4.916   2.030 -0.7640  0.0213 -0.0422
 8684SOL    HW126872   0.191   4.844   2.042 -1.3828 -0.0141 -3.0148
 8684SOL    HW226873   0.303   4.905   1.940  0.6080  2.1595  0.3054
 8685SOL     OW26874   1.230   3.261   2.481 -0.5461  0.1354  0.2534
 8685SOL    HW126875   1.328   3.277   2.470  0.0178 -2.4960  0.7353
 8685SOL    HW226876   1.181   3.295   2.400  0.7085  1.7328  0.1306
 8686SOL     OW26877   2.565   4.681   0.190 -0.1052  0.1302 -0.0468
 8686SOL    HW126878   2.586   4.592   0.151  1.1451  0.3039  0.1879
 8686SOL    HW226879   2.491   4.724   0.138 -0.3097 -0.7774 -0.5219
 8687SOL     OW26880   5.069   5.266   1.113  0.0989  0.4611  0.2947
 8687SOL    HW126881   5.004   5.332   1.075  0.8942  2.0397  1.5799
 8687SOL    HW226882   5.019   5.192   1.158 -0.8012  0.2369 -0.9920
 8688SOL     OW26883   4.563   4.162   3.840 -0.5230  0.4282  0.2853
 8688SOL    HW126884   4.558   4.210   3.928 -1.3591  0.3219  0.3072
 8688SOL    HW226885   4.473   4.163   3.797 -0.7161 -1.6686  0.5763
 8689SOL     OW26886   1.172   3.533   3.853 -0.0304  0.2128  0.2582
 8689SOL    HW126887   1.114   3.476   3.795  1.9039 -0.3321 -1.2501
 8689SOL    HW226888   1.146   3.520   3.949 -1.6736 -0.7867 -0.2806
 8690SOL     OW26889   2.857   5.068   0.872 -0.2715 -0.6399 -0.4058
 8690SOL    HW126890   2.819   5.159   0.856  1.7033  0.5242  1.0690
 8690SOL    HW226891   2.852   5.046   0.970  1.5996 -0.9507 -0.3326
 8691SOL     OW26892   6.200   6.717   3.939  0.3503 -0.0063  0.0121
 8691SOL    HW126893   6.123   6.678   3.889  0.6308 -0.0590 -0.3838
 8691SOL    HW226894   6.255   6.774   3.877  1.4290 -1.0887 -0.0795
 8692SOL     OW26895   5.587   4.486   0.687 -0.0395  0.2470  0.4566
 8692SOL    HW126896   5.490   4.494   0.663 -0.0010  0.5412  0.3975
 8692SOL    HW226897   5.625   4.405   0.642 -0.2936  0.0444  0.6022
 8693SOL     OW26898   6.631   1.441   2.402 -0.0786 -0.5379 -0.3958
 8693SOL    HW126899   6.624   1.343   2.386  0.1410 -0.7288  0.5774
 8693SOL    HW226900   6.703   1.458   2.471 -0.7882  0.2105  0.1764
 8694SOL     OW26901   0.080   2.315   5.096  0.1105 -0.7323 -0.6460
 8694SOL    HW126902   0.099   2.269   5.183 -1.0945  1.2531  0.7375
 8694SOL    HW226903  -0.016   2.304   5.072  0.0804  0.0474 -0.9150
 8695SOL     OW26904   1.997   5.282   5.901  0.3094 -1.0585 -0.1369
 8695SOL    HW126905   1.913   5.254   5.948  0.4497 -1.0823  0.1001
 8695SOL    HW226906   2.074   5.228   5.936  0.9857  1.1203  1.9449
 8696SOL     OW26907   0.608   1.651   5.625  0.9375  0.1617 -0.3660
 8696SOL    HW126908   0.616   1.748   5.605  2.3114 -0.1539 -1.5109
 8696SOL    HW226909   0.535   1.611   5.570 -0.1594  0.6563  0.6740
 8697SOL     OW26910   3.101   4.229   6.265 -0.1329 -0.4458 -0.4327
 8697SOL    HW126911   3.105   4.186   6.355  0.6798 -2.1167 -1.2188
 8697SOL    HW226912   3.149   4.316   6.266 -0.5854 -0.1996  0.8691
 8698SOL     OW26913   3.117   6.367   4.013 -0.4871 -0.2303 -0.5812
 8698SOL    HW126914   3.100   6.432   3.939  0.2559  0.9191  0.2330
 8698SOL    HW226915   3.037   6.362   4.073 -0.4894  0.0409 -0.5642
 8699SOL     OW26916   3.757   4.872   6.183 -0.2393 -0.2080 -0.7529
 8699SOL    HW126917   3.670   4.856   6.231  0.3678 -0.1200  0.4116
 8699SOL    HW226918   3.787   4.966   6.201  1.6128 -1.1206  1.4388
 8700SOL     OW26919   3.383   6.487   0.566 -0.1219  0.2447 -0.0768
 8700SOL    HW126920   3.449   6.433   0.618 -1.1568 -0.0823  0.9077
 8700SOL    HW226921   3.401   6.584   0.580 -1.6858  0.2299  2.6908
 8701SOL     OW26922   6.110   0.498   1.736  0.4188 -0.6334 -0.3668
 8701SOL    HW126923   6.098   0.413   1.684  0.2597 -0.4223 -0.6787
 8701SOL    HW226924   6.023   0.545   1.744  0.6270 -0.1597 -0.7904
 8702SOL     OW26925   0.367   4.638   2.772 -0.3967 -0.7061 -0.8208
 8702SOL    HW126926   0.421   4.711   2.813 -0.1715 -1.1185 -0.3737
 8702SOL    HW226927   0.272   4.645   2.805 -0.3564 -0.6638 -0.7125
 8703SOL     OW26928   5.153   0.517   5.328 -0.2415 -0.8458  0.3466
 8703SOL    HW126929   5.247   0.533   5.359 -0.5020 -1.3033  1.4182
 8703SOL    HW226930   5.108   0.604   5.311 -0.4174 -0.5011  2.3377
 8704SOL     OW26931   5.826   2.853   6.053  0.5850  0.1880  0.0495
 8704SOL    HW126932   5.783   2.844   5.963  1.7814  0.7233 -0.6043
 8704SOL    HW226933   5.809   2.771   6.107  0.3147 -0.3751 -0.8705
 8705SOL     OW26934   3.530   1.727   4.053 -0.5227 -0.2972  0.1241
 8705SOL    HW126935   3.487   1.765   4.135 -0.0416  1.9332 -0.5895
 8705SOL    HW226936   3.618   1.688   4.077 -0.2703  0.5643  0.6476
 8706SOL     OW26937   3.173   0.375   3.638 -0.0762 -0.5650 -0.5250
 8706SOL    HW126938   3.167   0.357   3.539  0.2137  1.0266 -0.8616
 8706SOL    HW226939   3.099   0.436   3.665  0.8031  0.3516 -0.1014
 8707SOL     OW26940   6.809   6.659   5.263 -0.0905  0.5467 -0.3330
 8707SOL    HW126941   6.835   6.724   5.191  2.3281  0.4671  0.3699
 8707SOL    HW226942   6.758   6.707   5.334  0.8015  1.4889 -0.2968
 8708SOL     OW26943   5.443   5.896   6.524  0.3769 -0.1308  0.4034
 8708SOL    HW126944   5.485   5.982   6.495  1.8672 -0.5313  1.2445
 8708SOL    HW226945   5.472   5.876   6.618  1.1065 -2.1706 -0.2028
 8709SOL     OW26946   0.425   0.861   1.148 -0.0495 -0.3371  0.4388
 8709SOL    HW126947   0.510   0.827   1.191  0.8617  1.5837  0.2770
 8709SOL    HW226948   0.427   0.841   1.050 -0.1684 -1.0194  0.5727
 8710SOL     OW26949   3.647   5.468   1.848  0.5020 -0.3677  0.3821
 8710SOL    HW126950   3.566   5.521   1.872  0.7920 -0.2779  1.1827
 8710SOL    HW226951   3.624   5.371   1.845  0.5122 -0.4064  1.2956
 8711SOL     OW26952   3.505   5.683   4.635 -0.1302  0.3336  0.5840
 8711SOL    HW126953   3.438   5.640   4.695 -1.0245  0.8966  0.0262
 8711SOL    HW226954   3.559   5.612   4.590 -2.3923 -0.3689 -1.2592
 8712SOL     OW26955   1.390   4.874   6.458  0.2246  1.0086 -0.6798
 8712SOL    HW126956   1.354   4.819   6.533 -0.3144 -0.4488 -1.9767
 8712SOL    HW226957   1.490   4.868   6.457  0.1784  0.1926 -0.6989
 8713SOL     OW26958   4.624   6.210   1.384 -0.3698  0.1267 -0.2272
 8713SOL    HW126959   4.639   6.277   1.311 -1.1142  0.1395 -0.3716
 8713SOL    HW226960   4.644   6.118   1.350 -0.3854  0.1656 -0.3395
 8714SOL     OW26961   0.510   6.932   6.029  0.1626  0.0504 -0.1218
 8714SOL    HW126962   0.536   6.864   6.097  1.1971  1.8547  1.3850
 8714SOL    HW226963   0.450   7.000   6.071  0.0909  0.7168 -1.2601
 8715SOL     OW26964   6.179   6.337   5.231 -0.0389  0.0987  0.7258
 8715SOL    HW126965   6.215   6.252   5.192  1.7606  1.3350 -0.4499
 8715SOL    HW226966   6.088   6.354   5.194  0.7986  0.1816 -1.4622
 8716SOL     OW26967   5.303   4.401   0.653 -0.3899  0.1399  0.5578
 8716SOL    HW126968   5.257   4.399   0.565  0.0627  1.5739  0.2640
 8716SOL    HW226969   5.309   4.308   0.690 -1.2340 -0.3797 -0.5694
 8717SOL     OW26970   6.605   4.425   4.793  0.5465  0.2300 -0.2534
 8717SOL    HW126971   6.547   4.497   4.755 -1.7370 -1.4536 -0.1704
 8717SOL    HW226972   6.585   4.338   4.748  1.4539 -0.8407  1.2810
 8718SOL     OW26973   4.037   6.842   2.709  0.3410  0.5083 -0.3553
 8718SOL    HW126974   4.063   6.795   2.625  0.1402  0.3106 -0.3070
 8718SOL    HW226975   3.993   6.929   2.687  0.2144  0.4190 -0.4580
 8719SOL     OW26976   5.003   6.891   3.772 -0.0500  0.3833  0.1460
 8719SOL    HW126977   4.910   6.854   3.776  0.2992 -0.4875  0.3830
 8719SOL    HW226978   5.033   6.917   3.863  0.0737  0.3183  0.1241
 8720SOL     OW26979   5.399   0.096   1.461 -0.4981  0.1539 -0.1445
 8720SOL    HW126980   5.358   0.094   1.552 -0.7990  4.3991  0.0293
 8720SOL    HW226981   5.499   0.101   1.470 -0.4837 -0.2032 -0.0949
 8721SOL     OW26982   1.082   5.260   5.103  0.2488  0.2553 -0.3399
 8721SOL    HW126983   1.181   5.247   5.097  0.2993  0.4483  0.0506
 8721SOL    HW226984   1.049   5.301   5.018  0.6601  1.1495 -0.0748
 8722SOL     OW26985   5.911   6.747   5.879  0.1652  0.1582 -0.4164
 8722SOL    HW126986   5.871   6.759   5.970  0.4838  0.3771 -0.3043
 8722SOL    HW226987   5.877   6.819   5.818 -1.6423 -1.1436 -1.0345
 8723SOL     OW26988   6.494   6.195   1.157  0.2052 -0.2858 -0.1978
 8723SOL    HW126989   6.404   6.210   1.200  0.8720  1.0092  0.8210
 8723SOL    HW226990   6.563   6.186   1.228  1.0244 -0.3604 -0.9947
 8724SOL     OW26991   3.646   4.273   5.619 -0.2126  0.3724  0.7820
 8724SOL    HW126992   3.662   4.241   5.712 -1.2820  0.8272  1.1399
 8724SOL    HW226993   3.733   4.298   5.577  0.3991 -0.8200  1.2802
 8725SOL     OW26994   3.447   5.550   6.790 -0.2361 -0.0089 -0.3631
 8725SOL    HW126995   3.458   5.622   6.858 -1.3557  0.8889 -1.1025
 8725SOL    HW226996   3.380   5.483   6.823  0.4153 -0.4479  0.0951
 8726SOL     OW26997   3.365   6.324   1.573  0.3634 -0.6633  0.1474
 8726SOL    HW126998   3.266   6.320   1.585  0.2505  1.6782  0.3037
 8726SOL    HW226999   3.410   6.293   1.656 -0.2769  0.3051  0.8784
 8727SOL     OW27000   6.469   5.114   4.834  0.6315  0.5865  0.1218
 8727SOL    HW127001   6.379   5.142   4.867  0.4879 -0.1964  0.4244
 8727SOL    HW227002   6.477   5.014   4.839  1.1691  0.5676 -0.7869
 8728SOL     OW27003   0.636   3.293   1.823 -0.1657 -0.1679 -0.1259
 8728SOL    HW127004   0.712   3.337   1.871 -3.1092  5.1019  0.4336
 8728SOL    HW227005   0.656   3.288   1.725  1.0742  0.7743  0.0534
 8729SOL     OW27006   5.596   1.297   0.401  0.1417 -0.2749  0.4559
 8729SOL    HW127007   5.539   1.378   0.387 -2.6975 -2.2850 -0.6560
 8729SOL    HW227008   5.662   1.290   0.326 -0.1032  0.6043  0.1390
 8730SOL     OW27009   1.472   4.456   1.022  0.0973  0.5620  0.3925
 8730SOL    HW127010   1.516   4.380   0.974  1.6985  1.2106  0.7603
 8730SOL    HW227011   1.402   4.496   0.964  2.0222  1.3748 -1.5069
 8731SOL     OW27012   2.320   6.049   0.816 -0.3359  0.4140  0.2846
 8731SOL    HW127013   2.392   6.102   0.771 -0.8874  0.2952 -0.7567
 8731SOL    HW227014   2.348   6.029   0.910  0.2784  1.7527  0.4112
 8732SOL     OW27015   5.049   1.268   4.742 -0.4129  0.2909 -0.4833
 8732SOL    HW127016   5.061   1.186   4.685 -1.2894 -0.2547  0.0851
 8732SOL    HW227017   4.976   1.324   4.704  0.8993  1.3884 -1.4824
 8733SOL     OW27018   1.402   1.664   0.107  0.4113  0.1974  0.0591
 8733SOL    HW127019   1.351   1.707   0.181 -2.0214 -0.2568 -1.2657
 8733SOL    HW227020   1.391   1.565   0.112 -1.1306  0.2125 -1.7292
 8734SOL     OW27021   2.736   6.985   3.217 -0.4081 -0.3507  1.0086
 8734SOL    HW127022   2.696   7.069   3.182 -0.2905  0.3304  2.4578
 8734SOL    HW227023   2.787   7.004   3.300 -0.6496 -1.8963  1.5453
 8735SOL     OW27024   1.860   6.192   3.763 -0.2183 -0.3025  0.6531
 8735SOL    HW127025   1.864   6.117   3.697 -1.6106 -0.4762  0.7509
 8735SOL    HW227026   1.951   6.234   3.771  0.1125 -0.6756 -0.8936
 8736SOL     OW27027   4.896   6.412   4.640 -0.2594 -0.3408 -0.5536
 8736SOL    HW127028   4.840   6.353   4.581 -0.9788 -1.2966  1.0308
 8736SOL    HW227029   4.864   6.405   4.734  2.1683 -0.4379  0.3229
 8737SOL     OW27030   1.589   0.791   2.865 -0.8031  0.0601  0.0538
 8737SOL    HW127031   1.637   0.856   2.807 -2.1738 -0.2432 -1.4986
 8737SOL    HW227032   1.607   0.813   2.961  0.9075  1.0476 -0.4560
 8738SOL     OW27033   2.633   0.915   4.784 -0.1385  0.0700 -0.3529
 8738SOL    HW127034   2.645   0.947   4.878  1.6777 -0.8606 -0.2316
 8738SOL    HW227035   2.593   0.989   4.729 -1.2600  0.6229  1.1282
 8739SOL     OW27036   0.981   0.627   0.385 -0.1948  0.0262 -0.0180
 8739SOL    HW127037   1.066   0.589   0.422 -0.4195 -0.4923 -0.0334
 8739SOL    HW227038   0.998   0.663   0.293  0.8090  2.9454  1.1823
 8740SOL     OW27039   3.283   1.224   6.607  0.4785 -0.0993 -0.2284
 8740SOL    HW127040   3.370   1.234   6.560  0.5823 -0.3467 -0.0943
 8740SOL    HW227041   3.273   1.297   6.675  1.1870 -0.8261  0.6865
 8741SOL     OW27042   6.473   3.399   1.392  0.5666 -0.2143  0.2529
 8741SOL    HW127043   6.517   3.311   1.374  0.0820 -0.2266 -0.9241
 8741SOL    HW227044   6.539   3.472   1.377  0.1364 -0.2128 -1.8420
 8742SOL     OW27045   3.673   2.366   0.578  0.5063 -0.0199  0.0653
 8742SOL    HW127046   3.656   2.285   0.522  3.0170  0.5523 -1.6884
 8742SOL    HW227047   3.689   2.445   0.518 -1.3222  1.7344  1.7164
 8743SOL     OW27048   5.640   0.163   3.792  0.4133  0.5273 -0.7711
 8743SOL    HW127049   5.723   0.143   3.846  0.4784 -0.4657 -1.2196
 8743SOL    HW227050   5.653   0.131   3.699 -0.3505  0.6997 -0.9398
 8744SOL     OW27051   5.768   2.227   0.486  0.2177  0.1834  0.1990
 8744SOL    HW127052   5.843   2.210   0.551  1.2498  0.2146 -0.9356
 8744SOL    HW227053   5.684   2.247   0.536  1.1964  1.1743  1.5278
 8745SOL     OW27054   4.064   4.536   0.394 -0.2404 -0.2856 -0.2953
 8745SOL    HW127055   3.981   4.577   0.431  1.3661  2.1548  0.9342
 8745SOL    HW227056   4.056   4.527   0.294 -2.2483 -0.9046 -0.1071
 8746SOL     OW27057   1.363   2.885   0.115  0.4424 -0.0132  0.4863
 8746SOL    HW127058   1.304   2.947   0.064  2.1557  2.1308  0.9533
 8746SOL    HW227059   1.454   2.883   0.073  0.6972 -1.5019  1.0414
 8747SOL     OW27060   6.854   6.469   0.822 -0.7430  0.3011  0.6795
 8747SOL    HW127061   6.887   6.405   0.754  1.0918  1.6580  0.2024
 8747SOL    HW227062   6.928   6.491   0.886 -1.5460  1.3279  1.2928
 8748SOL     OW27063   6.511   3.488   5.104 -0.3317  0.0961 -0.3685
 8748SOL    HW127064   6.493   3.415   5.038 -0.3356  0.9722 -1.3421
 8748SOL    HW227065   6.509   3.577   5.059  0.3485  0.6692  0.6723
 8749SOL     OW27066   0.506   2.846   2.437 -0.1353 -0.1538  0.5730
 8749SOL    HW127067   0.504   2.823   2.534 -1.9999 -1.4014  0.3041
 8749SOL    HW227068   0.427   2.804   2.391  0.5666  0.5877 -1.4466
 8750SOL     OW27069   1.142   1.790   1.128  0.8026 -1.0016 -0.0899
 8750SOL    HW127070   1.043   1.775   1.134  0.7699 -0.8422 -0.2170
 8750SOL    HW227071   1.175   1.827   1.215  0.8648 -1.6880  0.1835
 8751SOL     OW27072   3.634   0.684   1.555  0.4006  0.2549  0.3471
 8751SOL    HW127073   3.536   0.703   1.555  0.4344  0.4400 -0.0697
 8751SOL    HW227074   3.661   0.650   1.645 -0.1460 -0.3307  0.3034
 8752SOL     OW27075   6.576   1.896   1.204  0.2110 -0.0315  0.4556
 8752SOL    HW127076   6.673   1.882   1.183  0.8212  1.7496  1.8061
 8752SOL    HW227077   6.536   1.954   1.133  0.0269 -1.0426 -0.2833
 8753SOL     OW27078   2.294   5.475   2.374  0.4427  0.5774  0.3281
 8753SOL    HW127079   2.272   5.451   2.468  2.2694  0.2538  0.7097
 8753SOL    HW227080   2.237   5.552   2.345 -1.8863 -0.8687  0.8174
 8754SOL     OW27081   5.419   0.716   3.687 -0.1247  0.4674  0.1539
 8754SOL    HW127082   5.375   0.727   3.777  0.6977 -3.9912  1.3572
 8754SOL    HW227083   5.517   0.701   3.700 -0.2272 -1.8579 -1.2522
 8755SOL     OW27084   4.006   0.678   1.144  0.3080 -0.1961  0.4769
 8755SOL    HW127085   3.995   0.580   1.162 -0.6903  0.0710  1.4337
 8755SOL    HW227086   4.030   0.725   1.229 -2.2455  0.7937  0.7377
 8756SOL     OW27087   3.716   2.577   1.853  0.1343  0.6412 -0.2433
 8756SOL    HW127088   3.691   2.543   1.943  0.0632 -1.2653 -0.9452
 8756SOL    HW227089   3.634   2.583   1.796  0.2896  1.1059 -0.4206
 8757SOL     OW27090   3.053   5.059   2.561 -0.0255  0.0969  0.1898
 8757SOL    HW127091   3.008   5.022   2.480 -1.8628  0.9803  0.7246
 8757SOL    HW227092   3.053   4.990   2.634  2.4943 -1.0327 -0.7953
 8758SOL     OW27093   0.191   2.819   4.296  0.3792 -0.0589  0.1774
 8758SOL    HW127094   0.290   2.826   4.288  0.6692 -0.8726  2.2186
 8758SOL    HW227095   0.167   2.728   4.329 -0.7261  1.0825  2.8528
 8759SOL     OW27096   3.002   5.622   4.866 -0.0927 -0.0025 -0.0800
 8759SOL    HW127097   2.948   5.643   4.785  2.9145 -1.1168 -2.5489
 8759SOL    HW227098   3.034   5.527   4.861  2.9307  0.8727  0.6280
 8760SOL     OW27099   5.501   4.641   5.016  0.2683  0.1219 -0.6378
 8760SOL    HW127100   5.441   4.718   5.036  1.1005  0.3295  1.2501
 8760SOL    HW227101   5.454   4.577   4.955 -2.3785 -0.3086  1.6608
 8761SOL     OW27102   2.352   0.320   2.075  0.1213 -0.0220  0.2523
 8761SOL    HW127103   2.438   0.370   2.082  0.5556 -0.7534  0.3619
 8761SOL    HW227104   2.370   0.222   2.088 -0.6583 -0.2384 -0.2322
 8762SOL     OW27105   4.500   2.280   3.380  0.0248  0.7639 -0.1379
 8762SOL    HW127106   4.535   2.294   3.472  3.0193 -4.1339 -0.1459
 8762SOL    HW227107   4.411   2.234   3.384 -0.9937  2.6653  0.1371
 8763SOL     OW27108   1.487   3.340   2.423  0.1961  0.2593  0.5758
 8763SOL    HW127109   1.557   3.269   2.431 -0.5454 -0.4356  1.1985
 8763SOL    HW227110   1.522   3.417   2.370  0.5119 -1.2459 -1.5196
 8764SOL     OW27111   5.844   3.110   2.329  0.3975  0.5535  0.0817
 8764SOL    HW127112   5.910   3.184   2.343  0.0791  0.9906 -0.6706
 8764SOL    HW227113   5.872   3.055   2.250  0.6259 -0.1294  0.6322
 8765SOL     OW27114   2.246   5.462   3.141  0.6411  0.4745  0.1137
 8765SOL    HW127115   2.304   5.537   3.173 -0.1157  0.9486  0.3758
 8765SOL    HW227116   2.220   5.478   3.046  2.0904 -0.4555 -0.4946
 8766SOL     OW27117   6.100   5.155   0.969 -0.1267 -0.1966 -0.0763
 8766SOL    HW127118   6.077   5.133   1.063 -1.0111 -1.4836 -0.5567
 8766SOL    HW227119   6.090   5.073   0.912  2.8205 -0.0989 -0.8975
 8767SOL     OW27120   5.393   3.952   2.767  0.4991  0.3548  0.1338
 8767SOL    HW127121   5.402   4.034   2.711 -0.1420 -0.8486 -1.8859
 8767SOL    HW227122   5.431   3.874   2.716  0.0989 -0.7697  1.5131
 8768SOL     OW27123   5.218   6.579   2.883  0.3408 -0.3372  0.7399
 8768SOL    HW127124   5.224   6.678   2.896 -1.7935  0.1206 -1.0952
 8768SOL    HW227125   5.304   6.545   2.846  0.2186  1.3659 -1.3018
 8769SOL     OW27126   5.553   1.713   2.267  1.0291  0.1898  0.3495
 8769SOL    HW127127   5.638   1.670   2.237  0.3994 -0.5777 -0.3953
 8769SOL    HW227128   5.553   1.722   2.366  1.2714 -1.3658  0.5213
 8770SOL     OW27129   2.272   4.748   2.565  0.0734  0.0802  0.2989
 8770SOL    HW127130   2.195   4.750   2.501 -0.4044 -0.2106  0.8563
 8770SOL    HW227131   2.238   4.733   2.657  0.8154 -0.2128  0.5327
 8771SOL     OW27132   6.310   4.634   4.581  0.3709  0.3016 -0.0395
 8771SOL    HW127133   6.236   4.682   4.629  0.4578 -0.0737  0.4766
 8771SOL    HW227134   6.270   4.569   4.516  0.1836 -1.1249  1.4158
 8772SOL     OW27135   5.390   1.392   6.032 -0.1976  0.0026 -0.0459
 8772SOL    HW127136   5.327   1.470   6.034 -1.1727 -0.4993 -3.7746
 8772SOL    HW227137   5.482   1.424   6.010 -0.1479  0.2787  0.5493
 8773SOL     OW27138   5.623   3.166   5.910 -0.1175  0.1237  0.0761
 8773SOL    HW127139   5.596   3.080   5.866  0.0564  0.2647 -0.3025
 8773SOL    HW227140   5.704   3.203   5.864 -1.2228  1.4021 -0.8931
 8774SOL     OW27141   0.454   4.037   5.252  0.4862  0.2877  0.9539
 8774SOL    HW127142   0.537   4.012   5.202 -0.0205  0.7180 -0.1383
 8774SOL    HW227143   0.463   4.130   5.287 -1.0123  2.0269 -2.6975
 8775SOL     OW27144   0.004   1.704   5.777 -0.3388 -0.3240 -0.5373
 8775SOL    HW127145  -0.032   1.709   5.870 -1.4592  0.0209 -0.9645
 8775SOL    HW227146   0.048   1.790   5.753 -0.3862 -0.2766 -0.4523
 8776SOL     OW27147   6.350   4.993   6.840  0.4455 -0.0075 -0.0892
 8776SOL    HW127148   6.366   5.010   6.938  1.0902 -1.1882  0.0219
 8776SOL    HW227149   6.254   5.010   6.819  0.1080 -0.5543  0.9349
 8777SOL     OW27150   0.743   3.173   2.229  0.4604 -0.6541 -0.5472
 8777SOL    HW127151   0.710   3.079   2.240  0.7058 -0.5594  1.3152
 8777SOL    HW227152   0.665   3.235   2.224  0.3096 -0.8444 -0.5761
 8778SOL     OW27153   5.920   2.195   4.413  0.0236 -0.4708 -0.5938
 8778SOL    HW127154   5.882   2.270   4.466 -0.4048 -0.5036 -0.8468
 8778SOL    HW227155   5.853   2.121   4.406  0.4556 -0.8948 -0.3121
 8779SOL     OW27156   5.944   3.581   1.331 -0.4893  0.1836 -0.1169
 8779SOL    HW127157   6.034   3.596   1.372  0.3335  0.3914 -1.8763
 8779SOL    HW227158   5.906   3.496   1.365 -0.0881  0.5680  1.3932
 8780SOL     OW27159   4.317   4.503   5.940  0.4452  0.1539 -0.2096
 8780SOL    HW127160   4.400   4.449   5.929  0.1771  0.1038 -2.4067
 8780SOL    HW227161   4.335   4.598   5.914 -0.6047 -0.2681 -2.7669
 8781SOL     OW27162   5.537   1.747   2.548  0.2412 -0.0082 -0.7039
 8781SOL    HW127163   5.441   1.775   2.550  0.8930  2.3665  0.0674
 8781SOL    HW227164   5.555   1.688   2.626 -0.6509 -0.8047 -1.0710
 8782SOL     OW27165   2.365   0.691   1.647 -0.0996 -0.5038 -0.5504
 8782SOL    HW127166   2.292   0.623   1.643  0.1951 -0.8741  0.3089
 8782SOL    HW227167   2.453   0.645   1.641  0.1170 -0.2529  0.5978
 8783SOL     OW27168   5.254   0.412   3.302 -0.0263 -0.2863  0.2165
 8783SOL    HW127169   5.336   0.468   3.311  0.1399 -0.4145 -0.4317
 8783SOL    HW227170   5.187   0.439   3.372  0.0004  0.7935 -0.1545
 8784SOL     OW27171   6.150   2.665   2.871  0.0825 -0.2036 -0.1094
 8784SOL    HW127172   6.163   2.612   2.787 -0.1165  0.3276 -0.4826
 8784SOL    HW227173   6.087   2.741   2.853 -1.5876 -1.2595  1.0260
 8785SOL     OW27174   1.678   0.834   3.131  0.0437 -0.4069  0.3559
 8785SOL    HW127175   1.757   0.777   3.155  0.3759  0.1331  0.5612
 8785SOL    HW227176   1.602   0.813   3.193 -0.3778 -1.7580 -0.5608
 8786SOL     OW27177   3.560   5.611   1.296  0.0839  0.1133 -0.0733
 8786SOL    HW127178   3.604   5.540   1.351  0.8738 -0.9844 -2.0477
 8786SOL    HW227179   3.463   5.588   1.284 -0.1911  0.5626  1.1299
 8787SOL     OW27180   4.938   3.400   3.211 -0.1107  0.0545 -0.6842
 8787SOL    HW127181   5.028   3.400   3.167 -0.0166  3.6405 -0.7650
 8787SOL    HW227182   4.949   3.382   3.309  0.5922 -0.3495 -0.8284
 8788SOL     OW27183   3.588   0.925   2.795 -0.3993 -0.1128 -0.2577
 8788SOL    HW127184   3.645   1.000   2.760 -0.2160  0.2359  0.7558
 8788SOL    HW227185   3.507   0.963   2.839  1.3881 -0.1721  3.5164
 8789SOL     OW27186   1.612   2.630   4.968 -0.0624  0.1079 -0.4410
 8789SOL    HW127187   1.564   2.686   5.035 -0.0936 -0.7370  0.2518
 8789SOL    HW227188   1.656   2.689   4.900 -0.9636  0.9291 -0.3219
 8790SOL     OW27189   0.911   3.679   6.917  0.0791  0.1984  0.0714
 8790SOL    HW127190   0.932   3.745   6.845 -1.4375 -1.5940 -2.1812
 8790SOL    HW227191   0.968   3.597   6.905  0.2877  0.1440  1.3531
 8791SOL     OW27192   5.210   4.810   4.463 -0.0271  0.1362  0.1943
 8791SOL    HW127193   5.210   4.792   4.364 -0.0422  0.5438  0.1189
 8791SOL    HW227194   5.297   4.851   4.489  0.5726 -1.3589  0.6125
 8792SOL     OW27195   3.472   5.679   3.455 -0.3460 -0.1235 -0.0064
 8792SOL    HW127196   3.417   5.598   3.468 -1.2390  0.2953 -0.9960
 8792SOL    HW227197   3.448   5.723   3.368 -0.3271  1.5381  0.7765
 8793SOL     OW27198   3.215   5.709   5.670 -0.4024 -0.0423  0.2153
 8793SOL    HW127199   3.172   5.776   5.609  0.2443  0.9914  0.8490
 8793SOL    HW227200   3.289   5.663   5.622 -1.0254 -0.5111 -0.3102
 8794SOL     OW27201   5.613   0.328   2.626  0.4082  0.0131 -0.3045
 8794SOL    HW127202   5.688   0.263   2.636  0.1341 -0.1982  0.3973
 8794SOL    HW227203   5.551   0.298   2.554 -0.2041 -0.9820  0.6113
 8795SOL     OW27204   2.076   6.728   1.901  0.5370 -0.0447 -0.6171
 8795SOL    HW127205   1.988   6.697   1.936  1.4719 -2.0581  0.0408
 8795SOL    HW227206   2.145   6.724   1.973  1.3048  1.0666 -1.2467
 8796SOL     OW27207   0.136   3.738   3.524  0.4550 -0.2742  0.3968
 8796SOL    HW127208   0.130   3.825   3.476  1.1062 -1.3502 -1.8130
 8796SOL    HW227209   0.061   3.678   3.496 -0.0213 -0.4382  1.9228
 8797SOL     OW27210   6.362   4.190   1.703  0.0923  0.2962 -0.0895
 8797SOL    HW127211   6.378   4.139   1.618 -0.9049 -3.4399  1.7234
 8797SOL    HW227212   6.309   4.272   1.683 -1.0115 -0.9737 -2.9884
 8798SOL     OW27213   3.952   1.318   0.877  0.4331  0.0866 -0.3194
 8798SOL    HW127214   3.984   1.346   0.967  0.5459  0.4002 -0.4550
 8798SOL    HW227215   4.030   1.290   0.821  0.3458 -0.2663 -0.2648
 8799SOL     OW27216   3.852   2.973   2.317  0.6285  0.7195 -0.0529
 8799SOL    HW127217   3.768   2.966   2.370  0.0411  0.6197 -0.9601
 8799SOL    HW227218   3.909   2.892   2.334  0.7495  0.9969  0.8975
 8800SOL     OW27219   4.781   3.832   2.399  0.5003 -0.2722  0.5836
 8800SOL    HW127220   4.734   3.858   2.314 -0.4319  1.1911  1.4918
 8800SOL    HW227221   4.879   3.825   2.383  0.3534  0.1702 -0.5689
 8801SOL     OW27222   3.020   3.236   1.822 -0.0309 -0.4747  0.2669
 8801SOL    HW127223   3.031   3.328   1.860  0.9532 -1.0920  1.5598
 8801SOL    HW227224   3.042   3.169   1.892  1.7034 -1.6890 -1.3375
 8802SOL     OW27225   1.377   2.972   4.861  0.0545 -0.2103 -0.2184
 8802SOL    HW127226   1.314   3.038   4.902 -2.8101 -1.1478 -2.7228
 8802SOL    HW227227   1.455   3.020   4.822  0.3358  1.1565  1.8617
 8803SOL     OW27228   3.575   1.915   4.563  0.2074 -0.4409 -0.1515
 8803SOL    HW127229   3.484   1.936   4.527  0.1790 -0.4676 -0.0960
 8803SOL    HW227230   3.595   1.976   4.640  0.2521 -0.4095 -0.1885
 8804SOL     OW27231   5.359   4.148   0.463  0.1672  0.3034  0.3433
 8804SOL    HW127232   5.323   4.065   0.421  0.1150  0.6028 -0.2199
 8804SOL    HW227233   5.324   4.228   0.413  1.9948  0.5879 -0.5488
 8805SOL     OW27234   4.199   1.723   1.924 -0.1208 -0.8346  0.1934
 8805SOL    HW127235   4.225   1.772   2.008  0.2920  1.6368 -1.2798
 8805SOL    HW227236   4.167   1.631   1.948  1.8161 -0.9442  2.8783
 8806SOL     OW27237   5.573   4.898   2.525 -0.0489 -0.3501  0.3449
 8806SOL    HW127238   5.648   4.880   2.589  1.2982 -0.3232 -1.1607
 8806SOL    HW227239   5.572   4.829   2.453 -0.3764  0.6016 -0.6058
 8807SOL     OW27240   0.982   4.329   6.810  0.0892 -0.7662  0.4939
 8807SOL    HW127241   0.919   4.272   6.864 -0.3222  0.7975  1.7313
 8807SOL    HW227242   0.930   4.399   6.762  0.8298  0.4614  1.4203
 8808SOL     OW27243   2.722   3.180   3.948  0.4818 -0.2314  0.1926
 8808SOL    HW127244   2.822   3.176   3.945  0.4972 -1.0636  1.3280
 8808SOL    HW227245   2.683   3.118   3.879  0.6901  2.1361 -2.2464
 8809SOL     OW27246   2.024   4.662   6.770 -0.5616 -0.2884 -0.4471
 8809SOL    HW127247   1.947   4.681   6.830 -0.4836 -0.7574 -0.1982
 8809SOL    HW227248   2.022   4.725   6.692 -0.5456  0.4709  0.1502
 8810SOL     OW27249   6.436   1.075   1.411 -0.1577 -0.0476  0.6770
 8810SOL    HW127250   6.360   1.022   1.448 -1.4422  0.6746 -0.8247
 8810SOL    HW227251   6.410   1.172   1.408 -0.4060 -0.1269 -2.6668
 8811SOL     OW27252   3.848   5.806   3.923  0.0999 -0.5976  0.2068
 8811SOL    HW127253   3.838   5.729   3.987 -3.1970 -0.1938  0.3344
 8811SOL    HW227254   3.769   5.809   3.862 -0.2533  3.0351  0.6201
 8812SOL     OW27255   2.022   1.482   5.289  0.3601  0.4867 -0.3570
 8812SOL    HW127256   1.953   1.410   5.295 -0.6333  1.4076 -0.4233
 8812SOL    HW227257   2.102   1.447   5.240 -0.6216 -0.1962 -1.5345
 8813SOL     OW27258   4.018   2.290   1.725  0.4415  0.6810 -0.0773
 8813SOL    HW127259   4.001   2.388   1.738 -1.5677  0.4913 -0.8801
 8813SOL    HW227260   4.037   2.273   1.628  1.1853  0.3187  0.1295
 8814SOL     OW27261   6.477   0.369   6.433  0.2754  0.4153 -0.0393
 8814SOL    HW127262   6.384   0.383   6.465  0.1457  2.4425 -1.1336
 8814SOL    HW227263   6.491   0.273   6.409 -0.7991 -0.3666  2.2495
 8815SOL     OW27264   4.052   2.118   3.606 -0.3177 -0.6326 -0.0119
 8815SOL    HW127265   4.059   2.100   3.704 -0.0816  0.0279  0.0966
 8815SOL    HW227266   3.978   2.062   3.567 -2.2547  1.0221  1.0579
 8816SOL     OW27267   1.440   0.961   5.628  0.7017  0.3729 -0.4808
 8816SOL    HW127268   1.519   0.916   5.669 -0.6162 -2.0220 -0.3615
 8816SOL    HW227269   1.372   0.979   5.699  0.0543 -0.0794 -0.9742
 8817SOL     OW27270   0.572   6.757   5.169 -0.3086  0.0497 -0.2933
 8817SOL    HW127271   0.600   6.749   5.265  0.6411 -0.7474 -0.6258
 8817SOL    HW227272   0.652   6.782   5.113 -1.0184  1.3294 -0.7777
 8818SOL     OW27273   5.992   1.733   3.057  0.5079 -1.0887  0.2235
 8818SOL    HW127274   6.026   1.639   3.067  1.1096 -0.8276  0.6478
 8818SOL    HW227275   6.051   1.795   3.108 -1.8694 -0.8539  2.9271
 8819SOL     OW27276   6.753   6.446   6.968 -0.5605 -0.5941  0.3236
 8819SOL    HW127277   6.656   6.470   6.972 -0.9007 -1.8841  0.2188
 8819SOL    HW227278   6.784   6.413   7.057 -0.2999 -0.4828  0.2768
 8820SOL     OW27279   4.147   3.703   6.816 -0.2734  0.4054 -0.0274
 8820SOL    HW127280   4.147   3.777   6.883 -1.7637 -0.4158  0.9284
 8820SOL    HW227281   4.205   3.728   6.739 -1.1040  2.7801  0.0440
 8821SOL     OW27282   5.218   5.744   5.087  0.5257  0.2420  0.1921
 8821SOL    HW127283   5.143   5.798   5.047  0.7615  1.0736  0.8471
 8821SOL    HW227284   5.276   5.709   5.013 -0.3908 -0.2438 -0.3113
 8822SOL     OW27285   6.506   6.401   3.844 -0.0604 -0.3274 -1.1644
 8822SOL    HW127286   6.576   6.333   3.823  0.6504  0.0449 -0.0314
 8822SOL    HW227287   6.458   6.425   3.759  0.5467 -1.2631 -1.8006
 8823SOL     OW27288   5.889   2.458   1.595 -0.1295 -0.0144  0.1249
 8823SOL    HW127289   5.982   2.421   1.586 -0.6299 -1.3182  0.0670
 8823SOL    HW227290   5.834   2.429   1.516 -0.6523  0.5526  0.2757
 8824SOL     OW27291   5.282   2.714   2.107 -0.2777 -0.0212  0.3285
 8824SOL    HW127292   5.206   2.758   2.155 -0.7992  1.7454 -1.9410
 8824SOL    HW227293   5.247   2.644   2.046 -0.0645  0.4838 -0.3884
 8825SOL     OW27294   1.122   3.872   1.119 -0.4351  0.2674 -0.4300
 8825SOL    HW127295   1.163   3.959   1.091 -1.1930  1.3832  1.7217
 8825SOL    HW227296   1.193   3.801   1.118 -0.1423  0.4396 -3.7817
 8826SOL     OW27297   5.453   1.124   6.905  0.1125 -0.1202 -0.2923
 8826SOL    HW127298   5.548   1.148   6.887 -0.0607  0.1221 -0.8777
 8826SOL    HW227299   5.401   1.124   6.820 -0.5526  0.3424  0.1022
 8827SOL     OW27300   3.725   5.909   5.077 -0.2439  0.2621  0.3708
 8827SOL    HW127301   3.663   5.881   5.004 -0.2608 -0.8745  0.7942
 8827SOL    HW227302   3.736   5.833   5.142 -0.0708  1.1795  1.4427
 8828SOL     OW27303   6.581   6.053   6.981 -0.3148  0.1842 -0.2304
 8828SOL    HW127304   6.676   6.045   7.010 -0.1575 -0.2186 -0.8418
 8828SOL    HW227305   6.528   6.098   7.053  0.2610  0.0848  0.2658
 8829SOL     OW27306   1.343   0.788   6.996  0.2652 -0.3007 -0.0078
 8829SOL    HW127307   1.322   0.691   6.991 -2.3355  0.2281 -0.9912
 8829SOL    HW227308   1.290   0.830   7.070 -0.2364  0.6946 -0.9071
 8830SOL     OW27309   5.194   2.331   6.500 -0.0366  0.1324 -0.2918
 8830SOL    HW127310   5.222   2.354   6.407  0.3427  0.2284 -0.1568
 8830SOL    HW227311   5.097   2.306   6.501 -0.0475  0.1565 -0.7062
 8831SOL     OW27312   2.821   5.136   4.243 -0.3858 -0.1696 -0.5914
 8831SOL    HW127313   2.876   5.079   4.182 -2.0183 -0.1276 -2.2162
 8831SOL    HW227314   2.852   5.231   4.237  0.6881 -0.4508  0.1555
 8832SOL     OW27315   2.810   5.203   0.100  0.2052 -0.3385  0.1069
 8832SOL    HW127316   2.712   5.194   0.080  0.2033 -2.0338  0.7062
 8832SOL    HW227317   2.862   5.146   0.036  0.6543 -0.8256  0.8888
 8833SOL     OW27318   1.699   5.566   3.037  0.3730  0.7237 -0.2857
 8833SOL    HW127319   1.787   5.611   3.020  0.4492  0.5639 -0.3157
 8833SOL    HW227320   1.688   5.488   2.976  0.2883  0.6374 -0.1629
 8834SOL     OW27321   1.907   6.330   1.960 -0.4974 -0.2295  0.5165
 8834SOL    HW127322   1.974   6.279   1.907 -2.5478 -1.0082 -1.5337
 8834SOL    HW227323   1.939   6.424   1.974  1.1499 -0.6839 -0.0427
 8835SOL     OW27324   4.779   4.304   4.248  0.5764  0.3763  0.0960
 8835SOL    HW127325   4.817   4.298   4.155 -0.2246 -0.1808 -0.2034
 8835SOL    HW227326   4.846   4.349   4.308  1.8251 -0.8274 -0.3439
 8836SOL     OW27327   0.787   2.951   4.595 -0.7562  0.0819  0.1652
 8836SOL    HW127328   0.707   2.896   4.621 -0.0710 -0.8088  0.4270
 8836SOL    HW227329   0.763   3.008   4.516 -1.5340 -0.4687 -0.0144
 8837SOL     OW27330   5.283   0.633   5.951  0.3284  0.5132  0.2175
 8837SOL    HW127331   5.321   0.724   5.936 -0.3492  0.6275 -0.8944
 8837SOL    HW227332   5.298   0.576   5.871 -0.1501 -0.0356  0.5073
 8838SOL     OW27333   3.846   0.038   6.793  0.1140 -0.1620 -0.4871
 8838SOL    HW127334   3.758   0.045   6.747 -0.9351  0.8252  1.5501
 8838SOL    HW227335   3.836  -0.017   6.876  1.0971  1.0225  0.4592
 8839SOL     OW27336   6.559   2.714   2.912  0.4475  0.1399  0.3169
 8839SOL    HW127337   6.552   2.698   3.010  0.9259 -1.3229  0.1324
 8839SOL    HW227338   6.644   2.674   2.877 -0.3749 -0.6012 -0.9142
 8840SOL     OW27339   1.683   4.686   5.119 -0.0357  0.5028  0.4689
 8840SOL    HW127340   1.733   4.771   5.100  0.7406  0.0944  0.6471
 8840SOL    HW227341   1.585   4.703   5.114  0.1035  1.5268  0.9974
 8841SOL     OW27342   0.452   1.964   2.775  0.3078  0.2040 -0.1449
 8841SOL    HW127343   0.532   2.016   2.744  0.7364  0.3929  1.2087
 8841SOL    HW227344   0.482   1.888   2.832 -0.3606 -1.2222 -1.6374
 8842SOL     OW27345   3.048   1.156   1.487  0.2073 -0.1335 -0.3355
 8842SOL    HW127346   3.116   1.132   1.556 -0.1187 -0.0471  0.0150
 8842SOL    HW227347   3.071   1.109   1.401 -0.7568 -2.2585  0.4966
 8843SOL     OW27348   6.132   2.637   2.307 -0.2904 -0.1044 -0.2424
 8843SOL    HW127349   6.188   2.679   2.378  1.7671 -1.5450 -0.9013
 8843SOL    HW227350   6.068   2.572   2.349 -1.3568  1.3787  0.5038
 8844SOL     OW27351   5.754   6.736   1.413 -0.6532  0.0307  0.3071
 8844SOL    HW127352   5.725   6.699   1.324  0.6082  2.4824 -1.2596
 8844SOL    HW227353   5.822   6.675   1.454  0.5019 -0.0662 -1.5955
 8845SOL     OW27354   4.948   6.981   0.097 -0.1897  0.0894  0.0157
 8845SOL    HW127355   4.979   7.059   0.152  0.1591 -0.2993  0.3768
 8845SOL    HW227356   5.017   6.908   0.101 -0.1503  0.0662 -0.9576
 8846SOL     OW27357   1.902   2.124   1.330 -0.2179 -0.3207  0.0993
 8846SOL    HW127358   1.876   2.088   1.420  1.2869 -0.1830  0.6114
 8846SOL    HW227359   1.921   2.222   1.339 -1.0444 -0.0910 -0.5898
 8847SOL     OW27360   4.547   3.702   2.943  0.3324 -0.0474 -0.4026
 8847SOL    HW127361   4.606   3.626   2.971 -0.0402 -0.5242 -0.8989
 8847SOL    HW227362   4.549   3.711   2.844  0.1450  0.4155 -0.3676
 8848SOL     OW27363   2.621   2.436   5.691  0.1348 -0.5286 -0.2537
 8848SOL    HW127364   2.525   2.413   5.699  0.3902 -2.1439 -1.4290
 8848SOL    HW227365   2.656   2.466   5.780 -0.7615 -2.7268  0.8917
 8849SOL     OW27366   5.110   0.752   0.401  0.0073 -0.0787 -0.1058
 8849SOL    HW127367   5.209   0.746   0.388 -0.0793 -1.0331 -0.3713
 8849SOL    HW227368   5.071   0.661   0.411 -0.5992  0.3531  1.9569
 8850SOL     OW27369   3.480   0.674   2.697  0.3798  0.0679 -0.0260
 8850SOL    HW127370   3.505   0.764   2.731  1.0523  0.0414 -0.4322
 8850SOL    HW227371   3.562   0.624   2.672 -0.0090 -0.5420 -0.1031
 8851SOL     OW27372   6.580   4.846   5.253  0.4949  0.4183  0.5799
 8851SOL    HW127373   6.647   4.919   5.244  0.2694  0.5710  0.1140
 8851SOL    HW227374   6.488   4.883   5.247  0.3402  0.2975  1.8697
 8852SOL     OW27375   2.470   3.106   2.349  0.3239  0.1258  0.1305
 8852SOL    HW127376   2.562   3.097   2.309  0.6465 -2.7054  1.3138
 8852SOL    HW227377   2.414   3.163   2.289  1.9714 -0.5318 -2.1885
 8853SOL     OW27378   6.697   6.966   1.127 -0.2526 -0.0221  0.1723
 8853SOL    HW127379   6.689   6.967   1.028  0.8806  0.9917  0.0695
 8853SOL    HW227380   6.783   6.923   1.154 -0.4816 -0.1543  0.7163
 8854SOL     OW27381   4.317   2.187   3.968 -0.2846 -0.4721 -0.1799
 8854SOL    HW127382   4.240   2.190   4.031 -0.5233 -0.7463 -0.4581
 8854SOL    HW227383   4.382   2.116   3.996 -0.0181 -0.0937  0.1808
 8855SOL     OW27384   6.667   1.743   0.800 -0.0569 -0.6538  0.1520
 8855SOL    HW127385   6.577   1.753   0.843 -1.7588 -1.1073 -2.9587
 8855SOL    HW227386   6.719   1.827   0.810 -0.4016 -0.6657  2.7520
 8856SOL     OW27387   1.908   2.533   2.904  0.6395  0.3122 -0.2339
 8856SOL    HW127388   1.980   2.579   2.852  0.1887 -0.4339 -1.5626
 8856SOL    HW227389   1.859   2.469   2.844  0.2695 -0.7770  1.1700
 8857SOL     OW27390   6.505   5.648   3.745  0.2351  0.3155 -0.5379
 8857SOL    HW127391   6.567   5.599   3.683 -0.7634  1.2278 -2.3287
 8857SOL    HW227392   6.437   5.697   3.691 -1.6654 -0.1301  1.3657
 8858SOL     OW27393   2.681   6.061   5.408  0.4549  0.1512  0.2223
 8858SOL    HW127394   2.754   6.022   5.352  0.6958  0.4439  0.3340
 8858SOL    HW227395   2.604   5.996   5.412  0.4607  0.0986 -0.3905
 8859SOL     OW27396   4.479   0.952   3.015  0.2602  0.9216  0.1786
 8859SOL    HW127397   4.434   0.945   2.926 -0.3751  0.3879  0.5344
 8859SOL    HW227398   4.569   0.996   3.004 -0.0690  1.4136 -0.6306
 8860SOL     OW27399   6.687   5.250   5.976 -0.0131  0.3211 -0.0286
 8860SOL    HW127400   6.723   5.157   5.975  1.1136  0.7093  1.5225
 8860SOL    HW227401   6.706   5.294   5.888 -3.4075 -1.8702 -2.0809
 8861SOL     OW27402   4.530   5.799   0.526 -0.0921  0.3682  0.0715
 8861SOL    HW127403   4.567   5.791   0.433  0.6226  0.8169  0.3034
 8861SOL    HW227404   4.502   5.894   0.542 -0.1796  0.2995  0.3202
 8862SOL     OW27405   0.154   1.533   4.370 -0.3399 -0.0643 -0.1790
 8862SOL    HW127406   0.155   1.617   4.425 -2.0171 -1.1153  1.5461
 8862SOL    HW227407   0.084   1.541   4.299  0.9284  0.7667 -1.3949
 8863SOL     OW27408   4.652   4.630   3.415 -0.1050  0.3411  0.1912
 8863SOL    HW127409   4.601   4.551   3.447  0.2526 -0.3214 -0.8580
 8863SOL    HW227410   4.717   4.658   3.487 -0.0798 -0.4472  0.4877
 8864SOL     OW27411   5.058   5.545   6.748  0.0174  0.5461 -0.3503
 8864SOL    HW127412   5.010   5.630   6.728 -0.5180  0.4423  0.4415
 8864SOL    HW227413   5.117   5.559   6.828 -0.2250  0.1257 -0.0951
 8865SOL     OW27414   5.198   2.602   6.851  0.0013  0.2216  0.3164
 8865SOL    HW127415   5.115   2.658   6.850 -1.2873 -1.5815 -0.4372
 8865SOL    HW227416   5.222   2.579   6.946 -0.5301  0.5488  0.5354
 8866SOL     OW27417   6.965   0.401   2.110 -0.4854 -0.2883 -0.1055
 8866SOL    HW127418   6.920   0.485   2.140  0.0573 -0.1232  0.2608
 8866SOL    HW227419   6.913   0.361   2.034 -1.1330 -0.0011  0.1807
 8867SOL     OW27420   5.848   0.936   3.365  0.2366 -0.2898  0.3443
 8867SOL    HW127421   5.799   0.860   3.408 -3.2060  1.0537 -0.7970
 8867SOL    HW227422   5.808   0.953   3.274  2.3110  1.5703 -0.3060
 8868SOL     OW27423   0.651   5.936   0.556 -0.5805  0.5823  0.1727
 8868SOL    HW127424   0.584   5.872   0.520  0.2131 -0.0965 -0.1398
 8868SOL    HW227425   0.658   5.924   0.656  0.1431 -0.4252  0.0259
 8869SOL     OW27426   4.201   2.374   2.162 -0.3448 -0.0330  0.3997
 8869SOL    HW127427   4.105   2.396   2.175 -0.3843 -0.6653  1.2479
 8869SOL    HW227428   4.235   2.419   2.079 -1.2682  0.4839  0.2939
 8870SOL     OW27429   0.597   5.524   3.889 -0.2487  0.6217 -0.0266
 8870SOL    HW127430   0.608   5.599   3.954 -0.2576  0.7941 -0.2191
 8870SOL    HW227431   0.665   5.533   3.816 -0.5466  0.7106 -0.3005
 8871SOL     OW27432   6.846   5.845   2.147 -0.3477  0.5482 -0.1258
 8871SOL    HW127433   6.897   5.816   2.066 -2.6320  1.2773 -1.9821
 8871SOL    HW227434   6.904   5.839   2.228  2.0250 -0.3487 -1.7762
 8872SOL     OW27435   3.291   0.714   6.118  0.0093  0.1389  0.0506
 8872SOL    HW127436   3.361   0.723   6.189  0.2615 -0.0275 -0.1793
 8872SOL    HW227437   3.306   0.782   6.047 -0.1894  0.2445  0.1101
 8873SOL     OW27438   4.542   1.042   5.099 -0.0299 -0.2185  0.1466
 8873SOL    HW127439   4.499   1.055   5.010 -0.6149  0.7725  0.5569
 8873SOL    HW227440   4.637   1.075   5.096 -0.0682 -0.1281 -0.0859
 8874SOL     OW27441   1.976   0.994   3.493 -0.3411 -0.1578 -0.0618
 8874SOL    HW127442   2.040   0.983   3.569 -0.4345 -0.6406 -0.0474
 8874SOL    HW227443   1.890   1.031   3.527  0.3564  1.7559 -0.2824
 8875SOL     OW27444   4.977   4.734   0.470 -0.0320 -0.4072  0.7384
 8875SOL    HW127445   4.955   4.790   0.391 -1.2624 -2.6312 -0.5969
 8875SOL    HW227446   4.926   4.766   0.550  0.6429  1.3934  0.4809
 8876SOL     OW27447   3.244   3.649   2.332 -0.6355  0.1813  0.4422
 8876SOL    HW127448   3.274   3.606   2.247  1.0846  2.0099  0.0485
 8876SOL    HW227449   3.146   3.636   2.344 -1.0328  0.3532 -2.1048
 8877SOL     OW27450   5.318   1.916   6.122 -0.1224  0.4137 -0.2715
 8877SOL    HW127451   5.232   1.959   6.096 -1.7209 -1.3171  1.7523
 8877SOL    HW227452   5.377   1.984   6.165 -0.2545  1.7117 -2.0097
 8878SOL     OW27453   6.413   3.910   6.363  0.3123  0.2463  0.0622
 8878SOL    HW127454   6.474   3.938   6.289  1.9234 -0.5903  1.0137
 8878SOL    HW227455   6.345   3.981   6.379  0.9145  1.1424 -1.1562
 8879SOL     OW27456   4.558   1.679   4.143  0.1905  0.3865 -0.3289
 8879SOL    HW127457   4.628   1.745   4.115 -0.0449  1.5874  1.6950
 8879SOL    HW227458   4.497   1.722   4.210  0.2453 -1.9872  1.3695
 8880SOL     OW27459   6.708   0.180   4.113 -0.2985 -0.1907 -0.1065
 8880SOL    HW127460   6.792   0.231   4.093 -0.2473 -0.2824 -0.1259
 8880SOL    HW227461   6.644   0.239   4.163 -0.5145  0.1113 -0.7292
 8881SOL     OW27462   2.694   0.797   3.984 -0.0023  0.0456  0.6556
 8881SOL    HW127463   2.648   0.870   4.036  0.8226 -0.4462  2.1280
 8881SOL    HW227464   2.649   0.786   3.896 -4.0871 -1.7987  2.7407
 8882SOL     OW27465   1.567   0.055   1.493  0.2456 -0.1955  0.5630
 8882SOL    HW127466   1.564   0.024   1.398  1.5578  2.2668 -0.3572
 8882SOL    HW227467   1.661   0.077   1.519 -0.4780  2.6082  1.1678
 8883SOL     OW27468   5.006   4.625   0.173 -0.5339 -0.3562 -0.4473
 8883SOL    HW127469   5.000   4.605   0.271 -1.0444  3.2349  0.3695
 8883SOL    HW227470   4.924   4.593   0.127 -0.8529 -0.9600  0.5142
 8884SOL     OW27471   0.147   2.569   1.476  0.0876 -0.3503 -0.1372
 8884SOL    HW127472   0.243   2.557   1.500 -0.2440  0.3748  1.7293
 8884SOL    HW227473   0.089   2.527   1.546 -0.9636 -0.7900 -1.2397
 8885SOL     OW27474   6.621   0.859   6.706  0.5534  0.3302  0.5032
 8885SOL    HW127475   6.598   0.776   6.657 -0.2115 -0.3138  1.8950
 8885SOL    HW227476   6.696   0.906   6.659  1.5110 -1.5265  0.1081
 8886SOL     OW27477   0.209   4.225   2.330 -0.7175  0.3776  0.0394
 8886SOL    HW127478   0.249   4.209   2.240 -2.9611 -0.6526 -0.8655
 8886SOL    HW227479   0.197   4.324   2.344 -0.2444  0.5581 -0.7525
 8887SOL     OW27480   1.815   6.867   2.398 -0.7674 -0.5685  0.1387
 8887SOL    HW127481   1.901   6.909   2.427 -0.8144 -1.3578  1.4789
 8887SOL    HW227482   1.752   6.864   2.476 -1.5410 -1.1731 -0.4981
 8888SOL     OW27483   1.199   1.367   3.906  0.2847 -0.0142 -0.2478
 8888SOL    HW127484   1.157   1.449   3.868 -0.2485  1.0513  2.4406
 8888SOL    HW227485   1.153   1.286   3.868 -1.2351  1.0029 -0.6856
 8889SOL     OW27486   5.714   2.759   3.601 -0.1595  0.2501 -0.4355
 8889SOL    HW127487   5.808   2.769   3.570  0.3569  1.5299  1.3663
 8889SOL    HW227488   5.710   2.773   3.700 -2.2953  0.4947 -0.5078
 8890SOL     OW27489   4.505   2.106   1.154  0.3700 -0.5461 -0.4846
 8890SOL    HW127490   4.521   2.158   1.237 -1.8847  0.8631 -0.8514
 8890SOL    HW227491   4.590   2.060   1.126  1.5324  0.1047  1.7519
 8891SOL     OW27492   5.678   2.280   0.928 -0.2022 -0.0605  0.2540
 8891SOL    HW127493   5.764   2.233   0.947  0.1854  0.4408 -0.2040
 8891SOL    HW227494   5.697   2.376   0.906 -1.0125  0.4658  1.6991
 8892SOL     OW27495   6.888   2.135   1.598 -0.0019  0.0891 -0.4893
 8892SOL    HW127496   6.851   2.090   1.679  0.2472 -0.7786 -0.8460
 8892SOL    HW227497   6.897   2.233   1.616 -1.2475  0.1203  0.0410
 8893SOL     OW27498   3.120   6.499   2.616 -0.0600  0.5110 -0.5192
 8893SOL    HW127499   3.191   6.521   2.550  1.3197  0.1057  0.7765
 8893SOL    HW227500   3.139   6.545   2.703 -1.3303  0.3045 -0.1080
 8894SOL     OW27501   5.174   5.378   4.916 -0.1086 -0.6747 -0.2019
 8894SOL    HW127502   5.187   5.468   4.956 -1.4297  0.4473 -2.1435
 8894SOL    HW227503   5.137   5.316   4.986 -0.3004  0.5983  0.8685
 8895SOL     OW27504   1.580   1.802   5.137  0.2578 -0.0557 -0.0185
 8895SOL    HW127505   1.486   1.817   5.106  0.5721  1.3123 -0.3890
 8895SOL    HW227506   1.614   1.886   5.180  1.2506 -0.5970  0.2781
 8896SOL     OW27507   5.116   4.280   4.124  0.4114 -0.2090 -0.1259
 8896SOL    HW127508   5.106   4.327   4.211 -0.9160  1.0063 -0.9044
 8896SOL    HW227509   5.210   4.288   4.092  1.1050 -1.3045  1.5112
 8897SOL     OW27510   0.705   1.925   3.977  1.0129 -0.2876  0.2074
 8897SOL    HW127511   0.805   1.925   3.982  0.9729  0.0958  1.5034
 8897SOL    HW227512   0.672   1.832   3.964  1.5499 -0.3442 -0.8361
 8898SOL     OW27513   3.367   4.109   6.462  0.0117  0.1349  0.1812
 8898SOL    HW127514   3.383   4.199   6.503 -1.7221  0.8596 -0.6423
 8898SOL    HW227515   3.393   4.111   6.366  2.2955 -1.0226  0.6886
 8899SOL     OW27516   3.729   6.166   1.276 -0.4764  0.4650  0.9444
 8899SOL    HW127517   3.769   6.250   1.312  0.6088 -0.6928  2.6033
 8899SOL    HW227518   3.790   6.089   1.295 -0.1104 -0.3911 -2.9424
 8900SOL     OW27519   1.402   4.836   1.106 -0.3227  0.2145  0.5304
 8900SOL    HW127520   1.492   4.793   1.100  0.2491  1.1804  1.7387
 8900SOL    HW227521   1.353   4.823   1.020  2.0371  1.9328 -1.2198
 8901SOL     OW27522   1.267   6.971   6.923 -0.5167 -0.0689  0.2602
 8901SOL    HW127523   1.224   7.026   6.995  0.5735  0.0434  0.8604
 8901SOL    HW227524   1.214   6.889   6.907 -2.2678  1.2040 -0.7465
 8902SOL     OW27525   6.963   0.517   0.469 -0.5623  0.3430 -0.4896
 8902SOL    HW127526   6.912   0.438   0.434  0.5844 -0.7011  0.1189
 8902SOL    HW227527   7.024   0.551   0.397  2.3647 -2.2846  0.5267
 8903SOL     OW27528   6.199   0.411   2.872 -0.3892 -0.1726 -0.0623
 8903SOL    HW127529   6.299   0.404   2.876 -0.4545 -0.5585  1.4629
 8903SOL    HW227530   6.172   0.502   2.905 -0.6711 -1.3102  3.1602
 8904SOL     OW27531   2.838   1.919   5.979  0.7849  0.3285  0.0564
 8904SOL    HW127532   2.901   1.872   5.918  1.0910 -0.9477  1.2934
 8904SOL    HW227533   2.837   1.873   6.068 -2.4602 -0.2048 -0.1286
 8905SOL     OW27534   1.020   6.196   5.453  0.0211  0.0267  0.1382
 8905SOL    HW127535   1.034   6.268   5.386 -0.6674  0.2382  0.2106
 8905SOL    HW227536   1.013   6.107   5.407  2.7665 -0.3060  0.1723
 8906SOL     OW27537   6.448   4.365   1.161 -0.1682  0.6296 -0.0802
 8906SOL    HW127538   6.385   4.381   1.237 -0.1154  0.6442 -0.0391
 8906SOL    HW227539   6.501   4.281   1.178 -0.5815  0.3048 -0.3872
 8907SOL     OW27540   2.200   1.490   4.925  0.1273  0.1397  0.4093
 8907SOL    HW127541   2.196   1.441   5.013  1.0036 -0.8230 -0.0658
 8907SOL    HW227542   2.293   1.523   4.910  0.3889 -1.1233 -0.8948
 8908SOL     OW27543   2.512   6.741   0.952  0.1959 -0.3315  0.2719
 8908SOL    HW127544   2.433   6.688   0.983  0.5554 -0.1548  1.5717
 8908SOL    HW227545   2.507   6.833   0.991  0.6873 -0.1010 -0.2045
 8909SOL     OW27546   1.901   5.118   6.092 -0.1372 -0.4566 -1.0442
 8909SOL    HW127547   1.860   5.028   6.078  0.1803 -0.8028  0.1501
 8909SOL    HW227548   1.852   5.166   6.165  0.9746 -0.4985 -0.2481
 8910SOL     OW27549   6.958   6.625   5.998  0.3073 -0.5996 -0.1238
 8910SOL    HW127550   7.052   6.653   5.975  0.6615 -1.0384  0.7564
 8910SOL    HW227551   6.952   6.608   6.096 -1.6453  3.0857  0.5760
 8911SOL     OW27552   0.167   5.144   1.290  0.9912 -0.3711  0.1535
 8911SOL    HW127553   0.091   5.202   1.318  2.4715  0.8486  1.9438
 8911SOL    HW227554   0.226   5.193   1.226  1.1322 -0.6791  0.0450
 8912SOL     OW27555   1.457   5.914   5.739  0.3677 -0.3616  0.1375
 8912SOL    HW127556   1.552   5.923   5.769  0.4340 -1.6012  0.3618
 8912SOL    HW227557   1.418   6.004   5.722  1.7338  0.1381 -0.4339
 8913SOL     OW27558   4.639   1.491   2.781 -0.1125  0.1577 -0.5154
 8913SOL    HW127559   4.657   1.420   2.712 -0.4987  0.6924 -1.1823
 8913SOL    HW227560   4.567   1.460   2.842 -0.7394  0.2218 -1.2054
 8914SOL     OW27561   0.462   2.097   3.127 -0.0326 -0.1380 -0.1309
 8914SOL    HW127562   0.386   2.032   3.113 -0.3740  0.1400  0.3874
 8914SOL    HW227563   0.450   2.175   3.067 -0.1762 -0.0817 -0.0310
 8915SOL     OW27564   1.408   6.704   2.228 -0.1392 -0.0063 -0.0913
 8915SOL    HW127565   1.468   6.784   2.223  0.5311 -0.3519  1.5285
 8915SOL    HW227566   1.464   6.621   2.233 -0.7006 -0.3305  1.5595
 8916SOL     OW27567   3.914   1.925   4.188  0.4827 -0.1698 -0.0749
 8916SOL    HW127568   3.967   1.843   4.208 -0.3656 -0.8818 -0.6729
 8916SOL    HW227569   3.825   1.919   4.233  0.8819  1.0267  0.9479
 8917SOL     OW27570   5.585   4.119   6.829 -0.1281  0.5859  0.2811
 8917SOL    HW127571   5.495   4.098   6.865 -0.9042  1.3351 -1.1257
 8917SOL    HW227572   5.639   4.035   6.820 -0.7206  0.1205  1.0080
 8918SOL     OW27573   5.481   1.223   3.305 -0.0139  0.2980 -0.1302
 8918SOL    HW127574   5.463   1.319   3.286  0.7536  0.3008 -0.9371
 8918SOL    HW227575   5.471   1.170   3.220 -1.0704 -0.4484  0.4274
 8919SOL     OW27576   2.193   6.433   5.698  0.0889  0.0206  0.2368
 8919SOL    HW127577   2.132   6.376   5.753  1.8443 -0.4319  1.7971
 8919SOL    HW227578   2.138   6.498   5.645 -1.9194 -2.1343 -0.5613
 8920SOL     OW27579   6.535   1.171   2.987 -0.1184 -0.2718 -0.2098
 8920SOL    HW127580   6.596   1.118   2.928  0.5086  0.1109  0.0842
 8920SOL    HW227581   6.481   1.109   3.043 -0.9396 -0.6543 -1.3797
 8921SOL     OW27582   1.392   5.147   6.279  0.4652 -0.0878  0.6822
 8921SOL    HW127583   1.316   5.099   6.235 -0.6609 -0.8662  3.3112
 8921SOL    HW227584   1.465   5.162   6.212 -1.0943 -1.2430 -1.3821
 8922SOL     OW27585   3.639   6.770   5.831  0.2211  0.3156  0.1196
 8922SOL    HW127586   3.584   6.750   5.912 -0.6185  0.5693 -0.3793
 8922SOL    HW227587   3.639   6.868   5.813 -0.3356  0.1764 -0.6942
 8923SOL     OW27588   2.312   0.413   4.635 -0.2414  0.3160  0.3483
 8923SOL    HW127589   2.371   0.384   4.560 -1.6320  1.5198 -1.3128
 8923SOL    HW227590   2.280   0.506   4.617 -0.6367  0.6335  2.4630
 8924SOL     OW27591   4.792   6.181   5.625 -0.5256 -0.3741  0.5242
 8924SOL    HW127592   4.858   6.108   5.607  0.2421 -0.0888  1.9743
 8924SOL    HW227593   4.706   6.161   5.578  0.5182 -0.8513 -1.2402
 8925SOL     OW27594   5.030   3.521   0.412 -0.5108  0.0949 -0.7520
 8925SOL    HW127595   5.094   3.507   0.487 -1.8782 -1.1139  0.2663
 8925SOL    HW227596   5.075   3.504   0.325  0.9720  1.0022 -0.1874
 8926SOL     OW27597   4.203   6.077   4.692 -0.4106  0.4313  0.1605
 8926SOL    HW127598   4.276   6.072   4.760  0.2702  1.2486 -0.4956
 8926SOL    HW227599   4.188   5.986   4.652 -1.1054 -0.1526  1.6720
 8927SOL     OW27600   6.703   1.037   2.792 -0.0261  0.5812  0.7451
 8927SOL    HW127601   6.736   0.944   2.781 -1.2546 -0.0062  1.7673
 8927SOL    HW227602   6.670   1.072   2.704  1.8795  0.6564  0.0253
 8928SOL     OW27603   2.100   3.535   4.914  0.3178  0.4942 -0.2274
 8928SOL    HW127604   2.132   3.469   4.846 -0.0551  0.3069 -0.2213
 8928SOL    HW227605   2.049   3.608   4.869 -1.3292 -0.4736  0.0003
 8929SOL     OW27606   5.891   3.267   5.232  0.1137  0.1985 -0.1522
 8929SOL    HW127607   5.815   3.304   5.284 -0.7217 -0.8140 -0.6323
 8929SOL    HW227608   5.976   3.283   5.282  0.0594  4.0747 -0.9670
 8930SOL     OW27609   2.578   5.634   2.391 -0.0532 -0.7540  0.9998
 8930SOL    HW127610   2.489   5.629   2.346  1.5748 -1.3962 -2.4376
 8930SOL    HW227611   2.590   5.554   2.449  0.0443 -3.3321 -2.2818
 8931SOL     OW27612   5.259   3.885   0.477 -0.5082  0.0562  0.2528
 8931SOL    HW127613   5.343   3.831   0.476 -1.5055 -1.7303 -2.9588
 8931SOL    HW227614   5.217   3.879   0.568  1.3311 -1.4859  1.0737
 8932SOL     OW27615   3.775   6.393   2.697  0.0753  0.2586 -0.2263
 8932SOL    HW127616   3.863   6.346   2.682 -0.2689 -0.0920 -1.2632
 8932SOL    HW227617   3.774   6.477   2.644 -0.1181  0.3872 -0.0182
 8933SOL     OW27618   4.427   0.970   6.882 -0.2881 -0.2087 -0.2683
 8933SOL    HW127619   4.493   1.043   6.866  1.0213 -1.5107 -0.9957
 8933SOL    HW227620   4.337   1.010   6.897 -0.1191  1.4773 -3.1033
 8934SOL     OW27621   4.378   1.844   2.452  0.2166 -0.0159 -0.1825
 8934SOL    HW127622   4.436   1.776   2.497  0.9590  0.4374 -0.4340
 8934SOL    HW227623   4.307   1.874   2.516  0.6588 -0.1026  0.3594
 8935SOL     OW27624   6.919   3.494   4.945  0.4322  0.0186 -0.6333
 8935SOL    HW127625   6.883   3.571   4.996 -1.4392 -2.2989  1.8070
 8935SOL    HW227626   7.019   3.501   4.940  0.4319  1.7606  0.9024
 8936SOL     OW27627   4.236   1.863   1.241  0.2219  0.2070  0.7407
 8936SOL    HW127628   4.253   1.917   1.158  0.1903 -2.0572 -0.8323
 8936SOL    HW227629   4.321   1.822   1.272 -0.1825 -1.0755  0.2276
 8937SOL     OW27630   3.847   0.997   5.818  0.7998  0.1146 -0.3513
 8937SOL    HW127631   3.842   1.029   5.912  0.5718  0.2172 -0.3975
 8937SOL    HW227632   3.933   0.948   5.803  0.1917 -1.2239  0.3327
 8938SOL     OW27633   3.068   1.064   6.278  0.2225  0.0094 -0.2604
 8938SOL    HW127634   3.085   1.086   6.182 -0.7690 -0.9626 -0.6816
 8938SOL    HW227635   3.150   1.024   6.318  0.2870 -0.6721 -1.0397
 8939SOL     OW27636   4.059   2.389   6.893 -0.0496  0.6457 -0.4356
 8939SOL    HW127637   4.157   2.402   6.907  0.1225 -1.1964  0.3402
 8939SOL    HW227638   4.042   2.356   6.800  0.1143  0.5743 -0.4406
 8940SOL     OW27639   4.239   5.067   2.555 -0.1912 -0.2492  0.0400
 8940SOL    HW127640   4.188   5.081   2.640  0.3348  0.5400  0.2297
 8940SOL    HW227641   4.326   5.022   2.575  0.0674  0.2138 -0.0443
 8941SOL     OW27642   2.556   4.765   6.133  0.4331  0.1147 -0.2436
 8941SOL    HW127643   2.610   4.800   6.210  0.1387 -1.5102  0.7648
 8941SOL    HW227644   2.557   4.665   6.135 -3.1110 -0.0422  0.2517
 8942SOL     OW27645   1.483   2.754   1.962  0.7737 -0.0107  0.5717
 8942SOL    HW127646   1.400   2.744   2.017 -1.0408 -0.1570 -2.0153
 8942SOL    HW227647   1.518   2.663   1.938 -0.3997 -0.0150 -1.2280
 8943SOL     OW27648   4.724   3.673   0.170  0.3994 -0.4446 -0.0710
 8943SOL    HW127649   4.739   3.772   0.175  3.0750 -0.7833  0.3975
 8943SOL    HW227650   4.759   3.638   0.083 -2.4304 -0.7955 -1.1793
 8944SOL     OW27651   2.994   0.199   2.854  0.3799 -0.0612  0.3179
 8944SOL    HW127652   2.982   0.294   2.825  1.3437 -0.2489 -0.7747
 8944SOL    HW227653   2.915   0.171   2.908 -0.6051  0.9070 -0.5721
 8945SOL     OW27654   6.345   2.280   4.147 -0.1073  0.0971 -0.1860
 8945SOL    HW127655   6.382   2.308   4.235 -1.3895 -0.3596  0.5248
 8945SOL    HW227656   6.300   2.358   4.103 -3.3201 -0.5803  1.6053
 8946SOL     OW27657   4.448   6.966   0.634 -0.1863 -0.0104  0.0644
 8946SOL    HW127658   4.385   7.035   0.597 -0.2057 -0.5193 -0.8700
 8946SOL    HW227659   4.471   6.990   0.729 -1.0452  0.6885  0.1135
 8947SOL     OW27660   2.087   0.200   6.462  0.5028  0.1896 -0.0326
 8947SOL    HW127661   2.081   0.295   6.433 -1.2188  0.3685  0.7877
 8947SOL    HW227662   2.129   0.145   6.390  1.1681  1.4919 -0.6630
 8948SOL     OW27663   5.655   6.259   1.671  0.3573  0.1637  0.1407
 8948SOL    HW127664   5.663   6.170   1.717  0.5787  0.4383  0.6356
 8948SOL    HW227665   5.609   6.246   1.583 -1.7398 -0.1171  1.2002
 8949SOL     OW27666   1.942   2.209   2.069 -0.2146  0.4962  0.5321
 8949SOL    HW127667   1.918   2.265   1.990 -1.1406 -0.9263 -0.2416
 8949SOL    HW227668   2.022   2.153   2.048 -1.6775 -1.4251 -0.2344
 8950SOL     OW27669   3.518   2.529   2.291 -0.0556  0.3212  0.1443
 8950SOL    HW127670   3.525   2.628   2.294 -0.0620  0.4146 -1.5721
 8950SOL    HW227671   3.457   2.502   2.216 -0.9482 -0.9697  1.2690
 8951SOL     OW27672   4.209   1.305   4.703 -0.1413  0.1737  0.1942
 8951SOL    HW127673   4.230   1.228   4.643  0.6558 -0.2385  0.9650
 8951SOL    HW227674   4.116   1.337   4.686 -0.0742 -0.2058 -0.9424
 8952SOL     OW27675   2.459   0.684   1.960  0.2695  0.2537 -0.3532
 8952SOL    HW127676   2.392   0.723   2.023 -0.2662 -0.8180 -0.2210
 8952SOL    HW227677   2.414   0.658   1.875  0.4616 -0.6239 -0.2022
 8953SOL     OW27678   0.114   2.560   6.280  0.2359 -0.2972 -0.3095
 8953SOL    HW127679   0.155   2.469   6.270 -2.5031 -1.6712 -0.1073
 8953SOL    HW227680   0.050   2.576   6.206 -1.5021  0.1781  1.2264
 8954SOL     OW27681   6.809   3.573   2.146 -0.1060  0.1669  0.6376
 8954SOL    HW127682   6.756   3.634   2.087 -1.2592  0.3070  1.8045
 8954SOL    HW227683   6.765   3.483   2.151  1.4024 -0.7233 -0.8006
 8955SOL     OW27684   5.307   3.762   5.315  0.0322 -0.0258 -0.7353
 8955SOL    HW127685   5.330   3.697   5.387  1.2588  0.6512 -0.4925
 8955SOL    HW227686   5.208   3.758   5.298  0.1228 -2.2530 -1.0566
 8956SOL     OW27687   4.116   0.882   3.732  0.1747  0.3705 -0.4479
 8956SOL    HW127688   4.025   0.845   3.750 -0.1429  0.9922 -0.7319
 8956SOL    HW227689   4.108   0.980   3.713  0.9727  0.5393  0.0730
 8957SOL     OW27690   5.662   1.390   1.084 -0.0501  0.2870 -0.3659
 8957SOL    HW127691   5.681   1.292   1.073  1.9409  0.3950  1.5869
 8957SOL    HW227692   5.675   1.416   1.179 -3.1183  1.9877 -0.2998
 8958SOL     OW27693   5.316   3.812   4.184  0.7277 -0.2031  0.4823
 8958SOL    HW127694   5.290   3.806   4.088  1.8909  0.7518  0.0718
 8958SOL    HW227695   5.309   3.722   4.227 -1.5163 -0.3165 -0.0095
 8959SOL     OW27696   1.337   4.943   1.580 -0.2421 -0.0110 -0.2914
 8959SOL    HW127697   1.336   4.854   1.534  0.5102 -0.0934 -0.1664
 8959SOL    HW227698   1.381   4.934   1.670 -1.5928  0.1696  0.4149
 8960SOL     OW27699   6.127   6.548   1.726 -0.0953 -0.4534  0.0157
 8960SOL    HW127700   6.094   6.606   1.651 -0.3997 -2.1005 -1.1814
 8960SOL    HW227701   6.129   6.452   1.696 -0.2696 -1.1749  2.1475
 8961SOL     OW27702   4.662   5.362   2.882  0.8507 -0.0710  0.4143
 8961SOL    HW127703   4.681   5.274   2.926 -1.1298 -0.1023  1.3316
 8961SOL    HW227704   4.681   5.355   2.784  0.2472 -1.7164  0.3716
 8962SOL     OW27705   2.604   5.608   2.974 -0.1634 -0.1909  0.3172
 8962SOL    HW127706   2.600   5.508   2.976 -1.1588 -0.1658  0.4668
 8962SOL    HW227707   2.528   5.643   2.918  1.7183  0.4255 -2.0359
 8963SOL     OW27708   1.616   2.114   2.845  0.3012  0.5046  0.1223
 8963SOL    HW127709   1.646   2.191   2.901 -1.3868  0.1047  1.6719
 8963SOL    HW227710   1.689   2.046   2.839  0.7047  0.7914  1.4607
 8964SOL     OW27711   0.305   5.279   1.115  0.3020 -0.0848  0.6258
 8964SOL    HW127712   0.301   5.370   1.074  3.0414 -0.5049 -0.8283
 8964SOL    HW227713   0.285   5.210   1.045  0.0700 -0.6807  1.2640
 8965SOL     OW27714   2.935   2.505   3.912 -0.0912 -0.1173 -0.1141
 8965SOL    HW127715   2.966   2.569   3.983 -0.3367  0.2594 -0.3386
 8965SOL    HW227716   3.008   2.440   3.891 -0.1102 -0.3982  0.6659
 8966SOL     OW27717   1.427   3.056   5.965  0.2666  0.3700  0.2463
 8966SOL    HW127718   1.447   3.131   5.902 -2.0827  1.1940  0.3653
 8966SOL    HW227719   1.371   2.987   5.918  1.9214 -1.1063  0.3074
 8967SOL     OW27720   5.274   1.016   0.651 -0.1143  0.3483  0.8262
 8967SOL    HW127721   5.321   1.029   0.564  0.4336 -1.0819  0.8725
 8967SOL    HW227722   5.244   1.104   0.686 -0.2497  0.9745 -0.7477
 8968SOL     OW27723   1.291   3.856   6.732 -0.5272 -0.2934 -0.0237
 8968SOL    HW127724   1.270   3.943   6.689  0.2103  0.3304  0.8426
 8968SOL    HW227725   1.363   3.810   6.679  0.5285  0.5652  0.6322
 8969SOL     OW27726   4.059   6.500   5.947  0.0649  0.0549  0.2977
 8969SOL    HW127727   4.013   6.518   5.860  1.3398  0.1173 -0.3709
 8969SOL    HW227728   4.156   6.482   5.932 -0.1106 -2.2907  1.4747
 8970SOL     OW27729   2.783   5.350   0.837 -0.7095  0.7136 -0.0628
 8970SOL    HW127730   2.810   5.402   0.918  1.6370  0.0996 -0.3766
 8970SOL    HW227731   2.705   5.291   0.860  0.6234 -0.3345  2.1290
 8971SOL     OW27732   2.917   4.305   0.966  0.7297  0.0480 -0.9450
 8971SOL    HW127733   2.980   4.289   1.042 -0.7726 -0.9905  0.1223
 8971SOL    HW227734   2.946   4.387   0.917  1.2427  1.2829  1.2804
 8972SOL     OW27735   6.999   4.585   6.962 -0.1329  0.1919 -0.0552
 8972SOL    HW127736   6.968   4.496   6.930 -1.6844  0.6683  0.0323
 8972SOL    HW227737   7.098   4.583   6.976 -0.1708 -1.5560  0.1424
 8973SOL     OW27738   3.888   4.649   5.544 -0.4984 -0.4951 -0.2783
 8973SOL    HW127739   3.916   4.600   5.627  0.3059 -1.9585 -1.3674
 8973SOL    HW227740   3.969   4.680   5.494 -0.9470  2.9287  0.8176
 8974SOL     OW27741   1.616   6.363   2.954  0.1343 -0.0054  0.1009
 8974SOL    HW127742   1.615   6.278   2.902 -1.2662  1.5540 -2.6804
 8974SOL    HW227743   1.538   6.366   3.016  0.8609 -1.1875  1.1089
 8975SOL     OW27744   3.084   4.062   1.102 -0.0545  0.5300 -0.6967
 8975SOL    HW127745   3.134   4.001   1.164 -0.4480  1.1490  0.2672
 8975SOL    HW227746   3.051   4.011   1.023  0.8016 -0.2015 -0.5976
 8976SOL     OW27747   6.157   1.494   3.255  0.2928 -0.3747  0.7242
 8976SOL    HW127748   6.206   1.566   3.205 -0.8325 -0.2263 -0.1973
 8976SOL    HW227749   6.073   1.532   3.294 -0.0515 -1.0706  0.6709
 8977SOL     OW27750   0.620   4.668   0.741  0.1647 -0.6233  0.6844
 8977SOL    HW127751   0.600   4.644   0.646  0.4553 -0.4303  0.5718
 8977SOL    HW227752   0.717   4.692   0.750 -0.5341  2.9188  0.2474
 8978SOL     OW27753   1.817   6.795   0.413  0.1549  0.3032 -0.1317
 8978SOL    HW127754   1.832   6.729   0.487  1.0516  0.7212  0.0809
 8978SOL    HW227755   1.858   6.883   0.438 -2.1319  1.3515  0.1477
 8979SOL     OW27756   5.306   0.414   6.208 -0.3607 -0.3270  0.8963
 8979SOL    HW127757   5.357   0.330   6.227  1.3847  0.4834 -0.0609
 8979SOL    HW227758   5.253   0.403   6.124  0.5797 -0.1878  0.2725
 8980SOL     OW27759   1.103   5.112   2.457 -0.0713  0.3107 -0.0637
 8980SOL    HW127760   1.095   5.102   2.556  1.1468 -0.2736 -0.0094
 8980SOL    HW227761   1.014   5.138   2.419 -0.3883  1.2379  1.2524
 8981SOL     OW27762   2.662   2.750   2.684 -0.0536 -0.3672 -0.8361
 8981SOL    HW127763   2.637   2.826   2.624  1.4349 -0.2473 -1.3355
 8981SOL    HW227764   2.582   2.692   2.699 -0.6276 -0.0066 -2.3517
 8982SOL     OW27765   4.377   6.561   5.357  0.1690  0.2762  0.4154
 8982SOL    HW127766   4.476   6.563   5.367  0.3196 -0.5180 -0.7722
 8982SOL    HW227767   4.340   6.654   5.371  1.2235  0.8542 -0.5609
 8983SOL     OW27768   3.626   6.957   5.056  0.2509 -0.4638 -0.7631
 8983SOL    HW127769   3.638   7.038   5.115 -0.8300 -1.0486  0.3004
 8983SOL    HW227770   3.713   6.937   5.011  0.4398  1.5371 -1.3968
 8984SOL     OW27771   0.824   0.911   0.506  0.1327 -0.4427  0.0019
 8984SOL    HW127772   0.812   0.825   0.456  1.3641 -2.1528  2.4661
 8984SOL    HW227773   0.916   0.947   0.488  0.1584 -0.4336  0.1583
 8985SOL     OW27774   2.068   2.383   4.522  0.2732  0.1096  0.6704
 8985SOL    HW127775   1.987   2.374   4.464 -0.6352  1.8618  1.5905
 8985SOL    HW227776   2.097   2.479   4.525  0.5626  0.0006  2.7256
 8986SOL     OW27777   4.613   5.259   3.368 -0.4669 -0.1866 -0.7627
 8986SOL    HW127778   4.654   5.301   3.287 -0.0506  0.9729  0.0175
 8986SOL    HW227779   4.644   5.309   3.450 -0.5723 -1.5687  0.1404
 8987SOL     OW27780   4.177   1.096   5.352  0.0968 -0.0205  0.3017
 8987SOL    HW127781   4.178   1.170   5.285  1.3728 -0.1977  0.1121
 8987SOL    HW227782   4.085   1.089   5.391 -0.7156  0.0115 -1.4899
 8988SOL     OW27783   0.690   1.160   5.173 -0.7762  0.0930  0.2338
 8988SOL    HW127784   0.699   1.259   5.162 -0.4645  0.3025  2.0546
 8988SOL    HW227785   0.712   1.134   5.267 -1.2275 -1.6740 -0.0955
 8989SOL     OW27786   0.944   0.581   3.401  0.2011  0.5095 -0.1543
 8989SOL    HW127787   0.869   0.622   3.453 -0.0828  1.3481 -1.1781
 8989SOL    HW227788   0.959   0.487   3.431 -0.5031  0.7061  0.8423
 8990SOL     OW27789   0.809   1.177   0.416  0.2449 -0.7549  0.5182
 8990SOL    HW127790   0.791   1.094   0.470 -0.5749 -1.1910 -0.3917
 8990SOL    HW227791   0.907   1.196   0.415  0.4597 -1.7926  0.6338
 8991SOL     OW27792   4.040   6.839   5.741 -0.4517 -0.5792  0.2393
 8991SOL    HW127793   4.058   6.786   5.659 -0.9274 -1.1811  0.5218
 8991SOL    HW227794   4.024   6.778   5.818  0.3555 -0.0197  0.8716
 8992SOL     OW27795   1.044   4.446   5.541  0.1960 -0.1325 -0.7849
 8992SOL    HW127796   1.105   4.408   5.471  2.0299 -1.5399  1.4461
 8992SOL    HW227797   1.073   4.538   5.564 -0.0177  0.0918 -1.3796
 8993SOL     OW27798   3.575   6.497   3.099 -0.5311 -0.6147  0.2727
 8993SOL    HW127799   3.653   6.437   3.081 -0.7955 -0.4296 -1.6721
 8993SOL    HW227800   3.603   6.592   3.089 -0.2902 -0.3587  2.6615
 8994SOL     OW27801   4.036   4.894   3.249  0.4814 -0.0327  0.6480
 8994SOL    HW127802   4.010   4.986   3.218  0.4226  0.3889  1.9160
 8994SOL    HW227803   4.102   4.855   3.184 -1.6466 -0.2991 -1.5233
 8995SOL     OW27804   0.699   0.391   1.274 -0.5356  0.0578  0.1184
 8995SOL    HW127805   0.705   0.426   1.180  2.2935  0.6876  0.4297
 8995SOL    HW227806   0.629   0.441   1.324 -0.6654  1.1334 -1.0879
 8996SOL     OW27807   1.937   4.880   3.131 -0.2398 -0.0655  0.0823
 8996SOL    HW127808   1.872   4.914   3.062 -1.6799  0.0035  1.4336
 8996SOL    HW227809   1.915   4.919   3.220  1.3559 -0.4689  0.6927
 8997SOL     OW27810   0.147   3.941   0.788 -0.1337  0.6565  0.3938
 8997SOL    HW127811   0.220   3.929   0.721  0.7981 -0.6298  1.5661
 8997SOL    HW227812   0.093   4.022   0.766 -0.1014  0.0720 -2.0983
 8998SOL     OW27813   5.083   1.624   2.115  0.0268 -0.0525  0.3021
 8998SOL    HW127814   5.029   1.630   2.199  0.4450  2.7033  0.4605
 8998SOL    HW227815   5.050   1.691   2.049  0.2364 -1.6107 -1.4748
 8999SOL     OW27816   3.771   0.558   5.048 -0.1097 -0.1062 -0.4999
 8999SOL    HW127817   3.846   0.502   5.083  0.4791  0.4044 -0.9258
 8999SOL    HW227818   3.689   0.501   5.038 -0.0140 -0.4985  0.7169
 9000SOL     OW27819   5.948   0.610   6.767  0.0959  0.0230 -0.6621
 9000SOL    HW127820   6.041   0.638   6.790  0.6047 -0.9489 -1.4573
 9000SOL    HW227821   5.902   0.683   6.717  1.0474 -0.1559 -1.8258
 9001SOL     OW27822   0.423   3.232   6.506 -0.0774 -1.0732  0.0002
 9001SOL    HW127823   0.435   3.157   6.570  0.7174 -2.5572 -1.7832
 9001SOL    HW227824   0.440   3.319   6.552  0.8684 -2.1019  1.6753
 9002SOL     OW27825   1.556   4.275   5.215  0.0731  0.1733 -0.2673
 9002SOL    HW127826   1.638   4.332   5.223 -0.2341  0.4960  0.6905
 9002SOL    HW227827   1.565   4.195   5.274 -0.6125  0.6034  0.4349
 9003SOL     OW27828   4.301   4.093   2.104  0.3987  0.4116 -0.3491
 9003SOL    HW127829   4.221   4.121   2.051  0.6505 -0.6034 -1.3033
 9003SOL    HW227830   4.314   4.157   2.180 -0.9307  0.9616 -0.5432
 9004SOL     OW27831   6.826   6.471   3.704  0.3401  0.5666 -0.3375
 9004SOL    HW127832   6.817   6.390   3.761 -1.1837 -0.2343 -1.6169
 9004SOL    HW227833   6.856   6.445   3.612 -0.2750  1.4256 -0.8023
 9005SOL     OW27834   1.750   2.880   1.136 -0.4795 -0.0103 -0.2398
 9005SOL    HW127835   1.830   2.821   1.125 -2.2617 -2.4237 -1.4122
 9005SOL    HW227836   1.731   2.927   1.049  0.1236  1.2467  0.2871
 9006SOL     OW27837   6.795   3.638   4.749 -0.2988  0.5268 -0.2721
 9006SOL    HW127838   6.828   3.563   4.806  1.4246 -0.2215 -2.1394
 9006SOL    HW227839   6.714   3.608   4.698  0.1754  0.0512 -0.7498
 9007SOL     OW27840   6.115   3.343   5.366  0.3129  0.2538 -0.2060
 9007SOL    HW127841   6.174   3.290   5.426 -0.9874  0.4628  1.3086
 9007SOL    HW227842   6.169   3.414   5.321  1.0188  1.3233  2.1747
 9008SOL     OW27843   6.201   6.060   3.068  0.6700 -0.0194  0.5887
 9008SOL    HW127844   6.122   6.122   3.067  0.9610  0.4384 -1.9315
 9008SOL    HW227845   6.285   6.114   3.073  0.8816 -0.2816 -0.0263
 9009SOL     OW27846   5.866   1.729   5.913 -0.5220 -0.5448 -0.6247
 9009SOL    HW127847   5.871   1.827   5.932 -3.0669 -0.5362  0.4085
 9009SOL    HW227848   5.936   1.682   5.966 -1.8552  0.3910  2.2139
 9010SOL     OW27849   5.767   1.349   2.833 -0.7626 -0.0252  0.0017
 9010SOL    HW127850   5.804   1.440   2.812 -0.6944  0.0039  0.2470
 9010SOL    HW227851   5.813   1.312   2.913 -0.1145 -0.6842 -0.6580
 9011SOL     OW27852   6.336   6.246   6.828  0.5815  0.1073 -0.1247
 9011SOL    HW127853   6.333   6.175   6.898  0.6785 -0.0423 -0.2704
 9011SOL    HW227854   6.312   6.206   6.739  1.4275  0.0743 -0.3501
 9012SOL     OW27855   1.618   3.116   4.405  0.1598  0.1042  0.2000
 9012SOL    HW127856   1.667   3.186   4.457  1.5712 -0.9090  0.3125
 9012SOL    HW227857   1.571   3.158   4.328 -1.6363  1.5937  1.9977
 9013SOL     OW27858   1.994   4.495   1.081 -0.1264 -0.1855 -0.1445
 9013SOL    HW127859   2.005   4.412   1.136  0.8141 -0.7399 -1.1137
 9013SOL    HW227860   2.003   4.575   1.139 -0.1897 -0.7584  0.6705
 9014SOL     OW27861   3.188   5.498   1.491  0.1441  0.4636 -0.0889
 9014SOL    HW127862   3.196   5.595   1.512 -0.3634  0.7583 -1.1711
 9014SOL    HW227863   3.108   5.460   1.538  0.0906  0.6734 -0.0107
 9015SOL     OW27864   1.509   6.804   6.635  0.3137 -0.2979 -0.4354
 9015SOL    HW127865   1.539   6.795   6.540  1.0833 -0.6172 -0.1674
 9015SOL    HW227866   1.453   6.726   6.660 -1.5783  0.7506 -1.2233
 9016SOL     OW27867   6.933   5.834   2.853  0.2660  0.4325 -0.2734
 9016SOL    HW127868   6.850   5.885   2.829 -0.3624 -0.5715 -0.2655
 9016SOL    HW227869   7.009   5.865   2.795 -0.2460  0.9558 -0.6747
 9017SOL     OW27870   5.694   6.622   4.150  0.1174 -0.3895  0.2439
 9017SOL    HW127871   5.606   6.643   4.194  0.3010  2.0970 -0.4248
 9017SOL    HW227872   5.769   6.651   4.209  0.4940 -1.2917  0.2352
 9018SOL     OW27873   5.364   5.325   1.985  1.1141 -0.0918  0.3080
 9018SOL    HW127874   5.289   5.390   1.977  2.1487  1.0562 -0.4378
 9018SOL    HW227875   5.441   5.367   2.034  0.8403 -1.6792  2.2153
 9019SOL     OW27876   6.558   3.670   0.901 -0.3802  0.2925  0.3954
 9019SOL    HW127877   6.515   3.677   0.811 -0.4484  0.4862  0.4426
 9019SOL    HW227878   6.603   3.581   0.910  0.3409  0.5985 -0.1475
 9020SOL     OW27879   4.873   6.251   6.987 -0.1867  0.4717  0.1321
 9020SOL    HW127880   4.870   6.316   7.063 -2.1368  1.1389 -0.4403
 9020SOL    HW227881   4.789   6.196   6.988  0.7071 -0.9713 -0.3401
 9021SOL     OW27882   3.655   6.740   3.507  0.2574  0.5315 -0.2998
 9021SOL    HW127883   3.588   6.760   3.435  0.0944  0.7928 -0.0807
 9021SOL    HW227884   3.606   6.720   3.592  0.4260 -0.5629 -0.4499
 9022SOL     OW27885   0.755   3.291   1.569 -0.4238  0.0959 -0.1701
 9022SOL    HW127886   0.836   3.316   1.621 -0.4732 -0.9263  0.4189
 9022SOL    HW227887   0.762   3.326   1.476  0.6898 -0.0063 -0.1263
 9023SOL     OW27888   4.105   3.226   0.376  0.8376  0.6184  0.2054
 9023SOL    HW127889   4.091   3.323   0.355 -2.3349 -0.1417 -1.9839
 9023SOL    HW227890   4.092   3.172   0.293 -2.1754 -1.9807  2.1566
 9024SOL     OW27891   5.480   6.435   0.519 -0.1414 -0.0544 -0.7486
 9024SOL    HW127892   5.425   6.353   0.530  1.2459 -0.8588  0.4676
 9024SOL    HW227893   5.475   6.490   0.602 -0.3192  0.6485 -1.2123
 9025SOL     OW27894   6.837   5.170   2.420 -0.1389 -0.5501 -0.0298
 9025SOL    HW127895   6.793   5.101   2.362 -0.6589 -0.7395  0.5847
 9025SOL    HW227896   6.895   5.124   2.487 -1.4245 -0.4714  1.1664
 9026SOL     OW27897   6.470   2.588   6.059 -0.6146 -0.2630 -0.1440
 9026SOL    HW127898   6.468   2.688   6.061  0.8338 -0.1207  3.7124
 9026SOL    HW227899   6.509   2.557   5.972 -0.3406  2.5330 -1.1149
 9027SOL     OW27900   3.662   5.363   6.993 -0.1502 -0.4737  0.4579
 9027SOL    HW127901   3.689   5.441   7.050 -0.9128 -0.5717  0.9677
 9027SOL    HW227902   3.743   5.308   6.973  0.7998  1.5096 -1.6089
 9028SOL     OW27903   1.043   1.050   0.769  0.4567  0.3835  0.0530
 9028SOL    HW127904   1.040   0.977   0.837 -0.3032  0.0309 -0.3442
 9028SOL    HW227905   1.006   1.134   0.808 -0.0906  0.1497  0.0528
 9029SOL     OW27906   5.542   0.122   0.154  0.2779 -0.0819  0.0594
 9029SOL    HW127907   5.629   0.129   0.105  0.1601 -0.1803 -0.1592
 9029SOL    HW227908   5.561   0.118   0.253  0.5797 -1.1224 -0.0258
 9030SOL     OW27909   6.775   0.259   1.942 -0.4084 -0.4472  0.0409
 9030SOL    HW127910   6.831   0.306   1.875  2.3064 -1.1540  1.6809
 9030SOL    HW227911   6.690   0.227   1.899 -0.3772  2.1070 -2.1213
 9031SOL     OW27912   3.487   0.226   1.644 -0.1118 -0.1581 -0.0757
 9031SOL    HW127913   3.440   0.297   1.591 -1.2636  0.9375  2.2005
 9031SOL    HW227914   3.522   0.155   1.583 -0.9132  1.2228 -2.2648
 9032SOL     OW27915   4.212   1.905   0.383  0.0850 -0.4749 -0.1103
 9032SOL    HW127916   4.217   1.818   0.431  1.8113 -1.4319 -1.8909
 9032SOL    HW227917   4.266   1.901   0.299  0.4156  2.3819 -0.1628
 9033SOL     OW27918   6.590   1.430   3.855  0.1326 -0.1871  0.1954
 9033SOL    HW127919   6.656   1.501   3.831 -1.6010  1.9564  1.3719
 9033SOL    HW227920   6.497   1.468   3.851 -0.9066 -2.5041  0.5814
 9034SOL     OW27921   4.746   4.216   6.146  0.5659 -0.2908  0.1620
 9034SOL    HW127922   4.717   4.303   6.186 -0.1227 -0.2624 -0.3758
 9034SOL    HW227923   4.709   4.208   6.054  1.7899 -0.5348 -0.3273
 9035SOL     OW27924   0.233   6.543   5.452  0.2472 -0.1298  0.9682
 9035SOL    HW127925   0.161   6.517   5.388  0.0677 -0.2883  1.2342
 9035SOL    HW227926   0.297   6.467   5.463  0.2653 -0.1106  0.9960
 9036SOL     OW27927   6.223   5.072   3.523 -0.2178 -0.1018  0.0973
 9036SOL    HW127928   6.149   5.058   3.589  0.7247  0.6240  1.3542
 9036SOL    HW227929   6.285   5.143   3.557  0.5477 -0.0357 -1.3670
 9037SOL     OW27930   6.656   6.224   6.068 -0.2231  0.4525 -0.1528
 9037SOL    HW127931   6.755   6.234   6.068 -0.1706  0.1478  0.9697
 9037SOL    HW227932   6.623   6.212   5.975  0.7317  1.1212 -0.5875
 9038SOL     OW27933   5.286   3.928   3.628  0.7184  0.5459  0.2155
 9038SOL    HW127934   5.258   3.996   3.697  1.4184 -0.4758  1.5527
 9038SOL    HW227935   5.304   3.975   3.541 -3.2353  1.5195 -0.2856
 9039SOL     OW27936   1.990   2.672   6.661 -0.0437 -0.4746  0.2989
 9039SOL    HW127937   1.926   2.650   6.734 -2.1247 -0.1333 -1.3354
 9039SOL    HW227938   1.963   2.625   6.577  0.1422  1.8548 -1.1766
 9040SOL     OW27939   2.141   0.713   3.435  0.0645 -0.1876 -0.3167
 9040SOL    HW127940   2.209   0.713   3.362  2.1970 -1.9393  1.5170
 9040SOL    HW227941   2.099   0.622   3.440 -0.0314 -0.0966  0.6288
 9041SOL     OW27942   4.264   4.079   2.965  0.4537 -0.6567 -0.5976
 9041SOL    HW127943   4.245   4.033   2.878 -0.5195 -0.3142 -0.5745
 9041SOL    HW227944   4.187   4.137   2.990  1.0663 -0.1213  0.0965
 9042SOL     OW27945   5.683   3.696   2.010 -0.0775  0.5551  0.0565
 9042SOL    HW127946   5.767   3.750   1.999  0.0287  0.1877 -1.1145
 9042SOL    HW227947   5.605   3.757   2.021 -0.1328  1.0563 -2.4786
 9043SOL     OW27948   4.623   6.362   2.158 -0.5232 -0.2338  0.0703
 9043SOL    HW127949   4.576   6.357   2.070 -0.8198 -2.8030  0.2760
 9043SOL    HW227950   4.589   6.439   2.211 -0.8669  0.9104 -1.7472
 9044SOL     OW27951   0.947   1.551   5.085 -0.5916  0.6681  0.3179
 9044SOL    HW127952   0.985   1.636   5.049 -2.4812  0.4963 -2.3553
 9044SOL    HW227953   1.005   1.474   5.058 -0.9109  0.7537 -0.6440
 9045SOL     OW27954   6.797   4.443   5.487 -0.2978  0.4546  0.1694
 9045SOL    HW127955   6.871   4.419   5.424 -1.3966  0.5166 -1.1702
 9045SOL    HW227956   6.747   4.521   5.452 -1.7002 -0.2672  0.4913
 9046SOL     OW27957   6.367   2.255   0.172  0.5486  1.1742  0.4666
 9046SOL    HW127958   6.290   2.313   0.198  0.4172  1.2516 -0.0834
 9046SOL    HW227959   6.352   2.219   0.080  1.1805  1.2122  0.3446
 9047SOL     OW27960   5.791   4.504   1.421  0.3153 -0.6145 -0.6591
 9047SOL    HW127961   5.779   4.518   1.322  0.1878  1.1466 -0.4147
 9047SOL    HW227962   5.812   4.591   1.465  2.4821 -1.6769  0.6045
 9048SOL     OW27963   3.215   2.263   6.031  0.3804 -0.2330 -0.2979
 9048SOL    HW127964   3.120   2.291   6.048  0.6471  0.5420 -0.0486
 9048SOL    HW227965   3.277   2.328   6.076  1.0212 -2.5165  2.3884
 9049SOL     OW27966   1.111   1.727   3.566 -0.2761  0.0728  0.0446
 9049SOL    HW127967   1.041   1.688   3.627 -0.5238 -1.5832 -1.2121
 9049SOL    HW227968   1.075   1.810   3.524 -1.9924 -1.2943 -1.3765
 9050SOL     OW27969   3.624   0.105   0.597 -0.4474  0.2264  0.3417
 9050SOL    HW127970   3.531   0.126   0.627 -0.8090  2.5586 -2.0571
 9050SOL    HW227971   3.622   0.028   0.534 -0.7308  0.1756  0.4117
 9051SOL     OW27972   3.313   4.793   2.645  0.1843  0.8024  0.0290
 9051SOL    HW127973   3.220   4.812   2.678  0.1100  0.6119 -0.0660
 9051SOL    HW227974   3.379   4.831   2.709  0.0399  1.8912 -0.4592
 9052SOL     OW27975   3.010   3.301   6.507  0.0004 -0.0061 -0.4866
 9052SOL    HW127976   2.959   3.367   6.452 -0.5472 -1.1994 -1.4588
 9052SOL    HW227977   3.070   3.350   6.571  1.4261  1.4603 -2.8086
 9053SOL     OW27978   5.544   6.864   0.869 -0.2410  0.0680 -0.3554
 9053SOL    HW127979   5.486   6.917   0.808 -1.2471  0.0395  0.5366
 9053SOL    HW227980   5.547   6.907   0.959 -2.4257 -2.1441  0.9010
 9054SOL     OW27981   2.326   6.473   5.397 -0.6904  0.5725 -0.3545
 9054SOL    HW127982   2.239   6.444   5.357 -1.8630  1.4021  1.4623
 9054SOL    HW227983   2.359   6.403   5.459 -0.8415  0.8956  0.0945
 9055SOL     OW27984   6.530   1.037   0.350  0.0815  0.3747 -0.6423
 9055SOL    HW127985   6.519   1.008   0.445  0.0698 -1.2877 -1.1195
 9055SOL    HW227986   6.440   1.048   0.309  0.0847  1.2058 -0.4488
 9056SOL     OW27987   0.757   5.244   6.993  0.0529  0.2548 -0.0415
 9056SOL    HW127988   0.677   5.272   6.941 -0.8722  1.3480  1.8669
 9056SOL    HW227989   0.757   5.144   7.003 -1.0559  0.2364 -0.1176
 9057SOL     OW27990   0.034   4.342   5.988  0.0687 -0.4088 -0.3226
 9057SOL    HW127991   0.082   4.392   5.917 -2.1444  2.0381 -0.2576
 9057SOL    HW227992   0.100   4.303   6.052  1.9809  0.7947 -1.4657
 9058SOL     OW27993   5.641   6.286   4.163 -0.0069  0.1045  0.2166
 9058SOL    HW127994   5.590   6.335   4.092 -0.3963  1.9818  1.7074
 9058SOL    HW227995   5.585   6.278   4.245  0.6037 -1.6239  0.5145
 9059SOL     OW27996   6.615   2.384   3.198  0.2899 -0.1648 -0.5374
 9059SOL    HW127997   6.585   2.477   3.180 -1.1299 -0.2137  1.2674
 9059SOL    HW227998   6.704   2.386   3.244  1.5378  0.1374 -2.8453
 9060SOL     OW27999   4.871   1.447   0.049 -0.1623  0.2541  0.2786
 9060SOL    HW128000   4.958   1.438   0.096  0.8506 -1.7099 -1.7836
 9060SOL    HW228001   4.807   1.378   0.083 -0.2372  0.3604  0.3578
 9061SOL     OW28002   4.025   5.964   0.574 -0.0662  0.6099  0.2623
 9061SOL    HW128003   4.019   5.925   0.483  1.2141  2.6121 -0.7643
 9061SOL    HW228004   4.076   5.902   0.634 -2.3028 -1.4800  0.1564
 9062SOL     OW28005   3.237   3.663   4.287 -0.4741  0.0487  0.0642
 9062SOL    HW128006   3.187   3.743   4.256  0.3991 -0.1240 -1.9554
 9062SOL    HW228007   3.330   3.690   4.314 -0.6704 -0.0750  0.8960
 9063SOL     OW28008   6.457   2.635   5.258  0.8154 -0.0473  0.4330
 9063SOL    HW128009   6.489   2.700   5.327 -1.0268  0.9585  0.4068
 9063SOL    HW228010   6.478   2.670   5.167  0.7826 -0.0294  0.4328
 9064SOL     OW28011   0.148   2.995   6.149  0.4068  0.0048 -0.1043
 9064SOL    HW128012   0.226   2.973   6.208  0.2438  0.9257  0.4731
 9064SOL    HW228013   0.174   3.068   6.086 -0.3415  1.1866  0.9241
 9065SOL     OW28014   6.962   3.510   0.988 -0.1733  0.7448  0.8229
 9065SOL    HW128015   7.011   3.426   1.011 -0.6645 -0.5206 -2.2697
 9065SOL    HW228016   7.025   3.574   0.944 -0.6734  0.1771 -0.7759
 9066SOL     OW28017   0.486   0.960   4.768 -0.2319  0.4006 -0.3605
 9066SOL    HW128018   0.505   1.058   4.762 -1.3455  0.6210 -0.6004
 9066SOL    HW228019   0.456   0.938   4.861 -1.5615  0.6153 -0.7143
 9067SOL     OW28020   1.760   3.802   4.429 -0.2310  0.1878 -0.1446
 9067SOL    HW128021   1.854   3.782   4.459 -0.4079 -1.3701 -0.5403
 9067SOL    HW228022   1.703   3.821   4.509  0.3554  0.9232  0.1178
 9068SOL     OW28023   0.932   1.242   1.051 -0.3129 -0.1377  0.3817
 9068SOL    HW128024   0.866   1.201   0.987 -0.3752 -1.2770  1.1519
 9068SOL    HW228025   0.934   1.189   1.135  3.8807 -2.2067 -0.7224
 9069SOL     OW28026   6.169   3.793   0.650  0.8425 -0.4338 -0.3590
 9069SOL    HW128027   6.118   3.851   0.586  2.2410  0.7607 -0.4349
 9069SOL    HW228028   6.123   3.794   0.739  0.3526  0.0561 -0.6068
 9070SOL     OW28029   2.533   3.743   5.267  0.2777 -0.3407 -0.0048
 9070SOL    HW128030   2.463   3.721   5.200 -0.5398 -0.1117  0.7619
 9070SOL    HW228031   2.566   3.836   5.252  1.3009 -0.8561 -1.1168
 9071SOL     OW28032   2.192   1.845   1.163  0.5713 -0.6294  0.4889
 9071SOL    HW128033   2.118   1.778   1.166  0.1632 -0.1803  0.6329
 9071SOL    HW228034   2.153   1.937   1.154  1.0873 -0.3344  1.1905
 9072SOL     OW28035   0.902   4.092   0.029 -0.1760 -0.1459 -0.3959
 9072SOL    HW128036   0.863   4.184   0.037 -1.1106 -0.4497 -1.3268
 9072SOL    HW228037   0.985   4.087   0.084  0.8506  1.7861 -1.6559
 9073SOL     OW28038   5.544   1.634   3.425  0.1565 -0.1831 -0.0161
 9073SOL    HW128039   5.483   1.656   3.501  1.0567 -1.5419  1.1322
 9073SOL    HW228040   5.628   1.689   3.433  0.7860 -1.2267  0.7053
 9074SOL     OW28041   2.527   6.167   1.644 -0.0301 -0.1027 -0.0578
 9074SOL    HW128042   2.606   6.139   1.590 -0.5171 -0.4972 -0.5752
 9074SOL    HW228043   2.523   6.112   1.728  0.1739 -0.1693 -0.0913
 9075SOL     OW28044   3.876   6.538   4.244  0.1228  0.3761  0.1133
 9075SOL    HW128045   3.919   6.510   4.330  0.7287  0.0749 -0.2831
 9075SOL    HW228046   3.855   6.636   4.248 -0.4463  0.2327  0.8470
 9076SOL     OW28047   5.027   6.912   2.188  0.2206  0.3149  0.0672
 9076SOL    HW128048   5.054   6.816   2.192 -0.4118  0.1549  0.8793
 9076SOL    HW228049   4.929   6.919   2.168  0.6903  0.8723 -2.3830
 9077SOL     OW28050   6.117   4.849   0.915  0.1155 -0.1000 -0.0106
 9077SOL    HW128051   6.021   4.858   0.891 -0.1645 -1.2342  0.6357
 9077SOL    HW228052   6.160   4.782   0.855  0.6359  0.7432 -0.6089
 9078SOL     OW28053   3.343   2.772   6.667 -0.4125 -0.5279 -0.6615
 9078SOL    HW128054   3.262   2.831   6.669 -0.6507 -0.8603 -0.4112
 9078SOL    HW228055   3.415   2.813   6.724  0.4625  0.9726 -2.6871
 9079SOL     OW28056   1.156   5.666   6.541 -0.1354 -0.1211  0.2788
 9079SOL    HW128057   1.166   5.567   6.554  1.5823  0.1150  1.0402
 9079SOL    HW228058   1.198   5.692   6.454 -0.6946 -0.0618  0.0208
 9080SOL     OW28059   1.262   1.388   2.137  0.0296  0.0836 -0.0789
 9080SOL    HW128060   1.164   1.373   2.129  0.1601 -0.8605  0.0388
 9080SOL    HW228061   1.311   1.302   2.122  0.9222  0.8090 -1.5365
 9081SOL     OW28062   4.453   4.124   0.886 -0.3250  0.1064 -0.0579
 9081SOL    HW128063   4.361   4.087   0.892 -0.2166 -0.2658 -0.5779
 9081SOL    HW228064   4.491   4.136   0.977 -0.6771 -0.2820  0.1423
 9082SOL     OW28065   3.624   2.774   1.372  0.8890  0.0944  0.4321
 9082SOL    HW128066   3.567   2.710   1.425 -1.1903  1.2252 -0.3277
 9082SOL    HW228067   3.567   2.849   1.339  2.1205 -0.3278 -3.0747
 9083SOL     OW28068   4.376   0.572   4.862  0.1590 -0.4659 -0.5942
 9083SOL    HW128069   4.425   0.485   4.855  2.5184  0.8251 -1.3083
 9083SOL    HW228070   4.354   0.590   4.958  1.3675 -0.9928 -0.1930
 9084SOL     OW28071   1.974   1.145   4.217  0.1342 -0.0183  0.3774
 9084SOL    HW128072   1.888   1.191   4.236  0.6437  0.6044  1.2628
 9084SOL    HW228073   2.029   1.142   4.301 -0.3115 -3.2074  0.6531
 9085SOL     OW28074   1.727   5.314   0.168  0.0924 -0.3904 -0.1952
 9085SOL    HW128075   1.740   5.327   0.069 -1.3118 -1.5887 -0.5766
 9085SOL    HW228076   1.674   5.231   0.184 -1.3050  0.7413  1.4715
 9086SOL     OW28077   3.986   6.924   2.966  0.1091 -0.1661 -0.0874
 9086SOL    HW128078   3.947   7.010   2.933 -1.1497 -0.5611  0.3080
 9086SOL    HW228079   4.012   6.867   2.888  0.9966  0.5812 -0.3510
 9087SOL     OW28080   1.240   0.717   1.089  0.3794 -0.2253  0.4662
 9087SOL    HW128081   1.244   0.635   1.145  0.2941  0.7743  1.9834
 9087SOL    HW228082   1.180   0.784   1.132 -0.3842  0.2648 -1.2707
 9088SOL     OW28083   4.572   6.567   4.741  0.4179 -0.1946 -0.8829
 9088SOL    HW128084   4.653   6.539   4.792  0.1237  0.5297  0.0112
 9088SOL    HW228085   4.597   6.633   4.671  0.6208 -0.0805 -0.7020
 9089SOL     OW28086   3.236   4.610   3.607  0.0166  0.0537  0.1437
 9089SOL    HW128087   3.164   4.632   3.672  0.9099 -1.3311  1.6950
 9089SOL    HW228088   3.316   4.668   3.623 -0.3952  0.9926 -1.0038
 9090SOL     OW28089   6.983   0.512   4.655 -1.0671  0.3103 -0.2401
 9090SOL    HW128090   6.943   0.469   4.575 -0.5061  1.3000 -1.0737
 9090SOL    HW228091   6.939   0.476   4.738 -2.2037 -0.1477 -1.0194
 9091SOL     OW28092   3.234   3.160   4.266 -0.0236 -0.1943 -0.1741
 9091SOL    HW128093   3.279   3.096   4.329  1.4884 -0.1177 -1.1251
 9091SOL    HW228094   3.242   3.253   4.302  3.1463  0.2140 -1.5911
 9092SOL     OW28095   6.529   5.326   4.977 -0.3819 -0.0319  0.3351
 9092SOL    HW128096   6.443   5.370   5.002 -0.3353  0.6161 -0.5804
 9092SOL    HW228097   6.512   5.233   4.945 -0.5171 -0.6043  1.9969
 9093SOL     OW28098   6.746   2.665   0.338 -0.6893  0.0596 -0.2493
 9093SOL    HW128099   6.816   2.609   0.382 -0.7139  1.0871  1.1740
 9093SOL    HW228100   6.754   2.656   0.239  1.7169  0.4454 -0.1506
 9094SOL     OW28101   0.980   0.114   5.630 -0.3696  0.2023  0.3020
 9094SOL    HW128102   0.966   0.071   5.541 -0.2724  1.4380 -0.3463
 9094SOL    HW228103   0.923   0.070   5.699 -0.4308 -0.7833 -0.3714
 9095SOL     OW28104   3.703   0.549   2.634 -0.8653 -0.5086 -0.3462
 9095SOL    HW128105   3.754   0.471   2.669 -0.3107 -0.6477 -1.4054
 9095SOL    HW228106   3.748   0.584   2.551 -1.6294  0.3430 -0.4221
 9096SOL     OW28107   3.404   5.838   6.561  0.5779 -0.3548 -0.2511
 9096SOL    HW128108   3.337   5.861   6.491  2.0149 -0.8625 -1.8486
 9096SOL    HW228109   3.445   5.750   6.540 -0.0408 -1.2812  2.1071
 9097SOL     OW28110   1.471   3.980   3.808  0.3117  0.3201 -0.1869
 9097SOL    HW128111   1.570   3.977   3.823  0.1083  1.1790  1.5913
 9097SOL    HW228112   1.447   4.061   3.755  0.6942 -0.8372 -2.2292
 9098SOL     OW28113   2.844   5.303   5.747 -0.3969  0.2216  0.1518
 9098SOL    HW128114   2.828   5.227   5.809 -1.7310  1.1946  1.0587
 9098SOL    HW228115   2.766   5.313   5.685  0.4680 -0.1049 -1.0092
 9099SOL     OW28116   6.774   5.616   6.491 -0.4119 -0.3491  0.9025
 9099SOL    HW128117   6.682   5.593   6.460 -0.3652  0.3946  0.1858
 9099SOL    HW228118   6.842   5.565   6.438 -0.3931 -0.4231  0.9980
 9100SOL     OW28119   4.682   2.673   3.222  0.6222 -0.1904 -0.1139
 9100SOL    HW128120   4.735   2.700   3.303  0.0585  0.2089  0.1219
 9100SOL    HW228121   4.601   2.622   3.251  0.0548  0.5495 -0.3828
 9101SOL     OW28122   6.854   3.737   6.000 -0.2541 -0.0034  0.0519
 9101SOL    HW128123   6.915   3.800   6.049  1.2214  1.6258 -3.5108
 9101SOL    HW228124   6.843   3.653   6.052  2.1542  1.0722  2.4971
 9102SOL     OW28125   1.746   6.238   4.370 -0.1478  0.5736  0.6627
 9102SOL    HW128126   1.818   6.267   4.433 -1.4664  3.3314  1.0830
 9102SOL    HW228127   1.661   6.227   4.421 -0.4083 -1.0697 -0.0776
 9103SOL     OW28128   3.527   5.774   1.973  0.0457  0.5284  0.7368
 9103SOL    HW128129   3.591   5.714   2.020  1.4732  1.0107 -0.4989
 9103SOL    HW228130   3.490   5.728   1.892  1.6965  1.4688 -0.6266
 9104SOL     OW28131   1.183   6.473   1.662 -0.1382  0.2777 -0.4144
 9104SOL    HW128132   1.114   6.510   1.724 -0.5603 -0.3327 -0.5142
 9104SOL    HW228133   1.197   6.376   1.681  0.7344  0.4055 -0.3660
 9105SOL     OW28134   1.164   1.743   2.827 -0.3129  0.5129 -0.4861
 9105SOL    HW128135   1.086   1.801   2.850 -0.5593  0.4636 -1.1461
 9105SOL    HW228136   1.152   1.707   2.734 -0.7660 -1.5409  0.2999
 9106SOL     OW28137   4.514   6.129   5.552 -0.2489  0.2071  0.8970
 9106SOL    HW128138   4.498   6.173   5.640 -1.4895 -0.5657  1.0654
 9106SOL    HW228139   4.471   6.182   5.479  1.9256  1.6151  0.5182
 9107SOL     OW28140   1.697   2.694   2.185  0.8949  0.3996 -0.1162
 9107SOL    HW128141   1.660   2.632   2.115  0.2933  0.9709 -0.3097
 9107SOL    HW228142   1.787   2.726   2.156  0.0964  1.6902 -1.3151
 9108SOL     OW28143   3.788   4.987   0.766  0.0537  0.2183 -0.2815
 9108SOL    HW128144   3.841   4.919   0.816  1.8992  2.7071  1.4094
 9108SOL    HW228145   3.839   5.014   0.683 -0.3456  0.0234 -0.5917
 9109SOL     OW28146   3.076   5.105   5.888 -0.5225  0.0855 -0.3924
 9109SOL    HW128147   3.015   5.081   5.813 -1.6561  0.5410  0.3561
 9109SOL    HW228148   3.075   5.031   5.956  1.2680 -0.7839 -1.2530
 9110SOL     OW28149   5.381   6.616   1.348 -0.6994  0.9715 -0.0913
 9110SOL    HW128150   5.428   6.624   1.436 -1.9480 -1.0797  0.8166
 9110SOL    HW228151   5.302   6.555   1.358  0.4937 -1.2936 -3.1709
 9111SOL     OW28152   6.997   4.377   1.365  0.2176 -0.1710  0.0622
 9111SOL    HW128153   6.987   4.279   1.345  0.3102 -0.1611 -0.0333
 9111SOL    HW228154   6.914   4.425   1.341 -0.2719 -0.4059  1.1919
 9112SOL     OW28155   6.825   4.115   6.551 -0.6206 -0.2880  0.0942
 9112SOL    HW128156   6.763   4.139   6.476  0.1107 -1.5104 -0.9305
 9112SOL    HW228157   6.886   4.193   6.570 -1.2311  0.2549 -0.1297
 9113SOL     OW28158   6.277   1.439   4.436 -0.7399 -0.2657 -0.2927
 9113SOL    HW128159   6.354   1.471   4.492  0.6821  0.8732 -2.7308
 9113SOL    HW228160   6.231   1.363   4.482  0.0049  0.9127  2.5852
 9114SOL     OW28161   4.368   1.502   0.183  0.5505  0.0477  0.1885
 9114SOL    HW128162   4.398   1.411   0.155  2.2438  0.0536  1.8046
 9114SOL    HW228163   4.275   1.497   0.220  0.4952 -0.9539 -0.0711
 9115SOL     OW28164   2.322   1.846   4.146 -0.3834 -0.3809  0.2461
 9115SOL    HW128165   2.270   1.871   4.065  1.1104  1.9633 -0.0653
 9115SOL    HW228166   2.400   1.790   4.119 -0.5021 -0.5346  0.2176
 9116SOL     OW28167   3.842   0.258   5.450 -0.5275  0.7107 -0.2723
 9116SOL    HW128168   3.891   0.239   5.365 -1.0850 -1.0573 -0.2264
 9116SOL    HW228169   3.901   0.313   5.511  1.1038 -0.6817 -0.5389
 9117SOL     OW28170   3.749   1.430   2.898 -0.2257 -0.6382  0.0072
 9117SOL    HW128171   3.808   1.349   2.896 -0.4137 -0.8166  1.1016
 9117SOL    HW228172   3.665   1.411   2.848  0.6764 -0.3337 -1.6959
 9118SOL     OW28173   6.229   4.076   4.867  0.8277 -0.2798 -1.1167
 9118SOL    HW128174   6.204   4.166   4.829  1.5697  0.8285  0.8512
 9118SOL    HW228175   6.294   4.089   4.941  1.5622 -2.5541 -1.3073
 9119SOL     OW28176   0.487   0.396   0.385 -0.0231  0.3229 -0.5345
 9119SOL    HW128177   0.547   0.339   0.329  1.7229 -0.3136  1.8227
 9119SOL    HW228178   0.450   0.341   0.460  0.0489  1.7895  0.6192
 9120SOL     OW28179   1.094   2.243   3.048 -0.4218 -0.0142  0.4236
 9120SOL    HW128180   1.161   2.310   3.079 -0.1319 -0.6179  1.1177
 9120SOL    HW228181   1.140   2.171   2.996 -0.4692 -0.6322  1.2282
 9121SOL     OW28182   4.810   1.677   4.810 -0.3600 -0.7676  0.3228
 9121SOL    HW128183   4.878   1.662   4.737  0.5628  0.0014  1.0017
 9121SOL    HW228184   4.815   1.602   4.875 -0.0647 -0.6536  0.4352
 9122SOL     OW28185   0.937   5.786   3.098  0.4538 -0.1691 -0.1331
 9122SOL    HW128186   0.987   5.852   3.154  0.5639 -1.3431  1.2026
 9122SOL    HW228187   0.839   5.800   3.108  0.4413 -1.2255  1.4636
 9123SOL     OW28188   5.066   2.964   3.908 -0.2071 -0.2945  0.0947
 9123SOL    HW128189   5.164   2.945   3.919 -0.4144 -1.6619 -0.2499
 9123SOL    HW228190   5.022   2.887   3.862 -1.1682  0.9711 -1.1950
 9124SOL     OW28191   6.984   1.121   2.422 -0.5349  0.0731 -0.3441
 9124SOL    HW128192   6.889   1.091   2.414 -0.8312  0.5503  1.2068
 9124SOL    HW228193   6.989   1.206   2.474  0.6177  0.9631 -1.8120
 9125SOL     OW28194   3.505   4.281   2.523 -0.2444 -0.4087 -0.4450
 9125SOL    HW128195   3.580   4.264   2.459  0.8494  2.0490  0.0922
 9125SOL    HW228196   3.441   4.346   2.482  0.6070  1.4003  0.9489
 9126SOL     OW28197   6.889   1.124   3.552  0.1471 -0.4604  0.5072
 9126SOL    HW128198   6.904   1.035   3.594  1.8861  0.2635  1.4913
 9126SOL    HW228199   6.799   1.159   3.579  0.8365 -0.4201  2.9255
 9127SOL     OW28200   5.642   0.341   0.668 -0.0566  0.0665  0.3247
 9127SOL    HW128201   5.730   0.355   0.714 -0.4064 -2.6070  2.0347
 9127SOL    HW228202   5.578   0.299   0.732 -1.5829 -0.9513 -1.7630
 9128SOL     OW28203   1.853   1.509   0.925  0.3423  0.3937  0.3815
 9128SOL    HW128204   1.756   1.510   0.903 -0.0351 -0.2336  1.8902
 9128SOL    HW228205   1.906   1.531   0.843 -1.0951  1.7774 -0.2213
 9129SOL     OW28206   0.544   3.169   6.262  0.2580  0.5660  0.7590
 9129SOL    HW128207   0.501   3.211   6.342 -0.8105  0.4734  0.2413
 9129SOL    HW228208   0.501   3.081   6.242  0.8739  0.3385  0.3897
 9130SOL     OW28209   3.919   3.398   4.482  0.2068  0.1983 -0.2291
 9130SOL    HW128210   4.004   3.425   4.526  0.2453 -0.2601 -0.0169
 9130SOL    HW228211   3.885   3.474   4.426 -0.3120  1.1286  1.2803
 9131SOL     OW28212   2.885   1.357   1.533  0.1597 -0.1196  0.4021
 9131SOL    HW128213   2.955   1.291   1.507 -0.8054 -0.5080 -1.4435
 9131SOL    HW228214   2.815   1.312   1.588  0.0756 -0.3843  0.0853
 9132SOL     OW28215   4.740   0.838   3.831  0.1090 -0.2942  0.1001
 9132SOL    HW128216   4.838   0.823   3.837  0.2449  0.8364  1.2442
 9132SOL    HW228217   4.715   0.869   3.740  0.1287 -4.7285 -1.6693
 9133SOL     OW28218   4.001   3.591   5.475  0.6716  0.2205 -0.2829
 9133SOL    HW128219   4.023   3.549   5.563 -2.7869 -0.5651  0.3378
 9133SOL    HW228220   4.054   3.675   5.465  2.1763 -0.3783  1.8974
 9134SOL     OW28221   2.995   2.424   6.124 -0.1735  0.3121 -0.2547
 9134SOL    HW128222   2.983   2.440   6.222  1.1073 -0.8649  0.1191
 9134SOL    HW228223   2.953   2.336   6.099  3.5370 -1.7992  0.2588
 9135SOL     OW28224   0.698   6.243   5.799 -0.2712  0.0827 -0.0912
 9135SOL    HW128225   0.788   6.201   5.787  0.5910  0.7279  3.1103
 9135SOL    HW228226   0.628   6.172   5.808  0.2663 -0.4933 -0.4653
 9136SOL     OW28227   2.092   0.429   0.386  0.9498  0.3964 -0.0401
 9136SOL    HW128228   2.004   0.476   0.379  1.3908  0.9872 -2.4354
 9136SOL    HW228229   2.120   0.426   0.482 -1.1951  1.0571  0.6756
 9137SOL     OW28230   2.274   0.451   5.573 -0.0737  0.2575  0.5857
 9137SOL    HW128231   2.199   0.386   5.559 -0.0640  0.4930 -0.6692
 9137SOL    HW228232   2.311   0.479   5.485  2.3926 -0.8547  1.1649
 9138SOL     OW28233   5.930   1.298   3.066  0.1662 -1.1898 -0.2740
 9138SOL    HW128234   5.879   1.347   3.137  0.6596 -0.3861 -0.4541
 9138SOL    HW228235   6.003   1.244   3.110  0.9065 -0.1604 -0.1869
 9139SOL     OW28236   4.902   1.804   2.604  0.1959 -0.0152 -0.3513
 9139SOL    HW128237   4.967   1.847   2.667  0.5294 -0.7828 -0.1637
 9139SOL    HW228238   4.809   1.817   2.638  0.1060  2.1621 -1.2463
 9140SOL     OW28239   1.929   6.198   5.414 -0.3373  0.3605 -0.1021
 9140SOL    HW128240   1.912   6.253   5.333  0.7694 -0.8909 -1.2353
 9140SOL    HW228241   2.028   6.182   5.423 -0.5264 -0.3252  0.9533
 9141SOL     OW28242   4.154   0.628   6.249  0.7959 -0.2701  0.4542
 9141SOL    HW128243   4.110   0.577   6.322  0.7522 -1.4473 -0.3779
 9141SOL    HW228244   4.198   0.709   6.288 -1.0537  0.3101  1.4702
 9142SOL     OW28245   2.273   5.985   6.694  0.1359 -0.0373 -0.2575
 9142SOL    HW128246   2.189   6.011   6.742 -0.3872 -0.8574 -0.7050
 9142SOL    HW228247   2.256   5.902   6.640  0.6267  0.9789 -2.0621
 9143SOL     OW28248   3.122   3.555   3.310  0.1375 -0.1017 -0.1041
 9143SOL    HW128249   3.121   3.457   3.329  1.5640 -0.2828 -0.8621
 9143SOL    HW228250   3.190   3.600   3.367 -1.3798  0.6847  1.1669
 9144SOL     OW28251   3.181   0.345   5.353  0.1712  0.1029  0.1728
 9144SOL    HW128252   3.252   0.380   5.414 -0.2181  0.6248  0.3355
 9144SOL    HW228253   3.091   0.378   5.383 -0.0189  0.4835 -0.7531
 9145SOL     OW28254   2.578   5.808   2.652  0.0771  0.7914 -0.3449
 9145SOL    HW128255   2.553   5.824   2.557 -0.3003 -0.8948 -0.5705
 9145SOL    HW228256   2.655   5.745   2.656 -0.1060  0.6079  0.4681
 9146SOL     OW28257   0.052   0.076   1.158  0.1314 -0.0706  0.1120
 9146SOL    HW128258   0.008   0.004   1.213 -1.5751 -0.6101 -1.8155
 9146SOL    HW228259   0.057   0.046   1.062  0.9300  1.7249 -0.4425
 9147SOL     OW28260   3.548   2.406   0.191 -0.6756 -0.3660 -0.2281
 9147SOL    HW128261   3.645   2.383   0.200 -0.2771  0.6762 -1.5270
 9147SOL    HW228262   3.500   2.332   0.145 -0.1885 -0.2686 -0.9065
 9148SOL     OW28263   2.977   3.207   2.906 -0.5416 -0.2759  0.0519
 9148SOL    HW128264   2.975   3.108   2.917 -1.7473 -0.8809 -4.0124
 9148SOL    HW228265   3.053   3.232   2.847 -0.9907  1.0743  0.0118
 9149SOL     OW28266   6.810   6.559   4.017  0.1088  0.2993 -0.2992
 9149SOL    HW128267   6.848   6.504   3.942  0.2566 -0.3358  0.2304
 9149SOL    HW228268   6.864   6.643   4.027  1.4084 -0.5785  0.4288
 9150SOL     OW28269   6.890   4.561   5.728 -0.6867 -0.2253  0.1638
 9150SOL    HW128270   6.820   4.583   5.795 -0.3202 -0.7333  0.7210
 9150SOL    HW228271   6.846   4.530   5.643 -1.1477  0.2601  0.2224
 9151SOL     OW28272   2.365   5.193   2.360  0.0372 -0.3484  0.1171
 9151SOL    HW128273   2.381   5.143   2.445 -1.3241  0.6962  1.0137
 9151SOL    HW228274   2.344   5.288   2.380  1.2558  0.3156 -1.4974
 9152SOL     OW28275   4.746   3.536   2.140 -0.1595 -0.1245 -0.2347
 9152SOL    HW128276   4.719   3.542   2.236 -1.0075  1.5215 -0.5332
 9152SOL    HW228277   4.788   3.622   2.112 -2.2615  0.4516 -1.9671
 9153SOL     OW28278   2.960   6.984   4.929  0.1453 -0.1659  0.2762
 9153SOL    HW128279   2.972   7.024   5.020  0.0163 -0.1107  0.2695
 9153SOL    HW228280   2.969   7.055   4.859 -0.2110 -0.1233  0.2715
 9154SOL     OW28281   2.019   0.608   4.686  0.6076 -0.1851 -0.0282
 9154SOL    HW128282   2.044   0.517   4.717  0.9756 -0.0832 -0.0158
 9154SOL    HW228283   1.942   0.603   4.623  0.1267 -0.4346  0.5632
 9155SOL     OW28284   4.789   5.596   0.884 -0.1004 -0.5183 -0.4647
 9155SOL    HW128285   4.703   5.633   0.850 -1.1282 -2.2299  0.1454
 9155SOL    HW228286   4.851   5.581   0.807  1.1380  3.9992 -0.6317
 9156SOL     OW28287   6.525   4.766   4.479 -0.2745  0.6075  0.3885
 9156SOL    HW128288   6.452   4.716   4.527 -0.1957  1.7695  1.8042
 9156SOL    HW228289   6.508   4.864   4.488  0.6501  0.8658 -0.6012
 9157SOL     OW28290   0.700   4.545   2.439  0.4422 -0.4846  0.3928
 9157SOL    HW128291   0.766   4.473   2.419 -0.0329 -1.3326  1.7114
 9157SOL    HW228292   0.734   4.601   2.514  0.7994  0.6880 -0.6154
 9158SOL     OW28293   2.923   5.880   5.412 -0.4755 -0.5903 -0.1429
 9158SOL    HW128294   2.884   5.793   5.443 -0.7927 -1.2171 -2.1270
 9158SOL    HW228295   3.015   5.864   5.376 -0.7768 -0.2390 -1.0949
 9159SOL     OW28296   1.921   2.334   2.337  0.2771 -0.1676 -0.1529
 9159SOL    HW128297   1.964   2.343   2.247 -0.1541 -0.6179 -0.4098
 9159SOL    HW228298   1.824   2.358   2.330  0.0675 -0.9202  0.0214
 9160SOL     OW28299   3.162   2.979   0.354  0.3803  0.2901  0.4210
 9160SOL    HW128300   3.215   2.919   0.414  2.0236  1.6575  0.4106
 9160SOL    HW228301   3.101   3.036   0.408  0.7004  0.4108  0.6559
 9161SOL     OW28302   2.972   5.875   4.100 -0.4713  0.4033  0.5550
 9161SOL    HW128303   2.929   5.833   4.181 -2.4763 -0.1466 -0.7125
 9161SOL    HW228304   3.045   5.816   4.067 -1.4027 -0.7485  0.4564
 9162SOL     OW28305   1.852   2.501   5.010 -0.3427 -0.2226 -0.2667
 9162SOL    HW128306   1.766   2.543   4.981 -0.3781 -1.1000 -1.4773
 9162SOL    HW228307   1.926   2.530   4.950  0.0340 -0.2493  0.1750
 9163SOL     OW28308   3.598   6.261   6.295 -0.1915 -0.5413  0.4244
 9163SOL    HW128309   3.508   6.304   6.302 -0.0833 -0.3245  0.5031
 9163SOL    HW228310   3.668   6.326   6.326  0.3171  0.4525 -2.4728
 9164SOL     OW28311   3.158   4.376   0.333  0.4226 -0.1817 -0.3536
 9164SOL    HW128312   3.156   4.475   0.349  1.9476 -0.0437 -0.8567
 9164SOL    HW228313   3.092   4.352   0.262 -0.5361  0.3420  0.3352
 9165SOL     OW28314   6.819   1.342   0.975  0.0455  0.4145 -0.2076
 9165SOL    HW128315   6.784   1.386   1.058 -0.1117 -1.8460  1.0331
 9165SOL    HW228316   6.793   1.394   0.895  1.7742  3.7303  1.2003
 9166SOL     OW28317   4.706   0.146   6.340 -0.7569 -0.0741 -0.4697
 9166SOL    HW128318   4.614   0.109   6.325 -0.6404  0.0735 -1.6171
 9166SOL    HW228319   4.748   0.169   6.252  1.0948 -1.8504 -0.1336
 9167SOL     OW28320   1.321   0.518   6.529  0.7910  0.5154  0.0089
 9167SOL    HW128321   1.392   0.589   6.526  0.1146  1.1839 -1.6048
 9167SOL    HW228322   1.353   0.438   6.478  1.2280 -0.0601  1.1444
 9168SOL     OW28323   2.749   4.948   5.985 -0.1905  0.3324 -0.8768
 9168SOL    HW128324   2.739   5.035   6.033 -0.3869 -0.0208 -0.2655
 9168SOL    HW228325   2.674   4.887   6.011  0.9379 -0.6708  0.1239
 9169SOL     OW28326   0.666   0.629   3.184  0.1328 -0.2339  0.5813
 9169SOL    HW128327   0.568   0.631   3.161  0.4584 -1.2045 -0.9740
 9169SOL    HW228328   0.707   0.717   3.161 -0.5958  0.6959  2.5302
 9170SOL     OW28329   5.651   5.348   3.489  0.6627 -0.0399  0.2678
 9170SOL    HW128330   5.591   5.428   3.493  0.4550 -0.1847  0.0646
 9170SOL    HW228331   5.730   5.370   3.431  0.6145  0.0228  0.2246
 9171SOL     OW28332   0.055   3.080   0.025 -0.6184 -0.3215  0.2760
 9171SOL    HW128333  -0.011   3.110  -0.044 -1.0220  1.0230  1.2077
 9171SOL    HW228334   0.096   3.160   0.069  0.6253 -1.1519  0.6690
 9172SOL     OW28335   4.845   4.324   4.738  0.4221 -0.2695  0.3013
 9172SOL    HW128336   4.815   4.373   4.820  1.8971  0.3993  0.4629
 9172SOL    HW228337   4.942   4.341   4.722 -0.2173  1.2323 -2.7232
 9173SOL     OW28338   4.954   0.077   0.742 -0.5665 -0.4401 -0.2893
 9173SOL    HW128339   4.950   0.175   0.763  0.0350 -0.6707  0.9465
 9173SOL    HW228340   4.876   0.031   0.783  0.8140 -0.9516  1.8878
 9174SOL     OW28341   2.252   0.360   0.186  0.2749 -0.4094 -0.6493
 9174SOL    HW128342   2.186   0.407   0.127  0.0968  0.9273  0.5479
 9174SOL    HW228343   2.214   0.351   0.278  1.9225  0.8989  0.2240
 9175SOL     OW28344   4.865   0.633   0.795 -0.7698  0.1490 -1.1184
 9175SOL    HW128345   4.933   0.701   0.769 -0.0295 -0.8445 -1.8735
 9175SOL    HW228346   4.810   0.668   0.871  0.4237  1.0698 -0.6403
 9176SOL     OW28347   3.983   1.784   3.754  0.1926  0.8765 -0.0568
 9176SOL    HW128348   4.073   1.817   3.780 -0.3823  0.2526  3.2128
 9176SOL    HW228349   3.916   1.857   3.762 -0.1448  0.4468  1.3223
 9177SOL     OW28350   5.572   5.629   1.252  0.0856  0.5517  0.1500
 9177SOL    HW128351   5.531   5.632   1.344 -0.8879  1.6038 -0.3016
 9177SOL    HW228352   5.516   5.571   1.193  1.6598 -1.5641  0.6335
 9178SOL     OW28353   4.929   6.552   5.163  0.2133 -0.2017 -0.4681
 9178SOL    HW128354   4.864   6.476   5.167 -0.4926  0.2677 -2.1004
 9178SOL    HW228355   4.939   6.591   5.254 -1.4093 -0.6156 -0.0665
 9179SOL     OW28356   1.312   3.593   2.225  0.0362  0.1790  0.1984
 9179SOL    HW128357   1.399   3.639   2.245  0.8572 -0.6714 -1.2201
 9179SOL    HW228358   1.314   3.559   2.131 -1.7374 -0.1080  0.2437
 9180SOL     OW28359   0.144   6.642   3.072 -0.7976  0.2929  0.0944
 9180SOL    HW128360   0.079   6.658   3.146 -1.4107  3.0250 -0.9019
 9180SOL    HW228361   0.114   6.692   2.991  2.9340  2.4435 -0.1739
 9181SOL     OW28362   1.463   0.747   6.426  0.0544 -0.3036  0.0964
 9181SOL    HW128363   1.533   0.676   6.435 -0.1337 -0.3961  0.8754
 9181SOL    HW228364   1.486   0.824   6.486 -0.4388 -0.2717  0.2426
 9182SOL     OW28365   1.064   4.044   2.708  0.0985 -0.1096  0.0679
 9182SOL    HW128366   1.032   3.972   2.770 -0.9582  0.5588  0.3227
 9182SOL    HW228367   1.047   4.133   2.750 -0.7577  0.3574 -1.2363
 9183SOL     OW28368   0.311   6.665   5.137  0.3446  0.3412  0.4429
 9183SOL    HW128369   0.298   6.575   5.179  1.1621  0.6577  1.4275
 9183SOL    HW228370   0.405   6.695   5.153 -0.0457  1.5622  0.5054
 9184SOL     OW28371   5.818   1.661   0.643 -0.5090  0.1210  0.4723
 9184SOL    HW128372   5.859   1.644   0.553 -0.4981  0.3605  0.4298
 9184SOL    HW228373   5.735   1.606   0.652 -1.1589  0.9590 -0.1593
 9185SOL     OW28374   1.937   2.337   6.948 -0.1168  0.5593 -0.2622
 9185SOL    HW128375   1.921   2.397   7.026 -0.4324  0.5813 -0.3441
 9185SOL    HW228376   1.974   2.392   6.872  2.0202  0.2370  0.4634
 9186SOL     OW28377   5.381   6.946   3.272  0.1514  0.0302 -0.0108
 9186SOL    HW128378   5.286   6.933   3.243  0.4714  0.2228 -1.1906
 9186SOL    HW228379   5.442   6.935   3.193  1.0628  0.5111  0.6055
 9187SOL     OW28380   6.421   6.946   1.162  0.3041  0.4442 -0.3157
 9187SOL    HW128381   6.506   6.893   1.154  0.2103  0.1847  0.3138
 9187SOL    HW228382   6.443   7.038   1.197  0.2432  0.1033  0.6307
 9188SOL     OW28383   1.584   2.690   4.573 -0.1672  0.5025  0.0202
 9188SOL    HW128384   1.521   2.613   4.585 -0.3261  0.7251  0.6889
 9188SOL    HW228385   1.637   2.702   4.657  0.7238  0.3688 -0.5057
 9189SOL     OW28386   6.094   4.841   2.488  0.1468  0.3580 -0.1592
 9189SOL    HW128387   6.117   4.922   2.435 -1.2876 -0.5007 -2.2093
 9189SOL    HW228388   6.009   4.801   2.455  0.4713 -1.6511  1.1861
 9190SOL     OW28389   6.984   4.742   2.836 -0.0133 -0.5073 -0.0998
 9190SOL    HW128390   7.047   4.810   2.798  0.1547 -0.9948 -0.7013
 9190SOL    HW228391   6.897   4.786   2.857  0.2282 -0.0203 -0.0857
 9191SOL     OW28392   5.685   0.154   0.925 -0.2350 -0.1847  0.5421
 9191SOL    HW128393   5.592   0.118   0.915 -0.7542  0.9713  0.9917
 9191SOL    HW228394   5.709   0.157   1.023  1.2793 -2.8211  0.3718
 9192SOL     OW28395   0.903   0.891   4.405 -0.1405  0.2355  0.3886
 9192SOL    HW128396   0.928   0.873   4.310  0.8483  0.3943  0.6126
 9192SOL    HW228397   0.939   0.818   4.464  0.2231  0.7199  0.7747
 9193SOL     OW28398   6.885   3.399   0.021  0.1893  0.3177 -0.4562
 9193SOL    HW128399   6.878   3.322  -0.043 -1.2514 -0.3896  0.5192
 9193SOL    HW228400   6.981   3.421   0.036  0.6958 -2.0615  0.1280
 9194SOL     OW28401   1.218   4.203   4.092 -0.8150 -0.2017 -0.6604
 9194SOL    HW128402   1.184   4.171   4.180  0.9547  0.4622  0.3234
 9194SOL    HW228403   1.317   4.184   4.086 -0.6283  1.0496 -1.8905
 9195SOL     OW28404   4.274   5.692   3.359 -0.9011 -0.5537 -1.2696
 9195SOL    HW128405   4.290   5.683   3.457 -1.2759 -0.4132 -1.1956
 9195SOL    HW228406   4.177   5.708   3.342 -1.0137 -1.5911 -1.7266
 9196SOL     OW28407   2.935   6.655   6.674 -0.3179  0.0535 -0.2457
 9196SOL    HW128408   2.957   6.558   6.686 -0.5513  0.2150  1.8010
 9196SOL    HW228409   2.838   6.669   6.696 -0.1060  0.8625  0.1855
 9197SOL     OW28410   2.301   3.828   0.388  0.1895  0.5305  0.1267
 9197SOL    HW128411   2.381   3.883   0.411  1.5336 -1.1698 -0.2873
 9197SOL    HW228412   2.317   3.733   0.414  0.0715 -0.6927 -3.6544
 9198SOL     OW28413   6.853   2.389   5.620 -0.4587  0.3498  0.0995
 9198SOL    HW128414   6.822   2.476   5.659 -0.6892  1.0576 -1.5918
 9198SOL    HW228415   6.806   2.373   5.534  0.5356 -0.8294 -0.2436
 9199SOL     OW28416   5.930   3.277   1.826 -0.4742  0.7843  0.6402
 9199SOL    HW128417   5.898   3.202   1.769  1.1979  0.4375  0.1061
 9199SOL    HW228418   6.012   3.317   1.786  0.4148  0.9241  2.4772
 9200SOL     OW28419   0.206   4.530   1.209 -0.5607 -0.3506  0.1345
 9200SOL    HW128420   0.162   4.510   1.297  1.5576  1.0479  1.6187
 9200SOL    HW228421   0.171   4.616   1.172  0.7843  0.7499  1.3016
 9201SOL     OW28422   6.807   6.087   2.465 -0.0448  0.1209 -0.0442
 9201SOL    HW128423   6.875   6.151   2.502 -0.2135 -0.9367  2.2861
 9201SOL    HW228424   6.770   6.123   2.380  2.0135  1.6600 -0.3627
 9202SOL     OW28425   0.714   0.961   0.005  0.0813 -0.2401 -0.4817
 9202SOL    HW128426   0.678   0.872   0.031 -0.6138 -0.1102 -0.9834
 9202SOL    HW228427   0.725   1.018   0.087  0.0567 -0.6116 -0.2201
 9203SOL     OW28428   6.818   1.827   2.171  0.3315  0.2073 -0.2528
 9203SOL    HW128429   6.890   1.886   2.208  0.5959 -1.3032  1.8592
 9203SOL    HW228430   6.730   1.874   2.174  0.8108  1.1231 -0.3439
 9204SOL     OW28431   0.557   3.331   3.485  0.0491 -0.4461  0.2118
 9204SOL    HW128432   0.461   3.309   3.465  0.4862 -0.3867 -2.2325
 9204SOL    HW228433   0.615   3.252   3.464  0.6280 -0.2229  0.9341
 9205SOL     OW28434   5.281   3.504   5.420  0.0387  0.2667  0.2621
 9205SOL    HW128435   5.257   3.499   5.323  1.0161  1.3557 -0.0432
 9205SOL    HW228436   5.197   3.513   5.474 -0.7012 -2.3748 -0.2838
 9206SOL     OW28437   3.792   3.581   6.430 -0.3994 -0.2066 -0.6326
 9206SOL    HW128438   3.854   3.553   6.503  0.6548  2.5229 -0.3624
 9206SOL    HW228439   3.842   3.584   6.343 -0.9846 -0.9406 -1.0063
 9207SOL     OW28440   0.668   6.583   3.776  0.1275 -0.2783  0.0550
 9207SOL    HW128441   0.681   6.566   3.874  0.3207 -2.9239 -0.3526
 9207SOL    HW228442   0.745   6.544   3.725 -0.5017  0.1083 -1.2394
 9208SOL     OW28443   2.702   0.882   3.088  0.1267  0.0146 -0.1089
 9208SOL    HW128444   2.706   0.884   3.188  1.7786  0.8322 -0.1538
 9208SOL    HW228445   2.758   0.957   3.051 -0.8917  0.0623 -1.6511
 9209SOL     OW28446   6.636   5.592   5.142 -0.0480  0.2606 -0.0431
 9209SOL    HW128447   6.694   5.578   5.062 -0.4410  1.5523 -0.5855
 9209SOL    HW228448   6.672   5.667   5.196  0.9187 -1.3829  1.7079
 9210SOL     OW28449   2.745   6.982   2.792  0.1144  0.3478 -0.0046
 9210SOL    HW128450   2.717   7.063   2.843  1.0267  1.6379 -1.4892
 9210SOL    HW228451   2.775   7.008   2.700 -0.0187 -1.7313 -0.6947
 9211SOL     OW28452   5.705   2.802   3.861 -0.2315  0.0071 -0.4114
 9211SOL    HW128453   5.804   2.811   3.876 -0.2061 -1.2317  0.2837
 9211SOL    HW228454   5.656   2.860   3.926 -0.0079 -2.0279  1.7281
 9212SOL     OW28455   0.276   6.077   6.285 -0.2620  0.5443  0.8687
 9212SOL    HW128456   0.364   6.029   6.287 -0.3895  0.2581  0.0576
 9212SOL    HW228457   0.280   6.156   6.346  0.1506 -0.1493  1.7586
 9213SOL     OW28458   5.066   5.484   4.269  0.8149  0.0405  0.3031
 9213SOL    HW128459   5.148   5.430   4.253  1.8119  0.8314  2.3831
 9213SOL    HW228460   5.091   5.581   4.276 -0.7375  0.6624 -1.9663
 9214SOL     OW28461   0.267   1.782   5.346  0.0800 -0.4581 -0.3222
 9214SOL    HW128462   0.328   1.780   5.267 -1.6915 -1.0258 -1.7336
 9214SOL    HW228463   0.320   1.802   5.428  1.7220  2.0024 -1.8597
 9215SOL     OW28464   6.573   6.112   5.461  0.5116  0.2618 -0.0969
 9215SOL    HW128465   6.670   6.133   5.454  0.9067  0.5433  3.8744
 9215SOL    HW228466   6.561   6.016   5.485 -0.3203 -0.0194 -1.4992
 9216SOL     OW28467   1.215   3.470   1.643 -0.0695  0.2208  0.2725
 9216SOL    HW128468   1.306   3.464   1.602 -0.7992 -0.3687 -1.3693
 9216SOL    HW228469   1.199   3.563   1.675  0.5307  0.7418 -0.8671
 9217SOL     OW28470   1.604   3.906   5.962 -0.0593 -0.1750 -0.1064
 9217SOL    HW128471   1.548   3.896   5.880  0.5818 -0.7413 -0.4962
 9217SOL    HW228472   1.554   3.958   6.031 -1.7887 -2.1764  0.2427
 9218SOL     OW28473   5.169   3.044   6.748  0.0024  0.4210 -0.0365
 9218SOL    HW128474   5.212   3.134   6.738  1.0625 -0.1080 -0.4614
 9218SOL    HW228475   5.232   2.982   6.795 -0.8235 -0.0341  0.4934
 9219SOL     OW28476   5.264   4.667   5.745  0.0228 -0.0143  0.3932
 9219SOL    HW128477   5.177   4.653   5.697  0.6399  1.0698 -1.1262
 9219SOL    HW228478   5.338   4.675   5.678  1.3805 -1.2979  1.6687
 9220SOL     OW28479   2.708   6.362   0.550 -0.6005 -0.7426  0.0894
 9220SOL    HW128480   2.775   6.412   0.605  1.2022 -2.2653 -0.6149
 9220SOL    HW228481   2.720   6.385   0.454 -1.4342 -0.6488  0.0055
 9221SOL     OW28482   0.646   5.890   1.558 -0.0912  0.1326 -0.5446
 9221SOL    HW128483   0.686   5.981   1.569 -2.5256  1.2214  0.0960
 9221SOL    HW228484   0.718   5.824   1.540  1.7990  2.1314 -0.8022
 9222SOL     OW28485   2.874   1.572   2.434 -0.3028 -0.2524  0.1369
 9222SOL    HW128486   2.931   1.520   2.371  1.6365 -0.3488  1.8759
 9222SOL    HW228487   2.804   1.512   2.472  0.5132 -1.0336  0.4405
 9223SOL     OW28488   1.616   6.878   5.302 -0.0976 -0.1662 -0.0917
 9223SOL    HW128489   1.523   6.894   5.335  0.5437 -0.0012  1.8082
 9223SOL    HW228490   1.677   6.866   5.381  1.5890  0.2982 -1.2766
 9224SOL     OW28491   6.614   3.345   3.101 -0.1607  0.2359 -0.5329
 9224SOL    HW128492   6.537   3.301   3.055 -0.7240  1.3057 -0.6566
 9224SOL    HW228493   6.623   3.438   3.066  0.7123  0.3714  0.0433
 9225SOL     OW28494   2.960   4.093   0.752 -0.2993  0.9692  0.2547
 9225SOL    HW128495   2.963   4.147   0.668  1.5658  0.8259  0.1850
 9225SOL    HW228496   2.917   4.146   0.824 -0.4204  1.7288 -0.3632
 9226SOL     OW28497   5.012   4.480   3.005  0.1988  0.1474  0.2688
 9226SOL    HW128498   5.002   4.471   2.906  0.0563  2.1651  0.0710
 9226SOL    HW228499   4.923   4.504   3.045  0.1299 -1.1960  0.9866
 9227SOL     OW28500   1.541   1.488   4.983 -0.2336  0.0314  0.4381
 9227SOL    HW128501   1.626   1.516   5.028 -0.5682 -1.2699  1.9766
 9227SOL    HW228502   1.482   1.443   5.050 -1.6179 -0.1843 -0.8960
 9228SOL     OW28503   4.029   0.140   2.080 -0.6906 -0.5631 -0.3275
 9228SOL    HW128504   3.975   0.087   2.015  1.7565 -0.9697 -2.1671
 9228SOL    HW228505   4.038   0.234   2.048 -1.5593 -0.0683  0.7929
 9229SOL     OW28506   0.353   1.635   3.603 -0.1706 -0.6388 -0.4897
 9229SOL    HW128507   0.424   1.643   3.533 -0.0546 -1.1833 -0.4380
 9229SOL    HW228508   0.269   1.599   3.562 -1.0184  1.6252 -0.9380
 9230SOL     OW28509   6.068   3.767   4.331 -0.4635  0.5766 -0.1538
 9230SOL    HW128510   5.971   3.744   4.342 -0.2373  0.6278  2.5217
 9230SOL    HW228511   6.123   3.702   4.383  0.8074  1.7428 -0.0098
 9231SOL     OW28512   3.357   2.175   0.994  0.7557  0.1025 -0.0212
 9231SOL    HW128513   3.359   2.273   0.977  3.3843  0.2926  0.9211
 9231SOL    HW228514   3.437   2.132   0.952 -0.5341 -1.7272 -0.7234
 9232SOL     OW28515   2.654   0.292   3.276  0.2435  0.7635 -0.5198
 9232SOL    HW128516   2.569   0.256   3.316  0.5962  0.4953 -0.0019
 9232SOL    HW228517   2.634   0.373   3.222 -0.6822 -0.4869 -2.1777
 9233SOL     OW28518   3.686   5.028   3.815 -0.3167  0.7415 -0.1502
 9233SOL    HW128519   3.696   5.119   3.855 -0.2013  0.7251 -0.1408
 9233SOL    HW228520   3.719   5.029   3.721 -2.0756  1.1745 -0.8043
 9234SOL     OW28521   3.360   6.058   4.383  0.1785 -0.2568 -0.2528
 9234SOL    HW128522   3.291   6.077   4.313  1.5365  1.5158 -1.2114
 9234SOL    HW228523   3.429   6.130   4.381  1.9978 -1.8817  0.7584
 9235SOL     OW28524   1.996   2.045   2.459 -0.2808 -0.0006  0.0889
 9235SOL    HW128525   1.956   1.974   2.401 -0.6283  0.8888 -0.8002
 9235SOL    HW228526   2.002   2.130   2.407  1.1203  0.3552  0.7863
 9236SOL     OW28527   6.886   4.902   5.424 -0.1491 -0.6751  0.4485
 9236SOL    HW128528   6.862   4.963   5.349  1.2083  0.4174  0.8517
 9236SOL    HW228529   6.920   4.816   5.387 -0.2566 -0.4597 -0.1681
 9237SOL     OW28530   6.204   2.149   3.542 -0.4320  0.0167 -0.4476
 9237SOL    HW128531   6.238   2.131   3.449 -0.6622 -1.7727 -0.2215
 9237SOL    HW228532   6.108   2.121   3.548 -0.9196  1.6921 -0.1010
 9238SOL     OW28533   4.350   4.623   4.109  0.0435  0.4026 -0.5486
 9238SOL    HW128534   4.298   4.620   4.024 -1.8395 -1.0122  0.5726
 9238SOL    HW228535   4.287   4.633   4.186  1.5994  0.3501  0.7827
 9239SOL     OW28536   4.980   2.753   5.295 -0.1003  0.5161  0.1917
 9239SOL    HW128537   4.885   2.761   5.322 -0.1733  1.7254 -0.3555
 9239SOL    HW228538   5.024   2.843   5.299  0.1455  0.6179 -2.5889
 9240SOL     OW28539   1.593   3.409   5.102  0.4689  0.7532 -0.5170
 9240SOL    HW128540   1.501   3.372   5.102  0.5718  0.4973 -0.7810
 9240SOL    HW228541   1.632   3.403   5.010  0.8229  0.6710 -0.3630
 9241SOL     OW28542   6.820   0.866   0.848 -0.2643  0.3213 -0.3128
 9241SOL    HW128543   6.747   0.935   0.842 -0.8902 -0.3974 -1.1122
 9241SOL    HW228544   6.812   0.817   0.935  0.9066  2.0185  0.8149
 9242SOL     OW28545   6.637   3.707   3.167 -0.4129 -0.2245 -0.1773
 9242SOL    HW128546   6.702   3.762   3.115 -0.7790 -1.2103 -1.7469
 9242SOL    HW228547   6.577   3.658   3.104 -2.0354 -0.1168  1.2167
 9243SOL     OW28548   3.025   1.224   3.741  0.9962 -0.2261 -0.0158
 9243SOL    HW128549   3.042   1.185   3.651 -0.4526  0.3115 -0.5421
 9243SOL    HW228550   2.962   1.164   3.792  0.0639  0.5701 -0.2084
 9244SOL     OW28551   2.633   3.504   0.574  0.2602  0.3772 -0.0859
 9244SOL    HW128552   2.596   3.457   0.654  0.9239  0.9809  0.5818
 9244SOL    HW228553   2.559   3.556   0.530 -0.2699 -0.5348 -0.3014
 9245SOL     OW28554   1.320   4.194   6.285 -0.4609 -0.0256 -0.2138
 9245SOL    HW128555   1.232   4.162   6.322 -1.1505 -1.1334 -2.5987
 9245SOL    HW228556   1.316   4.292   6.270 -0.8728  0.1124  0.6996
 9246SOL     OW28557   5.627   6.751   3.662 -0.5259 -0.0458 -0.3701
 9246SOL    HW128558   5.596   6.764   3.756 -0.5059  0.7431 -0.4712
 9246SOL    HW228559   5.548   6.748   3.601 -0.6896 -2.4527 -0.1402
 9247SOL     OW28560   2.416   6.705   5.240  0.1946  0.3355 -0.5028
 9247SOL    HW128561   2.371   6.628   5.285 -1.0001  1.8469  1.0688
 9247SOL    HW228562   2.377   6.790   5.275  1.4439  1.6640 -2.1943
 9248SOL     OW28563   5.800   2.663   6.642 -0.1225  0.4779  0.1133
 9248SOL    HW128564   5.830   2.726   6.571  0.8979 -0.1519 -0.0243
 9248SOL    HW228565   5.700   2.655   6.639 -0.4848  3.3599  1.2269
 9249SOL     OW28566   3.919   5.072   4.967  0.6753 -0.1584 -0.0441
 9249SOL    HW128567   3.854   5.058   4.893  0.6249  1.6768 -0.3935
 9249SOL    HW228568   3.875   5.056   5.055  0.2339 -0.5928 -0.3442
 9250SOL     OW28569   1.913   6.373   6.972  0.3603  1.1817 -0.5105
 9250SOL    HW128570   1.815   6.388   6.987  0.4589  0.7935  0.6475
 9250SOL    HW228571   1.964   6.447   7.015  0.5599  2.2466 -2.4459
 9251SOL     OW28572   3.985   6.465   4.490  0.1344 -0.0081  0.8885
 9251SOL    HW128573   3.976   6.504   4.581 -0.4279 -0.2993  0.9617
 9251SOL    HW228574   4.064   6.405   4.487 -1.2242 -1.9702  1.9177
 9252SOL     OW28575   2.828   5.331   3.254  0.1519 -0.7742  0.3800
 9252SOL    HW128576   2.896   5.318   3.325  0.5530  0.5302  0.2624
 9252SOL    HW228577   2.806   5.428   3.247 -0.2394 -0.9436 -0.9466
 9253SOL     OW28578   0.664   4.458   1.510 -0.1619  0.8667 -0.3141
 9253SOL    HW128579   0.652   4.501   1.599 -0.4154 -0.5490  0.3608
 9253SOL    HW228580   0.583   4.405   1.487  1.4202 -2.1403  0.5450
 9254SOL     OW28581   0.398   5.342   3.665 -0.0752  0.1249 -0.0711
 9254SOL    HW128582   0.465   5.268   3.664  0.8811  0.9554 -1.5979
 9254SOL    HW228583   0.366   5.358   3.758  1.0470 -0.9932  0.5237
 9255SOL     OW28584   6.228   5.580   2.070 -0.2935  0.5654  0.3517
 9255SOL    HW128585   6.288   5.549   2.143 -0.3071  1.4758  0.7631
 9255SOL    HW228586   6.162   5.508   2.048  0.6840 -0.2838  0.1711
 9256SOL     OW28587   3.461   3.835   6.265 -0.3749  0.4033 -0.3801
 9256SOL    HW128588   3.459   3.744   6.307  0.8877  0.7613  0.5173
 9256SOL    HW228589   3.392   3.840   6.193 -0.7065 -1.1454 -0.2052
 9257SOL     OW28590   0.191   5.330   1.557  0.2711  0.2652  0.3682
 9257SOL    HW128591   0.282   5.289   1.554  0.4656  0.6084  1.1182
 9257SOL    HW228592   0.129   5.269   1.607  0.2171  0.2589  0.2929
 9258SOL     OW28593   5.350   0.885   5.849  0.0060 -0.2125 -0.4131
 9258SOL    HW128594   5.310   0.973   5.875  0.2466 -0.2656  0.1443
 9258SOL    HW228595   5.315   0.858   5.759  1.7883  1.6312 -1.7322
 9259SOL     OW28596   0.837   0.248   2.468  0.2406 -0.0187 -0.4990
 9259SOL    HW128597   0.907   0.186   2.434 -0.4829  0.1039 -2.3519
 9259SOL    HW228598   0.852   0.266   2.565  1.7519 -1.3213 -0.4530
 9260SOL     OW28599   5.689   1.126   6.772 -0.4729  0.2096 -0.1475
 9260SOL    HW128600   5.786   1.144   6.790  0.2217 -1.2037 -2.0315
 9260SOL    HW228601   5.681   1.042   6.718 -2.6987  0.7979 -0.8277
 9261SOL     OW28602   0.153   6.013   0.509  0.3247 -0.6285  0.1431
 9261SOL    HW128603   0.125   6.054   0.423  2.5253 -0.6025 -0.6372
 9261SOL    HW228604   0.181   6.084   0.573  1.9894 -0.7276 -0.4102
 9262SOL     OW28605   2.014   5.848   1.580 -0.6462 -0.8311 -0.0641
 9262SOL    HW128606   2.059   5.792   1.650 -0.4181  0.1998  0.6273
 9262SOL    HW228607   2.074   5.856   1.501  0.3563  0.3636  0.7709
 9263SOL     OW28608   5.484   3.958   4.750 -0.7953  0.4604  0.1677
 9263SOL    HW128609   5.485   4.010   4.665 -0.2732 -1.2609 -0.9423
 9263SOL    HW228610   5.569   3.905   4.757 -0.7824  0.6538  1.8296
 9264SOL     OW28611   4.734   3.521   1.710  0.5153  0.9834  0.2588
 9264SOL    HW128612   4.771   3.472   1.788  0.1869 -0.4348 -0.4501
 9264SOL    HW228613   4.699   3.456   1.643 -1.4739  2.2230  0.0266
 9265SOL     OW28614   1.517   3.792   4.298 -0.4638  0.6622  0.6237
 9265SOL    HW128615   1.505   3.708   4.245  2.1599  1.2460 -1.0892
 9265SOL    HW228616   1.598   3.783   4.357 -2.4522  0.5990  3.5502
 9266SOL     OW28617   0.718   6.729   4.780 -0.1726  0.6124 -0.6186
 9266SOL    HW128618   0.752   6.791   4.710 -1.1025  2.3725  0.3952
 9266SOL    HW228619   0.725   6.773   4.870 -2.0556 -0.2167 -0.0044
 9267SOL     OW28620   3.455   3.657   5.080 -0.0075  0.1403 -0.1151
 9267SOL    HW128621   3.514   3.605   5.142  3.5658  0.9887 -2.4451
 9267SOL    HW228622   3.405   3.595   5.020 -0.4898 -0.6137  1.0453
 9268SOL     OW28623   5.679   6.960   4.398  0.4146  0.3861  0.5030
 9268SOL    HW128624   5.696   7.058   4.397 -1.4720  0.8106  2.2188
 9268SOL    HW228625   5.643   6.933   4.488 -1.2561 -1.4704 -0.6228
 9269SOL     OW28626   0.465   3.940   5.984 -0.2610  0.1071 -0.3811
 9269SOL    HW128627   0.386   3.902   6.031  0.9275 -1.4052  0.4880
 9269SOL    HW228628   0.525   3.984   6.050 -0.6736  1.8699 -1.1311
 9270SOL     OW28629   6.474   6.468   0.672 -0.0763 -0.2343  0.0410
 9270SOL    HW128630   6.459   6.422   0.759 -1.0043 -1.7034 -0.8479
 9270SOL    HW228631   6.389   6.466   0.618  0.4687  0.6451 -0.8896
 9271SOL     OW28632   0.320   2.233   1.448  0.4605 -0.6423 -0.4263
 9271SOL    HW128633   0.401   2.177   1.431  0.3516 -0.7037 -0.7563
 9271SOL    HW228634   0.345   2.329   1.444  0.7520 -0.6612  0.6559
 9272SOL     OW28635   5.071   3.683   2.761 -0.5684 -0.7575  0.3040
 9272SOL    HW128636   5.005   3.609   2.761  1.5365 -2.7830  1.4954
 9272SOL    HW228637   5.108   3.696   2.669 -1.2597 -0.8806  0.0074
 9273SOL     OW28638   1.383   2.980   1.404 -0.1635 -0.2407  0.0247
 9273SOL    HW128639   1.298   2.957   1.356  1.2979 -1.1852 -2.3004
 9273SOL    HW228640   1.382   3.076   1.432 -1.6346 -0.0180 -0.7335
 9274SOL     OW28641   3.257   5.273   3.358  0.0959 -0.0783 -0.2533
 9274SOL    HW128642   3.290   5.354   3.308  0.2028 -0.1051 -0.2262
 9274SOL    HW228643   3.322   5.250   3.430  0.5154 -0.7231 -0.8331
 9275SOL     OW28644   5.677   4.674   1.834  0.2323  0.9685  0.2495
 9275SOL    HW128645   5.767   4.669   1.792  0.0269 -0.9603 -0.0450
 9275SOL    HW228646   5.607   4.670   1.762 -0.0933 -0.3598  0.6161
 9276SOL     OW28647   6.067   3.942   1.022 -0.6168  0.0827  0.4290
 9276SOL    HW128648   6.113   3.967   1.107  0.9386 -1.2715  0.0511
 9276SOL    HW228649   6.016   3.857   1.035 -4.0165  2.0510  1.1166
 9277SOL     OW28650   3.363   1.152   6.048  0.1892 -0.0098  0.1489
 9277SOL    HW128651   3.462   1.143   6.033  0.0222 -1.8004 -0.1723
 9277SOL    HW228652   3.346   1.194   6.136  1.2208  2.7156 -0.8594
 9278SOL     OW28653   1.246   1.701   0.319 -0.4013  0.2318 -0.2465
 9278SOL    HW128654   1.277   1.641   0.393 -0.3878  0.0970 -0.3596
 9278SOL    HW228655   1.146   1.701   0.316 -0.4765 -2.6606 -2.5002
 9279SOL     OW28656   1.575   5.460   5.739 -0.2797  0.5645 -0.0821
 9279SOL    HW128657   1.501   5.394   5.753 -0.6550  0.6741 -1.4974
 9279SOL    HW228658   1.638   5.426   5.669 -0.0248  1.3439 -0.2418
 9280SOL     OW28659   1.968   1.170   0.513 -0.8948  0.3841 -0.0415
 9280SOL    HW128660   1.996   1.262   0.487 -0.5308  0.4691  0.6403
 9280SOL    HW228661   2.018   1.141   0.595 -1.7537 -0.0186  0.3544
 9281SOL     OW28662   0.076   3.412   1.669 -0.6868  0.2918  0.3034
 9281SOL    HW128663   0.018   3.385   1.746 -0.7725 -0.7714 -0.1181
 9281SOL    HW228664   0.051   3.359   1.588 -0.4108  1.1983 -0.3910
 9282SOL     OW28665   4.676   0.831   6.502 -0.0475 -0.4850 -0.5621
 9282SOL    HW128666   4.705   0.739   6.528  0.4011  0.5527  3.2696
 9282SOL    HW228667   4.755   0.892   6.502 -0.6532  0.3138 -0.8245
 9283SOL     OW28668   6.409   1.766   2.056 -0.4344  0.2165 -0.1729
 9283SOL    HW128669   6.435   1.771   1.959 -2.0475 -0.0339 -0.6485
 9283SOL    HW228670   6.436   1.677   2.093  0.7977  0.5691 -0.1911
 9284SOL     OW28671   5.738   2.653   2.738 -0.1283 -0.2248 -0.3445
 9284SOL    HW128672   5.757   2.699   2.652  2.2674 -3.1205 -1.5099
 9284SOL    HW228673   5.641   2.629   2.742 -0.4541  0.7124 -1.8003
 9285SOL     OW28674   4.408   1.934   4.055  0.1565 -0.3995 -0.3958
 9285SOL    HW128675   4.501   1.943   4.018  0.0122  2.2654 -0.2704
 9285SOL    HW228676   4.410   1.947   4.154 -0.3139 -0.7943 -0.3318
 9286SOL     OW28677   1.044   0.474   4.776  0.5073  0.8005  0.2117
 9286SOL    HW128678   0.978   0.405   4.806  0.1378  0.7643 -0.6805
 9286SOL    HW228679   1.121   0.430   4.730 -0.2719  1.0397 -1.3749
 9287SOL     OW28680   3.699   5.457   5.742  0.0476  0.1831  0.0594
 9287SOL    HW128681   3.728   5.509   5.662 -1.8287  0.3858 -0.5421
 9287SOL    HW228682   3.769   5.390   5.765  1.0411  0.7561 -1.1718
 9288SOL     OW28683   6.089   4.859   2.944 -0.1194 -0.3928  0.0516
 9288SOL    HW128684   6.090   4.796   3.022 -0.1347 -0.8714 -0.3292
 9288SOL    HW228685   5.995   4.889   2.927  0.0193  0.6237  0.9256
 9289SOL     OW28686   3.894   1.948   0.199  0.0735  0.7092 -0.2482
 9289SOL    HW128687   3.852   2.006   0.130  2.3441  2.0292 -0.6174
 9289SOL    HW228688   3.958   2.002   0.254  1.6016 -1.2100 -0.0108
 9290SOL     OW28689   2.474   0.088   2.565 -0.1496 -0.4151  0.4330
 9290SOL    HW128690   2.427   0.170   2.534 -0.7098 -1.0801 -0.5171
 9290SOL    HW228691   2.563   0.081   2.521 -0.5298 -0.8416 -0.2795
 9291SOL     OW28692   1.995   6.673   4.060 -0.3551  0.5451 -0.2178
 9291SOL    HW128693   2.010   6.583   4.101 -0.7404  1.2450  1.5382
 9291SOL    HW228694   2.082   6.711   4.031  0.2360  0.8603  1.8234
 9292SOL     OW28695   3.187   0.339   2.581 -0.4874 -0.4183 -0.2956
 9292SOL    HW128696   3.207   0.394   2.662 -2.1041 -0.1452 -0.0628
 9292SOL    HW228697   3.261   0.352   2.514  0.3531  0.1533  0.7045
 9293SOL     OW28698   6.395   1.051   6.027  0.4830 -0.1312  0.0533
 9293SOL    HW128699   6.418   0.954   6.025 -0.9888 -0.5085  0.1071
 9293SOL    HW228700   6.301   1.063   6.061  0.7541  1.3351  0.3776
 9294SOL     OW28701   2.713   2.613   6.449 -0.2742  0.3019 -0.2971
 9294SOL    HW128702   2.708   2.564   6.536  0.3135 -0.3973 -0.6412
 9294SOL    HW228703   2.634   2.673   6.439 -0.8894 -0.3989  0.2532
 9295SOL     OW28704   2.946   1.553   0.944  0.9037  0.0293  0.0159
 9295SOL    HW128705   2.930   1.638   0.993  1.4391 -0.7111  1.5141
 9295SOL    HW228706   2.981   1.484   1.007 -0.4757 -1.6083 -0.9346
 9296SOL     OW28707   1.245   2.135   5.459  0.0567  0.2109  0.1892
 9296SOL    HW128708   1.314   2.137   5.531  2.8848 -1.6556 -2.2339
 9296SOL    HW228709   1.168   2.079   5.489 -0.6854  2.5179  3.0670
 9297SOL     OW28710   2.364   3.036   0.626  0.7021  0.1974 -0.2307
 9297SOL    HW128711   2.435   3.092   0.584  2.0828 -0.7420  0.7606
 9297SOL    HW228712   2.374   3.040   0.726 -0.6591  0.0467 -0.0716
 9298SOL     OW28713   5.764   3.152   3.836 -0.5304  0.3350  0.6179
 9298SOL    HW128714   5.723   3.072   3.880  0.7050 -0.0651  1.1061
 9298SOL    HW228715   5.853   3.171   3.878  0.8423 -0.2228 -1.8272
 9299SOL     OW28716   3.014   4.824   0.707  0.0399  0.6664 -0.8048
 9299SOL    HW128717   3.015   4.830   0.807 -0.4783  0.4544 -0.7825
 9299SOL    HW228718   3.107   4.810   0.673  0.4081  1.9999 -0.4315
 9300SOL     OW28719   4.828   3.695   1.124  0.1989  0.1201 -0.3202
 9300SOL    HW128720   4.895   3.639   1.076 -1.3287 -0.3664 -2.0261
 9300SOL    HW228721   4.758   3.636   1.165 -0.8035  0.6659 -1.1650
 9301SOL     OW28722   0.082   6.287   4.455 -0.0298 -0.0330  0.0196
 9301SOL    HW128723   0.095   6.210   4.393  0.0854  0.0517 -0.0623
 9301SOL    HW228724   0.149   6.282   4.528  0.8108  0.6800 -0.6784
 9302SOL     OW28725   5.504   6.927   6.839 -0.1109  0.1874  0.2126
 9302SOL    HW128726   5.452   6.924   6.753 -0.9372 -0.4167  0.7208
 9302SOL    HW228727   5.484   7.013   6.887 -0.8507 -0.1545  0.5272
 9303SOL     OW28728   3.057   1.168   6.861  0.4049 -0.5517  0.9519
 9303SOL    HW128729   3.124   1.096   6.843 -2.0566 -3.0890  1.1570
 9303SOL    HW228730   2.989   1.134   6.926 -2.1170  1.1660 -0.6056
 9304SOL     OW28731   5.264   5.634   3.692  0.0933 -0.3571 -0.0730
 9304SOL    HW128732   5.266   5.672   3.600  1.0557 -0.5786 -0.1548
 9304SOL    HW228733   5.212   5.548   3.691 -0.9172  0.2372 -0.1565
 9305SOL     OW28734   2.032   4.407   4.557 -0.2862  0.2855 -0.2883
 9305SOL    HW128735   2.131   4.419   4.568 -0.6650  2.7678  1.0295
 9305SOL    HW228736   1.993   4.488   4.514 -1.7235 -0.9221 -1.3742
 9306SOL     OW28737   1.629   2.240   2.134  0.1178 -0.0334  0.1206
 9306SOL    HW128738   1.596   2.148   2.155 -1.0361  0.6453  1.5179
 9306SOL    HW228739   1.727   2.237   2.114  0.1887 -1.4979  0.5589
 9307SOL     OW28740   0.001   5.925   5.311  0.2813 -0.6042  0.3227
 9307SOL    HW128741  -0.045   6.005   5.274  1.4588 -0.0980 -0.1020
 9307SOL    HW228742   0.089   5.913   5.266  0.7008 -1.3734  1.2984
 9308SOL     OW28743   1.740   1.320   4.293 -0.0019 -0.1959  0.1040
 9308SOL    HW128744   1.695   1.409   4.282  0.9265  0.2522 -0.1614
 9308SOL    HW228745   1.678   1.257   4.341 -1.4222 -0.0006 -1.3711
 9309SOL     OW28746   5.054   4.266   1.628  0.3251  0.2425 -0.4979
 9309SOL    HW128747   4.969   4.312   1.605 -0.0454  0.0068  0.3741
 9309SOL    HW228748   5.107   4.250   1.545 -0.2952  0.7453 -0.9967
 9310SOL     OW28749   3.680   0.526   5.459 -0.3257 -0.4390  0.5202
 9310SOL    HW128750   3.777   0.540   5.438 -0.2406  1.8099  2.1379
 9310SOL    HW228751   3.648   0.443   5.414  2.6619 -1.9362  0.9426
 9311SOL     OW28752   6.469   2.366   5.513 -0.6535 -0.1942  0.2814
 9311SOL    HW128753   6.426   2.348   5.424  1.1496 -0.7590 -0.5351
 9311SOL    HW228754   6.523   2.286   5.540  2.9493  1.6852 -0.6612
 9312SOL     OW28755   2.152   5.311   1.663  0.3552  0.4468 -0.7577
 9312SOL    HW128756   2.108   5.273   1.582 -0.8018  2.4062 -1.1056
 9312SOL    HW228757   2.201   5.394   1.639  2.2607 -0.3599  0.0986
 9313SOL     OW28758   5.960   2.338   2.845  0.1586  0.2021 -0.5198
 9313SOL    HW128759   6.039   2.281   2.826 -0.9731 -1.5205 -0.2583
 9313SOL    HW228760   5.987   2.414   2.904  1.6100 -0.3195 -0.4660
 9314SOL     OW28761   0.382   3.949   0.979 -0.0744  1.0387  0.2235
 9314SOL    HW128762   0.404   4.042   0.952 -0.7331  1.0697 -0.2265
 9314SOL    HW228763   0.290   3.926   0.948  1.1331 -0.8060 -2.4654
 9315SOL     OW28764   1.859   4.898   4.711 -0.5573 -0.2395  0.3962
 9315SOL    HW128765   1.881   4.882   4.615  0.4841 -1.8295  0.8636
 9315SOL    HW228766   1.867   4.996   4.732 -1.1254  0.1660 -1.1908
 9316SOL     OW28767   6.088   1.517   0.434  0.3721  0.2498  0.3167
 9316SOL    HW128768   6.027   1.592   0.410 -0.3188  0.6309  3.0242
 9316SOL    HW228769   6.183   1.547   0.424  0.1763  0.2932 -1.9663
 9317SOL     OW28770   3.924   5.859   5.503 -0.6695  0.1847  0.2630
 9317SOL    HW128771   4.022   5.838   5.495 -0.3552  0.6865  2.2890
 9317SOL    HW228772   3.903   5.940   5.449  0.5057  1.2969  1.4038
 9318SOL     OW28773   5.132   5.890   4.179 -0.2316 -0.2971 -0.1210
 9318SOL    HW128774   5.170   5.809   4.134  0.2454  0.2172 -0.6652
 9318SOL    HW228775   5.110   5.959   4.110  0.7566  0.6132  0.4341
 9319SOL     OW28776   6.756   2.630   5.687  0.0180  0.9951  0.0244
 9319SOL    HW128777   6.777   2.707   5.627 -0.0506  1.9986  1.2391
 9319SOL    HW228778   6.670   2.648   5.735  0.8865  1.0073  1.6547
 9320SOL     OW28779   4.191   5.472   1.461  0.2267  0.2741  0.1697
 9320SOL    HW128780   4.211   5.383   1.503 -0.7045 -0.3625 -0.6919
 9320SOL    HW228781   4.275   5.526   1.456  0.8495 -0.6363  0.5195
 9321SOL     OW28782   1.741   3.784   6.713  0.2212  0.1776  0.0046
 9321SOL    HW128783   1.748   3.851   6.640  2.5555  0.3580  0.3310
 9321SOL    HW228784   1.648   3.745   6.713 -1.6929  4.2320  0.6240
 9322SOL     OW28785   0.394   2.616   6.444 -0.2104 -0.0345  0.1120
 9322SOL    HW128786   0.320   2.583   6.385 -1.0562  1.1750  0.4482
 9322SOL    HW228787   0.445   2.539   6.481 -1.3285 -0.8943 -0.1071
 9323SOL     OW28788   3.297   6.339   6.253 -0.3262 -0.0993 -0.5465
 9323SOL    HW128789   3.198   6.322   6.254 -0.2216 -0.9100  1.2704
 9323SOL    HW228790   3.314   6.437   6.248 -1.2541  0.0934 -0.1325
 9324SOL     OW28791   4.173   1.500   1.495  0.0460 -0.1588  0.2549
 9324SOL    HW128792   4.136   1.588   1.526 -0.5289  0.1134 -1.1325
 9324SOL    HW228793   4.164   1.493   1.395  1.4813 -1.1467  0.1562
 9325SOL     OW28794   0.820   3.155   1.030 -0.2519  0.1554 -0.2152
 9325SOL    HW128795   0.829   3.202   1.118 -0.1214  1.0712 -0.7120
 9325SOL    HW228796   0.761   3.075   1.042  0.6999 -0.4066  0.9523
 9326SOL     OW28797   0.700   2.599   1.610  0.2031 -0.7220 -0.5771
 9326SOL    HW128798   0.610   2.588   1.650 -0.8725  1.2267 -2.2623
 9326SOL    HW228799   0.749   2.672   1.658  1.2642 -2.2803  0.8304
 9327SOL     OW28800   1.923   2.295   6.262  0.7902 -0.3028  0.5493
 9327SOL    HW128801   1.905   2.202   6.230  4.2434 -0.8533 -0.2564
 9327SOL    HW228802   1.887   2.361   6.196 -0.1192 -1.1101  0.2130
 9328SOL     OW28803   0.201   0.892   6.307 -0.2275  0.1068  0.5001
 9328SOL    HW128804   0.158   0.812   6.267  1.5441 -1.1243  0.9563
 9328SOL    HW228805   0.227   0.956   6.235  0.7671 -0.9809 -0.1335
 9329SOL     OW28806   5.080   6.349   3.662 -0.2814  1.0844 -0.2270
 9329SOL    HW128807   5.056   6.377   3.756 -0.1787 -0.2929  0.2318
 9329SOL    HW228808   5.002   6.366   3.602 -0.1469  2.5458 -0.0401
 9330SOL     OW28809   0.988   2.959   5.998 -0.0480  0.3887  0.3463
 9330SOL    HW128810   1.071   2.988   6.045  0.1958  0.4025 -0.0915
 9330SOL    HW228811   0.944   3.038   5.956 -0.5946  0.4748  1.0582
 9331SOL     OW28812   2.072   6.706   3.336  0.3410 -0.5764  0.3931
 9331SOL    HW128813   2.018   6.635   3.381 -0.8062 -0.4391 -0.7166
 9331SOL    HW228814   2.150   6.664   3.289 -0.1463 -1.0648  0.0132
 9332SOL     OW28815   3.535   3.553   6.324  0.5854 -0.3498 -0.6002
 9332SOL    HW128816   3.620   3.583   6.367 -0.3862  1.3454  0.2404
 9332SOL    HW228817   3.487   3.489   6.385  0.2680  0.3329 -0.1211
 9333SOL     OW28818   4.882   1.490   2.887  0.1635  0.3275  0.2138
 9333SOL    HW128819   4.919   1.570   2.840  1.8108 -1.4971 -1.8584
 9333SOL    HW228820   4.784   1.484   2.872  0.2816  1.1065 -0.9892
 9334SOL     OW28821   6.168   0.368   4.220  0.4423 -0.2737  0.7227
 9334SOL    HW128822   6.224   0.289   4.246  1.5586 -0.1979 -1.2965
 9334SOL    HW228823   6.124   0.350   4.133 -1.2256  0.4332  1.3880
 9335SOL     OW28824   3.181   0.181   2.118  0.1926 -0.2450  0.0762
 9335SOL    HW128825   3.123   0.187   2.037 -0.5540  2.4697  0.7375
 9335SOL    HW228826   3.232   0.266   2.129  1.7768 -1.3092  1.4034
 9336SOL     OW28827   1.349   2.039   6.734  0.4675  0.0030  0.2740
 9336SOL    HW128828   1.390   1.952   6.763 -1.2758 -0.6733  0.9020
 9336SOL    HW228829   1.416   2.112   6.742  1.8753 -1.2273  0.0889
 9337SOL     OW28830   1.938   1.946   4.335 -0.3556 -0.7369 -0.1467
 9337SOL    HW128831   1.902   2.036   4.311  0.9651 -0.1704 -0.1098
 9337SOL    HW228832   1.944   1.938   4.435 -0.4585 -0.8717 -0.1500
 9338SOL     OW28833   1.752   4.658   2.362  0.7995  0.0796 -0.1208
 9338SOL    HW128834   1.795   4.570   2.343  0.9747  0.2984 -0.7617
 9338SOL    HW228835   1.734   4.705   2.275 -0.0002  0.3357  0.1786
 9339SOL     OW28836   6.910   5.235   1.642 -0.1769  0.0254  0.1546
 9339SOL    HW128837   6.951   5.229   1.733 -0.0565  1.5974  0.2281
 9339SOL    HW228838   6.823   5.284   1.647 -0.9609 -1.2471 -0.3618
 9340SOL     OW28839   2.671   2.638   3.020  0.5646  0.4051 -0.6462
 9340SOL    HW128840   2.726   2.567   2.976  0.7832  0.5284 -0.5718
 9340SOL    HW228841   2.700   2.649   3.115 -0.4015 -0.3712 -0.2524
 9341SOL     OW28842   3.579   0.953   3.203  0.0969 -0.3454  0.1528
 9341SOL    HW128843   3.572   1.003   3.290  1.9751  1.3959 -0.5925
 9341SOL    HW228844   3.608   0.859   3.220 -0.4477 -0.2890  1.4569
 9342SOL     OW28845   1.566   5.980   0.988 -0.3480  0.3139 -0.1506
 9342SOL    HW128846   1.584   5.946   0.895  1.2921  0.6873  0.0054
 9342SOL    HW228847   1.554   5.902   1.050  1.1285  0.0052 -0.2157
 9343SOL     OW28848   3.037   0.741   5.289 -0.4430  0.0362  0.1284
 9343SOL    HW128849   2.974   0.817   5.305  0.8915  1.1016  0.5415
 9343SOL    HW228850   3.044   0.724   5.191 -1.1904  0.0540  0.0671
 9344SOL     OW28851   4.362   0.261   1.051  0.0730 -0.0395  0.1332
 9344SOL    HW128852   4.275   0.305   1.026 -0.1454 -0.6922 -0.2929
 9344SOL    HW228853   4.369   0.257   1.151  0.4894  1.6949  0.2073
 9345SOL     OW28854   0.555   2.793   0.690  0.6720 -0.0339  0.5335
 9345SOL    HW128855   0.603   2.878   0.713  0.8650 -0.2558  0.9590
 9345SOL    HW228856   0.460   2.799   0.720  0.3354  0.5406 -0.6204
 9346SOL     OW28857   2.479   0.083   3.599 -0.4794  0.1299  0.3335
 9346SOL    HW128858   2.418   0.061   3.675 -2.4825 -1.0151 -1.4809
 9346SOL    HW228859   2.563   0.029   3.607 -1.8307 -2.1158  0.3369
 9347SOL     OW28860   4.410   3.417   6.282 -0.2053 -0.3117 -0.0825
 9347SOL    HW128861   4.402   3.319   6.262 -3.6816 -0.0507 -0.5002
 9347SOL    HW228862   4.424   3.467   6.197  1.8180 -0.3837  0.1554
 9348SOL     OW28863   3.009   5.391   1.675 -0.7651 -0.0004 -0.6697
 9348SOL    HW128864   3.101   5.353   1.674 -0.3046  1.0731 -1.0163
 9348SOL    HW228865   2.964   5.367   1.762 -0.1951 -0.5939 -0.5284
 9349SOL     OW28866   6.830   6.039   6.555  0.0686 -0.1967  0.5865
 9349SOL    HW128867   6.914   6.023   6.503 -0.4067  0.0714 -0.2844
 9349SOL    HW228868   6.849   6.103   6.630  0.3588  0.9763 -0.4470
 9350SOL     OW28869   6.031   4.467   2.502  0.7511  0.3995 -0.6396
 9350SOL    HW128870   6.100   4.539   2.500  1.3071 -0.0658  0.8696
 9350SOL    HW228871   6.026   4.427   2.593 -1.4128  0.2989 -0.7479
 9351SOL     OW28872   6.328   2.005   4.188 -0.4592 -0.1964 -0.2202
 9351SOL    HW128873   6.243   1.997   4.240  0.2621 -0.3705  0.9730
 9351SOL    HW228874   6.357   2.101   4.187  0.7606 -0.4880  1.8007
 9352SOL     OW28875   5.502   1.817   4.708 -0.5861  0.7787  1.0826
 9352SOL    HW128876   5.477   1.913   4.714 -1.7063  0.7011 -1.2844
 9352SOL    HW228877   5.579   1.806   4.646 -0.7857  0.1025  0.9437
 9353SOL     OW28878   5.466   2.005   1.888  0.5350 -0.1055 -0.5077
 9353SOL    HW128879   5.455   2.079   1.954  0.6821 -1.7187  1.4025
 9353SOL    HW228880   5.376   1.973   1.858  0.4046 -0.5360  0.3070
 9354SOL     OW28881   1.226   4.724   0.208 -0.3722  0.4944  1.1573
 9354SOL    HW128882   1.307   4.752   0.260 -0.4444  2.8522  0.1405
 9354SOL    HW228883   1.168   4.804   0.191 -2.6046 -1.0205  1.2700
 9355SOL     OW28884   2.356   6.941   6.774 -0.2871 -0.5416 -0.0633
 9355SOL    HW128885   2.356   6.931   6.674  1.1576 -0.3860 -0.0963
 9355SOL    HW228886   2.322   7.032   6.798 -0.5196 -0.5310 -0.4209
 9356SOL     OW28887   4.849   0.783   5.809  0.1936 -0.1876  0.2830
 9356SOL    HW128888   4.809   0.796   5.899  1.3021 -0.9856  0.9158
 9356SOL    HW228889   4.873   0.872   5.770  1.9799  0.0819  1.8587
 9357SOL     OW28890   0.634   4.868   1.428 -0.0703 -0.2422 -0.3138
 9357SOL    HW128891   0.570   4.875   1.352 -0.8496 -0.1097  0.3393
 9357SOL    HW228892   0.726   4.889   1.396 -0.5239  0.7545 -1.0252
 9358SOL     OW28893   3.081   0.619   6.272 -0.4960  0.4671 -0.2355
 9358SOL    HW128894   3.134   0.663   6.199 -0.8844  2.8213  0.8177
 9358SOL    HW228895   3.143   0.590   6.345 -0.3114 -0.1817 -0.6374
 9359SOL     OW28896   3.660   0.812   1.908  0.2270  0.4611 -0.8692
 9359SOL    HW128897   3.723   0.756   1.855  1.9790  1.0636  0.5055
 9359SOL    HW228898   3.670   0.792   2.005 -0.7544  1.5301 -0.5168
 9360SOL     OW28899   1.629   0.404   0.255 -0.2436 -0.2153  0.0879
 9360SOL    HW128900   1.718   0.449   0.255  0.8051 -2.1767  1.0514
 9360SOL    HW228901   1.560   0.466   0.293  0.6964  1.2924 -0.5768
 9361SOL     OW28902   4.276   1.670   6.530  0.1624  0.3688 -0.4993
 9361SOL    HW128903   4.227   1.584   6.515  1.4128 -0.0604 -2.4941
 9361SOL    HW228904   4.213   1.739   6.566 -1.0560 -1.1166  0.3068
 9362SOL     OW28905   0.297   4.087   6.967  0.1227  0.4438  0.2216
 9362SOL    HW128906   0.334   4.176   6.940  0.5706  0.4888  0.9575
 9362SOL    HW228907   0.361   4.042   7.030 -0.7966  0.2531  1.0316
 9363SOL     OW28908   6.253   5.846   4.232  0.2641  0.2872  0.1506
 9363SOL    HW128909   6.328   5.789   4.200  0.1849  0.1355  0.2348
 9363SOL    HW228910   6.172   5.829   4.177  0.8729  2.0305 -1.3802
 9364SOL     OW28911   1.852   3.762   2.184 -0.0045 -0.3991 -0.1010
 9364SOL    HW128912   1.848   3.662   2.181 -1.2937 -0.3656 -0.1622
 9364SOL    HW228913   1.897   3.797   2.102 -0.3801 -0.8993 -0.5214
 9365SOL     OW28914   0.943   1.180   6.681 -0.0858  0.3178 -0.5383
 9365SOL    HW128915   0.990   1.096   6.652  0.5735  1.1452 -1.9440
 9365SOL    HW228916   0.993   1.260   6.648 -0.1306  1.3298  1.6442
 9366SOL     OW28917   3.626   2.557   6.050  0.0500 -0.6515  0.5898
 9366SOL    HW128918   3.582   2.512   5.972  0.2425  2.5030 -1.5268
 9366SOL    HW228919   3.713   2.597   6.021 -0.6430  2.0676  1.9090
 9367SOL     OW28920   2.979   0.472   2.834  0.0889  0.0586 -0.3184
 9367SOL    HW128921   2.951   0.563   2.862 -1.5167 -0.7687  0.9754
 9367SOL    HW228922   3.072   0.475   2.798  0.7177  1.9185  1.2672
 9368SOL     OW28923   1.047   4.193   4.400  0.0801  0.1307  0.1554
 9368SOL    HW128924   1.058   4.119   4.466 -1.0626 -0.7401 -0.5827
 9368SOL    HW228925   1.081   4.278   4.439  1.3629 -0.7627  1.0537
 9369SOL     OW28926   5.324   2.939   3.972 -0.6518  0.1838  0.0291
 9369SOL    HW128927   5.357   2.846   3.954 -0.1804  0.3329  0.1139
 9369SOL    HW228928   5.369   2.975   4.054 -1.6291  0.0881  0.6167
 9370SOL     OW28929   6.264   4.339   5.631 -0.0798 -0.6952 -0.3409
 9370SOL    HW128930   6.346   4.396   5.639 -0.4749 -0.2192  0.4502
 9370SOL    HW228931   6.285   4.247   5.663  0.5133 -0.9607 -1.4501
 9371SOL     OW28932   5.348   4.837   3.926 -0.3193 -0.0194 -0.1987
 9371SOL    HW128933   5.341   4.738   3.934 -0.9233  0.0009 -0.4502
 9371SOL    HW228934   5.417   4.860   3.857  0.2103 -0.2572  0.2504
 9372SOL     OW28935   4.177   5.855   5.437 -0.2512 -0.3727 -0.0921
 9372SOL    HW128936   4.233   5.773   5.429  0.1940  0.0004 -0.8630
 9372SOL    HW228937   4.225   5.923   5.491 -0.4434 -0.4591  0.1924
 9373SOL     OW28938   6.648   0.637   1.279  0.7231 -0.3097 -0.2640
 9373SOL    HW128939   6.627   0.554   1.228  0.7382 -0.0235 -0.7461
 9373SOL    HW228940   6.586   0.645   1.358 -0.6714  0.2641 -1.3741
 9374SOL     OW28941   5.436   5.046   2.997  0.6592 -0.1151  0.0732
 9374SOL    HW128942   5.479   5.072   3.084  0.9133  0.3060 -0.1758
 9374SOL    HW228943   5.342   5.017   3.014  0.6276  0.1981  0.4625
 9375SOL     OW28944   4.521   0.348   6.550 -0.6242  0.0664  0.6080
 9375SOL    HW128945   4.421   0.357   6.552 -0.5501  0.9941  1.9336
 9375SOL    HW228946   4.550   0.287   6.623 -0.1399  1.1036  1.3070
 9376SOL     OW28947   1.105   4.514   2.739 -0.8541  0.7123  0.5079
 9376SOL    HW128948   1.083   4.529   2.836 -0.3552 -1.6479  1.0572
 9376SOL    HW228949   1.194   4.469   2.732 -1.0432  0.5289 -1.0405
 9377SOL     OW28950   1.685   5.543   0.845 -0.4521 -0.4613 -0.0161
 9377SOL    HW128951   1.761   5.569   0.786 -0.5792  1.2343  0.5236
 9377SOL    HW228952   1.718   5.481   0.916  0.3335 -0.0639 -0.0266
 9378SOL     OW28953   1.193   0.476   0.468  0.7604 -0.0318  1.0122
 9378SOL    HW128954   1.188   0.385   0.509  0.8393  0.3739  1.9349
 9378SOL    HW228955   1.282   0.486   0.423  0.6599 -0.4942  0.6994
 9379SOL     OW28956   4.376   4.157   0.544 -0.2337  0.1793  0.1959
 9379SOL    HW128957   4.455   4.218   0.543  0.4756 -0.6228 -2.7285
 9379SOL    HW228958   4.405   4.066   0.574  0.1518 -0.2516 -1.3740
 9380SOL     OW28959   5.568   2.674   6.444  0.1285  0.0331 -0.3028
 9380SOL    HW128960   5.599   2.766   6.420  0.7454 -0.1934 -0.3886
 9380SOL    HW228961   5.499   2.680   6.516 -0.5971  0.6273 -1.0189
 9381SOL     OW28962   4.707   6.180   0.542 -0.5370  0.1727  0.0681
 9381SOL    HW128963   4.639   6.169   0.469 -0.6137 -1.4414  0.3577
 9381SOL    HW228964   4.787   6.227   0.505 -0.8769  0.0342 -0.8748
 9382SOL     OW28965   3.387   0.634   2.418 -0.1306 -0.5950  0.6503
 9382SOL    HW128966   3.402   0.721   2.371 -0.2106 -1.1254 -0.4083
 9382SOL    HW228967   3.421   0.640   2.511  0.6124  0.3144  0.3387
 9383SOL     OW28968   4.206   4.655   4.901  0.3769 -0.1290 -0.3672
 9383SOL    HW128969   4.114   4.693   4.895 -0.9093 -2.9604 -0.2861
 9383SOL    HW228970   4.203   4.557   4.882  3.2124 -0.5430  0.7675
 9384SOL     OW28971   3.990   1.160   2.516  0.0473  0.5752 -0.6691
 9384SOL    HW128972   4.035   1.221   2.451  0.6453  1.2135  0.3114
 9384SOL    HW228973   3.917   1.209   2.564  0.4188  0.4852  0.0033
 9385SOL     OW28974   0.678   0.134   3.090  0.3582 -0.0003  0.0416
 9385SOL    HW128975   0.685   0.233   3.080  1.3885  0.0504  1.0985
 9385SOL    HW228976   0.582   0.106   3.078 -0.1762  1.2899  1.1027
 9386SOL     OW28977   3.219   4.904   2.260 -0.4021  0.1493  0.8289
 9386SOL    HW128978   3.292   4.885   2.326 -0.1510 -0.7492  0.3155
 9386SOL    HW228979   3.181   4.817   2.227 -1.2162  0.6056  0.5604
 9387SOL     OW28980   1.292   3.803   4.621  0.1672 -0.3470  0.2400
 9387SOL    HW128981   1.302   3.750   4.705 -0.2628  0.3849  0.7692
 9387SOL    HW228982   1.353   3.882   4.624 -0.1388 -0.1010  0.0402
 9388SOL     OW28983   3.234   5.051   2.875  0.2697 -0.2460  0.1159
 9388SOL    HW128984   3.252   5.115   2.801 -1.2038 -1.4836 -1.3722
 9388SOL    HW228985   3.313   5.048   2.936  0.2922  3.1379  0.4222
 9389SOL     OW28986   1.463   6.278   1.915 -0.3108 -0.2914  0.5334
 9389SOL    HW128987   1.507   6.190   1.931 -0.5358 -0.6069 -0.5091
 9389SOL    HW228988   1.524   6.352   1.942  0.8557 -0.7178 -0.8303
 9390SOL     OW28989   1.093   3.743   2.349 -0.1921 -0.0551  0.1677
 9390SOL    HW128990   1.038   3.771   2.270 -1.1500 -2.9449 -0.3061
 9390SOL    HW228991   1.185   3.718   2.319  0.0206  0.5751  0.2774
 9391SOL     OW28992   6.555   4.269   3.183 -0.1894  0.5961  0.6908
 9391SOL    HW128993   6.600   4.184   3.212  1.5643  0.7285 -1.4137
 9391SOL    HW228994   6.604   4.347   3.222 -1.6655  0.7142  2.4375
 9392SOL     OW28995   6.045   1.086   3.973 -0.4819 -0.4897  0.3802
 9392SOL    HW128996   5.966   1.121   3.923 -0.1009  0.0678  0.1548
 9392SOL    HW228997   6.049   1.127   4.063 -0.6644 -0.8114  0.5358
 9393SOL     OW28998   2.779   5.600   6.292 -0.3363  0.5511 -0.6994
 9393SOL    HW128999   2.860   5.638   6.246  0.3546 -1.0408 -0.8521
 9393SOL    HW229000   2.734   5.535   6.232  1.5274 -2.8701  1.2911
 9394SOL     OW29001   0.774   1.660   5.944 -0.1387 -0.8475  0.0673
 9394SOL    HW129002   0.817   1.578   5.906  0.7211 -0.6691  0.6286
 9394SOL    HW229003   0.727   1.710   5.871  1.4790 -0.5072 -0.7976
 9395SOL     OW29004   1.654   2.494   1.106  0.0349 -0.0736  1.0772
 9395SOL    HW129005   1.649   2.396   1.125  0.8282 -0.0975  1.1797
 9395SOL    HW229006   1.565   2.536   1.125 -0.5369 -0.8948  0.2836
 9396SOL     OW29007   3.051   6.220   2.311 -0.3204  0.4839  0.5747
 9396SOL    HW129008   3.079   6.309   2.274  1.8131 -0.2522  0.2585
 9396SOL    HW229009   3.070   6.218   2.409  1.6944 -0.2964  0.2214
 9397SOL     OW29010   1.993   1.632   0.716  0.0963 -0.7780 -0.0682
 9397SOL    HW129011   1.990   1.714   0.775 -0.1260  0.4385 -1.7057
 9397SOL    HW229012   2.087   1.602   0.707  0.3774  0.1952 -0.5912
 9398SOL     OW29013   4.920   6.846   6.476 -0.4341  0.7850  0.2750
 9398SOL    HW129014   4.919   6.760   6.528  0.1374  1.2800  1.1223
 9398SOL    HW229015   5.014   6.877   6.465 -0.5127  0.5038 -1.4056
 9399SOL     OW29016   1.567   4.827   5.529  0.5687  0.0461 -0.3615
 9399SOL    HW129017   1.567   4.927   5.522  0.2345  0.1679  1.1930
 9399SOL    HW229018   1.661   4.795   5.540  0.4861  0.4541  2.0324
 9400SOL     OW29019   6.352   1.763   2.504  0.2949 -0.0537 -0.0423
 9400SOL    HW129020   6.442   1.803   2.485 -0.2378  1.4908  0.5459
 9400SOL    HW229021   6.346   1.738   2.601 -0.0643  0.2718  0.0220
 9401SOL     OW29022   4.862   6.356   2.027 -0.2567 -0.4732  0.0787
 9401SOL    HW129023   4.779   6.351   2.083  0.3522  0.1215  1.0426
 9401SOL    HW229024   4.942   6.362   2.086  0.4630 -0.7400 -0.8529
 9402SOL     OW29025   0.071   2.458   2.045  0.2423  0.7399  0.2939
 9402SOL    HW129026   0.123   2.405   2.111 -1.2264  0.1776  1.0499
 9402SOL    HW229027   0.075   2.555   2.069  1.5496  0.8114 -0.1223
 9403SOL     OW29028   6.097   1.557   5.023 -0.0395 -0.4106 -0.1966
 9403SOL    HW129029   6.029   1.501   5.071 -0.8563  1.7729  1.3212
 9403SOL    HW229030   6.058   1.587   4.935  0.3195 -1.9595 -0.9174
 9404SOL     OW29031   2.911   0.639   1.877 -0.6186  0.1408 -0.4686
 9404SOL    HW129032   2.911   0.665   1.973 -0.1778  1.8445 -0.8864
 9404SOL    HW229033   2.845   0.695   1.827  1.9666  2.2417 -1.8045
 9405SOL     OW29034   4.095   2.823   1.966  0.4944  0.2157  0.2267
 9405SOL    HW129035   4.017   2.844   1.907 -0.2693  0.6084  1.3534
 9405SOL    HW229036   4.136   2.908   1.999 -1.1896  0.0748  2.9564
 9406SOL     OW29037   6.643   5.926   0.623 -0.0938 -0.0815 -0.2638
 9406SOL    HW129038   6.689   6.004   0.666  0.3708 -0.6228  0.2443
 9406SOL    HW229039   6.703   5.846   0.628 -1.2144 -0.8877  0.6864
 9407SOL     OW29040   4.748   2.289   2.802  0.1138  0.6345  0.0298
 9407SOL    HW129041   4.663   2.244   2.827  1.4989 -1.8333  0.6259
 9407SOL    HW229042   4.783   2.249   2.717  2.1447 -0.6080  1.3646
 9408SOL     OW29043   3.082   6.772   0.583  0.0933  0.1024 -0.6335
 9408SOL    HW129044   3.064   6.797   0.488 -0.3016  5.1231  0.4393
 9408SOL    HW229045   2.998   6.738   0.625 -0.8108  1.5346 -1.2040
 9409SOL     OW29046   0.251   2.280   1.714 -0.1215 -0.1760  0.0415
 9409SOL    HW129047   0.333   2.303   1.767 -0.3220 -0.4731  0.4773
 9409SOL    HW229048   0.276   2.273   1.617  0.1320  0.9441  0.0133
 9410SOL     OW29049   2.624   1.427   2.151 -0.1234  0.3040  0.3964
 9410SOL    HW129050   2.705   1.454   2.098  0.1319 -1.3303 -0.0996
 9410SOL    HW229051   2.544   1.473   2.114  0.3797  0.9204  0.0388
 9411SOL     OW29052   3.786   6.542   1.628 -0.2324 -0.2672  0.6662
 9411SOL    HW129053   3.789   6.445   1.654  0.5808 -0.2935  0.5250
 9411SOL    HW229054   3.860   6.591   1.675  0.4341 -0.0581 -0.5645
 9412SOL     OW29055   6.720   5.184   4.508 -0.5297 -0.0161 -0.6480
 9412SOL    HW129056   6.794   5.120   4.486 -0.2327 -0.3995  1.3408
 9412SOL    HW229057   6.738   5.272   4.463 -0.0139 -0.7450 -1.9409
 9413SOL     OW29058   1.850   6.728   6.192 -0.2590 -0.3806  0.2571
 9413SOL    HW129059   1.774   6.793   6.195 -1.3313 -1.5723  0.0864
 9413SOL    HW229060   1.930   6.767   6.237 -0.6141  1.3434 -0.5389
 9414SOL     OW29061   6.532   2.426   5.782 -0.0178  0.4496 -0.2179
 9414SOL    HW129062   6.528   2.404   5.685 -0.6029  0.4761 -0.2057
 9414SOL    HW229063   6.574   2.350   5.832  0.7614  0.6527 -0.5500
 9415SOL     OW29064   3.444   6.936   2.392  0.2722 -0.0671 -0.3323
 9415SOL    HW129065   3.480   7.028   2.406 -0.6631  0.5919 -1.9162
 9415SOL    HW229066   3.354   6.928   2.435  0.5236 -0.3650  0.1358
 9416SOL     OW29067   4.948   5.135   2.195 -0.1374  0.6067  0.4514
 9416SOL    HW129068   4.909   5.044   2.182 -2.5083  1.4263  1.2218
 9416SOL    HW229069   5.047   5.129   2.200 -0.2452 -1.9397  0.6960
 9417SOL     OW29070   5.553   4.398   3.873 -0.2526  0.0927 -0.5212
 9417SOL    HW129071   5.634   4.430   3.921  0.6510 -0.7989 -1.4131
 9417SOL    HW229072   5.560   4.423   3.776 -0.8927 -0.2777 -0.6658
 9418SOL     OW29073   2.922   6.184   6.213 -0.0183 -0.1384 -0.0504
 9418SOL    HW129074   2.981   6.114   6.252 -1.1637 -0.5172  1.0664
 9418SOL    HW229075   2.857   6.142   6.150  0.2277  0.1347 -0.4942
 9419SOL     OW29076   6.598   5.519   3.991  0.0149  0.0252 -0.3205
 9419SOL    HW129077   6.545   5.537   4.074  1.1344  1.9632  0.0341
 9419SOL    HW229078   6.552   5.560   3.912  0.9885  1.8349  0.0090
 9420SOL     OW29079   6.299   4.165   3.088  0.4020 -0.3261 -0.1062
 9420SOL    HW129080   6.304   4.095   3.160  1.1835  0.7361  0.9226
 9420SOL    HW229081   6.360   4.241   3.112  0.7067  0.0459 -1.9321
 9421SOL     OW29082   3.118   4.845   6.529  0.4815  0.2620 -0.3641
 9421SOL    HW129083   3.103   4.897   6.445 -1.9675  0.4240  0.0821
 9421SOL    HW229084   3.086   4.751   6.516 -0.7258  0.5140  0.5995
 9422SOL     OW29085   5.345   4.660   6.360 -0.5819 -0.2929 -0.5313
 9422SOL    HW129086   5.307   4.585   6.305 -0.4195 -0.9375  0.2135
 9422SOL    HW229087   5.342   4.745   6.307 -1.1439 -0.7408 -1.2445
 9423SOL     OW29088   3.220   4.153   1.438 -0.0914  0.1166 -0.0751
 9423SOL    HW129089   3.309   4.186   1.407 -0.0000 -0.0709 -0.0103
 9423SOL    HW229090   3.204   4.061   1.403 -0.0913 -0.0016  0.2394
 9424SOL     OW29091   0.588   1.612   6.809  0.2405  0.2320 -0.1248
 9424SOL    HW129092   0.564   1.526   6.854 -1.6702  0.1147 -1.3137
 9424SOL    HW229093   0.593   1.685   6.878  0.5347 -0.5486  0.6993
 9425SOL     OW29094   6.526   0.165   2.690 -0.0255 -0.6788  0.6793
 9425SOL    HW129095   6.593   0.165   2.615 -0.8257  1.3841 -0.1170
 9425SOL    HW229096   6.481   0.076   2.695 -0.9464 -0.4613 -2.2528
 9426SOL     OW29097   0.502   6.542   1.266  0.4210  0.4225 -0.5547
 9426SOL    HW129098   0.430   6.585   1.322 -0.3923 -1.2931 -0.2018
 9426SOL    HW229099   0.588   6.545   1.316 -0.1808 -0.6089  0.6127
 9427SOL     OW29100   6.320   1.718   4.972  0.2252  0.6733  0.4580
 9427SOL    HW129101   6.224   1.695   4.988  0.5248 -0.0707  1.2526
 9427SOL    HW229102   6.369   1.717   5.059  1.5703 -1.8939 -0.2336
 9428SOL     OW29103   0.002   1.501   0.498  0.0791  0.1811  0.2048
 9428SOL    HW129104  -0.061   1.548   0.436 -0.7441 -1.5670 -0.3530
 9428SOL    HW229105   0.079   1.561   0.519  1.5222  0.1905 -4.1861
 9429SOL     OW29106   6.693   4.267   4.485 -0.1169 -0.1821 -0.1881
 9429SOL    HW129107   6.664   4.331   4.415  1.7475 -0.8208 -1.6508
 9429SOL    HW229108   6.757   4.312   4.547 -1.3399  0.2322  0.7952
 9430SOL     OW29109   4.717   1.583   3.617 -0.2705  0.0541 -0.4609
 9430SOL    HW129110   4.805   1.608   3.656 -0.0746 -0.4650 -0.5666
 9430SOL    HW229111   4.696   1.488   3.639 -0.8092  0.1797 -0.4242
 9431SOL     OW29112   5.662   4.245   4.203 -0.1566 -0.5507 -0.3702
 9431SOL    HW129113   5.653   4.170   4.139  0.9285 -0.9840 -0.0384
 9431SOL    HW229114   5.759   4.263   4.220 -0.4179 -0.2238  0.8749
 9432SOL     OW29115   6.334   0.710   0.664  0.2697 -0.3883 -0.2801
 9432SOL    HW129116   6.386   0.790   0.635  0.3319  0.0862  1.0423
 9432SOL    HW229117   6.363   0.683   0.756 -0.5883 -1.2029 -0.2262
 9433SOL     OW29118   5.145   3.141   5.986 -0.2693  0.5836 -0.3485
 9433SOL    HW129119   5.211   3.087   6.038  0.1237  0.8807 -0.5381
 9433SOL    HW229120   5.136   3.232   6.028 -1.4441  0.1581  0.3829
 9434SOL     OW29121   2.334   2.877   2.370 -0.1567  0.5595  0.0434
 9434SOL    HW129122   2.358   2.974   2.376  1.0279  0.4249 -1.9436
 9434SOL    HW229123   2.417   2.822   2.373 -0.5862 -0.2272 -1.6367
 9435SOL     OW29124   0.780   4.987   2.552  0.1285 -0.3114 -0.6341
 9435SOL    HW129125   0.805   5.041   2.472  1.2088  1.0744  0.5843
 9435SOL    HW229126   0.739   5.046   2.621 -0.9989 -1.5233 -0.2312
 9436SOL     OW29127   1.501   5.711   5.556  0.1946  0.2013 -0.1067
 9436SOL    HW129128   1.545   5.640   5.611 -0.3036  0.5671  0.7771
 9436SOL    HW229129   1.484   5.791   5.613 -1.9598 -0.0514 -0.3227
 9437SOL     OW29130   2.163   3.276   5.843 -0.2065  0.0525  0.0513
 9437SOL    HW129131   2.111   3.255   5.761  0.0142  0.8255 -0.2954
 9437SOL    HW229132   2.172   3.193   5.899  1.7819 -1.1465 -1.8965
 9438SOL     OW29133   4.031   2.295   5.571 -0.2091 -0.0014  0.2124
 9438SOL    HW129134   4.000   2.382   5.609  1.8733  0.6971  0.4878
 9438SOL    HW229135   4.041   2.228   5.645  0.4831  0.2848  0.3894
 9439SOL     OW29136   4.776   3.482   2.965  0.5476  0.1143  0.1731
 9439SOL    HW129137   4.837   3.467   3.043  1.4764  1.5017 -0.2620
 9439SOL    HW229138   4.827   3.468   2.880 -0.5521 -1.7631 -0.2246
 9440SOL     OW29139   6.248   2.202   6.196  0.0176  0.5271 -1.0331
 9440SOL    HW129140   6.322   2.239   6.253  1.3868 -1.1180 -1.6659
 9440SOL    HW229141   6.194   2.137   6.250 -0.1645  0.7460 -0.9486
 9441SOL     OW29142   4.905   3.072   5.879  0.6874  0.2144 -0.0058
 9441SOL    HW129143   4.997   3.081   5.915  0.7941  0.6140 -0.3745
 9441SOL    HW229144   4.842   3.048   5.953  0.8967  1.0407  0.4425
 9442SOL     OW29145   3.301   2.915   3.374 -0.4169  0.2308 -0.6253
 9442SOL    HW129146   3.255   2.879   3.455 -1.6326  2.3164 -0.2979
 9442SOL    HW229147   3.395   2.940   3.396  0.3585 -2.3450 -0.7982
 9443SOL     OW29148   5.519   6.535   2.309 -0.3281 -0.1549 -0.1267
 9443SOL    HW129149   5.543   6.626   2.342  0.1247 -1.2013  2.6593
 9443SOL    HW229150   5.597   6.474   2.320 -0.7954 -1.0489 -1.4801
 9444SOL     OW29151   2.099   1.409   3.303 -0.5220  0.8691  0.4001
 9444SOL    HW129152   2.045   1.452   3.231 -1.3306 -0.9757 -0.1583
 9444SOL    HW229153   2.051   1.419   3.391 -0.4210  1.5559  0.3825
 9445SOL     OW29154   0.244   1.925   0.890  0.3528 -0.0679 -0.0106
 9445SOL    HW129155   0.168   1.860   0.884 -0.2335  0.6023 -0.0366
 9445SOL    HW229156   0.221   1.997   0.956  1.4468 -0.4755  0.8495
 9446SOL     OW29157   1.941   6.117   3.125 -0.0233 -0.7157 -0.2213
 9446SOL    HW129158   1.984   6.051   3.187 -1.5297 -1.6967 -0.1544
 9446SOL    HW229159   1.894   6.067   3.052 -3.3804  0.0553  1.2213
 9447SOL     OW29160   5.270   6.861   3.684 -0.2246 -0.3161 -0.6371
 9447SOL    HW129161   5.310   6.953   3.686  0.8576 -0.7651 -0.7436
 9447SOL    HW229162   5.175   6.866   3.713  0.2878  0.6229  1.1005
 9448SOL     OW29163   2.693   2.554   2.479 -0.4477 -0.8928  0.0050
 9448SOL    HW129164   2.600   2.535   2.448 -0.1006  0.6896 -2.1505
 9448SOL    HW229165   2.697   2.645   2.520  0.4753 -0.1989 -1.5571
 9449SOL     OW29166   6.950   5.855   6.925 -0.1395 -0.8628  0.4102
 9449SOL    HW129167   6.929   5.941   6.878 -1.0052 -0.9510  0.6354
 9449SOL    HW229168   6.926   5.779   6.865  0.2009 -0.9634  0.3963
 9450SOL     OW29169   1.134   5.354   3.431 -0.6826 -0.1938  0.0634
 9450SOL    HW129170   1.229   5.379   3.453 -0.4366  1.0893 -2.1733
 9450SOL    HW229171   1.096   5.301   3.507  1.7844 -0.7004  1.0628
 9451SOL     OW29172   3.834   3.495   4.075  0.2004 -0.0635 -0.5540
 9451SOL    HW129173   3.746   3.453   4.054 -0.5261  0.5467  1.0664
 9451SOL    HW229174   3.846   3.577   4.019  0.0640 -0.5262 -1.2725
 9452SOL     OW29175   2.367   5.682   2.793  0.3757 -0.3311 -0.5257
 9452SOL    HW129176   2.314   5.764   2.814  1.2341  0.2836 -0.7197
 9452SOL    HW229177   2.423   5.698   2.712 -0.1953 -1.4630 -1.1693
 9453SOL     OW29178   3.933   4.130   2.414  0.1237  0.3750 -0.4301
 9453SOL    HW129179   3.877   4.210   2.394  1.5067  1.5014  0.0037
 9453SOL    HW229180   3.891   4.077   2.487 -0.5903  0.9468 -0.4195
 9454SOL     OW29181   5.951   1.413   0.847 -0.1399 -0.4381  0.6511
 9454SOL    HW129182   6.038   1.459   0.828 -0.2713 -0.7899 -1.0036
 9454SOL    HW229183   5.900   1.465   0.914  0.9859  0.2296  1.0180
 9455SOL     OW29184   1.139   1.764   4.139 -0.1195  0.1687  0.4438
 9455SOL    HW129185   1.086   1.792   4.219  2.1946  0.6125  1.9356
 9455SOL    HW229186   1.190   1.680   4.160  0.2732  0.1002 -0.6862
 9456SOL     OW29187   0.314   1.162   6.397  0.1207  1.0917 -0.3280
 9456SOL    HW129188   0.290   1.070   6.429 -1.6218  1.2176 -1.1525
 9456SOL    HW229189   0.394   1.157   6.338 -0.5554 -0.0723 -1.1879
 9457SOL     OW29190   2.614   2.907   6.930 -0.1984  0.3626 -0.1688
 9457SOL    HW129191   2.599   2.872   7.023 -0.4857 -0.6782 -0.5936
 9457SOL    HW229192   2.561   2.851   6.865 -0.7719  1.6733 -0.8601
 9458SOL     OW29193   1.983   3.966   2.046 -0.1938  0.2298  0.7197
 9458SOL    HW129194   1.935   4.045   2.008 -2.4370 -0.6392  1.5782
 9458SOL    HW229195   2.072   3.995   2.081 -1.0422  2.4429  1.2095
 9459SOL     OW29196   1.428   4.137   0.344  0.6165 -0.1534 -0.6687
 9459SOL    HW129197   1.380   4.068   0.289 -0.7980 -0.4420  0.8278
 9459SOL    HW229198   1.486   4.092   0.412 -0.5762  0.0651  0.5442
 9460SOL     OW29199   5.454   6.463   4.846  0.1683 -0.1031  0.4260
 9460SOL    HW129200   5.396   6.544   4.839  0.9797  0.4015 -1.1079
 9460SOL    HW229201   5.503   6.464   4.933 -0.9719  0.2489  1.0793
 9461SOL     OW29202   1.669   6.937   6.124 -0.0320  0.2140 -0.2954
 9461SOL    HW129203   1.724   7.012   6.161 -0.9225  1.4627 -1.3689
 9461SOL    HW229204   1.655   6.952   6.026 -0.3573 -1.3130 -0.5116
 9462SOL     OW29205   6.781   6.719   2.932  0.1873  0.6530  0.5090
 9462SOL    HW129206   6.791   6.797   2.995 -1.0381  0.3173  1.1412
 9462SOL    HW229207   6.738   6.643   2.980 -1.1900  0.5318 -0.8416
 9463SOL     OW29208   6.152   0.020   1.565  0.0115 -0.1150 -0.5351
 9463SOL    HW129209   6.170   0.022   1.664 -1.1585 -0.8892 -0.2995
 9463SOL    HW229210   6.235  -0.008   1.517  0.4073 -0.3574  0.2751
 9464SOL     OW29211   5.419   0.790   4.679 -0.7079 -0.1183 -0.2679
 9464SOL    HW129212   5.395   0.804   4.583  1.8878  0.4092 -0.9255
 9464SOL    HW229213   5.393   0.698   4.708 -0.6922 -0.6128 -1.7777
 9465SOL     OW29214   3.644   2.995   1.963  0.9628  0.4767 -0.3641
 9465SOL    HW129215   3.734   2.952   1.969  1.1285  0.8154 -0.4014
 9465SOL    HW229216   3.644   3.079   2.018  0.0025 -0.6577  1.5021
 9466SOL     OW29217   6.972   6.834   1.905  0.3560  0.0986 -0.4425
 9466SOL    HW129218   6.921   6.755   1.940 -1.3940  1.2266 -0.2925
 9466SOL    HW229219   6.981   6.826   1.806 -0.7105  0.1849 -0.5575
 9467SOL     OW29220   0.688   4.799   1.693  0.3433 -0.2268  0.2975
 9467SOL    HW129221   0.692   4.699   1.698 -1.0965 -0.3026  0.4956
 9467SOL    HW229222   0.646   4.826   1.606  0.2134  0.1805  0.4858
 9468SOL     OW29223   3.405   3.283   1.793 -0.2868  0.3581  0.3173
 9468SOL    HW129224   3.495   3.239   1.790 -0.6057 -0.2718 -0.0520
 9468SOL    HW229225   3.353   3.259   1.712 -0.8182  0.6714  0.5582
 9469SOL     OW29226   6.448   1.409   5.459 -0.1704 -0.3868  0.1332
 9469SOL    HW129227   6.425   1.385   5.553  0.7909  1.4019  0.8874
 9469SOL    HW229228   6.522   1.350   5.427  1.4716  0.7755  1.5755
 9470SOL     OW29229   4.547   0.622   3.826 -0.5570  0.5017  0.1324
 9470SOL    HW129230   4.478   0.661   3.887 -1.3314 -0.5271 -0.0678
 9470SOL    HW229231   4.568   0.687   3.753 -1.5587  0.6968  0.0025
 9471SOL     OW29232   1.064   6.332   3.503 -0.4415  0.3123 -0.1944
 9471SOL    HW129233   1.162   6.349   3.515 -0.5243  0.2901  0.5689
 9471SOL    HW229234   1.037   6.354   3.409  0.4296 -0.3519 -0.6072
 9472SOL     OW29235   0.225   4.008   2.028 -0.1004  0.1608 -0.1006
 9472SOL    HW129236   0.271   4.080   2.081  0.3631  0.1018 -0.4168
 9472SOL    HW229237   0.293   3.943   1.994 -0.7304 -1.9671  2.4060
 9473SOL     OW29238   1.718   3.962   5.683  0.4889  0.1315 -0.1520
 9473SOL    HW129239   1.635   3.947   5.736  1.7061  0.7007  2.0492
 9473SOL    HW229240   1.712   4.049   5.634 -0.1570  0.2630  0.1559
 9474SOL     OW29241   1.343   4.112   2.865  0.1042 -0.5464  0.4677
 9474SOL    HW129242   1.318   4.189   2.805  0.8316 -1.7963 -1.5485
 9474SOL    HW229243   1.337   4.141   2.960 -2.7218  1.0744 -0.0692
 9475SOL     OW29244   4.634   3.911   5.617  0.0008  0.8179 -0.4565
 9475SOL    HW129245   4.572   3.978   5.577 -0.8371  2.8995  3.8324
 9475SOL    HW229246   4.607   3.891   5.711  2.5254 -2.7132 -0.2420
 9476SOL     OW29247   0.601   4.633   4.170  0.1775  0.5177 -0.5346
 9476SOL    HW129248   0.580   4.730   4.164 -2.7537  0.0174 -0.0221
 9476SOL    HW229249   0.542   4.583   4.106  1.5720 -0.9422 -0.7335
 9477SOL     OW29250   2.183   5.190   6.911  0.3723 -0.2644 -0.0367
 9477SOL    HW129251   2.178   5.254   6.988 -2.4296  0.7809 -0.9817
 9477SOL    HW229252   2.091   5.165   6.882  1.2726 -0.0573 -3.5079
 9478SOL     OW29253   0.369   4.275   6.742  0.0866 -0.0679 -0.7578
 9478SOL    HW129254   0.426   4.319   6.672  0.4240  0.5417 -0.1180
 9478SOL    HW229255   0.274   4.274   6.711  0.0510  1.2136 -0.7670
 9479SOL     OW29256   1.674   0.072   5.863  0.4218  0.1684  0.1965
 9479SOL    HW129257   1.607   0.043   5.796 -0.6654  1.2245  0.7774
 9479SOL    HW229258   1.712   0.161   5.837 -1.0576  1.2875  1.6253
 9480SOL     OW29259   5.240   1.062   4.066 -0.5411  0.1044 -0.2124
 9480SOL    HW129260   5.150   1.107   4.067  0.6010  2.5452  1.1553
 9480SOL    HW229261   5.270   1.047   4.160  1.1660  0.8572 -0.6111
 9481SOL     OW29262   0.821   3.245   4.371 -0.2887  0.2927  0.3816
 9481SOL    HW129263   0.846   3.327   4.319  0.6542 -0.0837  0.2067
 9481SOL    HW229264   0.885   3.171   4.348 -0.0545  0.0161  1.8286
 9482SOL     OW29265   1.877   4.213   0.394 -0.4542 -0.3503  0.2561
 9482SOL    HW129266   1.876   4.304   0.437  0.1051  0.0121 -0.4739
 9482SOL    HW229267   1.957   4.206   0.335 -1.4402 -0.6760 -1.0857
 9483SOL     OW29268   6.465   1.953   2.861 -0.3607 -1.2293  0.0133
 9483SOL    HW129269   6.557   1.929   2.892 -0.4998 -0.4895  1.0270
 9483SOL    HW229270   6.471   1.994   2.770  0.4465 -0.1685  0.5198
 9484SOL     OW29271   2.076   4.730   3.429 -0.8898  0.5467 -0.6965
 9484SOL    HW129272   2.021   4.648   3.413 -0.6542  0.1122  0.6445
 9484SOL    HW229273   2.016   4.809   3.441 -1.2632  0.0512  0.8954
 9485SOL     OW29274   0.188   2.380   0.161  0.0714 -0.1761  1.0914
 9485SOL    HW129275   0.234   2.299   0.198 -1.6032 -2.0211 -0.5827
 9485SOL    HW229276   0.126   2.352   0.087 -0.4867  2.6874  0.3459
 9486SOL     OW29277   3.023   3.273   0.030  0.2637 -0.8193 -0.4537
 9486SOL    HW129278   3.099   3.271   0.094 -0.3287 -0.3720  0.2742
 9486SOL    HW229279   2.994   3.367   0.015 -2.0173 -1.1313  1.5435
 9487SOL     OW29280   3.784   4.648   5.077  0.0401  0.3451  1.3134
 9487SOL    HW129281   3.798   4.608   5.168  1.6680 -0.3725  0.7936
 9487SOL    HW229282   3.754   4.576   5.014  1.0650  0.3403  0.8099
 9488SOL     OW29283   3.060   1.439   2.759  0.3634 -0.0527  0.1348
 9488SOL    HW129284   3.155   1.470   2.757  0.5905 -0.7440 -2.2460
 9488SOL    HW229285   3.024   1.435   2.666 -0.8601 -3.1985  0.6235
 9489SOL     OW29286   4.800   0.404   0.195  0.0771  0.0392 -0.0045
 9489SOL    HW129287   4.723   0.395   0.257  0.8838 -1.8530  0.8070
 9489SOL    HW229288   4.767   0.412   0.101 -1.1690  3.0612  0.5590
 9490SOL     OW29289   5.643   4.198   5.414 -0.0393 -0.2785  0.7178
 9490SOL    HW129290   5.607   4.245   5.333  2.2629  0.4077  0.0171
 9490SOL    HW229291   5.616   4.249   5.496  0.2857  0.8810  0.1361
 9491SOL     OW29292   5.345   1.165   2.651 -1.0088 -0.2537  0.5331
 9491SOL    HW129293   5.340   1.227   2.730  0.7701 -0.8190  1.1419
 9491SOL    HW229294   5.274   1.190   2.585  0.0286  2.8935  0.4257
 9492SOL     OW29295   5.571   5.164   0.809  0.0587 -0.1106 -0.5769
 9492SOL    HW129296   5.584   5.207   0.719  0.9447  1.2326  0.1573
 9492SOL    HW229297   5.484   5.194   0.848  0.2512  0.2980 -0.4583
 9493SOL     OW29298   4.484   2.449   3.020  0.0794  0.5090 -0.5881
 9493SOL    HW129299   4.453   2.516   3.087  2.0635  1.4798 -0.5669
 9493SOL    HW229300   4.542   2.494   2.952  0.0776 -0.8957 -1.5672
 9494SOL     OW29301   1.176   3.620   5.720 -0.6942  0.6705  0.0503
 9494SOL    HW129302   1.150   3.656   5.630  0.0078 -0.2457 -0.5376
 9494SOL    HW229303   1.149   3.686   5.791 -2.0094  1.0372 -0.7462
 9495SOL     OW29304   1.178   6.008   5.099  0.2240 -0.0517  0.8218
 9495SOL    HW129305   1.176   5.923   5.047 -0.1649 -0.1285  0.9617
 9495SOL    HW229306   1.266   6.016   5.146  0.3128 -0.3090  0.7035
 9496SOL     OW29307   2.752   6.507   3.679 -0.7701  0.9583  0.5364
 9496SOL    HW129308   2.674   6.452   3.652 -0.7013  0.8129  0.6367
 9496SOL    HW229309   2.762   6.583   3.615 -0.5453  0.5557  0.0881
 9497SOL     OW29310   1.279   4.349   0.390 -0.1788 -0.2702  0.0832
 9497SOL    HW129311   1.261   4.352   0.488 -1.0543  0.0740 -0.0786
 9497SOL    HW229312   1.330   4.266   0.368 -1.1160 -1.0191  0.6637
 9498SOL     OW29313   6.373   6.799   2.357 -0.1700  0.0168 -0.6024
 9498SOL    HW129314   6.359   6.814   2.259 -1.1268  1.8821 -0.2254
 9498SOL    HW229315   6.467   6.822   2.381  0.3933 -1.5115 -1.2421
 9499SOL     OW29316   4.421   0.969   4.854  0.0555  0.1936  0.4996
 9499SOL    HW129317   4.519   0.957   4.836 -0.2516  0.3121 -1.4753
 9499SOL    HW229318   4.370   0.897   4.806 -0.9377  1.3537 -0.2344
 9500SOL     OW29319   4.475   4.691   6.870  0.3277 -0.2316 -0.3064
 9500SOL    HW129320   4.547   4.625   6.893 -0.2770 -1.1277 -0.9020
 9500SOL    HW229321   4.396   4.676   6.931 -0.1454 -0.6532 -1.0100
 9501SOL     OW29322   4.717   6.477   5.983  0.1342  0.1911  0.3420
 9501SOL    HW129323   4.627   6.492   6.024 -0.9997  0.0919 -1.9260
 9501SOL    HW229324   4.726   6.382   5.956  1.4101 -0.0566  1.5460
 9502SOL     OW29325   5.782   6.966   1.822  0.3302 -0.4784 -0.1640
 9502SOL    HW129326   5.862   6.915   1.855 -1.1232 -0.8473  3.1739
 9502SOL    HW229327   5.757   6.932   1.731  3.6616 -0.5894 -1.1830
 9503SOL     OW29328   2.244   1.156   4.071  0.0236  0.6662 -0.1862
 9503SOL    HW129329   2.232   1.244   4.115  1.2520  0.6115  0.2973
 9503SOL    HW229330   2.154   1.117   4.049 -0.5505  1.5751  0.4844
 9504SOL     OW29331   3.841   4.122   2.984 -0.0944  0.0182  0.4438
 9504SOL    HW129332   3.862   4.166   2.897  1.1303 -0.8851  0.2604
 9504SOL    HW229333   3.746   4.140   3.009 -1.6657 -2.5767 -2.8460
 9505SOL     OW29334   0.742   4.804   5.348  0.1904 -0.0135  0.2976
 9505SOL    HW129335   0.822   4.832   5.295  1.3216 -2.3928  0.6151
 9505SOL    HW229336   0.762   4.811   5.446 -1.3224  2.8024  0.5092
 9506SOL     OW29337   6.199   5.876   6.624 -0.7232  0.1510  0.4582
 9506SOL    HW129338   6.225   5.799   6.566 -0.6080  0.7730 -0.3213
 9506SOL    HW229339   6.173   5.841   6.715 -0.9490 -0.8222  0.0343
 9507SOL     OW29340   6.078   0.939   3.731 -0.5007  0.3448  0.5050
 9507SOL    HW129341   6.062   1.013   3.796 -1.9075 -0.6040  1.3170
 9507SOL    HW229342   6.018   0.950   3.652 -1.8144 -0.6502  1.3090
 9508SOL     OW29343   6.836   3.713   0.547 -0.2182  0.3809 -0.2511
 9508SOL    HW129344   6.933   3.688   0.547 -0.6427 -1.5224 -1.1512
 9508SOL    HW229345   6.805   3.729   0.640  0.4467 -1.3573  0.3035
 9509SOL     OW29346   4.140   3.128   0.037  0.0928  0.1982  0.3611
 9509SOL    HW129347   4.234   3.160   0.031  0.7244 -1.3924  1.2464
 9509SOL    HW229348   4.085   3.173  -0.034  1.2966  1.7975  0.3758
 9510SOL     OW29349   5.716   1.067   2.872  0.0705 -0.2447  0.4517
 9510SOL    HW129350   5.737   1.156   2.830 -0.5758  1.2161  2.9789
 9510SOL    HW229351   5.770   0.996   2.828  0.0670  1.2478 -2.1785
 9511SOL     OW29352   4.850   0.172   1.122 -0.0882 -0.6266 -0.3133
 9511SOL    HW129353   4.947   0.173   1.096 -0.2176  0.5928 -0.8199
 9511SOL    HW229354   4.828   0.085   1.167  1.1017 -1.1389 -0.6931
 9512SOL     OW29355   1.796   0.258   0.958  0.0501  0.6299  0.0821
 9512SOL    HW129356   1.816   0.160   0.966 -2.1690  0.0700 -0.4647
 9512SOL    HW229357   1.743   0.288   1.037 -1.1198  0.8365 -0.7461
 9513SOL     OW29358   1.875   3.859   0.924 -0.1175  0.0895  0.0563
 9513SOL    HW129359   1.826   3.853   0.837  4.1179 -0.0298 -2.6456
 9513SOL    HW229360   1.862   3.774   0.975 -0.6262 -1.0184 -1.8052
 9514SOL     OW29361   3.054   3.517   6.014  0.8509  0.1044  0.0977
 9514SOL    HW129362   2.997   3.459   6.072  1.4632  0.7307  1.3558
 9514SOL    HW229363   2.999   3.554   5.939 -0.1418 -0.1038  0.7105
 9515SOL     OW29364   6.324   5.902   3.613  0.2224 -0.3582  0.1224
 9515SOL    HW129365   6.412   5.938   3.643  0.7894 -1.5119 -0.1141
 9515SOL    HW229366   6.252   5.939   3.672  1.3039 -2.7125  3.2314
 9516SOL     OW29367   0.333   1.567   5.482  0.1301  0.4255 -0.2197
 9516SOL    HW129368   0.288   1.627   5.416  0.1150  0.1435 -0.4699
 9516SOL    HW229369   0.382   1.495   5.433 -1.0477 -0.6287  0.0782
 9517SOL     OW29370   0.709   6.467   6.725 -0.2544  0.0123  0.1002
 9517SOL    HW129371   0.678   6.516   6.644  0.0504  0.1508  0.0630
 9517SOL    HW229372   0.689   6.520   6.807  0.2124  0.2764  0.0488
 9518SOL     OW29373   1.309   3.685   6.356 -0.2216  0.0025  0.1908
 9518SOL    HW129374   1.271   3.632   6.431 -0.1366 -0.1048  0.1585
 9518SOL    HW229375   1.406   3.665   6.347 -0.3246 -0.3154 -0.2261
 9519SOL     OW29376   0.588   2.539   4.198 -0.0123  0.4380 -0.7329
 9519SOL    HW129377   0.523   2.502   4.132  0.5777 -1.6550 -0.1934
 9519SOL    HW229378   0.681   2.514   4.170  0.1782 -1.7147  1.5616
 9520SOL     OW29379   1.824   1.100   5.966  0.2238 -0.0981  0.2389
 9520SOL    HW129380   1.755   1.033   5.996  0.4833 -0.2810  0.4435
 9520SOL    HW229381   1.839   1.090   5.868 -1.3277  1.1484 -0.1629
 9521SOL     OW29382   3.623   6.035   5.964 -0.3085 -0.0490  0.2166
 9521SOL    HW129383   3.641   5.939   5.941  0.5173  0.3094 -0.6811
 9521SOL    HW229384   3.552   6.070   5.904 -0.2198  0.0656  0.1803
 9522SOL     OW29385   3.197   0.037   4.537  0.3009  0.2139 -0.1492
 9522SOL    HW129386   3.214  -0.061   4.552 -0.8871 -0.0642 -0.4984
 9522SOL    HW229387   3.101   0.051   4.515  1.1851  0.9676 -4.2513
 9523SOL     OW29388   1.807   3.966   0.197  0.4469 -0.2710 -0.1507
 9523SOL    HW129389   1.758   3.964   0.110  1.9990  1.0373 -1.1007
 9523SOL    HW229390   1.820   4.061   0.226  1.2088 -0.6428  0.7713
 9524SOL     OW29391   4.308   0.323   0.103  0.4603  0.1800  0.1232
 9524SOL    HW129392   4.272   0.367   0.021  1.2292 -0.2143 -0.4330
 9524SOL    HW229393   4.386   0.265   0.079 -0.3506 -1.2888  0.8707
 9525SOL     OW29394   5.883   3.888   1.999  0.2485  0.2618  0.0458
 9525SOL    HW129395   5.978   3.873   1.970 -0.6355 -2.9567 -1.6844
 9525SOL    HW229396   5.854   3.979   1.971  2.4474  0.8382 -0.5508
 9526SOL     OW29397   4.237   5.695   6.271  0.3234  0.0762  0.2312
 9526SOL    HW129398   4.261   5.771   6.211 -2.8220  2.3046  1.5079
 9526SOL    HW229399   4.221   5.613   6.216  1.3471  0.9636 -1.4834
 9527SOL     OW29400   5.743   3.006   0.461  0.6444 -0.0245 -0.3019
 9527SOL    HW129401   5.781   2.955   0.384 -1.4676  1.4891 -2.4570
 9527SOL    HW229402   5.681   2.946   0.513  2.2881 -1.1290  0.4665
 9528SOL     OW29403   4.096   4.520   2.198 -0.0202  0.1487 -0.4648
 9528SOL    HW129404   4.193   4.508   2.218  0.1122  1.3707 -0.2732
 9528SOL    HW229405   4.053   4.567   2.275 -1.1160 -1.7811  0.1622
 9529SOL     OW29406   2.133   2.895   6.952  0.0376 -0.3039  0.5927
 9529SOL    HW129407   2.157   2.983   6.993 -0.5228 -0.6153  1.6158
 9529SOL    HW229408   2.140   2.902   6.852  1.4511  0.4625  0.7183
 9530SOL     OW29409   0.373   4.007   4.039  0.2051  0.4605  0.3478
 9530SOL    HW129410   0.296   4.048   3.991  0.1151  0.2900  0.3459
 9530SOL    HW229411   0.378   3.910   4.018  1.4871  0.8025 -1.0624
 9531SOL     OW29412   4.569   1.681   4.673  0.2254  0.4560 -0.1330
 9531SOL    HW129413   4.649   1.709   4.726 -0.7474  1.4196  0.8688
 9531SOL    HW229414   4.496   1.652   4.735 -0.8925  1.4744 -0.9122
 9532SOL     OW29415   4.956   0.207   2.441  0.0681  0.1609  0.0781
 9532SOL    HW129416   5.044   0.168   2.414  0.0601 -1.2779  1.9149
 9532SOL    HW229417   4.887   0.183   2.372  0.0222 -3.4472  1.1759
 9533SOL     OW29418   6.928   1.901   4.137  0.0937 -0.2520  0.0509
 9533SOL    HW129419   7.003   1.957   4.172  0.8195 -1.5644  0.6584
 9533SOL    HW229420   6.842   1.929   4.180  0.5149  0.0880  0.6850
 9534SOL     OW29421   2.396   0.507   3.540  0.6715 -0.2029  0.2540
 9534SOL    HW129422   2.404   0.522   3.638 -2.3301 -1.2941  0.7980
 9534SOL    HW229423   2.406   0.594   3.491  0.6090  0.6356  1.6930
 9535SOL     OW29424   0.499   3.121   0.083 -0.3226  0.2127  0.1702
 9535SOL    HW129425   0.559   3.048   0.114  1.0623  1.0742 -0.3531
 9535SOL    HW229426   0.534   3.158  -0.003 -1.3745  1.0409  0.0778
 9536SOL     OW29427   5.382   6.808   2.251  0.6641 -0.1708 -0.3159
 9536SOL    HW129428   5.371   6.728   2.192  1.6968 -0.5297 -0.0494
 9536SOL    HW229429   5.438   6.876   2.205 -1.3746  1.0623 -1.1306
 9537SOL     OW29430   0.544   2.305   3.704 -0.0070  0.2368  0.3208
 9537SOL    HW129431   0.543   2.245   3.784 -1.1233  1.0067  0.9219
 9537SOL    HW229432   0.514   2.397   3.732 -0.0666  0.6080 -0.9230
 9538SOL     OW29433   6.429   0.884   1.913 -0.1368 -0.3162 -0.3041
 9538SOL    HW129434   6.486   0.809   1.879 -0.6953 -0.3187 -1.3019
 9538SOL    HW229435   6.463   0.971   1.875 -0.2158 -0.2079 -0.1249
 9539SOL     OW29436   5.742   2.212   1.353  0.1722  0.0495  0.1370
 9539SOL    HW129437   5.741   2.308   1.324  0.1104  0.0801  0.2427
 9539SOL    HW229438   5.760   2.154   1.273  0.4732  0.1660  0.1202
 9540SOL     OW29439   0.454   2.697   4.382 -1.1014  0.1443 -0.3525
 9540SOL    HW129440   0.508   2.632   4.328 -1.2922 -2.6237  2.4876
 9540SOL    HW229441   0.499   2.711   4.471 -3.2838  0.4831  0.7636
 9541SOL     OW29442   0.426   4.910   4.465 -0.0668 -0.7434 -0.5850
 9541SOL    HW129443   0.512   4.922   4.513  0.2351 -0.7271 -1.1272
 9541SOL    HW229444   0.442   4.867   4.377 -0.7104 -1.5656 -0.3201
 9542SOL     OW29445   5.751   2.367   4.823  0.1808 -0.2413  0.2540
 9542SOL    HW129446   5.653   2.344   4.823 -0.3227  1.7149  0.2661
 9542SOL    HW229447   5.774   2.415   4.907  1.4159 -1.5472  0.7011
 9543SOL     OW29448   1.509   4.246   4.033  0.0254  0.1952  0.4445
 9543SOL    HW129449   1.603   4.249   4.000 -0.1547  0.2669 -0.0625
 9543SOL    HW229450   1.493   4.161   4.083  0.3800  0.2181  0.5969
 9544SOL     OW29451   6.160   6.386   2.710  0.2140  0.2044 -0.3664
 9544SOL    HW129452   6.200   6.472   2.742 -0.0391  0.4313 -0.6497
 9544SOL    HW229453   6.217   6.309   2.739  0.9286  0.5317 -0.8794
 9545SOL     OW29454   3.914   2.352   6.306  0.2768  0.2454 -0.2280
 9545SOL    HW129455   3.825   2.399   6.304 -0.2316 -0.7020 -2.4602
 9545SOL    HW229456   3.906   2.264   6.260  1.6552 -1.3122  2.3163
 9546SOL     OW29457   4.785   3.985   1.448  0.0413 -0.6306 -0.4661
 9546SOL    HW129458   4.835   4.060   1.403  0.7945 -0.7950  0.0639
 9546SOL    HW229459   4.748   4.018   1.535  1.6230 -1.2233  0.4777
 9547SOL     OW29460   5.229   6.268   4.122  0.0966  0.1634 -0.1183
 9547SOL    HW129461   5.240   6.183   4.071 -4.7478  0.5336 -2.4242
 9547SOL    HW229462   5.198   6.247   4.215  0.1801 -0.6060 -0.2583
 9548SOL     OW29463   1.938   5.254   3.262 -0.5093  0.4796 -0.3281
 9548SOL    HW129464   2.023   5.203   3.254 -1.1425 -0.7455  0.4171
 9548SOL    HW229465   1.958   5.352   3.268  0.7866  0.2658 -0.8303
 9549SOL     OW29466   6.109   4.435   6.652  0.6440 -0.0378 -0.0769
 9549SOL    HW129467   6.123   4.491   6.570 -0.3843 -2.3476 -1.9836
 9549SOL    HW229468   6.104   4.493   6.733 -2.1804  2.8303 -2.0769
 9550SOL     OW29469   5.399   5.559   6.691  0.1522  0.4345  0.4798
 9550SOL    HW129470   5.355   5.623   6.754  1.1069 -1.4047  3.2171
 9550SOL    HW229471   5.329   5.515   6.634 -0.8709  1.5224  0.8651
 9551SOL     OW29472   5.928   3.914   3.414 -0.5248 -0.0629 -0.5023
 9551SOL    HW129473   6.020   3.946   3.434 -0.2279 -0.0908 -1.7490
 9551SOL    HW229474   5.928   3.814   3.409 -0.6660 -0.0736 -0.2857
 9552SOL     OW29475   3.938   2.956   5.678 -0.5236  0.2451  0.3777
 9552SOL    HW129476   3.860   2.932   5.735  0.0507  0.6235  1.3610
 9552SOL    HW229477   3.981   3.040   5.714 -0.3473  0.6854 -0.8220
 9553SOL     OW29478   2.605   3.591   3.090  0.2199  0.5549  0.0412
 9553SOL    HW129479   2.538   3.666   3.097 -0.4115 -0.0556  0.7545
 9553SOL    HW229480   2.695   3.624   3.117 -0.4193  0.6041  2.3016
 9554SOL     OW29481   5.552   3.472   0.033 -0.0525 -0.3585  0.1670
 9554SOL    HW129482   5.531   3.558   0.078 -0.7015  1.1937 -2.8462
 9554SOL    HW229483   5.617   3.420   0.088 -0.4749  1.5134  2.5966
 9555SOL     OW29484   0.967   0.887   5.960 -0.9780  0.3616 -0.2143
 9555SOL    HW129485   0.893   0.825   5.933 -0.8291  0.6041 -1.2235
 9555SOL    HW229486   1.019   0.846   6.035 -1.7525 -0.0875  0.0830
 9556SOL     OW29487   5.655   2.133   6.042 -0.5997 -0.1760  0.0767
 9556SOL    HW129488   5.595   2.161   6.117 -0.6214 -0.3051  0.1090
 9556SOL    HW229489   5.720   2.206   6.022 -0.9973  0.1037 -0.1993
 9557SOL     OW29490   1.663   1.610   4.494  0.6659  0.1852 -0.6158
 9557SOL    HW129491   1.649   1.564   4.582 -0.6408 -0.2129 -1.0091
 9557SOL    HW229492   1.752   1.656   4.494  1.7825 -1.8427  0.0138
 9558SOL     OW29493   2.957   5.307   2.590  0.4923 -0.3455  0.4386
 9558SOL    HW129494   2.963   5.339   2.496 -1.5501 -0.5425  0.1906
 9558SOL    HW229495   3.001   5.217   2.598 -1.6870 -1.6443 -1.0415
 9559SOL     OW29496   1.355   1.030   0.974  0.0276 -0.5850 -0.0508
 9559SOL    HW129497   1.370   0.944   0.924 -0.1606 -0.1828 -0.8080
 9559SOL    HW229498   1.297   1.091   0.920  1.4541  0.6589 -0.2337
 9560SOL     OW29499   1.415   4.750   4.716 -0.2261 -0.2527 -1.1100
 9560SOL    HW129500   1.437   4.845   4.739  1.3056 -0.6486 -0.8422
 9560SOL    HW229501   1.372   4.747   4.625 -0.6616  0.7194 -0.9505
 9561SOL     OW29502   0.652   1.469   4.948 -0.6142  0.4271 -0.5049
 9561SOL    HW129503   0.580   1.535   4.927 -1.9463  0.0205  2.3317
 9561SOL    HW229504   0.681   1.480   5.043  1.6500 -0.8063 -0.9761
 9562SOL     OW29505   5.962   2.784   5.048 -0.3947 -0.6767  0.1189
 9562SOL    HW129506   5.947   2.877   5.082  1.6580 -0.0276 -0.5666
 9562SOL    HW229507   6.043   2.746   5.092  0.8309 -0.7888 -2.0792
 9563SOL     OW29508   3.702   0.076   4.084  0.7390 -0.3848  0.1453
 9563SOL    HW129509   3.726   0.094   3.988  1.8292 -0.0847  0.4531
 9563SOL    HW229510   3.605   0.095   4.099  1.3344  3.5092 -0.0069
 9564SOL     OW29511   1.994   1.923   6.196 -0.9998  0.1440  0.2647
 9564SOL    HW129512   2.080   1.959   6.232  0.0883  0.2556 -2.1935
 9564SOL    HW229513   1.971   1.837   6.242 -0.6655  1.1185  2.3366
 9565SOL     OW29514   0.950   3.901   4.979  0.6145  0.7758  0.3566
 9565SOL    HW129515   1.040   3.943   4.966  0.9411 -0.0855 -0.2732
 9565SOL    HW229516   0.893   3.919   4.898  0.6484  0.2838  0.2226
 9566SOL     OW29517   0.380   2.454   2.773  0.1573  0.2559 -0.6680
 9566SOL    HW129518   0.416   2.541   2.739 -0.0268  0.6828  0.1889
 9566SOL    HW229519   0.304   2.472   2.836 -0.0227 -0.5365 -0.6501
 9567SOL     OW29520   4.425   3.288   1.686  0.2867  0.0423 -0.1106
 9567SOL    HW129521   4.414   3.317   1.781  1.7394  1.6946 -0.3768
 9567SOL    HW229522   4.403   3.365   1.625 -0.4306 -0.9306 -1.1164
 9568SOL     OW29523   1.152   3.450   0.257  0.2439  0.1040 -0.1724
 9568SOL    HW129524   1.175   3.497   0.172 -0.8745 -0.1274 -0.6288
 9568SOL    HW229525   1.157   3.514   0.334  0.9215  0.4000 -0.4646
 9569SOL     OW29526   6.853   2.756   3.093 -0.0255 -0.3517  0.8276
 9569SOL    HW129527   6.896   2.728   3.178 -0.3694  0.2602  1.2129
 9569SOL    HW229528   6.914   2.817   3.043 -0.3445  0.3357  1.2663
 9570SOL     OW29529   1.206   2.064   2.875  0.0426  0.4022  0.2655
 9570SOL    HW129530   1.136   1.999   2.904  0.0014  0.7262  0.9118
 9570SOL    HW229531   1.287   2.015   2.844 -0.7513 -0.0032 -1.2630
 9571SOL     OW29532   4.098   5.215   3.983 -0.6011 -0.3565  0.3406
 9571SOL    HW129533   4.072   5.310   3.967  0.8218 -0.2422 -1.6861
 9571SOL    HW229534   4.062   5.157   3.910  0.0188 -1.0644  0.5785
 9572SOL     OW29535   0.132   2.039   0.492 -0.1743  0.3383 -0.0647
 9572SOL    HW129536   0.223   2.042   0.533 -0.0036 -0.3386 -0.3924
 9572SOL    HW229537   0.077   1.968   0.537 -0.6279  0.8960  0.2906
 9573SOL     OW29538   6.725   4.847   6.598 -0.2028 -0.0676 -0.2636
 9573SOL    HW129539   6.751   4.881   6.688  3.0238 -0.2240 -1.0263
 9573SOL    HW229540   6.722   4.923   6.533  4.3356 -0.5734 -1.3798
 9574SOL     OW29541   5.061   4.123   4.551  0.3810  0.2075 -0.2344
 9574SOL    HW129542   5.149   4.170   4.550  1.0869 -0.9736 -2.8628
 9574SOL    HW229543   5.028   4.113   4.457 -0.2504 -3.5124  0.2271
 9575SOL     OW29544   0.866   2.122   3.102  0.1730 -0.4372 -0.8126
 9575SOL    HW129545   0.948   2.177   3.085  1.0550 -1.4570 -0.0348
 9575SOL    HW229546   0.804   2.130   3.025  0.9687  0.4243 -1.3901
 9576SOL     OW29547   4.249   0.794   0.050  0.2811 -0.3634 -0.8467
 9576SOL    HW129548   4.298   0.816  -0.035  0.6717  0.8516 -0.3178
 9576SOL    HW229549   4.293   0.716   0.094  2.2492  1.1485 -0.0065
 9577SOL     OW29550   1.189   0.134   4.662 -0.6142 -0.0648 -0.3783
 9577SOL    HW129551   1.159   0.091   4.577 -0.0347  0.1142 -0.6766
 9577SOL    HW229552   1.141   0.092   4.739 -1.9981  0.5602 -0.8765
 9578SOL     OW29553   4.115   2.852   0.081 -0.3515 -0.6539 -0.4930
 9578SOL    HW129554   4.133   2.950   0.073  0.4982 -0.6345  1.2557
 9578SOL    HW229555   4.201   2.803   0.096 -0.7306 -1.7280 -1.6889
 9579SOL     OW29556   0.340   5.269   2.622  0.0676 -0.2154 -0.3607
 9579SOL    HW129557   0.293   5.215   2.551  0.6912  1.0155 -1.7760
 9579SOL    HW229558   0.274   5.302   2.689 -0.4450 -1.9656  0.0381
 9580SOL     OW29559   2.508   6.391   5.919  0.1390 -0.4167  0.3221
 9580SOL    HW129560   2.430   6.373   5.980  0.4074  0.4750  0.9510
 9580SOL    HW229561   2.481   6.457   5.850  0.6141  0.7345  1.1971
 9581SOL     OW29562   0.009   0.794   4.392  0.9203  0.5034  0.2613
 9581SOL    HW129563   0.038   0.713   4.443 -0.2365 -0.5262 -0.6615
 9581SOL    HW229564   0.041   0.787   4.298 -1.5612 -0.3186 -0.5970
 9582SOL     OW29565   5.292   1.915   4.964  0.1835 -0.3776 -0.3973
 9582SOL    HW129566   5.247   1.881   5.047  2.5423  0.7524  1.4702
 9582SOL    HW229567   5.345   1.842   4.922 -1.4299 -1.0928 -1.2654
 9583SOL     OW29568   6.554   4.853   4.796 -0.3576 -0.6083  0.0154
 9583SOL    HW129569   6.566   4.884   4.701  1.4033  1.5402  0.8590
 9583SOL    HW229570   6.639   4.814   4.830 -0.6503 -0.4109  1.0177
 9584SOL     OW29571   2.831   4.044   1.666  0.0153  0.0493 -0.2229
 9584SOL    HW129572   2.919   4.066   1.624  0.8622 -0.2659  1.3333
 9584SOL    HW229573   2.842   3.968   1.730 -1.5102 -0.3642 -0.3997
 9585SOL     OW29574   2.804   0.539   4.986 -0.0668 -0.1648  0.3273
 9585SOL    HW129575   2.830   0.518   4.892  0.1216 -0.4227  0.4366
 9585SOL    HW229576   2.726   0.601   4.986  2.5650  3.5002 -0.1172
 9586SOL     OW29577   3.693   3.638   1.510 -0.2296 -0.1501 -0.0420
 9586SOL    HW129578   3.668   3.707   1.577 -0.0400  0.5008 -0.6290
 9586SOL    HW229579   3.768   3.673   1.453  0.3146 -1.0900  0.0749
 9587SOL     OW29580   5.872   3.280   4.951 -0.3600 -0.7904  0.6953
 9587SOL    HW129581   5.864   3.246   5.045 -0.6597  1.0064  1.3516
 9587SOL    HW229582   5.842   3.208   4.887  1.0978 -2.5137  1.8556
 9588SOL     OW29583   5.706   6.971   5.659  0.3131 -0.4404 -0.3193
 9588SOL    HW129584   5.635   6.903   5.677 -1.1588  0.5916 -1.9438
 9588SOL    HW229585   5.753   6.993   5.745 -1.4162 -1.0597  0.8434
 9589SOL     OW29586   6.507   1.354   1.098 -0.0546  0.1153 -0.7576
 9589SOL    HW129587   6.429   1.411   1.125 -1.8911 -1.3335 -2.6393
 9589SOL    HW229588   6.591   1.394   1.132 -1.6789  1.1434  2.4305
 9590SOL     OW29589   3.642   4.249   4.707 -0.7827  0.0133 -0.0760
 9590SOL    HW129590   3.671   4.300   4.788 -0.8651 -1.2113  0.7575
 9590SOL    HW229591   3.547   4.273   4.686 -0.8500  0.1525  0.3595
 9591SOL     OW29592   6.169   1.189   1.620  0.3430 -0.2466 -0.0133
 9591SOL    HW129593   6.219   1.227   1.542  1.3903 -1.3585  0.0827
 9591SOL    HW229594   6.115   1.261   1.663  0.2941  0.5483 -1.3281
 9592SOL     OW29595   4.368   0.937   4.433  0.4840  0.6381 -0.4459
 9592SOL    HW129596   4.328   0.909   4.346  0.7908  0.1037 -0.4249
 9592SOL    HW229597   4.361   0.861   4.498  0.1632  1.0687  0.0296
 9593SOL     OW29598   1.413   2.774   4.008  0.8294  0.2363  0.4306
 9593SOL    HW129599   1.368   2.832   3.940 -0.4231  0.5923  1.5410
 9593SOL    HW229600   1.387   2.679   3.992 -0.1288  0.4137  0.9137
 9594SOL     OW29601   5.016   0.489   0.373 -0.2884 -0.2194  0.5166
 9594SOL    HW129602   5.104   0.450   0.345 -0.4581  0.0874 -0.4757
 9594SOL    HW229603   4.954   0.491   0.294 -1.3911 -0.9740  1.3351
 9595SOL     OW29604   4.798   4.545   3.212  0.1656  0.3692 -0.1582
 9595SOL    HW129605   4.785   4.628   3.159  0.3362  1.7598  1.8705
 9595SOL    HW229606   4.734   4.544   3.289  0.4762 -1.1766  0.1235
 9596SOL     OW29607   2.581   3.245   0.465  0.0533  0.6168 -0.4039
 9596SOL    HW129608   2.583   3.343   0.486  1.0609  0.6818 -0.7226
 9596SOL    HW229609   2.671   3.206   0.484 -0.4240 -0.3035 -0.0368
 9597SOL     OW29610   6.430   2.400   4.791  0.7852  0.4774 -0.0318
 9597SOL    HW129611   6.519   2.405   4.745  1.1302 -0.7811  0.4729
 9597SOL    HW229612   6.360   2.370   4.726  1.2046 -0.9559  0.1603
 9598SOL     OW29613   2.358   2.287   5.009  0.2526  0.2096 -0.1202
 9598SOL    HW129614   2.401   2.248   4.927 -0.2561 -0.8316  0.0825
 9598SOL    HW229615   2.347   2.385   4.998  0.0249  0.0623 -1.3933
 9599SOL     OW29616   1.171   4.981   6.251 -0.0984 -0.6319  0.1144
 9599SOL    HW129617   1.243   4.964   6.319  0.8637  0.2500 -0.6506
 9599SOL    HW229618   1.083   4.953   6.289  0.1963  1.1247  2.2809
 9600SOL     OW29619   2.231   3.329   0.527  0.2067  0.1490  0.1650
 9600SOL    HW129620   2.163   3.402   0.531  1.2911  1.1203  1.8405
 9600SOL    HW229621   2.212   3.261   0.598  1.0484  0.5131  0.7580
 9601SOL     OW29622   0.946   1.870   1.454  0.2290 -0.1477 -0.5104
 9601SOL    HW129623   0.943   1.850   1.552 -1.3950  0.5744 -0.3663
 9601SOL    HW229624   0.878   1.814   1.406 -0.3945  0.9217 -0.9101
 9602SOL     OW29625   2.885   2.304   6.932 -0.5105  0.0058  0.6176
 9602SOL    HW129626   2.946   2.347   6.865 -0.3269  1.3512  1.6027
 9602SOL    HW229627   2.928   2.222   6.968 -0.5020 -0.5964 -0.7036
 9603SOL     OW29628   3.637   0.059   1.475  0.4764  0.0477  0.0167
 9603SOL    HW129629   3.613   0.077   1.380 -0.7245  0.4993  0.3952
 9603SOL    HW229630   3.610  -0.034   1.500  2.3419 -0.6965 -0.5486
 9604SOL     OW29631   2.362   3.404   5.119 -0.4507  0.2651  0.0630
 9604SOL    HW129632   2.275   3.418   5.165 -0.4829  0.4155 -0.0411
 9604SOL    HW229633   2.418   3.339   5.170 -0.6378  0.1451  0.1112
 9605SOL     OW29634   0.107   1.175   2.753 -0.0664  0.1190  0.0336
 9605SOL    HW129635   0.035   1.169   2.822 -1.6197 -1.5416 -1.6205
 9605SOL    HW229636   0.081   1.241   2.682  0.1585 -0.2750 -0.4263
 9606SOL     OW29637   4.873   1.045   4.826  0.4248  0.0871  0.6415
 9606SOL    HW129638   4.854   1.142   4.811  0.1329  0.0965  1.0600
 9606SOL    HW229639   4.961   1.036   4.873  0.1923  0.1784  1.0971
 9607SOL     OW29640   1.460   4.777   2.292 -0.0967 -0.2605  0.2492
 9607SOL    HW129641   1.427   4.682   2.298  0.5566 -0.6243 -1.3791
 9607SOL    HW229642   1.543   4.779   2.237 -0.5603  1.3825 -0.4404
 9608SOL     OW29643   2.973   5.148   2.951  0.1990  0.3011  0.0677
 9608SOL    HW129644   2.971   5.203   2.867  0.5330  1.8609  1.0438
 9608SOL    HW229645   3.065   5.150   2.989  0.2542 -1.0988  0.0421
 9609SOL     OW29646   3.436   4.027   5.326  0.0867 -0.3346 -0.1489
 9609SOL    HW129647   3.389   3.980   5.251 -0.2833 -1.9556  1.0554
 9609SOL    HW229648   3.518   3.976   5.351  0.1295  0.1122  0.6638
 9610SOL     OW29649   4.572   0.276   2.748  0.0562  0.0913  0.4941
 9610SOL    HW129650   4.560   0.263   2.846 -2.2363 -1.6493  0.0621
 9610SOL    HW229651   4.553   0.190   2.700  1.4807  0.8090 -1.4643
 9611SOL     OW29652   0.439   2.091   4.576 -0.5042  0.3436  0.2070
 9611SOL    HW129653   0.386   2.093   4.491 -2.6925  2.6580  1.4701
 9611SOL    HW229654   0.485   2.178   4.589 -0.0543 -0.0377  1.3245
 9612SOL     OW29655   4.519   0.436   6.279  0.0115  0.1112 -0.2399
 9612SOL    HW129656   4.617   0.430   6.259  0.4985  1.2497  1.6155
 9612SOL    HW229657   4.504   0.429   6.377 -1.7224  0.6799 -0.4279
 9613SOL     OW29658   1.408   5.734   0.509  0.2554 -0.1940 -0.6363
 9613SOL    HW129659   1.442   5.658   0.564 -0.0778  0.4602  0.5098
 9613SOL    HW229660   1.480   5.802   0.498  0.5944 -0.7193 -1.7717
 9614SOL     OW29661   6.403   5.714   2.585 -0.8086  0.4839 -0.0691
 9614SOL    HW129662   6.413   5.750   2.678  2.7949  0.9662 -0.5100
 9614SOL    HW229663   6.384   5.790   2.522  0.4267  0.7449 -0.1567
 9615SOL     OW29664   6.442   4.090   1.467  0.2152 -0.2872  0.0403
 9615SOL    HW129665   6.357   4.105   1.416  0.8604 -2.3754 -1.8049
 9615SOL    HW229666   6.503   4.168   1.453 -0.5532  0.2615 -0.3708
 9616SOL     OW29667   3.417   6.252   3.460 -0.5465  0.2704 -0.2809
 9616SOL    HW129668   3.460   6.196   3.531  0.3011  1.7595  0.4452
 9616SOL    HW229669   3.452   6.224   3.371  0.2860  0.0054  0.1137
 9617SOL     OW29670   4.071   2.129   0.424 -0.3292 -0.3149  0.4138
 9617SOL    HW129671   4.101   2.034   0.418  0.3616 -0.0172 -2.7469
 9617SOL    HW229672   3.985   2.133   0.476  0.0604 -2.5180  1.3445
 9618SOL     OW29673   4.770   1.724   5.762  1.0035  0.1233 -0.3556
 9618SOL    HW129674   4.719   1.758   5.683 -0.4792 -1.4279 -0.1134
 9618SOL    HW229675   4.772   1.624   5.760  0.6745  0.0330  1.7144
 9619SOL     OW29676   2.881   6.720   3.871 -0.6205  0.0413 -0.0632
 9619SOL    HW129677   2.853   6.815   3.852  0.5160  0.2204 -0.9640
 9619SOL    HW229678   2.819   6.657   3.824 -1.3187  0.3299  0.4504
 9620SOL     OW29679   1.921   3.049   4.564  0.6089  0.4391  0.1339
 9620SOL    HW129680   1.899   3.004   4.477  0.8646  1.1234 -0.2942
 9620SOL    HW229681   1.977   2.988   4.619  0.0624 -0.1826  0.0138
 9621SOL     OW29682   5.891   5.935   3.192  0.1691 -0.3972 -0.5134
 9621SOL    HW129683   5.847   5.845   3.196  0.6328 -0.6627 -1.2458
 9621SOL    HW229684   5.871   5.979   3.105 -0.2128  0.2980 -0.0825
 9622SOL     OW29685   3.769   1.854   4.411  0.2522 -0.5036  0.1549
 9622SOL    HW129686   3.691   1.884   4.465  0.6818 -0.9806  1.0523
 9622SOL    HW229687   3.743   1.778   4.352  0.0430 -0.6776  0.4725
 9623SOL     OW29688   3.219   5.132   2.117  0.7313  0.1277 -0.4402
 9623SOL    HW129689   3.243   5.107   2.023  1.8756  0.1851 -0.1793
 9623SOL    HW229690   3.232   5.054   2.177  0.0596  0.1086 -0.3188
 9624SOL     OW29691   0.151   2.293   3.254  0.0908  0.2982  0.3248
 9624SOL    HW129692   0.173   2.213   3.310  4.1751  1.3008  0.4804
 9624SOL    HW229693   0.185   2.375   3.298  0.7617  1.4750 -2.1933
 9625SOL     OW29694   3.969   3.798   4.303 -0.1507 -0.6252 -0.2670
 9625SOL    HW129695   3.996   3.851   4.222  0.4823 -1.0734 -0.3573
 9625SOL    HW229696   4.014   3.709   4.301  1.0996 -0.0825  1.3418
 9626SOL     OW29697   1.462   1.326   4.596  0.1138 -0.5476 -0.3727
 9626SOL    HW129698   1.539   1.370   4.642  0.4282 -1.4107 -0.0512
 9626SOL    HW229699   1.495   1.247   4.543 -0.5482 -0.9642 -0.1837
 9627SOL     OW29700   6.799   5.571   5.895 -0.7852  0.4248  0.3258
 9627SOL    HW129701   6.727   5.592   5.829 -2.2275 -2.6937  0.7225
 9627SOL    HW229702   6.759   5.554   5.985  0.3150 -1.5910  0.5192
 9628SOL     OW29703   0.829   2.629   6.635 -0.0767  0.4698 -0.7152
 9628SOL    HW129704   0.822   2.683   6.719  0.6614 -1.0071  0.3381
 9628SOL    HW229705   0.805   2.686   6.557 -1.8764  1.5885  0.5845
 9629SOL     OW29706   3.414   3.685   4.622  0.1907  0.1415  0.5487
 9629SOL    HW129707   3.488   3.749   4.603  0.8637 -0.6906  0.3124
 9629SOL    HW229708   3.431   3.599   4.574 -0.9685 -0.0398  0.4360
 9630SOL     OW29709   0.281   5.140   1.786 -0.6006  0.3402 -0.1828
 9630SOL    HW129710   0.278   5.102   1.693 -0.1320  1.6499 -0.7609
 9630SOL    HW229711   0.350   5.212   1.790 -0.0868 -0.1980  1.3985
 9631SOL     OW29712   5.368   2.952   6.904 -0.1193 -0.0206 -0.1115
 9631SOL    HW129713   5.437   2.893   6.862  1.5681  2.6052 -1.2780
 9631SOL    HW229714   5.380   2.951   7.003  1.2588 -0.0410 -0.2514
 9632SOL     OW29715   4.242   3.389   4.488  0.2564 -0.5267 -0.3125
 9632SOL    HW129716   4.317   3.449   4.514  0.2434 -0.1948 -1.0239
 9632SOL    HW229717   4.238   3.311   4.552 -0.5414  0.8702  1.4132
 9633SOL     OW29718   5.143   2.039   1.900 -0.3659  0.0005 -0.1681
 9633SOL    HW129719   5.149   1.940   1.908 -0.5499 -0.0616 -0.7655
 9633SOL    HW229720   5.204   2.082   1.967  1.9973 -0.5371 -1.8591
 9634SOL     OW29721   5.187   3.650   4.964 -0.0927 -0.1686 -1.0186
 9634SOL    HW129722   5.258   3.719   4.977 -0.0510 -0.1209 -1.4826
 9634SOL    HW229723   5.153   3.654   4.870 -0.8510 -0.0556 -0.7449
 9635SOL     OW29724   6.038   2.936   0.922 -0.4845 -0.2856 -0.1107
 9635SOL    HW129725   5.999   3.027   0.937 -2.7836 -0.9526 -1.4887
 9635SOL    HW229726   6.121   2.944   0.866  1.8616  1.2297  3.2645
 9636SOL     OW29727   6.969   6.985   3.837  0.3211 -0.2534 -0.1053
 9636SOL    HW129728   6.982   7.084   3.838  0.7049 -0.2968 -0.5427
 9636SOL    HW229729   7.040   6.943   3.780 -0.2038 -0.7228 -0.4157
 9637SOL     OW29730   6.520   2.094   6.943  0.1446  0.1949 -0.2790
 9637SOL    HW129731   6.442   2.031   6.943  0.6159 -0.4382  1.5023
 9637SOL    HW229732   6.605   2.041   6.936  0.5136  0.6670  0.4939
 9638SOL     OW29733   5.226   4.567   3.968  0.6029 -0.4354 -0.4764
 9638SOL    HW129734   5.130   4.571   3.940  1.2699  0.0379 -3.0066
 9638SOL    HW229735   5.260   4.473   3.959  0.8941 -0.2317 -1.6708
 9639SOL     OW29736   4.286   6.960   5.713  0.3165 -0.0385 -0.0458
 9639SOL    HW129737   4.194   6.922   5.715  0.3072  0.0116  0.6031
 9639SOL    HW229738   4.352   6.890   5.741  0.2198  0.6236  1.9787
 9640SOL     OW29739   3.161   3.781   4.787 -0.0731 -0.5800  0.8855
 9640SOL    HW129740   3.200   3.704   4.839 -0.9035 -1.9797 -0.4904
 9640SOL    HW229741   3.235   3.835   4.748  0.5977 -2.7164 -0.9970
 9641SOL     OW29742   2.674   3.890   5.835  0.4299 -0.3233 -0.5294
 9641SOL    HW129743   2.584   3.868   5.799  0.0647  0.8950 -0.4110
 9641SOL    HW229744   2.680   3.988   5.851  0.8941 -0.6737  1.8458
 9642SOL     OW29745   1.477   4.986   3.718  0.2528 -0.1417 -0.5987
 9642SOL    HW129746   1.507   5.069   3.766  0.6372 -1.5232  1.6894
 9642SOL    HW229747   1.379   4.993   3.698 -0.5867 -0.5095  2.8109
 9643SOL     OW29748   1.832   4.210   2.522 -0.0034  0.7300  0.2636
 9643SOL    HW129749   1.899   4.191   2.594  0.7238  0.1837 -0.5370
 9643SOL    HW229750   1.744   4.171   2.548  1.0835 -2.6852 -0.6440
 9644SOL     OW29751   5.025   3.178   1.706  0.1699 -0.0721 -0.3230
 9644SOL    HW129752   4.960   3.133   1.767 -0.1316  1.5950  0.6524
 9644SOL    HW229753   5.025   3.133   1.617 -1.6385 -0.6807 -0.0458
 9645SOL     OW29754   3.789   2.605   0.420  0.2158  0.0670  0.1191
 9645SOL    HW129755   3.804   2.537   0.348 -0.3458  0.6219 -0.5386
 9645SOL    HW229756   3.840   2.688   0.398 -1.5745  0.9996 -0.7523
 9646SOL     OW29757   6.729   2.362   1.379 -0.2343  0.4311 -0.6799
 9646SOL    HW129758   6.670   2.346   1.458  0.1596  2.7711  0.1686
 9646SOL    HW229759   6.710   2.453   1.341  1.3776  0.3986 -1.6583
 9647SOL     OW29760   1.154   5.949   6.981  0.8709  0.2337  0.1203
 9647SOL    HW129761   1.199   5.961   7.069  0.4065  1.4000  0.2174
 9647SOL    HW229762   1.056   5.931   6.995  0.9344 -0.3401 -0.1396
 9648SOL     OW29763   1.406   4.702   5.722  0.3120  0.3851 -0.2248
 9648SOL    HW129764   1.456   4.748   5.648  1.2449 -0.9635 -0.4583
 9648SOL    HW229765   1.314   4.680   5.691  1.0133 -1.0975 -1.4091
 9649SOL     OW29766   0.414   1.840   5.113  0.0702 -0.1465  0.0076
 9649SOL    HW129767   0.488   1.884   5.163 -0.0825 -0.0229  0.1283
 9649SOL    HW229768   0.353   1.911   5.076 -0.8226 -0.2770  1.1869
 9650SOL     OW29769   1.289   6.671   0.797 -0.1292 -0.0989  0.0345
 9650SOL    HW129770   1.229   6.677   0.877  1.0227 -3.0128  1.2675
 9650SOL    HW229771   1.293   6.577   0.765  1.1184  0.6362 -2.1829
 9651SOL     OW29772   5.774   0.757   2.709 -0.0811  0.0637  0.8015
 9651SOL    HW129773   5.828   0.675   2.727  1.2768  1.1612  2.0749
 9651SOL    HW229774   5.816   0.810   2.636 -0.4108  0.1090  0.6402
 9652SOL     OW29775   6.443   2.733   5.737 -0.2553 -0.2080 -0.3522
 9652SOL    HW129776   6.423   2.799   5.809 -1.0184 -0.2201 -0.5489
 9652SOL    HW229777   6.463   2.644   5.779 -2.3095 -0.6379 -0.1892
 9653SOL     OW29778   0.499   4.729   5.276  0.0732 -0.7105  0.1172
 9653SOL    HW129779   0.592   4.765   5.290 -0.7314  0.2819  3.9613
 9653SOL    HW229780   0.496   4.633   5.302 -0.1429 -0.5140  0.8270
 9654SOL     OW29781   3.667   4.824   0.202  0.0609  0.1744  0.5529
 9654SOL    HW129782   3.678   4.920   0.225 -1.3247  1.4455 -3.2746
 9654SOL    HW229783   3.570   4.802   0.192  0.3778 -1.4972  0.8183
 9655SOL     OW29784   3.750   5.014   1.993  0.3656  0.6249  0.2210
 9655SOL    HW129785   3.743   5.113   1.981  1.7687  0.6138 -0.8582
 9655SOL    HW229786   3.679   4.984   2.057 -0.6343  2.1975 -0.0814
 9656SOL     OW29787   0.118   2.829   3.644  0.2241  0.0075 -0.4087
 9656SOL    HW129788   0.160   2.827   3.553  0.7782  1.8534 -0.2258
 9656SOL    HW229789   0.022   2.800   3.636  0.4407 -0.4882 -1.4633
 9657SOL     OW29790   3.718   2.487   2.131 -0.1103 -0.8880  0.3527
 9657SOL    HW129791   3.630   2.487   2.178 -0.5122 -0.7579 -0.3875
 9657SOL    HW229792   3.759   2.395   2.137  0.7330 -0.4223  2.5470
 9658SOL     OW29793   2.479   5.369   5.831  0.3907 -0.4388  0.5742
 9658SOL    HW129794   2.427   5.362   5.916  3.2793  0.0735  2.5397
 9658SOL    HW229795   2.516   5.461   5.822 -1.0177 -0.0460 -2.0695
 9659SOL     OW29796   1.481   1.998   1.928 -0.0710 -0.1590  0.1445
 9659SOL    HW129797   1.467   2.017   2.025 -1.3739 -0.9861  0.1432
 9659SOL    HW229798   1.420   1.924   1.899  0.0570  0.2895 -1.3800
 9660SOL     OW29799   2.861   2.451   2.965  0.6121 -0.5131  0.4065
 9660SOL    HW129800   2.865   2.409   2.874  0.8188 -0.3270  0.3308
 9660SOL    HW229801   2.840   2.381   3.032  1.6154 -0.8661  0.3690
 9661SOL     OW29802   4.485   2.030   4.718 -0.1675 -0.2319  0.4685
 9661SOL    HW129803   4.470   1.962   4.789  1.3220 -0.0911  0.9558
 9661SOL    HW229804   4.582   2.034   4.696 -0.5281  0.1394 -1.1812
 9662SOL     OW29805   6.379   6.724   2.080  0.2748  0.4111  0.3748
 9662SOL    HW129806   6.468   6.768   2.070 -0.4109  1.4537 -1.6600
 9662SOL    HW229807   6.368   6.653   2.010 -1.2444  1.7136 -0.7788
 9663SOL     OW29808   0.976   6.131   2.914  0.2068 -0.0384  0.1881
 9663SOL    HW129809   0.946   6.143   2.819 -0.7039  0.3305  0.5159
 9663SOL    HW229810   1.066   6.173   2.926 -0.1723  0.9254 -0.2414
 9664SOL     OW29811   1.386   6.527   6.954  0.0411 -0.7279  0.0449
 9664SOL    HW129812   1.294   6.488   6.961  0.2818 -1.2534  0.2870
 9664SOL    HW229813   1.402   6.589   7.030  1.1965 -3.3975  2.1313
 9665SOL     OW29814   0.530   5.861   0.827  0.8539 -0.2436  0.3196
 9665SOL    HW129815   0.433   5.875   0.810  1.0588  1.4957  0.3661
 9665SOL    HW229816   0.544   5.773   0.872 -0.7120 -0.3769  0.6004
 9666SOL     OW29817   1.282   4.717   4.457  0.2162  0.3984  0.1633
 9666SOL    HW129818   1.313   4.631   4.417  0.7714 -0.2555  1.9087
 9666SOL    HW229819   1.182   4.720   4.455  0.2253  0.2112 -0.8951
 9667SOL     OW29820   5.678   0.654   3.057 -0.5611 -0.2920 -0.0188
 9667SOL    HW129821   5.623   0.650   2.974 -1.9117  0.0071  0.8388
 9667SOL    HW229822   5.696   0.749   3.081 -2.0966 -0.2749  1.2323
 9668SOL     OW29823   1.472   3.853   5.731 -0.3180 -0.3795  0.4551
 9668SOL    HW129824   1.520   3.767   5.713 -0.9443 -0.4203 -1.1756
 9668SOL    HW229825   1.378   3.846   5.696 -0.2606  1.0937 -0.0278
 9669SOL     OW29826   3.511   6.394   0.978  0.2739  0.2485  0.0445
 9669SOL    HW129827   3.542   6.451   1.053 -1.1217  0.2579  0.6413
 9669SOL    HW229828   3.540   6.299   0.994  0.7896  0.4085  0.0959
 9670SOL     OW29829   5.474   2.107   5.054  0.1366 -0.0252  0.3376
 9670SOL    HW129830   5.397   2.044   5.063 -0.0208  0.4004  2.7806
 9670SOL    HW229831   5.445   2.198   5.084  1.0220  0.6733 -0.8362
 9671SOL     OW29832   0.024   4.627   5.386  0.5788 -0.3790  0.1139
 9671SOL    HW129833   0.102   4.637   5.448  1.0432 -0.5250 -0.4426
 9671SOL    HW229834   0.050   4.656   5.294 -0.1622  0.0095  0.0190
 9672SOL     OW29835   3.615   5.453   6.398 -0.2811  0.2509  0.3405
 9672SOL    HW129836   3.651   5.516   6.328 -0.2887 -0.5989 -0.4544
 9672SOL    HW229837   3.526   5.485   6.428 -1.2366 -0.4564 -1.5837
 9673SOL     OW29838   0.343   6.677   1.419 -0.3110  0.0666 -0.0598
 9673SOL    HW129839   0.317   6.773   1.407 -1.6606 -0.3936 -0.9753
 9673SOL    HW229840   0.279   6.633   1.482 -0.0849 -0.3957 -0.1516
 9674SOL     OW29841   0.564   4.131   4.502 -0.5381 -0.5282 -0.0456
 9674SOL    HW129842   0.537   4.173   4.415 -0.4852 -0.8581 -0.2217
 9674SOL    HW229843   0.486   4.083   4.542 -0.4819 -0.6273 -0.0561
 9675SOL     OW29844   6.877   4.614   3.365  0.4510 -0.2570  0.0616
 9675SOL    HW129845   6.911   4.621   3.459 -3.1094 -3.0677  1.8057
 9675SOL    HW229846   6.825   4.696   3.343  2.6491  1.1500 -0.1843
 9676SOL     OW29847   5.995   5.275   3.525  0.2992 -0.2210  0.0448
 9676SOL    HW129848   5.959   5.342   3.460 -0.9307 -0.6486  0.2645
 9676SOL    HW229849   6.088   5.301   3.551  0.5601  0.3275 -1.3501
 9677SOL     OW29850   4.608   1.751   0.583  0.6610  0.5520  0.0274
 9677SOL    HW129851   4.558   1.683   0.529 -0.5185  1.7294 -0.4052
 9677SOL    HW229852   4.683   1.788   0.528 -0.7405  1.9890 -0.9767
 9678SOL     OW29853   4.290   4.648   2.536  0.3596 -0.5139 -0.1254
 9678SOL    HW129854   4.342   4.635   2.621 -1.0271 -1.3469  0.6182
 9678SOL    HW229855   4.197   4.678   2.558  0.3117  0.3303 -1.4121
 9679SOL     OW29856   1.681   4.763   2.116 -0.3858 -0.0893  0.2798
 9679SOL    HW129857   1.703   4.859   2.130 -1.9645  0.1417  1.4516
 9679SOL    HW229858   1.675   4.744   2.018 -0.8000  1.1964  0.0341
 9680SOL     OW29859   6.015   6.301   3.915  0.9264 -0.4353 -0.6046
 9680SOL    HW129860   6.069   6.356   3.979  0.4708  2.1842 -2.2920
 9680SOL    HW229861   5.921   6.293   3.949  1.3254 -1.4680  0.3328
 9681SOL     OW29862   3.526   1.284   6.887 -0.1344 -0.1521 -0.8574
 9681SOL    HW129863   3.517   1.318   6.980 -1.3632 -3.7373  0.4771
 9681SOL    HW229864   3.460   1.332   6.828 -0.8479  0.6604  0.5654
 9682SOL     OW29865   6.821   6.598   1.913  0.2689 -0.1086  0.0641
 9682SOL    HW129866   6.851   6.537   1.986  3.1394  0.0996 -0.8228
 9682SOL    HW229867   6.734   6.565   1.875  1.4361 -3.3883 -0.0448
 9683SOL     OW29868   3.274   5.883   6.280  0.3986  0.4252  0.7083
 9683SOL    HW129869   3.220   5.880   6.196  1.4098  2.2438 -0.0600
 9683SOL    HW229870   3.366   5.848   6.261  0.5063  0.4638  1.1620
 9684SOL     OW29871   1.631   3.290   5.612  0.2343 -0.6394 -0.0647
 9684SOL    HW129872   1.728   3.283   5.634  0.5000 -0.5498 -1.1769
 9684SOL    HW229873   1.618   3.283   5.513 -0.9083 -0.8099  0.0831
 9685SOL     OW29874   5.815   3.805   5.059 -0.2202 -0.3455 -0.0015
 9685SOL    HW129875   5.791   3.903   5.062  1.2340  0.0428 -0.3435
 9685SOL    HW229876   5.773   3.758   5.137 -1.1445  0.4879  0.0320
 9686SOL     OW29877   5.141   2.306   3.698 -0.7119  0.1109  0.6470
 9686SOL    HW129878   5.095   2.305   3.610 -0.3139 -0.6228  0.4460
 9686SOL    HW229879   5.157   2.401   3.725 -1.7866  0.3736  0.4429
 9687SOL     OW29880   6.263   1.471   2.904  0.0977  0.0990  0.3292
 9687SOL    HW129881   6.195   1.414   2.858 -1.2809  1.8596  0.0350
 9687SOL    HW229882   6.325   1.414   2.957 -1.5938 -1.6043  0.5791
 9688SOL     OW29883   3.356   5.547   1.828  0.7495  0.2570  0.7798
 9688SOL    HW129884   3.285   5.498   1.880 -0.5370  1.0157 -0.2011
 9688SOL    HW229885   3.368   5.502   1.739 -0.4315  1.6334 -0.1268
 9689SOL     OW29886   6.303   3.264   6.078 -0.1167 -0.0520 -0.2024
 9689SOL    HW129887   6.249   3.310   6.148 -0.1370  0.5908 -0.6302
 9689SOL    HW229888   6.399   3.263   6.104 -0.1669 -0.0995 -0.0184
 9690SOL     OW29889   1.380   2.204   4.442 -1.1001 -0.0064  0.0812
 9690SOL    HW129890   1.392   2.144   4.522  0.0699 -2.5445 -1.8518
 9690SOL    HW229891   1.294   2.254   4.451 -0.9155 -0.0128  2.9910
 9691SOL     OW29892   0.299   3.308   3.383  0.1420 -0.0747 -0.3498
 9691SOL    HW129893   0.312   3.407   3.382  0.4870 -0.1197 -0.4962
 9691SOL    HW229894   0.224   3.285   3.445 -0.1451  0.3000 -0.5545
 9692SOL     OW29895   6.029   1.950   1.600 -0.1085  0.1588  0.4246
 9692SOL    HW129896   6.082   1.896   1.535 -1.5725 -0.8997  0.0536
 9692SOL    HW229897   6.056   1.927   1.693  0.1936 -0.2378  0.2382
 9693SOL     OW29898   5.216   3.497   1.207 -0.4069 -0.3484 -0.0711
 9693SOL    HW129899   5.199   3.532   1.115 -0.9138 -0.6068 -0.0813
 9693SOL    HW229900   5.219   3.573   1.272  1.0053 -0.0588 -0.4394
 9694SOL     OW29901   2.868   2.779   3.821  0.9081  0.4929  0.1984
 9694SOL    HW129902   2.967   2.774   3.813  0.9816 -1.3732  1.7048
 9694SOL    HW229903   2.830   2.687   3.827 -1.0289  1.1188 -1.1944
 9695SOL     OW29904   2.989   1.027   0.514 -0.1166 -0.2220 -0.2419
 9695SOL    HW129905   2.970   0.983   0.426 -0.8775  1.4542 -0.9651
 9695SOL    HW229906   3.059   1.097   0.502 -1.1038  0.8760  0.1884
 9696SOL     OW29907   0.055   3.856   4.988 -0.5316 -0.1670 -0.3894
 9696SOL    HW129908  -0.036   3.859   4.945  0.2697 -0.8001 -2.2591
 9696SOL    HW229909   0.065   3.772   5.040 -1.5322  0.6181  1.1565
 9697SOL     OW29910   2.826   0.380   2.457  0.8652 -0.1534  0.9697
 9697SOL    HW129911   2.866   0.290   2.437  0.7384  0.3962 -2.2931
 9697SOL    HW229912   2.894   0.451   2.442 -0.0645  0.5018 -0.3613
 9698SOL     OW29913   2.679   2.636   3.389 -0.7192 -0.2605  0.2035
 9698SOL    HW129914   2.650   2.543   3.365  0.0393 -0.7721  1.2258
 9698SOL    HW229915   2.638   2.662   3.476 -2.0071  0.8979 -0.7150
 9699SOL     OW29916   5.105   1.456   1.838  0.4520 -0.3308  0.2386
 9699SOL    HW129917   5.189   1.411   1.866  1.0568  0.5920 -0.0305
 9699SOL    HW229918   5.063   1.502   1.917 -0.3852 -1.6741  0.6013
 9700SOL     OW29919   1.264   0.028   1.621  0.1833 -0.2102  0.1655
 9700SOL    HW129920   1.326   0.094   1.579  0.3386 -0.6166 -0.2553
 9700SOL    HW229921   1.246  -0.046   1.556 -1.0904  0.1165  0.1230
 9701SOL     OW29922   3.240   1.416   6.852  0.2730 -0.0154 -0.2502
 9701SOL    HW129923   3.219   1.323   6.882 -0.2253  0.0984 -0.2406
 9701SOL    HW229924   3.159   1.458   6.811  0.1265  0.8349  0.8401
 9702SOL     OW29925   6.581   5.297   3.826 -0.3570 -0.2410 -0.0360
 9702SOL    HW129926   6.572   5.353   3.909  1.8797  1.3125 -0.7550
 9702SOL    HW229927   6.636   5.216   3.847 -2.4055 -1.5235  0.6658
 9703SOL     OW29928   5.363   2.532   6.033 -0.7021 -0.2174  0.5123
 9703SOL    HW129929   5.371   2.434   6.053 -0.8295 -0.0455  1.4871
 9703SOL    HW229930   5.392   2.550   5.939  0.1932 -1.0623  0.6122
 9704SOL     OW29931   3.635   0.059   5.778 -0.3224  0.0768 -0.4898
 9704SOL    HW129932   3.718   0.111   5.761  0.0309 -0.1983  0.3228
 9704SOL    HW229933   3.598   0.083   5.868  0.0884 -1.3562  0.0928
 9705SOL     OW29934   2.118   3.255   2.488 -0.0063 -0.4594 -0.0635
 9705SOL    HW129935   2.143   3.321   2.559  0.3732 -0.0373 -0.5761
 9705SOL    HW229936   2.158   3.166   2.510 -1.1516 -0.7283  1.0218
 9706SOL     OW29937   3.608   1.086   3.445  0.0276  0.2911 -0.2822
 9706SOL    HW129938   3.531   1.116   3.501  1.7905  1.3520  1.7424
 9706SOL    HW229939   3.688   1.142   3.465  1.4690 -1.0038 -2.0080
 9707SOL     OW29940   1.111   1.125   3.471  0.2397  0.4659 -0.0330
 9707SOL    HW129941   1.088   1.030   3.450  0.8578  0.5916 -1.3844
 9707SOL    HW229942   1.033   1.184   3.450  0.1587  0.3575 -0.0357
 9708SOL     OW29943   2.286   0.145   4.901 -0.8440 -0.0073  0.3756
 9708SOL    HW129944   2.287   0.101   4.991  0.9541 -0.7995  0.0103
 9708SOL    HW229945   2.315   0.240   4.910  0.0214 -0.2817  0.5605
 9709SOL     OW29946   5.716   4.709   3.545  0.3828 -0.9685 -0.1016
 9709SOL    HW129947   5.707   4.809   3.540  1.7940 -0.8643 -1.1590
 9709SOL    HW229948   5.652   4.673   3.613 -2.2272  0.3579 -1.7022
 9710SOL     OW29949   0.279   1.717   2.853 -0.0055  0.2025 -0.2525
 9710SOL    HW129950   0.296   1.799   2.907  0.7559  0.4842 -0.8959
 9710SOL    HW229951   0.283   1.740   2.755  1.0040 -0.7469 -0.4537
 9711SOL     OW29952   3.183   5.370   1.906  0.2313 -0.6185  0.0471
 9711SOL    HW129953   3.185   5.270   1.911  0.7593 -0.5408  3.2957
 9711SOL    HW229954   3.103   5.404   1.955  1.8443  0.5974  1.9748
 9712SOL     OW29955   4.946   4.255   6.511 -0.0978 -0.1371 -0.1089
 9712SOL    HW129956   4.847   4.274   6.506 -0.1382 -0.5978 -2.5463
 9712SOL    HW229957   4.962   4.174   6.566 -1.1066 -0.2121  0.0953
 9713SOL     OW29958   6.438   1.705   6.197 -0.1751 -0.0312  0.3591
 9713SOL    HW129959   6.498   1.678   6.122 -1.2992  0.8175 -0.8873
 9713SOL    HW229960   6.445   1.638   6.271  1.4412 -0.5379 -0.2193
 9714SOL     OW29961   3.203   0.513   1.386  0.2650 -0.3163 -0.3540
 9714SOL    HW129962   3.113   0.507   1.430 -0.1584 -1.8737 -1.3704
 9714SOL    HW229963   3.233   0.422   1.358  2.0231  0.2204 -0.3510
 9715SOL     OW29964   3.193   4.171   6.899 -0.3751  0.1632  0.2343
 9715SOL    HW129965   3.160   4.086   6.857 -2.0761 -0.0207  1.7851
 9715SOL    HW229966   3.275   4.153   6.953 -0.0074 -0.2300 -0.4497
 9716SOL     OW29967   3.006   2.468   0.789  0.6527 -0.1248  0.1463
 9716SOL    HW129968   2.920   2.514   0.770  0.2926 -0.5698  0.6680
 9716SOL    HW229969   3.063   2.467   0.707  0.0576 -0.0601 -0.2685
 9717SOL     OW29970   0.828   1.824   3.337 -0.2207  0.6245 -0.3376
 9717SOL    HW129971   0.757   1.894   3.327  0.9361  2.1601  1.4711
 9717SOL    HW229972   0.915   1.869   3.358  0.5119 -1.3841  1.2062
 9718SOL     OW29973   2.330   3.460   2.966 -0.3331 -0.4170  0.1147
 9718SOL    HW129974   2.425   3.489   2.969 -0.6488  0.7684 -0.4633
 9718SOL    HW229975   2.289   3.468   3.057  0.0243 -0.6152  0.2942
 9719SOL     OW29976   6.685   3.433   2.755 -0.4289 -0.1209  0.3412
 9719SOL    HW129977   6.755   3.504   2.763  0.4652 -1.0590  1.1504
 9719SOL    HW229978   6.727   3.343   2.769 -1.7119 -0.7494  0.3146
 9720SOL     OW29979   6.124   6.388   4.560  0.2033  0.5447  0.3735
 9720SOL    HW129980   6.038   6.343   4.538  0.2213  0.0290  1.3121
 9720SOL    HW229981   6.169   6.416   4.475 -1.2252  1.4976 -0.1085
 9721SOL     OW29982   6.774   2.399   0.623  0.1618 -0.4549  0.5075
 9721SOL    HW129983   6.713   2.447   0.561  0.4491  1.2324  1.4725
 9721SOL    HW229984   6.811   2.318   0.578 -1.8499 -0.8815 -0.5004
 9722SOL     OW29985   0.369   0.341   5.806 -0.2928  0.7645 -0.4735
 9722SOL    HW129986   0.418   0.403   5.745 -0.2097  0.4785 -0.6979
 9722SOL    HW229987   0.429   0.314   5.881  0.2090 -0.3295 -1.2548
 9723SOL     OW29988   2.782   3.664   0.839  0.0057  0.1790 -0.6926
 9723SOL    HW129989   2.788   3.571   0.874  2.0334  0.5926  0.2047
 9723SOL    HW229990   2.824   3.727   0.904 -1.3215  1.7528 -1.2771
 9724SOL     OW29991   5.011   6.924   4.283 -0.1004 -0.6954 -0.2537
 9724SOL    HW129992   5.004   7.023   4.268  1.0721 -0.8483 -2.1326
 9724SOL    HW229993   5.095   6.904   4.333  0.6855 -0.8761 -1.6262
 9725SOL     OW29994   0.479   3.954   3.363 -0.1411 -0.5428 -0.3570
 9725SOL    HW129995   0.428   3.975   3.280  2.3938  1.2054 -1.5862
 9725SOL    HW229996   0.522   4.037   3.398  0.8330 -1.6944  1.3211
 9726SOL     OW29997   2.793   5.564   2.208  0.0603  0.2344 -0.6243
 9726SOL    HW129998   2.861   5.636   2.189 -0.4652  0.8570 -0.1971
 9726SOL    HW229999   2.730   5.596   2.278  1.1292 -1.4716  1.2236
 9727SOL     OW30000   4.586   4.366   0.546  0.5257  0.7002 -0.4220
 9727SOL    HW130001   4.559   4.455   0.508  0.8694  0.0949 -2.1644
 9727SOL    HW230002   4.685   4.363   0.555  0.6886 -0.1415 -2.1424
 9728SOL     OW30003   2.100   2.924   6.681  0.0245 -0.5356  0.1548
 9728SOL    HW130004   2.051   2.837   6.670  1.2256 -1.0314 -1.7685
 9728SOL    HW230005   2.070   2.988   6.610  0.7253 -0.1710  0.1794
 9729SOL     OW30006   6.065   0.311   3.932 -0.4990  0.1025  0.0900
 9729SOL    HW130007   6.090   0.378   3.862 -0.0044 -1.2262 -1.0738
 9729SOL    HW230008   6.021   0.232   3.888  1.6419 -1.6964  0.9626
 9730SOL     OW30009   2.839   0.352   0.831 -0.0762  0.1148 -0.1790
 9730SOL    HW130010   2.856   0.450   0.816 -1.7475  0.4589 -0.0281
 9730SOL    HW230011   2.780   0.341   0.911  0.6227 -1.0754  0.1888
 9731SOL     OW30012   3.292   0.516   0.910  1.1268 -0.1976  0.2049
 9731SOL    HW130013   3.340   0.436   0.875 -1.3353 -1.9053  0.4869
 9731SOL    HW230014   3.213   0.487   0.964 -1.1490  2.3799 -1.4900
 9732SOL     OW30015   3.396   0.047   0.741  0.8925  0.1228 -0.7539
 9732SOL    HW130016   3.297   0.041   0.748  0.9408  0.9158  2.1634
 9732SOL    HW230017   3.438  -0.002   0.817  2.7617 -0.2363 -1.9537
 9733SOL     OW30018   6.561   3.007   3.007  0.6620  0.4663 -0.0135
 9733SOL    HW130019   6.569   3.090   2.951  2.1822 -0.0563 -0.6170
 9733SOL    HW230020   6.554   2.927   2.947 -2.4316  0.1978  0.5239
 9734SOL     OW30021   2.232   2.157   2.228  0.2947  0.0395 -0.0974
 9734SOL    HW130022   2.325   2.146   2.263  0.3882 -1.5085 -0.7377
 9734SOL    HW230023   2.188   2.067   2.222 -1.8866  0.8867  1.8513
 9735SOL     OW30024   2.332   0.448   6.590 -0.0977 -0.1112  0.6002
 9735SOL    HW130025   2.405   0.512   6.569  0.4908 -1.0803 -0.4240
 9735SOL    HW230026   2.371   0.357   6.605 -0.9935 -0.4235  1.1649
 9736SOL     OW30027   2.592   4.453   2.711 -0.0193  0.8846 -0.0808
 9736SOL    HW130028   2.685   4.417   2.719 -1.1076 -2.2918 -0.2842
 9736SOL    HW230029   2.579   4.490   2.619  0.7900  0.5801 -0.3277
 9737SOL     OW30030   6.576   4.727   0.140 -0.8013  0.3461 -0.0633
 9737SOL    HW130031   6.618   4.774   0.062 -0.0183 -1.5269 -0.8196
 9737SOL    HW230032   6.481   4.705   0.118 -0.4851 -0.4847 -0.6612
 9738SOL     OW30033   4.913   3.984   5.969 -0.3352 -0.0603  0.0655
 9738SOL    HW130034   4.869   3.895   5.974 -2.4901  0.9958  2.6751
 9738SOL    HW230035   4.879   4.035   5.890 -2.9941  0.2358  1.3116
 9739SOL     OW30036   4.361   1.573   4.512  0.1573 -0.3356 -0.3786
 9739SOL    HW130037   4.295   1.625   4.566 -0.0274 -2.4013  1.5360
 9739SOL    HW230038   4.450   1.618   4.516 -0.0576  0.0188  0.9818
 9740SOL     OW30039   3.500   6.427   4.565 -0.2019  0.0549 -0.2185
 9740SOL    HW130040   3.541   6.375   4.491 -2.3336 -4.4345  1.3931
 9740SOL    HW230041   3.412   6.464   4.535  1.2283  2.8214 -1.3078
 9741SOL     OW30042   2.620   2.003   1.039 -0.2088 -0.1058 -0.3620
 9741SOL    HW130043   2.554   2.042   0.976 -0.3778  0.8347  0.3720
 9741SOL    HW230044   2.682   2.075   1.071 -0.6258 -0.3775  1.1496
 9742SOL     OW30045   5.549   3.256   4.358  0.1388  0.1989 -0.0901
 9742SOL    HW130046   5.526   3.269   4.454 -0.6726 -0.1919 -0.2264
 9742SOL    HW230047   5.631   3.309   4.336  0.0182  0.7202  0.6806
 9743SOL     OW30048   0.096   0.828   2.405 -0.1285 -0.2764  0.3413
 9743SOL    HW130049   0.074   0.917   2.366  1.5981  0.1351  0.2201
 9743SOL    HW230050   0.021   0.764   2.387 -1.0202  0.9058 -0.3138
 9744SOL     OW30051   6.020   0.261   3.514 -0.0741  0.0707 -0.2286
 9744SOL    HW130052   6.070   0.194   3.459 -0.1151  0.1864 -0.4079
 9744SOL    HW230053   5.973   0.214   3.589  0.4499 -0.0155  0.0483
 9745SOL     OW30054   3.790   5.083   1.557  0.0299 -0.3829 -0.8154
 9745SOL    HW130055   3.740   5.022   1.620  3.8809 -2.2388  0.7636
 9745SOL    HW230056   3.753   5.072   1.465 -1.7166 -2.4336  0.0260
 9746SOL     OW30057   0.982   5.748   4.720  0.0026 -0.2219  0.3701
 9746SOL    HW130058   1.041   5.702   4.787  1.2917 -1.6679 -1.6705
 9746SOL    HW230059   1.036   5.806   4.661 -0.3195 -2.3299 -2.1829
 9747SOL     OW30060   5.268   4.591   5.335 -0.0849 -0.3783  0.0525
 9747SOL    HW130061   5.177   4.554   5.316  1.1767 -3.1563 -1.1824
 9747SOL    HW230062   5.279   4.678   5.287 -1.1681 -1.3796 -2.2043
 9748SOL     OW30063   6.782   6.810   2.660  0.1255 -0.5791  0.6333
 9748SOL    HW130064   6.833   6.896   2.656 -1.8912  0.6440 -0.4294
 9748SOL    HW230065   6.791   6.770   2.751 -0.6154  1.9099  1.8995
 9749SOL     OW30066   4.643   4.473   5.474 -0.2076 -0.1217 -0.4363
 9749SOL    HW130067   4.636   4.516   5.383 -0.4996 -1.2499 -0.9578
 9749SOL    HW230068   4.661   4.376   5.463  2.2862  0.1381  0.7466
 9750SOL     OW30069   5.512   6.574   1.573  0.1485 -0.6918 -0.3120
 9750SOL    HW130070   5.517   6.610   1.666 -0.1337 -0.2621 -0.4577
 9750SOL    HW230071   5.602   6.543   1.544  0.2661 -0.6923  0.0542
 9751SOL     OW30072   6.335   4.547   3.635  0.5973 -0.1326 -0.1619
 9751SOL    HW130073   6.389   4.473   3.596  0.3879 -0.8964  0.9601
 9751SOL    HW230074   6.243   4.515   3.656  0.1932  0.7183 -0.5631
 9752SOL     OW30075   4.929   5.331   5.814  0.1916 -0.0313  0.6625
 9752SOL    HW130076   4.871   5.271   5.759 -1.4243  0.4426  1.7730
 9752SOL    HW230077   4.985   5.275   5.876  0.6313 -0.4728 -0.1085
 9753SOL     OW30078   2.009   6.030   2.465  0.0858  0.1830  0.1822
 9753SOL    HW130079   1.987   5.934   2.448  1.6621 -0.1283 -0.2208
 9753SOL    HW230080   2.093   6.035   2.519  0.8444  1.3521 -1.0694
 9754SOL     OW30081   2.404   2.447   0.300 -0.1452  0.0701 -0.4854
 9754SOL    HW130082   2.451   2.374   0.349  0.6119 -0.0640 -1.3850
 9754SOL    HW230083   2.387   2.418   0.205  0.9205  1.3440 -1.1024
 9755SOL     OW30084   0.372   2.552   0.017  0.0199 -0.1432  0.4596
 9755SOL    HW130085   0.309   2.500   0.075 -0.0623  0.0343  0.5311
 9755SOL    HW230086   0.353   2.533  -0.079 -1.6963  1.6632  0.3822
 9756SOL     OW30087   3.135   3.231   3.556 -0.0111  0.6912 -0.0420
 9756SOL    HW130088   3.073   3.154   3.542  1.5522 -0.3477 -1.6158
 9756SOL    HW230089   3.174   3.225   3.648 -1.7594  1.0634  0.7766
 9757SOL     OW30090   2.018   6.053   6.521 -0.7512  0.3712 -0.2881
 9757SOL    HW130091   2.046   6.126   6.584  0.0252  0.1272 -0.3401
 9757SOL    HW230092   2.035   5.964   6.564  0.3741  0.1827 -1.0551
 9758SOL     OW30093   2.009   4.782   5.825  0.4209 -0.4067  0.4947
 9758SOL    HW130094   2.060   4.867   5.832 -0.8050  0.5861 -1.6334
 9758SOL    HW230095   2.073   4.705   5.817  1.5417  0.3899  1.4747
 9759SOL     OW30096   5.795   3.927   6.638  0.0359  0.8594  0.3379
 9759SOL    HW130097   5.858   3.983   6.584 -0.6849  3.9081  2.4259
 9759SOL    HW230098   5.702   3.963   6.630 -0.9256 -1.4656  0.0414
 9760SOL     OW30099   4.035   0.250   4.980 -0.7410 -0.3719  0.1202
 9760SOL    HW130100   4.081   0.170   4.942  0.5293  0.1352  0.5151
 9760SOL    HW230101   3.963   0.280   4.918 -1.0922 -1.6912 -0.1266
 9761SOL     OW30102   4.677   4.308   6.506 -0.3145  0.2570 -0.1123
 9761SOL    HW130103   4.613   4.383   6.517 -1.2476 -0.4578 -0.5240
 9761SOL    HW230104   4.670   4.270   6.414 -1.2538 -1.5399  0.6367
 9762SOL     OW30105   6.328   4.251   4.276  0.3177  0.5438  0.0417
 9762SOL    HW130106   6.269   4.319   4.320  0.3287  0.0998  0.7611
 9762SOL    HW230107   6.378   4.201   4.346  1.5906  0.9427 -0.5598
 9763SOL     OW30108   6.907   2.601   6.975 -0.2091  0.0580  0.7046
 9763SOL    HW130109   6.937   2.681   7.026  0.4524  0.5444 -0.3924
 9763SOL    HW230110   6.813   2.578   7.000 -0.5870  1.4840  0.6880
 9764SOL     OW30111   1.567   5.003   5.125 -0.4185  0.7975 -0.4719
 9764SOL    HW130112   1.660   4.973   5.101 -0.6501  0.1723 -0.6206
 9764SOL    HW230113   1.516   4.925   5.162 -0.3755  1.5123  1.1674
 9765SOL     OW30114   2.691   0.848   2.680  0.2481 -0.2982 -0.3154
 9765SOL    HW130115   2.596   0.826   2.656 -0.2895  0.2245  1.1693
 9765SOL    HW230116   2.748   0.767   2.666 -0.5128 -0.7724 -0.7736
 9766SOL     OW30117   4.750   5.341   3.607 -0.3965  0.5455  0.2026
 9766SOL    HW130118   4.822   5.394   3.649 -0.0191  0.4872 -0.3549
 9766SOL    HW230119   4.661   5.378   3.634 -0.1547  0.8236  0.6264
 9767SOL     OW30120   1.392   4.389   1.273 -0.5768  0.0069 -0.4281
 9767SOL    HW130121   1.419   4.419   1.181  0.1876  1.4953  0.2345
 9767SOL    HW230122   1.352   4.466   1.322  0.5440 -0.2913  1.0335
 9768SOL     OW30123   0.033   4.367   2.068 -0.3750 -0.2790 -0.3643
 9768SOL    HW130124   0.117   4.422   2.066 -0.1447 -0.5517  0.9951
 9768SOL    HW230125   0.030   4.307   1.988  1.2768 -1.0576  0.1224
 9769SOL     OW30126   6.109   1.968   4.357 -0.2833 -0.3614 -0.3931
 9769SOL    HW130127   6.065   2.048   4.398 -0.4536 -0.4080 -0.4836
 9769SOL    HW230128   6.042   1.894   4.350 -0.2778 -0.3269 -0.8319
 9770SOL     OW30129   1.908   0.563   0.214  0.0865  0.4074 -0.0674
 9770SOL    HW130130   1.972   0.540   0.141  1.0164 -0.7426  1.0783
 9770SOL    HW230131   1.902   0.662   0.223  0.5780  0.5489 -1.1544
 9771SOL     OW30132   5.422   2.193   0.920  0.3705  0.0308  0.4177
 9771SOL    HW130133   5.380   2.226   1.004  0.9410 -0.0146  0.7217
 9771SOL    HW230134   5.520   2.215   0.920  0.3348  0.2176 -0.3237
 9772SOL     OW30135   2.389   4.751   4.381  0.3359 -0.4337  0.3496
 9772SOL    HW130136   2.406   4.663   4.425  0.9795 -0.5615 -0.1355
 9772SOL    HW230137   2.323   4.739   4.307 -0.1446 -0.3657  0.7653
 9773SOL     OW30138   6.632   6.832   2.423  0.3699  0.5764  0.3632
 9773SOL    HW130139   6.691   6.796   2.351 -0.9199 -1.8055  0.3955
 9773SOL    HW230140   6.677   6.820   2.512  1.7371  3.0459  0.1020
 9774SOL     OW30141   2.956   0.602   6.693 -0.1449  0.3347  0.3396
 9774SOL    HW130142   2.889   0.595   6.618  0.1649 -1.3200  0.1865
 9774SOL    HW230143   3.048   0.587   6.657 -0.0169 -0.7442  1.0838
 9775SOL     OW30144   5.137   0.492   2.823  0.0815 -0.2895  0.0937
 9775SOL    HW130145   5.124   0.464   2.918  1.2477 -0.4997  0.2019
 9775SOL    HW230146   5.128   0.591   2.816 -0.2783 -0.3001  0.3720
 9776SOL     OW30147   6.606   1.024   4.177 -0.2436 -0.4867 -0.0502
 9776SOL    HW130148   6.569   1.101   4.126  1.5925 -0.9230 -2.2267
 9776SOL    HW230149   6.666   0.970   4.117 -0.1546 -2.6630  1.8515
 9777SOL     OW30150   1.132   6.873   3.769  0.3774 -0.1061 -0.4497
 9777SOL    HW130151   1.096   6.884   3.676 -1.3032 -3.4277 -0.3496
 9777SOL    HW230152   1.181   6.785   3.774  1.0732  0.3624  1.6561
 9778SOL     OW30153   1.357   2.084   4.704 -0.3342  0.7908  0.0752
 9778SOL    HW130154   1.425   2.103   4.774  2.8542 -4.4381 -1.0325
 9778SOL    HW230155   1.283   2.029   4.743 -0.1440  0.4590 -0.0226
 9779SOL     OW30156   1.546   6.908   6.913 -0.1741  0.0617  0.5724
 9779SOL    HW130157   1.550   6.865   6.822 -0.8426  1.9722 -0.4225
 9779SOL    HW230158   1.450   6.928   6.935  0.1572  1.9430  0.4936
 9780SOL     OW30159   6.714   6.513   2.428  0.1810  0.2830 -0.0262
 9780SOL    HW130160   6.631   6.460   2.441  0.5672 -0.2568  0.2470
 9780SOL    HW230161   6.701   6.576   2.351 -0.0987 -0.5702 -0.6902
 9781SOL     OW30162   5.878   5.452   6.892 -0.9120  0.2198  0.0715
 9781SOL    HW130163   5.954   5.496   6.941  1.1838 -2.7886 -0.1449
 9781SOL    HW230164   5.898   5.451   6.794 -0.6051 -1.5484  0.1172
 9782SOL     OW30165   4.603   4.791   5.300 -0.3683  0.4246 -0.3323
 9782SOL    HW130166   4.592   4.695   5.272  1.7499 -0.0236  0.1876
 9782SOL    HW230167   4.526   4.818   5.357 -0.0443 -1.6158  1.1938
 9783SOL     OW30168   3.674   2.993   2.526 -0.3605  0.4069 -0.5248
 9783SOL    HW130169   3.635   3.077   2.563  0.1337  0.6846 -0.6340
 9783SOL    HW230170   3.760   2.973   2.572 -0.0963  0.3730 -1.0285
 9784SOL     OW30171   0.611   5.812   4.881  0.2678 -0.5358 -0.3821
 9784SOL    HW130172   0.569   5.828   4.791 -2.2082 -1.1696  0.5844
 9784SOL    HW230173   0.659   5.895   4.911 -0.9769  0.5199 -1.2227
 9785SOL     OW30174   2.094   6.640   1.551  0.6769 -0.6280 -0.5049
 9785SOL    HW130175   2.164   6.711   1.548  1.1853 -1.0094  1.3911
 9785SOL    HW230176   2.006   6.679   1.524  1.2023  0.3841 -0.8023
 9786SOL     OW30177   5.384   4.751   0.020  0.3639 -0.3759 -0.8259
 9786SOL    HW130178   5.322   4.810   0.071  0.3679 -0.6740 -0.4673
 9786SOL    HW230179   5.331   4.690  -0.039  0.3561 -0.0807 -1.1269
 9787SOL     OW30180   0.168   1.043   5.767 -0.0664 -0.4406 -0.0669
 9787SOL    HW130181   0.114   1.124   5.745  0.7761 -0.4413 -2.4501
 9787SOL    HW230182   0.237   1.029   5.696  1.4268 -1.8583  1.5827
 9788SOL     OW30183   3.460   4.615   6.181  0.1896  0.2854  0.1707
 9788SOL    HW130184   3.514   4.589   6.101  1.9241  1.2685  0.9841
 9788SOL    HW230185   3.463   4.714   6.193 -3.0529  0.6024 -0.5803
 9789SOL     OW30186   0.117   6.152   2.477  0.1311  0.0840 -0.0837
 9789SOL    HW130187   0.115   6.131   2.379  1.4175 -2.0525  0.2714
 9789SOL    HW230188   0.046   6.219   2.499 -1.6542 -1.0149 -2.1190
 9790SOL     OW30189   2.638   6.065   3.096  0.5596  0.1170  0.4505
 9790SOL    HW130190   2.613   6.042   3.002  0.0266 -2.8469  1.2221
 9790SOL    HW230191   2.714   6.131   3.095  0.4754  0.2744 -2.0239
 9791SOL     OW30192   1.922   0.879   4.190  0.2502 -0.4426 -0.0992
 9791SOL    HW130193   1.822   0.877   4.186  0.1984 -0.8343  1.1588
 9791SOL    HW230194   1.953   0.972   4.207  0.1094 -0.2976 -0.6216
 9792SOL     OW30195   5.461   2.222   5.656  0.0546  0.5847 -0.2063
 9792SOL    HW130196   5.523   2.145   5.661 -0.8981 -0.1804  0.2414
 9792SOL    HW230197   5.512   2.307   5.669  0.4833 -0.1696  5.7229
 9793SOL     OW30198   6.826   6.109   5.161 -0.0620 -0.4495 -0.5719
 9793SOL    HW130199   6.824   6.200   5.202  0.9738 -1.2020  1.2499
 9793SOL    HW230200   6.789   6.113   5.068 -0.5651  1.7032 -0.3129
 9794SOL     OW30201   5.479   3.461   0.501 -0.0255 -0.0020 -0.7613
 9794SOL    HW130202   5.484   3.561   0.511 -0.7608  0.2428 -2.5901
 9794SOL    HW230203   5.570   3.422   0.516  0.3323  0.9621 -0.3188
 9795SOL     OW30204   2.611   4.915   0.916  0.6775 -0.1512  0.7618
 9795SOL    HW130205   2.568   5.005   0.911  1.6217  0.2784  0.0640
 9795SOL    HW230206   2.703   4.923   0.953  0.4929 -0.9435  1.4189
 9796SOL     OW30207   6.571   3.811   2.496 -0.1374 -0.2178 -0.3569
 9796SOL    HW130208   6.581   3.911   2.493  0.7511 -0.1972  1.6219
 9796SOL    HW230209   6.620   3.771   2.418  2.2707  0.7768  0.5333
 9797SOL     OW30210   2.865   3.137   5.558  0.4159  0.1307 -0.1731
 9797SOL    HW130211   2.822   3.158   5.647 -2.9330  1.3474 -1.8852
 9797SOL    HW230212   2.897   3.222   5.517  1.7262 -0.3979 -0.2726
 9798SOL     OW30213   0.218   5.691   4.226  0.0320 -0.2723 -0.0104
 9798SOL    HW130214   0.260   5.781   4.236  0.7880 -0.5431 -0.6512
 9798SOL    HW230215   0.118   5.700   4.232  0.1515  0.4364  1.1065
 9799SOL     OW30216   6.122   4.634   5.347 -0.4067 -0.3920 -0.2409
 9799SOL    HW130217   6.117   4.540   5.314  0.0765 -0.8502  0.9335
 9799SOL    HW230218   6.126   4.697   5.269 -1.1629 -1.3019 -1.0415
 9800SOL     OW30219   0.805   3.958   3.767  0.3684  0.6786 -0.2120
 9800SOL    HW130220   0.879   3.960   3.834  1.3037  1.1597 -1.2331
 9800SOL    HW230221   0.723   4.000   3.806  0.4831 -0.2397  1.0836
 9801SOL     OW30222   4.352   0.165   1.964  0.4620  0.0786  0.2657
 9801SOL    HW130223   4.280   0.142   1.898 -0.6882  1.6781  0.8727
 9801SOL    HW230224   4.441   0.141   1.926 -0.0773  1.6455 -2.2501
 9802SOL     OW30225   1.754   5.757   2.182 -0.0637  0.1003  0.2332
 9802SOL    HW130226   1.807   5.705   2.249  1.5424  1.8892  0.4128
 9802SOL    HW230227   1.809   5.774   2.101 -0.8600  0.8209 -0.1740
 9803SOL     OW30228   0.249   0.463   6.440  0.3666 -0.3476 -0.0534
 9803SOL    HW130229   0.150   0.462   6.455  0.2316 -2.8117 -0.6805
 9803SOL    HW230230   0.290   0.382   6.481  1.9716  0.0174 -0.8317
 9804SOL     OW30231   1.303   5.875   1.737 -0.0109 -0.1741 -0.0072
 9804SOL    HW130232   1.271   5.794   1.688 -1.8829  0.8616 -0.5977
 9804SOL    HW230233   1.245   5.890   1.817  0.6226  0.3212  0.3631
 9805SOL     OW30234   1.534   2.515   0.750 -0.0051  0.0059 -0.1665
 9805SOL    HW130235   1.493   2.560   0.671  1.0453  1.0825 -0.1303
 9805SOL    HW230236   1.613   2.568   0.782  0.2719 -1.0001  0.9169
 9806SOL     OW30237   5.400   2.289   3.901  0.1293  0.1325 -0.2280
 9806SOL    HW130238   5.348   2.306   3.984 -3.0762  0.9360 -2.2265
 9806SOL    HW230239   5.366   2.347   3.827  1.1282 -2.2702 -2.7588
 9807SOL     OW30240   4.139   3.204   4.651  0.1553  0.2705  0.1825
 9807SOL    HW130241   4.084   3.278   4.611  0.3697 -0.4342 -1.4713
 9807SOL    HW230242   4.083   3.152   4.715 -0.9908 -0.1387 -1.1140
 9808SOL     OW30243   0.041   0.050   6.937 -0.1111  0.3883 -0.2288
 9808SOL    HW130244   0.100  -0.021   6.976 -1.7978 -0.3960  1.0536
 9808SOL    HW230245   0.002   0.018   6.851  0.7573  0.6299 -0.7216
 9809SOL     OW30246   6.468   6.448   6.953  0.2678  0.2878 -0.3795
 9809SOL    HW130247   6.432   6.379   6.891  0.8885  1.3644 -2.0091
 9809SOL    HW230248   6.396   6.515   6.974  0.4497  0.7543 -1.1877
 9810SOL     OW30249   1.674   5.508   3.303  0.0161  0.0866  0.0127
 9810SOL    HW130250   1.674   5.506   3.203  0.1665 -1.5543  0.0232
 9810SOL    HW230251   1.723   5.590   3.334 -2.8198  2.4074 -1.2078
 9811SOL     OW30252   1.718   1.203   4.052  0.1886  0.7776  0.6214
 9811SOL    HW130253   1.739   1.217   4.148  2.7886 -0.6742  0.3411
 9811SOL    HW230254   1.684   1.289   4.013 -2.6220  0.9798  3.1300
 9812SOL     OW30255   2.174   3.412   6.763 -0.2588  0.2318 -0.3322
 9812SOL    HW130256   2.122   3.356   6.828 -1.5827 -0.1621 -1.6693
 9812SOL    HW230257   2.272   3.394   6.774 -0.5585 -1.0373  0.4413
 9813SOL     OW30258   6.819   4.308   2.893  0.2667 -0.7161 -0.1753
 9813SOL    HW130259   6.755   4.373   2.935 -0.4429 -1.7460  0.3967
 9813SOL    HW230260   6.800   4.300   2.796 -0.8736 -1.4119  0.0814
 9814SOL     OW30261   2.851   0.075   3.516  0.3034 -0.0730 -0.1611
 9814SOL    HW130262   2.821   0.170   3.507  0.1740 -0.1281 -0.3170
 9814SOL    HW230263   2.940   0.064   3.472  0.0053 -0.1775 -0.7397
 9815SOL     OW30264   0.176   2.418   5.561 -0.0353 -0.0780  0.0487
 9815SOL    HW130265   0.096   2.385   5.511  0.7940 -0.8547 -0.8117
 9815SOL    HW230266   0.149   2.441   5.655 -1.2500 -0.3474 -0.2112
 9816SOL     OW30267   5.067   1.001   4.990  0.4518 -0.7139 -0.9238
 9816SOL    HW130268   5.152   0.968   4.949 -0.8013 -1.1523 -3.3099
 9816SOL    HW230269   5.083   1.089   5.034  2.0349 -0.5513 -1.7721
 9817SOL     OW30270   3.265   5.346   5.714  0.1851 -0.2299  0.0412
 9817SOL    HW130271   3.273   5.385   5.806  1.1212  1.0478 -0.5535
 9817SOL    HW230272   3.295   5.251   5.716  2.7975  0.5096  0.6085
 9818SOL     OW30273   1.421   0.249   1.294 -0.0378 -0.3660  0.5019
 9818SOL    HW130274   1.330   0.222   1.325 -0.8493 -0.3872 -1.7418
 9818SOL    HW230275   1.489   0.216   1.360 -1.5749 -0.7911  1.9700
 9819SOL     OW30276   5.470   5.585   2.269 -0.0671  0.1955 -0.4629
 9819SOL    HW130277   5.415   5.668   2.255 -1.0120 -0.0273  1.5442
 9819SOL    HW230278   5.409   5.506   2.278  0.4544  0.0041  2.2619
 9820SOL     OW30279   0.699   6.155   1.567  0.2511 -0.1115  0.4032
 9820SOL    HW130280   0.641   6.202   1.501  1.3773 -1.1741 -1.4127
 9820SOL    HW230281   0.783   6.208   1.581 -0.1897  0.3560  1.4062
 9821SOL     OW30282   6.738   6.222   1.718 -0.6943 -0.1861 -0.5300
 9821SOL    HW130283   6.801   6.219   1.796  0.3482  0.0631 -1.3400
 9821SOL    HW230284   6.705   6.130   1.698  1.3005 -0.7359 -1.5720
 9822SOL     OW30285   5.599   2.706   4.221 -0.3775 -0.4804  0.3312
 9822SOL    HW130286   5.551   2.721   4.135 -1.4966 -0.1220  1.0005
 9822SOL    HW230287   5.539   2.731   4.298  1.0693  0.5363  1.1801
 9823SOL     OW30288   2.034   4.513   1.454  0.0385 -0.3789  0.5301
 9823SOL    HW130289   2.117   4.458   1.450 -1.1079 -2.1920  0.4525
 9823SOL    HW230290   2.036   4.583   1.382  0.0144 -2.6276 -1.7979
 9824SOL     OW30291   0.732   5.305   3.524 -0.2558 -0.5500  0.7213
 9824SOL    HW130292   0.741   5.380   3.589  0.5156  2.1136 -2.2395
 9824SOL    HW230293   0.813   5.247   3.529  0.6430  0.6860  0.9097
 9825SOL     OW30294   3.028   1.429   3.514  0.1222 -0.2469 -0.0806
 9825SOL    HW130295   3.032   1.449   3.416 -0.8769  2.5704  0.3382
 9825SOL    HW230296   3.095   1.486   3.562 -1.3996  0.6491  1.0850
 9826SOL     OW30297   6.909   2.393   2.441 -0.0337 -0.1117 -0.3626
 9826SOL    HW130298   6.880   2.326   2.372  0.6061 -0.6472 -0.1239
 9826SOL    HW230299   6.870   2.369   2.530  0.4221 -0.3270 -0.2202
 9827SOL     OW30300   1.575   4.053   1.294 -0.0324  0.3682  0.0026
 9827SOL    HW130301   1.603   4.144   1.263 -1.3536 -0.0679 -2.7181
 9827SOL    HW230302   1.647   4.014   1.351  2.0899  1.7894 -1.5534
 9828SOL     OW30303   4.271   6.812   6.306  0.0250  0.2679 -0.4863
 9828SOL    HW130304   4.293   6.906   6.279 -0.8093  0.0547 -2.0528
 9828SOL    HW230305   4.351   6.771   6.349  1.5830  0.6378 -2.8271
 9829SOL     OW30306   4.783   2.822   5.508  0.1380  0.1587  0.3764
 9829SOL    HW130307   4.822   2.781   5.590  3.3747 -0.9450 -1.5059
 9829SOL    HW230308   4.745   2.912   5.530  0.1504 -0.4255  3.1542
 9830SOL     OW30309   2.434   2.739   1.234 -0.7504  0.0636 -0.4785
 9830SOL    HW130310   2.441   2.839   1.235  0.0528  0.0442  1.6809
 9830SOL    HW230311   2.477   2.702   1.316 -0.5652 -2.1160 -1.4851
 9831SOL     OW30312   3.869   1.920   6.919 -0.5444 -0.4562  0.0708
 9831SOL    HW130313   3.963   1.945   6.942 -0.3798 -0.1684 -0.8882
 9831SOL    HW230314   3.853   1.825   6.946 -0.3653 -0.1440  1.3495
 9832SOL     OW30315   0.381   0.756   4.328  0.7220  0.8797  0.2273
 9832SOL    HW130316   0.355   0.770   4.423 -0.3838 -1.3123  0.3074
 9832SOL    HW230317   0.459   0.695   4.323 -0.3334 -0.4728 -0.2784
 9833SOL     OW30318   6.033   4.340   5.971 -0.3730 -0.2518 -0.1711
 9833SOL    HW130319   6.077   4.259   6.011 -1.6356 -0.7391  0.2958
 9833SOL    HW230320   6.092   4.419   5.981  0.3049 -0.8434  0.6223
 9834SOL     OW30321   5.314   0.386   0.276 -0.7644  0.8423  0.5424
 9834SOL    HW130322   5.397   0.438   0.293 -0.5341  0.6069  0.1537
 9834SOL    HW230323   5.266   0.425   0.197  0.5559 -0.8475 -1.1950
 9835SOL     OW30324   5.410   2.832   3.131 -0.4084 -0.1086  0.2699
 9835SOL    HW130325   5.382   2.917   3.087  2.1909  0.3753 -0.6327
 9835SOL    HW230326   5.496   2.847   3.180 -1.5784 -1.4438  2.9325
 9836SOL     OW30327   4.945   2.974   0.737 -0.2473 -0.2467  0.1814
 9836SOL    HW130328   4.856   2.970   0.691  0.5395  0.5404 -1.4954
 9836SOL    HW230329   5.011   2.920   0.685  0.3134 -0.6873  1.3248
 9837SOL     OW30330   0.409   3.914   1.256  0.0116  0.1685  0.0220
 9837SOL    HW130331   0.463   3.833   1.233 -0.8095 -0.0285 -1.2777
 9837SOL    HW230332   0.386   3.965   1.173 -1.3486  0.5269  0.5820
 9838SOL     OW30333   5.983   6.735   1.165 -0.5568 -0.6913 -0.2122
 9838SOL    HW130334   6.024   6.650   1.131  2.1664 -0.0665  1.2023
 9838SOL    HW230335   5.974   6.801   1.091 -0.3919 -1.3830 -0.8517
 9839SOL     OW30336   4.626   6.220   6.132 -0.5213  0.5768  0.1769
 9839SOL    HW130337   4.604   6.128   6.165  0.3076  0.7820  1.3490
 9839SOL    HW230338   4.696   6.214   6.061  0.3900  0.3748  1.0850
 9840SOL     OW30339   5.909   4.714   4.042  1.0176 -0.5853  0.2303
 9840SOL    HW130340   6.008   4.707   4.055  0.9352 -2.8088  0.0970
 9840SOL    HW230341   5.863   4.714   4.131  1.0859 -0.6240  0.2657
 9841SOL     OW30342   3.703   4.008   6.789  0.6092  0.2977 -0.2006
 9841SOL    HW130343   3.717   3.982   6.694 -0.7768  1.1361 -0.6707
 9841SOL    HW230344   3.608   3.988   6.815  0.6060  1.2657  0.5909
 9842SOL     OW30345   5.453   6.133   4.923  0.1262 -0.0117 -0.1517
 9842SOL    HW130346   5.353   6.128   4.931  0.1523  0.5415  0.6936
 9842SOL    HW230347   5.495   6.064   4.982  0.2489 -0.0303 -0.2606
 9843SOL     OW30348   5.713   5.608   3.836  0.1472 -0.6029  0.0298
 9843SOL    HW130349   5.727   5.614   3.935  0.0392 -1.5277  0.1123
 9843SOL    HW230350   5.673   5.693   3.803  0.1549 -0.2936  0.7848
 9844SOL     OW30351   0.708   1.736   6.411 -0.3202 -0.1725 -0.3133
 9844SOL    HW130352   0.711   1.692   6.321 -1.0947 -1.3504  0.1957
 9844SOL    HW230353   0.623   1.788   6.419  0.2135  0.7543 -0.6147
 9845SOL     OW30354   2.713   4.691   3.162 -0.5084  0.1724 -0.1344
 9845SOL    HW130355   2.737   4.753   3.087 -0.3846  2.4866  1.6918
 9845SOL    HW230356   2.651   4.738   3.225 -1.2183 -1.9621  0.8635
 9846SOL     OW30357   1.542   2.661   5.917  0.8041  0.1423 -0.1472
 9846SOL    HW130358   1.562   2.572   5.957  1.2899  0.3273  0.0301
 9846SOL    HW230359   1.444   2.679   5.924  0.6758 -0.4582 -0.3609
 9847SOL     OW30360   1.173   4.864   5.485  0.1187  0.2758  0.0480
 9847SOL    HW130361   1.090   4.875   5.430  0.7712  0.5399 -0.9076
 9847SOL    HW230362   1.253   4.890   5.431  0.7151  1.5191  1.4530
 9848SOL     OW30363   6.937   3.075   6.331 -0.2958 -0.4390  0.1487
 9848SOL    HW130364   7.015   3.046   6.276  0.6139  1.6024  0.2917
 9848SOL    HW230365   6.937   3.026   6.418  2.1009  0.9835  1.0405
 9849SOL     OW30366   5.005   5.093   5.920  0.0883  0.2599 -0.5930
 9849SOL    HW130367   5.075   5.066   5.854  1.2875  0.4382  0.5884
 9849SOL    HW230368   4.932   5.025   5.920 -0.2188  0.5390 -2.4908
 9850SOL     OW30369   3.381   1.314   2.215 -0.3438  0.5112  0.1200
 9850SOL    HW130370   3.397   1.403   2.173 -2.6731  0.1108 -1.8236
 9850SOL    HW230371   3.286   1.308   2.247  0.4616 -0.3899  2.6259
 9851SOL     OW30372   0.188   5.781   2.500 -0.2698  0.0058 -0.2121
 9851SOL    HW130373   0.089   5.789   2.484 -0.0201  0.4850 -1.5894
 9851SOL    HW230374   0.204   5.724   2.581 -1.7297  1.4831  1.2031
 9852SOL     OW30375   2.091   1.071   6.546  0.2560 -0.2518 -0.0081
 9852SOL    HW130376   2.107   0.974   6.528  0.6443 -0.3553  0.8327
 9852SOL    HW230377   2.178   1.120   6.544  0.0112  0.1775 -0.9028
 9853SOL     OW30378   2.065   1.441   6.724  0.0345 -0.1431  0.2045
 9853SOL    HW130379   2.086   1.507   6.652 -0.3371 -0.5916 -0.3223
 9853SOL    HW230380   1.966   1.428   6.730  0.0877 -0.4194  0.5130
 9854SOL     OW30381   0.721   3.992   6.715  0.2530  0.2800  0.2817
 9854SOL    HW130382   0.807   3.953   6.748  0.0438  0.3556  0.9363
 9854SOL    HW230383   0.678   3.929   6.650  0.4020 -0.1248  0.5760
 9855SOL     OW30384   0.860   1.099   2.230  0.2943 -0.0210 -0.1547
 9855SOL    HW130385   0.796   1.087   2.306 -1.1249  1.5217 -1.0560
 9855SOL    HW230386   0.953   1.079   2.262 -0.3363  0.0093  1.8175
 9856SOL     OW30387   6.611   6.471   1.317 -0.2360  0.1780  0.0853
 9856SOL    HW130388   6.524   6.444   1.359 -1.7351  0.2395 -2.7225
 9856SOL    HW230389   6.672   6.392   1.313 -1.5696 -0.8379 -1.0772
 9857SOL     OW30390   1.658   4.306   1.223  0.2159 -0.9506  0.3649
 9857SOL    HW130391   1.659   4.351   1.313 -0.3626  0.4958 -0.3166
 9857SOL    HW230392   1.611   4.365   1.157  0.1239 -2.2436 -0.7686
 9858SOL     OW30393   2.464   2.716   5.759 -0.0181 -0.2918 -0.3960
 9858SOL    HW130394   2.419   2.744   5.674  0.5464  0.3864 -0.4818
 9858SOL    HW230395   2.516   2.632   5.743 -0.7359 -0.7322 -0.4541
 9859SOL     OW30396   3.621   3.819   1.689  0.1666  0.2046 -0.1268
 9859SOL    HW130397   3.632   3.918   1.692 -0.3314  0.2915 -0.9187
 9859SOL    HW230398   3.524   3.796   1.702  0.4769 -0.2722  1.6936
 9860SOL     OW30399   6.377   5.249   3.685  0.0844 -0.2246  0.3290
 9860SOL    HW130400   6.294   5.298   3.710 -0.2124 -1.0032  0.9115
 9860SOL    HW230401   6.454   5.282   3.740  0.1629  0.4771 -0.1922
 9861SOL     OW30402   4.517   1.066   3.302 -0.2929 -0.2077 -0.1469
 9861SOL    HW130403   4.599   1.123   3.288 -0.4069 -0.0787 -0.2913
 9861SOL    HW230404   4.504   1.007   3.223 -1.2378  0.8938 -0.8410
 9862SOL     OW30405   4.355   4.129   5.541  0.0040 -0.1775 -0.1012
 9862SOL    HW130406   4.382   4.089   5.454 -0.6321 -0.0800 -0.3512
 9862SOL    HW230407   4.356   4.229   5.534 -0.5075 -0.1707 -0.1523
 9863SOL     OW30408   2.522   2.114   0.469 -0.1584  0.0577 -0.2859
 9863SOL    HW130409   2.581   2.090   0.546  1.6552  0.0700 -1.6156
 9863SOL    HW230410   2.427   2.095   0.493  0.1614  1.4050  2.4733
 9864SOL     OW30411   5.054   2.537   5.716 -0.6731 -0.6791 -0.3768
 9864SOL    HW130412   5.051   2.447   5.759 -0.5524 -1.2090 -1.4278
 9864SOL    HW230413   5.053   2.608   5.786  0.7598 -1.5169  0.5341
 9865SOL     OW30414   1.351   4.387   2.727 -0.4330 -0.0024  0.5628
 9865SOL    HW130415   1.395   4.450   2.790  1.1146 -0.6051  0.1464
 9865SOL    HW230416   1.391   4.397   2.636 -1.9161  0.1439 -0.0937
 9866SOL     OW30417   4.103   6.674   5.534 -0.2792  0.0419  0.1752
 9866SOL    HW130418   4.158   6.717   5.462  1.0170  0.0138  1.0919
 9866SOL    HW230419   4.045   6.603   5.495  2.5260 -2.0557 -0.5896
 9867SOL     OW30420   5.517   1.785   5.960  0.6885  0.2112  0.0052
 9867SOL    HW130421   5.477   1.851   6.024  1.2915 -0.6303  1.2697
 9867SOL    HW230422   5.551   1.706   6.009  1.5504 -0.2884 -1.3211
 9868SOL     OW30423   2.595   5.310   5.339 -0.4318 -0.0857  0.2115
 9868SOL    HW130424   2.546   5.371   5.277  0.5365 -0.3566 -0.8479
 9868SOL    HW230425   2.585   5.344   5.433 -0.8116  1.0881 -0.2323
 9869SOL     OW30426   3.561   3.909   4.776  0.3263  0.1861  0.3986
 9869SOL    HW130427   3.595   4.003   4.774  2.4293 -0.5173  0.6349
 9869SOL    HW230428   3.614   3.852   4.713 -1.4340 -0.7310 -0.3526
 9870SOL     OW30429   2.659   6.708   4.338 -0.0916  0.3792  0.1613
 9870SOL    HW130430   2.617   6.617   4.345  2.8851 -1.1942 -0.6635
 9870SOL    HW230431   2.642   6.759   4.421  0.4930 -2.0580  1.8910
 9871SOL     OW30432   6.301   5.004   4.242  0.2922  0.2049  0.4811
 9871SOL    HW130433   6.313   4.905   4.246 -0.1712  0.0811 -0.7675
 9871SOL    HW230434   6.389   5.049   4.252  0.6148 -0.3601  0.2445
 9872SOL     OW30435   5.209   2.078   2.992  0.0428  0.4504 -0.3275
 9872SOL    HW130436   5.131   2.137   3.013  0.8467  1.3491  0.1765
 9872SOL    HW230437   5.218   2.008   3.063 -0.3631  0.2694 -0.4482
 9873SOL     OW30438   4.648   5.658   4.101  0.6316 -0.6970 -0.7963
 9873SOL    HW130439   4.718   5.592   4.074  0.2126 -1.7955  0.6673
 9873SOL    HW230440   4.558   5.617   4.090  0.4229 -1.3695  2.3788
 9874SOL     OW30441   3.378   4.965   4.343  0.8075 -0.2604  0.3448
 9874SOL    HW130442   3.452   4.908   4.377  1.7866  0.2873 -0.7972
 9874SOL    HW230443   3.411   5.022   4.267 -0.1871  1.6171  1.2382
 9875SOL     OW30444   1.545   6.664   3.207  0.3422  0.0488  0.1273
 9875SOL    HW130445   1.627   6.612   3.231  0.4014  0.0019 -0.1719
 9875SOL    HW230446   1.532   6.738   3.273 -0.2408 -0.8705  1.0746
 9876SOL     OW30447   6.734   2.197   0.915  0.1043 -0.3846  0.3094
 9876SOL    HW130448   6.750   2.228   0.821  2.2371  0.6442  0.9506
 9876SOL    HW230449   6.734   2.276   0.976 -1.5220 -1.0154  1.1956
 9877SOL     OW30450   4.197   3.160   0.997 -0.2308 -0.1690  0.0771
 9877SOL    HW130451   4.099   3.179   0.997 -0.6264 -1.8257 -2.1746
 9877SOL    HW230452   4.212   3.063   0.981  1.8155 -0.0866  1.1106
 9878SOL     OW30453   2.384   4.159   5.057 -0.3737  0.0339  0.5900
 9878SOL    HW130454   2.333   4.245   5.059 -0.0893  0.2343 -0.3021
 9878SOL    HW230455   2.320   4.083   5.063 -0.6457  0.3037  1.1789
 9879SOL     OW30456   6.705   0.007   4.398  0.3224  0.2461  0.3532
 9879SOL    HW130457   6.708   0.096   4.444  2.2701  1.3735 -1.7282
 9879SOL    HW230458   6.779  -0.051   4.433 -0.7727 -0.4856  1.5111
 9880SOL     OW30459   5.247   6.790   0.719  0.2252 -0.6409  0.4281
 9880SOL    HW130460   5.280   6.705   0.762  2.0929  0.1923  0.7083
 9880SOL    HW230461   5.247   6.863   0.787 -1.7320 -0.4484  0.2843
 9881SOL     OW30462   0.498   0.015   4.708  0.0821  0.5982 -0.5139
 9881SOL    HW130463   0.576  -0.027   4.663  0.4269  0.0307  0.5741
 9881SOL    HW230464   0.491  -0.020   4.802 -2.6563 -0.9170 -1.1686
 9882SOL     OW30465   2.951   5.409   3.802 -0.1199  0.1829 -0.4465
 9882SOL    HW130466   2.856   5.435   3.787 -0.5424  0.4377  2.2444
 9882SOL    HW230467   3.010   5.489   3.792 -0.6115  0.7686  1.0743
 9883SOL     OW30468   5.506   6.981   1.106 -1.2465  0.0235  0.1748
 9883SOL    HW130469   5.432   6.960   1.170 -0.3590 -2.1669  0.5802
 9883SOL    HW230470   5.568   7.047   1.148 -2.8262  1.7370 -0.0978
 9884SOL     OW30471   4.305   2.673   2.012  0.7307  0.1537  0.2497
 9884SOL    HW130472   4.335   2.655   2.106  1.6879  0.9854  0.1258
 9884SOL    HW230473   4.221   2.727   2.014  0.9023  0.4169  0.6421
 9885SOL     OW30474   4.677   1.407   2.437  0.0815  0.2041 -0.1274
 9885SOL    HW130475   4.604   1.340   2.425 -1.7877  1.4659  3.0822
 9885SOL    HW230476   4.732   1.382   2.517 -1.5719  3.0598  2.0950
 9886SOL     OW30477   4.876   6.369   0.450  0.5782  0.3971  0.2036
 9886SOL    HW130478   4.937   6.391   0.373  0.2254 -0.0069 -0.2009
 9886SOL    HW230479   4.896   6.429   0.527  1.4085  0.3441  0.0341
 9887SOL     OW30480   5.607   2.776   0.629 -0.6629 -0.6087 -0.8013
 9887SOL    HW130481   5.550   2.804   0.706 -0.8635 -0.3150 -1.0536
 9887SOL    HW230482   5.701   2.806   0.644 -0.9258  0.4717 -1.1947
 9888SOL     OW30483   2.550   2.835   0.611 -0.2872  0.2498 -0.1033
 9888SOL    HW130484   2.474   2.899   0.624  0.1557  0.5783  0.9864
 9888SOL    HW230485   2.528   2.773   0.537 -2.2114 -0.5183  1.0224
 9889SOL     OW30486   5.143   3.256   5.296 -0.7121 -0.1752  0.6383
 9889SOL    HW130487   5.188   3.324   5.238 -1.0566  0.1511  0.7540
 9889SOL    HW230488   5.117   3.297   5.383 -1.5498 -0.2610  0.4374
 9890SOL     OW30489   3.528   1.339   0.153 -0.1759  0.1705 -0.5276
 9890SOL    HW130490   3.579   1.423   0.172  2.4605 -0.5179 -3.7076
 9890SOL    HW230491   3.566   1.264   0.208 -1.6491  0.6886  1.3076
 9891SOL     OW30492   3.062   6.894   6.687 -0.6763  0.4453 -0.0853
 9891SOL    HW130493   3.001   6.818   6.664  1.9748 -1.9729  0.2871
 9891SOL    HW230494   3.074   6.898   6.786 -0.8432  1.4277 -0.1000
 9892SOL     OW30495   3.965   6.050   5.174 -0.8319  0.1222  0.3756
 9892SOL    HW130496   3.873   6.014   5.159 -0.9506 -0.4138  2.1834
 9892SOL    HW230497   3.970   6.094   5.263  0.5569  0.5257  0.1285
 9893SOL     OW30498   4.415   4.272   3.052  0.4068  0.1341 -0.1343
 9893SOL    HW130499   4.359   4.190   3.051 -0.2440  0.5668 -0.8307
 9893SOL    HW230500   4.432   4.301   3.146  0.0639 -0.4121  0.0953
 9894SOL     OW30501   3.326   5.892   2.139  0.6330  0.1551 -0.4205
 9894SOL    HW130502   3.396   5.845   2.086  0.9063  0.9486 -0.7588
 9894SOL    HW230503   3.259   5.933   2.078  2.3233  3.2971 -0.3457
 9895SOL     OW30504   0.086   0.877   4.690  0.1460 -0.8943 -0.5978
 9895SOL    HW130505   0.099   0.951   4.756 -0.5688 -0.2221 -1.1997
 9895SOL    HW230506   0.122   0.792   4.729 -0.7401 -0.6325  0.8731
 9896SOL     OW30507   4.146   2.801   1.303 -0.0950 -0.2608 -0.4077
 9896SOL    HW130508   4.186   2.840   1.220  0.4064  0.5739  0.1946
 9896SOL    HW230509   4.212   2.738   1.345 -1.1299 -2.2926 -1.6890
 9897SOL     OW30510   2.168   5.503   6.328  0.0065 -0.0757  0.5163
 9897SOL    HW130511   2.084   5.515   6.275  0.3467  0.2620  0.0421
 9897SOL    HW230512   2.155   5.541   6.419 -0.0625  0.8169  0.1473
 9898SOL     OW30513   0.953   5.297   6.822  0.2465 -0.0328 -0.6251
 9898SOL    HW130514   0.885   5.304   6.749  0.1964 -1.0223 -0.6990
 9898SOL    HW230515   0.907   5.275   6.908  0.4267 -0.2189 -0.5759
 9899SOL     OW30516   6.640   6.791   2.027  0.0097  0.0425  0.0234
 9899SOL    HW130517   6.709   6.853   2.065  0.5244 -1.0737  1.0077
 9899SOL    HW230518   6.686   6.712   1.986 -0.6566 -0.7668  0.7767
 9900SOL     OW30519   5.638   0.539   5.719 -0.2911 -0.1598  0.4274
 9900SOL    HW130520   5.678   0.588   5.642 -0.7009 -1.7453 -0.8577
 9900SOL    HW230521   5.588   0.459   5.685 -2.8528  0.5944  2.0924
 9901SOL     OW30522   3.835   4.317   0.757 -0.8142 -0.3442  0.5756
 9901SOL    HW130523   3.802   4.257   0.829  1.1981 -3.8760 -1.1349
 9901SOL    HW230524   3.797   4.288   0.669 -0.8533  1.8765 -0.2018
 9902SOL     OW30525   5.426   3.690   1.025 -0.5459 -0.2275 -0.2658
 9902SOL    HW130526   5.417   3.593   1.046 -0.8182 -0.1165  0.1497
 9902SOL    HW230527   5.506   3.727   1.073 -0.0385 -0.3954 -0.9741
 9903SOL     OW30528   6.945   5.202   6.743 -0.0870  0.3174  0.0943
 9903SOL    HW130529   6.907   5.279   6.794 -0.8878  1.1112 -1.5969
 9903SOL    HW230530   7.044   5.205   6.745 -0.1059  1.4523  0.0097
 9904SOL     OW30531   0.783   3.041   5.564  0.0569 -0.0651 -0.1927
 9904SOL    HW130532   0.879   3.052   5.591 -0.4244 -0.3753  1.7383
 9904SOL    HW230533   0.750   3.128   5.526  0.7965  0.3649  0.1149
 9905SOL     OW30534   1.909   3.417   1.020 -0.5319 -0.2112 -0.2440
 9905SOL    HW130535   1.991   3.383   0.974 -0.0854 -0.5383  0.7748
 9905SOL    HW230536   1.925   3.509   1.053 -0.2637 -0.5995  0.7247
 9906SOL     OW30537   2.246   5.040   1.892  0.2250  0.2496  0.4658
 9906SOL    HW130538   2.164   5.095   1.906  1.0711  1.5829  0.3538
 9906SOL    HW230539   2.312   5.061   1.964 -0.0615 -1.9043  1.4382
 9907SOL     OW30540   4.123   0.954   0.865  0.4780 -0.7456  0.4178
 9907SOL    HW130541   4.120   0.854   0.870 -0.2863 -0.7312  0.4013
 9907SOL    HW230542   4.190   0.981   0.796 -0.8104 -1.3120 -1.1206
 9908SOL     OW30543   1.223   1.707   6.605  0.2699 -0.4506  0.2158
 9908SOL    HW130544   1.193   1.718   6.700 -1.4872 -4.5374  0.3266
 9908SOL    HW230545   1.148   1.730   6.544  0.2918 -1.0134 -0.0230
 9909SOL     OW30546   6.768   1.589   0.386 -0.2269  0.8962 -0.3855
 9909SOL    HW130547   6.710   1.645   0.445 -1.6802  1.2066 -2.0395
 9909SOL    HW230548   6.747   1.608   0.290  0.9142 -0.7759 -1.0162
 9910SOL     OW30549   1.763   5.485   0.374 -0.1465  0.4266  0.3494
 9910SOL    HW130550   1.759   5.423   0.296  0.7348  0.3865  0.3326
 9910SOL    HW230551   1.782   5.578   0.343 -2.1337  0.8620  0.3085
 9911SOL     OW30552   2.479   5.073   4.888  0.6308 -0.0393  0.6414
 9911SOL    HW130553   2.413   4.999   4.890  0.7443 -0.1394  0.6730
 9911SOL    HW230554   2.436   5.157   4.922  0.4963 -0.0835  0.5821
 9912SOL     OW30555   1.998   3.803   4.573 -0.3610  0.4496  0.0858
 9912SOL    HW130556   1.958   3.809   4.664 -2.0182  0.3762 -0.5900
 9912SOL    HW230557   2.055   3.884   4.556 -1.1187  1.1357  0.7095
 9913SOL     OW30558   5.673   1.124   2.084 -0.2319  0.5799  0.1232
 9913SOL    HW130559   5.579   1.125   2.119  0.2105 -2.5841  1.7109
 9913SOL    HW230560   5.736   1.108   2.160  1.0935 -2.8110 -1.5278
 9914SOL     OW30561   1.773   6.713   5.145 -0.1867  0.6306  0.2136
 9914SOL    HW130562   1.770   6.753   5.054 -0.8280  0.0473 -0.0362
 9914SOL    HW230563   1.709   6.761   5.205 -0.0970  0.7264  0.2323
 9915SOL     OW30564   1.660   1.483   4.742 -0.1702 -0.2509 -0.3997
 9915SOL    HW130565   1.752   1.444   4.753 -1.1058 -2.3335  0.7069
 9915SOL    HW230566   1.616   1.489   4.832 -1.4673 -0.2114 -1.0159
 9916SOL     OW30567   6.270   5.984   0.940 -0.4524 -0.1912 -0.3411
 9916SOL    HW130568   6.287   6.046   0.864 -0.4540  1.0596  0.6411
 9916SOL    HW230569   6.207   6.028   1.005  0.9963 -0.4293  1.3087
 9917SOL     OW30570   4.509   1.287   3.532  0.0617 -0.6720  0.4154
 9917SOL    HW130571   4.607   1.273   3.548  0.2608 -0.6007 -0.6557
 9917SOL    HW230572   4.496   1.333   3.444 -1.0017 -1.9318 -0.1141
 9918SOL     OW30573   1.040   6.410   3.867 -0.2023  0.4576 -0.4071
 9918SOL    HW130574   0.973   6.452   3.927  0.0087  0.8954 -0.4769
 9918SOL    HW230575   0.992   6.362   3.793 -0.4370  0.7891 -0.4726
 9919SOL     OW30576   6.066   0.018   4.854 -0.0483 -0.1552 -0.1354
 9919SOL    HW130577   5.994   0.002   4.787 -0.4051  0.1367  0.1763
 9919SOL    HW230578   6.100  -0.069   4.888 -2.7907 -0.3729  2.4310
 9920SOL     OW30579   5.851   3.583   5.836 -0.0964  0.2021 -0.2853
 9920SOL    HW130580   5.782   3.595   5.764  2.0546 -0.6112 -2.6619
 9920SOL    HW230581   5.912   3.662   5.837 -0.3476  0.3912  0.9753
 9921SOL     OW30582   1.380   2.795   4.290  0.5074 -0.0310  0.4343
 9921SOL    HW130583   1.432   2.871   4.328  1.8496 -0.5129 -0.3585
 9921SOL    HW230584   1.397   2.788   4.192 -0.0592 -0.9856  0.3846
 9922SOL     OW30585   6.827   3.165   3.912  0.0394 -0.4119  0.4144
 9922SOL    HW130586   6.825   3.078   3.960  0.1215 -0.0219  1.1471
 9922SOL    HW230587   6.919   3.205   3.920  1.0776 -1.8525 -2.8749
 9923SOL     OW30588   3.178   0.942   1.617 -0.0991 -0.3304 -0.4467
 9923SOL    HW130589   3.235   0.874   1.570 -1.1013 -0.8569 -0.9316
 9923SOL    HW230590   3.237   1.013   1.657  0.8607 -0.5350 -1.4417
 9924SOL     OW30591   0.192   1.954   6.422 -0.7156  0.5038  0.7230
 9924SOL    HW130592   0.132   1.919   6.495 -1.7651 -0.8912 -0.7314
 9924SOL    HW230593   0.192   1.889   6.346  0.3835  1.9074 -0.5159
 9925SOL     OW30594   2.744   3.126   6.072 -0.0036 -0.5429  0.3320
 9925SOL    HW130595   2.667   3.168   6.121  1.2013  1.3287  0.6829
 9925SOL    HW230596   2.731   3.027   6.071 -1.8425 -0.3712  1.3736
 9926SOL     OW30597   0.328   2.158   0.280  0.7066 -0.3202 -0.6113
 9926SOL    HW130598   0.261   2.089   0.254  0.1437  0.2070 -0.5949
 9926SOL    HW230599   0.420   2.118   0.279  0.2349 -1.6070  1.2585
 9927SOL     OW30600   0.297   3.596   3.369  0.5472  0.2056  0.3729
 9927SOL    HW130601   0.241   3.628   3.445  0.6198  2.0310 -0.3000
 9927SOL    HW230602   0.383   3.646   3.367  0.1826  0.8245 -1.3929
 9928SOL     OW30603   2.472   4.362   5.316  0.3913 -0.7383  0.0353
 9928SOL    HW130604   2.469   4.296   5.391 -1.1594 -2.2707 -1.3222
 9928SOL    HW230605   2.481   4.454   5.354 -0.3968 -1.4601  2.1048
 9929SOL     OW30606   0.101   5.514   2.116 -0.6505  0.0046  0.5770
 9929SOL    HW130607   0.118   5.416   2.130 -1.1184  0.0653  1.6761
 9929SOL    HW230608   0.158   5.567   2.179 -1.5188  0.3748  1.0581
 9930SOL     OW30609   1.060   3.324   1.061 -0.1137 -0.4812 -0.1731
 9930SOL    HW130610   1.049   3.232   1.022 -1.7043 -0.5743  0.3915
 9930SOL    HW230611   0.992   3.337   1.134  0.0539  1.1594 -0.2757
 9931SOL     OW30612   5.914   5.715   0.347 -0.0032  0.5359  0.2855
 9931SOL    HW130613   5.838   5.763   0.304 -0.1451 -1.4057 -1.8826
 9931SOL    HW230614   5.879   5.635   0.397  0.5220  0.0838 -0.0565
 9932SOL     OW30615   5.231   5.621   6.078  0.1179 -0.0253 -0.1342
 9932SOL    HW130616   5.220   5.524   6.102  2.2668 -0.5504 -0.9848
 9932SOL    HW230617   5.317   5.654   6.117 -0.7309  1.6655  0.3839
 9933SOL     OW30618   0.685   3.949   5.147  0.8268 -0.0742 -0.4341
 9933SOL    HW130619   0.769   3.952   5.094  0.1669 -0.4914 -1.5450
 9933SOL    HW230620   0.689   3.872   5.212  2.3149  1.4300  1.3636
 9934SOL     OW30621   3.168   1.802   6.991 -0.0842  0.1080  0.5684
 9934SOL    HW130622   3.150   1.716   7.039 -1.7354  1.5018  2.6561
 9934SOL    HW230623   3.200   1.783   6.899 -2.6419 -2.7674  0.1134
 9935SOL     OW30624   1.516   6.186   6.699 -0.1263  0.8507 -0.1689
 9935SOL    HW130625   1.418   6.169   6.710 -0.3317 -0.2215 -2.8884
 9935SOL    HW230626   1.551   6.128   6.625  2.2860  2.1982 -0.1518
 9936SOL     OW30627   5.635   2.995   1.873 -0.2672 -0.4500  0.6609
 9936SOL    HW130628   5.596   2.952   1.791 -2.2284  0.4692  1.0749
 9936SOL    HW230629   5.612   3.092   1.874 -0.9105 -0.5831  2.6500
 9937SOL     OW30630   3.328   4.684   5.803  0.2160  0.2962  0.6231
 9937SOL    HW130631   3.387   4.764   5.800 -0.2888  0.6921  1.1894
 9937SOL    HW230632   3.380   4.606   5.840  0.7922  0.2751 -0.2101
 9938SOL     OW30633   4.452   5.733   5.317  0.0208  0.2758  0.1618
 9938SOL    HW130634   4.538   5.692   5.285  0.6130  1.2809  0.4225
 9938SOL    HW230635   4.382   5.723   5.247 -0.5056 -3.0396  0.9872
 9939SOL     OW30636   6.467   0.393   2.862 -0.3171  0.0004 -0.5864
 9939SOL    HW130637   6.536   0.416   2.931 -0.1291  0.9033 -1.0599
 9939SOL    HW230638   6.491   0.306   2.819  0.7375  0.4916 -1.0146
 9940SOL     OW30639   2.615   6.404   0.279  0.0336  0.2850  0.3768
 9940SOL    HW130640   2.676   6.361   0.213 -0.8599 -0.2231 -0.1469
 9940SOL    HW230641   2.557   6.471   0.232  0.5725  1.1815  0.9702
 9941SOL     OW30642   3.482   3.668   5.784  0.5023 -0.7814  0.4408
 9941SOL    HW130643   3.407   3.661   5.851  0.2038  0.2519  0.2282
 9941SOL    HW230644   3.533   3.582   5.783  1.4502 -0.3329  3.1047
 9942SOL     OW30645   4.472   0.211   6.122  0.4027 -0.1337 -0.4860
 9942SOL    HW130646   4.403   0.159   6.173  0.2584 -0.3265 -0.8719
 9942SOL    HW230647   4.501   0.290   6.176  0.9901 -0.8779  0.3204
 9943SOL     OW30648   4.233   3.931   2.741  0.5402 -0.3962 -0.3683
 9943SOL    HW130649   4.135   3.925   2.723  0.5215 -1.3853  0.0130
 9943SOL    HW230650   4.278   3.975   2.663 -0.2846  0.7320 -0.2350
 9944SOL     OW30651   4.302   5.873   2.066  0.0741 -0.1733  0.1037
 9944SOL    HW130652   4.302   5.774   2.079 -1.5167 -0.1302  0.6272
 9944SOL    HW230653   4.296   5.919   2.154 -1.3169  0.3198 -0.2151
 9945SOL     OW30654   6.350   1.587   0.431 -0.0458  0.1966  0.3528
 9945SOL    HW130655   6.404   1.509   0.464  0.1486  0.3324  0.3533
 9945SOL    HW230656   6.351   1.660   0.498  1.1098  0.8349 -0.3197
 9946SOL     OW30657   0.214   5.963   3.795 -0.0015 -0.0577  0.0447
 9946SOL    HW130658   0.133   6.021   3.799 -0.7263 -1.0310  4.1115
 9946SOL    HW230659   0.293   6.018   3.768 -0.7493  2.8481  3.1259
 9947SOL     OW30660   6.989   6.537   1.104 -0.0088 -0.2849  0.1664
 9947SOL    HW130661   7.049   6.617   1.107  0.2852 -0.4684 -0.5583
 9947SOL    HW230662   6.896   6.566   1.082  0.1687 -0.1696 -0.4622
 9948SOL     OW30663   2.357   1.176   1.833  0.1624  0.1695  0.2654
 9948SOL    HW130664   2.292   1.233   1.883  0.8156 -0.5034  1.9497
 9948SOL    HW230665   2.323   1.082   1.829 -0.2643  0.3549 -1.3201
 9949SOL     OW30666   2.808   3.356   3.082 -0.5656 -0.6616  0.1098
 9949SOL    HW130667   2.865   3.295   3.027 -1.5163 -0.1002 -1.5991
 9949SOL    HW230668   2.865   3.413   3.140  0.3708 -2.7869  1.3688
 9950SOL     OW30669   2.455   3.094   5.807 -0.1671 -0.8387 -0.3378
 9950SOL    HW130670   2.545   3.057   5.784 -0.2801 -1.2670 -0.0954
 9950SOL    HW230671   2.465   3.172   5.868  0.1468  0.3448 -1.8381
 9951SOL     OW30672   3.900   5.310   5.872 -0.1235  0.1492  0.2148
 9951SOL    HW130673   3.871   5.253   5.795 -1.6151  1.1192  0.0285
 9951SOL    HW230674   3.844   5.289   5.953 -0.0568  0.6775  0.4063
 9952SOL     OW30675   1.292   3.332   4.350  0.8051  0.7372 -0.9461
 9952SOL    HW130676   1.290   3.422   4.305 -1.0686 -0.4823 -3.5654
 9952SOL    HW230677   1.212   3.279   4.322  1.8443 -1.7865  0.5226
 9953SOL     OW30678   6.524   0.538   1.510 -0.1722 -0.6025 -0.0821
 9953SOL    HW130679   6.424   0.538   1.507 -0.1727 -1.7840 -1.0012
 9953SOL    HW230680   6.558   0.444   1.507  0.9565 -0.2926  1.6710
 9954SOL     OW30681   3.274   1.965   5.161  0.4488 -0.1228  0.0680
 9954SOL    HW130682   3.184   1.925   5.177  0.5934 -0.6892 -0.4587
 9954SOL    HW230683   3.269   2.064   5.168 -0.0541 -0.1938  0.7894
 9955SOL     OW30684   5.527   3.265   6.864 -0.5486 -0.3653 -0.5864
 9955SOL    HW130685   5.592   3.335   6.894  0.0435 -1.2030  0.1485
 9955SOL    HW230686   5.482   3.225   6.944 -0.7974 -0.9035 -0.9914
 9956SOL     OW30687   4.257   0.028   5.243  0.0409 -0.9113  0.0468
 9956SOL    HW130688   4.172   0.078   5.254 -0.0807 -1.1547  0.2330
 9956SOL    HW230689   4.331   0.092   5.223 -0.1074 -0.6547  0.3096
 9957SOL     OW30690   5.805   3.705   2.666  0.2776  0.5164  0.1577
 9957SOL    HW130691   5.875   3.720   2.736  0.1797 -1.4823  0.7438
 9957SOL    HW230692   5.808   3.780   2.599  2.4463  0.8685  0.5850
 9958SOL     OW30693   2.189   5.551   5.097  0.0010 -1.1902  0.7059
 9958SOL    HW130694   2.102   5.504   5.109 -0.4833 -0.1303  1.4557
 9958SOL    HW230695   2.173   5.647   5.077  1.0021 -1.0114  0.7083
 9959SOL     OW30696   3.018   1.828   5.272 -0.2494 -0.5008  0.4825
 9959SOL    HW130697   3.015   1.729   5.284  0.5777 -0.4095  1.7819
 9959SOL    HW230698   2.933   1.860   5.232  0.3232 -1.9673 -2.0974
 9960SOL     OW30699   4.670   0.416   3.335  0.4955 -0.3852  0.3397
 9960SOL    HW130700   4.728   0.361   3.395 -0.8771 -0.4946  1.6256
 9960SOL    HW230701   4.651   0.504   3.378  1.6408  0.6328 -1.1472
 9961SOL     OW30702   0.301   2.784   5.431 -0.1453 -0.1970 -0.2418
 9961SOL    HW130703   0.335   2.863   5.483 -1.1280  1.3036 -1.7520
 9961SOL    HW230704   0.234   2.735   5.486 -1.5703  1.6671 -0.2014
 9962SOL     OW30705   1.749   2.387   2.748 -0.4869  0.2856  0.2108
 9962SOL    HW130706   1.789   2.309   2.700 -0.2574  2.4634 -3.5086
 9962SOL    HW230707   1.650   2.372   2.759 -0.7486  0.1167 -1.9967
 9963SOL     OW30708   2.932   5.537   5.160  0.5006 -0.4653  0.4141
 9963SOL    HW130709   2.982   5.607   5.211  1.7075  0.4141 -1.8576
 9963SOL    HW230710   2.973   5.526   5.070 -1.4787 -2.0484 -0.3600
 9964SOL     OW30711   3.521   4.085   2.158 -0.1836  0.0915 -0.4264
 9964SOL    HW130712   3.482   4.002   2.198 -1.6090  0.3123 -1.3088
 9964SOL    HW230713   3.469   4.165   2.189  2.5204  1.0174  2.2612
 9965SOL     OW30714   2.913   4.873   2.101  0.3024 -0.9380 -0.8416
 9965SOL    HW130715   2.869   4.861   2.012  0.9766 -0.9048 -1.1828
 9965SOL    HW230716   2.960   4.788   2.126 -1.1029 -1.4616  0.1776
 9966SOL     OW30717   4.721   6.670   5.770 -0.3652  0.0530  0.1535
 9966SOL    HW130718   4.765   6.657   5.859  0.0689  0.1772 -0.0434
 9966SOL    HW230719   4.716   6.582   5.722 -1.6396 -0.2430  0.7721
 9967SOL     OW30720   0.059   2.457   1.738 -0.5639 -0.0650  0.0076
 9967SOL    HW130721   0.119   2.377   1.742  0.0826  0.2884 -1.9630
 9967SOL    HW230722   0.035   2.484   1.832  0.9687 -1.2318  0.7965
 9968SOL     OW30723   6.957   5.873   0.356 -0.2687 -0.5135 -0.1421
 9968SOL    HW130724   7.017   5.904   0.430 -1.9033  3.1783 -0.1373
 9968SOL    HW230725   7.012   5.836   0.281  1.7013 -0.5263  1.2498
 9969SOL     OW30726   5.464   2.768   5.948  0.1670 -0.6444 -0.0207
 9969SOL    HW130727   5.466   2.736   6.042 -1.5510  0.0769  0.3047
 9969SOL    HW230728   5.382   2.824   5.933  0.1293 -1.1435 -2.0771
 9970SOL     OW30729   5.777   0.772   1.166 -0.4850 -0.2217 -0.1378
 9970SOL    HW130730   5.853   0.766   1.231 -0.5731 -0.6564 -0.0737
 9970SOL    HW230731   5.808   0.744   1.075  0.0788  1.9582 -0.6746
 9971SOL     OW30732   3.379   0.112   1.133  0.0034  0.5565  0.1423
 9971SOL    HW130733   3.340   0.204   1.141  0.0980  0.7152 -1.0881
 9971SOL    HW230734   3.474   0.114   1.165  0.5865  1.3176 -1.5337
 9972SOL     OW30735   4.234   0.613   6.682 -0.0584  0.0396  0.0280
 9972SOL    HW130736   4.157   0.675   6.666 -0.8562 -1.2970 -1.8032
 9972SOL    HW230737   4.319   0.665   6.686 -0.7448  1.3051 -0.9809
 9973SOL     OW30738   1.454   6.849   3.388 -0.0900 -0.0529  0.1270
 9973SOL    HW130739   1.459   6.918   3.460  1.2636  0.4496 -0.4308
 9973SOL    HW230740   1.397   6.883   3.313 -0.1053  0.1035  0.2092
 9974SOL     OW30741   3.449   3.009   5.937  0.1285 -0.5086  0.2265
 9974SOL    HW130742   3.517   3.062   5.988 -0.1206  0.3563 -0.3194
 9974SOL    HW230743   3.471   3.010   5.840 -0.4808 -0.4843  0.0802
 9975SOL     OW30744   2.840   2.071   5.771 -0.1994 -0.0791  0.6585
 9975SOL    HW130745   2.832   2.033   5.863  1.9907 -1.6950  0.2608
 9975SOL    HW230746   2.861   1.997   5.707  1.7366  1.4598 -0.5666
 9976SOL     OW30747   4.788   5.397   3.228  0.1287  0.1139  0.2638
 9976SOL    HW130748   4.754   5.476   3.178 -0.1082 -1.0225 -1.4345
 9976SOL    HW230749   4.875   5.420   3.272  0.0737  1.2939 -0.2196
 9977SOL     OW30750   5.922   2.458   1.055 -0.2049 -0.6530  0.0003
 9977SOL    HW130751   5.866   2.495   0.982  0.5857 -4.4720 -2.8461
 9977SOL    HW230752   6.016   2.493   1.047 -0.5828  0.5887  0.6444
 9978SOL     OW30753   4.874   6.294   2.820 -0.4800  0.0522  0.4883
 9978SOL    HW130754   4.798   6.256   2.873  1.3421 -0.0856  3.1762
 9978SOL    HW230755   4.886   6.390   2.845  0.1849  0.0897  0.0395
 9979SOL     OW30756   0.214   6.974   6.566  0.4769 -0.0002 -0.1700
 9979SOL    HW130757   0.139   7.011   6.621 -2.1218 -1.3404 -2.5573
 9979SOL    HW230758   0.221   6.875   6.580  2.3073  0.1970  0.5228
 9980SOL     OW30759   6.215   1.750   6.344  0.3795  0.4685  0.1134
 9980SOL    HW130760   6.166   1.667   6.371 -0.0731  1.1382  1.4519
 9980SOL    HW230761   6.290   1.725   6.283 -0.7442 -0.7288 -0.8587
 9981SOL     OW30762   3.242   5.486   0.497  0.6594  0.6100  1.0121
 9981SOL    HW130763   3.325   5.440   0.526 -0.2073 -0.2930  2.1522
 9981SOL    HW230764   3.201   5.533   0.575 -0.3555  0.2850  0.6913
 9982SOL     OW30765   3.061   0.954   4.424  0.0026  0.1022  0.1397
 9982SOL    HW130766   2.983   0.932   4.482 -0.1939 -1.0632 -0.5160
 9982SOL    HW230767   3.146   0.935   4.473 -0.1383  0.6420  0.5923
 9983SOL     OW30768   6.431   4.898   2.570  0.1298 -0.2122  0.0731
 9983SOL    HW130769   6.402   4.926   2.479  0.7319 -1.3989 -0.5099
 9983SOL    HW230770   6.364   4.833   2.607  0.3851 -0.4863  0.0579
 9984SOL     OW30771   5.103   4.980   5.241 -0.4107 -0.2145  0.4392
 9984SOL    HW130772   5.004   4.976   5.230 -0.1959 -0.9144 -1.4517
 9984SOL    HW230773   5.124   5.008   5.335 -2.3579 -2.9280  1.8167
 9985SOL     OW30774   4.783   3.359   0.766  0.1860  0.0152  0.1470
 9985SOL    HW130775   4.859   3.299   0.742 -0.5222 -0.1304 -1.9968
 9985SOL    HW230776   4.764   3.351   0.864  3.3782  0.6479  0.9393
 9986SOL     OW30777   2.461   4.264   0.350 -0.5700  0.3414  0.3131
 9986SOL    HW130778   2.466   4.183   0.292 -0.2751  0.0464  0.7450
 9986SOL    HW230779   2.515   4.249   0.433  0.3687  1.3790 -0.0829
 9987SOL     OW30780   4.774   2.934   2.363 -0.6020 -0.1159  0.7462
 9987SOL    HW130781   4.734   2.844   2.382 -0.4563 -0.3948 -0.2143
 9987SOL    HW230782   4.712   3.006   2.397 -2.0539 -0.5268 -0.8713
 9988SOL     OW30783   3.990   0.522   2.376  0.3798  0.1265 -0.1107
 9988SOL    HW130784   4.062   0.581   2.411  0.4061 -0.0937  0.2116
 9988SOL    HW230785   4.003   0.508   2.278  0.0938  1.0484 -0.2850
 9989SOL     OW30786   1.449   0.928   1.382  0.3237  0.2027  0.3518
 9989SOL    HW130787   1.433   0.833   1.358  0.5164  0.5203 -1.0972
 9989SOL    HW230788   1.414   0.988   1.310  1.5225  1.1812  0.5463
 9990SOL     OW30789   6.004   3.205   0.963 -0.2035  0.4091  0.2580
 9990SOL    HW130790   6.100   3.211   0.934  0.0812  0.9998  1.2786
 9990SOL    HW230791   5.984   3.278   1.028 -0.8432 -0.7749  1.4424
 9991SOL     OW30792   5.072   3.169   0.312  0.1513  0.1981 -0.1697
 9991SOL    HW130793   5.097   3.083   0.267 -0.7210  0.5086 -1.2667
 9991SOL    HW230794   5.150   3.201   0.366 -0.4448 -2.8737  2.8804
 9992SOL     OW30795   0.038   1.250   5.680  0.0471 -0.6972 -0.1649
 9992SOL    HW130796   0.065   1.343   5.659 -0.6119 -0.8178 -1.6712
 9992SOL    HW230797  -0.062   1.244   5.683  0.0727 -0.9162  2.1614
 9993SOL     OW30798   5.233   4.403   5.840 -0.5058 -0.0748 -0.1395
 9993SOL    HW130799   5.245   4.495   5.803  1.4109  0.5049  1.7072
 9993SOL    HW230800   5.201   4.409   5.934 -2.2695 -1.4015 -0.6130
 9994SOL     OW30801   4.633   4.852   0.846 -0.3905  0.2964  0.4827
 9994SOL    HW130802   4.670   4.934   0.889 -0.8552  1.0614 -0.5436
 9994SOL    HW230803   4.590   4.876   0.759 -0.1544 -1.1083 -0.0427
 9995SOL     OW30804   5.496   5.198   0.296  0.7546  0.6892  0.5718
 9995SOL    HW130805   5.561   5.188   0.221  0.5289 -1.0356  0.5715
 9995SOL    HW230806   5.447   5.112   0.310 -4.6163  2.8415 -2.1581
 9996SOL     OW30807   4.049   0.831   6.615  0.1430  0.2646  0.0952
 9996SOL    HW130808   4.006   0.889   6.684  0.8958  1.7166 -0.6160
 9996SOL    HW230809   3.982   0.807   6.545 -0.1759  0.2904  0.3922
 9997SOL     OW30810   1.805   5.703   4.538 -0.1538 -0.0561 -0.1194
 9997SOL    HW130811   1.856   5.741   4.461 -0.2972 -0.1877 -0.2826
 9997SOL    HW230812   1.767   5.614   4.512  0.7458 -0.6363  0.4856
 9998SOL     OW30813   3.862   2.661   5.990  0.1259 -0.4207 -0.2611
 9998SOL    HW130814   3.937   2.601   5.962  0.3615 -0.7365  0.9580
 9998SOL    HW230815   3.872   2.682   6.088 -0.3166  1.0897 -0.5256
 9999SOL     OW30816   4.377   0.425   4.037  0.0955  0.3842  0.3893
 9999SOL    HW130817   4.399   0.522   4.041 -1.1228  0.8168 -2.0418
 9999SOL    HW230818   4.461   0.372   4.021  0.4156  1.3293 -1.2839
10000SOL     OW30819   3.205   4.630   3.206 -0.0797  0.2499  0.4123
10000SOL    HW130820   3.217   4.656   3.111  1.4290  0.2795  0.5827
10000SOL    HW230821   3.153   4.701   3.254 -2.5881 -0.6744 -0.7795
10001SOL     OW30822   1.601   3.553   2.267 -0.1929 -0.0193  0.4144
10001SOL    HW130823   1.600   3.643   2.311 -1.0669  0.7088 -1.0012
10001SOL    HW230824   1.689   3.539   2.222 -0.1203  0.2073  0.4858
10002SOL     OW30825   0.171   2.055   2.671  0.4004  0.6011 -0.3681
10002SOL    HW130826   0.244   1.998   2.709 -1.5954 -1.3710  0.8059
10002SOL    HW230827   0.121   2.098   2.747  0.6251  2.3455 -1.1710
10003SOL     OW30828   5.147   2.919   0.223  0.2803  0.0223 -0.0938
10003SOL    HW130829   5.123   2.822   0.218  0.8287 -0.1281  0.1499
10003SOL    HW230830   5.244   2.931   0.202  0.1439  0.5573 -0.4490
10004SOL     OW30831   6.678   5.652   2.513  0.1652 -0.0515  0.4016
10004SOL    HW130832   6.682   5.621   2.608 -0.1864 -0.7844  0.1857
10004SOL    HW230833   6.592   5.700   2.497 -0.5006 -1.3213  0.0565
10005SOL     OW30834   4.485   4.960   4.453  0.0249 -0.0644 -0.7033
10005SOL    HW130835   4.558   5.025   4.476  1.4356 -1.7930 -0.0825
10005SOL    HW230836   4.507   4.915   4.367  0.5040 -1.6860  0.2394
10006SOL     OW30837   1.066   0.897   5.100 -0.7726  0.2013  0.8081
10006SOL    HW130838   1.085   0.815   5.047 -1.8479  0.7122 -0.4230
10006SOL    HW230839   1.069   0.977   5.040 -2.5620  0.7342  1.3816
10007SOL     OW30840   6.413   1.571   6.805 -0.3966 -0.9448 -0.9027
10007SOL    HW130841   6.475   1.499   6.836  0.5363 -0.0558 -0.6608
10007SOL    HW230842   6.326   1.564   6.855  0.1305 -1.1483  0.0027
10008SOL     OW30843   4.700   5.627   5.241 -0.1026 -0.1939 -0.1755
10008SOL    HW130844   4.744   5.577   5.167 -0.0148 -0.1676 -0.1417
10008SOL    HW230845   4.766   5.689   5.284 -0.6121  1.1387 -1.2498
10009SOL     OW30846   2.131   1.587   5.698  0.2216  0.5559 -0.5047
10009SOL    HW130847   2.085   1.604   5.610  0.6676 -0.4121 -0.9333
10009SOL    HW230848   2.229   1.577   5.683  0.4446  1.4669  0.2615
10010SOL     OW30849   0.870   0.615   5.650  0.3871  0.2645 -0.6765
10010SOL    HW130850   0.877   0.609   5.749  0.4908  0.7841 -0.6503
10010SOL    HW230851   0.793   0.673   5.625 -0.7252 -1.2450 -0.9222
10011SOL     OW30852   1.874   4.168   5.518 -0.3782 -0.1647 -0.0276
10011SOL    HW130853   1.848   4.213   5.433 -1.1920 -0.7853 -0.1078
10011SOL    HW230854   1.900   4.238   5.585 -1.3687  0.4241 -0.2382
10012SOL     OW30855   4.142   1.642   5.252  0.3753 -0.6690  0.0565
10012SOL    HW130856   4.068   1.630   5.186 -1.1150  0.6396  1.3921
10012SOL    HW230857   4.114   1.602   5.340  1.2863 -0.2449  0.5486
10013SOL     OW30858   6.790   4.344   1.845 -0.1161  0.2288 -0.3871
10013SOL    HW130859   6.869   4.351   1.784  0.7850  0.3640  0.7639
10013SOL    HW230860   6.794   4.257   1.895 -0.6477  0.2756 -0.2587
10014SOL     OW30861   6.037   3.188   0.075  0.3620  0.6170 -0.3234
10014SOL    HW130862   6.101   3.178   0.151 -0.7184  1.1907  0.6920
10014SOL    HW230863   6.077   3.148  -0.008  1.4117 -0.3532  0.6190
10015SOL     OW30864   4.206   6.507   0.277  0.9239 -0.3012  0.4556
10015SOL    HW130865   4.288   6.489   0.223  1.0131 -0.9400  0.7840
10015SOL    HW230866   4.126   6.471   0.228  0.6813  1.3135 -0.3866
10016SOL     OW30867   2.505   0.255   2.766  0.3084 -0.5186  0.2329
10016SOL    HW130868   2.502   0.237   2.865  0.2328  0.7724  0.4749
10016SOL    HW230869   2.517   0.168   2.717 -0.2040 -1.2357  1.3447
10017SOL     OW30870   0.973   2.471   5.316  0.6020  0.1787 -0.7215
10017SOL    HW130871   1.002   2.414   5.392 -1.1680  0.4931  0.2398
10017SOL    HW230872   0.886   2.514   5.338  1.9429  3.4727 -1.2936
10018SOL     OW30873   4.061   5.757   0.893  0.4310 -0.3251  0.6010
10018SOL    HW130874   3.967   5.725   0.900  0.6525 -1.0701  0.2549
10018SOL    HW230875   4.115   5.717   0.968  0.5693 -0.2528  0.5403
10019SOL     OW30876   3.592   3.351   4.053  0.0194  0.1934  0.6649
10019SOL    HW130877   3.633   3.314   3.970 -1.0827 -2.7284  1.3176
10019SOL    HW230878   3.502   3.390   4.030  0.2634  0.5517  0.2973
10020SOL     OW30879   1.930   1.458   4.815 -0.3197  0.4252 -0.2792
10020SOL    HW130880   1.930   1.542   4.761  0.3180  0.7424  0.2031
10020SOL    HW230881   2.005   1.461   4.881  1.7227 -1.8507 -2.3061
10021SOL     OW30882   2.810   0.816   4.563 -0.2448 -0.1371 -0.1102
10021SOL    HW130883   2.759   0.795   4.646  0.4412 -0.4020  0.2480
10021SOL    HW230884   2.812   0.734   4.505  0.9768 -0.5830  0.5223
10022SOL     OW30885   2.289   0.869   2.163  0.3446  0.1653  0.0000
10022SOL    HW130886   2.196   0.895   2.189  0.5590  0.3766  0.5612
10022SOL    HW230887   2.343   0.852   2.245  1.3218  1.8401 -0.2462
10023SOL     OW30888   2.302   3.396   1.411  0.1928  0.6475 -0.2346
10023SOL    HW130889   2.232   3.443   1.465  0.8482 -0.5640  1.7768
10023SOL    HW230890   2.278   3.299   1.403  1.0719  0.4428 -0.4726
10024SOL     OW30891   5.567   1.855   4.153 -0.4396 -0.0089  0.3334
10024SOL    HW130892   5.595   1.765   4.121  1.9117  1.3181 -1.7581
10024SOL    HW230893   5.483   1.883   4.107 -1.2036 -1.0957  1.0277
10025SOL     OW30894   1.372   5.263   5.366 -0.1429  0.1139 -0.8793
10025SOL    HW130895   1.302   5.243   5.298  0.5063 -1.2975 -1.1643
10025SOL    HW230896   1.461   5.271   5.321  0.0972  0.4656 -0.3561
10026SOL     OW30897   1.632   6.456   6.764  0.2283  0.0334 -0.0126
10026SOL    HW130898   1.602   6.520   6.834  2.0554  0.0524  0.7920
10026SOL    HW230899   1.585   6.368   6.777 -0.4511  0.4541  0.3900
10027SOL     OW30900   1.068   4.173   2.026  0.0901  0.8083  0.6076
10027SOL    HW130901   1.045   4.134   1.937  0.2855 -1.6380  1.5197
10027SOL    HW230902   0.987   4.174   2.084  0.5480 -0.5122  1.3300
10028SOL     OW30903   3.733   3.297   3.802 -0.8925  0.4295  0.3560
10028SOL    HW130904   3.832   3.299   3.817 -0.8315 -0.9067  0.2593
10028SOL    HW230905   3.713   3.263   3.711 -1.4515  0.6531  0.3885
10029SOL     OW30906   2.341   3.154   3.658 -0.1513  0.4083 -0.4673
10029SOL    HW130907   2.369   3.084   3.724 -1.4951  0.1681 -0.1273
10029SOL    HW230908   2.385   3.241   3.682  0.2985  0.0543  0.0294
10030SOL     OW30909   6.284   3.363   1.197  0.4517 -0.0503 -0.0529
10030SOL    HW130910   6.357   3.371   1.265  0.4179  0.1255 -0.0364
10030SOL    HW230911   6.196   3.353   1.243  0.5373 -0.9871 -0.0702
10031SOL     OW30912   1.529   6.091   4.631  0.4309 -0.4757 -0.1546
10031SOL    HW130913   1.495   6.149   4.557  0.1881 -0.9007 -0.3756
10031SOL    HW230914   1.453   6.057   4.686  0.5380 -0.9320 -0.2825
10032SOL     OW30915   4.008   2.757   6.232 -0.3814  0.1823 -0.4901
10032SOL    HW130916   4.105   2.737   6.226 -0.3778  0.3088 -0.9092
10032SOL    HW230917   3.992   2.825   6.304 -0.6082 -2.5892  2.3159
10033SOL     OW30918   4.044   1.480   0.551 -0.1933  0.0398 -0.2637
10033SOL    HW130919   4.056   1.388   0.589 -0.5657 -0.2378 -0.8106
10033SOL    HW230920   3.947   1.505   0.557  0.1200  1.0461  1.3448
10034SOL     OW30921   1.265   1.150   4.994 -0.3377 -0.1245  0.1652
10034SOL    HW130922   1.312   1.147   5.082  1.1694  0.9216 -0.5662
10034SOL    HW230923   1.329   1.126   4.921 -0.7078  1.9670 -0.9268
10035SOL     OW30924   0.600   5.189   2.695 -0.1070  0.2046 -0.9017
10035SOL    HW130925   0.616   5.231   2.785 -0.5619 -2.8802  0.7807
10035SOL    HW230926   0.529   5.240   2.647 -0.4335  1.5063  0.8421
10036SOL     OW30927   2.350   0.104   1.314 -0.3518  0.2127 -0.1018
10036SOL    HW130928   2.270   0.123   1.256 -0.1846 -0.4777 -0.5633
10036SOL    HW230929   2.319   0.069   1.402 -0.5772  0.4000 -0.1046
10037SOL     OW30930   4.761   5.814   2.431 -0.0586  0.1025 -0.0264
10037SOL    HW130931   4.840   5.857   2.387 -0.1258  0.0511 -0.1945
10037SOL    HW230932   4.685   5.809   2.367 -0.0284 -0.3326 -0.0328
10038SOL     OW30933   5.925   2.862   5.456  0.0505  1.5829  0.0952
10038SOL    HW130934   5.828   2.854   5.436  0.0204 -2.0744  0.9262
10038SOL    HW230935   5.948   2.808   5.537  2.8958  1.6189 -0.5525
10039SOL     OW30936   5.768   2.313   3.181  0.4327 -0.1986  0.8317
10039SOL    HW130937   5.777   2.368   3.098 -0.4152 -0.8052  0.3246
10039SOL    HW230938   5.839   2.340   3.246  0.5120  0.9510  0.2971
10040SOL     OW30939   3.291   2.140   1.244 -0.0813  0.5300  0.0744
10040SOL    HW130940   3.368   2.184   1.290  0.8123 -0.6060 -0.2862
10040SOL    HW230941   3.307   2.140   1.145  1.1757 -2.6873  0.1618
10041SOL     OW30942   6.036   2.306   6.467 -0.4630  0.1131  0.1457
10041SOL    HW130943   6.013   2.339   6.559 -1.4717 -0.8210  0.2525
10041SOL    HW230944   6.066   2.210   6.473 -1.5869 -0.3071 -0.6077
10042SOL     OW30945   5.080   1.981   2.760 -0.3868 -0.1347  0.7412
10042SOL    HW130946   5.080   2.057   2.696 -0.1765  1.1031  2.1608
10042SOL    HW230947   5.131   2.006   2.843  0.1311 -2.0016  1.0534
10043SOL     OW30948   3.518   6.422   6.654 -0.4490  0.5162 -0.3844
10043SOL    HW130949   3.466   6.381   6.579  1.7169  0.3584 -1.9078
10043SOL    HW230950   3.512   6.522   6.647 -1.2891  0.5093  0.0474
10044SOL     OW30951   1.154   3.894   6.232 -0.1904  0.1362 -0.2120
10044SOL    HW130952   1.059   3.907   6.260 -0.9850 -0.2037 -2.5478
10044SOL    HW230953   1.194   3.818   6.283 -0.8825  0.8020  1.3813
10045SOL     OW30954   3.319   5.987   5.791  0.5334  0.3588  0.6021
10045SOL    HW130955   3.294   5.893   5.812  4.6744 -0.6824  1.7097
10045SOL    HW230956   3.327   5.999   5.692  0.6469 -0.6790  0.4814
10046SOL     OW30957   0.044   5.936   4.646 -0.1141 -0.0188  0.1253
10046SOL    HW130958   0.052   5.953   4.744  2.3794  0.6107 -0.1130
10046SOL    HW230959   0.031   6.023   4.598 -0.3379 -0.2148 -0.1744
10047SOL     OW30960   3.317   4.985   3.542  0.2648 -0.1830 -0.9457
10047SOL    HW130961   3.338   4.910   3.604 -1.5857 -0.2558 -0.3441
10047SOL    HW230962   3.356   5.070   3.578  0.1457 -0.4113 -0.2647
10048SOL     OW30963   1.915   6.913   3.169  0.4363  0.1841  0.2326
10048SOL    HW130964   1.966   6.830   3.195  1.3047  0.4131 -0.6522
10048SOL    HW230965   1.827   6.887   3.130 -0.4066 -0.2032  2.2786
10049SOL     OW30966   3.188   5.822   5.347 -0.3498 -0.2640 -0.1571
10049SOL    HW130967   3.199   5.722   5.352  2.1779 -0.0346  0.4828
10049SOL    HW230968   3.275   5.863   5.320 -0.8842  1.8817  1.1798
10050SOL     OW30969   5.368   5.701   3.039  0.3263 -0.0735  1.2389
10050SOL    HW130970   5.270   5.709   3.021  0.4251  0.5833  0.9838
10050SOL    HW230971   5.418   5.766   2.983  0.9827 -0.9594  0.7743
10051SOL     OW30972   4.653   5.899   1.053  0.2768  0.3279  0.2642
10051SOL    HW130973   4.720   5.971   1.040  0.5782 -0.0718 -0.4396
10051SOL    HW230974   4.645   5.844   0.969 -0.1657 -0.2700  0.6821
10052SOL     OW30975   4.944   2.627   1.828 -0.1450  0.2809  0.8079
10052SOL    HW130976   4.911   2.691   1.759  0.9748  0.2121  0.1812
10052SOL    HW230977   4.883   2.629   1.907 -0.8667  1.1357  0.2528
10053SOL     OW30978   5.307   5.173   3.258 -0.1859 -0.2026  0.7968
10053SOL    HW130979   5.242   5.182   3.334 -2.3364 -0.8122 -0.8571
10053SOL    HW230980   5.345   5.263   3.236 -0.3562  0.1535  1.8902
10054SOL     OW30981   4.594   0.328   0.686  0.5241 -0.0444 -0.4066
10054SOL    HW130982   4.675   0.381   0.663  0.0545  0.9696  0.2169
10054SOL    HW230983   4.600   0.297   0.781 -0.2576  0.8953 -0.0329
10055SOL     OW30984   2.561   6.154   0.433  0.4484  0.2944  0.0374
10055SOL    HW130985   2.555   6.158   0.333  2.5012 -1.5356 -0.2269
10055SOL    HW230986   2.624   6.225   0.465  0.8232  0.0389 -0.1201
10056SOL     OW30987   6.528   0.456   3.554 -0.1035 -0.1788  0.5944
10056SOL    HW130988   6.592   0.400   3.500 -1.0268  0.0727 -0.7882
10056SOL    HW230989   6.439   0.458   3.509 -0.3784  1.5915  1.1510
10057SOL     OW30990   2.813   1.547   4.593 -0.2562  0.0015  0.0751
10057SOL    HW130991   2.908   1.525   4.571 -0.7663 -1.2241 -1.0202
10057SOL    HW230992   2.779   1.618   4.531 -0.2068  0.0866  0.1450
10058SOL     OW30993   4.512   6.985   6.501 -0.1393 -0.4734  0.2244
10058SOL    HW130994   4.558   7.030   6.577 -1.3182  1.2061  0.0087
10058SOL    HW230995   4.417   6.964   6.527 -0.1774 -1.0411 -0.3527
10059SOL     OW30996   4.293   6.892   0.177 -0.4387 -0.0702 -0.0352
10059SOL    HW130997   4.234   6.970   0.200 -2.4258 -1.0767 -1.4553
10059SOL    HW230998   4.264   6.812   0.230 -0.9993 -0.8042 -1.4019
10060SOL     OW30999   6.887   2.759   2.267  0.2155 -0.4284  0.4743
10060SOL    HW131000   6.907   2.854   2.291  0.8497 -0.4071 -0.1051
10060SOL    HW231001   6.920   2.740   2.175 -0.5146 -1.0278  0.3246
10061SOL     OW31002   6.217   6.676   5.823 -0.1424 -0.0742  0.0606
10061SOL    HW131003   6.150   6.621   5.872  0.7821 -0.2953  1.1071
10061SOL    HW231004   6.309   6.642   5.842  0.3506  0.9501 -0.4033
10062SOL     OW31005   4.921   5.927   5.544  1.4348 -0.2251 -0.3950
10062SOL    HW131006   4.990   5.859   5.568  2.4323  0.2651 -1.7233
10062SOL    HW231007   4.839   5.881   5.510  0.8325 -0.8338  1.7365
10063SOL     OW31008   5.894   6.967   1.356  0.0271  0.3966  0.4166
10063SOL    HW131009   5.869   6.870   1.355  1.9834 -0.1457  1.0471
10063SOL    HW231010   5.927   6.993   1.446  0.9550  1.2555 -0.1430
10064SOL     OW31011   3.881   5.215   6.995 -0.4405 -0.3733  0.4235
10064SOL    HW131012   3.897   5.140   7.058 -0.7748 -1.6003 -0.8973
10064SOL    HW231013   3.968   5.256   6.968  0.2244 -3.1203 -2.1191
10065SOL     OW31014   2.466   4.895   6.474  0.5905  0.7686  0.1390
10065SOL    HW131015   2.419   4.963   6.418  0.7280  1.0082  0.3112
10065SOL    HW231016   2.483   4.933   6.565 -0.6153 -0.0048  0.7075
10066SOL     OW31017   2.139   2.866   1.345  0.0681 -0.5593  0.2302
10066SOL    HW131018   2.221   2.812   1.363 -0.1222 -1.6978 -2.0152
10066SOL    HW231019   2.107   2.849   1.252 -1.4096  1.6240  0.2521
10067SOL     OW31020   5.905   5.467   6.623  0.2274 -0.5842  0.4426
10067SOL    HW131021   5.934   5.372   6.610 -0.1291 -0.7124  0.5900
10067SOL    HW231022   5.827   5.487   6.564 -0.6157 -0.8122  1.4513
10068SOL     OW31023   2.501   6.635   3.852 -0.4979  0.2575  0.6025
10068SOL    HW131024   2.567   6.672   3.787 -1.2281 -0.1753 -0.4230
10068SOL    HW231025   2.472   6.544   3.821 -0.6681 -0.0702  1.6856
10069SOL     OW31026   1.383   0.599   3.391  0.0177 -0.1252  0.6045
10069SOL    HW131027   1.419   0.536   3.460  1.0446 -0.3607 -0.1164
10069SOL    HW231028   1.295   0.635   3.421 -2.4324 -4.4935 -0.3787
10070SOL     OW31029   6.604   4.851   4.126 -0.1587  0.1705  0.5242
10070SOL    HW131030   6.626   4.869   4.222  0.5814  0.8705  0.2331
10070SOL    HW231031   6.589   4.753   4.113  0.0459  0.0315  1.2927
10071SOL     OW31032   0.187   3.224   4.549  0.1172 -0.2070  0.2971
10071SOL    HW131033   0.231   3.282   4.480  2.3552 -0.1143  1.7151
10071SOL    HW231034   0.108   3.273   4.587 -0.0168  0.5076 -0.8447
10072SOL     OW31035   0.221   5.134   4.567  0.8582  0.5422 -0.1651
10072SOL    HW131036   0.218   5.149   4.468 -2.1346 -0.3458 -0.3004
10072SOL    HW231037   0.265   5.046   4.586  0.5267  0.2309 -0.7943
10073SOL     OW31038   6.490   1.545   2.188 -0.4824 -1.2136 -0.3899
10073SOL    HW131039   6.531   1.525   2.278 -1.2810 -1.4322 -0.0661
10073SOL    HW231040   6.532   1.487   2.119 -0.1089 -1.3027 -0.0938
10074SOL     OW31041   0.577   5.322   6.484  0.2792  0.2126 -0.5476
10074SOL    HW131042   0.618   5.239   6.520  1.0911  1.0140  0.4198
10074SOL    HW231043   0.513   5.299   6.410 -1.3443 -1.4645  1.2818
10075SOL     OW31044   6.558   0.607   6.093 -0.2929 -0.6917  0.5380
10075SOL    HW131045   6.471   0.570   6.125 -1.2559 -0.2748 -1.4478
10075SOL    HW231046   6.541   0.693   6.044  1.4476  0.3165  1.6044
10076SOL     OW31047   4.378   5.342   2.722 -0.1180  0.4081 -0.1311
10076SOL    HW131048   4.363   5.249   2.688  0.0503  1.1359 -2.3313
10076SOL    HW231049   4.299   5.399   2.698  0.1705  1.0518  0.4075
10077SOL     OW31050   0.237   6.265   3.386 -0.3655  0.9474 -0.5603
10077SOL    HW131051   0.229   6.340   3.320  1.4913  1.4764 -0.2214
10077SOL    HW231052   0.268   6.183   3.339  1.2362  1.3992 -0.3343
10078SOL     OW31053   2.092   1.861   3.999  0.8816 -0.2179 -0.3156
10078SOL    HW131054   2.098   1.817   4.089 -0.0124 -1.6731 -0.9230
10078SOL    HW231055   2.000   1.899   3.987  0.9853 -0.0632 -0.6174
10079SOL     OW31056   3.311   6.665   0.887  0.7569  0.1311  0.1884
10079SOL    HW131057   3.348   6.695   0.799  0.3072  0.0721 -0.0255
10079SOL    HW231058   3.375   6.601   0.930 -0.1300 -1.8454 -1.2702
10080SOL     OW31059   3.422   1.088   2.974 -0.2571  0.1543  0.0666
10080SOL    HW131060   3.497   1.072   3.039 -2.2520 -1.8954  2.0688
10080SOL    HW231061   3.372   1.170   3.002  1.8878  2.3859 -2.1046
10081SOL     OW31062   1.542   0.368   1.574  0.0378 -0.4125 -0.3895
10081SOL    HW131063   1.576   0.292   1.630  1.0688 -1.5870 -2.4871
10081SOL    HW231064   1.444   0.357   1.559  0.1564 -1.2985 -0.5914
10082SOL     OW31065   3.645   6.999   2.106  0.4467 -0.3605 -0.5265
10082SOL    HW131066   3.685   6.932   2.042  0.4357 -2.3189  1.4067
10082SOL    HW231067   3.546   6.998   2.097  0.1902 -2.8120  1.3814
10083SOL     OW31068   5.509   0.266   3.096  0.1136 -0.5050 -0.3949
10083SOL    HW131069   5.425   0.255   3.043 -0.0962  1.0165 -0.4377
10083SOL    HW231070   5.488   0.261   3.193 -0.1373  0.3420 -0.3912
10084SOL     OW31071   4.512   6.539   1.160  0.0844 -0.5208 -0.4921
10084SOL    HW131072   4.465   6.519   1.246  2.5329 -0.7403  0.8949
10084SOL    HW231073   4.481   6.475   1.089 -2.0259 -0.2972  0.1756
10085SOL     OW31074   0.253   4.665   3.510  0.6763 -0.2344  0.5580
10085SOL    HW131075   0.317   4.741   3.503  1.4250 -0.9468 -0.7638
10085SOL    HW231076   0.173   4.693   3.563 -1.8697  3.4517 -4.4309
10086SOL     OW31077   4.651   4.155   2.950 -0.1183  0.4654  0.0972
10086SOL    HW131078   4.558   4.180   2.976  0.1577  0.8208  0.7370
10086SOL    HW231079   4.688   4.224   2.888 -0.0425  0.6523  0.3540
10087SOL     OW31080   6.770   6.950   3.988 -0.5589  0.4406  0.2654
10087SOL    HW131081   6.748   7.017   4.058 -1.5849 -2.1408  2.6217
10087SOL    HW231082   6.863   6.966   3.955 -0.2782  2.1621  1.7178
10088SOL     OW31083   5.809   5.180   5.441  0.1394 -0.8971 -0.1604
10088SOL    HW131084   5.717   5.157   5.471 -0.6878  0.8559 -1.1314
10088SOL    HW231085   5.872   5.179   5.519 -0.4870 -2.9366  0.3661
10089SOL     OW31086   6.540   3.757   1.747  0.6043 -0.0788  0.1164
10089SOL    HW131087   6.456   3.722   1.705  1.6363  0.1920 -2.3499
10089SOL    HW231088   6.538   3.857   1.749 -0.2342 -0.0754  2.6095
10090SOL     OW31089   6.233   0.865   0.107 -0.0863  0.0692 -0.0260
10090SOL    HW131090   6.169   0.846   0.032  0.2394 -1.4497  0.0368
10090SOL    HW231091   6.272   0.779   0.139  1.5094  0.9122  0.3707
10091SOL     OW31092   5.330   5.211   4.509  0.5664 -0.3889  0.3098
10091SOL    HW131093   5.303   5.287   4.568 -0.0848  0.6310 -1.2441
10091SOL    HW231094   5.364   5.135   4.565 -0.0340  0.5297  1.9674
10092SOL     OW31095   3.378   5.370   5.398 -0.4038  0.0227 -0.6414
10092SOL    HW131096   3.408   5.413   5.484  1.0323 -1.2948 -0.4445
10092SOL    HW231097   3.421   5.416   5.321 -0.8822  0.5510 -0.5979
10093SOL     OW31098   0.659   0.797   5.558 -0.0794  0.1311 -0.1360
10093SOL    HW131099   0.593   0.758   5.495  0.3461  0.2119 -0.6407
10093SOL    HW231100   0.612   0.856   5.624 -0.2278  3.1396 -2.6697
10094SOL     OW31101   2.571   0.580   4.346  0.1638  0.2778  0.1374
10094SOL    HW131102   2.668   0.572   4.369  0.2498 -0.7103 -0.5204
10094SOL    HW231103   2.526   0.491   4.356 -0.9464  0.9507  1.5539
10095SOL     OW31104   6.777   1.495   4.099  0.6126  0.2707 -0.0632
10095SOL    HW131105   6.703   1.428   4.103  0.7736  0.1844  2.1859
10095SOL    HW231106   6.754   1.564   4.030 -1.0213 -0.3691 -0.2073
10096SOL     OW31107   5.741   4.712   4.899  0.1585  0.1001 -0.3247
10096SOL    HW131108   5.708   4.769   4.823 -0.7685  1.6412  1.1492
10096SOL    HW231109   5.663   4.687   4.958  0.4619 -3.0999 -1.0911
10097SOL     OW31110   1.926   0.176   1.420  0.2761  0.3886  0.2552
10097SOL    HW131111   1.927   0.104   1.490  1.9079  0.5060  0.3819
10097SOL    HW231112   1.944   0.264   1.464 -0.3989  0.7078 -0.0937
10098SOL     OW31113   0.755   2.649   5.803 -0.9199  0.0031  0.1115
10098SOL    HW131114   0.703   2.731   5.778  2.3457  1.3117 -3.2435
10098SOL    HW231115   0.732   2.575   5.740  0.7759  0.4687 -1.1350
10099SOL     OW31116   5.240   5.035   3.731 -0.2262  0.1384 -0.1911
10099SOL    HW131117   5.337   5.057   3.743  0.1847 -1.6425 -0.0119
10099SOL    HW231118   5.201   5.006   3.818 -0.6454 -0.1848 -0.4821
10100SOL     OW31119   2.875   1.004   3.805 -0.3089  0.2430  0.3364
10100SOL    HW131120   2.927   0.921   3.825 -1.2979 -1.0186 -1.9060
10100SOL    HW231121   2.786   1.001   3.850 -0.6112 -0.2556 -0.2855
10101SOL     OW31122   3.136   6.333   0.520  0.3913 -0.1567 -0.2334
10101SOL    HW131123   3.059   6.352   0.581 -1.0224  2.7186 -2.6766
10101SOL    HW231124   3.217   6.381   0.554 -0.4244  1.5652 -0.6143
10102SOL     OW31125   4.439   0.032   0.904 -0.1074 -0.1592 -0.6938
10102SOL    HW131126   4.439  -0.064   0.934  0.8122  0.0302 -0.0331
10102SOL    HW231127   4.401   0.089   0.977 -2.4676 -0.1920 -1.8124
10103SOL     OW31128   6.255   3.804   1.768 -0.1026 -0.3299  0.4770
10103SOL    HW131129   6.256   3.746   1.687  0.3766  0.4531 -0.0886
10103SOL    HW231130   6.238   3.748   1.849  1.1010 -1.3707  0.0384
10104SOL     OW31131   3.440   2.803   6.127  0.0387 -0.0501 -0.3983
10104SOL    HW131132   3.497   2.721   6.120 -0.1268 -0.3355  1.2331
10104SOL    HW231133   3.461   2.865   6.051  1.3428 -0.8700 -0.7405
10105SOL     OW31134   5.400   5.949   5.166 -0.1419 -0.1466  0.3193
10105SOL    HW131135   5.357   5.864   5.197  0.9260 -1.0506 -0.5965
10105SOL    HW231136   5.350   6.027   5.204 -2.1444 -1.1407 -0.1115
10106SOL     OW31137   0.208   0.603   3.557 -0.0616 -0.3028 -0.0107
10106SOL    HW131138   0.145   0.682   3.558 -1.3510 -1.2021 -2.3395
10106SOL    HW231139   0.207   0.561   3.466  3.1123 -1.0771  0.2147
10107SOL     OW31140   6.723   5.490   4.880 -0.3036  0.8960 -0.0079
10107SOL    HW131141   6.655   5.424   4.912 -0.5078 -0.0724 -2.2279
10107SOL    HW231142   6.811   5.444   4.865 -0.5522  0.9756 -1.9686
10108SOL     OW31143   6.731   2.769   4.605 -0.3563 -0.0581  0.5030
10108SOL    HW131144   6.727   2.711   4.524  0.5467  0.5409  0.0053
10108SOL    HW231145   6.639   2.795   4.633 -0.6462  0.9933 -1.2845
10109SOL     OW31146   4.203   4.593   6.178 -0.1339  0.3387  0.2073
10109SOL    HW131147   4.109   4.616   6.152  0.5711  1.9597 -1.0577
10109SOL    HW231148   4.251   4.554   6.099  0.1896 -0.7254  0.9170
10110SOL     OW31149   0.138   1.515   3.954  0.6431 -0.0298 -0.1325
10110SOL    HW131150   0.209   1.581   3.977 -1.1123  1.2022  2.0585
10110SOL    HW231151   0.085   1.491   4.036 -0.0910 -2.6354 -1.2394
10111SOL     OW31152   0.949   6.413   6.109 -0.0059  0.5326  0.3599
10111SOL    HW131153   0.968   6.343   6.040  0.1533  1.4751 -0.5728
10111SOL    HW231154   1.032   6.430   6.162  0.5079  1.3359 -0.6558
10112SOL     OW31155   2.979   1.915   0.208  0.3335 -0.0620 -0.2299
10112SOL    HW131156   2.988   1.974   0.128  0.7438  0.1695 -0.0138
10112SOL    HW231157   2.895   1.861   0.200  0.8315 -0.7122 -1.2533
10113SOL     OW31158   0.636   6.891   2.628  0.5454 -0.6034  0.3133
10113SOL    HW131159   0.621   6.909   2.725 -0.6753  1.3527 -0.1814
10113SOL    HW231160   0.560   6.838   2.592  0.3230 -0.1734  0.1467
10114SOL     OW31161   2.215   0.922   4.957  0.2314  1.1418 -0.0926
10114SOL    HW131162   2.252   0.970   4.878  2.6187 -0.3721  0.0200
10114SOL    HW231163   2.207   0.985   5.034  1.4776  1.8047 -0.4863
10115SOL     OW31164   3.509   0.490   4.616 -0.5424 -0.6883 -0.4567
10115SOL    HW131165   3.517   0.564   4.683  1.4737 -0.2928 -1.0542
10115SOL    HW231166   3.479   0.406   4.662 -0.2135 -0.1673  0.7487
10116SOL     OW31167   2.893   0.730   2.147 -0.0876  0.0153  0.3060
10116SOL    HW131168   2.922   0.694   2.236 -0.6221  2.0207  1.3634
10116SOL    HW231169   2.795   0.749   2.150 -0.4722 -1.4343 -1.3205
10117SOL     OW31170   0.585   0.990   2.884 -0.3709 -1.0688 -0.3319
10117SOL    HW131171   0.529   0.984   2.966  0.4179 -0.6743  0.2461
10117SOL    HW231172   0.675   0.950   2.901 -0.2829 -1.2144 -1.0835
10118SOL     OW31173   3.520   5.277   4.693  0.0025  0.0212  0.5807
10118SOL    HW131174   3.531   5.292   4.595 -1.0957 -0.0511  0.4365
10118SOL    HW231175   3.589   5.329   4.743  1.4339 -0.9892 -0.2795
10119SOL     OW31176   4.619   1.896   6.695  0.2795 -0.1204  0.2636
10119SOL    HW131177   4.647   1.958   6.768  1.9245  0.0572 -0.4735
10119SOL    HW231178   4.569   1.819   6.733  1.1553 -0.0594  1.5939
10120SOL     OW31179   0.343   5.283   0.128  0.3848  0.0830  0.3607
10120SOL    HW131180   0.376   5.190   0.110 -0.7945 -0.1041 -1.0483
10120SOL    HW231181   0.244   5.286   0.113  0.3497  1.5067  0.7350
10121SOL     OW31182   2.701   2.338   1.513  0.4434  0.1926  0.3944
10121SOL    HW131183   2.675   2.275   1.586 -0.0051 -0.0550  0.0308
10121SOL    HW231184   2.765   2.406   1.548  0.1256  0.1583  1.0486
10122SOL     OW31185   3.324   0.487   4.889 -0.1715  0.6051 -0.0064
10122SOL    HW131186   3.247   0.467   4.950 -0.7666 -1.2381 -1.2614
10122SOL    HW231187   3.293   0.546   4.815 -0.2361  0.3491 -0.1852
10123SOL     OW31188   6.370   4.322   2.170 -0.1364 -0.1713  0.2975
10123SOL    HW131189   6.437   4.385   2.132 -1.2566 -0.1284 -1.7001
10123SOL    HW231190   6.363   4.337   2.269  0.0877  2.3979 -0.0132
10124SOL     OW31191   4.465   5.041   2.095 -0.0450 -0.3982 -1.0387
10124SOL    HW131192   4.445   4.959   2.040  2.5575 -2.3348  0.6989
10124SOL    HW231193   4.546   5.087   2.059 -0.9659  0.9860 -1.4488
10125SOL     OW31194   4.918   0.979   6.471  0.0913  0.0081 -0.1906
10125SOL    HW131195   4.917   1.068   6.426 -2.3996  0.4738  0.6412
10125SOL    HW231196   4.945   0.909   6.404 -1.7354  0.8965 -1.9641
10126SOL     OW31197   1.672   3.625   1.463  0.3538  0.4517 -0.3361
10126SOL    HW131198   1.636   3.699   1.406  0.8550  0.1993 -0.9907
10126SOL    HW231199   1.725   3.563   1.406 -1.1409 -1.1500 -0.0577
10127SOL     OW31200   3.301   5.189   2.448 -0.0594 -0.1283 -0.2918
10127SOL    HW131201   3.352   5.105   2.464 -0.5589 -0.6034 -1.0991
10127SOL    HW231202   3.203   5.170   2.458 -0.2767 -0.0176 -1.9405
10128SOL     OW31203   0.123   6.517   3.815  0.1986 -0.3553  0.1570
10128SOL    HW131204   0.164   6.579   3.882  0.8165  1.8990 -2.1099
10128SOL    HW231205   0.087   6.436   3.861  0.4641  1.0991  3.1602
10129SOL     OW31206   5.550   1.842   0.778 -0.6003 -0.0766  0.2725
10129SOL    HW131207   5.509   1.869   0.690 -0.9990 -0.6660  0.2731
10129SOL    HW231208   5.649   1.855   0.774 -0.6245 -0.0262 -0.2358
10130SOL     OW31209   4.602   6.136   6.988 -0.4422  0.4633  0.0209
10130SOL    HW131210   4.596   6.224   6.941  1.6698  0.6547  0.0300
10130SOL    HW231211   4.586   6.150   7.086 -0.0077  0.8657  0.0398
10131SOL     OW31212   6.265   2.107   2.310  0.9034  0.1352  0.4072
10131SOL    HW131213   6.352   2.155   2.301  1.4618 -0.7795  0.7774
10131SOL    HW231214   6.280   2.008   2.298  0.1904 -0.1993  1.9887
10132SOL     OW31215   2.197   4.055   6.766  0.0533 -0.5014 -0.4660
10132SOL    HW131216   2.216   4.137   6.821 -0.2483 -0.3313 -0.6133
10132SOL    HW231217   2.136   3.994   6.816 -2.0584  0.6803 -1.4789
10133SOL     OW31218   3.929   1.780   5.866  0.2801  0.0043 -0.0651
10133SOL    HW131219   4.026   1.758   5.870  0.6517  1.0746 -1.8946
10133SOL    HW231220   3.891   1.748   5.779 -1.2327 -1.0796  0.9244
10134SOL     OW31221   3.939   1.088   6.447  0.2203  0.3543  0.2761
10134SOL    HW131222   3.918   1.073   6.543  0.5452 -0.7167  0.1872
10134SOL    HW231223   3.899   1.175   6.417  2.1197  1.8893  1.9861
10135SOL     OW31224   3.576   1.973   2.631 -0.1406  0.6076  0.5834
10135SOL    HW131225   3.588   1.946   2.726  3.0380 -1.9823 -0.3457
10135SOL    HW231226   3.641   2.046   2.609 -0.7908  1.1257  0.3876
10136SOL     OW31227   4.978   1.206   4.072  0.2480 -0.6345 -0.0955
10136SOL    HW131228   4.892   1.163   4.048 -0.0355  0.2641 -0.7571
10136SOL    HW231229   4.984   1.217   4.171 -0.4820 -0.5377 -0.0582
10137SOL     OW31230   6.544   3.132   1.558 -0.3442 -0.7454  0.1891
10137SOL    HW131231   6.520   3.162   1.650  0.5830 -0.0974  0.2364
10137SOL    HW231232   6.643   3.142   1.545 -0.4243 -1.1153 -0.7766
10138SOL     OW31233   1.096   6.759   6.931 -0.5072 -0.1229 -0.2022
10138SOL    HW131234   1.133   6.710   7.010  3.0305  2.4627 -0.0212
10138SOL    HW231235   1.019   6.815   6.960  0.0945  0.0187  1.2274
10139SOL     OW31236   4.442   4.829   1.902  0.2009  0.0288 -0.2241
10139SOL    HW131237   4.353   4.785   1.915  0.5700 -0.4669  0.7249
10139SOL    HW231238   4.514   4.770   1.939  0.7807  1.1094  0.4180
10140SOL     OW31239   1.713   3.306   6.059 -0.1046 -0.1136  0.0892
10140SOL    HW131240   1.796   3.357   6.034  0.2308 -1.3917 -1.4857
10140SOL    HW231241   1.633   3.353   6.023  0.0984 -0.0316 -0.2533
10141SOL     OW31242   6.023   2.434   3.701  0.6319  0.2582 -0.0370
10141SOL    HW131243   6.046   2.519   3.747 -0.6435  1.0420 -0.7691
10141SOL    HW231244   5.962   2.379   3.758 -0.1227  0.7561 -0.3507
10142SOL     OW31245   4.872   4.859   2.190 -0.1510 -0.2261 -0.2845
10142SOL    HW131246   4.934   4.801   2.245 -0.1864 -0.8789 -0.9158
10142SOL    HW231247   4.856   4.815   2.102 -1.4862 -0.0357 -0.1493
10143SOL     OW31248   4.072   0.882   5.766 -0.1985  0.0606 -0.7423
10143SOL    HW131249   4.141   0.906   5.698  0.3752 -0.7969 -0.4795
10143SOL    HW231250   4.030   0.794   5.742 -0.6651  0.2095 -0.4946
10144SOL     OW31251   0.012   4.242   6.313 -0.2082 -0.1510  0.6451
10144SOL    HW131252  -0.079   4.254   6.274  0.2519 -0.5735 -0.5890
10144SOL    HW231253   0.071   4.194   6.248  0.4763 -1.2498  2.0000
10145SOL     OW31254   2.195   4.214   2.618 -0.5597  0.2287  0.1388
10145SOL    HW131255   2.190   4.160   2.535 -1.1746  1.2255 -0.4963
10145SOL    HW231256   2.108   4.207   2.668 -0.1098 -0.5653  0.8486
10146SOL     OW31257   6.157   2.599   1.449  0.3902 -0.1683 -0.6352
10146SOL    HW131258   6.257   2.602   1.451  0.4326 -1.4339  0.1125
10146SOL    HW231259   6.127   2.525   1.390 -0.1350  0.5744 -1.3197
10147SOL     OW31260   4.024   0.037   0.689  0.8697 -0.2629 -0.0870
10147SOL    HW131261   4.072  -0.032   0.744 -0.3762 -1.2142 -0.1149
10147SOL    HW231262   4.035   0.016   0.592  1.6726  0.4312 -0.1539
10148SOL     OW31263   6.105   6.413   5.507  0.3809  0.4793 -0.0664
10148SOL    HW131264   6.168   6.406   5.584  0.5004  1.0148 -0.1092
10148SOL    HW231265   6.150   6.380   5.423  0.6634  1.0186 -0.1284
10149SOL     OW31266   0.587   1.249   4.810  0.0917 -0.2492  0.2382
10149SOL    HW131267   0.610   1.325   4.871 -1.2364  1.5537 -1.4128
10149SOL    HW231268   0.527   1.281   4.737  0.2192 -2.7120 -1.0562
10150SOL     OW31269   1.770   5.359   6.911  0.0650 -0.5197 -0.2573
10150SOL    HW131270   1.764   5.374   6.812 -0.4968 -0.2754 -0.1912
10150SOL    HW231271   1.794   5.444   6.956 -2.5939  0.1471  0.0695
10151SOL     OW31272   1.837   2.398   6.024  0.5851  0.3000  0.2343
10151SOL    HW131273   1.866   2.494   6.026 -2.1860  1.3266 -2.0708
10151SOL    HW231274   1.894   2.348   5.959  1.5989  0.5092  0.9337
10152SOL     OW31275   1.444   5.641   3.407 -0.9246 -0.4982  0.4377
10152SOL    HW131276   1.397   5.722   3.372 -3.1869 -2.4193 -1.3376
10152SOL    HW231277   1.510   5.609   3.340  0.8626  0.4746  1.6530
10153SOL     OW31278   5.776   0.535   4.075  0.5279 -0.0930 -0.0618
10153SOL    HW131279   5.735   0.446   4.092  0.2937  0.4508  2.6578
10153SOL    HW231280   5.705   0.600   4.049  0.6455 -0.5631 -1.6585
10154SOL     OW31281   1.914   4.330   5.720  0.1253  0.0767 -0.6786
10154SOL    HW131282   2.002   4.326   5.768 -0.2646 -2.0627 -0.0469
10154SOL    HW231283   1.840   4.333   5.787 -0.4019  5.3874 -1.0752
10155SOL     OW31284   0.398   4.876   1.272 -0.5247  0.6446  0.1557
10155SOL    HW131285   0.299   4.859   1.282 -0.6554  1.3393  0.1278
10155SOL    HW231286   0.414   4.927   1.188  0.0202 -0.6619 -0.5558
10156SOL     OW31287   4.426   5.204   0.109 -0.5181  0.4757  0.3664
10156SOL    HW131288   4.487   5.276   0.077 -1.5181  1.1044 -0.2059
10156SOL    HW231289   4.441   5.121   0.055 -1.9744  1.4331 -1.6621
10157SOL     OW31290   1.335   5.427   4.416  0.3197 -0.7087  0.5858
10157SOL    HW131291   1.333   5.396   4.321 -3.2234  0.6221  0.0998
10157SOL    HW231292   1.285   5.362   4.473  1.3212 -0.8246  1.3617
10158SOL     OW31293   0.981   0.575   3.137 -0.2204 -0.1190  0.4999
10158SOL    HW131294   0.960   0.579   3.235 -0.2736 -0.0194  0.4848
10158SOL    HW231295   0.897   0.582   3.085 -0.2127 -0.3985  0.4499
10159SOL     OW31296   3.127   2.808   5.723 -0.4893 -0.3165  0.1127
10159SOL    HW131297   3.068   2.814   5.803  0.5262  1.5289  0.7667
10159SOL    HW231298   3.212   2.760   5.748 -0.9425 -1.4262 -0.3856
10160SOL     OW31299   2.397   5.820   4.566  0.2725 -0.4763  0.2555
10160SOL    HW131300   2.318   5.799   4.509 -0.0514  0.4478  0.3484
10160SOL    HW231301   2.424   5.738   4.617  0.5798 -1.3207 -1.2088
10161SOL     OW31302   1.822   6.531   3.087 -0.1766 -0.2244 -0.0751
10161SOL    HW131303   1.741   6.493   3.041  1.9057 -1.1632 -3.3699
10161SOL    HW231304   1.901   6.474   3.066  1.8136  2.0187  0.9110
10162SOL     OW31305   5.248   1.508   0.717  0.0189  0.0404 -0.3926
10162SOL    HW131306   5.181   1.581   0.713  0.6286  0.6980  0.8755
10162SOL    HW231307   5.307   1.520   0.797 -0.2773 -2.1919  0.2400
10163SOL     OW31308   3.639   1.913   1.249  0.3335 -0.1446 -0.2215
10163SOL    HW131309   3.735   1.910   1.276  0.3491 -2.7248 -0.3398
10163SOL    HW231310   3.619   1.836   1.189 -1.5857  0.9468 -1.0742
10164SOL     OW31311   6.844   6.753   2.285 -0.4486 -0.2269 -0.8132
10164SOL    HW131312   6.891   6.666   2.270 -1.4976 -0.6163 -2.0450
10164SOL    HW231313   6.902   6.813   2.340  0.3578 -1.6361 -0.0801
10165SOL     OW31314   6.534   1.422   4.277  0.0439 -0.3206 -0.5127
10165SOL    HW131315   6.594   1.419   4.357 -0.1663  2.0802 -0.1779
10165SOL    HW231316   6.448   1.377   4.299  0.1556 -0.0877  0.4784
10166SOL     OW31317   3.716   2.132   6.835  0.6007  0.1493 -0.3403
10166SOL    HW131318   3.783   2.064   6.865  0.2623 -0.5786 -1.2089
10166SOL    HW231319   3.729   2.151   6.738 -0.5018 -0.0476 -0.5345
10167SOL     OW31320   4.733   6.971   1.673 -0.1340  0.0188  0.0629
10167SOL    HW131321   4.705   6.922   1.590 -0.6318 -0.8827  0.7572
10167SOL    HW231322   4.812   7.028   1.652 -1.0732  0.8748 -1.3880
10168SOL     OW31323   2.362   5.351   6.442  0.2275  0.2062  0.4823
10168SOL    HW131324   2.282   5.401   6.407 -0.2896  0.2335  1.6607
10168SOL    HW231325   2.350   5.332   6.539  0.6927 -1.6935  0.2167
10169SOL     OW31326   5.988   0.094   3.734  0.5333 -0.4757 -0.1555
10169SOL    HW131327   6.087   0.079   3.737  0.4272 -1.0079  1.0323
10169SOL    HW231328   5.941   0.007   3.745 -0.0962 -0.4219 -1.9665
10170SOL     OW31329   2.632   5.112   3.172  0.3721  0.2807 -1.1445
10170SOL    HW131330   2.680   5.037   3.128  0.1494 -0.7559  0.3140
10170SOL    HW231331   2.696   5.187   3.191  1.1854 -0.6151 -0.2710
10171SOL     OW31332   5.449   4.243   3.044  0.8475 -0.5051 -0.2141
10171SOL    HW131333   5.366   4.269   3.093  1.0977  0.1986 -0.1514
10171SOL    HW231334   5.461   4.143   3.049 -0.7712 -0.8039 -1.4902
10172SOL     OW31335   6.165   3.473   4.069 -0.7129  0.2005  0.1767
10172SOL    HW131336   6.197   3.433   4.156 -2.9210 -1.6991  0.2336
10172SOL    HW231337   6.214   3.430   3.993 -0.1690  0.4097  0.4064
10173SOL     OW31338   5.193   0.315   4.522  0.3089 -0.4823  0.0556
10173SOL    HW131339   5.200   0.215   4.528 -1.1878 -0.6741 -0.8231
10173SOL    HW231340   5.151   0.350   4.606 -0.8866 -0.8164 -0.3816
10174SOL     OW31341   6.530   0.326   4.267 -0.6047  0.3526  0.0107
10174SOL    HW131342   6.484   0.411   4.240 -0.4252  0.2483 -0.6456
10174SOL    HW231343   6.463   0.264   4.308 -1.1382  0.0775 -1.2279
10175SOL     OW31344   5.911   4.946   2.221 -0.1477  0.6739 -0.0465
10175SOL    HW131345   5.832   4.960   2.162 -0.4013  1.2782  0.4365
10175SOL    HW231346   5.971   5.025   2.216 -0.4281  0.9549  0.9049
10176SOL     OW31347   0.525   3.372   4.517  0.0693  0.1507 -0.2613
10176SOL    HW131348   0.510   3.274   4.530 -3.3642  0.8096  2.1787
10176SOL    HW231349   0.535   3.391   4.419  4.2957 -2.8500 -0.6871
10177SOL     OW31350   0.840   2.785   3.750  0.3990 -0.8915 -0.8341
10177SOL    HW131351   0.929   2.831   3.759  0.1051 -0.4638 -0.0267
10177SOL    HW231352   0.855   2.686   3.749  0.8183 -0.8695  0.4938
10178SOL     OW31353   4.117   4.796   0.303 -0.3240  0.4716 -0.0798
10178SOL    HW131354   4.066   4.721   0.346  0.8395 -1.1043 -1.2956
10178SOL    HW231355   4.181   4.835   0.369  0.7392 -1.2358 -0.0434
10179SOL     OW31356   0.787   3.756   6.295 -0.3820  0.2654  0.0810
10179SOL    HW131357   0.704   3.737   6.243 -0.4703  0.9432 -0.0443
10179SOL    HW231358   0.856   3.686   6.275 -0.3338  0.6399 -1.1474
10180SOL     OW31359   0.161   6.095   1.389  0.0976 -0.0519 -0.0983
10180SOL    HW131360   0.232   6.095   1.460 -2.3124 -0.2444  2.5142
10180SOL    HW231361   0.178   6.169   1.324  2.5723 -0.0391  0.4617
10181SOL     OW31362   5.545   0.317   2.217  0.4933  0.1597  0.3179
10181SOL    HW131363   5.617   0.304   2.285  0.8911  0.3053 -0.0787
10181SOL    HW231364   5.573   0.386   2.150  0.1658 -0.0947 -0.0860
10182SOL     OW31365   1.159   2.796   2.336 -0.3411 -0.0031  0.5671
10182SOL    HW131366   1.102   2.878   2.331  0.4318  0.5230  0.0117
10182SOL    HW231367   1.226   2.806   2.409  0.8794  0.6415 -0.5848
10183SOL     OW31368   6.244   1.257   3.172 -0.0784 -0.6015  0.1270
10183SOL    HW131369   6.218   1.346   3.211  2.5108 -0.1010  0.9554
10183SOL    HW231370   6.198   1.184   3.222 -2.9378  0.2252 -1.1297
10184SOL     OW31371   0.773   0.599   6.441  0.1368 -0.3091  0.2691
10184SOL    HW131372   0.675   0.581   6.447  0.1543 -1.1270 -1.3339
10184SOL    HW231373   0.799   0.667   6.509 -1.6638  0.4583  0.2402
10185SOL     OW31374   5.096   2.928   0.521  0.1918 -0.2650 -0.2440
10185SOL    HW131375   5.190   2.949   0.551 -0.0322  1.2387 -0.5240
10185SOL    HW231376   5.092   2.930   0.421 -0.2629  0.2654 -0.2171
10186SOL     OW31377   2.462   5.772   0.071 -0.0376 -0.0615 -0.4286
10186SOL    HW131378   2.538   5.804   0.014 -0.2122  1.2560  0.0488
10186SOL    HW231379   2.462   5.822   0.158 -1.5610  0.1093 -0.5024
10187SOL     OW31380   1.898   0.696   6.510  0.6219 -0.0072 -0.5284
10187SOL    HW131381   1.847   0.707   6.595  1.7976 -1.0616  0.3520
10187SOL    HW231382   1.872   0.611   6.465 -0.7063  0.9990 -1.7852
10188SOL     OW31383   3.860   0.982   1.270  0.2515 -0.0068  0.4010
10188SOL    HW131384   3.844   0.947   1.362  2.5920 -0.3752  0.7104
10188SOL    HW231385   3.933   0.930   1.226 -1.5600 -0.6300 -2.1654
10189SOL     OW31386   2.242   0.955   6.222 -0.6428 -0.7835 -0.0269
10189SOL    HW131387   2.144   0.971   6.217 -0.7851 -1.7152 -0.4531
10189SOL    HW231388   2.289   1.015   6.156 -1.0976 -1.6147 -1.1414
10190SOL     OW31389   3.997   6.764   1.432 -0.1842  0.0244 -0.0550
10190SOL    HW131390   3.977   6.862   1.433 -0.0395  0.1014 -1.6023
10190SOL    HW231391   3.912   6.712   1.440 -0.3814  0.2917 -0.3971
10191SOL     OW31392   6.543   6.243   3.492  0.3846 -0.2517  0.1114
10191SOL    HW131393   6.570   6.155   3.455  2.6956  0.2502  0.4685
10191SOL    HW231394   6.452   6.268   3.457  0.6209 -1.7581 -1.7026
10192SOL     OW31395   0.524   5.982   6.320  0.4188 -0.2141 -0.0149
10192SOL    HW131396   0.572   6.070   6.322 -0.2669  0.2162 -1.1760
10192SOL    HW231397   0.580   5.913   6.275  2.1482 -1.1911  3.3108
10193SOL     OW31398   6.693   4.797   3.307 -0.2912  0.4842  0.0686
10193SOL    HW131399   6.680   4.877   3.366 -1.2466  0.1353  0.3407
10193SOL    HW231400   6.640   4.808   3.224  1.0414  0.9668 -0.7574
10194SOL     OW31401   2.111   4.091   1.208  0.0711  0.5192  0.3037
10194SOL    HW131402   2.116   4.005   1.259  0.9214  0.5790  0.3293
10194SOL    HW231403   2.057   4.157   1.260 -2.4200 -0.6133 -0.6442
10195SOL     OW31404   5.847   5.494   0.514 -0.4292 -0.9980  0.1495
10195SOL    HW131405   5.767   5.443   0.548  0.9820 -1.7207  2.6761
10195SOL    HW231406   5.899   5.530   0.592  1.2849  0.1558 -1.4432
10196SOL     OW31407   6.183   2.542   3.494 -0.4737  0.3509 -0.0907
10196SOL    HW131408   6.234   2.458   3.474  1.4020  1.1066  1.2636
10196SOL    HW231409   6.127   2.528   3.576 -1.2014  0.0398 -0.6273
10197SOL     OW31410   4.574   4.311   4.947 -0.0135 -0.2598 -0.2049
10197SOL    HW131411   4.556   4.259   4.863  0.4317 -0.7519 -0.0021
10197SOL    HW231412   4.664   4.286   4.983  1.1121  2.1046 -1.1669
10198SOL     OW31413   1.630   0.157   2.504 -0.3623  0.5614 -0.6333
10198SOL    HW131414   1.647   0.129   2.598  0.0543  0.6080 -0.6901
10198SOL    HW231415   1.532   0.166   2.488 -0.4060  1.2788  0.0071
10199SOL     OW31416   1.748   3.346   4.890 -0.0007 -0.2753 -0.2646
10199SOL    HW131417   1.748   3.363   4.791  1.0001  0.5118 -0.1501
10199SOL    HW231418   1.783   3.254   4.908 -1.8608 -1.1182 -0.7075
10200SOL     OW31419   1.417   6.049   2.262  0.0074  0.6537  0.0090
10200SOL    HW131420   1.365   6.126   2.226 -0.1108  0.3728 -0.4283
10200SOL    HW231421   1.356   5.970   2.275  0.2294  0.4697 -0.0519
10201SOL     OW31422   4.916   1.820   5.973 -0.1746 -0.1352 -0.1890
10201SOL    HW131423   4.990   1.876   5.935 -0.9304  0.2721 -1.1031
10201SOL    HW231424   4.865   1.777   5.898 -1.5062  0.4092  0.3678
10202SOL     OW31425   0.049   5.389   2.689  0.2667 -0.1138 -0.0760
10202SOL    HW131426  -0.019   5.346   2.749  1.5264  0.6705  2.0571
10202SOL    HW231427   0.040   5.354   2.596 -0.7763 -2.5835  0.8830
10203SOL     OW31428   3.947   4.007   1.598 -0.3483  0.3039  0.5103
10203SOL    HW131429   3.877   4.065   1.638 -1.4524 -0.8971  0.3756
10203SOL    HW231430   4.035   4.055   1.598 -0.9374  1.4161  1.6778
10204SOL     OW31431   1.004   0.071   3.058  0.1330 -0.2729 -0.1748
10204SOL    HW131432   0.924   0.129   3.038 -0.0459 -0.0698  1.0159
10204SOL    HW231433   1.076   0.128   3.099 -0.4368 -1.0223  2.0046
10205SOL     OW31434   5.043   4.663   3.293  0.1448 -0.2303  0.2811
10205SOL    HW131435   5.027   4.729   3.366 -2.2065 -1.0237  0.5887
10205SOL    HW231436   4.960   4.609   3.279 -0.1273  0.9538 -4.0813
10206SOL     OW31437   1.259   6.203   2.889  0.2415 -0.4831  0.2320
10206SOL    HW131438   1.302   6.175   2.803  0.8654  1.6929 -0.2227
10206SOL    HW231439   1.313   6.276   2.931 -1.3049  0.1083  1.2822
10207SOL     OW31440   4.174   5.394   4.877 -0.7363 -0.3114  0.4827
10207SOL    HW131441   4.260   5.348   4.857 -1.6046 -0.7578 -2.8383
10207SOL    HW231442   4.102   5.356   4.819 -2.1247  3.2669 -0.3596
10208SOL     OW31443   5.658   5.653   5.065 -0.3661 -0.5078  0.3842
10208SOL    HW131444   5.666   5.739   5.015 -1.6964 -1.2246 -1.1439
10208SOL    HW231445   5.726   5.651   5.139  0.0553  1.5957  0.1130
10209SOL     OW31446   0.126   2.033   1.780  0.2949 -0.5668  0.2017
10209SOL    HW131447   0.027   2.048   1.791  0.1973 -1.8238  1.1474
10209SOL    HW231448   0.170   2.120   1.756 -1.1304 -0.1331 -1.0328
10210SOL     OW31449   5.757   4.282   0.156 -0.5469 -0.2811 -0.1904
10210SOL    HW131450   5.739   4.311   0.062 -2.4697 -0.3717  0.1057
10210SOL    HW231451   5.818   4.348   0.200 -0.2718  0.1976 -1.2449
10211SOL     OW31452   5.905   6.260   5.056  0.4742  1.0167  0.6997
10211SOL    HW131453   5.865   6.319   5.126 -1.7794 -2.4945  2.6695
10211SOL    HW231454   5.834   6.235   4.989  0.9538 -0.4833  0.7164
10212SOL     OW31455   6.385   1.941   4.554  0.2046  0.0632 -0.2016
10212SOL    HW131456   6.422   1.878   4.622  0.6072 -0.5765 -0.9785
10212SOL    HW231457   6.390   1.898   4.463 -0.1252  0.9639 -0.6621
10213SOL     OW31458   1.459   0.656   5.267 -0.0434  0.3188 -0.3000
10213SOL    HW131459   1.363   0.670   5.294 -0.8274 -1.0691 -2.1131
10213SOL    HW231460   1.479   0.715   5.188  0.4190  0.1940 -0.2733
10214SOL     OW31461   6.003   5.252   3.080 -0.4728  0.1047 -0.4134
10214SOL    HW131462   5.969   5.234   3.173 -0.3298  2.9911  0.3142
10214SOL    HW231463   6.094   5.212   3.070  0.5571  1.7335  1.6194
10215SOL     OW31464   0.439   6.068   1.068  0.2088  0.2772 -0.0606
10215SOL    HW131465   0.343   6.042   1.075 -0.0394  0.9146 -0.8889
10215SOL    HW231466   0.497   5.986   1.077 -0.5229 -0.5380 -2.0658
10216SOL     OW31467   4.466   1.719   6.319 -0.4483  0.3062 -0.1070
10216SOL    HW131468   4.389   1.715   6.384  0.8450  1.4317  1.5704
10216SOL    HW231469   4.525   1.640   6.333 -1.4051 -0.7446 -1.6335
10217SOL     OW31470   6.221   1.225   3.726 -0.1575  0.0420 -0.1486
10217SOL    HW131471   6.264   1.168   3.657 -0.3073  0.9233 -0.9845
10217SOL    HW231472   6.154   1.285   3.683  0.2218  1.0772  0.6716
10218SOL     OW31473   2.397   3.054   2.748 -0.7161  0.0940  0.4363
10218SOL    HW131474   2.448   3.127   2.701  0.2027 -1.0878 -0.4670
10218SOL    HW231475   2.397   3.071   2.846  1.2967  0.2425  0.4493
10219SOL     OW31476   5.824   5.057   6.131 -0.1689  0.0628 -0.8248
10219SOL    HW131477   5.918   5.053   6.096  0.0594  0.1734 -0.2439
10219SOL    HW231478   5.802   4.971   6.178 -0.9018 -0.5677 -2.2833
10220SOL     OW31479   1.591   2.964   4.106 -0.2552 -0.1718  0.9042
10220SOL    HW131480   1.641   2.990   4.024 -1.2164 -1.1497 -0.0255
10220SOL    HW231481   1.536   2.882   4.088 -0.1158 -0.7021  2.6655
10221SOL     OW31482   5.082   1.613   3.419  0.9664  0.0380 -0.2012
10221SOL    HW131483   5.119   1.705   3.411  0.8220  0.1202  0.0702
10221SOL    HW231484   5.087   1.583   3.514  1.2300 -0.3245 -0.3281
10222SOL     OW31485   6.128   2.175   5.152 -0.6088  0.1846  0.2253
10222SOL    HW131486   6.090   2.251   5.205 -2.2185 -0.4957  0.1193
10222SOL    HW231487   6.075   2.092   5.171 -0.3979 -0.3704 -1.4400
10223SOL     OW31488   4.426   2.913   0.471  0.7359 -0.2752  0.2338
10223SOL    HW131489   4.351   2.961   0.516  0.3240  0.1603 -0.8738
10223SOL    HW231490   4.500   2.977   0.449  0.7586 -0.3958 -0.0605
10224SOL     OW31491   0.548   1.378   5.431 -0.0825 -0.4829 -0.2967
10224SOL    HW131492   0.509   1.291   5.402  2.3799 -2.0024  0.5811
10224SOL    HW231493   0.628   1.361   5.488 -0.5688  2.3765  1.4723
10225SOL     OW31494   0.590   3.678   4.031 -0.1369  0.2127  0.8437
10225SOL    HW131495   0.493   3.691   4.048 -0.4693  0.1525 -0.7826
10225SOL    HW231496   0.641   3.755   4.069 -0.6173 -0.4842  3.0297
10226SOL     OW31497   5.299   6.576   0.897 -0.6619  0.0583  0.0598
10226SOL    HW131498   5.213   6.537   0.866 -0.8132  1.3704 -1.2989
10226SOL    HW231499   5.281   6.647   0.965 -0.6421  0.1358 -0.0149
10227SOL     OW31500   4.881   0.710   1.648  0.0223  0.1763 -0.0360
10227SOL    HW131501   4.900   0.754   1.561 -1.2414 -1.3962 -1.1644
10227SOL    HW231502   4.795   0.746   1.686 -0.2325 -0.2358 -0.2162
10228SOL     OW31503   5.054   5.729   0.042  1.0975 -0.3867 -0.5345
10228SOL    HW131504   5.111   5.764  -0.033  2.1606 -0.6863  0.1170
10228SOL    HW231505   4.983   5.797   0.064  1.9404  0.5357 -0.5661
10229SOL     OW31506   2.382   4.651   1.364 -0.0504  0.2436  0.4188
10229SOL    HW131507   2.425   4.738   1.342  0.0237  0.1002 -0.0045
10229SOL    HW231508   2.348   4.608   1.281  0.5703 -0.4815  0.5304
10230SOL     OW31509   2.783   4.665   5.864 -0.2358  1.0307  0.9233
10230SOL    HW131510   2.751   4.759   5.849  1.3801  1.4526 -0.1370
10230SOL    HW231511   2.811   4.654   5.959 -1.8909  1.1216  1.4622
10231SOL     OW31512   2.698   5.837   4.500 -0.3654  0.0091  0.3008
10231SOL    HW131513   2.622   5.836   4.434 -0.5275 -1.5879  0.4729
10231SOL    HW231514   2.670   5.790   4.583  0.1381  1.2432  1.1946
10232SOL     OW31515   3.076   2.500   3.140 -0.0526 -0.1101 -0.1246
10232SOL    HW131516   3.001   2.503   3.074 -1.1893 -1.0573  1.0775
10232SOL    HW231517   3.124   2.588   3.139 -2.7621  1.5039  0.8119
10233SOL     OW31518   2.390   5.306   5.000  0.2253 -0.2368 -0.2949
10233SOL    HW131519   2.367   5.310   5.097 -2.2406  1.9893 -0.8471
10233SOL    HW231520   2.377   5.396   4.960  0.2588 -1.3198 -2.9061
10234SOL     OW31521   5.449   6.667   4.268 -0.5461 -0.1485 -0.2190
10234SOL    HW131522   5.393   6.597   4.224 -1.4620  0.3084  0.1973
10234SOL    HW231523   5.434   6.665   4.366  0.6137 -0.3907 -0.0349
10235SOL     OW31524   1.929   2.526   0.148 -0.4953  0.2405  0.2640
10235SOL    HW131525   1.877   2.454   0.192 -0.3216 -0.4037 -0.5476
10235SOL    HW231526   2.008   2.551   0.205 -0.7903  0.0903  0.7379
10236SOL     OW31527   1.847   4.192   3.253 -0.3048 -0.3340  0.3997
10236SOL    HW131528   1.839   4.093   3.236  0.8230 -0.0353 -2.3957
10236SOL    HW231529   1.898   4.234   3.178 -0.1621  2.3034  1.8825
10237SOL     OW31530   5.428   2.676   3.990 -0.0478 -0.4610  0.1730
10237SOL    HW131531   5.429   2.605   3.919  0.5521 -0.7551  0.4639
10237SOL    HW231532   5.367   2.649   4.064 -0.3900 -0.3266 -0.0593
10238SOL     OW31533   0.291   0.851   2.847  0.2267  0.5727 -0.2226
10238SOL    HW131534   0.291   0.887   2.753 -0.2155  1.3451  0.0681
10238SOL    HW231535   0.256   0.921   2.909  0.4374  0.0290  0.5105
10239SOL     OW31536   0.058   2.900   0.886 -0.9144 -0.2248 -0.5606
10239SOL    HW131537   0.026   2.870   0.796  0.1150  0.9275 -1.3274
10239SOL    HW231538   0.012   2.985   0.911  0.0401  0.3480 -0.7477
10240SOL     OW31539   4.897   6.001   1.973 -0.3320  0.0583  0.0051
10240SOL    HW131540   4.906   6.077   1.909 -0.5400  1.0264  1.0948
10240SOL    HW231541   4.803   5.997   2.007 -0.0454  0.0382  0.8223
10241SOL     OW31542   1.336   1.875   5.051 -0.2392  0.1653  0.3375
10241SOL    HW131543   1.291   1.817   4.983  0.1903 -0.5867  0.6811
10241SOL    HW231544   1.289   1.963   5.056 -1.5255 -0.5116  0.5153
10242SOL     OW31545   0.292   6.020   3.279  0.0852  0.0871 -0.2664
10242SOL    HW131546   0.338   6.030   3.191 -0.3465  0.1440 -0.4861
10242SOL    HW231547   0.305   5.927   3.313  0.5963  0.1819 -0.1945
10243SOL     OW31548   3.968   2.483   2.289 -0.0812  0.1989 -0.1509
10243SOL    HW131549   3.884   2.485   2.235 -1.2160  1.2925  1.5792
10243SOL    HW231550   3.973   2.397   2.340  0.3605 -0.2863 -0.9922
10244SOL     OW31551   5.878   1.663   4.521 -0.6246 -0.3829 -0.2440
10244SOL    HW131552   5.936   1.699   4.448  0.7045  0.0622  0.9740
10244SOL    HW231553   5.840   1.575   4.493  3.1585 -2.2764 -0.0134
10245SOL     OW31554   2.308   2.766   4.903  0.5300  0.4162 -0.2312
10245SOL    HW131555   2.382   2.703   4.881  0.4164  0.6493 -1.3552
10245SOL    HW231556   2.284   2.757   5.000 -0.1936 -2.0514 -0.5640
10246SOL     OW31557   5.518   5.506   1.762  0.2415 -0.5670  0.8840
10246SOL    HW131558   5.612   5.520   1.732 -0.8972  1.9713 -2.0786
10246SOL    HW231559   5.486   5.416   1.733  0.9209 -0.3233 -0.7040
10247SOL     OW31560   6.460   6.672   2.625  0.5172 -0.1698  0.1903
10247SOL    HW131561   6.437   6.670   2.528 -0.5713  1.9146  0.3348
10247SOL    HW231562   6.556   6.647   2.638  1.2170  1.3561 -1.6418
10248SOL     OW31563   0.358   3.456   0.881  0.6919 -0.1223  0.4070
10248SOL    HW131564   0.346   3.377   0.941 -0.9130  0.3578  0.7587
10248SOL    HW231565   0.309   3.535   0.919 -0.0272  0.3135 -1.3254
10249SOL     OW31566   2.627   2.244   5.173 -0.1986  0.0906 -0.0943
10249SOL    HW131567   2.538   2.226   5.214 -0.7033  1.1842 -0.6609
10249SOL    HW231568   2.695   2.254   5.245 -0.7664  0.4065  0.4132
10250SOL     OW31569   2.256   0.749   4.583 -0.4794 -0.1344  0.5531
10250SOL    HW131570   2.162   0.730   4.612 -0.5663  0.3680  0.6151
10250SOL    HW231571   2.300   0.806   4.652 -0.5252  0.6538 -0.0585
10251SOL     OW31572   6.440   1.175   0.901 -0.4736  0.0854  0.1442
10251SOL    HW131573   6.451   1.243   0.973 -2.4601  0.0031  0.5739
10251SOL    HW231574   6.530   1.138   0.876  0.4686  1.7088  0.9960
10252SOL     OW31575   0.196   4.234   4.359 -0.0223 -0.6837 -0.1052
10252SOL    HW131576   0.138   4.299   4.408  0.7049  1.4104 -1.8452
10252SOL    HW231577   0.140   4.157   4.327 -1.5186  0.4664 -0.3589
10253SOL     OW31578   1.271   1.542   1.677  0.1285  0.2372 -0.1705
10253SOL    HW131579   1.178   1.550   1.640 -1.3419  0.2961  3.1280
10253SOL    HW231580   1.274   1.465   1.741  2.2422  0.5496  0.1591
10254SOL     OW31581   1.600   2.864   6.996  0.3246 -0.1736 -0.1589
10254SOL    HW131582   1.582   2.812   6.913  2.4295 -3.5452  1.2583
10254SOL    HW231583   1.696   2.853   7.022 -0.4240 -0.0267  3.1527
10255SOL     OW31584   4.642   0.348   0.995 -0.5279  0.2328  0.4906
10255SOL    HW131585   4.711   0.286   1.034  1.3683  1.0919 -1.3007
10255SOL    HW231586   4.551   0.312   1.014  0.3447 -0.8629  3.1374
10256SOL     OW31587   3.747   1.584   3.110  0.0704 -0.0552 -0.0291
10256SOL    HW131588   3.736   1.533   3.025  2.4055  0.7528 -0.8777
10256SOL    HW231589   3.808   1.534   3.171 -1.2984 -0.4498  1.0909
10257SOL     OW31590   1.967   0.408   5.033  0.4386  0.2391  0.2202
10257SOL    HW131591   2.023   0.388   4.953  0.7064  0.4178  0.3630
10257SOL    HW231592   1.875   0.372   5.019  0.8007 -0.7362  0.3109
10258SOL     OW31593   0.584   6.399   2.244  0.1690 -0.3606 -0.1788
10258SOL    HW131594   0.592   6.308   2.203  0.7494  0.1348 -1.2195
10258SOL    HW231595   0.651   6.460   2.202 -1.3051  0.9786 -0.6959
10259SOL     OW31596   2.425   2.383   6.536 -0.6061  0.2482  0.2116
10259SOL    HW131597   2.390   2.308   6.591 -0.5435 -0.5454 -0.8013
10259SOL    HW231598   2.500   2.429   6.585  0.1188 -1.0696  0.3819
10260SOL     OW31599   1.068   5.046   4.124 -0.3435 -0.3451  0.2559
10260SOL    HW131600   1.089   5.115   4.054 -1.5364 -0.3783 -0.1684
10260SOL    HW231601   1.127   5.060   4.203  0.7225 -0.0091 -0.5628
10261SOL     OW31602   1.960   6.637   5.571  0.1484 -0.2765  0.2463
10261SOL    HW131603   1.913   6.640   5.482  1.8515  0.0185 -0.6883
10261SOL    HW231604   1.987   6.730   5.596  1.3073 -0.5847  0.1589
10262SOL     OW31605   0.977   4.498   0.085  0.0399 -0.8720  0.0357
10262SOL    HW131606   1.068   4.459   0.097  0.5712  0.3424  0.1164
10262SOL    HW231607   0.919   4.434   0.034  1.1023 -1.4329 -0.4910
10263SOL     OW31608   4.474   6.809   2.515 -0.8254 -0.4042  0.3419
10263SOL    HW131609   4.571   6.804   2.492 -1.0390 -4.1624 -0.3512
10263SOL    HW231610   4.454   6.746   2.590 -2.8804 -0.4705 -0.1989
10264SOL     OW31611   2.010   6.861   5.038 -0.3390 -0.6132 -0.8661
10264SOL    HW131612   1.959   6.804   5.103 -2.0581 -0.0547 -1.6759
10264SOL    HW231613   1.951   6.934   5.004  2.0077  2.3131  0.8198
10265SOL     OW31614   5.194   2.173   0.465 -0.2052 -0.1985 -0.5408
10265SOL    HW131615   5.268   2.105   0.464 -1.9781 -2.3371  1.3767
10265SOL    HW231616   5.209   2.237   0.540  0.6672  0.6226 -1.3863
10266SOL     OW31617   6.868   3.694   3.566 -0.0119 -0.4127  0.0866
10266SOL    HW131618   6.885   3.609   3.516  0.1501 -0.4093  0.1347
10266SOL    HW231619   6.772   3.699   3.593 -0.2558 -0.1083 -0.7992
10267SOL     OW31620   0.139   5.243   2.157  0.5201 -0.7704 -0.2670
10267SOL    HW131621   0.239   5.243   2.153  0.6016 -1.1369  1.1697
10267SOL    HW231622   0.108   5.175   2.225 -0.6631 -0.0688 -0.0718
10268SOL     OW31623   2.490   6.472   4.236 -0.6587 -0.4455  0.0353
10268SOL    HW131624   2.542   6.395   4.201  0.3872  0.0215  0.5196
10268SOL    HW231625   2.395   6.444   4.252 -0.2344 -1.6991  0.4668
10269SOL     OW31626   6.202   1.763   5.845 -0.4634  0.1961 -0.3176
10269SOL    HW131627   6.142   1.826   5.797  0.9731  1.8204 -0.0929
10269SOL    HW231628   6.278   1.814   5.885  0.5059 -1.6389  0.2914
10270SOL     OW31629   0.476   1.330   1.574  0.3157  0.4499  0.4670
10270SOL    HW131630   0.423   1.408   1.540 -0.6213 -0.3728 -0.0266
10270SOL    HW231631   0.515   1.280   1.496 -0.2630 -0.3623  0.6819
10271SOL     OW31632   3.074   2.415   5.424  0.4587  0.3166  0.0638
10271SOL    HW131633   3.053   2.368   5.509 -0.4522  0.4013 -0.1053
10271SOL    HW231634   3.093   2.512   5.443 -0.0985  0.4142  0.1339
10272SOL     OW31635   3.081   0.458   1.097 -0.6044 -0.1383  0.2237
10272SOL    HW131636   3.022   0.520   1.149 -1.5753 -1.6042  0.9453
10272SOL    HW231637   3.059   0.363   1.121 -2.0228 -1.0391 -3.7601
10273SOL     OW31638   4.552   1.352   4.629 -0.2301 -0.1199  0.2711
10273SOL    HW131639   4.490   1.350   4.708 -2.1738 -1.7900 -1.1585
10273SOL    HW231640   4.532   1.432   4.573  1.5121  1.3645  1.6225
10274SOL     OW31641   1.982   5.588   5.866 -0.1751 -0.0439  0.2061
10274SOL    HW131642   1.970   5.489   5.864 -0.1966 -0.0378 -1.0537
10274SOL    HW231643   2.005   5.618   5.958 -2.9667 -0.8671  1.2735
10275SOL     OW31644   1.341   5.932   6.109  0.0540  0.2860  0.0366
10275SOL    HW131645   1.344   5.845   6.059  0.0726 -1.2912  2.6135
10275SOL    HW231646   1.402   5.998   6.066  1.5796 -1.6293 -0.8469
10276SOL     OW31647   0.487   6.257   1.361  0.5975  0.0665 -0.3471
10276SOL    HW131648   0.499   6.352   1.331  1.5754  0.3935  0.9885
10276SOL    HW231649   0.452   6.202   1.285 -2.4326  1.9727 -0.5027
10277SOL     OW31650   2.549   2.257   2.789  0.3333 -0.2796  0.1109
10277SOL    HW131651   2.621   2.248   2.720  0.2002  2.7200 -0.5633
10277SOL    HW231652   2.509   2.349   2.784 -2.5662 -1.3353  1.4460
10278SOL     OW31653   5.621   4.578   6.267  0.4796 -0.1799  0.9304
10278SOL    HW131654   5.605   4.527   6.182 -1.2186  0.2881  0.9321
10278SOL    HW231655   5.545   4.560   6.331  1.0542  0.5317  1.8270
10279SOL     OW31656   1.886   5.182   4.846 -0.4680 -0.5528 -0.0874
10279SOL    HW131657   1.885   5.250   4.773 -0.9903 -1.0067 -0.5031
10279SOL    HW231658   1.913   5.227   4.932 -2.8654  0.6471  0.1114
10280SOL     OW31659   4.162   0.210   5.678  1.1955 -0.0743  0.3409
10280SOL    HW131660   4.209   0.121   5.674  0.1801 -0.6050 -0.3156
10280SOL    HW231661   4.066   0.195   5.705  0.8217  0.7326 -0.4895
10281SOL     OW31662   3.268   5.708   2.352 -0.7378  0.0429  0.3948
10281SOL    HW131663   3.302   5.767   2.280 -0.1863 -0.5396  0.1696
10281SOL    HW231664   3.288   5.613   2.330 -3.8776 -0.5156 -0.5284
10282SOL     OW31665   3.491   5.222   0.174 -0.0170  0.5210 -0.3903
10282SOL    HW131666   3.536   5.138   0.204 -0.6956  0.6697  1.1128
10282SOL    HW231667   3.550   5.269   0.109  1.3564 -0.0206  0.4121
10283SOL     OW31668   6.523   0.524   3.867 -0.0296  0.2444  0.2915
10283SOL    HW131669   6.500   0.442   3.919 -1.1258  0.4634  0.1914
10283SOL    HW231670   6.589   0.502   3.795 -0.3626 -0.5604  0.2250
10284SOL     OW31671   0.964   6.658   2.960 -0.1147  0.1151 -1.0514
10284SOL    HW131672   0.914   6.645   2.874 -1.1520 -2.5245 -0.1576
10284SOL    HW231673   1.018   6.576   2.980 -1.8952 -0.4706  2.0188
10285SOL     OW31674   4.361   3.264   3.306  0.1877 -0.1083  0.0406
10285SOL    HW131675   4.445   3.222   3.273  0.5648  0.6001  0.0698
10285SOL    HW231676   4.294   3.267   3.232  1.0241  1.4671 -0.7120
10286SOL     OW31677   5.277   1.000   4.841  0.9188 -0.6289  0.1275
10286SOL    HW131678   5.359   0.944   4.825  0.9716 -0.7473  0.7828
10286SOL    HW231679   5.241   1.031   4.753  1.0537 -1.4611 -0.2386
10287SOL     OW31680   2.800   2.391   2.715 -0.5250  0.0972 -0.2184
10287SOL    HW131681   2.885   2.370   2.668  0.5927  1.2276  1.2298
10287SOL    HW231682   2.745   2.453   2.659  0.2562  0.5012 -0.5456
10288SOL     OW31683   5.335   0.918   0.892  0.1568 -0.4718 -0.8510
10288SOL    HW131684   5.244   0.931   0.930  0.2354  0.7303 -1.0564
10288SOL    HW231685   5.336   0.947   0.797  1.0689  0.7958 -0.4783
10289SOL     OW31686   3.352   0.557   0.385 -0.5970 -0.0984 -0.2810
10289SOL    HW131687   3.304   0.502   0.317 -1.7057 -2.1527  2.0231
10289SOL    HW231688   3.285   0.611   0.436 -0.0235 -0.1359  0.5156
10290SOL     OW31689   3.183   3.105   5.915 -0.4377  0.2625 -0.7797
10290SOL    HW131690   3.125   3.057   5.849 -1.7790 -0.6832  1.0059
10290SOL    HW231691   3.250   3.040   5.952 -0.2755  0.5564 -0.5602
10291SOL     OW31692   0.418   0.392   2.064  0.0518  0.0472  0.4515
10291SOL    HW131693   0.337   0.452   2.060  0.9014  1.2839  1.1209
10291SOL    HW231694   0.409   0.329   2.141 -0.0627  0.5091  0.8212
10292SOL     OW31695   0.788   5.543   4.706 -0.7274 -0.1232  0.2558
10292SOL    HW131696   0.840   5.628   4.701 -0.9210 -0.0695 -2.0795
10292SOL    HW231697   0.693   5.564   4.730 -0.6699  0.2806  0.1406
10293SOL     OW31698   6.149   4.168   2.103  0.5742 -0.0610  0.7107
10293SOL    HW131699   6.224   4.231   2.125  1.7281 -0.9295 -0.5281
10293SOL    HW231700   6.181   4.103   2.034 -2.2506  1.4601 -2.2646
10294SOL     OW31701   1.052   5.931   3.274 -0.3362 -0.0680 -0.2352
10294SOL    HW131702   1.128   5.983   3.235  1.4524 -0.2109  2.7099
10294SOL    HW231703   0.994   5.992   3.328 -1.2222 -0.3221 -0.8612
10295SOL     OW31704   3.056   4.415   0.023  0.0209 -0.3503  0.3218
10295SOL    HW131705   2.964   4.413  -0.016 -0.3504  1.5093  1.0043
10295SOL    HW231706   3.106   4.334  -0.006 -2.4044 -2.3694  1.3943
10296SOL     OW31707   4.466   2.029   1.463 -0.7973 -0.3596  0.3718
10296SOL    HW131708   4.418   2.108   1.501  0.8156  0.7166  0.3064
10296SOL    HW231709   4.433   1.945   1.506 -2.6159  0.3148  0.3916
10297SOL     OW31710   6.517   2.804   5.481 -0.2844 -0.4386  0.5647
10297SOL    HW131711   6.450   2.870   5.447  2.6502  1.7689 -1.3345
10297SOL    HW231712   6.495   2.780   5.576 -3.4668  0.4293  0.1633
10298SOL     OW31713   5.238   3.947   1.812 -0.6779  0.3410  0.5113
10298SOL    HW131714   5.329   3.952   1.770 -0.8752  0.2287  0.0641
10298SOL    HW231715   5.236   3.869   1.875 -0.3380  0.5903  0.8339
10299SOL     OW31716   6.036   5.127   0.456 -0.0438  0.0839 -0.0656
10299SOL    HW131717   6.052   5.209   0.511 -0.0887  0.3679 -0.4742
10299SOL    HW231718   5.938   5.106   0.457 -0.0909  0.2814 -0.3030
10300SOL     OW31719   4.980   0.100   1.644 -0.1454  0.3232 -0.1718
10300SOL    HW131720   5.028   0.084   1.558 -0.0025  0.0549 -0.0429
10300SOL    HW231721   5.047   0.119   1.716 -0.3065  1.5675 -0.3254
10301SOL     OW31722   6.964   3.113   2.072 -0.4905  0.7730  0.0168
10301SOL    HW131723   6.952   3.145   2.166 -0.4312 -0.8637  0.6231
10301SOL    HW231724   6.887   3.055   2.046  0.8250 -1.1372  0.1237
10302SOL     OW31725   3.782   1.121   2.826  0.0565  0.1793  0.3708
10302SOL    HW131726   3.877   1.090   2.821 -0.5485 -1.9617  0.7922
10302SOL    HW231727   3.760   1.177   2.747  2.3018  2.7657  1.4481
10303SOL     OW31728   4.355   2.162   5.790  0.5061 -0.9075 -0.6580
10303SOL    HW131729   4.379   2.256   5.767 -1.0832 -0.5669 -1.0510
10303SOL    HW231730   4.429   2.101   5.762  1.7064  0.2312 -0.1152
10304SOL     OW31731   2.247   2.129   0.598  0.0736  0.3506  0.0284
10304SOL    HW131732   2.239   2.227   0.619 -0.5059  0.1294  0.8895
10304SOL    HW231733   2.163   2.097   0.554  0.5150  0.3735 -0.8496
10305SOL     OW31734   4.078   5.980   1.383  0.6867 -0.0969  0.4952
10305SOL    HW131735   4.135   5.925   1.444  0.4136 -0.5311  0.3659
10305SOL    HW231736   3.988   5.936   1.373 -0.1887  1.2866  1.8112
10306SOL     OW31737   1.757   5.380   2.109  0.6671  0.2212  0.2082
10306SOL    HW131738   1.680   5.335   2.066 -2.1387  1.9013  3.0413
10306SOL    HW231739   1.786   5.458   2.053 -0.7377  0.4727 -0.1955
10307SOL     OW31740   6.088   4.423   3.686  0.1163  0.0753  0.1891
10307SOL    HW131741   6.110   4.367   3.607  2.4583  0.0622  0.7495
10307SOL    HW231742   6.037   4.369   3.753  0.6360 -0.7946 -0.1049
10308SOL     OW31743   6.410   0.645   0.920 -0.5536 -0.6542  0.2189
10308SOL    HW131744   6.387   0.706   0.996 -0.8301  0.3273 -0.6318
10308SOL    HW231745   6.505   0.615   0.929 -0.1791  0.5000  0.2523
10309SOL     OW31746   0.045   5.540   4.612  0.3599 -0.0915 -0.0482
10309SOL    HW131747  -0.018   5.614   4.637  0.2707 -0.6096  1.4232
10309SOL    HW231748   0.048   5.530   4.513 -1.9171 -0.0460 -0.1893
10310SOL     OW31749   0.790   0.828   4.732 -0.5306  0.1985 -0.6935
10310SOL    HW131750   0.732   0.909   4.738 -0.1182  0.4079  1.0069
10310SOL    HW231751   0.884   0.855   4.714 -0.0424  0.3112  1.6845
10311SOL     OW31752   2.283   2.166   6.336 -0.1957  0.4031  0.7212
10311SOL    HW131753   2.276   2.068   6.352 -0.0498  0.2587 -0.0545
10311SOL    HW231754   2.378   2.189   6.312  0.4007  1.1450  3.4459
10312SOL     OW31755   4.967   3.093   2.212 -0.5266  0.2833  0.2801
10312SOL    HW131756   4.953   3.102   2.114 -0.2487 -2.1537 -0.0461
10312SOL    HW231757   4.883   3.059   2.255 -0.2904  0.2431  0.7210
10313SOL     OW31758   3.640   4.822   3.991 -0.1883 -0.8489 -0.9988
10313SOL    HW131759   3.646   4.878   3.909  0.3942  1.2963  0.4209
10313SOL    HW231760   3.544   4.803   4.012 -0.4050 -0.2901 -1.4677
10314SOL     OW31761   1.870   3.508   5.745  0.5178 -1.0020  0.0940
10314SOL    HW131762   1.906   3.429   5.695  0.2874 -1.2702  0.3557
10314SOL    HW231763   1.907   3.509   5.838  1.1279 -0.3748 -0.1452
10315SOL     OW31764   4.879   0.126   6.541 -0.1245 -0.5212 -0.2010
10315SOL    HW131765   4.904   0.030   6.544  3.0075  0.1816 -0.6927
10315SOL    HW231766   4.823   0.143   6.459 -0.2321 -1.8006 -0.4099
10316SOL     OW31767   5.895   2.646   3.386 -0.3653 -0.0561  0.8437
10316SOL    HW131768   5.909   2.549   3.407 -1.0723 -0.2976  0.2664
10316SOL    HW231769   5.812   2.656   3.331  0.4257  0.7306 -0.2565
10317SOL     OW31770   3.479   2.172   0.004 -0.2216  0.3979  0.3066
10317SOL    HW131771   3.477   2.099   0.072 -0.2245  0.4676  0.3814
10317SOL    HW231772   3.552   2.154  -0.062 -1.5676 -0.8032 -0.9392
10318SOL     OW31773   0.457   0.521   1.192 -0.0367 -0.1759 -0.5880
10318SOL    HW131774   0.406   0.600   1.157 -0.1979 -0.4733 -1.0199
10318SOL    HW231775   0.459   0.449   1.124 -0.2321 -0.7084 -0.0394
10319SOL     OW31776   0.135   6.954   6.304 -0.0739  0.3428 -0.3490
10319SOL    HW131777   0.168   6.968   6.397  0.1308  0.3985 -0.4296
10319SOL    HW231778   0.040   6.986   6.297 -0.9353 -1.8364  0.4605
10320SOL     OW31779   4.734   6.279   4.411  0.1301  0.3171  0.0395
10320SOL    HW131780   4.739   6.367   4.363  1.5575  0.9742  1.3295
10320SOL    HW231781   4.788   6.211   4.361  1.2424  0.8835  0.4353
10321SOL     OW31782   4.913   6.540   0.644 -0.5072  0.1089 -0.6264
10321SOL    HW131783   4.914   6.606   0.568 -0.2685  0.6141 -0.1932
10321SOL    HW231784   4.877   6.584   0.726 -1.2258 -0.5772 -0.5613
10322SOL     OW31785   6.831   5.407   2.978 -0.2840  0.1411  0.1392
10322SOL    HW131786   6.820   5.345   2.901 -0.3499  0.3991 -0.0616
10322SOL    HW231787   6.900   5.371   3.041 -0.1624 -0.0225 -0.0870
10323SOL     OW31788   2.188   6.106   3.480 -0.5174 -0.4527 -0.0189
10323SOL    HW131789   2.278   6.064   3.491 -0.5421 -0.7145 -0.8059
10323SOL    HW231790   2.199   6.204   3.462 -0.4385 -0.2415  1.1016
10324SOL     OW31791   3.610   2.885   6.846 -0.0071 -0.4967 -0.5382
10324SOL    HW131792   3.655   2.796   6.841  1.5192  0.2158 -0.1670
10324SOL    HW231793   3.635   2.930   6.932  0.7654  1.0547 -1.5325
10325SOL     OW31794   3.429   4.789   2.388 -0.8288  0.2010 -0.2820
10325SOL    HW131795   3.412   4.787   2.486 -1.4407  1.3975 -0.3434
10325SOL    HW231796   3.493   4.716   2.363 -4.5746 -3.6287  0.2007
10326SOL     OW31797   6.729   2.823   0.985  0.3414 -0.3113  0.3052
10326SOL    HW131798   6.800   2.763   1.021  0.1902 -1.5571 -1.3399
10326SOL    HW231799   6.714   2.802   0.888  0.8686  2.9488 -0.6236
10327SOL     OW31800   1.336   3.337   5.059  0.2409 -0.3204 -0.2541
10327SOL    HW131801   1.346   3.362   4.962 -0.5866  1.3216  0.0500
10327SOL    HW231802   1.273   3.260   5.067 -0.2654  0.0061 -0.9771
10328SOL     OW31803   5.692   6.527   5.013  0.0593  0.4438  0.1137
10328SOL    HW131804   5.659   6.619   5.035  0.0708  0.0310  1.9649
10328SOL    HW231805   5.786   6.517   5.044 -1.2479 -1.5157  4.0919
10329SOL     OW31806   3.921   4.285   5.565  0.0197  0.2719 -0.0263
10329SOL    HW131807   3.935   4.218   5.637 -0.6741  0.7559  0.5721
10329SOL    HW231808   3.974   4.259   5.485  0.1279 -0.7339  0.3558
10330SOL     OW31809   2.244   6.047   4.176  0.3038  0.0498 -0.1829
10330SOL    HW131810   2.177   6.110   4.216 -0.2529 -1.6270  1.7260
10330SOL    HW231811   2.335   6.071   4.209 -0.1422 -1.2738  2.2356
10331SOL     OW31812   0.250   2.083   5.021  0.3351 -1.0521  0.0578
10331SOL    HW131813   0.205   2.024   4.953 -0.1322 -0.1860 -0.3976
10331SOL    HW231814   0.187   2.155   5.050  0.9177 -0.7430  0.5762
10332SOL     OW31815   6.423   3.796   5.353 -0.5046 -0.2998 -0.4169
10332SOL    HW131816   6.439   3.794   5.452  0.3869  2.8164 -0.4017
10332SOL    HW231817   6.337   3.844   5.334  0.2550  0.8136 -1.1714
10333SOL     OW31818   5.692   0.537   4.451 -0.5507  0.0736 -0.0113
10333SOL    HW131819   5.788   0.522   4.426 -0.0878 -0.9398  2.1310
10333SOL    HW231820   5.687   0.572   4.544 -2.2858 -0.7603  0.2544
10334SOL     OW31821   5.719   4.983   1.789  0.3320  0.7910  0.2442
10334SOL    HW131822   5.721   4.889   1.755  1.6519  0.6300  0.7196
10334SOL    HW231823   5.624   5.011   1.802 -0.0896 -0.4278 -0.0321
10335SOL     OW31824   3.987   2.719   2.879  0.4464  0.3178  0.0288
10335SOL    HW131825   3.950   2.802   2.923 -0.4917  0.2889 -0.6623
10335SOL    HW231826   3.911   2.666   2.842  0.9847 -1.1921  1.0124
10336SOL     OW31827   1.373   0.205   2.362  0.3088 -0.0015 -0.2016
10336SOL    HW131828   1.431   0.193   2.281  2.0663 -2.0103  1.2145
10336SOL    HW231829   1.381   0.299   2.395  2.5981 -0.1181 -0.2585
10337SOL     OW31830   0.197   5.825   4.931  0.5424  0.4737 -0.0507
10337SOL    HW131831   0.141   5.905   4.910  1.6103  1.5665  1.0807
10337SOL    HW231832   0.143   5.759   4.983 -0.2399  0.6193 -0.6675
10338SOL     OW31833   5.719   3.866   0.030 -0.0275  1.1083  0.1921
10338SOL    HW131834   5.759   3.908   0.111  2.6173 -1.1684  0.2125
10338SOL    HW231835   5.676   3.779   0.055  0.2375  0.6976 -0.7136
10339SOL     OW31836   5.124   3.947   2.792 -1.0869  0.0233 -0.1317
10339SOL    HW131837   5.221   3.964   2.773 -0.4252  0.9745  3.4759
10339SOL    HW231838   5.108   3.849   2.800  0.0366 -0.0763  1.1528
10340SOL     OW31839   3.783   3.427   1.692  0.2559  0.3535 -0.1957
10340SOL    HW131840   3.774   3.513   1.641  1.6723 -0.3623 -1.7346
10340SOL    HW231841   3.876   3.393   1.683  0.0702 -0.6988  1.4959
10341SOL     OW31842   4.871   6.102   4.216 -0.1676 -0.4133  0.2232
10341SOL    HW131843   4.799   6.051   4.170  0.6125  0.0365 -1.5827
10341SOL    HW231844   4.959   6.057   4.201  0.3031  0.5529 -0.0219
10342SOL     OW31845   0.215   3.158   2.465 -0.3592  0.2341 -0.2501
10342SOL    HW131846   0.123   3.168   2.501 -1.0034  0.6994 -1.9177
10342SOL    HW231847   0.277   3.221   2.511 -0.6680 -0.6421  1.4491
10343SOL     OW31848   5.989   3.260   4.260  0.0757  0.0697 -0.0578
10343SOL    HW131849   5.942   3.330   4.206  0.7863  0.4435 -0.1974
10343SOL    HW231850   6.076   3.296   4.293 -0.2544 -0.2185  1.1914
10344SOL     OW31851   3.430   3.004   1.346 -0.5701 -0.6988 -0.2068
10344SOL    HW131852   3.365   2.998   1.422  0.3021  0.4077  0.6753
10344SOL    HW231853   3.391   2.962   1.265 -1.9245 -1.0574  0.5991
10345SOL     OW31854   4.355   6.763   6.719 -0.0844 -0.0712  0.7550
10345SOL    HW131855   4.270   6.725   6.755 -0.8125 -0.0451 -0.8554
10345SOL    HW231856   4.337   6.851   6.676  1.0790  0.7508  1.8934
10346SOL     OW31857   0.955   2.634   4.004 -0.3499  0.1499 -0.0915
10346SOL    HW131858   0.965   2.635   4.103  1.2084  0.8998 -0.2189
10346SOL    HW231859   0.979   2.724   3.967 -0.2451 -0.3137 -1.2087
10347SOL     OW31860   4.444   6.645   3.031  0.3969 -0.2474  0.2783
10347SOL    HW131861   4.393   6.597   3.103  0.6219  0.6820  1.0919
10347SOL    HW231862   4.455   6.741   3.058 -0.8956  0.5203 -1.7445
10348SOL     OW31863   0.537   5.878   4.565  0.1686  0.0382  0.0104
10348SOL    HW131864   0.570   5.790   4.532  0.4327  0.4017 -0.7324
10348SOL    HW231865   0.498   5.930   4.488  0.0452  0.5726  0.4277
10349SOL     OW31866   0.415   6.137   2.441 -0.6891  0.2461  0.1032
10349SOL    HW131867   0.317   6.147   2.452 -0.5529  2.0528 -0.1553
10349SOL    HW231868   0.458   6.227   2.433  1.0517 -0.4846  0.6975
10350SOL     OW31869   4.781   3.412   4.874  0.3582 -0.5355  0.4115
10350SOL    HW131870   4.799   3.370   4.963 -0.1354 -0.5179  0.5236
10350SOL    HW231871   4.685   3.395   4.848  0.3346 -0.0338  0.1590
10351SOL     OW31872   6.361   4.194   3.796  0.6037 -0.4601  0.7166
10351SOL    HW131873   6.423   4.123   3.762  0.2021 -0.2661 -0.4612
10351SOL    HW231874   6.378   4.280   3.747  0.1235 -0.1260  1.1294
10352SOL     OW31875   4.930   5.549   0.664 -0.5363 -0.2896  0.0463
10352SOL    HW131876   4.914   5.577   0.569  0.4621  2.4498  0.6166
10352SOL    HW231877   5.015   5.589   0.697 -1.2048 -0.6021  2.3311
10353SOL     OW31878   4.681   1.953   3.534 -0.3776 -0.0913 -0.2724
10353SOL    HW131879   4.677   1.875   3.472  1.5630 -2.1153  1.9350
10353SOL    HW231880   4.589   1.990   3.547 -1.3247 -1.8168 -1.6088
10354SOL     OW31881   2.175   3.073   1.770 -0.1270 -0.1320  0.3307
10354SOL    HW131882   2.185   3.001   1.839 -3.0025 -0.4848  0.5167
10354SOL    HW231883   2.265   3.103   1.740  1.2199 -0.8694  3.2686
10355SOL     OW31884   2.879   3.131   6.830  0.1547  0.1271  0.6389
10355SOL    HW131885   2.941   3.194   6.877  1.2734  0.2471 -0.9316
10355SOL    HW231886   2.900   3.037   6.858  3.0978 -0.1350 -1.9330
10356SOL     OW31887   1.228   0.212   3.593 -0.1463 -0.3491  0.0770
10356SOL    HW131888   1.293   0.242   3.523 -0.7524  0.9770  0.0536
10356SOL    HW231889   1.218   0.283   3.662  0.3939 -1.6238  1.5013
10357SOL     OW31890   5.690   0.161   3.489  0.9450  0.2748 -0.3967
10357SOL    HW131891   5.594   0.162   3.463  0.9772 -1.0860 -0.6371
10357SOL    HW231892   5.743   0.218   3.426  0.3471  0.8028 -0.4270
10358SOL     OW31893   4.968   6.697   4.677  0.1022 -0.5262  0.3015
10358SOL    HW131894   4.956   6.601   4.656  1.1726 -0.3474 -1.3267
10358SOL    HW231895   5.055   6.729   4.639 -0.9550  1.4618 -0.6191
10359SOL     OW31896   3.363   4.078   2.692  0.6778  0.1656 -0.0962
10359SOL    HW131897   3.369   4.097   2.790 -1.8079  0.5085  0.0442
10359SOL    HW231898   3.388   4.160   2.641  0.7709  0.3619  0.2606
10360SOL     OW31899   2.154   5.734   3.441  0.3523  0.0713 -0.7270
10360SOL    HW131900   2.237   5.788   3.428  0.5638  0.1401  0.7413
10360SOL    HW231901   2.162   5.680   3.524 -0.6689 -0.7147 -1.1158
10361SOL     OW31902   5.785   2.827   1.308  0.3116  0.1262  0.8324
10361SOL    HW131903   5.719   2.795   1.239  1.6831  0.8758 -0.9132
10361SOL    HW231904   5.755   2.798   1.399 -1.0460 -1.7917 -0.1535
10362SOL     OW31905   5.839   2.256   3.818 -0.5794 -0.9296 -0.3415
10362SOL    HW131906   5.829   2.183   3.886 -0.2165 -3.2801 -2.6249
10362SOL    HW231907   5.762   2.253   3.755 -1.3936  1.8128  0.3886
10363SOL     OW31908   4.383   6.967   4.316 -0.2304 -0.0238 -0.3362
10363SOL    HW131909   4.395   6.897   4.387  1.1279 -1.4097 -1.8413
10363SOL    HW231910   4.471   7.012   4.300 -0.5713  0.4090 -0.9984
10364SOL     OW31911   2.150   1.294   2.936  0.3041 -0.2111 -0.4906
10364SOL    HW131912   2.171   1.231   3.011  0.1490  1.0915  0.6748
10364SOL    HW231913   2.085   1.363   2.968 -0.0002  0.1901 -1.9213
10365SOL     OW31914   5.954   3.868   6.825 -0.0708 -0.2205  0.5046
10365SOL    HW131915   5.905   3.886   6.740  0.7883 -0.5488 -0.0818
10365SOL    HW231916   5.894   3.885   6.903 -1.2903 -1.2218 -0.1885
10366SOL     OW31917   3.292   5.502   3.527  0.3053 -0.3648  0.2487
10366SOL    HW131918   3.213   5.512   3.467  1.2649  0.5049 -0.9039
10366SOL    HW231919   3.340   5.417   3.507  0.0440 -0.5780  0.5105
10367SOL     OW31920   4.638   4.512   5.751  0.5295 -0.3985 -0.3412
10367SOL    HW131921   4.626   4.505   5.652  2.0595 -1.2215 -0.5044
10367SOL    HW231922   4.579   4.584   5.787 -2.2568 -2.0083 -1.3955
10368SOL     OW31923   6.280   6.395   5.717  0.0316 -0.2486  0.8234
10368SOL    HW131924   6.357   6.447   5.756  2.0088 -2.1664 -0.3000
10368SOL    HW231925   6.220   6.363   5.791  0.9753  0.2914  1.8458
10369SOL     OW31926   6.109   3.051   5.723 -0.2398  0.4083 -0.6886
10369SOL    HW131927   6.135   3.027   5.816 -2.6575 -0.5097 -0.1630
10369SOL    HW231928   6.084   2.969   5.672  0.9717  0.9051 -2.1579
10370SOL     OW31929   4.969   4.077   4.306  0.2784  0.2847  0.0739
10370SOL    HW131930   4.897   4.145   4.292  0.8141  0.5421 -1.5622
10370SOL    HW231931   5.052   4.105   4.258 -0.0838 -2.4320 -2.4038
10371SOL     OW31932   6.312   4.219   0.870 -0.5091 -0.8387 -0.0741
10371SOL    HW131933   6.409   4.219   0.892 -0.5203  0.0897 -0.0017
10371SOL    HW231934   6.300   4.211   0.771 -0.3117  0.5555 -0.2219
10372SOL     OW31935   5.910   0.933   2.144  0.1885  0.2206 -0.1682
10372SOL    HW131936   5.996   0.979   2.168 -0.4768  1.2363  0.3394
10372SOL    HW231937   5.834   0.979   2.191 -0.5084 -1.4275  0.3790
10373SOL     OW31938   2.042   6.975   5.591  0.0753 -0.3206  0.4243
10373SOL    HW131939   2.065   7.066   5.556  0.5921 -0.4411  0.4342
10373SOL    HW231940   2.019   6.980   5.688 -3.8769  0.4327 -0.3820
10374SOL     OW31941   5.992   2.625   4.231  0.2819 -1.2426 -0.4616
10374SOL    HW131942   5.935   2.644   4.151  0.4137 -0.8851 -0.4728
10374SOL    HW231943   5.935   2.590   4.305 -0.5284  2.1187  0.6513
10375SOL     OW31944   3.144   6.097   6.711  0.8363  0.0931 -0.2109
10375SOL    HW131945   3.153   6.087   6.612 -1.0190  0.0573 -0.4114
10375SOL    HW231946   3.094   6.019   6.748 -0.6711  1.2941  0.3666
10376SOL     OW31947   0.733   2.151   3.562 -0.0627 -0.1467  0.5997
10376SOL    HW131948   0.714   2.156   3.464  1.6542  0.2526  0.2590
10376SOL    HW231949   0.658   2.194   3.612 -1.0694 -0.5479 -0.5096
10377SOL     OW31950   5.999   2.765   6.813  0.0179  0.4786  0.0406
10377SOL    HW131951   6.049   2.681   6.836  1.2947  0.8920 -1.1263
10377SOL    HW231952   5.917   2.741   6.760  1.6657  0.0338 -2.4829
10378SOL     OW31953   3.342   6.142   5.061 -0.0540  0.1250  0.0745
10378SOL    HW131954   3.398   6.164   5.140  0.2157 -0.7116  0.1279
10378SOL    HW231955   3.400   6.135   4.979 -0.0957 -0.5235  0.0895
10379SOL     OW31956   3.245   2.290   5.752 -0.2149 -0.1561 -0.3587
10379SOL    HW131957   3.253   2.271   5.850 -0.5151 -0.3347 -0.3707
10379SOL    HW231958   3.150   2.285   5.724 -0.0416 -0.9611 -0.8352
10380SOL     OW31959   0.993   3.111   1.426  0.4039  0.3608  0.2068
10380SOL    HW131960   0.941   3.050   1.367  1.7743  0.1464 -0.8196
10380SOL    HW231961   1.089   3.111   1.398  0.7565  1.6312  1.3196
10381SOL     OW31962   3.014   5.944   2.490  0.4883 -0.2900  0.3210
10381SOL    HW131963   2.986   5.848   2.484  1.2352 -0.4560 -0.9110
10381SOL    HW231964   3.007   5.987   2.400  1.4700  0.4250  0.5600
10382SOL     OW31965   5.248   0.637   6.824 -0.0515  0.2281 -0.2226
10382SOL    HW131966   5.335   0.686   6.818  1.4397 -2.3524 -1.3302
10382SOL    HW231967   5.226   0.598   6.734 -0.8526 -1.5628  0.7166
10383SOL     OW31968   2.442   2.583   5.310  0.3801 -0.2045 -0.0834
10383SOL    HW131969   2.493   2.573   5.224  0.2752  0.2877 -0.2077
10383SOL    HW231970   2.382   2.504   5.323  2.6359 -1.8539  1.0747
10384SOL     OW31971   3.867   3.941   1.943  0.3203 -0.4659 -0.5465
10384SOL    HW131972   3.811   3.894   2.011 -0.3443 -0.5709 -1.1583
10384SOL    HW231973   3.821   3.939   1.854 -0.1366  2.0851 -0.4258
10385SOL     OW31974   0.801   2.059   1.319 -0.0781 -0.2549 -0.0670
10385SOL    HW131975   0.868   1.995   1.358 -0.0571 -0.5206 -0.5268
10385SOL    HW231976   0.845   2.114   1.248 -0.4699 -0.8203 -0.7693
10386SOL     OW31977   3.633   0.860   4.436  0.0293  0.0602  0.5911
10386SOL    HW131978   3.650   0.763   4.418  1.7502  0.6292 -1.3587
10386SOL    HW231979   3.563   0.894   4.373  2.5734  0.9652 -1.9904
10387SOL     OW31980   5.925   0.736   6.031  0.3716  0.6779 -0.6985
10387SOL    HW131981   5.877   0.753   5.945  2.7851  0.2155 -2.2717
10387SOL    HW231982   6.024   0.730   6.013  0.9221 -0.0631  2.0304
10388SOL     OW31983   1.555   4.087   2.563  0.0818 -0.3081 -0.3254
10388SOL    HW131984   1.569   3.992   2.535 -1.1976 -0.7386  0.3648
10388SOL    HW231985   1.456   4.105   2.570  0.3177  0.7667  0.5258
10389SOL     OW31986   6.412   6.482   4.980  0.0267  0.3243 -0.1066
10389SOL    HW131987   6.508   6.510   4.990 -0.1436  1.4317 -1.2184
10389SOL    HW231988   6.386   6.487   4.883 -1.4062  0.9388  0.2823
10390SOL     OW31989   3.771   4.196   5.839  0.2392 -0.5166  0.0353
10390SOL    HW131990   3.871   4.191   5.844  0.3320 -0.1257 -1.0732
10390SOL    HW231991   3.731   4.121   5.891  1.1014 -0.5580  0.6608
10391SOL     OW31992   5.636   5.407   2.049  0.1388 -0.2442 -0.4589
10391SOL    HW131993   5.668   5.486   2.102  0.1066 -0.2225 -0.4715
10391SOL    HW231994   5.643   5.428   1.952 -0.7561  0.1063 -0.4617
10392SOL     OW31995   6.443   2.364   3.429 -0.7236 -0.2810  0.6429
10392SOL    HW131996   6.472   2.275   3.466 -1.5220 -0.6912  0.3233
10392SOL    HW231997   6.480   2.375   3.337  1.9597  1.1041  1.7801
10393SOL     OW31998   1.786   1.466   2.170 -0.2737  0.0707  0.8278
10393SOL    HW131999   1.802   1.371   2.196 -0.2876 -0.0001  0.5849
10393SOL    HW232000   1.852   1.525   2.215 -0.2868 -0.0517  1.0053
10394SOL     OW32001   2.847   2.226   1.117 -0.3541  0.6036  0.6433
10394SOL    HW132002   2.898   2.142   1.134 -0.7325 -0.0774 -1.2777
10394SOL    HW232003   2.813   2.263   1.203 -0.6816 -1.5471  1.4991
10395SOL     OW32004   3.678   0.066   5.341  0.2200 -0.0277  0.4117
10395SOL    HW132005   3.736   0.140   5.375  1.3592 -0.8124  0.2222
10395SOL    HW232006   3.726  -0.021   5.349 -0.1678 -0.4760 -1.4939
10396SOL     OW32007   0.742   1.402   1.992  0.4184 -0.2746  1.0074
10396SOL    HW132008   0.675   1.335   2.025 -0.3865 -0.1514 -0.3231
10396SOL    HW232009   0.751   1.395   1.893  0.3330  1.5786  0.8369
10397SOL     OW32010   5.463   4.397   2.248  0.0388  0.2689 -0.3808
10397SOL    HW132011   5.503   4.398   2.156 -0.7147  0.5516 -0.7179
10397SOL    HW232012   5.365   4.380   2.241  0.1903 -1.0468  0.4741
10398SOL     OW32013   4.846   1.079   5.245 -0.2591  0.2025  0.4720
10398SOL    HW132014   4.840   1.000   5.185 -2.1918  0.6406  0.0346
10398SOL    HW232015   4.864   1.049   5.339 -0.7185 -0.7412  0.2658
10399SOL     OW32016   2.184   2.478   6.823  0.4563 -0.1557  0.1008
10399SOL    HW132017   2.239   2.436   6.751 -0.3408  0.1497 -0.7176
10399SOL    HW232018   2.121   2.545   6.782  0.6290  0.7094  1.1920
10400SOL     OW32019   0.295   0.085   6.137  0.0425 -0.0077  0.1103
10400SOL    HW132020   0.249   0.174   6.127  1.2111  0.6448  0.3211
10400SOL    HW232021   0.244   0.028   6.202 -1.0437  0.2769 -0.4722
10401SOL     OW32022   2.510   3.550   1.598  0.1004 -0.8841 -0.4484
10401SOL    HW132023   2.558   3.618   1.542 -0.8452  0.3934  0.2312
10401SOL    HW232024   2.444   3.501   1.540 -0.2821 -0.1513 -0.6544
10402SOL     OW32025   2.388   1.191   4.993 -0.1216  0.4824  0.0714
10402SOL    HW132026   2.298   1.179   5.035 -0.0686 -0.1585  0.0091
10402SOL    HW232027   2.415   1.287   4.999 -1.2048  0.8532 -0.7268
10403SOL     OW32028   2.890   1.816   5.739  0.3427  0.1676 -0.4021
10403SOL    HW132029   2.958   1.743   5.738 -0.5844 -0.7137 -0.9573
10403SOL    HW232030   2.833   1.811   5.657 -1.3381 -0.0445  0.7201
10404SOL     OW32031   6.099   5.641   1.444  0.4803 -0.5489  0.1911
10404SOL    HW132032   6.135   5.696   1.369  1.3424 -0.7477  0.4467
10404SOL    HW232033   6.011   5.601   1.416  0.5018 -0.1469 -0.4877
10405SOL     OW32034   3.868   4.266   2.762  0.8268  0.1738  0.0691
10405SOL    HW132035   3.958   4.291   2.727  0.9864 -0.1092  0.2728
10405SOL    HW232036   3.826   4.199   2.700  1.3920 -0.8413  0.7542
10406SOL     OW32037   4.391   4.439   1.867 -0.4635  0.4453  0.2897
10406SOL    HW132038   4.332   4.388   1.930  0.2483  0.7891  1.2656
10406SOL    HW232039   4.483   4.444   1.906  0.3564 -0.5036 -1.4177
10407SOL     OW32040   6.776   1.750   2.776 -0.6571  0.3771  0.3369
10407SOL    HW132041   6.757   1.652   2.774  0.4596  0.1481  0.0744
10407SOL    HW232042   6.719   1.794   2.845 -1.2907 -0.4278  0.3358
10408SOL     OW32043   3.337   3.539   4.851  0.1230 -0.3158  0.3806
10408SOL    HW132044   3.389   3.588   4.781 -0.0155 -2.1596 -1.1055
10408SOL    HW232045   3.270   3.480   4.806 -3.3866  1.9665  2.1822
10409SOL     OW32046   3.299   4.942   4.655  0.5054  0.2340 -0.5410
10409SOL    HW132047   3.341   4.888   4.728  2.2967  2.0863 -0.1019
10409SOL    HW232048   3.202   4.955   4.675  0.8145  0.1336  1.1686
10410SOL     OW32049   2.786   1.266   3.230  0.0346  0.2216  0.0450
10410SOL    HW132050   2.833   1.293   3.313 -0.1828  0.3289  0.1345
10410SOL    HW232051   2.843   1.286   3.150 -0.6543  2.2119  0.0007
10411SOL     OW32052   6.432   2.079   0.591 -0.4981  0.2645  0.0960
10411SOL    HW132053   6.347   2.040   0.556 -0.8659  0.3717  0.8445
10411SOL    HW232054   6.510   2.032   0.550 -0.9032  0.4663 -0.9368
10412SOL     OW32055   5.261   4.470   0.196  0.0988 -0.3442 -0.2325
10412SOL    HW132056   5.218   4.530   0.128  0.9723 -0.5440 -0.9843
10412SOL    HW232057   5.279   4.381   0.156 -1.0848 -1.1062  0.8508
10413SOL     OW32058   4.077   5.095   2.780 -0.8166 -0.0468  0.2366
10413SOL    HW132059   3.994   5.077   2.832  0.4748 -1.5660  1.9227
10413SOL    HW232060   4.153   5.113   2.842  0.4505 -0.2511 -1.1727
10414SOL     OW32061   4.400   2.962   1.349  0.1734 -0.1748 -0.2926
10414SOL    HW132062   4.324   2.929   1.406  0.0417  0.0171 -0.3557
10414SOL    HW232063   4.412   2.901   1.271  0.8456 -0.8716  0.3416
10415SOL     OW32064   2.737   1.333   6.197  0.0614  0.5431  0.3896
10415SOL    HW132065   2.721   1.235   6.186 -0.7545  0.3459  2.7360
10415SOL    HW232066   2.674   1.384   6.138 -0.3629 -0.3252  0.0822
10416SOL     OW32067   0.143   0.365   2.987  0.1229  0.5115 -0.0073
10416SOL    HW132068   0.209   0.389   3.059 -1.1581  1.3961  0.9061
10416SOL    HW232069   0.137   0.441   2.921 -1.9467  1.6734  1.4131
10417SOL     OW32070   3.294   5.640   2.738 -0.0859 -0.5990  0.3874
10417SOL    HW132071   3.211   5.586   2.721  1.3515 -2.2528 -1.9169
10417SOL    HW232072   3.299   5.716   2.673  0.3041 -0.6244  0.3854
10418SOL     OW32073   5.611   4.209   0.519 -0.3306  0.1168 -0.6017
10418SOL    HW132074   5.518   4.175   0.509 -0.6443  0.5963  0.5083
10418SOL    HW232075   5.632   4.272   0.444 -0.9539  0.1285 -0.7705
10419SOL     OW32076   0.204   3.241   2.896  0.9201  0.2752 -0.6636
10419SOL    HW132077   0.275   3.311   2.909  1.5388  0.0904 -2.6906
10419SOL    HW232078   0.140   3.272   2.826 -0.3791 -0.0645  0.3395
10420SOL     OW32079   0.439   0.018   5.718 -0.0668 -0.4805 -0.1715
10420SOL    HW132080   0.383   0.091   5.758  3.1417  1.7467  0.5816
10420SOL    HW232081   0.379  -0.047   5.671 -3.1711  2.2439 -0.3502
10421SOL     OW32082   5.767   3.446   4.304  0.3856 -0.3376 -0.3790
10421SOL    HW132083   5.812   3.434   4.215 -0.3340  0.8185 -0.9293
10421SOL    HW232084   5.749   3.544   4.319 -0.1325 -0.5882  0.7320
10422SOL     OW32085   2.159   5.074   2.597 -0.9480  0.4138  0.5319
10422SOL    HW132086   2.184   5.095   2.692 -0.6423  0.0860  0.5276
10422SOL    HW232087   2.166   4.975   2.583  0.2685  0.5792 -0.1867
10423SOL     OW32088   5.623   2.842   5.408 -0.1704 -0.1428 -0.1162
10423SOL    HW132089   5.531   2.807   5.423 -0.0165 -0.3048  0.4826
10423SOL    HW232090   5.635   2.865   5.311 -1.3513  1.3966  0.0750
10424SOL     OW32091   3.011   1.546   1.679 -0.3359 -0.1787  0.2503
10424SOL    HW132092   2.950   1.500   1.615  1.6197 -1.0378 -1.0785
10424SOL    HW232093   3.052   1.479   1.741  1.9375 -0.2239 -1.1890
10425SOL     OW32094   3.619   1.049   6.107  0.0353  0.2359 -0.4598
10425SOL    HW132095   3.601   1.040   6.205  0.4310 -1.4247 -0.5145
10425SOL    HW232096   3.714   1.078   6.093  0.2140 -0.2699 -0.3440
10426SOL     OW32097   0.525   0.630   5.941  0.1097 -0.0129  0.4552
10426SOL    HW132098   0.462   0.555   5.962  0.8517 -0.3854  1.4085
10426SOL    HW232099   0.489   0.682   5.864 -1.1485 -0.4709  0.7027
10427SOL     OW32100   0.727   1.034   2.482 -0.1405 -0.3760 -0.6054
10427SOL    HW132101   0.780   1.100   2.535  0.3351 -3.0670  2.5869
10427SOL    HW232102   0.654   0.997   2.539 -1.3564 -1.5625 -2.7887
10428SOL     OW32103   4.198   6.258   4.491 -0.3234 -0.2641 -0.1608
10428SOL    HW132104   4.294   6.283   4.473 -0.7363  2.2409  0.6990
10428SOL    HW232105   4.195   6.178   4.551  1.2386  0.0210  0.3388
10429SOL     OW32106   6.488   6.503   3.319 -0.1081  0.0865  0.3434
10429SOL    HW132107   6.462   6.407   3.334 -1.9688  0.3009 -1.0546
10429SOL    HW232108   6.445   6.560   3.389 -2.9841  0.3337 -1.4481
10430SOL     OW32109   5.182   2.222   4.613  0.1171 -0.3428 -0.1357
10430SOL    HW132110   5.207   2.155   4.543  1.4510 -0.9329  0.8430
10430SOL    HW232111   5.100   2.271   4.585  1.0086 -0.0474 -2.4225
10431SOL     OW32112   4.081   0.829   5.252 -0.2052  0.5261 -0.2800
10431SOL    HW132113   4.055   0.764   5.180  0.2272 -0.1821  0.1919
10431SOL    HW232114   4.177   0.853   5.242 -0.4691  1.4336 -0.7043
10432SOL     OW32115   6.938   2.073   0.058  0.6177 -0.3118  0.0668
10432SOL    HW132116   6.908   2.082   0.154  1.6970 -0.8731  0.4727
10432SOL    HW232117   6.961   2.163   0.022  1.5342 -0.2487  0.7884
10433SOL     OW32118   1.571   1.011   6.526 -0.6873  0.3693 -0.2635
10433SOL    HW132119   1.533   1.102   6.505 -1.4698  0.2355  0.5144
10433SOL    HW232120   1.576   1.000   6.626 -2.9508 -1.3604 -0.2535
10434SOL     OW32121   5.083   2.589   4.551 -0.3316 -0.0723 -0.0848
10434SOL    HW132122   5.019   2.518   4.580 -1.0654  1.1896  1.4684
10434SOL    HW232123   5.173   2.570   4.591 -0.7497  0.3468  1.0870
10435SOL     OW32124   0.466   5.397   0.345  0.5203 -0.1057 -0.0361
10435SOL    HW132125   0.410   5.346   0.279  1.1609  0.0066 -0.6746
10435SOL    HW232126   0.463   5.351   0.434 -2.2046  0.9601  0.5387
10436SOL     OW32127   2.096   1.142   3.280  0.1705  0.0308  0.5161
10436SOL    HW132128   2.033   1.099   3.345  0.7440 -0.0796  1.0096
10436SOL    HW232129   2.092   1.241   3.292  0.6473 -0.0125  1.0810
10437SOL     OW32130   2.741   1.397   3.950 -0.3901 -0.1733  0.1045
10437SOL    HW132131   2.782   1.447   3.873  1.2779 -0.7917  0.5377
10437SOL    HW232132   2.751   1.299   3.934 -0.4950 -0.3119  0.8673
10438SOL     OW32133   0.601   2.850   5.690 -0.0362  0.4580  0.0128
10438SOL    HW132134   0.657   2.933   5.689  0.0905  0.3730  0.0589
10438SOL    HW232135   0.520   2.864   5.632  1.1261 -0.1726 -1.8341
10439SOL     OW32136   0.311   2.407   5.282 -0.1223 -0.2445  0.0311
10439SOL    HW132137   0.334   2.480   5.346  0.8111  1.0659 -1.6959
10439SOL    HW232138   0.276   2.447   5.197 -2.7524 -1.9550  0.1900
10440SOL     OW32139   6.357   5.727   5.773 -0.4837  0.2477 -0.1193
10440SOL    HW132140   6.396   5.814   5.801  0.6514  0.5001 -2.2878
10440SOL    HW232141   6.287   5.742   5.702 -0.6692 -0.5681 -0.1275
10441SOL     OW32142   1.858   3.933   1.255 -0.6029 -0.1635  0.3268
10441SOL    HW132143   1.933   3.998   1.248  1.2350 -2.2163 -0.4747
10441SOL    HW232144   1.816   3.940   1.346 -0.8546  2.4395  0.0765
10442SOL     OW32145   1.184   1.311   1.793  0.1685 -0.1680  0.5301
10442SOL    HW132146   1.164   1.282   1.886 -0.3979 -1.0313  0.1467
10442SOL    HW232147   1.200   1.231   1.735 -0.4893  0.3119 -0.3425
10443SOL     OW32148   3.671   2.772   4.564 -0.4341 -0.5625 -0.1212
10443SOL    HW132149   3.678   2.677   4.593  0.8287 -0.8597 -1.2858
10443SOL    HW232150   3.739   2.827   4.613 -0.8416 -0.3439  0.2045
10444SOL     OW32151   0.363   6.994   0.358  0.2903 -0.0487 -0.1725
10444SOL    HW132152   0.284   7.045   0.391 -0.3242 -1.6712  1.0080
10444SOL    HW232153   0.432   6.989   0.430  0.6518 -0.2718 -0.5294
10445SOL     OW32154   5.726   3.426   2.198  0.2248 -1.1606  0.1412
10445SOL    HW132155   5.782   3.431   2.281 -1.0873  1.0633  0.9662
10445SOL    HW232156   5.759   3.493   2.132 -0.6350 -0.7418  0.1227
10446SOL     OW32157   4.741   2.446   1.671  0.2179 -0.1529 -0.6876
10446SOL    HW132158   4.822   2.443   1.613  0.3673 -0.1805 -0.4793
10446SOL    HW232159   4.733   2.359   1.721  0.1982 -0.0564 -0.5228
10447SOL     OW32160   2.775   2.585   0.345 -0.3073  0.6820  0.3166
10447SOL    HW132161   2.792   2.506   0.404 -1.9404 -0.7699 -1.0437
10447SOL    HW232162   2.747   2.554   0.254 -0.7496  2.8427 -0.3522
10448SOL     OW32163   4.734   0.850   0.545 -0.3685  0.5558 -0.2409
10448SOL    HW132164   4.700   0.763   0.581 -1.2824  0.6236 -0.8887
10448SOL    HW232165   4.817   0.876   0.593 -1.2140  0.3576  1.4015
10449SOL     OW32166   2.996   1.382   1.138 -0.3438  0.3726 -0.1896
10449SOL    HW132167   3.093   1.356   1.143 -0.4419  0.2765  1.8417
10449SOL    HW232168   2.946   1.314   1.085  0.4257 -0.4609  0.1281
10450SOL     OW32169   4.566   3.961   5.049 -0.0022 -0.8031  0.3958
10450SOL    HW132170   4.644   3.951   4.986  0.9656 -2.5519  1.7843
10450SOL    HW232171   4.527   3.871   5.068 -3.2395  0.1035 -1.2124
10451SOL     OW32172   6.322   0.860   5.744  0.1270 -0.2412  0.4472
10451SOL    HW132173   6.246   0.925   5.748  0.9257  0.7365 -0.0530
10451SOL    HW232174   6.388   0.890   5.676  2.6082  0.7217  3.1151
10452SOL     OW32175   2.228   3.215   2.194  0.2688 -0.8035 -0.2361
10452SOL    HW132176   2.202   3.119   2.181  2.3708 -1.5201  0.3107
10452SOL    HW232177   2.165   3.258   2.258 -0.8553 -1.7364 -0.6705
10453SOL     OW32178   5.223   4.145   0.747  0.2315 -0.0291  0.7351
10453SOL    HW132179   5.218   4.110   0.840 -0.7452  0.8544  1.0417
10453SOL    HW232180   5.273   4.080   0.689  0.2191 -0.9319  1.7040
10454SOL     OW32181   0.505   5.516   6.675  0.4079  0.2426  0.1435
10454SOL    HW132182   0.412   5.551   6.661  0.6708  0.3209 -1.5833
10454SOL    HW232183   0.519   5.435   6.620  0.5865 -1.3202  2.3384
10455SOL     OW32184   0.703   5.777   2.664 -0.1806  0.0912  0.2006
10455SOL    HW132185   0.781   5.808   2.610  0.1990 -0.9534  0.1344
10455SOL    HW232186   0.619   5.817   2.627 -0.0379 -1.2738 -1.7321
10456SOL     OW32187   0.534   3.240   2.980  0.2154  0.2207 -0.3251
10456SOL    HW132188   0.471   3.229   3.057  1.7250  1.6697  1.2003
10456SOL    HW232189   0.527   3.333   2.943  2.2127  0.8407  0.6750
10457SOL     OW32190   5.066   4.224   6.060 -0.0552  0.1917  0.1041
10457SOL    HW132191   4.999   4.150   6.054  0.5710 -0.3761 -0.1033
10457SOL    HW232192   5.115   4.232   5.973  0.0201  0.7150  0.1915
10458SOL     OW32193   4.395   3.051   6.647 -0.1142 -0.3616  0.6181
10458SOL    HW132194   4.321   3.014   6.592 -0.8930  1.6948  0.2014
10458SOL    HW232195   4.480   3.000   6.628 -1.3018 -2.6058  0.9434
10459SOL     OW32196   6.057   1.664   6.090 -0.6995  0.1592  0.3230
10459SOL    HW132197   6.130   1.724   6.057  0.4336  0.6842  3.3898
10459SOL    HW232198   6.097   1.577   6.121 -1.5299 -0.0013  0.9737
10460SOL     OW32199   0.834   1.623   4.804  0.2057 -0.4305  0.7779
10460SOL    HW132200   0.843   1.548   4.739 -0.4572 -0.9003  1.2204
10460SOL    HW232201   0.789   1.591   4.887 -0.0750  0.4490  0.9809
10461SOL     OW32202   0.848   2.536   6.034 -0.4332 -0.3094 -0.3208
10461SOL    HW132203   0.861   2.612   6.098  0.5557  0.1233 -1.0151
10461SOL    HW232204   0.822   2.572   5.944  2.2891 -0.5699 -1.2981
10462SOL     OW32205   2.843   5.539   1.039  0.3579  0.2968  0.4381
10462SOL    HW132206   2.790   5.558   1.122  0.1599 -0.5036  0.5029
10462SOL    HW232207   2.824   5.609   0.971 -2.3084 -0.9852 -0.2598
10463SOL     OW32208   6.370   4.673   3.226  0.4093 -0.3990  0.1908
10463SOL    HW132209   6.350   4.722   3.310  0.1793  0.8819 -0.5758
10463SOL    HW232210   6.288   4.629   3.192  0.6107 -1.3159  0.8745
10464SOL     OW32211   5.443   3.732   3.733  0.3326 -0.4172 -0.1220
10464SOL    HW132212   5.508   3.730   3.657  1.7803 -1.0855  1.0777
10464SOL    HW232213   5.372   3.800   3.715  0.5299 -0.7067 -2.1352
10465SOL     OW32214   5.693   3.649   6.666 -0.3640  0.0006 -0.2473
10465SOL    HW132215   5.718   3.745   6.657 -1.9590  0.3295 -1.5239
10465SOL    HW232216   5.774   3.592   6.649  0.7640  1.0866  1.2212
10466SOL     OW32217   1.495   3.617   6.711  0.1879  0.1437  0.7101
10466SOL    HW132218   1.399   3.593   6.694  0.1793  0.3519  0.4592
10466SOL    HW232219   1.533   3.556   6.781  0.4345 -1.2441 -0.5755
10467SOL     OW32220   0.649   3.393   0.670  0.3027 -0.0629 -0.2347
10467SOL    HW132221   0.671   3.402   0.767  1.8268  1.9180 -0.7029
10467SOL    HW232222   0.613   3.480   0.636 -1.6358 -1.1638 -1.1541
10468SOL     OW32223   0.243   4.201   0.359 -0.6293  0.1770  0.1105
10468SOL    HW132224   0.166   4.243   0.310 -1.8296  0.5317  2.1487
10468SOL    HW232225   0.237   4.102   0.350 -2.3660  0.0826  1.5358
10469SOL     OW32226   1.380   1.367   5.203 -0.7210  0.4061 -0.4710
10469SOL    HW132227   1.295   1.359   5.151 -1.7922  0.0072  1.2650
10469SOL    HW232228   1.363   1.343   5.299  1.6196 -0.8006 -0.3058
10470SOL     OW32229   1.381   5.306   4.175  0.5622  0.2831  0.5915
10470SOL    HW132230   1.330   5.290   4.091 -1.6573 -0.0394  1.9365
10470SOL    HW232231   1.475   5.333   4.152  0.6703 -1.8457 -1.9414
10471SOL     OW32232   4.944   0.561   3.699 -0.4566  0.1927 -0.6295
10471SOL    HW132233   5.002   0.594   3.773 -2.0950  0.8968  0.4067
10471SOL    HW232234   4.875   0.499   3.736 -0.9253  0.0615 -1.6769
10472SOL     OW32235   5.773   5.637   1.582  0.1649  0.4500 -0.2689
10472SOL    HW132236   5.823   5.666   1.500  1.3724  0.0827  0.3255
10472SOL    HW232237   5.811   5.552   1.616 -0.0825  0.7914  0.8991
10473SOL     OW32238   1.387   5.678   5.325  0.1086 -0.2947 -0.9909
10473SOL    HW132239   1.463   5.696   5.388  0.7029 -0.2254 -1.7055
10473SOL    HW232240   1.300   5.697   5.370  0.5960  2.4604 -1.0369
10474SOL     OW32241   2.933   3.299   3.387  0.0866 -0.5887 -0.0374
10474SOL    HW132242   2.869   3.374   3.406  1.0816  0.0422  0.9397
10474SOL    HW232243   2.981   3.273   3.471 -0.0951 -2.2146 -0.3917
10475SOL     OW32244   5.797   4.604   6.454 -0.0078  0.1283 -0.3546
10475SOL    HW132245   5.836   4.696   6.441 -0.0980  0.3108  0.5681
10475SOL    HW232246   5.742   4.580   6.374  1.4169  0.1462 -1.3945
10476SOL     OW32247   6.472   2.576   0.415  0.0210 -0.4327  0.4943
10476SOL    HW132248   6.464   2.481   0.446  0.1123 -0.7867 -0.5290
10476SOL    HW232249   6.563   2.590   0.376 -0.6429 -0.4922 -1.1556
10477SOL     OW32250   0.141   2.488   0.413  0.6341 -0.2426 -0.3339
10477SOL    HW132251   0.233   2.503   0.450  0.5819  0.0516 -0.3209
10477SOL    HW232252   0.146   2.435   0.328  1.1259  2.8793 -2.3812
10478SOL     OW32253   4.586   3.584   0.925  0.9216  0.0904 -0.2780
10478SOL    HW132254   4.507   3.523   0.915  1.6601 -0.5874 -2.5059
10478SOL    HW232255   4.628   3.570   1.014  0.0929 -1.4772 -0.1018
10479SOL     OW32256   4.277   3.814   1.724  0.0312 -0.7423  0.6106
10479SOL    HW132257   4.252   3.866   1.642  0.0125 -1.2764  0.2776
10479SOL    HW232258   4.337   3.870   1.781  1.4671 -0.9853 -0.5885
10480SOL     OW32259   2.070   0.843   0.517  0.4684  0.3391  0.3502
10480SOL    HW132260   2.085   0.917   0.451  1.5949 -0.2664 -0.1127
10480SOL    HW232261   1.972   0.822   0.522  0.4291 -0.4499 -2.1355
10481SOL     OW32262   4.921   4.858   1.178 -0.3311 -0.1731  0.0764
10481SOL    HW132263   5.016   4.828   1.187  0.1197  0.1410 -2.7226
10481SOL    HW232264   4.907   4.897   1.087 -2.7429  1.3844  1.0275
10482SOL     OW32265   5.503   6.668   4.550 -0.0047  0.2217 -0.3619
10482SOL    HW132266   5.530   6.720   4.631  1.6521 -0.0130 -0.7154
10482SOL    HW232267   5.568   6.593   4.535 -0.4131  0.1084 -1.7607
10483SOL     OW32268   1.018   3.804   2.081  0.1296 -0.1482 -0.5040
10483SOL    HW132269   1.110   3.839   2.063 -0.1410  0.1789 -1.2963
10483SOL    HW232270   0.950   3.870   2.050 -0.3829 -0.9107 -1.0454
10484SOL     OW32271   6.671   5.052   6.439  0.5390  0.3080  0.0935
10484SOL    HW132272   6.681   5.148   6.466  2.1151  0.1546  0.1635
10484SOL    HW232273   6.597   5.043   6.372 -0.4966  1.3586  1.0546
10485SOL     OW32274   3.377   2.020   1.513 -0.3591  0.2172  0.3470
10485SOL    HW132275   3.303   1.977   1.463 -1.0963  0.2395  1.3758
10485SOL    HW232276   3.443   2.059   1.449 -0.2897 -1.3728 -0.5954
10486SOL     OW32277   6.148   3.082   3.038 -1.0720  0.0036 -0.3240
10486SOL    HW132278   6.200   3.013   3.089 -1.2688 -0.4686 -0.7532
10486SOL    HW232279   6.076   3.119   3.096 -2.2059 -1.5492 -0.6871
10487SOL     OW32280   4.799   4.063   6.352  0.1429 -0.1773  0.3883
10487SOL    HW132281   4.779   4.109   6.265  0.1188 -1.6069 -0.4102
10487SOL    HW232282   4.867   4.115   6.403  1.4174 -0.1262 -1.2692
10488SOL     OW32283   2.752   1.117   2.824 -0.5392  0.2447  0.1261
10488SOL    HW132284   2.750   1.038   2.763 -1.7319 -0.5309  1.1136
10488SOL    HW232285   2.666   1.122   2.875  0.2200  1.1529  1.3720
10489SOL     OW32286   0.111   3.893   1.746  0.3280 -0.1648 -0.0630
10489SOL    HW132287   0.150   3.862   1.659  0.0166  2.1523 -1.0988
10489SOL    HW232288   0.184   3.906   1.813  0.9314  0.6432 -0.8574
10490SOL     OW32289   5.106   1.524   3.695  0.1220 -0.0624  0.3711
10490SOL    HW132290   5.093   1.445   3.755 -1.1104  0.6669  1.0937
10490SOL    HW232291   5.179   1.582   3.732 -0.0153 -0.0800  0.6704
10491SOL     OW32292   3.987   5.543   1.620  0.6185  0.1044 -0.5265
10491SOL    HW132293   4.068   5.546   1.561 -0.2449 -0.2029 -1.7761
10491SOL    HW232294   3.969   5.448   1.646 -0.0630 -0.0003 -1.3268
10492SOL     OW32295   3.714   5.386   4.846 -0.1304 -0.2611 -0.2407
10492SOL    HW132296   3.733   5.464   4.906 -1.6596  0.0715 -0.1546
10492SOL    HW232297   3.768   5.308   4.875 -1.4364 -0.3781  2.1457
10493SOL     OW32298   3.808   2.227   2.144  0.4701  0.2749  0.1778
10493SOL    HW132299   3.899   2.189   2.161  0.1237 -0.1255  1.2415
10493SOL    HW232300   3.744   2.153   2.124  0.2103  0.4741  0.2631
10494SOL     OW32301   5.756   6.106   5.931 -0.4586 -0.0987 -0.5010
10494SOL    HW132302   5.678   6.167   5.916 -1.0035 -0.9027 -0.9956
10494SOL    HW232303   5.733   6.040   6.002  0.5715  1.0035  0.9100
10495SOL     OW32304   6.525   6.237   5.204  0.3617 -0.7315  0.1266
10495SOL    HW132305   6.510   6.211   5.299 -0.6421 -2.4138 -0.4454
10495SOL    HW232306   6.600   6.302   5.199 -0.0828  0.0241  2.1319
10496SOL     OW32307   4.716   6.819   2.392 -0.2114 -0.3390 -0.5314
10496SOL    HW132308   4.788   6.867   2.443 -1.9543 -0.3099  2.0918
10496SOL    HW232309   4.671   6.884   2.330 -0.0693  0.4730  0.1927
10497SOL     OW32310   1.962   1.714   4.718  0.0398  0.0193 -0.3170
10497SOL    HW132311   1.945   1.807   4.685  2.8934  1.3230  1.4712
10497SOL    HW232312   2.033   1.671   4.662  0.5935 -0.0333  0.4017
10498SOL     OW32313   4.007   1.866   2.372  0.3100 -0.3138 -0.0486
10498SOL    HW132314   4.034   1.912   2.288 -2.6904  0.2760 -0.7948
10498SOL    HW232315   4.062   1.901   2.448  1.6064  0.7106 -1.3961
10499SOL     OW32316   4.704   2.631   4.286  0.2473  0.1073 -0.2166
10499SOL    HW132317   4.682   2.695   4.361  0.2066 -2.5823  2.2592
10499SOL    HW232318   4.800   2.604   4.292  0.4378  0.4012 -1.6513
10500SOL     OW32319   1.235   6.918   5.550  0.0654  0.3075 -0.6859
10500SOL    HW132320   1.164   6.855   5.582 -0.4100  0.7094 -0.9330
10500SOL    HW232321   1.266   6.974   5.627  0.8338 -0.5320 -0.3534
10501SOL     OW32322   6.595   3.965   6.150 -0.0465  0.3511 -0.0506
10501SOL    HW132323   6.563   3.958   6.056  0.6652 -0.3422 -0.2513
10501SOL    HW232324   6.663   4.038   6.157  0.1428  0.1811 -0.1383
10502SOL     OW32325   6.218   0.623   2.181  0.0778  0.1456  0.5941
10502SOL    HW132326   6.235   0.714   2.142 -3.1014  0.4887 -0.2216
10502SOL    HW232327   6.186   0.633   2.275  0.1875 -0.1658  0.6634
10503SOL     OW32328   5.193   5.823   1.680 -0.1615  0.4016 -0.0854
10503SOL    HW132329   5.177   5.757   1.607 -2.3739  1.2437 -0.4440
10503SOL    HW232330   5.110   5.831   1.736  0.5249  1.8681  0.7836
10504SOL     OW32331   4.331   3.517   3.208  0.4531  0.5494 -0.2821
10504SOL    HW132332   4.408   3.557   3.158  0.8762  0.7498  0.5149
10504SOL    HW232333   4.360   3.434   3.254  0.0843  0.4051 -0.3037
10505SOL     OW32334   5.370   4.487   1.608  0.3010 -0.2210  0.0697
10505SOL    HW132335   5.319   4.492   1.694 -1.7829 -0.0140 -1.1008
10505SOL    HW232336   5.356   4.397   1.566  2.9418 -1.0779  0.8318
10506SOL     OW32337   3.435   5.802   4.044 -0.1444  0.0920  0.5881
10506SOL    HW132338   3.458   5.897   4.066  3.0538 -0.0914 -1.2915
10506SOL    HW232339   3.479   5.741   4.112 -0.1881 -0.1014  0.4442
10507SOL     OW32340   1.329   3.171   6.659 -0.2484  0.0804  0.4230
10507SOL    HW132341   1.403   3.105   6.653 -0.9431 -0.8909  1.9357
10507SOL    HW232342   1.340   3.240   6.588  0.9325 -1.2120 -0.7161
10508SOL     OW32343   4.004   0.249   6.490 -0.1658  0.3633 -0.2994
10508SOL    HW132344   3.967   0.158   6.472  1.0598 -0.1247 -0.4242
10508SOL    HW232345   3.954   0.291   6.566 -1.5325  0.0845 -1.0214
10509SOL     OW32346   5.508   4.136   4.956 -0.2958  0.0494  0.3542
10509SOL    HW132347   5.484   4.073   4.882 -0.4311  1.6443 -1.0109
10509SOL    HW232348   5.462   4.107   5.040 -1.8183 -0.6504 -0.6710
10510SOL     OW32349   3.825   3.310   2.316  0.3321  0.5181 -0.8437
10510SOL    HW132350   3.778   3.302   2.404 -2.3588  0.0407 -2.2453
10510SOL    HW232351   3.868   3.223   2.294  0.5129  0.4613 -0.2903
10511SOL     OW32352   2.143   3.981   5.107 -0.4502 -0.4109  0.0938
10511SOL    HW132353   2.089   3.900   5.127  1.3734 -1.5021  0.7836
10511SOL    HW232354   2.185   4.016   5.190  1.5953 -0.8699 -0.6783
10512SOL     OW32355   5.708   0.431   5.091 -0.1432 -0.2658 -0.3195
10512SOL    HW132356   5.724   0.339   5.126  0.3718 -0.4024 -0.8856
10512SOL    HW232357   5.646   0.427   5.012 -1.9681  0.1247  1.0361
10513SOL     OW32358   2.714   5.603   3.258  0.2014  0.4233  0.6999
10513SOL    HW132359   2.766   5.623   3.174  1.0838 -0.1329  1.0941
10513SOL    HW232360   2.724   5.679   3.322 -0.7015  0.9713  0.2017
10514SOL     OW32361   3.848   6.412   3.962 -0.2576  0.0646 -0.1789
10514SOL    HW132362   3.892   6.445   4.045  1.2548  1.4856 -1.4801
10514SOL    HW232363   3.752   6.442   3.961 -1.0755 -2.1025  2.1569
10515SOL     OW32364   5.463   2.740   0.380  0.0789 -0.0573  0.4052
10515SOL    HW132365   5.496   2.751   0.474 -0.6671  0.9144  0.5730
10515SOL    HW232366   5.378   2.687   0.381  0.7648 -1.1890  0.1333
10516SOL     OW32367   5.980   1.135   6.841  0.1436  0.0835 -0.3227
10516SOL    HW132368   6.001   1.122   6.744 -1.0176 -0.8002 -0.4802
10516SOL    HW232369   5.998   1.051   6.891 -0.8642 -0.0091 -0.0858
10517SOL     OW32370   0.618   1.918   4.882 -0.0507 -0.0678  0.1678
10517SOL    HW132371   0.596   1.830   4.925 -1.4636  0.5904  0.8485
10517SOL    HW232372   0.631   1.904   4.784  0.6890 -1.1762  0.3985
10518SOL     OW32373   6.084   1.441   3.880  0.5866 -0.1240 -0.7634
10518SOL    HW132374   6.003   1.399   3.922  0.3890  0.7521 -0.2188
10518SOL    HW232375   6.156   1.373   3.870  0.4095 -0.5178  0.4190
10519SOL     OW32376   0.275   1.481   2.476  0.5341  0.7153 -0.0875
10519SOL    HW132377   0.332   1.561   2.456 -0.1471  1.5308  1.0867
10519SOL    HW232378   0.333   1.401   2.490  1.5640  1.8310  2.5913
10520SOL     OW32379   6.062   5.302   0.653 -0.6286 -0.4677  0.3222
10520SOL    HW132380   6.121   5.257   0.721 -1.1403 -1.2004  0.2967
10520SOL    HW232381   6.068   5.401   0.663 -0.1867 -0.5599  0.9971
10521SOL     OW32382   6.196   2.533   6.528  0.0087  0.2922  0.3587
10521SOL    HW132383   6.123   2.541   6.594 -1.0062 -0.7272 -0.5915
10521SOL    HW232384   6.209   2.620   6.481  0.1699  0.7796  1.2834
10522SOL     OW32385   6.701   6.171   0.718  0.0147  1.1341  0.0480
10522SOL    HW132386   6.714   6.226   0.800 -1.5617  0.6020  0.6863
10522SOL    HW232387   6.688   6.231   0.639  1.9252  1.6516  0.0735
10523SOL     OW32388   4.187   3.081   5.420  0.3085 -1.0982 -0.1947
10523SOL    HW132389   4.213   3.075   5.517 -0.3892 -1.8625 -0.0442
10523SOL    HW232390   4.247   3.147   5.374  0.1260 -0.1032  0.9354
10524SOL     OW32391   5.811   1.545   6.270  0.1592  0.4791 -0.2731
10524SOL    HW132392   5.887   1.498   6.226  2.3855 -1.0113  4.4319
10524SOL    HW232393   5.831   1.643   6.276  1.5240  0.1908  0.3573
10525SOL     OW32394   5.612   1.233   1.634  0.0799  0.1037 -0.0514
10525SOL    HW132395   5.570   1.149   1.666  0.0214  0.4751  0.8906
10525SOL    HW232396   5.574   1.311   1.684 -0.5329  0.8056 -1.5462
10526SOL     OW32397   4.397   6.873   1.514 -0.0404 -0.5281 -0.0156
10526SOL    HW132398   4.374   6.889   1.418  1.1230  0.8962 -0.0912
10526SOL    HW232399   4.370   6.952   1.569 -0.3490 -1.1660  0.7749
10527SOL     OW32400   4.581   3.345   5.523 -0.2540 -0.4255 -0.0845
10527SOL    HW132401   4.643   3.423   5.517  0.2779 -0.7772  0.6465
10527SOL    HW232402   4.610   3.284   5.597 -1.2600 -0.7899  0.0366
10528SOL     OW32403   6.061   4.731   5.088  0.1503  0.0865 -0.6592
10528SOL    HW132404   6.006   4.758   5.010 -1.9335 -0.9198  0.3915
10528SOL    HW232405   6.117   4.652   5.063 -1.8374 -1.3832 -0.7085
10529SOL     OW32406   1.161   5.251   4.539 -0.3889 -0.4839  0.3283
10529SOL    HW132407   1.171   5.161   4.497  0.4049 -0.1698 -0.1911
10529SOL    HW232408   1.066   5.281   4.534 -0.5096 -0.9540 -0.2057
10530SOL     OW32409   0.916   4.998   6.652 -0.4320 -0.3173  0.0160
10530SOL    HW132410   0.826   5.030   6.681 -0.9339 -0.9107 -0.8325
10530SOL    HW232411   0.918   4.898   6.655  0.2503 -0.3025  0.1653
10531SOL     OW32412   5.656   1.085   5.087 -1.0738 -0.1635  0.0600
10531SOL    HW132413   5.561   1.071   5.115 -1.0413  0.1234  0.3192
10531SOL    HW232414   5.659   1.150   5.012 -1.2073 -1.3442 -1.0063
10532SOL     OW32415   6.969   5.343   1.333  0.1880  1.1322 -0.1128
10532SOL    HW132416   7.032   5.403   1.382 -2.2429  3.8545 -0.0792
10532SOL    HW232417   6.877   5.355   1.369 -0.5853 -2.0756 -0.7310
10533SOL     OW32418   1.583   0.166   0.098 -0.2201  0.3941 -0.3257
10533SOL    HW132419   1.647   0.096   0.065 -1.9066 -0.1960 -2.6090
10533SOL    HW232420   1.629   0.223   0.166  1.8805 -1.5897  0.0541
10534SOL     OW32421   3.962   1.106   1.672 -0.1425  0.6604  0.4239
10534SOL    HW132422   4.048   1.157   1.675 -0.2626  0.9935 -0.9343
10534SOL    HW232423   3.893   1.161   1.626 -1.1256  0.4332  1.5908
10535SOL     OW32424   4.970   5.710   3.380 -0.0809 -0.1152  0.4745
10535SOL    HW132425   5.039   5.782   3.384  0.9942 -0.9046 -2.0979
10535SOL    HW232426   4.898   5.737   3.316  0.4654 -1.3899 -0.7206
10536SOL     OW32427   3.597   1.221   5.038 -0.2251 -0.2953 -0.7265
10536SOL    HW132428   3.535   1.280   4.987 -0.4857  0.2192  0.1677
10536SOL    HW232429   3.561   1.128   5.039 -1.1329  0.0529  0.0194
10537SOL     OW32430   5.773   6.901   6.937 -0.5671 -0.0691  0.1243
10537SOL    HW132431   5.693   6.898   6.876 -0.4870  0.4482 -0.0111
10537SOL    HW232432   5.836   6.971   6.905 -0.0357 -0.4982  0.2104
10538SOL     OW32433   0.012   1.728   2.945  0.1461 -0.1631 -0.1832
10538SOL    HW132434  -0.056   1.714   2.873 -0.0867 -1.4741  0.2516
10538SOL    HW232435   0.098   1.686   2.918  0.1001 -0.5303  0.2157
10539SOL     OW32436   2.392   2.945   3.827  0.1702  0.2972  0.0772
10539SOL    HW132437   2.351   2.882   3.761  2.4418 -0.3451 -0.7779
10539SOL    HW232438   2.407   2.896   3.913  0.9638 -0.0501 -0.2512
10540SOL     OW32439   0.574   5.660   6.039  0.2768 -0.4055  0.3021
10540SOL    HW132440   0.667   5.696   6.046  0.7643 -1.4410 -0.5266
10540SOL    HW232441   0.510   5.734   6.022  1.3134  0.0534 -1.9458
10541SOL     OW32442   4.836   1.294   0.938  0.1699  0.3811  0.3841
10541SOL    HW132443   4.781   1.376   0.956 -0.1089  0.4470 -0.6947
10541SOL    HW232444   4.933   1.315   0.952  0.1456  1.0638 -0.4445
10542SOL     OW32445   1.685   2.668   5.690 -0.7208  0.4268  0.4377
10542SOL    HW132446   1.630   2.714   5.620 -0.7463 -1.2985 -0.7524
10542SOL    HW232447   1.633   2.663   5.775 -1.6959  0.4320 -0.1359
10543SOL     OW32448   3.322   3.572   0.833  0.5195  0.6113  0.0314
10543SOL    HW132449   3.228   3.543   0.816  0.4197  0.6504  0.4884
10543SOL    HW232450   3.375   3.495   0.868  0.1763  1.0236  1.5384
10544SOL     OW32451   5.058   3.686   5.339 -0.6156  0.3137  0.5130
10544SOL    HW132452   5.004   3.757   5.385 -1.4559 -1.2171  2.0334
10544SOL    HW232453   4.996   3.617   5.300  0.1883 -0.3925  0.4517
10545SOL     OW32454   6.746   4.090   1.969  0.1622  0.5067 -0.0139
10545SOL    HW132455   6.819   4.035   2.011  0.8946  0.7579 -0.9393
10545SOL    HW232456   6.661   4.077   2.020  0.4787 -0.9863  0.1575
10546SOL     OW32457   3.048   3.490   0.803  0.0770  0.6086  0.2678
10546SOL    HW132458   2.978   3.460   0.868 -0.0847  0.0060 -0.1788
10546SOL    HW232459   3.077   3.413   0.746 -0.0081  1.1914 -0.5839
10547SOL     OW32460   5.975   6.699   3.491  0.8238 -0.6592 -0.3430
10547SOL    HW132461   6.037   6.719   3.566 -0.7918  1.1422  0.6108
10547SOL    HW232462   5.911   6.776   3.479  0.0348 -1.5687 -2.5499
10548SOL     OW32463   5.247   1.278   1.523 -0.0037 -0.3288 -0.0436
10548SOL    HW132464   5.258   1.180   1.538  1.6223 -0.2257 -0.4608
10548SOL    HW232465   5.181   1.294   1.449 -2.0763 -1.0062  1.5393
10549SOL     OW32466   4.651   5.889   5.461 -0.1582 -0.0512  0.1671
10549SOL    HW132467   4.618   5.967   5.513  0.2580 -0.1097  0.5222
10549SOL    HW232468   4.575   5.826   5.443 -1.3045  1.9635 -2.9671
10550SOL     OW32469   5.598   3.659   3.393 -0.4388  0.0073  0.1681
10550SOL    HW132470   5.607   3.712   3.477 -1.6463 -1.7293  1.4755
10550SOL    HW232471   5.665   3.585   3.393 -0.1251  0.2760 -0.6660
10551SOL     OW32472   0.979   1.356   2.115  0.5488 -0.0804  0.0067
10551SOL    HW132473   0.947   1.268   2.150 -1.7691  1.0638  1.0263
10551SOL    HW232474   0.903   1.404   2.072  1.9287  1.1599 -1.1599
10552SOL     OW32475   6.488   2.073   1.015 -0.3129  0.5564 -0.0372
10552SOL    HW132476   6.574   2.105   0.976  0.4035  0.6597  1.5319
10552SOL    HW232477   6.435   2.151   1.048 -0.6342  0.4372 -0.2707
10553SOL     OW32478   1.295   1.760   1.841 -0.1146  0.4831  0.4118
10553SOL    HW132479   1.277   1.689   1.773 -0.9610  2.6283 -1.7657
10553SOL    HW232480   1.330   1.718   1.925 -1.4984 -2.5470 -0.3814
10554SOL     OW32481   1.333   4.702   6.687  0.5908 -0.3820  0.1346
10554SOL    HW132482   1.407   4.689   6.753  0.9774 -2.1536 -0.6090
10554SOL    HW232483   1.332   4.626   6.623 -0.5341  0.7082 -1.1890
10555SOL     OW32484   3.722   2.319   1.171  0.2571  0.0720  0.5110
10555SOL    HW132485   3.768   2.269   1.098  1.1430 -0.3259  1.3255
10555SOL    HW232486   3.661   2.388   1.131  1.8547  0.8887 -0.5983
10556SOL     OW32487   3.617   0.235   6.999  0.2729  0.4358 -0.0310
10556SOL    HW132488   3.617   0.324   6.954  0.5091 -0.4712 -1.9051
10556SOL    HW232489   3.701   0.186   6.976 -0.2928 -0.6594  0.1677
10557SOL     OW32490   4.747   2.470   2.089  0.4131 -0.2899 -0.4140
10557SOL    HW132491   4.719   2.544   2.028  0.9902  0.5532  0.3104
10557SOL    HW232492   4.687   2.391   2.076 -1.7159  1.1069  0.4208
10558SOL     OW32493   3.686   4.695   3.603  0.7739  1.0485  0.3175
10558SOL    HW132494   3.668   4.729   3.511  1.1344  2.2079  0.6604
10558SOL    HW232495   3.730   4.605   3.597  0.1356  0.7742 -0.6116
10559SOL     OW32496   2.490   5.025   1.498 -0.5873  0.3080 -0.4861
10559SOL    HW132497   2.404   5.029   1.547  0.3722 -1.2812  1.4476
10559SOL    HW232498   2.542   4.944   1.526  1.9567  1.6846 -0.8409
10560SOL     OW32499   1.153   3.105   5.003  0.3381 -0.2589 -0.3211
10560SOL    HW132500   1.123   3.079   5.095 -1.1226 -0.9270 -0.9580
10560SOL    HW232501   1.079   3.088   4.937  2.3427 -2.7989 -2.1383
10561SOL     OW32502   3.161   6.408   4.600 -0.7438 -0.1424  0.0690
10561SOL    HW132503   3.192   6.372   4.688 -1.5356  0.8852  0.7920
10561SOL    HW232504   3.133   6.503   4.611 -2.0238 -0.3626 -1.0279
10562SOL     OW32505   1.435   5.112   1.229  0.3332  0.0409  0.9202
10562SOL    HW132506   1.441   5.084   1.324  1.6891  0.8104  1.0920
10562SOL    HW232507   1.410   5.034   1.172 -2.1123 -0.0918  2.0566
10563SOL     OW32508   5.754   6.899   3.414  0.5327  0.3132 -0.2256
10563SOL    HW132509   5.669   6.850   3.431 -0.3183  1.3910 -1.2274
10563SOL    HW232510   5.750   6.989   3.457  1.0025  0.5227 -0.6088
10564SOL     OW32511   0.939   4.379   4.727  0.6139 -0.1615 -0.1539
10564SOL    HW132512   1.016   4.315   4.734  0.6567 -0.2100 -0.9362
10564SOL    HW232513   0.854   4.328   4.723  0.6639 -0.2000 -1.0314
10565SOL     OW32514   0.361   0.218   6.524 -0.1492  0.0264 -0.2359
10565SOL    HW132515   0.300   0.138   6.525  1.0323 -0.9059 -0.3062
10565SOL    HW232516   0.454   0.189   6.545  0.0530  1.6424  1.3559
10566SOL     OW32517   6.316   5.331   0.951 -0.2654 -0.5162  0.0479
10566SOL    HW132518   6.231   5.278   0.959  0.4857 -1.4687  2.9351
10566SOL    HW232519   6.332   5.381   1.035  1.5166  0.5349 -0.8555
10567SOL     OW32520   6.532   3.238   3.359  1.0850  0.3369  0.3790
10567SOL    HW132521   6.444   3.193   3.345  0.3950  1.9058 -0.6050
10567SOL    HW232522   6.575   3.256   3.270  1.1383  1.9400  0.6974
10568SOL     OW32523   4.878   3.554   5.147  0.0787  0.1837  0.1204
10568SOL    HW132524   4.841   3.462   5.150  0.2437  0.1224  0.2555
10568SOL    HW232525   4.959   3.556   5.089  1.0436 -0.1060  1.4043
10569SOL     OW32526   1.703   0.562   1.497  0.2608  0.0571  0.1101
10569SOL    HW132527   1.639   0.490   1.526  0.0264  0.5201  0.7606
10569SOL    HW232528   1.774   0.522   1.439 -0.6452 -0.4636 -0.6793
10570SOL     OW32529   0.569   2.727   6.211 -0.3162  0.5183  0.2845
10570SOL    HW132530   0.504   2.673   6.264  1.4416 -1.3778  0.6681
10570SOL    HW232531   0.538   2.733   6.116 -1.2072 -0.1023  0.5253
10571SOL     OW32532   0.745   1.330   1.723  0.3095  0.0699 -0.3157
10571SOL    HW132533   0.819   1.336   1.655 -0.5867  1.0261 -1.2623
10571SOL    HW232534   0.662   1.296   1.678 -0.5027  1.4290  0.0962
10572SOL     OW32535   1.463   4.858   2.925 -0.1405 -0.6422 -0.1897
10572SOL    HW132536   1.377   4.827   2.966 -0.4128  1.8321  1.3281
10572SOL    HW232537   1.450   4.872   2.827 -1.2293 -1.0781 -0.1277
10573SOL     OW32538   4.620   6.138   4.622 -0.1909 -0.2934  0.0221
10573SOL    HW132539   4.682   6.176   4.553 -0.8897 -1.1530 -1.1288
10573SOL    HW232540   4.577   6.056   4.585 -0.2118 -1.0738  1.6939
10574SOL     OW32541   3.204   5.752   0.843  0.2214 -0.2715  0.4652
10574SOL    HW132542   3.202   5.851   0.829 -1.7388 -0.1891  1.0490
10574SOL    HW232543   3.279   5.729   0.906 -0.6576  1.1293  2.1170
10575SOL     OW32544   2.024   1.409   0.405 -0.2939 -0.0738 -0.0745
10575SOL    HW132545   2.053   1.369   0.319 -0.3037 -1.4411  0.5251
10575SOL    HW232546   2.078   1.491   0.425  3.1298 -2.3618  0.8840
10576SOL     OW32547   5.753   4.548   4.433  0.5364 -0.0704  0.4698
10576SOL    HW132548   5.759   4.469   4.372  0.8289  0.0705  0.3105
10576SOL    HW232549   5.659   4.561   4.462  0.4828 -0.4653  0.4800
10577SOL     OW32550   0.714   3.763   5.334 -0.2285  0.1935  0.0449
10577SOL    HW132551   0.741   3.684   5.280 -1.5797  1.0855 -2.0555
10577SOL    HW232552   0.639   3.738   5.395  1.4470 -0.8716  1.8018
10578SOL     OW32553   0.293   1.951   3.845 -0.6080 -0.1870  0.0230
10578SOL    HW132554   0.270   1.974   3.750 -1.0612  0.9879  0.4008
10578SOL    HW232555   0.366   2.012   3.877 -0.8932 -0.1580  0.6230
10579SOL     OW32556   1.775   2.906   4.354  0.5868 -0.2128  0.1563
10579SOL    HW132557   1.737   2.869   4.269  0.4486 -0.4693  0.3265
10579SOL    HW232558   1.729   2.993   4.375 -0.3726 -0.8301  0.6919
10580SOL     OW32559   5.282   1.179   6.710 -0.1920  0.4066  0.2231
10580SOL    HW132560   5.259   1.220   6.622 -0.9614  0.3227  0.3766
10580SOL    HW232561   5.209   1.117   6.738  0.2312  0.1232  0.7343
10581SOL     OW32562   1.111   1.400   4.149  0.4318  0.0293 -0.1450
10581SOL    HW132563   1.159   1.394   4.061 -0.5241  2.3697 -0.9012
10581SOL    HW232564   1.087   1.308   4.180  0.0707 -0.8552 -2.7588
10582SOL     OW32565   6.920   1.293   2.035 -0.2778 -0.0131  0.2104
10582SOL    HW132566   7.001   1.275   2.090  1.0256  1.9292 -0.9536
10582SOL    HW232567   6.877   1.378   2.066 -1.3545 -0.5333  0.2012
10583SOL     OW32568   6.288   2.633   6.261  0.0318 -0.0633 -0.7470
10583SOL    HW132569   6.208   2.572   6.259 -0.1380  0.0913  0.5296
10583SOL    HW232570   6.361   2.594   6.206 -0.4160 -0.9381 -0.7389
10584SOL     OW32571   6.597   0.616   0.086 -0.3634 -0.6949 -0.0451
10584SOL    HW132572   6.683   0.580   0.122 -0.9233 -0.5451  1.5123
10584SOL    HW232573   6.592   0.714   0.105 -0.7927 -0.6670 -0.2948
10585SOL     OW32574   1.940   1.667   2.270 -0.0681 -0.0982 -0.1952
10585SOL    HW132575   1.912   1.745   2.325 -0.0113  0.7463 -1.3186
10585SOL    HW232576   1.995   1.605   2.325 -1.3407 -0.1041  1.1196
10586SOL     OW32577   3.556   5.860   5.610 -0.0025  0.0602  0.1537
10586SOL    HW132578   3.652   5.840   5.628  0.5383  0.7787 -1.7005
10586SOL    HW232579   3.536   5.954   5.636 -0.5151 -0.4049  1.5385
10587SOL     OW32580   5.569   4.435   1.985 -0.1546 -0.2739 -0.3863
10587SOL    HW132581   5.498   4.387   1.933  1.8386 -1.0003 -2.5719
10587SOL    HW232582   5.610   4.506   1.929  1.4441 -0.4580  0.4779
10588SOL     OW32583   1.316   1.637   6.040  0.9822  0.2889 -0.2418
10588SOL    HW132584   1.252   1.683   5.979  2.8423 -0.1927 -2.7635
10588SOL    HW232585   1.365   1.705   6.095 -1.1981  0.6841  1.3278
10589SOL     OW32586   6.015   2.265   6.126  0.5991 -0.8207  0.2674
10589SOL    HW132587   5.992   2.280   6.029 -1.0583  1.5665  0.9362
10589SOL    HW232588   6.110   2.236   6.133  1.4688  1.1140 -1.9872
10590SOL     OW32589   6.138   1.495   6.934 -0.0038  0.5912 -0.3834
10590SOL    HW132590   6.058   1.455   6.891  0.0654  0.1407 -0.0914
10590SOL    HW232591   6.145   1.464   7.029  1.2197 -0.4081 -0.7659
10591SOL     OW32592   1.459   1.702   6.409 -0.6877 -0.2336 -0.1784
10591SOL    HW132593   1.412   1.741   6.488 -0.3438  0.7708 -0.4547
10591SOL    HW232594   1.430   1.750   6.326  0.7807  0.3894 -0.3582
10592SOL     OW32595   6.492   1.317   6.050  0.1927  0.5496 -0.0159
10592SOL    HW132596   6.446   1.315   6.139 -1.1150  0.2016 -0.6684
10592SOL    HW232597   6.487   1.226   6.009  1.4239  0.5316 -0.1465
10593SOL     OW32598   5.086   5.641   1.507 -0.0052  0.4379 -0.3568
10593SOL    HW132599   4.990   5.633   1.532 -0.0174 -2.4161 -1.0077
10593SOL    HW232600   5.102   5.595   1.420  2.2641 -0.8116  0.6468
10594SOL     OW32601   1.706   5.693   1.354  0.0012  0.3998  0.0962
10594SOL    HW132602   1.653   5.771   1.388 -1.3755 -0.6584  0.4668
10594SOL    HW232603   1.801   5.721   1.339 -0.4213  2.0838  0.4081
10595SOL     OW32604   3.955   3.384   2.651 -0.7403  0.6999 -0.1795
10595SOL    HW132605   3.985   3.342   2.565 -0.9311  1.2705 -0.5247
10595SOL    HW232606   3.994   3.333   2.728  3.0073  2.6721 -0.5743
10596SOL     OW32607   5.580   2.436   5.396  0.0368  0.1357 -0.0185
10596SOL    HW132608   5.527   2.513   5.431 -0.6810  0.6003 -2.0182
10596SOL    HW232609   5.648   2.469   5.330  1.1045 -0.7457  0.6055
10597SOL     OW32610   5.554   0.451   2.879  0.3119 -0.1699  0.2370
10597SOL    HW132611   5.588   0.411   2.794  0.0788  1.3538 -0.6071
10597SOL    HW232612   5.547   0.380   2.949 -0.0382 -1.5809 -1.1731
10598SOL     OW32613   0.227   2.315   6.219 -0.1085 -0.3070  0.2205
10598SOL    HW132614   0.296   2.243   6.225  0.2858 -0.0420 -0.8331
10598SOL    HW232615   0.144   2.279   6.178  0.2473 -0.0685 -0.7305
10599SOL     OW32616   5.698   5.403   1.027 -0.1938  0.1825 -0.2643
10599SOL    HW132617   5.732   5.329   1.086 -2.7935  1.1794  2.7839
10599SOL    HW232618   5.772   5.467   1.007  0.7547  0.0573  2.4638
10600SOL     OW32619   4.576   1.091   6.415 -0.1991  0.2433 -0.0647
10600SOL    HW132620   4.528   1.054   6.336  1.2156 -0.2606 -0.7105
10600SOL    HW232621   4.592   1.018   6.482  1.3358 -0.0575 -0.7124
10601SOL     OW32622   0.194   6.966   3.346 -0.8263 -0.4399  0.3886
10601SOL    HW132623   0.227   6.881   3.305 -1.4946 -0.7683  0.5310
10601SOL    HW232624   0.095   6.963   3.356 -1.0369  0.8991 -0.8760
10602SOL     OW32625   6.279   6.538   0.166  0.0885  0.0116 -0.5422
10602SOL    HW132626   6.252   6.446   0.196  1.8022 -0.2718  0.2317
10602SOL    HW232627   6.202   6.581   0.118 -0.1946 -2.5434 -2.6457
10603SOL     OW32628   1.051   3.472   1.370 -0.0460 -0.4014 -0.1704
10603SOL    HW132629   1.144   3.451   1.400  0.0298 -0.9248 -0.7540
10603SOL    HW232630   1.053   3.507   1.277 -0.5948 -2.4721 -1.0182
10604SOL     OW32631   2.618   4.569   2.138 -0.2553 -0.1705  0.0394
10604SOL    HW132632   2.606   4.646   2.201 -0.5192  0.6132 -0.9392
10604SOL    HW232633   2.535   4.557   2.083  1.2855  1.8823 -3.0838
10605SOL     OW32634   1.817   2.441   5.551 -0.7449  0.1351  0.3436
10605SOL    HW132635   1.749   2.495   5.601 -1.6712 -1.4704  0.8935
10605SOL    HW232636   1.794   2.442   5.454 -0.5058  1.0602  0.2874
10606SOL     OW32637   0.375   0.470   3.125  0.4173 -0.5270  0.8725
10606SOL    HW132638   0.416   0.403   3.187  1.9437  0.0718  0.5350
10606SOL    HW232639   0.420   0.465   3.036 -1.0483 -0.6494  0.1125
10607SOL     OW32640   5.161   5.387   6.233 -0.0071  0.5129 -0.0877
10607SOL    HW132641   5.166   5.420   6.327 -1.0615  3.2460 -0.9004
10607SOL    HW232642   5.102   5.306   6.230 -0.2961  0.6196  1.5340
10608SOL     OW32643   2.010   0.221   3.706 -0.2644  0.4712  0.9433
10608SOL    HW132644   2.057   0.267   3.782  1.5004  0.5075 -0.1244
10608SOL    HW232645   2.047   0.129   3.694  0.7365  1.0669 -0.9392
10609SOL     OW32646   0.497   0.147   4.028 -0.4587  0.8658 -0.4691
10609SOL    HW132647   0.542   0.174   4.113  1.6122 -1.9085 -0.5092
10609SOL    HW232648   0.406   0.110   4.048  0.8231 -1.8289  1.0026
10610SOL     OW32649   3.572   6.333   0.713 -0.2587  0.9029 -0.1490
10610SOL    HW132650   3.552   6.329   0.811 -0.3873 -1.9856 -0.1846
10610SOL    HW232651   3.670   6.320   0.699 -0.4107 -0.0796 -0.3988
10611SOL     OW32652   0.050   0.915   0.240 -0.4330 -0.1150 -0.2540
10611SOL    HW132653   0.108   0.937   0.319 -0.4426 -0.1898 -0.2266
10611SOL    HW232654  -0.016   0.989   0.226  0.5100  0.5953 -1.0685
10612SOL     OW32655   6.622   4.504   4.329  0.6840 -0.1967  0.2890
10612SOL    HW132656   6.588   4.504   4.234  1.6364  0.4427 -0.0704
10612SOL    HW232657   6.587   4.585   4.376 -0.3079 -0.8461  0.6891
10613SOL     OW32658   6.972   5.746   5.790 -0.1154 -0.8201  0.0076
10613SOL    HW132659   6.986   5.715   5.696  0.6886 -0.5114  0.0166
10613SOL    HW232660   6.913   5.681   5.839 -2.4986  0.2057 -1.3600
10614SOL     OW32661   4.333   2.683   5.986  0.1943  0.7987  0.1440
10614SOL    HW132662   4.399   2.610   6.001 -1.6384 -0.6204  1.9244
10614SOL    HW232663   4.303   2.682   5.891 -0.1357 -1.1140  0.2372
10615SOL     OW32664   6.819   5.165   3.906  0.0494 -0.0162  0.4859
10615SOL    HW132665   6.896   5.204   3.855 -0.3689  2.1847  1.4186
10615SOL    HW232666   6.828   5.188   4.003 -2.3990  1.4534  0.4390
10616SOL     OW32667   5.442   2.094   2.839  0.3832  0.3495 -0.4262
10616SOL    HW132668   5.367   2.115   2.902 -0.8611 -1.0589 -1.3734
10616SOL    HW232669   5.529   2.100   2.888 -0.5760 -1.5091  1.6946
10617SOL     OW32670   3.150   1.855   6.226  0.5851 -0.4638 -0.1160
10617SOL    HW132671   3.215   1.919   6.266  1.0794 -0.6487 -0.6045
10617SOL    HW232672   3.096   1.813   6.298 -0.7672  1.5586  0.1302
10618SOL     OW32673   0.824   3.249   4.653  0.4885 -0.0428  0.2822
10618SOL    HW132674   0.827   3.283   4.559 -2.4193 -0.0233  0.1058
10618SOL    HW232675   0.844   3.151   4.653  0.8377  0.0221 -0.2870
10619SOL     OW32676   6.350   1.239   3.461  0.0087  0.2920 -0.4126
10619SOL    HW132677   6.324   1.326   3.503 -1.2366  0.5460 -1.6258
10619SOL    HW232678   6.269   1.195   3.423  0.8181 -0.7716 -0.9659
10620SOL     OW32679   5.521   6.875   3.061 -0.0762  0.3796 -0.1202
10620SOL    HW132680   5.507   6.927   2.976  1.0061  0.7635 -0.0782
10620SOL    HW232681   5.605   6.822   3.054 -0.6111 -0.5530  0.2571
10621SOL     OW32682   1.214   2.019   6.493 -0.7442  0.2600  0.0571
10621SOL    HW132683   1.280   2.013   6.568 -1.6566  1.8107  1.0506
10621SOL    HW232684   1.132   1.966   6.516 -0.6454 -0.0499 -0.2897
10622SOL     OW32685   6.790   4.606   1.970  0.0773 -0.1644  0.0464
10622SOL    HW132686   6.816   4.527   1.914 -0.7099  0.2681 -0.9554
10622SOL    HW232687   6.868   4.668   1.979  0.8661 -1.2890  1.2851
10623SOL     OW32688   6.677   1.507   3.092  0.1226 -0.1470 -0.0514
10623SOL    HW132689   6.757   1.475   3.040  0.7460  0.0289  0.7699
10623SOL    HW232690   6.649   1.437   3.157 -0.2002 -0.0867 -0.1260
10624SOL     OW32691   4.615   1.836   5.503  0.1703  0.1591 -0.3247
10624SOL    HW132692   4.517   1.814   5.503 -0.4129  2.5409 -0.5059
10624SOL    HW232693   4.659   1.792   5.424 -0.4721 -1.8556  0.3661
10625SOL     OW32694   1.444   3.991   6.162  0.5397 -0.7842 -0.4185
10625SOL    HW132695   1.353   3.950   6.153  0.1438  0.3658 -2.4784
10625SOL    HW232696   1.435   4.085   6.196  1.0681 -1.0245  0.3996
10626SOL     OW32697   4.331   0.528   0.679  0.2582  0.2359 -0.2698
10626SOL    HW132698   4.387   0.531   0.763 -2.9911 -0.6722  2.1086
10626SOL    HW232699   4.280   0.443   0.676 -0.6048  0.7689 -2.6436
10627SOL     OW32700   0.111   0.664   2.889  0.4691 -0.0608 -0.6073
10627SOL    HW132701   0.042   0.707   2.947  0.3175  1.6065 -1.9312
10627SOL    HW232702   0.197   0.714   2.895  1.2869 -1.5090  0.2351
10628SOL     OW32703   5.289   1.550   2.784 -0.5389  0.0700 -0.2353
10628SOL    HW132704   5.364   1.610   2.810 -0.0137 -1.1370  1.1439
10628SOL    HW232705   5.202   1.596   2.800 -0.1308  0.8488 -0.2220
10629SOL     OW32706   1.947   0.842   2.155  0.2346  0.2933 -0.0775
10629SOL    HW132707   1.979   0.845   2.060  1.4722  1.7378  0.3453
10629SOL    HW232708   1.866   0.899   2.165 -0.4165 -0.5403 -0.4107
10630SOL     OW32709   6.888   5.624   0.436 -0.7723  0.0299  0.2052
10630SOL    HW132710   6.893   5.713   0.392 -0.6786 -0.2061 -0.2672
10630SOL    HW232711   6.793   5.603   0.458 -1.1622 -0.8592 -2.0209
10631SOL     OW32712   3.904   5.578   0.581 -0.7087 -0.0481  0.4349
10631SOL    HW132713   3.900   5.485   0.545  1.8149 -0.3719  0.8530
10631SOL    HW232714   3.888   5.576   0.680  0.3224 -0.1871  0.6079
10632SOL     OW32715   4.034   1.219   4.109 -0.2093 -0.3491 -0.6011
10632SOL    HW132716   4.106   1.152   4.131 -0.0055 -0.3104 -1.1409
10632SOL    HW232717   3.969   1.223   4.185  0.1229 -0.6980 -0.2884
10633SOL     OW32718   3.850   0.467   3.573  0.3161 -1.1071  0.1092
10633SOL    HW132719   3.864   0.552   3.523  0.8627 -0.3142  1.5713
10633SOL    HW232720   3.834   0.487   3.670  1.0242 -2.6906  0.5833
10634SOL     OW32721   4.832   0.674   2.131  0.4657 -0.5293 -0.0556
10634SOL    HW132722   4.783   0.610   2.072  1.2618 -0.9034 -0.3210
10634SOL    HW232723   4.813   0.653   2.227  1.3556 -1.6887 -0.1160
10635SOL     OW32724   6.306   1.083   0.229 -0.3525 -0.1026  0.9532
10635SOL    HW132725   6.230   1.137   0.265 -0.8671  1.8259 -2.5933
10635SOL    HW232726   6.269   1.007   0.174 -0.0555  2.2752 -2.8988
10636SOL     OW32727   0.146   2.155   3.018 -0.1276  0.4489 -0.6467
10636SOL    HW132728   0.124   2.222   3.089  2.5656 -0.1190  0.8831
10636SOL    HW232729   0.113   2.187   2.930 -2.8906  1.5733  0.6946
10637SOL     OW32730   5.935   4.341   6.278 -0.4079  0.1887 -0.4573
10637SOL    HW132731   5.867   4.381   6.217 -1.3115 -2.9164 -1.6665
10637SOL    HW232732   5.892   4.315   6.364  0.1674  1.6803  0.3120
10638SOL     OW32733   5.738   1.425   4.447 -0.4585 -0.2676 -0.3063
10638SOL    HW132734   5.728   1.430   4.347  1.5222  1.8303 -0.4753
10638SOL    HW232735   5.771   1.334   4.473 -2.5881 -1.4120 -1.3288
10639SOL     OW32736   3.139   6.996   6.045  0.0948 -0.6084 -0.6153
10639SOL    HW132737   3.151   6.971   5.949  0.7267 -1.9408 -0.2084
10639SOL    HW232738   3.128   6.914   6.100 -1.1846  0.1713  0.3584
10640SOL     OW32739   0.011   6.272   2.799  0.7113  0.0768 -0.3263
10640SOL    HW132740   0.020   6.173   2.804  0.3002 -0.1916 -3.2070
10640SOL    HW232741   0.093   6.315   2.837  1.0349 -1.3498  0.6634
10641SOL     OW32742   6.825   1.090   1.094 -0.4475 -0.0144  0.2245
10641SOL    HW132743   6.862   1.085   1.187  1.4170  0.9872 -0.4041
10641SOL    HW232744   6.841   1.181   1.057 -1.7154 -0.2137 -0.8759
10642SOL     OW32745   2.289   1.961   5.536 -0.0220 -0.0462  0.1268
10642SOL    HW132746   2.254   1.933   5.446  1.3480 -1.3994 -0.0249
10642SOL    HW232747   2.218   1.949   5.605 -1.0667  0.9149 -0.7369
10643SOL     OW32748   6.647   2.172   5.303 -0.1634  0.2761  0.3121
10643SOL    HW132749   6.564   2.179   5.247 -0.0350 -0.3004  0.0328
10643SOL    HW232750   6.624   2.135   5.393 -0.2850  0.6121  0.4179
10644SOL     OW32751   1.366   0.536   1.315 -0.3092 -0.5306  0.8425
10644SOL    HW132752   1.394   0.440   1.320  0.5356 -0.2992  0.7118
10644SOL    HW232753   1.443   0.591   1.281 -1.0081  0.0903  0.2275
10645SOL     OW32754   6.563   4.007   4.804 -0.3186  0.1480 -0.0664
10645SOL    HW132755   6.484   3.946   4.801 -0.7706  0.7136  0.1702
10645SOL    HW232756   6.542   4.091   4.754  1.2811 -0.9874 -2.9348
10646SOL     OW32757   4.589   4.790   3.724 -0.0495  0.3746  0.0994
10646SOL    HW132758   4.542   4.720   3.778 -0.7705  0.3138 -0.5831
10646SOL    HW232759   4.681   4.759   3.701 -1.1788 -1.5345 -2.3608
10647SOL     OW32760   2.635   4.255   1.743 -0.4406  0.0841 -0.3427
10647SOL    HW132761   2.672   4.343   1.713 -1.9011  0.4109 -1.2865
10647SOL    HW232762   2.696   4.181   1.714 -0.2114  0.6492 -1.3521
10648SOL     OW32763   2.642   5.954   1.018  0.2851 -0.1923  0.0522
10648SOL    HW132764   2.690   5.893   1.080 -0.1606  0.3791  0.9819
10648SOL    HW232765   2.699   5.972   0.937 -0.0652 -2.7660 -0.8416
10649SOL     OW32766   0.971   3.632   5.012 -0.3745 -0.0045 -0.0775
10649SOL    HW132767   0.964   3.728   4.984  0.3632  0.0197 -0.1949
10649SOL    HW232768   0.980   3.574   4.931 -1.6930 -0.2711 -0.0590
10650SOL     OW32769   4.458   5.265   1.430 -0.2450 -0.8985 -0.3830
10650SOL    HW132770   4.555   5.250   1.410  0.0961 -1.5304  1.5375
10650SOL    HW232771   4.437   5.229   1.521 -2.1626 -0.2411 -0.5261
10651SOL     OW32772   0.673   2.135   3.294  0.0380  0.0240  0.2202
10651SOL    HW132773   0.585   2.125   3.248  0.5698 -0.5363 -0.7028
10651SOL    HW232774   0.747   2.124   3.228  0.8159 -0.5609  1.1574
10652SOL     OW32775   1.286   6.741   0.503  0.0174 -0.5279  0.0748
10652SOL    HW132776   1.331   6.823   0.537 -0.4405  0.3641 -1.3527
10652SOL    HW232777   1.290   6.669   0.572  1.9531  0.1179  0.6840
10653SOL     OW32778   3.372   2.233   1.747  0.1283 -0.8188  0.0672
10653SOL    HW132779   3.339   2.156   1.692 -0.9485 -0.1218 -0.2810
10653SOL    HW232780   3.382   2.314   1.689 -0.8684 -0.1139  0.8503
10654SOL     OW32781   5.390   3.662   1.681 -0.2631 -0.6672  0.1382
10654SOL    HW132782   5.299   3.637   1.714 -0.5961 -1.5450 -1.3361
10654SOL    HW232783   5.405   3.760   1.695 -0.4491 -0.9266  2.5856
10655SOL     OW32784   4.202   3.394   1.385 -0.0666  0.2155  0.3433
10655SOL    HW132785   4.243   3.451   1.456 -2.0574  1.0964  0.8860
10655SOL    HW232786   4.104   3.384   1.403 -0.5458  0.0204 -1.9950
10656SOL     OW32787   5.134   5.453   5.646 -0.0024 -0.1872  0.2307
10656SOL    HW132788   5.055   5.425   5.700  1.2285  1.7849  3.3687
10656SOL    HW232789   5.117   5.543   5.606  0.2933 -0.1813  0.1151
10657SOL     OW32790   5.454   3.494   2.564  0.7769  0.3730  0.2213
10657SOL    HW132791   5.363   3.455   2.581 -0.8077  3.9751  0.9682
10657SOL    HW232792   5.479   3.481   2.468 -1.2097  0.5863 -0.3639
10658SOL     OW32793   2.629   0.793   2.185  0.1850 -0.9456  0.6449
10658SOL    HW132794   2.579   0.786   2.098  0.8499  3.0271 -0.2443
10658SOL    HW232795   2.566   0.816   2.258  0.2765  1.9156 -0.0713
10659SOL     OW32796   3.329   0.738   1.502  0.2122 -0.4017  0.4711
10659SOL    HW132797   3.295   0.659   1.451 -0.9093 -0.4119  1.2025
10659SOL    HW232798   3.361   0.807   1.438 -0.5317 -0.6897 -0.2315
10660SOL     OW32799   2.668   1.064   6.175 -0.2885  0.1302  0.1940
10660SOL    HW132800   2.696   0.970   6.158  0.0425  0.1692  0.5171
10660SOL    HW232801   2.600   1.066   6.248  1.7886  0.3679  2.2427
10661SOL     OW32802   0.884   2.273   3.987  0.6151 -0.4627  0.4293
10661SOL    HW132803   0.785   2.267   3.974  0.7259  0.6820 -1.2701
10661SOL    HW232804   0.906   2.260   4.084 -1.3232  0.6832  1.0852
10662SOL     OW32805   0.060   2.675   2.710 -0.1107  0.7769 -0.0873
10662SOL    HW132806   0.064   2.635   2.618  0.8210 -0.5101  0.4751
10662SOL    HW232807   0.132   2.744   2.719  0.3441  0.3122 -0.0806
10663SOL     OW32808   4.594   2.613   5.646  0.4627  0.0320 -0.6307
10663SOL    HW132809   4.646   2.665   5.713  1.6150 -2.4259  0.5241
10663SOL    HW232810   4.604   2.654   5.556  0.8077  2.0745  0.2780
10664SOL     OW32811   6.123   1.031   6.353 -0.0469  0.4405 -0.4289
10664SOL    HW132812   6.217   1.001   6.370  0.1625 -0.2856 -2.5663
10664SOL    HW232813   6.120   1.084   6.268 -1.5988  0.2977 -0.4928
10665SOL     OW32814   0.300   6.337   3.637 -0.2096 -0.1064 -0.5932
10665SOL    HW132815   0.254   6.313   3.552 -0.9438 -0.0727 -0.2174
10665SOL    HW232816   0.265   6.424   3.671  1.0100  0.5396 -0.9192
10666SOL     OW32817   1.230   2.136   5.012 -0.7420 -0.3218 -0.2102
10666SOL    HW132818   1.236   2.224   4.964  0.6641 -0.4333 -0.2939
10666SOL    HW232819   1.162   2.078   4.967  0.1053 -0.1964 -1.7482
10667SOL     OW32820   2.663   0.078   5.069  0.2452  0.4831  0.3036
10667SOL    HW132821   2.659   0.027   4.983  0.4088 -0.4437  0.8266
10667SOL    HW232822   2.750   0.059   5.115 -1.3602 -2.3045  2.5811
10668SOL     OW32823   6.376   0.824   4.832  0.2244 -0.0770 -0.0653
10668SOL    HW132824   6.455   0.785   4.785  1.4071  1.7634  0.2818
10668SOL    HW232825   6.305   0.848   4.766 -0.1681 -1.9144 -0.3629
10669SOL     OW32826   5.252   2.193   2.154  0.3202  0.3549  0.3362
10669SOL    HW132827   5.291   2.257   2.088 -2.2703 -1.1878 -3.0101
10669SOL    HW232828   5.320   2.124   2.178  1.9218  2.0631  0.9380
10670SOL     OW32829   0.742   1.466   0.435  0.4940  0.4176 -0.2805
10670SOL    HW132830   0.766   1.513   0.520 -1.8914  1.0366  0.1084
10670SOL    HW232831   0.689   1.384   0.456 -1.7204  1.5500 -1.1524
10671SOL     OW32832   3.718   1.107   6.957 -0.2677 -0.0152  0.0936
10671SOL    HW132833   3.634   1.157   6.938 -1.4826 -1.9668  0.0039
10671SOL    HW232834   3.775   1.159   7.021 -1.9870  0.9419  0.9135
10672SOL     OW32835   3.397   2.000   2.407 -0.5003  0.5146  0.0736
10672SOL    HW132836   3.449   1.992   2.492  2.3460  0.2534 -1.5608
10672SOL    HW232837   3.326   1.930   2.405 -0.5923  0.4812  2.1631
10673SOL     OW32838   0.916   1.652   3.733 -0.1915 -0.1813  0.7165
10673SOL    HW132839   0.874   1.732   3.775  0.9385 -0.1373  1.8181
10673SOL    HW232840   0.848   1.579   3.725 -1.4570  1.0955 -1.0422
10674SOL     OW32841   6.839   6.491   2.790 -0.8967  0.5670 -0.1845
10674SOL    HW132842   6.852   6.572   2.846  1.4565  0.4466 -0.4626
10674SOL    HW232843   6.920   6.433   2.795 -1.9454 -1.0807 -1.1223
10675SOL     OW32844   3.294   1.481   0.809  0.0532 -0.0778 -0.2994
10675SOL    HW132845   3.229   1.541   0.856 -0.5541 -1.3129  0.5041
10675SOL    HW232846   3.358   1.536   0.755 -0.3725  1.2793  0.5365
10676SOL     OW32847   5.161   1.783   5.151  0.0385 -0.0947  0.5512
10676SOL    HW132848   5.084   1.728   5.183  1.2482 -2.2828 -0.1121
10676SOL    HW232849   5.213   1.818   5.229 -1.4162  1.1946  0.9975
10677SOL     OW32850   2.827   2.209   2.080 -0.0850  0.4551  0.1125
10677SOL    HW132851   2.927   2.212   2.085 -0.0959 -0.1987  0.9113
10677SOL    HW232852   2.791   2.303   2.080  0.5722  0.7496 -1.6990
10678SOL     OW32853   5.079   1.607   6.923 -0.2514  0.5454  0.6194
10678SOL    HW132854   5.041   1.515   6.930  1.4126 -0.1321  1.0670
10678SOL    HW232855   5.005   1.674   6.933 -1.3127 -0.7187  1.6315
10679SOL     OW32856   5.512   6.484   3.372  0.6141 -0.3403  0.0071
10679SOL    HW132857   5.473   6.555   3.430 -0.9503  0.1357 -1.5412
10679SOL    HW232858   5.444   6.412   3.358  0.8381 -0.2938 -1.4591
10680SOL     OW32859   6.867   4.091   0.853 -0.3922 -0.2562 -0.3776
10680SOL    HW132860   6.829   4.184   0.860  0.2323  0.0709 -1.1696
10680SOL    HW232861   6.842   4.051   0.765  0.3648 -0.3636 -0.5534
10681SOL     OW32862   0.980   3.698   4.587 -0.3459 -0.6692 -0.3217
10681SOL    HW132863   1.037   3.698   4.505  0.5992  2.2989  0.2320
10681SOL    HW232864   1.006   3.620   4.645  2.1243 -0.2931 -0.8028
10682SOL     OW32865   4.368   1.747   3.688 -0.5628 -0.1607  0.6597
10682SOL    HW132866   4.463   1.732   3.662 -0.6056  0.7610 -0.0617
10682SOL    HW232867   4.308   1.692   3.629 -0.5617  0.5529 -0.0183
10683SOL     OW32868   3.531   4.514   2.738  0.1047 -0.6716 -0.5276
10683SOL    HW132869   3.443   4.538   2.779  0.7508  0.0921  0.4738
10683SOL    HW232870   3.522   4.431   2.684 -1.1834 -0.7075 -0.2751
10684SOL     OW32871   1.675   1.107   3.128 -0.9008 -0.6329  0.1856
10684SOL    HW132872   1.700   1.162   3.207  0.4052 -0.2440 -0.4808
10684SOL    HW232873   1.698   1.011   3.146  1.1427 -0.2902 -0.4040
10685SOL     OW32874   4.932   4.166   0.218  0.1349  0.3492  0.3106
10685SOL    HW132875   4.974   4.121   0.297 -1.2138 -0.3445  0.6607
10685SOL    HW232876   4.841   4.198   0.243  0.5858  2.2141 -0.3056
10686SOL     OW32877   5.822   4.887   6.470  0.1990  0.2308 -0.1571
10686SOL    HW132878   5.767   4.890   6.386  1.1032  0.3755 -0.7697
10686SOL    HW232879   5.787   4.954   6.535 -0.8389 -0.2438 -0.2081
10687SOL     OW32880   4.977   4.727   5.061  0.4376  0.3203  0.3412
10687SOL    HW132881   4.965   4.657   4.990  0.3635  1.0494 -0.3764
10687SOL    HW232882   4.953   4.817   5.024  0.1115  0.6773  1.3811
10688SOL     OW32883   0.894   6.641   0.283  0.0790  0.2225 -0.0473
10688SOL    HW132884   0.958   6.567   0.304  1.4692  1.2319 -0.6036
10688SOL    HW232885   0.851   6.622   0.194  1.2434  0.5768 -0.7131
10689SOL     OW32886   6.743   6.011   1.958 -0.5737  0.4152 -0.1128
10689SOL    HW132887   6.794   6.095   1.974 -0.1859  0.2412 -0.4369
10689SOL    HW232888   6.757   5.947   2.034 -1.2503  0.8238  0.3685
10690SOL     OW32889   0.006   6.574   6.960  0.7414  0.8283  0.0182
10690SOL    HW132890  -0.061   6.504   6.985  0.8487  0.9295  0.6089
10690SOL    HW232891   0.002   6.591   6.862 -0.5515  1.2776  0.1247
10691SOL     OW32892   6.449   3.181   1.044 -0.2379 -0.6964  0.3344
10691SOL    HW132893   6.522   3.237   1.005 -0.6991  0.6953  1.3855
10691SOL    HW232894   6.375   3.240   1.075 -1.8767 -2.0804 -0.7822
10692SOL     OW32895   6.324   5.645   3.003 -0.0253 -0.3176  0.5567
10692SOL    HW132896   6.305   5.717   3.070 -1.9468 -0.2397 -0.0300
10692SOL    HW232897   6.308   5.556   3.045 -2.6612 -0.2359 -0.1513
10693SOL     OW32898   5.260   4.675   4.848  0.0093 -0.1173 -0.5044
10693SOL    HW132899   5.269   4.580   4.878 -0.3772  0.1922  0.6706
10693SOL    HW232900   5.186   4.683   4.782 -0.4632 -0.5274 -0.0375
10694SOL     OW32901   6.801   4.789   6.996 -0.0618 -0.5239  0.1221
10694SOL    HW132902   6.874   4.724   6.972 -0.5436 -0.6686 -1.0200
10694SOL    HW232903   6.804   4.866   6.933 -0.2460 -0.0154  0.7308
10695SOL     OW32904   0.477   1.859   6.381 -0.2037  0.1167  0.0684
10695SOL    HW132905   0.402   1.886   6.442  1.0218 -1.5399  2.4745
10695SOL    HW232906   0.495   1.933   6.316 -2.2050  1.6098  1.0860
10696SOL     OW32907   4.898   3.047   6.800  0.4706 -0.7232  0.3702
10696SOL    HW132908   4.887   3.015   6.895  1.5986 -2.1161  0.0798
10696SOL    HW232909   4.996   3.051   6.779  0.2477  0.3417 -0.5012
10697SOL     OW32910   5.901   0.769   6.329  0.0716  0.2104  0.2239
10697SOL    HW132911   5.920   0.739   6.236  0.8100 -0.5761  0.6193
10697SOL    HW232912   5.803   0.784   6.340 -0.0270  0.2317 -0.6545
10698SOL     OW32913   4.028   4.899   6.800 -0.0635  0.2992 -0.0564
10698SOL    HW132914   3.948   4.853   6.840 -0.1245 -0.4059 -0.9520
10698SOL    HW232915   4.059   4.848   6.720 -0.2849  1.9453 -1.2413
10699SOL     OW32916   4.499   5.800   2.267 -0.0225  0.0955 -0.4213
10699SOL    HW132917   4.441   5.724   2.238  0.9933 -0.9058  0.0916
10699SOL    HW232918   4.441   5.876   2.295 -1.1090 -0.9726  0.3698
10700SOL     OW32919   0.858   5.367   4.292 -0.4253  0.2572  0.0087
10700SOL    HW132920   0.931   5.427   4.259  0.7047 -1.8221 -1.5570
10700SOL    HW232921   0.875   5.343   4.388  0.6339  0.2977 -0.1532
10701SOL     OW32922   1.127   5.684   5.380  1.0718 -0.4970 -0.1151
10701SOL    HW132923   1.092   5.607   5.328  1.5556 -0.7933  0.0007
10701SOL    HW232924   1.115   5.666   5.478 -0.5957  0.4063 -0.1089
10702SOL     OW32925   4.454   5.480   1.028  0.3021 -0.4134 -0.2240
10702SOL    HW132926   4.468   5.561   1.085  0.1968  0.9211 -2.0043
10702SOL    HW232927   4.418   5.508   0.939 -1.4511 -2.6102 -0.2750
10703SOL     OW32928   4.258   1.418   0.939  0.9114  0.5750 -0.2419
10703SOL    HW132929   4.289   1.465   0.857 -0.1224  0.7338 -0.5560
10703SOL    HW232930   4.336   1.377   0.986  1.5177  0.5575 -1.2518
10704SOL     OW32931   4.874   0.770   2.659  0.3406  0.7758 -0.5219
10704SOL    HW132932   4.942   0.768   2.585  1.0954  1.0018  0.1481
10704SOL    HW232933   4.908   0.716   2.736 -0.9693 -0.4648 -0.7630
10705SOL     OW32934   6.892   3.220   5.005 -0.2555 -0.3223  0.0046
10705SOL    HW132935   6.866   3.311   4.972  1.3476  0.0730 -0.2718
10705SOL    HW232936   6.980   3.225   5.051 -0.9973 -1.4392  1.6377
10706SOL     OW32937   5.567   4.055   4.504 -0.1661  0.0149  0.2867
10706SOL    HW132938   5.601   4.011   4.421 -1.9283 -1.1299  0.1255
10706SOL    HW232939   5.636   4.118   4.538  0.9680 -0.1679 -1.5246
10707SOL     OW32940   0.932   1.491   6.161  0.1771  0.0215  0.4701
10707SOL    HW132941   0.887   1.490   6.072  0.9849  0.6300  0.0367
10707SOL    HW232942   0.883   1.432   6.224 -0.0142 -0.9827 -0.5799
10708SOL     OW32943   0.061   6.955   1.486  0.5478  0.4002 -0.1055
10708SOL    HW132944   0.012   6.870   1.503  2.8624 -1.0947 -0.5290
10708SOL    HW232945  -0.005   7.029   1.475 -1.5240 -1.1907  0.8195
10709SOL     OW32946   0.019   3.246   2.662 -0.4938  0.3075  0.4517
10709SOL    HW132947  -0.073   3.224   2.692 -1.6004  0.0760 -2.7538
10709SOL    HW232948   0.019   3.335   2.616  0.9276  0.4285  0.6274
10710SOL     OW32949   2.332   5.517   2.035 -0.3695 -0.1285 -0.4367
10710SOL    HW132950   2.262   5.456   1.998  0.5998 -1.5431 -0.0166
10710SOL    HW232951   2.289   5.585   2.095 -1.4089 -0.8588 -0.3296
10711SOL     OW32952   2.143   3.076   0.994  0.0020 -0.5638  0.4208
10711SOL    HW132953   2.233   3.072   0.951 -0.0654 -0.5943  0.2814
10711SOL    HW232954   2.119   2.986   1.029 -1.2399 -1.3306 -2.1520
10712SOL     OW32955   4.222   5.051   1.253  0.3531  0.1488  0.4420
10712SOL    HW132956   4.218   5.140   1.210 -0.8513  0.3510  0.9222
10712SOL    HW232957   4.176   5.055   1.342 -3.1046 -1.7633 -1.0644
10713SOL     OW32958   5.131   4.260   2.567  0.2492  0.6299  0.2088
10713SOL    HW132959   5.213   4.237   2.618 -0.6631  1.0366  1.9328
10713SOL    HW232960   5.064   4.186   2.575  0.3697  0.3635 -1.0568
10714SOL     OW32961   6.252   6.002   0.018  0.4388  0.3514  0.1399
10714SOL    HW132962   6.213   5.920  -0.024 -2.3857  0.3471  2.4824
10714SOL    HW232963   6.296   5.978   0.104  0.4727  1.1673  0.3580
10715SOL     OW32964   4.386   3.898   3.119 -0.4687  0.4290  0.6381
10715SOL    HW132965   4.346   3.967   3.059 -2.2395  0.2433  1.5337
10715SOL    HW232966   4.426   3.825   3.064  1.7786  2.2803 -0.3354
10716SOL     OW32967   6.274   0.960   6.812  0.2650  0.0491 -0.6880
10716SOL    HW132968   6.315   1.009   6.736  0.2543 -0.8748 -1.3054
10716SOL    HW232969   6.319   0.988   6.897  1.4796 -0.1756 -1.2254
10717SOL     OW32970   5.976   6.296   0.362 -0.2572  0.1350  0.2309
10717SOL    HW132971   6.059   6.242   0.371  0.6299  1.6101  1.3812
10717SOL    HW232972   5.911   6.249   0.302 -0.0332 -2.7237  2.0780
10718SOL     OW32973   1.054   1.282   2.452  0.1760 -0.1275 -0.1332
10718SOL    HW132974   1.083   1.377   2.459  2.1159 -0.7567  1.3327
10718SOL    HW232975   1.089   1.242   2.367  1.8400 -0.2656  0.5798
10719SOL     OW32976   6.490   0.246   3.948  0.0225  0.6646  0.3225
10719SOL    HW132977   6.559   0.178   3.969  0.2165  0.9879  0.7333
10719SOL    HW232978   6.402   0.217   3.985  0.6253  1.8971  2.9267
10720SOL     OW32979   2.942   0.819   1.525  0.3880 -0.0646 -0.1644
10720SOL    HW132980   3.024   0.874   1.544  0.2151  0.1713 -0.0880
10720SOL    HW232981   2.922   0.821   1.427 -0.4905  1.2857  0.0047
10721SOL     OW32982   1.979   2.327   0.855 -0.0862  0.0407  0.4645
10721SOL    HW132983   2.003   2.355   0.762 -2.1398 -1.3869 -0.5543
10721SOL    HW232984   1.881   2.340   0.870  0.2996  0.8530  2.6967
10722SOL     OW32985   6.941   2.150   2.847 -0.0085 -0.0073  0.6737
10722SOL    HW132986   6.883   2.069   2.857 -0.0543 -0.2462 -1.1466
10722SOL    HW232987   6.909   2.222   2.908 -0.3911 -1.1044  1.8305
10723SOL     OW32988   0.822   6.143   0.802  0.1120 -0.7180 -0.0022
10723SOL    HW132989   0.885   6.219   0.789  0.8457 -1.4383 -0.7497
10723SOL    HW232990   0.729   6.178   0.810  0.4146  0.2414 -0.5377
10724SOL     OW32991   0.994   0.182   1.153  0.4091  0.3470 -0.1589
10724SOL    HW132992   1.065   0.116   1.178  0.4390 -0.3030 -1.8138
10724SOL    HW232993   1.036   0.272   1.142  0.9711  0.0062 -0.9422
10725SOL     OW32994   2.884   2.516   1.199  0.6382  0.0130 -0.1217
10725SOL    HW132995   2.788   2.536   1.180  0.0389 -1.8581  0.6856
10725SOL    HW232996   2.940   2.544   1.121 -0.6399  0.4819 -0.9029
10726SOL     OW32997   6.850   6.449   3.096  0.4425  0.0417  0.4196
10726SOL    HW132998   6.752   6.467   3.102  0.3157 -0.4186 -0.2008
10726SOL    HW232999   6.866   6.371   3.036  1.1861  0.0650  0.5795
10727SOL     OW33000   6.642   5.820   6.650 -0.3178 -0.0906  0.2160
10727SOL    HW133001   6.686   5.747   6.599 -0.4348 -1.1963  1.6356
10727SOL    HW233002   6.694   5.905   6.640  0.0533 -0.4640 -1.1065
10728SOL     OW33003   1.548   6.311   0.809 -0.0951  0.3867  0.6573
10728SOL    HW133004   1.489   6.304   0.889 -1.9604 -0.5804 -0.7345
10728SOL    HW233005   1.574   6.406   0.795 -1.6075  0.8960  1.1296
10729SOL     OW33006   4.424   2.018   3.572  0.0895  0.1907  0.0510
10729SOL    HW133007   4.347   2.054   3.520 -0.7761 -2.0789 -0.3386
10729SOL    HW233008   4.394   1.938   3.625  1.8277  0.1866  1.0895
10730SOL     OW33009   3.059   1.518   0.587 -0.8143  0.2648  0.4213
10730SOL    HW133010   3.062   1.585   0.662  0.7698 -0.3272  0.9201
10730SOL    HW233011   3.065   1.426   0.625 -2.9588 -0.2011 -0.2671
10731SOL     OW33012   6.945   5.651   4.166 -0.2444 -0.3389  0.1283
10731SOL    HW133013   6.867   5.712   4.178  0.2931  0.1408  1.3259
10731SOL    HW233014   6.921   5.578   4.102 -0.4539  1.8910 -2.5143
10732SOL     OW33015   5.268   3.717   2.977 -0.1148 -0.3469 -0.3119
10732SOL    HW133016   5.223   3.699   3.065  0.6081  0.8870  0.3377
10732SOL    HW233017   5.202   3.705   2.903 -0.6625 -1.6885  0.3669
10733SOL     OW33018   4.815   6.269   0.933 -0.3454 -0.1855  0.6116
10733SOL    HW133019   4.746   6.205   0.901 -0.7572 -0.4210  1.9075
10733SOL    HW233020   4.902   6.222   0.944 -0.0937 -0.0060 -0.5304
10734SOL     OW33021   2.235   5.561   1.535  0.0811  0.1090  0.0117
10734SOL    HW133022   2.184   5.571   1.450 -0.2888 -0.1981  0.1936
10734SOL    HW233023   2.201   5.626   1.603  0.9344  0.9280 -0.3316
10735SOL     OW33024   2.938   3.834   1.807 -0.2228 -0.0081 -0.1199
10735SOL    HW133025   2.886   3.775   1.869  0.6895 -0.3055  0.3837
10735SOL    HW233026   3.011   3.880   1.859  1.9391 -1.8900 -1.3379
10736SOL     OW33027   6.807   1.430   6.772 -0.7611 -0.1816 -0.4156
10736SOL    HW133028   6.871   1.440   6.849 -0.4061 -1.6647 -0.4891
10736SOL    HW233029   6.849   1.372   6.702 -1.5661  0.1585 -1.1826
10737SOL     OW33030   0.265   6.824   3.903 -0.4057  0.4782  0.0720
10737SOL    HW133031   0.297   6.741   3.950 -1.9941  0.0587  0.4827
10737SOL    HW233032   0.262   6.900   3.968 -0.2235  0.5267  0.0248
10738SOL     OW33033   4.954   6.893   2.552  0.2223  0.1590  0.3650
10738SOL    HW133034   5.028   6.839   2.593 -0.1103 -2.8045 -2.4726
10738SOL    HW233035   4.993   6.958   2.487  0.4575  0.9474  1.2764
10739SOL     OW33036   2.630   4.069   0.164 -0.0366  0.4880 -0.7723
10739SOL    HW133037   2.723   4.034   0.154  0.0952  0.3882  0.5710
10739SOL    HW233038   2.586   4.075   0.075  1.4082  0.9680 -1.4744
10740SOL     OW33039   0.556   0.273   5.988 -0.1671 -0.1673 -0.6100
10740SOL    HW133040   0.607   0.187   5.979  2.0686  0.8830  1.0124
10740SOL    HW233041   0.534   0.289   6.084  0.7077  1.6917 -0.6676
10741SOL     OW33042   0.938   6.669   0.723  0.3425 -0.6575  0.0539
10741SOL    HW133043   0.974   6.717   0.643  0.2248  0.2457  0.5204
10741SOL    HW233044   0.850   6.710   0.750 -0.5132 -2.1182 -0.4155
10742SOL     OW33045   4.386   1.467   4.834  0.5120  0.0789 -0.0172
10742SOL    HW133046   4.326   1.530   4.883  0.5731 -0.9925  1.5005
10742SOL    HW233047   4.335   1.420   4.762 -0.0792  0.2399  0.2955
10743SOL     OW33048   0.580   3.669   6.165 -0.3492  0.5167  0.2421
10743SOL    HW133049   0.497   3.675   6.219 -0.6973  2.0838 -0.4087
10743SOL    HW233050   0.569   3.599   6.094 -1.3090  1.0353 -0.1393
10744SOL     OW33051   1.657   4.519   0.591  0.2224  0.1599 -0.0429
10744SOL    HW133052   1.644   4.421   0.600  1.4254  0.0074  0.1056
10744SOL    HW233053   1.754   4.542   0.601 -0.1233  1.4349  0.5929
10745SOL     OW33054   3.766   6.822   4.114  0.1416  0.0122  0.3366
10745SOL    HW133055   3.745   6.918   4.097 -0.3995 -0.3637 -1.3350
10745SOL    HW233056   3.724   6.766   4.042 -0.9140 -1.6260  2.1517
10746SOL     OW33057   0.779   2.622   2.761 -0.2505 -0.0191  0.0775
10746SOL    HW133058   0.846   2.692   2.737 -0.0464  0.2240  1.3041
10746SOL    HW233059   0.755   2.570   2.679  0.4148  0.7657 -0.6398
10747SOL     OW33060   0.669   2.941   3.989 -0.5549  0.0930  0.1021
10747SOL    HW133061   0.634   3.023   4.036 -3.9445  0.3606 -2.5290
10747SOL    HW233062   0.715   2.969   3.904  1.8289 -0.6298  1.0630
10748SOL     OW33063   2.045   5.530   1.291 -0.5147 -0.3972  0.2947
10748SOL    HW133064   2.122   5.473   1.262  0.6440  0.8059  0.8649
10748SOL    HW233065   1.959   5.486   1.266  0.3178 -2.4004  0.7533
10749SOL     OW33066   1.991   6.774   2.872 -0.2548  0.1146 -0.3651
10749SOL    HW133067   2.007   6.870   2.850 -1.9887 -0.0503 -2.6510
10749SOL    HW233068   1.896   6.762   2.901 -0.5143 -1.1231 -1.6418
10750SOL     OW33069   2.759   2.558   0.739 -0.7845  0.1915 -0.0669
10750SOL    HW133070   2.674   2.534   0.693 -0.5771  0.8358 -0.8048
10750SOL    HW233071   2.783   2.653   0.719  0.2166 -0.0399 -0.0397
10751SOL     OW33072   2.707   4.393   6.227  0.2422  0.2815 -0.0124
10751SOL    HW133073   2.778   4.461   6.207 -0.5442  1.4572  1.1096
10751SOL    HW233074   2.618   4.426   6.196 -0.0562 -0.5474 -0.0774
10752SOL     OW33075   0.279   5.079   6.226 -0.2418 -0.1437  0.6863
10752SOL    HW133076   0.237   5.148   6.167  0.6948  1.6665  2.0432
10752SOL    HW233077   0.236   5.080   6.316  1.2388  0.2796  1.4310
10753SOL     OW33078   0.516   3.255   0.473  0.2662 -0.2356  0.3015
10753SOL    HW133079   0.526   3.156   0.461  0.5548 -0.4277  1.8924
10753SOL    HW233080   0.559   3.282   0.559 -0.7092  1.1315  0.3799
10754SOL     OW33081   0.020   4.473   4.981 -0.0528 -0.5182 -0.1780
10754SOL    HW133082   0.108   4.428   4.997 -0.5110 -0.9043  1.5459
10754SOL    HW233083  -0.028   4.427   4.906  0.7579 -0.9932 -0.4117
10755SOL     OW33084   5.949   1.392   1.424 -0.5533  0.5020 -0.5733
10755SOL    HW133085   5.999   1.340   1.354 -1.3939 -1.4782  0.2223
10755SOL    HW233086   5.876   1.444   1.379 -0.4101  0.1005 -1.3017
10756SOL     OW33087   3.892   1.586   0.841  0.3036 -0.2476  0.1072
10756SOL    HW133088   3.926   1.496   0.869 -1.2240 -0.8266  0.2293
10756SOL    HW233089   3.836   1.576   0.758 -0.8636  0.3872  0.7871
10757SOL     OW33090   4.326   2.018   6.020 -0.1363 -0.3498 -0.1294
10757SOL    HW133091   4.334   2.076   5.938 -1.0276 -0.0924 -0.0405
10757SOL    HW233092   4.232   1.987   6.030 -0.3039  0.5344  1.4081
10758SOL     OW33093   3.709   4.799   2.554 -0.6005  0.2793  0.6436
10758SOL    HW133094   3.730   4.757   2.642 -0.7174  0.8751  0.9571
10758SOL    HW233095   3.761   4.883   2.544 -0.7753  0.3421  0.2464
10759SOL     OW33096   1.974   0.179   3.087 -0.1997  0.4706 -0.2370
10759SOL    HW133097   2.020   0.225   3.163 -0.4540 -1.3797  1.1060
10759SOL    HW233098   1.959   0.083   3.111 -2.1893  0.3410 -1.7939
10760SOL     OW33099   3.351   5.591   3.003 -0.5367  0.6726  0.3285
10760SOL    HW133100   3.323   5.584   2.907 -0.1337 -1.3775  0.3138
10760SOL    HW233101   3.431   5.650   3.010  0.8109 -0.9203 -0.9518
10761SOL     OW33102   2.638   6.312   5.276  0.2738 -0.0274  0.0627
10761SOL    HW133103   2.566   6.290   5.211 -0.7002  0.0224  1.0893
10761SOL    HW233104   2.669   6.229   5.322  0.6724 -0.0114 -0.1746
10762SOL     OW33105   5.396   2.009   1.255 -0.3908  0.4340 -0.5846
10762SOL    HW133106   5.467   1.990   1.322 -1.5023  2.8499  1.4519
10762SOL    HW233107   5.308   1.977   1.290 -0.7858  0.3839 -1.5954
10763SOL     OW33108   4.121   1.451   5.801 -0.2819 -0.0568  0.1566
10763SOL    HW133109   4.191   1.382   5.817 -0.4626 -0.0676  0.9480
10763SOL    HW233110   4.091   1.447   5.705 -0.4100 -1.1930  0.2344
10764SOL     OW33111   4.275   5.072   5.009  0.2420 -0.4179 -0.0085
10764SOL    HW133112   4.288   5.011   4.931  0.4740 -0.1090 -0.2148
10764SOL    HW233113   4.364   5.095   5.049  0.0241 -3.1128  2.3545
10765SOL     OW33114   1.594   0.560   0.708  0.2658 -0.1321  0.0191
10765SOL    HW133115   1.673   0.600   0.756  1.1352 -0.7357 -0.8656
10765SOL    HW233116   1.626   0.511   0.627 -1.0630 -0.1251 -0.5321
10766SOL     OW33117   5.961   5.344   1.343  0.3844  0.2617  0.2717
10766SOL    HW133118   5.930   5.272   1.404  1.6417 -1.1496 -0.6725
10766SOL    HW233119   6.056   5.326   1.314  0.1564  1.3563 -1.3431
10767SOL     OW33120   0.675   0.032   3.826 -0.5978  0.2613 -0.1344
10767SOL    HW133121   0.585   0.058   3.859  0.5319  1.5262  2.2308
10767SOL    HW233122   0.698   0.085   3.745  0.0803  4.1868  2.3558
10768SOL     OW33123   2.325   0.456   6.043 -0.1477  0.2538  0.1382
10768SOL    HW133124   2.337   0.414   6.133  2.0687  0.4097 -0.0150
10768SOL    HW233125   2.309   0.385   5.974  1.1753 -0.1635  0.2339
10769SOL     OW33126   6.106   0.497   3.729  0.0384 -0.1980 -0.6431
10769SOL    HW133127   6.172   0.564   3.762 -0.3151 -0.6212  0.9900
10769SOL    HW233128   6.087   0.514   3.632  1.2321  0.9812 -0.6958
10770SOL     OW33129   6.277   2.290   5.738  0.2948  0.2488  0.4224
10770SOL    HW133130   6.372   2.316   5.755  0.4659 -0.4809  0.6435
10770SOL    HW233131   6.232   2.271   5.825 -0.4742  1.9493  0.4274
10771SOL     OW33132   5.804   1.437   3.250  0.3608 -0.4469  0.2657
10771SOL    HW133133   5.872   1.472   3.315  2.7830 -0.8307 -1.9329
10771SOL    HW233134   5.772   1.512   3.192 -1.0124 -0.3047  1.1693
10772SOL     OW33135   3.105   0.359   5.067  0.4813 -0.5073 -0.2913
10772SOL    HW133136   3.142   0.358   5.160 -0.4632  0.6245  0.1126
10772SOL    HW233137   3.006   0.366   5.070  0.4466 -0.2606 -1.4040
10773SOL     OW33138   2.235   4.584   0.702  0.0204  0.4372 -0.8308
10773SOL    HW133139   2.298   4.640   0.757 -0.6191 -0.0133  0.4068
10773SOL    HW233140   2.181   4.526   0.763  0.3466 -1.2133 -2.0432
10774SOL     OW33141   0.135   3.498   6.868  0.1192  0.3286  0.7833
10774SOL    HW133142   0.051   3.548   6.847 -0.4319 -1.1845 -0.8505
10774SOL    HW233143   0.209   3.563   6.886 -0.6497  1.7570 -0.8886
10775SOL     OW33144   1.452   0.143   4.775 -0.2519  0.6954 -0.0320
10775SOL    HW133145   1.366   0.156   4.726  0.8431 -0.2933 -2.3534
10775SOL    HW233146   1.524   0.199   4.733  0.4105  0.9824  1.4197
10776SOL     OW33147   6.966   0.476   4.063 -0.1887 -0.3512  0.2138
10776SOL    HW133148   6.969   0.505   4.158 -0.0303  0.3955 -0.0161
10776SOL    HW233149   7.024   0.535   4.008  0.1517 -1.1169 -0.2631
10777SOL     OW33150   5.107   3.396   6.101 -0.3330 -0.3138  0.5403
10777SOL    HW133151   5.134   3.478   6.153  1.2709 -0.9642  0.7725
10777SOL    HW233152   5.012   3.374   6.123 -1.2999  2.2615 -0.5716
10778SOL     OW33153   2.512   5.114   4.268  0.3012  0.7221  0.2457
10778SOL    HW133154   2.543   5.052   4.196 -1.0841  0.3436 -0.0571
10778SOL    HW233155   2.583   5.122   4.338 -0.0685 -2.5765  1.1767
10779SOL     OW33156   3.452   6.556   2.705  0.7198 -0.0779 -0.3865
10779SOL    HW133157   3.513   6.547   2.626  0.8287  0.1208 -0.3249
10779SOL    HW233158   3.450   6.651   2.735 -0.2891  0.0821 -0.9162
10780SOL     OW33159   1.190   0.892   1.584  0.3536 -0.3527 -0.0410
10780SOL    HW133160   1.090   0.892   1.572  0.1936  1.3676  0.9731
10780SOL    HW233161   1.232   0.840   1.510 -1.1892  0.5006 -1.6031
10781SOL     OW33162   3.703   4.166   0.964 -0.1560 -0.3356 -0.0627
10781SOL    HW133163   3.678   4.187   1.058 -0.0092 -0.1616 -0.0627
10781SOL    HW233164   3.620   4.164   0.907 -0.0649  1.4351 -0.2971
10782SOL     OW33165   2.064   0.435   3.548 -0.7167 -0.1059  0.0717
10782SOL    HW133166   2.027   0.351   3.590 -0.3653  0.1816  0.9969
10782SOL    HW233167   2.154   0.415   3.509 -0.8627 -0.2808 -0.1781
10783SOL     OW33168   6.080   5.007   6.777  0.2710 -0.0693  0.0763
10783SOL    HW133169   6.073   4.918   6.731 -0.7506 -0.2859  0.6154
10783SOL    HW233170   6.028   5.004   6.863  1.5166  0.5620  0.8805
10784SOL     OW33171   6.903   3.687   6.841  0.8671 -0.6890  0.4303
10784SOL    HW133172   6.929   3.782   6.824 -0.0977 -0.7821 -1.8814
10784SOL    HW233173   6.816   3.685   6.891  1.0534 -0.3683  0.7745
10785SOL     OW33174   4.416   3.163   5.969  0.5112 -0.1995  0.3959
10785SOL    HW133175   4.470   3.244   5.947  0.3160  0.1631  1.2255
10785SOL    HW233176   4.391   3.165   6.065  2.3028 -2.3155  0.9811
10786SOL     OW33177   4.218   4.416   1.670  1.2642 -0.2949 -0.2419
10786SOL    HW133178   4.284   4.433   1.743  0.7442 -0.0566  0.1742
10786SOL    HW233179   4.177   4.326   1.681  0.6419  0.0376  0.1880
10787SOL     OW33180   0.382   2.513   3.139 -0.3982 -0.4780  0.5797
10787SOL    HW133181   0.301   2.504   3.082 -1.2614  1.1501  1.4806
10787SOL    HW233182   0.360   2.487   3.233 -0.3480  1.4399  1.1675
10788SOL     OW33183   3.870   5.285   3.371 -0.3510  0.7156  0.2811
10788SOL    HW133184   3.850   5.301   3.275  0.4324  1.3128  0.2088
10788SOL    HW233185   3.789   5.309   3.426 -0.9372 -0.0038 -0.2395
10789SOL     OW33186   4.895   1.879   6.575  0.5671  0.0202 -0.4221
10789SOL    HW133187   4.799   1.866   6.598  0.5457  1.4306  0.3605
10789SOL    HW233188   4.903   1.899   6.477 -0.3957  3.6985  0.1112
10790SOL     OW33189   6.178   4.660   1.816 -0.2697 -0.1635  0.3916
10790SOL    HW133190   6.170   4.681   1.914  1.7842  0.3122  0.5037
10790SOL    HW233191   6.234   4.578   1.804 -0.6964 -0.3469 -0.3784
10791SOL     OW33192   1.826   5.561   4.916  0.1267  0.4862 -0.2994
10791SOL    HW133193   1.886   5.597   4.845  0.9318 -0.6991 -0.2389
10791SOL    HW233194   1.744   5.522   4.874 -0.1681  1.2440 -0.4470
10792SOL     OW33195   3.069   1.787   4.310 -0.6227 -0.7343  0.0626
10792SOL    HW133196   2.995   1.736   4.266  0.9315 -2.6034 -0.5564
10792SOL    HW233197   3.032   1.844   4.383 -2.8056 -0.5188 -1.1271
10793SOL     OW33198   2.677   3.320   4.322  0.2191 -0.3820  0.1621
10793SOL    HW133199   2.592   3.312   4.270 -0.0572 -1.6546  0.7847
10793SOL    HW233200   2.751   3.348   4.260 -0.2765 -1.0312 -0.7485
10794SOL     OW33201   6.446   2.898   5.951 -0.5893  0.3089 -0.1926
10794SOL    HW133202   6.528   2.944   5.918 -1.3704  1.6552 -0.3355
10794SOL    HW233203   6.371   2.964   5.958 -1.9002 -1.0381 -0.8644
10795SOL     OW33204   4.996   3.917   0.130  0.1069 -0.0061  0.1302
10795SOL    HW133205   4.921   3.982   0.115 -1.7696 -1.9531  0.5255
10795SOL    HW233206   5.007   3.900   0.227 -0.6143 -1.5200 -0.0230
10796SOL     OW33207   1.806   3.554   0.273  0.2320 -0.0094  0.1651
10796SOL    HW133208   1.771   3.630   0.218  0.3346 -0.3798 -0.4154
10796SOL    HW233209   1.843   3.483   0.213  0.4477 -0.3707  0.7157
10797SOL     OW33210   6.177   5.792   5.353  0.4945 -0.7853  0.6831
10797SOL    HW133211   6.249   5.800   5.283  0.0407 -1.2201  0.1571
10797SOL    HW233212   6.172   5.877   5.405  1.1698 -0.6319  0.5073
10798SOL     OW33213   0.939   0.100   5.934  0.0022  0.1526  0.1096
10798SOL    HW133214   0.957   0.189   5.892  0.2135  0.0580 -0.0018
10798SOL    HW233215   0.856   0.061   5.895  1.8164 -1.3564 -2.5806
10799SOL     OW33216   2.518   6.543   2.255  0.9656 -0.6549 -0.4091
10799SOL    HW133217   2.507   6.617   2.190  0.3826 -0.2269  0.1704
10799SOL    HW233218   2.473   6.566   2.341  0.8561 -1.6388 -0.1857
10800SOL     OW33219   0.159   6.365   1.254  0.3417 -0.7728  0.1220
10800SOL    HW133220   0.229   6.347   1.186  0.6975  2.7512 -0.6732
10800SOL    HW233221   0.092   6.431   1.217  1.2895  2.3799  3.3928
10801SOL     OW33222   1.662   3.667   0.506  0.0277 -0.2006  0.6447
10801SOL    HW133223   1.616   3.582   0.533  1.3570 -0.8304  1.0340
10801SOL    HW233224   1.722   3.649   0.427  0.3662  0.3524  0.7680
10802SOL     OW33225   1.825   0.763   3.884 -0.3886  0.7094  0.2604
10802SOL    HW133226   1.814   0.797   3.790 -0.0079 -2.1332 -0.9057
10802SOL    HW233227   1.910   0.799   3.922  0.8412 -0.1395 -1.5140
10803SOL     OW33228   4.852   2.396   3.673 -0.3954  0.0183 -0.6467
10803SOL    HW133229   4.918   2.351   3.613 -0.2107  0.5922 -0.8848
10803SOL    HW233230   4.845   2.492   3.648 -1.1413  0.0177 -0.4589
10804SOL     OW33231   6.659   1.547   0.133 -0.2025  0.1118  0.1357
10804SOL    HW133232   6.705   1.604   0.064  0.6295  0.2638  0.7967
10804SOL    HW233233   6.633   1.460   0.092 -1.2386  0.8361 -0.8195
10805SOL     OW33234   2.021   4.053   1.720  0.0902  0.4741 -0.4519
10805SOL    HW133235   1.943   4.116   1.716 -0.0059  0.6951  2.3361
10805SOL    HW233236   2.106   4.104   1.707 -0.0833  0.8749 -0.0608
10806SOL     OW33237   4.050   4.175   1.307 -0.1698  0.2514  0.1652
10806SOL    HW133238   4.029   4.078   1.318  0.6343 -0.0428 -0.7745
10806SOL    HW233239   4.096   4.190   1.219 -0.9028  1.5856 -0.0262
10807SOL     OW33240   5.902   4.095   4.770 -0.2761  0.2176 -0.0778
10807SOL    HW133241   5.890   4.001   4.737  1.2693 -0.3647  0.9455
10807SOL    HW233242   5.884   4.098   4.868  1.6572  0.5543  0.2915
10808SOL     OW33243   0.241   0.998   2.567  0.0190  0.3175  0.2422
10808SOL    HW133244   0.207   0.919   2.516  1.3621 -1.0873  1.4362
10808SOL    HW233245   0.165   1.042   2.614 -0.5193 -1.3963  1.0566
10809SOL     OW33246   4.194   4.528   0.886 -0.0066  0.1700 -0.0966
10809SOL    HW133247   4.273   4.501   0.831  0.7608 -0.9360  1.4778
10809SOL    HW233248   4.205   4.493   0.979 -3.3049 -1.7424 -0.3021
10810SOL     OW33249   1.585   2.051   2.478 -0.1326 -1.0616  0.2312
10810SOL    HW133250   1.568   2.149   2.483  1.1443 -0.6635 -2.1019
10810SOL    HW233251   1.533   2.005   2.551 -1.0484  1.2580  1.1502
10811SOL     OW33252   3.923   6.846   5.209  0.0470 -0.7095  0.1953
10811SOL    HW133253   3.865   6.765   5.217  1.4927 -1.8730 -0.5612
10811SOL    HW233254   4.016   6.818   5.187  1.0247  1.0610  1.7622
10812SOL     OW33255   1.456   5.395   1.308 -0.0681  0.2802 -0.4194
10812SOL    HW133256   1.379   5.333   1.321 -0.1795  0.8357  1.9316
10812SOL    HW233257   1.484   5.394   1.212 -1.6638 -1.4803 -0.9119
10813SOL     OW33258   3.622   4.160   0.223  0.1175  0.7414 -0.2477
10813SOL    HW133259   3.672   4.153   0.137  0.1351  0.9096 -0.2513
10813SOL    HW233260   3.623   4.072   0.270  2.6615  1.3329  1.0138
10814SOL     OW33261   5.116   1.324   2.747  0.6472  1.4534 -0.2350
10814SOL    HW133262   5.211   1.321   2.779  0.5670  0.5106 -0.0672
10814SOL    HW233263   5.066   1.393   2.799  0.2105 -0.8089  2.6257
10815SOL     OW33264   6.712   4.998   2.251 -0.2224 -0.3991 -0.0991
10815SOL    HW133265   6.740   4.901   2.251 -0.6992 -0.5402 -0.7452
10815SOL    HW233266   6.616   5.005   2.225 -0.3361  0.2162  0.4665
10816SOL     OW33267   6.087   4.990   1.619  0.7466 -0.0899 -0.3453
10816SOL    HW133268   6.128   4.937   1.693  4.8940  0.5038 -1.9163
10816SOL    HW233269   6.059   5.080   1.654 -1.4957 -1.3189  1.2584
10817SOL     OW33270   4.861   3.363   1.964 -0.3078 -0.1214 -0.2715
10817SOL    HW133271   4.952   3.398   1.944  0.5488 -1.1190  1.6662
10817SOL    HW233272   4.820   3.417   2.038 -0.2575 -1.1916  0.5543
10818SOL     OW33273   1.192   5.699   6.259 -0.3389 -0.6509 -0.0707
10818SOL    HW133274   1.283   5.693   6.217 -0.8191 -2.7053 -0.9178
10818SOL    HW233275   1.143   5.613   6.245 -1.9919 -0.0022  1.3977
10819SOL     OW33276   5.338   5.908   0.556 -0.1316  0.0629 -0.1918
10819SOL    HW133277   5.373   5.873   0.469  1.8696  2.3862 -0.4163
10819SOL    HW233278   5.394   5.875   0.631 -1.3978 -1.3197  0.1917
10820SOL     OW33279   0.489   2.215   4.170  0.9209 -0.1296  0.1286
10820SOL    HW133280   0.426   2.292   4.158  0.6840 -0.4206 -0.6088
10820SOL    HW233281   0.518   2.209   4.265 -0.0762  0.0846  0.4585
10821SOL     OW33282   5.364   2.556   3.411  0.7164 -0.2342  0.4320
10821SOL    HW133283   5.278   2.516   3.380  0.1504  1.9915 -1.0928
10821SOL    HW233284   5.346   2.635   3.470  1.7251 -0.0593  0.5355
10822SOL     OW33285   5.005   2.320   3.452 -0.2796 -0.2001  0.1288
10822SOL    HW133286   4.957   2.259   3.390 -0.8309  1.1504 -0.8132
10822SOL    HW233287   5.030   2.404   3.404  2.0700 -0.3855  0.8899
10823SOL     OW33288   4.090   5.485   5.887 -0.4145 -0.1586 -0.5251
10823SOL    HW133289   3.997   5.448   5.883 -1.5166  2.3855 -0.3799
10823SOL    HW233290   4.123   5.484   5.981 -0.4649 -0.6579 -0.5108
10824SOL     OW33291   0.982   6.212   4.406  0.1899 -0.0445  0.1772
10824SOL    HW133292   0.927   6.227   4.323 -1.0533  0.1034  1.0017
10824SOL    HW233293   1.070   6.171   4.381 -1.1897 -2.5122 -1.0006
10825SOL     OW33294   5.666   5.199   6.323  0.5208  0.1351  0.4366
10825SOL    HW133295   5.681   5.112   6.276  0.6704  0.9887 -1.1606
10825SOL    HW233296   5.629   5.266   6.258 -0.2962  1.0628  1.8148
10826SOL     OW33297   6.922   2.378   3.020 -0.5878  0.2917 -0.2780
10826SOL    HW133298   6.842   2.426   2.985 -0.0328  1.9153  0.5531
10826SOL    HW233299   6.908   2.357   3.117 -0.9552 -1.5718 -0.7098
10827SOL     OW33300   3.930   3.189   1.006  0.1944 -0.4416 -0.1964
10827SOL    HW133301   3.875   3.134   0.943 -1.4326  0.1386  0.6625
10827SOL    HW233302   3.905   3.285   0.996  2.3991  0.0925 -1.0775
10828SOL     OW33303   1.583   6.459   0.465 -0.0031 -0.2995  0.5731
10828SOL    HW133304   1.616   6.415   0.382 -0.5570  1.2774 -0.5259
10828SOL    HW233305   1.661   6.489   0.520  0.3891 -0.1000 -0.0806
10829SOL     OW33306   2.197   5.850   0.298 -1.4022  0.3161  0.1585
10829SOL    HW133307   2.203   5.791   0.379  0.0917  0.9065  0.5092
10829SOL    HW233308   2.109   5.897   0.298 -2.2663 -1.2211  0.3377
10830SOL     OW33309   5.762   2.631   2.051  1.0100  0.2323  0.2738
10830SOL    HW133310   5.687   2.697   2.047  1.0316  0.2249 -0.5574
10830SOL    HW233311   5.823   2.653   2.127 -0.1263 -0.0801  1.2867
10831SOL     OW33312   6.869   5.590   1.965 -0.3866 -0.4562 -0.1802
10831SOL    HW133313   6.926   5.580   2.047  0.4667  0.8437 -0.6019
10831SOL    HW233314   6.801   5.516   1.964  2.1720 -2.9773 -0.4147
10832SOL     OW33315   3.490   6.326   0.364  0.3172 -0.4584  0.0014
10832SOL    HW133316   3.464   6.386   0.439  1.4290 -0.2355  0.2102
10832SOL    HW233317   3.589   6.320   0.357  0.2462 -0.4200 -1.4918
10833SOL     OW33318   3.623   1.612   0.972  0.3803 -0.0865 -0.0474
10833SOL    HW133319   3.715   1.593   0.937  0.8648  3.0812 -0.8307
10833SOL    HW233320   3.619   1.587   1.069  0.9963 -3.1411 -0.6856
10834SOL     OW33321   0.004   1.782   0.373  0.0388 -0.2398  0.1227
10834SOL    HW133322   0.082   1.733   0.332 -0.6294  0.5059 -2.2432
10834SOL    HW233323  -0.060   1.807   0.300 -1.9727 -0.0177  1.8927
10835SOL     OW33324   3.495   6.853   1.860  0.1589 -0.2765 -0.1135
10835SOL    HW133325   3.587   6.842   1.899  0.0032 -1.0679  0.0459
10835SOL    HW233326   3.482   6.785   1.788 -0.7193 -0.9233  0.6408
10836SOL     OW33327   0.141   5.586   0.167  0.3279 -0.0055  0.0377
10836SOL    HW133328   0.169   5.682   0.163 -0.5989  0.2220 -2.0825
10836SOL    HW233329   0.169   5.548   0.255 -0.0766  2.4322  1.3210
10837SOL     OW33330   6.607   0.818   6.342 -0.4794  0.4862  0.0149
10837SOL    HW133331   6.636   0.731   6.382  0.2456  0.4712 -0.5114
10837SOL    HW233332   6.668   0.841   6.265 -1.8682  0.4614 -1.1335
10838SOL     OW33333   5.520   5.250   1.283  0.1613  0.0016  0.0433
10838SOL    HW133334   5.609   5.222   1.248  0.3991  2.6085 -1.7871
10838SOL    HW233335   5.494   5.338   1.241 -3.1028 -0.4729  0.7842
10839SOL     OW33336   3.919   1.681   0.163 -0.0080  0.1891 -0.0236
10839SOL    HW133337   3.917   1.781   0.163 -2.8321  0.2168 -1.1834
10839SOL    HW233338   3.912   1.647   0.069  0.3805 -1.1262  0.3950
10840SOL     OW33339   0.834   6.762   5.808 -0.0146 -0.4552  0.7208
10840SOL    HW133340   0.772   6.830   5.845 -0.7306  0.1598 -1.4526
10840SOL    HW233341   0.784   6.676   5.795 -1.1409  0.5538 -2.8111
10841SOL     OW33342   1.141   1.374   2.857 -0.4746  0.4788  0.1103
10841SOL    HW133343   1.118   1.290   2.907  1.5276  0.4243  1.0300
10841SOL    HW233344   1.083   1.448   2.890 -0.9959 -0.1387  0.6302
10842SOL     OW33345   0.945   4.128   3.008 -0.1140  0.4503 -0.5828
10842SOL    HW133346   0.863   4.172   2.972  0.3149  1.0572 -0.8250
10842SOL    HW233347   0.977   4.176   3.089  0.9668  1.2507 -1.4621
10843SOL     OW33348   3.114   5.899   5.999  0.1314 -0.0093  0.7373
10843SOL    HW133349   3.047   5.930   5.932  0.1869 -1.3832  0.0246
10843SOL    HW233350   3.190   5.964   6.002 -0.0825  0.2932 -0.2064
10844SOL     OW33351   6.972   1.387   3.361  0.4908 -0.5025  0.1392
10844SOL    HW133352   6.920   1.302   3.374 -0.3835  0.0234  0.1342
10844SOL    HW233353   6.924   1.462   3.406  1.5505 -0.1020  0.6286
10845SOL     OW33354   4.338   1.913   0.106 -0.2223  0.3472 -0.3626
10845SOL    HW133355   4.417   1.963   0.069 -0.3274 -0.9571 -2.5336
10845SOL    HW233356   4.254   1.961   0.081 -0.2914 -0.5129 -1.8976
10846SOL     OW33357   0.331   5.583   3.943 -0.1553 -0.2889 -0.5277
10846SOL    HW133358   0.281   5.611   4.025 -0.5582 -2.0425 -0.1321
10846SOL    HW233359   0.425   5.559   3.969  0.2013  0.7078 -0.8678
10847SOL     OW33360   1.613   6.843   0.221 -0.9801  0.2341  0.1285
10847SOL    HW133361   1.663   6.883   0.144 -0.8736  0.7316  0.4506
10847SOL    HW233362   1.676   6.824   0.296 -0.8473 -1.5085 -0.3781
10848SOL     OW33363   3.722   6.170   4.998  0.1734  0.6906 -0.2859
10848SOL    HW133364   3.733   6.071   5.008  2.4469  0.9680  0.7820
10848SOL    HW233365   3.659   6.190   4.924 -0.0387 -1.5549 -0.7720
10849SOL     OW33366   5.994   6.851   1.931 -0.2410 -0.1935  0.0012
10849SOL    HW133367   5.991   6.751   1.928  0.6972 -0.2124 -1.8998
10849SOL    HW233368   6.046   6.880   2.012 -0.1160 -1.2601  0.3202
10850SOL     OW33369   0.790   6.032   6.572 -0.0435 -0.5131 -0.6997
10850SOL    HW133370   0.802   6.114   6.628  0.2330 -1.4750  0.7146
10850SOL    HW233371   0.695   6.003   6.575  0.3582 -1.8278  1.1971
10851SOL     OW33372   1.227   0.458   5.176 -0.2505  0.4155  0.0833
10851SOL    HW133373   1.182   0.534   5.130  0.2558  1.0569  0.6183
10851SOL    HW233374   1.199   0.372   5.134  1.3881  1.0237 -2.5196
10852SOL     OW33375   4.535   4.886   4.206 -0.2696 -0.1874 -0.1483
10852SOL    HW133376   4.632   4.900   4.184 -0.1698 -0.9466 -0.2182
10852SOL    HW233377   4.486   4.857   4.124 -1.1941  3.0366 -0.8879
10853SOL     OW33378   0.405   5.150   4.102 -0.2671  0.0628 -0.0000
10853SOL    HW133379   0.469   5.189   4.168 -0.4662  0.8222 -0.2380
10853SOL    HW233380   0.425   5.187   4.011 -1.5719  1.0150  0.0625
10854SOL     OW33381   1.979   4.288   4.785 -0.5083  0.0662 -0.0496
10854SOL    HW133382   2.069   4.244   4.794  0.0941  1.5301  1.6659
10854SOL    HW233383   1.980   4.350   4.707 -0.0804 -0.0705 -0.1550
10855SOL     OW33384   3.357   0.747   5.034 -0.0402  0.3691  0.5258
10855SOL    HW133385   3.372   0.692   5.116  1.8402 -1.6440 -1.0670
10855SOL    HW233386   3.272   0.718   4.990  1.9879 -3.1906 -1.5332
10856SOL     OW33387   2.128   4.383   6.823  1.0921 -0.0304  0.7029
10856SOL    HW133388   2.062   4.326   6.872  2.8095 -0.2125  2.9775
10856SOL    HW233389   2.086   4.470   6.801 -1.2234 -1.6216 -1.8166
10857SOL     OW33390   0.515   3.828   6.930  0.3088  0.6289  0.9322
10857SOL    HW133391   0.559   3.743   6.899  1.0663  1.8241 -1.5751
10857SOL    HW233392   0.581   3.882   6.982  0.9755  1.1464 -0.3952
10858SOL     OW33393   2.657   1.688   4.421  0.1051  0.2047 -0.2941
10858SOL    HW133394   2.582   1.720   4.479  0.3520 -1.7692  1.2037
10858SOL    HW233395   2.620   1.637   4.344 -0.1299 -0.9267  0.5432
10859SOL     OW33396   1.760   4.642   3.250 -0.1085 -0.1943 -0.8909
10859SOL    HW133397   1.801   4.564   3.296 -2.6516 -1.2035 -0.1168
10859SOL    HW233398   1.824   4.719   3.251  2.9660 -2.5064 -2.7592
10860SOL     OW33399   4.722   5.909   4.099 -0.3081 -0.1789 -0.4095
10860SOL    HW133400   4.749   5.935   4.006 -0.7900 -1.8579 -1.0444
10860SOL    HW233401   4.684   5.817   4.098 -1.9801  0.4414  1.1759
10861SOL     OW33402   0.838   2.359   1.475 -1.0441 -0.1616 -0.4462
10861SOL    HW133403   0.929   2.326   1.503 -0.7994  0.6447 -0.2609
10861SOL    HW233404   0.814   2.440   1.528 -0.4802  1.5310 -2.6339
10862SOL     OW33405   1.238   2.730   4.846 -0.0096 -0.4468  0.2666
10862SOL    HW133406   1.297   2.652   4.825  0.8030  0.4748 -0.9865
10862SOL    HW233407   1.294   2.810   4.867 -0.7893  0.4340 -0.9019
10863SOL     OW33408   5.598   0.435   3.784 -0.0233 -0.1402  0.1669
10863SOL    HW133409   5.610   0.339   3.810 -1.1509  0.1698  2.0824
10863SOL    HW233410   5.526   0.442   3.715 -1.8956 -0.5332  1.9622
10864SOL     OW33411   4.519   6.969   5.534 -1.1937 -0.8282 -0.3418
10864SOL    HW133412   4.451   7.005   5.599  0.4012 -0.0216  0.9359
10864SOL    HW233413   4.605   7.017   5.545 -0.3114 -1.9824 -1.7885
10865SOL     OW33414   5.221   4.862   2.141 -0.0793  0.5719 -0.3047
10865SOL    HW133415   5.309   4.907   2.160 -0.1337  0.3902  0.4194
10865SOL    HW233416   5.183   4.827   2.227 -0.4279 -0.1414 -0.7444
10866SOL     OW33417   0.379   1.720   3.984  0.0779 -0.2848  0.3411
10866SOL    HW133418   0.354   1.792   3.919  0.8745  3.3055  3.6461
10866SOL    HW233419   0.457   1.669   3.948 -1.6525 -0.8730 -2.9467
10867SOL     OW33420   0.581   3.579   4.930 -0.3222  0.3039 -0.2181
10867SOL    HW133421   0.559   3.675   4.945 -0.0288  0.0068  2.5240
10867SOL    HW233422   0.617   3.567   4.837  2.1301  3.2742  0.2245
10868SOL     OW33423   2.842   6.743   0.698 -0.2712 -0.3388  0.0132
10868SOL    HW133424   2.884   6.768   0.785 -0.4723  0.2383 -0.0497
10868SOL    HW233425   2.788   6.660   0.710  0.1891 -0.6033  0.2940
10869SOL     OW33426   2.642   1.385   5.880  0.2822  0.2526 -0.0820
10869SOL    HW133427   2.643   1.449   5.957  0.6177  0.2425 -0.0790
10869SOL    HW233428   2.706   1.416   5.810  2.2558 -1.3140  0.9152
10870SOL     OW33429   5.447   0.627   4.384 -0.1634  0.2265  0.5318
10870SOL    HW133430   5.539   0.597   4.407 -1.0878 -1.5778  2.1424
10870SOL    HW233431   5.448   0.725   4.362  1.7854  0.7606  2.6388
10871SOL     OW33432   5.253   1.080   0.083 -0.7176  0.5546  0.1816
10871SOL    HW133433   5.227   0.988   0.056 -1.3826  0.7658  0.1053
10871SOL    HW233434   5.319   1.117   0.018 -1.2126  0.5124 -0.3493
10872SOL     OW33435   6.130   6.498   3.332  0.3534  0.1528  0.5554
10872SOL    HW133436   6.079   6.501   3.246  1.7147  3.1930 -0.3036
10872SOL    HW233437   6.076   6.541   3.405  0.8481  1.5070  0.1420
10873SOL     OW33438   2.190   3.943   0.187 -0.0902  0.4644 -0.2297
10873SOL    HW133439   2.239   3.909   0.107 -1.1662 -2.2849  0.1759
10873SOL    HW233440   2.246   3.927   0.269  0.4657  2.1080 -0.2471
10874SOL     OW33441   2.409   6.014   5.698 -0.0499 -1.1345 -0.0864
10874SOL    HW133442   2.398   6.113   5.704  2.0571 -0.8932  0.7929
10874SOL    HW233443   2.334   5.969   5.747 -0.4675  0.0639  0.4078
10875SOL     OW33444   6.150   5.609   5.592  0.0173 -0.1807 -0.1799
10875SOL    HW133445   6.160   5.661   5.507 -1.5091 -1.8788 -1.5039
10875SOL    HW233446   6.120   5.516   5.570 -0.9269 -0.5232  2.2641
10876SOL     OW33447   1.512   3.554   4.590 -0.2623  0.2094 -0.0669
10876SOL    HW133448   1.505   3.653   4.592 -0.7094  0.1632  1.8574
10876SOL    HW233449   1.424   3.513   4.613  0.2302 -0.6093  0.4074
10877SOL     OW33450   4.355   2.368   6.619 -1.0355 -0.7759  0.0956
10877SOL    HW133451   4.324   2.390   6.527 -1.2114 -1.7489 -0.0880
10877SOL    HW233452   4.385   2.273   6.623 -1.5482 -0.9147  1.1666
10878SOL     OW33453   2.702   6.079   2.036  0.2535  0.6064 -0.2856
10878SOL    HW133454   2.731   5.993   1.994 -0.1442  0.3013  0.0564
10878SOL    HW233455   2.706   6.071   2.136 -1.3365  0.4162 -0.2066
10879SOL     OW33456   6.722   2.903   6.394  0.1519  0.1256 -0.2405
10879SOL    HW133457   6.719   2.804   6.403  1.4759  0.1451  0.7195
10879SOL    HW233458   6.808   2.931   6.351  0.4190  0.9141  0.7582
10880SOL     OW33459   5.215   0.439   5.594 -0.2261 -0.0160  0.2883
10880SOL    HW133460   5.284   0.478   5.532 -0.6834  1.1265  0.4656
10880SOL    HW233461   5.149   0.510   5.618 -0.3527 -0.5790  1.6884
10881SOL     OW33462   0.535   5.589   2.275  0.1121 -0.3497 -0.7603
10881SOL    HW133463   0.571   5.580   2.368  0.7989  2.5244 -0.6486
10881SOL    HW233464   0.438   5.613   2.279 -0.1358 -1.2969 -0.8492
10882SOL     OW33465   1.560   0.892   3.617 -0.2581 -0.0424  0.0280
10882SOL    HW133466   1.652   0.858   3.597  1.2468  4.0158 -0.8451
10882SOL    HW233467   1.524   0.844   3.697  2.4677 -1.9481  0.2787
10883SOL     OW33468   0.490   4.406   2.734  0.9161  0.4457  1.0384
10883SOL    HW133469   0.468   4.503   2.725  0.1757  0.1718 -0.4156
10883SOL    HW233470   0.422   4.362   2.793 -0.4916  0.2934 -0.6031
10884SOL     OW33471   5.101   2.110   6.034 -0.2976 -0.7752 -0.9014
10884SOL    HW133472   5.011   2.119   6.075  0.2388  1.9192 -0.1077
10884SOL    HW233473   5.112   2.179   5.962  1.5444 -0.2073 -0.1237
10885SOL     OW33474   0.471   5.028   0.147 -0.5165 -0.1834  0.1970
10885SOL    HW133475   0.557   4.979   0.137 -0.0334  0.3822  1.3421
10885SOL    HW233476   0.395   4.963   0.143 -0.1257 -0.5794 -1.7119
10886SOL     OW33477   2.422   3.088   0.285  0.1116 -0.2897  0.2639
10886SOL    HW133478   2.498   3.151   0.302 -0.2512  0.0825  0.5298
10886SOL    HW233479   2.340   3.140   0.262  0.3405 -0.7521 -1.7431
10887SOL     OW33480   0.330   5.875   2.873 -0.2922 -0.0839 -0.2899
10887SOL    HW133481   0.363   5.797   2.927 -1.6872  0.2051  1.0287
10887SOL    HW233482   0.245   5.851   2.827 -0.5104  0.5273 -0.2182
10888SOL     OW33483   3.174   5.511   0.242  0.1102 -0.3001 -0.0374
10888SOL    HW133484   3.195   5.503   0.340  1.7204 -0.6071 -0.3833
10888SOL    HW233485   3.108   5.440   0.216 -0.6197  0.0189  0.8901
10889SOL     OW33486   5.372   6.226   1.509 -0.4759 -0.3452 -0.4788
10889SOL    HW133487   5.361   6.159   1.582 -1.4390  1.1941  0.8375
10889SOL    HW233488   5.382   6.178   1.422  2.4036 -2.2903  0.7686
10890SOL     OW33489   3.145   3.275   0.615 -0.1198 -0.3791 -0.5559
10890SOL    HW133490   3.242   3.288   0.595 -0.1121 -0.1292 -0.3670
10890SOL    HW233491   3.100   3.230   0.538  0.0281  0.0295 -0.8818
10891SOL     OW33492   6.133   3.996   3.603 -0.0975 -0.2166 -0.3877
10891SOL    HW133493   6.068   3.940   3.655 -0.0853  0.5232  0.4561
10891SOL    HW233494   6.226   3.963   3.618  0.2085  1.5750  2.2803
10892SOL     OW33495   3.790   0.444   2.053 -0.1972  0.1734  0.0904
10892SOL    HW133496   3.833   0.513   2.112 -0.5320  2.0724 -1.7316
10892SOL    HW233497   3.714   0.486   2.003  0.1454 -1.2740 -1.7722
10893SOL     OW33498   2.785   4.412   0.334  0.4989 -0.1692  0.6173
10893SOL    HW133499   2.766   4.318   0.360  0.0158 -0.0329  0.7731
10893SOL    HW233500   2.780   4.471   0.415  1.5671 -0.1169  0.6588
10894SOL     OW33501   2.902   1.449   2.014  0.1350 -0.2799 -0.6692
10894SOL    HW133502   2.947   1.382   1.955 -1.2863  0.1850 -2.3645
10894SOL    HW233503   2.907   1.540   1.971 -0.8452  0.0864 -0.0448
10895SOL     OW33504   2.594   1.406   5.033  0.1043  0.3851  0.2202
10895SOL    HW133505   2.669   1.367   4.980  1.1691  0.3398  1.6644
10895SOL    HW233506   2.632   1.454   5.113 -1.3164  2.0533 -0.0573
10896SOL     OW33507   0.361   3.313   1.904  0.1157  0.0396  0.2911
10896SOL    HW133508   0.458   3.297   1.888  0.3684  1.4515  0.2482
10896SOL    HW233509   0.349   3.404   1.944 -1.1579 -0.2761  0.6635
10897SOL     OW33510   1.893   1.081   6.758  0.7214  0.3453  0.6507
10897SOL    HW133511   1.963   1.078   6.686 -1.5437 -0.5991 -1.6426
10897SOL    HW233512   1.855   1.173   6.763  1.8919  0.8078  1.7638
10898SOL     OW33513   1.673   5.429   1.442 -0.2541  0.1666 -0.3066
10898SOL    HW133514   1.593   5.405   1.387 -1.5802  3.0267  0.2277
10898SOL    HW233515   1.700   5.523   1.423  0.5365  0.5772  2.3915
10899SOL     OW33516   2.142   0.704   5.242  0.8405  0.5269  0.2082
10899SOL    HW133517   2.116   0.609   5.259  2.2826  0.3132  1.3668
10899SOL    HW233518   2.085   0.742   5.169 -0.2855 -0.9743  0.2802
10900SOL     OW33519   6.752   5.489   5.412  0.0182 -0.2015  0.0091
10900SOL    HW133520   6.827   5.532   5.362  0.3006 -0.0448  0.5593
10900SOL    HW233521   6.672   5.550   5.411  0.6582  0.7135  1.4441
10901SOL     OW33522   0.161   6.424   0.797 -0.2946 -0.1164 -0.2137
10901SOL    HW133523   0.107   6.361   0.741 -0.2355 -0.3507 -0.0095
10901SOL    HW233524   0.157   6.396   0.892 -2.1087  1.4686  0.2460
10902SOL     OW33525   2.565   1.809   5.893  0.0169  0.1992  0.3657
10902SOL    HW133526   2.560   1.799   5.793  1.8575 -1.1720  0.3625
10902SOL    HW233527   2.650   1.855   5.917  0.7086 -1.4967  1.3607
10903SOL     OW33528   2.424   0.473   3.147  0.1892 -0.2939 -0.1323
10903SOL    HW133529   2.427   0.536   3.225 -2.4460 -0.8666  0.5241
10903SOL    HW233530   2.453   0.521   3.064  2.7153  0.4318  1.0632
10904SOL     OW33531   0.011   6.291   0.634 -0.1483  0.2881 -0.8567
10904SOL    HW133532   0.034   6.302   0.538  2.8652 -1.3330 -0.4342
10904SOL    HW233533  -0.011   6.195   0.653  0.9856  0.2331  0.3425
10905SOL     OW33534   1.382   1.890   1.613 -0.0898  0.2166 -0.0303
10905SOL    HW133535   1.373   1.846   1.703  0.7831  0.5291  0.2213
10905SOL    HW233536   1.453   1.843   1.561  0.1670  0.7106 -0.1322
10906SOL     OW33537   5.477   2.370   0.426  0.0608 -0.7924 -0.3493
10906SOL    HW133538   5.426   2.327   0.351 -0.3422  0.4421 -0.8028
10906SOL    HW233539   5.528   2.449   0.392 -0.7334  0.2568  0.7876
10907SOL     OW33540   4.834   2.129   6.078 -0.4766  0.4058 -0.2068
10907SOL    HW133541   4.820   2.226   6.095  2.3729  1.2035 -1.8052
10907SOL    HW233542   4.825   2.110   5.980  3.5672  0.1172 -0.6923
10908SOL     OW33543   6.843   5.020   0.891  0.0729 -0.2507  0.1142
10908SOL    HW133544   6.821   5.115   0.912  2.3608  0.0755  1.3150
10908SOL    HW233545   6.919   5.016   0.827 -0.5799 -1.2912 -0.6211
10909SOL     OW33546   6.414   6.200   3.026 -0.3497 -0.4040 -0.3373
10909SOL    HW133547   6.511   6.213   3.045 -0.5851 -1.5340  1.9951
10909SOL    HW233548   6.366   6.287   3.037  0.3267  0.1038 -1.2501
10910SOL     OW33549   6.011   4.928   4.387 -0.1916  0.2974  0.1639
10910SOL    HW133550   6.034   5.009   4.333 -0.8934  0.5331  0.2092
10910SOL    HW233551   5.929   4.886   4.350 -1.2314  0.9892  1.5726
10911SOL     OW33552   2.968   0.891   5.876 -0.4491 -0.1402 -0.4896
10911SOL    HW133553   2.989   0.916   5.782 -1.3983  3.2902  0.0856
10911SOL    HW233554   3.011   0.956   5.939 -1.8751 -0.8281  1.3188
10912SOL     OW33555   0.721   6.595   2.083  0.3853  0.2544 -0.7974
10912SOL    HW133556   0.665   6.675   2.062 -0.0236  0.2552  0.2313
10912SOL    HW233557   0.794   6.620   2.146  0.9910  0.0577 -1.4099
10913SOL     OW33558   1.401   5.394   3.519 -0.2609 -0.1924 -0.3875
10913SOL    HW133559   1.468   5.338   3.472  2.3522  1.4438  1.1385
10913SOL    HW233560   1.426   5.491   3.511 -2.7383  0.5566 -0.1373
10914SOL     OW33561   0.004   5.384   5.833  0.1308  0.5251  0.0712
10914SOL    HW133562  -0.054   5.372   5.752 -0.7553  0.2186  0.7257
10914SOL    HW233563  -0.032   5.458   5.890 -0.0934 -0.1755  0.8732
10915SOL     OW33564   2.248   1.336   0.706 -0.0089  0.0223  0.2494
10915SOL    HW133565   2.264   1.408   0.773  0.7250  0.6111 -0.5462
10915SOL    HW233566   2.166   1.284   0.732 -0.0117  0.5453  1.3267
10916SOL     OW33567   2.414   6.553   4.563  0.3044 -0.6600 -0.3036
10916SOL    HW133568   2.413   6.648   4.532 -1.0945 -0.3678  0.5426
10916SOL    HW233569   2.323   6.528   4.595  0.8876 -2.0004  0.3756
10917SOL     OW33570   3.140   3.577   3.893 -0.0688 -0.0863 -0.0021
10917SOL    HW133571   3.094   3.664   3.876 -0.6466 -0.5315 -0.7908
10917SOL    HW233572   3.132   3.519   3.812  0.6975 -0.7051  0.3520
10918SOL     OW33573   0.318   6.671   0.839  0.1808 -0.5748 -0.0685
10918SOL    HW133574   0.405   6.657   0.887  0.2484 -0.5146 -0.1724
10918SOL    HW233575   0.278   6.583   0.816  0.4244 -0.6045 -0.3954
10919SOL     OW33576   0.219   1.129   0.847 -0.5268 -0.0217 -0.0930
10919SOL    HW133577   0.165   1.194   0.794 -0.5236  0.1060  0.0607
10919SOL    HW233578   0.273   1.073   0.785 -1.6134 -0.8559 -0.3140
10920SOL     OW33579   0.916   2.859   0.790 -0.2015 -0.0197  0.7374
10920SOL    HW133580   0.962   2.821   0.710 -0.0236  0.4697  0.6086
10920SOL    HW233581   0.884   2.784   0.848 -0.9073 -0.4044 -0.1097
10921SOL     OW33582   4.361   0.726   4.003  0.4773 -0.1805  0.3139
10921SOL    HW133583   4.265   0.754   3.999 -0.0371 -1.8531  0.3405
10921SOL    HW233584   4.396   0.744   4.095  0.2529  0.5781  0.2631
10922SOL     OW33585   6.006   5.621   4.618  0.3121 -0.3935 -0.4489
10922SOL    HW133586   5.922   5.628   4.564  0.0027  0.0002  0.0733
10922SOL    HW233587   5.987   5.648   4.713  1.1680  0.3230 -0.4680
10923SOL     OW33588   1.976   5.414   0.565  0.5419  0.8741  0.2542
10923SOL    HW133589   2.033   5.427   0.484 -0.3030  0.6129 -0.3936
10923SOL    HW233590   1.880   5.432   0.542  0.1904  0.0251  1.0003
10924SOL     OW33591   2.717   2.595   1.834 -0.1577  0.2813  0.6501
10924SOL    HW133592   2.786   2.549   1.778 -0.8453  0.6601 -0.5657
10924SOL    HW233593   2.742   2.691   1.846 -1.0309  0.7473 -0.8659
10925SOL     OW33594   0.048   1.958   5.695 -0.3265  0.0196 -0.0022
10925SOL    HW133595   0.059   1.975   5.597 -0.5630 -2.1817 -0.4652
10925SOL    HW233596   0.107   2.020   5.746  0.9127  0.2309 -1.5995
10926SOL     OW33597   4.334   1.111   6.588 -0.0388  0.3657  0.6907
10926SOL    HW133598   4.424   1.086   6.552 -0.1817 -0.8733  1.1406
10926SOL    HW233599   4.286   1.029   6.616 -0.6642  1.1483  1.9874
10927SOL     OW33600   0.469   0.895   3.543 -0.3115 -0.0782 -0.3302
10927SOL    HW133601   0.429   0.892   3.451 -2.1287  1.3858  0.3367
10927SOL    HW233602   0.482   0.991   3.570 -0.0892 -0.4792  1.0498
10928SOL     OW33603   2.692   4.849   1.515 -0.3792  0.2613 -0.3442
10928SOL    HW133604   2.709   4.758   1.554 -1.7033  0.2798  0.3343
10928SOL    HW233605   2.753   4.916   1.556 -0.2081 -0.1224  0.0239
10929SOL     OW33606   2.181   5.592   3.692  0.8810  0.1984 -0.1247
10929SOL    HW133607   2.098   5.545   3.720  1.0608  0.1389  0.3111
10929SOL    HW233608   2.261   5.534   3.710  1.4977  1.9361  3.8215
10930SOL     OW33609   4.966   0.068   5.588  0.1665 -0.0390 -0.0361
10930SOL    HW133610   5.030   0.083   5.513  0.4163  0.4182  0.2636
10930SOL    HW233611   5.006   0.100   5.674  0.4070 -1.7448  0.5184
10931SOL     OW33612   5.415   3.674   5.962 -0.1116 -0.0431  0.4433
10931SOL    HW133613   5.492   3.610   5.971 -0.6958 -0.9162 -0.5749
10931SOL    HW233614   5.386   3.703   6.054  1.3173  0.1895  0.8475
10932SOL     OW33615   3.268   5.803   1.494 -0.0145 -0.8939 -0.5893
10932SOL    HW133616   3.171   5.806   1.470  0.0229 -0.5075 -0.7000
10932SOL    HW233617   3.323   5.819   1.412  0.1217 -0.0333 -0.3406
10933SOL     OW33618   5.680   6.859   2.040  0.2690  0.1001 -0.3207
10933SOL    HW133619   5.729   6.894   1.960 -0.0038 -0.0317 -0.5481
10933SOL    HW233620   5.629   6.934   2.083 -0.2126  0.0186 -0.7319
10934SOL     OW33621   3.266   3.187   2.031  0.3118  0.0661 -0.0264
10934SOL    HW133622   3.312   3.241   1.960  3.1347 -1.2441  0.6817
10934SOL    HW233623   3.239   3.246   2.106  1.5711  0.8120 -0.1347
10935SOL     OW33624   6.381   4.722   2.123 -0.7171 -0.6226  0.2136
10935SOL    HW133625   6.282   4.713   2.114 -1.0227  0.8184  1.6769
10935SOL    HW233626   6.425   4.634   2.103 -2.1316 -0.8849 -2.0254
10936SOL     OW33627   0.809   4.122   0.313 -0.0816  0.0315 -0.6094
10936SOL    HW133628   0.820   4.054   0.386  0.5431  1.0997  0.3246
10936SOL    HW233629   0.889   4.118   0.253  0.7304  0.9507  0.3495
10937SOL     OW33630   0.275   0.849   1.655  0.6223 -0.0546 -0.0410
10937SOL    HW133631   0.366   0.887   1.640  0.6636 -0.2209 -0.2262
10937SOL    HW233632   0.249   0.793   1.576  0.6584 -0.5925  0.3164
   7.00000   7.00000   7.00000
