CNT in water
33632
    1C        C    1   2.242   4.532   3.298
    1C        C    2   2.115   4.520   3.224
    1C        C    3   1.993   4.520   3.300
    1C        C    4   2.746   4.532   3.301
    1C        C    5   2.621   4.517   3.229
    1C        C    6   2.494   4.531   3.300
    1C        C    7   2.369   4.461   3.094
    1C        C    8   2.369   4.516   3.228
    1C        C    9   2.244   4.434   3.026
    1C        C   10   2.116   4.474   3.085
    1C        C   11   2.002   4.400   2.875
    1C        C   12   2.002   4.477   2.994
    1C        C   13   3.250   4.533   3.300
    1C        C   14   3.124   4.518   3.229
    1C        C   15   2.998   4.533   3.301
    1C        C   16   2.873   4.461   3.095
    1C        C   17   2.872   4.517   3.229
    1C        C   18   2.747   4.428   3.030
    1C        C   19   2.621   4.460   3.095
    1C        C   20   2.496   4.353   2.905
    1C        C   21   2.496   4.430   3.028
    1C        C   22   2.370   4.312   2.844
    1C        C   23   2.244   4.355   2.902
    1C        C   24   2.116   4.214   2.742
    1C        C   25   2.119   4.329   2.832
    1C        C   26   1.995   4.140   2.716
    1C        C   27   3.752   4.532   3.300
    1C        C   28   3.626   4.518   3.229
    1C        C   29   3.501   4.533   3.300
    1C        C   30   3.375   4.461   3.095
    1C        C   31   3.375   4.518   3.229
    1C        C   32   3.250   4.429   3.029
    1C        C   33   3.124   4.461   3.095
    1C        C   34   2.998   4.355   2.904
    1C        C   35   2.998   4.431   3.028
    1C        C   36   2.873   4.311   2.846
    1C        C   37   2.747   4.351   2.906
    1C        C   38   2.621   4.213   2.738
    1C        C   39   2.622   4.311   2.845
    1C        C   40   2.495   4.159   2.689
    1C        C   41   2.369   4.212   2.739
    1C        C   42   2.242   4.041   2.602
    1C        C   43   2.243   4.161   2.688
    1C        C   44   2.114   3.974   2.573
    1C        C   45   1.995   4.025   2.635
    1C        C   46   4.255   4.529   3.301
    1C        C   47   4.129   4.516   3.229
    1C        C   48   4.004   4.531   3.300
    1C        C   49   3.878   4.461   3.094
    1C        C   50   3.878   4.517   3.229
    1C        C   51   3.752   4.429   3.029
    1C        C   52   3.626   4.462   3.094
    1C        C   53   3.501   4.355   2.904
    1C        C   54   3.501   4.431   3.028
    1C        C   55   3.375   4.311   2.846
    1C        C   56   3.250   4.352   2.906
    1C        C   57   3.124   4.213   2.738
    1C        C   58   3.124   4.312   2.845
    1C        C   59   2.998   4.159   2.690
    1C        C   60   2.873   4.211   2.739
    1C        C   61   2.747   4.040   2.605
    1C        C   62   2.747   4.160   2.688
    1C        C   63   2.621   3.976   2.570
    1C        C   64   2.495   4.039   2.607
    1C        C   65   2.369   3.842   2.516
    1C        C   66   2.368   3.978   2.568
    1C        C   67   2.243   3.773   2.494
    1C        C   68   2.115   3.842   2.510
    1C        C   69   2.000   3.639   2.421
    1C        C   70   2.000   3.777   2.447
    1C        C   71   4.757   4.533   3.299
    1C        C   72   4.632   4.515   3.229
    1C        C   73   4.506   4.528   3.301
    1C        C   74   4.381   4.459   3.094
    1C        C   75   4.381   4.513   3.229
    1C        C   76   4.255   4.429   3.028
    1C        C   77   4.129   4.461   3.094
    1C        C   78   4.003   4.355   2.904
    1C        C   79   4.003   4.432   3.027
    1C        C   80   3.878   4.311   2.845
    1C        C   81   3.752   4.352   2.906
    1C        C   82   3.627   4.212   2.738
    1C        C   83   3.627   4.312   2.844
    1C        C   84   3.501   4.158   2.690
    1C        C   85   3.375   4.211   2.740
    1C        C   86   3.250   4.039   2.606
    1C        C   87   3.250   4.159   2.688
    1C        C   88   3.124   3.975   2.571
    1C        C   89   2.998   4.038   2.608
    1C        C   90   2.873   3.841   2.514
    1C        C   91   2.873   3.977   2.569
    1C        C   92   2.747   3.772   2.494
    1C        C   93   2.621   3.841   2.517
    1C        C   94   2.495   3.629   2.468
    1C        C   95   2.495   3.772   2.493
    1C        C   96   2.369   3.556   2.460
    1C        C   97   2.243   3.628   2.468
    1C        C   98   2.115   3.415   2.465
    1C        C   99   2.118   3.559   2.440
    1C        C  100   1.994   3.345   2.502
    1C        C  101   5.002   4.572   3.299
    1C        C  102   4.887   4.461   3.096
    1C        C  103   4.884   4.530   3.225
    1C        C  104   4.759   4.429   3.029
    1C        C  105   4.633   4.459   3.095
    1C        C  106   4.507   4.353   2.904
    1C        C  107   4.507   4.429   3.028
    1C        C  108   4.381   4.310   2.846
    1C        C  109   4.255   4.352   2.905
    1C        C  110   4.129   4.211   2.739
    1C        C  111   4.129   4.312   2.844
    1C        C  112   4.003   4.157   2.691
    1C        C  113   3.878   4.210   2.740
    1C        C  114   3.752   4.038   2.607
    1C        C  115   3.752   4.159   2.688
    1C        C  116   3.626   3.974   2.572
    1C        C  117   3.501   4.037   2.609
    1C        C  118   3.375   3.841   2.514
    1C        C  119   3.375   3.976   2.569
    1C        C  120   3.249   3.771   2.492
    1C        C  121   3.124   3.840   2.517
    1C        C  122   2.998   3.629   2.465
    1C        C  123   2.998   3.772   2.491
    1C        C  124   2.872   3.556   2.459
    1C        C  125   2.747   3.628   2.469
    1C        C  126   2.620   3.411   2.462
    1C        C  127   2.621   3.556   2.459
    1C        C  128   2.494   3.339   2.470
    1C        C  129   2.368   3.411   2.464
    1C        C  130   2.241   3.195   2.498
    1C        C  131   2.242   3.339   2.468
    1C        C  132   2.113   3.128   2.528
    1C        C  133   1.994   3.208   2.531
    1C        C  134   5.008   4.331   2.922
    1C        C  135   5.007   4.402   3.043
    1C        C  136   4.887   4.303   2.849
    1C        C  137   4.760   4.352   2.904
    1C        C  138   4.633   4.209   2.741
    1C        C  139   4.633   4.311   2.845
    1C        C  140   4.507   4.154   2.693
    1C        C  141   4.381   4.208   2.742
    1C        C  142   4.255   4.037   2.608
    1C        C  143   4.255   4.157   2.690
    1C        C  144   4.129   3.974   2.571
    1C        C  145   4.003   4.036   2.609
    1C        C  146   3.878   3.840   2.515
    1C        C  147   3.878   3.975   2.570
    1C        C  148   3.752   3.770   2.493
    1C        C  149   3.626   3.839   2.517
    1C        C  150   3.501   3.628   2.464
    1C        C  151   3.501   3.771   2.490
    1C        C  152   3.375   3.556   2.458
    1C        C  153   3.249   3.628   2.467
    1C        C  154   3.124   3.410   2.460
    1C        C  155   3.124   3.556   2.456
    1C        C  156   2.998   3.338   2.469
    1C        C  157   2.872   3.411   2.464
    1C        C  158   2.746   3.196   2.501
    1C        C  159   2.746   3.338   2.468
    1C        C  160   2.620   3.128   2.525
    1C        C  161   2.494   3.197   2.504
    1C        C  162   2.368   2.997   2.589
    1C        C  163   2.368   3.127   2.522
    1C        C  164   2.242   2.935   2.625
    1C        C  165   2.114   2.993   2.584
    1C        C  166   1.999   2.792   2.677
    1C        C  167   1.999   2.903   2.591
    1C        C  168   5.003   4.176   2.659
    1C        C  169   4.885   4.214   2.732
    1C        C  170   4.758   4.038   2.605
    1C        C  171   4.758   4.158   2.688
    1C        C  172   4.632   3.973   2.571
    1C        C  173   4.506   4.034   2.611
    1C        C  174   4.381   3.839   2.515
    1C        C  175   4.381   3.974   2.571
    1C        C  176   4.255   3.770   2.493
    1C        C  177   4.129   3.839   2.517
    1C        C  178   4.003   3.627   2.465
    1C        C  179   4.003   3.771   2.491
    1C        C  180   3.877   3.555   2.458
    1C        C  181   3.752   3.627   2.468
    1C        C  182   3.626   3.410   2.460
    1C        C  183   3.626   3.555   2.456
    1C        C  184   3.500   3.337   2.470
    1C        C  185   3.375   3.410   2.463
    1C        C  186   3.249   3.196   2.502
    1C        C  187   3.249   3.337   2.467
    1C        C  188   3.123   3.127   2.525
    1C        C  189   2.998   3.197   2.504
    1C        C  190   2.872   2.996   2.588
    1C        C  191   2.872   3.126   2.523
    1C        C  192   2.746   2.934   2.626
    1C        C  193   2.620   2.998   2.591
    1C        C  194   2.494   2.820   2.715
    1C        C  195   2.494   2.934   2.625
    1C        C  196   2.368   2.766   2.764
    1C        C  197   2.242   2.820   2.716
    1C        C  198   2.114   2.676   2.875
    1C        C  199   2.117   2.753   2.750
    1C        C  200   1.994   2.659   2.952
    1C        C  201   5.003   4.066   2.571
    1C        C  202   4.887   3.841   2.515
    1C        C  203   4.884   3.983   2.554
    1C        C  204   4.760   3.770   2.493
    1C        C  205   4.633   3.838   2.518
    1C        C  206   4.507   3.627   2.466
    1C        C  207   4.507   3.770   2.492
    1C        C  208   4.381   3.555   2.459
    1C        C  209   4.255   3.627   2.468
    1C        C  210   4.129   3.409   2.462
    1C        C  211   4.129   3.555   2.457
    1C        C  212   4.003   3.337   2.471
    1C        C  213   3.877   3.409   2.464
    1C        C  214   3.752   3.195   2.503
    1C        C  215   3.752   3.337   2.467
    1C        C  216   3.626   3.126   2.526
    1C        C  217   3.500   3.196   2.505
    1C        C  218   3.374   2.994   2.587
    1C        C  219   3.375   3.126   2.524
    1C        C  220   3.249   2.932   2.625
    1C        C  221   3.123   2.996   2.590
    1C        C  222   2.997   2.817   2.713
    1C        C  223   2.997   2.932   2.624
    1C        C  224   2.871   2.764   2.763
    1C        C  225   2.746   2.820   2.716
    1C        C  226   2.619   2.670   2.874
    1C        C  227   2.620   2.764   2.763
    1C        C  228   2.493   2.628   2.933
    1C        C  229   2.367   2.672   2.876
    1C        C  230   2.240   2.555   3.060
    1C        C  231   2.241   2.628   2.932
    1C        C  232   2.113   2.533   3.131
    1C        C  233   1.993   2.590   3.074
    1C        C  234   5.008   3.624   2.497
    1C        C  235   5.006   3.762   2.526
    1C        C  236   4.886   3.552   2.467
    1C        C  237   4.759   3.626   2.467
    1C        C  238   4.632   3.409   2.465
    1C        C  239   4.633   3.554   2.458
    1C        C  240   4.506   3.337   2.475
    1C        C  241   4.380   3.409   2.467
    1C        C  242   4.254   3.195   2.505
    1C        C  243   4.254   3.336   2.470
    1C        C  244   4.128   3.126   2.527
    1C        C  245   4.003   3.196   2.506
    1C        C  246   3.877   2.994   2.588
    1C        C  247   3.877   3.125   2.525
    1C        C  248   3.751   2.932   2.625
    1C        C  249   3.626   2.996   2.590
    1C        C  250   3.500   2.815   2.712
    1C        C  251   3.500   2.931   2.623
    1C        C  252   3.374   2.762   2.762
    1C        C  253   3.248   2.818   2.715
    1C        C  254   3.123   2.667   2.872
    1C        C  255   3.123   2.761   2.761
    1C        C  256   2.997   2.625   2.931
    1C        C  257   2.871   2.670   2.874
    1C        C  258   2.745   2.555   3.059
    1C        C  259   2.745   2.625   2.931
    1C        C  260   2.619   2.527   3.126
    1C        C  261   2.493   2.559   3.061
    1C        C  262   2.367   2.487   3.266
    1C        C  263   2.367   2.526   3.126
    1C        C  264   2.242   2.472   3.338
    1C        C  265   2.113   2.483   3.268
    1C        C  266   1.999   2.412   3.479
    1C        C  267   1.999   2.426   3.338
    1C        C  268   5.002   3.326   2.433
    1C        C  269   4.885   3.406   2.455
    1C        C  270   4.757   3.193   2.503
    1C        C  271   4.757   3.336   2.469
    1C        C  272   4.632   3.125   2.529
    1C        C  273   4.506   3.196   2.509
    1C        C  274   4.380   2.993   2.589
    1C        C  275   4.380   3.125   2.527
    1C        C  276   4.254   2.931   2.625
    1C        C  277   4.128   2.994   2.590
    1C        C  278   4.003   2.815   2.713
    1C        C  279   4.003   2.930   2.623
    1C        C  280   3.877   2.762   2.763
    1C        C  281   3.751   2.817   2.715
    1C        C  282   3.625   2.666   2.872
    1C        C  283   3.625   2.760   2.761
    1C        C  284   3.500   2.625   2.932
    1C        C  285   3.374   2.669   2.874
    1C        C  286   3.248   2.555   3.059
    1C        C  287   3.248   2.623   2.931
    1C        C  288   3.122   2.526   3.126
    1C        C  289   2.997   2.557   3.060
    1C        C  290   2.871   2.484   3.265
    1C        C  291   2.871   2.524   3.125
    1C        C  292   2.745   2.471   3.337
    1C        C  293   2.619   2.488   3.266
    1C        C  294   2.494   2.460   3.482
    1C        C  295   2.493   2.470   3.337
    1C        C  296   2.368   2.461   3.555
    1C        C  297   2.242   2.460   3.484
    1C        C  298   2.116   2.459   3.702
    1C        C  299   2.117   2.436   3.557
    1C        C  300   1.998   2.453   3.784
    1C        C  301   5.001   3.187   2.456
    1C        C  302   4.886   2.995   2.587
    1C        C  303   4.884   3.119   2.509
    1C        C  304   4.759   2.931   2.625
    1C        C  305   4.632   2.995   2.592
    1C        C  306   4.506   2.815   2.714
    1C        C  307   4.506   2.930   2.625
    1C        C  308   4.380   2.762   2.764
    1C        C  309   4.254   2.816   2.715
    1C        C  310   4.128   2.667   2.874
    1C        C  311   4.128   2.760   2.762
    1C        C  312   4.002   2.625   2.933
    1C        C  313   3.877   2.669   2.875
    1C        C  314   3.751   2.554   3.060
    1C        C  315   3.751   2.623   2.931
    1C        C  316   3.625   2.526   3.127
    1C        C  317   3.500   2.557   3.061
    1C        C  318   3.374   2.484   3.266
    1C        C  319   3.374   2.524   3.126
    1C        C  320   3.248   2.471   3.337
    1C        C  321   3.122   2.487   3.266
    1C        C  322   2.997   2.458   3.482
    1C        C  323   2.997   2.469   3.337
    1C        C  324   2.871   2.460   3.555
    1C        C  325   2.746   2.462   3.482
    1C        C  326   2.620   2.480   3.699
    1C        C  327   2.620   2.459   3.555
    1C        C  328   2.494   2.497   3.769
    1C        C  329   2.368   2.484   3.698
    1C        C  330   2.243   2.537   3.909
    1C        C  331   2.243   2.488   3.771
    1C        C  332   2.116   2.553   3.981
    1C        C  333   1.998   2.493   3.919
    1C        C  334   5.007   2.835   2.735
    1C        C  335   5.006   2.948   2.651
    1C        C  336   4.886   2.766   2.771
    1C        C  337   4.759   2.815   2.716
    1C        C  338   4.632   2.669   2.876
    1C        C  339   4.632   2.761   2.763
    1C        C  340   4.505   2.628   2.936
    1C        C  341   4.380   2.670   2.877
    1C        C  342   4.254   2.555   3.061
    1C        C  343   4.254   2.624   2.933
    1C        C  344   4.128   2.526   3.128
    1C        C  345   4.002   2.557   3.062
    1C        C  346   3.876   2.484   3.267
    1C        C  347   3.876   2.524   3.127
    1C        C  348   3.750   2.470   3.338
    1C        C  349   3.625   2.487   3.267
    1C        C  350   3.499   2.458   3.483
    1C        C  351   3.499   2.468   3.338
    1C        C  352   3.374   2.460   3.556
    1C        C  353   3.248   2.461   3.483
    1C        C  354   3.122   2.478   3.700
    1C        C  355   3.122   2.458   3.556
    1C        C  356   2.997   2.494   3.771
    1C        C  357   2.871   2.481   3.699
    1C        C  358   2.745   2.542   3.908
    1C        C  359   2.745   2.493   3.771
    1C        C  360   2.619   2.573   3.974
    1C        C  361   2.494   2.546   3.907
    1C        C  362   2.367   2.648   4.097
    1C        C  363   2.368   2.569   3.975
    1C        C  364   2.240   2.690   4.155
    1C        C  365   2.113   2.645   4.095
    1C        C  366   1.991   2.809   4.235
    1C        C  367   1.993   2.715   4.132
    1C        C  368   5.002   2.591   2.918
    1C        C  369   4.885   2.660   2.872
    1C        C  370   4.757   2.551   3.061
    1C        C  371   4.757   2.622   2.932
    1C        C  372   4.631   2.525   3.129
    1C        C  373   4.505   2.558   3.064
    1C        C  374   4.379   2.484   3.268
    1C        C  375   4.379   2.525   3.128
    1C        C  376   4.253   2.469   3.339
    1C        C  377   4.128   2.486   3.268
    1C        C  378   4.002   2.457   3.483
    1C        C  379   4.002   2.467   3.338
    1C        C  380   3.876   2.458   3.556
    1C        C  381   3.750   2.460   3.483
    1C        C  382   3.625   2.477   3.701
    1C        C  383   3.625   2.457   3.556
    1C        C  384   3.499   2.494   3.771
    1C        C  385   3.374   2.480   3.700
    1C        C  386   3.248   2.540   3.909
    1C        C  387   3.248   2.492   3.772
    1C        C  388   3.122   2.571   3.975
    1C        C  389   2.997   2.543   3.908
    1C        C  390   2.871   2.646   4.100
    1C        C  391   2.871   2.570   3.976
    1C        C  392   2.744   2.690   4.158
    1C        C  393   2.619   2.649   4.098
    1C        C  394   2.492   2.791   4.262
    1C        C  395   2.492   2.690   4.158
    1C        C  396   2.366   2.847   4.310
    1C        C  397   2.239   2.793   4.261
    1C        C  398   2.112   2.969   4.392
    1C        C  399   2.112   2.854   4.301
    1C        C  400   1.991   3.030   4.442
    1C        C  401   5.001   2.515   3.036
    1C        C  402   4.885   2.483   3.266
    1C        C  403   4.883   2.507   3.121
    1C        C  404   4.758   2.468   3.338
    1C        C  405   4.632   2.486   3.268
    1C        C  406   4.505   2.457   3.484
    1C        C  407   4.505   2.468   3.339
    1C        C  408   4.379   2.459   3.557
    1C        C  409   4.253   2.459   3.484
    1C        C  410   4.127   2.477   3.701
    1C        C  411   4.128   2.456   3.557
    1C        C  412   4.002   2.493   3.772
    1C        C  413   3.876   2.479   3.700
    1C        C  414   3.750   2.540   3.910
    1C        C  415   3.750   2.491   3.772
    1C        C  416   3.625   2.571   3.976
    1C        C  417   3.499   2.543   3.908
    1C        C  418   3.373   2.645   4.101
    1C        C  419   3.373   2.569   3.977
    1C        C  420   3.248   2.689   4.159
    1C        C  421   3.122   2.648   4.099
    1C        C  422   2.996   2.789   4.265
    1C        C  423   2.996   2.688   4.160
    1C        C  424   2.870   2.844   4.313
    1C        C  425   2.744   2.791   4.263
    1C        C  426   2.618   2.965   4.393
    1C        C  427   2.618   2.844   4.312
    1C        C  428   2.492   3.030   4.428
    1C        C  429   2.366   2.968   4.390
    1C        C  430   2.241   3.163   4.490
    1C        C  431   2.240   3.030   4.429
    1C        C  432   2.114   3.231   4.522
    1C        C  433   1.992   3.158   4.500
    1C        C  434   5.006   2.488   3.483
    1C        C  435   5.005   2.502   3.344
    1C        C  436   4.885   2.466   3.559
    1C        C  437   4.758   2.458   3.485
    1C        C  438   4.631   2.479   3.701
    1C        C  439   4.631   2.457   3.557
    1C        C  440   4.505   2.496   3.771
    1C        C  441   4.379   2.481   3.700
    1C        C  442   4.253   2.541   3.910
    1C        C  443   4.253   2.492   3.772
    1C        C  444   4.127   2.571   3.976
    1C        C  445   4.002   2.542   3.909
    1C        C  446   3.876   2.645   4.101
    1C        C  447   3.876   2.569   3.977
    1C        C  448   3.750   2.689   4.159
    1C        C  449   3.625   2.648   4.099
    1C        C  450   3.499   2.788   4.266
    1C        C  451   3.499   2.687   4.161
    1C        C  452   3.373   2.844   4.313
    1C        C  453   3.248   2.790   4.264
    1C        C  454   3.122   2.963   4.397
    1C        C  455   3.122   2.842   4.315
    1C        C  456   2.996   3.027   4.432
    1C        C  457   2.870   2.965   4.394
    1C        C  458   2.745   3.162   4.487
    1C        C  459   2.744   3.027   4.432
    1C        C  460   2.619   3.232   4.507
    1C        C  461   2.493   3.164   4.482
    1C        C  462   2.368   3.376   4.533
    1C        C  463   2.367   3.232   4.510
    1C        C  464   2.242   3.448   4.543
    1C        C  465   2.115   3.376   4.546
    1C        C  466   1.999   3.592   4.588
    1C        C  467   1.998   3.451   4.582
    1C        C  468   5.001   2.457   3.787
    1C        C  469   4.884   2.469   3.705
    1C        C  470   4.756   2.539   3.912
    1C        C  471   4.756   2.489   3.773
    1C        C  472   4.630   2.571   3.976
    1C        C  473   4.505   2.545   3.908
    1C        C  474   4.379   2.646   4.101
    1C        C  475   4.379   2.570   3.977
    1C        C  476   4.253   2.688   4.160
    1C        C  477   4.127   2.647   4.100
    1C        C  478   4.002   2.788   4.266
    1C        C  479   4.002   2.687   4.161
    1C        C  480   3.876   2.843   4.313
    1C        C  481   3.750   2.790   4.264
    1C        C  482   3.625   2.963   4.397
    1C        C  483   3.625   2.842   4.315
    1C        C  484   3.499   3.027   4.432
    1C        C  485   3.373   2.964   4.395
    1C        C  486   3.248   3.161   4.489
    1C        C  487   3.248   3.026   4.434
    1C        C  488   3.122   3.231   4.510
    1C        C  489   2.996   3.162   4.486
    1C        C  490   2.871   3.374   4.536
    1C        C  491   2.871   3.231   4.511
    1C        C  492   2.746   3.447   4.541
    1C        C  493   2.620   3.376   4.531
    1C        C  494   2.494   3.594   4.540
    1C        C  495   2.494   3.448   4.542
    1C        C  496   2.369   3.666   4.534
    1C        C  497   2.243   3.594   4.541
    1C        C  498   2.115   3.804   4.495
    1C        C  499   2.117   3.669   4.552
    1C        C  500   1.995   3.863   4.442
    1C        C  501   5.001   2.495   3.923
    1C        C  502   4.885   2.644   4.100
    1C        C  503   4.883   2.553   3.985
    1C        C  504   4.758   2.688   4.160
    1C        C  505   4.631   2.648   4.100
    1C        C  506   4.505   2.788   4.266
    1C        C  507   4.505   2.688   4.161
    1C        C  508   4.379   2.843   4.313
    1C        C  509   4.253   2.790   4.264
    1C        C  510   4.127   2.963   4.396
    1C        C  511   4.127   2.842   4.315
    1C        C  512   4.002   3.027   4.432
    1C        C  513   3.876   2.964   4.394
    1C        C  514   3.751   3.161   4.489
    1C        C  515   3.750   3.026   4.434
    1C        C  516   3.625   3.230   4.511
    1C        C  517   3.499   3.162   4.487
    1C        C  518   3.374   3.374   4.538
    1C        C  519   3.374   3.230   4.512
    1C        C  520   3.248   3.446   4.544
    1C        C  521   3.123   3.374   4.534
    1C        C  522   2.997   3.592   4.541
    1C        C  523   2.997   3.447   4.545
    1C        C  524   2.872   3.665   4.532
    1C        C  525   2.746   3.593   4.537
    1C        C  526   2.620   3.808   4.500
    1C        C  527   2.620   3.666   4.534
    1C        C  528   2.494   3.877   4.477
    1C        C  529   2.368   3.807   4.498
    1C        C  530   2.242   4.011   4.417
    1C        C  531   2.241   3.877   4.477
    1C        C  532   2.114   4.071   4.373
    1C        C  533   1.994   3.992   4.386
    1C        C  534   5.006   2.808   4.243
    1C        C  535   5.005   2.714   4.139
    1C        C  536   4.885   2.849   4.310
    1C        C  537   4.758   2.789   4.266
    1C        C  538   4.631   2.963   4.395
    1C        C  539   4.631   2.842   4.316
    1C        C  540   4.505   3.028   4.429
    1C        C  541   4.379   2.965   4.393
    1C        C  542   4.253   3.161   4.488
    1C        C  543   4.253   3.026   4.433
    1C        C  544   4.128   3.230   4.510
    1C        C  545   4.002   3.162   4.486
    1C        C  546   3.876   3.373   4.538
    1C        C  547   3.876   3.230   4.513
    1C        C  548   3.751   3.446   4.544
    1C        C  549   3.625   3.374   4.535
    1C        C  550   3.500   3.592   4.542
    1C        C  551   3.500   3.446   4.546
    1C        C  552   3.374   3.664   4.532
    1C        C  553   3.249   3.592   4.539
    1C        C  554   3.123   3.807   4.500
    1C        C  555   3.123   3.665   4.534
    1C        C  556   2.998   3.876   4.476
    1C        C  557   2.872   3.806   4.498
    1C        C  558   2.746   4.008   4.415
    1C        C  559   2.746   3.877   4.479
    1C        C  560   2.621   4.071   4.378
    1C        C  561   2.494   4.007   4.413
    1C        C  562   2.369   4.184   4.287
    1C        C  563   2.368   4.072   4.380
    1C        C  564   2.244   4.238   4.238
    1C        C  565   2.116   4.190   4.289
    1C        C  566   2.003   4.376   4.170
    1C        C  567   2.000   4.273   4.267
    1C        C  568   5.001   3.011   4.471
    1C        C  569   4.883   2.960   4.406
    1C        C  570   4.756   3.159   4.494
    1C        C  571   4.756   3.024   4.437
    1C        C  572   4.630   3.230   4.511
    1C        C  573   4.505   3.162   4.484
    1C        C  574   4.380   3.374   4.537
    1C        C  575   4.379   3.230   4.511
    1C        C  576   4.254   3.446   4.544
    1C        C  577   4.128   3.374   4.536
    1C        C  578   4.003   3.592   4.542
    1C        C  579   4.002   3.446   4.547
    1C        C  580   3.877   3.664   4.533
    1C        C  581   3.751   3.592   4.539
    1C        C  582   3.626   3.806   4.499
    1C        C  583   3.626   3.665   4.535
    1C        C  584   3.500   3.875   4.475
    1C        C  585   3.375   3.805   4.497
    1C        C  586   3.249   4.007   4.414
    1C        C  587   3.249   3.876   4.478
    1C        C  588   3.124   4.070   4.377
    1C        C  589   2.998   4.006   4.412
    1C        C  590   2.872   4.185   4.288
    1C        C  591   2.872   4.072   4.379
    1C        C  592   2.747   4.238   4.237
    1C        C  593   2.621   4.183   4.286
    1C        C  594   2.496   4.333   4.128
    1C        C  595   2.495   4.238   4.238
    1C        C  596   2.370   4.378   4.070
    1C        C  597   2.244   4.337   4.129
    1C        C  598   2.116   4.450   3.949
    1C        C  599   2.119   4.400   4.086
    1C        C  600   1.995   4.458   3.873
    1C        C  601   5.000   3.137   4.535
    1C        C  602   4.885   3.369   4.540
    1C        C  603   4.882   3.223   4.533
    1C        C  604   4.758   3.444   4.545
    1C        C  605   4.632   3.373   4.534
    1C        C  606   4.506   3.591   4.539
    1C        C  607   4.506   3.446   4.545
    1C        C  608   4.380   3.663   4.531
    1C        C  609   4.254   3.591   4.539
    1C        C  610   4.129   3.805   4.499
    1C        C  611   4.128   3.664   4.535
    1C        C  612   4.003   3.874   4.475
    1C        C  613   3.877   3.805   4.497
    1C        C  614   3.752   4.007   4.413
    1C        C  615   3.751   3.876   4.477
    1C        C  616   3.626   4.069   4.376
    1C        C  617   3.500   4.005   4.411
    1C        C  618   3.375   4.186   4.288
    1C        C  619   3.375   4.071   4.378
    1C        C  620   3.249   4.239   4.238
    1C        C  621   3.124   4.184   4.286
    1C        C  622   2.998   4.334   4.128
    1C        C  623   2.998   4.240   4.239
    1C        C  624   2.872   4.375   4.068
    1C        C  625   2.747   4.331   4.126
    1C        C  626   2.621   4.447   3.941
    1C        C  627   2.621   4.377   4.069
    1C        C  628   2.495   4.476   3.875
    1C        C  629   2.369   4.446   3.942
    1C        C  630   2.241   4.519   3.736
    1C        C  631   2.242   4.480   3.879
    1C        C  632   2.113   4.526   3.664
    1C        C  633   1.992   4.500   3.739
    1C        C  634   5.007   3.583   4.511
    1C        C  635   5.005   3.443   4.514
    1C        C  636   4.887   3.662   4.521
    1C        C  637   4.759   3.591   4.538
    1C        C  638   4.633   3.805   4.496
    1C        C  639   4.633   3.664   4.532
    1C        C  640   4.506   3.873   4.472
    1C        C  641   4.380   3.804   4.495
    1C        C  642   4.254   4.006   4.412
    1C        C  643   4.254   3.875   4.476
    1C        C  644   4.129   4.068   4.375
    1C        C  645   4.003   4.005   4.411
    1C        C  646   3.877   4.185   4.287
    1C        C  647   3.877   4.070   4.377
    1C        C  648   3.752   4.238   4.238
    1C        C  649   3.626   4.184   4.286
    1C        C  650   3.501   4.334   4.128
    1C        C  651   3.501   4.240   4.240
    1C        C  652   3.375   4.376   4.068
    1C        C  653   3.249   4.332   4.126
    1C        C  654   3.124   4.449   3.942
    1C        C  655   3.124   4.378   4.069
    1C        C  656   2.998   4.478   3.875
    1C        C  657   2.872   4.446   3.941
    1C        C  658   2.746   4.520   3.736
    1C        C  659   2.746   4.479   3.876
    1C        C  660   2.620   4.532   3.664
    1C        C  661   2.494   4.516   3.735
    1C        C  662   2.368   4.536   3.519
    1C        C  663   2.367   4.533   3.664
    1C        C  664   2.242   4.533   3.446
    1C        C  665   2.114   4.529   3.518
    1C        C  666   1.992   4.527   3.440
    1C        C  667   5.007   3.884   4.483
    1C        C  668   4.886   3.806   4.496
    1C        C  669   4.758   4.009   4.415
    1C        C  670   4.758   3.875   4.476
    1C        C  671   4.632   4.069   4.375
    1C        C  672   4.506   4.004   4.409
    1C        C  673   4.380   4.183   4.285
    1C        C  674   4.380   4.069   4.376
    1C        C  675   4.254   4.237   4.236
    1C        C  676   4.129   4.183   4.285
    1C        C  677   4.003   4.334   4.128
    1C        C  678   4.003   4.239   4.239
    1C        C  679   3.877   4.376   4.068
    1C        C  680   3.752   4.332   4.126
    1C        C  681   3.626   4.449   3.942
    1C        C  682   3.626   4.378   4.070
    1C        C  683   3.501   4.478   3.875
    1C        C  684   3.375   4.446   3.941
    1C        C  685   3.249   4.521   3.736
    1C        C  686   3.249   4.480   3.876
    1C        C  687   3.124   4.534   3.664
    1C        C  688   2.998   4.519   3.736
    1C        C  689   2.872   4.538   3.519
    1C        C  690   2.872   4.535   3.664
    1C        C  691   2.746   4.533   3.446
    1C        C  692   2.620   4.533   3.519
    1C        C  693   2.494   4.533   3.446
    1C        C  694   5.007   4.013   4.428
    1C        C  695   4.885   4.192   4.294
    1C        C  696   4.885   4.078   4.386
    1C        C  697   4.758   4.238   4.238
    1C        C  698   4.632   4.181   4.283
    1C        C  699   4.506   4.333   4.127
    1C        C  700   4.506   4.237   4.237
    1C        C  701   4.380   4.376   4.068
    1C        C  702   4.254   4.331   4.126
    1C        C  703   4.129   4.449   3.942
    1C        C  704   4.129   4.378   4.069
    1C        C  705   4.003   4.479   3.876
    1C        C  706   3.877   4.447   3.941
    1C        C  707   3.752   4.521   3.736
    1C        C  708   3.752   4.480   3.876
    1C        C  709   3.626   4.534   3.664
    1C        C  710   3.501   4.518   3.736
    1C        C  711   3.375   4.539   3.519
    1C        C  712   3.375   4.536   3.665
    1C        C  713   3.249   4.534   3.446
    1C        C  714   3.124   4.536   3.519
    1C        C  715   2.998   4.535   3.446
    1C        C  716   5.002   4.367   4.162
    1C        C  717   5.002   4.268   4.262
    1C        C  718   4.884   4.394   4.081
    1C        C  719   4.757   4.336   4.129
    1C        C  720   4.633   4.447   3.942
    1C        C  721   4.632   4.379   4.070
    1C        C  722   4.507   4.477   3.875
    1C        C  723   4.381   4.446   3.941
    1C        C  724   4.255   4.520   3.736
    1C        C  725   4.255   4.480   3.876
    1C        C  726   4.129   4.533   3.664
    1C        C  727   4.003   4.518   3.736
    1C        C  728   3.878   4.538   3.519
    1C        C  729   3.878   4.536   3.665
    1C        C  730   3.752   4.533   3.446
    1C        C  731   3.626   4.535   3.519
    1C        C  732   3.501   4.536   3.446
    1C        C  733   5.006   4.439   3.863
    1C        C  734   4.886   4.441   3.943
    1C        C  735   4.760   4.520   3.736
    1C        C  736   4.760   4.477   3.876
    1C        C  737   4.633   4.532   3.664
    1C        C  738   4.507   4.517   3.735
    1C        C  739   4.381   4.535   3.519
    1C        C  740   4.381   4.534   3.665
    1C        C  741   4.255   4.531   3.446
    1C        C  742   4.129   4.533   3.519
    1C        C  743   4.003   4.534   3.446
    1C        C  744   5.007   4.484   3.730
    1C        C  745   4.886   4.542   3.517
    1C        C  746   4.887   4.527   3.662
    1C        C  747   4.759   4.531   3.446
    1C        C  748   4.633   4.534   3.519
    1C        C  749   4.507   4.531   3.446
    1C        C  750   5.002   4.579   3.440
    1C        O  751   5.111   2.451   3.995
    1C        H  752   5.178   2.408   3.934
    1C        O  753   5.111   3.162   4.616
    1C        H  754   5.178   3.089   4.606
    1C        O  755   5.112   2.431   3.052
    1C        H  756   5.179   2.448   2.980
    1C        O  757   5.112   4.452   4.164
    1C        H  758   5.180   4.420   4.230
    1C        O  759   5.112   4.633   3.239
    1C        H  760   5.181   4.656   3.307
    1C        O  761   5.115   3.119   2.413
    1C        H  762   5.181   3.184   2.373
    1C        O  763   5.113   4.059   2.487
    1C        H  764   5.180   4.129   2.511
    1C        O  765   1.883   2.461   3.990
    1C        H  766   1.819   2.411   3.932
    1C        O  767   1.883   2.381   3.275
    1C        H  768   1.823   2.336   3.342
    1C        O  769   1.885   3.649   4.643
    1C        H  770   1.817   3.580   4.670
    1C        O  771   1.885   2.918   2.513
    1C        H  772   1.822   2.841   2.525
    1C        O  773   1.886   3.846   2.406
    1C        H  774   1.823   3.785   2.357
    1C        O  775   1.888   4.552   3.015
    1C        H  776   1.825   4.547   2.937
    1C        O  777   1.887   4.454   4.163
    1C        H  778   1.821   4.427   4.233
    1C        H  779   5.102   2.692   4.097
    1C        H  780   5.102   2.853   4.264
    1C        H  781   5.088   2.950   4.482
    1C        H  782   5.102   3.397   4.504
    1C        H  783   5.107   3.625   4.514
    1C        H  784   5.089   2.409   3.748
    1C        H  785   5.102   2.501   3.531
    1C        H  786   5.102   2.517   3.299
    1C        H  787   5.088   2.583   2.854
    1C        H  788   5.102   2.812   2.780
    1C        H  789   5.102   2.995   2.639
    1C        H  790   5.090   3.369   2.389
    1C        H  791   5.103   3.576   2.506
    1C        H  792   5.103   3.804   2.546
    1C        H  793   5.090   4.239   2.660
    1C        H  794   5.104   4.290   2.893
    1C        H  795   5.104   4.415   3.089
    1C        H  796   5.089   4.620   3.489
    1C        H  797   5.104   4.482   3.681
    1C        H  798   5.103   4.418   3.904
    1C        H  799   5.090   4.263   4.324
    1C        H  800   5.104   4.050   4.400
    1C        H  801   5.101   3.852   4.525
    1C        H  802   1.915   3.403   4.631
    1C        H  803   1.895   3.201   4.516
    1C        H  804   1.899   2.976   4.454
    1C        H  805   1.892   2.836   4.267
    1C        H  806   1.897   2.694   4.088
    1C        H  807   1.903   2.420   3.745
    1C        H  808   1.901   2.411   3.524
    1C        H  809   1.896   2.582   3.120
    1C        H  810   1.897   2.694   2.918
    1C        H  811   1.912   2.728   2.677
    1C        H  812   1.896   3.167   2.552
    1C        H  813   1.898   3.393   2.503
    1C        H  814   1.913   3.597   2.373
    1C        H  815   1.897   3.982   2.619
    1C        H  816   1.916   4.407   2.811
    1C        H  817   1.899   4.171   2.753
    1C        H  818   1.898   4.495   3.257
    1C        H  819   1.895   4.552   3.481
    1C        H  820   1.897   4.537   3.708
    1C        H  821   1.898   4.433   3.914
    1C        H  822   1.921   4.275   4.339
    1C        H  823   1.898   4.028   4.354
    1C        H  824   1.897   3.819   4.453
    2SOL     OW  825   0.230   0.628   0.113
    2SOL    HW1  826   0.137   0.626   0.150
    2SOL    HW2  827   0.231   0.589   0.021
    3SOL     OW  828   0.225   0.275   0.996
    3SOL    HW1  829   0.260   0.258   1.088
    3SOL    HW2  830   0.137   0.230   0.984
    4SOL     OW  831   0.019   0.368   0.647
    4SOL    HW1  832  -0.063   0.411   0.686
    4SOL    HW2  833  -0.009   0.295   0.584
    5SOL     OW  834   0.569   1.275   1.165
    5SOL    HW1  835   0.476   1.268   1.128
    5SOL    HW2  836   0.580   1.364   1.209
    6SOL     OW  837   1.555   1.511   0.703
    6SOL    HW1  838   1.498   1.495   0.784
    6SOL    HW2  839   1.496   1.521   0.623
    7SOL     OW  840   1.135   0.703   0.717
    7SOL    HW1  841   1.192   0.781   0.692
    7SOL    HW2  842   1.075   0.729   0.793
    8SOL     OW  843   1.755   0.607   0.231
    8SOL    HW1  844   1.743   0.594   0.132
    8SOL    HW2  845   1.725   0.526   0.280
    9SOL     OW  846   0.768   1.144   1.023
    9SOL    HW1  847   0.690   1.161   1.083
    9SOL    HW2  848   0.802   1.231   0.987
   10SOL     OW  849   0.850   0.798   1.823
   10SOL    HW1  850   0.846   0.874   1.888
   10SOL    HW2  851   0.872   0.834   1.732
   11SOL     OW  852   0.685   1.012   0.665
   11SOL    HW1  853   0.754   0.996   0.735
   11SOL    HW2  854   0.612   1.069   0.703
   12SOL     OW  855   0.686   1.161   1.803
   12SOL    HW1  856   0.746   1.240   1.817
   12SOL    HW2  857   0.600   1.192   1.762
   13SOL     OW  858   0.335   1.435   1.061
   13SOL    HW1  859   0.257   1.404   1.008
   13SOL    HW2  860   0.393   1.493   1.004
   14SOL     OW  861   1.460   1.505   1.339
   14SOL    HW1  862   1.484   1.599   1.365
   14SOL    HW2  863   1.444   1.451   1.421
   15SOL     OW  864   0.438   0.392   1.499
   15SOL    HW1  865   0.520   0.336   1.508
   15SOL    HW2  866   0.357   0.334   1.503
   16SOL     OW  867   1.603   0.447   0.737
   16SOL    HW1  868   1.529   0.493   0.687
   16SOL    HW2  869   1.654   0.515   0.790
   17SOL     OW  870   0.231   1.713   0.483
   17SOL    HW1  871   0.265   1.790   0.537
   17SOL    HW2  872   0.275   1.713   0.393
   18SOL     OW  873   1.127   1.341   1.690
   18SOL    HW1  874   1.174   1.341   1.778
   18SOL    HW2  875   1.079   1.254   1.679
   19SOL     OW  876   0.230   1.434   0.538
   19SOL    HW1  877   0.204   1.530   0.538
   19SOL    HW2  878   0.159   1.380   0.583
   20SOL     OW  879   0.240   1.091   0.886
   20SOL    HW1  880   0.254   1.007   0.938
   20SOL    HW2  881   0.185   1.155   0.941
   21SOL     OW  882   0.620   1.786   1.439
   21SOL    HW1  883   0.528   1.769   1.474
   21SOL    HW2  884   0.648   1.878   1.465
   22SOL     OW  885   0.606   0.964   0.123
   22SOL    HW1  886   0.613   1.048   0.069
   22SOL    HW2  887   0.652   0.977   0.211
   23SOL     OW  888   1.594   0.114   1.480
   23SOL    HW1  889   1.576   0.181   1.408
   23SOL    HW2  890   1.591   0.160   1.569
   24SOL     OW  891   0.122   0.643   0.563
   24SOL    HW1  892   0.077   0.555   0.580
   24SOL    HW2  893   0.121   0.697   0.647
   25SOL     OW  894   1.842   1.767   0.359
   25SOL    HW1  895   1.896   1.738   0.439
   25SOL    HW2  896   1.872   1.857   0.330
   26SOL     OW  897   0.027   1.596   0.117
   26SOL    HW1  898   0.008   1.500   0.138
   26SOL    HW2  899  -0.006   1.654   0.192
   27SOL     OW  900   1.689   0.922   0.612
   27SOL    HW1  901   1.784   0.893   0.620
   27SOL    HW2  902   1.681   0.987   0.537
   28SOL     OW  903   1.641   1.108   0.432
   28SOL    HW1  904   1.727   1.110   0.380
   28SOL    HW2  905   1.655   1.155   0.520
   29SOL     OW  906   0.113   0.737   1.597
   29SOL    HW1  907   0.201   0.724   1.642
   29SOL    HW2  908   0.100   0.834   1.575
   30SOL     OW  909   0.613   1.365   0.726
   30SOL    HW1  910   0.564   1.278   0.735
   30SOL    HW2  911   0.590   1.408   0.639
   31SOL     OW  912   1.293   1.228   1.423
   31SOL    HW1  913   1.330   1.155   1.365
   31SOL    HW2  914   1.345   1.233   1.508
   32SOL     OW  915   0.809   0.004   0.502
   32SOL    HW1  916   0.849   0.095   0.493
   32SOL    HW2  917   0.709   0.012   0.508
   33SOL     OW  918   0.197   0.976   1.264
   33SOL    HW1  919   0.286   0.931   1.250
   33SOL    HW2  920   0.124   0.911   1.245
   34SOL     OW  921   1.525   0.999   0.190
   34SOL    HW1  922   1.462   0.923   0.203
   34SOL    HW2  923   1.573   1.017   0.276
   35SOL     OW  924   1.187   1.792   1.616
   35SOL    HW1  925   1.211   1.852   1.540
   35SOL    HW2  926   1.194   1.697   1.586
   36SOL     OW  927   0.317   0.251   1.801
   36SOL    HW1  928   0.388   0.322   1.807
   36SOL    HW2  929   0.229   0.290   1.829
   37SOL     OW  930   1.466   1.417   0.953
   37SOL    HW1  931   1.407   1.423   1.033
   37SOL    HW2  932   1.451   1.329   0.907
   38SOL     OW  933   1.667   1.714   0.572
   38SOL    HW1  934   1.626   1.691   0.484
   38SOL    HW2  935   1.649   1.640   0.637
   39SOL     OW  936   0.598   0.729   0.270
   39SOL    HW1  937   0.622   0.798   0.202
   39SOL    HW2  938   0.520   0.762   0.324
   40SOL     OW  939   1.281   0.345   0.944
   40SOL    HW1  940   1.195   0.295   0.931
   40SOL    HW2  941   1.343   0.291   1.000
   41SOL     OW  942   1.576   1.662   0.307
   41SOL    HW1  943   1.665   1.708   0.310
   41SOL    HW2  944   1.555   1.638   0.212
   42SOL     OW  945   0.807   0.605   1.465
   42SOL    HW1  946   0.760   0.602   1.554
   42SOL    HW2  947   0.756   0.550   1.399
   43SOL     OW  948   1.394   0.469   1.674
   43SOL    HW1  949   1.374   0.512   1.762
   43SOL    HW2  950   1.472   0.407   1.683
   44SOL     OW  951   0.973   0.890   1.572
   44SOL    HW1  952   1.019   0.806   1.543
   44SOL    HW2  953   0.917   0.924   1.497
   45SOL     OW  954   0.991   0.410   1.242
   45SOL    HW1  955   0.914   0.444   1.296
   45SOL    HW2  956   0.957   0.359   1.163
   46SOL     OW  957   1.041   0.701   0.429
   46SOL    HW1  958   1.067   0.697   0.525
   46SOL    HW2  959   0.956   0.650   0.415
   47SOL     OW  960   0.076   0.811   0.789
   47SOL    HW1  961   0.175   0.799   0.798
   47SOL    HW2  962   0.052   0.906   0.810
   48SOL     OW  963   0.130   1.821   1.571
   48SOL    HW1  964   0.120   1.806   1.670
   48SOL    HW2  965   0.044   1.857   1.535
   49SOL     OW  966   0.865   0.348   0.195
   49SOL    HW1  967   0.924   0.411   0.146
   49SOL    HW2  968   0.884   0.254   0.166
   50SOL     OW  969   1.719   0.585   1.831
   50SOL    HW1  970   1.693   0.674   1.795
   50SOL    HW2  971   1.717   0.517   1.758
   51SOL     OW  972   1.362   1.144   0.545
   51SOL    HW1  973   1.445   1.115   0.497
   51SOL    HW2  974   1.313   1.211   0.489
   52SOL     OW  975   0.550   0.196   0.885
   52SOL    HW1  976   0.545   0.191   0.985
   52SOL    HW2  977   0.552   0.292   0.856
   53SOL     OW  978   1.008   1.456   0.477
   53SOL    HW1  979   0.962   1.528   0.425
   53SOL    HW2  980   1.004   1.476   0.575
   54SOL     OW  981   0.351   1.801   0.853
   54SOL    HW1  982   0.401   1.715   0.859
   54SOL    HW2  983   0.416   1.878   0.850
   55SOL     OW  984   1.795   1.066   0.873
   55SOL    HW1  985   1.733   1.051   0.797
   55SOL    HW2  986   1.743   1.077   0.958
   56SOL     OW  987   1.227   1.550   1.506
   56SOL    HW1  988   1.233   1.473   1.570
   56SOL    HW2  989   1.175   1.524   1.426
   57SOL     OW  990   0.321   0.943   0.242
   57SOL    HW1  991   0.403   0.982   0.200
   57SOL    HW2  992   0.294   0.861   0.193
   58SOL     OW  993   1.458   0.735   0.728
   58SOL    HW1  994   1.453   0.670   0.803
   58SOL    HW2  995   1.538   0.794   0.741
   59SOL     OW  996   0.461   1.266   1.727
   59SOL    HW1  997   0.411   1.267   1.641
   59SOL    HW2  998   0.398   1.248   1.803
   60SOL     OW  999   1.111   1.776   0.237
   60SOL    HW1 1000   1.051   1.714   0.287
   60SOL    HW2 1001   1.142   1.732   0.152
   61SOL     OW 1002   0.202   0.285   1.498
   61SOL    HW1 1003   0.122   0.345   1.485
   61SOL    HW2 1004   0.192   0.236   1.584
   62SOL     OW 1005   1.632   1.377   0.081
   62SOL    HW1 1006   1.600   1.471   0.071
   62SOL    HW2 1007   1.556   1.314   0.069
   63SOL     OW 1008   0.464   1.743   0.323
   63SOL    HW1 1009   0.497   1.782   0.409
   63SOL    HW2 1010   0.540   1.736   0.258
   64SOL     OW 1011   1.400   0.107   0.426
   64SOL    HW1 1012   1.376   0.070   0.336
   64SOL    HW2 1013   1.499   0.123   0.430
   65SOL     OW 1014   0.249   1.785   1.241
   65SOL    HW1 1015   0.306   1.720   1.291
   65SOL    HW2 1016   0.233   1.752   1.148
   66SOL     OW 1017   0.940   1.698   0.904
   66SOL    HW1 1018   1.020   1.641   0.925
   66SOL    HW2 1019   0.891   1.658   0.827
   67SOL     OW 1020   0.382   0.700   0.480
   67SOL    HW1 1021   0.427   0.610   0.477
   67SOL    HW2 1022   0.288   0.689   0.513
   68SOL     OW 1023   1.547   0.222   1.729
   68SOL    HW1 1024   1.542   0.259   1.821
   68SOL    HW2 1025   1.475   0.153   1.717
   69SOL     OW 1026   0.614   0.122   0.117
   69SOL    HW1 1027   0.712   0.100   0.124
   69SOL    HW2 1028   0.583   0.105   0.024
   70SOL     OW 1029   0.781   0.264   1.749
   70SOL    HW1 1030   0.848   0.203   1.792
   70SOL    HW2 1031   0.708   0.283   1.814
   71SOL     OW 1032   0.888   1.514   1.195
   71SOL    HW1 1033   0.865   1.489   1.101
   71SOL    HW2 1034   0.949   1.445   1.234
   72SOL     OW 1035   1.351   0.590   1.433
   72SOL    HW1 1036   1.379   0.547   1.518
   72SOL    HW2 1037   1.376   0.686   1.434
   73SOL     OW 1038   0.803   1.402   0.924
   73SOL    HW1 1039   0.893   1.416   0.882
   73SOL    HW2 1040   0.732   1.404   0.853
   74SOL     OW 1041   0.922   0.503   0.899
   74SOL    HW1 1042   0.897   0.494   0.803
   74SOL    HW2 1043   0.970   0.421   0.930
   75SOL     OW 1044   0.539   0.064   0.512
   75SOL    HW1 1045   0.458   0.065   0.570
   75SOL    HW2 1046   0.542   0.147   0.457
   76SOL     OW 1047   1.434   1.188   0.041
   76SOL    HW1 1048   1.466   1.112   0.098
   76SOL    HW2 1049   1.342   1.215   0.071
   77SOL     OW 1050   0.297   0.035   0.171
   77SOL    HW1 1051   0.346   0.119   0.150
   77SOL    HW2 1052   0.359  -0.030   0.216
   78SOL     OW 1053   0.935   0.236   0.480
   78SOL    HW1 1054   0.887   0.277   0.402
   78SOL    HW2 1055   1.034   0.234   0.461
   79SOL     OW 1056   1.076   0.683   1.464
   79SOL    HW1 1057   0.996   0.622   1.467
   79SOL    HW2 1058   1.157   0.630   1.440
   80SOL     OW 1059   1.227   1.570   0.793
   80SOL    HW1 1060   1.248   1.644   0.728
   80SOL    HW2 1061   1.295   1.570   0.866
   81SOL     OW 1062   0.459   1.152   0.741
   81SOL    HW1 1063   0.388   1.125   0.806
   81SOL    HW2 1064   0.433   1.124   0.648
   82SOL     OW 1065   1.271   1.797   0.591
   82SOL    HW1 1066   1.315   1.861   0.527
   82SOL    HW2 1067   1.221   1.849   0.661
   83SOL     OW 1068   1.032   0.549   0.016
   83SOL    HW1 1069   0.991   0.631  -0.023
   83SOL    HW2 1070   1.096   0.575   0.089
   84SOL     OW 1071   0.078   0.556   1.386
   84SOL    HW1 1072   0.170   0.555   1.345
   84SOL    HW2 1073   0.072   0.630   1.453
   85SOL     OW 1074   0.561   0.222   1.147
   85SOL    HW1 1075   0.599   0.138   1.184
   85SOL    HW2 1076   0.473   0.241   1.191
   86SOL     OW 1077   0.866   0.454   0.642
   86SOL    HW1 1078   0.834   0.526   0.580
   86SOL    HW2 1079   0.890   0.373   0.589
   87SOL     OW 1080   1.017   0.039   0.753
   87SOL    HW1 1081   0.945   0.044   0.684
   87SOL    HW2 1082   0.993  -0.030   0.822
   88SOL     OW 1083   1.429   1.173   0.867
   88SOL    HW1 1084   1.374   1.089   0.860
   88SOL    HW2 1085   1.455   1.202   0.775
   89SOL     OW 1086   1.466   0.590   0.992
   89SOL    HW1 1087   1.436   0.495   0.999
   89SOL    HW2 1088   1.539   0.606   1.058
   90SOL     OW 1089   1.857   0.833   0.377
   90SOL    HW1 1090   1.899   0.769   0.441
   90SOL    HW2 1091   1.819   0.782   0.299
   91SOL     OW 1092   0.488   1.385   0.174
   91SOL    HW1 1093   0.401   1.370   0.221
   91SOL    HW2 1094   0.471   1.411   0.079
   92SOL     OW 1095   1.664   1.280   0.657
   92SOL    HW1 1096   1.763   1.288   0.671
   92SOL    HW2 1097   1.619   1.364   0.688
   93SOL     OW 1098   1.390   0.575   0.078
   93SOL    HW1 1099   1.336   0.554   0.159
   93SOL    HW2 1100   1.481   0.534   0.087
   94SOL     OW 1101   0.527   0.256   0.328
   94SOL    HW1 1102   0.554   0.197   0.253
   94SOL    HW2 1103   0.527   0.351   0.297
   95SOL     OW 1104   1.754   1.223   1.588
   95SOL    HW1 1105   1.845   1.184   1.575
   95SOL    HW2 1106   1.762   1.319   1.612
   96SOL     OW 1107   1.064   1.347   1.340
   96SOL    HW1 1108   0.984   1.324   1.395
   96SOL    HW2 1109   1.147   1.321   1.389
   97SOL     OW 1110   1.592   1.629   1.625
   97SOL    HW1 1111   1.619   1.663   1.535
   97SOL    HW2 1112   1.671   1.591   1.671
   98SOL     OW 1113   1.111   1.195   1.100
   98SOL    HW1 1114   1.071   1.239   1.181
   98SOL    HW2 1115   1.070   1.232   1.017
   99SOL     OW 1116   1.638   1.099   1.079
   99SOL    HW1 1117   1.643   1.180   1.138
   99SOL    HW2 1118   1.552   1.101   1.028
  100SOL     OW 1119   0.915   0.089   1.402
  100SOL    HW1 1120   0.940   0.069   1.307
  100SOL    HW2 1121   0.987   0.145   1.444
  101SOL     OW 1122   0.980   1.116   1.719
  101SOL    HW1 1123   0.881   1.122   1.729
  101SOL    HW2 1124   1.003   1.036   1.663
  102SOL     OW 1125   0.705   1.050   0.368
  102SOL    HW1 1126   0.691   1.057   0.467
  102SOL    HW2 1127   0.789   0.999   0.350
  103SOL     OW 1128   0.410   0.813   1.251
  103SOL    HW1 1129   0.496   0.825   1.301
  103SOL    HW2 1130   0.368   0.726   1.278
  104SOL     OW 1131   1.274   0.386   1.262
  104SOL    HW1 1132   1.295   0.460   1.326
  104SOL    HW2 1133   1.185   0.403   1.219
  105SOL     OW 1134   0.064   1.564   1.331
  105SOL    HW1 1135   0.018   1.646   1.297
  105SOL    HW2 1136   0.162   1.583   1.340
  106SOL     OW 1137   0.367   1.100   0.501
  106SOL    HW1 1138   0.360   1.183   0.445
  106SOL    HW2 1139   0.371   1.020   0.441
  107SOL     OW 1140   0.566   0.537   0.865
  107SOL    HW1 1141   0.578   0.603   0.791
  107SOL    HW2 1142   0.612   0.571   0.948
  108SOL     OW 1143   1.252   1.348   0.388
  108SOL    HW1 1144   1.302   1.425   0.428
  108SOL    HW2 1145   1.157   1.350   0.420
  109SOL     OW 1146   1.272   1.445   1.142
  109SOL    HW1 1147   1.319   1.458   1.229
  109SOL    HW2 1148   1.206   1.371   1.151
  110SOL     OW 1149   1.582   0.639   0.472
  110SOL    HW1 1150   1.551   0.700   0.545
  110SOL    HW2 1151   1.632   0.691   0.403
  111SOL     OW 1152   0.354   1.510   1.329
  111SOL    HW1 1153   0.333   1.466   1.242
  111SOL    HW2 1154   0.451   1.536   1.332
  112SOL     OW 1155   0.402   0.751   1.598
  112SOL    HW1 1156   0.470   0.806   1.551
  112SOL    HW2 1157   0.442   0.663   1.625
  113SOL     OW 1158   1.587   0.779   1.670
  113SOL    HW1 1159   1.495   0.817   1.665
  113SOL    HW2 1160   1.647   0.826   1.605
  114SOL     OW 1161   1.013   0.105   1.770
  114SOL    HW1 1162   1.019   0.190   1.718
  114SOL    HW2 1163   1.045   0.029   1.713
  115SOL     OW 1164   0.504   0.050   1.740
  115SOL    HW1 1165   0.462  -0.007   1.670
  115SOL    HW2 1166   0.438   0.119   1.772
  116SOL     OW 1167   0.573   0.870   1.029
  116SOL    HW1 1168   0.617   0.959   1.020
  116SOL    HW2 1169   0.510   0.870   1.106
  117SOL     OW 1170   1.360   0.862   1.045
  117SOL    HW1 1171   1.285   0.862   0.979
  117SOL    HW2 1172   1.397   0.770   1.054
  118SOL     OW 1173   1.209   0.525   0.275
  118SOL    HW1 1174   1.222   0.441   0.329
  118SOL    HW2 1175   1.180   0.599   0.335
  119SOL     OW 1176   0.307   0.213   1.231
  119SOL    HW1 1177   0.284   0.250   1.321
  119SOL    HW2 1178   0.277   0.118   1.225
  120SOL     OW 1179   0.037   1.310   1.282
  120SOL    HW1 1180   0.090   1.261   1.350
  120SOL    HW2 1181   0.059   1.408   1.287
  121SOL     OW 1182   0.732   0.634   1.064
  121SOL    HW1 1183   0.791   0.608   0.988
  121SOL    HW2 1184   0.704   0.730   1.053
  122SOL     OW 1185   1.728   0.935   1.854
  122SOL    HW1 1186   1.682   0.928   1.765
  122SOL    HW2 1187   1.666   0.979   1.920
  123SOL     OW 1188   0.307   0.063   0.618
  123SOL    HW1 1189   0.296   0.157   0.651
  123SOL    HW2 1190   0.302   0.000   0.695
  124SOL     OW 1191   1.622   0.367   0.374
  124SOL    HW1 1192   1.624   0.291   0.438
  124SOL    HW2 1193   1.574   0.444   0.414
  125SOL     OW 1194   1.023   0.766   0.966
  125SOL    HW1 1195   1.038   0.787   1.062
  125SOL    HW2 1196   0.993   0.671   0.957
  126SOL     OW 1197   0.980   1.573   1.700
  126SOL    HW1 1198   0.960   1.617   1.612
  126SOL    HW2 1199   1.019   1.482   1.684
  127SOL     OW 1200   1.859   1.518   1.605
  127SOL    HW1 1201   1.873   1.545   1.510
  127SOL    HW2 1202   1.942   1.540   1.658
  128SOL     OW 1203   0.350   0.898   1.804
  128SOL    HW1 1204   0.426   0.942   1.852
  128SOL    HW2 1205   0.385   0.851   1.722
  129SOL     OW 1206   1.540   0.274   0.125
  129SOL    HW1 1207   1.479   0.199   0.148
  129SOL    HW2 1208   1.562   0.326   0.208
  130SOL     OW 1209   1.303   0.838   0.042
  130SOL    HW1 1210   1.337   0.745   0.057
  130SOL    HW2 1211   1.321   0.865  -0.053
  131SOL     OW 1212   1.068   1.333   0.849
  131SOL    HW1 1213   1.075   1.249   0.794
  131SOL    HW2 1214   1.130   1.402   0.813
  132SOL     OW 1215   0.319   0.810   0.949
  132SOL    HW1 1216   0.412   0.846   0.954
  132SOL    HW2 1217   0.313   0.725   1.001
  133SOL     OW 1218   0.339   0.509   1.006
  133SOL    HW1 1219   0.287   0.426   0.989
  133SOL    HW2 1220   0.416   0.514   0.942
  134SOL     OW 1221   1.138   0.380   1.678
  134SOL    HW1 1222   1.093   0.443   1.742
  134SOL    HW2 1223   1.231   0.411   1.661
  135SOL     OW 1224   1.160   0.207   1.477
  135SOL    HW1 1225   1.160   0.271   1.554
  135SOL    HW2 1226   1.188   0.255   1.394
  136SOL     OW 1227   0.008   1.326   0.200
  136SOL    HW1 1228  -0.085   1.347   0.169
  136SOL    HW2 1229   0.018   1.227   0.213
  137SOL     OW 1230   0.088   1.801   0.927
  137SOL    HW1 1231   0.046   1.715   0.900
  137SOL    HW2 1232   0.182   1.804   0.893
  138SOL     OW 1233   0.504   1.568   0.910
  138SOL    HW1 1234   0.570   1.642   0.919
  138SOL    HW2 1235   0.548   1.489   0.868
  139SOL     OW 1236   1.002   0.796   1.238
  139SOL    HW1 1237   1.043   0.764   1.324
  139SOL    HW2 1238   0.906   0.769   1.235
  140SOL     OW 1239   0.040   0.544   1.114
  140SOL    HW1 1240   0.125   0.511   1.073
  140SOL    HW2 1241   0.053   0.559   1.212
  141SOL     OW 1242   0.189   0.520   1.722
  141SOL    HW1 1243   0.248   0.480   1.652
  141SOL    HW2 1244   0.131   0.591   1.681
  142SOL     OW 1245   1.369   0.950   1.660
  142SOL    HW1 1246   1.408   1.039   1.680
  142SOL    HW2 1247   1.379   0.930   1.563
  143SOL     OW 1248   0.815   0.572   0.325
  143SOL    HW1 1249   0.822   0.483   0.279
  143SOL    HW2 1250   0.721   0.606   0.317
  144SOL     OW 1251   1.657   0.604   1.206
  144SOL    HW1 1252   1.619   0.535   1.268
  144SOL    HW2 1253   1.739   0.568   1.162
  145SOL     OW 1254   0.252   1.564   1.744
  145SOL    HW1 1255   0.222   1.621   1.820
  145SOL    HW2 1256   0.245   1.467   1.770
  146SOL     OW 1257   0.671   0.464   1.269
  146SOL    HW1 1258   0.637   0.375   1.239
  146SOL    HW2 1259   0.697   0.518   1.189
  147SOL     OW 1260   0.930   1.678   1.465
  147SOL    HW1 1261   0.906   1.660   1.370
  147SOL    HW2 1262   0.960   1.772   1.475
  148SOL     OW 1263   0.473   0.500   0.191
  148SOL    HW1 1264   0.534   0.580   0.195
  148SOL    HW2 1265   0.378   0.531   0.198
  149SOL     OW 1266   0.159   1.137   1.466
  149SOL    HW1 1267   0.181   1.076   1.542
  149SOL    HW2 1268   0.169   1.088   1.380
  150SOL     OW 1269   1.347   1.059   1.234
  150SOL    HW1 1270   1.371   0.996   1.160
  150SOL    HW2 1271   1.257   1.099   1.216
  151SOL     OW 1272   1.302   0.855   0.309
  151SOL    HW1 1273   1.216   0.824   0.351
  151SOL    HW2 1274   1.298   0.841   0.210
  152SOL     OW 1275   1.759   1.747   1.154
  152SOL    HW1 1276   1.820   1.777   1.081
  152SOL    HW2 1277   1.721   1.658   1.132
  153SOL     OW 1278   1.252   1.731   1.128
  153SOL    HW1 1279   1.336   1.736   1.074
  153SOL    HW2 1280   1.229   1.635   1.146
  154SOL     OW 1281   0.083   1.258   1.022
  154SOL    HW1 1282   0.078   1.257   1.122
  154SOL    HW2 1283   0.000   1.217   0.984
  155SOL     OW 1284   0.688   1.662   1.716
  155SOL    HW1 1285   0.632   1.743   1.725
  155SOL    HW2 1286   0.740   1.666   1.630
  156SOL     OW 1287   0.903   0.086   0.133
  156SOL    HW1 1288   0.954   0.087   0.047
  156SOL    HW2 1289   0.959   0.044   0.204
  157SOL     OW 1290   1.726   0.135   0.523
  157SOL    HW1 1291   1.799   0.118   0.456
  157SOL    HW2 1292   1.695   0.048   0.561
  158SOL     OW 1293   1.388   1.573   0.477
  158SOL    HW1 1294   1.455   1.585   0.403
  158SOL    HW2 1295   1.348   1.662   0.500
  159SOL     OW 1296   0.130   1.794   1.851
  159SOL    HW1 1297   0.089   1.720   1.904
  159SOL    HW2 1298   0.194   1.845   1.909
  160SOL     OW 1299   1.280   0.927   0.672
  160SOL    HW1 1300   1.340   0.846   0.674
  160SOL    HW2 1301   1.320   0.996   0.612
  161SOL     OW 1302   0.830   1.273   1.422
  161SOL    HW1 1303   0.825   1.306   1.517
  161SOL    HW2 1304   0.744   1.292   1.376
  162SOL     OW 1305   0.672   1.616   0.154
  162SOL    HW1 1306   0.681   1.626   0.055
  162SOL    HW2 1307   0.632   1.527   0.175
  163SOL     OW 1308   1.650   1.720   1.394
  163SOL    HW1 1309   1.703   1.730   1.310
  163SOL    HW2 1310   1.623   1.810   1.428
  164SOL     OW 1311   1.841   0.175   0.963
  164SOL    HW1 1312   1.880   0.090   0.927
  164SOL    HW2 1313   1.743   0.177   0.944
  165SOL     OW 1314   0.263   0.326   0.720
  165SOL    HW1 1315   0.184   0.377   0.686
  165SOL    HW2 1316   0.254   0.311   0.818
  166SOL     OW 1317   1.194   1.612   0.031
  166SOL    HW1 1318   1.200   1.519   0.068
  166SOL    HW2 1319   1.135   1.612  -0.049
  167SOL     OW 1320   0.822   1.002   1.372
  167SOL    HW1 1321   0.862   1.001   1.280
  167SOL    HW2 1322   0.832   1.094   1.412
  168SOL     OW 1323   0.916   0.910   0.291
  168SOL    HW1 1324   0.979   0.948   0.223
  168SOL    HW2 1325   0.956   0.827   0.330
  169SOL     OW 1326   1.504   1.607   0.044
  169SOL    HW1 1327   1.412   1.644   0.051
  169SOL    HW2 1328   1.542   1.627  -0.046
  170SOL     OW 1329   0.372   1.288   1.490
  170SOL    HW1 1330   0.359   1.381   1.456
  170SOL    HW2 1331   0.288   1.236   1.477
  171SOL     OW 1332   1.614   1.292   1.289
  171SOL    HW1 1333   1.674   1.295   1.369
  171SOL    HW2 1334   1.539   1.356   1.302
  172SOL     OW 1335   1.039   1.098   0.696
  172SOL    HW1 1336   0.969   1.051   0.750
  172SOL    HW2 1337   1.098   1.030   0.653
  173SOL     OW 1338   1.014   0.236   0.971
  173SOL    HW1 1339   1.006   0.200   0.878
  173SOL    HW2 1340   1.012   0.160   1.036
  174SOL     OW 1341   0.590   1.487   0.491
  174SOL    HW1 1342   0.632   1.429   0.421
  174SOL    HW2 1343   0.546   1.566   0.447
  175SOL     OW 1344   1.709   0.385   1.381
  175SOL    HW1 1345   1.782   0.454   1.385
  175SOL    HW2 1346   1.737   0.310   1.322
  176SOL     OW 1347   0.255   1.348   0.290
  176SOL    HW1 1348   0.159   1.349   0.263
  176SOL    HW2 1349   0.267   1.401   0.374
  177SOL     OW 1350   0.105   1.013   1.726
  177SOL    HW1 1351   0.028   0.980   1.780
  177SOL    HW2 1352   0.190   0.983   1.768
  178SOL     OW 1353   0.672   0.203   1.489
  178SOL    HW1 1354   0.762   0.187   1.449
  178SOL    HW2 1355   0.680   0.208   1.588
  179SOL     OW 1356   0.075   0.345   0.033
  179SOL    HW1 1357  -0.017   0.317   0.004
  179SOL    HW2 1358   0.106   0.422  -0.023
  180SOL     OW 1359   1.440   0.856   1.398
  180SOL    HW1 1360   1.383   0.908   1.335
  180SOL    HW2 1361   1.536   0.868   1.374
  181SOL     OW 1362   0.072   0.166   0.318
  181SOL    HW1 1363   0.055   0.249   0.264
  181SOL    HW2 1364   0.162   0.129   0.296
  182SOL     OW 1365   1.183   1.335   0.119
  182SOL    HW1 1366   1.084   1.324   0.121
  182SOL    HW2 1367   1.217   1.350   0.212
  183SOL     OW 1368   0.613   0.842   1.431
  183SOL    HW1 1369   0.669   0.923   1.414
  183SOL    HW2 1370   0.672   0.762   1.434
  184SOL     OW 1371   1.493   1.767   0.959
  184SOL    HW1 1372   1.526   1.831   0.890
  184SOL    HW2 1373   1.559   1.761   1.034
  185SOL     OW 1374   0.716   0.565   1.708
  185SOL    HW1 1375   0.735   0.630   1.782
  185SOL    HW2 1376   0.776   0.485   1.717
  186SOL     OW 1377   1.450   1.220   1.633
  186SOL    HW1 1378   1.441   1.210   1.732
  186SOL    HW2 1379   1.546   1.213   1.607
  187SOL     OW 1380   0.390   1.741   1.560
  187SOL    HW1 1381   0.299   1.782   1.558
  187SOL    HW2 1382   0.383   1.647   1.592
  188SOL     OW 1383   1.674   0.883   1.254
  188SOL    HW1 1384   1.647   0.794   1.217
  188SOL    HW2 1385   1.675   0.951   1.181
  189SOL     OW 1386   1.225   0.325   0.449
  189SOL    HW1 1387   1.290   0.251   0.438
  189SOL    HW2 1388   1.245   0.375   0.533
  190SOL     OW 1389   0.594   0.745   0.652
  190SOL    HW1 1390   0.644   0.830   0.633
  190SOL    HW2 1391   0.506   0.747   0.604
  191SOL     OW 1392   1.777   0.342   1.642
  191SOL    HW1 1393   1.760   0.373   1.548
  191SOL    HW2 1394   1.693   0.305   1.680
  192SOL     OW 1395   1.730   0.934   1.517
  192SOL    HW1 1396   1.768   1.025   1.532
  192SOL    HW2 1397   1.722   0.917   1.418
  193SOL     OW 1398   0.859   1.374   0.016
  193SOL    HW1 1399   0.813   1.389   0.104
  193SOL    HW2 1400   0.903   1.459  -0.014
  194SOL     OW 1401   0.661   1.790   0.953
  194SOL    HW1 1402   0.615   1.878   0.940
  194SOL    HW2 1403   0.760   1.802   0.946
  195SOL     OW 1404   0.859   0.956   0.861
  195SOL    HW1 1405   0.913   0.887   0.909
  195SOL    HW2 1406   0.827   1.025   0.927
  196SOL     OW 1407   1.083   0.984   0.087
  196SOL    HW1 1408   1.060   1.037   0.005
  196SOL    HW2 1409   1.164   0.928   0.068
  197SOL     OW 1410   1.861   1.569   0.851
  197SOL    HW1 1411   1.790   1.557   0.781
  197SOL    HW2 1412   1.862   1.490   0.911
  198SOL     OW 1413   0.221   1.314   1.844
  198SOL    HW1 1414   0.156   1.241   1.823
  198SOL    HW2 1415   0.225   1.328   1.942
  199SOL     OW 1416   0.079   1.240   0.653
  199SOL    HW1 1417   0.078   1.193   0.741
  199SOL    HW2 1418   0.161   1.212   0.602
  200SOL     OW 1419   0.672   1.391   1.624
  200SOL    HW1 1420   0.594   1.341   1.662
  200SOL    HW2 1421   0.669   1.486   1.655
  201SOL     OW 1422   1.824   0.192   1.227
  201SOL    HW1 1423   1.820   0.102   1.271
  201SOL    HW2 1424   1.827   0.181   1.128
  202SOL     OW 1425   0.428   0.424   0.520
  202SOL    HW1 1426   0.458   0.352   0.458
  202SOL    HW2 1427   0.389   0.384   0.603
  203SOL     OW 1428   1.705   1.487   1.104
  203SOL    HW1 1429   1.612   1.462   1.077
  203SOL    HW2 1430   1.731   1.437   1.186
  204SOL     OW 1431   0.317   0.547   1.280
  204SOL    HW1 1432   0.355   0.488   1.352
  204SOL    HW2 1433   0.357   0.521   1.192
  205SOL     OW 1434   0.812   1.586   0.687
  205SOL    HW1 1435   0.844   1.596   0.593
  205SOL    HW2 1436   0.733   1.524   0.689
  206SOL     OW 1437   1.424   0.214   1.112
  206SOL    HW1 1438   1.476   0.149   1.167
  206SOL    HW2 1439   1.375   0.277   1.173
  207SOL     OW 1440   1.001   0.034   1.154
  207SOL    HW1 1441   0.938  -0.038   1.123
  207SOL    HW2 1442   1.094  -0.002   1.154
  208SOL     OW 1443   0.770   1.330   0.301
  208SOL    HW1 1444   0.724   1.243   0.318
  208SOL    HW2 1445   0.861   1.327   0.342
  209SOL     OW 1446   0.618   1.567   1.284
  209SOL    HW1 1447   0.613   1.649   1.341
  209SOL    HW2 1448   0.707   1.564   1.239
  210SOL     OW 1449   1.352   0.052   0.168
  210SOL    HW1 1450   1.387   0.011   0.084
  210SOL    HW2 1451   1.262   0.014   0.188
  211SOL     OW 1452   1.300   0.453   0.691
  211SOL    HW1 1453   1.241   0.533   0.695
  211SOL    HW2 1454   1.315   0.418   0.784
  212SOL     OW 1455   1.593   0.221   0.882
  212SOL    HW1 1456   1.509   0.220   0.936
  212SOL    HW2 1457   1.595   0.304   0.826
  213SOL     OW 1458   0.039   1.077   0.300
  213SOL    HW1 1459   0.138   1.066   0.291
  213SOL    HW2 1460  -0.001   0.991   0.332
  214SOL     OW 1461   0.875   1.646   0.337
  214SOL    HW1 1462   0.798   1.611   0.283
  214SOL    HW2 1463   0.843   1.717   0.399
  215SOL     OW 1464   0.230   0.628   1.975
  215SOL    HW1 1465   0.137   0.626   2.012
  215SOL    HW2 1466   0.231   0.589   1.883
  216SOL     OW 1467   0.225   0.275   2.858
  216SOL    HW1 1468   0.260   0.258   2.950
  216SOL    HW2 1469   0.137   0.230   2.846
  217SOL     OW 1470   0.019   0.368   2.509
  217SOL    HW1 1471  -0.063   0.411   2.548
  217SOL    HW2 1472  -0.009   0.295   2.446
  218SOL     OW 1473   0.569   1.275   3.027
  218SOL    HW1 1474   0.476   1.268   2.990
  218SOL    HW2 1475   0.580   1.364   3.071
  219SOL     OW 1476   1.555   1.511   2.565
  219SOL    HW1 1477   1.498   1.495   2.646
  219SOL    HW2 1478   1.496   1.521   2.485
  220SOL     OW 1479   1.135   0.703   2.579
  220SOL    HW1 1480   1.192   0.781   2.554
  220SOL    HW2 1481   1.075   0.729   2.655
  221SOL     OW 1482   1.755   0.607   2.093
  221SOL    HW1 1483   1.743   0.594   1.994
  221SOL    HW2 1484   1.725   0.526   2.142
  222SOL     OW 1485   0.768   1.144   2.885
  222SOL    HW1 1486   0.690   1.161   2.945
  222SOL    HW2 1487   0.802   1.231   2.849
  223SOL     OW 1488   0.850   0.798   3.685
  223SOL    HW1 1489   0.846   0.874   3.750
  223SOL    HW2 1490   0.872   0.834   3.594
  224SOL     OW 1491   0.685   1.012   2.527
  224SOL    HW1 1492   0.754   0.996   2.597
  224SOL    HW2 1493   0.612   1.069   2.565
  225SOL     OW 1494   0.686   1.161   3.665
  225SOL    HW1 1495   0.746   1.240   3.679
  225SOL    HW2 1496   0.600   1.192   3.624
  226SOL     OW 1497   0.335   1.435   2.923
  226SOL    HW1 1498   0.257   1.404   2.870
  226SOL    HW2 1499   0.393   1.493   2.866
  227SOL     OW 1500   1.460   1.505   3.201
  227SOL    HW1 1501   1.484   1.599   3.227
  227SOL    HW2 1502   1.444   1.451   3.283
  228SOL     OW 1503   0.438   0.392   3.361
  228SOL    HW1 1504   0.520   0.336   3.370
  228SOL    HW2 1505   0.357   0.334   3.365
  229SOL     OW 1506   1.603   0.447   2.599
  229SOL    HW1 1507   1.529   0.493   2.549
  229SOL    HW2 1508   1.654   0.515   2.652
  230SOL     OW 1509   0.231   1.713   2.345
  230SOL    HW1 1510   0.265   1.790   2.399
  230SOL    HW2 1511   0.275   1.713   2.255
  231SOL     OW 1512   1.127   1.341   3.552
  231SOL    HW1 1513   1.174   1.341   3.640
  231SOL    HW2 1514   1.079   1.254   3.541
  232SOL     OW 1515   0.230   1.434   2.400
  232SOL    HW1 1516   0.204   1.530   2.400
  232SOL    HW2 1517   0.159   1.380   2.445
  233SOL     OW 1518   0.240   1.091   2.748
  233SOL    HW1 1519   0.254   1.007   2.800
  233SOL    HW2 1520   0.185   1.155   2.803
  234SOL     OW 1521   0.620   1.786   3.301
  234SOL    HW1 1522   0.528   1.769   3.336
  234SOL    HW2 1523   0.648   1.878   3.327
  235SOL     OW 1524   0.606   0.964   1.985
  235SOL    HW1 1525   0.613   1.048   1.931
  235SOL    HW2 1526   0.652   0.977   2.073
  236SOL     OW 1527   1.594   0.114   3.342
  236SOL    HW1 1528   1.576   0.181   3.270
  236SOL    HW2 1529   1.591   0.160   3.431
  237SOL     OW 1530   0.122   0.643   2.425
  237SOL    HW1 1531   0.077   0.555   2.442
  237SOL    HW2 1532   0.121   0.697   2.509
  238SOL     OW 1533   1.842   1.767   2.221
  238SOL    HW1 1534   1.896   1.738   2.301
  238SOL    HW2 1535   1.872   1.857   2.192
  239SOL     OW 1536   0.027   1.596   1.979
  239SOL    HW1 1537   0.008   1.500   2.000
  239SOL    HW2 1538  -0.006   1.654   2.054
  240SOL     OW 1539   1.689   0.922   2.474
  240SOL    HW1 1540   1.784   0.893   2.482
  240SOL    HW2 1541   1.681   0.987   2.399
  241SOL     OW 1542   1.641   1.108   2.294
  241SOL    HW1 1543   1.727   1.110   2.242
  241SOL    HW2 1544   1.655   1.155   2.382
  242SOL     OW 1545   0.113   0.737   3.459
  242SOL    HW1 1546   0.201   0.724   3.504
  242SOL    HW2 1547   0.100   0.834   3.437
  243SOL     OW 1548   0.613   1.365   2.588
  243SOL    HW1 1549   0.564   1.278   2.597
  243SOL    HW2 1550   0.590   1.408   2.501
  244SOL     OW 1551   1.293   1.228   3.285
  244SOL    HW1 1552   1.330   1.155   3.227
  244SOL    HW2 1553   1.345   1.233   3.370
  245SOL     OW 1554   0.809   0.004   2.364
  245SOL    HW1 1555   0.849   0.095   2.355
  245SOL    HW2 1556   0.709   0.012   2.370
  246SOL     OW 1557   0.197   0.976   3.126
  246SOL    HW1 1558   0.286   0.931   3.112
  246SOL    HW2 1559   0.124   0.911   3.107
  247SOL     OW 1560   1.525   0.999   2.052
  247SOL    HW1 1561   1.462   0.923   2.065
  247SOL    HW2 1562   1.573   1.017   2.138
  248SOL     OW 1563   1.187   1.792   3.478
  248SOL    HW1 1564   1.211   1.852   3.402
  248SOL    HW2 1565   1.194   1.697   3.448
  249SOL     OW 1566   0.317   0.251   3.663
  249SOL    HW1 1567   0.388   0.322   3.669
  249SOL    HW2 1568   0.229   0.290   3.691
  250SOL     OW 1569   1.466   1.417   2.815
  250SOL    HW1 1570   1.407   1.423   2.895
  250SOL    HW2 1571   1.451   1.329   2.769
  251SOL     OW 1572   1.667   1.714   2.434
  251SOL    HW1 1573   1.626   1.691   2.346
  251SOL    HW2 1574   1.649   1.640   2.499
  252SOL     OW 1575   0.598   0.729   2.132
  252SOL    HW1 1576   0.622   0.798   2.064
  252SOL    HW2 1577   0.520   0.762   2.186
  253SOL     OW 1578   1.281   0.345   2.806
  253SOL    HW1 1579   1.195   0.295   2.793
  253SOL    HW2 1580   1.343   0.291   2.862
  254SOL     OW 1581   1.576   1.662   2.169
  254SOL    HW1 1582   1.665   1.708   2.172
  254SOL    HW2 1583   1.555   1.638   2.074
  255SOL     OW 1584   0.807   0.605   3.327
  255SOL    HW1 1585   0.760   0.602   3.416
  255SOL    HW2 1586   0.756   0.550   3.261
  256SOL     OW 1587   1.394   0.469   3.536
  256SOL    HW1 1588   1.374   0.512   3.624
  256SOL    HW2 1589   1.472   0.407   3.545
  257SOL     OW 1590   0.973   0.890   3.434
  257SOL    HW1 1591   1.019   0.806   3.405
  257SOL    HW2 1592   0.917   0.924   3.359
  258SOL     OW 1593   0.991   0.410   3.104
  258SOL    HW1 1594   0.914   0.444   3.158
  258SOL    HW2 1595   0.957   0.359   3.025
  259SOL     OW 1596   1.041   0.701   2.291
  259SOL    HW1 1597   1.067   0.697   2.387
  259SOL    HW2 1598   0.956   0.650   2.277
  260SOL     OW 1599   0.076   0.811   2.651
  260SOL    HW1 1600   0.175   0.799   2.660
  260SOL    HW2 1601   0.052   0.906   2.672
  261SOL     OW 1602   0.130   1.821   3.433
  261SOL    HW1 1603   0.120   1.806   3.532
  261SOL    HW2 1604   0.044   1.857   3.397
  262SOL     OW 1605   0.865   0.348   2.057
  262SOL    HW1 1606   0.924   0.411   2.008
  262SOL    HW2 1607   0.884   0.254   2.028
  263SOL     OW 1608   1.719   0.585   3.693
  263SOL    HW1 1609   1.693   0.674   3.657
  263SOL    HW2 1610   1.717   0.517   3.620
  264SOL     OW 1611   1.362   1.144   2.407
  264SOL    HW1 1612   1.445   1.115   2.359
  264SOL    HW2 1613   1.313   1.211   2.351
  265SOL     OW 1614   0.550   0.196   2.747
  265SOL    HW1 1615   0.545   0.191   2.847
  265SOL    HW2 1616   0.552   0.292   2.718
  266SOL     OW 1617   1.008   1.456   2.339
  266SOL    HW1 1618   0.962   1.528   2.287
  266SOL    HW2 1619   1.004   1.476   2.437
  267SOL     OW 1620   0.351   1.801   2.715
  267SOL    HW1 1621   0.401   1.715   2.721
  267SOL    HW2 1622   0.416   1.878   2.712
  268SOL     OW 1623   1.795   1.066   2.735
  268SOL    HW1 1624   1.733   1.051   2.659
  268SOL    HW2 1625   1.743   1.077   2.820
  269SOL     OW 1626   1.227   1.550   3.368
  269SOL    HW1 1627   1.233   1.473   3.432
  269SOL    HW2 1628   1.175   1.524   3.288
  270SOL     OW 1629   0.321   0.943   2.104
  270SOL    HW1 1630   0.403   0.982   2.062
  270SOL    HW2 1631   0.294   0.861   2.055
  271SOL     OW 1632   1.458   0.735   2.590
  271SOL    HW1 1633   1.453   0.670   2.665
  271SOL    HW2 1634   1.538   0.794   2.603
  272SOL     OW 1635   0.461   1.266   3.589
  272SOL    HW1 1636   0.411   1.267   3.503
  272SOL    HW2 1637   0.398   1.248   3.665
  273SOL     OW 1638   1.111   1.776   2.099
  273SOL    HW1 1639   1.051   1.714   2.149
  273SOL    HW2 1640   1.142   1.732   2.014
  274SOL     OW 1641   0.202   0.285   3.360
  274SOL    HW1 1642   0.122   0.345   3.347
  274SOL    HW2 1643   0.192   0.236   3.446
  275SOL     OW 1644   1.632   1.377   1.943
  275SOL    HW1 1645   1.600   1.471   1.933
  275SOL    HW2 1646   1.556   1.314   1.931
  276SOL     OW 1647   0.464   1.743   2.185
  276SOL    HW1 1648   0.497   1.782   2.271
  276SOL    HW2 1649   0.540   1.736   2.120
  277SOL     OW 1650   1.400   0.107   2.288
  277SOL    HW1 1651   1.376   0.070   2.198
  277SOL    HW2 1652   1.499   0.123   2.292
  278SOL     OW 1653   0.249   1.785   3.103
  278SOL    HW1 1654   0.306   1.720   3.153
  278SOL    HW2 1655   0.233   1.752   3.010
  279SOL     OW 1656   0.940   1.698   2.766
  279SOL    HW1 1657   1.020   1.641   2.787
  279SOL    HW2 1658   0.891   1.658   2.689
  280SOL     OW 1659   0.382   0.700   2.342
  280SOL    HW1 1660   0.427   0.610   2.339
  280SOL    HW2 1661   0.288   0.689   2.375
  281SOL     OW 1662   1.547   0.222   3.591
  281SOL    HW1 1663   1.542   0.259   3.683
  281SOL    HW2 1664   1.475   0.153   3.579
  282SOL     OW 1665   0.614   0.122   1.979
  282SOL    HW1 1666   0.712   0.100   1.986
  282SOL    HW2 1667   0.583   0.105   1.886
  283SOL     OW 1668   0.781   0.264   3.611
  283SOL    HW1 1669   0.848   0.203   3.654
  283SOL    HW2 1670   0.708   0.283   3.676
  284SOL     OW 1671   0.888   1.514   3.057
  284SOL    HW1 1672   0.865   1.489   2.963
  284SOL    HW2 1673   0.949   1.445   3.096
  285SOL     OW 1674   1.351   0.590   3.295
  285SOL    HW1 1675   1.379   0.547   3.380
  285SOL    HW2 1676   1.376   0.686   3.296
  286SOL     OW 1677   0.803   1.402   2.786
  286SOL    HW1 1678   0.893   1.416   2.744
  286SOL    HW2 1679   0.732   1.404   2.715
  287SOL     OW 1680   0.922   0.503   2.761
  287SOL    HW1 1681   0.897   0.494   2.665
  287SOL    HW2 1682   0.970   0.421   2.792
  288SOL     OW 1683   0.539   0.064   2.374
  288SOL    HW1 1684   0.458   0.065   2.432
  288SOL    HW2 1685   0.542   0.147   2.319
  289SOL     OW 1686   1.434   1.188   1.903
  289SOL    HW1 1687   1.466   1.112   1.960
  289SOL    HW2 1688   1.342   1.215   1.933
  290SOL     OW 1689   0.297   0.035   2.033
  290SOL    HW1 1690   0.346   0.119   2.012
  290SOL    HW2 1691   0.359  -0.030   2.078
  291SOL     OW 1692   0.935   0.236   2.342
  291SOL    HW1 1693   0.887   0.277   2.264
  291SOL    HW2 1694   1.034   0.234   2.323
  292SOL     OW 1695   1.076   0.683   3.326
  292SOL    HW1 1696   0.996   0.622   3.329
  292SOL    HW2 1697   1.157   0.630   3.302
  293SOL     OW 1698   1.227   1.570   2.655
  293SOL    HW1 1699   1.248   1.644   2.590
  293SOL    HW2 1700   1.295   1.570   2.728
  294SOL     OW 1701   0.459   1.152   2.603
  294SOL    HW1 1702   0.388   1.125   2.668
  294SOL    HW2 1703   0.433   1.124   2.510
  295SOL     OW 1704   1.271   1.797   2.453
  295SOL    HW1 1705   1.315   1.861   2.389
  295SOL    HW2 1706   1.221   1.849   2.523
  296SOL     OW 1707   1.032   0.549   1.878
  296SOL    HW1 1708   0.991   0.631   1.839
  296SOL    HW2 1709   1.096   0.575   1.951
  297SOL     OW 1710   0.078   0.556   3.248
  297SOL    HW1 1711   0.170   0.555   3.207
  297SOL    HW2 1712   0.072   0.630   3.315
  298SOL     OW 1713   0.561   0.222   3.009
  298SOL    HW1 1714   0.599   0.138   3.046
  298SOL    HW2 1715   0.473   0.241   3.053
  299SOL     OW 1716   0.866   0.454   2.504
  299SOL    HW1 1717   0.834   0.526   2.442
  299SOL    HW2 1718   0.890   0.373   2.451
  300SOL     OW 1719   1.017   0.039   2.615
  300SOL    HW1 1720   0.945   0.044   2.546
  300SOL    HW2 1721   0.993  -0.030   2.684
  301SOL     OW 1722   1.429   1.173   2.729
  301SOL    HW1 1723   1.374   1.089   2.722
  301SOL    HW2 1724   1.455   1.202   2.637
  302SOL     OW 1725   1.466   0.590   2.854
  302SOL    HW1 1726   1.436   0.495   2.861
  302SOL    HW2 1727   1.539   0.606   2.920
  303SOL     OW 1728   1.857   0.833   2.239
  303SOL    HW1 1729   1.899   0.769   2.303
  303SOL    HW2 1730   1.819   0.782   2.161
  304SOL     OW 1731   0.488   1.385   2.036
  304SOL    HW1 1732   0.401   1.370   2.083
  304SOL    HW2 1733   0.471   1.411   1.941
  305SOL     OW 1734   1.664   1.280   2.519
  305SOL    HW1 1735   1.763   1.288   2.533
  305SOL    HW2 1736   1.619   1.364   2.550
  306SOL     OW 1737   1.390   0.575   1.940
  306SOL    HW1 1738   1.336   0.554   2.021
  306SOL    HW2 1739   1.481   0.534   1.949
  307SOL     OW 1740   0.527   0.256   2.190
  307SOL    HW1 1741   0.554   0.197   2.115
  307SOL    HW2 1742   0.527   0.351   2.159
  308SOL     OW 1743   1.754   1.223   3.450
  308SOL    HW1 1744   1.845   1.184   3.437
  308SOL    HW2 1745   1.762   1.319   3.474
  309SOL     OW 1746   1.064   1.347   3.202
  309SOL    HW1 1747   0.984   1.324   3.257
  309SOL    HW2 1748   1.147   1.321   3.251
  310SOL     OW 1749   1.592   1.629   3.487
  310SOL    HW1 1750   1.619   1.663   3.397
  310SOL    HW2 1751   1.671   1.591   3.533
  311SOL     OW 1752   1.111   1.195   2.962
  311SOL    HW1 1753   1.071   1.239   3.043
  311SOL    HW2 1754   1.070   1.232   2.879
  312SOL     OW 1755   1.638   1.099   2.941
  312SOL    HW1 1756   1.643   1.180   3.000
  312SOL    HW2 1757   1.552   1.101   2.890
  313SOL     OW 1758   0.915   0.089   3.264
  313SOL    HW1 1759   0.940   0.069   3.169
  313SOL    HW2 1760   0.987   0.145   3.306
  314SOL     OW 1761   0.980   1.116   3.581
  314SOL    HW1 1762   0.881   1.122   3.591
  314SOL    HW2 1763   1.003   1.036   3.525
  315SOL     OW 1764   0.705   1.050   2.230
  315SOL    HW1 1765   0.691   1.057   2.329
  315SOL    HW2 1766   0.789   0.999   2.212
  316SOL     OW 1767   0.410   0.813   3.113
  316SOL    HW1 1768   0.496   0.825   3.163
  316SOL    HW2 1769   0.368   0.726   3.140
  317SOL     OW 1770   1.274   0.386   3.124
  317SOL    HW1 1771   1.295   0.460   3.188
  317SOL    HW2 1772   1.185   0.403   3.081
  318SOL     OW 1773   0.064   1.564   3.193
  318SOL    HW1 1774   0.018   1.646   3.159
  318SOL    HW2 1775   0.162   1.583   3.202
  319SOL     OW 1776   0.367   1.100   2.363
  319SOL    HW1 1777   0.360   1.183   2.307
  319SOL    HW2 1778   0.371   1.020   2.303
  320SOL     OW 1779   0.566   0.537   2.727
  320SOL    HW1 1780   0.578   0.603   2.653
  320SOL    HW2 1781   0.612   0.571   2.810
  321SOL     OW 1782   1.252   1.348   2.250
  321SOL    HW1 1783   1.302   1.425   2.290
  321SOL    HW2 1784   1.157   1.350   2.282
  322SOL     OW 1785   1.272   1.445   3.004
  322SOL    HW1 1786   1.319   1.458   3.091
  322SOL    HW2 1787   1.206   1.371   3.013
  323SOL     OW 1788   1.582   0.639   2.334
  323SOL    HW1 1789   1.551   0.700   2.407
  323SOL    HW2 1790   1.632   0.691   2.265
  324SOL     OW 1791   0.354   1.510   3.191
  324SOL    HW1 1792   0.333   1.466   3.104
  324SOL    HW2 1793   0.451   1.536   3.194
  325SOL     OW 1794   0.402   0.751   3.460
  325SOL    HW1 1795   0.470   0.806   3.413
  325SOL    HW2 1796   0.442   0.663   3.487
  326SOL     OW 1797   1.587   0.779   3.532
  326SOL    HW1 1798   1.495   0.817   3.527
  326SOL    HW2 1799   1.647   0.826   3.467
  327SOL     OW 1800   1.013   0.105   3.632
  327SOL    HW1 1801   1.019   0.190   3.580
  327SOL    HW2 1802   1.045   0.029   3.575
  328SOL     OW 1803   0.504   0.050   3.602
  328SOL    HW1 1804   0.462  -0.007   3.532
  328SOL    HW2 1805   0.438   0.119   3.634
  329SOL     OW 1806   0.573   0.870   2.891
  329SOL    HW1 1807   0.617   0.959   2.882
  329SOL    HW2 1808   0.510   0.870   2.968
  330SOL     OW 1809   1.360   0.862   2.907
  330SOL    HW1 1810   1.285   0.862   2.841
  330SOL    HW2 1811   1.397   0.770   2.916
  331SOL     OW 1812   1.209   0.525   2.137
  331SOL    HW1 1813   1.222   0.441   2.191
  331SOL    HW2 1814   1.180   0.599   2.197
  332SOL     OW 1815   0.307   0.213   3.093
  332SOL    HW1 1816   0.284   0.250   3.183
  332SOL    HW2 1817   0.277   0.118   3.087
  333SOL     OW 1818   0.037   1.310   3.144
  333SOL    HW1 1819   0.090   1.261   3.212
  333SOL    HW2 1820   0.059   1.408   3.149
  334SOL     OW 1821   0.732   0.634   2.926
  334SOL    HW1 1822   0.791   0.608   2.850
  334SOL    HW2 1823   0.704   0.730   2.915
  335SOL     OW 1824   1.728   0.935   3.716
  335SOL    HW1 1825   1.682   0.928   3.627
  335SOL    HW2 1826   1.666   0.979   3.782
  336SOL     OW 1827   0.307   0.063   2.480
  336SOL    HW1 1828   0.296   0.157   2.513
  336SOL    HW2 1829   0.302   0.000   2.557
  337SOL     OW 1830   1.622   0.367   2.236
  337SOL    HW1 1831   1.624   0.291   2.300
  337SOL    HW2 1832   1.574   0.444   2.276
  338SOL     OW 1833   1.023   0.766   2.828
  338SOL    HW1 1834   1.038   0.787   2.924
  338SOL    HW2 1835   0.993   0.671   2.819
  339SOL     OW 1836   0.980   1.573   3.562
  339SOL    HW1 1837   0.960   1.617   3.474
  339SOL    HW2 1838   1.019   1.482   3.546
  340SOL     OW 1839   1.859   1.518   3.467
  340SOL    HW1 1840   1.873   1.545   3.372
  340SOL    HW2 1841   1.942   1.540   3.520
  341SOL     OW 1842   0.350   0.898   3.666
  341SOL    HW1 1843   0.426   0.942   3.714
  341SOL    HW2 1844   0.385   0.851   3.584
  342SOL     OW 1845   1.540   0.274   1.987
  342SOL    HW1 1846   1.479   0.199   2.010
  342SOL    HW2 1847   1.562   0.326   2.070
  343SOL     OW 1848   1.303   0.838   1.904
  343SOL    HW1 1849   1.337   0.745   1.919
  343SOL    HW2 1850   1.321   0.865   1.809
  344SOL     OW 1851   1.068   1.333   2.711
  344SOL    HW1 1852   1.075   1.249   2.656
  344SOL    HW2 1853   1.130   1.402   2.675
  345SOL     OW 1854   0.319   0.810   2.811
  345SOL    HW1 1855   0.412   0.846   2.816
  345SOL    HW2 1856   0.313   0.725   2.863
  346SOL     OW 1857   0.339   0.509   2.868
  346SOL    HW1 1858   0.287   0.426   2.851
  346SOL    HW2 1859   0.416   0.514   2.804
  347SOL     OW 1860   1.138   0.380   3.540
  347SOL    HW1 1861   1.093   0.443   3.604
  347SOL    HW2 1862   1.231   0.411   3.523
  348SOL     OW 1863   1.160   0.207   3.339
  348SOL    HW1 1864   1.160   0.271   3.416
  348SOL    HW2 1865   1.188   0.255   3.256
  349SOL     OW 1866   0.008   1.326   2.062
  349SOL    HW1 1867  -0.085   1.347   2.031
  349SOL    HW2 1868   0.018   1.227   2.075
  350SOL     OW 1869   0.088   1.801   2.789
  350SOL    HW1 1870   0.046   1.715   2.762
  350SOL    HW2 1871   0.182   1.804   2.755
  351SOL     OW 1872   0.504   1.568   2.772
  351SOL    HW1 1873   0.570   1.642   2.781
  351SOL    HW2 1874   0.548   1.489   2.730
  352SOL     OW 1875   1.002   0.796   3.100
  352SOL    HW1 1876   1.043   0.764   3.186
  352SOL    HW2 1877   0.906   0.769   3.097
  353SOL     OW 1878   0.040   0.544   2.976
  353SOL    HW1 1879   0.125   0.511   2.935
  353SOL    HW2 1880   0.053   0.559   3.074
  354SOL     OW 1881   0.189   0.520   3.584
  354SOL    HW1 1882   0.248   0.480   3.514
  354SOL    HW2 1883   0.131   0.591   3.543
  355SOL     OW 1884   1.369   0.950   3.522
  355SOL    HW1 1885   1.408   1.039   3.542
  355SOL    HW2 1886   1.379   0.930   3.425
  356SOL     OW 1887   0.815   0.572   2.187
  356SOL    HW1 1888   0.822   0.483   2.141
  356SOL    HW2 1889   0.721   0.606   2.179
  357SOL     OW 1890   1.657   0.604   3.068
  357SOL    HW1 1891   1.619   0.535   3.130
  357SOL    HW2 1892   1.739   0.568   3.024
  358SOL     OW 1893   0.252   1.564   3.606
  358SOL    HW1 1894   0.222   1.621   3.682
  358SOL    HW2 1895   0.245   1.467   3.632
  359SOL     OW 1896   0.671   0.464   3.131
  359SOL    HW1 1897   0.637   0.375   3.101
  359SOL    HW2 1898   0.697   0.518   3.051
  360SOL     OW 1899   0.930   1.678   3.327
  360SOL    HW1 1900   0.906   1.660   3.232
  360SOL    HW2 1901   0.960   1.772   3.337
  361SOL     OW 1902   0.473   0.500   2.053
  361SOL    HW1 1903   0.534   0.580   2.057
  361SOL    HW2 1904   0.378   0.531   2.060
  362SOL     OW 1905   0.159   1.137   3.328
  362SOL    HW1 1906   0.181   1.076   3.404
  362SOL    HW2 1907   0.169   1.088   3.242
  363SOL     OW 1908   1.347   1.059   3.096
  363SOL    HW1 1909   1.371   0.996   3.022
  363SOL    HW2 1910   1.257   1.099   3.078
  364SOL     OW 1911   1.302   0.855   2.171
  364SOL    HW1 1912   1.216   0.824   2.213
  364SOL    HW2 1913   1.298   0.841   2.072
  365SOL     OW 1914   1.759   1.747   3.016
  365SOL    HW1 1915   1.820   1.777   2.943
  365SOL    HW2 1916   1.721   1.658   2.994
  366SOL     OW 1917   1.252   1.731   2.990
  366SOL    HW1 1918   1.336   1.736   2.936
  366SOL    HW2 1919   1.229   1.635   3.008
  367SOL     OW 1920   0.083   1.258   2.884
  367SOL    HW1 1921   0.078   1.257   2.984
  367SOL    HW2 1922   0.000   1.217   2.846
  368SOL     OW 1923   0.688   1.662   3.578
  368SOL    HW1 1924   0.632   1.743   3.587
  368SOL    HW2 1925   0.740   1.666   3.492
  369SOL     OW 1926   1.726   0.135   2.385
  369SOL    HW1 1927   1.799   0.118   2.318
  369SOL    HW2 1928   1.695   0.048   2.423
  370SOL     OW 1929   1.388   1.573   2.339
  370SOL    HW1 1930   1.455   1.585   2.265
  370SOL    HW2 1931   1.348   1.662   2.362
  371SOL     OW 1932   0.130   1.794   3.713
  371SOL    HW1 1933   0.089   1.720   3.766
  371SOL    HW2 1934   0.194   1.845   3.771
  372SOL     OW 1935   1.280   0.927   2.534
  372SOL    HW1 1936   1.340   0.846   2.536
  372SOL    HW2 1937   1.320   0.996   2.474
  373SOL     OW 1938   0.830   1.273   3.284
  373SOL    HW1 1939   0.825   1.306   3.379
  373SOL    HW2 1940   0.744   1.292   3.238
  374SOL     OW 1941   0.672   1.616   2.016
  374SOL    HW1 1942   0.681   1.626   1.917
  374SOL    HW2 1943   0.632   1.527   2.037
  375SOL     OW 1944   1.650   1.720   3.256
  375SOL    HW1 1945   1.703   1.730   3.172
  375SOL    HW2 1946   1.623   1.810   3.290
  376SOL     OW 1947   1.841   0.175   2.825
  376SOL    HW1 1948   1.880   0.090   2.789
  376SOL    HW2 1949   1.743   0.177   2.806
  377SOL     OW 1950   0.263   0.326   2.582
  377SOL    HW1 1951   0.184   0.377   2.548
  377SOL    HW2 1952   0.254   0.311   2.680
  378SOL     OW 1953   1.194   1.612   1.893
  378SOL    HW1 1954   1.200   1.519   1.930
  378SOL    HW2 1955   1.135   1.612   1.813
  379SOL     OW 1956   0.822   1.002   3.234
  379SOL    HW1 1957   0.862   1.001   3.142
  379SOL    HW2 1958   0.832   1.094   3.274
  380SOL     OW 1959   0.916   0.910   2.153
  380SOL    HW1 1960   0.979   0.948   2.085
  380SOL    HW2 1961   0.956   0.827   2.192
  381SOL     OW 1962   1.504   1.607   1.906
  381SOL    HW1 1963   1.412   1.644   1.913
  381SOL    HW2 1964   1.542   1.627   1.816
  382SOL     OW 1965   0.372   1.288   3.352
  382SOL    HW1 1966   0.359   1.381   3.318
  382SOL    HW2 1967   0.288   1.236   3.339
  383SOL     OW 1968   1.614   1.292   3.151
  383SOL    HW1 1969   1.674   1.295   3.231
  383SOL    HW2 1970   1.539   1.356   3.164
  384SOL     OW 1971   1.039   1.098   2.558
  384SOL    HW1 1972   0.969   1.051   2.612
  384SOL    HW2 1973   1.098   1.030   2.515
  385SOL     OW 1974   1.014   0.236   2.833
  385SOL    HW1 1975   1.006   0.200   2.740
  385SOL    HW2 1976   1.012   0.160   2.898
  386SOL     OW 1977   0.590   1.487   2.353
  386SOL    HW1 1978   0.632   1.429   2.283
  386SOL    HW2 1979   0.546   1.566   2.309
  387SOL     OW 1980   1.709   0.385   3.243
  387SOL    HW1 1981   1.782   0.454   3.247
  387SOL    HW2 1982   1.737   0.310   3.184
  388SOL     OW 1983   0.255   1.348   2.152
  388SOL    HW1 1984   0.159   1.349   2.125
  388SOL    HW2 1985   0.267   1.401   2.236
  389SOL     OW 1986   0.105   1.013   3.588
  389SOL    HW1 1987   0.028   0.980   3.642
  389SOL    HW2 1988   0.190   0.983   3.630
  390SOL     OW 1989   0.672   0.203   3.351
  390SOL    HW1 1990   0.762   0.187   3.311
  390SOL    HW2 1991   0.680   0.208   3.450
  391SOL     OW 1992   0.075   0.345   1.895
  391SOL    HW1 1993  -0.017   0.317   1.866
  391SOL    HW2 1994   0.106   0.422   1.839
  392SOL     OW 1995   1.440   0.856   3.260
  392SOL    HW1 1996   1.383   0.908   3.197
  392SOL    HW2 1997   1.536   0.868   3.236
  393SOL     OW 1998   0.072   0.166   2.180
  393SOL    HW1 1999   0.055   0.249   2.126
  393SOL    HW2 2000   0.162   0.129   2.158
  394SOL     OW 2001   1.183   1.335   1.981
  394SOL    HW1 2002   1.084   1.324   1.983
  394SOL    HW2 2003   1.217   1.350   2.074
  395SOL     OW 2004   0.613   0.842   3.293
  395SOL    HW1 2005   0.669   0.923   3.276
  395SOL    HW2 2006   0.672   0.762   3.296
  396SOL     OW 2007   1.493   1.767   2.821
  396SOL    HW1 2008   1.526   1.831   2.752
  396SOL    HW2 2009   1.559   1.761   2.896
  397SOL     OW 2010   0.716   0.565   3.570
  397SOL    HW1 2011   0.735   0.630   3.644
  397SOL    HW2 2012   0.776   0.485   3.579
  398SOL     OW 2013   1.450   1.220   3.495
  398SOL    HW1 2014   1.441   1.210   3.594
  398SOL    HW2 2015   1.546   1.213   3.469
  399SOL     OW 2016   0.390   1.741   3.422
  399SOL    HW1 2017   0.299   1.782   3.420
  399SOL    HW2 2018   0.383   1.647   3.454
  400SOL     OW 2019   1.674   0.883   3.116
  400SOL    HW1 2020   1.647   0.794   3.079
  400SOL    HW2 2021   1.675   0.951   3.043
  401SOL     OW 2022   1.225   0.325   2.311
  401SOL    HW1 2023   1.290   0.251   2.300
  401SOL    HW2 2024   1.245   0.375   2.395
  402SOL     OW 2025   0.594   0.745   2.514
  402SOL    HW1 2026   0.644   0.830   2.495
  402SOL    HW2 2027   0.506   0.747   2.466
  403SOL     OW 2028   1.777   0.342   3.504
  403SOL    HW1 2029   1.760   0.373   3.410
  403SOL    HW2 2030   1.693   0.305   3.542
  404SOL     OW 2031   1.730   0.934   3.379
  404SOL    HW1 2032   1.768   1.025   3.394
  404SOL    HW2 2033   1.722   0.917   3.280
  405SOL     OW 2034   0.859   1.374   1.878
  405SOL    HW1 2035   0.813   1.389   1.966
  405SOL    HW2 2036   0.903   1.459   1.848
  406SOL     OW 2037   0.661   1.790   2.815
  406SOL    HW1 2038   0.615   1.878   2.802
  406SOL    HW2 2039   0.760   1.802   2.808
  407SOL     OW 2040   0.859   0.956   2.723
  407SOL    HW1 2041   0.913   0.887   2.771
  407SOL    HW2 2042   0.827   1.025   2.789
  408SOL     OW 2043   1.083   0.984   1.949
  408SOL    HW1 2044   1.060   1.037   1.867
  408SOL    HW2 2045   1.164   0.928   1.930
  409SOL     OW 2046   1.861   1.569   2.713
  409SOL    HW1 2047   1.790   1.557   2.643
  409SOL    HW2 2048   1.862   1.490   2.773
  410SOL     OW 2049   0.221   1.314   3.706
  410SOL    HW1 2050   0.156   1.241   3.685
  410SOL    HW2 2051   0.225   1.328   3.804
  411SOL     OW 2052   0.079   1.240   2.515
  411SOL    HW1 2053   0.078   1.193   2.603
  411SOL    HW2 2054   0.161   1.212   2.464
  412SOL     OW 2055   0.672   1.391   3.486
  412SOL    HW1 2056   0.594   1.341   3.524
  412SOL    HW2 2057   0.669   1.486   3.517
  413SOL     OW 2058   1.824   0.192   3.089
  413SOL    HW1 2059   1.820   0.102   3.133
  413SOL    HW2 2060   1.827   0.181   2.990
  414SOL     OW 2061   0.428   0.424   2.382
  414SOL    HW1 2062   0.458   0.352   2.320
  414SOL    HW2 2063   0.389   0.384   2.465
  415SOL     OW 2064   1.705   1.487   2.966
  415SOL    HW1 2065   1.612   1.462   2.939
  415SOL    HW2 2066   1.731   1.437   3.048
  416SOL     OW 2067   0.317   0.547   3.142
  416SOL    HW1 2068   0.355   0.488   3.214
  416SOL    HW2 2069   0.357   0.521   3.054
  417SOL     OW 2070   0.812   1.586   2.549
  417SOL    HW1 2071   0.844   1.596   2.455
  417SOL    HW2 2072   0.733   1.524   2.551
  418SOL     OW 2073   1.424   0.214   2.974
  418SOL    HW1 2074   1.476   0.149   3.029
  418SOL    HW2 2075   1.375   0.277   3.035
  419SOL     OW 2076   1.001   0.034   3.016
  419SOL    HW1 2077   0.938  -0.038   2.985
  419SOL    HW2 2078   1.094  -0.002   3.016
  420SOL     OW 2079   0.770   1.330   2.163
  420SOL    HW1 2080   0.724   1.243   2.180
  420SOL    HW2 2081   0.861   1.327   2.204
  421SOL     OW 2082   0.618   1.567   3.146
  421SOL    HW1 2083   0.613   1.649   3.203
  421SOL    HW2 2084   0.707   1.564   3.101
  422SOL     OW 2085   1.352   0.052   2.030
  422SOL    HW1 2086   1.387   0.011   1.946
  422SOL    HW2 2087   1.262   0.014   2.050
  423SOL     OW 2088   1.300   0.453   2.553
  423SOL    HW1 2089   1.241   0.533   2.557
  423SOL    HW2 2090   1.315   0.418   2.646
  424SOL     OW 2091   1.593   0.221   2.744
  424SOL    HW1 2092   1.509   0.220   2.798
  424SOL    HW2 2093   1.595   0.304   2.688
  425SOL     OW 2094   0.039   1.077   2.162
  425SOL    HW1 2095   0.138   1.066   2.153
  425SOL    HW2 2096  -0.001   0.991   2.194
  426SOL     OW 2097   0.875   1.646   2.199
  426SOL    HW1 2098   0.798   1.611   2.145
  426SOL    HW2 2099   0.843   1.717   2.261
  427SOL     OW 2100   0.230   0.628   3.837
  427SOL    HW1 2101   0.137   0.626   3.874
  427SOL    HW2 2102   0.231   0.589   3.745
  428SOL     OW 2103   0.225   0.275   4.720
  428SOL    HW1 2104   0.260   0.258   4.812
  428SOL    HW2 2105   0.137   0.230   4.708
  429SOL     OW 2106   0.019   0.368   4.371
  429SOL    HW1 2107  -0.063   0.411   4.410
  429SOL    HW2 2108  -0.009   0.295   4.308
  430SOL     OW 2109   0.569   1.275   4.889
  430SOL    HW1 2110   0.476   1.268   4.852
  430SOL    HW2 2111   0.580   1.364   4.933
  431SOL     OW 2112   1.555   1.511   4.427
  431SOL    HW1 2113   1.498   1.495   4.508
  431SOL    HW2 2114   1.496   1.521   4.347
  432SOL     OW 2115   1.135   0.703   4.441
  432SOL    HW1 2116   1.192   0.781   4.416
  432SOL    HW2 2117   1.075   0.729   4.517
  433SOL     OW 2118   1.755   0.607   3.955
  433SOL    HW1 2119   1.743   0.594   3.856
  433SOL    HW2 2120   1.725   0.526   4.004
  434SOL     OW 2121   0.768   1.144   4.747
  434SOL    HW1 2122   0.690   1.161   4.807
  434SOL    HW2 2123   0.802   1.231   4.711
  435SOL     OW 2124   0.850   0.798   5.547
  435SOL    HW1 2125   0.846   0.874   5.612
  435SOL    HW2 2126   0.872   0.834   5.456
  436SOL     OW 2127   0.685   1.012   4.389
  436SOL    HW1 2128   0.754   0.996   4.459
  436SOL    HW2 2129   0.612   1.069   4.427
  437SOL     OW 2130   0.686   1.161   5.527
  437SOL    HW1 2131   0.746   1.240   5.541
  437SOL    HW2 2132   0.600   1.192   5.486
  438SOL     OW 2133   0.335   1.435   4.785
  438SOL    HW1 2134   0.257   1.404   4.732
  438SOL    HW2 2135   0.393   1.493   4.728
  439SOL     OW 2136   1.460   1.505   5.063
  439SOL    HW1 2137   1.484   1.599   5.089
  439SOL    HW2 2138   1.444   1.451   5.145
  440SOL     OW 2139   0.438   0.392   5.223
  440SOL    HW1 2140   0.520   0.336   5.232
  440SOL    HW2 2141   0.357   0.334   5.227
  441SOL     OW 2142   1.603   0.447   4.461
  441SOL    HW1 2143   1.529   0.493   4.411
  441SOL    HW2 2144   1.654   0.515   4.514
  442SOL     OW 2145   0.231   1.713   4.207
  442SOL    HW1 2146   0.265   1.790   4.261
  442SOL    HW2 2147   0.275   1.713   4.117
  443SOL     OW 2148   1.127   1.341   5.414
  443SOL    HW1 2149   1.174   1.341   5.502
  443SOL    HW2 2150   1.079   1.254   5.403
  444SOL     OW 2151   0.230   1.434   4.262
  444SOL    HW1 2152   0.204   1.530   4.262
  444SOL    HW2 2153   0.159   1.380   4.307
  445SOL     OW 2154   0.240   1.091   4.610
  445SOL    HW1 2155   0.254   1.007   4.662
  445SOL    HW2 2156   0.185   1.155   4.665
  446SOL     OW 2157   0.620   1.786   5.163
  446SOL    HW1 2158   0.528   1.769   5.198
  446SOL    HW2 2159   0.648   1.878   5.189
  447SOL     OW 2160   0.606   0.964   3.847
  447SOL    HW1 2161   0.613   1.048   3.793
  447SOL    HW2 2162   0.652   0.977   3.935
  448SOL     OW 2163   1.594   0.114   5.204
  448SOL    HW1 2164   1.576   0.181   5.132
  448SOL    HW2 2165   1.591   0.160   5.293
  449SOL     OW 2166   0.122   0.643   4.287
  449SOL    HW1 2167   0.077   0.555   4.304
  449SOL    HW2 2168   0.121   0.697   4.371
  450SOL     OW 2169   1.842   1.767   4.083
  450SOL    HW1 2170   1.896   1.738   4.163
  450SOL    HW2 2171   1.872   1.857   4.054
  451SOL     OW 2172   0.027   1.596   3.841
  451SOL    HW1 2173   0.008   1.500   3.862
  451SOL    HW2 2174  -0.006   1.654   3.916
  452SOL     OW 2175   1.689   0.922   4.336
  452SOL    HW1 2176   1.784   0.893   4.344
  452SOL    HW2 2177   1.681   0.987   4.261
  453SOL     OW 2178   1.641   1.108   4.156
  453SOL    HW1 2179   1.727   1.110   4.104
  453SOL    HW2 2180   1.655   1.155   4.244
  454SOL     OW 2181   0.113   0.737   5.321
  454SOL    HW1 2182   0.201   0.724   5.366
  454SOL    HW2 2183   0.100   0.834   5.299
  455SOL     OW 2184   0.613   1.365   4.450
  455SOL    HW1 2185   0.564   1.278   4.459
  455SOL    HW2 2186   0.590   1.408   4.363
  456SOL     OW 2187   1.293   1.228   5.147
  456SOL    HW1 2188   1.330   1.155   5.089
  456SOL    HW2 2189   1.345   1.233   5.232
  457SOL     OW 2190   0.809   0.004   4.226
  457SOL    HW1 2191   0.849   0.095   4.217
  457SOL    HW2 2192   0.709   0.012   4.232
  458SOL     OW 2193   0.197   0.976   4.988
  458SOL    HW1 2194   0.286   0.931   4.974
  458SOL    HW2 2195   0.124   0.911   4.969
  459SOL     OW 2196   1.525   0.999   3.914
  459SOL    HW1 2197   1.462   0.923   3.927
  459SOL    HW2 2198   1.573   1.017   4.000
  460SOL     OW 2199   1.187   1.792   5.340
  460SOL    HW1 2200   1.211   1.852   5.264
  460SOL    HW2 2201   1.194   1.697   5.310
  461SOL     OW 2202   0.317   0.251   5.525
  461SOL    HW1 2203   0.388   0.322   5.531
  461SOL    HW2 2204   0.229   0.290   5.553
  462SOL     OW 2205   1.466   1.417   4.677
  462SOL    HW1 2206   1.407   1.423   4.757
  462SOL    HW2 2207   1.451   1.329   4.631
  463SOL     OW 2208   1.667   1.714   4.296
  463SOL    HW1 2209   1.626   1.691   4.208
  463SOL    HW2 2210   1.649   1.640   4.361
  464SOL     OW 2211   0.598   0.729   3.994
  464SOL    HW1 2212   0.622   0.798   3.926
  464SOL    HW2 2213   0.520   0.762   4.048
  465SOL     OW 2214   1.281   0.345   4.668
  465SOL    HW1 2215   1.195   0.295   4.655
  465SOL    HW2 2216   1.343   0.291   4.724
  466SOL     OW 2217   1.576   1.662   4.031
  466SOL    HW1 2218   1.665   1.708   4.034
  466SOL    HW2 2219   1.555   1.638   3.936
  467SOL     OW 2220   0.807   0.605   5.189
  467SOL    HW1 2221   0.760   0.602   5.278
  467SOL    HW2 2222   0.756   0.550   5.123
  468SOL     OW 2223   1.394   0.469   5.398
  468SOL    HW1 2224   1.374   0.512   5.486
  468SOL    HW2 2225   1.472   0.407   5.407
  469SOL     OW 2226   0.973   0.890   5.296
  469SOL    HW1 2227   1.019   0.806   5.267
  469SOL    HW2 2228   0.917   0.924   5.221
  470SOL     OW 2229   0.991   0.410   4.966
  470SOL    HW1 2230   0.914   0.444   5.020
  470SOL    HW2 2231   0.957   0.359   4.887
  471SOL     OW 2232   1.041   0.701   4.153
  471SOL    HW1 2233   1.067   0.697   4.249
  471SOL    HW2 2234   0.956   0.650   4.139
  472SOL     OW 2235   0.076   0.811   4.513
  472SOL    HW1 2236   0.175   0.799   4.522
  472SOL    HW2 2237   0.052   0.906   4.534
  473SOL     OW 2238   0.130   1.821   5.295
  473SOL    HW1 2239   0.120   1.806   5.394
  473SOL    HW2 2240   0.044   1.857   5.259
  474SOL     OW 2241   0.865   0.348   3.919
  474SOL    HW1 2242   0.924   0.411   3.870
  474SOL    HW2 2243   0.884   0.254   3.890
  475SOL     OW 2244   1.719   0.585   5.555
  475SOL    HW1 2245   1.693   0.674   5.519
  475SOL    HW2 2246   1.717   0.517   5.482
  476SOL     OW 2247   1.362   1.144   4.269
  476SOL    HW1 2248   1.445   1.115   4.221
  476SOL    HW2 2249   1.313   1.211   4.213
  477SOL     OW 2250   0.550   0.196   4.609
  477SOL    HW1 2251   0.545   0.191   4.709
  477SOL    HW2 2252   0.552   0.292   4.580
  478SOL     OW 2253   1.008   1.456   4.201
  478SOL    HW1 2254   0.962   1.528   4.149
  478SOL    HW2 2255   1.004   1.476   4.299
  479SOL     OW 2256   0.351   1.801   4.577
  479SOL    HW1 2257   0.401   1.715   4.583
  479SOL    HW2 2258   0.416   1.878   4.574
  480SOL     OW 2259   1.795   1.066   4.597
  480SOL    HW1 2260   1.733   1.051   4.521
  480SOL    HW2 2261   1.743   1.077   4.682
  481SOL     OW 2262   1.227   1.550   5.230
  481SOL    HW1 2263   1.233   1.473   5.294
  481SOL    HW2 2264   1.175   1.524   5.150
  482SOL     OW 2265   0.321   0.943   3.966
  482SOL    HW1 2266   0.403   0.982   3.924
  482SOL    HW2 2267   0.294   0.861   3.917
  483SOL     OW 2268   1.458   0.735   4.452
  483SOL    HW1 2269   1.453   0.670   4.527
  483SOL    HW2 2270   1.538   0.794   4.465
  484SOL     OW 2271   0.461   1.266   5.451
  484SOL    HW1 2272   0.411   1.267   5.365
  484SOL    HW2 2273   0.398   1.248   5.527
  485SOL     OW 2274   1.111   1.776   3.961
  485SOL    HW1 2275   1.051   1.714   4.011
  485SOL    HW2 2276   1.142   1.732   3.876
  486SOL     OW 2277   0.202   0.285   5.222
  486SOL    HW1 2278   0.122   0.345   5.209
  486SOL    HW2 2279   0.192   0.236   5.308
  487SOL     OW 2280   1.632   1.377   3.805
  487SOL    HW1 2281   1.600   1.471   3.795
  487SOL    HW2 2282   1.556   1.314   3.793
  488SOL     OW 2283   0.464   1.743   4.047
  488SOL    HW1 2284   0.497   1.782   4.133
  488SOL    HW2 2285   0.540   1.736   3.982
  489SOL     OW 2286   1.400   0.107   4.150
  489SOL    HW1 2287   1.376   0.070   4.060
  489SOL    HW2 2288   1.499   0.123   4.154
  490SOL     OW 2289   0.249   1.785   4.965
  490SOL    HW1 2290   0.306   1.720   5.015
  490SOL    HW2 2291   0.233   1.752   4.872
  491SOL     OW 2292   0.940   1.698   4.628
  491SOL    HW1 2293   1.020   1.641   4.649
  491SOL    HW2 2294   0.891   1.658   4.551
  492SOL     OW 2295   0.382   0.700   4.204
  492SOL    HW1 2296   0.427   0.610   4.201
  492SOL    HW2 2297   0.288   0.689   4.237
  493SOL     OW 2298   1.547   0.222   5.453
  493SOL    HW1 2299   1.542   0.259   5.545
  493SOL    HW2 2300   1.475   0.153   5.441
  494SOL     OW 2301   0.614   0.122   3.841
  494SOL    HW1 2302   0.712   0.100   3.848
  494SOL    HW2 2303   0.583   0.105   3.748
  495SOL     OW 2304   0.781   0.264   5.473
  495SOL    HW1 2305   0.848   0.203   5.516
  495SOL    HW2 2306   0.708   0.283   5.538
  496SOL     OW 2307   0.888   1.514   4.919
  496SOL    HW1 2308   0.865   1.489   4.825
  496SOL    HW2 2309   0.949   1.445   4.958
  497SOL     OW 2310   1.351   0.590   5.157
  497SOL    HW1 2311   1.379   0.547   5.242
  497SOL    HW2 2312   1.376   0.686   5.158
  498SOL     OW 2313   0.803   1.402   4.648
  498SOL    HW1 2314   0.893   1.416   4.606
  498SOL    HW2 2315   0.732   1.404   4.577
  499SOL     OW 2316   0.922   0.503   4.623
  499SOL    HW1 2317   0.897   0.494   4.527
  499SOL    HW2 2318   0.970   0.421   4.654
  500SOL     OW 2319   0.539   0.064   4.236
  500SOL    HW1 2320   0.458   0.065   4.294
  500SOL    HW2 2321   0.542   0.147   4.181
  501SOL     OW 2322   1.434   1.188   3.765
  501SOL    HW1 2323   1.466   1.112   3.822
  501SOL    HW2 2324   1.342   1.215   3.795
  502SOL     OW 2325   0.297   0.035   3.895
  502SOL    HW1 2326   0.346   0.119   3.874
  502SOL    HW2 2327   0.359  -0.030   3.940
  503SOL     OW 2328   0.935   0.236   4.204
  503SOL    HW1 2329   0.887   0.277   4.126
  503SOL    HW2 2330   1.034   0.234   4.185
  504SOL     OW 2331   1.076   0.683   5.188
  504SOL    HW1 2332   0.996   0.622   5.191
  504SOL    HW2 2333   1.157   0.630   5.164
  505SOL     OW 2334   1.227   1.570   4.517
  505SOL    HW1 2335   1.248   1.644   4.452
  505SOL    HW2 2336   1.295   1.570   4.590
  506SOL     OW 2337   0.459   1.152   4.465
  506SOL    HW1 2338   0.388   1.125   4.530
  506SOL    HW2 2339   0.433   1.124   4.372
  507SOL     OW 2340   1.271   1.797   4.315
  507SOL    HW1 2341   1.315   1.861   4.251
  507SOL    HW2 2342   1.221   1.849   4.385
  508SOL     OW 2343   1.032   0.549   3.740
  508SOL    HW1 2344   0.991   0.631   3.701
  508SOL    HW2 2345   1.096   0.575   3.813
  509SOL     OW 2346   0.078   0.556   5.110
  509SOL    HW1 2347   0.170   0.555   5.069
  509SOL    HW2 2348   0.072   0.630   5.177
  510SOL     OW 2349   0.561   0.222   4.871
  510SOL    HW1 2350   0.599   0.138   4.908
  510SOL    HW2 2351   0.473   0.241   4.915
  511SOL     OW 2352   0.866   0.454   4.366
  511SOL    HW1 2353   0.834   0.526   4.304
  511SOL    HW2 2354   0.890   0.373   4.313
  512SOL     OW 2355   1.017   0.039   4.477
  512SOL    HW1 2356   0.945   0.044   4.408
  512SOL    HW2 2357   0.993  -0.030   4.546
  513SOL     OW 2358   1.429   1.173   4.591
  513SOL    HW1 2359   1.374   1.089   4.584
  513SOL    HW2 2360   1.455   1.202   4.499
  514SOL     OW 2361   1.466   0.590   4.716
  514SOL    HW1 2362   1.436   0.495   4.723
  514SOL    HW2 2363   1.539   0.606   4.782
  515SOL     OW 2364   1.857   0.833   4.101
  515SOL    HW1 2365   1.899   0.769   4.165
  515SOL    HW2 2366   1.819   0.782   4.023
  516SOL     OW 2367   0.488   1.385   3.898
  516SOL    HW1 2368   0.401   1.370   3.945
  516SOL    HW2 2369   0.471   1.411   3.803
  517SOL     OW 2370   1.664   1.280   4.381
  517SOL    HW1 2371   1.763   1.288   4.395
  517SOL    HW2 2372   1.619   1.364   4.412
  518SOL     OW 2373   1.390   0.575   3.802
  518SOL    HW1 2374   1.336   0.554   3.883
  518SOL    HW2 2375   1.481   0.534   3.811
  519SOL     OW 2376   0.527   0.256   4.052
  519SOL    HW1 2377   0.554   0.197   3.977
  519SOL    HW2 2378   0.527   0.351   4.021
  520SOL     OW 2379   1.754   1.223   5.312
  520SOL    HW1 2380   1.845   1.184   5.299
  520SOL    HW2 2381   1.762   1.319   5.336
  521SOL     OW 2382   1.064   1.347   5.064
  521SOL    HW1 2383   0.984   1.324   5.119
  521SOL    HW2 2384   1.147   1.321   5.113
  522SOL     OW 2385   1.592   1.629   5.349
  522SOL    HW1 2386   1.619   1.663   5.259
  522SOL    HW2 2387   1.671   1.591   5.395
  523SOL     OW 2388   1.111   1.195   4.824
  523SOL    HW1 2389   1.071   1.239   4.905
  523SOL    HW2 2390   1.070   1.232   4.741
  524SOL     OW 2391   1.638   1.099   4.803
  524SOL    HW1 2392   1.643   1.180   4.862
  524SOL    HW2 2393   1.552   1.101   4.752
  525SOL     OW 2394   0.915   0.089   5.126
  525SOL    HW1 2395   0.940   0.069   5.031
  525SOL    HW2 2396   0.987   0.145   5.168
  526SOL     OW 2397   0.980   1.116   5.443
  526SOL    HW1 2398   0.881   1.122   5.453
  526SOL    HW2 2399   1.003   1.036   5.387
  527SOL     OW 2400   0.705   1.050   4.092
  527SOL    HW1 2401   0.691   1.057   4.191
  527SOL    HW2 2402   0.789   0.999   4.074
  528SOL     OW 2403   0.410   0.813   4.975
  528SOL    HW1 2404   0.496   0.825   5.025
  528SOL    HW2 2405   0.368   0.726   5.002
  529SOL     OW 2406   1.274   0.386   4.986
  529SOL    HW1 2407   1.295   0.460   5.050
  529SOL    HW2 2408   1.185   0.403   4.943
  530SOL     OW 2409   0.064   1.564   5.055
  530SOL    HW1 2410   0.018   1.646   5.021
  530SOL    HW2 2411   0.162   1.583   5.064
  531SOL     OW 2412   0.367   1.100   4.225
  531SOL    HW1 2413   0.360   1.183   4.169
  531SOL    HW2 2414   0.371   1.020   4.165
  532SOL     OW 2415   0.566   0.537   4.589
  532SOL    HW1 2416   0.578   0.603   4.515
  532SOL    HW2 2417   0.612   0.571   4.672
  533SOL     OW 2418   1.252   1.348   4.112
  533SOL    HW1 2419   1.302   1.425   4.152
  533SOL    HW2 2420   1.157   1.350   4.144
  534SOL     OW 2421   1.272   1.445   4.866
  534SOL    HW1 2422   1.319   1.458   4.953
  534SOL    HW2 2423   1.206   1.371   4.875
  535SOL     OW 2424   1.582   0.639   4.196
  535SOL    HW1 2425   1.551   0.700   4.269
  535SOL    HW2 2426   1.632   0.691   4.127
  536SOL     OW 2427   0.354   1.510   5.053
  536SOL    HW1 2428   0.333   1.466   4.966
  536SOL    HW2 2429   0.451   1.536   5.056
  537SOL     OW 2430   0.402   0.751   5.322
  537SOL    HW1 2431   0.470   0.806   5.275
  537SOL    HW2 2432   0.442   0.663   5.349
  538SOL     OW 2433   1.587   0.779   5.394
  538SOL    HW1 2434   1.495   0.817   5.389
  538SOL    HW2 2435   1.647   0.826   5.329
  539SOL     OW 2436   1.013   0.105   5.494
  539SOL    HW1 2437   1.019   0.190   5.442
  539SOL    HW2 2438   1.045   0.029   5.437
  540SOL     OW 2439   0.504   0.050   5.464
  540SOL    HW1 2440   0.462  -0.007   5.394
  540SOL    HW2 2441   0.438   0.119   5.496
  541SOL     OW 2442   0.573   0.870   4.753
  541SOL    HW1 2443   0.617   0.959   4.744
  541SOL    HW2 2444   0.510   0.870   4.830
  542SOL     OW 2445   1.360   0.862   4.769
  542SOL    HW1 2446   1.285   0.862   4.703
  542SOL    HW2 2447   1.397   0.770   4.778
  543SOL     OW 2448   1.209   0.525   3.999
  543SOL    HW1 2449   1.222   0.441   4.053
  543SOL    HW2 2450   1.180   0.599   4.059
  544SOL     OW 2451   0.307   0.213   4.955
  544SOL    HW1 2452   0.284   0.250   5.045
  544SOL    HW2 2453   0.277   0.118   4.949
  545SOL     OW 2454   0.037   1.310   5.006
  545SOL    HW1 2455   0.090   1.261   5.074
  545SOL    HW2 2456   0.059   1.408   5.011
  546SOL     OW 2457   0.732   0.634   4.788
  546SOL    HW1 2458   0.791   0.608   4.712
  546SOL    HW2 2459   0.704   0.730   4.777
  547SOL     OW 2460   1.728   0.935   5.578
  547SOL    HW1 2461   1.682   0.928   5.489
  547SOL    HW2 2462   1.666   0.979   5.644
  548SOL     OW 2463   0.307   0.063   4.342
  548SOL    HW1 2464   0.296   0.157   4.375
  548SOL    HW2 2465   0.302   0.000   4.419
  549SOL     OW 2466   1.622   0.367   4.098
  549SOL    HW1 2467   1.624   0.291   4.162
  549SOL    HW2 2468   1.574   0.444   4.138
  550SOL     OW 2469   1.023   0.766   4.690
  550SOL    HW1 2470   1.038   0.787   4.786
  550SOL    HW2 2471   0.993   0.671   4.681
  551SOL     OW 2472   0.980   1.573   5.424
  551SOL    HW1 2473   0.960   1.617   5.336
  551SOL    HW2 2474   1.019   1.482   5.408
  552SOL     OW 2475   1.859   1.518   5.329
  552SOL    HW1 2476   1.873   1.545   5.234
  552SOL    HW2 2477   1.942   1.540   5.382
  553SOL     OW 2478   0.350   0.898   5.528
  553SOL    HW1 2479   0.426   0.942   5.576
  553SOL    HW2 2480   0.385   0.851   5.446
  554SOL     OW 2481   1.540   0.274   3.849
  554SOL    HW1 2482   1.479   0.199   3.872
  554SOL    HW2 2483   1.562   0.326   3.932
  555SOL     OW 2484   1.303   0.838   3.766
  555SOL    HW1 2485   1.337   0.745   3.781
  555SOL    HW2 2486   1.321   0.865   3.671
  556SOL     OW 2487   1.068   1.333   4.573
  556SOL    HW1 2488   1.075   1.249   4.518
  556SOL    HW2 2489   1.130   1.402   4.537
  557SOL     OW 2490   0.319   0.810   4.673
  557SOL    HW1 2491   0.412   0.846   4.678
  557SOL    HW2 2492   0.313   0.725   4.725
  558SOL     OW 2493   0.339   0.509   4.730
  558SOL    HW1 2494   0.287   0.426   4.713
  558SOL    HW2 2495   0.416   0.514   4.666
  559SOL     OW 2496   1.138   0.380   5.402
  559SOL    HW1 2497   1.093   0.443   5.466
  559SOL    HW2 2498   1.231   0.411   5.385
  560SOL     OW 2499   1.160   0.207   5.201
  560SOL    HW1 2500   1.160   0.271   5.278
  560SOL    HW2 2501   1.188   0.255   5.118
  561SOL     OW 2502   0.008   1.326   3.924
  561SOL    HW1 2503  -0.085   1.347   3.893
  561SOL    HW2 2504   0.018   1.227   3.937
  562SOL     OW 2505   0.088   1.801   4.651
  562SOL    HW1 2506   0.046   1.715   4.624
  562SOL    HW2 2507   0.182   1.804   4.617
  563SOL     OW 2508   0.504   1.568   4.634
  563SOL    HW1 2509   0.570   1.642   4.643
  563SOL    HW2 2510   0.548   1.489   4.592
  564SOL     OW 2511   1.002   0.796   4.962
  564SOL    HW1 2512   1.043   0.764   5.048
  564SOL    HW2 2513   0.906   0.769   4.959
  565SOL     OW 2514   0.040   0.544   4.838
  565SOL    HW1 2515   0.125   0.511   4.797
  565SOL    HW2 2516   0.053   0.559   4.936
  566SOL     OW 2517   0.189   0.520   5.446
  566SOL    HW1 2518   0.248   0.480   5.376
  566SOL    HW2 2519   0.131   0.591   5.405
  567SOL     OW 2520   1.369   0.950   5.384
  567SOL    HW1 2521   1.408   1.039   5.404
  567SOL    HW2 2522   1.379   0.930   5.287
  568SOL     OW 2523   0.815   0.572   4.049
  568SOL    HW1 2524   0.822   0.483   4.003
  568SOL    HW2 2525   0.721   0.606   4.041
  569SOL     OW 2526   1.657   0.604   4.930
  569SOL    HW1 2527   1.619   0.535   4.992
  569SOL    HW2 2528   1.739   0.568   4.886
  570SOL     OW 2529   0.252   1.564   5.468
  570SOL    HW1 2530   0.222   1.621   5.544
  570SOL    HW2 2531   0.245   1.467   5.494
  571SOL     OW 2532   0.671   0.464   4.993
  571SOL    HW1 2533   0.637   0.375   4.963
  571SOL    HW2 2534   0.697   0.518   4.913
  572SOL     OW 2535   0.930   1.678   5.189
  572SOL    HW1 2536   0.906   1.660   5.094
  572SOL    HW2 2537   0.960   1.772   5.199
  573SOL     OW 2538   0.473   0.500   3.915
  573SOL    HW1 2539   0.534   0.580   3.919
  573SOL    HW2 2540   0.378   0.531   3.922
  574SOL     OW 2541   0.159   1.137   5.190
  574SOL    HW1 2542   0.181   1.076   5.266
  574SOL    HW2 2543   0.169   1.088   5.104
  575SOL     OW 2544   1.347   1.059   4.958
  575SOL    HW1 2545   1.371   0.996   4.884
  575SOL    HW2 2546   1.257   1.099   4.940
  576SOL     OW 2547   1.302   0.855   4.033
  576SOL    HW1 2548   1.216   0.824   4.075
  576SOL    HW2 2549   1.298   0.841   3.934
  577SOL     OW 2550   1.759   1.747   4.878
  577SOL    HW1 2551   1.820   1.777   4.805
  577SOL    HW2 2552   1.721   1.658   4.856
  578SOL     OW 2553   1.252   1.731   4.852
  578SOL    HW1 2554   1.336   1.736   4.798
  578SOL    HW2 2555   1.229   1.635   4.870
  579SOL     OW 2556   0.083   1.258   4.746
  579SOL    HW1 2557   0.078   1.257   4.846
  579SOL    HW2 2558   0.000   1.217   4.708
  580SOL     OW 2559   0.688   1.662   5.440
  580SOL    HW1 2560   0.632   1.743   5.449
  580SOL    HW2 2561   0.740   1.666   5.354
  581SOL     OW 2562   1.726   0.135   4.247
  581SOL    HW1 2563   1.799   0.118   4.180
  581SOL    HW2 2564   1.695   0.048   4.285
  582SOL     OW 2565   1.388   1.573   4.201
  582SOL    HW1 2566   1.455   1.585   4.127
  582SOL    HW2 2567   1.348   1.662   4.224
  583SOL     OW 2568   0.130   1.794   5.575
  583SOL    HW1 2569   0.089   1.720   5.628
  583SOL    HW2 2570   0.194   1.845   5.633
  584SOL     OW 2571   1.280   0.927   4.396
  584SOL    HW1 2572   1.340   0.846   4.398
  584SOL    HW2 2573   1.320   0.996   4.336
  585SOL     OW 2574   0.830   1.273   5.146
  585SOL    HW1 2575   0.825   1.306   5.241
  585SOL    HW2 2576   0.744   1.292   5.100
  586SOL     OW 2577   0.672   1.616   3.878
  586SOL    HW1 2578   0.681   1.626   3.779
  586SOL    HW2 2579   0.632   1.527   3.899
  587SOL     OW 2580   1.650   1.720   5.118
  587SOL    HW1 2581   1.703   1.730   5.034
  587SOL    HW2 2582   1.623   1.810   5.152
  588SOL     OW 2583   1.841   0.175   4.687
  588SOL    HW1 2584   1.880   0.090   4.651
  588SOL    HW2 2585   1.743   0.177   4.668
  589SOL     OW 2586   0.263   0.326   4.444
  589SOL    HW1 2587   0.184   0.377   4.410
  589SOL    HW2 2588   0.254   0.311   4.542
  590SOL     OW 2589   1.194   1.612   3.755
  590SOL    HW1 2590   1.200   1.519   3.792
  590SOL    HW2 2591   1.135   1.612   3.675
  591SOL     OW 2592   0.822   1.002   5.096
  591SOL    HW1 2593   0.862   1.001   5.004
  591SOL    HW2 2594   0.832   1.094   5.136
  592SOL     OW 2595   0.916   0.910   4.015
  592SOL    HW1 2596   0.979   0.948   3.947
  592SOL    HW2 2597   0.956   0.827   4.054
  593SOL     OW 2598   1.504   1.607   3.768
  593SOL    HW1 2599   1.412   1.644   3.775
  593SOL    HW2 2600   1.542   1.627   3.678
  594SOL     OW 2601   0.372   1.288   5.214
  594SOL    HW1 2602   0.359   1.381   5.180
  594SOL    HW2 2603   0.288   1.236   5.201
  595SOL     OW 2604   1.614   1.292   5.013
  595SOL    HW1 2605   1.674   1.295   5.093
  595SOL    HW2 2606   1.539   1.356   5.026
  596SOL     OW 2607   1.039   1.098   4.420
  596SOL    HW1 2608   0.969   1.051   4.474
  596SOL    HW2 2609   1.098   1.030   4.377
  597SOL     OW 2610   1.014   0.236   4.695
  597SOL    HW1 2611   1.006   0.200   4.602
  597SOL    HW2 2612   1.012   0.160   4.760
  598SOL     OW 2613   0.590   1.487   4.215
  598SOL    HW1 2614   0.632   1.429   4.145
  598SOL    HW2 2615   0.546   1.566   4.171
  599SOL     OW 2616   1.709   0.385   5.105
  599SOL    HW1 2617   1.782   0.454   5.109
  599SOL    HW2 2618   1.737   0.310   5.046
  600SOL     OW 2619   0.255   1.348   4.014
  600SOL    HW1 2620   0.159   1.349   3.987
  600SOL    HW2 2621   0.267   1.401   4.098
  601SOL     OW 2622   0.105   1.013   5.450
  601SOL    HW1 2623   0.028   0.980   5.504
  601SOL    HW2 2624   0.190   0.983   5.492
  602SOL     OW 2625   0.672   0.203   5.213
  602SOL    HW1 2626   0.762   0.187   5.173
  602SOL    HW2 2627   0.680   0.208   5.312
  603SOL     OW 2628   0.075   0.345   3.757
  603SOL    HW1 2629  -0.017   0.317   3.728
  603SOL    HW2 2630   0.106   0.422   3.701
  604SOL     OW 2631   1.440   0.856   5.122
  604SOL    HW1 2632   1.383   0.908   5.059
  604SOL    HW2 2633   1.536   0.868   5.098
  605SOL     OW 2634   0.072   0.166   4.042
  605SOL    HW1 2635   0.055   0.249   3.988
  605SOL    HW2 2636   0.162   0.129   4.020
  606SOL     OW 2637   1.183   1.335   3.843
  606SOL    HW1 2638   1.084   1.324   3.845
  606SOL    HW2 2639   1.217   1.350   3.936
  607SOL     OW 2640   0.613   0.842   5.155
  607SOL    HW1 2641   0.669   0.923   5.138
  607SOL    HW2 2642   0.672   0.762   5.158
  608SOL     OW 2643   1.493   1.767   4.683
  608SOL    HW1 2644   1.526   1.831   4.614
  608SOL    HW2 2645   1.559   1.761   4.758
  609SOL     OW 2646   0.716   0.565   5.432
  609SOL    HW1 2647   0.735   0.630   5.506
  609SOL    HW2 2648   0.776   0.485   5.441
  610SOL     OW 2649   1.450   1.220   5.357
  610SOL    HW1 2650   1.441   1.210   5.456
  610SOL    HW2 2651   1.546   1.213   5.331
  611SOL     OW 2652   0.390   1.741   5.284
  611SOL    HW1 2653   0.299   1.782   5.282
  611SOL    HW2 2654   0.383   1.647   5.316
  612SOL     OW 2655   1.674   0.883   4.978
  612SOL    HW1 2656   1.647   0.794   4.941
  612SOL    HW2 2657   1.675   0.951   4.905
  613SOL     OW 2658   1.225   0.325   4.173
  613SOL    HW1 2659   1.290   0.251   4.162
  613SOL    HW2 2660   1.245   0.375   4.257
  614SOL     OW 2661   0.594   0.745   4.376
  614SOL    HW1 2662   0.644   0.830   4.357
  614SOL    HW2 2663   0.506   0.747   4.328
  615SOL     OW 2664   1.777   0.342   5.366
  615SOL    HW1 2665   1.760   0.373   5.272
  615SOL    HW2 2666   1.693   0.305   5.404
  616SOL     OW 2667   1.730   0.934   5.241
  616SOL    HW1 2668   1.768   1.025   5.256
  616SOL    HW2 2669   1.722   0.917   5.142
  617SOL     OW 2670   0.859   1.374   3.740
  617SOL    HW1 2671   0.813   1.389   3.828
  617SOL    HW2 2672   0.903   1.459   3.710
  618SOL     OW 2673   0.661   1.790   4.677
  618SOL    HW1 2674   0.615   1.878   4.664
  618SOL    HW2 2675   0.760   1.802   4.670
  619SOL     OW 2676   0.859   0.956   4.585
  619SOL    HW1 2677   0.913   0.887   4.633
  619SOL    HW2 2678   0.827   1.025   4.651
  620SOL     OW 2679   1.083   0.984   3.811
  620SOL    HW1 2680   1.060   1.037   3.729
  620SOL    HW2 2681   1.164   0.928   3.792
  621SOL     OW 2682   1.861   1.569   4.575
  621SOL    HW1 2683   1.790   1.557   4.505
  621SOL    HW2 2684   1.862   1.490   4.635
  622SOL     OW 2685   0.221   1.314   5.568
  622SOL    HW1 2686   0.156   1.241   5.547
  622SOL    HW2 2687   0.225   1.328   5.666
  623SOL     OW 2688   0.079   1.240   4.377
  623SOL    HW1 2689   0.078   1.193   4.465
  623SOL    HW2 2690   0.161   1.212   4.326
  624SOL     OW 2691   0.672   1.391   5.348
  624SOL    HW1 2692   0.594   1.341   5.386
  624SOL    HW2 2693   0.669   1.486   5.379
  625SOL     OW 2694   1.824   0.192   4.951
  625SOL    HW1 2695   1.820   0.102   4.995
  625SOL    HW2 2696   1.827   0.181   4.852
  626SOL     OW 2697   0.428   0.424   4.244
  626SOL    HW1 2698   0.458   0.352   4.182
  626SOL    HW2 2699   0.389   0.384   4.327
  627SOL     OW 2700   1.705   1.487   4.828
  627SOL    HW1 2701   1.612   1.462   4.801
  627SOL    HW2 2702   1.731   1.437   4.910
  628SOL     OW 2703   0.317   0.547   5.004
  628SOL    HW1 2704   0.355   0.488   5.076
  628SOL    HW2 2705   0.357   0.521   4.916
  629SOL     OW 2706   0.812   1.586   4.411
  629SOL    HW1 2707   0.844   1.596   4.317
  629SOL    HW2 2708   0.733   1.524   4.413
  630SOL     OW 2709   1.424   0.214   4.836
  630SOL    HW1 2710   1.476   0.149   4.891
  630SOL    HW2 2711   1.375   0.277   4.897
  631SOL     OW 2712   1.001   0.034   4.878
  631SOL    HW1 2713   0.938  -0.038   4.847
  631SOL    HW2 2714   1.094  -0.002   4.878
  632SOL     OW 2715   0.770   1.330   4.025
  632SOL    HW1 2716   0.724   1.243   4.042
  632SOL    HW2 2717   0.861   1.327   4.066
  633SOL     OW 2718   0.618   1.567   5.008
  633SOL    HW1 2719   0.613   1.649   5.065
  633SOL    HW2 2720   0.707   1.564   4.963
  634SOL     OW 2721   1.352   0.052   3.892
  634SOL    HW1 2722   1.387   0.011   3.808
  634SOL    HW2 2723   1.262   0.014   3.912
  635SOL     OW 2724   1.300   0.453   4.415
  635SOL    HW1 2725   1.241   0.533   4.419
  635SOL    HW2 2726   1.315   0.418   4.508
  636SOL     OW 2727   1.593   0.221   4.606
  636SOL    HW1 2728   1.509   0.220   4.660
  636SOL    HW2 2729   1.595   0.304   4.550
  637SOL     OW 2730   0.039   1.077   4.024
  637SOL    HW1 2731   0.138   1.066   4.015
  637SOL    HW2 2732  -0.001   0.991   4.056
  638SOL     OW 2733   0.875   1.646   4.061
  638SOL    HW1 2734   0.798   1.611   4.007
  638SOL    HW2 2735   0.843   1.717   4.123
  639SOL     OW 2736   0.230   0.628   5.699
  639SOL    HW1 2737   0.137   0.626   5.736
  639SOL    HW2 2738   0.231   0.589   5.607
  640SOL     OW 2739   0.225   0.275   6.582
  640SOL    HW1 2740   0.260   0.258   6.674
  640SOL    HW2 2741   0.137   0.230   6.570
  641SOL     OW 2742   0.019   0.368   6.233
  641SOL    HW1 2743  -0.063   0.411   6.272
  641SOL    HW2 2744  -0.009   0.295   6.170
  642SOL     OW 2745   0.569   1.275   6.751
  642SOL    HW1 2746   0.476   1.268   6.714
  642SOL    HW2 2747   0.580   1.364   6.795
  643SOL     OW 2748   1.555   1.511   6.289
  643SOL    HW1 2749   1.498   1.495   6.370
  643SOL    HW2 2750   1.496   1.521   6.209
  644SOL     OW 2751   1.135   0.703   6.303
  644SOL    HW1 2752   1.192   0.781   6.278
  644SOL    HW2 2753   1.075   0.729   6.379
  645SOL     OW 2754   1.755   0.607   5.817
  645SOL    HW1 2755   1.743   0.594   5.718
  645SOL    HW2 2756   1.725   0.526   5.866
  646SOL     OW 2757   0.768   1.144   6.609
  646SOL    HW1 2758   0.690   1.161   6.669
  646SOL    HW2 2759   0.802   1.231   6.573
  647SOL     OW 2760   0.685   1.012   6.251
  647SOL    HW1 2761   0.754   0.996   6.321
  647SOL    HW2 2762   0.612   1.069   6.289
  648SOL     OW 2763   0.335   1.435   6.647
  648SOL    HW1 2764   0.257   1.404   6.594
  648SOL    HW2 2765   0.393   1.493   6.590
  649SOL     OW 2766   1.603   0.447   6.323
  649SOL    HW1 2767   1.529   0.493   6.273
  649SOL    HW2 2768   1.654   0.515   6.376
  650SOL     OW 2769   0.231   1.713   6.069
  650SOL    HW1 2770   0.265   1.790   6.123
  650SOL    HW2 2771   0.275   1.713   5.979
  651SOL     OW 2772   0.230   1.434   6.124
  651SOL    HW1 2773   0.204   1.530   6.124
  651SOL    HW2 2774   0.159   1.380   6.169
  652SOL     OW 2775   0.240   1.091   6.472
  652SOL    HW1 2776   0.254   1.007   6.524
  652SOL    HW2 2777   0.185   1.155   6.527
  653SOL     OW 2778   0.620   1.786   7.025
  653SOL    HW1 2779   0.528   1.769   7.060
  653SOL    HW2 2780   0.648   1.878   7.051
  654SOL     OW 2781   0.606   0.964   5.709
  654SOL    HW1 2782   0.613   1.048   5.655
  654SOL    HW2 2783   0.652   0.977   5.797
  655SOL     OW 2784   0.122   0.643   6.149
  655SOL    HW1 2785   0.077   0.555   6.166
  655SOL    HW2 2786   0.121   0.697   6.233
  656SOL     OW 2787   1.842   1.767   5.945
  656SOL    HW1 2788   1.896   1.738   6.025
  656SOL    HW2 2789   1.872   1.857   5.916
  657SOL     OW 2790   0.027   1.596   5.703
  657SOL    HW1 2791   0.008   1.500   5.724
  657SOL    HW2 2792  -0.006   1.654   5.778
  658SOL     OW 2793   1.689   0.922   6.198
  658SOL    HW1 2794   1.784   0.893   6.206
  658SOL    HW2 2795   1.681   0.987   6.123
  659SOL     OW 2796   1.641   1.108   6.018
  659SOL    HW1 2797   1.727   1.110   5.966
  659SOL    HW2 2798   1.655   1.155   6.106
  660SOL     OW 2799   0.613   1.365   6.312
  660SOL    HW1 2800   0.564   1.278   6.321
  660SOL    HW2 2801   0.590   1.408   6.225
  661SOL     OW 2802   0.809   0.004   6.088
  661SOL    HW1 2803   0.849   0.095   6.079
  661SOL    HW2 2804   0.709   0.012   6.094
  662SOL     OW 2805   0.197   0.976   6.850
  662SOL    HW1 2806   0.286   0.931   6.836
  662SOL    HW2 2807   0.124   0.911   6.831
  663SOL     OW 2808   1.525   0.999   5.776
  663SOL    HW1 2809   1.462   0.923   5.789
  663SOL    HW2 2810   1.573   1.017   5.862
  664SOL     OW 2811   1.466   1.417   6.539
  664SOL    HW1 2812   1.407   1.423   6.619
  664SOL    HW2 2813   1.451   1.329   6.493
  665SOL     OW 2814   1.667   1.714   6.158
  665SOL    HW1 2815   1.626   1.691   6.070
  665SOL    HW2 2816   1.649   1.640   6.223
  666SOL     OW 2817   0.598   0.729   5.856
  666SOL    HW1 2818   0.622   0.798   5.788
  666SOL    HW2 2819   0.520   0.762   5.910
  667SOL     OW 2820   1.281   0.345   6.530
  667SOL    HW1 2821   1.195   0.295   6.517
  667SOL    HW2 2822   1.343   0.291   6.586
  668SOL     OW 2823   1.576   1.662   5.893
  668SOL    HW1 2824   1.665   1.708   5.896
  668SOL    HW2 2825   1.555   1.638   5.798
  669SOL     OW 2826   0.807   0.605   7.051
  669SOL    HW1 2827   0.760   0.602   7.140
  669SOL    HW2 2828   0.756   0.550   6.985
  670SOL     OW 2829   0.991   0.410   6.828
  670SOL    HW1 2830   0.914   0.444   6.882
  670SOL    HW2 2831   0.957   0.359   6.749
  671SOL     OW 2832   1.041   0.701   6.015
  671SOL    HW1 2833   1.067   0.697   6.111
  671SOL    HW2 2834   0.956   0.650   6.001
  672SOL     OW 2835   0.076   0.811   6.375
  672SOL    HW1 2836   0.175   0.799   6.384
  672SOL    HW2 2837   0.052   0.906   6.396
  673SOL     OW 2838   0.130   1.821   7.157
  673SOL    HW1 2839   0.120   1.806   7.256
  673SOL    HW2 2840   0.044   1.857   7.121
  674SOL     OW 2841   0.865   0.348   5.781
  674SOL    HW1 2842   0.924   0.411   5.732
  674SOL    HW2 2843   0.884   0.254   5.752
  675SOL     OW 2844   1.362   1.144   6.131
  675SOL    HW1 2845   1.445   1.115   6.083
  675SOL    HW2 2846   1.313   1.211   6.075
  676SOL     OW 2847   0.550   0.196   6.471
  676SOL    HW1 2848   0.545   0.191   6.571
  676SOL    HW2 2849   0.552   0.292   6.442
  677SOL     OW 2850   1.008   1.456   6.063
  677SOL    HW1 2851   0.962   1.528   6.011
  677SOL    HW2 2852   1.004   1.476   6.161
  678SOL     OW 2853   0.351   1.801   6.439
  678SOL    HW1 2854   0.401   1.715   6.445
  678SOL    HW2 2855   0.416   1.878   6.436
  679SOL     OW 2856   1.795   1.066   6.459
  679SOL    HW1 2857   1.733   1.051   6.383
  679SOL    HW2 2858   1.743   1.077   6.544
  680SOL     OW 2859   0.321   0.943   5.828
  680SOL    HW1 2860   0.403   0.982   5.786
  680SOL    HW2 2861   0.294   0.861   5.779
  681SOL     OW 2862   1.458   0.735   6.314
  681SOL    HW1 2863   1.453   0.670   6.389
  681SOL    HW2 2864   1.538   0.794   6.327
  682SOL     OW 2865   1.111   1.776   5.823
  682SOL    HW1 2866   1.051   1.714   5.873
  682SOL    HW2 2867   1.142   1.732   5.738
  683SOL     OW 2868   1.632   1.377   5.667
  683SOL    HW1 2869   1.600   1.471   5.657
  683SOL    HW2 2870   1.556   1.314   5.655
  684SOL     OW 2871   0.464   1.743   5.909
  684SOL    HW1 2872   0.497   1.782   5.995
  684SOL    HW2 2873   0.540   1.736   5.844
  685SOL     OW 2874   1.400   0.107   6.012
  685SOL    HW1 2875   1.376   0.070   5.922
  685SOL    HW2 2876   1.499   0.123   6.016
  686SOL     OW 2877   0.249   1.785   6.827
  686SOL    HW1 2878   0.306   1.720   6.877
  686SOL    HW2 2879   0.233   1.752   6.734
  687SOL     OW 2880   0.940   1.698   6.490
  687SOL    HW1 2881   1.020   1.641   6.511
  687SOL    HW2 2882   0.891   1.658   6.413
  688SOL     OW 2883   0.382   0.700   6.066
  688SOL    HW1 2884   0.427   0.610   6.063
  688SOL    HW2 2885   0.288   0.689   6.099
  689SOL     OW 2886   0.614   0.122   5.703
  689SOL    HW1 2887   0.712   0.100   5.710
  689SOL    HW2 2888   0.583   0.105   5.610
  690SOL     OW 2889   0.888   1.514   6.781
  690SOL    HW1 2890   0.865   1.489   6.687
  690SOL    HW2 2891   0.949   1.445   6.820
  691SOL     OW 2892   0.803   1.402   6.510
  691SOL    HW1 2893   0.893   1.416   6.468
  691SOL    HW2 2894   0.732   1.404   6.439
  692SOL     OW 2895   0.922   0.503   6.485
  692SOL    HW1 2896   0.897   0.494   6.389
  692SOL    HW2 2897   0.970   0.421   6.516
  693SOL     OW 2898   0.539   0.064   6.098
  693SOL    HW1 2899   0.458   0.065   6.156
  693SOL    HW2 2900   0.542   0.147   6.043
  694SOL     OW 2901   1.434   1.188   5.627
  694SOL    HW1 2902   1.466   1.112   5.684
  694SOL    HW2 2903   1.342   1.215   5.657
  695SOL     OW 2904   0.297   0.035   5.757
  695SOL    HW1 2905   0.346   0.119   5.736
  695SOL    HW2 2906   0.359  -0.030   5.802
  696SOL     OW 2907   0.935   0.236   6.066
  696SOL    HW1 2908   0.887   0.277   5.988
  696SOL    HW2 2909   1.034   0.234   6.047
  697SOL     OW 2910   1.227   1.570   6.379
  697SOL    HW1 2911   1.248   1.644   6.314
  697SOL    HW2 2912   1.295   1.570   6.452
  698SOL     OW 2913   0.459   1.152   6.327
  698SOL    HW1 2914   0.388   1.125   6.392
  698SOL    HW2 2915   0.433   1.124   6.234
  699SOL     OW 2916   1.271   1.797   6.177
  699SOL    HW1 2917   1.315   1.861   6.113
  699SOL    HW2 2918   1.221   1.849   6.247
  700SOL     OW 2919   1.032   0.549   5.602
  700SOL    HW1 2920   0.991   0.631   5.563
  700SOL    HW2 2921   1.096   0.575   5.675
  701SOL     OW 2922   0.561   0.222   6.733
  701SOL    HW1 2923   0.599   0.138   6.770
  701SOL    HW2 2924   0.473   0.241   6.777
  702SOL     OW 2925   0.866   0.454   6.228
  702SOL    HW1 2926   0.834   0.526   6.166
  702SOL    HW2 2927   0.890   0.373   6.175
  703SOL     OW 2928   1.017   0.039   6.339
  703SOL    HW1 2929   0.945   0.044   6.270
  703SOL    HW2 2930   0.993  -0.030   6.408
  704SOL     OW 2931   1.429   1.173   6.453
  704SOL    HW1 2932   1.374   1.089   6.446
  704SOL    HW2 2933   1.455   1.202   6.361
  705SOL     OW 2934   1.466   0.590   6.578
  705SOL    HW1 2935   1.436   0.495   6.585
  705SOL    HW2 2936   1.539   0.606   6.644
  706SOL     OW 2937   1.857   0.833   5.963
  706SOL    HW1 2938   1.899   0.769   6.027
  706SOL    HW2 2939   1.819   0.782   5.885
  707SOL     OW 2940   0.488   1.385   5.760
  707SOL    HW1 2941   0.401   1.370   5.807
  707SOL    HW2 2942   0.471   1.411   5.665
  708SOL     OW 2943   1.664   1.280   6.243
  708SOL    HW1 2944   1.763   1.288   6.257
  708SOL    HW2 2945   1.619   1.364   6.274
  709SOL     OW 2946   1.390   0.575   5.664
  709SOL    HW1 2947   1.336   0.554   5.745
  709SOL    HW2 2948   1.481   0.534   5.673
  710SOL     OW 2949   0.527   0.256   5.914
  710SOL    HW1 2950   0.554   0.197   5.839
  710SOL    HW2 2951   0.527   0.351   5.883
  711SOL     OW 2952   1.754   1.223   7.174
  711SOL    HW1 2953   1.845   1.184   7.161
  711SOL    HW2 2954   1.762   1.319   7.198
  712SOL     OW 2955   1.111   1.195   6.686
  712SOL    HW1 2956   1.071   1.239   6.767
  712SOL    HW2 2957   1.070   1.232   6.603
  713SOL     OW 2958   1.638   1.099   6.665
  713SOL    HW1 2959   1.643   1.180   6.724
  713SOL    HW2 2960   1.552   1.101   6.614
  714SOL     OW 2961   0.705   1.050   5.954
  714SOL    HW1 2962   0.691   1.057   6.053
  714SOL    HW2 2963   0.789   0.999   5.936
  715SOL     OW 2964   0.410   0.813   6.837
  715SOL    HW1 2965   0.496   0.825   6.887
  715SOL    HW2 2966   0.368   0.726   6.864
  716SOL     OW 2967   1.274   0.386   6.848
  716SOL    HW1 2968   1.295   0.460   6.912
  716SOL    HW2 2969   1.185   0.403   6.805
  717SOL     OW 2970   0.064   1.564   6.917
  717SOL    HW1 2971   0.018   1.646   6.883
  717SOL    HW2 2972   0.162   1.583   6.926
  718SOL     OW 2973   0.367   1.100   6.087
  718SOL    HW1 2974   0.360   1.183   6.031
  718SOL    HW2 2975   0.371   1.020   6.027
  719SOL     OW 2976   0.566   0.537   6.451
  719SOL    HW1 2977   0.578   0.603   6.377
  719SOL    HW2 2978   0.612   0.571   6.534
  720SOL     OW 2979   1.252   1.348   5.974
  720SOL    HW1 2980   1.302   1.425   6.014
  720SOL    HW2 2981   1.157   1.350   6.006
  721SOL     OW 2982   1.272   1.445   6.728
  721SOL    HW1 2983   1.319   1.458   6.815
  721SOL    HW2 2984   1.206   1.371   6.737
  722SOL     OW 2985   1.582   0.639   6.058
  722SOL    HW1 2986   1.551   0.700   6.131
  722SOL    HW2 2987   1.632   0.691   5.989
  723SOL     OW 2988   0.354   1.510   6.915
  723SOL    HW1 2989   0.333   1.466   6.828
  723SOL    HW2 2990   0.451   1.536   6.918
  724SOL     OW 2991   0.573   0.870   6.615
  724SOL    HW1 2992   0.617   0.959   6.606
  724SOL    HW2 2993   0.510   0.870   6.692
  725SOL     OW 2994   1.360   0.862   6.631
  725SOL    HW1 2995   1.285   0.862   6.565
  725SOL    HW2 2996   1.397   0.770   6.640
  726SOL     OW 2997   1.209   0.525   5.861
  726SOL    HW1 2998   1.222   0.441   5.915
  726SOL    HW2 2999   1.180   0.599   5.921
  727SOL     OW 3000   0.307   0.213   6.817
  727SOL    HW1 3001   0.284   0.250   6.907
  727SOL    HW2 3002   0.277   0.118   6.811
  728SOL     OW 3003   0.037   1.310   6.868
  728SOL    HW1 3004   0.090   1.261   6.936
  728SOL    HW2 3005   0.059   1.408   6.873
  729SOL     OW 3006   0.732   0.634   6.650
  729SOL    HW1 3007   0.791   0.608   6.574
  729SOL    HW2 3008   0.704   0.730   6.639
  730SOL     OW 3009   0.307   0.063   6.204
  730SOL    HW1 3010   0.296   0.157   6.237
  730SOL    HW2 3011   0.302   0.000   6.281
  731SOL     OW 3012   1.622   0.367   5.960
  731SOL    HW1 3013   1.624   0.291   6.024
  731SOL    HW2 3014   1.574   0.444   6.000
  732SOL     OW 3015   1.023   0.766   6.552
  732SOL    HW1 3016   1.038   0.787   6.648
  732SOL    HW2 3017   0.993   0.671   6.543
  733SOL     OW 3018   1.859   1.518   7.191
  733SOL    HW1 3019   1.873   1.545   7.096
  733SOL    HW2 3020   1.942   1.540   7.244
  734SOL     OW 3021   1.540   0.274   5.711
  734SOL    HW1 3022   1.479   0.199   5.734
  734SOL    HW2 3023   1.562   0.326   5.794
  735SOL     OW 3024   1.303   0.838   5.628
  735SOL    HW1 3025   1.337   0.745   5.643
  735SOL    HW2 3026   1.321   0.865   5.533
  736SOL     OW 3027   1.068   1.333   6.435
  736SOL    HW1 3028   1.075   1.249   6.380
  736SOL    HW2 3029   1.130   1.402   6.399
  737SOL     OW 3030   0.319   0.810   6.535
  737SOL    HW1 3031   0.412   0.846   6.540
  737SOL    HW2 3032   0.313   0.725   6.587
  738SOL     OW 3033   0.339   0.509   6.592
  738SOL    HW1 3034   0.287   0.426   6.575
  738SOL    HW2 3035   0.416   0.514   6.528
  739SOL     OW 3036   1.160   0.207   7.063
  739SOL    HW1 3037   1.160   0.271   7.140
  739SOL    HW2 3038   1.188   0.255   6.980
  740SOL     OW 3039   0.008   1.326   5.786
  740SOL    HW1 3040  -0.085   1.347   5.755
  740SOL    HW2 3041   0.018   1.227   5.799
  741SOL     OW 3042   0.088   1.801   6.513
  741SOL    HW1 3043   0.046   1.715   6.486
  741SOL    HW2 3044   0.182   1.804   6.479
  742SOL     OW 3045   0.504   1.568   6.496
  742SOL    HW1 3046   0.570   1.642   6.505
  742SOL    HW2 3047   0.548   1.489   6.454
  743SOL     OW 3048   1.002   0.796   6.824
  743SOL    HW1 3049   1.043   0.764   6.910
  743SOL    HW2 3050   0.906   0.769   6.821
  744SOL     OW 3051   0.040   0.544   6.700
  744SOL    HW1 3052   0.125   0.511   6.659
  744SOL    HW2 3053   0.053   0.559   6.798
  745SOL     OW 3054   0.815   0.572   5.911
  745SOL    HW1 3055   0.822   0.483   5.865
  745SOL    HW2 3056   0.721   0.606   5.903
  746SOL     OW 3057   1.657   0.604   6.792
  746SOL    HW1 3058   1.619   0.535   6.854
  746SOL    HW2 3059   1.739   0.568   6.748
  747SOL     OW 3060   0.671   0.464   6.855
  747SOL    HW1 3061   0.637   0.375   6.825
  747SOL    HW2 3062   0.697   0.518   6.775
  748SOL     OW 3063   0.930   1.678   7.051
  748SOL    HW1 3064   0.906   1.660   6.956
  748SOL    HW2 3065   0.960   1.772   7.061
  749SOL     OW 3066   0.473   0.500   5.777
  749SOL    HW1 3067   0.534   0.580   5.781
  749SOL    HW2 3068   0.378   0.531   5.784
  750SOL     OW 3069   0.159   1.137   7.052
  750SOL    HW1 3070   0.181   1.076   7.128
  750SOL    HW2 3071   0.169   1.088   6.966
  751SOL     OW 3072   1.347   1.059   6.820
  751SOL    HW1 3073   1.371   0.996   6.746
  751SOL    HW2 3074   1.257   1.099   6.802
  752SOL     OW 3075   1.302   0.855   5.895
  752SOL    HW1 3076   1.216   0.824   5.937
  752SOL    HW2 3077   1.298   0.841   5.796
  753SOL     OW 3078   1.759   1.747   6.740
  753SOL    HW1 3079   1.820   1.777   6.667
  753SOL    HW2 3080   1.721   1.658   6.718
  754SOL     OW 3081   1.252   1.731   6.714
  754SOL    HW1 3082   1.336   1.736   6.660
  754SOL    HW2 3083   1.229   1.635   6.732
  755SOL     OW 3084   0.083   1.258   6.608
  755SOL    HW1 3085   0.078   1.257   6.708
  755SOL    HW2 3086   0.000   1.217   6.570
  756SOL     OW 3087   1.726   0.135   6.109
  756SOL    HW1 3088   1.799   0.118   6.042
  756SOL    HW2 3089   1.695   0.048   6.147
  757SOL     OW 3090   1.388   1.573   6.063
  757SOL    HW1 3091   1.455   1.585   5.989
  757SOL    HW2 3092   1.348   1.662   6.086
  758SOL     OW 3093   1.280   0.927   6.258
  758SOL    HW1 3094   1.340   0.846   6.260
  758SOL    HW2 3095   1.320   0.996   6.198
  759SOL     OW 3096   0.672   1.616   5.740
  759SOL    HW1 3097   0.681   1.626   5.641
  759SOL    HW2 3098   0.632   1.527   5.761
  760SOL     OW 3099   1.841   0.175   6.549
  760SOL    HW1 3100   1.880   0.090   6.513
  760SOL    HW2 3101   1.743   0.177   6.530
  761SOL     OW 3102   0.263   0.326   6.306
  761SOL    HW1 3103   0.184   0.377   6.272
  761SOL    HW2 3104   0.254   0.311   6.404
  762SOL     OW 3105   1.194   1.612   5.617
  762SOL    HW1 3106   1.200   1.519   5.654
  762SOL    HW2 3107   1.135   1.612   5.537
  763SOL     OW 3108   0.822   1.002   6.958
  763SOL    HW1 3109   0.862   1.001   6.866
  763SOL    HW2 3110   0.832   1.094   6.998
  764SOL     OW 3111   0.916   0.910   5.877
  764SOL    HW1 3112   0.979   0.948   5.809
  764SOL    HW2 3113   0.956   0.827   5.916
  765SOL     OW 3114   1.504   1.607   5.630
  765SOL    HW1 3115   1.412   1.644   5.637
  765SOL    HW2 3116   1.542   1.627   5.540
  766SOL     OW 3117   1.614   1.292   6.875
  766SOL    HW1 3118   1.674   1.295   6.955
  766SOL    HW2 3119   1.539   1.356   6.888
  767SOL     OW 3120   1.039   1.098   6.282
  767SOL    HW1 3121   0.969   1.051   6.336
  767SOL    HW2 3122   1.098   1.030   6.239
  768SOL     OW 3123   1.014   0.236   6.557
  768SOL    HW1 3124   1.006   0.200   6.464
  768SOL    HW2 3125   1.012   0.160   6.622
  769SOL     OW 3126   0.590   1.487   6.077
  769SOL    HW1 3127   0.632   1.429   6.007
  769SOL    HW2 3128   0.546   1.566   6.033
  770SOL     OW 3129   1.709   0.385   6.967
  770SOL    HW1 3130   1.782   0.454   6.971
  770SOL    HW2 3131   1.737   0.310   6.908
  771SOL     OW 3132   0.255   1.348   5.876
  771SOL    HW1 3133   0.159   1.349   5.849
  771SOL    HW2 3134   0.267   1.401   5.960
  772SOL     OW 3135   0.075   0.345   5.619
  772SOL    HW1 3136  -0.017   0.317   5.590
  772SOL    HW2 3137   0.106   0.422   5.563
  773SOL     OW 3138   0.072   0.166   5.904
  773SOL    HW1 3139   0.055   0.249   5.850
  773SOL    HW2 3140   0.162   0.129   5.882
  774SOL     OW 3141   1.183   1.335   5.705
  774SOL    HW1 3142   1.084   1.324   5.707
  774SOL    HW2 3143   1.217   1.350   5.798
  775SOL     OW 3144   1.493   1.767   6.545
  775SOL    HW1 3145   1.526   1.831   6.476
  775SOL    HW2 3146   1.559   1.761   6.620
  776SOL     OW 3147   1.450   1.220   7.219
  776SOL    HW1 3148   1.441   1.210   7.318
  776SOL    HW2 3149   1.546   1.213   7.193
  777SOL     OW 3150   0.390   1.741   7.146
  777SOL    HW1 3151   0.299   1.782   7.144
  777SOL    HW2 3152   0.383   1.647   7.178
  778SOL     OW 3153   1.674   0.883   6.840
  778SOL    HW1 3154   1.647   0.794   6.803
  778SOL    HW2 3155   1.675   0.951   6.767
  779SOL     OW 3156   1.225   0.325   6.035
  779SOL    HW1 3157   1.290   0.251   6.024
  779SOL    HW2 3158   1.245   0.375   6.119
  780SOL     OW 3159   0.594   0.745   6.238
  780SOL    HW1 3160   0.644   0.830   6.219
  780SOL    HW2 3161   0.506   0.747   6.190
  781SOL     OW 3162   1.730   0.934   7.103
  781SOL    HW1 3163   1.768   1.025   7.118
  781SOL    HW2 3164   1.722   0.917   7.004
  782SOL     OW 3165   0.859   1.374   5.602
  782SOL    HW1 3166   0.813   1.389   5.690
  782SOL    HW2 3167   0.903   1.459   5.572
  783SOL     OW 3168   0.661   1.790   6.539
  783SOL    HW1 3169   0.615   1.878   6.526
  783SOL    HW2 3170   0.760   1.802   6.532
  784SOL     OW 3171   0.859   0.956   6.447
  784SOL    HW1 3172   0.913   0.887   6.495
  784SOL    HW2 3173   0.827   1.025   6.513
  785SOL     OW 3174   1.083   0.984   5.673
  785SOL    HW1 3175   1.060   1.037   5.591
  785SOL    HW2 3176   1.164   0.928   5.654
  786SOL     OW 3177   1.861   1.569   6.437
  786SOL    HW1 3178   1.790   1.557   6.367
  786SOL    HW2 3179   1.862   1.490   6.497
  787SOL     OW 3180   0.079   1.240   6.239
  787SOL    HW1 3181   0.078   1.193   6.327
  787SOL    HW2 3182   0.161   1.212   6.188
  788SOL     OW 3183   1.824   0.192   6.813
  788SOL    HW1 3184   1.820   0.102   6.857
  788SOL    HW2 3185   1.827   0.181   6.714
  789SOL     OW 3186   0.428   0.424   6.106
  789SOL    HW1 3187   0.458   0.352   6.044
  789SOL    HW2 3188   0.389   0.384   6.189
  790SOL     OW 3189   1.705   1.487   6.690
  790SOL    HW1 3190   1.612   1.462   6.663
  790SOL    HW2 3191   1.731   1.437   6.772
  791SOL     OW 3192   0.317   0.547   6.866
  791SOL    HW1 3193   0.355   0.488   6.938
  791SOL    HW2 3194   0.357   0.521   6.778
  792SOL     OW 3195   0.812   1.586   6.273
  792SOL    HW1 3196   0.844   1.596   6.179
  792SOL    HW2 3197   0.733   1.524   6.275
  793SOL     OW 3198   1.424   0.214   6.698
  793SOL    HW1 3199   1.476   0.149   6.753
  793SOL    HW2 3200   1.375   0.277   6.759
  794SOL     OW 3201   1.001   0.034   6.740
  794SOL    HW1 3202   0.938  -0.038   6.709
  794SOL    HW2 3203   1.094  -0.002   6.740
  795SOL     OW 3204   0.770   1.330   5.887
  795SOL    HW1 3205   0.724   1.243   5.904
  795SOL    HW2 3206   0.861   1.327   5.928
  796SOL     OW 3207   0.618   1.567   6.870
  796SOL    HW1 3208   0.613   1.649   6.927
  796SOL    HW2 3209   0.707   1.564   6.825
  797SOL     OW 3210   1.352   0.052   5.754
  797SOL    HW1 3211   1.387   0.011   5.670
  797SOL    HW2 3212   1.262   0.014   5.774
  798SOL     OW 3213   1.300   0.453   6.277
  798SOL    HW1 3214   1.241   0.533   6.281
  798SOL    HW2 3215   1.315   0.418   6.370
  799SOL     OW 3216   1.593   0.221   6.468
  799SOL    HW1 3217   1.509   0.220   6.522
  799SOL    HW2 3218   1.595   0.304   6.412
  800SOL     OW 3219   0.039   1.077   5.886
  800SOL    HW1 3220   0.138   1.066   5.877
  800SOL    HW2 3221  -0.001   0.991   5.918
  801SOL     OW 3222   0.875   1.646   5.923
  801SOL    HW1 3223   0.798   1.611   5.869
  801SOL    HW2 3224   0.843   1.717   5.985
  802SOL     OW 3225   0.230   2.490   0.113
  802SOL    HW1 3226   0.137   2.488   0.150
  802SOL    HW2 3227   0.231   2.451   0.021
  803SOL     OW 3228   0.225   2.137   0.996
  803SOL    HW1 3229   0.260   2.120   1.088
  803SOL    HW2 3230   0.137   2.092   0.984
  804SOL     OW 3231   0.019   2.230   0.647
  804SOL    HW1 3232  -0.063   2.273   0.686
  804SOL    HW2 3233  -0.009   2.157   0.584
  805SOL     OW 3234   0.569   3.137   1.165
  805SOL    HW1 3235   0.476   3.130   1.128
  805SOL    HW2 3236   0.580   3.226   1.209
  806SOL     OW 3237   1.555   3.373   0.703
  806SOL    HW1 3238   1.498   3.357   0.784
  806SOL    HW2 3239   1.496   3.383   0.623
  807SOL     OW 3240   1.135   2.565   0.717
  807SOL    HW1 3241   1.192   2.643   0.692
  807SOL    HW2 3242   1.075   2.591   0.793
  808SOL     OW 3243   1.755   2.469   0.231
  808SOL    HW1 3244   1.743   2.456   0.132
  808SOL    HW2 3245   1.725   2.388   0.280
  809SOL     OW 3246   0.768   3.006   1.023
  809SOL    HW1 3247   0.690   3.023   1.083
  809SOL    HW2 3248   0.802   3.093   0.987
  810SOL     OW 3249   0.850   2.660   1.823
  810SOL    HW1 3250   0.846   2.736   1.888
  810SOL    HW2 3251   0.872   2.696   1.732
  811SOL     OW 3252   0.685   2.874   0.665
  811SOL    HW1 3253   0.754   2.858   0.735
  811SOL    HW2 3254   0.612   2.931   0.703
  812SOL     OW 3255   0.686   3.023   1.803
  812SOL    HW1 3256   0.746   3.102   1.817
  812SOL    HW2 3257   0.600   3.054   1.762
  813SOL     OW 3258   0.335   3.297   1.061
  813SOL    HW1 3259   0.257   3.266   1.008
  813SOL    HW2 3260   0.393   3.355   1.004
  814SOL     OW 3261   1.460   3.367   1.339
  814SOL    HW1 3262   1.484   3.461   1.365
  814SOL    HW2 3263   1.444   3.313   1.421
  815SOL     OW 3264   0.438   2.254   1.499
  815SOL    HW1 3265   0.520   2.198   1.508
  815SOL    HW2 3266   0.357   2.196   1.503
  816SOL     OW 3267   1.603   2.309   0.737
  816SOL    HW1 3268   1.529   2.355   0.687
  816SOL    HW2 3269   1.654   2.377   0.790
  817SOL     OW 3270   0.231   3.575   0.483
  817SOL    HW1 3271   0.265   3.652   0.537
  817SOL    HW2 3272   0.275   3.575   0.393
  818SOL     OW 3273   1.127   3.203   1.690
  818SOL    HW1 3274   1.174   3.203   1.778
  818SOL    HW2 3275   1.079   3.116   1.679
  819SOL     OW 3276   0.230   3.296   0.538
  819SOL    HW1 3277   0.204   3.392   0.538
  819SOL    HW2 3278   0.159   3.242   0.583
  820SOL     OW 3279   0.240   2.953   0.886
  820SOL    HW1 3280   0.254   2.869   0.938
  820SOL    HW2 3281   0.185   3.017   0.941
  821SOL     OW 3282   0.620   3.648   1.439
  821SOL    HW1 3283   0.528   3.631   1.474
  821SOL    HW2 3284   0.648   3.740   1.465
  822SOL     OW 3285   0.606   2.826   0.123
  822SOL    HW1 3286   0.613   2.910   0.069
  822SOL    HW2 3287   0.652   2.839   0.211
  823SOL     OW 3288   1.594   1.976   1.480
  823SOL    HW1 3289   1.576   2.043   1.408
  823SOL    HW2 3290   1.591   2.022   1.569
  824SOL     OW 3291   0.122   2.505   0.563
  824SOL    HW1 3292   0.077   2.417   0.580
  824SOL    HW2 3293   0.121   2.559   0.647
  825SOL     OW 3294   1.842   3.629   0.359
  825SOL    HW1 3295   1.896   3.600   0.439
  825SOL    HW2 3296   1.872   3.719   0.330
  826SOL     OW 3297   0.027   3.458   0.117
  826SOL    HW1 3298   0.008   3.362   0.138
  826SOL    HW2 3299  -0.006   3.516   0.192
  827SOL     OW 3300   1.689   2.784   0.612
  827SOL    HW1 3301   1.784   2.755   0.620
  827SOL    HW2 3302   1.681   2.849   0.537
  828SOL     OW 3303   1.641   2.970   0.432
  828SOL    HW1 3304   1.727   2.972   0.380
  828SOL    HW2 3305   1.655   3.017   0.520
  829SOL     OW 3306   0.113   2.599   1.597
  829SOL    HW1 3307   0.201   2.586   1.642
  829SOL    HW2 3308   0.100   2.696   1.575
  830SOL     OW 3309   0.613   3.227   0.726
  830SOL    HW1 3310   0.564   3.140   0.735
  830SOL    HW2 3311   0.590   3.270   0.639
  831SOL     OW 3312   1.293   3.090   1.423
  831SOL    HW1 3313   1.330   3.017   1.365
  831SOL    HW2 3314   1.345   3.095   1.508
  832SOL     OW 3315   0.809   1.866   0.502
  832SOL    HW1 3316   0.849   1.957   0.493
  832SOL    HW2 3317   0.709   1.874   0.508
  833SOL     OW 3318   0.197   2.838   1.264
  833SOL    HW1 3319   0.286   2.793   1.250
  833SOL    HW2 3320   0.124   2.773   1.245
  834SOL     OW 3321   1.525   2.861   0.190
  834SOL    HW1 3322   1.462   2.785   0.203
  834SOL    HW2 3323   1.573   2.879   0.276
  835SOL     OW 3324   1.187   3.654   1.616
  835SOL    HW1 3325   1.211   3.714   1.540
  835SOL    HW2 3326   1.194   3.559   1.586
  836SOL     OW 3327   0.317   2.113   1.801
  836SOL    HW1 3328   0.388   2.184   1.807
  836SOL    HW2 3329   0.229   2.152   1.829
  837SOL     OW 3330   1.466   3.279   0.953
  837SOL    HW1 3331   1.407   3.285   1.033
  837SOL    HW2 3332   1.451   3.191   0.907
  838SOL     OW 3333   1.667   3.576   0.572
  838SOL    HW1 3334   1.626   3.553   0.484
  838SOL    HW2 3335   1.649   3.502   0.637
  839SOL     OW 3336   0.598   2.591   0.270
  839SOL    HW1 3337   0.622   2.660   0.202
  839SOL    HW2 3338   0.520   2.624   0.324
  840SOL     OW 3339   1.281   2.207   0.944
  840SOL    HW1 3340   1.195   2.157   0.931
  840SOL    HW2 3341   1.343   2.153   1.000
  841SOL     OW 3342   1.576   3.524   0.307
  841SOL    HW1 3343   1.665   3.570   0.310
  841SOL    HW2 3344   1.555   3.500   0.212
  842SOL     OW 3345   0.807   2.467   1.465
  842SOL    HW1 3346   0.760   2.464   1.554
  842SOL    HW2 3347   0.756   2.412   1.399
  843SOL     OW 3348   1.394   2.331   1.674
  843SOL    HW1 3349   1.374   2.374   1.762
  843SOL    HW2 3350   1.472   2.269   1.683
  844SOL     OW 3351   0.973   2.752   1.572
  844SOL    HW1 3352   1.019   2.668   1.543
  844SOL    HW2 3353   0.917   2.786   1.497
  845SOL     OW 3354   0.991   2.272   1.242
  845SOL    HW1 3355   0.914   2.306   1.296
  845SOL    HW2 3356   0.957   2.221   1.163
  846SOL     OW 3357   1.041   2.563   0.429
  846SOL    HW1 3358   1.067   2.559   0.525
  846SOL    HW2 3359   0.956   2.512   0.415
  847SOL     OW 3360   0.076   2.673   0.789
  847SOL    HW1 3361   0.175   2.661   0.798
  847SOL    HW2 3362   0.052   2.768   0.810
  848SOL     OW 3363   0.130   3.683   1.571
  848SOL    HW1 3364   0.120   3.668   1.670
  848SOL    HW2 3365   0.044   3.719   1.535
  849SOL     OW 3366   0.865   2.210   0.195
  849SOL    HW1 3367   0.924   2.273   0.146
  849SOL    HW2 3368   0.884   2.116   0.166
  850SOL     OW 3369   1.719   2.447   1.831
  850SOL    HW1 3370   1.693   2.536   1.795
  850SOL    HW2 3371   1.717   2.379   1.758
  851SOL     OW 3372   1.362   3.006   0.545
  851SOL    HW1 3373   1.445   2.977   0.497
  851SOL    HW2 3374   1.313   3.073   0.489
  852SOL     OW 3375   0.550   2.058   0.885
  852SOL    HW1 3376   0.545   2.053   0.985
  852SOL    HW2 3377   0.552   2.154   0.856
  853SOL     OW 3378   1.008   3.318   0.477
  853SOL    HW1 3379   0.962   3.390   0.425
  853SOL    HW2 3380   1.004   3.338   0.575
  854SOL     OW 3381   0.351   3.663   0.853
  854SOL    HW1 3382   0.401   3.577   0.859
  854SOL    HW2 3383   0.416   3.740   0.850
  855SOL     OW 3384   1.795   2.928   0.873
  855SOL    HW1 3385   1.733   2.913   0.797
  855SOL    HW2 3386   1.743   2.939   0.958
  856SOL     OW 3387   1.227   3.412   1.506
  856SOL    HW1 3388   1.233   3.335   1.570
  856SOL    HW2 3389   1.175   3.386   1.426
  857SOL     OW 3390   0.321   2.805   0.242
  857SOL    HW1 3391   0.403   2.844   0.200
  857SOL    HW2 3392   0.294   2.723   0.193
  858SOL     OW 3393   1.458   2.597   0.728
  858SOL    HW1 3394   1.453   2.532   0.803
  858SOL    HW2 3395   1.538   2.656   0.741
  859SOL     OW 3396   0.461   3.128   1.727
  859SOL    HW1 3397   0.411   3.129   1.641
  859SOL    HW2 3398   0.398   3.110   1.803
  860SOL     OW 3399   1.111   3.638   0.237
  860SOL    HW1 3400   1.051   3.576   0.287
  860SOL    HW2 3401   1.142   3.594   0.152
  861SOL     OW 3402   0.202   2.147   1.498
  861SOL    HW1 3403   0.122   2.207   1.485
  861SOL    HW2 3404   0.192   2.098   1.584
  862SOL     OW 3405   1.632   3.239   0.081
  862SOL    HW1 3406   1.600   3.333   0.071
  862SOL    HW2 3407   1.556   3.176   0.069
  863SOL     OW 3408   0.464   3.605   0.323
  863SOL    HW1 3409   0.497   3.644   0.409
  863SOL    HW2 3410   0.540   3.598   0.258
  864SOL     OW 3411   1.400   1.969   0.426
  864SOL    HW1 3412   1.376   1.932   0.336
  864SOL    HW2 3413   1.499   1.985   0.430
  865SOL     OW 3414   0.249   3.647   1.241
  865SOL    HW1 3415   0.306   3.582   1.291
  865SOL    HW2 3416   0.233   3.614   1.148
  866SOL     OW 3417   0.940   3.560   0.904
  866SOL    HW1 3418   1.020   3.503   0.925
  866SOL    HW2 3419   0.891   3.520   0.827
  867SOL     OW 3420   0.382   2.562   0.480
  867SOL    HW1 3421   0.427   2.472   0.477
  867SOL    HW2 3422   0.288   2.551   0.513
  868SOL     OW 3423   1.547   2.084   1.729
  868SOL    HW1 3424   1.542   2.121   1.821
  868SOL    HW2 3425   1.475   2.015   1.717
  869SOL     OW 3426   0.781   2.126   1.749
  869SOL    HW1 3427   0.848   2.065   1.792
  869SOL    HW2 3428   0.708   2.145   1.814
  870SOL     OW 3429   0.888   3.376   1.195
  870SOL    HW1 3430   0.865   3.351   1.101
  870SOL    HW2 3431   0.949   3.307   1.234
  871SOL     OW 3432   1.351   2.452   1.433
  871SOL    HW1 3433   1.379   2.409   1.518
  871SOL    HW2 3434   1.376   2.548   1.434
  872SOL     OW 3435   0.803   3.264   0.924
  872SOL    HW1 3436   0.893   3.278   0.882
  872SOL    HW2 3437   0.732   3.266   0.853
  873SOL     OW 3438   0.922   2.365   0.899
  873SOL    HW1 3439   0.897   2.356   0.803
  873SOL    HW2 3440   0.970   2.283   0.930
  874SOL     OW 3441   0.539   1.926   0.512
  874SOL    HW1 3442   0.458   1.927   0.570
  874SOL    HW2 3443   0.542   2.009   0.457
  875SOL     OW 3444   1.434   3.050   0.041
  875SOL    HW1 3445   1.466   2.974   0.098
  875SOL    HW2 3446   1.342   3.077   0.071
  876SOL     OW 3447   0.935   2.098   0.480
  876SOL    HW1 3448   0.887   2.139   0.402
  876SOL    HW2 3449   1.034   2.096   0.461
  877SOL     OW 3450   1.076   2.545   1.464
  877SOL    HW1 3451   0.996   2.484   1.467
  877SOL    HW2 3452   1.157   2.492   1.440
  878SOL     OW 3453   1.227   3.432   0.793
  878SOL    HW1 3454   1.248   3.506   0.728
  878SOL    HW2 3455   1.295   3.432   0.866
  879SOL     OW 3456   0.459   3.014   0.741
  879SOL    HW1 3457   0.388   2.987   0.806
  879SOL    HW2 3458   0.433   2.986   0.648
  880SOL     OW 3459   1.271   3.659   0.591
  880SOL    HW1 3460   1.315   3.723   0.527
  880SOL    HW2 3461   1.221   3.711   0.661
  881SOL     OW 3462   1.032   2.411   0.016
  881SOL    HW1 3463   0.991   2.493  -0.023
  881SOL    HW2 3464   1.096   2.437   0.089
  882SOL     OW 3465   0.078   2.418   1.386
  882SOL    HW1 3466   0.170   2.417   1.345
  882SOL    HW2 3467   0.072   2.492   1.453
  883SOL     OW 3468   0.561   2.084   1.147
  883SOL    HW1 3469   0.599   2.000   1.184
  883SOL    HW2 3470   0.473   2.103   1.191
  884SOL     OW 3471   0.866   2.316   0.642
  884SOL    HW1 3472   0.834   2.388   0.580
  884SOL    HW2 3473   0.890   2.235   0.589
  885SOL     OW 3474   1.017   1.901   0.753
  885SOL    HW1 3475   0.945   1.906   0.684
  885SOL    HW2 3476   0.993   1.832   0.822
  886SOL     OW 3477   1.429   3.035   0.867
  886SOL    HW1 3478   1.374   2.951   0.860
  886SOL    HW2 3479   1.455   3.064   0.775
  887SOL     OW 3480   1.466   2.452   0.992
  887SOL    HW1 3481   1.436   2.357   0.999
  887SOL    HW2 3482   1.539   2.468   1.058
  888SOL     OW 3483   1.857   2.695   0.377
  888SOL    HW1 3484   1.899   2.631   0.441
  888SOL    HW2 3485   1.819   2.644   0.299
  889SOL     OW 3486   0.488   3.247   0.174
  889SOL    HW1 3487   0.401   3.232   0.221
  889SOL    HW2 3488   0.471   3.273   0.079
  890SOL     OW 3489   1.664   3.142   0.657
  890SOL    HW1 3490   1.763   3.150   0.671
  890SOL    HW2 3491   1.619   3.226   0.688
  891SOL     OW 3492   1.390   2.437   0.078
  891SOL    HW1 3493   1.336   2.416   0.159
  891SOL    HW2 3494   1.481   2.396   0.087
  892SOL     OW 3495   0.527   2.118   0.328
  892SOL    HW1 3496   0.554   2.059   0.253
  892SOL    HW2 3497   0.527   2.213   0.297
  893SOL     OW 3498   1.754   3.085   1.588
  893SOL    HW1 3499   1.845   3.046   1.575
  893SOL    HW2 3500   1.762   3.181   1.612
  894SOL     OW 3501   1.064   3.209   1.340
  894SOL    HW1 3502   0.984   3.186   1.395
  894SOL    HW2 3503   1.147   3.183   1.389
  895SOL     OW 3504   1.592   3.491   1.625
  895SOL    HW1 3505   1.619   3.525   1.535
  895SOL    HW2 3506   1.671   3.453   1.671
  896SOL     OW 3507   1.111   3.057   1.100
  896SOL    HW1 3508   1.071   3.101   1.181
  896SOL    HW2 3509   1.070   3.094   1.017
  897SOL     OW 3510   1.638   2.961   1.079
  897SOL    HW1 3511   1.643   3.042   1.138
  897SOL    HW2 3512   1.552   2.963   1.028
  898SOL     OW 3513   0.915   1.951   1.402
  898SOL    HW1 3514   0.940   1.931   1.307
  898SOL    HW2 3515   0.987   2.007   1.444
  899SOL     OW 3516   0.980   2.978   1.719
  899SOL    HW1 3517   0.881   2.984   1.729
  899SOL    HW2 3518   1.003   2.898   1.663
  900SOL     OW 3519   0.705   2.912   0.368
  900SOL    HW1 3520   0.691   2.919   0.467
  900SOL    HW2 3521   0.789   2.861   0.350
  901SOL     OW 3522   0.410   2.675   1.251
  901SOL    HW1 3523   0.496   2.687   1.301
  901SOL    HW2 3524   0.368   2.588   1.278
  902SOL     OW 3525   1.274   2.248   1.262
  902SOL    HW1 3526   1.295   2.322   1.326
  902SOL    HW2 3527   1.185   2.265   1.219
  903SOL     OW 3528   0.064   3.426   1.331
  903SOL    HW1 3529   0.018   3.508   1.297
  903SOL    HW2 3530   0.162   3.445   1.340
  904SOL     OW 3531   0.367   2.962   0.501
  904SOL    HW1 3532   0.360   3.045   0.445
  904SOL    HW2 3533   0.371   2.882   0.441
  905SOL     OW 3534   0.566   2.399   0.865
  905SOL    HW1 3535   0.578   2.465   0.791
  905SOL    HW2 3536   0.612   2.433   0.948
  906SOL     OW 3537   1.252   3.210   0.388
  906SOL    HW1 3538   1.302   3.287   0.428
  906SOL    HW2 3539   1.157   3.212   0.420
  907SOL     OW 3540   1.272   3.307   1.142
  907SOL    HW1 3541   1.319   3.320   1.229
  907SOL    HW2 3542   1.206   3.233   1.151
  908SOL     OW 3543   1.582   2.501   0.472
  908SOL    HW1 3544   1.551   2.562   0.545
  908SOL    HW2 3545   1.632   2.553   0.403
  909SOL     OW 3546   0.354   3.372   1.329
  909SOL    HW1 3547   0.333   3.328   1.242
  909SOL    HW2 3548   0.451   3.398   1.332
  910SOL     OW 3549   0.402   2.613   1.598
  910SOL    HW1 3550   0.470   2.668   1.551
  910SOL    HW2 3551   0.442   2.525   1.625
  911SOL     OW 3552   1.587   2.641   1.670
  911SOL    HW1 3553   1.495   2.679   1.665
  911SOL    HW2 3554   1.647   2.688   1.605
  912SOL     OW 3555   1.013   1.967   1.770
  912SOL    HW1 3556   1.019   2.052   1.718
  912SOL    HW2 3557   1.045   1.891   1.713
  913SOL     OW 3558   0.504   1.912   1.740
  913SOL    HW1 3559   0.462   1.855   1.670
  913SOL    HW2 3560   0.438   1.981   1.772
  914SOL     OW 3561   0.573   2.732   1.029
  914SOL    HW1 3562   0.617   2.821   1.020
  914SOL    HW2 3563   0.510   2.732   1.106
  915SOL     OW 3564   1.360   2.724   1.045
  915SOL    HW1 3565   1.285   2.724   0.979
  915SOL    HW2 3566   1.397   2.632   1.054
  916SOL     OW 3567   1.209   2.387   0.275
  916SOL    HW1 3568   1.222   2.303   0.329
  916SOL    HW2 3569   1.180   2.461   0.335
  917SOL     OW 3570   0.307   2.075   1.231
  917SOL    HW1 3571   0.284   2.112   1.321
  917SOL    HW2 3572   0.277   1.980   1.225
  918SOL     OW 3573   0.037   3.172   1.282
  918SOL    HW1 3574   0.090   3.123   1.350
  918SOL    HW2 3575   0.059   3.270   1.287
  919SOL     OW 3576   0.732   2.496   1.064
  919SOL    HW1 3577   0.791   2.470   0.988
  919SOL    HW2 3578   0.704   2.592   1.053
  920SOL     OW 3579   1.728   2.797   1.854
  920SOL    HW1 3580   1.682   2.790   1.765
  920SOL    HW2 3581   1.666   2.841   1.920
  921SOL     OW 3582   0.307   1.925   0.618
  921SOL    HW1 3583   0.296   2.019   0.651
  921SOL    HW2 3584   0.302   1.862   0.695
  922SOL     OW 3585   1.622   2.229   0.374
  922SOL    HW1 3586   1.624   2.153   0.438
  922SOL    HW2 3587   1.574   2.306   0.414
  923SOL     OW 3588   1.023   2.628   0.966
  923SOL    HW1 3589   1.038   2.649   1.062
  923SOL    HW2 3590   0.993   2.533   0.957
  924SOL     OW 3591   0.980   3.435   1.700
  924SOL    HW1 3592   0.960   3.479   1.612
  924SOL    HW2 3593   1.019   3.344   1.684
  925SOL     OW 3594   1.859   3.380   1.605
  925SOL    HW1 3595   1.873   3.407   1.510
  925SOL    HW2 3596   1.942   3.402   1.658
  926SOL     OW 3597   0.350   2.760   1.804
  926SOL    HW1 3598   0.426   2.804   1.852
  926SOL    HW2 3599   0.385   2.713   1.722
  927SOL     OW 3600   1.540   2.136   0.125
  927SOL    HW1 3601   1.479   2.061   0.148
  927SOL    HW2 3602   1.562   2.188   0.208
  928SOL     OW 3603   1.303   2.700   0.042
  928SOL    HW1 3604   1.337   2.607   0.057
  928SOL    HW2 3605   1.321   2.727  -0.053
  929SOL     OW 3606   1.068   3.195   0.849
  929SOL    HW1 3607   1.075   3.111   0.794
  929SOL    HW2 3608   1.130   3.264   0.813
  930SOL     OW 3609   0.319   2.672   0.949
  930SOL    HW1 3610   0.412   2.708   0.954
  930SOL    HW2 3611   0.313   2.587   1.001
  931SOL     OW 3612   0.339   2.371   1.006
  931SOL    HW1 3613   0.287   2.288   0.989
  931SOL    HW2 3614   0.416   2.376   0.942
  932SOL     OW 3615   1.138   2.242   1.678
  932SOL    HW1 3616   1.093   2.305   1.742
  932SOL    HW2 3617   1.231   2.273   1.661
  933SOL     OW 3618   1.160   2.069   1.477
  933SOL    HW1 3619   1.160   2.133   1.554
  933SOL    HW2 3620   1.188   2.117   1.394
  934SOL     OW 3621   0.008   3.188   0.200
  934SOL    HW1 3622  -0.085   3.209   0.169
  934SOL    HW2 3623   0.018   3.089   0.213
  935SOL     OW 3624   0.088   3.663   0.927
  935SOL    HW1 3625   0.046   3.577   0.900
  935SOL    HW2 3626   0.182   3.666   0.893
  936SOL     OW 3627   0.504   3.430   0.910
  936SOL    HW1 3628   0.570   3.504   0.919
  936SOL    HW2 3629   0.548   3.351   0.868
  937SOL     OW 3630   1.002   2.658   1.238
  937SOL    HW1 3631   1.043   2.626   1.324
  937SOL    HW2 3632   0.906   2.631   1.235
  938SOL     OW 3633   0.040   2.406   1.114
  938SOL    HW1 3634   0.125   2.373   1.073
  938SOL    HW2 3635   0.053   2.421   1.212
  939SOL     OW 3636   0.189   2.382   1.722
  939SOL    HW1 3637   0.248   2.342   1.652
  939SOL    HW2 3638   0.131   2.453   1.681
  940SOL     OW 3639   1.369   2.812   1.660
  940SOL    HW1 3640   1.408   2.901   1.680
  940SOL    HW2 3641   1.379   2.792   1.563
  941SOL     OW 3642   0.815   2.434   0.325
  941SOL    HW1 3643   0.822   2.345   0.279
  941SOL    HW2 3644   0.721   2.468   0.317
  942SOL     OW 3645   1.657   2.466   1.206
  942SOL    HW1 3646   1.619   2.397   1.268
  942SOL    HW2 3647   1.739   2.430   1.162
  943SOL     OW 3648   0.252   3.426   1.744
  943SOL    HW1 3649   0.222   3.483   1.820
  943SOL    HW2 3650   0.245   3.329   1.770
  944SOL     OW 3651   0.671   2.326   1.269
  944SOL    HW1 3652   0.637   2.237   1.239
  944SOL    HW2 3653   0.697   2.380   1.189
  945SOL     OW 3654   0.930   3.540   1.465
  945SOL    HW1 3655   0.906   3.522   1.370
  945SOL    HW2 3656   0.960   3.634   1.475
  946SOL     OW 3657   0.473   2.362   0.191
  946SOL    HW1 3658   0.534   2.442   0.195
  946SOL    HW2 3659   0.378   2.393   0.198
  947SOL     OW 3660   0.159   2.999   1.466
  947SOL    HW1 3661   0.181   2.938   1.542
  947SOL    HW2 3662   0.169   2.950   1.380
  948SOL     OW 3663   1.347   2.921   1.234
  948SOL    HW1 3664   1.371   2.858   1.160
  948SOL    HW2 3665   1.257   2.961   1.216
  949SOL     OW 3666   1.302   2.717   0.309
  949SOL    HW1 3667   1.216   2.686   0.351
  949SOL    HW2 3668   1.298   2.703   0.210
  950SOL     OW 3669   1.759   3.609   1.154
  950SOL    HW1 3670   1.820   3.639   1.081
  950SOL    HW2 3671   1.721   3.520   1.132
  951SOL     OW 3672   1.252   3.593   1.128
  951SOL    HW1 3673   1.336   3.598   1.074
  951SOL    HW2 3674   1.229   3.497   1.146
  952SOL     OW 3675   0.083   3.120   1.022
  952SOL    HW1 3676   0.078   3.119   1.122
  952SOL    HW2 3677   0.000   3.079   0.984
  953SOL     OW 3678   0.688   3.524   1.716
  953SOL    HW1 3679   0.632   3.605   1.725
  953SOL    HW2 3680   0.740   3.528   1.630
  954SOL     OW 3681   0.903   1.948   0.133
  954SOL    HW1 3682   0.954   1.949   0.047
  954SOL    HW2 3683   0.959   1.906   0.204
  955SOL     OW 3684   1.726   1.997   0.523
  955SOL    HW1 3685   1.799   1.980   0.456
  955SOL    HW2 3686   1.695   1.910   0.561
  956SOL     OW 3687   1.388   3.435   0.477
  956SOL    HW1 3688   1.455   3.447   0.403
  956SOL    HW2 3689   1.348   3.524   0.500
  957SOL     OW 3690   0.130   3.656   1.851
  957SOL    HW1 3691   0.089   3.582   1.904
  957SOL    HW2 3692   0.194   3.707   1.909
  958SOL     OW 3693   1.280   2.789   0.672
  958SOL    HW1 3694   1.340   2.708   0.674
  958SOL    HW2 3695   1.320   2.858   0.612
  959SOL     OW 3696   0.830   3.135   1.422
  959SOL    HW1 3697   0.825   3.168   1.517
  959SOL    HW2 3698   0.744   3.154   1.376
  960SOL     OW 3699   0.672   3.478   0.154
  960SOL    HW1 3700   0.681   3.488   0.055
  960SOL    HW2 3701   0.632   3.389   0.175
  961SOL     OW 3702   1.650   3.582   1.394
  961SOL    HW1 3703   1.703   3.592   1.310
  961SOL    HW2 3704   1.623   3.672   1.428
  962SOL     OW 3705   1.841   2.037   0.963
  962SOL    HW1 3706   1.880   1.952   0.927
  962SOL    HW2 3707   1.743   2.039   0.944
  963SOL     OW 3708   0.263   2.188   0.720
  963SOL    HW1 3709   0.184   2.239   0.686
  963SOL    HW2 3710   0.254   2.173   0.818
  964SOL     OW 3711   1.194   3.474   0.031
  964SOL    HW1 3712   1.200   3.381   0.068
  964SOL    HW2 3713   1.135   3.474  -0.049
  965SOL     OW 3714   0.822   2.864   1.372
  965SOL    HW1 3715   0.862   2.863   1.280
  965SOL    HW2 3716   0.832   2.956   1.412
  966SOL     OW 3717   0.916   2.772   0.291
  966SOL    HW1 3718   0.979   2.810   0.223
  966SOL    HW2 3719   0.956   2.689   0.330
  967SOL     OW 3720   1.504   3.469   0.044
  967SOL    HW1 3721   1.412   3.506   0.051
  967SOL    HW2 3722   1.542   3.489  -0.046
  968SOL     OW 3723   0.372   3.150   1.490
  968SOL    HW1 3724   0.359   3.243   1.456
  968SOL    HW2 3725   0.288   3.098   1.477
  969SOL     OW 3726   1.614   3.154   1.289
  969SOL    HW1 3727   1.674   3.157   1.369
  969SOL    HW2 3728   1.539   3.218   1.302
  970SOL     OW 3729   1.039   2.960   0.696
  970SOL    HW1 3730   0.969   2.913   0.750
  970SOL    HW2 3731   1.098   2.892   0.653
  971SOL     OW 3732   1.014   2.098   0.971
  971SOL    HW1 3733   1.006   2.062   0.878
  971SOL    HW2 3734   1.012   2.022   1.036
  972SOL     OW 3735   0.590   3.349   0.491
  972SOL    HW1 3736   0.632   3.291   0.421
  972SOL    HW2 3737   0.546   3.428   0.447
  973SOL     OW 3738   1.709   2.247   1.381
  973SOL    HW1 3739   1.782   2.316   1.385
  973SOL    HW2 3740   1.737   2.172   1.322
  974SOL     OW 3741   0.255   3.210   0.290
  974SOL    HW1 3742   0.159   3.211   0.263
  974SOL    HW2 3743   0.267   3.263   0.374
  975SOL     OW 3744   0.105   2.875   1.726
  975SOL    HW1 3745   0.028   2.842   1.780
  975SOL    HW2 3746   0.190   2.845   1.768
  976SOL     OW 3747   0.672   2.065   1.489
  976SOL    HW1 3748   0.762   2.049   1.449
  976SOL    HW2 3749   0.680   2.070   1.588
  977SOL     OW 3750   0.075   2.207   0.033
  977SOL    HW1 3751  -0.017   2.179   0.004
  977SOL    HW2 3752   0.106   2.284  -0.023
  978SOL     OW 3753   1.440   2.718   1.398
  978SOL    HW1 3754   1.383   2.770   1.335
  978SOL    HW2 3755   1.536   2.730   1.374
  979SOL     OW 3756   0.072   2.028   0.318
  979SOL    HW1 3757   0.055   2.111   0.264
  979SOL    HW2 3758   0.162   1.991   0.296
  980SOL     OW 3759   1.183   3.197   0.119
  980SOL    HW1 3760   1.084   3.186   0.121
  980SOL    HW2 3761   1.217   3.212   0.212
  981SOL     OW 3762   0.613   2.704   1.431
  981SOL    HW1 3763   0.669   2.785   1.414
  981SOL    HW2 3764   0.672   2.624   1.434
  982SOL     OW 3765   1.493   3.629   0.959
  982SOL    HW1 3766   1.526   3.693   0.890
  982SOL    HW2 3767   1.559   3.623   1.034
  983SOL     OW 3768   0.716   2.427   1.708
  983SOL    HW1 3769   0.735   2.492   1.782
  983SOL    HW2 3770   0.776   2.347   1.717
  984SOL     OW 3771   1.450   3.082   1.633
  984SOL    HW1 3772   1.441   3.072   1.732
  984SOL    HW2 3773   1.546   3.075   1.607
  985SOL     OW 3774   0.390   3.603   1.560
  985SOL    HW1 3775   0.299   3.644   1.558
  985SOL    HW2 3776   0.383   3.509   1.592
  986SOL     OW 3777   1.674   2.745   1.254
  986SOL    HW1 3778   1.647   2.656   1.217
  986SOL    HW2 3779   1.675   2.813   1.181
  987SOL     OW 3780   1.225   2.187   0.449
  987SOL    HW1 3781   1.290   2.113   0.438
  987SOL    HW2 3782   1.245   2.237   0.533
  988SOL     OW 3783   0.594   2.607   0.652
  988SOL    HW1 3784   0.644   2.692   0.633
  988SOL    HW2 3785   0.506   2.609   0.604
  989SOL     OW 3786   1.777   2.204   1.642
  989SOL    HW1 3787   1.760   2.235   1.548
  989SOL    HW2 3788   1.693   2.167   1.680
  990SOL     OW 3789   1.730   2.796   1.517
  990SOL    HW1 3790   1.768   2.887   1.532
  990SOL    HW2 3791   1.722   2.779   1.418
  991SOL     OW 3792   0.859   3.236   0.016
  991SOL    HW1 3793   0.813   3.251   0.104
  991SOL    HW2 3794   0.903   3.321  -0.014
  992SOL     OW 3795   0.661   3.652   0.953
  992SOL    HW1 3796   0.615   3.740   0.940
  992SOL    HW2 3797   0.760   3.664   0.946
  993SOL     OW 3798   0.859   2.818   0.861
  993SOL    HW1 3799   0.913   2.749   0.909
  993SOL    HW2 3800   0.827   2.887   0.927
  994SOL     OW 3801   1.083   2.846   0.087
  994SOL    HW1 3802   1.060   2.899   0.005
  994SOL    HW2 3803   1.164   2.790   0.068
  995SOL     OW 3804   1.861   3.431   0.851
  995SOL    HW1 3805   1.790   3.419   0.781
  995SOL    HW2 3806   1.862   3.352   0.911
  996SOL     OW 3807   0.221   3.176   1.844
  996SOL    HW1 3808   0.156   3.103   1.823
  996SOL    HW2 3809   0.225   3.190   1.942
  997SOL     OW 3810   0.079   3.102   0.653
  997SOL    HW1 3811   0.078   3.055   0.741
  997SOL    HW2 3812   0.161   3.074   0.602
  998SOL     OW 3813   0.672   3.253   1.624
  998SOL    HW1 3814   0.594   3.203   1.662
  998SOL    HW2 3815   0.669   3.348   1.655
  999SOL     OW 3816   1.824   2.054   1.227
  999SOL    HW1 3817   1.820   1.964   1.271
  999SOL    HW2 3818   1.827   2.043   1.128
 1000SOL     OW 3819   0.428   2.286   0.520
 1000SOL    HW1 3820   0.458   2.214   0.458
 1000SOL    HW2 3821   0.389   2.246   0.603
 1001SOL     OW 3822   1.705   3.349   1.104
 1001SOL    HW1 3823   1.612   3.324   1.077
 1001SOL    HW2 3824   1.731   3.299   1.186
 1002SOL     OW 3825   0.317   2.409   1.280
 1002SOL    HW1 3826   0.355   2.350   1.352
 1002SOL    HW2 3827   0.357   2.383   1.192
 1003SOL     OW 3828   0.812   3.448   0.687
 1003SOL    HW1 3829   0.844   3.458   0.593
 1003SOL    HW2 3830   0.733   3.386   0.689
 1004SOL     OW 3831   1.424   2.076   1.112
 1004SOL    HW1 3832   1.476   2.011   1.167
 1004SOL    HW2 3833   1.375   2.139   1.173
 1005SOL     OW 3834   1.001   1.896   1.154
 1005SOL    HW1 3835   0.938   1.824   1.123
 1005SOL    HW2 3836   1.094   1.860   1.154
 1006SOL     OW 3837   0.770   3.192   0.301
 1006SOL    HW1 3838   0.724   3.105   0.318
 1006SOL    HW2 3839   0.861   3.189   0.342
 1007SOL     OW 3840   0.618   3.429   1.284
 1007SOL    HW1 3841   0.613   3.511   1.341
 1007SOL    HW2 3842   0.707   3.426   1.239
 1008SOL     OW 3843   1.352   1.914   0.168
 1008SOL    HW1 3844   1.387   1.873   0.084
 1008SOL    HW2 3845   1.262   1.876   0.188
 1009SOL     OW 3846   1.300   2.315   0.691
 1009SOL    HW1 3847   1.241   2.395   0.695
 1009SOL    HW2 3848   1.315   2.280   0.784
 1010SOL     OW 3849   1.593   2.083   0.882
 1010SOL    HW1 3850   1.509   2.082   0.936
 1010SOL    HW2 3851   1.595   2.166   0.826
 1011SOL     OW 3852   0.039   2.939   0.300
 1011SOL    HW1 3853   0.138   2.928   0.291
 1011SOL    HW2 3854  -0.001   2.853   0.332
 1012SOL     OW 3855   0.875   3.508   0.337
 1012SOL    HW1 3856   0.798   3.473   0.283
 1012SOL    HW2 3857   0.843   3.579   0.399
 1013SOL     OW 3858   0.230   2.490   1.975
 1013SOL    HW1 3859   0.137   2.488   2.012
 1013SOL    HW2 3860   0.231   2.451   1.883
 1014SOL     OW 3861   0.225   2.137   2.858
 1014SOL    HW1 3862   0.260   2.120   2.950
 1014SOL    HW2 3863   0.137   2.092   2.846
 1015SOL     OW 3864   0.019   2.230   2.509
 1015SOL    HW1 3865  -0.063   2.273   2.548
 1015SOL    HW2 3866  -0.009   2.157   2.446
 1016SOL     OW 3867   0.569   3.137   3.027
 1016SOL    HW1 3868   0.476   3.130   2.990
 1016SOL    HW2 3869   0.580   3.226   3.071
 1017SOL     OW 3870   1.555   3.373   2.565
 1017SOL    HW1 3871   1.498   3.357   2.646
 1017SOL    HW2 3872   1.496   3.383   2.485
 1018SOL     OW 3873   1.135   2.565   2.579
 1018SOL    HW1 3874   1.192   2.643   2.554
 1018SOL    HW2 3875   1.075   2.591   2.655
 1019SOL     OW 3876   1.755   2.469   2.093
 1019SOL    HW1 3877   1.743   2.456   1.994
 1019SOL    HW2 3878   1.725   2.388   2.142
 1020SOL     OW 3879   0.768   3.006   2.885
 1020SOL    HW1 3880   0.690   3.023   2.945
 1020SOL    HW2 3881   0.802   3.093   2.849
 1021SOL     OW 3882   0.850   2.660   3.685
 1021SOL    HW1 3883   0.846   2.736   3.750
 1021SOL    HW2 3884   0.872   2.696   3.594
 1022SOL     OW 3885   0.685   2.874   2.527
 1022SOL    HW1 3886   0.754   2.858   2.597
 1022SOL    HW2 3887   0.612   2.931   2.565
 1023SOL     OW 3888   0.686   3.023   3.665
 1023SOL    HW1 3889   0.746   3.102   3.679
 1023SOL    HW2 3890   0.600   3.054   3.624
 1024SOL     OW 3891   0.335   3.297   2.923
 1024SOL    HW1 3892   0.257   3.266   2.870
 1024SOL    HW2 3893   0.393   3.355   2.866
 1025SOL     OW 3894   1.460   3.367   3.201
 1025SOL    HW1 3895   1.484   3.461   3.227
 1025SOL    HW2 3896   1.444   3.313   3.283
 1026SOL     OW 3897   0.438   2.254   3.361
 1026SOL    HW1 3898   0.520   2.198   3.370
 1026SOL    HW2 3899   0.357   2.196   3.365
 1027SOL     OW 3900   1.603   2.309   2.599
 1027SOL    HW1 3901   1.529   2.355   2.549
 1027SOL    HW2 3902   1.654   2.377   2.652
 1028SOL     OW 3903   0.231   3.575   2.345
 1028SOL    HW1 3904   0.265   3.652   2.399
 1028SOL    HW2 3905   0.275   3.575   2.255
 1029SOL     OW 3906   1.127   3.203   3.552
 1029SOL    HW1 3907   1.174   3.203   3.640
 1029SOL    HW2 3908   1.079   3.116   3.541
 1030SOL     OW 3909   0.230   3.296   2.400
 1030SOL    HW1 3910   0.204   3.392   2.400
 1030SOL    HW2 3911   0.159   3.242   2.445
 1031SOL     OW 3912   0.240   2.953   2.748
 1031SOL    HW1 3913   0.254   2.869   2.800
 1031SOL    HW2 3914   0.185   3.017   2.803
 1032SOL     OW 3915   0.620   3.648   3.301
 1032SOL    HW1 3916   0.528   3.631   3.336
 1032SOL    HW2 3917   0.648   3.740   3.327
 1033SOL     OW 3918   0.606   2.826   1.985
 1033SOL    HW1 3919   0.613   2.910   1.931
 1033SOL    HW2 3920   0.652   2.839   2.073
 1034SOL     OW 3921   1.594   1.976   3.342
 1034SOL    HW1 3922   1.576   2.043   3.270
 1034SOL    HW2 3923   1.591   2.022   3.431
 1035SOL     OW 3924   0.122   2.505   2.425
 1035SOL    HW1 3925   0.077   2.417   2.442
 1035SOL    HW2 3926   0.121   2.559   2.509
 1036SOL     OW 3927   0.027   3.458   1.979
 1036SOL    HW1 3928   0.008   3.362   2.000
 1036SOL    HW2 3929  -0.006   3.516   2.054
 1037SOL     OW 3930   1.641   2.970   2.294
 1037SOL    HW1 3931   1.727   2.972   2.242
 1037SOL    HW2 3932   1.655   3.017   2.382
 1038SOL     OW 3933   0.113   2.599   3.459
 1038SOL    HW1 3934   0.201   2.586   3.504
 1038SOL    HW2 3935   0.100   2.696   3.437
 1039SOL     OW 3936   0.613   3.227   2.588
 1039SOL    HW1 3937   0.564   3.140   2.597
 1039SOL    HW2 3938   0.590   3.270   2.501
 1040SOL     OW 3939   1.293   3.090   3.285
 1040SOL    HW1 3940   1.330   3.017   3.227
 1040SOL    HW2 3941   1.345   3.095   3.370
 1041SOL     OW 3942   0.809   1.866   2.364
 1041SOL    HW1 3943   0.849   1.957   2.355
 1041SOL    HW2 3944   0.709   1.874   2.370
 1042SOL     OW 3945   0.197   2.838   3.126
 1042SOL    HW1 3946   0.286   2.793   3.112
 1042SOL    HW2 3947   0.124   2.773   3.107
 1043SOL     OW 3948   1.525   2.861   2.052
 1043SOL    HW1 3949   1.462   2.785   2.065
 1043SOL    HW2 3950   1.573   2.879   2.138
 1044SOL     OW 3951   1.187   3.654   3.478
 1044SOL    HW1 3952   1.211   3.714   3.402
 1044SOL    HW2 3953   1.194   3.559   3.448
 1045SOL     OW 3954   0.317   2.113   3.663
 1045SOL    HW1 3955   0.388   2.184   3.669
 1045SOL    HW2 3956   0.229   2.152   3.691
 1046SOL     OW 3957   1.466   3.279   2.815
 1046SOL    HW1 3958   1.407   3.285   2.895
 1046SOL    HW2 3959   1.451   3.191   2.769
 1047SOL     OW 3960   1.667   3.576   2.434
 1047SOL    HW1 3961   1.626   3.553   2.346
 1047SOL    HW2 3962   1.649   3.502   2.499
 1048SOL     OW 3963   0.598   2.591   2.132
 1048SOL    HW1 3964   0.622   2.660   2.064
 1048SOL    HW2 3965   0.520   2.624   2.186
 1049SOL     OW 3966   1.281   2.207   2.806
 1049SOL    HW1 3967   1.195   2.157   2.793
 1049SOL    HW2 3968   1.343   2.153   2.862
 1050SOL     OW 3969   1.576   3.524   2.169
 1050SOL    HW1 3970   1.665   3.570   2.172
 1050SOL    HW2 3971   1.555   3.500   2.074
 1051SOL     OW 3972   0.807   2.467   3.327
 1051SOL    HW1 3973   0.760   2.464   3.416
 1051SOL    HW2 3974   0.756   2.412   3.261
 1052SOL     OW 3975   1.394   2.331   3.536
 1052SOL    HW1 3976   1.374   2.374   3.624
 1052SOL    HW2 3977   1.472   2.269   3.545
 1053SOL     OW 3978   0.973   2.752   3.434
 1053SOL    HW1 3979   1.019   2.668   3.405
 1053SOL    HW2 3980   0.917   2.786   3.359
 1054SOL     OW 3981   0.991   2.272   3.104
 1054SOL    HW1 3982   0.914   2.306   3.158
 1054SOL    HW2 3983   0.957   2.221   3.025
 1055SOL     OW 3984   1.041   2.563   2.291
 1055SOL    HW1 3985   1.067   2.559   2.387
 1055SOL    HW2 3986   0.956   2.512   2.277
 1056SOL     OW 3987   0.076   2.673   2.651
 1056SOL    HW1 3988   0.175   2.661   2.660
 1056SOL    HW2 3989   0.052   2.768   2.672
 1057SOL     OW 3990   0.130   3.683   3.433
 1057SOL    HW1 3991   0.120   3.668   3.532
 1057SOL    HW2 3992   0.044   3.719   3.397
 1058SOL     OW 3993   0.865   2.210   2.057
 1058SOL    HW1 3994   0.924   2.273   2.008
 1058SOL    HW2 3995   0.884   2.116   2.028
 1059SOL     OW 3996   1.719   2.447   3.693
 1059SOL    HW1 3997   1.693   2.536   3.657
 1059SOL    HW2 3998   1.717   2.379   3.620
 1060SOL     OW 3999   1.362   3.006   2.407
 1060SOL    HW1 4000   1.445   2.977   2.359
 1060SOL    HW2 4001   1.313   3.073   2.351
 1061SOL     OW 4002   0.550   2.058   2.747
 1061SOL    HW1 4003   0.545   2.053   2.847
 1061SOL    HW2 4004   0.552   2.154   2.718
 1062SOL     OW 4005   1.008   3.318   2.339
 1062SOL    HW1 4006   0.962   3.390   2.287
 1062SOL    HW2 4007   1.004   3.338   2.437
 1063SOL     OW 4008   0.351   3.663   2.715
 1063SOL    HW1 4009   0.401   3.577   2.721
 1063SOL    HW2 4010   0.416   3.740   2.712
 1064SOL     OW 4011   1.795   2.928   2.735
 1064SOL    HW1 4012   1.733   2.913   2.659
 1064SOL    HW2 4013   1.743   2.939   2.820
 1065SOL     OW 4014   1.227   3.412   3.368
 1065SOL    HW1 4015   1.233   3.335   3.432
 1065SOL    HW2 4016   1.175   3.386   3.288
 1066SOL     OW 4017   0.321   2.805   2.104
 1066SOL    HW1 4018   0.403   2.844   2.062
 1066SOL    HW2 4019   0.294   2.723   2.055
 1067SOL     OW 4020   1.458   2.597   2.590
 1067SOL    HW1 4021   1.453   2.532   2.665
 1067SOL    HW2 4022   1.538   2.656   2.603
 1068SOL     OW 4023   0.461   3.128   3.589
 1068SOL    HW1 4024   0.411   3.129   3.503
 1068SOL    HW2 4025   0.398   3.110   3.665
 1069SOL     OW 4026   1.111   3.638   2.099
 1069SOL    HW1 4027   1.051   3.576   2.149
 1069SOL    HW2 4028   1.142   3.594   2.014
 1070SOL     OW 4029   0.202   2.147   3.360
 1070SOL    HW1 4030   0.122   2.207   3.347
 1070SOL    HW2 4031   0.192   2.098   3.446
 1071SOL     OW 4032   1.632   3.239   1.943
 1071SOL    HW1 4033   1.600   3.333   1.933
 1071SOL    HW2 4034   1.556   3.176   1.931
 1072SOL     OW 4035   0.464   3.605   2.185
 1072SOL    HW1 4036   0.497   3.644   2.271
 1072SOL    HW2 4037   0.540   3.598   2.120
 1073SOL     OW 4038   1.400   1.969   2.288
 1073SOL    HW1 4039   1.376   1.932   2.198
 1073SOL    HW2 4040   1.499   1.985   2.292
 1074SOL     OW 4041   0.249   3.647   3.103
 1074SOL    HW1 4042   0.306   3.582   3.153
 1074SOL    HW2 4043   0.233   3.614   3.010
 1075SOL     OW 4044   0.940   3.560   2.766
 1075SOL    HW1 4045   1.020   3.503   2.787
 1075SOL    HW2 4046   0.891   3.520   2.689
 1076SOL     OW 4047   0.382   2.562   2.342
 1076SOL    HW1 4048   0.427   2.472   2.339
 1076SOL    HW2 4049   0.288   2.551   2.375
 1077SOL     OW 4050   1.547   2.084   3.591
 1077SOL    HW1 4051   1.542   2.121   3.683
 1077SOL    HW2 4052   1.475   2.015   3.579
 1078SOL     OW 4053   0.614   1.984   1.979
 1078SOL    HW1 4054   0.712   1.962   1.986
 1078SOL    HW2 4055   0.583   1.967   1.886
 1079SOL     OW 4056   0.781   2.126   3.611
 1079SOL    HW1 4057   0.848   2.065   3.654
 1079SOL    HW2 4058   0.708   2.145   3.676
 1080SOL     OW 4059   0.888   3.376   3.057
 1080SOL    HW1 4060   0.865   3.351   2.963
 1080SOL    HW2 4061   0.949   3.307   3.096
 1081SOL     OW 4062   1.351   2.452   3.295
 1081SOL    HW1 4063   1.379   2.409   3.380
 1081SOL    HW2 4064   1.376   2.548   3.296
 1082SOL     OW 4065   0.803   3.264   2.786
 1082SOL    HW1 4066   0.893   3.278   2.744
 1082SOL    HW2 4067   0.732   3.266   2.715
 1083SOL     OW 4068   0.922   2.365   2.761
 1083SOL    HW1 4069   0.897   2.356   2.665
 1083SOL    HW2 4070   0.970   2.283   2.792
 1084SOL     OW 4071   0.539   1.926   2.374
 1084SOL    HW1 4072   0.458   1.927   2.432
 1084SOL    HW2 4073   0.542   2.009   2.319
 1085SOL     OW 4074   1.434   3.050   1.903
 1085SOL    HW1 4075   1.466   2.974   1.960
 1085SOL    HW2 4076   1.342   3.077   1.933
 1086SOL     OW 4077   0.297   1.897   2.033
 1086SOL    HW1 4078   0.346   1.981   2.012
 1086SOL    HW2 4079   0.359   1.832   2.078
 1087SOL     OW 4080   0.935   2.098   2.342
 1087SOL    HW1 4081   0.887   2.139   2.264
 1087SOL    HW2 4082   1.034   2.096   2.323
 1088SOL     OW 4083   1.076   2.545   3.326
 1088SOL    HW1 4084   0.996   2.484   3.329
 1088SOL    HW2 4085   1.157   2.492   3.302
 1089SOL     OW 4086   1.227   3.432   2.655
 1089SOL    HW1 4087   1.248   3.506   2.590
 1089SOL    HW2 4088   1.295   3.432   2.728
 1090SOL     OW 4089   0.459   3.014   2.603
 1090SOL    HW1 4090   0.388   2.987   2.668
 1090SOL    HW2 4091   0.433   2.986   2.510
 1091SOL     OW 4092   1.271   3.659   2.453
 1091SOL    HW1 4093   1.315   3.723   2.389
 1091SOL    HW2 4094   1.221   3.711   2.523
 1092SOL     OW 4095   1.032   2.411   1.878
 1092SOL    HW1 4096   0.991   2.493   1.839
 1092SOL    HW2 4097   1.096   2.437   1.951
 1093SOL     OW 4098   0.078   2.418   3.248
 1093SOL    HW1 4099   0.170   2.417   3.207
 1093SOL    HW2 4100   0.072   2.492   3.315
 1094SOL     OW 4101   0.561   2.084   3.009
 1094SOL    HW1 4102   0.599   2.000   3.046
 1094SOL    HW2 4103   0.473   2.103   3.053
 1095SOL     OW 4104   0.866   2.316   2.504
 1095SOL    HW1 4105   0.834   2.388   2.442
 1095SOL    HW2 4106   0.890   2.235   2.451
 1096SOL     OW 4107   1.017   1.901   2.615
 1096SOL    HW1 4108   0.945   1.906   2.546
 1096SOL    HW2 4109   0.993   1.832   2.684
 1097SOL     OW 4110   1.429   3.035   2.729
 1097SOL    HW1 4111   1.374   2.951   2.722
 1097SOL    HW2 4112   1.455   3.064   2.637
 1098SOL     OW 4113   1.466   2.452   2.854
 1098SOL    HW1 4114   1.436   2.357   2.861
 1098SOL    HW2 4115   1.539   2.468   2.920
 1099SOL     OW 4116   1.857   2.695   2.239
 1099SOL    HW1 4117   1.899   2.631   2.303
 1099SOL    HW2 4118   1.819   2.644   2.161
 1100SOL     OW 4119   0.488   3.247   2.036
 1100SOL    HW1 4120   0.401   3.232   2.083
 1100SOL    HW2 4121   0.471   3.273   1.941
 1101SOL     OW 4122   1.390   2.437   1.940
 1101SOL    HW1 4123   1.336   2.416   2.021
 1101SOL    HW2 4124   1.481   2.396   1.949
 1102SOL     OW 4125   0.527   2.118   2.190
 1102SOL    HW1 4126   0.554   2.059   2.115
 1102SOL    HW2 4127   0.527   2.213   2.159
 1103SOL     OW 4128   1.754   3.085   3.450
 1103SOL    HW1 4129   1.845   3.046   3.437
 1103SOL    HW2 4130   1.762   3.181   3.474
 1104SOL     OW 4131   1.064   3.209   3.202
 1104SOL    HW1 4132   0.984   3.186   3.257
 1104SOL    HW2 4133   1.147   3.183   3.251
 1105SOL     OW 4134   1.592   3.491   3.487
 1105SOL    HW1 4135   1.619   3.525   3.397
 1105SOL    HW2 4136   1.671   3.453   3.533
 1106SOL     OW 4137   1.111   3.057   2.962
 1106SOL    HW1 4138   1.071   3.101   3.043
 1106SOL    HW2 4139   1.070   3.094   2.879
 1107SOL     OW 4140   1.638   2.961   2.941
 1107SOL    HW1 4141   1.643   3.042   3.000
 1107SOL    HW2 4142   1.552   2.963   2.890
 1108SOL     OW 4143   0.915   1.951   3.264
 1108SOL    HW1 4144   0.940   1.931   3.169
 1108SOL    HW2 4145   0.987   2.007   3.306
 1109SOL     OW 4146   0.980   2.978   3.581
 1109SOL    HW1 4147   0.881   2.984   3.591
 1109SOL    HW2 4148   1.003   2.898   3.525
 1110SOL     OW 4149   0.705   2.912   2.230
 1110SOL    HW1 4150   0.691   2.919   2.329
 1110SOL    HW2 4151   0.789   2.861   2.212
 1111SOL     OW 4152   0.410   2.675   3.113
 1111SOL    HW1 4153   0.496   2.687   3.163
 1111SOL    HW2 4154   0.368   2.588   3.140
 1112SOL     OW 4155   1.274   2.248   3.124
 1112SOL    HW1 4156   1.295   2.322   3.188
 1112SOL    HW2 4157   1.185   2.265   3.081
 1113SOL     OW 4158   0.064   3.426   3.193
 1113SOL    HW1 4159   0.018   3.508   3.159
 1113SOL    HW2 4160   0.162   3.445   3.202
 1114SOL     OW 4161   0.367   2.962   2.363
 1114SOL    HW1 4162   0.360   3.045   2.307
 1114SOL    HW2 4163   0.371   2.882   2.303
 1115SOL     OW 4164   0.566   2.399   2.727
 1115SOL    HW1 4165   0.578   2.465   2.653
 1115SOL    HW2 4166   0.612   2.433   2.810
 1116SOL     OW 4167   1.252   3.210   2.250
 1116SOL    HW1 4168   1.302   3.287   2.290
 1116SOL    HW2 4169   1.157   3.212   2.282
 1117SOL     OW 4170   1.272   3.307   3.004
 1117SOL    HW1 4171   1.319   3.320   3.091
 1117SOL    HW2 4172   1.206   3.233   3.013
 1118SOL     OW 4173   1.582   2.501   2.334
 1118SOL    HW1 4174   1.551   2.562   2.407
 1118SOL    HW2 4175   1.632   2.553   2.265
 1119SOL     OW 4176   0.354   3.372   3.191
 1119SOL    HW1 4177   0.333   3.328   3.104
 1119SOL    HW2 4178   0.451   3.398   3.194
 1120SOL     OW 4179   0.402   2.613   3.460
 1120SOL    HW1 4180   0.470   2.668   3.413
 1120SOL    HW2 4181   0.442   2.525   3.487
 1121SOL     OW 4182   1.587   2.641   3.532
 1121SOL    HW1 4183   1.495   2.679   3.527
 1121SOL    HW2 4184   1.647   2.688   3.467
 1122SOL     OW 4185   1.013   1.967   3.632
 1122SOL    HW1 4186   1.019   2.052   3.580
 1122SOL    HW2 4187   1.045   1.891   3.575
 1123SOL     OW 4188   0.504   1.912   3.602
 1123SOL    HW1 4189   0.462   1.855   3.532
 1123SOL    HW2 4190   0.438   1.981   3.634
 1124SOL     OW 4191   0.573   2.732   2.891
 1124SOL    HW1 4192   0.617   2.821   2.882
 1124SOL    HW2 4193   0.510   2.732   2.968
 1125SOL     OW 4194   1.360   2.724   2.907
 1125SOL    HW1 4195   1.285   2.724   2.841
 1125SOL    HW2 4196   1.397   2.632   2.916
 1126SOL     OW 4197   1.209   2.387   2.137
 1126SOL    HW1 4198   1.222   2.303   2.191
 1126SOL    HW2 4199   1.180   2.461   2.197
 1127SOL     OW 4200   0.307   2.075   3.093
 1127SOL    HW1 4201   0.284   2.112   3.183
 1127SOL    HW2 4202   0.277   1.980   3.087
 1128SOL     OW 4203   0.037   3.172   3.144
 1128SOL    HW1 4204   0.090   3.123   3.212
 1128SOL    HW2 4205   0.059   3.270   3.149
 1129SOL     OW 4206   0.732   2.496   2.926
 1129SOL    HW1 4207   0.791   2.470   2.850
 1129SOL    HW2 4208   0.704   2.592   2.915
 1130SOL     OW 4209   1.728   2.797   3.716
 1130SOL    HW1 4210   1.682   2.790   3.627
 1130SOL    HW2 4211   1.666   2.841   3.782
 1131SOL     OW 4212   0.307   1.925   2.480
 1131SOL    HW1 4213   0.296   2.019   2.513
 1131SOL    HW2 4214   0.302   1.862   2.557
 1132SOL     OW 4215   1.622   2.229   2.236
 1132SOL    HW1 4216   1.624   2.153   2.300
 1132SOL    HW2 4217   1.574   2.306   2.276
 1133SOL     OW 4218   1.023   2.628   2.828
 1133SOL    HW1 4219   1.038   2.649   2.924
 1133SOL    HW2 4220   0.993   2.533   2.819
 1134SOL     OW 4221   0.980   3.435   3.562
 1134SOL    HW1 4222   0.960   3.479   3.474
 1134SOL    HW2 4223   1.019   3.344   3.546
 1135SOL     OW 4224   1.859   3.380   3.467
 1135SOL    HW1 4225   1.873   3.407   3.372
 1135SOL    HW2 4226   1.942   3.402   3.520
 1136SOL     OW 4227   0.350   2.760   3.666
 1136SOL    HW1 4228   0.426   2.804   3.714
 1136SOL    HW2 4229   0.385   2.713   3.584
 1137SOL     OW 4230   1.540   2.136   1.987
 1137SOL    HW1 4231   1.479   2.061   2.010
 1137SOL    HW2 4232   1.562   2.188   2.070
 1138SOL     OW 4233   1.303   2.700   1.904
 1138SOL    HW1 4234   1.337   2.607   1.919
 1138SOL    HW2 4235   1.321   2.727   1.809
 1139SOL     OW 4236   1.068   3.195   2.711
 1139SOL    HW1 4237   1.075   3.111   2.656
 1139SOL    HW2 4238   1.130   3.264   2.675
 1140SOL     OW 4239   0.319   2.672   2.811
 1140SOL    HW1 4240   0.412   2.708   2.816
 1140SOL    HW2 4241   0.313   2.587   2.863
 1141SOL     OW 4242   0.339   2.371   2.868
 1141SOL    HW1 4243   0.287   2.288   2.851
 1141SOL    HW2 4244   0.416   2.376   2.804
 1142SOL     OW 4245   1.138   2.242   3.540
 1142SOL    HW1 4246   1.093   2.305   3.604
 1142SOL    HW2 4247   1.231   2.273   3.523
 1143SOL     OW 4248   1.160   2.069   3.339
 1143SOL    HW1 4249   1.160   2.133   3.416
 1143SOL    HW2 4250   1.188   2.117   3.256
 1144SOL     OW 4251   0.008   3.188   2.062
 1144SOL    HW1 4252  -0.085   3.209   2.031
 1144SOL    HW2 4253   0.018   3.089   2.075
 1145SOL     OW 4254   0.088   3.663   2.789
 1145SOL    HW1 4255   0.046   3.577   2.762
 1145SOL    HW2 4256   0.182   3.666   2.755
 1146SOL     OW 4257   0.504   3.430   2.772
 1146SOL    HW1 4258   0.570   3.504   2.781
 1146SOL    HW2 4259   0.548   3.351   2.730
 1147SOL     OW 4260   1.002   2.658   3.100
 1147SOL    HW1 4261   1.043   2.626   3.186
 1147SOL    HW2 4262   0.906   2.631   3.097
 1148SOL     OW 4263   0.040   2.406   2.976
 1148SOL    HW1 4264   0.125   2.373   2.935
 1148SOL    HW2 4265   0.053   2.421   3.074
 1149SOL     OW 4266   0.189   2.382   3.584
 1149SOL    HW1 4267   0.248   2.342   3.514
 1149SOL    HW2 4268   0.131   2.453   3.543
 1150SOL     OW 4269   1.369   2.812   3.522
 1150SOL    HW1 4270   1.408   2.901   3.542
 1150SOL    HW2 4271   1.379   2.792   3.425
 1151SOL     OW 4272   0.815   2.434   2.187
 1151SOL    HW1 4273   0.822   2.345   2.141
 1151SOL    HW2 4274   0.721   2.468   2.179
 1152SOL     OW 4275   1.657   2.466   3.068
 1152SOL    HW1 4276   1.619   2.397   3.130
 1152SOL    HW2 4277   1.739   2.430   3.024
 1153SOL     OW 4278   0.252   3.426   3.606
 1153SOL    HW1 4279   0.222   3.483   3.682
 1153SOL    HW2 4280   0.245   3.329   3.632
 1154SOL     OW 4281   0.671   2.326   3.131
 1154SOL    HW1 4282   0.637   2.237   3.101
 1154SOL    HW2 4283   0.697   2.380   3.051
 1155SOL     OW 4284   0.930   3.540   3.327
 1155SOL    HW1 4285   0.906   3.522   3.232
 1155SOL    HW2 4286   0.960   3.634   3.337
 1156SOL     OW 4287   0.473   2.362   2.053
 1156SOL    HW1 4288   0.534   2.442   2.057
 1156SOL    HW2 4289   0.378   2.393   2.060
 1157SOL     OW 4290   0.159   2.999   3.328
 1157SOL    HW1 4291   0.181   2.938   3.404
 1157SOL    HW2 4292   0.169   2.950   3.242
 1158SOL     OW 4293   1.347   2.921   3.096
 1158SOL    HW1 4294   1.371   2.858   3.022
 1158SOL    HW2 4295   1.257   2.961   3.078
 1159SOL     OW 4296   1.302   2.717   2.171
 1159SOL    HW1 4297   1.216   2.686   2.213
 1159SOL    HW2 4298   1.298   2.703   2.072
 1160SOL     OW 4299   1.759   3.609   3.016
 1160SOL    HW1 4300   1.820   3.639   2.943
 1160SOL    HW2 4301   1.721   3.520   2.994
 1161SOL     OW 4302   1.252   3.593   2.990
 1161SOL    HW1 4303   1.336   3.598   2.936
 1161SOL    HW2 4304   1.229   3.497   3.008
 1162SOL     OW 4305   0.083   3.120   2.884
 1162SOL    HW1 4306   0.078   3.119   2.984
 1162SOL    HW2 4307   0.000   3.079   2.846
 1163SOL     OW 4308   0.688   3.524   3.578
 1163SOL    HW1 4309   0.632   3.605   3.587
 1163SOL    HW2 4310   0.740   3.528   3.492
 1164SOL     OW 4311   1.726   1.997   2.385
 1164SOL    HW1 4312   1.799   1.980   2.318
 1164SOL    HW2 4313   1.695   1.910   2.423
 1165SOL     OW 4314   1.388   3.435   2.339
 1165SOL    HW1 4315   1.455   3.447   2.265
 1165SOL    HW2 4316   1.348   3.524   2.362
 1166SOL     OW 4317   0.130   3.656   3.713
 1166SOL    HW1 4318   0.089   3.582   3.766
 1166SOL    HW2 4319   0.194   3.707   3.771
 1167SOL     OW 4320   1.280   2.789   2.534
 1167SOL    HW1 4321   1.340   2.708   2.536
 1167SOL    HW2 4322   1.320   2.858   2.474
 1168SOL     OW 4323   0.830   3.135   3.284
 1168SOL    HW1 4324   0.825   3.168   3.379
 1168SOL    HW2 4325   0.744   3.154   3.238
 1169SOL     OW 4326   0.672   3.478   2.016
 1169SOL    HW1 4327   0.681   3.488   1.917
 1169SOL    HW2 4328   0.632   3.389   2.037
 1170SOL     OW 4329   1.650   3.582   3.256
 1170SOL    HW1 4330   1.703   3.592   3.172
 1170SOL    HW2 4331   1.623   3.672   3.290
 1171SOL     OW 4332   1.841   2.037   2.825
 1171SOL    HW1 4333   1.880   1.952   2.789
 1171SOL    HW2 4334   1.743   2.039   2.806
 1172SOL     OW 4335   0.263   2.188   2.582
 1172SOL    HW1 4336   0.184   2.239   2.548
 1172SOL    HW2 4337   0.254   2.173   2.680
 1173SOL     OW 4338   1.194   3.474   1.893
 1173SOL    HW1 4339   1.200   3.381   1.930
 1173SOL    HW2 4340   1.135   3.474   1.813
 1174SOL     OW 4341   0.822   2.864   3.234
 1174SOL    HW1 4342   0.862   2.863   3.142
 1174SOL    HW2 4343   0.832   2.956   3.274
 1175SOL     OW 4344   0.916   2.772   2.153
 1175SOL    HW1 4345   0.979   2.810   2.085
 1175SOL    HW2 4346   0.956   2.689   2.192
 1176SOL     OW 4347   1.504   3.469   1.906
 1176SOL    HW1 4348   1.412   3.506   1.913
 1176SOL    HW2 4349   1.542   3.489   1.816
 1177SOL     OW 4350   0.372   3.150   3.352
 1177SOL    HW1 4351   0.359   3.243   3.318
 1177SOL    HW2 4352   0.288   3.098   3.339
 1178SOL     OW 4353   1.614   3.154   3.151
 1178SOL    HW1 4354   1.674   3.157   3.231
 1178SOL    HW2 4355   1.539   3.218   3.164
 1179SOL     OW 4356   1.039   2.960   2.558
 1179SOL    HW1 4357   0.969   2.913   2.612
 1179SOL    HW2 4358   1.098   2.892   2.515
 1180SOL     OW 4359   1.014   2.098   2.833
 1180SOL    HW1 4360   1.006   2.062   2.740
 1180SOL    HW2 4361   1.012   2.022   2.898
 1181SOL     OW 4362   0.590   3.349   2.353
 1181SOL    HW1 4363   0.632   3.291   2.283
 1181SOL    HW2 4364   0.546   3.428   2.309
 1182SOL     OW 4365   0.255   3.210   2.152
 1182SOL    HW1 4366   0.159   3.211   2.125
 1182SOL    HW2 4367   0.267   3.263   2.236
 1183SOL     OW 4368   0.105   2.875   3.588
 1183SOL    HW1 4369   0.028   2.842   3.642
 1183SOL    HW2 4370   0.190   2.845   3.630
 1184SOL     OW 4371   0.672   2.065   3.351
 1184SOL    HW1 4372   0.762   2.049   3.311
 1184SOL    HW2 4373   0.680   2.070   3.450
 1185SOL     OW 4374   0.075   2.207   1.895
 1185SOL    HW1 4375  -0.017   2.179   1.866
 1185SOL    HW2 4376   0.106   2.284   1.839
 1186SOL     OW 4377   1.440   2.718   3.260
 1186SOL    HW1 4378   1.383   2.770   3.197
 1186SOL    HW2 4379   1.536   2.730   3.236
 1187SOL     OW 4380   0.072   2.028   2.180
 1187SOL    HW1 4381   0.055   2.111   2.126
 1187SOL    HW2 4382   0.162   1.991   2.158
 1188SOL     OW 4383   1.183   3.197   1.981
 1188SOL    HW1 4384   1.084   3.186   1.983
 1188SOL    HW2 4385   1.217   3.212   2.074
 1189SOL     OW 4386   0.613   2.704   3.293
 1189SOL    HW1 4387   0.669   2.785   3.276
 1189SOL    HW2 4388   0.672   2.624   3.296
 1190SOL     OW 4389   1.493   3.629   2.821
 1190SOL    HW1 4390   1.526   3.693   2.752
 1190SOL    HW2 4391   1.559   3.623   2.896
 1191SOL     OW 4392   0.716   2.427   3.570
 1191SOL    HW1 4393   0.735   2.492   3.644
 1191SOL    HW2 4394   0.776   2.347   3.579
 1192SOL     OW 4395   1.450   3.082   3.495
 1192SOL    HW1 4396   1.441   3.072   3.594
 1192SOL    HW2 4397   1.546   3.075   3.469
 1193SOL     OW 4398   0.390   3.603   3.422
 1193SOL    HW1 4399   0.299   3.644   3.420
 1193SOL    HW2 4400   0.383   3.509   3.454
 1194SOL     OW 4401   1.674   2.745   3.116
 1194SOL    HW1 4402   1.647   2.656   3.079
 1194SOL    HW2 4403   1.675   2.813   3.043
 1195SOL     OW 4404   1.225   2.187   2.311
 1195SOL    HW1 4405   1.290   2.113   2.300
 1195SOL    HW2 4406   1.245   2.237   2.395
 1196SOL     OW 4407   0.594   2.607   2.514
 1196SOL    HW1 4408   0.644   2.692   2.495
 1196SOL    HW2 4409   0.506   2.609   2.466
 1197SOL     OW 4410   1.777   2.204   3.504
 1197SOL    HW1 4411   1.760   2.235   3.410
 1197SOL    HW2 4412   1.693   2.167   3.542
 1198SOL     OW 4413   1.730   2.796   3.379
 1198SOL    HW1 4414   1.768   2.887   3.394
 1198SOL    HW2 4415   1.722   2.779   3.280
 1199SOL     OW 4416   0.859   3.236   1.878
 1199SOL    HW1 4417   0.813   3.251   1.966
 1199SOL    HW2 4418   0.903   3.321   1.848
 1200SOL     OW 4419   0.661   3.652   2.815
 1200SOL    HW1 4420   0.615   3.740   2.802
 1200SOL    HW2 4421   0.760   3.664   2.808
 1201SOL     OW 4422   0.859   2.818   2.723
 1201SOL    HW1 4423   0.913   2.749   2.771
 1201SOL    HW2 4424   0.827   2.887   2.789
 1202SOL     OW 4425   1.083   2.846   1.949
 1202SOL    HW1 4426   1.060   2.899   1.867
 1202SOL    HW2 4427   1.164   2.790   1.930
 1203SOL     OW 4428   1.861   3.431   2.713
 1203SOL    HW1 4429   1.790   3.419   2.643
 1203SOL    HW2 4430   1.862   3.352   2.773
 1204SOL     OW 4431   0.221   3.176   3.706
 1204SOL    HW1 4432   0.156   3.103   3.685
 1204SOL    HW2 4433   0.225   3.190   3.804
 1205SOL     OW 4434   0.079   3.102   2.515
 1205SOL    HW1 4435   0.078   3.055   2.603
 1205SOL    HW2 4436   0.161   3.074   2.464
 1206SOL     OW 4437   0.672   3.253   3.486
 1206SOL    HW1 4438   0.594   3.203   3.524
 1206SOL    HW2 4439   0.669   3.348   3.517
 1207SOL     OW 4440   1.824   2.054   3.089
 1207SOL    HW1 4441   1.820   1.964   3.133
 1207SOL    HW2 4442   1.827   2.043   2.990
 1208SOL     OW 4443   0.428   2.286   2.382
 1208SOL    HW1 4444   0.458   2.214   2.320
 1208SOL    HW2 4445   0.389   2.246   2.465
 1209SOL     OW 4446   1.705   3.349   2.966
 1209SOL    HW1 4447   1.612   3.324   2.939
 1209SOL    HW2 4448   1.731   3.299   3.048
 1210SOL     OW 4449   0.317   2.409   3.142
 1210SOL    HW1 4450   0.355   2.350   3.214
 1210SOL    HW2 4451   0.357   2.383   3.054
 1211SOL     OW 4452   0.812   3.448   2.549
 1211SOL    HW1 4453   0.844   3.458   2.455
 1211SOL    HW2 4454   0.733   3.386   2.551
 1212SOL     OW 4455   1.424   2.076   2.974
 1212SOL    HW1 4456   1.476   2.011   3.029
 1212SOL    HW2 4457   1.375   2.139   3.035
 1213SOL     OW 4458   1.001   1.896   3.016
 1213SOL    HW1 4459   0.938   1.824   2.985
 1213SOL    HW2 4460   1.094   1.860   3.016
 1214SOL     OW 4461   0.770   3.192   2.163
 1214SOL    HW1 4462   0.724   3.105   2.180
 1214SOL    HW2 4463   0.861   3.189   2.204
 1215SOL     OW 4464   0.618   3.429   3.146
 1215SOL    HW1 4465   0.613   3.511   3.203
 1215SOL    HW2 4466   0.707   3.426   3.101
 1216SOL     OW 4467   1.352   1.914   2.030
 1216SOL    HW1 4468   1.387   1.873   1.946
 1216SOL    HW2 4469   1.262   1.876   2.050
 1217SOL     OW 4470   1.300   2.315   2.553
 1217SOL    HW1 4471   1.241   2.395   2.557
 1217SOL    HW2 4472   1.315   2.280   2.646
 1218SOL     OW 4473   1.593   2.083   2.744
 1218SOL    HW1 4474   1.509   2.082   2.798
 1218SOL    HW2 4475   1.595   2.166   2.688
 1219SOL     OW 4476   0.039   2.939   2.162
 1219SOL    HW1 4477   0.138   2.928   2.153
 1219SOL    HW2 4478  -0.001   2.853   2.194
 1220SOL     OW 4479   0.875   3.508   2.199
 1220SOL    HW1 4480   0.798   3.473   2.145
 1220SOL    HW2 4481   0.843   3.579   2.261
 1221SOL     OW 4482   0.230   2.490   3.837
 1221SOL    HW1 4483   0.137   2.488   3.874
 1221SOL    HW2 4484   0.231   2.451   3.745
 1222SOL     OW 4485   0.225   2.137   4.720
 1222SOL    HW1 4486   0.260   2.120   4.812
 1222SOL    HW2 4487   0.137   2.092   4.708
 1223SOL     OW 4488   0.019   2.230   4.371
 1223SOL    HW1 4489  -0.063   2.273   4.410
 1223SOL    HW2 4490  -0.009   2.157   4.308
 1224SOL     OW 4491   0.569   3.137   4.889
 1224SOL    HW1 4492   0.476   3.130   4.852
 1224SOL    HW2 4493   0.580   3.226   4.933
 1225SOL     OW 4494   1.555   3.373   4.427
 1225SOL    HW1 4495   1.498   3.357   4.508
 1225SOL    HW2 4496   1.496   3.383   4.347
 1226SOL     OW 4497   1.135   2.565   4.441
 1226SOL    HW1 4498   1.192   2.643   4.416
 1226SOL    HW2 4499   1.075   2.591   4.517
 1227SOL     OW 4500   0.768   3.006   4.747
 1227SOL    HW1 4501   0.690   3.023   4.807
 1227SOL    HW2 4502   0.802   3.093   4.711
 1228SOL     OW 4503   0.850   2.660   5.547
 1228SOL    HW1 4504   0.846   2.736   5.612
 1228SOL    HW2 4505   0.872   2.696   5.456
 1229SOL     OW 4506   0.685   2.874   4.389
 1229SOL    HW1 4507   0.754   2.858   4.459
 1229SOL    HW2 4508   0.612   2.931   4.427
 1230SOL     OW 4509   0.686   3.023   5.527
 1230SOL    HW1 4510   0.746   3.102   5.541
 1230SOL    HW2 4511   0.600   3.054   5.486
 1231SOL     OW 4512   0.335   3.297   4.785
 1231SOL    HW1 4513   0.257   3.266   4.732
 1231SOL    HW2 4514   0.393   3.355   4.728
 1232SOL     OW 4515   1.460   3.367   5.063
 1232SOL    HW1 4516   1.484   3.461   5.089
 1232SOL    HW2 4517   1.444   3.313   5.145
 1233SOL     OW 4518   0.438   2.254   5.223
 1233SOL    HW1 4519   0.520   2.198   5.232
 1233SOL    HW2 4520   0.357   2.196   5.227
 1234SOL     OW 4521   1.603   2.309   4.461
 1234SOL    HW1 4522   1.529   2.355   4.411
 1234SOL    HW2 4523   1.654   2.377   4.514
 1235SOL     OW 4524   0.231   3.575   4.207
 1235SOL    HW1 4525   0.265   3.652   4.261
 1235SOL    HW2 4526   0.275   3.575   4.117
 1236SOL     OW 4527   1.127   3.203   5.414
 1236SOL    HW1 4528   1.174   3.203   5.502
 1236SOL    HW2 4529   1.079   3.116   5.403
 1237SOL     OW 4530   0.230   3.296   4.262
 1237SOL    HW1 4531   0.204   3.392   4.262
 1237SOL    HW2 4532   0.159   3.242   4.307
 1238SOL     OW 4533   0.240   2.953   4.610
 1238SOL    HW1 4534   0.254   2.869   4.662
 1238SOL    HW2 4535   0.185   3.017   4.665
 1239SOL     OW 4536   0.620   3.648   5.163
 1239SOL    HW1 4537   0.528   3.631   5.198
 1239SOL    HW2 4538   0.648   3.740   5.189
 1240SOL     OW 4539   0.606   2.826   3.847
 1240SOL    HW1 4540   0.613   2.910   3.793
 1240SOL    HW2 4541   0.652   2.839   3.935
 1241SOL     OW 4542   1.594   1.976   5.204
 1241SOL    HW1 4543   1.576   2.043   5.132
 1241SOL    HW2 4544   1.591   2.022   5.293
 1242SOL     OW 4545   0.122   2.505   4.287
 1242SOL    HW1 4546   0.077   2.417   4.304
 1242SOL    HW2 4547   0.121   2.559   4.371
 1243SOL     OW 4548   1.842   3.629   4.083
 1243SOL    HW1 4549   1.896   3.600   4.163
 1243SOL    HW2 4550   1.872   3.719   4.054
 1244SOL     OW 4551   0.027   3.458   3.841
 1244SOL    HW1 4552   0.008   3.362   3.862
 1244SOL    HW2 4553  -0.006   3.516   3.916
 1245SOL     OW 4554   1.689   2.784   4.336
 1245SOL    HW1 4555   1.784   2.755   4.344
 1245SOL    HW2 4556   1.681   2.849   4.261
 1246SOL     OW 4557   1.641   2.970   4.156
 1246SOL    HW1 4558   1.727   2.972   4.104
 1246SOL    HW2 4559   1.655   3.017   4.244
 1247SOL     OW 4560   0.113   2.599   5.321
 1247SOL    HW1 4561   0.201   2.586   5.366
 1247SOL    HW2 4562   0.100   2.696   5.299
 1248SOL     OW 4563   0.613   3.227   4.450
 1248SOL    HW1 4564   0.564   3.140   4.459
 1248SOL    HW2 4565   0.590   3.270   4.363
 1249SOL     OW 4566   1.293   3.090   5.147
 1249SOL    HW1 4567   1.330   3.017   5.089
 1249SOL    HW2 4568   1.345   3.095   5.232
 1250SOL     OW 4569   0.809   1.866   4.226
 1250SOL    HW1 4570   0.849   1.957   4.217
 1250SOL    HW2 4571   0.709   1.874   4.232
 1251SOL     OW 4572   0.197   2.838   4.988
 1251SOL    HW1 4573   0.286   2.793   4.974
 1251SOL    HW2 4574   0.124   2.773   4.969
 1252SOL     OW 4575   1.525   2.861   3.914
 1252SOL    HW1 4576   1.462   2.785   3.927
 1252SOL    HW2 4577   1.573   2.879   4.000
 1253SOL     OW 4578   1.187   3.654   5.340
 1253SOL    HW1 4579   1.211   3.714   5.264
 1253SOL    HW2 4580   1.194   3.559   5.310
 1254SOL     OW 4581   0.317   2.113   5.525
 1254SOL    HW1 4582   0.388   2.184   5.531
 1254SOL    HW2 4583   0.229   2.152   5.553
 1255SOL     OW 4584   1.466   3.279   4.677
 1255SOL    HW1 4585   1.407   3.285   4.757
 1255SOL    HW2 4586   1.451   3.191   4.631
 1256SOL     OW 4587   1.667   3.576   4.296
 1256SOL    HW1 4588   1.626   3.553   4.208
 1256SOL    HW2 4589   1.649   3.502   4.361
 1257SOL     OW 4590   0.598   2.591   3.994
 1257SOL    HW1 4591   0.622   2.660   3.926
 1257SOL    HW2 4592   0.520   2.624   4.048
 1258SOL     OW 4593   1.281   2.207   4.668
 1258SOL    HW1 4594   1.195   2.157   4.655
 1258SOL    HW2 4595   1.343   2.153   4.724
 1259SOL     OW 4596   1.576   3.524   4.031
 1259SOL    HW1 4597   1.665   3.570   4.034
 1259SOL    HW2 4598   1.555   3.500   3.936
 1260SOL     OW 4599   0.807   2.467   5.189
 1260SOL    HW1 4600   0.760   2.464   5.278
 1260SOL    HW2 4601   0.756   2.412   5.123
 1261SOL     OW 4602   1.394   2.331   5.398
 1261SOL    HW1 4603   1.374   2.374   5.486
 1261SOL    HW2 4604   1.472   2.269   5.407
 1262SOL     OW 4605   0.973   2.752   5.296
 1262SOL    HW1 4606   1.019   2.668   5.267
 1262SOL    HW2 4607   0.917   2.786   5.221
 1263SOL     OW 4608   0.991   2.272   4.966
 1263SOL    HW1 4609   0.914   2.306   5.020
 1263SOL    HW2 4610   0.957   2.221   4.887
 1264SOL     OW 4611   1.041   2.563   4.153
 1264SOL    HW1 4612   1.067   2.559   4.249
 1264SOL    HW2 4613   0.956   2.512   4.139
 1265SOL     OW 4614   0.076   2.673   4.513
 1265SOL    HW1 4615   0.175   2.661   4.522
 1265SOL    HW2 4616   0.052   2.768   4.534
 1266SOL     OW 4617   0.130   3.683   5.295
 1266SOL    HW1 4618   0.120   3.668   5.394
 1266SOL    HW2 4619   0.044   3.719   5.259
 1267SOL     OW 4620   0.865   2.210   3.919
 1267SOL    HW1 4621   0.924   2.273   3.870
 1267SOL    HW2 4622   0.884   2.116   3.890
 1268SOL     OW 4623   1.719   2.447   5.555
 1268SOL    HW1 4624   1.693   2.536   5.519
 1268SOL    HW2 4625   1.717   2.379   5.482
 1269SOL     OW 4626   1.362   3.006   4.269
 1269SOL    HW1 4627   1.445   2.977   4.221
 1269SOL    HW2 4628   1.313   3.073   4.213
 1270SOL     OW 4629   0.550   2.058   4.609
 1270SOL    HW1 4630   0.545   2.053   4.709
 1270SOL    HW2 4631   0.552   2.154   4.580
 1271SOL     OW 4632   1.008   3.318   4.201
 1271SOL    HW1 4633   0.962   3.390   4.149
 1271SOL    HW2 4634   1.004   3.338   4.299
 1272SOL     OW 4635   0.351   3.663   4.577
 1272SOL    HW1 4636   0.401   3.577   4.583
 1272SOL    HW2 4637   0.416   3.740   4.574
 1273SOL     OW 4638   1.795   2.928   4.597
 1273SOL    HW1 4639   1.733   2.913   4.521
 1273SOL    HW2 4640   1.743   2.939   4.682
 1274SOL     OW 4641   1.227   3.412   5.230
 1274SOL    HW1 4642   1.233   3.335   5.294
 1274SOL    HW2 4643   1.175   3.386   5.150
 1275SOL     OW 4644   0.321   2.805   3.966
 1275SOL    HW1 4645   0.403   2.844   3.924
 1275SOL    HW2 4646   0.294   2.723   3.917
 1276SOL     OW 4647   1.458   2.597   4.452
 1276SOL    HW1 4648   1.453   2.532   4.527
 1276SOL    HW2 4649   1.538   2.656   4.465
 1277SOL     OW 4650   0.461   3.128   5.451
 1277SOL    HW1 4651   0.411   3.129   5.365
 1277SOL    HW2 4652   0.398   3.110   5.527
 1278SOL     OW 4653   1.111   3.638   3.961
 1278SOL    HW1 4654   1.051   3.576   4.011
 1278SOL    HW2 4655   1.142   3.594   3.876
 1279SOL     OW 4656   0.202   2.147   5.222
 1279SOL    HW1 4657   0.122   2.207   5.209
 1279SOL    HW2 4658   0.192   2.098   5.308
 1280SOL     OW 4659   1.632   3.239   3.805
 1280SOL    HW1 4660   1.600   3.333   3.795
 1280SOL    HW2 4661   1.556   3.176   3.793
 1281SOL     OW 4662   0.464   3.605   4.047
 1281SOL    HW1 4663   0.497   3.644   4.133
 1281SOL    HW2 4664   0.540   3.598   3.982
 1282SOL     OW 4665   1.400   1.969   4.150
 1282SOL    HW1 4666   1.376   1.932   4.060
 1282SOL    HW2 4667   1.499   1.985   4.154
 1283SOL     OW 4668   0.249   3.647   4.965
 1283SOL    HW1 4669   0.306   3.582   5.015
 1283SOL    HW2 4670   0.233   3.614   4.872
 1284SOL     OW 4671   0.940   3.560   4.628
 1284SOL    HW1 4672   1.020   3.503   4.649
 1284SOL    HW2 4673   0.891   3.520   4.551
 1285SOL     OW 4674   0.382   2.562   4.204
 1285SOL    HW1 4675   0.427   2.472   4.201
 1285SOL    HW2 4676   0.288   2.551   4.237
 1286SOL     OW 4677   1.547   2.084   5.453
 1286SOL    HW1 4678   1.542   2.121   5.545
 1286SOL    HW2 4679   1.475   2.015   5.441
 1287SOL     OW 4680   0.614   1.984   3.841
 1287SOL    HW1 4681   0.712   1.962   3.848
 1287SOL    HW2 4682   0.583   1.967   3.748
 1288SOL     OW 4683   0.781   2.126   5.473
 1288SOL    HW1 4684   0.848   2.065   5.516
 1288SOL    HW2 4685   0.708   2.145   5.538
 1289SOL     OW 4686   0.888   3.376   4.919
 1289SOL    HW1 4687   0.865   3.351   4.825
 1289SOL    HW2 4688   0.949   3.307   4.958
 1290SOL     OW 4689   1.351   2.452   5.157
 1290SOL    HW1 4690   1.379   2.409   5.242
 1290SOL    HW2 4691   1.376   2.548   5.158
 1291SOL     OW 4692   0.803   3.264   4.648
 1291SOL    HW1 4693   0.893   3.278   4.606
 1291SOL    HW2 4694   0.732   3.266   4.577
 1292SOL     OW 4695   0.922   2.365   4.623
 1292SOL    HW1 4696   0.897   2.356   4.527
 1292SOL    HW2 4697   0.970   2.283   4.654
 1293SOL     OW 4698   0.539   1.926   4.236
 1293SOL    HW1 4699   0.458   1.927   4.294
 1293SOL    HW2 4700   0.542   2.009   4.181
 1294SOL     OW 4701   1.434   3.050   3.765
 1294SOL    HW1 4702   1.466   2.974   3.822
 1294SOL    HW2 4703   1.342   3.077   3.795
 1295SOL     OW 4704   0.297   1.897   3.895
 1295SOL    HW1 4705   0.346   1.981   3.874
 1295SOL    HW2 4706   0.359   1.832   3.940
 1296SOL     OW 4707   0.935   2.098   4.204
 1296SOL    HW1 4708   0.887   2.139   4.126
 1296SOL    HW2 4709   1.034   2.096   4.185
 1297SOL     OW 4710   1.076   2.545   5.188
 1297SOL    HW1 4711   0.996   2.484   5.191
 1297SOL    HW2 4712   1.157   2.492   5.164
 1298SOL     OW 4713   1.227   3.432   4.517
 1298SOL    HW1 4714   1.248   3.506   4.452
 1298SOL    HW2 4715   1.295   3.432   4.590
 1299SOL     OW 4716   0.459   3.014   4.465
 1299SOL    HW1 4717   0.388   2.987   4.530
 1299SOL    HW2 4718   0.433   2.986   4.372
 1300SOL     OW 4719   1.271   3.659   4.315
 1300SOL    HW1 4720   1.315   3.723   4.251
 1300SOL    HW2 4721   1.221   3.711   4.385
 1301SOL     OW 4722   1.032   2.411   3.740
 1301SOL    HW1 4723   0.991   2.493   3.701
 1301SOL    HW2 4724   1.096   2.437   3.813
 1302SOL     OW 4725   0.078   2.418   5.110
 1302SOL    HW1 4726   0.170   2.417   5.069
 1302SOL    HW2 4727   0.072   2.492   5.177
 1303SOL     OW 4728   0.561   2.084   4.871
 1303SOL    HW1 4729   0.599   2.000   4.908
 1303SOL    HW2 4730   0.473   2.103   4.915
 1304SOL     OW 4731   0.866   2.316   4.366
 1304SOL    HW1 4732   0.834   2.388   4.304
 1304SOL    HW2 4733   0.890   2.235   4.313
 1305SOL     OW 4734   1.017   1.901   4.477
 1305SOL    HW1 4735   0.945   1.906   4.408
 1305SOL    HW2 4736   0.993   1.832   4.546
 1306SOL     OW 4737   1.429   3.035   4.591
 1306SOL    HW1 4738   1.374   2.951   4.584
 1306SOL    HW2 4739   1.455   3.064   4.499
 1307SOL     OW 4740   1.466   2.452   4.716
 1307SOL    HW1 4741   1.436   2.357   4.723
 1307SOL    HW2 4742   1.539   2.468   4.782
 1308SOL     OW 4743   0.488   3.247   3.898
 1308SOL    HW1 4744   0.401   3.232   3.945
 1308SOL    HW2 4745   0.471   3.273   3.803
 1309SOL     OW 4746   1.664   3.142   4.381
 1309SOL    HW1 4747   1.763   3.150   4.395
 1309SOL    HW2 4748   1.619   3.226   4.412
 1310SOL     OW 4749   1.390   2.437   3.802
 1310SOL    HW1 4750   1.336   2.416   3.883
 1310SOL    HW2 4751   1.481   2.396   3.811
 1311SOL     OW 4752   0.527   2.118   4.052
 1311SOL    HW1 4753   0.554   2.059   3.977
 1311SOL    HW2 4754   0.527   2.213   4.021
 1312SOL     OW 4755   1.754   3.085   5.312
 1312SOL    HW1 4756   1.845   3.046   5.299
 1312SOL    HW2 4757   1.762   3.181   5.336
 1313SOL     OW 4758   1.064   3.209   5.064
 1313SOL    HW1 4759   0.984   3.186   5.119
 1313SOL    HW2 4760   1.147   3.183   5.113
 1314SOL     OW 4761   1.592   3.491   5.349
 1314SOL    HW1 4762   1.619   3.525   5.259
 1314SOL    HW2 4763   1.671   3.453   5.395
 1315SOL     OW 4764   1.111   3.057   4.824
 1315SOL    HW1 4765   1.071   3.101   4.905
 1315SOL    HW2 4766   1.070   3.094   4.741
 1316SOL     OW 4767   1.638   2.961   4.803
 1316SOL    HW1 4768   1.643   3.042   4.862
 1316SOL    HW2 4769   1.552   2.963   4.752
 1317SOL     OW 4770   0.915   1.951   5.126
 1317SOL    HW1 4771   0.940   1.931   5.031
 1317SOL    HW2 4772   0.987   2.007   5.168
 1318SOL     OW 4773   0.980   2.978   5.443
 1318SOL    HW1 4774   0.881   2.984   5.453
 1318SOL    HW2 4775   1.003   2.898   5.387
 1319SOL     OW 4776   0.705   2.912   4.092
 1319SOL    HW1 4777   0.691   2.919   4.191
 1319SOL    HW2 4778   0.789   2.861   4.074
 1320SOL     OW 4779   0.410   2.675   4.975
 1320SOL    HW1 4780   0.496   2.687   5.025
 1320SOL    HW2 4781   0.368   2.588   5.002
 1321SOL     OW 4782   1.274   2.248   4.986
 1321SOL    HW1 4783   1.295   2.322   5.050
 1321SOL    HW2 4784   1.185   2.265   4.943
 1322SOL     OW 4785   0.064   3.426   5.055
 1322SOL    HW1 4786   0.018   3.508   5.021
 1322SOL    HW2 4787   0.162   3.445   5.064
 1323SOL     OW 4788   0.367   2.962   4.225
 1323SOL    HW1 4789   0.360   3.045   4.169
 1323SOL    HW2 4790   0.371   2.882   4.165
 1324SOL     OW 4791   0.566   2.399   4.589
 1324SOL    HW1 4792   0.578   2.465   4.515
 1324SOL    HW2 4793   0.612   2.433   4.672
 1325SOL     OW 4794   1.252   3.210   4.112
 1325SOL    HW1 4795   1.302   3.287   4.152
 1325SOL    HW2 4796   1.157   3.212   4.144
 1326SOL     OW 4797   1.272   3.307   4.866
 1326SOL    HW1 4798   1.319   3.320   4.953
 1326SOL    HW2 4799   1.206   3.233   4.875
 1327SOL     OW 4800   1.582   2.501   4.196
 1327SOL    HW1 4801   1.551   2.562   4.269
 1327SOL    HW2 4802   1.632   2.553   4.127
 1328SOL     OW 4803   0.354   3.372   5.053
 1328SOL    HW1 4804   0.333   3.328   4.966
 1328SOL    HW2 4805   0.451   3.398   5.056
 1329SOL     OW 4806   0.402   2.613   5.322
 1329SOL    HW1 4807   0.470   2.668   5.275
 1329SOL    HW2 4808   0.442   2.525   5.349
 1330SOL     OW 4809   1.587   2.641   5.394
 1330SOL    HW1 4810   1.495   2.679   5.389
 1330SOL    HW2 4811   1.647   2.688   5.329
 1331SOL     OW 4812   1.013   1.967   5.494
 1331SOL    HW1 4813   1.019   2.052   5.442
 1331SOL    HW2 4814   1.045   1.891   5.437
 1332SOL     OW 4815   0.504   1.912   5.464
 1332SOL    HW1 4816   0.462   1.855   5.394
 1332SOL    HW2 4817   0.438   1.981   5.496
 1333SOL     OW 4818   0.573   2.732   4.753
 1333SOL    HW1 4819   0.617   2.821   4.744
 1333SOL    HW2 4820   0.510   2.732   4.830
 1334SOL     OW 4821   1.360   2.724   4.769
 1334SOL    HW1 4822   1.285   2.724   4.703
 1334SOL    HW2 4823   1.397   2.632   4.778
 1335SOL     OW 4824   1.209   2.387   3.999
 1335SOL    HW1 4825   1.222   2.303   4.053
 1335SOL    HW2 4826   1.180   2.461   4.059
 1336SOL     OW 4827   0.307   2.075   4.955
 1336SOL    HW1 4828   0.284   2.112   5.045
 1336SOL    HW2 4829   0.277   1.980   4.949
 1337SOL     OW 4830   0.037   3.172   5.006
 1337SOL    HW1 4831   0.090   3.123   5.074
 1337SOL    HW2 4832   0.059   3.270   5.011
 1338SOL     OW 4833   0.732   2.496   4.788
 1338SOL    HW1 4834   0.791   2.470   4.712
 1338SOL    HW2 4835   0.704   2.592   4.777
 1339SOL     OW 4836   1.728   2.797   5.578
 1339SOL    HW1 4837   1.682   2.790   5.489
 1339SOL    HW2 4838   1.666   2.841   5.644
 1340SOL     OW 4839   0.307   1.925   4.342
 1340SOL    HW1 4840   0.296   2.019   4.375
 1340SOL    HW2 4841   0.302   1.862   4.419
 1341SOL     OW 4842   1.622   2.229   4.098
 1341SOL    HW1 4843   1.624   2.153   4.162
 1341SOL    HW2 4844   1.574   2.306   4.138
 1342SOL     OW 4845   1.023   2.628   4.690
 1342SOL    HW1 4846   1.038   2.649   4.786
 1342SOL    HW2 4847   0.993   2.533   4.681
 1343SOL     OW 4848   0.980   3.435   5.424
 1343SOL    HW1 4849   0.960   3.479   5.336
 1343SOL    HW2 4850   1.019   3.344   5.408
 1344SOL     OW 4851   1.859   3.380   5.329
 1344SOL    HW1 4852   1.873   3.407   5.234
 1344SOL    HW2 4853   1.942   3.402   5.382
 1345SOL     OW 4854   0.350   2.760   5.528
 1345SOL    HW1 4855   0.426   2.804   5.576
 1345SOL    HW2 4856   0.385   2.713   5.446
 1346SOL     OW 4857   1.540   2.136   3.849
 1346SOL    HW1 4858   1.479   2.061   3.872
 1346SOL    HW2 4859   1.562   2.188   3.932
 1347SOL     OW 4860   1.303   2.700   3.766
 1347SOL    HW1 4861   1.337   2.607   3.781
 1347SOL    HW2 4862   1.321   2.727   3.671
 1348SOL     OW 4863   1.068   3.195   4.573
 1348SOL    HW1 4864   1.075   3.111   4.518
 1348SOL    HW2 4865   1.130   3.264   4.537
 1349SOL     OW 4866   0.319   2.672   4.673
 1349SOL    HW1 4867   0.412   2.708   4.678
 1349SOL    HW2 4868   0.313   2.587   4.725
 1350SOL     OW 4869   0.339   2.371   4.730
 1350SOL    HW1 4870   0.287   2.288   4.713
 1350SOL    HW2 4871   0.416   2.376   4.666
 1351SOL     OW 4872   1.138   2.242   5.402
 1351SOL    HW1 4873   1.093   2.305   5.466
 1351SOL    HW2 4874   1.231   2.273   5.385
 1352SOL     OW 4875   1.160   2.069   5.201
 1352SOL    HW1 4876   1.160   2.133   5.278
 1352SOL    HW2 4877   1.188   2.117   5.118
 1353SOL     OW 4878   0.008   3.188   3.924
 1353SOL    HW1 4879  -0.085   3.209   3.893
 1353SOL    HW2 4880   0.018   3.089   3.937
 1354SOL     OW 4881   0.088   3.663   4.651
 1354SOL    HW1 4882   0.046   3.577   4.624
 1354SOL    HW2 4883   0.182   3.666   4.617
 1355SOL     OW 4884   0.504   3.430   4.634
 1355SOL    HW1 4885   0.570   3.504   4.643
 1355SOL    HW2 4886   0.548   3.351   4.592
 1356SOL     OW 4887   1.002   2.658   4.962
 1356SOL    HW1 4888   1.043   2.626   5.048
 1356SOL    HW2 4889   0.906   2.631   4.959
 1357SOL     OW 4890   0.040   2.406   4.838
 1357SOL    HW1 4891   0.125   2.373   4.797
 1357SOL    HW2 4892   0.053   2.421   4.936
 1358SOL     OW 4893   0.189   2.382   5.446
 1358SOL    HW1 4894   0.248   2.342   5.376
 1358SOL    HW2 4895   0.131   2.453   5.405
 1359SOL     OW 4896   1.369   2.812   5.384
 1359SOL    HW1 4897   1.408   2.901   5.404
 1359SOL    HW2 4898   1.379   2.792   5.287
 1360SOL     OW 4899   0.815   2.434   4.049
 1360SOL    HW1 4900   0.822   2.345   4.003
 1360SOL    HW2 4901   0.721   2.468   4.041
 1361SOL     OW 4902   1.657   2.466   4.930
 1361SOL    HW1 4903   1.619   2.397   4.992
 1361SOL    HW2 4904   1.739   2.430   4.886
 1362SOL     OW 4905   0.252   3.426   5.468
 1362SOL    HW1 4906   0.222   3.483   5.544
 1362SOL    HW2 4907   0.245   3.329   5.494
 1363SOL     OW 4908   0.671   2.326   4.993
 1363SOL    HW1 4909   0.637   2.237   4.963
 1363SOL    HW2 4910   0.697   2.380   4.913
 1364SOL     OW 4911   0.930   3.540   5.189
 1364SOL    HW1 4912   0.906   3.522   5.094
 1364SOL    HW2 4913   0.960   3.634   5.199
 1365SOL     OW 4914   0.473   2.362   3.915
 1365SOL    HW1 4915   0.534   2.442   3.919
 1365SOL    HW2 4916   0.378   2.393   3.922
 1366SOL     OW 4917   0.159   2.999   5.190
 1366SOL    HW1 4918   0.181   2.938   5.266
 1366SOL    HW2 4919   0.169   2.950   5.104
 1367SOL     OW 4920   1.347   2.921   4.958
 1367SOL    HW1 4921   1.371   2.858   4.884
 1367SOL    HW2 4922   1.257   2.961   4.940
 1368SOL     OW 4923   1.302   2.717   4.033
 1368SOL    HW1 4924   1.216   2.686   4.075
 1368SOL    HW2 4925   1.298   2.703   3.934
 1369SOL     OW 4926   1.759   3.609   4.878
 1369SOL    HW1 4927   1.820   3.639   4.805
 1369SOL    HW2 4928   1.721   3.520   4.856
 1370SOL     OW 4929   1.252   3.593   4.852
 1370SOL    HW1 4930   1.336   3.598   4.798
 1370SOL    HW2 4931   1.229   3.497   4.870
 1371SOL     OW 4932   0.083   3.120   4.746
 1371SOL    HW1 4933   0.078   3.119   4.846
 1371SOL    HW2 4934   0.000   3.079   4.708
 1372SOL     OW 4935   0.688   3.524   5.440
 1372SOL    HW1 4936   0.632   3.605   5.449
 1372SOL    HW2 4937   0.740   3.528   5.354
 1373SOL     OW 4938   1.726   1.997   4.247
 1373SOL    HW1 4939   1.799   1.980   4.180
 1373SOL    HW2 4940   1.695   1.910   4.285
 1374SOL     OW 4941   1.388   3.435   4.201
 1374SOL    HW1 4942   1.455   3.447   4.127
 1374SOL    HW2 4943   1.348   3.524   4.224
 1375SOL     OW 4944   0.130   3.656   5.575
 1375SOL    HW1 4945   0.089   3.582   5.628
 1375SOL    HW2 4946   0.194   3.707   5.633
 1376SOL     OW 4947   1.280   2.789   4.396
 1376SOL    HW1 4948   1.340   2.708   4.398
 1376SOL    HW2 4949   1.320   2.858   4.336
 1377SOL     OW 4950   0.830   3.135   5.146
 1377SOL    HW1 4951   0.825   3.168   5.241
 1377SOL    HW2 4952   0.744   3.154   5.100
 1378SOL     OW 4953   0.672   3.478   3.878
 1378SOL    HW1 4954   0.681   3.488   3.779
 1378SOL    HW2 4955   0.632   3.389   3.899
 1379SOL     OW 4956   1.650   3.582   5.118
 1379SOL    HW1 4957   1.703   3.592   5.034
 1379SOL    HW2 4958   1.623   3.672   5.152
 1380SOL     OW 4959   1.841   2.037   4.687
 1380SOL    HW1 4960   1.880   1.952   4.651
 1380SOL    HW2 4961   1.743   2.039   4.668
 1381SOL     OW 4962   0.263   2.188   4.444
 1381SOL    HW1 4963   0.184   2.239   4.410
 1381SOL    HW2 4964   0.254   2.173   4.542
 1382SOL     OW 4965   1.194   3.474   3.755
 1382SOL    HW1 4966   1.200   3.381   3.792
 1382SOL    HW2 4967   1.135   3.474   3.675
 1383SOL     OW 4968   0.822   2.864   5.096
 1383SOL    HW1 4969   0.862   2.863   5.004
 1383SOL    HW2 4970   0.832   2.956   5.136
 1384SOL     OW 4971   0.916   2.772   4.015
 1384SOL    HW1 4972   0.979   2.810   3.947
 1384SOL    HW2 4973   0.956   2.689   4.054
 1385SOL     OW 4974   1.504   3.469   3.768
 1385SOL    HW1 4975   1.412   3.506   3.775
 1385SOL    HW2 4976   1.542   3.489   3.678
 1386SOL     OW 4977   0.372   3.150   5.214
 1386SOL    HW1 4978   0.359   3.243   5.180
 1386SOL    HW2 4979   0.288   3.098   5.201
 1387SOL     OW 4980   1.614   3.154   5.013
 1387SOL    HW1 4981   1.674   3.157   5.093
 1387SOL    HW2 4982   1.539   3.218   5.026
 1388SOL     OW 4983   1.039   2.960   4.420
 1388SOL    HW1 4984   0.969   2.913   4.474
 1388SOL    HW2 4985   1.098   2.892   4.377
 1389SOL     OW 4986   1.014   2.098   4.695
 1389SOL    HW1 4987   1.006   2.062   4.602
 1389SOL    HW2 4988   1.012   2.022   4.760
 1390SOL     OW 4989   0.590   3.349   4.215
 1390SOL    HW1 4990   0.632   3.291   4.145
 1390SOL    HW2 4991   0.546   3.428   4.171
 1391SOL     OW 4992   1.709   2.247   5.105
 1391SOL    HW1 4993   1.782   2.316   5.109
 1391SOL    HW2 4994   1.737   2.172   5.046
 1392SOL     OW 4995   0.255   3.210   4.014
 1392SOL    HW1 4996   0.159   3.211   3.987
 1392SOL    HW2 4997   0.267   3.263   4.098
 1393SOL     OW 4998   0.105   2.875   5.450
 1393SOL    HW1 4999   0.028   2.842   5.504
 1393SOL    HW2 5000   0.190   2.845   5.492
 1394SOL     OW 5001   0.672   2.065   5.213
 1394SOL    HW1 5002   0.762   2.049   5.173
 1394SOL    HW2 5003   0.680   2.070   5.312
 1395SOL     OW 5004   0.075   2.207   3.757
 1395SOL    HW1 5005  -0.017   2.179   3.728
 1395SOL    HW2 5006   0.106   2.284   3.701
 1396SOL     OW 5007   1.440   2.718   5.122
 1396SOL    HW1 5008   1.383   2.770   5.059
 1396SOL    HW2 5009   1.536   2.730   5.098
 1397SOL     OW 5010   0.072   2.028   4.042
 1397SOL    HW1 5011   0.055   2.111   3.988
 1397SOL    HW2 5012   0.162   1.991   4.020
 1398SOL     OW 5013   1.183   3.197   3.843
 1398SOL    HW1 5014   1.084   3.186   3.845
 1398SOL    HW2 5015   1.217   3.212   3.936
 1399SOL     OW 5016   0.613   2.704   5.155
 1399SOL    HW1 5017   0.669   2.785   5.138
 1399SOL    HW2 5018   0.672   2.624   5.158
 1400SOL     OW 5019   1.493   3.629   4.683
 1400SOL    HW1 5020   1.526   3.693   4.614
 1400SOL    HW2 5021   1.559   3.623   4.758
 1401SOL     OW 5022   0.716   2.427   5.432
 1401SOL    HW1 5023   0.735   2.492   5.506
 1401SOL    HW2 5024   0.776   2.347   5.441
 1402SOL     OW 5025   1.450   3.082   5.357
 1402SOL    HW1 5026   1.441   3.072   5.456
 1402SOL    HW2 5027   1.546   3.075   5.331
 1403SOL     OW 5028   0.390   3.603   5.284
 1403SOL    HW1 5029   0.299   3.644   5.282
 1403SOL    HW2 5030   0.383   3.509   5.316
 1404SOL     OW 5031   1.674   2.745   4.978
 1404SOL    HW1 5032   1.647   2.656   4.941
 1404SOL    HW2 5033   1.675   2.813   4.905
 1405SOL     OW 5034   1.225   2.187   4.173
 1405SOL    HW1 5035   1.290   2.113   4.162
 1405SOL    HW2 5036   1.245   2.237   4.257
 1406SOL     OW 5037   0.594   2.607   4.376
 1406SOL    HW1 5038   0.644   2.692   4.357
 1406SOL    HW2 5039   0.506   2.609   4.328
 1407SOL     OW 5040   1.777   2.204   5.366
 1407SOL    HW1 5041   1.760   2.235   5.272
 1407SOL    HW2 5042   1.693   2.167   5.404
 1408SOL     OW 5043   1.730   2.796   5.241
 1408SOL    HW1 5044   1.768   2.887   5.256
 1408SOL    HW2 5045   1.722   2.779   5.142
 1409SOL     OW 5046   0.859   3.236   3.740
 1409SOL    HW1 5047   0.813   3.251   3.828
 1409SOL    HW2 5048   0.903   3.321   3.710
 1410SOL     OW 5049   0.661   3.652   4.677
 1410SOL    HW1 5050   0.615   3.740   4.664
 1410SOL    HW2 5051   0.760   3.664   4.670
 1411SOL     OW 5052   0.859   2.818   4.585
 1411SOL    HW1 5053   0.913   2.749   4.633
 1411SOL    HW2 5054   0.827   2.887   4.651
 1412SOL     OW 5055   1.083   2.846   3.811
 1412SOL    HW1 5056   1.060   2.899   3.729
 1412SOL    HW2 5057   1.164   2.790   3.792
 1413SOL     OW 5058   0.221   3.176   5.568
 1413SOL    HW1 5059   0.156   3.103   5.547
 1413SOL    HW2 5060   0.225   3.190   5.666
 1414SOL     OW 5061   0.079   3.102   4.377
 1414SOL    HW1 5062   0.078   3.055   4.465
 1414SOL    HW2 5063   0.161   3.074   4.326
 1415SOL     OW 5064   0.672   3.253   5.348
 1415SOL    HW1 5065   0.594   3.203   5.386
 1415SOL    HW2 5066   0.669   3.348   5.379
 1416SOL     OW 5067   1.824   2.054   4.951
 1416SOL    HW1 5068   1.820   1.964   4.995
 1416SOL    HW2 5069   1.827   2.043   4.852
 1417SOL     OW 5070   0.428   2.286   4.244
 1417SOL    HW1 5071   0.458   2.214   4.182
 1417SOL    HW2 5072   0.389   2.246   4.327
 1418SOL     OW 5073   1.705   3.349   4.828
 1418SOL    HW1 5074   1.612   3.324   4.801
 1418SOL    HW2 5075   1.731   3.299   4.910
 1419SOL     OW 5076   0.317   2.409   5.004
 1419SOL    HW1 5077   0.355   2.350   5.076
 1419SOL    HW2 5078   0.357   2.383   4.916
 1420SOL     OW 5079   0.812   3.448   4.411
 1420SOL    HW1 5080   0.844   3.458   4.317
 1420SOL    HW2 5081   0.733   3.386   4.413
 1421SOL     OW 5082   1.424   2.076   4.836
 1421SOL    HW1 5083   1.476   2.011   4.891
 1421SOL    HW2 5084   1.375   2.139   4.897
 1422SOL     OW 5085   1.001   1.896   4.878
 1422SOL    HW1 5086   0.938   1.824   4.847
 1422SOL    HW2 5087   1.094   1.860   4.878
 1423SOL     OW 5088   0.770   3.192   4.025
 1423SOL    HW1 5089   0.724   3.105   4.042
 1423SOL    HW2 5090   0.861   3.189   4.066
 1424SOL     OW 5091   0.618   3.429   5.008
 1424SOL    HW1 5092   0.613   3.511   5.065
 1424SOL    HW2 5093   0.707   3.426   4.963
 1425SOL     OW 5094   1.352   1.914   3.892
 1425SOL    HW1 5095   1.387   1.873   3.808
 1425SOL    HW2 5096   1.262   1.876   3.912
 1426SOL     OW 5097   1.300   2.315   4.415
 1426SOL    HW1 5098   1.241   2.395   4.419
 1426SOL    HW2 5099   1.315   2.280   4.508
 1427SOL     OW 5100   1.593   2.083   4.606
 1427SOL    HW1 5101   1.509   2.082   4.660
 1427SOL    HW2 5102   1.595   2.166   4.550
 1428SOL     OW 5103   0.039   2.939   4.024
 1428SOL    HW1 5104   0.138   2.928   4.015
 1428SOL    HW2 5105  -0.001   2.853   4.056
 1429SOL     OW 5106   0.875   3.508   4.061
 1429SOL    HW1 5107   0.798   3.473   4.007
 1429SOL    HW2 5108   0.843   3.579   4.123
 1430SOL     OW 5109   0.230   2.490   5.699
 1430SOL    HW1 5110   0.137   2.488   5.736
 1430SOL    HW2 5111   0.231   2.451   5.607
 1431SOL     OW 5112   0.225   2.137   6.582
 1431SOL    HW1 5113   0.260   2.120   6.674
 1431SOL    HW2 5114   0.137   2.092   6.570
 1432SOL     OW 5115   0.019   2.230   6.233
 1432SOL    HW1 5116  -0.063   2.273   6.272
 1432SOL    HW2 5117  -0.009   2.157   6.170
 1433SOL     OW 5118   0.569   3.137   6.751
 1433SOL    HW1 5119   0.476   3.130   6.714
 1433SOL    HW2 5120   0.580   3.226   6.795
 1434SOL     OW 5121   1.555   3.373   6.289
 1434SOL    HW1 5122   1.498   3.357   6.370
 1434SOL    HW2 5123   1.496   3.383   6.209
 1435SOL     OW 5124   1.135   2.565   6.303
 1435SOL    HW1 5125   1.192   2.643   6.278
 1435SOL    HW2 5126   1.075   2.591   6.379
 1436SOL     OW 5127   1.755   2.469   5.817
 1436SOL    HW1 5128   1.743   2.456   5.718
 1436SOL    HW2 5129   1.725   2.388   5.866
 1437SOL     OW 5130   0.768   3.006   6.609
 1437SOL    HW1 5131   0.690   3.023   6.669
 1437SOL    HW2 5132   0.802   3.093   6.573
 1438SOL     OW 5133   0.685   2.874   6.251
 1438SOL    HW1 5134   0.754   2.858   6.321
 1438SOL    HW2 5135   0.612   2.931   6.289
 1439SOL     OW 5136   0.335   3.297   6.647
 1439SOL    HW1 5137   0.257   3.266   6.594
 1439SOL    HW2 5138   0.393   3.355   6.590
 1440SOL     OW 5139   1.603   2.309   6.323
 1440SOL    HW1 5140   1.529   2.355   6.273
 1440SOL    HW2 5141   1.654   2.377   6.376
 1441SOL     OW 5142   0.231   3.575   6.069
 1441SOL    HW1 5143   0.265   3.652   6.123
 1441SOL    HW2 5144   0.275   3.575   5.979
 1442SOL     OW 5145   0.230   3.296   6.124
 1442SOL    HW1 5146   0.204   3.392   6.124
 1442SOL    HW2 5147   0.159   3.242   6.169
 1443SOL     OW 5148   0.240   2.953   6.472
 1443SOL    HW1 5149   0.254   2.869   6.524
 1443SOL    HW2 5150   0.185   3.017   6.527
 1444SOL     OW 5151   0.620   3.648   7.025
 1444SOL    HW1 5152   0.528   3.631   7.060
 1444SOL    HW2 5153   0.648   3.740   7.051
 1445SOL     OW 5154   0.606   2.826   5.709
 1445SOL    HW1 5155   0.613   2.910   5.655
 1445SOL    HW2 5156   0.652   2.839   5.797
 1446SOL     OW 5157   0.122   2.505   6.149
 1446SOL    HW1 5158   0.077   2.417   6.166
 1446SOL    HW2 5159   0.121   2.559   6.233
 1447SOL     OW 5160   1.842   3.629   5.945
 1447SOL    HW1 5161   1.896   3.600   6.025
 1447SOL    HW2 5162   1.872   3.719   5.916
 1448SOL     OW 5163   0.027   3.458   5.703
 1448SOL    HW1 5164   0.008   3.362   5.724
 1448SOL    HW2 5165  -0.006   3.516   5.778
 1449SOL     OW 5166   1.689   2.784   6.198
 1449SOL    HW1 5167   1.784   2.755   6.206
 1449SOL    HW2 5168   1.681   2.849   6.123
 1450SOL     OW 5169   1.641   2.970   6.018
 1450SOL    HW1 5170   1.727   2.972   5.966
 1450SOL    HW2 5171   1.655   3.017   6.106
 1451SOL     OW 5172   0.613   3.227   6.312
 1451SOL    HW1 5173   0.564   3.140   6.321
 1451SOL    HW2 5174   0.590   3.270   6.225
 1452SOL     OW 5175   0.809   1.866   6.088
 1452SOL    HW1 5176   0.849   1.957   6.079
 1452SOL    HW2 5177   0.709   1.874   6.094
 1453SOL     OW 5178   0.197   2.838   6.850
 1453SOL    HW1 5179   0.286   2.793   6.836
 1453SOL    HW2 5180   0.124   2.773   6.831
 1454SOL     OW 5181   1.525   2.861   5.776
 1454SOL    HW1 5182   1.462   2.785   5.789
 1454SOL    HW2 5183   1.573   2.879   5.862
 1455SOL     OW 5184   1.466   3.279   6.539
 1455SOL    HW1 5185   1.407   3.285   6.619
 1455SOL    HW2 5186   1.451   3.191   6.493
 1456SOL     OW 5187   1.667   3.576   6.158
 1456SOL    HW1 5188   1.626   3.553   6.070
 1456SOL    HW2 5189   1.649   3.502   6.223
 1457SOL     OW 5190   0.598   2.591   5.856
 1457SOL    HW1 5191   0.622   2.660   5.788
 1457SOL    HW2 5192   0.520   2.624   5.910
 1458SOL     OW 5193   1.281   2.207   6.530
 1458SOL    HW1 5194   1.195   2.157   6.517
 1458SOL    HW2 5195   1.343   2.153   6.586
 1459SOL     OW 5196   1.576   3.524   5.893
 1459SOL    HW1 5197   1.665   3.570   5.896
 1459SOL    HW2 5198   1.555   3.500   5.798
 1460SOL     OW 5199   0.807   2.467   7.051
 1460SOL    HW1 5200   0.760   2.464   7.140
 1460SOL    HW2 5201   0.756   2.412   6.985
 1461SOL     OW 5202   0.991   2.272   6.828
 1461SOL    HW1 5203   0.914   2.306   6.882
 1461SOL    HW2 5204   0.957   2.221   6.749
 1462SOL     OW 5205   1.041   2.563   6.015
 1462SOL    HW1 5206   1.067   2.559   6.111
 1462SOL    HW2 5207   0.956   2.512   6.001
 1463SOL     OW 5208   0.076   2.673   6.375
 1463SOL    HW1 5209   0.175   2.661   6.384
 1463SOL    HW2 5210   0.052   2.768   6.396
 1464SOL     OW 5211   0.130   3.683   7.157
 1464SOL    HW1 5212   0.120   3.668   7.256
 1464SOL    HW2 5213   0.044   3.719   7.121
 1465SOL     OW 5214   0.865   2.210   5.781
 1465SOL    HW1 5215   0.924   2.273   5.732
 1465SOL    HW2 5216   0.884   2.116   5.752
 1466SOL     OW 5217   1.362   3.006   6.131
 1466SOL    HW1 5218   1.445   2.977   6.083
 1466SOL    HW2 5219   1.313   3.073   6.075
 1467SOL     OW 5220   0.550   2.058   6.471
 1467SOL    HW1 5221   0.545   2.053   6.571
 1467SOL    HW2 5222   0.552   2.154   6.442
 1468SOL     OW 5223   1.008   3.318   6.063
 1468SOL    HW1 5224   0.962   3.390   6.011
 1468SOL    HW2 5225   1.004   3.338   6.161
 1469SOL     OW 5226   0.351   3.663   6.439
 1469SOL    HW1 5227   0.401   3.577   6.445
 1469SOL    HW2 5228   0.416   3.740   6.436
 1470SOL     OW 5229   1.795   2.928   6.459
 1470SOL    HW1 5230   1.733   2.913   6.383
 1470SOL    HW2 5231   1.743   2.939   6.544
 1471SOL     OW 5232   0.321   2.805   5.828
 1471SOL    HW1 5233   0.403   2.844   5.786
 1471SOL    HW2 5234   0.294   2.723   5.779
 1472SOL     OW 5235   1.458   2.597   6.314
 1472SOL    HW1 5236   1.453   2.532   6.389
 1472SOL    HW2 5237   1.538   2.656   6.327
 1473SOL     OW 5238   1.111   3.638   5.823
 1473SOL    HW1 5239   1.051   3.576   5.873
 1473SOL    HW2 5240   1.142   3.594   5.738
 1474SOL     OW 5241   1.632   3.239   5.667
 1474SOL    HW1 5242   1.600   3.333   5.657
 1474SOL    HW2 5243   1.556   3.176   5.655
 1475SOL     OW 5244   0.464   3.605   5.909
 1475SOL    HW1 5245   0.497   3.644   5.995
 1475SOL    HW2 5246   0.540   3.598   5.844
 1476SOL     OW 5247   1.400   1.969   6.012
 1476SOL    HW1 5248   1.376   1.932   5.922
 1476SOL    HW2 5249   1.499   1.985   6.016
 1477SOL     OW 5250   0.249   3.647   6.827
 1477SOL    HW1 5251   0.306   3.582   6.877
 1477SOL    HW2 5252   0.233   3.614   6.734
 1478SOL     OW 5253   0.940   3.560   6.490
 1478SOL    HW1 5254   1.020   3.503   6.511
 1478SOL    HW2 5255   0.891   3.520   6.413
 1479SOL     OW 5256   0.382   2.562   6.066
 1479SOL    HW1 5257   0.427   2.472   6.063
 1479SOL    HW2 5258   0.288   2.551   6.099
 1480SOL     OW 5259   0.614   1.984   5.703
 1480SOL    HW1 5260   0.712   1.962   5.710
 1480SOL    HW2 5261   0.583   1.967   5.610
 1481SOL     OW 5262   0.888   3.376   6.781
 1481SOL    HW1 5263   0.865   3.351   6.687
 1481SOL    HW2 5264   0.949   3.307   6.820
 1482SOL     OW 5265   0.803   3.264   6.510
 1482SOL    HW1 5266   0.893   3.278   6.468
 1482SOL    HW2 5267   0.732   3.266   6.439
 1483SOL     OW 5268   0.922   2.365   6.485
 1483SOL    HW1 5269   0.897   2.356   6.389
 1483SOL    HW2 5270   0.970   2.283   6.516
 1484SOL     OW 5271   0.539   1.926   6.098
 1484SOL    HW1 5272   0.458   1.927   6.156
 1484SOL    HW2 5273   0.542   2.009   6.043
 1485SOL     OW 5274   1.434   3.050   5.627
 1485SOL    HW1 5275   1.466   2.974   5.684
 1485SOL    HW2 5276   1.342   3.077   5.657
 1486SOL     OW 5277   0.297   1.897   5.757
 1486SOL    HW1 5278   0.346   1.981   5.736
 1486SOL    HW2 5279   0.359   1.832   5.802
 1487SOL     OW 5280   0.935   2.098   6.066
 1487SOL    HW1 5281   0.887   2.139   5.988
 1487SOL    HW2 5282   1.034   2.096   6.047
 1488SOL     OW 5283   1.227   3.432   6.379
 1488SOL    HW1 5284   1.248   3.506   6.314
 1488SOL    HW2 5285   1.295   3.432   6.452
 1489SOL     OW 5286   0.459   3.014   6.327
 1489SOL    HW1 5287   0.388   2.987   6.392
 1489SOL    HW2 5288   0.433   2.986   6.234
 1490SOL     OW 5289   1.271   3.659   6.177
 1490SOL    HW1 5290   1.315   3.723   6.113
 1490SOL    HW2 5291   1.221   3.711   6.247
 1491SOL     OW 5292   1.032   2.411   5.602
 1491SOL    HW1 5293   0.991   2.493   5.563
 1491SOL    HW2 5294   1.096   2.437   5.675
 1492SOL     OW 5295   0.561   2.084   6.733
 1492SOL    HW1 5296   0.599   2.000   6.770
 1492SOL    HW2 5297   0.473   2.103   6.777
 1493SOL     OW 5298   0.866   2.316   6.228
 1493SOL    HW1 5299   0.834   2.388   6.166
 1493SOL    HW2 5300   0.890   2.235   6.175
 1494SOL     OW 5301   1.017   1.901   6.339
 1494SOL    HW1 5302   0.945   1.906   6.270
 1494SOL    HW2 5303   0.993   1.832   6.408
 1495SOL     OW 5304   1.429   3.035   6.453
 1495SOL    HW1 5305   1.374   2.951   6.446
 1495SOL    HW2 5306   1.455   3.064   6.361
 1496SOL     OW 5307   1.466   2.452   6.578
 1496SOL    HW1 5308   1.436   2.357   6.585
 1496SOL    HW2 5309   1.539   2.468   6.644
 1497SOL     OW 5310   1.857   2.695   5.963
 1497SOL    HW1 5311   1.899   2.631   6.027
 1497SOL    HW2 5312   1.819   2.644   5.885
 1498SOL     OW 5313   0.488   3.247   5.760
 1498SOL    HW1 5314   0.401   3.232   5.807
 1498SOL    HW2 5315   0.471   3.273   5.665
 1499SOL     OW 5316   1.664   3.142   6.243
 1499SOL    HW1 5317   1.763   3.150   6.257
 1499SOL    HW2 5318   1.619   3.226   6.274
 1500SOL     OW 5319   1.390   2.437   5.664
 1500SOL    HW1 5320   1.336   2.416   5.745
 1500SOL    HW2 5321   1.481   2.396   5.673
 1501SOL     OW 5322   0.527   2.118   5.914
 1501SOL    HW1 5323   0.554   2.059   5.839
 1501SOL    HW2 5324   0.527   2.213   5.883
 1502SOL     OW 5325   1.754   3.085   7.174
 1502SOL    HW1 5326   1.845   3.046   7.161
 1502SOL    HW2 5327   1.762   3.181   7.198
 1503SOL     OW 5328   1.111   3.057   6.686
 1503SOL    HW1 5329   1.071   3.101   6.767
 1503SOL    HW2 5330   1.070   3.094   6.603
 1504SOL     OW 5331   1.638   2.961   6.665
 1504SOL    HW1 5332   1.643   3.042   6.724
 1504SOL    HW2 5333   1.552   2.963   6.614
 1505SOL     OW 5334   0.705   2.912   5.954
 1505SOL    HW1 5335   0.691   2.919   6.053
 1505SOL    HW2 5336   0.789   2.861   5.936
 1506SOL     OW 5337   0.410   2.675   6.837
 1506SOL    HW1 5338   0.496   2.687   6.887
 1506SOL    HW2 5339   0.368   2.588   6.864
 1507SOL     OW 5340   1.274   2.248   6.848
 1507SOL    HW1 5341   1.295   2.322   6.912
 1507SOL    HW2 5342   1.185   2.265   6.805
 1508SOL     OW 5343   0.064   3.426   6.917
 1508SOL    HW1 5344   0.018   3.508   6.883
 1508SOL    HW2 5345   0.162   3.445   6.926
 1509SOL     OW 5346   0.367   2.962   6.087
 1509SOL    HW1 5347   0.360   3.045   6.031
 1509SOL    HW2 5348   0.371   2.882   6.027
 1510SOL     OW 5349   0.566   2.399   6.451
 1510SOL    HW1 5350   0.578   2.465   6.377
 1510SOL    HW2 5351   0.612   2.433   6.534
 1511SOL     OW 5352   1.252   3.210   5.974
 1511SOL    HW1 5353   1.302   3.287   6.014
 1511SOL    HW2 5354   1.157   3.212   6.006
 1512SOL     OW 5355   1.272   3.307   6.728
 1512SOL    HW1 5356   1.319   3.320   6.815
 1512SOL    HW2 5357   1.206   3.233   6.737
 1513SOL     OW 5358   1.582   2.501   6.058
 1513SOL    HW1 5359   1.551   2.562   6.131
 1513SOL    HW2 5360   1.632   2.553   5.989
 1514SOL     OW 5361   0.354   3.372   6.915
 1514SOL    HW1 5362   0.333   3.328   6.828
 1514SOL    HW2 5363   0.451   3.398   6.918
 1515SOL     OW 5364   0.573   2.732   6.615
 1515SOL    HW1 5365   0.617   2.821   6.606
 1515SOL    HW2 5366   0.510   2.732   6.692
 1516SOL     OW 5367   1.360   2.724   6.631
 1516SOL    HW1 5368   1.285   2.724   6.565
 1516SOL    HW2 5369   1.397   2.632   6.640
 1517SOL     OW 5370   1.209   2.387   5.861
 1517SOL    HW1 5371   1.222   2.303   5.915
 1517SOL    HW2 5372   1.180   2.461   5.921
 1518SOL     OW 5373   0.307   2.075   6.817
 1518SOL    HW1 5374   0.284   2.112   6.907
 1518SOL    HW2 5375   0.277   1.980   6.811
 1519SOL     OW 5376   0.037   3.172   6.868
 1519SOL    HW1 5377   0.090   3.123   6.936
 1519SOL    HW2 5378   0.059   3.270   6.873
 1520SOL     OW 5379   0.732   2.496   6.650
 1520SOL    HW1 5380   0.791   2.470   6.574
 1520SOL    HW2 5381   0.704   2.592   6.639
 1521SOL     OW 5382   0.307   1.925   6.204
 1521SOL    HW1 5383   0.296   2.019   6.237
 1521SOL    HW2 5384   0.302   1.862   6.281
 1522SOL     OW 5385   1.622   2.229   5.960
 1522SOL    HW1 5386   1.624   2.153   6.024
 1522SOL    HW2 5387   1.574   2.306   6.000
 1523SOL     OW 5388   1.023   2.628   6.552
 1523SOL    HW1 5389   1.038   2.649   6.648
 1523SOL    HW2 5390   0.993   2.533   6.543
 1524SOL     OW 5391   1.859   3.380   7.191
 1524SOL    HW1 5392   1.873   3.407   7.096
 1524SOL    HW2 5393   1.942   3.402   7.244
 1525SOL     OW 5394   1.540   2.136   5.711
 1525SOL    HW1 5395   1.479   2.061   5.734
 1525SOL    HW2 5396   1.562   2.188   5.794
 1526SOL     OW 5397   1.303   2.700   5.628
 1526SOL    HW1 5398   1.337   2.607   5.643
 1526SOL    HW2 5399   1.321   2.727   5.533
 1527SOL     OW 5400   1.068   3.195   6.435
 1527SOL    HW1 5401   1.075   3.111   6.380
 1527SOL    HW2 5402   1.130   3.264   6.399
 1528SOL     OW 5403   0.319   2.672   6.535
 1528SOL    HW1 5404   0.412   2.708   6.540
 1528SOL    HW2 5405   0.313   2.587   6.587
 1529SOL     OW 5406   0.339   2.371   6.592
 1529SOL    HW1 5407   0.287   2.288   6.575
 1529SOL    HW2 5408   0.416   2.376   6.528
 1530SOL     OW 5409   1.160   2.069   7.063
 1530SOL    HW1 5410   1.160   2.133   7.140
 1530SOL    HW2 5411   1.188   2.117   6.980
 1531SOL     OW 5412   0.008   3.188   5.786
 1531SOL    HW1 5413  -0.085   3.209   5.755
 1531SOL    HW2 5414   0.018   3.089   5.799
 1532SOL     OW 5415   0.088   3.663   6.513
 1532SOL    HW1 5416   0.046   3.577   6.486
 1532SOL    HW2 5417   0.182   3.666   6.479
 1533SOL     OW 5418   0.504   3.430   6.496
 1533SOL    HW1 5419   0.570   3.504   6.505
 1533SOL    HW2 5420   0.548   3.351   6.454
 1534SOL     OW 5421   1.002   2.658   6.824
 1534SOL    HW1 5422   1.043   2.626   6.910
 1534SOL    HW2 5423   0.906   2.631   6.821
 1535SOL     OW 5424   0.040   2.406   6.700
 1535SOL    HW1 5425   0.125   2.373   6.659
 1535SOL    HW2 5426   0.053   2.421   6.798
 1536SOL     OW 5427   0.815   2.434   5.911
 1536SOL    HW1 5428   0.822   2.345   5.865
 1536SOL    HW2 5429   0.721   2.468   5.903
 1537SOL     OW 5430   1.657   2.466   6.792
 1537SOL    HW1 5431   1.619   2.397   6.854
 1537SOL    HW2 5432   1.739   2.430   6.748
 1538SOL     OW 5433   0.671   2.326   6.855
 1538SOL    HW1 5434   0.637   2.237   6.825
 1538SOL    HW2 5435   0.697   2.380   6.775
 1539SOL     OW 5436   0.930   3.540   7.051
 1539SOL    HW1 5437   0.906   3.522   6.956
 1539SOL    HW2 5438   0.960   3.634   7.061
 1540SOL     OW 5439   0.473   2.362   5.777
 1540SOL    HW1 5440   0.534   2.442   5.781
 1540SOL    HW2 5441   0.378   2.393   5.784
 1541SOL     OW 5442   0.159   2.999   7.052
 1541SOL    HW1 5443   0.181   2.938   7.128
 1541SOL    HW2 5444   0.169   2.950   6.966
 1542SOL     OW 5445   1.347   2.921   6.820
 1542SOL    HW1 5446   1.371   2.858   6.746
 1542SOL    HW2 5447   1.257   2.961   6.802
 1543SOL     OW 5448   1.302   2.717   5.895
 1543SOL    HW1 5449   1.216   2.686   5.937
 1543SOL    HW2 5450   1.298   2.703   5.796
 1544SOL     OW 5451   1.759   3.609   6.740
 1544SOL    HW1 5452   1.820   3.639   6.667
 1544SOL    HW2 5453   1.721   3.520   6.718
 1545SOL     OW 5454   1.252   3.593   6.714
 1545SOL    HW1 5455   1.336   3.598   6.660
 1545SOL    HW2 5456   1.229   3.497   6.732
 1546SOL     OW 5457   0.083   3.120   6.608
 1546SOL    HW1 5458   0.078   3.119   6.708
 1546SOL    HW2 5459   0.000   3.079   6.570
 1547SOL     OW 5460   1.726   1.997   6.109
 1547SOL    HW1 5461   1.799   1.980   6.042
 1547SOL    HW2 5462   1.695   1.910   6.147
 1548SOL     OW 5463   1.388   3.435   6.063
 1548SOL    HW1 5464   1.455   3.447   5.989
 1548SOL    HW2 5465   1.348   3.524   6.086
 1549SOL     OW 5466   1.280   2.789   6.258
 1549SOL    HW1 5467   1.340   2.708   6.260
 1549SOL    HW2 5468   1.320   2.858   6.198
 1550SOL     OW 5469   0.672   3.478   5.740
 1550SOL    HW1 5470   0.681   3.488   5.641
 1550SOL    HW2 5471   0.632   3.389   5.761
 1551SOL     OW 5472   1.841   2.037   6.549
 1551SOL    HW1 5473   1.880   1.952   6.513
 1551SOL    HW2 5474   1.743   2.039   6.530
 1552SOL     OW 5475   0.263   2.188   6.306
 1552SOL    HW1 5476   0.184   2.239   6.272
 1552SOL    HW2 5477   0.254   2.173   6.404
 1553SOL     OW 5478   1.194   3.474   5.617
 1553SOL    HW1 5479   1.200   3.381   5.654
 1553SOL    HW2 5480   1.135   3.474   5.537
 1554SOL     OW 5481   0.822   2.864   6.958
 1554SOL    HW1 5482   0.862   2.863   6.866
 1554SOL    HW2 5483   0.832   2.956   6.998
 1555SOL     OW 5484   0.916   2.772   5.877
 1555SOL    HW1 5485   0.979   2.810   5.809
 1555SOL    HW2 5486   0.956   2.689   5.916
 1556SOL     OW 5487   1.504   3.469   5.630
 1556SOL    HW1 5488   1.412   3.506   5.637
 1556SOL    HW2 5489   1.542   3.489   5.540
 1557SOL     OW 5490   1.614   3.154   6.875
 1557SOL    HW1 5491   1.674   3.157   6.955
 1557SOL    HW2 5492   1.539   3.218   6.888
 1558SOL     OW 5493   1.039   2.960   6.282
 1558SOL    HW1 5494   0.969   2.913   6.336
 1558SOL    HW2 5495   1.098   2.892   6.239
 1559SOL     OW 5496   1.014   2.098   6.557
 1559SOL    HW1 5497   1.006   2.062   6.464
 1559SOL    HW2 5498   1.012   2.022   6.622
 1560SOL     OW 5499   0.590   3.349   6.077
 1560SOL    HW1 5500   0.632   3.291   6.007
 1560SOL    HW2 5501   0.546   3.428   6.033
 1561SOL     OW 5502   1.709   2.247   6.967
 1561SOL    HW1 5503   1.782   2.316   6.971
 1561SOL    HW2 5504   1.737   2.172   6.908
 1562SOL     OW 5505   0.255   3.210   5.876
 1562SOL    HW1 5506   0.159   3.211   5.849
 1562SOL    HW2 5507   0.267   3.263   5.960
 1563SOL     OW 5508   0.672   2.065   7.075
 1563SOL    HW1 5509   0.762   2.049   7.035
 1563SOL    HW2 5510   0.680   2.070   7.174
 1564SOL     OW 5511   0.075   2.207   5.619
 1564SOL    HW1 5512  -0.017   2.179   5.590
 1564SOL    HW2 5513   0.106   2.284   5.563
 1565SOL     OW 5514   0.072   2.028   5.904
 1565SOL    HW1 5515   0.055   2.111   5.850
 1565SOL    HW2 5516   0.162   1.991   5.882
 1566SOL     OW 5517   1.183   3.197   5.705
 1566SOL    HW1 5518   1.084   3.186   5.707
 1566SOL    HW2 5519   1.217   3.212   5.798
 1567SOL     OW 5520   1.493   3.629   6.545
 1567SOL    HW1 5521   1.526   3.693   6.476
 1567SOL    HW2 5522   1.559   3.623   6.620
 1568SOL     OW 5523   1.450   3.082   7.219
 1568SOL    HW1 5524   1.441   3.072   7.318
 1568SOL    HW2 5525   1.546   3.075   7.193
 1569SOL     OW 5526   0.390   3.603   7.146
 1569SOL    HW1 5527   0.299   3.644   7.144
 1569SOL    HW2 5528   0.383   3.509   7.178
 1570SOL     OW 5529   1.674   2.745   6.840
 1570SOL    HW1 5530   1.647   2.656   6.803
 1570SOL    HW2 5531   1.675   2.813   6.767
 1571SOL     OW 5532   1.225   2.187   6.035
 1571SOL    HW1 5533   1.290   2.113   6.024
 1571SOL    HW2 5534   1.245   2.237   6.119
 1572SOL     OW 5535   0.594   2.607   6.238
 1572SOL    HW1 5536   0.644   2.692   6.219
 1572SOL    HW2 5537   0.506   2.609   6.190
 1573SOL     OW 5538   1.730   2.796   7.103
 1573SOL    HW1 5539   1.768   2.887   7.118
 1573SOL    HW2 5540   1.722   2.779   7.004
 1574SOL     OW 5541   0.859   3.236   5.602
 1574SOL    HW1 5542   0.813   3.251   5.690
 1574SOL    HW2 5543   0.903   3.321   5.572
 1575SOL     OW 5544   0.661   3.652   6.539
 1575SOL    HW1 5545   0.615   3.740   6.526
 1575SOL    HW2 5546   0.760   3.664   6.532
 1576SOL     OW 5547   0.859   2.818   6.447
 1576SOL    HW1 5548   0.913   2.749   6.495
 1576SOL    HW2 5549   0.827   2.887   6.513
 1577SOL     OW 5550   1.083   2.846   5.673
 1577SOL    HW1 5551   1.060   2.899   5.591
 1577SOL    HW2 5552   1.164   2.790   5.654
 1578SOL     OW 5553   1.861   3.431   6.437
 1578SOL    HW1 5554   1.790   3.419   6.367
 1578SOL    HW2 5555   1.862   3.352   6.497
 1579SOL     OW 5556   0.079   3.102   6.239
 1579SOL    HW1 5557   0.078   3.055   6.327
 1579SOL    HW2 5558   0.161   3.074   6.188
 1580SOL     OW 5559   1.824   2.054   6.813
 1580SOL    HW1 5560   1.820   1.964   6.857
 1580SOL    HW2 5561   1.827   2.043   6.714
 1581SOL     OW 5562   0.428   2.286   6.106
 1581SOL    HW1 5563   0.458   2.214   6.044
 1581SOL    HW2 5564   0.389   2.246   6.189
 1582SOL     OW 5565   1.705   3.349   6.690
 1582SOL    HW1 5566   1.612   3.324   6.663
 1582SOL    HW2 5567   1.731   3.299   6.772
 1583SOL     OW 5568   0.317   2.409   6.866
 1583SOL    HW1 5569   0.355   2.350   6.938
 1583SOL    HW2 5570   0.357   2.383   6.778
 1584SOL     OW 5571   0.812   3.448   6.273
 1584SOL    HW1 5572   0.844   3.458   6.179
 1584SOL    HW2 5573   0.733   3.386   6.275
 1585SOL     OW 5574   1.424   2.076   6.698
 1585SOL    HW1 5575   1.476   2.011   6.753
 1585SOL    HW2 5576   1.375   2.139   6.759
 1586SOL     OW 5577   1.001   1.896   6.740
 1586SOL    HW1 5578   0.938   1.824   6.709
 1586SOL    HW2 5579   1.094   1.860   6.740
 1587SOL     OW 5580   0.770   3.192   5.887
 1587SOL    HW1 5581   0.724   3.105   5.904
 1587SOL    HW2 5582   0.861   3.189   5.928
 1588SOL     OW 5583   0.618   3.429   6.870
 1588SOL    HW1 5584   0.613   3.511   6.927
 1588SOL    HW2 5585   0.707   3.426   6.825
 1589SOL     OW 5586   1.352   1.914   5.754
 1589SOL    HW1 5587   1.387   1.873   5.670
 1589SOL    HW2 5588   1.262   1.876   5.774
 1590SOL     OW 5589   1.300   2.315   6.277
 1590SOL    HW1 5590   1.241   2.395   6.281
 1590SOL    HW2 5591   1.315   2.280   6.370
 1591SOL     OW 5592   1.593   2.083   6.468
 1591SOL    HW1 5593   1.509   2.082   6.522
 1591SOL    HW2 5594   1.595   2.166   6.412
 1592SOL     OW 5595   0.039   2.939   5.886
 1592SOL    HW1 5596   0.138   2.928   5.877
 1592SOL    HW2 5597  -0.001   2.853   5.918
 1593SOL     OW 5598   0.875   3.508   5.923
 1593SOL    HW1 5599   0.798   3.473   5.869
 1593SOL    HW2 5600   0.843   3.579   5.985
 1594SOL     OW 5601   0.230   4.352   0.113
 1594SOL    HW1 5602   0.137   4.350   0.150
 1594SOL    HW2 5603   0.231   4.313   0.021
 1595SOL     OW 5604   0.225   3.999   0.996
 1595SOL    HW1 5605   0.260   3.982   1.088
 1595SOL    HW2 5606   0.137   3.954   0.984
 1596SOL     OW 5607   0.019   4.092   0.647
 1596SOL    HW1 5608  -0.063   4.135   0.686
 1596SOL    HW2 5609  -0.009   4.019   0.584
 1597SOL     OW 5610   0.569   4.999   1.165
 1597SOL    HW1 5611   0.476   4.992   1.128
 1597SOL    HW2 5612   0.580   5.088   1.209
 1598SOL     OW 5613   1.555   5.235   0.703
 1598SOL    HW1 5614   1.498   5.219   0.784
 1598SOL    HW2 5615   1.496   5.245   0.623
 1599SOL     OW 5616   1.135   4.427   0.717
 1599SOL    HW1 5617   1.192   4.505   0.692
 1599SOL    HW2 5618   1.075   4.453   0.793
 1600SOL     OW 5619   1.755   4.331   0.231
 1600SOL    HW1 5620   1.743   4.318   0.132
 1600SOL    HW2 5621   1.725   4.250   0.280
 1601SOL     OW 5622   0.768   4.868   1.023
 1601SOL    HW1 5623   0.690   4.885   1.083
 1601SOL    HW2 5624   0.802   4.955   0.987
 1602SOL     OW 5625   0.850   4.522   1.823
 1602SOL    HW1 5626   0.846   4.598   1.888
 1602SOL    HW2 5627   0.872   4.558   1.732
 1603SOL     OW 5628   0.685   4.736   0.665
 1603SOL    HW1 5629   0.754   4.720   0.735
 1603SOL    HW2 5630   0.612   4.793   0.703
 1604SOL     OW 5631   0.686   4.885   1.803
 1604SOL    HW1 5632   0.746   4.964   1.817
 1604SOL    HW2 5633   0.600   4.916   1.762
 1605SOL     OW 5634   0.335   5.159   1.061
 1605SOL    HW1 5635   0.257   5.128   1.008
 1605SOL    HW2 5636   0.393   5.217   1.004
 1606SOL     OW 5637   1.460   5.229   1.339
 1606SOL    HW1 5638   1.484   5.323   1.365
 1606SOL    HW2 5639   1.444   5.175   1.421
 1607SOL     OW 5640   0.438   4.116   1.499
 1607SOL    HW1 5641   0.520   4.060   1.508
 1607SOL    HW2 5642   0.357   4.058   1.503
 1608SOL     OW 5643   1.603   4.171   0.737
 1608SOL    HW1 5644   1.529   4.217   0.687
 1608SOL    HW2 5645   1.654   4.239   0.790
 1609SOL     OW 5646   0.231   5.437   0.483
 1609SOL    HW1 5647   0.265   5.514   0.537
 1609SOL    HW2 5648   0.275   5.437   0.393
 1610SOL     OW 5649   1.127   5.065   1.690
 1610SOL    HW1 5650   1.174   5.065   1.778
 1610SOL    HW2 5651   1.079   4.978   1.679
 1611SOL     OW 5652   0.230   5.158   0.538
 1611SOL    HW1 5653   0.204   5.254   0.538
 1611SOL    HW2 5654   0.159   5.104   0.583
 1612SOL     OW 5655   0.240   4.815   0.886
 1612SOL    HW1 5656   0.254   4.731   0.938
 1612SOL    HW2 5657   0.185   4.879   0.941
 1613SOL     OW 5658   0.620   5.510   1.439
 1613SOL    HW1 5659   0.528   5.493   1.474
 1613SOL    HW2 5660   0.648   5.602   1.465
 1614SOL     OW 5661   0.606   4.688   0.123
 1614SOL    HW1 5662   0.613   4.772   0.069
 1614SOL    HW2 5663   0.652   4.701   0.211
 1615SOL     OW 5664   1.594   3.838   1.480
 1615SOL    HW1 5665   1.576   3.905   1.408
 1615SOL    HW2 5666   1.591   3.884   1.569
 1616SOL     OW 5667   0.122   4.367   0.563
 1616SOL    HW1 5668   0.077   4.279   0.580
 1616SOL    HW2 5669   0.121   4.421   0.647
 1617SOL     OW 5670   1.842   5.491   0.359
 1617SOL    HW1 5671   1.896   5.462   0.439
 1617SOL    HW2 5672   1.872   5.581   0.330
 1618SOL     OW 5673   0.027   5.320   0.117
 1618SOL    HW1 5674   0.008   5.224   0.138
 1618SOL    HW2 5675  -0.006   5.378   0.192
 1619SOL     OW 5676   1.689   4.646   0.612
 1619SOL    HW1 5677   1.784   4.617   0.620
 1619SOL    HW2 5678   1.681   4.711   0.537
 1620SOL     OW 5679   1.641   4.832   0.432
 1620SOL    HW1 5680   1.727   4.834   0.380
 1620SOL    HW2 5681   1.655   4.879   0.520
 1621SOL     OW 5682   0.113   4.461   1.597
 1621SOL    HW1 5683   0.201   4.448   1.642
 1621SOL    HW2 5684   0.100   4.558   1.575
 1622SOL     OW 5685   0.613   5.089   0.726
 1622SOL    HW1 5686   0.564   5.002   0.735
 1622SOL    HW2 5687   0.590   5.132   0.639
 1623SOL     OW 5688   1.293   4.952   1.423
 1623SOL    HW1 5689   1.330   4.879   1.365
 1623SOL    HW2 5690   1.345   4.957   1.508
 1624SOL     OW 5691   0.809   3.728   0.502
 1624SOL    HW1 5692   0.849   3.819   0.493
 1624SOL    HW2 5693   0.709   3.736   0.508
 1625SOL     OW 5694   0.197   4.700   1.264
 1625SOL    HW1 5695   0.286   4.655   1.250
 1625SOL    HW2 5696   0.124   4.635   1.245
 1626SOL     OW 5697   1.525   4.723   0.190
 1626SOL    HW1 5698   1.462   4.647   0.203
 1626SOL    HW2 5699   1.573   4.741   0.276
 1627SOL     OW 5700   1.187   5.516   1.616
 1627SOL    HW1 5701   1.211   5.576   1.540
 1627SOL    HW2 5702   1.194   5.421   1.586
 1628SOL     OW 5703   0.317   3.975   1.801
 1628SOL    HW1 5704   0.388   4.046   1.807
 1628SOL    HW2 5705   0.229   4.014   1.829
 1629SOL     OW 5706   1.466   5.141   0.953
 1629SOL    HW1 5707   1.407   5.147   1.033
 1629SOL    HW2 5708   1.451   5.053   0.907
 1630SOL     OW 5709   1.667   5.438   0.572
 1630SOL    HW1 5710   1.626   5.415   0.484
 1630SOL    HW2 5711   1.649   5.364   0.637
 1631SOL     OW 5712   0.598   4.453   0.270
 1631SOL    HW1 5713   0.622   4.522   0.202
 1631SOL    HW2 5714   0.520   4.486   0.324
 1632SOL     OW 5715   1.281   4.069   0.944
 1632SOL    HW1 5716   1.195   4.019   0.931
 1632SOL    HW2 5717   1.343   4.015   1.000
 1633SOL     OW 5718   1.576   5.386   0.307
 1633SOL    HW1 5719   1.665   5.432   0.310
 1633SOL    HW2 5720   1.555   5.362   0.212
 1634SOL     OW 5721   0.807   4.329   1.465
 1634SOL    HW1 5722   0.760   4.326   1.554
 1634SOL    HW2 5723   0.756   4.274   1.399
 1635SOL     OW 5724   1.394   4.193   1.674
 1635SOL    HW1 5725   1.374   4.236   1.762
 1635SOL    HW2 5726   1.472   4.131   1.683
 1636SOL     OW 5727   0.973   4.614   1.572
 1636SOL    HW1 5728   1.019   4.530   1.543
 1636SOL    HW2 5729   0.917   4.648   1.497
 1637SOL     OW 5730   0.991   4.134   1.242
 1637SOL    HW1 5731   0.914   4.168   1.296
 1637SOL    HW2 5732   0.957   4.083   1.163
 1638SOL     OW 5733   1.041   4.425   0.429
 1638SOL    HW1 5734   1.067   4.421   0.525
 1638SOL    HW2 5735   0.956   4.374   0.415
 1639SOL     OW 5736   0.076   4.535   0.789
 1639SOL    HW1 5737   0.175   4.523   0.798
 1639SOL    HW2 5738   0.052   4.630   0.810
 1640SOL     OW 5739   0.130   5.545   1.571
 1640SOL    HW1 5740   0.120   5.530   1.670
 1640SOL    HW2 5741   0.044   5.581   1.535
 1641SOL     OW 5742   0.865   4.072   0.195
 1641SOL    HW1 5743   0.924   4.135   0.146
 1641SOL    HW2 5744   0.884   3.978   0.166
 1642SOL     OW 5745   1.719   4.309   1.831
 1642SOL    HW1 5746   1.693   4.398   1.795
 1642SOL    HW2 5747   1.717   4.241   1.758
 1643SOL     OW 5748   1.362   4.868   0.545
 1643SOL    HW1 5749   1.445   4.839   0.497
 1643SOL    HW2 5750   1.313   4.935   0.489
 1644SOL     OW 5751   0.550   3.920   0.885
 1644SOL    HW1 5752   0.545   3.915   0.985
 1644SOL    HW2 5753   0.552   4.016   0.856
 1645SOL     OW 5754   1.008   5.180   0.477
 1645SOL    HW1 5755   0.962   5.252   0.425
 1645SOL    HW2 5756   1.004   5.200   0.575
 1646SOL     OW 5757   0.351   5.525   0.853
 1646SOL    HW1 5758   0.401   5.439   0.859
 1646SOL    HW2 5759   0.416   5.602   0.850
 1647SOL     OW 5760   1.795   4.790   0.873
 1647SOL    HW1 5761   1.733   4.775   0.797
 1647SOL    HW2 5762   1.743   4.801   0.958
 1648SOL     OW 5763   1.227   5.274   1.506
 1648SOL    HW1 5764   1.233   5.197   1.570
 1648SOL    HW2 5765   1.175   5.248   1.426
 1649SOL     OW 5766   0.321   4.667   0.242
 1649SOL    HW1 5767   0.403   4.706   0.200
 1649SOL    HW2 5768   0.294   4.585   0.193
 1650SOL     OW 5769   1.458   4.459   0.728
 1650SOL    HW1 5770   1.453   4.394   0.803
 1650SOL    HW2 5771   1.538   4.518   0.741
 1651SOL     OW 5772   0.461   4.990   1.727
 1651SOL    HW1 5773   0.411   4.991   1.641
 1651SOL    HW2 5774   0.398   4.972   1.803
 1652SOL     OW 5775   1.111   5.500   0.237
 1652SOL    HW1 5776   1.051   5.438   0.287
 1652SOL    HW2 5777   1.142   5.456   0.152
 1653SOL     OW 5778   0.202   4.009   1.498
 1653SOL    HW1 5779   0.122   4.069   1.485
 1653SOL    HW2 5780   0.192   3.960   1.584
 1654SOL     OW 5781   1.632   5.101   0.081
 1654SOL    HW1 5782   1.600   5.195   0.071
 1654SOL    HW2 5783   1.556   5.038   0.069
 1655SOL     OW 5784   0.464   5.467   0.323
 1655SOL    HW1 5785   0.497   5.506   0.409
 1655SOL    HW2 5786   0.540   5.460   0.258
 1656SOL     OW 5787   1.400   3.831   0.426
 1656SOL    HW1 5788   1.376   3.794   0.336
 1656SOL    HW2 5789   1.499   3.847   0.430
 1657SOL     OW 5790   0.249   5.509   1.241
 1657SOL    HW1 5791   0.306   5.444   1.291
 1657SOL    HW2 5792   0.233   5.476   1.148
 1658SOL     OW 5793   0.940   5.422   0.904
 1658SOL    HW1 5794   1.020   5.365   0.925
 1658SOL    HW2 5795   0.891   5.382   0.827
 1659SOL     OW 5796   0.382   4.424   0.480
 1659SOL    HW1 5797   0.427   4.334   0.477
 1659SOL    HW2 5798   0.288   4.413   0.513
 1660SOL     OW 5799   1.547   3.946   1.729
 1660SOL    HW1 5800   1.542   3.983   1.821
 1660SOL    HW2 5801   1.475   3.877   1.717
 1661SOL     OW 5802   0.781   3.988   1.749
 1661SOL    HW1 5803   0.848   3.927   1.792
 1661SOL    HW2 5804   0.708   4.007   1.814
 1662SOL     OW 5805   0.888   5.238   1.195
 1662SOL    HW1 5806   0.865   5.213   1.101
 1662SOL    HW2 5807   0.949   5.169   1.234
 1663SOL     OW 5808   1.351   4.314   1.433
 1663SOL    HW1 5809   1.379   4.271   1.518
 1663SOL    HW2 5810   1.376   4.410   1.434
 1664SOL     OW 5811   0.803   5.126   0.924
 1664SOL    HW1 5812   0.893   5.140   0.882
 1664SOL    HW2 5813   0.732   5.128   0.853
 1665SOL     OW 5814   0.922   4.227   0.899
 1665SOL    HW1 5815   0.897   4.218   0.803
 1665SOL    HW2 5816   0.970   4.145   0.930
 1666SOL     OW 5817   0.539   3.788   0.512
 1666SOL    HW1 5818   0.458   3.789   0.570
 1666SOL    HW2 5819   0.542   3.871   0.457
 1667SOL     OW 5820   1.434   4.912   0.041
 1667SOL    HW1 5821   1.466   4.836   0.098
 1667SOL    HW2 5822   1.342   4.939   0.071
 1668SOL     OW 5823   0.935   3.960   0.480
 1668SOL    HW1 5824   0.887   4.001   0.402
 1668SOL    HW2 5825   1.034   3.958   0.461
 1669SOL     OW 5826   1.076   4.407   1.464
 1669SOL    HW1 5827   0.996   4.346   1.467
 1669SOL    HW2 5828   1.157   4.354   1.440
 1670SOL     OW 5829   1.227   5.294   0.793
 1670SOL    HW1 5830   1.248   5.368   0.728
 1670SOL    HW2 5831   1.295   5.294   0.866
 1671SOL     OW 5832   0.459   4.876   0.741
 1671SOL    HW1 5833   0.388   4.849   0.806
 1671SOL    HW2 5834   0.433   4.848   0.648
 1672SOL     OW 5835   1.271   5.521   0.591
 1672SOL    HW1 5836   1.315   5.585   0.527
 1672SOL    HW2 5837   1.221   5.573   0.661
 1673SOL     OW 5838   1.032   4.273   0.016
 1673SOL    HW1 5839   0.991   4.355  -0.023
 1673SOL    HW2 5840   1.096   4.299   0.089
 1674SOL     OW 5841   0.078   4.280   1.386
 1674SOL    HW1 5842   0.170   4.279   1.345
 1674SOL    HW2 5843   0.072   4.354   1.453
 1675SOL     OW 5844   0.561   3.946   1.147
 1675SOL    HW1 5845   0.599   3.862   1.184
 1675SOL    HW2 5846   0.473   3.965   1.191
 1676SOL     OW 5847   0.866   4.178   0.642
 1676SOL    HW1 5848   0.834   4.250   0.580
 1676SOL    HW2 5849   0.890   4.097   0.589
 1677SOL     OW 5850   1.017   3.763   0.753
 1677SOL    HW1 5851   0.945   3.768   0.684
 1677SOL    HW2 5852   0.993   3.694   0.822
 1678SOL     OW 5853   1.429   4.897   0.867
 1678SOL    HW1 5854   1.374   4.813   0.860
 1678SOL    HW2 5855   1.455   4.926   0.775
 1679SOL     OW 5856   1.466   4.314   0.992
 1679SOL    HW1 5857   1.436   4.219   0.999
 1679SOL    HW2 5858   1.539   4.330   1.058
 1680SOL     OW 5859   1.857   4.557   0.377
 1680SOL    HW1 5860   1.899   4.493   0.441
 1680SOL    HW2 5861   1.819   4.506   0.299
 1681SOL     OW 5862   0.488   5.109   0.174
 1681SOL    HW1 5863   0.401   5.094   0.221
 1681SOL    HW2 5864   0.471   5.135   0.079
 1682SOL     OW 5865   1.664   5.004   0.657
 1682SOL    HW1 5866   1.763   5.012   0.671
 1682SOL    HW2 5867   1.619   5.088   0.688
 1683SOL     OW 5868   1.390   4.299   0.078
 1683SOL    HW1 5869   1.336   4.278   0.159
 1683SOL    HW2 5870   1.481   4.258   0.087
 1684SOL     OW 5871   0.527   3.980   0.328
 1684SOL    HW1 5872   0.554   3.921   0.253
 1684SOL    HW2 5873   0.527   4.075   0.297
 1685SOL     OW 5874   1.754   4.947   1.588
 1685SOL    HW1 5875   1.845   4.908   1.575
 1685SOL    HW2 5876   1.762   5.043   1.612
 1686SOL     OW 5877   1.064   5.071   1.340
 1686SOL    HW1 5878   0.984   5.048   1.395
 1686SOL    HW2 5879   1.147   5.045   1.389
 1687SOL     OW 5880   1.592   5.353   1.625
 1687SOL    HW1 5881   1.619   5.387   1.535
 1687SOL    HW2 5882   1.671   5.315   1.671
 1688SOL     OW 5883   1.111   4.919   1.100
 1688SOL    HW1 5884   1.071   4.963   1.181
 1688SOL    HW2 5885   1.070   4.956   1.017
 1689SOL     OW 5886   1.638   4.823   1.079
 1689SOL    HW1 5887   1.643   4.904   1.138
 1689SOL    HW2 5888   1.552   4.825   1.028
 1690SOL     OW 5889   0.915   3.813   1.402
 1690SOL    HW1 5890   0.940   3.793   1.307
 1690SOL    HW2 5891   0.987   3.869   1.444
 1691SOL     OW 5892   0.980   4.840   1.719
 1691SOL    HW1 5893   0.881   4.846   1.729
 1691SOL    HW2 5894   1.003   4.760   1.663
 1692SOL     OW 5895   0.705   4.774   0.368
 1692SOL    HW1 5896   0.691   4.781   0.467
 1692SOL    HW2 5897   0.789   4.723   0.350
 1693SOL     OW 5898   0.410   4.537   1.251
 1693SOL    HW1 5899   0.496   4.549   1.301
 1693SOL    HW2 5900   0.368   4.450   1.278
 1694SOL     OW 5901   1.274   4.110   1.262
 1694SOL    HW1 5902   1.295   4.184   1.326
 1694SOL    HW2 5903   1.185   4.127   1.219
 1695SOL     OW 5904   0.064   5.288   1.331
 1695SOL    HW1 5905   0.018   5.370   1.297
 1695SOL    HW2 5906   0.162   5.307   1.340
 1696SOL     OW 5907   0.367   4.824   0.501
 1696SOL    HW1 5908   0.360   4.907   0.445
 1696SOL    HW2 5909   0.371   4.744   0.441
 1697SOL     OW 5910   0.566   4.261   0.865
 1697SOL    HW1 5911   0.578   4.327   0.791
 1697SOL    HW2 5912   0.612   4.295   0.948
 1698SOL     OW 5913   1.252   5.072   0.388
 1698SOL    HW1 5914   1.302   5.149   0.428
 1698SOL    HW2 5915   1.157   5.074   0.420
 1699SOL     OW 5916   1.272   5.169   1.142
 1699SOL    HW1 5917   1.319   5.182   1.229
 1699SOL    HW2 5918   1.206   5.095   1.151
 1700SOL     OW 5919   1.582   4.363   0.472
 1700SOL    HW1 5920   1.551   4.424   0.545
 1700SOL    HW2 5921   1.632   4.415   0.403
 1701SOL     OW 5922   0.354   5.234   1.329
 1701SOL    HW1 5923   0.333   5.190   1.242
 1701SOL    HW2 5924   0.451   5.260   1.332
 1702SOL     OW 5925   0.402   4.475   1.598
 1702SOL    HW1 5926   0.470   4.530   1.551
 1702SOL    HW2 5927   0.442   4.387   1.625
 1703SOL     OW 5928   1.587   4.503   1.670
 1703SOL    HW1 5929   1.495   4.541   1.665
 1703SOL    HW2 5930   1.647   4.550   1.605
 1704SOL     OW 5931   1.013   3.829   1.770
 1704SOL    HW1 5932   1.019   3.914   1.718
 1704SOL    HW2 5933   1.045   3.753   1.713
 1705SOL     OW 5934   0.504   3.774   1.740
 1705SOL    HW1 5935   0.462   3.717   1.670
 1705SOL    HW2 5936   0.438   3.843   1.772
 1706SOL     OW 5937   0.573   4.594   1.029
 1706SOL    HW1 5938   0.617   4.683   1.020
 1706SOL    HW2 5939   0.510   4.594   1.106
 1707SOL     OW 5940   1.360   4.586   1.045
 1707SOL    HW1 5941   1.285   4.586   0.979
 1707SOL    HW2 5942   1.397   4.494   1.054
 1708SOL     OW 5943   1.209   4.249   0.275
 1708SOL    HW1 5944   1.222   4.165   0.329
 1708SOL    HW2 5945   1.180   4.323   0.335
 1709SOL     OW 5946   0.307   3.937   1.231
 1709SOL    HW1 5947   0.284   3.974   1.321
 1709SOL    HW2 5948   0.277   3.842   1.225
 1710SOL     OW 5949   0.037   5.034   1.282
 1710SOL    HW1 5950   0.090   4.985   1.350
 1710SOL    HW2 5951   0.059   5.132   1.287
 1711SOL     OW 5952   0.732   4.358   1.064
 1711SOL    HW1 5953   0.791   4.332   0.988
 1711SOL    HW2 5954   0.704   4.454   1.053
 1712SOL     OW 5955   1.728   4.659   1.854
 1712SOL    HW1 5956   1.682   4.652   1.765
 1712SOL    HW2 5957   1.666   4.703   1.920
 1713SOL     OW 5958   0.307   3.787   0.618
 1713SOL    HW1 5959   0.296   3.881   0.651
 1713SOL    HW2 5960   0.302   3.724   0.695
 1714SOL     OW 5961   1.622   4.091   0.374
 1714SOL    HW1 5962   1.624   4.015   0.438
 1714SOL    HW2 5963   1.574   4.168   0.414
 1715SOL     OW 5964   1.023   4.490   0.966
 1715SOL    HW1 5965   1.038   4.511   1.062
 1715SOL    HW2 5966   0.993   4.395   0.957
 1716SOL     OW 5967   0.980   5.297   1.700
 1716SOL    HW1 5968   0.960   5.341   1.612
 1716SOL    HW2 5969   1.019   5.206   1.684
 1717SOL     OW 5970   1.859   5.242   1.605
 1717SOL    HW1 5971   1.873   5.269   1.510
 1717SOL    HW2 5972   1.942   5.264   1.658
 1718SOL     OW 5973   0.350   4.622   1.804
 1718SOL    HW1 5974   0.426   4.666   1.852
 1718SOL    HW2 5975   0.385   4.575   1.722
 1719SOL     OW 5976   1.540   3.998   0.125
 1719SOL    HW1 5977   1.479   3.923   0.148
 1719SOL    HW2 5978   1.562   4.050   0.208
 1720SOL     OW 5979   1.303   4.562   0.042
 1720SOL    HW1 5980   1.337   4.469   0.057
 1720SOL    HW2 5981   1.321   4.589  -0.053
 1721SOL     OW 5982   1.068   5.057   0.849
 1721SOL    HW1 5983   1.075   4.973   0.794
 1721SOL    HW2 5984   1.130   5.126   0.813
 1722SOL     OW 5985   0.319   4.534   0.949
 1722SOL    HW1 5986   0.412   4.570   0.954
 1722SOL    HW2 5987   0.313   4.449   1.001
 1723SOL     OW 5988   0.339   4.233   1.006
 1723SOL    HW1 5989   0.287   4.150   0.989
 1723SOL    HW2 5990   0.416   4.238   0.942
 1724SOL     OW 5991   1.138   4.104   1.678
 1724SOL    HW1 5992   1.093   4.167   1.742
 1724SOL    HW2 5993   1.231   4.135   1.661
 1725SOL     OW 5994   1.160   3.931   1.477
 1725SOL    HW1 5995   1.160   3.995   1.554
 1725SOL    HW2 5996   1.188   3.979   1.394
 1726SOL     OW 5997   0.008   5.050   0.200
 1726SOL    HW1 5998  -0.085   5.071   0.169
 1726SOL    HW2 5999   0.018   4.951   0.213
 1727SOL     OW 6000   0.088   5.525   0.927
 1727SOL    HW1 6001   0.046   5.439   0.900
 1727SOL    HW2 6002   0.182   5.528   0.893
 1728SOL     OW 6003   0.504   5.292   0.910
 1728SOL    HW1 6004   0.570   5.366   0.919
 1728SOL    HW2 6005   0.548   5.213   0.868
 1729SOL     OW 6006   1.002   4.520   1.238
 1729SOL    HW1 6007   1.043   4.488   1.324
 1729SOL    HW2 6008   0.906   4.493   1.235
 1730SOL     OW 6009   0.040   4.268   1.114
 1730SOL    HW1 6010   0.125   4.235   1.073
 1730SOL    HW2 6011   0.053   4.283   1.212
 1731SOL     OW 6012   0.189   4.244   1.722
 1731SOL    HW1 6013   0.248   4.204   1.652
 1731SOL    HW2 6014   0.131   4.315   1.681
 1732SOL     OW 6015   1.369   4.674   1.660
 1732SOL    HW1 6016   1.408   4.763   1.680
 1732SOL    HW2 6017   1.379   4.654   1.563
 1733SOL     OW 6018   0.815   4.296   0.325
 1733SOL    HW1 6019   0.822   4.207   0.279
 1733SOL    HW2 6020   0.721   4.330   0.317
 1734SOL     OW 6021   1.657   4.328   1.206
 1734SOL    HW1 6022   1.619   4.259   1.268
 1734SOL    HW2 6023   1.739   4.292   1.162
 1735SOL     OW 6024   0.252   5.288   1.744
 1735SOL    HW1 6025   0.222   5.345   1.820
 1735SOL    HW2 6026   0.245   5.191   1.770
 1736SOL     OW 6027   0.671   4.188   1.269
 1736SOL    HW1 6028   0.637   4.099   1.239
 1736SOL    HW2 6029   0.697   4.242   1.189
 1737SOL     OW 6030   0.930   5.402   1.465
 1737SOL    HW1 6031   0.906   5.384   1.370
 1737SOL    HW2 6032   0.960   5.496   1.475
 1738SOL     OW 6033   0.473   4.224   0.191
 1738SOL    HW1 6034   0.534   4.304   0.195
 1738SOL    HW2 6035   0.378   4.255   0.198
 1739SOL     OW 6036   0.159   4.861   1.466
 1739SOL    HW1 6037   0.181   4.800   1.542
 1739SOL    HW2 6038   0.169   4.812   1.380
 1740SOL     OW 6039   1.347   4.783   1.234
 1740SOL    HW1 6040   1.371   4.720   1.160
 1740SOL    HW2 6041   1.257   4.823   1.216
 1741SOL     OW 6042   1.302   4.579   0.309
 1741SOL    HW1 6043   1.216   4.548   0.351
 1741SOL    HW2 6044   1.298   4.565   0.210
 1742SOL     OW 6045   1.759   5.471   1.154
 1742SOL    HW1 6046   1.820   5.501   1.081
 1742SOL    HW2 6047   1.721   5.382   1.132
 1743SOL     OW 6048   1.252   5.455   1.128
 1743SOL    HW1 6049   1.336   5.460   1.074
 1743SOL    HW2 6050   1.229   5.359   1.146
 1744SOL     OW 6051   0.083   4.982   1.022
 1744SOL    HW1 6052   0.078   4.981   1.122
 1744SOL    HW2 6053   0.000   4.941   0.984
 1745SOL     OW 6054   0.688   5.386   1.716
 1745SOL    HW1 6055   0.632   5.467   1.725
 1745SOL    HW2 6056   0.740   5.390   1.630
 1746SOL     OW 6057   0.903   3.810   0.133
 1746SOL    HW1 6058   0.954   3.811   0.047
 1746SOL    HW2 6059   0.959   3.768   0.204
 1747SOL     OW 6060   1.726   3.859   0.523
 1747SOL    HW1 6061   1.799   3.842   0.456
 1747SOL    HW2 6062   1.695   3.772   0.561
 1748SOL     OW 6063   1.388   5.297   0.477
 1748SOL    HW1 6064   1.455   5.309   0.403
 1748SOL    HW2 6065   1.348   5.386   0.500
 1749SOL     OW 6066   0.130   5.518   1.851
 1749SOL    HW1 6067   0.089   5.444   1.904
 1749SOL    HW2 6068   0.194   5.569   1.909
 1750SOL     OW 6069   1.280   4.651   0.672
 1750SOL    HW1 6070   1.340   4.570   0.674
 1750SOL    HW2 6071   1.320   4.720   0.612
 1751SOL     OW 6072   0.830   4.997   1.422
 1751SOL    HW1 6073   0.825   5.030   1.517
 1751SOL    HW2 6074   0.744   5.016   1.376
 1752SOL     OW 6075   0.672   5.340   0.154
 1752SOL    HW1 6076   0.681   5.350   0.055
 1752SOL    HW2 6077   0.632   5.251   0.175
 1753SOL     OW 6078   1.650   5.444   1.394
 1753SOL    HW1 6079   1.703   5.454   1.310
 1753SOL    HW2 6080   1.623   5.534   1.428
 1754SOL     OW 6081   1.841   3.899   0.963
 1754SOL    HW1 6082   1.880   3.814   0.927
 1754SOL    HW2 6083   1.743   3.901   0.944
 1755SOL     OW 6084   0.263   4.050   0.720
 1755SOL    HW1 6085   0.184   4.101   0.686
 1755SOL    HW2 6086   0.254   4.035   0.818
 1756SOL     OW 6087   1.194   5.336   0.031
 1756SOL    HW1 6088   1.200   5.243   0.068
 1756SOL    HW2 6089   1.135   5.336  -0.049
 1757SOL     OW 6090   0.822   4.726   1.372
 1757SOL    HW1 6091   0.862   4.725   1.280
 1757SOL    HW2 6092   0.832   4.818   1.412
 1758SOL     OW 6093   0.916   4.634   0.291
 1758SOL    HW1 6094   0.979   4.672   0.223
 1758SOL    HW2 6095   0.956   4.551   0.330
 1759SOL     OW 6096   1.504   5.331   0.044
 1759SOL    HW1 6097   1.412   5.368   0.051
 1759SOL    HW2 6098   1.542   5.351  -0.046
 1760SOL     OW 6099   0.372   5.012   1.490
 1760SOL    HW1 6100   0.359   5.105   1.456
 1760SOL    HW2 6101   0.288   4.960   1.477
 1761SOL     OW 6102   1.614   5.016   1.289
 1761SOL    HW1 6103   1.674   5.019   1.369
 1761SOL    HW2 6104   1.539   5.080   1.302
 1762SOL     OW 6105   1.039   4.822   0.696
 1762SOL    HW1 6106   0.969   4.775   0.750
 1762SOL    HW2 6107   1.098   4.754   0.653
 1763SOL     OW 6108   1.014   3.960   0.971
 1763SOL    HW1 6109   1.006   3.924   0.878
 1763SOL    HW2 6110   1.012   3.884   1.036
 1764SOL     OW 6111   0.590   5.211   0.491
 1764SOL    HW1 6112   0.632   5.153   0.421
 1764SOL    HW2 6113   0.546   5.290   0.447
 1765SOL     OW 6114   1.709   4.109   1.381
 1765SOL    HW1 6115   1.782   4.178   1.385
 1765SOL    HW2 6116   1.737   4.034   1.322
 1766SOL     OW 6117   0.255   5.072   0.290
 1766SOL    HW1 6118   0.159   5.073   0.263
 1766SOL    HW2 6119   0.267   5.125   0.374
 1767SOL     OW 6120   0.105   4.737   1.726
 1767SOL    HW1 6121   0.028   4.704   1.780
 1767SOL    HW2 6122   0.190   4.707   1.768
 1768SOL     OW 6123   0.672   3.927   1.489
 1768SOL    HW1 6124   0.762   3.911   1.449
 1768SOL    HW2 6125   0.680   3.932   1.588
 1769SOL     OW 6126   0.075   4.069   0.033
 1769SOL    HW1 6127  -0.017   4.041   0.004
 1769SOL    HW2 6128   0.106   4.146  -0.023
 1770SOL     OW 6129   1.440   4.580   1.398
 1770SOL    HW1 6130   1.383   4.632   1.335
 1770SOL    HW2 6131   1.536   4.592   1.374
 1771SOL     OW 6132   0.072   3.890   0.318
 1771SOL    HW1 6133   0.055   3.973   0.264
 1771SOL    HW2 6134   0.162   3.853   0.296
 1772SOL     OW 6135   1.183   5.059   0.119
 1772SOL    HW1 6136   1.084   5.048   0.121
 1772SOL    HW2 6137   1.217   5.074   0.212
 1773SOL     OW 6138   0.613   4.566   1.431
 1773SOL    HW1 6139   0.669   4.647   1.414
 1773SOL    HW2 6140   0.672   4.486   1.434
 1774SOL     OW 6141   1.493   5.491   0.959
 1774SOL    HW1 6142   1.526   5.555   0.890
 1774SOL    HW2 6143   1.559   5.485   1.034
 1775SOL     OW 6144   0.716   4.289   1.708
 1775SOL    HW1 6145   0.735   4.354   1.782
 1775SOL    HW2 6146   0.776   4.209   1.717
 1776SOL     OW 6147   1.450   4.944   1.633
 1776SOL    HW1 6148   1.441   4.934   1.732
 1776SOL    HW2 6149   1.546   4.937   1.607
 1777SOL     OW 6150   0.390   5.465   1.560
 1777SOL    HW1 6151   0.299   5.506   1.558
 1777SOL    HW2 6152   0.383   5.371   1.592
 1778SOL     OW 6153   1.674   4.607   1.254
 1778SOL    HW1 6154   1.647   4.518   1.217
 1778SOL    HW2 6155   1.675   4.675   1.181
 1779SOL     OW 6156   1.225   4.049   0.449
 1779SOL    HW1 6157   1.290   3.975   0.438
 1779SOL    HW2 6158   1.245   4.099   0.533
 1780SOL     OW 6159   0.594   4.469   0.652
 1780SOL    HW1 6160   0.644   4.554   0.633
 1780SOL    HW2 6161   0.506   4.471   0.604
 1781SOL     OW 6162   1.777   4.066   1.642
 1781SOL    HW1 6163   1.760   4.097   1.548
 1781SOL    HW2 6164   1.693   4.029   1.680
 1782SOL     OW 6165   1.730   4.658   1.517
 1782SOL    HW1 6166   1.768   4.749   1.532
 1782SOL    HW2 6167   1.722   4.641   1.418
 1783SOL     OW 6168   0.859   5.098   0.016
 1783SOL    HW1 6169   0.813   5.113   0.104
 1783SOL    HW2 6170   0.903   5.183  -0.014
 1784SOL     OW 6171   0.661   5.514   0.953
 1784SOL    HW1 6172   0.615   5.602   0.940
 1784SOL    HW2 6173   0.760   5.526   0.946
 1785SOL     OW 6174   0.859   4.680   0.861
 1785SOL    HW1 6175   0.913   4.611   0.909
 1785SOL    HW2 6176   0.827   4.749   0.927
 1786SOL     OW 6177   1.083   4.708   0.087
 1786SOL    HW1 6178   1.060   4.761   0.005
 1786SOL    HW2 6179   1.164   4.652   0.068
 1787SOL     OW 6180   1.861   5.293   0.851
 1787SOL    HW1 6181   1.790   5.281   0.781
 1787SOL    HW2 6182   1.862   5.214   0.911
 1788SOL     OW 6183   0.221   5.038   1.844
 1788SOL    HW1 6184   0.156   4.965   1.823
 1788SOL    HW2 6185   0.225   5.052   1.942
 1789SOL     OW 6186   0.079   4.964   0.653
 1789SOL    HW1 6187   0.078   4.917   0.741
 1789SOL    HW2 6188   0.161   4.936   0.602
 1790SOL     OW 6189   0.672   5.115   1.624
 1790SOL    HW1 6190   0.594   5.065   1.662
 1790SOL    HW2 6191   0.669   5.210   1.655
 1791SOL     OW 6192   1.824   3.916   1.227
 1791SOL    HW1 6193   1.820   3.826   1.271
 1791SOL    HW2 6194   1.827   3.905   1.128
 1792SOL     OW 6195   0.428   4.148   0.520
 1792SOL    HW1 6196   0.458   4.076   0.458
 1792SOL    HW2 6197   0.389   4.108   0.603
 1793SOL     OW 6198   1.705   5.211   1.104
 1793SOL    HW1 6199   1.612   5.186   1.077
 1793SOL    HW2 6200   1.731   5.161   1.186
 1794SOL     OW 6201   0.317   4.271   1.280
 1794SOL    HW1 6202   0.355   4.212   1.352
 1794SOL    HW2 6203   0.357   4.245   1.192
 1795SOL     OW 6204   0.812   5.310   0.687
 1795SOL    HW1 6205   0.844   5.320   0.593
 1795SOL    HW2 6206   0.733   5.248   0.689
 1796SOL     OW 6207   1.424   3.938   1.112
 1796SOL    HW1 6208   1.476   3.873   1.167
 1796SOL    HW2 6209   1.375   4.001   1.173
 1797SOL     OW 6210   1.001   3.758   1.154
 1797SOL    HW1 6211   0.938   3.686   1.123
 1797SOL    HW2 6212   1.094   3.722   1.154
 1798SOL     OW 6213   0.770   5.054   0.301
 1798SOL    HW1 6214   0.724   4.967   0.318
 1798SOL    HW2 6215   0.861   5.051   0.342
 1799SOL     OW 6216   0.618   5.291   1.284
 1799SOL    HW1 6217   0.613   5.373   1.341
 1799SOL    HW2 6218   0.707   5.288   1.239
 1800SOL     OW 6219   1.352   3.776   0.168
 1800SOL    HW1 6220   1.387   3.735   0.084
 1800SOL    HW2 6221   1.262   3.738   0.188
 1801SOL     OW 6222   1.300   4.177   0.691
 1801SOL    HW1 6223   1.241   4.257   0.695
 1801SOL    HW2 6224   1.315   4.142   0.784
 1802SOL     OW 6225   1.593   3.945   0.882
 1802SOL    HW1 6226   1.509   3.944   0.936
 1802SOL    HW2 6227   1.595   4.028   0.826
 1803SOL     OW 6228   0.039   4.801   0.300
 1803SOL    HW1 6229   0.138   4.790   0.291
 1803SOL    HW2 6230  -0.001   4.715   0.332
 1804SOL     OW 6231   0.875   5.370   0.337
 1804SOL    HW1 6232   0.798   5.335   0.283
 1804SOL    HW2 6233   0.843   5.441   0.399
 1805SOL     OW 6234   0.230   4.352   1.975
 1805SOL    HW1 6235   0.137   4.350   2.012
 1805SOL    HW2 6236   0.231   4.313   1.883
 1806SOL     OW 6237   0.225   3.999   2.858
 1806SOL    HW1 6238   0.260   3.982   2.950
 1806SOL    HW2 6239   0.137   3.954   2.846
 1807SOL     OW 6240   0.019   4.092   2.509
 1807SOL    HW1 6241  -0.063   4.135   2.548
 1807SOL    HW2 6242  -0.009   4.019   2.446
 1808SOL     OW 6243   0.569   4.999   3.027
 1808SOL    HW1 6244   0.476   4.992   2.990
 1808SOL    HW2 6245   0.580   5.088   3.071
 1809SOL     OW 6246   1.555   5.235   2.565
 1809SOL    HW1 6247   1.498   5.219   2.646
 1809SOL    HW2 6248   1.496   5.245   2.485
 1810SOL     OW 6249   1.135   4.427   2.579
 1810SOL    HW1 6250   1.192   4.505   2.554
 1810SOL    HW2 6251   1.075   4.453   2.655
 1811SOL     OW 6252   1.755   4.331   2.093
 1811SOL    HW1 6253   1.743   4.318   1.994
 1811SOL    HW2 6254   1.725   4.250   2.142
 1812SOL     OW 6255   0.768   4.868   2.885
 1812SOL    HW1 6256   0.690   4.885   2.945
 1812SOL    HW2 6257   0.802   4.955   2.849
 1813SOL     OW 6258   0.850   4.522   3.685
 1813SOL    HW1 6259   0.846   4.598   3.750
 1813SOL    HW2 6260   0.872   4.558   3.594
 1814SOL     OW 6261   0.685   4.736   2.527
 1814SOL    HW1 6262   0.754   4.720   2.597
 1814SOL    HW2 6263   0.612   4.793   2.565
 1815SOL     OW 6264   0.686   4.885   3.665
 1815SOL    HW1 6265   0.746   4.964   3.679
 1815SOL    HW2 6266   0.600   4.916   3.624
 1816SOL     OW 6267   0.335   5.159   2.923
 1816SOL    HW1 6268   0.257   5.128   2.870
 1816SOL    HW2 6269   0.393   5.217   2.866
 1817SOL     OW 6270   1.460   5.229   3.201
 1817SOL    HW1 6271   1.484   5.323   3.227
 1817SOL    HW2 6272   1.444   5.175   3.283
 1818SOL     OW 6273   0.438   4.116   3.361
 1818SOL    HW1 6274   0.520   4.060   3.370
 1818SOL    HW2 6275   0.357   4.058   3.365
 1819SOL     OW 6276   1.603   4.171   2.599
 1819SOL    HW1 6277   1.529   4.217   2.549
 1819SOL    HW2 6278   1.654   4.239   2.652
 1820SOL     OW 6279   0.231   5.437   2.345
 1820SOL    HW1 6280   0.265   5.514   2.399
 1820SOL    HW2 6281   0.275   5.437   2.255
 1821SOL     OW 6282   1.127   5.065   3.552
 1821SOL    HW1 6283   1.174   5.065   3.640
 1821SOL    HW2 6284   1.079   4.978   3.541
 1822SOL     OW 6285   0.230   5.158   2.400
 1822SOL    HW1 6286   0.204   5.254   2.400
 1822SOL    HW2 6287   0.159   5.104   2.445
 1823SOL     OW 6288   0.240   4.815   2.748
 1823SOL    HW1 6289   0.254   4.731   2.800
 1823SOL    HW2 6290   0.185   4.879   2.803
 1824SOL     OW 6291   0.620   5.510   3.301
 1824SOL    HW1 6292   0.528   5.493   3.336
 1824SOL    HW2 6293   0.648   5.602   3.327
 1825SOL     OW 6294   0.606   4.688   1.985
 1825SOL    HW1 6295   0.613   4.772   1.931
 1825SOL    HW2 6296   0.652   4.701   2.073
 1826SOL     OW 6297   1.594   3.838   3.342
 1826SOL    HW1 6298   1.576   3.905   3.270
 1826SOL    HW2 6299   1.591   3.884   3.431
 1827SOL     OW 6300   0.122   4.367   2.425
 1827SOL    HW1 6301   0.077   4.279   2.442
 1827SOL    HW2 6302   0.121   4.421   2.509
 1828SOL     OW 6303   1.842   5.491   2.221
 1828SOL    HW1 6304   1.896   5.462   2.301
 1828SOL    HW2 6305   1.872   5.581   2.192
 1829SOL     OW 6306   0.027   5.320   1.979
 1829SOL    HW1 6307   0.008   5.224   2.000
 1829SOL    HW2 6308  -0.006   5.378   2.054
 1830SOL     OW 6309   1.689   4.646   2.474
 1830SOL    HW1 6310   1.784   4.617   2.482
 1830SOL    HW2 6311   1.681   4.711   2.399
 1831SOL     OW 6312   1.641   4.832   2.294
 1831SOL    HW1 6313   1.727   4.834   2.242
 1831SOL    HW2 6314   1.655   4.879   2.382
 1832SOL     OW 6315   0.113   4.461   3.459
 1832SOL    HW1 6316   0.201   4.448   3.504
 1832SOL    HW2 6317   0.100   4.558   3.437
 1833SOL     OW 6318   0.613   5.089   2.588
 1833SOL    HW1 6319   0.564   5.002   2.597
 1833SOL    HW2 6320   0.590   5.132   2.501
 1834SOL     OW 6321   1.293   4.952   3.285
 1834SOL    HW1 6322   1.330   4.879   3.227
 1834SOL    HW2 6323   1.345   4.957   3.370
 1835SOL     OW 6324   0.809   3.728   2.364
 1835SOL    HW1 6325   0.849   3.819   2.355
 1835SOL    HW2 6326   0.709   3.736   2.370
 1836SOL     OW 6327   0.197   4.700   3.126
 1836SOL    HW1 6328   0.286   4.655   3.112
 1836SOL    HW2 6329   0.124   4.635   3.107
 1837SOL     OW 6330   1.525   4.723   2.052
 1837SOL    HW1 6331   1.462   4.647   2.065
 1837SOL    HW2 6332   1.573   4.741   2.138
 1838SOL     OW 6333   1.187   5.516   3.478
 1838SOL    HW1 6334   1.211   5.576   3.402
 1838SOL    HW2 6335   1.194   5.421   3.448
 1839SOL     OW 6336   0.317   3.975   3.663
 1839SOL    HW1 6337   0.388   4.046   3.669
 1839SOL    HW2 6338   0.229   4.014   3.691
 1840SOL     OW 6339   1.466   5.141   2.815
 1840SOL    HW1 6340   1.407   5.147   2.895
 1840SOL    HW2 6341   1.451   5.053   2.769
 1841SOL     OW 6342   1.667   5.438   2.434
 1841SOL    HW1 6343   1.626   5.415   2.346
 1841SOL    HW2 6344   1.649   5.364   2.499
 1842SOL     OW 6345   0.598   4.453   2.132
 1842SOL    HW1 6346   0.622   4.522   2.064
 1842SOL    HW2 6347   0.520   4.486   2.186
 1843SOL     OW 6348   1.281   4.069   2.806
 1843SOL    HW1 6349   1.195   4.019   2.793
 1843SOL    HW2 6350   1.343   4.015   2.862
 1844SOL     OW 6351   1.576   5.386   2.169
 1844SOL    HW1 6352   1.665   5.432   2.172
 1844SOL    HW2 6353   1.555   5.362   2.074
 1845SOL     OW 6354   0.807   4.329   3.327
 1845SOL    HW1 6355   0.760   4.326   3.416
 1845SOL    HW2 6356   0.756   4.274   3.261
 1846SOL     OW 6357   1.394   4.193   3.536
 1846SOL    HW1 6358   1.374   4.236   3.624
 1846SOL    HW2 6359   1.472   4.131   3.545
 1847SOL     OW 6360   0.973   4.614   3.434
 1847SOL    HW1 6361   1.019   4.530   3.405
 1847SOL    HW2 6362   0.917   4.648   3.359
 1848SOL     OW 6363   0.991   4.134   3.104
 1848SOL    HW1 6364   0.914   4.168   3.158
 1848SOL    HW2 6365   0.957   4.083   3.025
 1849SOL     OW 6366   1.041   4.425   2.291
 1849SOL    HW1 6367   1.067   4.421   2.387
 1849SOL    HW2 6368   0.956   4.374   2.277
 1850SOL     OW 6369   0.076   4.535   2.651
 1850SOL    HW1 6370   0.175   4.523   2.660
 1850SOL    HW2 6371   0.052   4.630   2.672
 1851SOL     OW 6372   0.130   5.545   3.433
 1851SOL    HW1 6373   0.120   5.530   3.532
 1851SOL    HW2 6374   0.044   5.581   3.397
 1852SOL     OW 6375   0.865   4.072   2.057
 1852SOL    HW1 6376   0.924   4.135   2.008
 1852SOL    HW2 6377   0.884   3.978   2.028
 1853SOL     OW 6378   1.719   4.309   3.693
 1853SOL    HW1 6379   1.693   4.398   3.657
 1853SOL    HW2 6380   1.717   4.241   3.620
 1854SOL     OW 6381   1.362   4.868   2.407
 1854SOL    HW1 6382   1.445   4.839   2.359
 1854SOL    HW2 6383   1.313   4.935   2.351
 1855SOL     OW 6384   0.550   3.920   2.747
 1855SOL    HW1 6385   0.545   3.915   2.847
 1855SOL    HW2 6386   0.552   4.016   2.718
 1856SOL     OW 6387   1.008   5.180   2.339
 1856SOL    HW1 6388   0.962   5.252   2.287
 1856SOL    HW2 6389   1.004   5.200   2.437
 1857SOL     OW 6390   0.351   5.525   2.715
 1857SOL    HW1 6391   0.401   5.439   2.721
 1857SOL    HW2 6392   0.416   5.602   2.712
 1858SOL     OW 6393   1.795   4.790   2.735
 1858SOL    HW1 6394   1.733   4.775   2.659
 1858SOL    HW2 6395   1.743   4.801   2.820
 1859SOL     OW 6396   1.227   5.274   3.368
 1859SOL    HW1 6397   1.233   5.197   3.432
 1859SOL    HW2 6398   1.175   5.248   3.288
 1860SOL     OW 6399   0.321   4.667   2.104
 1860SOL    HW1 6400   0.403   4.706   2.062
 1860SOL    HW2 6401   0.294   4.585   2.055
 1861SOL     OW 6402   1.458   4.459   2.590
 1861SOL    HW1 6403   1.453   4.394   2.665
 1861SOL    HW2 6404   1.538   4.518   2.603
 1862SOL     OW 6405   0.461   4.990   3.589
 1862SOL    HW1 6406   0.411   4.991   3.503
 1862SOL    HW2 6407   0.398   4.972   3.665
 1863SOL     OW 6408   1.111   5.500   2.099
 1863SOL    HW1 6409   1.051   5.438   2.149
 1863SOL    HW2 6410   1.142   5.456   2.014
 1864SOL     OW 6411   0.202   4.009   3.360
 1864SOL    HW1 6412   0.122   4.069   3.347
 1864SOL    HW2 6413   0.192   3.960   3.446
 1865SOL     OW 6414   1.632   5.101   1.943
 1865SOL    HW1 6415   1.600   5.195   1.933
 1865SOL    HW2 6416   1.556   5.038   1.931
 1866SOL     OW 6417   0.464   5.467   2.185
 1866SOL    HW1 6418   0.497   5.506   2.271
 1866SOL    HW2 6419   0.540   5.460   2.120
 1867SOL     OW 6420   1.400   3.831   2.288
 1867SOL    HW1 6421   1.376   3.794   2.198
 1867SOL    HW2 6422   1.499   3.847   2.292
 1868SOL     OW 6423   0.249   5.509   3.103
 1868SOL    HW1 6424   0.306   5.444   3.153
 1868SOL    HW2 6425   0.233   5.476   3.010
 1869SOL     OW 6426   0.940   5.422   2.766
 1869SOL    HW1 6427   1.020   5.365   2.787
 1869SOL    HW2 6428   0.891   5.382   2.689
 1870SOL     OW 6429   0.382   4.424   2.342
 1870SOL    HW1 6430   0.427   4.334   2.339
 1870SOL    HW2 6431   0.288   4.413   2.375
 1871SOL     OW 6432   1.547   3.946   3.591
 1871SOL    HW1 6433   1.542   3.983   3.683
 1871SOL    HW2 6434   1.475   3.877   3.579
 1872SOL     OW 6435   0.614   3.846   1.979
 1872SOL    HW1 6436   0.712   3.824   1.986
 1872SOL    HW2 6437   0.583   3.829   1.886
 1873SOL     OW 6438   0.781   3.988   3.611
 1873SOL    HW1 6439   0.848   3.927   3.654
 1873SOL    HW2 6440   0.708   4.007   3.676
 1874SOL     OW 6441   0.888   5.238   3.057
 1874SOL    HW1 6442   0.865   5.213   2.963
 1874SOL    HW2 6443   0.949   5.169   3.096
 1875SOL     OW 6444   1.351   4.314   3.295
 1875SOL    HW1 6445   1.379   4.271   3.380
 1875SOL    HW2 6446   1.376   4.410   3.296
 1876SOL     OW 6447   0.803   5.126   2.786
 1876SOL    HW1 6448   0.893   5.140   2.744
 1876SOL    HW2 6449   0.732   5.128   2.715
 1877SOL     OW 6450   0.922   4.227   2.761
 1877SOL    HW1 6451   0.897   4.218   2.665
 1877SOL    HW2 6452   0.970   4.145   2.792
 1878SOL     OW 6453   0.539   3.788   2.374
 1878SOL    HW1 6454   0.458   3.789   2.432
 1878SOL    HW2 6455   0.542   3.871   2.319
 1879SOL     OW 6456   1.434   4.912   1.903
 1879SOL    HW1 6457   1.466   4.836   1.960
 1879SOL    HW2 6458   1.342   4.939   1.933
 1880SOL     OW 6459   0.297   3.759   2.033
 1880SOL    HW1 6460   0.346   3.843   2.012
 1880SOL    HW2 6461   0.359   3.694   2.078
 1881SOL     OW 6462   0.935   3.960   2.342
 1881SOL    HW1 6463   0.887   4.001   2.264
 1881SOL    HW2 6464   1.034   3.958   2.323
 1882SOL     OW 6465   1.076   4.407   3.326
 1882SOL    HW1 6466   0.996   4.346   3.329
 1882SOL    HW2 6467   1.157   4.354   3.302
 1883SOL     OW 6468   1.227   5.294   2.655
 1883SOL    HW1 6469   1.248   5.368   2.590
 1883SOL    HW2 6470   1.295   5.294   2.728
 1884SOL     OW 6471   0.459   4.876   2.603
 1884SOL    HW1 6472   0.388   4.849   2.668
 1884SOL    HW2 6473   0.433   4.848   2.510
 1885SOL     OW 6474   1.271   5.521   2.453
 1885SOL    HW1 6475   1.315   5.585   2.389
 1885SOL    HW2 6476   1.221   5.573   2.523
 1886SOL     OW 6477   1.032   4.273   1.878
 1886SOL    HW1 6478   0.991   4.355   1.839
 1886SOL    HW2 6479   1.096   4.299   1.951
 1887SOL     OW 6480   0.078   4.280   3.248
 1887SOL    HW1 6481   0.170   4.279   3.207
 1887SOL    HW2 6482   0.072   4.354   3.315
 1888SOL     OW 6483   0.561   3.946   3.009
 1888SOL    HW1 6484   0.599   3.862   3.046
 1888SOL    HW2 6485   0.473   3.965   3.053
 1889SOL     OW 6486   0.866   4.178   2.504
 1889SOL    HW1 6487   0.834   4.250   2.442
 1889SOL    HW2 6488   0.890   4.097   2.451
 1890SOL     OW 6489   1.017   3.763   2.615
 1890SOL    HW1 6490   0.945   3.768   2.546
 1890SOL    HW2 6491   0.993   3.694   2.684
 1891SOL     OW 6492   1.429   4.897   2.729
 1891SOL    HW1 6493   1.374   4.813   2.722
 1891SOL    HW2 6494   1.455   4.926   2.637
 1892SOL     OW 6495   1.466   4.314   2.854
 1892SOL    HW1 6496   1.436   4.219   2.861
 1892SOL    HW2 6497   1.539   4.330   2.920
 1893SOL     OW 6498   1.857   4.557   2.239
 1893SOL    HW1 6499   1.899   4.493   2.303
 1893SOL    HW2 6500   1.819   4.506   2.161
 1894SOL     OW 6501   0.488   5.109   2.036
 1894SOL    HW1 6502   0.401   5.094   2.083
 1894SOL    HW2 6503   0.471   5.135   1.941
 1895SOL     OW 6504   1.664   5.004   2.519
 1895SOL    HW1 6505   1.763   5.012   2.533
 1895SOL    HW2 6506   1.619   5.088   2.550
 1896SOL     OW 6507   1.390   4.299   1.940
 1896SOL    HW1 6508   1.336   4.278   2.021
 1896SOL    HW2 6509   1.481   4.258   1.949
 1897SOL     OW 6510   0.527   3.980   2.190
 1897SOL    HW1 6511   0.554   3.921   2.115
 1897SOL    HW2 6512   0.527   4.075   2.159
 1898SOL     OW 6513   1.754   4.947   3.450
 1898SOL    HW1 6514   1.845   4.908   3.437
 1898SOL    HW2 6515   1.762   5.043   3.474
 1899SOL     OW 6516   1.064   5.071   3.202
 1899SOL    HW1 6517   0.984   5.048   3.257
 1899SOL    HW2 6518   1.147   5.045   3.251
 1900SOL     OW 6519   1.592   5.353   3.487
 1900SOL    HW1 6520   1.619   5.387   3.397
 1900SOL    HW2 6521   1.671   5.315   3.533
 1901SOL     OW 6522   1.111   4.919   2.962
 1901SOL    HW1 6523   1.071   4.963   3.043
 1901SOL    HW2 6524   1.070   4.956   2.879
 1902SOL     OW 6525   1.638   4.823   2.941
 1902SOL    HW1 6526   1.643   4.904   3.000
 1902SOL    HW2 6527   1.552   4.825   2.890
 1903SOL     OW 6528   0.915   3.813   3.264
 1903SOL    HW1 6529   0.940   3.793   3.169
 1903SOL    HW2 6530   0.987   3.869   3.306
 1904SOL     OW 6531   0.980   4.840   3.581
 1904SOL    HW1 6532   0.881   4.846   3.591
 1904SOL    HW2 6533   1.003   4.760   3.525
 1905SOL     OW 6534   0.705   4.774   2.230
 1905SOL    HW1 6535   0.691   4.781   2.329
 1905SOL    HW2 6536   0.789   4.723   2.212
 1906SOL     OW 6537   0.410   4.537   3.113
 1906SOL    HW1 6538   0.496   4.549   3.163
 1906SOL    HW2 6539   0.368   4.450   3.140
 1907SOL     OW 6540   1.274   4.110   3.124
 1907SOL    HW1 6541   1.295   4.184   3.188
 1907SOL    HW2 6542   1.185   4.127   3.081
 1908SOL     OW 6543   0.064   5.288   3.193
 1908SOL    HW1 6544   0.018   5.370   3.159
 1908SOL    HW2 6545   0.162   5.307   3.202
 1909SOL     OW 6546   0.367   4.824   2.363
 1909SOL    HW1 6547   0.360   4.907   2.307
 1909SOL    HW2 6548   0.371   4.744   2.303
 1910SOL     OW 6549   0.566   4.261   2.727
 1910SOL    HW1 6550   0.578   4.327   2.653
 1910SOL    HW2 6551   0.612   4.295   2.810
 1911SOL     OW 6552   1.252   5.072   2.250
 1911SOL    HW1 6553   1.302   5.149   2.290
 1911SOL    HW2 6554   1.157   5.074   2.282
 1912SOL     OW 6555   1.272   5.169   3.004
 1912SOL    HW1 6556   1.319   5.182   3.091
 1912SOL    HW2 6557   1.206   5.095   3.013
 1913SOL     OW 6558   1.582   4.363   2.334
 1913SOL    HW1 6559   1.551   4.424   2.407
 1913SOL    HW2 6560   1.632   4.415   2.265
 1914SOL     OW 6561   0.354   5.234   3.191
 1914SOL    HW1 6562   0.333   5.190   3.104
 1914SOL    HW2 6563   0.451   5.260   3.194
 1915SOL     OW 6564   0.402   4.475   3.460
 1915SOL    HW1 6565   0.470   4.530   3.413
 1915SOL    HW2 6566   0.442   4.387   3.487
 1916SOL     OW 6567   1.587   4.503   3.532
 1916SOL    HW1 6568   1.495   4.541   3.527
 1916SOL    HW2 6569   1.647   4.550   3.467
 1917SOL     OW 6570   1.013   3.829   3.632
 1917SOL    HW1 6571   1.019   3.914   3.580
 1917SOL    HW2 6572   1.045   3.753   3.575
 1918SOL     OW 6573   0.504   3.774   3.602
 1918SOL    HW1 6574   0.462   3.717   3.532
 1918SOL    HW2 6575   0.438   3.843   3.634
 1919SOL     OW 6576   0.573   4.594   2.891
 1919SOL    HW1 6577   0.617   4.683   2.882
 1919SOL    HW2 6578   0.510   4.594   2.968
 1920SOL     OW 6579   1.360   4.586   2.907
 1920SOL    HW1 6580   1.285   4.586   2.841
 1920SOL    HW2 6581   1.397   4.494   2.916
 1921SOL     OW 6582   1.209   4.249   2.137
 1921SOL    HW1 6583   1.222   4.165   2.191
 1921SOL    HW2 6584   1.180   4.323   2.197
 1922SOL     OW 6585   0.307   3.937   3.093
 1922SOL    HW1 6586   0.284   3.974   3.183
 1922SOL    HW2 6587   0.277   3.842   3.087
 1923SOL     OW 6588   0.037   5.034   3.144
 1923SOL    HW1 6589   0.090   4.985   3.212
 1923SOL    HW2 6590   0.059   5.132   3.149
 1924SOL     OW 6591   0.732   4.358   2.926
 1924SOL    HW1 6592   0.791   4.332   2.850
 1924SOL    HW2 6593   0.704   4.454   2.915
 1925SOL     OW 6594   1.728   4.659   3.716
 1925SOL    HW1 6595   1.682   4.652   3.627
 1925SOL    HW2 6596   1.666   4.703   3.782
 1926SOL     OW 6597   0.307   3.787   2.480
 1926SOL    HW1 6598   0.296   3.881   2.513
 1926SOL    HW2 6599   0.302   3.724   2.557
 1927SOL     OW 6600   1.622   4.091   2.236
 1927SOL    HW1 6601   1.624   4.015   2.300
 1927SOL    HW2 6602   1.574   4.168   2.276
 1928SOL     OW 6603   1.023   4.490   2.828
 1928SOL    HW1 6604   1.038   4.511   2.924
 1928SOL    HW2 6605   0.993   4.395   2.819
 1929SOL     OW 6606   0.980   5.297   3.562
 1929SOL    HW1 6607   0.960   5.341   3.474
 1929SOL    HW2 6608   1.019   5.206   3.546
 1930SOL     OW 6609   1.859   5.242   3.467
 1930SOL    HW1 6610   1.873   5.269   3.372
 1930SOL    HW2 6611   1.942   5.264   3.520
 1931SOL     OW 6612   0.350   4.622   3.666
 1931SOL    HW1 6613   0.426   4.666   3.714
 1931SOL    HW2 6614   0.385   4.575   3.584
 1932SOL     OW 6615   1.540   3.998   1.987
 1932SOL    HW1 6616   1.479   3.923   2.010
 1932SOL    HW2 6617   1.562   4.050   2.070
 1933SOL     OW 6618   1.303   4.562   1.904
 1933SOL    HW1 6619   1.337   4.469   1.919
 1933SOL    HW2 6620   1.321   4.589   1.809
 1934SOL     OW 6621   1.068   5.057   2.711
 1934SOL    HW1 6622   1.075   4.973   2.656
 1934SOL    HW2 6623   1.130   5.126   2.675
 1935SOL     OW 6624   0.319   4.534   2.811
 1935SOL    HW1 6625   0.412   4.570   2.816
 1935SOL    HW2 6626   0.313   4.449   2.863
 1936SOL     OW 6627   0.339   4.233   2.868
 1936SOL    HW1 6628   0.287   4.150   2.851
 1936SOL    HW2 6629   0.416   4.238   2.804
 1937SOL     OW 6630   1.138   4.104   3.540
 1937SOL    HW1 6631   1.093   4.167   3.604
 1937SOL    HW2 6632   1.231   4.135   3.523
 1938SOL     OW 6633   1.160   3.931   3.339
 1938SOL    HW1 6634   1.160   3.995   3.416
 1938SOL    HW2 6635   1.188   3.979   3.256
 1939SOL     OW 6636   0.008   5.050   2.062
 1939SOL    HW1 6637  -0.085   5.071   2.031
 1939SOL    HW2 6638   0.018   4.951   2.075
 1940SOL     OW 6639   0.088   5.525   2.789
 1940SOL    HW1 6640   0.046   5.439   2.762
 1940SOL    HW2 6641   0.182   5.528   2.755
 1941SOL     OW 6642   0.504   5.292   2.772
 1941SOL    HW1 6643   0.570   5.366   2.781
 1941SOL    HW2 6644   0.548   5.213   2.730
 1942SOL     OW 6645   1.002   4.520   3.100
 1942SOL    HW1 6646   1.043   4.488   3.186
 1942SOL    HW2 6647   0.906   4.493   3.097
 1943SOL     OW 6648   0.040   4.268   2.976
 1943SOL    HW1 6649   0.125   4.235   2.935
 1943SOL    HW2 6650   0.053   4.283   3.074
 1944SOL     OW 6651   0.189   4.244   3.584
 1944SOL    HW1 6652   0.248   4.204   3.514
 1944SOL    HW2 6653   0.131   4.315   3.543
 1945SOL     OW 6654   1.369   4.674   3.522
 1945SOL    HW1 6655   1.408   4.763   3.542
 1945SOL    HW2 6656   1.379   4.654   3.425
 1946SOL     OW 6657   0.815   4.296   2.187
 1946SOL    HW1 6658   0.822   4.207   2.141
 1946SOL    HW2 6659   0.721   4.330   2.179
 1947SOL     OW 6660   1.657   4.328   3.068
 1947SOL    HW1 6661   1.619   4.259   3.130
 1947SOL    HW2 6662   1.739   4.292   3.024
 1948SOL     OW 6663   0.252   5.288   3.606
 1948SOL    HW1 6664   0.222   5.345   3.682
 1948SOL    HW2 6665   0.245   5.191   3.632
 1949SOL     OW 6666   0.671   4.188   3.131
 1949SOL    HW1 6667   0.637   4.099   3.101
 1949SOL    HW2 6668   0.697   4.242   3.051
 1950SOL     OW 6669   0.930   5.402   3.327
 1950SOL    HW1 6670   0.906   5.384   3.232
 1950SOL    HW2 6671   0.960   5.496   3.337
 1951SOL     OW 6672   0.473   4.224   2.053
 1951SOL    HW1 6673   0.534   4.304   2.057
 1951SOL    HW2 6674   0.378   4.255   2.060
 1952SOL     OW 6675   0.159   4.861   3.328
 1952SOL    HW1 6676   0.181   4.800   3.404
 1952SOL    HW2 6677   0.169   4.812   3.242
 1953SOL     OW 6678   1.347   4.783   3.096
 1953SOL    HW1 6679   1.371   4.720   3.022
 1953SOL    HW2 6680   1.257   4.823   3.078
 1954SOL     OW 6681   1.302   4.579   2.171
 1954SOL    HW1 6682   1.216   4.548   2.213
 1954SOL    HW2 6683   1.298   4.565   2.072
 1955SOL     OW 6684   1.759   5.471   3.016
 1955SOL    HW1 6685   1.820   5.501   2.943
 1955SOL    HW2 6686   1.721   5.382   2.994
 1956SOL     OW 6687   1.252   5.455   2.990
 1956SOL    HW1 6688   1.336   5.460   2.936
 1956SOL    HW2 6689   1.229   5.359   3.008
 1957SOL     OW 6690   0.083   4.982   2.884
 1957SOL    HW1 6691   0.078   4.981   2.984
 1957SOL    HW2 6692   0.000   4.941   2.846
 1958SOL     OW 6693   0.688   5.386   3.578
 1958SOL    HW1 6694   0.632   5.467   3.587
 1958SOL    HW2 6695   0.740   5.390   3.492
 1959SOL     OW 6696   1.388   5.297   2.339
 1959SOL    HW1 6697   1.455   5.309   2.265
 1959SOL    HW2 6698   1.348   5.386   2.362
 1960SOL     OW 6699   0.130   5.518   3.713
 1960SOL    HW1 6700   0.089   5.444   3.766
 1960SOL    HW2 6701   0.194   5.569   3.771
 1961SOL     OW 6702   1.280   4.651   2.534
 1961SOL    HW1 6703   1.340   4.570   2.536
 1961SOL    HW2 6704   1.320   4.720   2.474
 1962SOL     OW 6705   0.830   4.997   3.284
 1962SOL    HW1 6706   0.825   5.030   3.379
 1962SOL    HW2 6707   0.744   5.016   3.238
 1963SOL     OW 6708   0.672   5.340   2.016
 1963SOL    HW1 6709   0.681   5.350   1.917
 1963SOL    HW2 6710   0.632   5.251   2.037
 1964SOL     OW 6711   1.650   5.444   3.256
 1964SOL    HW1 6712   1.703   5.454   3.172
 1964SOL    HW2 6713   1.623   5.534   3.290
 1965SOL     OW 6714   1.841   3.899   2.825
 1965SOL    HW1 6715   1.880   3.814   2.789
 1965SOL    HW2 6716   1.743   3.901   2.806
 1966SOL     OW 6717   0.263   4.050   2.582
 1966SOL    HW1 6718   0.184   4.101   2.548
 1966SOL    HW2 6719   0.254   4.035   2.680
 1967SOL     OW 6720   1.194   5.336   1.893
 1967SOL    HW1 6721   1.200   5.243   1.930
 1967SOL    HW2 6722   1.135   5.336   1.813
 1968SOL     OW 6723   0.822   4.726   3.234
 1968SOL    HW1 6724   0.862   4.725   3.142
 1968SOL    HW2 6725   0.832   4.818   3.274
 1969SOL     OW 6726   0.916   4.634   2.153
 1969SOL    HW1 6727   0.979   4.672   2.085
 1969SOL    HW2 6728   0.956   4.551   2.192
 1970SOL     OW 6729   1.504   5.331   1.906
 1970SOL    HW1 6730   1.412   5.368   1.913
 1970SOL    HW2 6731   1.542   5.351   1.816
 1971SOL     OW 6732   0.372   5.012   3.352
 1971SOL    HW1 6733   0.359   5.105   3.318
 1971SOL    HW2 6734   0.288   4.960   3.339
 1972SOL     OW 6735   1.614   5.016   3.151
 1972SOL    HW1 6736   1.674   5.019   3.231
 1972SOL    HW2 6737   1.539   5.080   3.164
 1973SOL     OW 6738   1.039   4.822   2.558
 1973SOL    HW1 6739   0.969   4.775   2.612
 1973SOL    HW2 6740   1.098   4.754   2.515
 1974SOL     OW 6741   1.014   3.960   2.833
 1974SOL    HW1 6742   1.006   3.924   2.740
 1974SOL    HW2 6743   1.012   3.884   2.898
 1975SOL     OW 6744   0.590   5.211   2.353
 1975SOL    HW1 6745   0.632   5.153   2.283
 1975SOL    HW2 6746   0.546   5.290   2.309
 1976SOL     OW 6747   1.709   4.109   3.243
 1976SOL    HW1 6748   1.782   4.178   3.247
 1976SOL    HW2 6749   1.737   4.034   3.184
 1977SOL     OW 6750   0.255   5.072   2.152
 1977SOL    HW1 6751   0.159   5.073   2.125
 1977SOL    HW2 6752   0.267   5.125   2.236
 1978SOL     OW 6753   0.105   4.737   3.588
 1978SOL    HW1 6754   0.028   4.704   3.642
 1978SOL    HW2 6755   0.190   4.707   3.630
 1979SOL     OW 6756   0.672   3.927   3.351
 1979SOL    HW1 6757   0.762   3.911   3.311
 1979SOL    HW2 6758   0.680   3.932   3.450
 1980SOL     OW 6759   0.075   4.069   1.895
 1980SOL    HW1 6760  -0.017   4.041   1.866
 1980SOL    HW2 6761   0.106   4.146   1.839
 1981SOL     OW 6762   1.440   4.580   3.260
 1981SOL    HW1 6763   1.383   4.632   3.197
 1981SOL    HW2 6764   1.536   4.592   3.236
 1982SOL     OW 6765   0.072   3.890   2.180
 1982SOL    HW1 6766   0.055   3.973   2.126
 1982SOL    HW2 6767   0.162   3.853   2.158
 1983SOL     OW 6768   1.183   5.059   1.981
 1983SOL    HW1 6769   1.084   5.048   1.983
 1983SOL    HW2 6770   1.217   5.074   2.074
 1984SOL     OW 6771   0.613   4.566   3.293
 1984SOL    HW1 6772   0.669   4.647   3.276
 1984SOL    HW2 6773   0.672   4.486   3.296
 1985SOL     OW 6774   1.493   5.491   2.821
 1985SOL    HW1 6775   1.526   5.555   2.752
 1985SOL    HW2 6776   1.559   5.485   2.896
 1986SOL     OW 6777   0.716   4.289   3.570
 1986SOL    HW1 6778   0.735   4.354   3.644
 1986SOL    HW2 6779   0.776   4.209   3.579
 1987SOL     OW 6780   1.450   4.944   3.495
 1987SOL    HW1 6781   1.441   4.934   3.594
 1987SOL    HW2 6782   1.546   4.937   3.469
 1988SOL     OW 6783   0.390   5.465   3.422
 1988SOL    HW1 6784   0.299   5.506   3.420
 1988SOL    HW2 6785   0.383   5.371   3.454
 1989SOL     OW 6786   1.674   4.607   3.116
 1989SOL    HW1 6787   1.647   4.518   3.079
 1989SOL    HW2 6788   1.675   4.675   3.043
 1990SOL     OW 6789   1.225   4.049   2.311
 1990SOL    HW1 6790   1.290   3.975   2.300
 1990SOL    HW2 6791   1.245   4.099   2.395
 1991SOL     OW 6792   0.594   4.469   2.514
 1991SOL    HW1 6793   0.644   4.554   2.495
 1991SOL    HW2 6794   0.506   4.471   2.466
 1992SOL     OW 6795   1.777   4.066   3.504
 1992SOL    HW1 6796   1.760   4.097   3.410
 1992SOL    HW2 6797   1.693   4.029   3.542
 1993SOL     OW 6798   1.730   4.658   3.379
 1993SOL    HW1 6799   1.768   4.749   3.394
 1993SOL    HW2 6800   1.722   4.641   3.280
 1994SOL     OW 6801   0.859   5.098   1.878
 1994SOL    HW1 6802   0.813   5.113   1.966
 1994SOL    HW2 6803   0.903   5.183   1.848
 1995SOL     OW 6804   0.661   5.514   2.815
 1995SOL    HW1 6805   0.615   5.602   2.802
 1995SOL    HW2 6806   0.760   5.526   2.808
 1996SOL     OW 6807   0.859   4.680   2.723
 1996SOL    HW1 6808   0.913   4.611   2.771
 1996SOL    HW2 6809   0.827   4.749   2.789
 1997SOL     OW 6810   1.083   4.708   1.949
 1997SOL    HW1 6811   1.060   4.761   1.867
 1997SOL    HW2 6812   1.164   4.652   1.930
 1998SOL     OW 6813   1.861   5.293   2.713
 1998SOL    HW1 6814   1.790   5.281   2.643
 1998SOL    HW2 6815   1.862   5.214   2.773
 1999SOL     OW 6816   0.221   5.038   3.706
 1999SOL    HW1 6817   0.156   4.965   3.685
 1999SOL    HW2 6818   0.225   5.052   3.804
 2000SOL     OW 6819   0.079   4.964   2.515
 2000SOL    HW1 6820   0.078   4.917   2.603
 2000SOL    HW2 6821   0.161   4.936   2.464
 2001SOL     OW 6822   0.672   5.115   3.486
 2001SOL    HW1 6823   0.594   5.065   3.524
 2001SOL    HW2 6824   0.669   5.210   3.517
 2002SOL     OW 6825   1.824   3.916   3.089
 2002SOL    HW1 6826   1.820   3.826   3.133
 2002SOL    HW2 6827   1.827   3.905   2.990
 2003SOL     OW 6828   0.428   4.148   2.382
 2003SOL    HW1 6829   0.458   4.076   2.320
 2003SOL    HW2 6830   0.389   4.108   2.465
 2004SOL     OW 6831   1.705   5.211   2.966
 2004SOL    HW1 6832   1.612   5.186   2.939
 2004SOL    HW2 6833   1.731   5.161   3.048
 2005SOL     OW 6834   0.317   4.271   3.142
 2005SOL    HW1 6835   0.355   4.212   3.214
 2005SOL    HW2 6836   0.357   4.245   3.054
 2006SOL     OW 6837   0.812   5.310   2.549
 2006SOL    HW1 6838   0.844   5.320   2.455
 2006SOL    HW2 6839   0.733   5.248   2.551
 2007SOL     OW 6840   1.424   3.938   2.974
 2007SOL    HW1 6841   1.476   3.873   3.029
 2007SOL    HW2 6842   1.375   4.001   3.035
 2008SOL     OW 6843   1.001   3.758   3.016
 2008SOL    HW1 6844   0.938   3.686   2.985
 2008SOL    HW2 6845   1.094   3.722   3.016
 2009SOL     OW 6846   0.770   5.054   2.163
 2009SOL    HW1 6847   0.724   4.967   2.180
 2009SOL    HW2 6848   0.861   5.051   2.204
 2010SOL     OW 6849   0.618   5.291   3.146
 2010SOL    HW1 6850   0.613   5.373   3.203
 2010SOL    HW2 6851   0.707   5.288   3.101
 2011SOL     OW 6852   1.352   3.776   2.030
 2011SOL    HW1 6853   1.387   3.735   1.946
 2011SOL    HW2 6854   1.262   3.738   2.050
 2012SOL     OW 6855   1.300   4.177   2.553
 2012SOL    HW1 6856   1.241   4.257   2.557
 2012SOL    HW2 6857   1.315   4.142   2.646
 2013SOL     OW 6858   1.593   3.945   2.744
 2013SOL    HW1 6859   1.509   3.944   2.798
 2013SOL    HW2 6860   1.595   4.028   2.688
 2014SOL     OW 6861   0.039   4.801   2.162
 2014SOL    HW1 6862   0.138   4.790   2.153
 2014SOL    HW2 6863  -0.001   4.715   2.194
 2015SOL     OW 6864   0.875   5.370   2.199
 2015SOL    HW1 6865   0.798   5.335   2.145
 2015SOL    HW2 6866   0.843   5.441   2.261
 2016SOL     OW 6867   0.230   4.352   3.837
 2016SOL    HW1 6868   0.137   4.350   3.874
 2016SOL    HW2 6869   0.231   4.313   3.745
 2017SOL     OW 6870   0.225   3.999   4.720
 2017SOL    HW1 6871   0.260   3.982   4.812
 2017SOL    HW2 6872   0.137   3.954   4.708
 2018SOL     OW 6873   0.019   4.092   4.371
 2018SOL    HW1 6874  -0.063   4.135   4.410
 2018SOL    HW2 6875  -0.009   4.019   4.308
 2019SOL     OW 6876   0.569   4.999   4.889
 2019SOL    HW1 6877   0.476   4.992   4.852
 2019SOL    HW2 6878   0.580   5.088   4.933
 2020SOL     OW 6879   1.555   5.235   4.427
 2020SOL    HW1 6880   1.498   5.219   4.508
 2020SOL    HW2 6881   1.496   5.245   4.347
 2021SOL     OW 6882   1.135   4.427   4.441
 2021SOL    HW1 6883   1.192   4.505   4.416
 2021SOL    HW2 6884   1.075   4.453   4.517
 2022SOL     OW 6885   1.755   4.331   3.955
 2022SOL    HW1 6886   1.743   4.318   3.856
 2022SOL    HW2 6887   1.725   4.250   4.004
 2023SOL     OW 6888   0.768   4.868   4.747
 2023SOL    HW1 6889   0.690   4.885   4.807
 2023SOL    HW2 6890   0.802   4.955   4.711
 2024SOL     OW 6891   0.850   4.522   5.547
 2024SOL    HW1 6892   0.846   4.598   5.612
 2024SOL    HW2 6893   0.872   4.558   5.456
 2025SOL     OW 6894   0.685   4.736   4.389
 2025SOL    HW1 6895   0.754   4.720   4.459
 2025SOL    HW2 6896   0.612   4.793   4.427
 2026SOL     OW 6897   0.686   4.885   5.527
 2026SOL    HW1 6898   0.746   4.964   5.541
 2026SOL    HW2 6899   0.600   4.916   5.486
 2027SOL     OW 6900   0.335   5.159   4.785
 2027SOL    HW1 6901   0.257   5.128   4.732
 2027SOL    HW2 6902   0.393   5.217   4.728
 2028SOL     OW 6903   1.460   5.229   5.063
 2028SOL    HW1 6904   1.484   5.323   5.089
 2028SOL    HW2 6905   1.444   5.175   5.145
 2029SOL     OW 6906   0.438   4.116   5.223
 2029SOL    HW1 6907   0.520   4.060   5.232
 2029SOL    HW2 6908   0.357   4.058   5.227
 2030SOL     OW 6909   1.603   4.171   4.461
 2030SOL    HW1 6910   1.529   4.217   4.411
 2030SOL    HW2 6911   1.654   4.239   4.514
 2031SOL     OW 6912   0.231   5.437   4.207
 2031SOL    HW1 6913   0.265   5.514   4.261
 2031SOL    HW2 6914   0.275   5.437   4.117
 2032SOL     OW 6915   1.127   5.065   5.414
 2032SOL    HW1 6916   1.174   5.065   5.502
 2032SOL    HW2 6917   1.079   4.978   5.403
 2033SOL     OW 6918   0.230   5.158   4.262
 2033SOL    HW1 6919   0.204   5.254   4.262
 2033SOL    HW2 6920   0.159   5.104   4.307
 2034SOL     OW 6921   0.240   4.815   4.610
 2034SOL    HW1 6922   0.254   4.731   4.662
 2034SOL    HW2 6923   0.185   4.879   4.665
 2035SOL     OW 6924   0.620   5.510   5.163
 2035SOL    HW1 6925   0.528   5.493   5.198
 2035SOL    HW2 6926   0.648   5.602   5.189
 2036SOL     OW 6927   0.606   4.688   3.847
 2036SOL    HW1 6928   0.613   4.772   3.793
 2036SOL    HW2 6929   0.652   4.701   3.935
 2037SOL     OW 6930   1.594   3.838   5.204
 2037SOL    HW1 6931   1.576   3.905   5.132
 2037SOL    HW2 6932   1.591   3.884   5.293
 2038SOL     OW 6933   0.122   4.367   4.287
 2038SOL    HW1 6934   0.077   4.279   4.304
 2038SOL    HW2 6935   0.121   4.421   4.371
 2039SOL     OW 6936   1.842   5.491   4.083
 2039SOL    HW1 6937   1.896   5.462   4.163
 2039SOL    HW2 6938   1.872   5.581   4.054
 2040SOL     OW 6939   0.027   5.320   3.841
 2040SOL    HW1 6940   0.008   5.224   3.862
 2040SOL    HW2 6941  -0.006   5.378   3.916
 2041SOL     OW 6942   1.689   4.646   4.336
 2041SOL    HW1 6943   1.784   4.617   4.344
 2041SOL    HW2 6944   1.681   4.711   4.261
 2042SOL     OW 6945   1.641   4.832   4.156
 2042SOL    HW1 6946   1.727   4.834   4.104
 2042SOL    HW2 6947   1.655   4.879   4.244
 2043SOL     OW 6948   0.113   4.461   5.321
 2043SOL    HW1 6949   0.201   4.448   5.366
 2043SOL    HW2 6950   0.100   4.558   5.299
 2044SOL     OW 6951   0.613   5.089   4.450
 2044SOL    HW1 6952   0.564   5.002   4.459
 2044SOL    HW2 6953   0.590   5.132   4.363
 2045SOL     OW 6954   1.293   4.952   5.147
 2045SOL    HW1 6955   1.330   4.879   5.089
 2045SOL    HW2 6956   1.345   4.957   5.232
 2046SOL     OW 6957   0.809   3.728   4.226
 2046SOL    HW1 6958   0.849   3.819   4.217
 2046SOL    HW2 6959   0.709   3.736   4.232
 2047SOL     OW 6960   0.197   4.700   4.988
 2047SOL    HW1 6961   0.286   4.655   4.974
 2047SOL    HW2 6962   0.124   4.635   4.969
 2048SOL     OW 6963   1.525   4.723   3.914
 2048SOL    HW1 6964   1.462   4.647   3.927
 2048SOL    HW2 6965   1.573   4.741   4.000
 2049SOL     OW 6966   1.187   5.516   5.340
 2049SOL    HW1 6967   1.211   5.576   5.264
 2049SOL    HW2 6968   1.194   5.421   5.310
 2050SOL     OW 6969   0.317   3.975   5.525
 2050SOL    HW1 6970   0.388   4.046   5.531
 2050SOL    HW2 6971   0.229   4.014   5.553
 2051SOL     OW 6972   1.466   5.141   4.677
 2051SOL    HW1 6973   1.407   5.147   4.757
 2051SOL    HW2 6974   1.451   5.053   4.631
 2052SOL     OW 6975   1.667   5.438   4.296
 2052SOL    HW1 6976   1.626   5.415   4.208
 2052SOL    HW2 6977   1.649   5.364   4.361
 2053SOL     OW 6978   0.598   4.453   3.994
 2053SOL    HW1 6979   0.622   4.522   3.926
 2053SOL    HW2 6980   0.520   4.486   4.048
 2054SOL     OW 6981   1.281   4.069   4.668
 2054SOL    HW1 6982   1.195   4.019   4.655
 2054SOL    HW2 6983   1.343   4.015   4.724
 2055SOL     OW 6984   1.576   5.386   4.031
 2055SOL    HW1 6985   1.665   5.432   4.034
 2055SOL    HW2 6986   1.555   5.362   3.936
 2056SOL     OW 6987   0.807   4.329   5.189
 2056SOL    HW1 6988   0.760   4.326   5.278
 2056SOL    HW2 6989   0.756   4.274   5.123
 2057SOL     OW 6990   1.394   4.193   5.398
 2057SOL    HW1 6991   1.374   4.236   5.486
 2057SOL    HW2 6992   1.472   4.131   5.407
 2058SOL     OW 6993   0.973   4.614   5.296
 2058SOL    HW1 6994   1.019   4.530   5.267
 2058SOL    HW2 6995   0.917   4.648   5.221
 2059SOL     OW 6996   0.991   4.134   4.966
 2059SOL    HW1 6997   0.914   4.168   5.020
 2059SOL    HW2 6998   0.957   4.083   4.887
 2060SOL     OW 6999   1.041   4.425   4.153
 2060SOL    HW1 7000   1.067   4.421   4.249
 2060SOL    HW2 7001   0.956   4.374   4.139
 2061SOL     OW 7002   0.076   4.535   4.513
 2061SOL    HW1 7003   0.175   4.523   4.522
 2061SOL    HW2 7004   0.052   4.630   4.534
 2062SOL     OW 7005   0.130   5.545   5.295
 2062SOL    HW1 7006   0.120   5.530   5.394
 2062SOL    HW2 7007   0.044   5.581   5.259
 2063SOL     OW 7008   0.865   4.072   3.919
 2063SOL    HW1 7009   0.924   4.135   3.870
 2063SOL    HW2 7010   0.884   3.978   3.890
 2064SOL     OW 7011   1.719   4.309   5.555
 2064SOL    HW1 7012   1.693   4.398   5.519
 2064SOL    HW2 7013   1.717   4.241   5.482
 2065SOL     OW 7014   1.362   4.868   4.269
 2065SOL    HW1 7015   1.445   4.839   4.221
 2065SOL    HW2 7016   1.313   4.935   4.213
 2066SOL     OW 7017   0.550   3.920   4.609
 2066SOL    HW1 7018   0.545   3.915   4.709
 2066SOL    HW2 7019   0.552   4.016   4.580
 2067SOL     OW 7020   1.008   5.180   4.201
 2067SOL    HW1 7021   0.962   5.252   4.149
 2067SOL    HW2 7022   1.004   5.200   4.299
 2068SOL     OW 7023   0.351   5.525   4.577
 2068SOL    HW1 7024   0.401   5.439   4.583
 2068SOL    HW2 7025   0.416   5.602   4.574
 2069SOL     OW 7026   1.795   4.790   4.597
 2069SOL    HW1 7027   1.733   4.775   4.521
 2069SOL    HW2 7028   1.743   4.801   4.682
 2070SOL     OW 7029   1.227   5.274   5.230
 2070SOL    HW1 7030   1.233   5.197   5.294
 2070SOL    HW2 7031   1.175   5.248   5.150
 2071SOL     OW 7032   0.321   4.667   3.966
 2071SOL    HW1 7033   0.403   4.706   3.924
 2071SOL    HW2 7034   0.294   4.585   3.917
 2072SOL     OW 7035   1.458   4.459   4.452
 2072SOL    HW1 7036   1.453   4.394   4.527
 2072SOL    HW2 7037   1.538   4.518   4.465
 2073SOL     OW 7038   0.461   4.990   5.451
 2073SOL    HW1 7039   0.411   4.991   5.365
 2073SOL    HW2 7040   0.398   4.972   5.527
 2074SOL     OW 7041   1.111   5.500   3.961
 2074SOL    HW1 7042   1.051   5.438   4.011
 2074SOL    HW2 7043   1.142   5.456   3.876
 2075SOL     OW 7044   0.202   4.009   5.222
 2075SOL    HW1 7045   0.122   4.069   5.209
 2075SOL    HW2 7046   0.192   3.960   5.308
 2076SOL     OW 7047   1.632   5.101   3.805
 2076SOL    HW1 7048   1.600   5.195   3.795
 2076SOL    HW2 7049   1.556   5.038   3.793
 2077SOL     OW 7050   0.464   5.467   4.047
 2077SOL    HW1 7051   0.497   5.506   4.133
 2077SOL    HW2 7052   0.540   5.460   3.982
 2078SOL     OW 7053   1.400   3.831   4.150
 2078SOL    HW1 7054   1.376   3.794   4.060
 2078SOL    HW2 7055   1.499   3.847   4.154
 2079SOL     OW 7056   0.249   5.509   4.965
 2079SOL    HW1 7057   0.306   5.444   5.015
 2079SOL    HW2 7058   0.233   5.476   4.872
 2080SOL     OW 7059   0.940   5.422   4.628
 2080SOL    HW1 7060   1.020   5.365   4.649
 2080SOL    HW2 7061   0.891   5.382   4.551
 2081SOL     OW 7062   0.382   4.424   4.204
 2081SOL    HW1 7063   0.427   4.334   4.201
 2081SOL    HW2 7064   0.288   4.413   4.237
 2082SOL     OW 7065   1.547   3.946   5.453
 2082SOL    HW1 7066   1.542   3.983   5.545
 2082SOL    HW2 7067   1.475   3.877   5.441
 2083SOL     OW 7068   0.614   3.846   3.841
 2083SOL    HW1 7069   0.712   3.824   3.848
 2083SOL    HW2 7070   0.583   3.829   3.748
 2084SOL     OW 7071   0.781   3.988   5.473
 2084SOL    HW1 7072   0.848   3.927   5.516
 2084SOL    HW2 7073   0.708   4.007   5.538
 2085SOL     OW 7074   0.888   5.238   4.919
 2085SOL    HW1 7075   0.865   5.213   4.825
 2085SOL    HW2 7076   0.949   5.169   4.958
 2086SOL     OW 7077   1.351   4.314   5.157
 2086SOL    HW1 7078   1.379   4.271   5.242
 2086SOL    HW2 7079   1.376   4.410   5.158
 2087SOL     OW 7080   0.803   5.126   4.648
 2087SOL    HW1 7081   0.893   5.140   4.606
 2087SOL    HW2 7082   0.732   5.128   4.577
 2088SOL     OW 7083   0.922   4.227   4.623
 2088SOL    HW1 7084   0.897   4.218   4.527
 2088SOL    HW2 7085   0.970   4.145   4.654
 2089SOL     OW 7086   0.539   3.788   4.236
 2089SOL    HW1 7087   0.458   3.789   4.294
 2089SOL    HW2 7088   0.542   3.871   4.181
 2090SOL     OW 7089   1.434   4.912   3.765
 2090SOL    HW1 7090   1.466   4.836   3.822
 2090SOL    HW2 7091   1.342   4.939   3.795
 2091SOL     OW 7092   0.297   3.759   3.895
 2091SOL    HW1 7093   0.346   3.843   3.874
 2091SOL    HW2 7094   0.359   3.694   3.940
 2092SOL     OW 7095   0.935   3.960   4.204
 2092SOL    HW1 7096   0.887   4.001   4.126
 2092SOL    HW2 7097   1.034   3.958   4.185
 2093SOL     OW 7098   1.076   4.407   5.188
 2093SOL    HW1 7099   0.996   4.346   5.191
 2093SOL    HW2 7100   1.157   4.354   5.164
 2094SOL     OW 7101   1.227   5.294   4.517
 2094SOL    HW1 7102   1.248   5.368   4.452
 2094SOL    HW2 7103   1.295   5.294   4.590
 2095SOL     OW 7104   0.459   4.876   4.465
 2095SOL    HW1 7105   0.388   4.849   4.530
 2095SOL    HW2 7106   0.433   4.848   4.372
 2096SOL     OW 7107   1.271   5.521   4.315
 2096SOL    HW1 7108   1.315   5.585   4.251
 2096SOL    HW2 7109   1.221   5.573   4.385
 2097SOL     OW 7110   1.032   4.273   3.740
 2097SOL    HW1 7111   0.991   4.355   3.701
 2097SOL    HW2 7112   1.096   4.299   3.813
 2098SOL     OW 7113   0.078   4.280   5.110
 2098SOL    HW1 7114   0.170   4.279   5.069
 2098SOL    HW2 7115   0.072   4.354   5.177
 2099SOL     OW 7116   0.561   3.946   4.871
 2099SOL    HW1 7117   0.599   3.862   4.908
 2099SOL    HW2 7118   0.473   3.965   4.915
 2100SOL     OW 7119   0.866   4.178   4.366
 2100SOL    HW1 7120   0.834   4.250   4.304
 2100SOL    HW2 7121   0.890   4.097   4.313
 2101SOL     OW 7122   1.017   3.763   4.477
 2101SOL    HW1 7123   0.945   3.768   4.408
 2101SOL    HW2 7124   0.993   3.694   4.546
 2102SOL     OW 7125   1.429   4.897   4.591
 2102SOL    HW1 7126   1.374   4.813   4.584
 2102SOL    HW2 7127   1.455   4.926   4.499
 2103SOL     OW 7128   1.466   4.314   4.716
 2103SOL    HW1 7129   1.436   4.219   4.723
 2103SOL    HW2 7130   1.539   4.330   4.782
 2104SOL     OW 7131   0.488   5.109   3.898
 2104SOL    HW1 7132   0.401   5.094   3.945
 2104SOL    HW2 7133   0.471   5.135   3.803
 2105SOL     OW 7134   1.664   5.004   4.381
 2105SOL    HW1 7135   1.763   5.012   4.395
 2105SOL    HW2 7136   1.619   5.088   4.412
 2106SOL     OW 7137   1.390   4.299   3.802
 2106SOL    HW1 7138   1.336   4.278   3.883
 2106SOL    HW2 7139   1.481   4.258   3.811
 2107SOL     OW 7140   0.527   3.980   4.052
 2107SOL    HW1 7141   0.554   3.921   3.977
 2107SOL    HW2 7142   0.527   4.075   4.021
 2108SOL     OW 7143   1.754   4.947   5.312
 2108SOL    HW1 7144   1.845   4.908   5.299
 2108SOL    HW2 7145   1.762   5.043   5.336
 2109SOL     OW 7146   1.064   5.071   5.064
 2109SOL    HW1 7147   0.984   5.048   5.119
 2109SOL    HW2 7148   1.147   5.045   5.113
 2110SOL     OW 7149   1.592   5.353   5.349
 2110SOL    HW1 7150   1.619   5.387   5.259
 2110SOL    HW2 7151   1.671   5.315   5.395
 2111SOL     OW 7152   1.111   4.919   4.824
 2111SOL    HW1 7153   1.071   4.963   4.905
 2111SOL    HW2 7154   1.070   4.956   4.741
 2112SOL     OW 7155   1.638   4.823   4.803
 2112SOL    HW1 7156   1.643   4.904   4.862
 2112SOL    HW2 7157   1.552   4.825   4.752
 2113SOL     OW 7158   0.915   3.813   5.126
 2113SOL    HW1 7159   0.940   3.793   5.031
 2113SOL    HW2 7160   0.987   3.869   5.168
 2114SOL     OW 7161   0.980   4.840   5.443
 2114SOL    HW1 7162   0.881   4.846   5.453
 2114SOL    HW2 7163   1.003   4.760   5.387
 2115SOL     OW 7164   0.705   4.774   4.092
 2115SOL    HW1 7165   0.691   4.781   4.191
 2115SOL    HW2 7166   0.789   4.723   4.074
 2116SOL     OW 7167   0.410   4.537   4.975
 2116SOL    HW1 7168   0.496   4.549   5.025
 2116SOL    HW2 7169   0.368   4.450   5.002
 2117SOL     OW 7170   1.274   4.110   4.986
 2117SOL    HW1 7171   1.295   4.184   5.050
 2117SOL    HW2 7172   1.185   4.127   4.943
 2118SOL     OW 7173   0.064   5.288   5.055
 2118SOL    HW1 7174   0.018   5.370   5.021
 2118SOL    HW2 7175   0.162   5.307   5.064
 2119SOL     OW 7176   0.367   4.824   4.225
 2119SOL    HW1 7177   0.360   4.907   4.169
 2119SOL    HW2 7178   0.371   4.744   4.165
 2120SOL     OW 7179   0.566   4.261   4.589
 2120SOL    HW1 7180   0.578   4.327   4.515
 2120SOL    HW2 7181   0.612   4.295   4.672
 2121SOL     OW 7182   1.252   5.072   4.112
 2121SOL    HW1 7183   1.302   5.149   4.152
 2121SOL    HW2 7184   1.157   5.074   4.144
 2122SOL     OW 7185   1.272   5.169   4.866
 2122SOL    HW1 7186   1.319   5.182   4.953
 2122SOL    HW2 7187   1.206   5.095   4.875
 2123SOL     OW 7188   1.582   4.363   4.196
 2123SOL    HW1 7189   1.551   4.424   4.269
 2123SOL    HW2 7190   1.632   4.415   4.127
 2124SOL     OW 7191   0.354   5.234   5.053
 2124SOL    HW1 7192   0.333   5.190   4.966
 2124SOL    HW2 7193   0.451   5.260   5.056
 2125SOL     OW 7194   0.402   4.475   5.322
 2125SOL    HW1 7195   0.470   4.530   5.275
 2125SOL    HW2 7196   0.442   4.387   5.349
 2126SOL     OW 7197   1.587   4.503   5.394
 2126SOL    HW1 7198   1.495   4.541   5.389
 2126SOL    HW2 7199   1.647   4.550   5.329
 2127SOL     OW 7200   1.013   3.829   5.494
 2127SOL    HW1 7201   1.019   3.914   5.442
 2127SOL    HW2 7202   1.045   3.753   5.437
 2128SOL     OW 7203   0.504   3.774   5.464
 2128SOL    HW1 7204   0.462   3.717   5.394
 2128SOL    HW2 7205   0.438   3.843   5.496
 2129SOL     OW 7206   0.573   4.594   4.753
 2129SOL    HW1 7207   0.617   4.683   4.744
 2129SOL    HW2 7208   0.510   4.594   4.830
 2130SOL     OW 7209   1.360   4.586   4.769
 2130SOL    HW1 7210   1.285   4.586   4.703
 2130SOL    HW2 7211   1.397   4.494   4.778
 2131SOL     OW 7212   1.209   4.249   3.999
 2131SOL    HW1 7213   1.222   4.165   4.053
 2131SOL    HW2 7214   1.180   4.323   4.059
 2132SOL     OW 7215   0.307   3.937   4.955
 2132SOL    HW1 7216   0.284   3.974   5.045
 2132SOL    HW2 7217   0.277   3.842   4.949
 2133SOL     OW 7218   0.037   5.034   5.006
 2133SOL    HW1 7219   0.090   4.985   5.074
 2133SOL    HW2 7220   0.059   5.132   5.011
 2134SOL     OW 7221   0.732   4.358   4.788
 2134SOL    HW1 7222   0.791   4.332   4.712
 2134SOL    HW2 7223   0.704   4.454   4.777
 2135SOL     OW 7224   1.728   4.659   5.578
 2135SOL    HW1 7225   1.682   4.652   5.489
 2135SOL    HW2 7226   1.666   4.703   5.644
 2136SOL     OW 7227   0.307   3.787   4.342
 2136SOL    HW1 7228   0.296   3.881   4.375
 2136SOL    HW2 7229   0.302   3.724   4.419
 2137SOL     OW 7230   1.622   4.091   4.098
 2137SOL    HW1 7231   1.624   4.015   4.162
 2137SOL    HW2 7232   1.574   4.168   4.138
 2138SOL     OW 7233   1.023   4.490   4.690
 2138SOL    HW1 7234   1.038   4.511   4.786
 2138SOL    HW2 7235   0.993   4.395   4.681
 2139SOL     OW 7236   0.980   5.297   5.424
 2139SOL    HW1 7237   0.960   5.341   5.336
 2139SOL    HW2 7238   1.019   5.206   5.408
 2140SOL     OW 7239   1.859   5.242   5.329
 2140SOL    HW1 7240   1.873   5.269   5.234
 2140SOL    HW2 7241   1.942   5.264   5.382
 2141SOL     OW 7242   0.350   4.622   5.528
 2141SOL    HW1 7243   0.426   4.666   5.576
 2141SOL    HW2 7244   0.385   4.575   5.446
 2142SOL     OW 7245   1.540   3.998   3.849
 2142SOL    HW1 7246   1.479   3.923   3.872
 2142SOL    HW2 7247   1.562   4.050   3.932
 2143SOL     OW 7248   1.303   4.562   3.766
 2143SOL    HW1 7249   1.337   4.469   3.781
 2143SOL    HW2 7250   1.321   4.589   3.671
 2144SOL     OW 7251   1.068   5.057   4.573
 2144SOL    HW1 7252   1.075   4.973   4.518
 2144SOL    HW2 7253   1.130   5.126   4.537
 2145SOL     OW 7254   0.319   4.534   4.673
 2145SOL    HW1 7255   0.412   4.570   4.678
 2145SOL    HW2 7256   0.313   4.449   4.725
 2146SOL     OW 7257   0.339   4.233   4.730
 2146SOL    HW1 7258   0.287   4.150   4.713
 2146SOL    HW2 7259   0.416   4.238   4.666
 2147SOL     OW 7260   1.138   4.104   5.402
 2147SOL    HW1 7261   1.093   4.167   5.466
 2147SOL    HW2 7262   1.231   4.135   5.385
 2148SOL     OW 7263   1.160   3.931   5.201
 2148SOL    HW1 7264   1.160   3.995   5.278
 2148SOL    HW2 7265   1.188   3.979   5.118
 2149SOL     OW 7266   0.008   5.050   3.924
 2149SOL    HW1 7267  -0.085   5.071   3.893
 2149SOL    HW2 7268   0.018   4.951   3.937
 2150SOL     OW 7269   0.088   5.525   4.651
 2150SOL    HW1 7270   0.046   5.439   4.624
 2150SOL    HW2 7271   0.182   5.528   4.617
 2151SOL     OW 7272   0.504   5.292   4.634
 2151SOL    HW1 7273   0.570   5.366   4.643
 2151SOL    HW2 7274   0.548   5.213   4.592
 2152SOL     OW 7275   1.002   4.520   4.962
 2152SOL    HW1 7276   1.043   4.488   5.048
 2152SOL    HW2 7277   0.906   4.493   4.959
 2153SOL     OW 7278   0.040   4.268   4.838
 2153SOL    HW1 7279   0.125   4.235   4.797
 2153SOL    HW2 7280   0.053   4.283   4.936
 2154SOL     OW 7281   0.189   4.244   5.446
 2154SOL    HW1 7282   0.248   4.204   5.376
 2154SOL    HW2 7283   0.131   4.315   5.405
 2155SOL     OW 7284   1.369   4.674   5.384
 2155SOL    HW1 7285   1.408   4.763   5.404
 2155SOL    HW2 7286   1.379   4.654   5.287
 2156SOL     OW 7287   0.815   4.296   4.049
 2156SOL    HW1 7288   0.822   4.207   4.003
 2156SOL    HW2 7289   0.721   4.330   4.041
 2157SOL     OW 7290   1.657   4.328   4.930
 2157SOL    HW1 7291   1.619   4.259   4.992
 2157SOL    HW2 7292   1.739   4.292   4.886
 2158SOL     OW 7293   0.252   5.288   5.468
 2158SOL    HW1 7294   0.222   5.345   5.544
 2158SOL    HW2 7295   0.245   5.191   5.494
 2159SOL     OW 7296   0.671   4.188   4.993
 2159SOL    HW1 7297   0.637   4.099   4.963
 2159SOL    HW2 7298   0.697   4.242   4.913
 2160SOL     OW 7299   0.930   5.402   5.189
 2160SOL    HW1 7300   0.906   5.384   5.094
 2160SOL    HW2 7301   0.960   5.496   5.199
 2161SOL     OW 7302   0.473   4.224   3.915
 2161SOL    HW1 7303   0.534   4.304   3.919
 2161SOL    HW2 7304   0.378   4.255   3.922
 2162SOL     OW 7305   0.159   4.861   5.190
 2162SOL    HW1 7306   0.181   4.800   5.266
 2162SOL    HW2 7307   0.169   4.812   5.104
 2163SOL     OW 7308   1.347   4.783   4.958
 2163SOL    HW1 7309   1.371   4.720   4.884
 2163SOL    HW2 7310   1.257   4.823   4.940
 2164SOL     OW 7311   1.302   4.579   4.033
 2164SOL    HW1 7312   1.216   4.548   4.075
 2164SOL    HW2 7313   1.298   4.565   3.934
 2165SOL     OW 7314   1.759   5.471   4.878
 2165SOL    HW1 7315   1.820   5.501   4.805
 2165SOL    HW2 7316   1.721   5.382   4.856
 2166SOL     OW 7317   1.252   5.455   4.852
 2166SOL    HW1 7318   1.336   5.460   4.798
 2166SOL    HW2 7319   1.229   5.359   4.870
 2167SOL     OW 7320   0.083   4.982   4.746
 2167SOL    HW1 7321   0.078   4.981   4.846
 2167SOL    HW2 7322   0.000   4.941   4.708
 2168SOL     OW 7323   0.688   5.386   5.440
 2168SOL    HW1 7324   0.632   5.467   5.449
 2168SOL    HW2 7325   0.740   5.390   5.354
 2169SOL     OW 7326   1.726   3.859   4.247
 2169SOL    HW1 7327   1.799   3.842   4.180
 2169SOL    HW2 7328   1.695   3.772   4.285
 2170SOL     OW 7329   1.388   5.297   4.201
 2170SOL    HW1 7330   1.455   5.309   4.127
 2170SOL    HW2 7331   1.348   5.386   4.224
 2171SOL     OW 7332   0.130   5.518   5.575
 2171SOL    HW1 7333   0.089   5.444   5.628
 2171SOL    HW2 7334   0.194   5.569   5.633
 2172SOL     OW 7335   1.280   4.651   4.396
 2172SOL    HW1 7336   1.340   4.570   4.398
 2172SOL    HW2 7337   1.320   4.720   4.336
 2173SOL     OW 7338   0.830   4.997   5.146
 2173SOL    HW1 7339   0.825   5.030   5.241
 2173SOL    HW2 7340   0.744   5.016   5.100
 2174SOL     OW 7341   0.672   5.340   3.878
 2174SOL    HW1 7342   0.681   5.350   3.779
 2174SOL    HW2 7343   0.632   5.251   3.899
 2175SOL     OW 7344   1.650   5.444   5.118
 2175SOL    HW1 7345   1.703   5.454   5.034
 2175SOL    HW2 7346   1.623   5.534   5.152
 2176SOL     OW 7347   1.841   3.899   4.687
 2176SOL    HW1 7348   1.880   3.814   4.651
 2176SOL    HW2 7349   1.743   3.901   4.668
 2177SOL     OW 7350   0.263   4.050   4.444
 2177SOL    HW1 7351   0.184   4.101   4.410
 2177SOL    HW2 7352   0.254   4.035   4.542
 2178SOL     OW 7353   1.194   5.336   3.755
 2178SOL    HW1 7354   1.200   5.243   3.792
 2178SOL    HW2 7355   1.135   5.336   3.675
 2179SOL     OW 7356   0.822   4.726   5.096
 2179SOL    HW1 7357   0.862   4.725   5.004
 2179SOL    HW2 7358   0.832   4.818   5.136
 2180SOL     OW 7359   0.916   4.634   4.015
 2180SOL    HW1 7360   0.979   4.672   3.947
 2180SOL    HW2 7361   0.956   4.551   4.054
 2181SOL     OW 7362   1.504   5.331   3.768
 2181SOL    HW1 7363   1.412   5.368   3.775
 2181SOL    HW2 7364   1.542   5.351   3.678
 2182SOL     OW 7365   0.372   5.012   5.214
 2182SOL    HW1 7366   0.359   5.105   5.180
 2182SOL    HW2 7367   0.288   4.960   5.201
 2183SOL     OW 7368   1.614   5.016   5.013
 2183SOL    HW1 7369   1.674   5.019   5.093
 2183SOL    HW2 7370   1.539   5.080   5.026
 2184SOL     OW 7371   1.039   4.822   4.420
 2184SOL    HW1 7372   0.969   4.775   4.474
 2184SOL    HW2 7373   1.098   4.754   4.377
 2185SOL     OW 7374   1.014   3.960   4.695
 2185SOL    HW1 7375   1.006   3.924   4.602
 2185SOL    HW2 7376   1.012   3.884   4.760
 2186SOL     OW 7377   0.590   5.211   4.215
 2186SOL    HW1 7378   0.632   5.153   4.145
 2186SOL    HW2 7379   0.546   5.290   4.171
 2187SOL     OW 7380   1.709   4.109   5.105
 2187SOL    HW1 7381   1.782   4.178   5.109
 2187SOL    HW2 7382   1.737   4.034   5.046
 2188SOL     OW 7383   0.255   5.072   4.014
 2188SOL    HW1 7384   0.159   5.073   3.987
 2188SOL    HW2 7385   0.267   5.125   4.098
 2189SOL     OW 7386   0.105   4.737   5.450
 2189SOL    HW1 7387   0.028   4.704   5.504
 2189SOL    HW2 7388   0.190   4.707   5.492
 2190SOL     OW 7389   0.672   3.927   5.213
 2190SOL    HW1 7390   0.762   3.911   5.173
 2190SOL    HW2 7391   0.680   3.932   5.312
 2191SOL     OW 7392   0.075   4.069   3.757
 2191SOL    HW1 7393  -0.017   4.041   3.728
 2191SOL    HW2 7394   0.106   4.146   3.701
 2192SOL     OW 7395   1.440   4.580   5.122
 2192SOL    HW1 7396   1.383   4.632   5.059
 2192SOL    HW2 7397   1.536   4.592   5.098
 2193SOL     OW 7398   0.072   3.890   4.042
 2193SOL    HW1 7399   0.055   3.973   3.988
 2193SOL    HW2 7400   0.162   3.853   4.020
 2194SOL     OW 7401   1.183   5.059   3.843
 2194SOL    HW1 7402   1.084   5.048   3.845
 2194SOL    HW2 7403   1.217   5.074   3.936
 2195SOL     OW 7404   0.613   4.566   5.155
 2195SOL    HW1 7405   0.669   4.647   5.138
 2195SOL    HW2 7406   0.672   4.486   5.158
 2196SOL     OW 7407   1.493   5.491   4.683
 2196SOL    HW1 7408   1.526   5.555   4.614
 2196SOL    HW2 7409   1.559   5.485   4.758
 2197SOL     OW 7410   0.716   4.289   5.432
 2197SOL    HW1 7411   0.735   4.354   5.506
 2197SOL    HW2 7412   0.776   4.209   5.441
 2198SOL     OW 7413   1.450   4.944   5.357
 2198SOL    HW1 7414   1.441   4.934   5.456
 2198SOL    HW2 7415   1.546   4.937   5.331
 2199SOL     OW 7416   0.390   5.465   5.284
 2199SOL    HW1 7417   0.299   5.506   5.282
 2199SOL    HW2 7418   0.383   5.371   5.316
 2200SOL     OW 7419   1.674   4.607   4.978
 2200SOL    HW1 7420   1.647   4.518   4.941
 2200SOL    HW2 7421   1.675   4.675   4.905
 2201SOL     OW 7422   1.225   4.049   4.173
 2201SOL    HW1 7423   1.290   3.975   4.162
 2201SOL    HW2 7424   1.245   4.099   4.257
 2202SOL     OW 7425   0.594   4.469   4.376
 2202SOL    HW1 7426   0.644   4.554   4.357
 2202SOL    HW2 7427   0.506   4.471   4.328
 2203SOL     OW 7428   1.777   4.066   5.366
 2203SOL    HW1 7429   1.760   4.097   5.272
 2203SOL    HW2 7430   1.693   4.029   5.404
 2204SOL     OW 7431   1.730   4.658   5.241
 2204SOL    HW1 7432   1.768   4.749   5.256
 2204SOL    HW2 7433   1.722   4.641   5.142
 2205SOL     OW 7434   0.859   5.098   3.740
 2205SOL    HW1 7435   0.813   5.113   3.828
 2205SOL    HW2 7436   0.903   5.183   3.710
 2206SOL     OW 7437   0.661   5.514   4.677
 2206SOL    HW1 7438   0.615   5.602   4.664
 2206SOL    HW2 7439   0.760   5.526   4.670
 2207SOL     OW 7440   0.859   4.680   4.585
 2207SOL    HW1 7441   0.913   4.611   4.633
 2207SOL    HW2 7442   0.827   4.749   4.651
 2208SOL     OW 7443   1.083   4.708   3.811
 2208SOL    HW1 7444   1.060   4.761   3.729
 2208SOL    HW2 7445   1.164   4.652   3.792
 2209SOL     OW 7446   1.861   5.293   4.575
 2209SOL    HW1 7447   1.790   5.281   4.505
 2209SOL    HW2 7448   1.862   5.214   4.635
 2210SOL     OW 7449   0.221   5.038   5.568
 2210SOL    HW1 7450   0.156   4.965   5.547
 2210SOL    HW2 7451   0.225   5.052   5.666
 2211SOL     OW 7452   0.079   4.964   4.377
 2211SOL    HW1 7453   0.078   4.917   4.465
 2211SOL    HW2 7454   0.161   4.936   4.326
 2212SOL     OW 7455   0.672   5.115   5.348
 2212SOL    HW1 7456   0.594   5.065   5.386
 2212SOL    HW2 7457   0.669   5.210   5.379
 2213SOL     OW 7458   1.824   3.916   4.951
 2213SOL    HW1 7459   1.820   3.826   4.995
 2213SOL    HW2 7460   1.827   3.905   4.852
 2214SOL     OW 7461   0.428   4.148   4.244
 2214SOL    HW1 7462   0.458   4.076   4.182
 2214SOL    HW2 7463   0.389   4.108   4.327
 2215SOL     OW 7464   1.705   5.211   4.828
 2215SOL    HW1 7465   1.612   5.186   4.801
 2215SOL    HW2 7466   1.731   5.161   4.910
 2216SOL     OW 7467   0.317   4.271   5.004
 2216SOL    HW1 7468   0.355   4.212   5.076
 2216SOL    HW2 7469   0.357   4.245   4.916
 2217SOL     OW 7470   0.812   5.310   4.411
 2217SOL    HW1 7471   0.844   5.320   4.317
 2217SOL    HW2 7472   0.733   5.248   4.413
 2218SOL     OW 7473   1.424   3.938   4.836
 2218SOL    HW1 7474   1.476   3.873   4.891
 2218SOL    HW2 7475   1.375   4.001   4.897
 2219SOL     OW 7476   1.001   3.758   4.878
 2219SOL    HW1 7477   0.938   3.686   4.847
 2219SOL    HW2 7478   1.094   3.722   4.878
 2220SOL     OW 7479   0.770   5.054   4.025
 2220SOL    HW1 7480   0.724   4.967   4.042
 2220SOL    HW2 7481   0.861   5.051   4.066
 2221SOL     OW 7482   0.618   5.291   5.008
 2221SOL    HW1 7483   0.613   5.373   5.065
 2221SOL    HW2 7484   0.707   5.288   4.963
 2222SOL     OW 7485   1.352   3.776   3.892
 2222SOL    HW1 7486   1.387   3.735   3.808
 2222SOL    HW2 7487   1.262   3.738   3.912
 2223SOL     OW 7488   1.300   4.177   4.415
 2223SOL    HW1 7489   1.241   4.257   4.419
 2223SOL    HW2 7490   1.315   4.142   4.508
 2224SOL     OW 7491   1.593   3.945   4.606
 2224SOL    HW1 7492   1.509   3.944   4.660
 2224SOL    HW2 7493   1.595   4.028   4.550
 2225SOL     OW 7494   0.039   4.801   4.024
 2225SOL    HW1 7495   0.138   4.790   4.015
 2225SOL    HW2 7496  -0.001   4.715   4.056
 2226SOL     OW 7497   0.875   5.370   4.061
 2226SOL    HW1 7498   0.798   5.335   4.007
 2226SOL    HW2 7499   0.843   5.441   4.123
 2227SOL     OW 7500   0.230   4.352   5.699
 2227SOL    HW1 7501   0.137   4.350   5.736
 2227SOL    HW2 7502   0.231   4.313   5.607
 2228SOL     OW 7503   0.225   3.999   6.582
 2228SOL    HW1 7504   0.260   3.982   6.674
 2228SOL    HW2 7505   0.137   3.954   6.570
 2229SOL     OW 7506   0.019   4.092   6.233
 2229SOL    HW1 7507  -0.063   4.135   6.272
 2229SOL    HW2 7508  -0.009   4.019   6.170
 2230SOL     OW 7509   0.569   4.999   6.751
 2230SOL    HW1 7510   0.476   4.992   6.714
 2230SOL    HW2 7511   0.580   5.088   6.795
 2231SOL     OW 7512   1.555   5.235   6.289
 2231SOL    HW1 7513   1.498   5.219   6.370
 2231SOL    HW2 7514   1.496   5.245   6.209
 2232SOL     OW 7515   1.135   4.427   6.303
 2232SOL    HW1 7516   1.192   4.505   6.278
 2232SOL    HW2 7517   1.075   4.453   6.379
 2233SOL     OW 7518   1.755   4.331   5.817
 2233SOL    HW1 7519   1.743   4.318   5.718
 2233SOL    HW2 7520   1.725   4.250   5.866
 2234SOL     OW 7521   0.768   4.868   6.609
 2234SOL    HW1 7522   0.690   4.885   6.669
 2234SOL    HW2 7523   0.802   4.955   6.573
 2235SOL     OW 7524   0.685   4.736   6.251
 2235SOL    HW1 7525   0.754   4.720   6.321
 2235SOL    HW2 7526   0.612   4.793   6.289
 2236SOL     OW 7527   0.335   5.159   6.647
 2236SOL    HW1 7528   0.257   5.128   6.594
 2236SOL    HW2 7529   0.393   5.217   6.590
 2237SOL     OW 7530   1.603   4.171   6.323
 2237SOL    HW1 7531   1.529   4.217   6.273
 2237SOL    HW2 7532   1.654   4.239   6.376
 2238SOL     OW 7533   0.231   5.437   6.069
 2238SOL    HW1 7534   0.265   5.514   6.123
 2238SOL    HW2 7535   0.275   5.437   5.979
 2239SOL     OW 7536   0.230   5.158   6.124
 2239SOL    HW1 7537   0.204   5.254   6.124
 2239SOL    HW2 7538   0.159   5.104   6.169
 2240SOL     OW 7539   0.240   4.815   6.472
 2240SOL    HW1 7540   0.254   4.731   6.524
 2240SOL    HW2 7541   0.185   4.879   6.527
 2241SOL     OW 7542   0.620   5.510   7.025
 2241SOL    HW1 7543   0.528   5.493   7.060
 2241SOL    HW2 7544   0.648   5.602   7.051
 2242SOL     OW 7545   0.606   4.688   5.709
 2242SOL    HW1 7546   0.613   4.772   5.655
 2242SOL    HW2 7547   0.652   4.701   5.797
 2243SOL     OW 7548   0.122   4.367   6.149
 2243SOL    HW1 7549   0.077   4.279   6.166
 2243SOL    HW2 7550   0.121   4.421   6.233
 2244SOL     OW 7551   1.842   5.491   5.945
 2244SOL    HW1 7552   1.896   5.462   6.025
 2244SOL    HW2 7553   1.872   5.581   5.916
 2245SOL     OW 7554   0.027   5.320   5.703
 2245SOL    HW1 7555   0.008   5.224   5.724
 2245SOL    HW2 7556  -0.006   5.378   5.778
 2246SOL     OW 7557   1.689   4.646   6.198
 2246SOL    HW1 7558   1.784   4.617   6.206
 2246SOL    HW2 7559   1.681   4.711   6.123
 2247SOL     OW 7560   1.641   4.832   6.018
 2247SOL    HW1 7561   1.727   4.834   5.966
 2247SOL    HW2 7562   1.655   4.879   6.106
 2248SOL     OW 7563   0.613   5.089   6.312
 2248SOL    HW1 7564   0.564   5.002   6.321
 2248SOL    HW2 7565   0.590   5.132   6.225
 2249SOL     OW 7566   0.809   3.728   6.088
 2249SOL    HW1 7567   0.849   3.819   6.079
 2249SOL    HW2 7568   0.709   3.736   6.094
 2250SOL     OW 7569   0.197   4.700   6.850
 2250SOL    HW1 7570   0.286   4.655   6.836
 2250SOL    HW2 7571   0.124   4.635   6.831
 2251SOL     OW 7572   1.525   4.723   5.776
 2251SOL    HW1 7573   1.462   4.647   5.789
 2251SOL    HW2 7574   1.573   4.741   5.862
 2252SOL     OW 7575   1.466   5.141   6.539
 2252SOL    HW1 7576   1.407   5.147   6.619
 2252SOL    HW2 7577   1.451   5.053   6.493
 2253SOL     OW 7578   1.667   5.438   6.158
 2253SOL    HW1 7579   1.626   5.415   6.070
 2253SOL    HW2 7580   1.649   5.364   6.223
 2254SOL     OW 7581   0.598   4.453   5.856
 2254SOL    HW1 7582   0.622   4.522   5.788
 2254SOL    HW2 7583   0.520   4.486   5.910
 2255SOL     OW 7584   1.281   4.069   6.530
 2255SOL    HW1 7585   1.195   4.019   6.517
 2255SOL    HW2 7586   1.343   4.015   6.586
 2256SOL     OW 7587   1.576   5.386   5.893
 2256SOL    HW1 7588   1.665   5.432   5.896
 2256SOL    HW2 7589   1.555   5.362   5.798
 2257SOL     OW 7590   0.807   4.329   7.051
 2257SOL    HW1 7591   0.760   4.326   7.140
 2257SOL    HW2 7592   0.756   4.274   6.985
 2258SOL     OW 7593   0.991   4.134   6.828
 2258SOL    HW1 7594   0.914   4.168   6.882
 2258SOL    HW2 7595   0.957   4.083   6.749
 2259SOL     OW 7596   1.041   4.425   6.015
 2259SOL    HW1 7597   1.067   4.421   6.111
 2259SOL    HW2 7598   0.956   4.374   6.001
 2260SOL     OW 7599   0.076   4.535   6.375
 2260SOL    HW1 7600   0.175   4.523   6.384
 2260SOL    HW2 7601   0.052   4.630   6.396
 2261SOL     OW 7602   0.130   5.545   7.157
 2261SOL    HW1 7603   0.120   5.530   7.256
 2261SOL    HW2 7604   0.044   5.581   7.121
 2262SOL     OW 7605   0.865   4.072   5.781
 2262SOL    HW1 7606   0.924   4.135   5.732
 2262SOL    HW2 7607   0.884   3.978   5.752
 2263SOL     OW 7608   1.362   4.868   6.131
 2263SOL    HW1 7609   1.445   4.839   6.083
 2263SOL    HW2 7610   1.313   4.935   6.075
 2264SOL     OW 7611   0.550   3.920   6.471
 2264SOL    HW1 7612   0.545   3.915   6.571
 2264SOL    HW2 7613   0.552   4.016   6.442
 2265SOL     OW 7614   1.008   5.180   6.063
 2265SOL    HW1 7615   0.962   5.252   6.011
 2265SOL    HW2 7616   1.004   5.200   6.161
 2266SOL     OW 7617   0.351   5.525   6.439
 2266SOL    HW1 7618   0.401   5.439   6.445
 2266SOL    HW2 7619   0.416   5.602   6.436
 2267SOL     OW 7620   1.795   4.790   6.459
 2267SOL    HW1 7621   1.733   4.775   6.383
 2267SOL    HW2 7622   1.743   4.801   6.544
 2268SOL     OW 7623   0.321   4.667   5.828
 2268SOL    HW1 7624   0.403   4.706   5.786
 2268SOL    HW2 7625   0.294   4.585   5.779
 2269SOL     OW 7626   1.458   4.459   6.314
 2269SOL    HW1 7627   1.453   4.394   6.389
 2269SOL    HW2 7628   1.538   4.518   6.327
 2270SOL     OW 7629   1.111   5.500   5.823
 2270SOL    HW1 7630   1.051   5.438   5.873
 2270SOL    HW2 7631   1.142   5.456   5.738
 2271SOL     OW 7632   1.632   5.101   5.667
 2271SOL    HW1 7633   1.600   5.195   5.657
 2271SOL    HW2 7634   1.556   5.038   5.655
 2272SOL     OW 7635   0.464   5.467   5.909
 2272SOL    HW1 7636   0.497   5.506   5.995
 2272SOL    HW2 7637   0.540   5.460   5.844
 2273SOL     OW 7638   1.400   3.831   6.012
 2273SOL    HW1 7639   1.376   3.794   5.922
 2273SOL    HW2 7640   1.499   3.847   6.016
 2274SOL     OW 7641   0.249   5.509   6.827
 2274SOL    HW1 7642   0.306   5.444   6.877
 2274SOL    HW2 7643   0.233   5.476   6.734
 2275SOL     OW 7644   0.940   5.422   6.490
 2275SOL    HW1 7645   1.020   5.365   6.511
 2275SOL    HW2 7646   0.891   5.382   6.413
 2276SOL     OW 7647   0.382   4.424   6.066
 2276SOL    HW1 7648   0.427   4.334   6.063
 2276SOL    HW2 7649   0.288   4.413   6.099
 2277SOL     OW 7650   0.614   3.846   5.703
 2277SOL    HW1 7651   0.712   3.824   5.710
 2277SOL    HW2 7652   0.583   3.829   5.610
 2278SOL     OW 7653   0.888   5.238   6.781
 2278SOL    HW1 7654   0.865   5.213   6.687
 2278SOL    HW2 7655   0.949   5.169   6.820
 2279SOL     OW 7656   0.803   5.126   6.510
 2279SOL    HW1 7657   0.893   5.140   6.468
 2279SOL    HW2 7658   0.732   5.128   6.439
 2280SOL     OW 7659   0.922   4.227   6.485
 2280SOL    HW1 7660   0.897   4.218   6.389
 2280SOL    HW2 7661   0.970   4.145   6.516
 2281SOL     OW 7662   0.539   3.788   6.098
 2281SOL    HW1 7663   0.458   3.789   6.156
 2281SOL    HW2 7664   0.542   3.871   6.043
 2282SOL     OW 7665   1.434   4.912   5.627
 2282SOL    HW1 7666   1.466   4.836   5.684
 2282SOL    HW2 7667   1.342   4.939   5.657
 2283SOL     OW 7668   0.297   3.759   5.757
 2283SOL    HW1 7669   0.346   3.843   5.736
 2283SOL    HW2 7670   0.359   3.694   5.802
 2284SOL     OW 7671   0.935   3.960   6.066
 2284SOL    HW1 7672   0.887   4.001   5.988
 2284SOL    HW2 7673   1.034   3.958   6.047
 2285SOL     OW 7674   1.227   5.294   6.379
 2285SOL    HW1 7675   1.248   5.368   6.314
 2285SOL    HW2 7676   1.295   5.294   6.452
 2286SOL     OW 7677   0.459   4.876   6.327
 2286SOL    HW1 7678   0.388   4.849   6.392
 2286SOL    HW2 7679   0.433   4.848   6.234
 2287SOL     OW 7680   1.271   5.521   6.177
 2287SOL    HW1 7681   1.315   5.585   6.113
 2287SOL    HW2 7682   1.221   5.573   6.247
 2288SOL     OW 7683   1.032   4.273   5.602
 2288SOL    HW1 7684   0.991   4.355   5.563
 2288SOL    HW2 7685   1.096   4.299   5.675
 2289SOL     OW 7686   0.561   3.946   6.733
 2289SOL    HW1 7687   0.599   3.862   6.770
 2289SOL    HW2 7688   0.473   3.965   6.777
 2290SOL     OW 7689   0.866   4.178   6.228
 2290SOL    HW1 7690   0.834   4.250   6.166
 2290SOL    HW2 7691   0.890   4.097   6.175
 2291SOL     OW 7692   1.017   3.763   6.339
 2291SOL    HW1 7693   0.945   3.768   6.270
 2291SOL    HW2 7694   0.993   3.694   6.408
 2292SOL     OW 7695   1.429   4.897   6.453
 2292SOL    HW1 7696   1.374   4.813   6.446
 2292SOL    HW2 7697   1.455   4.926   6.361
 2293SOL     OW 7698   1.466   4.314   6.578
 2293SOL    HW1 7699   1.436   4.219   6.585
 2293SOL    HW2 7700   1.539   4.330   6.644
 2294SOL     OW 7701   1.857   4.557   5.963
 2294SOL    HW1 7702   1.899   4.493   6.027
 2294SOL    HW2 7703   1.819   4.506   5.885
 2295SOL     OW 7704   0.488   5.109   5.760
 2295SOL    HW1 7705   0.401   5.094   5.807
 2295SOL    HW2 7706   0.471   5.135   5.665
 2296SOL     OW 7707   1.664   5.004   6.243
 2296SOL    HW1 7708   1.763   5.012   6.257
 2296SOL    HW2 7709   1.619   5.088   6.274
 2297SOL     OW 7710   1.390   4.299   5.664
 2297SOL    HW1 7711   1.336   4.278   5.745
 2297SOL    HW2 7712   1.481   4.258   5.673
 2298SOL     OW 7713   0.527   3.980   5.914
 2298SOL    HW1 7714   0.554   3.921   5.839
 2298SOL    HW2 7715   0.527   4.075   5.883
 2299SOL     OW 7716   1.754   4.947   7.174
 2299SOL    HW1 7717   1.845   4.908   7.161
 2299SOL    HW2 7718   1.762   5.043   7.198
 2300SOL     OW 7719   1.111   4.919   6.686
 2300SOL    HW1 7720   1.071   4.963   6.767
 2300SOL    HW2 7721   1.070   4.956   6.603
 2301SOL     OW 7722   1.638   4.823   6.665
 2301SOL    HW1 7723   1.643   4.904   6.724
 2301SOL    HW2 7724   1.552   4.825   6.614
 2302SOL     OW 7725   0.705   4.774   5.954
 2302SOL    HW1 7726   0.691   4.781   6.053
 2302SOL    HW2 7727   0.789   4.723   5.936
 2303SOL     OW 7728   0.410   4.537   6.837
 2303SOL    HW1 7729   0.496   4.549   6.887
 2303SOL    HW2 7730   0.368   4.450   6.864
 2304SOL     OW 7731   1.274   4.110   6.848
 2304SOL    HW1 7732   1.295   4.184   6.912
 2304SOL    HW2 7733   1.185   4.127   6.805
 2305SOL     OW 7734   0.064   5.288   6.917
 2305SOL    HW1 7735   0.018   5.370   6.883
 2305SOL    HW2 7736   0.162   5.307   6.926
 2306SOL     OW 7737   0.367   4.824   6.087
 2306SOL    HW1 7738   0.360   4.907   6.031
 2306SOL    HW2 7739   0.371   4.744   6.027
 2307SOL     OW 7740   0.566   4.261   6.451
 2307SOL    HW1 7741   0.578   4.327   6.377
 2307SOL    HW2 7742   0.612   4.295   6.534
 2308SOL     OW 7743   1.252   5.072   5.974
 2308SOL    HW1 7744   1.302   5.149   6.014
 2308SOL    HW2 7745   1.157   5.074   6.006
 2309SOL     OW 7746   1.272   5.169   6.728
 2309SOL    HW1 7747   1.319   5.182   6.815
 2309SOL    HW2 7748   1.206   5.095   6.737
 2310SOL     OW 7749   1.582   4.363   6.058
 2310SOL    HW1 7750   1.551   4.424   6.131
 2310SOL    HW2 7751   1.632   4.415   5.989
 2311SOL     OW 7752   0.354   5.234   6.915
 2311SOL    HW1 7753   0.333   5.190   6.828
 2311SOL    HW2 7754   0.451   5.260   6.918
 2312SOL     OW 7755   0.573   4.594   6.615
 2312SOL    HW1 7756   0.617   4.683   6.606
 2312SOL    HW2 7757   0.510   4.594   6.692
 2313SOL     OW 7758   1.360   4.586   6.631
 2313SOL    HW1 7759   1.285   4.586   6.565
 2313SOL    HW2 7760   1.397   4.494   6.640
 2314SOL     OW 7761   1.209   4.249   5.861
 2314SOL    HW1 7762   1.222   4.165   5.915
 2314SOL    HW2 7763   1.180   4.323   5.921
 2315SOL     OW 7764   0.307   3.937   6.817
 2315SOL    HW1 7765   0.284   3.974   6.907
 2315SOL    HW2 7766   0.277   3.842   6.811
 2316SOL     OW 7767   0.037   5.034   6.868
 2316SOL    HW1 7768   0.090   4.985   6.936
 2316SOL    HW2 7769   0.059   5.132   6.873
 2317SOL     OW 7770   0.732   4.358   6.650
 2317SOL    HW1 7771   0.791   4.332   6.574
 2317SOL    HW2 7772   0.704   4.454   6.639
 2318SOL     OW 7773   0.307   3.787   6.204
 2318SOL    HW1 7774   0.296   3.881   6.237
 2318SOL    HW2 7775   0.302   3.724   6.281
 2319SOL     OW 7776   1.622   4.091   5.960
 2319SOL    HW1 7777   1.624   4.015   6.024
 2319SOL    HW2 7778   1.574   4.168   6.000
 2320SOL     OW 7779   1.023   4.490   6.552
 2320SOL    HW1 7780   1.038   4.511   6.648
 2320SOL    HW2 7781   0.993   4.395   6.543
 2321SOL     OW 7782   1.859   5.242   7.191
 2321SOL    HW1 7783   1.873   5.269   7.096
 2321SOL    HW2 7784   1.942   5.264   7.244
 2322SOL     OW 7785   1.540   3.998   5.711
 2322SOL    HW1 7786   1.479   3.923   5.734
 2322SOL    HW2 7787   1.562   4.050   5.794
 2323SOL     OW 7788   1.303   4.562   5.628
 2323SOL    HW1 7789   1.337   4.469   5.643
 2323SOL    HW2 7790   1.321   4.589   5.533
 2324SOL     OW 7791   1.068   5.057   6.435
 2324SOL    HW1 7792   1.075   4.973   6.380
 2324SOL    HW2 7793   1.130   5.126   6.399
 2325SOL     OW 7794   0.319   4.534   6.535
 2325SOL    HW1 7795   0.412   4.570   6.540
 2325SOL    HW2 7796   0.313   4.449   6.587
 2326SOL     OW 7797   0.339   4.233   6.592
 2326SOL    HW1 7798   0.287   4.150   6.575
 2326SOL    HW2 7799   0.416   4.238   6.528
 2327SOL     OW 7800   1.160   3.931   7.063
 2327SOL    HW1 7801   1.160   3.995   7.140
 2327SOL    HW2 7802   1.188   3.979   6.980
 2328SOL     OW 7803   0.008   5.050   5.786
 2328SOL    HW1 7804  -0.085   5.071   5.755
 2328SOL    HW2 7805   0.018   4.951   5.799
 2329SOL     OW 7806   0.088   5.525   6.513
 2329SOL    HW1 7807   0.046   5.439   6.486
 2329SOL    HW2 7808   0.182   5.528   6.479
 2330SOL     OW 7809   0.504   5.292   6.496
 2330SOL    HW1 7810   0.570   5.366   6.505
 2330SOL    HW2 7811   0.548   5.213   6.454
 2331SOL     OW 7812   1.002   4.520   6.824
 2331SOL    HW1 7813   1.043   4.488   6.910
 2331SOL    HW2 7814   0.906   4.493   6.821
 2332SOL     OW 7815   0.040   4.268   6.700
 2332SOL    HW1 7816   0.125   4.235   6.659
 2332SOL    HW2 7817   0.053   4.283   6.798
 2333SOL     OW 7818   0.815   4.296   5.911
 2333SOL    HW1 7819   0.822   4.207   5.865
 2333SOL    HW2 7820   0.721   4.330   5.903
 2334SOL     OW 7821   1.657   4.328   6.792
 2334SOL    HW1 7822   1.619   4.259   6.854
 2334SOL    HW2 7823   1.739   4.292   6.748
 2335SOL     OW 7824   0.671   4.188   6.855
 2335SOL    HW1 7825   0.637   4.099   6.825
 2335SOL    HW2 7826   0.697   4.242   6.775
 2336SOL     OW 7827   0.930   5.402   7.051
 2336SOL    HW1 7828   0.906   5.384   6.956
 2336SOL    HW2 7829   0.960   5.496   7.061
 2337SOL     OW 7830   0.473   4.224   5.777
 2337SOL    HW1 7831   0.534   4.304   5.781
 2337SOL    HW2 7832   0.378   4.255   5.784
 2338SOL     OW 7833   0.159   4.861   7.052
 2338SOL    HW1 7834   0.181   4.800   7.128
 2338SOL    HW2 7835   0.169   4.812   6.966
 2339SOL     OW 7836   1.347   4.783   6.820
 2339SOL    HW1 7837   1.371   4.720   6.746
 2339SOL    HW2 7838   1.257   4.823   6.802
 2340SOL     OW 7839   1.302   4.579   5.895
 2340SOL    HW1 7840   1.216   4.548   5.937
 2340SOL    HW2 7841   1.298   4.565   5.796
 2341SOL     OW 7842   1.759   5.471   6.740
 2341SOL    HW1 7843   1.820   5.501   6.667
 2341SOL    HW2 7844   1.721   5.382   6.718
 2342SOL     OW 7845   1.252   5.455   6.714
 2342SOL    HW1 7846   1.336   5.460   6.660
 2342SOL    HW2 7847   1.229   5.359   6.732
 2343SOL     OW 7848   0.083   4.982   6.608
 2343SOL    HW1 7849   0.078   4.981   6.708
 2343SOL    HW2 7850   0.000   4.941   6.570
 2344SOL     OW 7851   1.726   3.859   6.109
 2344SOL    HW1 7852   1.799   3.842   6.042
 2344SOL    HW2 7853   1.695   3.772   6.147
 2345SOL     OW 7854   1.388   5.297   6.063
 2345SOL    HW1 7855   1.455   5.309   5.989
 2345SOL    HW2 7856   1.348   5.386   6.086
 2346SOL     OW 7857   1.280   4.651   6.258
 2346SOL    HW1 7858   1.340   4.570   6.260
 2346SOL    HW2 7859   1.320   4.720   6.198
 2347SOL     OW 7860   0.672   5.340   5.740
 2347SOL    HW1 7861   0.681   5.350   5.641
 2347SOL    HW2 7862   0.632   5.251   5.761
 2348SOL     OW 7863   1.841   3.899   6.549
 2348SOL    HW1 7864   1.880   3.814   6.513
 2348SOL    HW2 7865   1.743   3.901   6.530
 2349SOL     OW 7866   0.263   4.050   6.306
 2349SOL    HW1 7867   0.184   4.101   6.272
 2349SOL    HW2 7868   0.254   4.035   6.404
 2350SOL     OW 7869   1.194   5.336   5.617
 2350SOL    HW1 7870   1.200   5.243   5.654
 2350SOL    HW2 7871   1.135   5.336   5.537
 2351SOL     OW 7872   0.822   4.726   6.958
 2351SOL    HW1 7873   0.862   4.725   6.866
 2351SOL    HW2 7874   0.832   4.818   6.998
 2352SOL     OW 7875   0.916   4.634   5.877
 2352SOL    HW1 7876   0.979   4.672   5.809
 2352SOL    HW2 7877   0.956   4.551   5.916
 2353SOL     OW 7878   1.504   5.331   5.630
 2353SOL    HW1 7879   1.412   5.368   5.637
 2353SOL    HW2 7880   1.542   5.351   5.540
 2354SOL     OW 7881   1.614   5.016   6.875
 2354SOL    HW1 7882   1.674   5.019   6.955
 2354SOL    HW2 7883   1.539   5.080   6.888
 2355SOL     OW 7884   1.039   4.822   6.282
 2355SOL    HW1 7885   0.969   4.775   6.336
 2355SOL    HW2 7886   1.098   4.754   6.239
 2356SOL     OW 7887   1.014   3.960   6.557
 2356SOL    HW1 7888   1.006   3.924   6.464
 2356SOL    HW2 7889   1.012   3.884   6.622
 2357SOL     OW 7890   0.590   5.211   6.077
 2357SOL    HW1 7891   0.632   5.153   6.007
 2357SOL    HW2 7892   0.546   5.290   6.033
 2358SOL     OW 7893   1.709   4.109   6.967
 2358SOL    HW1 7894   1.782   4.178   6.971
 2358SOL    HW2 7895   1.737   4.034   6.908
 2359SOL     OW 7896   0.255   5.072   5.876
 2359SOL    HW1 7897   0.159   5.073   5.849
 2359SOL    HW2 7898   0.267   5.125   5.960
 2360SOL     OW 7899   0.672   3.927   7.075
 2360SOL    HW1 7900   0.762   3.911   7.035
 2360SOL    HW2 7901   0.680   3.932   7.174
 2361SOL     OW 7902   0.075   4.069   5.619
 2361SOL    HW1 7903  -0.017   4.041   5.590
 2361SOL    HW2 7904   0.106   4.146   5.563
 2362SOL     OW 7905   0.072   3.890   5.904
 2362SOL    HW1 7906   0.055   3.973   5.850
 2362SOL    HW2 7907   0.162   3.853   5.882
 2363SOL     OW 7908   1.183   5.059   5.705
 2363SOL    HW1 7909   1.084   5.048   5.707
 2363SOL    HW2 7910   1.217   5.074   5.798
 2364SOL     OW 7911   1.493   5.491   6.545
 2364SOL    HW1 7912   1.526   5.555   6.476
 2364SOL    HW2 7913   1.559   5.485   6.620
 2365SOL     OW 7914   1.450   4.944   7.219
 2365SOL    HW1 7915   1.441   4.934   7.318
 2365SOL    HW2 7916   1.546   4.937   7.193
 2366SOL     OW 7917   0.390   5.465   7.146
 2366SOL    HW1 7918   0.299   5.506   7.144
 2366SOL    HW2 7919   0.383   5.371   7.178
 2367SOL     OW 7920   1.674   4.607   6.840
 2367SOL    HW1 7921   1.647   4.518   6.803
 2367SOL    HW2 7922   1.675   4.675   6.767
 2368SOL     OW 7923   1.225   4.049   6.035
 2368SOL    HW1 7924   1.290   3.975   6.024
 2368SOL    HW2 7925   1.245   4.099   6.119
 2369SOL     OW 7926   0.594   4.469   6.238
 2369SOL    HW1 7927   0.644   4.554   6.219
 2369SOL    HW2 7928   0.506   4.471   6.190
 2370SOL     OW 7929   1.730   4.658   7.103
 2370SOL    HW1 7930   1.768   4.749   7.118
 2370SOL    HW2 7931   1.722   4.641   7.004
 2371SOL     OW 7932   0.859   5.098   5.602
 2371SOL    HW1 7933   0.813   5.113   5.690
 2371SOL    HW2 7934   0.903   5.183   5.572
 2372SOL     OW 7935   0.661   5.514   6.539
 2372SOL    HW1 7936   0.615   5.602   6.526
 2372SOL    HW2 7937   0.760   5.526   6.532
 2373SOL     OW 7938   0.859   4.680   6.447
 2373SOL    HW1 7939   0.913   4.611   6.495
 2373SOL    HW2 7940   0.827   4.749   6.513
 2374SOL     OW 7941   1.083   4.708   5.673
 2374SOL    HW1 7942   1.060   4.761   5.591
 2374SOL    HW2 7943   1.164   4.652   5.654
 2375SOL     OW 7944   1.861   5.293   6.437
 2375SOL    HW1 7945   1.790   5.281   6.367
 2375SOL    HW2 7946   1.862   5.214   6.497
 2376SOL     OW 7947   0.079   4.964   6.239
 2376SOL    HW1 7948   0.078   4.917   6.327
 2376SOL    HW2 7949   0.161   4.936   6.188
 2377SOL     OW 7950   1.824   3.916   6.813
 2377SOL    HW1 7951   1.820   3.826   6.857
 2377SOL    HW2 7952   1.827   3.905   6.714
 2378SOL     OW 7953   0.428   4.148   6.106
 2378SOL    HW1 7954   0.458   4.076   6.044
 2378SOL    HW2 7955   0.389   4.108   6.189
 2379SOL     OW 7956   1.705   5.211   6.690
 2379SOL    HW1 7957   1.612   5.186   6.663
 2379SOL    HW2 7958   1.731   5.161   6.772
 2380SOL     OW 7959   0.317   4.271   6.866
 2380SOL    HW1 7960   0.355   4.212   6.938
 2380SOL    HW2 7961   0.357   4.245   6.778
 2381SOL     OW 7962   0.812   5.310   6.273
 2381SOL    HW1 7963   0.844   5.320   6.179
 2381SOL    HW2 7964   0.733   5.248   6.275
 2382SOL     OW 7965   1.424   3.938   6.698
 2382SOL    HW1 7966   1.476   3.873   6.753
 2382SOL    HW2 7967   1.375   4.001   6.759
 2383SOL     OW 7968   1.001   3.758   6.740
 2383SOL    HW1 7969   0.938   3.686   6.709
 2383SOL    HW2 7970   1.094   3.722   6.740
 2384SOL     OW 7971   0.770   5.054   5.887
 2384SOL    HW1 7972   0.724   4.967   5.904
 2384SOL    HW2 7973   0.861   5.051   5.928
 2385SOL     OW 7974   0.618   5.291   6.870
 2385SOL    HW1 7975   0.613   5.373   6.927
 2385SOL    HW2 7976   0.707   5.288   6.825
 2386SOL     OW 7977   1.352   3.776   5.754
 2386SOL    HW1 7978   1.387   3.735   5.670
 2386SOL    HW2 7979   1.262   3.738   5.774
 2387SOL     OW 7980   1.300   4.177   6.277
 2387SOL    HW1 7981   1.241   4.257   6.281
 2387SOL    HW2 7982   1.315   4.142   6.370
 2388SOL     OW 7983   1.593   3.945   6.468
 2388SOL    HW1 7984   1.509   3.944   6.522
 2388SOL    HW2 7985   1.595   4.028   6.412
 2389SOL     OW 7986   0.039   4.801   5.886
 2389SOL    HW1 7987   0.138   4.790   5.877
 2389SOL    HW2 7988  -0.001   4.715   5.918
 2390SOL     OW 7989   0.875   5.370   5.923
 2390SOL    HW1 7990   0.798   5.335   5.869
 2390SOL    HW2 7991   0.843   5.441   5.985
 2391SOL     OW 7992   0.230   6.214   0.113
 2391SOL    HW1 7993   0.137   6.212   0.150
 2391SOL    HW2 7994   0.231   6.175   0.021
 2392SOL     OW 7995   0.225   5.861   0.996
 2392SOL    HW1 7996   0.260   5.844   1.088
 2392SOL    HW2 7997   0.137   5.816   0.984
 2393SOL     OW 7998   0.019   5.954   0.647
 2393SOL    HW1 7999  -0.063   5.997   0.686
 2393SOL    HW2 8000  -0.009   5.881   0.584
 2394SOL     OW 8001   0.569   6.861   1.165
 2394SOL    HW1 8002   0.476   6.854   1.128
 2394SOL    HW2 8003   0.580   6.950   1.209
 2395SOL     OW 8004   1.555   7.097   0.703
 2395SOL    HW1 8005   1.498   7.081   0.784
 2395SOL    HW2 8006   1.496   7.107   0.623
 2396SOL     OW 8007   1.135   6.289   0.717
 2396SOL    HW1 8008   1.192   6.367   0.692
 2396SOL    HW2 8009   1.075   6.315   0.793
 2397SOL     OW 8010   1.755   6.193   0.231
 2397SOL    HW1 8011   1.743   6.180   0.132
 2397SOL    HW2 8012   1.725   6.112   0.280
 2398SOL     OW 8013   0.768   6.730   1.023
 2398SOL    HW1 8014   0.690   6.747   1.083
 2398SOL    HW2 8015   0.802   6.817   0.987
 2399SOL     OW 8016   0.850   6.384   1.823
 2399SOL    HW1 8017   0.846   6.460   1.888
 2399SOL    HW2 8018   0.872   6.420   1.732
 2400SOL     OW 8019   0.685   6.598   0.665
 2400SOL    HW1 8020   0.754   6.582   0.735
 2400SOL    HW2 8021   0.612   6.655   0.703
 2401SOL     OW 8022   0.686   6.747   1.803
 2401SOL    HW1 8023   0.746   6.826   1.817
 2401SOL    HW2 8024   0.600   6.778   1.762
 2402SOL     OW 8025   0.335   7.021   1.061
 2402SOL    HW1 8026   0.257   6.990   1.008
 2402SOL    HW2 8027   0.393   7.079   1.004
 2403SOL     OW 8028   0.438   5.978   1.499
 2403SOL    HW1 8029   0.520   5.922   1.508
 2403SOL    HW2 8030   0.357   5.920   1.503
 2404SOL     OW 8031   1.603   6.033   0.737
 2404SOL    HW1 8032   1.529   6.079   0.687
 2404SOL    HW2 8033   1.654   6.101   0.790
 2405SOL     OW 8034   0.240   6.677   0.886
 2405SOL    HW1 8035   0.254   6.593   0.938
 2405SOL    HW2 8036   0.185   6.741   0.941
 2406SOL     OW 8037   0.606   6.550   0.123
 2406SOL    HW1 8038   0.613   6.634   0.069
 2406SOL    HW2 8039   0.652   6.563   0.211
 2407SOL     OW 8040   1.594   5.700   1.480
 2407SOL    HW1 8041   1.576   5.767   1.408
 2407SOL    HW2 8042   1.591   5.746   1.569
 2408SOL     OW 8043   0.122   6.229   0.563
 2408SOL    HW1 8044   0.077   6.141   0.580
 2408SOL    HW2 8045   0.121   6.283   0.647
 2409SOL     OW 8046   1.689   6.508   0.612
 2409SOL    HW1 8047   1.784   6.479   0.620
 2409SOL    HW2 8048   1.681   6.573   0.537
 2410SOL     OW 8049   1.641   6.694   0.432
 2410SOL    HW1 8050   1.727   6.696   0.380
 2410SOL    HW2 8051   1.655   6.741   0.520
 2411SOL     OW 8052   0.113   6.323   1.597
 2411SOL    HW1 8053   0.201   6.310   1.642
 2411SOL    HW2 8054   0.100   6.420   1.575
 2412SOL     OW 8055   1.293   6.814   1.423
 2412SOL    HW1 8056   1.330   6.741   1.365
 2412SOL    HW2 8057   1.345   6.819   1.508
 2413SOL     OW 8058   0.809   5.590   0.502
 2413SOL    HW1 8059   0.849   5.681   0.493
 2413SOL    HW2 8060   0.709   5.598   0.508
 2414SOL     OW 8061   0.197   6.562   1.264
 2414SOL    HW1 8062   0.286   6.517   1.250
 2414SOL    HW2 8063   0.124   6.497   1.245
 2415SOL     OW 8064   1.525   6.585   0.190
 2415SOL    HW1 8065   1.462   6.509   0.203
 2415SOL    HW2 8066   1.573   6.603   0.276
 2416SOL     OW 8067   0.317   5.837   1.801
 2416SOL    HW1 8068   0.388   5.908   1.807
 2416SOL    HW2 8069   0.229   5.876   1.829
 2417SOL     OW 8070   1.466   7.003   0.953
 2417SOL    HW1 8071   1.407   7.009   1.033
 2417SOL    HW2 8072   1.451   6.915   0.907
 2418SOL     OW 8073   0.598   6.315   0.270
 2418SOL    HW1 8074   0.622   6.384   0.202
 2418SOL    HW2 8075   0.520   6.348   0.324
 2419SOL     OW 8076   1.281   5.931   0.944
 2419SOL    HW1 8077   1.195   5.881   0.931
 2419SOL    HW2 8078   1.343   5.877   1.000
 2420SOL     OW 8079   0.807   6.191   1.465
 2420SOL    HW1 8080   0.760   6.188   1.554
 2420SOL    HW2 8081   0.756   6.136   1.399
 2421SOL     OW 8082   1.394   6.055   1.674
 2421SOL    HW1 8083   1.374   6.098   1.762
 2421SOL    HW2 8084   1.472   5.993   1.683
 2422SOL     OW 8085   0.973   6.476   1.572
 2422SOL    HW1 8086   1.019   6.392   1.543
 2422SOL    HW2 8087   0.917   6.510   1.497
 2423SOL     OW 8088   0.991   5.996   1.242
 2423SOL    HW1 8089   0.914   6.030   1.296
 2423SOL    HW2 8090   0.957   5.945   1.163
 2424SOL     OW 8091   1.041   6.287   0.429
 2424SOL    HW1 8092   1.067   6.283   0.525
 2424SOL    HW2 8093   0.956   6.236   0.415
 2425SOL     OW 8094   0.076   6.397   0.789
 2425SOL    HW1 8095   0.175   6.385   0.798
 2425SOL    HW2 8096   0.052   6.492   0.810
 2426SOL     OW 8097   0.865   5.934   0.195
 2426SOL    HW1 8098   0.924   5.997   0.146
 2426SOL    HW2 8099   0.884   5.840   0.166
 2427SOL     OW 8100   1.719   6.171   1.831
 2427SOL    HW1 8101   1.693   6.260   1.795
 2427SOL    HW2 8102   1.717   6.103   1.758
 2428SOL     OW 8103   1.362   6.730   0.545
 2428SOL    HW1 8104   1.445   6.701   0.497
 2428SOL    HW2 8105   1.313   6.797   0.489
 2429SOL     OW 8106   0.550   5.782   0.885
 2429SOL    HW1 8107   0.545   5.777   0.985
 2429SOL    HW2 8108   0.552   5.878   0.856
 2430SOL     OW 8109   1.795   6.652   0.873
 2430SOL    HW1 8110   1.733   6.637   0.797
 2430SOL    HW2 8111   1.743   6.663   0.958
 2431SOL     OW 8112   0.321   6.529   0.242
 2431SOL    HW1 8113   0.403   6.568   0.200
 2431SOL    HW2 8114   0.294   6.447   0.193
 2432SOL     OW 8115   1.458   6.321   0.728
 2432SOL    HW1 8116   1.453   6.256   0.803
 2432SOL    HW2 8117   1.538   6.380   0.741
 2433SOL     OW 8118   0.202   5.871   1.498
 2433SOL    HW1 8119   0.122   5.931   1.485
 2433SOL    HW2 8120   0.192   5.822   1.584
 2434SOL     OW 8121   1.632   6.963   0.081
 2434SOL    HW1 8122   1.600   7.057   0.071
 2434SOL    HW2 8123   1.556   6.900   0.069
 2435SOL     OW 8124   1.400   5.693   0.426
 2435SOL    HW1 8125   1.376   5.656   0.336
 2435SOL    HW2 8126   1.499   5.709   0.430
 2436SOL     OW 8127   0.382   6.286   0.480
 2436SOL    HW1 8128   0.427   6.196   0.477
 2436SOL    HW2 8129   0.288   6.275   0.513
 2437SOL     OW 8130   1.547   5.808   1.729
 2437SOL    HW1 8131   1.542   5.845   1.821
 2437SOL    HW2 8132   1.475   5.739   1.717
 2438SOL     OW 8133   0.781   5.850   1.749
 2438SOL    HW1 8134   0.848   5.789   1.792
 2438SOL    HW2 8135   0.708   5.869   1.814
 2439SOL     OW 8136   1.351   6.176   1.433
 2439SOL    HW1 8137   1.379   6.133   1.518
 2439SOL    HW2 8138   1.376   6.272   1.434
 2440SOL     OW 8139   0.922   6.089   0.899
 2440SOL    HW1 8140   0.897   6.080   0.803
 2440SOL    HW2 8141   0.970   6.007   0.930
 2441SOL     OW 8142   0.539   5.650   0.512
 2441SOL    HW1 8143   0.458   5.651   0.570
 2441SOL    HW2 8144   0.542   5.733   0.457
 2442SOL     OW 8145   1.434   6.774   0.041
 2442SOL    HW1 8146   1.466   6.698   0.098
 2442SOL    HW2 8147   1.342   6.801   0.071
 2443SOL     OW 8148   0.935   5.822   0.480
 2443SOL    HW1 8149   0.887   5.863   0.402
 2443SOL    HW2 8150   1.034   5.820   0.461
 2444SOL     OW 8151   1.076   6.269   1.464
 2444SOL    HW1 8152   0.996   6.208   1.467
 2444SOL    HW2 8153   1.157   6.216   1.440
 2445SOL     OW 8154   1.227   7.156   0.793
 2445SOL    HW1 8155   1.248   7.230   0.728
 2445SOL    HW2 8156   1.295   7.156   0.866
 2446SOL     OW 8157   0.459   6.738   0.741
 2446SOL    HW1 8158   0.388   6.711   0.806
 2446SOL    HW2 8159   0.433   6.710   0.648
 2447SOL     OW 8160   1.032   6.135   0.016
 2447SOL    HW1 8161   0.991   6.217  -0.023
 2447SOL    HW2 8162   1.096   6.161   0.089
 2448SOL     OW 8163   0.078   6.142   1.386
 2448SOL    HW1 8164   0.170   6.141   1.345
 2448SOL    HW2 8165   0.072   6.216   1.453
 2449SOL     OW 8166   0.561   5.808   1.147
 2449SOL    HW1 8167   0.599   5.724   1.184
 2449SOL    HW2 8168   0.473   5.827   1.191
 2450SOL     OW 8169   0.866   6.040   0.642
 2450SOL    HW1 8170   0.834   6.112   0.580
 2450SOL    HW2 8171   0.890   5.959   0.589
 2451SOL     OW 8172   1.017   5.625   0.753
 2451SOL    HW1 8173   0.945   5.630   0.684
 2451SOL    HW2 8174   0.993   5.556   0.822
 2452SOL     OW 8175   1.429   6.759   0.867
 2452SOL    HW1 8176   1.374   6.675   0.860
 2452SOL    HW2 8177   1.455   6.788   0.775
 2453SOL     OW 8178   1.466   6.176   0.992
 2453SOL    HW1 8179   1.436   6.081   0.999
 2453SOL    HW2 8180   1.539   6.192   1.058
 2454SOL     OW 8181   1.857   6.419   0.377
 2454SOL    HW1 8182   1.899   6.355   0.441
 2454SOL    HW2 8183   1.819   6.368   0.299
 2455SOL     OW 8184   1.664   6.866   0.657
 2455SOL    HW1 8185   1.763   6.874   0.671
 2455SOL    HW2 8186   1.619   6.950   0.688
 2456SOL     OW 8187   1.390   6.161   0.078
 2456SOL    HW1 8188   1.336   6.140   0.159
 2456SOL    HW2 8189   1.481   6.120   0.087
 2457SOL     OW 8190   0.527   5.842   0.328
 2457SOL    HW1 8191   0.554   5.783   0.253
 2457SOL    HW2 8192   0.527   5.937   0.297
 2458SOL     OW 8193   1.754   6.809   1.588
 2458SOL    HW1 8194   1.845   6.770   1.575
 2458SOL    HW2 8195   1.762   6.905   1.612
 2459SOL     OW 8196   1.064   6.933   1.340
 2459SOL    HW1 8197   0.984   6.910   1.395
 2459SOL    HW2 8198   1.147   6.907   1.389
 2460SOL     OW 8199   1.111   6.781   1.100
 2460SOL    HW1 8200   1.071   6.825   1.181
 2460SOL    HW2 8201   1.070   6.818   1.017
 2461SOL     OW 8202   1.638   6.685   1.079
 2461SOL    HW1 8203   1.643   6.766   1.138
 2461SOL    HW2 8204   1.552   6.687   1.028
 2462SOL     OW 8205   0.915   5.675   1.402
 2462SOL    HW1 8206   0.940   5.655   1.307
 2462SOL    HW2 8207   0.987   5.731   1.444
 2463SOL     OW 8208   0.980   6.702   1.719
 2463SOL    HW1 8209   0.881   6.708   1.729
 2463SOL    HW2 8210   1.003   6.622   1.663
 2464SOL     OW 8211   0.705   6.636   0.368
 2464SOL    HW1 8212   0.691   6.643   0.467
 2464SOL    HW2 8213   0.789   6.585   0.350
 2465SOL     OW 8214   0.410   6.399   1.251
 2465SOL    HW1 8215   0.496   6.411   1.301
 2465SOL    HW2 8216   0.368   6.312   1.278
 2466SOL     OW 8217   1.274   5.972   1.262
 2466SOL    HW1 8218   1.295   6.046   1.326
 2466SOL    HW2 8219   1.185   5.989   1.219
 2467SOL     OW 8220   0.064   7.150   1.331
 2467SOL    HW1 8221   0.018   7.232   1.297
 2467SOL    HW2 8222   0.162   7.169   1.340
 2468SOL     OW 8223   0.367   6.686   0.501
 2468SOL    HW1 8224   0.360   6.769   0.445
 2468SOL    HW2 8225   0.371   6.606   0.441
 2469SOL     OW 8226   0.566   6.123   0.865
 2469SOL    HW1 8227   0.578   6.189   0.791
 2469SOL    HW2 8228   0.612   6.157   0.948
 2470SOL     OW 8229   1.582   6.225   0.472
 2470SOL    HW1 8230   1.551   6.286   0.545
 2470SOL    HW2 8231   1.632   6.277   0.403
 2471SOL     OW 8232   0.402   6.337   1.598
 2471SOL    HW1 8233   0.470   6.392   1.551
 2471SOL    HW2 8234   0.442   6.249   1.625
 2472SOL     OW 8235   1.587   6.365   1.670
 2472SOL    HW1 8236   1.495   6.403   1.665
 2472SOL    HW2 8237   1.647   6.412   1.605
 2473SOL     OW 8238   1.013   5.691   1.770
 2473SOL    HW1 8239   1.019   5.776   1.718
 2473SOL    HW2 8240   1.045   5.615   1.713
 2474SOL     OW 8241   0.504   5.636   1.740
 2474SOL    HW1 8242   0.462   5.579   1.670
 2474SOL    HW2 8243   0.438   5.705   1.772
 2475SOL     OW 8244   0.573   6.456   1.029
 2475SOL    HW1 8245   0.617   6.545   1.020
 2475SOL    HW2 8246   0.510   6.456   1.106
 2476SOL     OW 8247   1.360   6.448   1.045
 2476SOL    HW1 8248   1.285   6.448   0.979
 2476SOL    HW2 8249   1.397   6.356   1.054
 2477SOL     OW 8250   1.209   6.111   0.275
 2477SOL    HW1 8251   1.222   6.027   0.329
 2477SOL    HW2 8252   1.180   6.185   0.335
 2478SOL     OW 8253   0.307   5.799   1.231
 2478SOL    HW1 8254   0.284   5.836   1.321
 2478SOL    HW2 8255   0.277   5.704   1.225
 2479SOL     OW 8256   0.037   6.896   1.282
 2479SOL    HW1 8257   0.090   6.847   1.350
 2479SOL    HW2 8258   0.059   6.994   1.287
 2480SOL     OW 8259   0.732   6.220   1.064
 2480SOL    HW1 8260   0.791   6.194   0.988
 2480SOL    HW2 8261   0.704   6.316   1.053
 2481SOL     OW 8262   1.728   6.521   1.854
 2481SOL    HW1 8263   1.682   6.514   1.765
 2481SOL    HW2 8264   1.666   6.565   1.920
 2482SOL     OW 8265   0.307   5.649   0.618
 2482SOL    HW1 8266   0.296   5.743   0.651
 2482SOL    HW2 8267   0.302   5.586   0.695
 2483SOL     OW 8268   1.622   5.953   0.374
 2483SOL    HW1 8269   1.624   5.877   0.438
 2483SOL    HW2 8270   1.574   6.030   0.414
 2484SOL     OW 8271   1.023   6.352   0.966
 2484SOL    HW1 8272   1.038   6.373   1.062
 2484SOL    HW2 8273   0.993   6.257   0.957
 2485SOL     OW 8274   1.859   7.104   1.605
 2485SOL    HW1 8275   1.873   7.131   1.510
 2485SOL    HW2 8276   1.942   7.126   1.658
 2486SOL     OW 8277   0.350   6.484   1.804
 2486SOL    HW1 8278   0.426   6.528   1.852
 2486SOL    HW2 8279   0.385   6.437   1.722
 2487SOL     OW 8280   1.540   5.860   0.125
 2487SOL    HW1 8281   1.479   5.785   0.148
 2487SOL    HW2 8282   1.562   5.912   0.208
 2488SOL     OW 8283   1.303   6.424   0.042
 2488SOL    HW1 8284   1.337   6.331   0.057
 2488SOL    HW2 8285   1.321   6.451  -0.053
 2489SOL     OW 8286   0.319   6.396   0.949
 2489SOL    HW1 8287   0.412   6.432   0.954
 2489SOL    HW2 8288   0.313   6.311   1.001
 2490SOL     OW 8289   0.339   6.095   1.006
 2490SOL    HW1 8290   0.287   6.012   0.989
 2490SOL    HW2 8291   0.416   6.100   0.942
 2491SOL     OW 8292   1.138   5.966   1.678
 2491SOL    HW1 8293   1.093   6.029   1.742
 2491SOL    HW2 8294   1.231   5.997   1.661
 2492SOL     OW 8295   1.160   5.793   1.477
 2492SOL    HW1 8296   1.160   5.857   1.554
 2492SOL    HW2 8297   1.188   5.841   1.394
 2493SOL     OW 8298   0.008   6.912   0.200
 2493SOL    HW1 8299  -0.085   6.933   0.169
 2493SOL    HW2 8300   0.018   6.813   0.213
 2494SOL     OW 8301   1.002   6.382   1.238
 2494SOL    HW1 8302   1.043   6.350   1.324
 2494SOL    HW2 8303   0.906   6.355   1.235
 2495SOL     OW 8304   0.040   6.130   1.114
 2495SOL    HW1 8305   0.125   6.097   1.073
 2495SOL    HW2 8306   0.053   6.145   1.212
 2496SOL     OW 8307   0.189   6.106   1.722
 2496SOL    HW1 8308   0.248   6.066   1.652
 2496SOL    HW2 8309   0.131   6.177   1.681
 2497SOL     OW 8310   1.369   6.536   1.660
 2497SOL    HW1 8311   1.408   6.625   1.680
 2497SOL    HW2 8312   1.379   6.516   1.563
 2498SOL     OW 8313   0.815   6.158   0.325
 2498SOL    HW1 8314   0.822   6.069   0.279
 2498SOL    HW2 8315   0.721   6.192   0.317
 2499SOL     OW 8316   1.657   6.190   1.206
 2499SOL    HW1 8317   1.619   6.121   1.268
 2499SOL    HW2 8318   1.739   6.154   1.162
 2500SOL     OW 8319   0.671   6.050   1.269
 2500SOL    HW1 8320   0.637   5.961   1.239
 2500SOL    HW2 8321   0.697   6.104   1.189
 2501SOL     OW 8322   0.473   6.086   0.191
 2501SOL    HW1 8323   0.534   6.166   0.195
 2501SOL    HW2 8324   0.378   6.117   0.198
 2502SOL     OW 8325   0.159   6.723   1.466
 2502SOL    HW1 8326   0.181   6.662   1.542
 2502SOL    HW2 8327   0.169   6.674   1.380
 2503SOL     OW 8328   1.347   6.645   1.234
 2503SOL    HW1 8329   1.371   6.582   1.160
 2503SOL    HW2 8330   1.257   6.685   1.216
 2504SOL     OW 8331   1.302   6.441   0.309
 2504SOL    HW1 8332   1.216   6.410   0.351
 2504SOL    HW2 8333   1.298   6.427   0.210
 2505SOL     OW 8334   0.083   6.844   1.022
 2505SOL    HW1 8335   0.078   6.843   1.122
 2505SOL    HW2 8336   0.000   6.803   0.984
 2506SOL     OW 8337   0.903   5.672   0.133
 2506SOL    HW1 8338   0.954   5.673   0.047
 2506SOL    HW2 8339   0.959   5.630   0.204
 2507SOL     OW 8340   1.726   5.721   0.523
 2507SOL    HW1 8341   1.799   5.704   0.456
 2507SOL    HW2 8342   1.695   5.634   0.561
 2508SOL     OW 8343   1.280   6.513   0.672
 2508SOL    HW1 8344   1.340   6.432   0.674
 2508SOL    HW2 8345   1.320   6.582   0.612
 2509SOL     OW 8346   0.830   6.859   1.422
 2509SOL    HW1 8347   0.825   6.892   1.517
 2509SOL    HW2 8348   0.744   6.878   1.376
 2510SOL     OW 8349   1.841   5.761   0.963
 2510SOL    HW1 8350   1.880   5.676   0.927
 2510SOL    HW2 8351   1.743   5.763   0.944
 2511SOL     OW 8352   0.263   5.912   0.720
 2511SOL    HW1 8353   0.184   5.963   0.686
 2511SOL    HW2 8354   0.254   5.897   0.818
 2512SOL     OW 8355   0.822   6.588   1.372
 2512SOL    HW1 8356   0.862   6.587   1.280
 2512SOL    HW2 8357   0.832   6.680   1.412
 2513SOL     OW 8358   0.916   6.496   0.291
 2513SOL    HW1 8359   0.979   6.534   0.223
 2513SOL    HW2 8360   0.956   6.413   0.330
 2514SOL     OW 8361   0.372   6.874   1.490
 2514SOL    HW1 8362   0.359   6.967   1.456
 2514SOL    HW2 8363   0.288   6.822   1.477
 2515SOL     OW 8364   1.614   6.878   1.289
 2515SOL    HW1 8365   1.674   6.881   1.369
 2515SOL    HW2 8366   1.539   6.942   1.302
 2516SOL     OW 8367   1.039   6.684   0.696
 2516SOL    HW1 8368   0.969   6.637   0.750
 2516SOL    HW2 8369   1.098   6.616   0.653
 2517SOL     OW 8370   1.014   5.822   0.971
 2517SOL    HW1 8371   1.006   5.786   0.878
 2517SOL    HW2 8372   1.012   5.746   1.036
 2518SOL     OW 8373   1.709   5.971   1.381
 2518SOL    HW1 8374   1.782   6.040   1.385
 2518SOL    HW2 8375   1.737   5.896   1.322
 2519SOL     OW 8376   0.105   6.599   1.726
 2519SOL    HW1 8377   0.028   6.566   1.780
 2519SOL    HW2 8378   0.190   6.569   1.768
 2520SOL     OW 8379   0.672   5.789   1.489
 2520SOL    HW1 8380   0.762   5.773   1.449
 2520SOL    HW2 8381   0.680   5.794   1.588
 2521SOL     OW 8382   0.075   5.931   0.033
 2521SOL    HW1 8383  -0.017   5.903   0.004
 2521SOL    HW2 8384   0.106   6.008  -0.023
 2522SOL     OW 8385   1.440   6.442   1.398
 2522SOL    HW1 8386   1.383   6.494   1.335
 2522SOL    HW2 8387   1.536   6.454   1.374
 2523SOL     OW 8388   0.072   5.752   0.318
 2523SOL    HW1 8389   0.055   5.835   0.264
 2523SOL    HW2 8390   0.162   5.715   0.296
 2524SOL     OW 8391   0.613   6.428   1.431
 2524SOL    HW1 8392   0.669   6.509   1.414
 2524SOL    HW2 8393   0.672   6.348   1.434
 2525SOL     OW 8394   0.716   6.151   1.708
 2525SOL    HW1 8395   0.735   6.216   1.782
 2525SOL    HW2 8396   0.776   6.071   1.717
 2526SOL     OW 8397   1.450   6.806   1.633
 2526SOL    HW1 8398   1.441   6.796   1.732
 2526SOL    HW2 8399   1.546   6.799   1.607
 2527SOL     OW 8400   1.674   6.469   1.254
 2527SOL    HW1 8401   1.647   6.380   1.217
 2527SOL    HW2 8402   1.675   6.537   1.181
 2528SOL     OW 8403   1.225   5.911   0.449
 2528SOL    HW1 8404   1.290   5.837   0.438
 2528SOL    HW2 8405   1.245   5.961   0.533
 2529SOL     OW 8406   0.594   6.331   0.652
 2529SOL    HW1 8407   0.644   6.416   0.633
 2529SOL    HW2 8408   0.506   6.333   0.604
 2530SOL     OW 8409   1.777   5.928   1.642
 2530SOL    HW1 8410   1.760   5.959   1.548
 2530SOL    HW2 8411   1.693   5.891   1.680
 2531SOL     OW 8412   1.730   6.520   1.517
 2531SOL    HW1 8413   1.768   6.611   1.532
 2531SOL    HW2 8414   1.722   6.503   1.418
 2532SOL     OW 8415   0.859   6.542   0.861
 2532SOL    HW1 8416   0.913   6.473   0.909
 2532SOL    HW2 8417   0.827   6.611   0.927
 2533SOL     OW 8418   1.083   6.570   0.087
 2533SOL    HW1 8419   1.060   6.623   0.005
 2533SOL    HW2 8420   1.164   6.514   0.068
 2534SOL     OW 8421   0.221   6.900   1.844
 2534SOL    HW1 8422   0.156   6.827   1.823
 2534SOL    HW2 8423   0.225   6.914   1.942
 2535SOL     OW 8424   0.079   6.826   0.653
 2535SOL    HW1 8425   0.078   6.779   0.741
 2535SOL    HW2 8426   0.161   6.798   0.602
 2536SOL     OW 8427   0.672   6.977   1.624
 2536SOL    HW1 8428   0.594   6.927   1.662
 2536SOL    HW2 8429   0.669   7.072   1.655
 2537SOL     OW 8430   1.824   5.778   1.227
 2537SOL    HW1 8431   1.820   5.688   1.271
 2537SOL    HW2 8432   1.827   5.767   1.128
 2538SOL     OW 8433   0.428   6.010   0.520
 2538SOL    HW1 8434   0.458   5.938   0.458
 2538SOL    HW2 8435   0.389   5.970   0.603
 2539SOL     OW 8436   1.705   7.073   1.104
 2539SOL    HW1 8437   1.612   7.048   1.077
 2539SOL    HW2 8438   1.731   7.023   1.186
 2540SOL     OW 8439   0.317   6.133   1.280
 2540SOL    HW1 8440   0.355   6.074   1.352
 2540SOL    HW2 8441   0.357   6.107   1.192
 2541SOL     OW 8442   1.424   5.800   1.112
 2541SOL    HW1 8443   1.476   5.735   1.167
 2541SOL    HW2 8444   1.375   5.863   1.173
 2542SOL     OW 8445   1.001   5.620   1.154
 2542SOL    HW1 8446   0.938   5.548   1.123
 2542SOL    HW2 8447   1.094   5.584   1.154
 2543SOL     OW 8448   0.770   6.916   0.301
 2543SOL    HW1 8449   0.724   6.829   0.318
 2543SOL    HW2 8450   0.861   6.913   0.342
 2544SOL     OW 8451   1.352   5.638   0.168
 2544SOL    HW1 8452   1.387   5.597   0.084
 2544SOL    HW2 8453   1.262   5.600   0.188
 2545SOL     OW 8454   1.300   6.039   0.691
 2545SOL    HW1 8455   1.241   6.119   0.695
 2545SOL    HW2 8456   1.315   6.004   0.784
 2546SOL     OW 8457   1.593   5.807   0.882
 2546SOL    HW1 8458   1.509   5.806   0.936
 2546SOL    HW2 8459   1.595   5.890   0.826
 2547SOL     OW 8460   0.039   6.663   0.300
 2547SOL    HW1 8461   0.138   6.652   0.291
 2547SOL    HW2 8462  -0.001   6.577   0.332
 2548SOL     OW 8463   0.230   6.214   1.975
 2548SOL    HW1 8464   0.137   6.212   2.012
 2548SOL    HW2 8465   0.231   6.175   1.883
 2549SOL     OW 8466   0.225   5.861   2.858
 2549SOL    HW1 8467   0.260   5.844   2.950
 2549SOL    HW2 8468   0.137   5.816   2.846
 2550SOL     OW 8469   0.019   5.954   2.509
 2550SOL    HW1 8470  -0.063   5.997   2.548
 2550SOL    HW2 8471  -0.009   5.881   2.446
 2551SOL     OW 8472   0.569   6.861   3.027
 2551SOL    HW1 8473   0.476   6.854   2.990
 2551SOL    HW2 8474   0.580   6.950   3.071
 2552SOL     OW 8475   1.555   7.097   2.565
 2552SOL    HW1 8476   1.498   7.081   2.646
 2552SOL    HW2 8477   1.496   7.107   2.485
 2553SOL     OW 8478   1.135   6.289   2.579
 2553SOL    HW1 8479   1.192   6.367   2.554
 2553SOL    HW2 8480   1.075   6.315   2.655
 2554SOL     OW 8481   1.755   6.193   2.093
 2554SOL    HW1 8482   1.743   6.180   1.994
 2554SOL    HW2 8483   1.725   6.112   2.142
 2555SOL     OW 8484   0.768   6.730   2.885
 2555SOL    HW1 8485   0.690   6.747   2.945
 2555SOL    HW2 8486   0.802   6.817   2.849
 2556SOL     OW 8487   0.850   6.384   3.685
 2556SOL    HW1 8488   0.846   6.460   3.750
 2556SOL    HW2 8489   0.872   6.420   3.594
 2557SOL     OW 8490   0.685   6.598   2.527
 2557SOL    HW1 8491   0.754   6.582   2.597
 2557SOL    HW2 8492   0.612   6.655   2.565
 2558SOL     OW 8493   0.686   6.747   3.665
 2558SOL    HW1 8494   0.746   6.826   3.679
 2558SOL    HW2 8495   0.600   6.778   3.624
 2559SOL     OW 8496   0.335   7.021   2.923
 2559SOL    HW1 8497   0.257   6.990   2.870
 2559SOL    HW2 8498   0.393   7.079   2.866
 2560SOL     OW 8499   0.438   5.978   3.361
 2560SOL    HW1 8500   0.520   5.922   3.370
 2560SOL    HW2 8501   0.357   5.920   3.365
 2561SOL     OW 8502   1.603   6.033   2.599
 2561SOL    HW1 8503   1.529   6.079   2.549
 2561SOL    HW2 8504   1.654   6.101   2.652
 2562SOL     OW 8505   0.240   6.677   2.748
 2562SOL    HW1 8506   0.254   6.593   2.800
 2562SOL    HW2 8507   0.185   6.741   2.803
 2563SOL     OW 8508   0.606   6.550   1.985
 2563SOL    HW1 8509   0.613   6.634   1.931
 2563SOL    HW2 8510   0.652   6.563   2.073
 2564SOL     OW 8511   1.594   5.700   3.342
 2564SOL    HW1 8512   1.576   5.767   3.270
 2564SOL    HW2 8513   1.591   5.746   3.431
 2565SOL     OW 8514   0.122   6.229   2.425
 2565SOL    HW1 8515   0.077   6.141   2.442
 2565SOL    HW2 8516   0.121   6.283   2.509
 2566SOL     OW 8517   1.689   6.508   2.474
 2566SOL    HW1 8518   1.784   6.479   2.482
 2566SOL    HW2 8519   1.681   6.573   2.399
 2567SOL     OW 8520   1.641   6.694   2.294
 2567SOL    HW1 8521   1.727   6.696   2.242
 2567SOL    HW2 8522   1.655   6.741   2.382
 2568SOL     OW 8523   0.113   6.323   3.459
 2568SOL    HW1 8524   0.201   6.310   3.504
 2568SOL    HW2 8525   0.100   6.420   3.437
 2569SOL     OW 8526   1.293   6.814   3.285
 2569SOL    HW1 8527   1.330   6.741   3.227
 2569SOL    HW2 8528   1.345   6.819   3.370
 2570SOL     OW 8529   0.809   5.590   2.364
 2570SOL    HW1 8530   0.849   5.681   2.355
 2570SOL    HW2 8531   0.709   5.598   2.370
 2571SOL     OW 8532   0.197   6.562   3.126
 2571SOL    HW1 8533   0.286   6.517   3.112
 2571SOL    HW2 8534   0.124   6.497   3.107
 2572SOL     OW 8535   1.525   6.585   2.052
 2572SOL    HW1 8536   1.462   6.509   2.065
 2572SOL    HW2 8537   1.573   6.603   2.138
 2573SOL     OW 8538   0.317   5.837   3.663
 2573SOL    HW1 8539   0.388   5.908   3.669
 2573SOL    HW2 8540   0.229   5.876   3.691
 2574SOL     OW 8541   1.466   7.003   2.815
 2574SOL    HW1 8542   1.407   7.009   2.895
 2574SOL    HW2 8543   1.451   6.915   2.769
 2575SOL     OW 8544   0.598   6.315   2.132
 2575SOL    HW1 8545   0.622   6.384   2.064
 2575SOL    HW2 8546   0.520   6.348   2.186
 2576SOL     OW 8547   1.281   5.931   2.806
 2576SOL    HW1 8548   1.195   5.881   2.793
 2576SOL    HW2 8549   1.343   5.877   2.862
 2577SOL     OW 8550   0.807   6.191   3.327
 2577SOL    HW1 8551   0.760   6.188   3.416
 2577SOL    HW2 8552   0.756   6.136   3.261
 2578SOL     OW 8553   1.394   6.055   3.536
 2578SOL    HW1 8554   1.374   6.098   3.624
 2578SOL    HW2 8555   1.472   5.993   3.545
 2579SOL     OW 8556   0.973   6.476   3.434
 2579SOL    HW1 8557   1.019   6.392   3.405
 2579SOL    HW2 8558   0.917   6.510   3.359
 2580SOL     OW 8559   0.991   5.996   3.104
 2580SOL    HW1 8560   0.914   6.030   3.158
 2580SOL    HW2 8561   0.957   5.945   3.025
 2581SOL     OW 8562   1.041   6.287   2.291
 2581SOL    HW1 8563   1.067   6.283   2.387
 2581SOL    HW2 8564   0.956   6.236   2.277
 2582SOL     OW 8565   0.076   6.397   2.651
 2582SOL    HW1 8566   0.175   6.385   2.660
 2582SOL    HW2 8567   0.052   6.492   2.672
 2583SOL     OW 8568   0.865   5.934   2.057
 2583SOL    HW1 8569   0.924   5.997   2.008
 2583SOL    HW2 8570   0.884   5.840   2.028
 2584SOL     OW 8571   1.719   6.171   3.693
 2584SOL    HW1 8572   1.693   6.260   3.657
 2584SOL    HW2 8573   1.717   6.103   3.620
 2585SOL     OW 8574   1.362   6.730   2.407
 2585SOL    HW1 8575   1.445   6.701   2.359
 2585SOL    HW2 8576   1.313   6.797   2.351
 2586SOL     OW 8577   0.550   5.782   2.747
 2586SOL    HW1 8578   0.545   5.777   2.847
 2586SOL    HW2 8579   0.552   5.878   2.718
 2587SOL     OW 8580   1.795   6.652   2.735
 2587SOL    HW1 8581   1.733   6.637   2.659
 2587SOL    HW2 8582   1.743   6.663   2.820
 2588SOL     OW 8583   0.321   6.529   2.104
 2588SOL    HW1 8584   0.403   6.568   2.062
 2588SOL    HW2 8585   0.294   6.447   2.055
 2589SOL     OW 8586   1.458   6.321   2.590
 2589SOL    HW1 8587   1.453   6.256   2.665
 2589SOL    HW2 8588   1.538   6.380   2.603
 2590SOL     OW 8589   0.202   5.871   3.360
 2590SOL    HW1 8590   0.122   5.931   3.347
 2590SOL    HW2 8591   0.192   5.822   3.446
 2591SOL     OW 8592   1.632   6.963   1.943
 2591SOL    HW1 8593   1.600   7.057   1.933
 2591SOL    HW2 8594   1.556   6.900   1.931
 2592SOL     OW 8595   1.400   5.693   2.288
 2592SOL    HW1 8596   1.376   5.656   2.198
 2592SOL    HW2 8597   1.499   5.709   2.292
 2593SOL     OW 8598   0.382   6.286   2.342
 2593SOL    HW1 8599   0.427   6.196   2.339
 2593SOL    HW2 8600   0.288   6.275   2.375
 2594SOL     OW 8601   1.547   5.808   3.591
 2594SOL    HW1 8602   1.542   5.845   3.683
 2594SOL    HW2 8603   1.475   5.739   3.579
 2595SOL     OW 8604   0.614   5.708   1.979
 2595SOL    HW1 8605   0.712   5.686   1.986
 2595SOL    HW2 8606   0.583   5.691   1.886
 2596SOL     OW 8607   0.781   5.850   3.611
 2596SOL    HW1 8608   0.848   5.789   3.654
 2596SOL    HW2 8609   0.708   5.869   3.676
 2597SOL     OW 8610   1.351   6.176   3.295
 2597SOL    HW1 8611   1.379   6.133   3.380
 2597SOL    HW2 8612   1.376   6.272   3.296
 2598SOL     OW 8613   0.922   6.089   2.761
 2598SOL    HW1 8614   0.897   6.080   2.665
 2598SOL    HW2 8615   0.970   6.007   2.792
 2599SOL     OW 8616   0.539   5.650   2.374
 2599SOL    HW1 8617   0.458   5.651   2.432
 2599SOL    HW2 8618   0.542   5.733   2.319
 2600SOL     OW 8619   1.434   6.774   1.903
 2600SOL    HW1 8620   1.466   6.698   1.960
 2600SOL    HW2 8621   1.342   6.801   1.933
 2601SOL     OW 8622   0.297   5.621   2.033
 2601SOL    HW1 8623   0.346   5.705   2.012
 2601SOL    HW2 8624   0.359   5.556   2.078
 2602SOL     OW 8625   0.935   5.822   2.342
 2602SOL    HW1 8626   0.887   5.863   2.264
 2602SOL    HW2 8627   1.034   5.820   2.323
 2603SOL     OW 8628   1.076   6.269   3.326
 2603SOL    HW1 8629   0.996   6.208   3.329
 2603SOL    HW2 8630   1.157   6.216   3.302
 2604SOL     OW 8631   1.227   7.156   2.655
 2604SOL    HW1 8632   1.248   7.230   2.590
 2604SOL    HW2 8633   1.295   7.156   2.728
 2605SOL     OW 8634   0.459   6.738   2.603
 2605SOL    HW1 8635   0.388   6.711   2.668
 2605SOL    HW2 8636   0.433   6.710   2.510
 2606SOL     OW 8637   1.032   6.135   1.878
 2606SOL    HW1 8638   0.991   6.217   1.839
 2606SOL    HW2 8639   1.096   6.161   1.951
 2607SOL     OW 8640   0.078   6.142   3.248
 2607SOL    HW1 8641   0.170   6.141   3.207
 2607SOL    HW2 8642   0.072   6.216   3.315
 2608SOL     OW 8643   0.561   5.808   3.009
 2608SOL    HW1 8644   0.599   5.724   3.046
 2608SOL    HW2 8645   0.473   5.827   3.053
 2609SOL     OW 8646   0.866   6.040   2.504
 2609SOL    HW1 8647   0.834   6.112   2.442
 2609SOL    HW2 8648   0.890   5.959   2.451
 2610SOL     OW 8649   1.017   5.625   2.615
 2610SOL    HW1 8650   0.945   5.630   2.546
 2610SOL    HW2 8651   0.993   5.556   2.684
 2611SOL     OW 8652   1.429   6.759   2.729
 2611SOL    HW1 8653   1.374   6.675   2.722
 2611SOL    HW2 8654   1.455   6.788   2.637
 2612SOL     OW 8655   1.466   6.176   2.854
 2612SOL    HW1 8656   1.436   6.081   2.861
 2612SOL    HW2 8657   1.539   6.192   2.920
 2613SOL     OW 8658   1.857   6.419   2.239
 2613SOL    HW1 8659   1.899   6.355   2.303
 2613SOL    HW2 8660   1.819   6.368   2.161
 2614SOL     OW 8661   1.664   6.866   2.519
 2614SOL    HW1 8662   1.763   6.874   2.533
 2614SOL    HW2 8663   1.619   6.950   2.550
 2615SOL     OW 8664   1.390   6.161   1.940
 2615SOL    HW1 8665   1.336   6.140   2.021
 2615SOL    HW2 8666   1.481   6.120   1.949
 2616SOL     OW 8667   0.527   5.842   2.190
 2616SOL    HW1 8668   0.554   5.783   2.115
 2616SOL    HW2 8669   0.527   5.937   2.159
 2617SOL     OW 8670   1.754   6.809   3.450
 2617SOL    HW1 8671   1.845   6.770   3.437
 2617SOL    HW2 8672   1.762   6.905   3.474
 2618SOL     OW 8673   1.064   6.933   3.202
 2618SOL    HW1 8674   0.984   6.910   3.257
 2618SOL    HW2 8675   1.147   6.907   3.251
 2619SOL     OW 8676   1.111   6.781   2.962
 2619SOL    HW1 8677   1.071   6.825   3.043
 2619SOL    HW2 8678   1.070   6.818   2.879
 2620SOL     OW 8679   1.638   6.685   2.941
 2620SOL    HW1 8680   1.643   6.766   3.000
 2620SOL    HW2 8681   1.552   6.687   2.890
 2621SOL     OW 8682   0.915   5.675   3.264
 2621SOL    HW1 8683   0.940   5.655   3.169
 2621SOL    HW2 8684   0.987   5.731   3.306
 2622SOL     OW 8685   0.980   6.702   3.581
 2622SOL    HW1 8686   0.881   6.708   3.591
 2622SOL    HW2 8687   1.003   6.622   3.525
 2623SOL     OW 8688   0.705   6.636   2.230
 2623SOL    HW1 8689   0.691   6.643   2.329
 2623SOL    HW2 8690   0.789   6.585   2.212
 2624SOL     OW 8691   0.410   6.399   3.113
 2624SOL    HW1 8692   0.496   6.411   3.163
 2624SOL    HW2 8693   0.368   6.312   3.140
 2625SOL     OW 8694   1.274   5.972   3.124
 2625SOL    HW1 8695   1.295   6.046   3.188
 2625SOL    HW2 8696   1.185   5.989   3.081
 2626SOL     OW 8697   0.064   7.150   3.193
 2626SOL    HW1 8698   0.018   7.232   3.159
 2626SOL    HW2 8699   0.162   7.169   3.202
 2627SOL     OW 8700   0.367   6.686   2.363
 2627SOL    HW1 8701   0.360   6.769   2.307
 2627SOL    HW2 8702   0.371   6.606   2.303
 2628SOL     OW 8703   0.566   6.123   2.727
 2628SOL    HW1 8704   0.578   6.189   2.653
 2628SOL    HW2 8705   0.612   6.157   2.810
 2629SOL     OW 8706   1.582   6.225   2.334
 2629SOL    HW1 8707   1.551   6.286   2.407
 2629SOL    HW2 8708   1.632   6.277   2.265
 2630SOL     OW 8709   0.402   6.337   3.460
 2630SOL    HW1 8710   0.470   6.392   3.413
 2630SOL    HW2 8711   0.442   6.249   3.487
 2631SOL     OW 8712   1.587   6.365   3.532
 2631SOL    HW1 8713   1.495   6.403   3.527
 2631SOL    HW2 8714   1.647   6.412   3.467
 2632SOL     OW 8715   1.013   5.691   3.632
 2632SOL    HW1 8716   1.019   5.776   3.580
 2632SOL    HW2 8717   1.045   5.615   3.575
 2633SOL     OW 8718   0.504   5.636   3.602
 2633SOL    HW1 8719   0.462   5.579   3.532
 2633SOL    HW2 8720   0.438   5.705   3.634
 2634SOL     OW 8721   0.573   6.456   2.891
 2634SOL    HW1 8722   0.617   6.545   2.882
 2634SOL    HW2 8723   0.510   6.456   2.968
 2635SOL     OW 8724   1.360   6.448   2.907
 2635SOL    HW1 8725   1.285   6.448   2.841
 2635SOL    HW2 8726   1.397   6.356   2.916
 2636SOL     OW 8727   1.209   6.111   2.137
 2636SOL    HW1 8728   1.222   6.027   2.191
 2636SOL    HW2 8729   1.180   6.185   2.197
 2637SOL     OW 8730   0.307   5.799   3.093
 2637SOL    HW1 8731   0.284   5.836   3.183
 2637SOL    HW2 8732   0.277   5.704   3.087
 2638SOL     OW 8733   0.037   6.896   3.144
 2638SOL    HW1 8734   0.090   6.847   3.212
 2638SOL    HW2 8735   0.059   6.994   3.149
 2639SOL     OW 8736   0.732   6.220   2.926
 2639SOL    HW1 8737   0.791   6.194   2.850
 2639SOL    HW2 8738   0.704   6.316   2.915
 2640SOL     OW 8739   1.728   6.521   3.716
 2640SOL    HW1 8740   1.682   6.514   3.627
 2640SOL    HW2 8741   1.666   6.565   3.782
 2641SOL     OW 8742   0.307   5.649   2.480
 2641SOL    HW1 8743   0.296   5.743   2.513
 2641SOL    HW2 8744   0.302   5.586   2.557
 2642SOL     OW 8745   1.622   5.953   2.236
 2642SOL    HW1 8746   1.624   5.877   2.300
 2642SOL    HW2 8747   1.574   6.030   2.276
 2643SOL     OW 8748   1.023   6.352   2.828
 2643SOL    HW1 8749   1.038   6.373   2.924
 2643SOL    HW2 8750   0.993   6.257   2.819
 2644SOL     OW 8751   1.859   7.104   3.467
 2644SOL    HW1 8752   1.873   7.131   3.372
 2644SOL    HW2 8753   1.942   7.126   3.520
 2645SOL     OW 8754   0.350   6.484   3.666
 2645SOL    HW1 8755   0.426   6.528   3.714
 2645SOL    HW2 8756   0.385   6.437   3.584
 2646SOL     OW 8757   1.540   5.860   1.987
 2646SOL    HW1 8758   1.479   5.785   2.010
 2646SOL    HW2 8759   1.562   5.912   2.070
 2647SOL     OW 8760   1.303   6.424   1.904
 2647SOL    HW1 8761   1.337   6.331   1.919
 2647SOL    HW2 8762   1.321   6.451   1.809
 2648SOL     OW 8763   0.319   6.396   2.811
 2648SOL    HW1 8764   0.412   6.432   2.816
 2648SOL    HW2 8765   0.313   6.311   2.863
 2649SOL     OW 8766   0.339   6.095   2.868
 2649SOL    HW1 8767   0.287   6.012   2.851
 2649SOL    HW2 8768   0.416   6.100   2.804
 2650SOL     OW 8769   1.138   5.966   3.540
 2650SOL    HW1 8770   1.093   6.029   3.604
 2650SOL    HW2 8771   1.231   5.997   3.523
 2651SOL     OW 8772   1.160   5.793   3.339
 2651SOL    HW1 8773   1.160   5.857   3.416
 2651SOL    HW2 8774   1.188   5.841   3.256
 2652SOL     OW 8775   0.008   6.912   2.062
 2652SOL    HW1 8776  -0.085   6.933   2.031
 2652SOL    HW2 8777   0.018   6.813   2.075
 2653SOL     OW 8778   1.002   6.382   3.100
 2653SOL    HW1 8779   1.043   6.350   3.186
 2653SOL    HW2 8780   0.906   6.355   3.097
 2654SOL     OW 8781   0.040   6.130   2.976
 2654SOL    HW1 8782   0.125   6.097   2.935
 2654SOL    HW2 8783   0.053   6.145   3.074
 2655SOL     OW 8784   0.189   6.106   3.584
 2655SOL    HW1 8785   0.248   6.066   3.514
 2655SOL    HW2 8786   0.131   6.177   3.543
 2656SOL     OW 8787   1.369   6.536   3.522
 2656SOL    HW1 8788   1.408   6.625   3.542
 2656SOL    HW2 8789   1.379   6.516   3.425
 2657SOL     OW 8790   0.815   6.158   2.187
 2657SOL    HW1 8791   0.822   6.069   2.141
 2657SOL    HW2 8792   0.721   6.192   2.179
 2658SOL     OW 8793   1.657   6.190   3.068
 2658SOL    HW1 8794   1.619   6.121   3.130
 2658SOL    HW2 8795   1.739   6.154   3.024
 2659SOL     OW 8796   0.671   6.050   3.131
 2659SOL    HW1 8797   0.637   5.961   3.101
 2659SOL    HW2 8798   0.697   6.104   3.051
 2660SOL     OW 8799   0.473   6.086   2.053
 2660SOL    HW1 8800   0.534   6.166   2.057
 2660SOL    HW2 8801   0.378   6.117   2.060
 2661SOL     OW 8802   0.159   6.723   3.328
 2661SOL    HW1 8803   0.181   6.662   3.404
 2661SOL    HW2 8804   0.169   6.674   3.242
 2662SOL     OW 8805   1.347   6.645   3.096
 2662SOL    HW1 8806   1.371   6.582   3.022
 2662SOL    HW2 8807   1.257   6.685   3.078
 2663SOL     OW 8808   1.302   6.441   2.171
 2663SOL    HW1 8809   1.216   6.410   2.213
 2663SOL    HW2 8810   1.298   6.427   2.072
 2664SOL     OW 8811   0.083   6.844   2.884
 2664SOL    HW1 8812   0.078   6.843   2.984
 2664SOL    HW2 8813   0.000   6.803   2.846
 2665SOL     OW 8814   1.726   5.721   2.385
 2665SOL    HW1 8815   1.799   5.704   2.318
 2665SOL    HW2 8816   1.695   5.634   2.423
 2666SOL     OW 8817   1.280   6.513   2.534
 2666SOL    HW1 8818   1.340   6.432   2.536
 2666SOL    HW2 8819   1.320   6.582   2.474
 2667SOL     OW 8820   0.830   6.859   3.284
 2667SOL    HW1 8821   0.825   6.892   3.379
 2667SOL    HW2 8822   0.744   6.878   3.238
 2668SOL     OW 8823   1.841   5.761   2.825
 2668SOL    HW1 8824   1.880   5.676   2.789
 2668SOL    HW2 8825   1.743   5.763   2.806
 2669SOL     OW 8826   0.263   5.912   2.582
 2669SOL    HW1 8827   0.184   5.963   2.548
 2669SOL    HW2 8828   0.254   5.897   2.680
 2670SOL     OW 8829   1.194   7.198   1.893
 2670SOL    HW1 8830   1.200   7.105   1.930
 2670SOL    HW2 8831   1.135   7.198   1.813
 2671SOL     OW 8832   0.822   6.588   3.234
 2671SOL    HW1 8833   0.862   6.587   3.142
 2671SOL    HW2 8834   0.832   6.680   3.274
 2672SOL     OW 8835   0.916   6.496   2.153
 2672SOL    HW1 8836   0.979   6.534   2.085
 2672SOL    HW2 8837   0.956   6.413   2.192
 2673SOL     OW 8838   0.372   6.874   3.352
 2673SOL    HW1 8839   0.359   6.967   3.318
 2673SOL    HW2 8840   0.288   6.822   3.339
 2674SOL     OW 8841   1.614   6.878   3.151
 2674SOL    HW1 8842   1.674   6.881   3.231
 2674SOL    HW2 8843   1.539   6.942   3.164
 2675SOL     OW 8844   1.039   6.684   2.558
 2675SOL    HW1 8845   0.969   6.637   2.612
 2675SOL    HW2 8846   1.098   6.616   2.515
 2676SOL     OW 8847   1.014   5.822   2.833
 2676SOL    HW1 8848   1.006   5.786   2.740
 2676SOL    HW2 8849   1.012   5.746   2.898
 2677SOL     OW 8850   1.709   5.971   3.243
 2677SOL    HW1 8851   1.782   6.040   3.247
 2677SOL    HW2 8852   1.737   5.896   3.184
 2678SOL     OW 8853   0.105   6.599   3.588
 2678SOL    HW1 8854   0.028   6.566   3.642
 2678SOL    HW2 8855   0.190   6.569   3.630
 2679SOL     OW 8856   0.672   5.789   3.351
 2679SOL    HW1 8857   0.762   5.773   3.311
 2679SOL    HW2 8858   0.680   5.794   3.450
 2680SOL     OW 8859   0.075   5.931   1.895
 2680SOL    HW1 8860  -0.017   5.903   1.866
 2680SOL    HW2 8861   0.106   6.008   1.839
 2681SOL     OW 8862   1.440   6.442   3.260
 2681SOL    HW1 8863   1.383   6.494   3.197
 2681SOL    HW2 8864   1.536   6.454   3.236
 2682SOL     OW 8865   0.072   5.752   2.180
 2682SOL    HW1 8866   0.055   5.835   2.126
 2682SOL    HW2 8867   0.162   5.715   2.158
 2683SOL     OW 8868   0.613   6.428   3.293
 2683SOL    HW1 8869   0.669   6.509   3.276
 2683SOL    HW2 8870   0.672   6.348   3.296
 2684SOL     OW 8871   0.716   6.151   3.570
 2684SOL    HW1 8872   0.735   6.216   3.644
 2684SOL    HW2 8873   0.776   6.071   3.579
 2685SOL     OW 8874   1.450   6.806   3.495
 2685SOL    HW1 8875   1.441   6.796   3.594
 2685SOL    HW2 8876   1.546   6.799   3.469
 2686SOL     OW 8877   1.674   6.469   3.116
 2686SOL    HW1 8878   1.647   6.380   3.079
 2686SOL    HW2 8879   1.675   6.537   3.043
 2687SOL     OW 8880   1.225   5.911   2.311
 2687SOL    HW1 8881   1.290   5.837   2.300
 2687SOL    HW2 8882   1.245   5.961   2.395
 2688SOL     OW 8883   0.594   6.331   2.514
 2688SOL    HW1 8884   0.644   6.416   2.495
 2688SOL    HW2 8885   0.506   6.333   2.466
 2689SOL     OW 8886   1.777   5.928   3.504
 2689SOL    HW1 8887   1.760   5.959   3.410
 2689SOL    HW2 8888   1.693   5.891   3.542
 2690SOL     OW 8889   1.730   6.520   3.379
 2690SOL    HW1 8890   1.768   6.611   3.394
 2690SOL    HW2 8891   1.722   6.503   3.280
 2691SOL     OW 8892   0.859   6.542   2.723
 2691SOL    HW1 8893   0.913   6.473   2.771
 2691SOL    HW2 8894   0.827   6.611   2.789
 2692SOL     OW 8895   1.083   6.570   1.949
 2692SOL    HW1 8896   1.060   6.623   1.867
 2692SOL    HW2 8897   1.164   6.514   1.930
 2693SOL     OW 8898   0.221   6.900   3.706
 2693SOL    HW1 8899   0.156   6.827   3.685
 2693SOL    HW2 8900   0.225   6.914   3.804
 2694SOL     OW 8901   0.079   6.826   2.515
 2694SOL    HW1 8902   0.078   6.779   2.603
 2694SOL    HW2 8903   0.161   6.798   2.464
 2695SOL     OW 8904   0.672   6.977   3.486
 2695SOL    HW1 8905   0.594   6.927   3.524
 2695SOL    HW2 8906   0.669   7.072   3.517
 2696SOL     OW 8907   1.824   5.778   3.089
 2696SOL    HW1 8908   1.820   5.688   3.133
 2696SOL    HW2 8909   1.827   5.767   2.990
 2697SOL     OW 8910   0.428   6.010   2.382
 2697SOL    HW1 8911   0.458   5.938   2.320
 2697SOL    HW2 8912   0.389   5.970   2.465
 2698SOL     OW 8913   1.705   7.073   2.966
 2698SOL    HW1 8914   1.612   7.048   2.939
 2698SOL    HW2 8915   1.731   7.023   3.048
 2699SOL     OW 8916   0.317   6.133   3.142
 2699SOL    HW1 8917   0.355   6.074   3.214
 2699SOL    HW2 8918   0.357   6.107   3.054
 2700SOL     OW 8919   1.424   5.800   2.974
 2700SOL    HW1 8920   1.476   5.735   3.029
 2700SOL    HW2 8921   1.375   5.863   3.035
 2701SOL     OW 8922   1.001   5.620   3.016
 2701SOL    HW1 8923   0.938   5.548   2.985
 2701SOL    HW2 8924   1.094   5.584   3.016
 2702SOL     OW 8925   0.770   6.916   2.163
 2702SOL    HW1 8926   0.724   6.829   2.180
 2702SOL    HW2 8927   0.861   6.913   2.204
 2703SOL     OW 8928   1.352   5.638   2.030
 2703SOL    HW1 8929   1.387   5.597   1.946
 2703SOL    HW2 8930   1.262   5.600   2.050
 2704SOL     OW 8931   1.300   6.039   2.553
 2704SOL    HW1 8932   1.241   6.119   2.557
 2704SOL    HW2 8933   1.315   6.004   2.646
 2705SOL     OW 8934   1.593   5.807   2.744
 2705SOL    HW1 8935   1.509   5.806   2.798
 2705SOL    HW2 8936   1.595   5.890   2.688
 2706SOL     OW 8937   0.039   6.663   2.162
 2706SOL    HW1 8938   0.138   6.652   2.153
 2706SOL    HW2 8939  -0.001   6.577   2.194
 2707SOL     OW 8940   0.230   6.214   3.837
 2707SOL    HW1 8941   0.137   6.212   3.874
 2707SOL    HW2 8942   0.231   6.175   3.745
 2708SOL     OW 8943   0.225   5.861   4.720
 2708SOL    HW1 8944   0.260   5.844   4.812
 2708SOL    HW2 8945   0.137   5.816   4.708
 2709SOL     OW 8946   0.019   5.954   4.371
 2709SOL    HW1 8947  -0.063   5.997   4.410
 2709SOL    HW2 8948  -0.009   5.881   4.308
 2710SOL     OW 8949   0.569   6.861   4.889
 2710SOL    HW1 8950   0.476   6.854   4.852
 2710SOL    HW2 8951   0.580   6.950   4.933
 2711SOL     OW 8952   1.555   7.097   4.427
 2711SOL    HW1 8953   1.498   7.081   4.508
 2711SOL    HW2 8954   1.496   7.107   4.347
 2712SOL     OW 8955   1.135   6.289   4.441
 2712SOL    HW1 8956   1.192   6.367   4.416
 2712SOL    HW2 8957   1.075   6.315   4.517
 2713SOL     OW 8958   1.755   6.193   3.955
 2713SOL    HW1 8959   1.743   6.180   3.856
 2713SOL    HW2 8960   1.725   6.112   4.004
 2714SOL     OW 8961   0.768   6.730   4.747
 2714SOL    HW1 8962   0.690   6.747   4.807
 2714SOL    HW2 8963   0.802   6.817   4.711
 2715SOL     OW 8964   0.850   6.384   5.547
 2715SOL    HW1 8965   0.846   6.460   5.612
 2715SOL    HW2 8966   0.872   6.420   5.456
 2716SOL     OW 8967   0.685   6.598   4.389
 2716SOL    HW1 8968   0.754   6.582   4.459
 2716SOL    HW2 8969   0.612   6.655   4.427
 2717SOL     OW 8970   0.686   6.747   5.527
 2717SOL    HW1 8971   0.746   6.826   5.541
 2717SOL    HW2 8972   0.600   6.778   5.486
 2718SOL     OW 8973   0.335   7.021   4.785
 2718SOL    HW1 8974   0.257   6.990   4.732
 2718SOL    HW2 8975   0.393   7.079   4.728
 2719SOL     OW 8976   0.438   5.978   5.223
 2719SOL    HW1 8977   0.520   5.922   5.232
 2719SOL    HW2 8978   0.357   5.920   5.227
 2720SOL     OW 8979   1.603   6.033   4.461
 2720SOL    HW1 8980   1.529   6.079   4.411
 2720SOL    HW2 8981   1.654   6.101   4.514
 2721SOL     OW 8982   0.240   6.677   4.610
 2721SOL    HW1 8983   0.254   6.593   4.662
 2721SOL    HW2 8984   0.185   6.741   4.665
 2722SOL     OW 8985   0.606   6.550   3.847
 2722SOL    HW1 8986   0.613   6.634   3.793
 2722SOL    HW2 8987   0.652   6.563   3.935
 2723SOL     OW 8988   1.594   5.700   5.204
 2723SOL    HW1 8989   1.576   5.767   5.132
 2723SOL    HW2 8990   1.591   5.746   5.293
 2724SOL     OW 8991   0.122   6.229   4.287
 2724SOL    HW1 8992   0.077   6.141   4.304
 2724SOL    HW2 8993   0.121   6.283   4.371
 2725SOL     OW 8994   1.689   6.508   4.336
 2725SOL    HW1 8995   1.784   6.479   4.344
 2725SOL    HW2 8996   1.681   6.573   4.261
 2726SOL     OW 8997   1.641   6.694   4.156
 2726SOL    HW1 8998   1.727   6.696   4.104
 2726SOL    HW2 8999   1.655   6.741   4.244
 2727SOL     OW 9000   0.113   6.323   5.321
 2727SOL    HW1 9001   0.201   6.310   5.366
 2727SOL    HW2 9002   0.100   6.420   5.299
 2728SOL     OW 9003   1.293   6.814   5.147
 2728SOL    HW1 9004   1.330   6.741   5.089
 2728SOL    HW2 9005   1.345   6.819   5.232
 2729SOL     OW 9006   0.809   5.590   4.226
 2729SOL    HW1 9007   0.849   5.681   4.217
 2729SOL    HW2 9008   0.709   5.598   4.232
 2730SOL     OW 9009   0.197   6.562   4.988
 2730SOL    HW1 9010   0.286   6.517   4.974
 2730SOL    HW2 9011   0.124   6.497   4.969
 2731SOL     OW 9012   1.525   6.585   3.914
 2731SOL    HW1 9013   1.462   6.509   3.927
 2731SOL    HW2 9014   1.573   6.603   4.000
 2732SOL     OW 9015   0.317   5.837   5.525
 2732SOL    HW1 9016   0.388   5.908   5.531
 2732SOL    HW2 9017   0.229   5.876   5.553
 2733SOL     OW 9018   1.466   7.003   4.677
 2733SOL    HW1 9019   1.407   7.009   4.757
 2733SOL    HW2 9020   1.451   6.915   4.631
 2734SOL     OW 9021   0.598   6.315   3.994
 2734SOL    HW1 9022   0.622   6.384   3.926
 2734SOL    HW2 9023   0.520   6.348   4.048
 2735SOL     OW 9024   1.281   5.931   4.668
 2735SOL    HW1 9025   1.195   5.881   4.655
 2735SOL    HW2 9026   1.343   5.877   4.724
 2736SOL     OW 9027   0.807   6.191   5.189
 2736SOL    HW1 9028   0.760   6.188   5.278
 2736SOL    HW2 9029   0.756   6.136   5.123
 2737SOL     OW 9030   1.394   6.055   5.398
 2737SOL    HW1 9031   1.374   6.098   5.486
 2737SOL    HW2 9032   1.472   5.993   5.407
 2738SOL     OW 9033   0.973   6.476   5.296
 2738SOL    HW1 9034   1.019   6.392   5.267
 2738SOL    HW2 9035   0.917   6.510   5.221
 2739SOL     OW 9036   0.991   5.996   4.966
 2739SOL    HW1 9037   0.914   6.030   5.020
 2739SOL    HW2 9038   0.957   5.945   4.887
 2740SOL     OW 9039   1.041   6.287   4.153
 2740SOL    HW1 9040   1.067   6.283   4.249
 2740SOL    HW2 9041   0.956   6.236   4.139
 2741SOL     OW 9042   0.076   6.397   4.513
 2741SOL    HW1 9043   0.175   6.385   4.522
 2741SOL    HW2 9044   0.052   6.492   4.534
 2742SOL     OW 9045   0.865   5.934   3.919
 2742SOL    HW1 9046   0.924   5.997   3.870
 2742SOL    HW2 9047   0.884   5.840   3.890
 2743SOL     OW 9048   1.719   6.171   5.555
 2743SOL    HW1 9049   1.693   6.260   5.519
 2743SOL    HW2 9050   1.717   6.103   5.482
 2744SOL     OW 9051   1.362   6.730   4.269
 2744SOL    HW1 9052   1.445   6.701   4.221
 2744SOL    HW2 9053   1.313   6.797   4.213
 2745SOL     OW 9054   0.550   5.782   4.609
 2745SOL    HW1 9055   0.545   5.777   4.709
 2745SOL    HW2 9056   0.552   5.878   4.580
 2746SOL     OW 9057   1.795   6.652   4.597
 2746SOL    HW1 9058   1.733   6.637   4.521
 2746SOL    HW2 9059   1.743   6.663   4.682
 2747SOL     OW 9060   0.321   6.529   3.966
 2747SOL    HW1 9061   0.403   6.568   3.924
 2747SOL    HW2 9062   0.294   6.447   3.917
 2748SOL     OW 9063   1.458   6.321   4.452
 2748SOL    HW1 9064   1.453   6.256   4.527
 2748SOL    HW2 9065   1.538   6.380   4.465
 2749SOL     OW 9066   0.202   5.871   5.222
 2749SOL    HW1 9067   0.122   5.931   5.209
 2749SOL    HW2 9068   0.192   5.822   5.308
 2750SOL     OW 9069   1.632   6.963   3.805
 2750SOL    HW1 9070   1.600   7.057   3.795
 2750SOL    HW2 9071   1.556   6.900   3.793
 2751SOL     OW 9072   1.400   5.693   4.150
 2751SOL    HW1 9073   1.376   5.656   4.060
 2751SOL    HW2 9074   1.499   5.709   4.154
 2752SOL     OW 9075   0.382   6.286   4.204
 2752SOL    HW1 9076   0.427   6.196   4.201
 2752SOL    HW2 9077   0.288   6.275   4.237
 2753SOL     OW 9078   1.547   5.808   5.453
 2753SOL    HW1 9079   1.542   5.845   5.545
 2753SOL    HW2 9080   1.475   5.739   5.441
 2754SOL     OW 9081   0.614   5.708   3.841
 2754SOL    HW1 9082   0.712   5.686   3.848
 2754SOL    HW2 9083   0.583   5.691   3.748
 2755SOL     OW 9084   0.781   5.850   5.473
 2755SOL    HW1 9085   0.848   5.789   5.516
 2755SOL    HW2 9086   0.708   5.869   5.538
 2756SOL     OW 9087   1.351   6.176   5.157
 2756SOL    HW1 9088   1.379   6.133   5.242
 2756SOL    HW2 9089   1.376   6.272   5.158
 2757SOL     OW 9090   0.922   6.089   4.623
 2757SOL    HW1 9091   0.897   6.080   4.527
 2757SOL    HW2 9092   0.970   6.007   4.654
 2758SOL     OW 9093   0.539   5.650   4.236
 2758SOL    HW1 9094   0.458   5.651   4.294
 2758SOL    HW2 9095   0.542   5.733   4.181
 2759SOL     OW 9096   1.434   6.774   3.765
 2759SOL    HW1 9097   1.466   6.698   3.822
 2759SOL    HW2 9098   1.342   6.801   3.795
 2760SOL     OW 9099   0.297   5.621   3.895
 2760SOL    HW1 9100   0.346   5.705   3.874
 2760SOL    HW2 9101   0.359   5.556   3.940
 2761SOL     OW 9102   0.935   5.822   4.204
 2761SOL    HW1 9103   0.887   5.863   4.126
 2761SOL    HW2 9104   1.034   5.820   4.185
 2762SOL     OW 9105   1.076   6.269   5.188
 2762SOL    HW1 9106   0.996   6.208   5.191
 2762SOL    HW2 9107   1.157   6.216   5.164
 2763SOL     OW 9108   1.227   7.156   4.517
 2763SOL    HW1 9109   1.248   7.230   4.452
 2763SOL    HW2 9110   1.295   7.156   4.590
 2764SOL     OW 9111   0.459   6.738   4.465
 2764SOL    HW1 9112   0.388   6.711   4.530
 2764SOL    HW2 9113   0.433   6.710   4.372
 2765SOL     OW 9114   1.032   6.135   3.740
 2765SOL    HW1 9115   0.991   6.217   3.701
 2765SOL    HW2 9116   1.096   6.161   3.813
 2766SOL     OW 9117   0.078   6.142   5.110
 2766SOL    HW1 9118   0.170   6.141   5.069
 2766SOL    HW2 9119   0.072   6.216   5.177
 2767SOL     OW 9120   0.561   5.808   4.871
 2767SOL    HW1 9121   0.599   5.724   4.908
 2767SOL    HW2 9122   0.473   5.827   4.915
 2768SOL     OW 9123   0.866   6.040   4.366
 2768SOL    HW1 9124   0.834   6.112   4.304
 2768SOL    HW2 9125   0.890   5.959   4.313
 2769SOL     OW 9126   1.017   5.625   4.477
 2769SOL    HW1 9127   0.945   5.630   4.408
 2769SOL    HW2 9128   0.993   5.556   4.546
 2770SOL     OW 9129   1.429   6.759   4.591
 2770SOL    HW1 9130   1.374   6.675   4.584
 2770SOL    HW2 9131   1.455   6.788   4.499
 2771SOL     OW 9132   1.466   6.176   4.716
 2771SOL    HW1 9133   1.436   6.081   4.723
 2771SOL    HW2 9134   1.539   6.192   4.782
 2772SOL     OW 9135   1.857   6.419   4.101
 2772SOL    HW1 9136   1.899   6.355   4.165
 2772SOL    HW2 9137   1.819   6.368   4.023
 2773SOL     OW 9138   1.664   6.866   4.381
 2773SOL    HW1 9139   1.763   6.874   4.395
 2773SOL    HW2 9140   1.619   6.950   4.412
 2774SOL     OW 9141   1.390   6.161   3.802
 2774SOL    HW1 9142   1.336   6.140   3.883
 2774SOL    HW2 9143   1.481   6.120   3.811
 2775SOL     OW 9144   0.527   5.842   4.052
 2775SOL    HW1 9145   0.554   5.783   3.977
 2775SOL    HW2 9146   0.527   5.937   4.021
 2776SOL     OW 9147   1.754   6.809   5.312
 2776SOL    HW1 9148   1.845   6.770   5.299
 2776SOL    HW2 9149   1.762   6.905   5.336
 2777SOL     OW 9150   1.064   6.933   5.064
 2777SOL    HW1 9151   0.984   6.910   5.119
 2777SOL    HW2 9152   1.147   6.907   5.113
 2778SOL     OW 9153   1.111   6.781   4.824
 2778SOL    HW1 9154   1.071   6.825   4.905
 2778SOL    HW2 9155   1.070   6.818   4.741
 2779SOL     OW 9156   1.638   6.685   4.803
 2779SOL    HW1 9157   1.643   6.766   4.862
 2779SOL    HW2 9158   1.552   6.687   4.752
 2780SOL     OW 9159   0.915   5.675   5.126
 2780SOL    HW1 9160   0.940   5.655   5.031
 2780SOL    HW2 9161   0.987   5.731   5.168
 2781SOL     OW 9162   0.980   6.702   5.443
 2781SOL    HW1 9163   0.881   6.708   5.453
 2781SOL    HW2 9164   1.003   6.622   5.387
 2782SOL     OW 9165   0.705   6.636   4.092
 2782SOL    HW1 9166   0.691   6.643   4.191
 2782SOL    HW2 9167   0.789   6.585   4.074
 2783SOL     OW 9168   0.410   6.399   4.975
 2783SOL    HW1 9169   0.496   6.411   5.025
 2783SOL    HW2 9170   0.368   6.312   5.002
 2784SOL     OW 9171   1.274   5.972   4.986
 2784SOL    HW1 9172   1.295   6.046   5.050
 2784SOL    HW2 9173   1.185   5.989   4.943
 2785SOL     OW 9174   0.064   7.150   5.055
 2785SOL    HW1 9175   0.018   7.232   5.021
 2785SOL    HW2 9176   0.162   7.169   5.064
 2786SOL     OW 9177   0.367   6.686   4.225
 2786SOL    HW1 9178   0.360   6.769   4.169
 2786SOL    HW2 9179   0.371   6.606   4.165
 2787SOL     OW 9180   0.566   6.123   4.589
 2787SOL    HW1 9181   0.578   6.189   4.515
 2787SOL    HW2 9182   0.612   6.157   4.672
 2788SOL     OW 9183   1.582   6.225   4.196
 2788SOL    HW1 9184   1.551   6.286   4.269
 2788SOL    HW2 9185   1.632   6.277   4.127
 2789SOL     OW 9186   0.402   6.337   5.322
 2789SOL    HW1 9187   0.470   6.392   5.275
 2789SOL    HW2 9188   0.442   6.249   5.349
 2790SOL     OW 9189   1.587   6.365   5.394
 2790SOL    HW1 9190   1.495   6.403   5.389
 2790SOL    HW2 9191   1.647   6.412   5.329
 2791SOL     OW 9192   1.013   5.691   5.494
 2791SOL    HW1 9193   1.019   5.776   5.442
 2791SOL    HW2 9194   1.045   5.615   5.437
 2792SOL     OW 9195   0.504   5.636   5.464
 2792SOL    HW1 9196   0.462   5.579   5.394
 2792SOL    HW2 9197   0.438   5.705   5.496
 2793SOL     OW 9198   0.573   6.456   4.753
 2793SOL    HW1 9199   0.617   6.545   4.744
 2793SOL    HW2 9200   0.510   6.456   4.830
 2794SOL     OW 9201   1.360   6.448   4.769
 2794SOL    HW1 9202   1.285   6.448   4.703
 2794SOL    HW2 9203   1.397   6.356   4.778
 2795SOL     OW 9204   1.209   6.111   3.999
 2795SOL    HW1 9205   1.222   6.027   4.053
 2795SOL    HW2 9206   1.180   6.185   4.059
 2796SOL     OW 9207   0.307   5.799   4.955
 2796SOL    HW1 9208   0.284   5.836   5.045
 2796SOL    HW2 9209   0.277   5.704   4.949
 2797SOL     OW 9210   0.037   6.896   5.006
 2797SOL    HW1 9211   0.090   6.847   5.074
 2797SOL    HW2 9212   0.059   6.994   5.011
 2798SOL     OW 9213   0.732   6.220   4.788
 2798SOL    HW1 9214   0.791   6.194   4.712
 2798SOL    HW2 9215   0.704   6.316   4.777
 2799SOL     OW 9216   1.728   6.521   5.578
 2799SOL    HW1 9217   1.682   6.514   5.489
 2799SOL    HW2 9218   1.666   6.565   5.644
 2800SOL     OW 9219   0.307   5.649   4.342
 2800SOL    HW1 9220   0.296   5.743   4.375
 2800SOL    HW2 9221   0.302   5.586   4.419
 2801SOL     OW 9222   1.622   5.953   4.098
 2801SOL    HW1 9223   1.624   5.877   4.162
 2801SOL    HW2 9224   1.574   6.030   4.138
 2802SOL     OW 9225   1.023   6.352   4.690
 2802SOL    HW1 9226   1.038   6.373   4.786
 2802SOL    HW2 9227   0.993   6.257   4.681
 2803SOL     OW 9228   1.859   7.104   5.329
 2803SOL    HW1 9229   1.873   7.131   5.234
 2803SOL    HW2 9230   1.942   7.126   5.382
 2804SOL     OW 9231   0.350   6.484   5.528
 2804SOL    HW1 9232   0.426   6.528   5.576
 2804SOL    HW2 9233   0.385   6.437   5.446
 2805SOL     OW 9234   1.540   5.860   3.849
 2805SOL    HW1 9235   1.479   5.785   3.872
 2805SOL    HW2 9236   1.562   5.912   3.932
 2806SOL     OW 9237   1.303   6.424   3.766
 2806SOL    HW1 9238   1.337   6.331   3.781
 2806SOL    HW2 9239   1.321   6.451   3.671
 2807SOL     OW 9240   0.319   6.396   4.673
 2807SOL    HW1 9241   0.412   6.432   4.678
 2807SOL    HW2 9242   0.313   6.311   4.725
 2808SOL     OW 9243   0.339   6.095   4.730
 2808SOL    HW1 9244   0.287   6.012   4.713
 2808SOL    HW2 9245   0.416   6.100   4.666
 2809SOL     OW 9246   1.138   5.966   5.402
 2809SOL    HW1 9247   1.093   6.029   5.466
 2809SOL    HW2 9248   1.231   5.997   5.385
 2810SOL     OW 9249   1.160   5.793   5.201
 2810SOL    HW1 9250   1.160   5.857   5.278
 2810SOL    HW2 9251   1.188   5.841   5.118
 2811SOL     OW 9252   0.008   6.912   3.924
 2811SOL    HW1 9253  -0.085   6.933   3.893
 2811SOL    HW2 9254   0.018   6.813   3.937
 2812SOL     OW 9255   1.002   6.382   4.962
 2812SOL    HW1 9256   1.043   6.350   5.048
 2812SOL    HW2 9257   0.906   6.355   4.959
 2813SOL     OW 9258   0.040   6.130   4.838
 2813SOL    HW1 9259   0.125   6.097   4.797
 2813SOL    HW2 9260   0.053   6.145   4.936
 2814SOL     OW 9261   0.189   6.106   5.446
 2814SOL    HW1 9262   0.248   6.066   5.376
 2814SOL    HW2 9263   0.131   6.177   5.405
 2815SOL     OW 9264   1.369   6.536   5.384
 2815SOL    HW1 9265   1.408   6.625   5.404
 2815SOL    HW2 9266   1.379   6.516   5.287
 2816SOL     OW 9267   0.815   6.158   4.049
 2816SOL    HW1 9268   0.822   6.069   4.003
 2816SOL    HW2 9269   0.721   6.192   4.041
 2817SOL     OW 9270   1.657   6.190   4.930
 2817SOL    HW1 9271   1.619   6.121   4.992
 2817SOL    HW2 9272   1.739   6.154   4.886
 2818SOL     OW 9273   0.671   6.050   4.993
 2818SOL    HW1 9274   0.637   5.961   4.963
 2818SOL    HW2 9275   0.697   6.104   4.913
 2819SOL     OW 9276   0.473   6.086   3.915
 2819SOL    HW1 9277   0.534   6.166   3.919
 2819SOL    HW2 9278   0.378   6.117   3.922
 2820SOL     OW 9279   0.159   6.723   5.190
 2820SOL    HW1 9280   0.181   6.662   5.266
 2820SOL    HW2 9281   0.169   6.674   5.104
 2821SOL     OW 9282   1.347   6.645   4.958
 2821SOL    HW1 9283   1.371   6.582   4.884
 2821SOL    HW2 9284   1.257   6.685   4.940
 2822SOL     OW 9285   1.302   6.441   4.033
 2822SOL    HW1 9286   1.216   6.410   4.075
 2822SOL    HW2 9287   1.298   6.427   3.934
 2823SOL     OW 9288   0.083   6.844   4.746
 2823SOL    HW1 9289   0.078   6.843   4.846
 2823SOL    HW2 9290   0.000   6.803   4.708
 2824SOL     OW 9291   1.726   5.721   4.247
 2824SOL    HW1 9292   1.799   5.704   4.180
 2824SOL    HW2 9293   1.695   5.634   4.285
 2825SOL     OW 9294   1.280   6.513   4.396
 2825SOL    HW1 9295   1.340   6.432   4.398
 2825SOL    HW2 9296   1.320   6.582   4.336
 2826SOL     OW 9297   0.830   6.859   5.146
 2826SOL    HW1 9298   0.825   6.892   5.241
 2826SOL    HW2 9299   0.744   6.878   5.100
 2827SOL     OW 9300   1.841   5.761   4.687
 2827SOL    HW1 9301   1.880   5.676   4.651
 2827SOL    HW2 9302   1.743   5.763   4.668
 2828SOL     OW 9303   0.263   5.912   4.444
 2828SOL    HW1 9304   0.184   5.963   4.410
 2828SOL    HW2 9305   0.254   5.897   4.542
 2829SOL     OW 9306   1.194   7.198   3.755
 2829SOL    HW1 9307   1.200   7.105   3.792
 2829SOL    HW2 9308   1.135   7.198   3.675
 2830SOL     OW 9309   0.822   6.588   5.096
 2830SOL    HW1 9310   0.862   6.587   5.004
 2830SOL    HW2 9311   0.832   6.680   5.136
 2831SOL     OW 9312   0.916   6.496   4.015
 2831SOL    HW1 9313   0.979   6.534   3.947
 2831SOL    HW2 9314   0.956   6.413   4.054
 2832SOL     OW 9315   0.372   6.874   5.214
 2832SOL    HW1 9316   0.359   6.967   5.180
 2832SOL    HW2 9317   0.288   6.822   5.201
 2833SOL     OW 9318   1.614   6.878   5.013
 2833SOL    HW1 9319   1.674   6.881   5.093
 2833SOL    HW2 9320   1.539   6.942   5.026
 2834SOL     OW 9321   1.039   6.684   4.420
 2834SOL    HW1 9322   0.969   6.637   4.474
 2834SOL    HW2 9323   1.098   6.616   4.377
 2835SOL     OW 9324   1.014   5.822   4.695
 2835SOL    HW1 9325   1.006   5.786   4.602
 2835SOL    HW2 9326   1.012   5.746   4.760
 2836SOL     OW 9327   1.709   5.971   5.105
 2836SOL    HW1 9328   1.782   6.040   5.109
 2836SOL    HW2 9329   1.737   5.896   5.046
 2837SOL     OW 9330   0.105   6.599   5.450
 2837SOL    HW1 9331   0.028   6.566   5.504
 2837SOL    HW2 9332   0.190   6.569   5.492
 2838SOL     OW 9333   0.672   5.789   5.213
 2838SOL    HW1 9334   0.762   5.773   5.173
 2838SOL    HW2 9335   0.680   5.794   5.312
 2839SOL     OW 9336   0.075   5.931   3.757
 2839SOL    HW1 9337  -0.017   5.903   3.728
 2839SOL    HW2 9338   0.106   6.008   3.701
 2840SOL     OW 9339   1.440   6.442   5.122
 2840SOL    HW1 9340   1.383   6.494   5.059
 2840SOL    HW2 9341   1.536   6.454   5.098
 2841SOL     OW 9342   0.072   5.752   4.042
 2841SOL    HW1 9343   0.055   5.835   3.988
 2841SOL    HW2 9344   0.162   5.715   4.020
 2842SOL     OW 9345   0.613   6.428   5.155
 2842SOL    HW1 9346   0.669   6.509   5.138
 2842SOL    HW2 9347   0.672   6.348   5.158
 2843SOL     OW 9348   0.716   6.151   5.432
 2843SOL    HW1 9349   0.735   6.216   5.506
 2843SOL    HW2 9350   0.776   6.071   5.441
 2844SOL     OW 9351   1.450   6.806   5.357
 2844SOL    HW1 9352   1.441   6.796   5.456
 2844SOL    HW2 9353   1.546   6.799   5.331
 2845SOL     OW 9354   1.674   6.469   4.978
 2845SOL    HW1 9355   1.647   6.380   4.941
 2845SOL    HW2 9356   1.675   6.537   4.905
 2846SOL     OW 9357   1.225   5.911   4.173
 2846SOL    HW1 9358   1.290   5.837   4.162
 2846SOL    HW2 9359   1.245   5.961   4.257
 2847SOL     OW 9360   0.594   6.331   4.376
 2847SOL    HW1 9361   0.644   6.416   4.357
 2847SOL    HW2 9362   0.506   6.333   4.328
 2848SOL     OW 9363   1.777   5.928   5.366
 2848SOL    HW1 9364   1.760   5.959   5.272
 2848SOL    HW2 9365   1.693   5.891   5.404
 2849SOL     OW 9366   1.730   6.520   5.241
 2849SOL    HW1 9367   1.768   6.611   5.256
 2849SOL    HW2 9368   1.722   6.503   5.142
 2850SOL     OW 9369   0.859   6.542   4.585
 2850SOL    HW1 9370   0.913   6.473   4.633
 2850SOL    HW2 9371   0.827   6.611   4.651
 2851SOL     OW 9372   1.083   6.570   3.811
 2851SOL    HW1 9373   1.060   6.623   3.729
 2851SOL    HW2 9374   1.164   6.514   3.792
 2852SOL     OW 9375   0.221   6.900   5.568
 2852SOL    HW1 9376   0.156   6.827   5.547
 2852SOL    HW2 9377   0.225   6.914   5.666
 2853SOL     OW 9378   0.079   6.826   4.377
 2853SOL    HW1 9379   0.078   6.779   4.465
 2853SOL    HW2 9380   0.161   6.798   4.326
 2854SOL     OW 9381   0.672   6.977   5.348
 2854SOL    HW1 9382   0.594   6.927   5.386
 2854SOL    HW2 9383   0.669   7.072   5.379
 2855SOL     OW 9384   1.824   5.778   4.951
 2855SOL    HW1 9385   1.820   5.688   4.995
 2855SOL    HW2 9386   1.827   5.767   4.852
 2856SOL     OW 9387   0.428   6.010   4.244
 2856SOL    HW1 9388   0.458   5.938   4.182
 2856SOL    HW2 9389   0.389   5.970   4.327
 2857SOL     OW 9390   1.705   7.073   4.828
 2857SOL    HW1 9391   1.612   7.048   4.801
 2857SOL    HW2 9392   1.731   7.023   4.910
 2858SOL     OW 9393   0.317   6.133   5.004
 2858SOL    HW1 9394   0.355   6.074   5.076
 2858SOL    HW2 9395   0.357   6.107   4.916
 2859SOL     OW 9396   1.424   5.800   4.836
 2859SOL    HW1 9397   1.476   5.735   4.891
 2859SOL    HW2 9398   1.375   5.863   4.897
 2860SOL     OW 9399   1.001   5.620   4.878
 2860SOL    HW1 9400   0.938   5.548   4.847
 2860SOL    HW2 9401   1.094   5.584   4.878
 2861SOL     OW 9402   0.770   6.916   4.025
 2861SOL    HW1 9403   0.724   6.829   4.042
 2861SOL    HW2 9404   0.861   6.913   4.066
 2862SOL     OW 9405   1.352   5.638   3.892
 2862SOL    HW1 9406   1.387   5.597   3.808
 2862SOL    HW2 9407   1.262   5.600   3.912
 2863SOL     OW 9408   1.300   6.039   4.415
 2863SOL    HW1 9409   1.241   6.119   4.419
 2863SOL    HW2 9410   1.315   6.004   4.508
 2864SOL     OW 9411   1.593   5.807   4.606
 2864SOL    HW1 9412   1.509   5.806   4.660
 2864SOL    HW2 9413   1.595   5.890   4.550
 2865SOL     OW 9414   0.039   6.663   4.024
 2865SOL    HW1 9415   0.138   6.652   4.015
 2865SOL    HW2 9416  -0.001   6.577   4.056
 2866SOL     OW 9417   0.230   6.214   5.699
 2866SOL    HW1 9418   0.137   6.212   5.736
 2866SOL    HW2 9419   0.231   6.175   5.607
 2867SOL     OW 9420   0.225   5.861   6.582
 2867SOL    HW1 9421   0.260   5.844   6.674
 2867SOL    HW2 9422   0.137   5.816   6.570
 2868SOL     OW 9423   0.019   5.954   6.233
 2868SOL    HW1 9424  -0.063   5.997   6.272
 2868SOL    HW2 9425  -0.009   5.881   6.170
 2869SOL     OW 9426   0.569   6.861   6.751
 2869SOL    HW1 9427   0.476   6.854   6.714
 2869SOL    HW2 9428   0.580   6.950   6.795
 2870SOL     OW 9429   1.555   7.097   6.289
 2870SOL    HW1 9430   1.498   7.081   6.370
 2870SOL    HW2 9431   1.496   7.107   6.209
 2871SOL     OW 9432   1.135   6.289   6.303
 2871SOL    HW1 9433   1.192   6.367   6.278
 2871SOL    HW2 9434   1.075   6.315   6.379
 2872SOL     OW 9435   1.755   6.193   5.817
 2872SOL    HW1 9436   1.743   6.180   5.718
 2872SOL    HW2 9437   1.725   6.112   5.866
 2873SOL     OW 9438   0.768   6.730   6.609
 2873SOL    HW1 9439   0.690   6.747   6.669
 2873SOL    HW2 9440   0.802   6.817   6.573
 2874SOL     OW 9441   0.685   6.598   6.251
 2874SOL    HW1 9442   0.754   6.582   6.321
 2874SOL    HW2 9443   0.612   6.655   6.289
 2875SOL     OW 9444   0.335   7.021   6.647
 2875SOL    HW1 9445   0.257   6.990   6.594
 2875SOL    HW2 9446   0.393   7.079   6.590
 2876SOL     OW 9447   1.603   6.033   6.323
 2876SOL    HW1 9448   1.529   6.079   6.273
 2876SOL    HW2 9449   1.654   6.101   6.376
 2877SOL     OW 9450   0.240   6.677   6.472
 2877SOL    HW1 9451   0.254   6.593   6.524
 2877SOL    HW2 9452   0.185   6.741   6.527
 2878SOL     OW 9453   0.606   6.550   5.709
 2878SOL    HW1 9454   0.613   6.634   5.655
 2878SOL    HW2 9455   0.652   6.563   5.797
 2879SOL     OW 9456   0.122   6.229   6.149
 2879SOL    HW1 9457   0.077   6.141   6.166
 2879SOL    HW2 9458   0.121   6.283   6.233
 2880SOL     OW 9459   1.689   6.508   6.198
 2880SOL    HW1 9460   1.784   6.479   6.206
 2880SOL    HW2 9461   1.681   6.573   6.123
 2881SOL     OW 9462   1.641   6.694   6.018
 2881SOL    HW1 9463   1.727   6.696   5.966
 2881SOL    HW2 9464   1.655   6.741   6.106
 2882SOL     OW 9465   0.809   5.590   6.088
 2882SOL    HW1 9466   0.849   5.681   6.079
 2882SOL    HW2 9467   0.709   5.598   6.094
 2883SOL     OW 9468   0.197   6.562   6.850
 2883SOL    HW1 9469   0.286   6.517   6.836
 2883SOL    HW2 9470   0.124   6.497   6.831
 2884SOL     OW 9471   1.525   6.585   5.776
 2884SOL    HW1 9472   1.462   6.509   5.789
 2884SOL    HW2 9473   1.573   6.603   5.862
 2885SOL     OW 9474   1.466   7.003   6.539
 2885SOL    HW1 9475   1.407   7.009   6.619
 2885SOL    HW2 9476   1.451   6.915   6.493
 2886SOL     OW 9477   0.598   6.315   5.856
 2886SOL    HW1 9478   0.622   6.384   5.788
 2886SOL    HW2 9479   0.520   6.348   5.910
 2887SOL     OW 9480   1.281   5.931   6.530
 2887SOL    HW1 9481   1.195   5.881   6.517
 2887SOL    HW2 9482   1.343   5.877   6.586
 2888SOL     OW 9483   0.807   6.191   7.051
 2888SOL    HW1 9484   0.760   6.188   7.140
 2888SOL    HW2 9485   0.756   6.136   6.985
 2889SOL     OW 9486   0.991   5.996   6.828
 2889SOL    HW1 9487   0.914   6.030   6.882
 2889SOL    HW2 9488   0.957   5.945   6.749
 2890SOL     OW 9489   1.041   6.287   6.015
 2890SOL    HW1 9490   1.067   6.283   6.111
 2890SOL    HW2 9491   0.956   6.236   6.001
 2891SOL     OW 9492   0.076   6.397   6.375
 2891SOL    HW1 9493   0.175   6.385   6.384
 2891SOL    HW2 9494   0.052   6.492   6.396
 2892SOL     OW 9495   0.865   5.934   5.781
 2892SOL    HW1 9496   0.924   5.997   5.732
 2892SOL    HW2 9497   0.884   5.840   5.752
 2893SOL     OW 9498   1.362   6.730   6.131
 2893SOL    HW1 9499   1.445   6.701   6.083
 2893SOL    HW2 9500   1.313   6.797   6.075
 2894SOL     OW 9501   0.550   5.782   6.471
 2894SOL    HW1 9502   0.545   5.777   6.571
 2894SOL    HW2 9503   0.552   5.878   6.442
 2895SOL     OW 9504   1.795   6.652   6.459
 2895SOL    HW1 9505   1.733   6.637   6.383
 2895SOL    HW2 9506   1.743   6.663   6.544
 2896SOL     OW 9507   0.321   6.529   5.828
 2896SOL    HW1 9508   0.403   6.568   5.786
 2896SOL    HW2 9509   0.294   6.447   5.779
 2897SOL     OW 9510   1.458   6.321   6.314
 2897SOL    HW1 9511   1.453   6.256   6.389
 2897SOL    HW2 9512   1.538   6.380   6.327
 2898SOL     OW 9513   1.632   6.963   5.667
 2898SOL    HW1 9514   1.600   7.057   5.657
 2898SOL    HW2 9515   1.556   6.900   5.655
 2899SOL     OW 9516   1.400   5.693   6.012
 2899SOL    HW1 9517   1.376   5.656   5.922
 2899SOL    HW2 9518   1.499   5.709   6.016
 2900SOL     OW 9519   0.382   6.286   6.066
 2900SOL    HW1 9520   0.427   6.196   6.063
 2900SOL    HW2 9521   0.288   6.275   6.099
 2901SOL     OW 9522   0.614   5.708   5.703
 2901SOL    HW1 9523   0.712   5.686   5.710
 2901SOL    HW2 9524   0.583   5.691   5.610
 2902SOL     OW 9525   0.922   6.089   6.485
 2902SOL    HW1 9526   0.897   6.080   6.389
 2902SOL    HW2 9527   0.970   6.007   6.516
 2903SOL     OW 9528   0.539   5.650   6.098
 2903SOL    HW1 9529   0.458   5.651   6.156
 2903SOL    HW2 9530   0.542   5.733   6.043
 2904SOL     OW 9531   1.434   6.774   5.627
 2904SOL    HW1 9532   1.466   6.698   5.684
 2904SOL    HW2 9533   1.342   6.801   5.657
 2905SOL     OW 9534   0.297   5.621   5.757
 2905SOL    HW1 9535   0.346   5.705   5.736
 2905SOL    HW2 9536   0.359   5.556   5.802
 2906SOL     OW 9537   0.935   5.822   6.066
 2906SOL    HW1 9538   0.887   5.863   5.988
 2906SOL    HW2 9539   1.034   5.820   6.047
 2907SOL     OW 9540   1.227   7.156   6.379
 2907SOL    HW1 9541   1.248   7.230   6.314
 2907SOL    HW2 9542   1.295   7.156   6.452
 2908SOL     OW 9543   0.459   6.738   6.327
 2908SOL    HW1 9544   0.388   6.711   6.392
 2908SOL    HW2 9545   0.433   6.710   6.234
 2909SOL     OW 9546   1.032   6.135   5.602
 2909SOL    HW1 9547   0.991   6.217   5.563
 2909SOL    HW2 9548   1.096   6.161   5.675
 2910SOL     OW 9549   0.561   5.808   6.733
 2910SOL    HW1 9550   0.599   5.724   6.770
 2910SOL    HW2 9551   0.473   5.827   6.777
 2911SOL     OW 9552   0.866   6.040   6.228
 2911SOL    HW1 9553   0.834   6.112   6.166
 2911SOL    HW2 9554   0.890   5.959   6.175
 2912SOL     OW 9555   1.017   5.625   6.339
 2912SOL    HW1 9556   0.945   5.630   6.270
 2912SOL    HW2 9557   0.993   5.556   6.408
 2913SOL     OW 9558   1.429   6.759   6.453
 2913SOL    HW1 9559   1.374   6.675   6.446
 2913SOL    HW2 9560   1.455   6.788   6.361
 2914SOL     OW 9561   1.466   6.176   6.578
 2914SOL    HW1 9562   1.436   6.081   6.585
 2914SOL    HW2 9563   1.539   6.192   6.644
 2915SOL     OW 9564   1.857   6.419   5.963
 2915SOL    HW1 9565   1.899   6.355   6.027
 2915SOL    HW2 9566   1.819   6.368   5.885
 2916SOL     OW 9567   1.664   6.866   6.243
 2916SOL    HW1 9568   1.763   6.874   6.257
 2916SOL    HW2 9569   1.619   6.950   6.274
 2917SOL     OW 9570   1.390   6.161   5.664
 2917SOL    HW1 9571   1.336   6.140   5.745
 2917SOL    HW2 9572   1.481   6.120   5.673
 2918SOL     OW 9573   0.527   5.842   5.914
 2918SOL    HW1 9574   0.554   5.783   5.839
 2918SOL    HW2 9575   0.527   5.937   5.883
 2919SOL     OW 9576   1.754   6.809   7.174
 2919SOL    HW1 9577   1.845   6.770   7.161
 2919SOL    HW2 9578   1.762   6.905   7.198
 2920SOL     OW 9579   1.064   6.933   6.926
 2920SOL    HW1 9580   0.984   6.910   6.981
 2920SOL    HW2 9581   1.147   6.907   6.975
 2921SOL     OW 9582   1.111   6.781   6.686
 2921SOL    HW1 9583   1.071   6.825   6.767
 2921SOL    HW2 9584   1.070   6.818   6.603
 2922SOL     OW 9585   1.638   6.685   6.665
 2922SOL    HW1 9586   1.643   6.766   6.724
 2922SOL    HW2 9587   1.552   6.687   6.614
 2923SOL     OW 9588   0.705   6.636   5.954
 2923SOL    HW1 9589   0.691   6.643   6.053
 2923SOL    HW2 9590   0.789   6.585   5.936
 2924SOL     OW 9591   0.410   6.399   6.837
 2924SOL    HW1 9592   0.496   6.411   6.887
 2924SOL    HW2 9593   0.368   6.312   6.864
 2925SOL     OW 9594   1.274   5.972   6.848
 2925SOL    HW1 9595   1.295   6.046   6.912
 2925SOL    HW2 9596   1.185   5.989   6.805
 2926SOL     OW 9597   0.064   7.150   6.917
 2926SOL    HW1 9598   0.018   7.232   6.883
 2926SOL    HW2 9599   0.162   7.169   6.926
 2927SOL     OW 9600   0.367   6.686   6.087
 2927SOL    HW1 9601   0.360   6.769   6.031
 2927SOL    HW2 9602   0.371   6.606   6.027
 2928SOL     OW 9603   0.566   6.123   6.451
 2928SOL    HW1 9604   0.578   6.189   6.377
 2928SOL    HW2 9605   0.612   6.157   6.534
 2929SOL     OW 9606   1.582   6.225   6.058
 2929SOL    HW1 9607   1.551   6.286   6.131
 2929SOL    HW2 9608   1.632   6.277   5.989
 2930SOL     OW 9609   0.573   6.456   6.615
 2930SOL    HW1 9610   0.617   6.545   6.606
 2930SOL    HW2 9611   0.510   6.456   6.692
 2931SOL     OW 9612   1.360   6.448   6.631
 2931SOL    HW1 9613   1.285   6.448   6.565
 2931SOL    HW2 9614   1.397   6.356   6.640
 2932SOL     OW 9615   1.209   6.111   5.861
 2932SOL    HW1 9616   1.222   6.027   5.915
 2932SOL    HW2 9617   1.180   6.185   5.921
 2933SOL     OW 9618   0.307   5.799   6.817
 2933SOL    HW1 9619   0.284   5.836   6.907
 2933SOL    HW2 9620   0.277   5.704   6.811
 2934SOL     OW 9621   0.037   6.896   6.868
 2934SOL    HW1 9622   0.090   6.847   6.936
 2934SOL    HW2 9623   0.059   6.994   6.873
 2935SOL     OW 9624   0.732   6.220   6.650
 2935SOL    HW1 9625   0.791   6.194   6.574
 2935SOL    HW2 9626   0.704   6.316   6.639
 2936SOL     OW 9627   0.307   5.649   6.204
 2936SOL    HW1 9628   0.296   5.743   6.237
 2936SOL    HW2 9629   0.302   5.586   6.281
 2937SOL     OW 9630   1.622   5.953   5.960
 2937SOL    HW1 9631   1.624   5.877   6.024
 2937SOL    HW2 9632   1.574   6.030   6.000
 2938SOL     OW 9633   1.023   6.352   6.552
 2938SOL    HW1 9634   1.038   6.373   6.648
 2938SOL    HW2 9635   0.993   6.257   6.543
 2939SOL     OW 9636   1.540   5.860   5.711
 2939SOL    HW1 9637   1.479   5.785   5.734
 2939SOL    HW2 9638   1.562   5.912   5.794
 2940SOL     OW 9639   1.303   6.424   5.628
 2940SOL    HW1 9640   1.337   6.331   5.643
 2940SOL    HW2 9641   1.321   6.451   5.533
 2941SOL     OW 9642   0.319   6.396   6.535
 2941SOL    HW1 9643   0.412   6.432   6.540
 2941SOL    HW2 9644   0.313   6.311   6.587
 2942SOL     OW 9645   0.339   6.095   6.592
 2942SOL    HW1 9646   0.287   6.012   6.575
 2942SOL    HW2 9647   0.416   6.100   6.528
 2943SOL     OW 9648   1.160   5.793   7.063
 2943SOL    HW1 9649   1.160   5.857   7.140
 2943SOL    HW2 9650   1.188   5.841   6.980
 2944SOL     OW 9651   0.008   6.912   5.786
 2944SOL    HW1 9652  -0.085   6.933   5.755
 2944SOL    HW2 9653   0.018   6.813   5.799
 2945SOL     OW 9654   1.002   6.382   6.824
 2945SOL    HW1 9655   1.043   6.350   6.910
 2945SOL    HW2 9656   0.906   6.355   6.821
 2946SOL     OW 9657   0.040   6.130   6.700
 2946SOL    HW1 9658   0.125   6.097   6.659
 2946SOL    HW2 9659   0.053   6.145   6.798
 2947SOL     OW 9660   0.815   6.158   5.911
 2947SOL    HW1 9661   0.822   6.069   5.865
 2947SOL    HW2 9662   0.721   6.192   5.903
 2948SOL     OW 9663   1.657   6.190   6.792
 2948SOL    HW1 9664   1.619   6.121   6.854
 2948SOL    HW2 9665   1.739   6.154   6.748
 2949SOL     OW 9666   0.671   6.050   6.855
 2949SOL    HW1 9667   0.637   5.961   6.825
 2949SOL    HW2 9668   0.697   6.104   6.775
 2950SOL     OW 9669   0.473   6.086   5.777
 2950SOL    HW1 9670   0.534   6.166   5.781
 2950SOL    HW2 9671   0.378   6.117   5.784
 2951SOL     OW 9672   0.159   6.723   7.052
 2951SOL    HW1 9673   0.181   6.662   7.128
 2951SOL    HW2 9674   0.169   6.674   6.966
 2952SOL     OW 9675   1.347   6.645   6.820
 2952SOL    HW1 9676   1.371   6.582   6.746
 2952SOL    HW2 9677   1.257   6.685   6.802
 2953SOL     OW 9678   1.302   6.441   5.895
 2953SOL    HW1 9679   1.216   6.410   5.937
 2953SOL    HW2 9680   1.298   6.427   5.796
 2954SOL     OW 9681   0.083   6.844   6.608
 2954SOL    HW1 9682   0.078   6.843   6.708
 2954SOL    HW2 9683   0.000   6.803   6.570
 2955SOL     OW 9684   1.726   5.721   6.109
 2955SOL    HW1 9685   1.799   5.704   6.042
 2955SOL    HW2 9686   1.695   5.634   6.147
 2956SOL     OW 9687   1.280   6.513   6.258
 2956SOL    HW1 9688   1.340   6.432   6.260
 2956SOL    HW2 9689   1.320   6.582   6.198
 2957SOL     OW 9690   0.830   6.859   7.008
 2957SOL    HW1 9691   0.825   6.892   7.103
 2957SOL    HW2 9692   0.744   6.878   6.962
 2958SOL     OW 9693   1.841   5.761   6.549
 2958SOL    HW1 9694   1.880   5.676   6.513
 2958SOL    HW2 9695   1.743   5.763   6.530
 2959SOL     OW 9696   0.263   5.912   6.306
 2959SOL    HW1 9697   0.184   5.963   6.272
 2959SOL    HW2 9698   0.254   5.897   6.404
 2960SOL     OW 9699   1.194   7.198   5.617
 2960SOL    HW1 9700   1.200   7.105   5.654
 2960SOL    HW2 9701   1.135   7.198   5.537
 2961SOL     OW 9702   0.822   6.588   6.958
 2961SOL    HW1 9703   0.862   6.587   6.866
 2961SOL    HW2 9704   0.832   6.680   6.998
 2962SOL     OW 9705   0.916   6.496   5.877
 2962SOL    HW1 9706   0.979   6.534   5.809
 2962SOL    HW2 9707   0.956   6.413   5.916
 2963SOL     OW 9708   0.372   6.874   7.076
 2963SOL    HW1 9709   0.359   6.967   7.042
 2963SOL    HW2 9710   0.288   6.822   7.063
 2964SOL     OW 9711   1.614   6.878   6.875
 2964SOL    HW1 9712   1.674   6.881   6.955
 2964SOL    HW2 9713   1.539   6.942   6.888
 2965SOL     OW 9714   1.039   6.684   6.282
 2965SOL    HW1 9715   0.969   6.637   6.336
 2965SOL    HW2 9716   1.098   6.616   6.239
 2966SOL     OW 9717   1.014   5.822   6.557
 2966SOL    HW1 9718   1.006   5.786   6.464
 2966SOL    HW2 9719   1.012   5.746   6.622
 2967SOL     OW 9720   1.709   5.971   6.967
 2967SOL    HW1 9721   1.782   6.040   6.971
 2967SOL    HW2 9722   1.737   5.896   6.908
 2968SOL     OW 9723   0.672   5.789   7.075
 2968SOL    HW1 9724   0.762   5.773   7.035
 2968SOL    HW2 9725   0.680   5.794   7.174
 2969SOL     OW 9726   0.075   5.931   5.619
 2969SOL    HW1 9727  -0.017   5.903   5.590
 2969SOL    HW2 9728   0.106   6.008   5.563
 2970SOL     OW 9729   0.072   5.752   5.904
 2970SOL    HW1 9730   0.055   5.835   5.850
 2970SOL    HW2 9731   0.162   5.715   5.882
 2971SOL     OW 9732   1.450   6.806   7.219
 2971SOL    HW1 9733   1.441   6.796   7.318
 2971SOL    HW2 9734   1.546   6.799   7.193
 2972SOL     OW 9735   1.674   6.469   6.840
 2972SOL    HW1 9736   1.647   6.380   6.803
 2972SOL    HW2 9737   1.675   6.537   6.767
 2973SOL     OW 9738   1.225   5.911   6.035
 2973SOL    HW1 9739   1.290   5.837   6.024
 2973SOL    HW2 9740   1.245   5.961   6.119
 2974SOL     OW 9741   0.594   6.331   6.238
 2974SOL    HW1 9742   0.644   6.416   6.219
 2974SOL    HW2 9743   0.506   6.333   6.190
 2975SOL     OW 9744   1.730   6.520   7.103
 2975SOL    HW1 9745   1.768   6.611   7.118
 2975SOL    HW2 9746   1.722   6.503   7.004
 2976SOL     OW 9747   0.859   6.542   6.447
 2976SOL    HW1 9748   0.913   6.473   6.495
 2976SOL    HW2 9749   0.827   6.611   6.513
 2977SOL     OW 9750   1.083   6.570   5.673
 2977SOL    HW1 9751   1.060   6.623   5.591
 2977SOL    HW2 9752   1.164   6.514   5.654
 2978SOL     OW 9753   0.079   6.826   6.239
 2978SOL    HW1 9754   0.078   6.779   6.327
 2978SOL    HW2 9755   0.161   6.798   6.188
 2979SOL     OW 9756   1.824   5.778   6.813
 2979SOL    HW1 9757   1.820   5.688   6.857
 2979SOL    HW2 9758   1.827   5.767   6.714
 2980SOL     OW 9759   0.428   6.010   6.106
 2980SOL    HW1 9760   0.458   5.938   6.044
 2980SOL    HW2 9761   0.389   5.970   6.189
 2981SOL     OW 9762   1.705   7.073   6.690
 2981SOL    HW1 9763   1.612   7.048   6.663
 2981SOL    HW2 9764   1.731   7.023   6.772
 2982SOL     OW 9765   0.317   6.133   6.866
 2982SOL    HW1 9766   0.355   6.074   6.938
 2982SOL    HW2 9767   0.357   6.107   6.778
 2983SOL     OW 9768   1.424   5.800   6.698
 2983SOL    HW1 9769   1.476   5.735   6.753
 2983SOL    HW2 9770   1.375   5.863   6.759
 2984SOL     OW 9771   1.001   5.620   6.740
 2984SOL    HW1 9772   0.938   5.548   6.709
 2984SOL    HW2 9773   1.094   5.584   6.740
 2985SOL     OW 9774   0.770   6.916   5.887
 2985SOL    HW1 9775   0.724   6.829   5.904
 2985SOL    HW2 9776   0.861   6.913   5.928
 2986SOL     OW 9777   1.352   5.638   5.754
 2986SOL    HW1 9778   1.387   5.597   5.670
 2986SOL    HW2 9779   1.262   5.600   5.774
 2987SOL     OW 9780   1.300   6.039   6.277
 2987SOL    HW1 9781   1.241   6.119   6.281
 2987SOL    HW2 9782   1.315   6.004   6.370
 2988SOL     OW 9783   1.593   5.807   6.468
 2988SOL    HW1 9784   1.509   5.806   6.522
 2988SOL    HW2 9785   1.595   5.890   6.412
 2989SOL     OW 9786   0.039   6.663   5.886
 2989SOL    HW1 9787   0.138   6.652   5.877
 2989SOL    HW2 9788  -0.001   6.577   5.918
 2990SOL     OW 9789   2.092   0.628   0.113
 2990SOL    HW1 9790   1.999   0.626   0.150
 2990SOL    HW2 9791   2.093   0.589   0.021
 2991SOL     OW 9792   2.087   0.275   0.996
 2991SOL    HW1 9793   2.122   0.258   1.088
 2991SOL    HW2 9794   1.999   0.230   0.984
 2992SOL     OW 9795   1.881   0.368   0.647
 2992SOL    HW1 9796   1.799   0.411   0.686
 2992SOL    HW2 9797   1.853   0.295   0.584
 2993SOL     OW 9798   2.431   1.275   1.165
 2993SOL    HW1 9799   2.338   1.268   1.128
 2993SOL    HW2 9800   2.442   1.364   1.209
 2994SOL     OW 9801   3.417   1.511   0.703
 2994SOL    HW1 9802   3.360   1.495   0.784
 2994SOL    HW2 9803   3.358   1.521   0.623
 2995SOL     OW 9804   2.997   0.703   0.717
 2995SOL    HW1 9805   3.054   0.781   0.692
 2995SOL    HW2 9806   2.937   0.729   0.793
 2996SOL     OW 9807   3.617   0.607   0.231
 2996SOL    HW1 9808   3.605   0.594   0.132
 2996SOL    HW2 9809   3.587   0.526   0.280
 2997SOL     OW 9810   2.630   1.144   1.023
 2997SOL    HW1 9811   2.552   1.161   1.083
 2997SOL    HW2 9812   2.664   1.231   0.987
 2998SOL     OW 9813   2.712   0.798   1.823
 2998SOL    HW1 9814   2.708   0.874   1.888
 2998SOL    HW2 9815   2.734   0.834   1.732
 2999SOL     OW 9816   2.547   1.012   0.665
 2999SOL    HW1 9817   2.616   0.996   0.735
 2999SOL    HW2 9818   2.474   1.069   0.703
 3000SOL     OW 9819   2.548   1.161   1.803
 3000SOL    HW1 9820   2.608   1.240   1.817
 3000SOL    HW2 9821   2.462   1.192   1.762
 3001SOL     OW 9822   2.197   1.435   1.061
 3001SOL    HW1 9823   2.119   1.404   1.008
 3001SOL    HW2 9824   2.255   1.493   1.004
 3002SOL     OW 9825   3.322   1.505   1.339
 3002SOL    HW1 9826   3.346   1.599   1.365
 3002SOL    HW2 9827   3.306   1.451   1.421
 3003SOL     OW 9828   2.300   0.392   1.499
 3003SOL    HW1 9829   2.382   0.336   1.508
 3003SOL    HW2 9830   2.219   0.334   1.503
 3004SOL     OW 9831   3.465   0.447   0.737
 3004SOL    HW1 9832   3.391   0.493   0.687
 3004SOL    HW2 9833   3.516   0.515   0.790
 3005SOL     OW 9834   2.093   1.713   0.483
 3005SOL    HW1 9835   2.127   1.790   0.537
 3005SOL    HW2 9836   2.137   1.713   0.393
 3006SOL     OW 9837   2.989   1.341   1.690
 3006SOL    HW1 9838   3.036   1.341   1.778
 3006SOL    HW2 9839   2.941   1.254   1.679
 3007SOL     OW 9840   2.092   1.434   0.538
 3007SOL    HW1 9841   2.066   1.530   0.538
 3007SOL    HW2 9842   2.021   1.380   0.583
 3008SOL     OW 9843   2.102   1.091   0.886
 3008SOL    HW1 9844   2.116   1.007   0.938
 3008SOL    HW2 9845   2.047   1.155   0.941
 3009SOL     OW 9846   2.482   1.786   1.439
 3009SOL    HW1 9847   2.390   1.769   1.474
 3009SOL    HW2 9848   2.510   1.878   1.465
 3010SOL     OW 9849   2.468   0.964   0.123
 3010SOL    HW1 9850   2.475   1.048   0.069
 3010SOL    HW2 9851   2.514   0.977   0.211
 3011SOL     OW 9852   3.456   0.114   1.480
 3011SOL    HW1 9853   3.438   0.181   1.408
 3011SOL    HW2 9854   3.453   0.160   1.569
 3012SOL     OW 9855   1.984   0.643   0.563
 3012SOL    HW1 9856   1.939   0.555   0.580
 3012SOL    HW2 9857   1.983   0.697   0.647
 3013SOL     OW 9858   3.704   1.767   0.359
 3013SOL    HW1 9859   3.758   1.738   0.439
 3013SOL    HW2 9860   3.734   1.857   0.330
 3014SOL     OW 9861   3.551   0.922   0.612
 3014SOL    HW1 9862   3.646   0.893   0.620
 3014SOL    HW2 9863   3.543   0.987   0.537
 3015SOL     OW 9864   3.503   1.108   0.432
 3015SOL    HW1 9865   3.589   1.110   0.380
 3015SOL    HW2 9866   3.517   1.155   0.520
 3016SOL     OW 9867   1.975   0.737   1.597
 3016SOL    HW1 9868   2.063   0.724   1.642
 3016SOL    HW2 9869   1.962   0.834   1.575
 3017SOL     OW 9870   2.475   1.365   0.726
 3017SOL    HW1 9871   2.426   1.278   0.735
 3017SOL    HW2 9872   2.452   1.408   0.639
 3018SOL     OW 9873   3.155   1.228   1.423
 3018SOL    HW1 9874   3.192   1.155   1.365
 3018SOL    HW2 9875   3.207   1.233   1.508
 3019SOL     OW 9876   2.671   0.004   0.502
 3019SOL    HW1 9877   2.711   0.095   0.493
 3019SOL    HW2 9878   2.571   0.012   0.508
 3020SOL     OW 9879   2.059   0.976   1.264
 3020SOL    HW1 9880   2.148   0.931   1.250
 3020SOL    HW2 9881   1.986   0.911   1.245
 3021SOL     OW 9882   3.387   0.999   0.190
 3021SOL    HW1 9883   3.324   0.923   0.203
 3021SOL    HW2 9884   3.435   1.017   0.276
 3022SOL     OW 9885   3.049   1.792   1.616
 3022SOL    HW1 9886   3.073   1.852   1.540
 3022SOL    HW2 9887   3.056   1.697   1.586
 3023SOL     OW 9888   2.179   0.251   1.801
 3023SOL    HW1 9889   2.250   0.322   1.807
 3023SOL    HW2 9890   2.091   0.290   1.829
 3024SOL     OW 9891   3.328   1.417   0.953
 3024SOL    HW1 9892   3.269   1.423   1.033
 3024SOL    HW2 9893   3.313   1.329   0.907
 3025SOL     OW 9894   3.529   1.714   0.572
 3025SOL    HW1 9895   3.488   1.691   0.484
 3025SOL    HW2 9896   3.511   1.640   0.637
 3026SOL     OW 9897   2.460   0.729   0.270
 3026SOL    HW1 9898   2.484   0.798   0.202
 3026SOL    HW2 9899   2.382   0.762   0.324
 3027SOL     OW 9900   3.143   0.345   0.944
 3027SOL    HW1 9901   3.057   0.295   0.931
 3027SOL    HW2 9902   3.205   0.291   1.000
 3028SOL     OW 9903   3.438   1.662   0.307
 3028SOL    HW1 9904   3.527   1.708   0.310
 3028SOL    HW2 9905   3.417   1.638   0.212
 3029SOL     OW 9906   2.669   0.605   1.465
 3029SOL    HW1 9907   2.622   0.602   1.554
 3029SOL    HW2 9908   2.618   0.550   1.399
 3030SOL     OW 9909   3.256   0.469   1.674
 3030SOL    HW1 9910   3.236   0.512   1.762
 3030SOL    HW2 9911   3.334   0.407   1.683
 3031SOL     OW 9912   2.835   0.890   1.572
 3031SOL    HW1 9913   2.881   0.806   1.543
 3031SOL    HW2 9914   2.779   0.924   1.497
 3032SOL     OW 9915   2.853   0.410   1.242
 3032SOL    HW1 9916   2.776   0.444   1.296
 3032SOL    HW2 9917   2.819   0.359   1.163
 3033SOL     OW 9918   2.903   0.701   0.429
 3033SOL    HW1 9919   2.929   0.697   0.525
 3033SOL    HW2 9920   2.818   0.650   0.415
 3034SOL     OW 9921   1.938   0.811   0.789
 3034SOL    HW1 9922   2.037   0.799   0.798
 3034SOL    HW2 9923   1.914   0.906   0.810
 3035SOL     OW 9924   1.992   1.821   1.571
 3035SOL    HW1 9925   1.982   1.806   1.670
 3035SOL    HW2 9926   1.906   1.857   1.535
 3036SOL     OW 9927   2.727   0.348   0.195
 3036SOL    HW1 9928   2.786   0.411   0.146
 3036SOL    HW2 9929   2.746   0.254   0.166
 3037SOL     OW 9930   3.581   0.585   1.831
 3037SOL    HW1 9931   3.555   0.674   1.795
 3037SOL    HW2 9932   3.579   0.517   1.758
 3038SOL     OW 9933   3.224   1.144   0.545
 3038SOL    HW1 9934   3.307   1.115   0.497
 3038SOL    HW2 9935   3.175   1.211   0.489
 3039SOL     OW 9936   2.412   0.196   0.885
 3039SOL    HW1 9937   2.407   0.191   0.985
 3039SOL    HW2 9938   2.414   0.292   0.856
 3040SOL     OW 9939   2.870   1.456   0.477
 3040SOL    HW1 9940   2.824   1.528   0.425
 3040SOL    HW2 9941   2.866   1.476   0.575
 3041SOL     OW 9942   2.213   1.801   0.853
 3041SOL    HW1 9943   2.263   1.715   0.859
 3041SOL    HW2 9944   2.278   1.878   0.850
 3042SOL     OW 9945   3.657   1.066   0.873
 3042SOL    HW1 9946   3.595   1.051   0.797
 3042SOL    HW2 9947   3.605   1.077   0.958
 3043SOL     OW 9948   3.089   1.550   1.506
 3043SOL    HW1 9949   3.095   1.473   1.570
 3043SOL    HW2 9950   3.037   1.524   1.426
 3044SOL     OW 9951   2.183   0.943   0.242
 3044SOL    HW1 9952   2.265   0.982   0.200
 3044SOL    HW2 9953   2.156   0.861   0.193
 3045SOL     OW 9954   3.320   0.735   0.728
 3045SOL    HW1 9955   3.315   0.670   0.803
 3045SOL    HW2 9956   3.400   0.794   0.741
 3046SOL     OW 9957   2.323   1.266   1.727
 3046SOL    HW1 9958   2.273   1.267   1.641
 3046SOL    HW2 9959   2.260   1.248   1.803
 3047SOL     OW 9960   2.973   1.776   0.237
 3047SOL    HW1 9961   2.913   1.714   0.287
 3047SOL    HW2 9962   3.004   1.732   0.152
 3048SOL     OW 9963   2.064   0.285   1.498
 3048SOL    HW1 9964   1.984   0.345   1.485
 3048SOL    HW2 9965   2.054   0.236   1.584
 3049SOL     OW 9966   3.494   1.377   0.081
 3049SOL    HW1 9967   3.462   1.471   0.071
 3049SOL    HW2 9968   3.418   1.314   0.069
 3050SOL     OW 9969   2.326   1.743   0.323
 3050SOL    HW1 9970   2.359   1.782   0.409
 3050SOL    HW2 9971   2.402   1.736   0.258
 3051SOL     OW 9972   3.262   0.107   0.426
 3051SOL    HW1 9973   3.238   0.070   0.336
 3051SOL    HW2 9974   3.361   0.123   0.430
 3052SOL     OW 9975   2.111   1.785   1.241
 3052SOL    HW1 9976   2.168   1.720   1.291
 3052SOL    HW2 9977   2.095   1.752   1.148
 3053SOL     OW 9978   2.802   1.698   0.904
 3053SOL    HW1 9979   2.882   1.641   0.925
 3053SOL    HW2 9980   2.753   1.658   0.827
 3054SOL     OW 9981   2.244   0.700   0.480
 3054SOL    HW1 9982   2.289   0.610   0.477
 3054SOL    HW2 9983   2.150   0.689   0.513
 3055SOL     OW 9984   3.409   0.222   1.729
 3055SOL    HW1 9985   3.404   0.259   1.821
 3055SOL    HW2 9986   3.337   0.153   1.717
 3056SOL     OW 9987   2.476   0.122   0.117
 3056SOL    HW1 9988   2.574   0.100   0.124
 3056SOL    HW2 9989   2.445   0.105   0.024
 3057SOL     OW 9990   2.643   0.264   1.749
 3057SOL    HW1 9991   2.710   0.203   1.792
 3057SOL    HW2 9992   2.570   0.283   1.814
 3058SOL     OW 9993   2.750   1.514   1.195
 3058SOL    HW1 9994   2.727   1.489   1.101
 3058SOL    HW2 9995   2.811   1.445   1.234
 3059SOL     OW 9996   3.213   0.590   1.433
 3059SOL    HW1 9997   3.241   0.547   1.518
 3059SOL    HW2 9998   3.238   0.686   1.434
 3060SOL     OW 9999   2.665   1.402   0.924
 3060SOL    HW110000   2.755   1.416   0.882
 3060SOL    HW210001   2.594   1.404   0.853
 3061SOL     OW10002   2.784   0.503   0.899
 3061SOL    HW110003   2.759   0.494   0.803
 3061SOL    HW210004   2.832   0.421   0.930
 3062SOL     OW10005   2.401   0.064   0.512
 3062SOL    HW110006   2.320   0.065   0.570
 3062SOL    HW210007   2.404   0.147   0.457
 3063SOL     OW10008   3.296   1.188   0.041
 3063SOL    HW110009   3.328   1.112   0.098
 3063SOL    HW210010   3.204   1.215   0.071
 3064SOL     OW10011   2.159   0.035   0.171
 3064SOL    HW110012   2.208   0.119   0.150
 3064SOL    HW210013   2.221  -0.030   0.216
 3065SOL     OW10014   2.797   0.236   0.480
 3065SOL    HW110015   2.749   0.277   0.402
 3065SOL    HW210016   2.896   0.234   0.461
 3066SOL     OW10017   2.938   0.683   1.464
 3066SOL    HW110018   2.858   0.622   1.467
 3066SOL    HW210019   3.019   0.630   1.440
 3067SOL     OW10020   3.089   1.570   0.793
 3067SOL    HW110021   3.110   1.644   0.728
 3067SOL    HW210022   3.157   1.570   0.866
 3068SOL     OW10023   2.321   1.152   0.741
 3068SOL    HW110024   2.250   1.125   0.806
 3068SOL    HW210025   2.295   1.124   0.648
 3069SOL     OW10026   3.133   1.797   0.591
 3069SOL    HW110027   3.177   1.861   0.527
 3069SOL    HW210028   3.083   1.849   0.661
 3070SOL     OW10029   2.894   0.549   0.016
 3070SOL    HW110030   2.853   0.631  -0.023
 3070SOL    HW210031   2.958   0.575   0.089
 3071SOL     OW10032   1.940   0.556   1.386
 3071SOL    HW110033   2.032   0.555   1.345
 3071SOL    HW210034   1.934   0.630   1.453
 3072SOL     OW10035   2.423   0.222   1.147
 3072SOL    HW110036   2.461   0.138   1.184
 3072SOL    HW210037   2.335   0.241   1.191
 3073SOL     OW10038   2.728   0.454   0.642
 3073SOL    HW110039   2.696   0.526   0.580
 3073SOL    HW210040   2.752   0.373   0.589
 3074SOL     OW10041   2.879   0.039   0.753
 3074SOL    HW110042   2.807   0.044   0.684
 3074SOL    HW210043   2.855  -0.030   0.822
 3075SOL     OW10044   3.291   1.173   0.867
 3075SOL    HW110045   3.236   1.089   0.860
 3075SOL    HW210046   3.317   1.202   0.775
 3076SOL     OW10047   3.328   0.590   0.992
 3076SOL    HW110048   3.298   0.495   0.999
 3076SOL    HW210049   3.401   0.606   1.058
 3077SOL     OW10050   3.719   0.833   0.377
 3077SOL    HW110051   3.761   0.769   0.441
 3077SOL    HW210052   3.681   0.782   0.299
 3078SOL     OW10053   2.350   1.385   0.174
 3078SOL    HW110054   2.263   1.370   0.221
 3078SOL    HW210055   2.333   1.411   0.079
 3079SOL     OW10056   3.526   1.280   0.657
 3079SOL    HW110057   3.625   1.288   0.671
 3079SOL    HW210058   3.481   1.364   0.688
 3080SOL     OW10059   3.252   0.575   0.078
 3080SOL    HW110060   3.198   0.554   0.159
 3080SOL    HW210061   3.343   0.534   0.087
 3081SOL     OW10062   2.389   0.256   0.328
 3081SOL    HW110063   2.416   0.197   0.253
 3081SOL    HW210064   2.389   0.351   0.297
 3082SOL     OW10065   3.616   1.223   1.588
 3082SOL    HW110066   3.707   1.184   1.575
 3082SOL    HW210067   3.624   1.319   1.612
 3083SOL     OW10068   2.926   1.347   1.340
 3083SOL    HW110069   2.846   1.324   1.395
 3083SOL    HW210070   3.009   1.321   1.389
 3084SOL     OW10071   3.454   1.629   1.625
 3084SOL    HW110072   3.481   1.663   1.535
 3084SOL    HW210073   3.533   1.591   1.671
 3085SOL     OW10074   2.973   1.195   1.100
 3085SOL    HW110075   2.933   1.239   1.181
 3085SOL    HW210076   2.932   1.232   1.017
 3086SOL     OW10077   3.500   1.099   1.079
 3086SOL    HW110078   3.505   1.180   1.138
 3086SOL    HW210079   3.414   1.101   1.028
 3087SOL     OW10080   2.777   0.089   1.402
 3087SOL    HW110081   2.802   0.069   1.307
 3087SOL    HW210082   2.849   0.145   1.444
 3088SOL     OW10083   2.842   1.116   1.719
 3088SOL    HW110084   2.743   1.122   1.729
 3088SOL    HW210085   2.865   1.036   1.663
 3089SOL     OW10086   2.567   1.050   0.368
 3089SOL    HW110087   2.553   1.057   0.467
 3089SOL    HW210088   2.651   0.999   0.350
 3090SOL     OW10089   2.272   0.813   1.251
 3090SOL    HW110090   2.358   0.825   1.301
 3090SOL    HW210091   2.230   0.726   1.278
 3091SOL     OW10092   3.136   0.386   1.262
 3091SOL    HW110093   3.157   0.460   1.326
 3091SOL    HW210094   3.047   0.403   1.219
 3092SOL     OW10095   1.926   1.564   1.331
 3092SOL    HW110096   1.880   1.646   1.297
 3092SOL    HW210097   2.024   1.583   1.340
 3093SOL     OW10098   2.229   1.100   0.501
 3093SOL    HW110099   2.222   1.183   0.445
 3093SOL    HW210100   2.233   1.020   0.441
 3094SOL     OW10101   2.428   0.537   0.865
 3094SOL    HW110102   2.440   0.603   0.791
 3094SOL    HW210103   2.474   0.571   0.948
 3095SOL     OW10104   3.114   1.348   0.388
 3095SOL    HW110105   3.164   1.425   0.428
 3095SOL    HW210106   3.019   1.350   0.420
 3096SOL     OW10107   3.134   1.445   1.142
 3096SOL    HW110108   3.181   1.458   1.229
 3096SOL    HW210109   3.068   1.371   1.151
 3097SOL     OW10110   3.444   0.639   0.472
 3097SOL    HW110111   3.413   0.700   0.545
 3097SOL    HW210112   3.494   0.691   0.403
 3098SOL     OW10113   2.216   1.510   1.329
 3098SOL    HW110114   2.195   1.466   1.242
 3098SOL    HW210115   2.313   1.536   1.332
 3099SOL     OW10116   2.264   0.751   1.598
 3099SOL    HW110117   2.332   0.806   1.551
 3099SOL    HW210118   2.304   0.663   1.625
 3100SOL     OW10119   3.449   0.779   1.670
 3100SOL    HW110120   3.357   0.817   1.665
 3100SOL    HW210121   3.509   0.826   1.605
 3101SOL     OW10122   2.875   0.105   1.770
 3101SOL    HW110123   2.881   0.190   1.718
 3101SOL    HW210124   2.907   0.029   1.713
 3102SOL     OW10125   2.366   0.050   1.740
 3102SOL    HW110126   2.324  -0.007   1.670
 3102SOL    HW210127   2.300   0.119   1.772
 3103SOL     OW10128   2.435   0.870   1.029
 3103SOL    HW110129   2.479   0.959   1.020
 3103SOL    HW210130   2.372   0.870   1.106
 3104SOL     OW10131   3.222   0.862   1.045
 3104SOL    HW110132   3.147   0.862   0.979
 3104SOL    HW210133   3.259   0.770   1.054
 3105SOL     OW10134   3.071   0.525   0.275
 3105SOL    HW110135   3.084   0.441   0.329
 3105SOL    HW210136   3.042   0.599   0.335
 3106SOL     OW10137   2.169   0.213   1.231
 3106SOL    HW110138   2.146   0.250   1.321
 3106SOL    HW210139   2.139   0.118   1.225
 3107SOL     OW10140   1.899   1.310   1.282
 3107SOL    HW110141   1.952   1.261   1.350
 3107SOL    HW210142   1.921   1.408   1.287
 3108SOL     OW10143   2.594   0.634   1.064
 3108SOL    HW110144   2.653   0.608   0.988
 3108SOL    HW210145   2.566   0.730   1.053
 3109SOL     OW10146   3.590   0.935   1.854
 3109SOL    HW110147   3.544   0.928   1.765
 3109SOL    HW210148   3.528   0.979   1.920
 3110SOL     OW10149   2.169   0.063   0.618
 3110SOL    HW110150   2.158   0.157   0.651
 3110SOL    HW210151   2.164   0.000   0.695
 3111SOL     OW10152   3.484   0.367   0.374
 3111SOL    HW110153   3.486   0.291   0.438
 3111SOL    HW210154   3.436   0.444   0.414
 3112SOL     OW10155   2.885   0.766   0.966
 3112SOL    HW110156   2.900   0.787   1.062
 3112SOL    HW210157   2.855   0.671   0.957
 3113SOL     OW10158   2.842   1.573   1.700
 3113SOL    HW110159   2.822   1.617   1.612
 3113SOL    HW210160   2.881   1.482   1.684
 3114SOL     OW10161   3.721   1.518   1.605
 3114SOL    HW110162   3.735   1.545   1.510
 3114SOL    HW210163   3.804   1.540   1.658
 3115SOL     OW10164   2.212   0.898   1.804
 3115SOL    HW110165   2.288   0.942   1.852
 3115SOL    HW210166   2.247   0.851   1.722
 3116SOL     OW10167   3.402   0.274   0.125
 3116SOL    HW110168   3.341   0.199   0.148
 3116SOL    HW210169   3.424   0.326   0.208
 3117SOL     OW10170   3.165   0.838   0.042
 3117SOL    HW110171   3.199   0.745   0.057
 3117SOL    HW210172   3.183   0.865  -0.053
 3118SOL     OW10173   2.930   1.333   0.849
 3118SOL    HW110174   2.937   1.249   0.794
 3118SOL    HW210175   2.992   1.402   0.813
 3119SOL     OW10176   2.181   0.810   0.949
 3119SOL    HW110177   2.274   0.846   0.954
 3119SOL    HW210178   2.175   0.725   1.001
 3120SOL     OW10179   2.201   0.509   1.006
 3120SOL    HW110180   2.149   0.426   0.989
 3120SOL    HW210181   2.278   0.514   0.942
 3121SOL     OW10182   3.000   0.380   1.678
 3121SOL    HW110183   2.955   0.443   1.742
 3121SOL    HW210184   3.093   0.411   1.661
 3122SOL     OW10185   3.022   0.207   1.477
 3122SOL    HW110186   3.022   0.271   1.554
 3122SOL    HW210187   3.050   0.255   1.394
 3123SOL     OW10188   1.950   1.801   0.927
 3123SOL    HW110189   1.908   1.715   0.900
 3123SOL    HW210190   2.044   1.804   0.893
 3124SOL     OW10191   2.366   1.568   0.910
 3124SOL    HW110192   2.432   1.642   0.919
 3124SOL    HW210193   2.410   1.489   0.868
 3125SOL     OW10194   2.864   0.796   1.238
 3125SOL    HW110195   2.905   0.764   1.324
 3125SOL    HW210196   2.768   0.769   1.235
 3126SOL     OW10197   1.902   0.544   1.114
 3126SOL    HW110198   1.987   0.511   1.073
 3126SOL    HW210199   1.915   0.559   1.212
 3127SOL     OW10200   2.051   0.520   1.722
 3127SOL    HW110201   2.110   0.480   1.652
 3127SOL    HW210202   1.993   0.591   1.681
 3128SOL     OW10203   3.231   0.950   1.660
 3128SOL    HW110204   3.270   1.039   1.680
 3128SOL    HW210205   3.241   0.930   1.563
 3129SOL     OW10206   2.677   0.572   0.325
 3129SOL    HW110207   2.684   0.483   0.279
 3129SOL    HW210208   2.583   0.606   0.317
 3130SOL     OW10209   3.519   0.604   1.206
 3130SOL    HW110210   3.481   0.535   1.268
 3130SOL    HW210211   3.601   0.568   1.162
 3131SOL     OW10212   2.114   1.564   1.744
 3131SOL    HW110213   2.084   1.621   1.820
 3131SOL    HW210214   2.107   1.467   1.770
 3132SOL     OW10215   2.533   0.464   1.269
 3132SOL    HW110216   2.499   0.375   1.239
 3132SOL    HW210217   2.559   0.518   1.189
 3133SOL     OW10218   2.792   1.678   1.465
 3133SOL    HW110219   2.768   1.660   1.370
 3133SOL    HW210220   2.822   1.772   1.475
 3134SOL     OW10221   2.335   0.500   0.191
 3134SOL    HW110222   2.396   0.580   0.195
 3134SOL    HW210223   2.240   0.531   0.198
 3135SOL     OW10224   2.021   1.137   1.466
 3135SOL    HW110225   2.043   1.076   1.542
 3135SOL    HW210226   2.031   1.088   1.380
 3136SOL     OW10227   3.209   1.059   1.234
 3136SOL    HW110228   3.233   0.996   1.160
 3136SOL    HW210229   3.119   1.099   1.216
 3137SOL     OW10230   3.164   0.855   0.309
 3137SOL    HW110231   3.078   0.824   0.351
 3137SOL    HW210232   3.160   0.841   0.210
 3138SOL     OW10233   3.621   1.747   1.154
 3138SOL    HW110234   3.682   1.777   1.081
 3138SOL    HW210235   3.583   1.658   1.132
 3139SOL     OW10236   3.114   1.731   1.128
 3139SOL    HW110237   3.198   1.736   1.074
 3139SOL    HW210238   3.091   1.635   1.146
 3140SOL     OW10239   1.945   1.258   1.022
 3140SOL    HW110240   1.940   1.257   1.122
 3140SOL    HW210241   1.862   1.217   0.984
 3141SOL     OW10242   2.550   1.662   1.716
 3141SOL    HW110243   2.494   1.743   1.725
 3141SOL    HW210244   2.602   1.666   1.630
 3142SOL     OW10245   2.765   0.086   0.133
 3142SOL    HW110246   2.816   0.087   0.047
 3142SOL    HW210247   2.821   0.044   0.204
 3143SOL     OW10248   3.588   0.135   0.523
 3143SOL    HW110249   3.661   0.118   0.456
 3143SOL    HW210250   3.557   0.048   0.561
 3144SOL     OW10251   3.250   1.573   0.477
 3144SOL    HW110252   3.317   1.585   0.403
 3144SOL    HW210253   3.210   1.662   0.500
 3145SOL     OW10254   1.992   1.794   1.851
 3145SOL    HW110255   1.951   1.720   1.904
 3145SOL    HW210256   2.056   1.845   1.909
 3146SOL     OW10257   3.142   0.927   0.672
 3146SOL    HW110258   3.202   0.846   0.674
 3146SOL    HW210259   3.182   0.996   0.612
 3147SOL     OW10260   2.692   1.273   1.422
 3147SOL    HW110261   2.687   1.306   1.517
 3147SOL    HW210262   2.606   1.292   1.376
 3148SOL     OW10263   2.534   1.616   0.154
 3148SOL    HW110264   2.543   1.626   0.055
 3148SOL    HW210265   2.494   1.527   0.175
 3149SOL     OW10266   3.512   1.720   1.394
 3149SOL    HW110267   3.565   1.730   1.310
 3149SOL    HW210268   3.485   1.810   1.428
 3150SOL     OW10269   3.703   0.175   0.963
 3150SOL    HW110270   3.742   0.090   0.927
 3150SOL    HW210271   3.605   0.177   0.944
 3151SOL     OW10272   2.125   0.326   0.720
 3151SOL    HW110273   2.046   0.377   0.686
 3151SOL    HW210274   2.116   0.311   0.818
 3152SOL     OW10275   3.056   1.612   0.031
 3152SOL    HW110276   3.062   1.519   0.068
 3152SOL    HW210277   2.997   1.612  -0.049
 3153SOL     OW10278   2.684   1.002   1.372
 3153SOL    HW110279   2.724   1.001   1.280
 3153SOL    HW210280   2.694   1.094   1.412
 3154SOL     OW10281   2.778   0.910   0.291
 3154SOL    HW110282   2.841   0.948   0.223
 3154SOL    HW210283   2.818   0.827   0.330
 3155SOL     OW10284   3.366   1.607   0.044
 3155SOL    HW110285   3.274   1.644   0.051
 3155SOL    HW210286   3.404   1.627  -0.046
 3156SOL     OW10287   2.234   1.288   1.490
 3156SOL    HW110288   2.221   1.381   1.456
 3156SOL    HW210289   2.150   1.236   1.477
 3157SOL     OW10290   3.476   1.292   1.289
 3157SOL    HW110291   3.536   1.295   1.369
 3157SOL    HW210292   3.401   1.356   1.302
 3158SOL     OW10293   2.901   1.098   0.696
 3158SOL    HW110294   2.831   1.051   0.750
 3158SOL    HW210295   2.960   1.030   0.653
 3159SOL     OW10296   2.876   0.236   0.971
 3159SOL    HW110297   2.868   0.200   0.878
 3159SOL    HW210298   2.874   0.160   1.036
 3160SOL     OW10299   2.452   1.487   0.491
 3160SOL    HW110300   2.494   1.429   0.421
 3160SOL    HW210301   2.408   1.566   0.447
 3161SOL     OW10302   3.571   0.385   1.381
 3161SOL    HW110303   3.644   0.454   1.385
 3161SOL    HW210304   3.599   0.310   1.322
 3162SOL     OW10305   2.117   1.348   0.290
 3162SOL    HW110306   2.021   1.349   0.263
 3162SOL    HW210307   2.129   1.401   0.374
 3163SOL     OW10308   1.967   1.013   1.726
 3163SOL    HW110309   1.890   0.980   1.780
 3163SOL    HW210310   2.052   0.983   1.768
 3164SOL     OW10311   2.534   0.203   1.489
 3164SOL    HW110312   2.624   0.187   1.449
 3164SOL    HW210313   2.542   0.208   1.588
 3165SOL     OW10314   1.937   0.345   0.033
 3165SOL    HW110315   1.845   0.317   0.004
 3165SOL    HW210316   1.968   0.422  -0.023
 3166SOL     OW10317   3.302   0.856   1.398
 3166SOL    HW110318   3.245   0.908   1.335
 3166SOL    HW210319   3.398   0.868   1.374
 3167SOL     OW10320   1.934   0.166   0.318
 3167SOL    HW110321   1.917   0.249   0.264
 3167SOL    HW210322   2.024   0.129   0.296
 3168SOL     OW10323   3.045   1.335   0.119
 3168SOL    HW110324   2.946   1.324   0.121
 3168SOL    HW210325   3.079   1.350   0.212
 3169SOL     OW10326   2.475   0.842   1.431
 3169SOL    HW110327   2.531   0.923   1.414
 3169SOL    HW210328   2.534   0.762   1.434
 3170SOL     OW10329   3.355   1.767   0.959
 3170SOL    HW110330   3.388   1.831   0.890
 3170SOL    HW210331   3.421   1.761   1.034
 3171SOL     OW10332   2.578   0.565   1.708
 3171SOL    HW110333   2.597   0.630   1.782
 3171SOL    HW210334   2.638   0.485   1.717
 3172SOL     OW10335   3.312   1.220   1.633
 3172SOL    HW110336   3.303   1.210   1.732
 3172SOL    HW210337   3.408   1.213   1.607
 3173SOL     OW10338   2.252   1.741   1.560
 3173SOL    HW110339   2.161   1.782   1.558
 3173SOL    HW210340   2.245   1.647   1.592
 3174SOL     OW10341   3.536   0.883   1.254
 3174SOL    HW110342   3.509   0.794   1.217
 3174SOL    HW210343   3.537   0.951   1.181
 3175SOL     OW10344   3.087   0.325   0.449
 3175SOL    HW110345   3.152   0.251   0.438
 3175SOL    HW210346   3.107   0.375   0.533
 3176SOL     OW10347   2.456   0.745   0.652
 3176SOL    HW110348   2.506   0.830   0.633
 3176SOL    HW210349   2.368   0.747   0.604
 3177SOL     OW10350   3.639   0.342   1.642
 3177SOL    HW110351   3.622   0.373   1.548
 3177SOL    HW210352   3.555   0.305   1.680
 3178SOL     OW10353   3.592   0.934   1.517
 3178SOL    HW110354   3.630   1.025   1.532
 3178SOL    HW210355   3.584   0.917   1.418
 3179SOL     OW10356   2.721   1.374   0.016
 3179SOL    HW110357   2.675   1.389   0.104
 3179SOL    HW210358   2.765   1.459  -0.014
 3180SOL     OW10359   2.523   1.790   0.953
 3180SOL    HW110360   2.477   1.878   0.940
 3180SOL    HW210361   2.622   1.802   0.946
 3181SOL     OW10362   2.721   0.956   0.861
 3181SOL    HW110363   2.775   0.887   0.909
 3181SOL    HW210364   2.689   1.025   0.927
 3182SOL     OW10365   2.945   0.984   0.087
 3182SOL    HW110366   2.922   1.037   0.005
 3182SOL    HW210367   3.026   0.928   0.068
 3183SOL     OW10368   3.723   1.569   0.851
 3183SOL    HW110369   3.652   1.557   0.781
 3183SOL    HW210370   3.724   1.490   0.911
 3184SOL     OW10371   2.083   1.314   1.844
 3184SOL    HW110372   2.018   1.241   1.823
 3184SOL    HW210373   2.087   1.328   1.942
 3185SOL     OW10374   1.941   1.240   0.653
 3185SOL    HW110375   1.940   1.193   0.741
 3185SOL    HW210376   2.023   1.212   0.602
 3186SOL     OW10377   2.534   1.391   1.624
 3186SOL    HW110378   2.456   1.341   1.662
 3186SOL    HW210379   2.531   1.486   1.655
 3187SOL     OW10380   3.686   0.192   1.227
 3187SOL    HW110381   3.682   0.102   1.271
 3187SOL    HW210382   3.689   0.181   1.128
 3188SOL     OW10383   2.290   0.424   0.520
 3188SOL    HW110384   2.320   0.352   0.458
 3188SOL    HW210385   2.251   0.384   0.603
 3189SOL     OW10386   3.567   1.487   1.104
 3189SOL    HW110387   3.474   1.462   1.077
 3189SOL    HW210388   3.593   1.437   1.186
 3190SOL     OW10389   2.179   0.547   1.280
 3190SOL    HW110390   2.217   0.488   1.352
 3190SOL    HW210391   2.219   0.521   1.192
 3191SOL     OW10392   2.674   1.586   0.687
 3191SOL    HW110393   2.706   1.596   0.593
 3191SOL    HW210394   2.595   1.524   0.689
 3192SOL     OW10395   3.286   0.214   1.112
 3192SOL    HW110396   3.338   0.149   1.167
 3192SOL    HW210397   3.237   0.277   1.173
 3193SOL     OW10398   2.863   0.034   1.154
 3193SOL    HW110399   2.800  -0.038   1.123
 3193SOL    HW210400   2.956  -0.002   1.154
 3194SOL     OW10401   2.632   1.330   0.301
 3194SOL    HW110402   2.586   1.243   0.318
 3194SOL    HW210403   2.723   1.327   0.342
 3195SOL     OW10404   2.480   1.567   1.284
 3195SOL    HW110405   2.475   1.649   1.341
 3195SOL    HW210406   2.569   1.564   1.239
 3196SOL     OW10407   3.214   0.052   0.168
 3196SOL    HW110408   3.249   0.011   0.084
 3196SOL    HW210409   3.124   0.014   0.188
 3197SOL     OW10410   3.162   0.453   0.691
 3197SOL    HW110411   3.103   0.533   0.695
 3197SOL    HW210412   3.177   0.418   0.784
 3198SOL     OW10413   3.455   0.221   0.882
 3198SOL    HW110414   3.371   0.220   0.936
 3198SOL    HW210415   3.457   0.304   0.826
 3199SOL     OW10416   1.901   1.077   0.300
 3199SOL    HW110417   2.000   1.066   0.291
 3199SOL    HW210418   1.861   0.991   0.332
 3200SOL     OW10419   2.737   1.646   0.337
 3200SOL    HW110420   2.660   1.611   0.283
 3200SOL    HW210421   2.705   1.717   0.399
 3201SOL     OW10422   2.092   0.628   1.975
 3201SOL    HW110423   1.999   0.626   2.012
 3201SOL    HW210424   2.093   0.589   1.883
 3202SOL     OW10425   2.087   0.275   2.858
 3202SOL    HW110426   2.122   0.258   2.950
 3202SOL    HW210427   1.999   0.230   2.846
 3203SOL     OW10428   1.881   0.368   2.509
 3203SOL    HW110429   1.799   0.411   2.548
 3203SOL    HW210430   1.853   0.295   2.446
 3204SOL     OW10431   2.431   1.275   3.027
 3204SOL    HW110432   2.338   1.268   2.990
 3204SOL    HW210433   2.442   1.364   3.071
 3205SOL     OW10434   3.417   1.511   2.565
 3205SOL    HW110435   3.360   1.495   2.646
 3205SOL    HW210436   3.358   1.521   2.485
 3206SOL     OW10437   2.997   0.703   2.579
 3206SOL    HW110438   3.054   0.781   2.554
 3206SOL    HW210439   2.937   0.729   2.655
 3207SOL     OW10440   3.617   0.607   2.093
 3207SOL    HW110441   3.605   0.594   1.994
 3207SOL    HW210442   3.587   0.526   2.142
 3208SOL     OW10443   2.630   1.144   2.885
 3208SOL    HW110444   2.552   1.161   2.945
 3208SOL    HW210445   2.664   1.231   2.849
 3209SOL     OW10446   2.712   0.798   3.685
 3209SOL    HW110447   2.708   0.874   3.750
 3209SOL    HW210448   2.734   0.834   3.594
 3210SOL     OW10449   2.547   1.012   2.527
 3210SOL    HW110450   2.616   0.996   2.597
 3210SOL    HW210451   2.474   1.069   2.565
 3211SOL     OW10452   2.548   1.161   3.665
 3211SOL    HW110453   2.608   1.240   3.679
 3211SOL    HW210454   2.462   1.192   3.624
 3212SOL     OW10455   2.197   1.435   2.923
 3212SOL    HW110456   2.119   1.404   2.870
 3212SOL    HW210457   2.255   1.493   2.866
 3213SOL     OW10458   3.322   1.505   3.201
 3213SOL    HW110459   3.346   1.599   3.227
 3213SOL    HW210460   3.306   1.451   3.283
 3214SOL     OW10461   2.300   0.392   3.361
 3214SOL    HW110462   2.382   0.336   3.370
 3214SOL    HW210463   2.219   0.334   3.365
 3215SOL     OW10464   3.465   0.447   2.599
 3215SOL    HW110465   3.391   0.493   2.549
 3215SOL    HW210466   3.516   0.515   2.652
 3216SOL     OW10467   2.093   1.713   2.345
 3216SOL    HW110468   2.127   1.790   2.399
 3216SOL    HW210469   2.137   1.713   2.255
 3217SOL     OW10470   2.989   1.341   3.552
 3217SOL    HW110471   3.036   1.341   3.640
 3217SOL    HW210472   2.941   1.254   3.541
 3218SOL     OW10473   2.092   1.434   2.400
 3218SOL    HW110474   2.066   1.530   2.400
 3218SOL    HW210475   2.021   1.380   2.445
 3219SOL     OW10476   2.102   1.091   2.748
 3219SOL    HW110477   2.116   1.007   2.800
 3219SOL    HW210478   2.047   1.155   2.803
 3220SOL     OW10479   2.482   1.786   3.301
 3220SOL    HW110480   2.390   1.769   3.336
 3220SOL    HW210481   2.510   1.878   3.327
 3221SOL     OW10482   2.468   0.964   1.985
 3221SOL    HW110483   2.475   1.048   1.931
 3221SOL    HW210484   2.514   0.977   2.073
 3222SOL     OW10485   3.456   0.114   3.342
 3222SOL    HW110486   3.438   0.181   3.270
 3222SOL    HW210487   3.453   0.160   3.431
 3223SOL     OW10488   1.984   0.643   2.425
 3223SOL    HW110489   1.939   0.555   2.442
 3223SOL    HW210490   1.983   0.697   2.509
 3224SOL     OW10491   3.704   1.767   2.221
 3224SOL    HW110492   3.758   1.738   2.301
 3224SOL    HW210493   3.734   1.857   2.192
 3225SOL     OW10494   1.889   1.596   1.979
 3225SOL    HW110495   1.870   1.500   2.000
 3225SOL    HW210496   1.856   1.654   2.054
 3226SOL     OW10497   3.551   0.922   2.474
 3226SOL    HW110498   3.646   0.893   2.482
 3226SOL    HW210499   3.543   0.987   2.399
 3227SOL     OW10500   3.503   1.108   2.294
 3227SOL    HW110501   3.589   1.110   2.242
 3227SOL    HW210502   3.517   1.155   2.382
 3228SOL     OW10503   1.975   0.737   3.459
 3228SOL    HW110504   2.063   0.724   3.504
 3228SOL    HW210505   1.962   0.834   3.437
 3229SOL     OW10506   2.475   1.365   2.588
 3229SOL    HW110507   2.426   1.278   2.597
 3229SOL    HW210508   2.452   1.408   2.501
 3230SOL     OW10509   3.155   1.228   3.285
 3230SOL    HW110510   3.192   1.155   3.227
 3230SOL    HW210511   3.207   1.233   3.370
 3231SOL     OW10512   2.671   0.004   2.364
 3231SOL    HW110513   2.711   0.095   2.355
 3231SOL    HW210514   2.571   0.012   2.370
 3232SOL     OW10515   2.059   0.976   3.126
 3232SOL    HW110516   2.148   0.931   3.112
 3232SOL    HW210517   1.986   0.911   3.107
 3233SOL     OW10518   3.387   0.999   2.052
 3233SOL    HW110519   3.324   0.923   2.065
 3233SOL    HW210520   3.435   1.017   2.138
 3234SOL     OW10521   3.049   1.792   3.478
 3234SOL    HW110522   3.073   1.852   3.402
 3234SOL    HW210523   3.056   1.697   3.448
 3235SOL     OW10524   2.179   0.251   3.663
 3235SOL    HW110525   2.250   0.322   3.669
 3235SOL    HW210526   2.091   0.290   3.691
 3236SOL     OW10527   3.328   1.417   2.815
 3236SOL    HW110528   3.269   1.423   2.895
 3236SOL    HW210529   3.313   1.329   2.769
 3237SOL     OW10530   3.529   1.714   2.434
 3237SOL    HW110531   3.488   1.691   2.346
 3237SOL    HW210532   3.511   1.640   2.499
 3238SOL     OW10533   2.460   0.729   2.132
 3238SOL    HW110534   2.484   0.798   2.064
 3238SOL    HW210535   2.382   0.762   2.186
 3239SOL     OW10536   3.143   0.345   2.806
 3239SOL    HW110537   3.057   0.295   2.793
 3239SOL    HW210538   3.205   0.291   2.862
 3240SOL     OW10539   3.438   1.662   2.169
 3240SOL    HW110540   3.527   1.708   2.172
 3240SOL    HW210541   3.417   1.638   2.074
 3241SOL     OW10542   2.669   0.605   3.327
 3241SOL    HW110543   2.622   0.602   3.416
 3241SOL    HW210544   2.618   0.550   3.261
 3242SOL     OW10545   3.256   0.469   3.536
 3242SOL    HW110546   3.236   0.512   3.624
 3242SOL    HW210547   3.334   0.407   3.545
 3243SOL     OW10548   2.835   0.890   3.434
 3243SOL    HW110549   2.881   0.806   3.405
 3243SOL    HW210550   2.779   0.924   3.359
 3244SOL     OW10551   2.853   0.410   3.104
 3244SOL    HW110552   2.776   0.444   3.158
 3244SOL    HW210553   2.819   0.359   3.025
 3245SOL     OW10554   2.903   0.701   2.291
 3245SOL    HW110555   2.929   0.697   2.387
 3245SOL    HW210556   2.818   0.650   2.277
 3246SOL     OW10557   1.938   0.811   2.651
 3246SOL    HW110558   2.037   0.799   2.660
 3246SOL    HW210559   1.914   0.906   2.672
 3247SOL     OW10560   1.992   1.821   3.433
 3247SOL    HW110561   1.982   1.806   3.532
 3247SOL    HW210562   1.906   1.857   3.397
 3248SOL     OW10563   2.727   0.348   2.057
 3248SOL    HW110564   2.786   0.411   2.008
 3248SOL    HW210565   2.746   0.254   2.028
 3249SOL     OW10566   3.581   0.585   3.693
 3249SOL    HW110567   3.555   0.674   3.657
 3249SOL    HW210568   3.579   0.517   3.620
 3250SOL     OW10569   3.224   1.144   2.407
 3250SOL    HW110570   3.307   1.115   2.359
 3250SOL    HW210571   3.175   1.211   2.351
 3251SOL     OW10572   2.412   0.196   2.747
 3251SOL    HW110573   2.407   0.191   2.847
 3251SOL    HW210574   2.414   0.292   2.718
 3252SOL     OW10575   2.870   1.456   2.339
 3252SOL    HW110576   2.824   1.528   2.287
 3252SOL    HW210577   2.866   1.476   2.437
 3253SOL     OW10578   2.213   1.801   2.715
 3253SOL    HW110579   2.263   1.715   2.721
 3253SOL    HW210580   2.278   1.878   2.712
 3254SOL     OW10581   3.657   1.066   2.735
 3254SOL    HW110582   3.595   1.051   2.659
 3254SOL    HW210583   3.605   1.077   2.820
 3255SOL     OW10584   3.089   1.550   3.368
 3255SOL    HW110585   3.095   1.473   3.432
 3255SOL    HW210586   3.037   1.524   3.288
 3256SOL     OW10587   2.183   0.943   2.104
 3256SOL    HW110588   2.265   0.982   2.062
 3256SOL    HW210589   2.156   0.861   2.055
 3257SOL     OW10590   3.320   0.735   2.590
 3257SOL    HW110591   3.315   0.670   2.665
 3257SOL    HW210592   3.400   0.794   2.603
 3258SOL     OW10593   2.323   1.266   3.589
 3258SOL    HW110594   2.273   1.267   3.503
 3258SOL    HW210595   2.260   1.248   3.665
 3259SOL     OW10596   2.973   1.776   2.099
 3259SOL    HW110597   2.913   1.714   2.149
 3259SOL    HW210598   3.004   1.732   2.014
 3260SOL     OW10599   2.064   0.285   3.360
 3260SOL    HW110600   1.984   0.345   3.347
 3260SOL    HW210601   2.054   0.236   3.446
 3261SOL     OW10602   3.494   1.377   1.943
 3261SOL    HW110603   3.462   1.471   1.933
 3261SOL    HW210604   3.418   1.314   1.931
 3262SOL     OW10605   2.326   1.743   2.185
 3262SOL    HW110606   2.359   1.782   2.271
 3262SOL    HW210607   2.402   1.736   2.120
 3263SOL     OW10608   3.262   0.107   2.288
 3263SOL    HW110609   3.238   0.070   2.198
 3263SOL    HW210610   3.361   0.123   2.292
 3264SOL     OW10611   2.111   1.785   3.103
 3264SOL    HW110612   2.168   1.720   3.153
 3264SOL    HW210613   2.095   1.752   3.010
 3265SOL     OW10614   2.802   1.698   2.766
 3265SOL    HW110615   2.882   1.641   2.787
 3265SOL    HW210616   2.753   1.658   2.689
 3266SOL     OW10617   2.244   0.700   2.342
 3266SOL    HW110618   2.289   0.610   2.339
 3266SOL    HW210619   2.150   0.689   2.375
 3267SOL     OW10620   3.409   0.222   3.591
 3267SOL    HW110621   3.404   0.259   3.683
 3267SOL    HW210622   3.337   0.153   3.579
 3268SOL     OW10623   2.476   0.122   1.979
 3268SOL    HW110624   2.574   0.100   1.986
 3268SOL    HW210625   2.445   0.105   1.886
 3269SOL     OW10626   2.643   0.264   3.611
 3269SOL    HW110627   2.710   0.203   3.654
 3269SOL    HW210628   2.570   0.283   3.676
 3270SOL     OW10629   2.750   1.514   3.057
 3270SOL    HW110630   2.727   1.489   2.963
 3270SOL    HW210631   2.811   1.445   3.096
 3271SOL     OW10632   3.213   0.590   3.295
 3271SOL    HW110633   3.241   0.547   3.380
 3271SOL    HW210634   3.238   0.686   3.296
 3272SOL     OW10635   2.665   1.402   2.786
 3272SOL    HW110636   2.755   1.416   2.744
 3272SOL    HW210637   2.594   1.404   2.715
 3273SOL     OW10638   2.784   0.503   2.761
 3273SOL    HW110639   2.759   0.494   2.665
 3273SOL    HW210640   2.832   0.421   2.792
 3274SOL     OW10641   2.401   0.064   2.374
 3274SOL    HW110642   2.320   0.065   2.432
 3274SOL    HW210643   2.404   0.147   2.319
 3275SOL     OW10644   3.296   1.188   1.903
 3275SOL    HW110645   3.328   1.112   1.960
 3275SOL    HW210646   3.204   1.215   1.933
 3276SOL     OW10647   2.159   0.035   2.033
 3276SOL    HW110648   2.208   0.119   2.012
 3276SOL    HW210649   2.221  -0.030   2.078
 3277SOL     OW10650   2.797   0.236   2.342
 3277SOL    HW110651   2.749   0.277   2.264
 3277SOL    HW210652   2.896   0.234   2.323
 3278SOL     OW10653   2.938   0.683   3.326
 3278SOL    HW110654   2.858   0.622   3.329
 3278SOL    HW210655   3.019   0.630   3.302
 3279SOL     OW10656   3.089   1.570   2.655
 3279SOL    HW110657   3.110   1.644   2.590
 3279SOL    HW210658   3.157   1.570   2.728
 3280SOL     OW10659   2.321   1.152   2.603
 3280SOL    HW110660   2.250   1.125   2.668
 3280SOL    HW210661   2.295   1.124   2.510
 3281SOL     OW10662   3.133   1.797   2.453
 3281SOL    HW110663   3.177   1.861   2.389
 3281SOL    HW210664   3.083   1.849   2.523
 3282SOL     OW10665   2.894   0.549   1.878
 3282SOL    HW110666   2.853   0.631   1.839
 3282SOL    HW210667   2.958   0.575   1.951
 3283SOL     OW10668   1.940   0.556   3.248
 3283SOL    HW110669   2.032   0.555   3.207
 3283SOL    HW210670   1.934   0.630   3.315
 3284SOL     OW10671   2.423   0.222   3.009
 3284SOL    HW110672   2.461   0.138   3.046
 3284SOL    HW210673   2.335   0.241   3.053
 3285SOL     OW10674   2.728   0.454   2.504
 3285SOL    HW110675   2.696   0.526   2.442
 3285SOL    HW210676   2.752   0.373   2.451
 3286SOL     OW10677   2.879   0.039   2.615
 3286SOL    HW110678   2.807   0.044   2.546
 3286SOL    HW210679   2.855  -0.030   2.684
 3287SOL     OW10680   3.291   1.173   2.729
 3287SOL    HW110681   3.236   1.089   2.722
 3287SOL    HW210682   3.317   1.202   2.637
 3288SOL     OW10683   3.328   0.590   2.854
 3288SOL    HW110684   3.298   0.495   2.861
 3288SOL    HW210685   3.401   0.606   2.920
 3289SOL     OW10686   3.719   0.833   2.239
 3289SOL    HW110687   3.761   0.769   2.303
 3289SOL    HW210688   3.681   0.782   2.161
 3290SOL     OW10689   2.350   1.385   2.036
 3290SOL    HW110690   2.263   1.370   2.083
 3290SOL    HW210691   2.333   1.411   1.941
 3291SOL     OW10692   3.526   1.280   2.519
 3291SOL    HW110693   3.625   1.288   2.533
 3291SOL    HW210694   3.481   1.364   2.550
 3292SOL     OW10695   3.252   0.575   1.940
 3292SOL    HW110696   3.198   0.554   2.021
 3292SOL    HW210697   3.343   0.534   1.949
 3293SOL     OW10698   2.389   0.256   2.190
 3293SOL    HW110699   2.416   0.197   2.115
 3293SOL    HW210700   2.389   0.351   2.159
 3294SOL     OW10701   3.616   1.223   3.450
 3294SOL    HW110702   3.707   1.184   3.437
 3294SOL    HW210703   3.624   1.319   3.474
 3295SOL     OW10704   2.926   1.347   3.202
 3295SOL    HW110705   2.846   1.324   3.257
 3295SOL    HW210706   3.009   1.321   3.251
 3296SOL     OW10707   3.454   1.629   3.487
 3296SOL    HW110708   3.481   1.663   3.397
 3296SOL    HW210709   3.533   1.591   3.533
 3297SOL     OW10710   2.973   1.195   2.962
 3297SOL    HW110711   2.933   1.239   3.043
 3297SOL    HW210712   2.932   1.232   2.879
 3298SOL     OW10713   3.500   1.099   2.941
 3298SOL    HW110714   3.505   1.180   3.000
 3298SOL    HW210715   3.414   1.101   2.890
 3299SOL     OW10716   2.777   0.089   3.264
 3299SOL    HW110717   2.802   0.069   3.169
 3299SOL    HW210718   2.849   0.145   3.306
 3300SOL     OW10719   2.842   1.116   3.581
 3300SOL    HW110720   2.743   1.122   3.591
 3300SOL    HW210721   2.865   1.036   3.525
 3301SOL     OW10722   2.567   1.050   2.230
 3301SOL    HW110723   2.553   1.057   2.329
 3301SOL    HW210724   2.651   0.999   2.212
 3302SOL     OW10725   2.272   0.813   3.113
 3302SOL    HW110726   2.358   0.825   3.163
 3302SOL    HW210727   2.230   0.726   3.140
 3303SOL     OW10728   3.136   0.386   3.124
 3303SOL    HW110729   3.157   0.460   3.188
 3303SOL    HW210730   3.047   0.403   3.081
 3304SOL     OW10731   1.926   1.564   3.193
 3304SOL    HW110732   1.880   1.646   3.159
 3304SOL    HW210733   2.024   1.583   3.202
 3305SOL     OW10734   2.229   1.100   2.363
 3305SOL    HW110735   2.222   1.183   2.307
 3305SOL    HW210736   2.233   1.020   2.303
 3306SOL     OW10737   2.428   0.537   2.727
 3306SOL    HW110738   2.440   0.603   2.653
 3306SOL    HW210739   2.474   0.571   2.810
 3307SOL     OW10740   3.114   1.348   2.250
 3307SOL    HW110741   3.164   1.425   2.290
 3307SOL    HW210742   3.019   1.350   2.282
 3308SOL     OW10743   3.134   1.445   3.004
 3308SOL    HW110744   3.181   1.458   3.091
 3308SOL    HW210745   3.068   1.371   3.013
 3309SOL     OW10746   3.444   0.639   2.334
 3309SOL    HW110747   3.413   0.700   2.407
 3309SOL    HW210748   3.494   0.691   2.265
 3310SOL     OW10749   2.216   1.510   3.191
 3310SOL    HW110750   2.195   1.466   3.104
 3310SOL    HW210751   2.313   1.536   3.194
 3311SOL     OW10752   2.264   0.751   3.460
 3311SOL    HW110753   2.332   0.806   3.413
 3311SOL    HW210754   2.304   0.663   3.487
 3312SOL     OW10755   3.449   0.779   3.532
 3312SOL    HW110756   3.357   0.817   3.527
 3312SOL    HW210757   3.509   0.826   3.467
 3313SOL     OW10758   2.875   0.105   3.632
 3313SOL    HW110759   2.881   0.190   3.580
 3313SOL    HW210760   2.907   0.029   3.575
 3314SOL     OW10761   2.366   0.050   3.602
 3314SOL    HW110762   2.324  -0.007   3.532
 3314SOL    HW210763   2.300   0.119   3.634
 3315SOL     OW10764   2.435   0.870   2.891
 3315SOL    HW110765   2.479   0.959   2.882
 3315SOL    HW210766   2.372   0.870   2.968
 3316SOL     OW10767   3.222   0.862   2.907
 3316SOL    HW110768   3.147   0.862   2.841
 3316SOL    HW210769   3.259   0.770   2.916
 3317SOL     OW10770   3.071   0.525   2.137
 3317SOL    HW110771   3.084   0.441   2.191
 3317SOL    HW210772   3.042   0.599   2.197
 3318SOL     OW10773   2.169   0.213   3.093
 3318SOL    HW110774   2.146   0.250   3.183
 3318SOL    HW210775   2.139   0.118   3.087
 3319SOL     OW10776   1.899   1.310   3.144
 3319SOL    HW110777   1.952   1.261   3.212
 3319SOL    HW210778   1.921   1.408   3.149
 3320SOL     OW10779   2.594   0.634   2.926
 3320SOL    HW110780   2.653   0.608   2.850
 3320SOL    HW210781   2.566   0.730   2.915
 3321SOL     OW10782   3.590   0.935   3.716
 3321SOL    HW110783   3.544   0.928   3.627
 3321SOL    HW210784   3.528   0.979   3.782
 3322SOL     OW10785   2.169   0.063   2.480
 3322SOL    HW110786   2.158   0.157   2.513
 3322SOL    HW210787   2.164   0.000   2.557
 3323SOL     OW10788   3.484   0.367   2.236
 3323SOL    HW110789   3.486   0.291   2.300
 3323SOL    HW210790   3.436   0.444   2.276
 3324SOL     OW10791   2.885   0.766   2.828
 3324SOL    HW110792   2.900   0.787   2.924
 3324SOL    HW210793   2.855   0.671   2.819
 3325SOL     OW10794   2.842   1.573   3.562
 3325SOL    HW110795   2.822   1.617   3.474
 3325SOL    HW210796   2.881   1.482   3.546
 3326SOL     OW10797   3.721   1.518   3.467
 3326SOL    HW110798   3.735   1.545   3.372
 3326SOL    HW210799   3.804   1.540   3.520
 3327SOL     OW10800   2.212   0.898   3.666
 3327SOL    HW110801   2.288   0.942   3.714
 3327SOL    HW210802   2.247   0.851   3.584
 3328SOL     OW10803   3.402   0.274   1.987
 3328SOL    HW110804   3.341   0.199   2.010
 3328SOL    HW210805   3.424   0.326   2.070
 3329SOL     OW10806   3.165   0.838   1.904
 3329SOL    HW110807   3.199   0.745   1.919
 3329SOL    HW210808   3.183   0.865   1.809
 3330SOL     OW10809   2.930   1.333   2.711
 3330SOL    HW110810   2.937   1.249   2.656
 3330SOL    HW210811   2.992   1.402   2.675
 3331SOL     OW10812   2.181   0.810   2.811
 3331SOL    HW110813   2.274   0.846   2.816
 3331SOL    HW210814   2.175   0.725   2.863
 3332SOL     OW10815   2.201   0.509   2.868
 3332SOL    HW110816   2.149   0.426   2.851
 3332SOL    HW210817   2.278   0.514   2.804
 3333SOL     OW10818   3.000   0.380   3.540
 3333SOL    HW110819   2.955   0.443   3.604
 3333SOL    HW210820   3.093   0.411   3.523
 3334SOL     OW10821   3.022   0.207   3.339
 3334SOL    HW110822   3.022   0.271   3.416
 3334SOL    HW210823   3.050   0.255   3.256
 3335SOL     OW10824   1.870   1.326   2.062
 3335SOL    HW110825   1.777   1.347   2.031
 3335SOL    HW210826   1.880   1.227   2.075
 3336SOL     OW10827   1.950   1.801   2.789
 3336SOL    HW110828   1.908   1.715   2.762
 3336SOL    HW210829   2.044   1.804   2.755
 3337SOL     OW10830   2.366   1.568   2.772
 3337SOL    HW110831   2.432   1.642   2.781
 3337SOL    HW210832   2.410   1.489   2.730
 3338SOL     OW10833   2.864   0.796   3.100
 3338SOL    HW110834   2.905   0.764   3.186
 3338SOL    HW210835   2.768   0.769   3.097
 3339SOL     OW10836   1.902   0.544   2.976
 3339SOL    HW110837   1.987   0.511   2.935
 3339SOL    HW210838   1.915   0.559   3.074
 3340SOL     OW10839   2.051   0.520   3.584
 3340SOL    HW110840   2.110   0.480   3.514
 3340SOL    HW210841   1.993   0.591   3.543
 3341SOL     OW10842   3.231   0.950   3.522
 3341SOL    HW110843   3.270   1.039   3.542
 3341SOL    HW210844   3.241   0.930   3.425
 3342SOL     OW10845   2.677   0.572   2.187
 3342SOL    HW110846   2.684   0.483   2.141
 3342SOL    HW210847   2.583   0.606   2.179
 3343SOL     OW10848   3.519   0.604   3.068
 3343SOL    HW110849   3.481   0.535   3.130
 3343SOL    HW210850   3.601   0.568   3.024
 3344SOL     OW10851   2.114   1.564   3.606
 3344SOL    HW110852   2.084   1.621   3.682
 3344SOL    HW210853   2.107   1.467   3.632
 3345SOL     OW10854   2.533   0.464   3.131
 3345SOL    HW110855   2.499   0.375   3.101
 3345SOL    HW210856   2.559   0.518   3.051
 3346SOL     OW10857   2.792   1.678   3.327
 3346SOL    HW110858   2.768   1.660   3.232
 3346SOL    HW210859   2.822   1.772   3.337
 3347SOL     OW10860   2.335   0.500   2.053
 3347SOL    HW110861   2.396   0.580   2.057
 3347SOL    HW210862   2.240   0.531   2.060
 3348SOL     OW10863   2.021   1.137   3.328
 3348SOL    HW110864   2.043   1.076   3.404
 3348SOL    HW210865   2.031   1.088   3.242
 3349SOL     OW10866   3.209   1.059   3.096
 3349SOL    HW110867   3.233   0.996   3.022
 3349SOL    HW210868   3.119   1.099   3.078
 3350SOL     OW10869   3.164   0.855   2.171
 3350SOL    HW110870   3.078   0.824   2.213
 3350SOL    HW210871   3.160   0.841   2.072
 3351SOL     OW10872   3.621   1.747   3.016
 3351SOL    HW110873   3.682   1.777   2.943
 3351SOL    HW210874   3.583   1.658   2.994
 3352SOL     OW10875   3.114   1.731   2.990
 3352SOL    HW110876   3.198   1.736   2.936
 3352SOL    HW210877   3.091   1.635   3.008
 3353SOL     OW10878   1.945   1.258   2.884
 3353SOL    HW110879   1.940   1.257   2.984
 3353SOL    HW210880   1.862   1.217   2.846
 3354SOL     OW10881   2.550   1.662   3.578
 3354SOL    HW110882   2.494   1.743   3.587
 3354SOL    HW210883   2.602   1.666   3.492
 3355SOL     OW10884   3.588   0.135   2.385
 3355SOL    HW110885   3.661   0.118   2.318
 3355SOL    HW210886   3.557   0.048   2.423
 3356SOL     OW10887   3.250   1.573   2.339
 3356SOL    HW110888   3.317   1.585   2.265
 3356SOL    HW210889   3.210   1.662   2.362
 3357SOL     OW10890   1.992   1.794   3.713
 3357SOL    HW110891   1.951   1.720   3.766
 3357SOL    HW210892   2.056   1.845   3.771
 3358SOL     OW10893   3.142   0.927   2.534
 3358SOL    HW110894   3.202   0.846   2.536
 3358SOL    HW210895   3.182   0.996   2.474
 3359SOL     OW10896   2.692   1.273   3.284
 3359SOL    HW110897   2.687   1.306   3.379
 3359SOL    HW210898   2.606   1.292   3.238
 3360SOL     OW10899   2.534   1.616   2.016
 3360SOL    HW110900   2.543   1.626   1.917
 3360SOL    HW210901   2.494   1.527   2.037
 3361SOL     OW10902   3.512   1.720   3.256
 3361SOL    HW110903   3.565   1.730   3.172
 3361SOL    HW210904   3.485   1.810   3.290
 3362SOL     OW10905   3.703   0.175   2.825
 3362SOL    HW110906   3.742   0.090   2.789
 3362SOL    HW210907   3.605   0.177   2.806
 3363SOL     OW10908   2.125   0.326   2.582
 3363SOL    HW110909   2.046   0.377   2.548
 3363SOL    HW210910   2.116   0.311   2.680
 3364SOL     OW10911   3.056   1.612   1.893
 3364SOL    HW110912   3.062   1.519   1.930
 3364SOL    HW210913   2.997   1.612   1.813
 3365SOL     OW10914   2.684   1.002   3.234
 3365SOL    HW110915   2.724   1.001   3.142
 3365SOL    HW210916   2.694   1.094   3.274
 3366SOL     OW10917   2.778   0.910   2.153
 3366SOL    HW110918   2.841   0.948   2.085
 3366SOL    HW210919   2.818   0.827   2.192
 3367SOL     OW10920   3.366   1.607   1.906
 3367SOL    HW110921   3.274   1.644   1.913
 3367SOL    HW210922   3.404   1.627   1.816
 3368SOL     OW10923   2.234   1.288   3.352
 3368SOL    HW110924   2.221   1.381   3.318
 3368SOL    HW210925   2.150   1.236   3.339
 3369SOL     OW10926   3.476   1.292   3.151
 3369SOL    HW110927   3.536   1.295   3.231
 3369SOL    HW210928   3.401   1.356   3.164
 3370SOL     OW10929   2.901   1.098   2.558
 3370SOL    HW110930   2.831   1.051   2.612
 3370SOL    HW210931   2.960   1.030   2.515
 3371SOL     OW10932   2.876   0.236   2.833
 3371SOL    HW110933   2.868   0.200   2.740
 3371SOL    HW210934   2.874   0.160   2.898
 3372SOL     OW10935   2.452   1.487   2.353
 3372SOL    HW110936   2.494   1.429   2.283
 3372SOL    HW210937   2.408   1.566   2.309
 3373SOL     OW10938   3.571   0.385   3.243
 3373SOL    HW110939   3.644   0.454   3.247
 3373SOL    HW210940   3.599   0.310   3.184
 3374SOL     OW10941   2.117   1.348   2.152
 3374SOL    HW110942   2.021   1.349   2.125
 3374SOL    HW210943   2.129   1.401   2.236
 3375SOL     OW10944   1.967   1.013   3.588
 3375SOL    HW110945   1.890   0.980   3.642
 3375SOL    HW210946   2.052   0.983   3.630
 3376SOL     OW10947   2.534   0.203   3.351
 3376SOL    HW110948   2.624   0.187   3.311
 3376SOL    HW210949   2.542   0.208   3.450
 3377SOL     OW10950   1.937   0.345   1.895
 3377SOL    HW110951   1.845   0.317   1.866
 3377SOL    HW210952   1.968   0.422   1.839
 3378SOL     OW10953   3.302   0.856   3.260
 3378SOL    HW110954   3.245   0.908   3.197
 3378SOL    HW210955   3.398   0.868   3.236
 3379SOL     OW10956   1.934   0.166   2.180
 3379SOL    HW110957   1.917   0.249   2.126
 3379SOL    HW210958   2.024   0.129   2.158
 3380SOL     OW10959   3.045   1.335   1.981
 3380SOL    HW110960   2.946   1.324   1.983
 3380SOL    HW210961   3.079   1.350   2.074
 3381SOL     OW10962   2.475   0.842   3.293
 3381SOL    HW110963   2.531   0.923   3.276
 3381SOL    HW210964   2.534   0.762   3.296
 3382SOL     OW10965   3.355   1.767   2.821
 3382SOL    HW110966   3.388   1.831   2.752
 3382SOL    HW210967   3.421   1.761   2.896
 3383SOL     OW10968   2.578   0.565   3.570
 3383SOL    HW110969   2.597   0.630   3.644
 3383SOL    HW210970   2.638   0.485   3.579
 3384SOL     OW10971   3.312   1.220   3.495
 3384SOL    HW110972   3.303   1.210   3.594
 3384SOL    HW210973   3.408   1.213   3.469
 3385SOL     OW10974   2.252   1.741   3.422
 3385SOL    HW110975   2.161   1.782   3.420
 3385SOL    HW210976   2.245   1.647   3.454
 3386SOL     OW10977   3.536   0.883   3.116
 3386SOL    HW110978   3.509   0.794   3.079
 3386SOL    HW210979   3.537   0.951   3.043
 3387SOL     OW10980   3.087   0.325   2.311
 3387SOL    HW110981   3.152   0.251   2.300
 3387SOL    HW210982   3.107   0.375   2.395
 3388SOL     OW10983   2.456   0.745   2.514
 3388SOL    HW110984   2.506   0.830   2.495
 3388SOL    HW210985   2.368   0.747   2.466
 3389SOL     OW10986   3.639   0.342   3.504
 3389SOL    HW110987   3.622   0.373   3.410
 3389SOL    HW210988   3.555   0.305   3.542
 3390SOL     OW10989   3.592   0.934   3.379
 3390SOL    HW110990   3.630   1.025   3.394
 3390SOL    HW210991   3.584   0.917   3.280
 3391SOL     OW10992   2.721   1.374   1.878
 3391SOL    HW110993   2.675   1.389   1.966
 3391SOL    HW210994   2.765   1.459   1.848
 3392SOL     OW10995   2.523   1.790   2.815
 3392SOL    HW110996   2.477   1.878   2.802
 3392SOL    HW210997   2.622   1.802   2.808
 3393SOL     OW10998   2.721   0.956   2.723
 3393SOL    HW110999   2.775   0.887   2.771
 3393SOL    HW211000   2.689   1.025   2.789
 3394SOL     OW11001   2.945   0.984   1.949
 3394SOL    HW111002   2.922   1.037   1.867
 3394SOL    HW211003   3.026   0.928   1.930
 3395SOL     OW11004   3.723   1.569   2.713
 3395SOL    HW111005   3.652   1.557   2.643
 3395SOL    HW211006   3.724   1.490   2.773
 3396SOL     OW11007   2.083   1.314   3.706
 3396SOL    HW111008   2.018   1.241   3.685
 3396SOL    HW211009   2.087   1.328   3.804
 3397SOL     OW11010   1.941   1.240   2.515
 3397SOL    HW111011   1.940   1.193   2.603
 3397SOL    HW211012   2.023   1.212   2.464
 3398SOL     OW11013   2.534   1.391   3.486
 3398SOL    HW111014   2.456   1.341   3.524
 3398SOL    HW211015   2.531   1.486   3.517
 3399SOL     OW11016   3.686   0.192   3.089
 3399SOL    HW111017   3.682   0.102   3.133
 3399SOL    HW211018   3.689   0.181   2.990
 3400SOL     OW11019   2.290   0.424   2.382
 3400SOL    HW111020   2.320   0.352   2.320
 3400SOL    HW211021   2.251   0.384   2.465
 3401SOL     OW11022   3.567   1.487   2.966
 3401SOL    HW111023   3.474   1.462   2.939
 3401SOL    HW211024   3.593   1.437   3.048
 3402SOL     OW11025   2.179   0.547   3.142
 3402SOL    HW111026   2.217   0.488   3.214
 3402SOL    HW211027   2.219   0.521   3.054
 3403SOL     OW11028   2.674   1.586   2.549
 3403SOL    HW111029   2.706   1.596   2.455
 3403SOL    HW211030   2.595   1.524   2.551
 3404SOL     OW11031   3.286   0.214   2.974
 3404SOL    HW111032   3.338   0.149   3.029
 3404SOL    HW211033   3.237   0.277   3.035
 3405SOL     OW11034   2.863   0.034   3.016
 3405SOL    HW111035   2.800  -0.038   2.985
 3405SOL    HW211036   2.956  -0.002   3.016
 3406SOL     OW11037   2.632   1.330   2.163
 3406SOL    HW111038   2.586   1.243   2.180
 3406SOL    HW211039   2.723   1.327   2.204
 3407SOL     OW11040   2.480   1.567   3.146
 3407SOL    HW111041   2.475   1.649   3.203
 3407SOL    HW211042   2.569   1.564   3.101
 3408SOL     OW11043   3.214   0.052   2.030
 3408SOL    HW111044   3.249   0.011   1.946
 3408SOL    HW211045   3.124   0.014   2.050
 3409SOL     OW11046   3.162   0.453   2.553
 3409SOL    HW111047   3.103   0.533   2.557
 3409SOL    HW211048   3.177   0.418   2.646
 3410SOL     OW11049   3.455   0.221   2.744
 3410SOL    HW111050   3.371   0.220   2.798
 3410SOL    HW211051   3.457   0.304   2.688
 3411SOL     OW11052   1.901   1.077   2.162
 3411SOL    HW111053   2.000   1.066   2.153
 3411SOL    HW211054   1.861   0.991   2.194
 3412SOL     OW11055   2.737   1.646   2.199
 3412SOL    HW111056   2.660   1.611   2.145
 3412SOL    HW211057   2.705   1.717   2.261
 3413SOL     OW11058   2.092   0.628   3.837
 3413SOL    HW111059   1.999   0.626   3.874
 3413SOL    HW211060   2.093   0.589   3.745
 3414SOL     OW11061   2.087   0.275   4.720
 3414SOL    HW111062   2.122   0.258   4.812
 3414SOL    HW211063   1.999   0.230   4.708
 3415SOL     OW11064   1.881   0.368   4.371
 3415SOL    HW111065   1.799   0.411   4.410
 3415SOL    HW211066   1.853   0.295   4.308
 3416SOL     OW11067   2.431   1.275   4.889
 3416SOL    HW111068   2.338   1.268   4.852
 3416SOL    HW211069   2.442   1.364   4.933
 3417SOL     OW11070   3.417   1.511   4.427
 3417SOL    HW111071   3.360   1.495   4.508
 3417SOL    HW211072   3.358   1.521   4.347
 3418SOL     OW11073   2.997   0.703   4.441
 3418SOL    HW111074   3.054   0.781   4.416
 3418SOL    HW211075   2.937   0.729   4.517
 3419SOL     OW11076   3.617   0.607   3.955
 3419SOL    HW111077   3.605   0.594   3.856
 3419SOL    HW211078   3.587   0.526   4.004
 3420SOL     OW11079   2.630   1.144   4.747
 3420SOL    HW111080   2.552   1.161   4.807
 3420SOL    HW211081   2.664   1.231   4.711
 3421SOL     OW11082   2.712   0.798   5.547
 3421SOL    HW111083   2.708   0.874   5.612
 3421SOL    HW211084   2.734   0.834   5.456
 3422SOL     OW11085   2.547   1.012   4.389
 3422SOL    HW111086   2.616   0.996   4.459
 3422SOL    HW211087   2.474   1.069   4.427
 3423SOL     OW11088   2.548   1.161   5.527
 3423SOL    HW111089   2.608   1.240   5.541
 3423SOL    HW211090   2.462   1.192   5.486
 3424SOL     OW11091   2.197   1.435   4.785
 3424SOL    HW111092   2.119   1.404   4.732
 3424SOL    HW211093   2.255   1.493   4.728
 3425SOL     OW11094   3.322   1.505   5.063
 3425SOL    HW111095   3.346   1.599   5.089
 3425SOL    HW211096   3.306   1.451   5.145
 3426SOL     OW11097   2.300   0.392   5.223
 3426SOL    HW111098   2.382   0.336   5.232
 3426SOL    HW211099   2.219   0.334   5.227
 3427SOL     OW11100   3.465   0.447   4.461
 3427SOL    HW111101   3.391   0.493   4.411
 3427SOL    HW211102   3.516   0.515   4.514
 3428SOL     OW11103   2.093   1.713   4.207
 3428SOL    HW111104   2.127   1.790   4.261
 3428SOL    HW211105   2.137   1.713   4.117
 3429SOL     OW11106   2.989   1.341   5.414
 3429SOL    HW111107   3.036   1.341   5.502
 3429SOL    HW211108   2.941   1.254   5.403
 3430SOL     OW11109   2.092   1.434   4.262
 3430SOL    HW111110   2.066   1.530   4.262
 3430SOL    HW211111   2.021   1.380   4.307
 3431SOL     OW11112   2.102   1.091   4.610
 3431SOL    HW111113   2.116   1.007   4.662
 3431SOL    HW211114   2.047   1.155   4.665
 3432SOL     OW11115   2.482   1.786   5.163
 3432SOL    HW111116   2.390   1.769   5.198
 3432SOL    HW211117   2.510   1.878   5.189
 3433SOL     OW11118   2.468   0.964   3.847
 3433SOL    HW111119   2.475   1.048   3.793
 3433SOL    HW211120   2.514   0.977   3.935
 3434SOL     OW11121   3.456   0.114   5.204
 3434SOL    HW111122   3.438   0.181   5.132
 3434SOL    HW211123   3.453   0.160   5.293
 3435SOL     OW11124   1.984   0.643   4.287
 3435SOL    HW111125   1.939   0.555   4.304
 3435SOL    HW211126   1.983   0.697   4.371
 3436SOL     OW11127   3.704   1.767   4.083
 3436SOL    HW111128   3.758   1.738   4.163
 3436SOL    HW211129   3.734   1.857   4.054
 3437SOL     OW11130   1.889   1.596   3.841
 3437SOL    HW111131   1.870   1.500   3.862
 3437SOL    HW211132   1.856   1.654   3.916
 3438SOL     OW11133   3.551   0.922   4.336
 3438SOL    HW111134   3.646   0.893   4.344
 3438SOL    HW211135   3.543   0.987   4.261
 3439SOL     OW11136   3.503   1.108   4.156
 3439SOL    HW111137   3.589   1.110   4.104
 3439SOL    HW211138   3.517   1.155   4.244
 3440SOL     OW11139   1.975   0.737   5.321
 3440SOL    HW111140   2.063   0.724   5.366
 3440SOL    HW211141   1.962   0.834   5.299
 3441SOL     OW11142   2.475   1.365   4.450
 3441SOL    HW111143   2.426   1.278   4.459
 3441SOL    HW211144   2.452   1.408   4.363
 3442SOL     OW11145   3.155   1.228   5.147
 3442SOL    HW111146   3.192   1.155   5.089
 3442SOL    HW211147   3.207   1.233   5.232
 3443SOL     OW11148   2.671   0.004   4.226
 3443SOL    HW111149   2.711   0.095   4.217
 3443SOL    HW211150   2.571   0.012   4.232
 3444SOL     OW11151   2.059   0.976   4.988
 3444SOL    HW111152   2.148   0.931   4.974
 3444SOL    HW211153   1.986   0.911   4.969
 3445SOL     OW11154   3.387   0.999   3.914
 3445SOL    HW111155   3.324   0.923   3.927
 3445SOL    HW211156   3.435   1.017   4.000
 3446SOL     OW11157   3.049   1.792   5.340
 3446SOL    HW111158   3.073   1.852   5.264
 3446SOL    HW211159   3.056   1.697   5.310
 3447SOL     OW11160   2.179   0.251   5.525
 3447SOL    HW111161   2.250   0.322   5.531
 3447SOL    HW211162   2.091   0.290   5.553
 3448SOL     OW11163   3.328   1.417   4.677
 3448SOL    HW111164   3.269   1.423   4.757
 3448SOL    HW211165   3.313   1.329   4.631
 3449SOL     OW11166   3.529   1.714   4.296
 3449SOL    HW111167   3.488   1.691   4.208
 3449SOL    HW211168   3.511   1.640   4.361
 3450SOL     OW11169   2.460   0.729   3.994
 3450SOL    HW111170   2.484   0.798   3.926
 3450SOL    HW211171   2.382   0.762   4.048
 3451SOL     OW11172   3.143   0.345   4.668
 3451SOL    HW111173   3.057   0.295   4.655
 3451SOL    HW211174   3.205   0.291   4.724
 3452SOL     OW11175   3.438   1.662   4.031
 3452SOL    HW111176   3.527   1.708   4.034
 3452SOL    HW211177   3.417   1.638   3.936
 3453SOL     OW11178   2.669   0.605   5.189
 3453SOL    HW111179   2.622   0.602   5.278
 3453SOL    HW211180   2.618   0.550   5.123
 3454SOL     OW11181   3.256   0.469   5.398
 3454SOL    HW111182   3.236   0.512   5.486
 3454SOL    HW211183   3.334   0.407   5.407
 3455SOL     OW11184   2.835   0.890   5.296
 3455SOL    HW111185   2.881   0.806   5.267
 3455SOL    HW211186   2.779   0.924   5.221
 3456SOL     OW11187   2.853   0.410   4.966
 3456SOL    HW111188   2.776   0.444   5.020
 3456SOL    HW211189   2.819   0.359   4.887
 3457SOL     OW11190   2.903   0.701   4.153
 3457SOL    HW111191   2.929   0.697   4.249
 3457SOL    HW211192   2.818   0.650   4.139
 3458SOL     OW11193   1.938   0.811   4.513
 3458SOL    HW111194   2.037   0.799   4.522
 3458SOL    HW211195   1.914   0.906   4.534
 3459SOL     OW11196   1.992   1.821   5.295
 3459SOL    HW111197   1.982   1.806   5.394
 3459SOL    HW211198   1.906   1.857   5.259
 3460SOL     OW11199   2.727   0.348   3.919
 3460SOL    HW111200   2.786   0.411   3.870
 3460SOL    HW211201   2.746   0.254   3.890
 3461SOL     OW11202   3.581   0.585   5.555
 3461SOL    HW111203   3.555   0.674   5.519
 3461SOL    HW211204   3.579   0.517   5.482
 3462SOL     OW11205   3.224   1.144   4.269
 3462SOL    HW111206   3.307   1.115   4.221
 3462SOL    HW211207   3.175   1.211   4.213
 3463SOL     OW11208   2.412   0.196   4.609
 3463SOL    HW111209   2.407   0.191   4.709
 3463SOL    HW211210   2.414   0.292   4.580
 3464SOL     OW11211   2.870   1.456   4.201
 3464SOL    HW111212   2.824   1.528   4.149
 3464SOL    HW211213   2.866   1.476   4.299
 3465SOL     OW11214   2.213   1.801   4.577
 3465SOL    HW111215   2.263   1.715   4.583
 3465SOL    HW211216   2.278   1.878   4.574
 3466SOL     OW11217   3.657   1.066   4.597
 3466SOL    HW111218   3.595   1.051   4.521
 3466SOL    HW211219   3.605   1.077   4.682
 3467SOL     OW11220   3.089   1.550   5.230
 3467SOL    HW111221   3.095   1.473   5.294
 3467SOL    HW211222   3.037   1.524   5.150
 3468SOL     OW11223   2.183   0.943   3.966
 3468SOL    HW111224   2.265   0.982   3.924
 3468SOL    HW211225   2.156   0.861   3.917
 3469SOL     OW11226   3.320   0.735   4.452
 3469SOL    HW111227   3.315   0.670   4.527
 3469SOL    HW211228   3.400   0.794   4.465
 3470SOL     OW11229   2.323   1.266   5.451
 3470SOL    HW111230   2.273   1.267   5.365
 3470SOL    HW211231   2.260   1.248   5.527
 3471SOL     OW11232   2.973   1.776   3.961
 3471SOL    HW111233   2.913   1.714   4.011
 3471SOL    HW211234   3.004   1.732   3.876
 3472SOL     OW11235   2.064   0.285   5.222
 3472SOL    HW111236   1.984   0.345   5.209
 3472SOL    HW211237   2.054   0.236   5.308
 3473SOL     OW11238   3.494   1.377   3.805
 3473SOL    HW111239   3.462   1.471   3.795
 3473SOL    HW211240   3.418   1.314   3.793
 3474SOL     OW11241   2.326   1.743   4.047
 3474SOL    HW111242   2.359   1.782   4.133
 3474SOL    HW211243   2.402   1.736   3.982
 3475SOL     OW11244   3.262   0.107   4.150
 3475SOL    HW111245   3.238   0.070   4.060
 3475SOL    HW211246   3.361   0.123   4.154
 3476SOL     OW11247   2.111   1.785   4.965
 3476SOL    HW111248   2.168   1.720   5.015
 3476SOL    HW211249   2.095   1.752   4.872
 3477SOL     OW11250   2.802   1.698   4.628
 3477SOL    HW111251   2.882   1.641   4.649
 3477SOL    HW211252   2.753   1.658   4.551
 3478SOL     OW11253   2.244   0.700   4.204
 3478SOL    HW111254   2.289   0.610   4.201
 3478SOL    HW211255   2.150   0.689   4.237
 3479SOL     OW11256   3.409   0.222   5.453
 3479SOL    HW111257   3.404   0.259   5.545
 3479SOL    HW211258   3.337   0.153   5.441
 3480SOL     OW11259   2.476   0.122   3.841
 3480SOL    HW111260   2.574   0.100   3.848
 3480SOL    HW211261   2.445   0.105   3.748
 3481SOL     OW11262   2.643   0.264   5.473
 3481SOL    HW111263   2.710   0.203   5.516
 3481SOL    HW211264   2.570   0.283   5.538
 3482SOL     OW11265   2.750   1.514   4.919
 3482SOL    HW111266   2.727   1.489   4.825
 3482SOL    HW211267   2.811   1.445   4.958
 3483SOL     OW11268   3.213   0.590   5.157
 3483SOL    HW111269   3.241   0.547   5.242
 3483SOL    HW211270   3.238   0.686   5.158
 3484SOL     OW11271   2.665   1.402   4.648
 3484SOL    HW111272   2.755   1.416   4.606
 3484SOL    HW211273   2.594   1.404   4.577
 3485SOL     OW11274   2.784   0.503   4.623
 3485SOL    HW111275   2.759   0.494   4.527
 3485SOL    HW211276   2.832   0.421   4.654
 3486SOL     OW11277   2.401   0.064   4.236
 3486SOL    HW111278   2.320   0.065   4.294
 3486SOL    HW211279   2.404   0.147   4.181
 3487SOL     OW11280   3.296   1.188   3.765
 3487SOL    HW111281   3.328   1.112   3.822
 3487SOL    HW211282   3.204   1.215   3.795
 3488SOL     OW11283   2.159   0.035   3.895
 3488SOL    HW111284   2.208   0.119   3.874
 3488SOL    HW211285   2.221  -0.030   3.940
 3489SOL     OW11286   2.797   0.236   4.204
 3489SOL    HW111287   2.749   0.277   4.126
 3489SOL    HW211288   2.896   0.234   4.185
 3490SOL     OW11289   2.938   0.683   5.188
 3490SOL    HW111290   2.858   0.622   5.191
 3490SOL    HW211291   3.019   0.630   5.164
 3491SOL     OW11292   3.089   1.570   4.517
 3491SOL    HW111293   3.110   1.644   4.452
 3491SOL    HW211294   3.157   1.570   4.590
 3492SOL     OW11295   2.321   1.152   4.465
 3492SOL    HW111296   2.250   1.125   4.530
 3492SOL    HW211297   2.295   1.124   4.372
 3493SOL     OW11298   3.133   1.797   4.315
 3493SOL    HW111299   3.177   1.861   4.251
 3493SOL    HW211300   3.083   1.849   4.385
 3494SOL     OW11301   2.894   0.549   3.740
 3494SOL    HW111302   2.853   0.631   3.701
 3494SOL    HW211303   2.958   0.575   3.813
 3495SOL     OW11304   1.940   0.556   5.110
 3495SOL    HW111305   2.032   0.555   5.069
 3495SOL    HW211306   1.934   0.630   5.177
 3496SOL     OW11307   2.423   0.222   4.871
 3496SOL    HW111308   2.461   0.138   4.908
 3496SOL    HW211309   2.335   0.241   4.915
 3497SOL     OW11310   2.728   0.454   4.366
 3497SOL    HW111311   2.696   0.526   4.304
 3497SOL    HW211312   2.752   0.373   4.313
 3498SOL     OW11313   2.879   0.039   4.477
 3498SOL    HW111314   2.807   0.044   4.408
 3498SOL    HW211315   2.855  -0.030   4.546
 3499SOL     OW11316   3.291   1.173   4.591
 3499SOL    HW111317   3.236   1.089   4.584
 3499SOL    HW211318   3.317   1.202   4.499
 3500SOL     OW11319   3.328   0.590   4.716
 3500SOL    HW111320   3.298   0.495   4.723
 3500SOL    HW211321   3.401   0.606   4.782
 3501SOL     OW11322   3.719   0.833   4.101
 3501SOL    HW111323   3.761   0.769   4.165
 3501SOL    HW211324   3.681   0.782   4.023
 3502SOL     OW11325   2.350   1.385   3.898
 3502SOL    HW111326   2.263   1.370   3.945
 3502SOL    HW211327   2.333   1.411   3.803
 3503SOL     OW11328   3.526   1.280   4.381
 3503SOL    HW111329   3.625   1.288   4.395
 3503SOL    HW211330   3.481   1.364   4.412
 3504SOL     OW11331   3.252   0.575   3.802
 3504SOL    HW111332   3.198   0.554   3.883
 3504SOL    HW211333   3.343   0.534   3.811
 3505SOL     OW11334   2.389   0.256   4.052
 3505SOL    HW111335   2.416   0.197   3.977
 3505SOL    HW211336   2.389   0.351   4.021
 3506SOL     OW11337   3.616   1.223   5.312
 3506SOL    HW111338   3.707   1.184   5.299
 3506SOL    HW211339   3.624   1.319   5.336
 3507SOL     OW11340   2.926   1.347   5.064
 3507SOL    HW111341   2.846   1.324   5.119
 3507SOL    HW211342   3.009   1.321   5.113
 3508SOL     OW11343   3.454   1.629   5.349
 3508SOL    HW111344   3.481   1.663   5.259
 3508SOL    HW211345   3.533   1.591   5.395
 3509SOL     OW11346   2.973   1.195   4.824
 3509SOL    HW111347   2.933   1.239   4.905
 3509SOL    HW211348   2.932   1.232   4.741
 3510SOL     OW11349   3.500   1.099   4.803
 3510SOL    HW111350   3.505   1.180   4.862
 3510SOL    HW211351   3.414   1.101   4.752
 3511SOL     OW11352   2.777   0.089   5.126
 3511SOL    HW111353   2.802   0.069   5.031
 3511SOL    HW211354   2.849   0.145   5.168
 3512SOL     OW11355   2.842   1.116   5.443
 3512SOL    HW111356   2.743   1.122   5.453
 3512SOL    HW211357   2.865   1.036   5.387
 3513SOL     OW11358   2.567   1.050   4.092
 3513SOL    HW111359   2.553   1.057   4.191
 3513SOL    HW211360   2.651   0.999   4.074
 3514SOL     OW11361   2.272   0.813   4.975
 3514SOL    HW111362   2.358   0.825   5.025
 3514SOL    HW211363   2.230   0.726   5.002
 3515SOL     OW11364   3.136   0.386   4.986
 3515SOL    HW111365   3.157   0.460   5.050
 3515SOL    HW211366   3.047   0.403   4.943
 3516SOL     OW11367   1.926   1.564   5.055
 3516SOL    HW111368   1.880   1.646   5.021
 3516SOL    HW211369   2.024   1.583   5.064
 3517SOL     OW11370   2.229   1.100   4.225
 3517SOL    HW111371   2.222   1.183   4.169
 3517SOL    HW211372   2.233   1.020   4.165
 3518SOL     OW11373   2.428   0.537   4.589
 3518SOL    HW111374   2.440   0.603   4.515
 3518SOL    HW211375   2.474   0.571   4.672
 3519SOL     OW11376   3.114   1.348   4.112
 3519SOL    HW111377   3.164   1.425   4.152
 3519SOL    HW211378   3.019   1.350   4.144
 3520SOL     OW11379   3.134   1.445   4.866
 3520SOL    HW111380   3.181   1.458   4.953
 3520SOL    HW211381   3.068   1.371   4.875
 3521SOL     OW11382   3.444   0.639   4.196
 3521SOL    HW111383   3.413   0.700   4.269
 3521SOL    HW211384   3.494   0.691   4.127
 3522SOL     OW11385   2.216   1.510   5.053
 3522SOL    HW111386   2.195   1.466   4.966
 3522SOL    HW211387   2.313   1.536   5.056
 3523SOL     OW11388   2.264   0.751   5.322
 3523SOL    HW111389   2.332   0.806   5.275
 3523SOL    HW211390   2.304   0.663   5.349
 3524SOL     OW11391   3.449   0.779   5.394
 3524SOL    HW111392   3.357   0.817   5.389
 3524SOL    HW211393   3.509   0.826   5.329
 3525SOL     OW11394   2.875   0.105   5.494
 3525SOL    HW111395   2.881   0.190   5.442
 3525SOL    HW211396   2.907   0.029   5.437
 3526SOL     OW11397   2.366   0.050   5.464
 3526SOL    HW111398   2.324  -0.007   5.394
 3526SOL    HW211399   2.300   0.119   5.496
 3527SOL     OW11400   2.435   0.870   4.753
 3527SOL    HW111401   2.479   0.959   4.744
 3527SOL    HW211402   2.372   0.870   4.830
 3528SOL     OW11403   3.222   0.862   4.769
 3528SOL    HW111404   3.147   0.862   4.703
 3528SOL    HW211405   3.259   0.770   4.778
 3529SOL     OW11406   3.071   0.525   3.999
 3529SOL    HW111407   3.084   0.441   4.053
 3529SOL    HW211408   3.042   0.599   4.059
 3530SOL     OW11409   2.169   0.213   4.955
 3530SOL    HW111410   2.146   0.250   5.045
 3530SOL    HW211411   2.139   0.118   4.949
 3531SOL     OW11412   1.899   1.310   5.006
 3531SOL    HW111413   1.952   1.261   5.074
 3531SOL    HW211414   1.921   1.408   5.011
 3532SOL     OW11415   2.594   0.634   4.788
 3532SOL    HW111416   2.653   0.608   4.712
 3532SOL    HW211417   2.566   0.730   4.777
 3533SOL     OW11418   3.590   0.935   5.578
 3533SOL    HW111419   3.544   0.928   5.489
 3533SOL    HW211420   3.528   0.979   5.644
 3534SOL     OW11421   2.169   0.063   4.342
 3534SOL    HW111422   2.158   0.157   4.375
 3534SOL    HW211423   2.164   0.000   4.419
 3535SOL     OW11424   3.484   0.367   4.098
 3535SOL    HW111425   3.486   0.291   4.162
 3535SOL    HW211426   3.436   0.444   4.138
 3536SOL     OW11427   2.885   0.766   4.690
 3536SOL    HW111428   2.900   0.787   4.786
 3536SOL    HW211429   2.855   0.671   4.681
 3537SOL     OW11430   2.842   1.573   5.424
 3537SOL    HW111431   2.822   1.617   5.336
 3537SOL    HW211432   2.881   1.482   5.408
 3538SOL     OW11433   3.721   1.518   5.329
 3538SOL    HW111434   3.735   1.545   5.234
 3538SOL    HW211435   3.804   1.540   5.382
 3539SOL     OW11436   2.212   0.898   5.528
 3539SOL    HW111437   2.288   0.942   5.576
 3539SOL    HW211438   2.247   0.851   5.446
 3540SOL     OW11439   3.402   0.274   3.849
 3540SOL    HW111440   3.341   0.199   3.872
 3540SOL    HW211441   3.424   0.326   3.932
 3541SOL     OW11442   3.165   0.838   3.766
 3541SOL    HW111443   3.199   0.745   3.781
 3541SOL    HW211444   3.183   0.865   3.671
 3542SOL     OW11445   2.930   1.333   4.573
 3542SOL    HW111446   2.937   1.249   4.518
 3542SOL    HW211447   2.992   1.402   4.537
 3543SOL     OW11448   2.181   0.810   4.673
 3543SOL    HW111449   2.274   0.846   4.678
 3543SOL    HW211450   2.175   0.725   4.725
 3544SOL     OW11451   2.201   0.509   4.730
 3544SOL    HW111452   2.149   0.426   4.713
 3544SOL    HW211453   2.278   0.514   4.666
 3545SOL     OW11454   3.000   0.380   5.402
 3545SOL    HW111455   2.955   0.443   5.466
 3545SOL    HW211456   3.093   0.411   5.385
 3546SOL     OW11457   3.022   0.207   5.201
 3546SOL    HW111458   3.022   0.271   5.278
 3546SOL    HW211459   3.050   0.255   5.118
 3547SOL     OW11460   1.870   1.326   3.924
 3547SOL    HW111461   1.777   1.347   3.893
 3547SOL    HW211462   1.880   1.227   3.937
 3548SOL     OW11463   1.950   1.801   4.651
 3548SOL    HW111464   1.908   1.715   4.624
 3548SOL    HW211465   2.044   1.804   4.617
 3549SOL     OW11466   2.366   1.568   4.634
 3549SOL    HW111467   2.432   1.642   4.643
 3549SOL    HW211468   2.410   1.489   4.592
 3550SOL     OW11469   2.864   0.796   4.962
 3550SOL    HW111470   2.905   0.764   5.048
 3550SOL    HW211471   2.768   0.769   4.959
 3551SOL     OW11472   1.902   0.544   4.838
 3551SOL    HW111473   1.987   0.511   4.797
 3551SOL    HW211474   1.915   0.559   4.936
 3552SOL     OW11475   2.051   0.520   5.446
 3552SOL    HW111476   2.110   0.480   5.376
 3552SOL    HW211477   1.993   0.591   5.405
 3553SOL     OW11478   3.231   0.950   5.384
 3553SOL    HW111479   3.270   1.039   5.404
 3553SOL    HW211480   3.241   0.930   5.287
 3554SOL     OW11481   2.677   0.572   4.049
 3554SOL    HW111482   2.684   0.483   4.003
 3554SOL    HW211483   2.583   0.606   4.041
 3555SOL     OW11484   3.519   0.604   4.930
 3555SOL    HW111485   3.481   0.535   4.992
 3555SOL    HW211486   3.601   0.568   4.886
 3556SOL     OW11487   2.114   1.564   5.468
 3556SOL    HW111488   2.084   1.621   5.544
 3556SOL    HW211489   2.107   1.467   5.494
 3557SOL     OW11490   2.533   0.464   4.993
 3557SOL    HW111491   2.499   0.375   4.963
 3557SOL    HW211492   2.559   0.518   4.913
 3558SOL     OW11493   2.792   1.678   5.189
 3558SOL    HW111494   2.768   1.660   5.094
 3558SOL    HW211495   2.822   1.772   5.199
 3559SOL     OW11496   2.335   0.500   3.915
 3559SOL    HW111497   2.396   0.580   3.919
 3559SOL    HW211498   2.240   0.531   3.922
 3560SOL     OW11499   2.021   1.137   5.190
 3560SOL    HW111500   2.043   1.076   5.266
 3560SOL    HW211501   2.031   1.088   5.104
 3561SOL     OW11502   3.209   1.059   4.958
 3561SOL    HW111503   3.233   0.996   4.884
 3561SOL    HW211504   3.119   1.099   4.940
 3562SOL     OW11505   3.164   0.855   4.033
 3562SOL    HW111506   3.078   0.824   4.075
 3562SOL    HW211507   3.160   0.841   3.934
 3563SOL     OW11508   3.621   1.747   4.878
 3563SOL    HW111509   3.682   1.777   4.805
 3563SOL    HW211510   3.583   1.658   4.856
 3564SOL     OW11511   3.114   1.731   4.852
 3564SOL    HW111512   3.198   1.736   4.798
 3564SOL    HW211513   3.091   1.635   4.870
 3565SOL     OW11514   1.945   1.258   4.746
 3565SOL    HW111515   1.940   1.257   4.846
 3565SOL    HW211516   1.862   1.217   4.708
 3566SOL     OW11517   2.550   1.662   5.440
 3566SOL    HW111518   2.494   1.743   5.449
 3566SOL    HW211519   2.602   1.666   5.354
 3567SOL     OW11520   3.588   0.135   4.247
 3567SOL    HW111521   3.661   0.118   4.180
 3567SOL    HW211522   3.557   0.048   4.285
 3568SOL     OW11523   3.250   1.573   4.201
 3568SOL    HW111524   3.317   1.585   4.127
 3568SOL    HW211525   3.210   1.662   4.224
 3569SOL     OW11526   1.992   1.794   5.575
 3569SOL    HW111527   1.951   1.720   5.628
 3569SOL    HW211528   2.056   1.845   5.633
 3570SOL     OW11529   3.142   0.927   4.396
 3570SOL    HW111530   3.202   0.846   4.398
 3570SOL    HW211531   3.182   0.996   4.336
 3571SOL     OW11532   2.692   1.273   5.146
 3571SOL    HW111533   2.687   1.306   5.241
 3571SOL    HW211534   2.606   1.292   5.100
 3572SOL     OW11535   2.534   1.616   3.878
 3572SOL    HW111536   2.543   1.626   3.779
 3572SOL    HW211537   2.494   1.527   3.899
 3573SOL     OW11538   3.512   1.720   5.118
 3573SOL    HW111539   3.565   1.730   5.034
 3573SOL    HW211540   3.485   1.810   5.152
 3574SOL     OW11541   3.703   0.175   4.687
 3574SOL    HW111542   3.742   0.090   4.651
 3574SOL    HW211543   3.605   0.177   4.668
 3575SOL     OW11544   2.125   0.326   4.444
 3575SOL    HW111545   2.046   0.377   4.410
 3575SOL    HW211546   2.116   0.311   4.542
 3576SOL     OW11547   3.056   1.612   3.755
 3576SOL    HW111548   3.062   1.519   3.792
 3576SOL    HW211549   2.997   1.612   3.675
 3577SOL     OW11550   2.684   1.002   5.096
 3577SOL    HW111551   2.724   1.001   5.004
 3577SOL    HW211552   2.694   1.094   5.136
 3578SOL     OW11553   2.778   0.910   4.015
 3578SOL    HW111554   2.841   0.948   3.947
 3578SOL    HW211555   2.818   0.827   4.054
 3579SOL     OW11556   3.366   1.607   3.768
 3579SOL    HW111557   3.274   1.644   3.775
 3579SOL    HW211558   3.404   1.627   3.678
 3580SOL     OW11559   2.234   1.288   5.214
 3580SOL    HW111560   2.221   1.381   5.180
 3580SOL    HW211561   2.150   1.236   5.201
 3581SOL     OW11562   3.476   1.292   5.013
 3581SOL    HW111563   3.536   1.295   5.093
 3581SOL    HW211564   3.401   1.356   5.026
 3582SOL     OW11565   2.901   1.098   4.420
 3582SOL    HW111566   2.831   1.051   4.474
 3582SOL    HW211567   2.960   1.030   4.377
 3583SOL     OW11568   2.876   0.236   4.695
 3583SOL    HW111569   2.868   0.200   4.602
 3583SOL    HW211570   2.874   0.160   4.760
 3584SOL     OW11571   2.452   1.487   4.215
 3584SOL    HW111572   2.494   1.429   4.145
 3584SOL    HW211573   2.408   1.566   4.171
 3585SOL     OW11574   3.571   0.385   5.105
 3585SOL    HW111575   3.644   0.454   5.109
 3585SOL    HW211576   3.599   0.310   5.046
 3586SOL     OW11577   2.117   1.348   4.014
 3586SOL    HW111578   2.021   1.349   3.987
 3586SOL    HW211579   2.129   1.401   4.098
 3587SOL     OW11580   1.967   1.013   5.450
 3587SOL    HW111581   1.890   0.980   5.504
 3587SOL    HW211582   2.052   0.983   5.492
 3588SOL     OW11583   2.534   0.203   5.213
 3588SOL    HW111584   2.624   0.187   5.173
 3588SOL    HW211585   2.542   0.208   5.312
 3589SOL     OW11586   1.937   0.345   3.757
 3589SOL    HW111587   1.845   0.317   3.728
 3589SOL    HW211588   1.968   0.422   3.701
 3590SOL     OW11589   3.302   0.856   5.122
 3590SOL    HW111590   3.245   0.908   5.059
 3590SOL    HW211591   3.398   0.868   5.098
 3591SOL     OW11592   1.934   0.166   4.042
 3591SOL    HW111593   1.917   0.249   3.988
 3591SOL    HW211594   2.024   0.129   4.020
 3592SOL     OW11595   3.045   1.335   3.843
 3592SOL    HW111596   2.946   1.324   3.845
 3592SOL    HW211597   3.079   1.350   3.936
 3593SOL     OW11598   2.475   0.842   5.155
 3593SOL    HW111599   2.531   0.923   5.138
 3593SOL    HW211600   2.534   0.762   5.158
 3594SOL     OW11601   3.355   1.767   4.683
 3594SOL    HW111602   3.388   1.831   4.614
 3594SOL    HW211603   3.421   1.761   4.758
 3595SOL     OW11604   2.578   0.565   5.432
 3595SOL    HW111605   2.597   0.630   5.506
 3595SOL    HW211606   2.638   0.485   5.441
 3596SOL     OW11607   3.312   1.220   5.357
 3596SOL    HW111608   3.303   1.210   5.456
 3596SOL    HW211609   3.408   1.213   5.331
 3597SOL     OW11610   2.252   1.741   5.284
 3597SOL    HW111611   2.161   1.782   5.282
 3597SOL    HW211612   2.245   1.647   5.316
 3598SOL     OW11613   3.536   0.883   4.978
 3598SOL    HW111614   3.509   0.794   4.941
 3598SOL    HW211615   3.537   0.951   4.905
 3599SOL     OW11616   3.087   0.325   4.173
 3599SOL    HW111617   3.152   0.251   4.162
 3599SOL    HW211618   3.107   0.375   4.257
 3600SOL     OW11619   2.456   0.745   4.376
 3600SOL    HW111620   2.506   0.830   4.357
 3600SOL    HW211621   2.368   0.747   4.328
 3601SOL     OW11622   3.639   0.342   5.366
 3601SOL    HW111623   3.622   0.373   5.272
 3601SOL    HW211624   3.555   0.305   5.404
 3602SOL     OW11625   3.592   0.934   5.241
 3602SOL    HW111626   3.630   1.025   5.256
 3602SOL    HW211627   3.584   0.917   5.142
 3603SOL     OW11628   2.721   1.374   3.740
 3603SOL    HW111629   2.675   1.389   3.828
 3603SOL    HW211630   2.765   1.459   3.710
 3604SOL     OW11631   2.523   1.790   4.677
 3604SOL    HW111632   2.477   1.878   4.664
 3604SOL    HW211633   2.622   1.802   4.670
 3605SOL     OW11634   2.721   0.956   4.585
 3605SOL    HW111635   2.775   0.887   4.633
 3605SOL    HW211636   2.689   1.025   4.651
 3606SOL     OW11637   2.945   0.984   3.811
 3606SOL    HW111638   2.922   1.037   3.729
 3606SOL    HW211639   3.026   0.928   3.792
 3607SOL     OW11640   3.723   1.569   4.575
 3607SOL    HW111641   3.652   1.557   4.505
 3607SOL    HW211642   3.724   1.490   4.635
 3608SOL     OW11643   2.083   1.314   5.568
 3608SOL    HW111644   2.018   1.241   5.547
 3608SOL    HW211645   2.087   1.328   5.666
 3609SOL     OW11646   1.941   1.240   4.377
 3609SOL    HW111647   1.940   1.193   4.465
 3609SOL    HW211648   2.023   1.212   4.326
 3610SOL     OW11649   2.534   1.391   5.348
 3610SOL    HW111650   2.456   1.341   5.386
 3610SOL    HW211651   2.531   1.486   5.379
 3611SOL     OW11652   3.686   0.192   4.951
 3611SOL    HW111653   3.682   0.102   4.995
 3611SOL    HW211654   3.689   0.181   4.852
 3612SOL     OW11655   2.290   0.424   4.244
 3612SOL    HW111656   2.320   0.352   4.182
 3612SOL    HW211657   2.251   0.384   4.327
 3613SOL     OW11658   3.567   1.487   4.828
 3613SOL    HW111659   3.474   1.462   4.801
 3613SOL    HW211660   3.593   1.437   4.910
 3614SOL     OW11661   2.179   0.547   5.004
 3614SOL    HW111662   2.217   0.488   5.076
 3614SOL    HW211663   2.219   0.521   4.916
 3615SOL     OW11664   2.674   1.586   4.411
 3615SOL    HW111665   2.706   1.596   4.317
 3615SOL    HW211666   2.595   1.524   4.413
 3616SOL     OW11667   3.286   0.214   4.836
 3616SOL    HW111668   3.338   0.149   4.891
 3616SOL    HW211669   3.237   0.277   4.897
 3617SOL     OW11670   2.863   0.034   4.878
 3617SOL    HW111671   2.800  -0.038   4.847
 3617SOL    HW211672   2.956  -0.002   4.878
 3618SOL     OW11673   2.632   1.330   4.025
 3618SOL    HW111674   2.586   1.243   4.042
 3618SOL    HW211675   2.723   1.327   4.066
 3619SOL     OW11676   2.480   1.567   5.008
 3619SOL    HW111677   2.475   1.649   5.065
 3619SOL    HW211678   2.569   1.564   4.963
 3620SOL     OW11679   3.214   0.052   3.892
 3620SOL    HW111680   3.249   0.011   3.808
 3620SOL    HW211681   3.124   0.014   3.912
 3621SOL     OW11682   3.162   0.453   4.415
 3621SOL    HW111683   3.103   0.533   4.419
 3621SOL    HW211684   3.177   0.418   4.508
 3622SOL     OW11685   3.455   0.221   4.606
 3622SOL    HW111686   3.371   0.220   4.660
 3622SOL    HW211687   3.457   0.304   4.550
 3623SOL     OW11688   1.901   1.077   4.024
 3623SOL    HW111689   2.000   1.066   4.015
 3623SOL    HW211690   1.861   0.991   4.056
 3624SOL     OW11691   2.737   1.646   4.061
 3624SOL    HW111692   2.660   1.611   4.007
 3624SOL    HW211693   2.705   1.717   4.123
 3625SOL     OW11694   2.092   0.628   5.699
 3625SOL    HW111695   1.999   0.626   5.736
 3625SOL    HW211696   2.093   0.589   5.607
 3626SOL     OW11697   2.087   0.275   6.582
 3626SOL    HW111698   2.122   0.258   6.674
 3626SOL    HW211699   1.999   0.230   6.570
 3627SOL     OW11700   1.881   0.368   6.233
 3627SOL    HW111701   1.799   0.411   6.272
 3627SOL    HW211702   1.853   0.295   6.170
 3628SOL     OW11703   2.431   1.275   6.751
 3628SOL    HW111704   2.338   1.268   6.714
 3628SOL    HW211705   2.442   1.364   6.795
 3629SOL     OW11706   3.417   1.511   6.289
 3629SOL    HW111707   3.360   1.495   6.370
 3629SOL    HW211708   3.358   1.521   6.209
 3630SOL     OW11709   2.997   0.703   6.303
 3630SOL    HW111710   3.054   0.781   6.278
 3630SOL    HW211711   2.937   0.729   6.379
 3631SOL     OW11712   3.617   0.607   5.817
 3631SOL    HW111713   3.605   0.594   5.718
 3631SOL    HW211714   3.587   0.526   5.866
 3632SOL     OW11715   2.630   1.144   6.609
 3632SOL    HW111716   2.552   1.161   6.669
 3632SOL    HW211717   2.664   1.231   6.573
 3633SOL     OW11718   2.547   1.012   6.251
 3633SOL    HW111719   2.616   0.996   6.321
 3633SOL    HW211720   2.474   1.069   6.289
 3634SOL     OW11721   2.197   1.435   6.647
 3634SOL    HW111722   2.119   1.404   6.594
 3634SOL    HW211723   2.255   1.493   6.590
 3635SOL     OW11724   3.465   0.447   6.323
 3635SOL    HW111725   3.391   0.493   6.273
 3635SOL    HW211726   3.516   0.515   6.376
 3636SOL     OW11727   2.093   1.713   6.069
 3636SOL    HW111728   2.127   1.790   6.123
 3636SOL    HW211729   2.137   1.713   5.979
 3637SOL     OW11730   2.092   1.434   6.124
 3637SOL    HW111731   2.066   1.530   6.124
 3637SOL    HW211732   2.021   1.380   6.169
 3638SOL     OW11733   2.102   1.091   6.472
 3638SOL    HW111734   2.116   1.007   6.524
 3638SOL    HW211735   2.047   1.155   6.527
 3639SOL     OW11736   2.482   1.786   7.025
 3639SOL    HW111737   2.390   1.769   7.060
 3639SOL    HW211738   2.510   1.878   7.051
 3640SOL     OW11739   2.468   0.964   5.709
 3640SOL    HW111740   2.475   1.048   5.655
 3640SOL    HW211741   2.514   0.977   5.797
 3641SOL     OW11742   1.984   0.643   6.149
 3641SOL    HW111743   1.939   0.555   6.166
 3641SOL    HW211744   1.983   0.697   6.233
 3642SOL     OW11745   3.704   1.767   5.945
 3642SOL    HW111746   3.758   1.738   6.025
 3642SOL    HW211747   3.734   1.857   5.916
 3643SOL     OW11748   1.889   1.596   5.703
 3643SOL    HW111749   1.870   1.500   5.724
 3643SOL    HW211750   1.856   1.654   5.778
 3644SOL     OW11751   3.551   0.922   6.198
 3644SOL    HW111752   3.646   0.893   6.206
 3644SOL    HW211753   3.543   0.987   6.123
 3645SOL     OW11754   3.503   1.108   6.018
 3645SOL    HW111755   3.589   1.110   5.966
 3645SOL    HW211756   3.517   1.155   6.106
 3646SOL     OW11757   2.475   1.365   6.312
 3646SOL    HW111758   2.426   1.278   6.321
 3646SOL    HW211759   2.452   1.408   6.225
 3647SOL     OW11760   2.671   0.004   6.088
 3647SOL    HW111761   2.711   0.095   6.079
 3647SOL    HW211762   2.571   0.012   6.094
 3648SOL     OW11763   2.059   0.976   6.850
 3648SOL    HW111764   2.148   0.931   6.836
 3648SOL    HW211765   1.986   0.911   6.831
 3649SOL     OW11766   3.387   0.999   5.776
 3649SOL    HW111767   3.324   0.923   5.789
 3649SOL    HW211768   3.435   1.017   5.862
 3650SOL     OW11769   3.328   1.417   6.539
 3650SOL    HW111770   3.269   1.423   6.619
 3650SOL    HW211771   3.313   1.329   6.493
 3651SOL     OW11772   3.529   1.714   6.158
 3651SOL    HW111773   3.488   1.691   6.070
 3651SOL    HW211774   3.511   1.640   6.223
 3652SOL     OW11775   2.460   0.729   5.856
 3652SOL    HW111776   2.484   0.798   5.788
 3652SOL    HW211777   2.382   0.762   5.910
 3653SOL     OW11778   3.143   0.345   6.530
 3653SOL    HW111779   3.057   0.295   6.517
 3653SOL    HW211780   3.205   0.291   6.586
 3654SOL     OW11781   3.438   1.662   5.893
 3654SOL    HW111782   3.527   1.708   5.896
 3654SOL    HW211783   3.417   1.638   5.798
 3655SOL     OW11784   2.669   0.605   7.051
 3655SOL    HW111785   2.622   0.602   7.140
 3655SOL    HW211786   2.618   0.550   6.985
 3656SOL     OW11787   2.853   0.410   6.828
 3656SOL    HW111788   2.776   0.444   6.882
 3656SOL    HW211789   2.819   0.359   6.749
 3657SOL     OW11790   2.903   0.701   6.015
 3657SOL    HW111791   2.929   0.697   6.111
 3657SOL    HW211792   2.818   0.650   6.001
 3658SOL     OW11793   1.938   0.811   6.375
 3658SOL    HW111794   2.037   0.799   6.384
 3658SOL    HW211795   1.914   0.906   6.396
 3659SOL     OW11796   1.992   1.821   7.157
 3659SOL    HW111797   1.982   1.806   7.256
 3659SOL    HW211798   1.906   1.857   7.121
 3660SOL     OW11799   2.727   0.348   5.781
 3660SOL    HW111800   2.786   0.411   5.732
 3660SOL    HW211801   2.746   0.254   5.752
 3661SOL     OW11802   3.224   1.144   6.131
 3661SOL    HW111803   3.307   1.115   6.083
 3661SOL    HW211804   3.175   1.211   6.075
 3662SOL     OW11805   2.412   0.196   6.471
 3662SOL    HW111806   2.407   0.191   6.571
 3662SOL    HW211807   2.414   0.292   6.442
 3663SOL     OW11808   2.870   1.456   6.063
 3663SOL    HW111809   2.824   1.528   6.011
 3663SOL    HW211810   2.866   1.476   6.161
 3664SOL     OW11811   2.213   1.801   6.439
 3664SOL    HW111812   2.263   1.715   6.445
 3664SOL    HW211813   2.278   1.878   6.436
 3665SOL     OW11814   3.657   1.066   6.459
 3665SOL    HW111815   3.595   1.051   6.383
 3665SOL    HW211816   3.605   1.077   6.544
 3666SOL     OW11817   2.183   0.943   5.828
 3666SOL    HW111818   2.265   0.982   5.786
 3666SOL    HW211819   2.156   0.861   5.779
 3667SOL     OW11820   3.320   0.735   6.314
 3667SOL    HW111821   3.315   0.670   6.389
 3667SOL    HW211822   3.400   0.794   6.327
 3668SOL     OW11823   2.973   1.776   5.823
 3668SOL    HW111824   2.913   1.714   5.873
 3668SOL    HW211825   3.004   1.732   5.738
 3669SOL     OW11826   3.494   1.377   5.667
 3669SOL    HW111827   3.462   1.471   5.657
 3669SOL    HW211828   3.418   1.314   5.655
 3670SOL     OW11829   2.326   1.743   5.909
 3670SOL    HW111830   2.359   1.782   5.995
 3670SOL    HW211831   2.402   1.736   5.844
 3671SOL     OW11832   3.262   0.107   6.012
 3671SOL    HW111833   3.238   0.070   5.922
 3671SOL    HW211834   3.361   0.123   6.016
 3672SOL     OW11835   2.111   1.785   6.827
 3672SOL    HW111836   2.168   1.720   6.877
 3672SOL    HW211837   2.095   1.752   6.734
 3673SOL     OW11838   2.802   1.698   6.490
 3673SOL    HW111839   2.882   1.641   6.511
 3673SOL    HW211840   2.753   1.658   6.413
 3674SOL     OW11841   2.244   0.700   6.066
 3674SOL    HW111842   2.289   0.610   6.063
 3674SOL    HW211843   2.150   0.689   6.099
 3675SOL     OW11844   2.476   0.122   5.703
 3675SOL    HW111845   2.574   0.100   5.710
 3675SOL    HW211846   2.445   0.105   5.610
 3676SOL     OW11847   2.750   1.514   6.781
 3676SOL    HW111848   2.727   1.489   6.687
 3676SOL    HW211849   2.811   1.445   6.820
 3677SOL     OW11850   2.665   1.402   6.510
 3677SOL    HW111851   2.755   1.416   6.468
 3677SOL    HW211852   2.594   1.404   6.439
 3678SOL     OW11853   2.784   0.503   6.485
 3678SOL    HW111854   2.759   0.494   6.389
 3678SOL    HW211855   2.832   0.421   6.516
 3679SOL     OW11856   2.401   0.064   6.098
 3679SOL    HW111857   2.320   0.065   6.156
 3679SOL    HW211858   2.404   0.147   6.043
 3680SOL     OW11859   3.296   1.188   5.627
 3680SOL    HW111860   3.328   1.112   5.684
 3680SOL    HW211861   3.204   1.215   5.657
 3681SOL     OW11862   2.159   0.035   5.757
 3681SOL    HW111863   2.208   0.119   5.736
 3681SOL    HW211864   2.221  -0.030   5.802
 3682SOL     OW11865   2.797   0.236   6.066
 3682SOL    HW111866   2.749   0.277   5.988
 3682SOL    HW211867   2.896   0.234   6.047
 3683SOL     OW11868   3.089   1.570   6.379
 3683SOL    HW111869   3.110   1.644   6.314
 3683SOL    HW211870   3.157   1.570   6.452
 3684SOL     OW11871   2.321   1.152   6.327
 3684SOL    HW111872   2.250   1.125   6.392
 3684SOL    HW211873   2.295   1.124   6.234
 3685SOL     OW11874   3.133   1.797   6.177
 3685SOL    HW111875   3.177   1.861   6.113
 3685SOL    HW211876   3.083   1.849   6.247
 3686SOL     OW11877   2.894   0.549   5.602
 3686SOL    HW111878   2.853   0.631   5.563
 3686SOL    HW211879   2.958   0.575   5.675
 3687SOL     OW11880   2.423   0.222   6.733
 3687SOL    HW111881   2.461   0.138   6.770
 3687SOL    HW211882   2.335   0.241   6.777
 3688SOL     OW11883   2.728   0.454   6.228
 3688SOL    HW111884   2.696   0.526   6.166
 3688SOL    HW211885   2.752   0.373   6.175
 3689SOL     OW11886   2.879   0.039   6.339
 3689SOL    HW111887   2.807   0.044   6.270
 3689SOL    HW211888   2.855  -0.030   6.408
 3690SOL     OW11889   3.291   1.173   6.453
 3690SOL    HW111890   3.236   1.089   6.446
 3690SOL    HW211891   3.317   1.202   6.361
 3691SOL     OW11892   3.328   0.590   6.578
 3691SOL    HW111893   3.298   0.495   6.585
 3691SOL    HW211894   3.401   0.606   6.644
 3692SOL     OW11895   3.719   0.833   5.963
 3692SOL    HW111896   3.761   0.769   6.027
 3692SOL    HW211897   3.681   0.782   5.885
 3693SOL     OW11898   2.350   1.385   5.760
 3693SOL    HW111899   2.263   1.370   5.807
 3693SOL    HW211900   2.333   1.411   5.665
 3694SOL     OW11901   3.526   1.280   6.243
 3694SOL    HW111902   3.625   1.288   6.257
 3694SOL    HW211903   3.481   1.364   6.274
 3695SOL     OW11904   3.252   0.575   5.664
 3695SOL    HW111905   3.198   0.554   5.745
 3695SOL    HW211906   3.343   0.534   5.673
 3696SOL     OW11907   2.389   0.256   5.914
 3696SOL    HW111908   2.416   0.197   5.839
 3696SOL    HW211909   2.389   0.351   5.883
 3697SOL     OW11910   3.616   1.223   7.174
 3697SOL    HW111911   3.707   1.184   7.161
 3697SOL    HW211912   3.624   1.319   7.198
 3698SOL     OW11913   2.973   1.195   6.686
 3698SOL    HW111914   2.933   1.239   6.767
 3698SOL    HW211915   2.932   1.232   6.603
 3699SOL     OW11916   3.500   1.099   6.665
 3699SOL    HW111917   3.505   1.180   6.724
 3699SOL    HW211918   3.414   1.101   6.614
 3700SOL     OW11919   2.567   1.050   5.954
 3700SOL    HW111920   2.553   1.057   6.053
 3700SOL    HW211921   2.651   0.999   5.936
 3701SOL     OW11922   2.272   0.813   6.837
 3701SOL    HW111923   2.358   0.825   6.887
 3701SOL    HW211924   2.230   0.726   6.864
 3702SOL     OW11925   3.136   0.386   6.848
 3702SOL    HW111926   3.157   0.460   6.912
 3702SOL    HW211927   3.047   0.403   6.805
 3703SOL     OW11928   1.926   1.564   6.917
 3703SOL    HW111929   1.880   1.646   6.883
 3703SOL    HW211930   2.024   1.583   6.926
 3704SOL     OW11931   2.229   1.100   6.087
 3704SOL    HW111932   2.222   1.183   6.031
 3704SOL    HW211933   2.233   1.020   6.027
 3705SOL     OW11934   2.428   0.537   6.451
 3705SOL    HW111935   2.440   0.603   6.377
 3705SOL    HW211936   2.474   0.571   6.534
 3706SOL     OW11937   3.114   1.348   5.974
 3706SOL    HW111938   3.164   1.425   6.014
 3706SOL    HW211939   3.019   1.350   6.006
 3707SOL     OW11940   3.134   1.445   6.728
 3707SOL    HW111941   3.181   1.458   6.815
 3707SOL    HW211942   3.068   1.371   6.737
 3708SOL     OW11943   3.444   0.639   6.058
 3708SOL    HW111944   3.413   0.700   6.131
 3708SOL    HW211945   3.494   0.691   5.989
 3709SOL     OW11946   2.216   1.510   6.915
 3709SOL    HW111947   2.195   1.466   6.828
 3709SOL    HW211948   2.313   1.536   6.918
 3710SOL     OW11949   2.435   0.870   6.615
 3710SOL    HW111950   2.479   0.959   6.606
 3710SOL    HW211951   2.372   0.870   6.692
 3711SOL     OW11952   3.222   0.862   6.631
 3711SOL    HW111953   3.147   0.862   6.565
 3711SOL    HW211954   3.259   0.770   6.640
 3712SOL     OW11955   3.071   0.525   5.861
 3712SOL    HW111956   3.084   0.441   5.915
 3712SOL    HW211957   3.042   0.599   5.921
 3713SOL     OW11958   2.169   0.213   6.817
 3713SOL    HW111959   2.146   0.250   6.907
 3713SOL    HW211960   2.139   0.118   6.811
 3714SOL     OW11961   1.899   1.310   6.868
 3714SOL    HW111962   1.952   1.261   6.936
 3714SOL    HW211963   1.921   1.408   6.873
 3715SOL     OW11964   2.594   0.634   6.650
 3715SOL    HW111965   2.653   0.608   6.574
 3715SOL    HW211966   2.566   0.730   6.639
 3716SOL     OW11967   2.169   0.063   6.204
 3716SOL    HW111968   2.158   0.157   6.237
 3716SOL    HW211969   2.164   0.000   6.281
 3717SOL     OW11970   3.484   0.367   5.960
 3717SOL    HW111971   3.486   0.291   6.024
 3717SOL    HW211972   3.436   0.444   6.000
 3718SOL     OW11973   2.885   0.766   6.552
 3718SOL    HW111974   2.900   0.787   6.648
 3718SOL    HW211975   2.855   0.671   6.543
 3719SOL     OW11976   3.402   0.274   5.711
 3719SOL    HW111977   3.341   0.199   5.734
 3719SOL    HW211978   3.424   0.326   5.794
 3720SOL     OW11979   3.165   0.838   5.628
 3720SOL    HW111980   3.199   0.745   5.643
 3720SOL    HW211981   3.183   0.865   5.533
 3721SOL     OW11982   2.930   1.333   6.435
 3721SOL    HW111983   2.937   1.249   6.380
 3721SOL    HW211984   2.992   1.402   6.399
 3722SOL     OW11985   2.181   0.810   6.535
 3722SOL    HW111986   2.274   0.846   6.540
 3722SOL    HW211987   2.175   0.725   6.587
 3723SOL     OW11988   2.201   0.509   6.592
 3723SOL    HW111989   2.149   0.426   6.575
 3723SOL    HW211990   2.278   0.514   6.528
 3724SOL     OW11991   3.022   0.207   7.063
 3724SOL    HW111992   3.022   0.271   7.140
 3724SOL    HW211993   3.050   0.255   6.980
 3725SOL     OW11994   1.870   1.326   5.786
 3725SOL    HW111995   1.777   1.347   5.755
 3725SOL    HW211996   1.880   1.227   5.799
 3726SOL     OW11997   1.950   1.801   6.513
 3726SOL    HW111998   1.908   1.715   6.486
 3726SOL    HW211999   2.044   1.804   6.479
 3727SOL     OW12000   2.366   1.568   6.496
 3727SOL    HW112001   2.432   1.642   6.505
 3727SOL    HW212002   2.410   1.489   6.454
 3728SOL     OW12003   2.864   0.796   6.824
 3728SOL    HW112004   2.905   0.764   6.910
 3728SOL    HW212005   2.768   0.769   6.821
 3729SOL     OW12006   1.902   0.544   6.700
 3729SOL    HW112007   1.987   0.511   6.659
 3729SOL    HW212008   1.915   0.559   6.798
 3730SOL     OW12009   2.677   0.572   5.911
 3730SOL    HW112010   2.684   0.483   5.865
 3730SOL    HW212011   2.583   0.606   5.903
 3731SOL     OW12012   3.519   0.604   6.792
 3731SOL    HW112013   3.481   0.535   6.854
 3731SOL    HW212014   3.601   0.568   6.748
 3732SOL     OW12015   2.533   0.464   6.855
 3732SOL    HW112016   2.499   0.375   6.825
 3732SOL    HW212017   2.559   0.518   6.775
 3733SOL     OW12018   2.792   1.678   7.051
 3733SOL    HW112019   2.768   1.660   6.956
 3733SOL    HW212020   2.822   1.772   7.061
 3734SOL     OW12021   2.335   0.500   5.777
 3734SOL    HW112022   2.396   0.580   5.781
 3734SOL    HW212023   2.240   0.531   5.784
 3735SOL     OW12024   2.021   1.137   7.052
 3735SOL    HW112025   2.043   1.076   7.128
 3735SOL    HW212026   2.031   1.088   6.966
 3736SOL     OW12027   3.209   1.059   6.820
 3736SOL    HW112028   3.233   0.996   6.746
 3736SOL    HW212029   3.119   1.099   6.802
 3737SOL     OW12030   3.164   0.855   5.895
 3737SOL    HW112031   3.078   0.824   5.937
 3737SOL    HW212032   3.160   0.841   5.796
 3738SOL     OW12033   3.621   1.747   6.740
 3738SOL    HW112034   3.682   1.777   6.667
 3738SOL    HW212035   3.583   1.658   6.718
 3739SOL     OW12036   3.114   1.731   6.714
 3739SOL    HW112037   3.198   1.736   6.660
 3739SOL    HW212038   3.091   1.635   6.732
 3740SOL     OW12039   1.945   1.258   6.608
 3740SOL    HW112040   1.940   1.257   6.708
 3740SOL    HW212041   1.862   1.217   6.570
 3741SOL     OW12042   3.588   0.135   6.109
 3741SOL    HW112043   3.661   0.118   6.042
 3741SOL    HW212044   3.557   0.048   6.147
 3742SOL     OW12045   3.250   1.573   6.063
 3742SOL    HW112046   3.317   1.585   5.989
 3742SOL    HW212047   3.210   1.662   6.086
 3743SOL     OW12048   3.142   0.927   6.258
 3743SOL    HW112049   3.202   0.846   6.260
 3743SOL    HW212050   3.182   0.996   6.198
 3744SOL     OW12051   2.534   1.616   5.740
 3744SOL    HW112052   2.543   1.626   5.641
 3744SOL    HW212053   2.494   1.527   5.761
 3745SOL     OW12054   3.703   0.175   6.549
 3745SOL    HW112055   3.742   0.090   6.513
 3745SOL    HW212056   3.605   0.177   6.530
 3746SOL     OW12057   2.125   0.326   6.306
 3746SOL    HW112058   2.046   0.377   6.272
 3746SOL    HW212059   2.116   0.311   6.404
 3747SOL     OW12060   3.056   1.612   5.617
 3747SOL    HW112061   3.062   1.519   5.654
 3747SOL    HW212062   2.997   1.612   5.537
 3748SOL     OW12063   2.684   1.002   6.958
 3748SOL    HW112064   2.724   1.001   6.866
 3748SOL    HW212065   2.694   1.094   6.998
 3749SOL     OW12066   2.778   0.910   5.877
 3749SOL    HW112067   2.841   0.948   5.809
 3749SOL    HW212068   2.818   0.827   5.916
 3750SOL     OW12069   3.366   1.607   5.630
 3750SOL    HW112070   3.274   1.644   5.637
 3750SOL    HW212071   3.404   1.627   5.540
 3751SOL     OW12072   3.476   1.292   6.875
 3751SOL    HW112073   3.536   1.295   6.955
 3751SOL    HW212074   3.401   1.356   6.888
 3752SOL     OW12075   2.901   1.098   6.282
 3752SOL    HW112076   2.831   1.051   6.336
 3752SOL    HW212077   2.960   1.030   6.239
 3753SOL     OW12078   2.876   0.236   6.557
 3753SOL    HW112079   2.868   0.200   6.464
 3753SOL    HW212080   2.874   0.160   6.622
 3754SOL     OW12081   2.452   1.487   6.077
 3754SOL    HW112082   2.494   1.429   6.007
 3754SOL    HW212083   2.408   1.566   6.033
 3755SOL     OW12084   3.571   0.385   6.967
 3755SOL    HW112085   3.644   0.454   6.971
 3755SOL    HW212086   3.599   0.310   6.908
 3756SOL     OW12087   2.117   1.348   5.876
 3756SOL    HW112088   2.021   1.349   5.849
 3756SOL    HW212089   2.129   1.401   5.960
 3757SOL     OW12090   1.937   0.345   5.619
 3757SOL    HW112091   1.845   0.317   5.590
 3757SOL    HW212092   1.968   0.422   5.563
 3758SOL     OW12093   1.934   0.166   5.904
 3758SOL    HW112094   1.917   0.249   5.850
 3758SOL    HW212095   2.024   0.129   5.882
 3759SOL     OW12096   3.045   1.335   5.705
 3759SOL    HW112097   2.946   1.324   5.707
 3759SOL    HW212098   3.079   1.350   5.798
 3760SOL     OW12099   3.355   1.767   6.545
 3760SOL    HW112100   3.388   1.831   6.476
 3760SOL    HW212101   3.421   1.761   6.620
 3761SOL     OW12102   3.312   1.220   7.219
 3761SOL    HW112103   3.303   1.210   7.318
 3761SOL    HW212104   3.408   1.213   7.193
 3762SOL     OW12105   2.252   1.741   7.146
 3762SOL    HW112106   2.161   1.782   7.144
 3762SOL    HW212107   2.245   1.647   7.178
 3763SOL     OW12108   3.536   0.883   6.840
 3763SOL    HW112109   3.509   0.794   6.803
 3763SOL    HW212110   3.537   0.951   6.767
 3764SOL     OW12111   3.087   0.325   6.035
 3764SOL    HW112112   3.152   0.251   6.024
 3764SOL    HW212113   3.107   0.375   6.119
 3765SOL     OW12114   2.456   0.745   6.238
 3765SOL    HW112115   2.506   0.830   6.219
 3765SOL    HW212116   2.368   0.747   6.190
 3766SOL     OW12117   3.592   0.934   7.103
 3766SOL    HW112118   3.630   1.025   7.118
 3766SOL    HW212119   3.584   0.917   7.004
 3767SOL     OW12120   2.721   1.374   5.602
 3767SOL    HW112121   2.675   1.389   5.690
 3767SOL    HW212122   2.765   1.459   5.572
 3768SOL     OW12123   2.523   1.790   6.539
 3768SOL    HW112124   2.477   1.878   6.526
 3768SOL    HW212125   2.622   1.802   6.532
 3769SOL     OW12126   2.721   0.956   6.447
 3769SOL    HW112127   2.775   0.887   6.495
 3769SOL    HW212128   2.689   1.025   6.513
 3770SOL     OW12129   2.945   0.984   5.673
 3770SOL    HW112130   2.922   1.037   5.591
 3770SOL    HW212131   3.026   0.928   5.654
 3771SOL     OW12132   3.723   1.569   6.437
 3771SOL    HW112133   3.652   1.557   6.367
 3771SOL    HW212134   3.724   1.490   6.497
 3772SOL     OW12135   1.941   1.240   6.239
 3772SOL    HW112136   1.940   1.193   6.327
 3772SOL    HW212137   2.023   1.212   6.188
 3773SOL     OW12138   3.686   0.192   6.813
 3773SOL    HW112139   3.682   0.102   6.857
 3773SOL    HW212140   3.689   0.181   6.714
 3774SOL     OW12141   2.290   0.424   6.106
 3774SOL    HW112142   2.320   0.352   6.044
 3774SOL    HW212143   2.251   0.384   6.189
 3775SOL     OW12144   3.567   1.487   6.690
 3775SOL    HW112145   3.474   1.462   6.663
 3775SOL    HW212146   3.593   1.437   6.772
 3776SOL     OW12147   2.179   0.547   6.866
 3776SOL    HW112148   2.217   0.488   6.938
 3776SOL    HW212149   2.219   0.521   6.778
 3777SOL     OW12150   2.674   1.586   6.273
 3777SOL    HW112151   2.706   1.596   6.179
 3777SOL    HW212152   2.595   1.524   6.275
 3778SOL     OW12153   3.286   0.214   6.698
 3778SOL    HW112154   3.338   0.149   6.753
 3778SOL    HW212155   3.237   0.277   6.759
 3779SOL     OW12156   2.863   0.034   6.740
 3779SOL    HW112157   2.800  -0.038   6.709
 3779SOL    HW212158   2.956  -0.002   6.740
 3780SOL     OW12159   2.632   1.330   5.887
 3780SOL    HW112160   2.586   1.243   5.904
 3780SOL    HW212161   2.723   1.327   5.928
 3781SOL     OW12162   2.480   1.567   6.870
 3781SOL    HW112163   2.475   1.649   6.927
 3781SOL    HW212164   2.569   1.564   6.825
 3782SOL     OW12165   3.214   0.052   5.754
 3782SOL    HW112166   3.249   0.011   5.670
 3782SOL    HW212167   3.124   0.014   5.774
 3783SOL     OW12168   3.162   0.453   6.277
 3783SOL    HW112169   3.103   0.533   6.281
 3783SOL    HW212170   3.177   0.418   6.370
 3784SOL     OW12171   3.455   0.221   6.468
 3784SOL    HW112172   3.371   0.220   6.522
 3784SOL    HW212173   3.457   0.304   6.412
 3785SOL     OW12174   1.901   1.077   5.886
 3785SOL    HW112175   2.000   1.066   5.877
 3785SOL    HW212176   1.861   0.991   5.918
 3786SOL     OW12177   2.737   1.646   5.923
 3786SOL    HW112178   2.660   1.611   5.869
 3786SOL    HW212179   2.705   1.717   5.985
 3787SOL     OW12180   2.092   2.490   0.113
 3787SOL    HW112181   1.999   2.488   0.150
 3787SOL    HW212182   2.093   2.451   0.021
 3788SOL     OW12183   2.087   2.137   0.996
 3788SOL    HW112184   2.122   2.120   1.088
 3788SOL    HW212185   1.999   2.092   0.984
 3789SOL     OW12186   1.881   2.230   0.647
 3789SOL    HW112187   1.799   2.273   0.686
 3789SOL    HW212188   1.853   2.157   0.584
 3790SOL     OW12189   2.431   3.137   1.165
 3790SOL    HW112190   2.338   3.130   1.128
 3790SOL    HW212191   2.442   3.226   1.209
 3791SOL     OW12192   3.417   3.373   0.703
 3791SOL    HW112193   3.360   3.357   0.784
 3791SOL    HW212194   3.358   3.383   0.623
 3792SOL     OW12195   2.997   2.565   0.717
 3792SOL    HW112196   3.054   2.643   0.692
 3792SOL    HW212197   2.937   2.591   0.793
 3793SOL     OW12198   3.617   2.469   0.231
 3793SOL    HW112199   3.605   2.456   0.132
 3793SOL    HW212200   3.587   2.388   0.280
 3794SOL     OW12201   2.630   3.006   1.023
 3794SOL    HW112202   2.552   3.023   1.083
 3794SOL    HW212203   2.664   3.093   0.987
 3795SOL     OW12204   2.712   2.660   1.823
 3795SOL    HW112205   2.708   2.736   1.888
 3795SOL    HW212206   2.734   2.696   1.732
 3796SOL     OW12207   2.547   2.874   0.665
 3796SOL    HW112208   2.616   2.858   0.735
 3796SOL    HW212209   2.474   2.931   0.703
 3797SOL     OW12210   2.548   3.023   1.803
 3797SOL    HW112211   2.608   3.102   1.817
 3797SOL    HW212212   2.462   3.054   1.762
 3798SOL     OW12213   2.197   3.297   1.061
 3798SOL    HW112214   2.119   3.266   1.008
 3798SOL    HW212215   2.255   3.355   1.004
 3799SOL     OW12216   3.322   3.367   1.339
 3799SOL    HW112217   3.346   3.461   1.365
 3799SOL    HW212218   3.306   3.313   1.421
 3800SOL     OW12219   2.300   2.254   1.499
 3800SOL    HW112220   2.382   2.198   1.508
 3800SOL    HW212221   2.219   2.196   1.503
 3801SOL     OW12222   3.465   2.309   0.737
 3801SOL    HW112223   3.391   2.355   0.687
 3801SOL    HW212224   3.516   2.377   0.790
 3802SOL     OW12225   2.093   3.575   0.483
 3802SOL    HW112226   2.127   3.652   0.537
 3802SOL    HW212227   2.137   3.575   0.393
 3803SOL     OW12228   2.989   3.203   1.690
 3803SOL    HW112229   3.036   3.203   1.778
 3803SOL    HW212230   2.941   3.116   1.679
 3804SOL     OW12231   2.092   3.296   0.538
 3804SOL    HW112232   2.066   3.392   0.538
 3804SOL    HW212233   2.021   3.242   0.583
 3805SOL     OW12234   2.102   2.953   0.886
 3805SOL    HW112235   2.116   2.869   0.938
 3805SOL    HW212236   2.047   3.017   0.941
 3806SOL     OW12237   2.482   3.648   1.439
 3806SOL    HW112238   2.390   3.631   1.474
 3806SOL    HW212239   2.510   3.740   1.465
 3807SOL     OW12240   2.468   2.826   0.123
 3807SOL    HW112241   2.475   2.910   0.069
 3807SOL    HW212242   2.514   2.839   0.211
 3808SOL     OW12243   3.456   1.976   1.480
 3808SOL    HW112244   3.438   2.043   1.408
 3808SOL    HW212245   3.453   2.022   1.569
 3809SOL     OW12246   1.984   2.505   0.563
 3809SOL    HW112247   1.939   2.417   0.580
 3809SOL    HW212248   1.983   2.559   0.647
 3810SOL     OW12249   3.704   3.629   0.359
 3810SOL    HW112250   3.758   3.600   0.439
 3810SOL    HW212251   3.734   3.719   0.330
 3811SOL     OW12252   3.551   2.784   0.612
 3811SOL    HW112253   3.646   2.755   0.620
 3811SOL    HW212254   3.543   2.849   0.537
 3812SOL     OW12255   3.503   2.970   0.432
 3812SOL    HW112256   3.589   2.972   0.380
 3812SOL    HW212257   3.517   3.017   0.520
 3813SOL     OW12258   1.975   2.599   1.597
 3813SOL    HW112259   2.063   2.586   1.642
 3813SOL    HW212260   1.962   2.696   1.575
 3814SOL     OW12261   2.475   3.227   0.726
 3814SOL    HW112262   2.426   3.140   0.735
 3814SOL    HW212263   2.452   3.270   0.639
 3815SOL     OW12264   3.155   3.090   1.423
 3815SOL    HW112265   3.192   3.017   1.365
 3815SOL    HW212266   3.207   3.095   1.508
 3816SOL     OW12267   2.671   1.866   0.502
 3816SOL    HW112268   2.711   1.957   0.493
 3816SOL    HW212269   2.571   1.874   0.508
 3817SOL     OW12270   2.059   2.838   1.264
 3817SOL    HW112271   2.148   2.793   1.250
 3817SOL    HW212272   1.986   2.773   1.245
 3818SOL     OW12273   3.387   2.861   0.190
 3818SOL    HW112274   3.324   2.785   0.203
 3818SOL    HW212275   3.435   2.879   0.276
 3819SOL     OW12276   3.049   3.654   1.616
 3819SOL    HW112277   3.073   3.714   1.540
 3819SOL    HW212278   3.056   3.559   1.586
 3820SOL     OW12279   2.179   2.113   1.801
 3820SOL    HW112280   2.250   2.184   1.807
 3820SOL    HW212281   2.091   2.152   1.829
 3821SOL     OW12282   3.328   3.279   0.953
 3821SOL    HW112283   3.269   3.285   1.033
 3821SOL    HW212284   3.313   3.191   0.907
 3822SOL     OW12285   3.529   3.576   0.572
 3822SOL    HW112286   3.488   3.553   0.484
 3822SOL    HW212287   3.511   3.502   0.637
 3823SOL     OW12288   2.460   2.591   0.270
 3823SOL    HW112289   2.484   2.660   0.202
 3823SOL    HW212290   2.382   2.624   0.324
 3824SOL     OW12291   3.143   2.207   0.944
 3824SOL    HW112292   3.057   2.157   0.931
 3824SOL    HW212293   3.205   2.153   1.000
 3825SOL     OW12294   3.438   3.524   0.307
 3825SOL    HW112295   3.527   3.570   0.310
 3825SOL    HW212296   3.417   3.500   0.212
 3826SOL     OW12297   2.669   2.467   1.465
 3826SOL    HW112298   2.622   2.464   1.554
 3826SOL    HW212299   2.618   2.412   1.399
 3827SOL     OW12300   3.256   2.331   1.674
 3827SOL    HW112301   3.236   2.374   1.762
 3827SOL    HW212302   3.334   2.269   1.683
 3828SOL     OW12303   2.835   2.752   1.572
 3828SOL    HW112304   2.881   2.668   1.543
 3828SOL    HW212305   2.779   2.786   1.497
 3829SOL     OW12306   2.853   2.272   1.242
 3829SOL    HW112307   2.776   2.306   1.296
 3829SOL    HW212308   2.819   2.221   1.163
 3830SOL     OW12309   2.903   2.563   0.429
 3830SOL    HW112310   2.929   2.559   0.525
 3830SOL    HW212311   2.818   2.512   0.415
 3831SOL     OW12312   1.938   2.673   0.789
 3831SOL    HW112313   2.037   2.661   0.798
 3831SOL    HW212314   1.914   2.768   0.810
 3832SOL     OW12315   1.992   3.683   1.571
 3832SOL    HW112316   1.982   3.668   1.670
 3832SOL    HW212317   1.906   3.719   1.535
 3833SOL     OW12318   2.727   2.210   0.195
 3833SOL    HW112319   2.786   2.273   0.146
 3833SOL    HW212320   2.746   2.116   0.166
 3834SOL     OW12321   3.581   2.447   1.831
 3834SOL    HW112322   3.555   2.536   1.795
 3834SOL    HW212323   3.579   2.379   1.758
 3835SOL     OW12324   3.224   3.006   0.545
 3835SOL    HW112325   3.307   2.977   0.497
 3835SOL    HW212326   3.175   3.073   0.489
 3836SOL     OW12327   2.412   2.058   0.885
 3836SOL    HW112328   2.407   2.053   0.985
 3836SOL    HW212329   2.414   2.154   0.856
 3837SOL     OW12330   2.870   3.318   0.477
 3837SOL    HW112331   2.824   3.390   0.425
 3837SOL    HW212332   2.866   3.338   0.575
 3838SOL     OW12333   2.213   3.663   0.853
 3838SOL    HW112334   2.263   3.577   0.859
 3838SOL    HW212335   2.278   3.740   0.850
 3839SOL     OW12336   3.657   2.928   0.873
 3839SOL    HW112337   3.595   2.913   0.797
 3839SOL    HW212338   3.605   2.939   0.958
 3840SOL     OW12339   3.089   3.412   1.506
 3840SOL    HW112340   3.095   3.335   1.570
 3840SOL    HW212341   3.037   3.386   1.426
 3841SOL     OW12342   2.183   2.805   0.242
 3841SOL    HW112343   2.265   2.844   0.200
 3841SOL    HW212344   2.156   2.723   0.193
 3842SOL     OW12345   3.320   2.597   0.728
 3842SOL    HW112346   3.315   2.532   0.803
 3842SOL    HW212347   3.400   2.656   0.741
 3843SOL     OW12348   2.323   3.128   1.727
 3843SOL    HW112349   2.273   3.129   1.641
 3843SOL    HW212350   2.260   3.110   1.803
 3844SOL     OW12351   2.973   3.638   0.237
 3844SOL    HW112352   2.913   3.576   0.287
 3844SOL    HW212353   3.004   3.594   0.152
 3845SOL     OW12354   2.064   2.147   1.498
 3845SOL    HW112355   1.984   2.207   1.485
 3845SOL    HW212356   2.054   2.098   1.584
 3846SOL     OW12357   3.494   3.239   0.081
 3846SOL    HW112358   3.462   3.333   0.071
 3846SOL    HW212359   3.418   3.176   0.069
 3847SOL     OW12360   2.326   3.605   0.323
 3847SOL    HW112361   2.359   3.644   0.409
 3847SOL    HW212362   2.402   3.598   0.258
 3848SOL     OW12363   2.111   3.647   1.241
 3848SOL    HW112364   2.168   3.582   1.291
 3848SOL    HW212365   2.095   3.614   1.148
 3849SOL     OW12366   2.802   3.560   0.904
 3849SOL    HW112367   2.882   3.503   0.925
 3849SOL    HW212368   2.753   3.520   0.827
 3850SOL     OW12369   2.244   2.562   0.480
 3850SOL    HW112370   2.289   2.472   0.477
 3850SOL    HW212371   2.150   2.551   0.513
 3851SOL     OW12372   3.409   2.084   1.729
 3851SOL    HW112373   3.404   2.121   1.821
 3851SOL    HW212374   3.337   2.015   1.717
 3852SOL     OW12375   2.643   2.126   1.749
 3852SOL    HW112376   2.710   2.065   1.792
 3852SOL    HW212377   2.570   2.145   1.814
 3853SOL     OW12378   2.750   3.376   1.195
 3853SOL    HW112379   2.727   3.351   1.101
 3853SOL    HW212380   2.811   3.307   1.234
 3854SOL     OW12381   3.213   2.452   1.433
 3854SOL    HW112382   3.241   2.409   1.518
 3854SOL    HW212383   3.238   2.548   1.434
 3855SOL     OW12384   2.665   3.264   0.924
 3855SOL    HW112385   2.755   3.278   0.882
 3855SOL    HW212386   2.594   3.266   0.853
 3856SOL     OW12387   2.784   2.365   0.899
 3856SOL    HW112388   2.759   2.356   0.803
 3856SOL    HW212389   2.832   2.283   0.930
 3857SOL     OW12390   2.401   1.926   0.512
 3857SOL    HW112391   2.320   1.927   0.570
 3857SOL    HW212392   2.404   2.009   0.457
 3858SOL     OW12393   3.296   3.050   0.041
 3858SOL    HW112394   3.328   2.974   0.098
 3858SOL    HW212395   3.204   3.077   0.071
 3859SOL     OW12396   2.797   2.098   0.480
 3859SOL    HW112397   2.749   2.139   0.402
 3859SOL    HW212398   2.896   2.096   0.461
 3860SOL     OW12399   2.938   2.545   1.464
 3860SOL    HW112400   2.858   2.484   1.467
 3860SOL    HW212401   3.019   2.492   1.440
 3861SOL     OW12402   3.089   3.432   0.793
 3861SOL    HW112403   3.110   3.506   0.728
 3861SOL    HW212404   3.157   3.432   0.866
 3862SOL     OW12405   2.321   3.014   0.741
 3862SOL    HW112406   2.250   2.987   0.806
 3862SOL    HW212407   2.295   2.986   0.648
 3863SOL     OW12408   3.133   3.659   0.591
 3863SOL    HW112409   3.177   3.723   0.527
 3863SOL    HW212410   3.083   3.711   0.661
 3864SOL     OW12411   2.894   2.411   0.016
 3864SOL    HW112412   2.853   2.493  -0.023
 3864SOL    HW212413   2.958   2.437   0.089
 3865SOL     OW12414   1.940   2.418   1.386
 3865SOL    HW112415   2.032   2.417   1.345
 3865SOL    HW212416   1.934   2.492   1.453
 3866SOL     OW12417   2.423   2.084   1.147
 3866SOL    HW112418   2.461   2.000   1.184
 3866SOL    HW212419   2.335   2.103   1.191
 3867SOL     OW12420   2.728   2.316   0.642
 3867SOL    HW112421   2.696   2.388   0.580
 3867SOL    HW212422   2.752   2.235   0.589
 3868SOL     OW12423   2.879   1.901   0.753
 3868SOL    HW112424   2.807   1.906   0.684
 3868SOL    HW212425   2.855   1.832   0.822
 3869SOL     OW12426   3.291   3.035   0.867
 3869SOL    HW112427   3.236   2.951   0.860
 3869SOL    HW212428   3.317   3.064   0.775
 3870SOL     OW12429   3.328   2.452   0.992
 3870SOL    HW112430   3.298   2.357   0.999
 3870SOL    HW212431   3.401   2.468   1.058
 3871SOL     OW12432   3.719   2.695   0.377
 3871SOL    HW112433   3.761   2.631   0.441
 3871SOL    HW212434   3.681   2.644   0.299
 3872SOL     OW12435   2.350   3.247   0.174
 3872SOL    HW112436   2.263   3.232   0.221
 3872SOL    HW212437   2.333   3.273   0.079
 3873SOL     OW12438   3.526   3.142   0.657
 3873SOL    HW112439   3.625   3.150   0.671
 3873SOL    HW212440   3.481   3.226   0.688
 3874SOL     OW12441   3.252   2.437   0.078
 3874SOL    HW112442   3.198   2.416   0.159
 3874SOL    HW212443   3.343   2.396   0.087
 3875SOL     OW12444   2.389   2.118   0.328
 3875SOL    HW112445   2.416   2.059   0.253
 3875SOL    HW212446   2.389   2.213   0.297
 3876SOL     OW12447   3.616   3.085   1.588
 3876SOL    HW112448   3.707   3.046   1.575
 3876SOL    HW212449   3.624   3.181   1.612
 3877SOL     OW12450   2.926   3.209   1.340
 3877SOL    HW112451   2.846   3.186   1.395
 3877SOL    HW212452   3.009   3.183   1.389
 3878SOL     OW12453   3.454   3.491   1.625
 3878SOL    HW112454   3.481   3.525   1.535
 3878SOL    HW212455   3.533   3.453   1.671
 3879SOL     OW12456   2.973   3.057   1.100
 3879SOL    HW112457   2.933   3.101   1.181
 3879SOL    HW212458   2.932   3.094   1.017
 3880SOL     OW12459   3.500   2.961   1.079
 3880SOL    HW112460   3.505   3.042   1.138
 3880SOL    HW212461   3.414   2.963   1.028
 3881SOL     OW12462   2.777   1.951   1.402
 3881SOL    HW112463   2.802   1.931   1.307
 3881SOL    HW212464   2.849   2.007   1.444
 3882SOL     OW12465   2.842   2.978   1.719
 3882SOL    HW112466   2.743   2.984   1.729
 3882SOL    HW212467   2.865   2.898   1.663
 3883SOL     OW12468   2.567   2.912   0.368
 3883SOL    HW112469   2.553   2.919   0.467
 3883SOL    HW212470   2.651   2.861   0.350
 3884SOL     OW12471   2.272   2.675   1.251
 3884SOL    HW112472   2.358   2.687   1.301
 3884SOL    HW212473   2.230   2.588   1.278
 3885SOL     OW12474   3.136   2.248   1.262
 3885SOL    HW112475   3.157   2.322   1.326
 3885SOL    HW212476   3.047   2.265   1.219
 3886SOL     OW12477   1.926   3.426   1.331
 3886SOL    HW112478   1.880   3.508   1.297
 3886SOL    HW212479   2.024   3.445   1.340
 3887SOL     OW12480   2.229   2.962   0.501
 3887SOL    HW112481   2.222   3.045   0.445
 3887SOL    HW212482   2.233   2.882   0.441
 3888SOL     OW12483   2.428   2.399   0.865
 3888SOL    HW112484   2.440   2.465   0.791
 3888SOL    HW212485   2.474   2.433   0.948
 3889SOL     OW12486   3.114   3.210   0.388
 3889SOL    HW112487   3.164   3.287   0.428
 3889SOL    HW212488   3.019   3.212   0.420
 3890SOL     OW12489   3.134   3.307   1.142
 3890SOL    HW112490   3.181   3.320   1.229
 3890SOL    HW212491   3.068   3.233   1.151
 3891SOL     OW12492   3.444   2.501   0.472
 3891SOL    HW112493   3.413   2.562   0.545
 3891SOL    HW212494   3.494   2.553   0.403
 3892SOL     OW12495   2.216   3.372   1.329
 3892SOL    HW112496   2.195   3.328   1.242
 3892SOL    HW212497   2.313   3.398   1.332
 3893SOL     OW12498   2.264   2.613   1.598
 3893SOL    HW112499   2.332   2.668   1.551
 3893SOL    HW212500   2.304   2.525   1.625
 3894SOL     OW12501   3.449   2.641   1.670
 3894SOL    HW112502   3.357   2.679   1.665
 3894SOL    HW212503   3.509   2.688   1.605
 3895SOL     OW12504   2.875   1.967   1.770
 3895SOL    HW112505   2.881   2.052   1.718
 3895SOL    HW212506   2.907   1.891   1.713
 3896SOL     OW12507   2.366   1.912   1.740
 3896SOL    HW112508   2.324   1.855   1.670
 3896SOL    HW212509   2.300   1.981   1.772
 3897SOL     OW12510   2.435   2.732   1.029
 3897SOL    HW112511   2.479   2.821   1.020
 3897SOL    HW212512   2.372   2.732   1.106
 3898SOL     OW12513   3.222   2.724   1.045
 3898SOL    HW112514   3.147   2.724   0.979
 3898SOL    HW212515   3.259   2.632   1.054
 3899SOL     OW12516   3.071   2.387   0.275
 3899SOL    HW112517   3.084   2.303   0.329
 3899SOL    HW212518   3.042   2.461   0.335
 3900SOL     OW12519   2.169   2.075   1.231
 3900SOL    HW112520   2.146   2.112   1.321
 3900SOL    HW212521   2.139   1.980   1.225
 3901SOL     OW12522   1.899   3.172   1.282
 3901SOL    HW112523   1.952   3.123   1.350
 3901SOL    HW212524   1.921   3.270   1.287
 3902SOL     OW12525   2.594   2.496   1.064
 3902SOL    HW112526   2.653   2.470   0.988
 3902SOL    HW212527   2.566   2.592   1.053
 3903SOL     OW12528   3.590   2.797   1.854
 3903SOL    HW112529   3.544   2.790   1.765
 3903SOL    HW212530   3.528   2.841   1.920
 3904SOL     OW12531   2.169   1.925   0.618
 3904SOL    HW112532   2.158   2.019   0.651
 3904SOL    HW212533   2.164   1.862   0.695
 3905SOL     OW12534   3.484   2.229   0.374
 3905SOL    HW112535   3.486   2.153   0.438
 3905SOL    HW212536   3.436   2.306   0.414
 3906SOL     OW12537   2.885   2.628   0.966
 3906SOL    HW112538   2.900   2.649   1.062
 3906SOL    HW212539   2.855   2.533   0.957
 3907SOL     OW12540   2.842   3.435   1.700
 3907SOL    HW112541   2.822   3.479   1.612
 3907SOL    HW212542   2.881   3.344   1.684
 3908SOL     OW12543   3.721   3.380   1.605
 3908SOL    HW112544   3.735   3.407   1.510
 3908SOL    HW212545   3.804   3.402   1.658
 3909SOL     OW12546   2.212   2.760   1.804
 3909SOL    HW112547   2.288   2.804   1.852
 3909SOL    HW212548   2.247   2.713   1.722
 3910SOL     OW12549   3.402   2.136   0.125
 3910SOL    HW112550   3.341   2.061   0.148
 3910SOL    HW212551   3.424   2.188   0.208
 3911SOL     OW12552   3.165   2.700   0.042
 3911SOL    HW112553   3.199   2.607   0.057
 3911SOL    HW212554   3.183   2.727  -0.053
 3912SOL     OW12555   2.930   3.195   0.849
 3912SOL    HW112556   2.937   3.111   0.794
 3912SOL    HW212557   2.992   3.264   0.813
 3913SOL     OW12558   2.181   2.672   0.949
 3913SOL    HW112559   2.274   2.708   0.954
 3913SOL    HW212560   2.175   2.587   1.001
 3914SOL     OW12561   2.201   2.371   1.006
 3914SOL    HW112562   2.149   2.288   0.989
 3914SOL    HW212563   2.278   2.376   0.942
 3915SOL     OW12564   3.000   2.242   1.678
 3915SOL    HW112565   2.955   2.305   1.742
 3915SOL    HW212566   3.093   2.273   1.661
 3916SOL     OW12567   3.022   2.069   1.477
 3916SOL    HW112568   3.022   2.133   1.554
 3916SOL    HW212569   3.050   2.117   1.394
 3917SOL     OW12570   1.950   3.663   0.927
 3917SOL    HW112571   1.908   3.577   0.900
 3917SOL    HW212572   2.044   3.666   0.893
 3918SOL     OW12573   2.366   3.430   0.910
 3918SOL    HW112574   2.432   3.504   0.919
 3918SOL    HW212575   2.410   3.351   0.868
 3919SOL     OW12576   2.864   2.658   1.238
 3919SOL    HW112577   2.905   2.626   1.324
 3919SOL    HW212578   2.768   2.631   1.235
 3920SOL     OW12579   1.902   2.406   1.114
 3920SOL    HW112580   1.987   2.373   1.073
 3920SOL    HW212581   1.915   2.421   1.212
 3921SOL     OW12582   2.051   2.382   1.722
 3921SOL    HW112583   2.110   2.342   1.652
 3921SOL    HW212584   1.993   2.453   1.681
 3922SOL     OW12585   3.231   2.812   1.660
 3922SOL    HW112586   3.270   2.901   1.680
 3922SOL    HW212587   3.241   2.792   1.563
 3923SOL     OW12588   2.677   2.434   0.325
 3923SOL    HW112589   2.684   2.345   0.279
 3923SOL    HW212590   2.583   2.468   0.317
 3924SOL     OW12591   3.519   2.466   1.206
 3924SOL    HW112592   3.481   2.397   1.268
 3924SOL    HW212593   3.601   2.430   1.162
 3925SOL     OW12594   2.114   3.426   1.744
 3925SOL    HW112595   2.084   3.483   1.820
 3925SOL    HW212596   2.107   3.329   1.770
 3926SOL     OW12597   2.533   2.326   1.269
 3926SOL    HW112598   2.499   2.237   1.239
 3926SOL    HW212599   2.559   2.380   1.189
 3927SOL     OW12600   2.792   3.540   1.465
 3927SOL    HW112601   2.768   3.522   1.370
 3927SOL    HW212602   2.822   3.634   1.475
 3928SOL     OW12603   2.335   2.362   0.191
 3928SOL    HW112604   2.396   2.442   0.195
 3928SOL    HW212605   2.240   2.393   0.198
 3929SOL     OW12606   2.021   2.999   1.466
 3929SOL    HW112607   2.043   2.938   1.542
 3929SOL    HW212608   2.031   2.950   1.380
 3930SOL     OW12609   3.209   2.921   1.234
 3930SOL    HW112610   3.233   2.858   1.160
 3930SOL    HW212611   3.119   2.961   1.216
 3931SOL     OW12612   3.164   2.717   0.309
 3931SOL    HW112613   3.078   2.686   0.351
 3931SOL    HW212614   3.160   2.703   0.210
 3932SOL     OW12615   3.621   3.609   1.154
 3932SOL    HW112616   3.682   3.639   1.081
 3932SOL    HW212617   3.583   3.520   1.132
 3933SOL     OW12618   3.114   3.593   1.128
 3933SOL    HW112619   3.198   3.598   1.074
 3933SOL    HW212620   3.091   3.497   1.146
 3934SOL     OW12621   1.945   3.120   1.022
 3934SOL    HW112622   1.940   3.119   1.122
 3934SOL    HW212623   1.862   3.079   0.984
 3935SOL     OW12624   2.550   3.524   1.716
 3935SOL    HW112625   2.494   3.605   1.725
 3935SOL    HW212626   2.602   3.528   1.630
 3936SOL     OW12627   2.765   1.948   0.133
 3936SOL    HW112628   2.816   1.949   0.047
 3936SOL    HW212629   2.821   1.906   0.204
 3937SOL     OW12630   3.588   1.997   0.523
 3937SOL    HW112631   3.661   1.980   0.456
 3937SOL    HW212632   3.557   1.910   0.561
 3938SOL     OW12633   3.250   3.435   0.477
 3938SOL    HW112634   3.317   3.447   0.403
 3938SOL    HW212635   3.210   3.524   0.500
 3939SOL     OW12636   1.992   3.656   1.851
 3939SOL    HW112637   1.951   3.582   1.904
 3939SOL    HW212638   2.056   3.707   1.909
 3940SOL     OW12639   3.142   2.789   0.672
 3940SOL    HW112640   3.202   2.708   0.674
 3940SOL    HW212641   3.182   2.858   0.612
 3941SOL     OW12642   2.692   3.135   1.422
 3941SOL    HW112643   2.687   3.168   1.517
 3941SOL    HW212644   2.606   3.154   1.376
 3942SOL     OW12645   2.534   3.478   0.154
 3942SOL    HW112646   2.543   3.488   0.055
 3942SOL    HW212647   2.494   3.389   0.175
 3943SOL     OW12648   3.512   3.582   1.394
 3943SOL    HW112649   3.565   3.592   1.310
 3943SOL    HW212650   3.485   3.672   1.428
 3944SOL     OW12651   3.703   2.037   0.963
 3944SOL    HW112652   3.742   1.952   0.927
 3944SOL    HW212653   3.605   2.039   0.944
 3945SOL     OW12654   2.125   2.188   0.720
 3945SOL    HW112655   2.046   2.239   0.686
 3945SOL    HW212656   2.116   2.173   0.818
 3946SOL     OW12657   3.056   3.474   0.031
 3946SOL    HW112658   3.062   3.381   0.068
 3946SOL    HW212659   2.997   3.474  -0.049
 3947SOL     OW12660   2.684   2.864   1.372
 3947SOL    HW112661   2.724   2.863   1.280
 3947SOL    HW212662   2.694   2.956   1.412
 3948SOL     OW12663   2.778   2.772   0.291
 3948SOL    HW112664   2.841   2.810   0.223
 3948SOL    HW212665   2.818   2.689   0.330
 3949SOL     OW12666   3.366   3.469   0.044
 3949SOL    HW112667   3.274   3.506   0.051
 3949SOL    HW212668   3.404   3.489  -0.046
 3950SOL     OW12669   2.234   3.150   1.490
 3950SOL    HW112670   2.221   3.243   1.456
 3950SOL    HW212671   2.150   3.098   1.477
 3951SOL     OW12672   3.476   3.154   1.289
 3951SOL    HW112673   3.536   3.157   1.369
 3951SOL    HW212674   3.401   3.218   1.302
 3952SOL     OW12675   2.901   2.960   0.696
 3952SOL    HW112676   2.831   2.913   0.750
 3952SOL    HW212677   2.960   2.892   0.653
 3953SOL     OW12678   2.876   2.098   0.971
 3953SOL    HW112679   2.868   2.062   0.878
 3953SOL    HW212680   2.874   2.022   1.036
 3954SOL     OW12681   2.452   3.349   0.491
 3954SOL    HW112682   2.494   3.291   0.421
 3954SOL    HW212683   2.408   3.428   0.447
 3955SOL     OW12684   3.571   2.247   1.381
 3955SOL    HW112685   3.644   2.316   1.385
 3955SOL    HW212686   3.599   2.172   1.322
 3956SOL     OW12687   2.117   3.210   0.290
 3956SOL    HW112688   2.021   3.211   0.263
 3956SOL    HW212689   2.129   3.263   0.374
 3957SOL     OW12690   1.967   2.875   1.726
 3957SOL    HW112691   1.890   2.842   1.780
 3957SOL    HW212692   2.052   2.845   1.768
 3958SOL     OW12693   2.534   2.065   1.489
 3958SOL    HW112694   2.624   2.049   1.449
 3958SOL    HW212695   2.542   2.070   1.588
 3959SOL     OW12696   1.937   2.207   0.033
 3959SOL    HW112697   1.845   2.179   0.004
 3959SOL    HW212698   1.968   2.284  -0.023
 3960SOL     OW12699   3.302   2.718   1.398
 3960SOL    HW112700   3.245   2.770   1.335
 3960SOL    HW212701   3.398   2.730   1.374
 3961SOL     OW12702   1.934   2.028   0.318
 3961SOL    HW112703   1.917   2.111   0.264
 3961SOL    HW212704   2.024   1.991   0.296
 3962SOL     OW12705   3.045   3.197   0.119
 3962SOL    HW112706   2.946   3.186   0.121
 3962SOL    HW212707   3.079   3.212   0.212
 3963SOL     OW12708   2.475   2.704   1.431
 3963SOL    HW112709   2.531   2.785   1.414
 3963SOL    HW212710   2.534   2.624   1.434
 3964SOL     OW12711   3.355   3.629   0.959
 3964SOL    HW112712   3.388   3.693   0.890
 3964SOL    HW212713   3.421   3.623   1.034
 3965SOL     OW12714   2.578   2.427   1.708
 3965SOL    HW112715   2.597   2.492   1.782
 3965SOL    HW212716   2.638   2.347   1.717
 3966SOL     OW12717   3.312   3.082   1.633
 3966SOL    HW112718   3.303   3.072   1.732
 3966SOL    HW212719   3.408   3.075   1.607
 3967SOL     OW12720   2.252   3.603   1.560
 3967SOL    HW112721   2.161   3.644   1.558
 3967SOL    HW212722   2.245   3.509   1.592
 3968SOL     OW12723   3.536   2.745   1.254
 3968SOL    HW112724   3.509   2.656   1.217
 3968SOL    HW212725   3.537   2.813   1.181
 3969SOL     OW12726   3.087   2.187   0.449
 3969SOL    HW112727   3.152   2.113   0.438
 3969SOL    HW212728   3.107   2.237   0.533
 3970SOL     OW12729   2.456   2.607   0.652
 3970SOL    HW112730   2.506   2.692   0.633
 3970SOL    HW212731   2.368   2.609   0.604
 3971SOL     OW12732   3.639   2.204   1.642
 3971SOL    HW112733   3.622   2.235   1.548
 3971SOL    HW212734   3.555   2.167   1.680
 3972SOL     OW12735   3.592   2.796   1.517
 3972SOL    HW112736   3.630   2.887   1.532
 3972SOL    HW212737   3.584   2.779   1.418
 3973SOL     OW12738   2.721   3.236   0.016
 3973SOL    HW112739   2.675   3.251   0.104
 3973SOL    HW212740   2.765   3.321  -0.014
 3974SOL     OW12741   2.523   3.652   0.953
 3974SOL    HW112742   2.477   3.740   0.940
 3974SOL    HW212743   2.622   3.664   0.946
 3975SOL     OW12744   2.721   2.818   0.861
 3975SOL    HW112745   2.775   2.749   0.909
 3975SOL    HW212746   2.689   2.887   0.927
 3976SOL     OW12747   2.945   2.846   0.087
 3976SOL    HW112748   2.922   2.899   0.005
 3976SOL    HW212749   3.026   2.790   0.068
 3977SOL     OW12750   3.723   3.431   0.851
 3977SOL    HW112751   3.652   3.419   0.781
 3977SOL    HW212752   3.724   3.352   0.911
 3978SOL     OW12753   2.083   3.176   1.844
 3978SOL    HW112754   2.018   3.103   1.823
 3978SOL    HW212755   2.087   3.190   1.942
 3979SOL     OW12756   1.941   3.102   0.653
 3979SOL    HW112757   1.940   3.055   0.741
 3979SOL    HW212758   2.023   3.074   0.602
 3980SOL     OW12759   2.534   3.253   1.624
 3980SOL    HW112760   2.456   3.203   1.662
 3980SOL    HW212761   2.531   3.348   1.655
 3981SOL     OW12762   3.686   2.054   1.227
 3981SOL    HW112763   3.682   1.964   1.271
 3981SOL    HW212764   3.689   2.043   1.128
 3982SOL     OW12765   2.290   2.286   0.520
 3982SOL    HW112766   2.320   2.214   0.458
 3982SOL    HW212767   2.251   2.246   0.603
 3983SOL     OW12768   3.567   3.349   1.104
 3983SOL    HW112769   3.474   3.324   1.077
 3983SOL    HW212770   3.593   3.299   1.186
 3984SOL     OW12771   2.179   2.409   1.280
 3984SOL    HW112772   2.217   2.350   1.352
 3984SOL    HW212773   2.219   2.383   1.192
 3985SOL     OW12774   2.674   3.448   0.687
 3985SOL    HW112775   2.706   3.458   0.593
 3985SOL    HW212776   2.595   3.386   0.689
 3986SOL     OW12777   3.286   2.076   1.112
 3986SOL    HW112778   3.338   2.011   1.167
 3986SOL    HW212779   3.237   2.139   1.173
 3987SOL     OW12780   2.863   1.896   1.154
 3987SOL    HW112781   2.800   1.824   1.123
 3987SOL    HW212782   2.956   1.860   1.154
 3988SOL     OW12783   2.632   3.192   0.301
 3988SOL    HW112784   2.586   3.105   0.318
 3988SOL    HW212785   2.723   3.189   0.342
 3989SOL     OW12786   2.480   3.429   1.284
 3989SOL    HW112787   2.475   3.511   1.341
 3989SOL    HW212788   2.569   3.426   1.239
 3990SOL     OW12789   3.214   1.914   0.168
 3990SOL    HW112790   3.249   1.873   0.084
 3990SOL    HW212791   3.124   1.876   0.188
 3991SOL     OW12792   3.162   2.315   0.691
 3991SOL    HW112793   3.103   2.395   0.695
 3991SOL    HW212794   3.177   2.280   0.784
 3992SOL     OW12795   3.455   2.083   0.882
 3992SOL    HW112796   3.371   2.082   0.936
 3992SOL    HW212797   3.457   2.166   0.826
 3993SOL     OW12798   1.901   2.939   0.300
 3993SOL    HW112799   2.000   2.928   0.291
 3993SOL    HW212800   1.861   2.853   0.332
 3994SOL     OW12801   2.737   3.508   0.337
 3994SOL    HW112802   2.660   3.473   0.283
 3994SOL    HW212803   2.705   3.579   0.399
 3995SOL     OW12804   2.092   2.490   1.975
 3995SOL    HW112805   1.999   2.488   2.012
 3995SOL    HW212806   2.093   2.451   1.883
 3996SOL     OW12807   2.087   2.137   2.858
 3996SOL    HW112808   2.122   2.120   2.950
 3996SOL    HW212809   1.999   2.092   2.846
 3997SOL     OW12810   1.881   2.230   2.509
 3997SOL    HW112811   1.799   2.273   2.548
 3997SOL    HW212812   1.853   2.157   2.446
 3998SOL     OW12813   2.431   3.137   3.027
 3998SOL    HW112814   2.338   3.130   2.990
 3998SOL    HW212815   2.442   3.226   3.071
 3999SOL     OW12816   2.997   2.565   2.579
 3999SOL    HW112817   3.054   2.643   2.554
 3999SOL    HW212818   2.937   2.591   2.655
 4000SOL     OW12819   3.617   2.469   2.093
 4000SOL    HW112820   3.605   2.456   1.994
 4000SOL    HW212821   3.587   2.388   2.142
 4001SOL     OW12822   2.630   3.006   2.885
 4001SOL    HW112823   2.552   3.023   2.945
 4001SOL    HW212824   2.664   3.093   2.849
 4002SOL     OW12825   2.712   2.660   3.685
 4002SOL    HW112826   2.708   2.736   3.750
 4002SOL    HW212827   2.734   2.696   3.594
 4003SOL     OW12828   2.548   3.023   3.665
 4003SOL    HW112829   2.608   3.102   3.679
 4003SOL    HW212830   2.462   3.054   3.624
 4004SOL     OW12831   2.197   3.297   2.923
 4004SOL    HW112832   2.119   3.266   2.870
 4004SOL    HW212833   2.255   3.355   2.866
 4005SOL     OW12834   3.322   3.367   3.201
 4005SOL    HW112835   3.346   3.461   3.227
 4005SOL    HW212836   3.306   3.313   3.283
 4006SOL     OW12837   2.300   2.254   3.361
 4006SOL    HW112838   2.382   2.198   3.370
 4006SOL    HW212839   2.219   2.196   3.365
 4007SOL     OW12840   3.465   2.309   2.599
 4007SOL    HW112841   3.391   2.355   2.549
 4007SOL    HW212842   3.516   2.377   2.652
 4008SOL     OW12843   2.989   3.203   3.552
 4008SOL    HW112844   3.036   3.203   3.640
 4008SOL    HW212845   2.941   3.116   3.541
 4009SOL     OW12846   2.482   3.648   3.301
 4009SOL    HW112847   2.390   3.631   3.336
 4009SOL    HW212848   2.510   3.740   3.327
 4010SOL     OW12849   2.468   2.826   1.985
 4010SOL    HW112850   2.475   2.910   1.931
 4010SOL    HW212851   2.514   2.839   2.073
 4011SOL     OW12852   3.456   1.976   3.342
 4011SOL    HW112853   3.438   2.043   3.270
 4011SOL    HW212854   3.453   2.022   3.431
 4012SOL     OW12855   1.984   2.505   2.425
 4012SOL    HW112856   1.939   2.417   2.442
 4012SOL    HW212857   1.983   2.559   2.509
 4013SOL     OW12858   3.704   3.629   2.221
 4013SOL    HW112859   3.758   3.600   2.301
 4013SOL    HW212860   3.734   3.719   2.192
 4014SOL     OW12861   1.889   3.458   1.979
 4014SOL    HW112862   1.870   3.362   2.000
 4014SOL    HW212863   1.856   3.516   2.054
 4015SOL     OW12864   3.551   2.784   2.474
 4015SOL    HW112865   3.646   2.755   2.482
 4015SOL    HW212866   3.543   2.849   2.399
 4016SOL     OW12867   3.503   2.970   2.294
 4016SOL    HW112868   3.589   2.972   2.242
 4016SOL    HW212869   3.517   3.017   2.382
 4017SOL     OW12870   1.975   2.599   3.459
 4017SOL    HW112871   2.063   2.586   3.504
 4017SOL    HW212872   1.962   2.696   3.437
 4018SOL     OW12873   3.155   3.090   3.285
 4018SOL    HW112874   3.192   3.017   3.227
 4018SOL    HW212875   3.207   3.095   3.370
 4019SOL     OW12876   2.671   1.866   2.364
 4019SOL    HW112877   2.711   1.957   2.355
 4019SOL    HW212878   2.571   1.874   2.370
 4020SOL     OW12879   2.059   2.838   3.126
 4020SOL    HW112880   2.148   2.793   3.112
 4020SOL    HW212881   1.986   2.773   3.107
 4021SOL     OW12882   3.387   2.861   2.052
 4021SOL    HW112883   3.324   2.785   2.065
 4021SOL    HW212884   3.435   2.879   2.138
 4022SOL     OW12885   3.049   3.654   3.478
 4022SOL    HW112886   3.073   3.714   3.402
 4022SOL    HW212887   3.056   3.559   3.448
 4023SOL     OW12888   2.179   2.113   3.663
 4023SOL    HW112889   2.250   2.184   3.669
 4023SOL    HW212890   2.091   2.152   3.691
 4024SOL     OW12891   3.328   3.279   2.815
 4024SOL    HW112892   3.269   3.285   2.895
 4024SOL    HW212893   3.313   3.191   2.769
 4025SOL     OW12894   2.460   2.591   2.132
 4025SOL    HW112895   2.484   2.660   2.064
 4025SOL    HW212896   2.382   2.624   2.186
 4026SOL     OW12897   3.143   2.207   2.806
 4026SOL    HW112898   3.057   2.157   2.793
 4026SOL    HW212899   3.205   2.153   2.862
 4027SOL     OW12900   3.438   3.524   2.169
 4027SOL    HW112901   3.527   3.570   2.172
 4027SOL    HW212902   3.417   3.500   2.074
 4028SOL     OW12903   2.835   2.752   3.434
 4028SOL    HW112904   2.881   2.668   3.405
 4028SOL    HW212905   2.779   2.786   3.359
 4029SOL     OW12906   2.853   2.272   3.104
 4029SOL    HW112907   2.776   2.306   3.158
 4029SOL    HW212908   2.819   2.221   3.025
 4030SOL     OW12909   2.903   2.563   2.291
 4030SOL    HW112910   2.929   2.559   2.387
 4030SOL    HW212911   2.818   2.512   2.277
 4031SOL     OW12912   1.992   3.683   3.433
 4031SOL    HW112913   1.982   3.668   3.532
 4031SOL    HW212914   1.906   3.719   3.397
 4032SOL     OW12915   2.727   2.210   2.057
 4032SOL    HW112916   2.786   2.273   2.008
 4032SOL    HW212917   2.746   2.116   2.028
 4033SOL     OW12918   3.224   3.006   2.407
 4033SOL    HW112919   3.307   2.977   2.359
 4033SOL    HW212920   3.175   3.073   2.351
 4034SOL     OW12921   2.412   2.058   2.747
 4034SOL    HW112922   2.407   2.053   2.847
 4034SOL    HW212923   2.414   2.154   2.718
 4035SOL     OW12924   2.213   3.663   2.715
 4035SOL    HW112925   2.263   3.577   2.721
 4035SOL    HW212926   2.278   3.740   2.712
 4036SOL     OW12927   3.089   3.412   3.368
 4036SOL    HW112928   3.095   3.335   3.432
 4036SOL    HW212929   3.037   3.386   3.288
 4037SOL     OW12930   2.183   2.805   2.104
 4037SOL    HW112931   2.265   2.844   2.062
 4037SOL    HW212932   2.156   2.723   2.055
 4038SOL     OW12933   3.320   2.597   2.590
 4038SOL    HW112934   3.315   2.532   2.665
 4038SOL    HW212935   3.400   2.656   2.603
 4039SOL     OW12936   2.323   3.128   3.589
 4039SOL    HW112937   2.273   3.129   3.503
 4039SOL    HW212938   2.260   3.110   3.665
 4040SOL     OW12939   2.973   3.638   2.099
 4040SOL    HW112940   2.913   3.576   2.149
 4040SOL    HW212941   3.004   3.594   2.014
 4041SOL     OW12942   2.064   2.147   3.360
 4041SOL    HW112943   1.984   2.207   3.347
 4041SOL    HW212944   2.054   2.098   3.446
 4042SOL     OW12945   3.494   3.239   1.943
 4042SOL    HW112946   3.462   3.333   1.933
 4042SOL    HW212947   3.418   3.176   1.931
 4043SOL     OW12948   2.326   3.605   2.185
 4043SOL    HW112949   2.359   3.644   2.271
 4043SOL    HW212950   2.402   3.598   2.120
 4044SOL     OW12951   3.262   1.969   2.288
 4044SOL    HW112952   3.238   1.932   2.198
 4044SOL    HW212953   3.361   1.985   2.292
 4045SOL     OW12954   2.111   3.647   3.103
 4045SOL    HW112955   2.168   3.582   3.153
 4045SOL    HW212956   2.095   3.614   3.010
 4046SOL     OW12957   2.802   3.560   2.766
 4046SOL    HW112958   2.882   3.503   2.787
 4046SOL    HW212959   2.753   3.520   2.689
 4047SOL     OW12960   2.244   2.562   2.342
 4047SOL    HW112961   2.289   2.472   2.339
 4047SOL    HW212962   2.150   2.551   2.375
 4048SOL     OW12963   3.409   2.084   3.591
 4048SOL    HW112964   3.404   2.121   3.683
 4048SOL    HW212965   3.337   2.015   3.579
 4049SOL     OW12966   2.476   1.984   1.979
 4049SOL    HW112967   2.574   1.962   1.986
 4049SOL    HW212968   2.445   1.967   1.886
 4050SOL     OW12969   2.643   2.126   3.611
 4050SOL    HW112970   2.710   2.065   3.654
 4050SOL    HW212971   2.570   2.145   3.676
 4051SOL     OW12972   2.750   3.376   3.057
 4051SOL    HW112973   2.727   3.351   2.963
 4051SOL    HW212974   2.811   3.307   3.096
 4052SOL     OW12975   2.665   3.264   2.786
 4052SOL    HW112976   2.755   3.278   2.744
 4052SOL    HW212977   2.594   3.266   2.715
 4053SOL     OW12978   2.784   2.365   2.761
 4053SOL    HW112979   2.759   2.356   2.665
 4053SOL    HW212980   2.832   2.283   2.792
 4054SOL     OW12981   2.401   1.926   2.374
 4054SOL    HW112982   2.320   1.927   2.432
 4054SOL    HW212983   2.404   2.009   2.319
 4055SOL     OW12984   3.296   3.050   1.903
 4055SOL    HW112985   3.328   2.974   1.960
 4055SOL    HW212986   3.204   3.077   1.933
 4056SOL     OW12987   2.159   1.897   2.033
 4056SOL    HW112988   2.208   1.981   2.012
 4056SOL    HW212989   2.221   1.832   2.078
 4057SOL     OW12990   2.797   2.098   2.342
 4057SOL    HW112991   2.749   2.139   2.264
 4057SOL    HW212992   2.896   2.096   2.323
 4058SOL     OW12993   2.894   2.411   1.878
 4058SOL    HW112994   2.853   2.493   1.839
 4058SOL    HW212995   2.958   2.437   1.951
 4059SOL     OW12996   2.423   2.084   3.009
 4059SOL    HW112997   2.461   2.000   3.046
 4059SOL    HW212998   2.335   2.103   3.053
 4060SOL     OW12999   2.728   2.316   2.504
 4060SOL    HW113000   2.696   2.388   2.442
 4060SOL    HW213001   2.752   2.235   2.451
 4061SOL     OW13002   2.879   1.901   2.615
 4061SOL    HW113003   2.807   1.906   2.546
 4061SOL    HW213004   2.855   1.832   2.684
 4062SOL     OW13005   3.328   2.452   2.854
 4062SOL    HW113006   3.298   2.357   2.861
 4062SOL    HW213007   3.401   2.468   2.920
 4063SOL     OW13008   3.719   2.695   2.239
 4063SOL    HW113009   3.761   2.631   2.303
 4063SOL    HW213010   3.681   2.644   2.161
 4064SOL     OW13011   2.350   3.247   2.036
 4064SOL    HW113012   2.263   3.232   2.083
 4064SOL    HW213013   2.333   3.273   1.941
 4065SOL     OW13014   3.252   2.437   1.940
 4065SOL    HW113015   3.198   2.416   2.021
 4065SOL    HW213016   3.343   2.396   1.949
 4066SOL     OW13017   2.389   2.118   2.190
 4066SOL    HW113018   2.416   2.059   2.115
 4066SOL    HW213019   2.389   2.213   2.159
 4067SOL     OW13020   3.616   3.085   3.450
 4067SOL    HW113021   3.707   3.046   3.437
 4067SOL    HW213022   3.624   3.181   3.474
 4068SOL     OW13023   2.926   3.209   3.202
 4068SOL    HW113024   2.846   3.186   3.257
 4068SOL    HW213025   3.009   3.183   3.251
 4069SOL     OW13026   3.454   3.491   3.487
 4069SOL    HW113027   3.481   3.525   3.397
 4069SOL    HW213028   3.533   3.453   3.533
 4070SOL     OW13029   2.973   3.057   2.962
 4070SOL    HW113030   2.933   3.101   3.043
 4070SOL    HW213031   2.932   3.094   2.879
 4071SOL     OW13032   3.500   2.961   2.941
 4071SOL    HW113033   3.505   3.042   3.000
 4071SOL    HW213034   3.414   2.963   2.890
 4072SOL     OW13035   2.777   1.951   3.264
 4072SOL    HW113036   2.802   1.931   3.169
 4072SOL    HW213037   2.849   2.007   3.306
 4073SOL     OW13038   2.842   2.978   3.581
 4073SOL    HW113039   2.743   2.984   3.591
 4073SOL    HW213040   2.865   2.898   3.525
 4074SOL     OW13041   2.567   2.912   2.230
 4074SOL    HW113042   2.553   2.919   2.329
 4074SOL    HW213043   2.651   2.861   2.212
 4075SOL     OW13044   3.136   2.248   3.124
 4075SOL    HW113045   3.157   2.322   3.188
 4075SOL    HW213046   3.047   2.265   3.081
 4076SOL     OW13047   1.926   3.426   3.193
 4076SOL    HW113048   1.880   3.508   3.159
 4076SOL    HW213049   2.024   3.445   3.202
 4077SOL     OW13050   2.229   2.962   2.363
 4077SOL    HW113051   2.222   3.045   2.307
 4077SOL    HW213052   2.233   2.882   2.303
 4078SOL     OW13053   2.428   2.399   2.727
 4078SOL    HW113054   2.440   2.465   2.653
 4078SOL    HW213055   2.474   2.433   2.810
 4079SOL     OW13056   3.114   3.210   2.250
 4079SOL    HW113057   3.164   3.287   2.290
 4079SOL    HW213058   3.019   3.212   2.282
 4080SOL     OW13059   3.134   3.307   3.004
 4080SOL    HW113060   3.181   3.320   3.091
 4080SOL    HW213061   3.068   3.233   3.013
 4081SOL     OW13062   3.444   2.501   2.334
 4081SOL    HW113063   3.413   2.562   2.407
 4081SOL    HW213064   3.494   2.553   2.265
 4082SOL     OW13065   2.216   3.372   3.191
 4082SOL    HW113066   2.195   3.328   3.104
 4082SOL    HW213067   2.313   3.398   3.194
 4083SOL     OW13068   3.449   2.641   3.532
 4083SOL    HW113069   3.357   2.679   3.527
 4083SOL    HW213070   3.509   2.688   3.467
 4084SOL     OW13071   2.875   1.967   3.632
 4084SOL    HW113072   2.881   2.052   3.580
 4084SOL    HW213073   2.907   1.891   3.575
 4085SOL     OW13074   2.366   1.912   3.602
 4085SOL    HW113075   2.324   1.855   3.532
 4085SOL    HW213076   2.300   1.981   3.634
 4086SOL     OW13077   3.071   2.387   2.137
 4086SOL    HW113078   3.084   2.303   2.191
 4086SOL    HW213079   3.042   2.461   2.197
 4087SOL     OW13080   2.169   2.075   3.093
 4087SOL    HW113081   2.146   2.112   3.183
 4087SOL    HW213082   2.139   1.980   3.087
 4088SOL     OW13083   1.899   3.172   3.144
 4088SOL    HW113084   1.952   3.123   3.212
 4088SOL    HW213085   1.921   3.270   3.149
 4089SOL     OW13086   3.590   2.797   3.716
 4089SOL    HW113087   3.544   2.790   3.627
 4089SOL    HW213088   3.528   2.841   3.782
 4090SOL     OW13089   2.169   1.925   2.480
 4090SOL    HW113090   2.158   2.019   2.513
 4090SOL    HW213091   2.164   1.862   2.557
 4091SOL     OW13092   3.484   2.229   2.236
 4091SOL    HW113093   3.486   2.153   2.300
 4091SOL    HW213094   3.436   2.306   2.276
 4092SOL     OW13095   2.842   3.435   3.562
 4092SOL    HW113096   2.822   3.479   3.474
 4092SOL    HW213097   2.881   3.344   3.546
 4093SOL     OW13098   3.721   3.380   3.467
 4093SOL    HW113099   3.735   3.407   3.372
 4093SOL    HW213100   3.804   3.402   3.520
 4094SOL     OW13101   2.212   2.760   3.666
 4094SOL    HW113102   2.288   2.804   3.714
 4094SOL    HW213103   2.247   2.713   3.584
 4095SOL     OW13104   3.402   2.136   1.987
 4095SOL    HW113105   3.341   2.061   2.010
 4095SOL    HW213106   3.424   2.188   2.070
 4096SOL     OW13107   3.165   2.700   1.904
 4096SOL    HW113108   3.199   2.607   1.919
 4096SOL    HW213109   3.183   2.727   1.809
 4097SOL     OW13110   2.201   2.371   2.868
 4097SOL    HW113111   2.149   2.288   2.851
 4097SOL    HW213112   2.278   2.376   2.804
 4098SOL     OW13113   3.000   2.242   3.540
 4098SOL    HW113114   2.955   2.305   3.604
 4098SOL    HW213115   3.093   2.273   3.523
 4099SOL     OW13116   3.022   2.069   3.339
 4099SOL    HW113117   3.022   2.133   3.416
 4099SOL    HW213118   3.050   2.117   3.256
 4100SOL     OW13119   1.870   3.188   2.062
 4100SOL    HW113120   1.777   3.209   2.031
 4100SOL    HW213121   1.880   3.089   2.075
 4101SOL     OW13122   1.950   3.663   2.789
 4101SOL    HW113123   1.908   3.577   2.762
 4101SOL    HW213124   2.044   3.666   2.755
 4102SOL     OW13125   2.366   3.430   2.772
 4102SOL    HW113126   2.432   3.504   2.781
 4102SOL    HW213127   2.410   3.351   2.730
 4103SOL     OW13128   1.902   2.406   2.976
 4103SOL    HW113129   1.987   2.373   2.935
 4103SOL    HW213130   1.915   2.421   3.074
 4104SOL     OW13131   3.231   2.812   3.522
 4104SOL    HW113132   3.270   2.901   3.542
 4104SOL    HW213133   3.241   2.792   3.425
 4105SOL     OW13134   2.677   2.434   2.187
 4105SOL    HW113135   2.684   2.345   2.141
 4105SOL    HW213136   2.583   2.468   2.179
 4106SOL     OW13137   2.114   3.426   3.606
 4106SOL    HW113138   2.084   3.483   3.682
 4106SOL    HW213139   2.107   3.329   3.632
 4107SOL     OW13140   2.533   2.326   3.131
 4107SOL    HW113141   2.499   2.237   3.101
 4107SOL    HW213142   2.559   2.380   3.051
 4108SOL     OW13143   2.792   3.540   3.327
 4108SOL    HW113144   2.768   3.522   3.232
 4108SOL    HW213145   2.822   3.634   3.337
 4109SOL     OW13146   2.335   2.362   2.053
 4109SOL    HW113147   2.396   2.442   2.057
 4109SOL    HW213148   2.240   2.393   2.060
 4110SOL     OW13149   2.021   2.999   3.328
 4110SOL    HW113150   2.043   2.938   3.404
 4110SOL    HW213151   2.031   2.950   3.242
 4111SOL     OW13152   3.209   2.921   3.096
 4111SOL    HW113153   3.233   2.858   3.022
 4111SOL    HW213154   3.119   2.961   3.078
 4112SOL     OW13155   3.164   2.717   2.171
 4112SOL    HW113156   3.078   2.686   2.213
 4112SOL    HW213157   3.160   2.703   2.072
 4113SOL     OW13158   3.621   3.609   3.016
 4113SOL    HW113159   3.682   3.639   2.943
 4113SOL    HW213160   3.583   3.520   2.994
 4114SOL     OW13161   3.114   3.593   2.990
 4114SOL    HW113162   3.198   3.598   2.936
 4114SOL    HW213163   3.091   3.497   3.008
 4115SOL     OW13164   1.945   3.120   2.884
 4115SOL    HW113165   1.940   3.119   2.984
 4115SOL    HW213166   1.862   3.079   2.846
 4116SOL     OW13167   2.550   3.524   3.578
 4116SOL    HW113168   2.494   3.605   3.587
 4116SOL    HW213169   2.602   3.528   3.492
 4117SOL     OW13170   3.588   1.997   2.385
 4117SOL    HW113171   3.661   1.980   2.318
 4117SOL    HW213172   3.557   1.910   2.423
 4118SOL     OW13173   1.992   3.656   3.713
 4118SOL    HW113174   1.951   3.582   3.766
 4118SOL    HW213175   2.056   3.707   3.771
 4119SOL     OW13176   3.142   2.789   2.534
 4119SOL    HW113177   3.202   2.708   2.536
 4119SOL    HW213178   3.182   2.858   2.474
 4120SOL     OW13179   2.692   3.135   3.284
 4120SOL    HW113180   2.687   3.168   3.379
 4120SOL    HW213181   2.606   3.154   3.238
 4121SOL     OW13182   2.534   3.478   2.016
 4121SOL    HW113183   2.543   3.488   1.917
 4121SOL    HW213184   2.494   3.389   2.037
 4122SOL     OW13185   3.512   3.582   3.256
 4122SOL    HW113186   3.565   3.592   3.172
 4122SOL    HW213187   3.485   3.672   3.290
 4123SOL     OW13188   3.703   2.037   2.825
 4123SOL    HW113189   3.742   1.952   2.789
 4123SOL    HW213190   3.605   2.039   2.806
 4124SOL     OW13191   2.125   2.188   2.582
 4124SOL    HW113192   2.046   2.239   2.548
 4124SOL    HW213193   2.116   2.173   2.680
 4125SOL     OW13194   3.056   3.474   1.893
 4125SOL    HW113195   3.062   3.381   1.930
 4125SOL    HW213196   2.997   3.474   1.813
 4126SOL     OW13197   2.684   2.864   3.234
 4126SOL    HW113198   2.724   2.863   3.142
 4126SOL    HW213199   2.694   2.956   3.274
 4127SOL     OW13200   2.778   2.772   2.153
 4127SOL    HW113201   2.841   2.810   2.085
 4127SOL    HW213202   2.818   2.689   2.192
 4128SOL     OW13203   3.366   3.469   1.906
 4128SOL    HW113204   3.274   3.506   1.913
 4128SOL    HW213205   3.404   3.489   1.816
 4129SOL     OW13206   2.234   3.150   3.352
 4129SOL    HW113207   2.221   3.243   3.318
 4129SOL    HW213208   2.150   3.098   3.339
 4130SOL     OW13209   3.476   3.154   3.151
 4130SOL    HW113210   3.536   3.157   3.231
 4130SOL    HW213211   3.401   3.218   3.164
 4131SOL     OW13212   2.876   2.098   2.833
 4131SOL    HW113213   2.868   2.062   2.740
 4131SOL    HW213214   2.874   2.022   2.898
 4132SOL     OW13215   3.571   2.247   3.243
 4132SOL    HW113216   3.644   2.316   3.247
 4132SOL    HW213217   3.599   2.172   3.184
 4133SOL     OW13218   2.117   3.210   2.152
 4133SOL    HW113219   2.021   3.211   2.125
 4133SOL    HW213220   2.129   3.263   2.236
 4134SOL     OW13221   1.967   2.875   3.588
 4134SOL    HW113222   1.890   2.842   3.642
 4134SOL    HW213223   2.052   2.845   3.630
 4135SOL     OW13224   2.534   2.065   3.351
 4135SOL    HW113225   2.624   2.049   3.311
 4135SOL    HW213226   2.542   2.070   3.450
 4136SOL     OW13227   1.937   2.207   1.895
 4136SOL    HW113228   1.845   2.179   1.866
 4136SOL    HW213229   1.968   2.284   1.839
 4137SOL     OW13230   3.302   2.718   3.260
 4137SOL    HW113231   3.245   2.770   3.197
 4137SOL    HW213232   3.398   2.730   3.236
 4138SOL     OW13233   1.934   2.028   2.180
 4138SOL    HW113234   1.917   2.111   2.126
 4138SOL    HW213235   2.024   1.991   2.158
 4139SOL     OW13236   3.045   3.197   1.981
 4139SOL    HW113237   2.946   3.186   1.983
 4139SOL    HW213238   3.079   3.212   2.074
 4140SOL     OW13239   3.355   3.629   2.821
 4140SOL    HW113240   3.388   3.693   2.752
 4140SOL    HW213241   3.421   3.623   2.896
 4141SOL     OW13242   3.312   3.082   3.495
 4141SOL    HW113243   3.303   3.072   3.594
 4141SOL    HW213244   3.408   3.075   3.469
 4142SOL     OW13245   2.252   3.603   3.422
 4142SOL    HW113246   2.161   3.644   3.420
 4142SOL    HW213247   2.245   3.509   3.454
 4143SOL     OW13248   3.087   2.187   2.311
 4143SOL    HW113249   3.152   2.113   2.300
 4143SOL    HW213250   3.107   2.237   2.395
 4144SOL     OW13251   2.456   2.607   2.514
 4144SOL    HW113252   2.506   2.692   2.495
 4144SOL    HW213253   2.368   2.609   2.466
 4145SOL     OW13254   3.639   2.204   3.504
 4145SOL    HW113255   3.622   2.235   3.410
 4145SOL    HW213256   3.555   2.167   3.542
 4146SOL     OW13257   3.592   2.796   3.379
 4146SOL    HW113258   3.630   2.887   3.394
 4146SOL    HW213259   3.584   2.779   3.280
 4147SOL     OW13260   2.721   3.236   1.878
 4147SOL    HW113261   2.675   3.251   1.966
 4147SOL    HW213262   2.765   3.321   1.848
 4148SOL     OW13263   2.523   3.652   2.815
 4148SOL    HW113264   2.477   3.740   2.802
 4148SOL    HW213265   2.622   3.664   2.808
 4149SOL     OW13266   2.945   2.846   1.949
 4149SOL    HW113267   2.922   2.899   1.867
 4149SOL    HW213268   3.026   2.790   1.930
 4150SOL     OW13269   3.723   3.431   2.713
 4150SOL    HW113270   3.652   3.419   2.643
 4150SOL    HW213271   3.724   3.352   2.773
 4151SOL     OW13272   2.083   3.176   3.706
 4151SOL    HW113273   2.018   3.103   3.685
 4151SOL    HW213274   2.087   3.190   3.804
 4152SOL     OW13275   2.534   3.253   3.486
 4152SOL    HW113276   2.456   3.203   3.524
 4152SOL    HW213277   2.531   3.348   3.517
 4153SOL     OW13278   3.686   2.054   3.089
 4153SOL    HW113279   3.682   1.964   3.133
 4153SOL    HW213280   3.689   2.043   2.990
 4154SOL     OW13281   2.290   2.286   2.382
 4154SOL    HW113282   2.320   2.214   2.320
 4154SOL    HW213283   2.251   2.246   2.465
 4155SOL     OW13284   3.567   3.349   2.966
 4155SOL    HW113285   3.474   3.324   2.939
 4155SOL    HW213286   3.593   3.299   3.048
 4156SOL     OW13287   3.286   2.076   2.974
 4156SOL    HW113288   3.338   2.011   3.029
 4156SOL    HW213289   3.237   2.139   3.035
 4157SOL     OW13290   2.863   1.896   3.016
 4157SOL    HW113291   2.800   1.824   2.985
 4157SOL    HW213292   2.956   1.860   3.016
 4158SOL     OW13293   2.632   3.192   2.163
 4158SOL    HW113294   2.586   3.105   2.180
 4158SOL    HW213295   2.723   3.189   2.204
 4159SOL     OW13296   2.480   3.429   3.146
 4159SOL    HW113297   2.475   3.511   3.203
 4159SOL    HW213298   2.569   3.426   3.101
 4160SOL     OW13299   3.214   1.914   2.030
 4160SOL    HW113300   3.249   1.873   1.946
 4160SOL    HW213301   3.124   1.876   2.050
 4161SOL     OW13302   3.162   2.315   2.553
 4161SOL    HW113303   3.103   2.395   2.557
 4161SOL    HW213304   3.177   2.280   2.646
 4162SOL     OW13305   3.455   2.083   2.744
 4162SOL    HW113306   3.371   2.082   2.798
 4162SOL    HW213307   3.457   2.166   2.688
 4163SOL     OW13308   1.901   2.939   2.162
 4163SOL    HW113309   2.000   2.928   2.153
 4163SOL    HW213310   1.861   2.853   2.194
 4164SOL     OW13311   2.737   3.508   2.199
 4164SOL    HW113312   2.660   3.473   2.145
 4164SOL    HW213313   2.705   3.579   2.261
 4165SOL     OW13314   2.087   2.137   4.720
 4165SOL    HW113315   2.122   2.120   4.812
 4165SOL    HW213316   1.999   2.092   4.708
 4166SOL     OW13317   1.881   2.230   4.371
 4166SOL    HW113318   1.799   2.273   4.410
 4166SOL    HW213319   1.853   2.157   4.308
 4167SOL     OW13320   2.431   3.137   4.889
 4167SOL    HW113321   2.338   3.130   4.852
 4167SOL    HW213322   2.442   3.226   4.933
 4168SOL     OW13323   2.997   2.565   4.441
 4168SOL    HW113324   3.054   2.643   4.416
 4168SOL    HW213325   2.937   2.591   4.517
 4169SOL     OW13326   2.630   3.006   4.747
 4169SOL    HW113327   2.552   3.023   4.807
 4169SOL    HW213328   2.664   3.093   4.711
 4170SOL     OW13329   2.712   2.660   5.547
 4170SOL    HW113330   2.708   2.736   5.612
 4170SOL    HW213331   2.734   2.696   5.456
 4171SOL     OW13332   2.548   3.023   5.527
 4171SOL    HW113333   2.608   3.102   5.541
 4171SOL    HW213334   2.462   3.054   5.486
 4172SOL     OW13335   2.197   3.297   4.785
 4172SOL    HW113336   2.119   3.266   4.732
 4172SOL    HW213337   2.255   3.355   4.728
 4173SOL     OW13338   3.322   3.367   5.063
 4173SOL    HW113339   3.346   3.461   5.089
 4173SOL    HW213340   3.306   3.313   5.145
 4174SOL     OW13341   2.300   2.254   5.223
 4174SOL    HW113342   2.382   2.198   5.232
 4174SOL    HW213343   2.219   2.196   5.227
 4175SOL     OW13344   3.465   2.309   4.461
 4175SOL    HW113345   3.391   2.355   4.411
 4175SOL    HW213346   3.516   2.377   4.514
 4176SOL     OW13347   2.093   3.575   4.207
 4176SOL    HW113348   2.127   3.652   4.261
 4176SOL    HW213349   2.137   3.575   4.117
 4177SOL     OW13350   2.989   3.203   5.414
 4177SOL    HW113351   3.036   3.203   5.502
 4177SOL    HW213352   2.941   3.116   5.403
 4178SOL     OW13353   2.092   3.296   4.262
 4178SOL    HW113354   2.066   3.392   4.262
 4178SOL    HW213355   2.021   3.242   4.307
 4179SOL     OW13356   2.102   2.953   4.610
 4179SOL    HW113357   2.116   2.869   4.662
 4179SOL    HW213358   2.047   3.017   4.665
 4180SOL     OW13359   2.482   3.648   5.163
 4180SOL    HW113360   2.390   3.631   5.198
 4180SOL    HW213361   2.510   3.740   5.189
 4181SOL     OW13362   2.468   2.826   3.847
 4181SOL    HW113363   2.475   2.910   3.793
 4181SOL    HW213364   2.514   2.839   3.935
 4182SOL     OW13365   3.456   1.976   5.204
 4182SOL    HW113366   3.438   2.043   5.132
 4182SOL    HW213367   3.453   2.022   5.293
 4183SOL     OW13368   1.984   2.505   4.287
 4183SOL    HW113369   1.939   2.417   4.304
 4183SOL    HW213370   1.983   2.559   4.371
 4184SOL     OW13371   3.704   3.629   4.083
 4184SOL    HW113372   3.758   3.600   4.163
 4184SOL    HW213373   3.734   3.719   4.054
 4185SOL     OW13374   1.889   3.458   3.841
 4185SOL    HW113375   1.870   3.362   3.862
 4185SOL    HW213376   1.856   3.516   3.916
 4186SOL     OW13377   3.503   2.970   4.156
 4186SOL    HW113378   3.589   2.972   4.104
 4186SOL    HW213379   3.517   3.017   4.244
 4187SOL     OW13380   1.975   2.599   5.321
 4187SOL    HW113381   2.063   2.586   5.366
 4187SOL    HW213382   1.962   2.696   5.299
 4188SOL     OW13383   3.155   3.090   5.147
 4188SOL    HW113384   3.192   3.017   5.089
 4188SOL    HW213385   3.207   3.095   5.232
 4189SOL     OW13386   2.671   1.866   4.226
 4189SOL    HW113387   2.711   1.957   4.217
 4189SOL    HW213388   2.571   1.874   4.232
 4190SOL     OW13389   2.059   2.838   4.988
 4190SOL    HW113390   2.148   2.793   4.974
 4190SOL    HW213391   1.986   2.773   4.969
 4191SOL     OW13392   3.387   2.861   3.914
 4191SOL    HW113393   3.324   2.785   3.927
 4191SOL    HW213394   3.435   2.879   4.000
 4192SOL     OW13395   3.049   3.654   5.340
 4192SOL    HW113396   3.073   3.714   5.264
 4192SOL    HW213397   3.056   3.559   5.310
 4193SOL     OW13398   2.179   2.113   5.525
 4193SOL    HW113399   2.250   2.184   5.531
 4193SOL    HW213400   2.091   2.152   5.553
 4194SOL     OW13401   3.529   3.576   4.296
 4194SOL    HW113402   3.488   3.553   4.208
 4194SOL    HW213403   3.511   3.502   4.361
 4195SOL     OW13404   3.143   2.207   4.668
 4195SOL    HW113405   3.057   2.157   4.655
 4195SOL    HW213406   3.205   2.153   4.724
 4196SOL     OW13407   3.438   3.524   4.031
 4196SOL    HW113408   3.527   3.570   4.034
 4196SOL    HW213409   3.417   3.500   3.936
 4197SOL     OW13410   2.669   2.467   5.189
 4197SOL    HW113411   2.622   2.464   5.278
 4197SOL    HW213412   2.618   2.412   5.123
 4198SOL     OW13413   3.256   2.331   5.398
 4198SOL    HW113414   3.236   2.374   5.486
 4198SOL    HW213415   3.334   2.269   5.407
 4199SOL     OW13416   2.835   2.752   5.296
 4199SOL    HW113417   2.881   2.668   5.267
 4199SOL    HW213418   2.779   2.786   5.221
 4200SOL     OW13419   2.853   2.272   4.966
 4200SOL    HW113420   2.776   2.306   5.020
 4200SOL    HW213421   2.819   2.221   4.887
 4201SOL     OW13422   1.938   2.673   4.513
 4201SOL    HW113423   2.037   2.661   4.522
 4201SOL    HW213424   1.914   2.768   4.534
 4202SOL     OW13425   1.992   3.683   5.295
 4202SOL    HW113426   1.982   3.668   5.394
 4202SOL    HW213427   1.906   3.719   5.259
 4203SOL     OW13428   2.727   2.210   3.919
 4203SOL    HW113429   2.786   2.273   3.870
 4203SOL    HW213430   2.746   2.116   3.890
 4204SOL     OW13431   3.581   2.447   5.555
 4204SOL    HW113432   3.555   2.536   5.519
 4204SOL    HW213433   3.579   2.379   5.482
 4205SOL     OW13434   2.412   2.058   4.609
 4205SOL    HW113435   2.407   2.053   4.709
 4205SOL    HW213436   2.414   2.154   4.580
 4206SOL     OW13437   2.870   3.318   4.201
 4206SOL    HW113438   2.824   3.390   4.149
 4206SOL    HW213439   2.866   3.338   4.299
 4207SOL     OW13440   3.089   3.412   5.230
 4207SOL    HW113441   3.095   3.335   5.294
 4207SOL    HW213442   3.037   3.386   5.150
 4208SOL     OW13443   2.183   2.805   3.966
 4208SOL    HW113444   2.265   2.844   3.924
 4208SOL    HW213445   2.156   2.723   3.917
 4209SOL     OW13446   3.320   2.597   4.452
 4209SOL    HW113447   3.315   2.532   4.527
 4209SOL    HW213448   3.400   2.656   4.465
 4210SOL     OW13449   2.323   3.128   5.451
 4210SOL    HW113450   2.273   3.129   5.365
 4210SOL    HW213451   2.260   3.110   5.527
 4211SOL     OW13452   2.973   3.638   3.961
 4211SOL    HW113453   2.913   3.576   4.011
 4211SOL    HW213454   3.004   3.594   3.876
 4212SOL     OW13455   2.064   2.147   5.222
 4212SOL    HW113456   1.984   2.207   5.209
 4212SOL    HW213457   2.054   2.098   5.308
 4213SOL     OW13458   3.494   3.239   3.805
 4213SOL    HW113459   3.462   3.333   3.795
 4213SOL    HW213460   3.418   3.176   3.793
 4214SOL     OW13461   2.326   3.605   4.047
 4214SOL    HW113462   2.359   3.644   4.133
 4214SOL    HW213463   2.402   3.598   3.982
 4215SOL     OW13464   3.262   1.969   4.150
 4215SOL    HW113465   3.238   1.932   4.060
 4215SOL    HW213466   3.361   1.985   4.154
 4216SOL     OW13467   2.111   3.647   4.965
 4216SOL    HW113468   2.168   3.582   5.015
 4216SOL    HW213469   2.095   3.614   4.872
 4217SOL     OW13470   3.409   2.084   5.453
 4217SOL    HW113471   3.404   2.121   5.545
 4217SOL    HW213472   3.337   2.015   5.441
 4218SOL     OW13473   2.476   1.984   3.841
 4218SOL    HW113474   2.574   1.962   3.848
 4218SOL    HW213475   2.445   1.967   3.748
 4219SOL     OW13476   2.643   2.126   5.473
 4219SOL    HW113477   2.710   2.065   5.516
 4219SOL    HW213478   2.570   2.145   5.538
 4220SOL     OW13479   2.750   3.376   4.919
 4220SOL    HW113480   2.727   3.351   4.825
 4220SOL    HW213481   2.811   3.307   4.958
 4221SOL     OW13482   3.213   2.452   5.157
 4221SOL    HW113483   3.241   2.409   5.242
 4221SOL    HW213484   3.238   2.548   5.158
 4222SOL     OW13485   2.784   2.365   4.623
 4222SOL    HW113486   2.759   2.356   4.527
 4222SOL    HW213487   2.832   2.283   4.654
 4223SOL     OW13488   2.401   1.926   4.236
 4223SOL    HW113489   2.320   1.927   4.294
 4223SOL    HW213490   2.404   2.009   4.181
 4224SOL     OW13491   3.296   3.050   3.765
 4224SOL    HW113492   3.328   2.974   3.822
 4224SOL    HW213493   3.204   3.077   3.795
 4225SOL     OW13494   2.159   1.897   3.895
 4225SOL    HW113495   2.208   1.981   3.874
 4225SOL    HW213496   2.221   1.832   3.940
 4226SOL     OW13497   2.797   2.098   4.204
 4226SOL    HW113498   2.749   2.139   4.126
 4226SOL    HW213499   2.896   2.096   4.185
 4227SOL     OW13500   2.938   2.545   5.188
 4227SOL    HW113501   2.858   2.484   5.191
 4227SOL    HW213502   3.019   2.492   5.164
 4228SOL     OW13503   1.940   2.418   5.110
 4228SOL    HW113504   2.032   2.417   5.069
 4228SOL    HW213505   1.934   2.492   5.177
 4229SOL     OW13506   2.423   2.084   4.871
 4229SOL    HW113507   2.461   2.000   4.908
 4229SOL    HW213508   2.335   2.103   4.915
 4230SOL     OW13509   2.728   2.316   4.366
 4230SOL    HW113510   2.696   2.388   4.304
 4230SOL    HW213511   2.752   2.235   4.313
 4231SOL     OW13512   2.879   1.901   4.477
 4231SOL    HW113513   2.807   1.906   4.408
 4231SOL    HW213514   2.855   1.832   4.546
 4232SOL     OW13515   3.328   2.452   4.716
 4232SOL    HW113516   3.298   2.357   4.723
 4232SOL    HW213517   3.401   2.468   4.782
 4233SOL     OW13518   2.350   3.247   3.898
 4233SOL    HW113519   2.263   3.232   3.945
 4233SOL    HW213520   2.333   3.273   3.803
 4234SOL     OW13521   2.389   2.118   4.052
 4234SOL    HW113522   2.416   2.059   3.977
 4234SOL    HW213523   2.389   2.213   4.021
 4235SOL     OW13524   3.616   3.085   5.312
 4235SOL    HW113525   3.707   3.046   5.299
 4235SOL    HW213526   3.624   3.181   5.336
 4236SOL     OW13527   2.926   3.209   5.064
 4236SOL    HW113528   2.846   3.186   5.119
 4236SOL    HW213529   3.009   3.183   5.113
 4237SOL     OW13530   3.454   3.491   5.349
 4237SOL    HW113531   3.481   3.525   5.259
 4237SOL    HW213532   3.533   3.453   5.395
 4238SOL     OW13533   2.973   3.057   4.824
 4238SOL    HW113534   2.933   3.101   4.905
 4238SOL    HW213535   2.932   3.094   4.741
 4239SOL     OW13536   3.500   2.961   4.803
 4239SOL    HW113537   3.505   3.042   4.862
 4239SOL    HW213538   3.414   2.963   4.752
 4240SOL     OW13539   2.777   1.951   5.126
 4240SOL    HW113540   2.802   1.931   5.031
 4240SOL    HW213541   2.849   2.007   5.168
 4241SOL     OW13542   2.842   2.978   5.443
 4241SOL    HW113543   2.743   2.984   5.453
 4241SOL    HW213544   2.865   2.898   5.387
 4242SOL     OW13545   2.272   2.675   4.975
 4242SOL    HW113546   2.358   2.687   5.025
 4242SOL    HW213547   2.230   2.588   5.002
 4243SOL     OW13548   3.136   2.248   4.986
 4243SOL    HW113549   3.157   2.322   5.050
 4243SOL    HW213550   3.047   2.265   4.943
 4244SOL     OW13551   1.926   3.426   5.055
 4244SOL    HW113552   1.880   3.508   5.021
 4244SOL    HW213553   2.024   3.445   5.064
 4245SOL     OW13554   2.428   2.399   4.589
 4245SOL    HW113555   2.440   2.465   4.515
 4245SOL    HW213556   2.474   2.433   4.672
 4246SOL     OW13557   3.114   3.210   4.112
 4246SOL    HW113558   3.164   3.287   4.152
 4246SOL    HW213559   3.019   3.212   4.144
 4247SOL     OW13560   3.134   3.307   4.866
 4247SOL    HW113561   3.181   3.320   4.953
 4247SOL    HW213562   3.068   3.233   4.875
 4248SOL     OW13563   2.216   3.372   5.053
 4248SOL    HW113564   2.195   3.328   4.966
 4248SOL    HW213565   2.313   3.398   5.056
 4249SOL     OW13566   2.264   2.613   5.322
 4249SOL    HW113567   2.332   2.668   5.275
 4249SOL    HW213568   2.304   2.525   5.349
 4250SOL     OW13569   3.449   2.641   5.394
 4250SOL    HW113570   3.357   2.679   5.389
 4250SOL    HW213571   3.509   2.688   5.329
 4251SOL     OW13572   2.875   1.967   5.494
 4251SOL    HW113573   2.881   2.052   5.442
 4251SOL    HW213574   2.907   1.891   5.437
 4252SOL     OW13575   2.366   1.912   5.464
 4252SOL    HW113576   2.324   1.855   5.394
 4252SOL    HW213577   2.300   1.981   5.496
 4253SOL     OW13578   2.435   2.732   4.753
 4253SOL    HW113579   2.479   2.821   4.744
 4253SOL    HW213580   2.372   2.732   4.830
 4254SOL     OW13581   3.222   2.724   4.769
 4254SOL    HW113582   3.147   2.724   4.703
 4254SOL    HW213583   3.259   2.632   4.778
 4255SOL     OW13584   2.169   2.075   4.955
 4255SOL    HW113585   2.146   2.112   5.045
 4255SOL    HW213586   2.139   1.980   4.949
 4256SOL     OW13587   1.899   3.172   5.006
 4256SOL    HW113588   1.952   3.123   5.074
 4256SOL    HW213589   1.921   3.270   5.011
 4257SOL     OW13590   2.594   2.496   4.788
 4257SOL    HW113591   2.653   2.470   4.712
 4257SOL    HW213592   2.566   2.592   4.777
 4258SOL     OW13593   3.590   2.797   5.578
 4258SOL    HW113594   3.544   2.790   5.489
 4258SOL    HW213595   3.528   2.841   5.644
 4259SOL     OW13596   2.169   1.925   4.342
 4259SOL    HW113597   2.158   2.019   4.375
 4259SOL    HW213598   2.164   1.862   4.419
 4260SOL     OW13599   3.484   2.229   4.098
 4260SOL    HW113600   3.486   2.153   4.162
 4260SOL    HW213601   3.436   2.306   4.138
 4261SOL     OW13602   2.885   2.628   4.690
 4261SOL    HW113603   2.900   2.649   4.786
 4261SOL    HW213604   2.855   2.533   4.681
 4262SOL     OW13605   2.842   3.435   5.424
 4262SOL    HW113606   2.822   3.479   5.336
 4262SOL    HW213607   2.881   3.344   5.408
 4263SOL     OW13608   3.721   3.380   5.329
 4263SOL    HW113609   3.735   3.407   5.234
 4263SOL    HW213610   3.804   3.402   5.382
 4264SOL     OW13611   2.212   2.760   5.528
 4264SOL    HW113612   2.288   2.804   5.576
 4264SOL    HW213613   2.247   2.713   5.446
 4265SOL     OW13614   3.402   2.136   3.849
 4265SOL    HW113615   3.341   2.061   3.872
 4265SOL    HW213616   3.424   2.188   3.932
 4266SOL     OW13617   2.181   2.672   4.673
 4266SOL    HW113618   2.274   2.708   4.678
 4266SOL    HW213619   2.175   2.587   4.725
 4267SOL     OW13620   2.201   2.371   4.730
 4267SOL    HW113621   2.149   2.288   4.713
 4267SOL    HW213622   2.278   2.376   4.666
 4268SOL     OW13623   3.000   2.242   5.402
 4268SOL    HW113624   2.955   2.305   5.466
 4268SOL    HW213625   3.093   2.273   5.385
 4269SOL     OW13626   3.022   2.069   5.201
 4269SOL    HW113627   3.022   2.133   5.278
 4269SOL    HW213628   3.050   2.117   5.118
 4270SOL     OW13629   1.870   3.188   3.924
 4270SOL    HW113630   1.777   3.209   3.893
 4270SOL    HW213631   1.880   3.089   3.937
 4271SOL     OW13632   2.864   2.658   4.962
 4271SOL    HW113633   2.905   2.626   5.048
 4271SOL    HW213634   2.768   2.631   4.959
 4272SOL     OW13635   1.902   2.406   4.838
 4272SOL    HW113636   1.987   2.373   4.797
 4272SOL    HW213637   1.915   2.421   4.936
 4273SOL     OW13638   2.051   2.382   5.446
 4273SOL    HW113639   2.110   2.342   5.376
 4273SOL    HW213640   1.993   2.453   5.405
 4274SOL     OW13641   3.231   2.812   5.384
 4274SOL    HW113642   3.270   2.901   5.404
 4274SOL    HW213643   3.241   2.792   5.287
 4275SOL     OW13644   3.519   2.466   4.930
 4275SOL    HW113645   3.481   2.397   4.992
 4275SOL    HW213646   3.601   2.430   4.886
 4276SOL     OW13647   2.114   3.426   5.468
 4276SOL    HW113648   2.084   3.483   5.544
 4276SOL    HW213649   2.107   3.329   5.494
 4277SOL     OW13650   2.533   2.326   4.993
 4277SOL    HW113651   2.499   2.237   4.963
 4277SOL    HW213652   2.559   2.380   4.913
 4278SOL     OW13653   2.792   3.540   5.189
 4278SOL    HW113654   2.768   3.522   5.094
 4278SOL    HW213655   2.822   3.634   5.199
 4279SOL     OW13656   2.021   2.999   5.190
 4279SOL    HW113657   2.043   2.938   5.266
 4279SOL    HW213658   2.031   2.950   5.104
 4280SOL     OW13659   3.209   2.921   4.958
 4280SOL    HW113660   3.233   2.858   4.884
 4280SOL    HW213661   3.119   2.961   4.940
 4281SOL     OW13662   3.621   3.609   4.878
 4281SOL    HW113663   3.682   3.639   4.805
 4281SOL    HW213664   3.583   3.520   4.856
 4282SOL     OW13665   3.114   3.593   4.852
 4282SOL    HW113666   3.198   3.598   4.798
 4282SOL    HW213667   3.091   3.497   4.870
 4283SOL     OW13668   1.945   3.120   4.746
 4283SOL    HW113669   1.940   3.119   4.846
 4283SOL    HW213670   1.862   3.079   4.708
 4284SOL     OW13671   2.550   3.524   5.440
 4284SOL    HW113672   2.494   3.605   5.449
 4284SOL    HW213673   2.602   3.528   5.354
 4285SOL     OW13674   3.588   1.997   4.247
 4285SOL    HW113675   3.661   1.980   4.180
 4285SOL    HW213676   3.557   1.910   4.285
 4286SOL     OW13677   3.250   3.435   4.201
 4286SOL    HW113678   3.317   3.447   4.127
 4286SOL    HW213679   3.210   3.524   4.224
 4287SOL     OW13680   1.992   3.656   5.575
 4287SOL    HW113681   1.951   3.582   5.628
 4287SOL    HW213682   2.056   3.707   5.633
 4288SOL     OW13683   2.692   3.135   5.146
 4288SOL    HW113684   2.687   3.168   5.241
 4288SOL    HW213685   2.606   3.154   5.100
 4289SOL     OW13686   2.534   3.478   3.878
 4289SOL    HW113687   2.543   3.488   3.779
 4289SOL    HW213688   2.494   3.389   3.899
 4290SOL     OW13689   3.512   3.582   5.118
 4290SOL    HW113690   3.565   3.592   5.034
 4290SOL    HW213691   3.485   3.672   5.152
 4291SOL     OW13692   3.703   2.037   4.687
 4291SOL    HW113693   3.742   1.952   4.651
 4291SOL    HW213694   3.605   2.039   4.668
 4292SOL     OW13695   2.125   2.188   4.444
 4292SOL    HW113696   2.046   2.239   4.410
 4292SOL    HW213697   2.116   2.173   4.542
 4293SOL     OW13698   3.056   3.474   3.755
 4293SOL    HW113699   3.062   3.381   3.792
 4293SOL    HW213700   2.997   3.474   3.675
 4294SOL     OW13701   2.684   2.864   5.096
 4294SOL    HW113702   2.724   2.863   5.004
 4294SOL    HW213703   2.694   2.956   5.136
 4295SOL     OW13704   3.366   3.469   3.768
 4295SOL    HW113705   3.274   3.506   3.775
 4295SOL    HW213706   3.404   3.489   3.678
 4296SOL     OW13707   2.234   3.150   5.214
 4296SOL    HW113708   2.221   3.243   5.180
 4296SOL    HW213709   2.150   3.098   5.201
 4297SOL     OW13710   3.476   3.154   5.013
 4297SOL    HW113711   3.536   3.157   5.093
 4297SOL    HW213712   3.401   3.218   5.026
 4298SOL     OW13713   2.876   2.098   4.695
 4298SOL    HW113714   2.868   2.062   4.602
 4298SOL    HW213715   2.874   2.022   4.760
 4299SOL     OW13716   2.452   3.349   4.215
 4299SOL    HW113717   2.494   3.291   4.145
 4299SOL    HW213718   2.408   3.428   4.171
 4300SOL     OW13719   3.571   2.247   5.105
 4300SOL    HW113720   3.644   2.316   5.109
 4300SOL    HW213721   3.599   2.172   5.046
 4301SOL     OW13722   2.117   3.210   4.014
 4301SOL    HW113723   2.021   3.211   3.987
 4301SOL    HW213724   2.129   3.263   4.098
 4302SOL     OW13725   1.967   2.875   5.450
 4302SOL    HW113726   1.890   2.842   5.504
 4302SOL    HW213727   2.052   2.845   5.492
 4303SOL     OW13728   2.534   2.065   5.213
 4303SOL    HW113729   2.624   2.049   5.173
 4303SOL    HW213730   2.542   2.070   5.312
 4304SOL     OW13731   1.937   2.207   3.757
 4304SOL    HW113732   1.845   2.179   3.728
 4304SOL    HW213733   1.968   2.284   3.701
 4305SOL     OW13734   3.302   2.718   5.122
 4305SOL    HW113735   3.245   2.770   5.059
 4305SOL    HW213736   3.398   2.730   5.098
 4306SOL     OW13737   1.934   2.028   4.042
 4306SOL    HW113738   1.917   2.111   3.988
 4306SOL    HW213739   2.024   1.991   4.020
 4307SOL     OW13740   3.045   3.197   3.843
 4307SOL    HW113741   2.946   3.186   3.845
 4307SOL    HW213742   3.079   3.212   3.936
 4308SOL     OW13743   2.475   2.704   5.155
 4308SOL    HW113744   2.531   2.785   5.138
 4308SOL    HW213745   2.534   2.624   5.158
 4309SOL     OW13746   2.578   2.427   5.432
 4309SOL    HW113747   2.597   2.492   5.506
 4309SOL    HW213748   2.638   2.347   5.441
 4310SOL     OW13749   3.312   3.082   5.357
 4310SOL    HW113750   3.303   3.072   5.456
 4310SOL    HW213751   3.408   3.075   5.331
 4311SOL     OW13752   2.252   3.603   5.284
 4311SOL    HW113753   2.161   3.644   5.282
 4311SOL    HW213754   2.245   3.509   5.316
 4312SOL     OW13755   3.536   2.745   4.978
 4312SOL    HW113756   3.509   2.656   4.941
 4312SOL    HW213757   3.537   2.813   4.905
 4313SOL     OW13758   3.087   2.187   4.173
 4313SOL    HW113759   3.152   2.113   4.162
 4313SOL    HW213760   3.107   2.237   4.257
 4314SOL     OW13761   3.639   2.204   5.366
 4314SOL    HW113762   3.622   2.235   5.272
 4314SOL    HW213763   3.555   2.167   5.404
 4315SOL     OW13764   3.592   2.796   5.241
 4315SOL    HW113765   3.630   2.887   5.256
 4315SOL    HW213766   3.584   2.779   5.142
 4316SOL     OW13767   2.721   3.236   3.740
 4316SOL    HW113768   2.675   3.251   3.828
 4316SOL    HW213769   2.765   3.321   3.710
 4317SOL     OW13770   2.721   2.818   4.585
 4317SOL    HW113771   2.775   2.749   4.633
 4317SOL    HW213772   2.689   2.887   4.651
 4318SOL     OW13773   2.945   2.846   3.811
 4318SOL    HW113774   2.922   2.899   3.729
 4318SOL    HW213775   3.026   2.790   3.792
 4319SOL     OW13776   2.083   3.176   5.568
 4319SOL    HW113777   2.018   3.103   5.547
 4319SOL    HW213778   2.087   3.190   5.666
 4320SOL     OW13779   2.534   3.253   5.348
 4320SOL    HW113780   2.456   3.203   5.386
 4320SOL    HW213781   2.531   3.348   5.379
 4321SOL     OW13782   3.686   2.054   4.951
 4321SOL    HW113783   3.682   1.964   4.995
 4321SOL    HW213784   3.689   2.043   4.852
 4322SOL     OW13785   2.290   2.286   4.244
 4322SOL    HW113786   2.320   2.214   4.182
 4322SOL    HW213787   2.251   2.246   4.327
 4323SOL     OW13788   3.567   3.349   4.828
 4323SOL    HW113789   3.474   3.324   4.801
 4323SOL    HW213790   3.593   3.299   4.910
 4324SOL     OW13791   2.179   2.409   5.004
 4324SOL    HW113792   2.217   2.350   5.076
 4324SOL    HW213793   2.219   2.383   4.916
 4325SOL     OW13794   3.286   2.076   4.836
 4325SOL    HW113795   3.338   2.011   4.891
 4325SOL    HW213796   3.237   2.139   4.897
 4326SOL     OW13797   2.863   1.896   4.878
 4326SOL    HW113798   2.800   1.824   4.847
 4326SOL    HW213799   2.956   1.860   4.878
 4327SOL     OW13800   2.632   3.192   4.025
 4327SOL    HW113801   2.586   3.105   4.042
 4327SOL    HW213802   2.723   3.189   4.066
 4328SOL     OW13803   2.480   3.429   5.008
 4328SOL    HW113804   2.475   3.511   5.065
 4328SOL    HW213805   2.569   3.426   4.963
 4329SOL     OW13806   3.214   1.914   3.892
 4329SOL    HW113807   3.249   1.873   3.808
 4329SOL    HW213808   3.124   1.876   3.912
 4330SOL     OW13809   3.162   2.315   4.415
 4330SOL    HW113810   3.103   2.395   4.419
 4330SOL    HW213811   3.177   2.280   4.508
 4331SOL     OW13812   3.455   2.083   4.606
 4331SOL    HW113813   3.371   2.082   4.660
 4331SOL    HW213814   3.457   2.166   4.550
 4332SOL     OW13815   1.901   2.939   4.024
 4332SOL    HW113816   2.000   2.928   4.015
 4332SOL    HW213817   1.861   2.853   4.056
 4333SOL     OW13818   2.737   3.508   4.061
 4333SOL    HW113819   2.660   3.473   4.007
 4333SOL    HW213820   2.705   3.579   4.123
 4334SOL     OW13821   2.092   2.490   5.699
 4334SOL    HW113822   1.999   2.488   5.736
 4334SOL    HW213823   2.093   2.451   5.607
 4335SOL     OW13824   2.087   2.137   6.582
 4335SOL    HW113825   2.122   2.120   6.674
 4335SOL    HW213826   1.999   2.092   6.570
 4336SOL     OW13827   1.881   2.230   6.233
 4336SOL    HW113828   1.799   2.273   6.272
 4336SOL    HW213829   1.853   2.157   6.170
 4337SOL     OW13830   2.431   3.137   6.751
 4337SOL    HW113831   2.338   3.130   6.714
 4337SOL    HW213832   2.442   3.226   6.795
 4338SOL     OW13833   3.417   3.373   6.289
 4338SOL    HW113834   3.360   3.357   6.370
 4338SOL    HW213835   3.358   3.383   6.209
 4339SOL     OW13836   2.997   2.565   6.303
 4339SOL    HW113837   3.054   2.643   6.278
 4339SOL    HW213838   2.937   2.591   6.379
 4340SOL     OW13839   3.617   2.469   5.817
 4340SOL    HW113840   3.605   2.456   5.718
 4340SOL    HW213841   3.587   2.388   5.866
 4341SOL     OW13842   2.630   3.006   6.609
 4341SOL    HW113843   2.552   3.023   6.669
 4341SOL    HW213844   2.664   3.093   6.573
 4342SOL     OW13845   2.547   2.874   6.251
 4342SOL    HW113846   2.616   2.858   6.321
 4342SOL    HW213847   2.474   2.931   6.289
 4343SOL     OW13848   2.197   3.297   6.647
 4343SOL    HW113849   2.119   3.266   6.594
 4343SOL    HW213850   2.255   3.355   6.590
 4344SOL     OW13851   3.465   2.309   6.323
 4344SOL    HW113852   3.391   2.355   6.273
 4344SOL    HW213853   3.516   2.377   6.376
 4345SOL     OW13854   2.093   3.575   6.069
 4345SOL    HW113855   2.127   3.652   6.123
 4345SOL    HW213856   2.137   3.575   5.979
 4346SOL     OW13857   2.092   3.296   6.124
 4346SOL    HW113858   2.066   3.392   6.124
 4346SOL    HW213859   2.021   3.242   6.169
 4347SOL     OW13860   2.102   2.953   6.472
 4347SOL    HW113861   2.116   2.869   6.524
 4347SOL    HW213862   2.047   3.017   6.527
 4348SOL     OW13863   2.482   3.648   7.025
 4348SOL    HW113864   2.390   3.631   7.060
 4348SOL    HW213865   2.510   3.740   7.051
 4349SOL     OW13866   2.468   2.826   5.709
 4349SOL    HW113867   2.475   2.910   5.655
 4349SOL    HW213868   2.514   2.839   5.797
 4350SOL     OW13869   1.984   2.505   6.149
 4350SOL    HW113870   1.939   2.417   6.166
 4350SOL    HW213871   1.983   2.559   6.233
 4351SOL     OW13872   3.704   3.629   5.945
 4351SOL    HW113873   3.758   3.600   6.025
 4351SOL    HW213874   3.734   3.719   5.916
 4352SOL     OW13875   1.889   3.458   5.703
 4352SOL    HW113876   1.870   3.362   5.724
 4352SOL    HW213877   1.856   3.516   5.778
 4353SOL     OW13878   3.551   2.784   6.198
 4353SOL    HW113879   3.646   2.755   6.206
 4353SOL    HW213880   3.543   2.849   6.123
 4354SOL     OW13881   3.503   2.970   6.018
 4354SOL    HW113882   3.589   2.972   5.966
 4354SOL    HW213883   3.517   3.017   6.106
 4355SOL     OW13884   2.475   3.227   6.312
 4355SOL    HW113885   2.426   3.140   6.321
 4355SOL    HW213886   2.452   3.270   6.225
 4356SOL     OW13887   2.671   1.866   6.088
 4356SOL    HW113888   2.711   1.957   6.079
 4356SOL    HW213889   2.571   1.874   6.094
 4357SOL     OW13890   2.059   2.838   6.850
 4357SOL    HW113891   2.148   2.793   6.836
 4357SOL    HW213892   1.986   2.773   6.831
 4358SOL     OW13893   3.387   2.861   5.776
 4358SOL    HW113894   3.324   2.785   5.789
 4358SOL    HW213895   3.435   2.879   5.862
 4359SOL     OW13896   3.328   3.279   6.539
 4359SOL    HW113897   3.269   3.285   6.619
 4359SOL    HW213898   3.313   3.191   6.493
 4360SOL     OW13899   3.529   3.576   6.158
 4360SOL    HW113900   3.488   3.553   6.070
 4360SOL    HW213901   3.511   3.502   6.223
 4361SOL     OW13902   2.460   2.591   5.856
 4361SOL    HW113903   2.484   2.660   5.788
 4361SOL    HW213904   2.382   2.624   5.910
 4362SOL     OW13905   3.143   2.207   6.530
 4362SOL    HW113906   3.057   2.157   6.517
 4362SOL    HW213907   3.205   2.153   6.586
 4363SOL     OW13908   3.438   3.524   5.893
 4363SOL    HW113909   3.527   3.570   5.896
 4363SOL    HW213910   3.417   3.500   5.798
 4364SOL     OW13911   2.669   2.467   7.051
 4364SOL    HW113912   2.622   2.464   7.140
 4364SOL    HW213913   2.618   2.412   6.985
 4365SOL     OW13914   2.853   2.272   6.828
 4365SOL    HW113915   2.776   2.306   6.882
 4365SOL    HW213916   2.819   2.221   6.749
 4366SOL     OW13917   2.903   2.563   6.015
 4366SOL    HW113918   2.929   2.559   6.111
 4366SOL    HW213919   2.818   2.512   6.001
 4367SOL     OW13920   1.938   2.673   6.375
 4367SOL    HW113921   2.037   2.661   6.384
 4367SOL    HW213922   1.914   2.768   6.396
 4368SOL     OW13923   1.992   3.683   7.157
 4368SOL    HW113924   1.982   3.668   7.256
 4368SOL    HW213925   1.906   3.719   7.121
 4369SOL     OW13926   2.727   2.210   5.781
 4369SOL    HW113927   2.786   2.273   5.732
 4369SOL    HW213928   2.746   2.116   5.752
 4370SOL     OW13929   3.224   3.006   6.131
 4370SOL    HW113930   3.307   2.977   6.083
 4370SOL    HW213931   3.175   3.073   6.075
 4371SOL     OW13932   2.412   2.058   6.471
 4371SOL    HW113933   2.407   2.053   6.571
 4371SOL    HW213934   2.414   2.154   6.442
 4372SOL     OW13935   2.870   3.318   6.063
 4372SOL    HW113936   2.824   3.390   6.011
 4372SOL    HW213937   2.866   3.338   6.161
 4373SOL     OW13938   2.213   3.663   6.439
 4373SOL    HW113939   2.263   3.577   6.445
 4373SOL    HW213940   2.278   3.740   6.436
 4374SOL     OW13941   3.657   2.928   6.459
 4374SOL    HW113942   3.595   2.913   6.383
 4374SOL    HW213943   3.605   2.939   6.544
 4375SOL     OW13944   2.183   2.805   5.828
 4375SOL    HW113945   2.265   2.844   5.786
 4375SOL    HW213946   2.156   2.723   5.779
 4376SOL     OW13947   3.320   2.597   6.314
 4376SOL    HW113948   3.315   2.532   6.389
 4376SOL    HW213949   3.400   2.656   6.327
 4377SOL     OW13950   2.973   3.638   5.823
 4377SOL    HW113951   2.913   3.576   5.873
 4377SOL    HW213952   3.004   3.594   5.738
 4378SOL     OW13953   3.494   3.239   5.667
 4378SOL    HW113954   3.462   3.333   5.657
 4378SOL    HW213955   3.418   3.176   5.655
 4379SOL     OW13956   2.326   3.605   5.909
 4379SOL    HW113957   2.359   3.644   5.995
 4379SOL    HW213958   2.402   3.598   5.844
 4380SOL     OW13959   3.262   1.969   6.012
 4380SOL    HW113960   3.238   1.932   5.922
 4380SOL    HW213961   3.361   1.985   6.016
 4381SOL     OW13962   2.111   3.647   6.827
 4381SOL    HW113963   2.168   3.582   6.877
 4381SOL    HW213964   2.095   3.614   6.734
 4382SOL     OW13965   2.802   3.560   6.490
 4382SOL    HW113966   2.882   3.503   6.511
 4382SOL    HW213967   2.753   3.520   6.413
 4383SOL     OW13968   2.244   2.562   6.066
 4383SOL    HW113969   2.289   2.472   6.063
 4383SOL    HW213970   2.150   2.551   6.099
 4384SOL     OW13971   2.476   1.984   5.703
 4384SOL    HW113972   2.574   1.962   5.710
 4384SOL    HW213973   2.445   1.967   5.610
 4385SOL     OW13974   2.750   3.376   6.781
 4385SOL    HW113975   2.727   3.351   6.687
 4385SOL    HW213976   2.811   3.307   6.820
 4386SOL     OW13977   2.665   3.264   6.510
 4386SOL    HW113978   2.755   3.278   6.468
 4386SOL    HW213979   2.594   3.266   6.439
 4387SOL     OW13980   2.784   2.365   6.485
 4387SOL    HW113981   2.759   2.356   6.389
 4387SOL    HW213982   2.832   2.283   6.516
 4388SOL     OW13983   2.401   1.926   6.098
 4388SOL    HW113984   2.320   1.927   6.156
 4388SOL    HW213985   2.404   2.009   6.043
 4389SOL     OW13986   3.296   3.050   5.627
 4389SOL    HW113987   3.328   2.974   5.684
 4389SOL    HW213988   3.204   3.077   5.657
 4390SOL     OW13989   2.159   1.897   5.757
 4390SOL    HW113990   2.208   1.981   5.736
 4390SOL    HW213991   2.221   1.832   5.802
 4391SOL     OW13992   2.797   2.098   6.066
 4391SOL    HW113993   2.749   2.139   5.988
 4391SOL    HW213994   2.896   2.096   6.047
 4392SOL     OW13995   3.089   3.432   6.379
 4392SOL    HW113996   3.110   3.506   6.314
 4392SOL    HW213997   3.157   3.432   6.452
 4393SOL     OW13998   2.321   3.014   6.327
 4393SOL    HW113999   2.250   2.987   6.392
 4393SOL    HW214000   2.295   2.986   6.234
 4394SOL     OW14001   3.133   3.659   6.177
 4394SOL    HW114002   3.177   3.723   6.113
 4394SOL    HW214003   3.083   3.711   6.247
 4395SOL     OW14004   2.894   2.411   5.602
 4395SOL    HW114005   2.853   2.493   5.563
 4395SOL    HW214006   2.958   2.437   5.675
 4396SOL     OW14007   2.423   2.084   6.733
 4396SOL    HW114008   2.461   2.000   6.770
 4396SOL    HW214009   2.335   2.103   6.777
 4397SOL     OW14010   2.728   2.316   6.228
 4397SOL    HW114011   2.696   2.388   6.166
 4397SOL    HW214012   2.752   2.235   6.175
 4398SOL     OW14013   2.879   1.901   6.339
 4398SOL    HW114014   2.807   1.906   6.270
 4398SOL    HW214015   2.855   1.832   6.408
 4399SOL     OW14016   3.291   3.035   6.453
 4399SOL    HW114017   3.236   2.951   6.446
 4399SOL    HW214018   3.317   3.064   6.361
 4400SOL     OW14019   3.328   2.452   6.578
 4400SOL    HW114020   3.298   2.357   6.585
 4400SOL    HW214021   3.401   2.468   6.644
 4401SOL     OW14022   3.719   2.695   5.963
 4401SOL    HW114023   3.761   2.631   6.027
 4401SOL    HW214024   3.681   2.644   5.885
 4402SOL     OW14025   2.350   3.247   5.760
 4402SOL    HW114026   2.263   3.232   5.807
 4402SOL    HW214027   2.333   3.273   5.665
 4403SOL     OW14028   3.526   3.142   6.243
 4403SOL    HW114029   3.625   3.150   6.257
 4403SOL    HW214030   3.481   3.226   6.274
 4404SOL     OW14031   3.252   2.437   5.664
 4404SOL    HW114032   3.198   2.416   5.745
 4404SOL    HW214033   3.343   2.396   5.673
 4405SOL     OW14034   2.389   2.118   5.914
 4405SOL    HW114035   2.416   2.059   5.839
 4405SOL    HW214036   2.389   2.213   5.883
 4406SOL     OW14037   3.616   3.085   7.174
 4406SOL    HW114038   3.707   3.046   7.161
 4406SOL    HW214039   3.624   3.181   7.198
 4407SOL     OW14040   2.973   3.057   6.686
 4407SOL    HW114041   2.933   3.101   6.767
 4407SOL    HW214042   2.932   3.094   6.603
 4408SOL     OW14043   3.500   2.961   6.665
 4408SOL    HW114044   3.505   3.042   6.724
 4408SOL    HW214045   3.414   2.963   6.614
 4409SOL     OW14046   2.567   2.912   5.954
 4409SOL    HW114047   2.553   2.919   6.053
 4409SOL    HW214048   2.651   2.861   5.936
 4410SOL     OW14049   2.272   2.675   6.837
 4410SOL    HW114050   2.358   2.687   6.887
 4410SOL    HW214051   2.230   2.588   6.864
 4411SOL     OW14052   3.136   2.248   6.848
 4411SOL    HW114053   3.157   2.322   6.912
 4411SOL    HW214054   3.047   2.265   6.805
 4412SOL     OW14055   1.926   3.426   6.917
 4412SOL    HW114056   1.880   3.508   6.883
 4412SOL    HW214057   2.024   3.445   6.926
 4413SOL     OW14058   2.229   2.962   6.087
 4413SOL    HW114059   2.222   3.045   6.031
 4413SOL    HW214060   2.233   2.882   6.027
 4414SOL     OW14061   2.428   2.399   6.451
 4414SOL    HW114062   2.440   2.465   6.377
 4414SOL    HW214063   2.474   2.433   6.534
 4415SOL     OW14064   3.114   3.210   5.974
 4415SOL    HW114065   3.164   3.287   6.014
 4415SOL    HW214066   3.019   3.212   6.006
 4416SOL     OW14067   3.134   3.307   6.728
 4416SOL    HW114068   3.181   3.320   6.815
 4416SOL    HW214069   3.068   3.233   6.737
 4417SOL     OW14070   3.444   2.501   6.058
 4417SOL    HW114071   3.413   2.562   6.131
 4417SOL    HW214072   3.494   2.553   5.989
 4418SOL     OW14073   2.216   3.372   6.915
 4418SOL    HW114074   2.195   3.328   6.828
 4418SOL    HW214075   2.313   3.398   6.918
 4419SOL     OW14076   2.435   2.732   6.615
 4419SOL    HW114077   2.479   2.821   6.606
 4419SOL    HW214078   2.372   2.732   6.692
 4420SOL     OW14079   3.222   2.724   6.631
 4420SOL    HW114080   3.147   2.724   6.565
 4420SOL    HW214081   3.259   2.632   6.640
 4421SOL     OW14082   3.071   2.387   5.861
 4421SOL    HW114083   3.084   2.303   5.915
 4421SOL    HW214084   3.042   2.461   5.921
 4422SOL     OW14085   2.169   2.075   6.817
 4422SOL    HW114086   2.146   2.112   6.907
 4422SOL    HW214087   2.139   1.980   6.811
 4423SOL     OW14088   1.899   3.172   6.868
 4423SOL    HW114089   1.952   3.123   6.936
 4423SOL    HW214090   1.921   3.270   6.873
 4424SOL     OW14091   2.594   2.496   6.650
 4424SOL    HW114092   2.653   2.470   6.574
 4424SOL    HW214093   2.566   2.592   6.639
 4425SOL     OW14094   2.169   1.925   6.204
 4425SOL    HW114095   2.158   2.019   6.237
 4425SOL    HW214096   2.164   1.862   6.281
 4426SOL     OW14097   3.484   2.229   5.960
 4426SOL    HW114098   3.486   2.153   6.024
 4426SOL    HW214099   3.436   2.306   6.000
 4427SOL     OW14100   2.885   2.628   6.552
 4427SOL    HW114101   2.900   2.649   6.648
 4427SOL    HW214102   2.855   2.533   6.543
 4428SOL     OW14103   3.402   2.136   5.711
 4428SOL    HW114104   3.341   2.061   5.734
 4428SOL    HW214105   3.424   2.188   5.794
 4429SOL     OW14106   3.165   2.700   5.628
 4429SOL    HW114107   3.199   2.607   5.643
 4429SOL    HW214108   3.183   2.727   5.533
 4430SOL     OW14109   2.930   3.195   6.435
 4430SOL    HW114110   2.937   3.111   6.380
 4430SOL    HW214111   2.992   3.264   6.399
 4431SOL     OW14112   2.181   2.672   6.535
 4431SOL    HW114113   2.274   2.708   6.540
 4431SOL    HW214114   2.175   2.587   6.587
 4432SOL     OW14115   2.201   2.371   6.592
 4432SOL    HW114116   2.149   2.288   6.575
 4432SOL    HW214117   2.278   2.376   6.528
 4433SOL     OW14118   3.022   2.069   7.063
 4433SOL    HW114119   3.022   2.133   7.140
 4433SOL    HW214120   3.050   2.117   6.980
 4434SOL     OW14121   1.870   3.188   5.786
 4434SOL    HW114122   1.777   3.209   5.755
 4434SOL    HW214123   1.880   3.089   5.799
 4435SOL     OW14124   1.950   3.663   6.513
 4435SOL    HW114125   1.908   3.577   6.486
 4435SOL    HW214126   2.044   3.666   6.479
 4436SOL     OW14127   2.366   3.430   6.496
 4436SOL    HW114128   2.432   3.504   6.505
 4436SOL    HW214129   2.410   3.351   6.454
 4437SOL     OW14130   2.864   2.658   6.824
 4437SOL    HW114131   2.905   2.626   6.910
 4437SOL    HW214132   2.768   2.631   6.821
 4438SOL     OW14133   1.902   2.406   6.700
 4438SOL    HW114134   1.987   2.373   6.659
 4438SOL    HW214135   1.915   2.421   6.798
 4439SOL     OW14136   2.677   2.434   5.911
 4439SOL    HW114137   2.684   2.345   5.865
 4439SOL    HW214138   2.583   2.468   5.903
 4440SOL     OW14139   3.519   2.466   6.792
 4440SOL    HW114140   3.481   2.397   6.854
 4440SOL    HW214141   3.601   2.430   6.748
 4441SOL     OW14142   2.533   2.326   6.855
 4441SOL    HW114143   2.499   2.237   6.825
 4441SOL    HW214144   2.559   2.380   6.775
 4442SOL     OW14145   2.792   3.540   7.051
 4442SOL    HW114146   2.768   3.522   6.956
 4442SOL    HW214147   2.822   3.634   7.061
 4443SOL     OW14148   2.335   2.362   5.777
 4443SOL    HW114149   2.396   2.442   5.781
 4443SOL    HW214150   2.240   2.393   5.784
 4444SOL     OW14151   2.021   2.999   7.052
 4444SOL    HW114152   2.043   2.938   7.128
 4444SOL    HW214153   2.031   2.950   6.966
 4445SOL     OW14154   3.209   2.921   6.820
 4445SOL    HW114155   3.233   2.858   6.746
 4445SOL    HW214156   3.119   2.961   6.802
 4446SOL     OW14157   3.164   2.717   5.895
 4446SOL    HW114158   3.078   2.686   5.937
 4446SOL    HW214159   3.160   2.703   5.796
 4447SOL     OW14160   3.621   3.609   6.740
 4447SOL    HW114161   3.682   3.639   6.667
 4447SOL    HW214162   3.583   3.520   6.718
 4448SOL     OW14163   3.114   3.593   6.714
 4448SOL    HW114164   3.198   3.598   6.660
 4448SOL    HW214165   3.091   3.497   6.732
 4449SOL     OW14166   1.945   3.120   6.608
 4449SOL    HW114167   1.940   3.119   6.708
 4449SOL    HW214168   1.862   3.079   6.570
 4450SOL     OW14169   3.588   1.997   6.109
 4450SOL    HW114170   3.661   1.980   6.042
 4450SOL    HW214171   3.557   1.910   6.147
 4451SOL     OW14172   3.250   3.435   6.063
 4451SOL    HW114173   3.317   3.447   5.989
 4451SOL    HW214174   3.210   3.524   6.086
 4452SOL     OW14175   3.142   2.789   6.258
 4452SOL    HW114176   3.202   2.708   6.260
 4452SOL    HW214177   3.182   2.858   6.198
 4453SOL     OW14178   2.534   3.478   5.740
 4453SOL    HW114179   2.543   3.488   5.641
 4453SOL    HW214180   2.494   3.389   5.761
 4454SOL     OW14181   3.703   2.037   6.549
 4454SOL    HW114182   3.742   1.952   6.513
 4454SOL    HW214183   3.605   2.039   6.530
 4455SOL     OW14184   2.125   2.188   6.306
 4455SOL    HW114185   2.046   2.239   6.272
 4455SOL    HW214186   2.116   2.173   6.404
 4456SOL     OW14187   3.056   3.474   5.617
 4456SOL    HW114188   3.062   3.381   5.654
 4456SOL    HW214189   2.997   3.474   5.537
 4457SOL     OW14190   2.684   2.864   6.958
 4457SOL    HW114191   2.724   2.863   6.866
 4457SOL    HW214192   2.694   2.956   6.998
 4458SOL     OW14193   2.778   2.772   5.877
 4458SOL    HW114194   2.841   2.810   5.809
 4458SOL    HW214195   2.818   2.689   5.916
 4459SOL     OW14196   3.366   3.469   5.630
 4459SOL    HW114197   3.274   3.506   5.637
 4459SOL    HW214198   3.404   3.489   5.540
 4460SOL     OW14199   3.476   3.154   6.875
 4460SOL    HW114200   3.536   3.157   6.955
 4460SOL    HW214201   3.401   3.218   6.888
 4461SOL     OW14202   2.901   2.960   6.282
 4461SOL    HW114203   2.831   2.913   6.336
 4461SOL    HW214204   2.960   2.892   6.239
 4462SOL     OW14205   2.876   2.098   6.557
 4462SOL    HW114206   2.868   2.062   6.464
 4462SOL    HW214207   2.874   2.022   6.622
 4463SOL     OW14208   2.452   3.349   6.077
 4463SOL    HW114209   2.494   3.291   6.007
 4463SOL    HW214210   2.408   3.428   6.033
 4464SOL     OW14211   3.571   2.247   6.967
 4464SOL    HW114212   3.644   2.316   6.971
 4464SOL    HW214213   3.599   2.172   6.908
 4465SOL     OW14214   2.117   3.210   5.876
 4465SOL    HW114215   2.021   3.211   5.849
 4465SOL    HW214216   2.129   3.263   5.960
 4466SOL     OW14217   2.534   2.065   7.075
 4466SOL    HW114218   2.624   2.049   7.035
 4466SOL    HW214219   2.542   2.070   7.174
 4467SOL     OW14220   1.937   2.207   5.619
 4467SOL    HW114221   1.845   2.179   5.590
 4467SOL    HW214222   1.968   2.284   5.563
 4468SOL     OW14223   1.934   2.028   5.904
 4468SOL    HW114224   1.917   2.111   5.850
 4468SOL    HW214225   2.024   1.991   5.882
 4469SOL     OW14226   3.045   3.197   5.705
 4469SOL    HW114227   2.946   3.186   5.707
 4469SOL    HW214228   3.079   3.212   5.798
 4470SOL     OW14229   3.355   3.629   6.545
 4470SOL    HW114230   3.388   3.693   6.476
 4470SOL    HW214231   3.421   3.623   6.620
 4471SOL     OW14232   3.312   3.082   7.219
 4471SOL    HW114233   3.303   3.072   7.318
 4471SOL    HW214234   3.408   3.075   7.193
 4472SOL     OW14235   2.252   3.603   7.146
 4472SOL    HW114236   2.161   3.644   7.144
 4472SOL    HW214237   2.245   3.509   7.178
 4473SOL     OW14238   3.536   2.745   6.840
 4473SOL    HW114239   3.509   2.656   6.803
 4473SOL    HW214240   3.537   2.813   6.767
 4474SOL     OW14241   3.087   2.187   6.035
 4474SOL    HW114242   3.152   2.113   6.024
 4474SOL    HW214243   3.107   2.237   6.119
 4475SOL     OW14244   2.456   2.607   6.238
 4475SOL    HW114245   2.506   2.692   6.219
 4475SOL    HW214246   2.368   2.609   6.190
 4476SOL     OW14247   3.592   2.796   7.103
 4476SOL    HW114248   3.630   2.887   7.118
 4476SOL    HW214249   3.584   2.779   7.004
 4477SOL     OW14250   2.721   3.236   5.602
 4477SOL    HW114251   2.675   3.251   5.690
 4477SOL    HW214252   2.765   3.321   5.572
 4478SOL     OW14253   2.523   3.652   6.539
 4478SOL    HW114254   2.477   3.740   6.526
 4478SOL    HW214255   2.622   3.664   6.532
 4479SOL     OW14256   2.721   2.818   6.447
 4479SOL    HW114257   2.775   2.749   6.495
 4479SOL    HW214258   2.689   2.887   6.513
 4480SOL     OW14259   2.945   2.846   5.673
 4480SOL    HW114260   2.922   2.899   5.591
 4480SOL    HW214261   3.026   2.790   5.654
 4481SOL     OW14262   3.723   3.431   6.437
 4481SOL    HW114263   3.652   3.419   6.367
 4481SOL    HW214264   3.724   3.352   6.497
 4482SOL     OW14265   1.941   3.102   6.239
 4482SOL    HW114266   1.940   3.055   6.327
 4482SOL    HW214267   2.023   3.074   6.188
 4483SOL     OW14268   3.686   2.054   6.813
 4483SOL    HW114269   3.682   1.964   6.857
 4483SOL    HW214270   3.689   2.043   6.714
 4484SOL     OW14271   2.290   2.286   6.106
 4484SOL    HW114272   2.320   2.214   6.044
 4484SOL    HW214273   2.251   2.246   6.189
 4485SOL     OW14274   3.567   3.349   6.690
 4485SOL    HW114275   3.474   3.324   6.663
 4485SOL    HW214276   3.593   3.299   6.772
 4486SOL     OW14277   2.179   2.409   6.866
 4486SOL    HW114278   2.217   2.350   6.938
 4486SOL    HW214279   2.219   2.383   6.778
 4487SOL     OW14280   2.674   3.448   6.273
 4487SOL    HW114281   2.706   3.458   6.179
 4487SOL    HW214282   2.595   3.386   6.275
 4488SOL     OW14283   3.286   2.076   6.698
 4488SOL    HW114284   3.338   2.011   6.753
 4488SOL    HW214285   3.237   2.139   6.759
 4489SOL     OW14286   2.863   1.896   6.740
 4489SOL    HW114287   2.800   1.824   6.709
 4489SOL    HW214288   2.956   1.860   6.740
 4490SOL     OW14289   2.632   3.192   5.887
 4490SOL    HW114290   2.586   3.105   5.904
 4490SOL    HW214291   2.723   3.189   5.928
 4491SOL     OW14292   2.480   3.429   6.870
 4491SOL    HW114293   2.475   3.511   6.927
 4491SOL    HW214294   2.569   3.426   6.825
 4492SOL     OW14295   3.214   1.914   5.754
 4492SOL    HW114296   3.249   1.873   5.670
 4492SOL    HW214297   3.124   1.876   5.774
 4493SOL     OW14298   3.162   2.315   6.277
 4493SOL    HW114299   3.103   2.395   6.281
 4493SOL    HW214300   3.177   2.280   6.370
 4494SOL     OW14301   3.455   2.083   6.468
 4494SOL    HW114302   3.371   2.082   6.522
 4494SOL    HW214303   3.457   2.166   6.412
 4495SOL     OW14304   1.901   2.939   5.886
 4495SOL    HW114305   2.000   2.928   5.877
 4495SOL    HW214306   1.861   2.853   5.918
 4496SOL     OW14307   2.737   3.508   5.923
 4496SOL    HW114308   2.660   3.473   5.869
 4496SOL    HW214309   2.705   3.579   5.985
 4497SOL     OW14310   2.092   4.352   0.113
 4497SOL    HW114311   1.999   4.350   0.150
 4497SOL    HW214312   2.093   4.313   0.021
 4498SOL     OW14313   2.087   3.999   0.996
 4498SOL    HW114314   2.122   3.982   1.088
 4498SOL    HW214315   1.999   3.954   0.984
 4499SOL     OW14316   1.881   4.092   0.647
 4499SOL    HW114317   1.799   4.135   0.686
 4499SOL    HW214318   1.853   4.019   0.584
 4500SOL     OW14319   2.431   4.999   1.165
 4500SOL    HW114320   2.338   4.992   1.128
 4500SOL    HW214321   2.442   5.088   1.209
 4501SOL     OW14322   3.417   5.235   0.703
 4501SOL    HW114323   3.360   5.219   0.784
 4501SOL    HW214324   3.358   5.245   0.623
 4502SOL     OW14325   2.997   4.427   0.717
 4502SOL    HW114326   3.054   4.505   0.692
 4502SOL    HW214327   2.937   4.453   0.793
 4503SOL     OW14328   3.617   4.331   0.231
 4503SOL    HW114329   3.605   4.318   0.132
 4503SOL    HW214330   3.587   4.250   0.280
 4504SOL     OW14331   2.630   4.868   1.023
 4504SOL    HW114332   2.552   4.885   1.083
 4504SOL    HW214333   2.664   4.955   0.987
 4505SOL     OW14334   2.712   4.522   1.823
 4505SOL    HW114335   2.708   4.598   1.888
 4505SOL    HW214336   2.734   4.558   1.732
 4506SOL     OW14337   2.547   4.736   0.665
 4506SOL    HW114338   2.616   4.720   0.735
 4506SOL    HW214339   2.474   4.793   0.703
 4507SOL     OW14340   2.548   4.885   1.803
 4507SOL    HW114341   2.608   4.964   1.817
 4507SOL    HW214342   2.462   4.916   1.762
 4508SOL     OW14343   2.197   5.159   1.061
 4508SOL    HW114344   2.119   5.128   1.008
 4508SOL    HW214345   2.255   5.217   1.004
 4509SOL     OW14346   3.322   5.229   1.339
 4509SOL    HW114347   3.346   5.323   1.365
 4509SOL    HW214348   3.306   5.175   1.421
 4510SOL     OW14349   2.300   4.116   1.499
 4510SOL    HW114350   2.382   4.060   1.508
 4510SOL    HW214351   2.219   4.058   1.503
 4511SOL     OW14352   3.465   4.171   0.737
 4511SOL    HW114353   3.391   4.217   0.687
 4511SOL    HW214354   3.516   4.239   0.790
 4512SOL     OW14355   2.093   5.437   0.483
 4512SOL    HW114356   2.127   5.514   0.537
 4512SOL    HW214357   2.137   5.437   0.393
 4513SOL     OW14358   2.989   5.065   1.690
 4513SOL    HW114359   3.036   5.065   1.778
 4513SOL    HW214360   2.941   4.978   1.679
 4514SOL     OW14361   2.092   5.158   0.538
 4514SOL    HW114362   2.066   5.254   0.538
 4514SOL    HW214363   2.021   5.104   0.583
 4515SOL     OW14364   2.102   4.815   0.886
 4515SOL    HW114365   2.116   4.731   0.938
 4515SOL    HW214366   2.047   4.879   0.941
 4516SOL     OW14367   2.482   5.510   1.439
 4516SOL    HW114368   2.390   5.493   1.474
 4516SOL    HW214369   2.510   5.602   1.465
 4517SOL     OW14370   2.468   4.688   0.123
 4517SOL    HW114371   2.475   4.772   0.069
 4517SOL    HW214372   2.514   4.701   0.211
 4518SOL     OW14373   3.456   3.838   1.480
 4518SOL    HW114374   3.438   3.905   1.408
 4518SOL    HW214375   3.453   3.884   1.569
 4519SOL     OW14376   1.984   4.367   0.563
 4519SOL    HW114377   1.939   4.279   0.580
 4519SOL    HW214378   1.983   4.421   0.647
 4520SOL     OW14379   3.704   5.491   0.359
 4520SOL    HW114380   3.758   5.462   0.439
 4520SOL    HW214381   3.734   5.581   0.330
 4521SOL     OW14382   3.551   4.646   0.612
 4521SOL    HW114383   3.646   4.617   0.620
 4521SOL    HW214384   3.543   4.711   0.537
 4522SOL     OW14385   3.503   4.832   0.432
 4522SOL    HW114386   3.589   4.834   0.380
 4522SOL    HW214387   3.517   4.879   0.520
 4523SOL     OW14388   1.975   4.461   1.597
 4523SOL    HW114389   2.063   4.448   1.642
 4523SOL    HW214390   1.962   4.558   1.575
 4524SOL     OW14391   2.475   5.089   0.726
 4524SOL    HW114392   2.426   5.002   0.735
 4524SOL    HW214393   2.452   5.132   0.639
 4525SOL     OW14394   3.155   4.952   1.423
 4525SOL    HW114395   3.192   4.879   1.365
 4525SOL    HW214396   3.207   4.957   1.508
 4526SOL     OW14397   2.671   3.728   0.502
 4526SOL    HW114398   2.711   3.819   0.493
 4526SOL    HW214399   2.571   3.736   0.508
 4527SOL     OW14400   2.059   4.700   1.264
 4527SOL    HW114401   2.148   4.655   1.250
 4527SOL    HW214402   1.986   4.635   1.245
 4528SOL     OW14403   3.387   4.723   0.190
 4528SOL    HW114404   3.324   4.647   0.203
 4528SOL    HW214405   3.435   4.741   0.276
 4529SOL     OW14406   3.049   5.516   1.616
 4529SOL    HW114407   3.073   5.576   1.540
 4529SOL    HW214408   3.056   5.421   1.586
 4530SOL     OW14409   2.179   3.975   1.801
 4530SOL    HW114410   2.250   4.046   1.807
 4530SOL    HW214411   2.091   4.014   1.829
 4531SOL     OW14412   3.328   5.141   0.953
 4531SOL    HW114413   3.269   5.147   1.033
 4531SOL    HW214414   3.313   5.053   0.907
 4532SOL     OW14415   3.529   5.438   0.572
 4532SOL    HW114416   3.488   5.415   0.484
 4532SOL    HW214417   3.511   5.364   0.637
 4533SOL     OW14418   2.460   4.453   0.270
 4533SOL    HW114419   2.484   4.522   0.202
 4533SOL    HW214420   2.382   4.486   0.324
 4534SOL     OW14421   3.143   4.069   0.944
 4534SOL    HW114422   3.057   4.019   0.931
 4534SOL    HW214423   3.205   4.015   1.000
 4535SOL     OW14424   3.438   5.386   0.307
 4535SOL    HW114425   3.527   5.432   0.310
 4535SOL    HW214426   3.417   5.362   0.212
 4536SOL     OW14427   2.669   4.329   1.465
 4536SOL    HW114428   2.622   4.326   1.554
 4536SOL    HW214429   2.618   4.274   1.399
 4537SOL     OW14430   3.256   4.193   1.674
 4537SOL    HW114431   3.236   4.236   1.762
 4537SOL    HW214432   3.334   4.131   1.683
 4538SOL     OW14433   2.835   4.614   1.572
 4538SOL    HW114434   2.881   4.530   1.543
 4538SOL    HW214435   2.779   4.648   1.497
 4539SOL     OW14436   2.853   4.134   1.242
 4539SOL    HW114437   2.776   4.168   1.296
 4539SOL    HW214438   2.819   4.083   1.163
 4540SOL     OW14439   2.903   4.425   0.429
 4540SOL    HW114440   2.929   4.421   0.525
 4540SOL    HW214441   2.818   4.374   0.415
 4541SOL     OW14442   1.938   4.535   0.789
 4541SOL    HW114443   2.037   4.523   0.798
 4541SOL    HW214444   1.914   4.630   0.810
 4542SOL     OW14445   1.992   5.545   1.571
 4542SOL    HW114446   1.982   5.530   1.670
 4542SOL    HW214447   1.906   5.581   1.535
 4543SOL     OW14448   2.727   4.072   0.195
 4543SOL    HW114449   2.786   4.135   0.146
 4543SOL    HW214450   2.746   3.978   0.166
 4544SOL     OW14451   3.581   4.309   1.831
 4544SOL    HW114452   3.555   4.398   1.795
 4544SOL    HW214453   3.579   4.241   1.758
 4545SOL     OW14454   3.224   4.868   0.545
 4545SOL    HW114455   3.307   4.839   0.497
 4545SOL    HW214456   3.175   4.935   0.489
 4546SOL     OW14457   2.412   3.920   0.885
 4546SOL    HW114458   2.407   3.915   0.985
 4546SOL    HW214459   2.414   4.016   0.856
 4547SOL     OW14460   2.870   5.180   0.477
 4547SOL    HW114461   2.824   5.252   0.425
 4547SOL    HW214462   2.866   5.200   0.575
 4548SOL     OW14463   2.213   5.525   0.853
 4548SOL    HW114464   2.263   5.439   0.859
 4548SOL    HW214465   2.278   5.602   0.850
 4549SOL     OW14466   3.657   4.790   0.873
 4549SOL    HW114467   3.595   4.775   0.797
 4549SOL    HW214468   3.605   4.801   0.958
 4550SOL     OW14469   3.089   5.274   1.506
 4550SOL    HW114470   3.095   5.197   1.570
 4550SOL    HW214471   3.037   5.248   1.426
 4551SOL     OW14472   2.183   4.667   0.242
 4551SOL    HW114473   2.265   4.706   0.200
 4551SOL    HW214474   2.156   4.585   0.193
 4552SOL     OW14475   3.320   4.459   0.728
 4552SOL    HW114476   3.315   4.394   0.803
 4552SOL    HW214477   3.400   4.518   0.741
 4553SOL     OW14478   2.323   4.990   1.727
 4553SOL    HW114479   2.273   4.991   1.641
 4553SOL    HW214480   2.260   4.972   1.803
 4554SOL     OW14481   2.973   5.500   0.237
 4554SOL    HW114482   2.913   5.438   0.287
 4554SOL    HW214483   3.004   5.456   0.152
 4555SOL     OW14484   2.064   4.009   1.498
 4555SOL    HW114485   1.984   4.069   1.485
 4555SOL    HW214486   2.054   3.960   1.584
 4556SOL     OW14487   3.494   5.101   0.081
 4556SOL    HW114488   3.462   5.195   0.071
 4556SOL    HW214489   3.418   5.038   0.069
 4557SOL     OW14490   2.326   5.467   0.323
 4557SOL    HW114491   2.359   5.506   0.409
 4557SOL    HW214492   2.402   5.460   0.258
 4558SOL     OW14493   2.111   5.509   1.241
 4558SOL    HW114494   2.168   5.444   1.291
 4558SOL    HW214495   2.095   5.476   1.148
 4559SOL     OW14496   2.802   5.422   0.904
 4559SOL    HW114497   2.882   5.365   0.925
 4559SOL    HW214498   2.753   5.382   0.827
 4560SOL     OW14499   2.244   4.424   0.480
 4560SOL    HW114500   2.289   4.334   0.477
 4560SOL    HW214501   2.150   4.413   0.513
 4561SOL     OW14502   3.409   3.946   1.729
 4561SOL    HW114503   3.404   3.983   1.821
 4561SOL    HW214504   3.337   3.877   1.717
 4562SOL     OW14505   2.643   3.988   1.749
 4562SOL    HW114506   2.710   3.927   1.792
 4562SOL    HW214507   2.570   4.007   1.814
 4563SOL     OW14508   2.750   5.238   1.195
 4563SOL    HW114509   2.727   5.213   1.101
 4563SOL    HW214510   2.811   5.169   1.234
 4564SOL     OW14511   3.213   4.314   1.433
 4564SOL    HW114512   3.241   4.271   1.518
 4564SOL    HW214513   3.238   4.410   1.434
 4565SOL     OW14514   2.665   5.126   0.924
 4565SOL    HW114515   2.755   5.140   0.882
 4565SOL    HW214516   2.594   5.128   0.853
 4566SOL     OW14517   2.784   4.227   0.899
 4566SOL    HW114518   2.759   4.218   0.803
 4566SOL    HW214519   2.832   4.145   0.930
 4567SOL     OW14520   2.401   3.788   0.512
 4567SOL    HW114521   2.320   3.789   0.570
 4567SOL    HW214522   2.404   3.871   0.457
 4568SOL     OW14523   3.296   4.912   0.041
 4568SOL    HW114524   3.328   4.836   0.098
 4568SOL    HW214525   3.204   4.939   0.071
 4569SOL     OW14526   2.797   3.960   0.480
 4569SOL    HW114527   2.749   4.001   0.402
 4569SOL    HW214528   2.896   3.958   0.461
 4570SOL     OW14529   2.938   4.407   1.464
 4570SOL    HW114530   2.858   4.346   1.467
 4570SOL    HW214531   3.019   4.354   1.440
 4571SOL     OW14532   3.089   5.294   0.793
 4571SOL    HW114533   3.110   5.368   0.728
 4571SOL    HW214534   3.157   5.294   0.866
 4572SOL     OW14535   2.321   4.876   0.741
 4572SOL    HW114536   2.250   4.849   0.806
 4572SOL    HW214537   2.295   4.848   0.648
 4573SOL     OW14538   3.133   5.521   0.591
 4573SOL    HW114539   3.177   5.585   0.527
 4573SOL    HW214540   3.083   5.573   0.661
 4574SOL     OW14541   2.894   4.273   0.016
 4574SOL    HW114542   2.853   4.355  -0.023
 4574SOL    HW214543   2.958   4.299   0.089
 4575SOL     OW14544   1.940   4.280   1.386
 4575SOL    HW114545   2.032   4.279   1.345
 4575SOL    HW214546   1.934   4.354   1.453
 4576SOL     OW14547   2.423   3.946   1.147
 4576SOL    HW114548   2.461   3.862   1.184
 4576SOL    HW214549   2.335   3.965   1.191
 4577SOL     OW14550   2.728   4.178   0.642
 4577SOL    HW114551   2.696   4.250   0.580
 4577SOL    HW214552   2.752   4.097   0.589
 4578SOL     OW14553   2.879   3.763   0.753
 4578SOL    HW114554   2.807   3.768   0.684
 4578SOL    HW214555   2.855   3.694   0.822
 4579SOL     OW14556   3.291   4.897   0.867
 4579SOL    HW114557   3.236   4.813   0.860
 4579SOL    HW214558   3.317   4.926   0.775
 4580SOL     OW14559   3.328   4.314   0.992
 4580SOL    HW114560   3.298   4.219   0.999
 4580SOL    HW214561   3.401   4.330   1.058
 4581SOL     OW14562   3.719   4.557   0.377
 4581SOL    HW114563   3.761   4.493   0.441
 4581SOL    HW214564   3.681   4.506   0.299
 4582SOL     OW14565   2.350   5.109   0.174
 4582SOL    HW114566   2.263   5.094   0.221
 4582SOL    HW214567   2.333   5.135   0.079
 4583SOL     OW14568   3.526   5.004   0.657
 4583SOL    HW114569   3.625   5.012   0.671
 4583SOL    HW214570   3.481   5.088   0.688
 4584SOL     OW14571   3.252   4.299   0.078
 4584SOL    HW114572   3.198   4.278   0.159
 4584SOL    HW214573   3.343   4.258   0.087
 4585SOL     OW14574   2.389   3.980   0.328
 4585SOL    HW114575   2.416   3.921   0.253
 4585SOL    HW214576   2.389   4.075   0.297
 4586SOL     OW14577   3.616   4.947   1.588
 4586SOL    HW114578   3.707   4.908   1.575
 4586SOL    HW214579   3.624   5.043   1.612
 4587SOL     OW14580   2.926   5.071   1.340
 4587SOL    HW114581   2.846   5.048   1.395
 4587SOL    HW214582   3.009   5.045   1.389
 4588SOL     OW14583   3.454   5.353   1.625
 4588SOL    HW114584   3.481   5.387   1.535
 4588SOL    HW214585   3.533   5.315   1.671
 4589SOL     OW14586   2.973   4.919   1.100
 4589SOL    HW114587   2.933   4.963   1.181
 4589SOL    HW214588   2.932   4.956   1.017
 4590SOL     OW14589   3.500   4.823   1.079
 4590SOL    HW114590   3.505   4.904   1.138
 4590SOL    HW214591   3.414   4.825   1.028
 4591SOL     OW14592   2.777   3.813   1.402
 4591SOL    HW114593   2.802   3.793   1.307
 4591SOL    HW214594   2.849   3.869   1.444
 4592SOL     OW14595   2.842   4.840   1.719
 4592SOL    HW114596   2.743   4.846   1.729
 4592SOL    HW214597   2.865   4.760   1.663
 4593SOL     OW14598   2.567   4.774   0.368
 4593SOL    HW114599   2.553   4.781   0.467
 4593SOL    HW214600   2.651   4.723   0.350
 4594SOL     OW14601   2.272   4.537   1.251
 4594SOL    HW114602   2.358   4.549   1.301
 4594SOL    HW214603   2.230   4.450   1.278
 4595SOL     OW14604   3.136   4.110   1.262
 4595SOL    HW114605   3.157   4.184   1.326
 4595SOL    HW214606   3.047   4.127   1.219
 4596SOL     OW14607   1.926   5.288   1.331
 4596SOL    HW114608   1.880   5.370   1.297
 4596SOL    HW214609   2.024   5.307   1.340
 4597SOL     OW14610   2.229   4.824   0.501
 4597SOL    HW114611   2.222   4.907   0.445
 4597SOL    HW214612   2.233   4.744   0.441
 4598SOL     OW14613   2.428   4.261   0.865
 4598SOL    HW114614   2.440   4.327   0.791
 4598SOL    HW214615   2.474   4.295   0.948
 4599SOL     OW14616   3.114   5.072   0.388
 4599SOL    HW114617   3.164   5.149   0.428
 4599SOL    HW214618   3.019   5.074   0.420
 4600SOL     OW14619   3.134   5.169   1.142
 4600SOL    HW114620   3.181   5.182   1.229
 4600SOL    HW214621   3.068   5.095   1.151
 4601SOL     OW14622   3.444   4.363   0.472
 4601SOL    HW114623   3.413   4.424   0.545
 4601SOL    HW214624   3.494   4.415   0.403
 4602SOL     OW14625   2.216   5.234   1.329
 4602SOL    HW114626   2.195   5.190   1.242
 4602SOL    HW214627   2.313   5.260   1.332
 4603SOL     OW14628   2.264   4.475   1.598
 4603SOL    HW114629   2.332   4.530   1.551
 4603SOL    HW214630   2.304   4.387   1.625
 4604SOL     OW14631   3.449   4.503   1.670
 4604SOL    HW114632   3.357   4.541   1.665
 4604SOL    HW214633   3.509   4.550   1.605
 4605SOL     OW14634   2.875   3.829   1.770
 4605SOL    HW114635   2.881   3.914   1.718
 4605SOL    HW214636   2.907   3.753   1.713
 4606SOL     OW14637   2.366   3.774   1.740
 4606SOL    HW114638   2.324   3.717   1.670
 4606SOL    HW214639   2.300   3.843   1.772
 4607SOL     OW14640   2.435   4.594   1.029
 4607SOL    HW114641   2.479   4.683   1.020
 4607SOL    HW214642   2.372   4.594   1.106
 4608SOL     OW14643   3.222   4.586   1.045
 4608SOL    HW114644   3.147   4.586   0.979
 4608SOL    HW214645   3.259   4.494   1.054
 4609SOL     OW14646   3.071   4.249   0.275
 4609SOL    HW114647   3.084   4.165   0.329
 4609SOL    HW214648   3.042   4.323   0.335
 4610SOL     OW14649   2.169   3.937   1.231
 4610SOL    HW114650   2.146   3.974   1.321
 4610SOL    HW214651   2.139   3.842   1.225
 4611SOL     OW14652   1.899   5.034   1.282
 4611SOL    HW114653   1.952   4.985   1.350
 4611SOL    HW214654   1.921   5.132   1.287
 4612SOL     OW14655   2.594   4.358   1.064
 4612SOL    HW114656   2.653   4.332   0.988
 4612SOL    HW214657   2.566   4.454   1.053
 4613SOL     OW14658   3.590   4.659   1.854
 4613SOL    HW114659   3.544   4.652   1.765
 4613SOL    HW214660   3.528   4.703   1.920
 4614SOL     OW14661   2.169   3.787   0.618
 4614SOL    HW114662   2.158   3.881   0.651
 4614SOL    HW214663   2.164   3.724   0.695
 4615SOL     OW14664   3.484   4.091   0.374
 4615SOL    HW114665   3.486   4.015   0.438
 4615SOL    HW214666   3.436   4.168   0.414
 4616SOL     OW14667   2.885   4.490   0.966
 4616SOL    HW114668   2.900   4.511   1.062
 4616SOL    HW214669   2.855   4.395   0.957
 4617SOL     OW14670   2.842   5.297   1.700
 4617SOL    HW114671   2.822   5.341   1.612
 4617SOL    HW214672   2.881   5.206   1.684
 4618SOL     OW14673   3.721   5.242   1.605
 4618SOL    HW114674   3.735   5.269   1.510
 4618SOL    HW214675   3.804   5.264   1.658
 4619SOL     OW14676   2.212   4.622   1.804
 4619SOL    HW114677   2.288   4.666   1.852
 4619SOL    HW214678   2.247   4.575   1.722
 4620SOL     OW14679   3.402   3.998   0.125
 4620SOL    HW114680   3.341   3.923   0.148
 4620SOL    HW214681   3.424   4.050   0.208
 4621SOL     OW14682   3.165   4.562   0.042
 4621SOL    HW114683   3.199   4.469   0.057
 4621SOL    HW214684   3.183   4.589  -0.053
 4622SOL     OW14685   2.930   5.057   0.849
 4622SOL    HW114686   2.937   4.973   0.794
 4622SOL    HW214687   2.992   5.126   0.813
 4623SOL     OW14688   2.181   4.534   0.949
 4623SOL    HW114689   2.274   4.570   0.954
 4623SOL    HW214690   2.175   4.449   1.001
 4624SOL     OW14691   2.201   4.233   1.006
 4624SOL    HW114692   2.149   4.150   0.989
 4624SOL    HW214693   2.278   4.238   0.942
 4625SOL     OW14694   3.000   4.104   1.678
 4625SOL    HW114695   2.955   4.167   1.742
 4625SOL    HW214696   3.093   4.135   1.661
 4626SOL     OW14697   3.022   3.931   1.477
 4626SOL    HW114698   3.022   3.995   1.554
 4626SOL    HW214699   3.050   3.979   1.394
 4627SOL     OW14700   1.950   5.525   0.927
 4627SOL    HW114701   1.908   5.439   0.900
 4627SOL    HW214702   2.044   5.528   0.893
 4628SOL     OW14703   2.366   5.292   0.910
 4628SOL    HW114704   2.432   5.366   0.919
 4628SOL    HW214705   2.410   5.213   0.868
 4629SOL     OW14706   2.864   4.520   1.238
 4629SOL    HW114707   2.905   4.488   1.324
 4629SOL    HW214708   2.768   4.493   1.235
 4630SOL     OW14709   1.902   4.268   1.114
 4630SOL    HW114710   1.987   4.235   1.073
 4630SOL    HW214711   1.915   4.283   1.212
 4631SOL     OW14712   2.051   4.244   1.722
 4631SOL    HW114713   2.110   4.204   1.652
 4631SOL    HW214714   1.993   4.315   1.681
 4632SOL     OW14715   3.231   4.674   1.660
 4632SOL    HW114716   3.270   4.763   1.680
 4632SOL    HW214717   3.241   4.654   1.563
 4633SOL     OW14718   2.677   4.296   0.325
 4633SOL    HW114719   2.684   4.207   0.279
 4633SOL    HW214720   2.583   4.330   0.317
 4634SOL     OW14721   3.519   4.328   1.206
 4634SOL    HW114722   3.481   4.259   1.268
 4634SOL    HW214723   3.601   4.292   1.162
 4635SOL     OW14724   2.114   5.288   1.744
 4635SOL    HW114725   2.084   5.345   1.820
 4635SOL    HW214726   2.107   5.191   1.770
 4636SOL     OW14727   2.533   4.188   1.269
 4636SOL    HW114728   2.499   4.099   1.239
 4636SOL    HW214729   2.559   4.242   1.189
 4637SOL     OW14730   2.792   5.402   1.465
 4637SOL    HW114731   2.768   5.384   1.370
 4637SOL    HW214732   2.822   5.496   1.475
 4638SOL     OW14733   2.335   4.224   0.191
 4638SOL    HW114734   2.396   4.304   0.195
 4638SOL    HW214735   2.240   4.255   0.198
 4639SOL     OW14736   2.021   4.861   1.466
 4639SOL    HW114737   2.043   4.800   1.542
 4639SOL    HW214738   2.031   4.812   1.380
 4640SOL     OW14739   3.209   4.783   1.234
 4640SOL    HW114740   3.233   4.720   1.160
 4640SOL    HW214741   3.119   4.823   1.216
 4641SOL     OW14742   3.164   4.579   0.309
 4641SOL    HW114743   3.078   4.548   0.351
 4641SOL    HW214744   3.160   4.565   0.210
 4642SOL     OW14745   3.621   5.471   1.154
 4642SOL    HW114746   3.682   5.501   1.081
 4642SOL    HW214747   3.583   5.382   1.132
 4643SOL     OW14748   3.114   5.455   1.128
 4643SOL    HW114749   3.198   5.460   1.074
 4643SOL    HW214750   3.091   5.359   1.146
 4644SOL     OW14751   1.945   4.982   1.022
 4644SOL    HW114752   1.940   4.981   1.122
 4644SOL    HW214753   1.862   4.941   0.984
 4645SOL     OW14754   2.550   5.386   1.716
 4645SOL    HW114755   2.494   5.467   1.725
 4645SOL    HW214756   2.602   5.390   1.630
 4646SOL     OW14757   2.765   3.810   0.133
 4646SOL    HW114758   2.816   3.811   0.047
 4646SOL    HW214759   2.821   3.768   0.204
 4647SOL     OW14760   3.588   3.859   0.523
 4647SOL    HW114761   3.661   3.842   0.456
 4647SOL    HW214762   3.557   3.772   0.561
 4648SOL     OW14763   3.250   5.297   0.477
 4648SOL    HW114764   3.317   5.309   0.403
 4648SOL    HW214765   3.210   5.386   0.500
 4649SOL     OW14766   1.992   5.518   1.851
 4649SOL    HW114767   1.951   5.444   1.904
 4649SOL    HW214768   2.056   5.569   1.909
 4650SOL     OW14769   3.142   4.651   0.672
 4650SOL    HW114770   3.202   4.570   0.674
 4650SOL    HW214771   3.182   4.720   0.612
 4651SOL     OW14772   2.692   4.997   1.422
 4651SOL    HW114773   2.687   5.030   1.517
 4651SOL    HW214774   2.606   5.016   1.376
 4652SOL     OW14775   2.534   5.340   0.154
 4652SOL    HW114776   2.543   5.350   0.055
 4652SOL    HW214777   2.494   5.251   0.175
 4653SOL     OW14778   3.512   5.444   1.394
 4653SOL    HW114779   3.565   5.454   1.310
 4653SOL    HW214780   3.485   5.534   1.428
 4654SOL     OW14781   3.703   3.899   0.963
 4654SOL    HW114782   3.742   3.814   0.927
 4654SOL    HW214783   3.605   3.901   0.944
 4655SOL     OW14784   2.125   4.050   0.720
 4655SOL    HW114785   2.046   4.101   0.686
 4655SOL    HW214786   2.116   4.035   0.818
 4656SOL     OW14787   3.056   5.336   0.031
 4656SOL    HW114788   3.062   5.243   0.068
 4656SOL    HW214789   2.997   5.336  -0.049
 4657SOL     OW14790   2.684   4.726   1.372
 4657SOL    HW114791   2.724   4.725   1.280
 4657SOL    HW214792   2.694   4.818   1.412
 4658SOL     OW14793   2.778   4.634   0.291
 4658SOL    HW114794   2.841   4.672   0.223
 4658SOL    HW214795   2.818   4.551   0.330
 4659SOL     OW14796   3.366   5.331   0.044
 4659SOL    HW114797   3.274   5.368   0.051
 4659SOL    HW214798   3.404   5.351  -0.046
 4660SOL     OW14799   2.234   5.012   1.490
 4660SOL    HW114800   2.221   5.105   1.456
 4660SOL    HW214801   2.150   4.960   1.477
 4661SOL     OW14802   3.476   5.016   1.289
 4661SOL    HW114803   3.536   5.019   1.369
 4661SOL    HW214804   3.401   5.080   1.302
 4662SOL     OW14805   2.901   4.822   0.696
 4662SOL    HW114806   2.831   4.775   0.750
 4662SOL    HW214807   2.960   4.754   0.653
 4663SOL     OW14808   2.876   3.960   0.971
 4663SOL    HW114809   2.868   3.924   0.878
 4663SOL    HW214810   2.874   3.884   1.036
 4664SOL     OW14811   2.452   5.211   0.491
 4664SOL    HW114812   2.494   5.153   0.421
 4664SOL    HW214813   2.408   5.290   0.447
 4665SOL     OW14814   3.571   4.109   1.381
 4665SOL    HW114815   3.644   4.178   1.385
 4665SOL    HW214816   3.599   4.034   1.322
 4666SOL     OW14817   2.117   5.072   0.290
 4666SOL    HW114818   2.021   5.073   0.263
 4666SOL    HW214819   2.129   5.125   0.374
 4667SOL     OW14820   1.967   4.737   1.726
 4667SOL    HW114821   1.890   4.704   1.780
 4667SOL    HW214822   2.052   4.707   1.768
 4668SOL     OW14823   2.534   3.927   1.489
 4668SOL    HW114824   2.624   3.911   1.449
 4668SOL    HW214825   2.542   3.932   1.588
 4669SOL     OW14826   1.937   4.069   0.033
 4669SOL    HW114827   1.845   4.041   0.004
 4669SOL    HW214828   1.968   4.146  -0.023
 4670SOL     OW14829   3.302   4.580   1.398
 4670SOL    HW114830   3.245   4.632   1.335
 4670SOL    HW214831   3.398   4.592   1.374
 4671SOL     OW14832   1.934   3.890   0.318
 4671SOL    HW114833   1.917   3.973   0.264
 4671SOL    HW214834   2.024   3.853   0.296
 4672SOL     OW14835   3.045   5.059   0.119
 4672SOL    HW114836   2.946   5.048   0.121
 4672SOL    HW214837   3.079   5.074   0.212
 4673SOL     OW14838   2.475   4.566   1.431
 4673SOL    HW114839   2.531   4.647   1.414
 4673SOL    HW214840   2.534   4.486   1.434
 4674SOL     OW14841   3.355   5.491   0.959
 4674SOL    HW114842   3.388   5.555   0.890
 4674SOL    HW214843   3.421   5.485   1.034
 4675SOL     OW14844   2.578   4.289   1.708
 4675SOL    HW114845   2.597   4.354   1.782
 4675SOL    HW214846   2.638   4.209   1.717
 4676SOL     OW14847   3.312   4.944   1.633
 4676SOL    HW114848   3.303   4.934   1.732
 4676SOL    HW214849   3.408   4.937   1.607
 4677SOL     OW14850   2.252   5.465   1.560
 4677SOL    HW114851   2.161   5.506   1.558
 4677SOL    HW214852   2.245   5.371   1.592
 4678SOL     OW14853   3.536   4.607   1.254
 4678SOL    HW114854   3.509   4.518   1.217
 4678SOL    HW214855   3.537   4.675   1.181
 4679SOL     OW14856   3.087   4.049   0.449
 4679SOL    HW114857   3.152   3.975   0.438
 4679SOL    HW214858   3.107   4.099   0.533
 4680SOL     OW14859   2.456   4.469   0.652
 4680SOL    HW114860   2.506   4.554   0.633
 4680SOL    HW214861   2.368   4.471   0.604
 4681SOL     OW14862   3.639   4.066   1.642
 4681SOL    HW114863   3.622   4.097   1.548
 4681SOL    HW214864   3.555   4.029   1.680
 4682SOL     OW14865   3.592   4.658   1.517
 4682SOL    HW114866   3.630   4.749   1.532
 4682SOL    HW214867   3.584   4.641   1.418
 4683SOL     OW14868   2.721   5.098   0.016
 4683SOL    HW114869   2.675   5.113   0.104
 4683SOL    HW214870   2.765   5.183  -0.014
 4684SOL     OW14871   2.523   5.514   0.953
 4684SOL    HW114872   2.477   5.602   0.940
 4684SOL    HW214873   2.622   5.526   0.946
 4685SOL     OW14874   2.721   4.680   0.861
 4685SOL    HW114875   2.775   4.611   0.909
 4685SOL    HW214876   2.689   4.749   0.927
 4686SOL     OW14877   2.945   4.708   0.087
 4686SOL    HW114878   2.922   4.761   0.005
 4686SOL    HW214879   3.026   4.652   0.068
 4687SOL     OW14880   3.723   5.293   0.851
 4687SOL    HW114881   3.652   5.281   0.781
 4687SOL    HW214882   3.724   5.214   0.911
 4688SOL     OW14883   2.083   5.038   1.844
 4688SOL    HW114884   2.018   4.965   1.823
 4688SOL    HW214885   2.087   5.052   1.942
 4689SOL     OW14886   1.941   4.964   0.653
 4689SOL    HW114887   1.940   4.917   0.741
 4689SOL    HW214888   2.023   4.936   0.602
 4690SOL     OW14889   2.534   5.115   1.624
 4690SOL    HW114890   2.456   5.065   1.662
 4690SOL    HW214891   2.531   5.210   1.655
 4691SOL     OW14892   3.686   3.916   1.227
 4691SOL    HW114893   3.682   3.826   1.271
 4691SOL    HW214894   3.689   3.905   1.128
 4692SOL     OW14895   2.290   4.148   0.520
 4692SOL    HW114896   2.320   4.076   0.458
 4692SOL    HW214897   2.251   4.108   0.603
 4693SOL     OW14898   3.567   5.211   1.104
 4693SOL    HW114899   3.474   5.186   1.077
 4693SOL    HW214900   3.593   5.161   1.186
 4694SOL     OW14901   2.179   4.271   1.280
 4694SOL    HW114902   2.217   4.212   1.352
 4694SOL    HW214903   2.219   4.245   1.192
 4695SOL     OW14904   2.674   5.310   0.687
 4695SOL    HW114905   2.706   5.320   0.593
 4695SOL    HW214906   2.595   5.248   0.689
 4696SOL     OW14907   3.286   3.938   1.112
 4696SOL    HW114908   3.338   3.873   1.167
 4696SOL    HW214909   3.237   4.001   1.173
 4697SOL     OW14910   2.863   3.758   1.154
 4697SOL    HW114911   2.800   3.686   1.123
 4697SOL    HW214912   2.956   3.722   1.154
 4698SOL     OW14913   2.632   5.054   0.301
 4698SOL    HW114914   2.586   4.967   0.318
 4698SOL    HW214915   2.723   5.051   0.342
 4699SOL     OW14916   2.480   5.291   1.284
 4699SOL    HW114917   2.475   5.373   1.341
 4699SOL    HW214918   2.569   5.288   1.239
 4700SOL     OW14919   3.214   3.776   0.168
 4700SOL    HW114920   3.249   3.735   0.084
 4700SOL    HW214921   3.124   3.738   0.188
 4701SOL     OW14922   3.162   4.177   0.691
 4701SOL    HW114923   3.103   4.257   0.695
 4701SOL    HW214924   3.177   4.142   0.784
 4702SOL     OW14925   3.455   3.945   0.882
 4702SOL    HW114926   3.371   3.944   0.936
 4702SOL    HW214927   3.457   4.028   0.826
 4703SOL     OW14928   1.901   4.801   0.300
 4703SOL    HW114929   2.000   4.790   0.291
 4703SOL    HW214930   1.861   4.715   0.332
 4704SOL     OW14931   2.737   5.370   0.337
 4704SOL    HW114932   2.660   5.335   0.283
 4704SOL    HW214933   2.705   5.441   0.399
 4705SOL     OW14934   2.092   4.352   1.975
 4705SOL    HW114935   1.999   4.350   2.012
 4705SOL    HW214936   2.093   4.313   1.883
 4706SOL     OW14937   2.087   3.999   2.858
 4706SOL    HW114938   2.122   3.982   2.950
 4706SOL    HW214939   1.999   3.954   2.846
 4707SOL     OW14940   2.431   4.999   3.027
 4707SOL    HW114941   2.338   4.992   2.990
 4707SOL    HW214942   2.442   5.088   3.071
 4708SOL     OW14943   3.417   5.235   2.565
 4708SOL    HW114944   3.360   5.219   2.646
 4708SOL    HW214945   3.358   5.245   2.485
 4709SOL     OW14946   2.997   4.427   2.579
 4709SOL    HW114947   3.054   4.505   2.554
 4709SOL    HW214948   2.937   4.453   2.655
 4710SOL     OW14949   3.617   4.331   2.093
 4710SOL    HW114950   3.605   4.318   1.994
 4710SOL    HW214951   3.587   4.250   2.142
 4711SOL     OW14952   2.630   4.868   2.885
 4711SOL    HW114953   2.552   4.885   2.945
 4711SOL    HW214954   2.664   4.955   2.849
 4712SOL     OW14955   2.547   4.736   2.527
 4712SOL    HW114956   2.616   4.720   2.597
 4712SOL    HW214957   2.474   4.793   2.565
 4713SOL     OW14958   2.548   4.885   3.665
 4713SOL    HW114959   2.608   4.964   3.679
 4713SOL    HW214960   2.462   4.916   3.624
 4714SOL     OW14961   2.197   5.159   2.923
 4714SOL    HW114962   2.119   5.128   2.870
 4714SOL    HW214963   2.255   5.217   2.866
 4715SOL     OW14964   3.322   5.229   3.201
 4715SOL    HW114965   3.346   5.323   3.227
 4715SOL    HW214966   3.306   5.175   3.283
 4716SOL     OW14967   2.300   4.116   3.361
 4716SOL    HW114968   2.382   4.060   3.370
 4716SOL    HW214969   2.219   4.058   3.365
 4717SOL     OW14970   2.093   5.437   2.345
 4717SOL    HW114971   2.127   5.514   2.399
 4717SOL    HW214972   2.137   5.437   2.255
 4718SOL     OW14973   2.989   5.065   3.552
 4718SOL    HW114974   3.036   5.065   3.640
 4718SOL    HW214975   2.941   4.978   3.541
 4719SOL     OW14976   2.092   5.158   2.400
 4719SOL    HW114977   2.066   5.254   2.400
 4719SOL    HW214978   2.021   5.104   2.445
 4720SOL     OW14979   2.102   4.815   2.748
 4720SOL    HW114980   2.116   4.731   2.800
 4720SOL    HW214981   2.047   4.879   2.803
 4721SOL     OW14982   2.482   5.510   3.301
 4721SOL    HW114983   2.390   5.493   3.336
 4721SOL    HW214984   2.510   5.602   3.327
 4722SOL     OW14985   2.468   4.688   1.985
 4722SOL    HW114986   2.475   4.772   1.931
 4722SOL    HW214987   2.514   4.701   2.073
 4723SOL     OW14988   3.456   3.838   3.342
 4723SOL    HW114989   3.438   3.905   3.270
 4723SOL    HW214990   3.453   3.884   3.431
 4724SOL     OW14991   1.984   4.367   2.425
 4724SOL    HW114992   1.939   4.279   2.442
 4724SOL    HW214993   1.983   4.421   2.509
 4725SOL     OW14994   3.704   5.491   2.221
 4725SOL    HW114995   3.758   5.462   2.301
 4725SOL    HW214996   3.734   5.581   2.192
 4726SOL     OW14997   1.889   5.320   1.979
 4726SOL    HW114998   1.870   5.224   2.000
 4726SOL    HW214999   1.856   5.378   2.054
 4727SOL     OW15000   3.551   4.646   2.474
 4727SOL    HW115001   3.646   4.617   2.482
 4727SOL    HW215002   3.543   4.711   2.399
 4728SOL     OW15003   3.503   4.832   2.294
 4728SOL    HW115004   3.589   4.834   2.242
 4728SOL    HW215005   3.517   4.879   2.382
 4729SOL     OW15006   2.475   5.089   2.588
 4729SOL    HW115007   2.426   5.002   2.597
 4729SOL    HW215008   2.452   5.132   2.501
 4730SOL     OW15009   3.155   4.952   3.285
 4730SOL    HW115010   3.192   4.879   3.227
 4730SOL    HW215011   3.207   4.957   3.370
 4731SOL     OW15012   2.059   4.700   3.126
 4731SOL    HW115013   2.148   4.655   3.112
 4731SOL    HW215014   1.986   4.635   3.107
 4732SOL     OW15015   3.387   4.723   2.052
 4732SOL    HW115016   3.324   4.647   2.065
 4732SOL    HW215017   3.435   4.741   2.138
 4733SOL     OW15018   3.049   5.516   3.478
 4733SOL    HW115019   3.073   5.576   3.402
 4733SOL    HW215020   3.056   5.421   3.448
 4734SOL     OW15021   2.179   3.975   3.663
 4734SOL    HW115022   2.250   4.046   3.669
 4734SOL    HW215023   2.091   4.014   3.691
 4735SOL     OW15024   3.328   5.141   2.815
 4735SOL    HW115025   3.269   5.147   2.895
 4735SOL    HW215026   3.313   5.053   2.769
 4736SOL     OW15027   3.529   5.438   2.434
 4736SOL    HW115028   3.488   5.415   2.346
 4736SOL    HW215029   3.511   5.364   2.499
 4737SOL     OW15030   2.460   4.453   2.132
 4737SOL    HW115031   2.484   4.522   2.064
 4737SOL    HW215032   2.382   4.486   2.186
 4738SOL     OW15033   3.438   5.386   2.169
 4738SOL    HW115034   3.527   5.432   2.172
 4738SOL    HW215035   3.417   5.362   2.074
 4739SOL     OW15036   2.669   4.329   3.327
 4739SOL    HW115037   2.622   4.326   3.416
 4739SOL    HW215038   2.618   4.274   3.261
 4740SOL     OW15039   3.256   4.193   3.536
 4740SOL    HW115040   3.236   4.236   3.624
 4740SOL    HW215041   3.334   4.131   3.545
 4741SOL     OW15042   2.853   4.134   3.104
 4741SOL    HW115043   2.776   4.168   3.158
 4741SOL    HW215044   2.819   4.083   3.025
 4742SOL     OW15045   2.903   4.425   2.291
 4742SOL    HW115046   2.929   4.421   2.387
 4742SOL    HW215047   2.818   4.374   2.277
 4743SOL     OW15048   1.938   4.535   2.651
 4743SOL    HW115049   2.037   4.523   2.660
 4743SOL    HW215050   1.914   4.630   2.672
 4744SOL     OW15051   1.992   5.545   3.433
 4744SOL    HW115052   1.982   5.530   3.532
 4744SOL    HW215053   1.906   5.581   3.397
 4745SOL     OW15054   2.727   4.072   2.057
 4745SOL    HW115055   2.786   4.135   2.008
 4745SOL    HW215056   2.746   3.978   2.028
 4746SOL     OW15057   3.224   4.868   2.407
 4746SOL    HW115058   3.307   4.839   2.359
 4746SOL    HW215059   3.175   4.935   2.351
 4747SOL     OW15060   2.870   5.180   2.339
 4747SOL    HW115061   2.824   5.252   2.287
 4747SOL    HW215062   2.866   5.200   2.437
 4748SOL     OW15063   2.213   5.525   2.715
 4748SOL    HW115064   2.263   5.439   2.721
 4748SOL    HW215065   2.278   5.602   2.712
 4749SOL     OW15066   3.657   4.790   2.735
 4749SOL    HW115067   3.595   4.775   2.659
 4749SOL    HW215068   3.605   4.801   2.820
 4750SOL     OW15069   3.089   5.274   3.368
 4750SOL    HW115070   3.095   5.197   3.432
 4750SOL    HW215071   3.037   5.248   3.288
 4751SOL     OW15072   2.183   4.667   2.104
 4751SOL    HW115073   2.265   4.706   2.062
 4751SOL    HW215074   2.156   4.585   2.055
 4752SOL     OW15075   3.320   4.459   2.590
 4752SOL    HW115076   3.315   4.394   2.665
 4752SOL    HW215077   3.400   4.518   2.603
 4753SOL     OW15078   2.323   4.990   3.589
 4753SOL    HW115079   2.273   4.991   3.503
 4753SOL    HW215080   2.260   4.972   3.665
 4754SOL     OW15081   2.973   5.500   2.099
 4754SOL    HW115082   2.913   5.438   2.149
 4754SOL    HW215083   3.004   5.456   2.014
 4755SOL     OW15084   2.064   4.009   3.360
 4755SOL    HW115085   1.984   4.069   3.347
 4755SOL    HW215086   2.054   3.960   3.446
 4756SOL     OW15087   3.494   5.101   1.943
 4756SOL    HW115088   3.462   5.195   1.933
 4756SOL    HW215089   3.418   5.038   1.931
 4757SOL     OW15090   2.326   5.467   2.185
 4757SOL    HW115091   2.359   5.506   2.271
 4757SOL    HW215092   2.402   5.460   2.120
 4758SOL     OW15093   3.262   3.831   2.288
 4758SOL    HW115094   3.238   3.794   2.198
 4758SOL    HW215095   3.361   3.847   2.292
 4759SOL     OW15096   2.111   5.509   3.103
 4759SOL    HW115097   2.168   5.444   3.153
 4759SOL    HW215098   2.095   5.476   3.010
 4760SOL     OW15099   2.802   5.422   2.766
 4760SOL    HW115100   2.882   5.365   2.787
 4760SOL    HW215101   2.753   5.382   2.689
 4761SOL     OW15102   2.244   4.424   2.342
 4761SOL    HW115103   2.289   4.334   2.339
 4761SOL    HW215104   2.150   4.413   2.375
 4762SOL     OW15105   3.409   3.946   3.591
 4762SOL    HW115106   3.404   3.983   3.683
 4762SOL    HW215107   3.337   3.877   3.579
 4763SOL     OW15108   2.476   3.846   1.979
 4763SOL    HW115109   2.574   3.824   1.986
 4763SOL    HW215110   2.445   3.829   1.886
 4764SOL     OW15111   2.643   3.988   3.611
 4764SOL    HW115112   2.710   3.927   3.654
 4764SOL    HW215113   2.570   4.007   3.676
 4765SOL     OW15114   2.750   5.238   3.057
 4765SOL    HW115115   2.727   5.213   2.963
 4765SOL    HW215116   2.811   5.169   3.096
 4766SOL     OW15117   2.665   5.126   2.786
 4766SOL    HW115118   2.755   5.140   2.744
 4766SOL    HW215119   2.594   5.128   2.715
 4767SOL     OW15120   3.296   4.912   1.903
 4767SOL    HW115121   3.328   4.836   1.960
 4767SOL    HW215122   3.204   4.939   1.933
 4768SOL     OW15123   2.159   3.759   2.033
 4768SOL    HW115124   2.208   3.843   2.012
 4768SOL    HW215125   2.221   3.694   2.078
 4769SOL     OW15126   2.797   3.960   2.342
 4769SOL    HW115127   2.749   4.001   2.264
 4769SOL    HW215128   2.896   3.958   2.323
 4770SOL     OW15129   3.089   5.294   2.655
 4770SOL    HW115130   3.110   5.368   2.590
 4770SOL    HW215131   3.157   5.294   2.728
 4771SOL     OW15132   2.321   4.876   2.603
 4771SOL    HW115133   2.250   4.849   2.668
 4771SOL    HW215134   2.295   4.848   2.510
 4772SOL     OW15135   3.133   5.521   2.453
 4772SOL    HW115136   3.177   5.585   2.389
 4772SOL    HW215137   3.083   5.573   2.523
 4773SOL     OW15138   2.894   4.273   1.878
 4773SOL    HW115139   2.853   4.355   1.839
 4773SOL    HW215140   2.958   4.299   1.951
 4774SOL     OW15141   1.940   4.280   3.248
 4774SOL    HW115142   2.032   4.279   3.207
 4774SOL    HW215143   1.934   4.354   3.315
 4775SOL     OW15144   2.423   3.946   3.009
 4775SOL    HW115145   2.461   3.862   3.046
 4775SOL    HW215146   2.335   3.965   3.053
 4776SOL     OW15147   3.291   4.897   2.729
 4776SOL    HW115148   3.236   4.813   2.722
 4776SOL    HW215149   3.317   4.926   2.637
 4777SOL     OW15150   3.719   4.557   2.239
 4777SOL    HW115151   3.761   4.493   2.303
 4777SOL    HW215152   3.681   4.506   2.161
 4778SOL     OW15153   2.350   5.109   2.036
 4778SOL    HW115154   2.263   5.094   2.083
 4778SOL    HW215155   2.333   5.135   1.941
 4779SOL     OW15156   3.526   5.004   2.519
 4779SOL    HW115157   3.625   5.012   2.533
 4779SOL    HW215158   3.481   5.088   2.550
 4780SOL     OW15159   3.252   4.299   1.940
 4780SOL    HW115160   3.198   4.278   2.021
 4780SOL    HW215161   3.343   4.258   1.949
 4781SOL     OW15162   2.389   3.980   2.190
 4781SOL    HW115163   2.416   3.921   2.115
 4781SOL    HW215164   2.389   4.075   2.159
 4782SOL     OW15165   3.616   4.947   3.450
 4782SOL    HW115166   3.707   4.908   3.437
 4782SOL    HW215167   3.624   5.043   3.474
 4783SOL     OW15168   2.926   5.071   3.202
 4783SOL    HW115169   2.846   5.048   3.257
 4783SOL    HW215170   3.009   5.045   3.251
 4784SOL     OW15171   3.454   5.353   3.487
 4784SOL    HW115172   3.481   5.387   3.397
 4784SOL    HW215173   3.533   5.315   3.533
 4785SOL     OW15174   2.973   4.919   2.962
 4785SOL    HW115175   2.933   4.963   3.043
 4785SOL    HW215176   2.932   4.956   2.879
 4786SOL     OW15177   3.500   4.823   2.941
 4786SOL    HW115178   3.505   4.904   3.000
 4786SOL    HW215179   3.414   4.825   2.890
 4787SOL     OW15180   2.777   3.813   3.264
 4787SOL    HW115181   2.802   3.793   3.169
 4787SOL    HW215182   2.849   3.869   3.306
 4788SOL     OW15183   2.842   4.840   3.581
 4788SOL    HW115184   2.743   4.846   3.591
 4788SOL    HW215185   2.865   4.760   3.525
 4789SOL     OW15186   2.567   4.774   2.230
 4789SOL    HW115187   2.553   4.781   2.329
 4789SOL    HW215188   2.651   4.723   2.212
 4790SOL     OW15189   3.136   4.110   3.124
 4790SOL    HW115190   3.157   4.184   3.188
 4790SOL    HW215191   3.047   4.127   3.081
 4791SOL     OW15192   1.926   5.288   3.193
 4791SOL    HW115193   1.880   5.370   3.159
 4791SOL    HW215194   2.024   5.307   3.202
 4792SOL     OW15195   2.229   4.824   2.363
 4792SOL    HW115196   2.222   4.907   2.307
 4792SOL    HW215197   2.233   4.744   2.303
 4793SOL     OW15198   3.114   5.072   2.250
 4793SOL    HW115199   3.164   5.149   2.290
 4793SOL    HW215200   3.019   5.074   2.282
 4794SOL     OW15201   3.134   5.169   3.004
 4794SOL    HW115202   3.181   5.182   3.091
 4794SOL    HW215203   3.068   5.095   3.013
 4795SOL     OW15204   3.444   4.363   2.334
 4795SOL    HW115205   3.413   4.424   2.407
 4795SOL    HW215206   3.494   4.415   2.265
 4796SOL     OW15207   2.216   5.234   3.191
 4796SOL    HW115208   2.195   5.190   3.104
 4796SOL    HW215209   2.313   5.260   3.194
 4797SOL     OW15210   2.875   3.829   3.632
 4797SOL    HW115211   2.881   3.914   3.580
 4797SOL    HW215212   2.907   3.753   3.575
 4798SOL     OW15213   2.366   3.774   3.602
 4798SOL    HW115214   2.324   3.717   3.532
 4798SOL    HW215215   2.300   3.843   3.634
 4799SOL     OW15216   2.435   4.594   2.891
 4799SOL    HW115217   2.479   4.683   2.882
 4799SOL    HW215218   2.372   4.594   2.968
 4800SOL     OW15219   3.071   4.249   2.137
 4800SOL    HW115220   3.084   4.165   2.191
 4800SOL    HW215221   3.042   4.323   2.197
 4801SOL     OW15222   2.169   3.937   3.093
 4801SOL    HW115223   2.146   3.974   3.183
 4801SOL    HW215224   2.139   3.842   3.087
 4802SOL     OW15225   1.899   5.034   3.144
 4802SOL    HW115226   1.952   4.985   3.212
 4802SOL    HW215227   1.921   5.132   3.149
 4803SOL     OW15228   3.484   4.091   2.236
 4803SOL    HW115229   3.486   4.015   2.300
 4803SOL    HW215230   3.436   4.168   2.276
 4804SOL     OW15231   2.842   5.297   3.562
 4804SOL    HW115232   2.822   5.341   3.474
 4804SOL    HW215233   2.881   5.206   3.546
 4805SOL     OW15234   3.721   5.242   3.467
 4805SOL    HW115235   3.735   5.269   3.372
 4805SOL    HW215236   3.804   5.264   3.520
 4806SOL     OW15237   3.402   3.998   1.987
 4806SOL    HW115238   3.341   3.923   2.010
 4806SOL    HW215239   3.424   4.050   2.070
 4807SOL     OW15240   3.165   4.562   1.904
 4807SOL    HW115241   3.199   4.469   1.919
 4807SOL    HW215242   3.183   4.589   1.809
 4808SOL     OW15243   2.930   5.057   2.711
 4808SOL    HW115244   2.937   4.973   2.656
 4808SOL    HW215245   2.992   5.126   2.675
 4809SOL     OW15246   3.000   4.104   3.540
 4809SOL    HW115247   2.955   4.167   3.604
 4809SOL    HW215248   3.093   4.135   3.523
 4810SOL     OW15249   3.022   3.931   3.339
 4810SOL    HW115250   3.022   3.995   3.416
 4810SOL    HW215251   3.050   3.979   3.256
 4811SOL     OW15252   1.870   5.050   2.062
 4811SOL    HW115253   1.777   5.071   2.031
 4811SOL    HW215254   1.880   4.951   2.075
 4812SOL     OW15255   1.950   5.525   2.789
 4812SOL    HW115256   1.908   5.439   2.762
 4812SOL    HW215257   2.044   5.528   2.755
 4813SOL     OW15258   2.366   5.292   2.772
 4813SOL    HW115259   2.432   5.366   2.781
 4813SOL    HW215260   2.410   5.213   2.730
 4814SOL     OW15261   1.902   4.268   2.976
 4814SOL    HW115262   1.987   4.235   2.935
 4814SOL    HW215263   1.915   4.283   3.074
 4815SOL     OW15264   2.051   4.244   3.584
 4815SOL    HW115265   2.110   4.204   3.514
 4815SOL    HW215266   1.993   4.315   3.543
 4816SOL     OW15267   2.677   4.296   2.187
 4816SOL    HW115268   2.684   4.207   2.141
 4816SOL    HW215269   2.583   4.330   2.179
 4817SOL     OW15270   2.114   5.288   3.606
 4817SOL    HW115271   2.084   5.345   3.682
 4817SOL    HW215272   2.107   5.191   3.632
 4818SOL     OW15273   2.533   4.188   3.131
 4818SOL    HW115274   2.499   4.099   3.101
 4818SOL    HW215275   2.559   4.242   3.051
 4819SOL     OW15276   2.792   5.402   3.327
 4819SOL    HW115277   2.768   5.384   3.232
 4819SOL    HW215278   2.822   5.496   3.337
 4820SOL     OW15279   2.335   4.224   2.053
 4820SOL    HW115280   2.396   4.304   2.057
 4820SOL    HW215281   2.240   4.255   2.060
 4821SOL     OW15282   2.021   4.861   3.328
 4821SOL    HW115283   2.043   4.800   3.404
 4821SOL    HW215284   2.031   4.812   3.242
 4822SOL     OW15285   3.209   4.783   3.096
 4822SOL    HW115286   3.233   4.720   3.022
 4822SOL    HW215287   3.119   4.823   3.078
 4823SOL     OW15288   3.164   4.579   2.171
 4823SOL    HW115289   3.078   4.548   2.213
 4823SOL    HW215290   3.160   4.565   2.072
 4824SOL     OW15291   3.621   5.471   3.016
 4824SOL    HW115292   3.682   5.501   2.943
 4824SOL    HW215293   3.583   5.382   2.994
 4825SOL     OW15294   3.114   5.455   2.990
 4825SOL    HW115295   3.198   5.460   2.936
 4825SOL    HW215296   3.091   5.359   3.008
 4826SOL     OW15297   1.945   4.982   2.884
 4826SOL    HW115298   1.940   4.981   2.984
 4826SOL    HW215299   1.862   4.941   2.846
 4827SOL     OW15300   2.550   5.386   3.578
 4827SOL    HW115301   2.494   5.467   3.587
 4827SOL    HW215302   2.602   5.390   3.492
 4828SOL     OW15303   3.250   5.297   2.339
 4828SOL    HW115304   3.317   5.309   2.265
 4828SOL    HW215305   3.210   5.386   2.362
 4829SOL     OW15306   1.992   5.518   3.713
 4829SOL    HW115307   1.951   5.444   3.766
 4829SOL    HW215308   2.056   5.569   3.771
 4830SOL     OW15309   3.142   4.651   2.534
 4830SOL    HW115310   3.202   4.570   2.536
 4830SOL    HW215311   3.182   4.720   2.474
 4831SOL     OW15312   2.692   4.997   3.284
 4831SOL    HW115313   2.687   5.030   3.379
 4831SOL    HW215314   2.606   5.016   3.238
 4832SOL     OW15315   2.534   5.340   2.016
 4832SOL    HW115316   2.543   5.350   1.917
 4832SOL    HW215317   2.494   5.251   2.037
 4833SOL     OW15318   3.512   5.444   3.256
 4833SOL    HW115319   3.565   5.454   3.172
 4833SOL    HW215320   3.485   5.534   3.290
 4834SOL     OW15321   3.703   3.899   2.825
 4834SOL    HW115322   3.742   3.814   2.789
 4834SOL    HW215323   3.605   3.901   2.806
 4835SOL     OW15324   3.056   5.336   1.893
 4835SOL    HW115325   3.062   5.243   1.930
 4835SOL    HW215326   2.997   5.336   1.813
 4836SOL     OW15327   2.684   4.726   3.234
 4836SOL    HW115328   2.724   4.725   3.142
 4836SOL    HW215329   2.694   4.818   3.274
 4837SOL     OW15330   2.778   4.634   2.153
 4837SOL    HW115331   2.841   4.672   2.085
 4837SOL    HW215332   2.818   4.551   2.192
 4838SOL     OW15333   3.366   5.331   1.906
 4838SOL    HW115334   3.274   5.368   1.913
 4838SOL    HW215335   3.404   5.351   1.816
 4839SOL     OW15336   2.234   5.012   3.352
 4839SOL    HW115337   2.221   5.105   3.318
 4839SOL    HW215338   2.150   4.960   3.339
 4840SOL     OW15339   3.476   5.016   3.151
 4840SOL    HW115340   3.536   5.019   3.231
 4840SOL    HW215341   3.401   5.080   3.164
 4841SOL     OW15342   2.901   4.822   2.558
 4841SOL    HW115343   2.831   4.775   2.612
 4841SOL    HW215344   2.960   4.754   2.515
 4842SOL     OW15345   2.876   3.960   2.833
 4842SOL    HW115346   2.868   3.924   2.740
 4842SOL    HW215347   2.874   3.884   2.898
 4843SOL     OW15348   2.452   5.211   2.353
 4843SOL    HW115349   2.494   5.153   2.283
 4843SOL    HW215350   2.408   5.290   2.309
 4844SOL     OW15351   3.571   4.109   3.243
 4844SOL    HW115352   3.644   4.178   3.247
 4844SOL    HW215353   3.599   4.034   3.184
 4845SOL     OW15354   2.117   5.072   2.152
 4845SOL    HW115355   2.021   5.073   2.125
 4845SOL    HW215356   2.129   5.125   2.236
 4846SOL     OW15357   1.967   4.737   3.588
 4846SOL    HW115358   1.890   4.704   3.642
 4846SOL    HW215359   2.052   4.707   3.630
 4847SOL     OW15360   2.534   3.927   3.351
 4847SOL    HW115361   2.624   3.911   3.311
 4847SOL    HW215362   2.542   3.932   3.450
 4848SOL     OW15363   1.937   4.069   1.895
 4848SOL    HW115364   1.845   4.041   1.866
 4848SOL    HW215365   1.968   4.146   1.839
 4849SOL     OW15366   1.934   3.890   2.180
 4849SOL    HW115367   1.917   3.973   2.126
 4849SOL    HW215368   2.024   3.853   2.158
 4850SOL     OW15369   3.045   5.059   1.981
 4850SOL    HW115370   2.946   5.048   1.983
 4850SOL    HW215371   3.079   5.074   2.074
 4851SOL     OW15372   3.355   5.491   2.821
 4851SOL    HW115373   3.388   5.555   2.752
 4851SOL    HW215374   3.421   5.485   2.896
 4852SOL     OW15375   2.578   4.289   3.570
 4852SOL    HW115376   2.597   4.354   3.644
 4852SOL    HW215377   2.638   4.209   3.579
 4853SOL     OW15378   3.312   4.944   3.495
 4853SOL    HW115379   3.303   4.934   3.594
 4853SOL    HW215380   3.408   4.937   3.469
 4854SOL     OW15381   2.252   5.465   3.422
 4854SOL    HW115382   2.161   5.506   3.420
 4854SOL    HW215383   2.245   5.371   3.454
 4855SOL     OW15384   3.087   4.049   2.311
 4855SOL    HW115385   3.152   3.975   2.300
 4855SOL    HW215386   3.107   4.099   2.395
 4856SOL     OW15387   2.456   4.469   2.514
 4856SOL    HW115388   2.506   4.554   2.495
 4856SOL    HW215389   2.368   4.471   2.466
 4857SOL     OW15390   3.639   4.066   3.504
 4857SOL    HW115391   3.622   4.097   3.410
 4857SOL    HW215392   3.555   4.029   3.542
 4858SOL     OW15393   2.721   5.098   1.878
 4858SOL    HW115394   2.675   5.113   1.966
 4858SOL    HW215395   2.765   5.183   1.848
 4859SOL     OW15396   2.523   5.514   2.815
 4859SOL    HW115397   2.477   5.602   2.802
 4859SOL    HW215398   2.622   5.526   2.808
 4860SOL     OW15399   2.721   4.680   2.723
 4860SOL    HW115400   2.775   4.611   2.771
 4860SOL    HW215401   2.689   4.749   2.789
 4861SOL     OW15402   2.945   4.708   1.949
 4861SOL    HW115403   2.922   4.761   1.867
 4861SOL    HW215404   3.026   4.652   1.930
 4862SOL     OW15405   3.723   5.293   2.713
 4862SOL    HW115406   3.652   5.281   2.643
 4862SOL    HW215407   3.724   5.214   2.773
 4863SOL     OW15408   2.083   5.038   3.706
 4863SOL    HW115409   2.018   4.965   3.685
 4863SOL    HW215410   2.087   5.052   3.804
 4864SOL     OW15411   1.941   4.964   2.515
 4864SOL    HW115412   1.940   4.917   2.603
 4864SOL    HW215413   2.023   4.936   2.464
 4865SOL     OW15414   2.534   5.115   3.486
 4865SOL    HW115415   2.456   5.065   3.524
 4865SOL    HW215416   2.531   5.210   3.517
 4866SOL     OW15417   3.686   3.916   3.089
 4866SOL    HW115418   3.682   3.826   3.133
 4866SOL    HW215419   3.689   3.905   2.990
 4867SOL     OW15420   3.567   5.211   2.966
 4867SOL    HW115421   3.474   5.186   2.939
 4867SOL    HW215422   3.593   5.161   3.048
 4868SOL     OW15423   2.179   4.271   3.142
 4868SOL    HW115424   2.217   4.212   3.214
 4868SOL    HW215425   2.219   4.245   3.054
 4869SOL     OW15426   2.674   5.310   2.549
 4869SOL    HW115427   2.706   5.320   2.455
 4869SOL    HW215428   2.595   5.248   2.551
 4870SOL     OW15429   3.286   3.938   2.974
 4870SOL    HW115430   3.338   3.873   3.029
 4870SOL    HW215431   3.237   4.001   3.035
 4871SOL     OW15432   2.863   3.758   3.016
 4871SOL    HW115433   2.800   3.686   2.985
 4871SOL    HW215434   2.956   3.722   3.016
 4872SOL     OW15435   2.632   5.054   2.163
 4872SOL    HW115436   2.586   4.967   2.180
 4872SOL    HW215437   2.723   5.051   2.204
 4873SOL     OW15438   2.480   5.291   3.146
 4873SOL    HW115439   2.475   5.373   3.203
 4873SOL    HW215440   2.569   5.288   3.101
 4874SOL     OW15441   3.214   3.776   2.030
 4874SOL    HW115442   3.249   3.735   1.946
 4874SOL    HW215443   3.124   3.738   2.050
 4875SOL     OW15444   1.901   4.801   2.162
 4875SOL    HW115445   2.000   4.790   2.153
 4875SOL    HW215446   1.861   4.715   2.194
 4876SOL     OW15447   2.737   5.370   2.199
 4876SOL    HW115448   2.660   5.335   2.145
 4876SOL    HW215449   2.705   5.441   2.261
 4877SOL     OW15450   2.087   3.999   4.720
 4877SOL    HW115451   2.122   3.982   4.812
 4877SOL    HW215452   1.999   3.954   4.708
 4878SOL     OW15453   2.431   4.999   4.889
 4878SOL    HW115454   2.338   4.992   4.852
 4878SOL    HW215455   2.442   5.088   4.933
 4879SOL     OW15456   3.417   5.235   4.427
 4879SOL    HW115457   3.360   5.219   4.508
 4879SOL    HW215458   3.358   5.245   4.347
 4880SOL     OW15459   2.997   4.427   4.441
 4880SOL    HW115460   3.054   4.505   4.416
 4880SOL    HW215461   2.937   4.453   4.517
 4881SOL     OW15462   2.630   4.868   4.747
 4881SOL    HW115463   2.552   4.885   4.807
 4881SOL    HW215464   2.664   4.955   4.711
 4882SOL     OW15465   2.712   4.522   5.547
 4882SOL    HW115466   2.708   4.598   5.612
 4882SOL    HW215467   2.734   4.558   5.456
 4883SOL     OW15468   2.547   4.736   4.389
 4883SOL    HW115469   2.616   4.720   4.459
 4883SOL    HW215470   2.474   4.793   4.427
 4884SOL     OW15471   2.548   4.885   5.527
 4884SOL    HW115472   2.608   4.964   5.541
 4884SOL    HW215473   2.462   4.916   5.486
 4885SOL     OW15474   2.197   5.159   4.785
 4885SOL    HW115475   2.119   5.128   4.732
 4885SOL    HW215476   2.255   5.217   4.728
 4886SOL     OW15477   3.322   5.229   5.063
 4886SOL    HW115478   3.346   5.323   5.089
 4886SOL    HW215479   3.306   5.175   5.145
 4887SOL     OW15480   2.300   4.116   5.223
 4887SOL    HW115481   2.382   4.060   5.232
 4887SOL    HW215482   2.219   4.058   5.227
 4888SOL     OW15483   2.093   5.437   4.207
 4888SOL    HW115484   2.127   5.514   4.261
 4888SOL    HW215485   2.137   5.437   4.117
 4889SOL     OW15486   2.989   5.065   5.414
 4889SOL    HW115487   3.036   5.065   5.502
 4889SOL    HW215488   2.941   4.978   5.403
 4890SOL     OW15489   2.092   5.158   4.262
 4890SOL    HW115490   2.066   5.254   4.262
 4890SOL    HW215491   2.021   5.104   4.307
 4891SOL     OW15492   2.102   4.815   4.610
 4891SOL    HW115493   2.116   4.731   4.662
 4891SOL    HW215494   2.047   4.879   4.665
 4892SOL     OW15495   2.482   5.510   5.163
 4892SOL    HW115496   2.390   5.493   5.198
 4892SOL    HW215497   2.510   5.602   5.189
 4893SOL     OW15498   2.468   4.688   3.847
 4893SOL    HW115499   2.475   4.772   3.793
 4893SOL    HW215500   2.514   4.701   3.935
 4894SOL     OW15501   3.456   3.838   5.204
 4894SOL    HW115502   3.438   3.905   5.132
 4894SOL    HW215503   3.453   3.884   5.293
 4895SOL     OW15504   3.704   5.491   4.083
 4895SOL    HW115505   3.758   5.462   4.163
 4895SOL    HW215506   3.734   5.581   4.054
 4896SOL     OW15507   1.889   5.320   3.841
 4896SOL    HW115508   1.870   5.224   3.862
 4896SOL    HW215509   1.856   5.378   3.916
 4897SOL     OW15510   3.551   4.646   4.336
 4897SOL    HW115511   3.646   4.617   4.344
 4897SOL    HW215512   3.543   4.711   4.261
 4898SOL     OW15513   3.503   4.832   4.156
 4898SOL    HW115514   3.589   4.834   4.104
 4898SOL    HW215515   3.517   4.879   4.244
 4899SOL     OW15516   1.975   4.461   5.321
 4899SOL    HW115517   2.063   4.448   5.366
 4899SOL    HW215518   1.962   4.558   5.299
 4900SOL     OW15519   2.475   5.089   4.450
 4900SOL    HW115520   2.426   5.002   4.459
 4900SOL    HW215521   2.452   5.132   4.363
 4901SOL     OW15522   3.155   4.952   5.147
 4901SOL    HW115523   3.192   4.879   5.089
 4901SOL    HW215524   3.207   4.957   5.232
 4902SOL     OW15525   2.671   3.728   4.226
 4902SOL    HW115526   2.711   3.819   4.217
 4902SOL    HW215527   2.571   3.736   4.232
 4903SOL     OW15528   2.059   4.700   4.988
 4903SOL    HW115529   2.148   4.655   4.974
 4903SOL    HW215530   1.986   4.635   4.969
 4904SOL     OW15531   3.387   4.723   3.914
 4904SOL    HW115532   3.324   4.647   3.927
 4904SOL    HW215533   3.435   4.741   4.000
 4905SOL     OW15534   3.049   5.516   5.340
 4905SOL    HW115535   3.073   5.576   5.264
 4905SOL    HW215536   3.056   5.421   5.310
 4906SOL     OW15537   2.179   3.975   5.525
 4906SOL    HW115538   2.250   4.046   5.531
 4906SOL    HW215539   2.091   4.014   5.553
 4907SOL     OW15540   3.328   5.141   4.677
 4907SOL    HW115541   3.269   5.147   4.757
 4907SOL    HW215542   3.313   5.053   4.631
 4908SOL     OW15543   3.529   5.438   4.296
 4908SOL    HW115544   3.488   5.415   4.208
 4908SOL    HW215545   3.511   5.364   4.361
 4909SOL     OW15546   3.143   4.069   4.668
 4909SOL    HW115547   3.057   4.019   4.655
 4909SOL    HW215548   3.205   4.015   4.724
 4910SOL     OW15549   3.438   5.386   4.031
 4910SOL    HW115550   3.527   5.432   4.034
 4910SOL    HW215551   3.417   5.362   3.936
 4911SOL     OW15552   2.669   4.329   5.189
 4911SOL    HW115553   2.622   4.326   5.278
 4911SOL    HW215554   2.618   4.274   5.123
 4912SOL     OW15555   3.256   4.193   5.398
 4912SOL    HW115556   3.236   4.236   5.486
 4912SOL    HW215557   3.334   4.131   5.407
 4913SOL     OW15558   2.835   4.614   5.296
 4913SOL    HW115559   2.881   4.530   5.267
 4913SOL    HW215560   2.779   4.648   5.221
 4914SOL     OW15561   2.853   4.134   4.966
 4914SOL    HW115562   2.776   4.168   5.020
 4914SOL    HW215563   2.819   4.083   4.887
 4915SOL     OW15564   1.938   4.535   4.513
 4915SOL    HW115565   2.037   4.523   4.522
 4915SOL    HW215566   1.914   4.630   4.534
 4916SOL     OW15567   1.992   5.545   5.295
 4916SOL    HW115568   1.982   5.530   5.394
 4916SOL    HW215569   1.906   5.581   5.259
 4917SOL     OW15570   2.727   4.072   3.919
 4917SOL    HW115571   2.786   4.135   3.870
 4917SOL    HW215572   2.746   3.978   3.890
 4918SOL     OW15573   3.581   4.309   5.555
 4918SOL    HW115574   3.555   4.398   5.519
 4918SOL    HW215575   3.579   4.241   5.482
 4919SOL     OW15576   3.224   4.868   4.269
 4919SOL    HW115577   3.307   4.839   4.221
 4919SOL    HW215578   3.175   4.935   4.213
 4920SOL     OW15579   2.870   5.180   4.201
 4920SOL    HW115580   2.824   5.252   4.149
 4920SOL    HW215581   2.866   5.200   4.299
 4921SOL     OW15582   2.213   5.525   4.577
 4921SOL    HW115583   2.263   5.439   4.583
 4921SOL    HW215584   2.278   5.602   4.574
 4922SOL     OW15585   3.657   4.790   4.597
 4922SOL    HW115586   3.595   4.775   4.521
 4922SOL    HW215587   3.605   4.801   4.682
 4923SOL     OW15588   3.089   5.274   5.230
 4923SOL    HW115589   3.095   5.197   5.294
 4923SOL    HW215590   3.037   5.248   5.150
 4924SOL     OW15591   3.320   4.459   4.452
 4924SOL    HW115592   3.315   4.394   4.527
 4924SOL    HW215593   3.400   4.518   4.465
 4925SOL     OW15594   2.323   4.990   5.451
 4925SOL    HW115595   2.273   4.991   5.365
 4925SOL    HW215596   2.260   4.972   5.527
 4926SOL     OW15597   2.973   5.500   3.961
 4926SOL    HW115598   2.913   5.438   4.011
 4926SOL    HW215599   3.004   5.456   3.876
 4927SOL     OW15600   2.064   4.009   5.222
 4927SOL    HW115601   1.984   4.069   5.209
 4927SOL    HW215602   2.054   3.960   5.308
 4928SOL     OW15603   3.494   5.101   3.805
 4928SOL    HW115604   3.462   5.195   3.795
 4928SOL    HW215605   3.418   5.038   3.793
 4929SOL     OW15606   2.326   5.467   4.047
 4929SOL    HW115607   2.359   5.506   4.133
 4929SOL    HW215608   2.402   5.460   3.982
 4930SOL     OW15609   3.262   3.831   4.150
 4930SOL    HW115610   3.238   3.794   4.060
 4930SOL    HW215611   3.361   3.847   4.154
 4931SOL     OW15612   2.111   5.509   4.965
 4931SOL    HW115613   2.168   5.444   5.015
 4931SOL    HW215614   2.095   5.476   4.872
 4932SOL     OW15615   2.802   5.422   4.628
 4932SOL    HW115616   2.882   5.365   4.649
 4932SOL    HW215617   2.753   5.382   4.551
 4933SOL     OW15618   3.409   3.946   5.453
 4933SOL    HW115619   3.404   3.983   5.545
 4933SOL    HW215620   3.337   3.877   5.441
 4934SOL     OW15621   2.476   3.846   3.841
 4934SOL    HW115622   2.574   3.824   3.848
 4934SOL    HW215623   2.445   3.829   3.748
 4935SOL     OW15624   2.643   3.988   5.473
 4935SOL    HW115625   2.710   3.927   5.516
 4935SOL    HW215626   2.570   4.007   5.538
 4936SOL     OW15627   2.750   5.238   4.919
 4936SOL    HW115628   2.727   5.213   4.825
 4936SOL    HW215629   2.811   5.169   4.958
 4937SOL     OW15630   3.213   4.314   5.157
 4937SOL    HW115631   3.241   4.271   5.242
 4937SOL    HW215632   3.238   4.410   5.158
 4938SOL     OW15633   2.665   5.126   4.648
 4938SOL    HW115634   2.755   5.140   4.606
 4938SOL    HW215635   2.594   5.128   4.577
 4939SOL     OW15636   2.784   4.227   4.623
 4939SOL    HW115637   2.759   4.218   4.527
 4939SOL    HW215638   2.832   4.145   4.654
 4940SOL     OW15639   2.401   3.788   4.236
 4940SOL    HW115640   2.320   3.789   4.294
 4940SOL    HW215641   2.404   3.871   4.181
 4941SOL     OW15642   3.296   4.912   3.765
 4941SOL    HW115643   3.328   4.836   3.822
 4941SOL    HW215644   3.204   4.939   3.795
 4942SOL     OW15645   2.159   3.759   3.895
 4942SOL    HW115646   2.208   3.843   3.874
 4942SOL    HW215647   2.221   3.694   3.940
 4943SOL     OW15648   2.797   3.960   4.204
 4943SOL    HW115649   2.749   4.001   4.126
 4943SOL    HW215650   2.896   3.958   4.185
 4944SOL     OW15651   2.938   4.407   5.188
 4944SOL    HW115652   2.858   4.346   5.191
 4944SOL    HW215653   3.019   4.354   5.164
 4945SOL     OW15654   3.089   5.294   4.517
 4945SOL    HW115655   3.110   5.368   4.452
 4945SOL    HW215656   3.157   5.294   4.590
 4946SOL     OW15657   2.321   4.876   4.465
 4946SOL    HW115658   2.250   4.849   4.530
 4946SOL    HW215659   2.295   4.848   4.372
 4947SOL     OW15660   3.133   5.521   4.315
 4947SOL    HW115661   3.177   5.585   4.251
 4947SOL    HW215662   3.083   5.573   4.385
 4948SOL     OW15663   2.894   4.273   3.740
 4948SOL    HW115664   2.853   4.355   3.701
 4948SOL    HW215665   2.958   4.299   3.813
 4949SOL     OW15666   1.940   4.280   5.110
 4949SOL    HW115667   2.032   4.279   5.069
 4949SOL    HW215668   1.934   4.354   5.177
 4950SOL     OW15669   2.423   3.946   4.871
 4950SOL    HW115670   2.461   3.862   4.908
 4950SOL    HW215671   2.335   3.965   4.915
 4951SOL     OW15672   3.291   4.897   4.591
 4951SOL    HW115673   3.236   4.813   4.584
 4951SOL    HW215674   3.317   4.926   4.499
 4952SOL     OW15675   3.328   4.314   4.716
 4952SOL    HW115676   3.298   4.219   4.723
 4952SOL    HW215677   3.401   4.330   4.782
 4953SOL     OW15678   2.350   5.109   3.898
 4953SOL    HW115679   2.263   5.094   3.945
 4953SOL    HW215680   2.333   5.135   3.803
 4954SOL     OW15681   3.526   5.004   4.381
 4954SOL    HW115682   3.625   5.012   4.395
 4954SOL    HW215683   3.481   5.088   4.412
 4955SOL     OW15684   3.252   4.299   3.802
 4955SOL    HW115685   3.198   4.278   3.883
 4955SOL    HW215686   3.343   4.258   3.811
 4956SOL     OW15687   2.389   3.980   4.052
 4956SOL    HW115688   2.416   3.921   3.977
 4956SOL    HW215689   2.389   4.075   4.021
 4957SOL     OW15690   3.616   4.947   5.312
 4957SOL    HW115691   3.707   4.908   5.299
 4957SOL    HW215692   3.624   5.043   5.336
 4958SOL     OW15693   2.926   5.071   5.064
 4958SOL    HW115694   2.846   5.048   5.119
 4958SOL    HW215695   3.009   5.045   5.113
 4959SOL     OW15696   3.454   5.353   5.349
 4959SOL    HW115697   3.481   5.387   5.259
 4959SOL    HW215698   3.533   5.315   5.395
 4960SOL     OW15699   2.973   4.919   4.824
 4960SOL    HW115700   2.933   4.963   4.905
 4960SOL    HW215701   2.932   4.956   4.741
 4961SOL     OW15702   3.500   4.823   4.803
 4961SOL    HW115703   3.505   4.904   4.862
 4961SOL    HW215704   3.414   4.825   4.752
 4962SOL     OW15705   2.777   3.813   5.126
 4962SOL    HW115706   2.802   3.793   5.031
 4962SOL    HW215707   2.849   3.869   5.168
 4963SOL     OW15708   2.842   4.840   5.443
 4963SOL    HW115709   2.743   4.846   5.453
 4963SOL    HW215710   2.865   4.760   5.387
 4964SOL     OW15711   2.567   4.774   4.092
 4964SOL    HW115712   2.553   4.781   4.191
 4964SOL    HW215713   2.651   4.723   4.074
 4965SOL     OW15714   2.272   4.537   4.975
 4965SOL    HW115715   2.358   4.549   5.025
 4965SOL    HW215716   2.230   4.450   5.002
 4966SOL     OW15717   3.136   4.110   4.986
 4966SOL    HW115718   3.157   4.184   5.050
 4966SOL    HW215719   3.047   4.127   4.943
 4967SOL     OW15720   1.926   5.288   5.055
 4967SOL    HW115721   1.880   5.370   5.021
 4967SOL    HW215722   2.024   5.307   5.064
 4968SOL     OW15723   2.229   4.824   4.225
 4968SOL    HW115724   2.222   4.907   4.169
 4968SOL    HW215725   2.233   4.744   4.165
 4969SOL     OW15726   2.428   4.261   4.589
 4969SOL    HW115727   2.440   4.327   4.515
 4969SOL    HW215728   2.474   4.295   4.672
 4970SOL     OW15729   3.114   5.072   4.112
 4970SOL    HW115730   3.164   5.149   4.152
 4970SOL    HW215731   3.019   5.074   4.144
 4971SOL     OW15732   3.134   5.169   4.866
 4971SOL    HW115733   3.181   5.182   4.953
 4971SOL    HW215734   3.068   5.095   4.875
 4972SOL     OW15735   2.216   5.234   5.053
 4972SOL    HW115736   2.195   5.190   4.966
 4972SOL    HW215737   2.313   5.260   5.056
 4973SOL     OW15738   2.264   4.475   5.322
 4973SOL    HW115739   2.332   4.530   5.275
 4973SOL    HW215740   2.304   4.387   5.349
 4974SOL     OW15741   3.449   4.503   5.394
 4974SOL    HW115742   3.357   4.541   5.389
 4974SOL    HW215743   3.509   4.550   5.329
 4975SOL     OW15744   2.875   3.829   5.494
 4975SOL    HW115745   2.881   3.914   5.442
 4975SOL    HW215746   2.907   3.753   5.437
 4976SOL     OW15747   2.366   3.774   5.464
 4976SOL    HW115748   2.324   3.717   5.394
 4976SOL    HW215749   2.300   3.843   5.496
 4977SOL     OW15750   2.435   4.594   4.753
 4977SOL    HW115751   2.479   4.683   4.744
 4977SOL    HW215752   2.372   4.594   4.830
 4978SOL     OW15753   3.222   4.586   4.769
 4978SOL    HW115754   3.147   4.586   4.703
 4978SOL    HW215755   3.259   4.494   4.778
 4979SOL     OW15756   2.169   3.937   4.955
 4979SOL    HW115757   2.146   3.974   5.045
 4979SOL    HW215758   2.139   3.842   4.949
 4980SOL     OW15759   1.899   5.034   5.006
 4980SOL    HW115760   1.952   4.985   5.074
 4980SOL    HW215761   1.921   5.132   5.011
 4981SOL     OW15762   2.594   4.358   4.788
 4981SOL    HW115763   2.653   4.332   4.712
 4981SOL    HW215764   2.566   4.454   4.777
 4982SOL     OW15765   3.590   4.659   5.578
 4982SOL    HW115766   3.544   4.652   5.489
 4982SOL    HW215767   3.528   4.703   5.644
 4983SOL     OW15768   2.885   4.490   4.690
 4983SOL    HW115769   2.900   4.511   4.786
 4983SOL    HW215770   2.855   4.395   4.681
 4984SOL     OW15771   2.842   5.297   5.424
 4984SOL    HW115772   2.822   5.341   5.336
 4984SOL    HW215773   2.881   5.206   5.408
 4985SOL     OW15774   3.721   5.242   5.329
 4985SOL    HW115775   3.735   5.269   5.234
 4985SOL    HW215776   3.804   5.264   5.382
 4986SOL     OW15777   2.212   4.622   5.528
 4986SOL    HW115778   2.288   4.666   5.576
 4986SOL    HW215779   2.247   4.575   5.446
 4987SOL     OW15780   3.402   3.998   3.849
 4987SOL    HW115781   3.341   3.923   3.872
 4987SOL    HW215782   3.424   4.050   3.932
 4988SOL     OW15783   2.930   5.057   4.573
 4988SOL    HW115784   2.937   4.973   4.518
 4988SOL    HW215785   2.992   5.126   4.537
 4989SOL     OW15786   2.181   4.534   4.673
 4989SOL    HW115787   2.274   4.570   4.678
 4989SOL    HW215788   2.175   4.449   4.725
 4990SOL     OW15789   2.201   4.233   4.730
 4990SOL    HW115790   2.149   4.150   4.713
 4990SOL    HW215791   2.278   4.238   4.666
 4991SOL     OW15792   3.000   4.104   5.402
 4991SOL    HW115793   2.955   4.167   5.466
 4991SOL    HW215794   3.093   4.135   5.385
 4992SOL     OW15795   3.022   3.931   5.201
 4992SOL    HW115796   3.022   3.995   5.278
 4992SOL    HW215797   3.050   3.979   5.118
 4993SOL     OW15798   1.870   5.050   3.924
 4993SOL    HW115799   1.777   5.071   3.893
 4993SOL    HW215800   1.880   4.951   3.937
 4994SOL     OW15801   1.950   5.525   4.651
 4994SOL    HW115802   1.908   5.439   4.624
 4994SOL    HW215803   2.044   5.528   4.617
 4995SOL     OW15804   2.366   5.292   4.634
 4995SOL    HW115805   2.432   5.366   4.643
 4995SOL    HW215806   2.410   5.213   4.592
 4996SOL     OW15807   2.864   4.520   4.962
 4996SOL    HW115808   2.905   4.488   5.048
 4996SOL    HW215809   2.768   4.493   4.959
 4997SOL     OW15810   1.902   4.268   4.838
 4997SOL    HW115811   1.987   4.235   4.797
 4997SOL    HW215812   1.915   4.283   4.936
 4998SOL     OW15813   2.051   4.244   5.446
 4998SOL    HW115814   2.110   4.204   5.376
 4998SOL    HW215815   1.993   4.315   5.405
 4999SOL     OW15816   3.231   4.674   5.384
 4999SOL    HW115817   3.270   4.763   5.404
 4999SOL    HW215818   3.241   4.654   5.287
 5000SOL     OW15819   3.519   4.328   4.930
 5000SOL    HW115820   3.481   4.259   4.992
 5000SOL    HW215821   3.601   4.292   4.886
 5001SOL     OW15822   2.114   5.288   5.468
 5001SOL    HW115823   2.084   5.345   5.544
 5001SOL    HW215824   2.107   5.191   5.494
 5002SOL     OW15825   2.533   4.188   4.993
 5002SOL    HW115826   2.499   4.099   4.963
 5002SOL    HW215827   2.559   4.242   4.913
 5003SOL     OW15828   2.792   5.402   5.189
 5003SOL    HW115829   2.768   5.384   5.094
 5003SOL    HW215830   2.822   5.496   5.199
 5004SOL     OW15831   2.021   4.861   5.190
 5004SOL    HW115832   2.043   4.800   5.266
 5004SOL    HW215833   2.031   4.812   5.104
 5005SOL     OW15834   3.209   4.783   4.958
 5005SOL    HW115835   3.233   4.720   4.884
 5005SOL    HW215836   3.119   4.823   4.940
 5006SOL     OW15837   3.621   5.471   4.878
 5006SOL    HW115838   3.682   5.501   4.805
 5006SOL    HW215839   3.583   5.382   4.856
 5007SOL     OW15840   3.114   5.455   4.852
 5007SOL    HW115841   3.198   5.460   4.798
 5007SOL    HW215842   3.091   5.359   4.870
 5008SOL     OW15843   1.945   4.982   4.746
 5008SOL    HW115844   1.940   4.981   4.846
 5008SOL    HW215845   1.862   4.941   4.708
 5009SOL     OW15846   2.550   5.386   5.440
 5009SOL    HW115847   2.494   5.467   5.449
 5009SOL    HW215848   2.602   5.390   5.354
 5010SOL     OW15849   3.588   3.859   4.247
 5010SOL    HW115850   3.661   3.842   4.180
 5010SOL    HW215851   3.557   3.772   4.285
 5011SOL     OW15852   3.250   5.297   4.201
 5011SOL    HW115853   3.317   5.309   4.127
 5011SOL    HW215854   3.210   5.386   4.224
 5012SOL     OW15855   1.992   5.518   5.575
 5012SOL    HW115856   1.951   5.444   5.628
 5012SOL    HW215857   2.056   5.569   5.633
 5013SOL     OW15858   3.142   4.651   4.396
 5013SOL    HW115859   3.202   4.570   4.398
 5013SOL    HW215860   3.182   4.720   4.336
 5014SOL     OW15861   2.692   4.997   5.146
 5014SOL    HW115862   2.687   5.030   5.241
 5014SOL    HW215863   2.606   5.016   5.100
 5015SOL     OW15864   2.534   5.340   3.878
 5015SOL    HW115865   2.543   5.350   3.779
 5015SOL    HW215866   2.494   5.251   3.899
 5016SOL     OW15867   3.512   5.444   5.118
 5016SOL    HW115868   3.565   5.454   5.034
 5016SOL    HW215869   3.485   5.534   5.152
 5017SOL     OW15870   3.703   3.899   4.687
 5017SOL    HW115871   3.742   3.814   4.651
 5017SOL    HW215872   3.605   3.901   4.668
 5018SOL     OW15873   3.056   5.336   3.755
 5018SOL    HW115874   3.062   5.243   3.792
 5018SOL    HW215875   2.997   5.336   3.675
 5019SOL     OW15876   2.684   4.726   5.096
 5019SOL    HW115877   2.724   4.725   5.004
 5019SOL    HW215878   2.694   4.818   5.136
 5020SOL     OW15879   3.366   5.331   3.768
 5020SOL    HW115880   3.274   5.368   3.775
 5020SOL    HW215881   3.404   5.351   3.678
 5021SOL     OW15882   2.234   5.012   5.214
 5021SOL    HW115883   2.221   5.105   5.180
 5021SOL    HW215884   2.150   4.960   5.201
 5022SOL     OW15885   3.476   5.016   5.013
 5022SOL    HW115886   3.536   5.019   5.093
 5022SOL    HW215887   3.401   5.080   5.026
 5023SOL     OW15888   2.901   4.822   4.420
 5023SOL    HW115889   2.831   4.775   4.474
 5023SOL    HW215890   2.960   4.754   4.377
 5024SOL     OW15891   2.452   5.211   4.215
 5024SOL    HW115892   2.494   5.153   4.145
 5024SOL    HW215893   2.408   5.290   4.171
 5025SOL     OW15894   3.571   4.109   5.105
 5025SOL    HW115895   3.644   4.178   5.109
 5025SOL    HW215896   3.599   4.034   5.046
 5026SOL     OW15897   2.117   5.072   4.014
 5026SOL    HW115898   2.021   5.073   3.987
 5026SOL    HW215899   2.129   5.125   4.098
 5027SOL     OW15900   1.967   4.737   5.450
 5027SOL    HW115901   1.890   4.704   5.504
 5027SOL    HW215902   2.052   4.707   5.492
 5028SOL     OW15903   2.534   3.927   5.213
 5028SOL    HW115904   2.624   3.911   5.173
 5028SOL    HW215905   2.542   3.932   5.312
 5029SOL     OW15906   1.937   4.069   3.757
 5029SOL    HW115907   1.845   4.041   3.728
 5029SOL    HW215908   1.968   4.146   3.701
 5030SOL     OW15909   3.302   4.580   5.122
 5030SOL    HW115910   3.245   4.632   5.059
 5030SOL    HW215911   3.398   4.592   5.098
 5031SOL     OW15912   1.934   3.890   4.042
 5031SOL    HW115913   1.917   3.973   3.988
 5031SOL    HW215914   2.024   3.853   4.020
 5032SOL     OW15915   3.045   5.059   3.843
 5032SOL    HW115916   2.946   5.048   3.845
 5032SOL    HW215917   3.079   5.074   3.936
 5033SOL     OW15918   2.475   4.566   5.155
 5033SOL    HW115919   2.531   4.647   5.138
 5033SOL    HW215920   2.534   4.486   5.158
 5034SOL     OW15921   3.355   5.491   4.683
 5034SOL    HW115922   3.388   5.555   4.614
 5034SOL    HW215923   3.421   5.485   4.758
 5035SOL     OW15924   2.578   4.289   5.432
 5035SOL    HW115925   2.597   4.354   5.506
 5035SOL    HW215926   2.638   4.209   5.441
 5036SOL     OW15927   3.312   4.944   5.357
 5036SOL    HW115928   3.303   4.934   5.456
 5036SOL    HW215929   3.408   4.937   5.331
 5037SOL     OW15930   2.252   5.465   5.284
 5037SOL    HW115931   2.161   5.506   5.282
 5037SOL    HW215932   2.245   5.371   5.316
 5038SOL     OW15933   3.536   4.607   4.978
 5038SOL    HW115934   3.509   4.518   4.941
 5038SOL    HW215935   3.537   4.675   4.905
 5039SOL     OW15936   2.456   4.469   4.376
 5039SOL    HW115937   2.506   4.554   4.357
 5039SOL    HW215938   2.368   4.471   4.328
 5040SOL     OW15939   3.639   4.066   5.366
 5040SOL    HW115940   3.622   4.097   5.272
 5040SOL    HW215941   3.555   4.029   5.404
 5041SOL     OW15942   3.592   4.658   5.241
 5041SOL    HW115943   3.630   4.749   5.256
 5041SOL    HW215944   3.584   4.641   5.142
 5042SOL     OW15945   2.721   5.098   3.740
 5042SOL    HW115946   2.675   5.113   3.828
 5042SOL    HW215947   2.765   5.183   3.710
 5043SOL     OW15948   2.523   5.514   4.677
 5043SOL    HW115949   2.477   5.602   4.664
 5043SOL    HW215950   2.622   5.526   4.670
 5044SOL     OW15951   2.721   4.680   4.585
 5044SOL    HW115952   2.775   4.611   4.633
 5044SOL    HW215953   2.689   4.749   4.651
 5045SOL     OW15954   3.723   5.293   4.575
 5045SOL    HW115955   3.652   5.281   4.505
 5045SOL    HW215956   3.724   5.214   4.635
 5046SOL     OW15957   2.083   5.038   5.568
 5046SOL    HW115958   2.018   4.965   5.547
 5046SOL    HW215959   2.087   5.052   5.666
 5047SOL     OW15960   1.941   4.964   4.377
 5047SOL    HW115961   1.940   4.917   4.465
 5047SOL    HW215962   2.023   4.936   4.326
 5048SOL     OW15963   2.534   5.115   5.348
 5048SOL    HW115964   2.456   5.065   5.386
 5048SOL    HW215965   2.531   5.210   5.379
 5049SOL     OW15966   3.686   3.916   4.951
 5049SOL    HW115967   3.682   3.826   4.995
 5049SOL    HW215968   3.689   3.905   4.852
 5050SOL     OW15969   3.567   5.211   4.828
 5050SOL    HW115970   3.474   5.186   4.801
 5050SOL    HW215971   3.593   5.161   4.910
 5051SOL     OW15972   2.179   4.271   5.004
 5051SOL    HW115973   2.217   4.212   5.076
 5051SOL    HW215974   2.219   4.245   4.916
 5052SOL     OW15975   2.674   5.310   4.411
 5052SOL    HW115976   2.706   5.320   4.317
 5052SOL    HW215977   2.595   5.248   4.413
 5053SOL     OW15978   3.286   3.938   4.836
 5053SOL    HW115979   3.338   3.873   4.891
 5053SOL    HW215980   3.237   4.001   4.897
 5054SOL     OW15981   2.863   3.758   4.878
 5054SOL    HW115982   2.800   3.686   4.847
 5054SOL    HW215983   2.956   3.722   4.878
 5055SOL     OW15984   2.632   5.054   4.025
 5055SOL    HW115985   2.586   4.967   4.042
 5055SOL    HW215986   2.723   5.051   4.066
 5056SOL     OW15987   2.480   5.291   5.008
 5056SOL    HW115988   2.475   5.373   5.065
 5056SOL    HW215989   2.569   5.288   4.963
 5057SOL     OW15990   3.214   3.776   3.892
 5057SOL    HW115991   3.249   3.735   3.808
 5057SOL    HW215992   3.124   3.738   3.912
 5058SOL     OW15993   1.901   4.801   4.024
 5058SOL    HW115994   2.000   4.790   4.015
 5058SOL    HW215995   1.861   4.715   4.056
 5059SOL     OW15996   2.737   5.370   4.061
 5059SOL    HW115997   2.660   5.335   4.007
 5059SOL    HW215998   2.705   5.441   4.123
 5060SOL     OW15999   2.092   4.352   5.699
 5060SOL    HW116000   1.999   4.350   5.736
 5060SOL    HW216001   2.093   4.313   5.607
 5061SOL     OW16002   2.087   3.999   6.582
 5061SOL    HW116003   2.122   3.982   6.674
 5061SOL    HW216004   1.999   3.954   6.570
 5062SOL     OW16005   1.881   4.092   6.233
 5062SOL    HW116006   1.799   4.135   6.272
 5062SOL    HW216007   1.853   4.019   6.170
 5063SOL     OW16008   2.431   4.999   6.751
 5063SOL    HW116009   2.338   4.992   6.714
 5063SOL    HW216010   2.442   5.088   6.795
 5064SOL     OW16011   3.417   5.235   6.289
 5064SOL    HW116012   3.360   5.219   6.370
 5064SOL    HW216013   3.358   5.245   6.209
 5065SOL     OW16014   2.997   4.427   6.303
 5065SOL    HW116015   3.054   4.505   6.278
 5065SOL    HW216016   2.937   4.453   6.379
 5066SOL     OW16017   3.617   4.331   5.817
 5066SOL    HW116018   3.605   4.318   5.718
 5066SOL    HW216019   3.587   4.250   5.866
 5067SOL     OW16020   2.630   4.868   6.609
 5067SOL    HW116021   2.552   4.885   6.669
 5067SOL    HW216022   2.664   4.955   6.573
 5068SOL     OW16023   2.547   4.736   6.251
 5068SOL    HW116024   2.616   4.720   6.321
 5068SOL    HW216025   2.474   4.793   6.289
 5069SOL     OW16026   2.197   5.159   6.647
 5069SOL    HW116027   2.119   5.128   6.594
 5069SOL    HW216028   2.255   5.217   6.590
 5070SOL     OW16029   3.465   4.171   6.323
 5070SOL    HW116030   3.391   4.217   6.273
 5070SOL    HW216031   3.516   4.239   6.376
 5071SOL     OW16032   2.093   5.437   6.069
 5071SOL    HW116033   2.127   5.514   6.123
 5071SOL    HW216034   2.137   5.437   5.979
 5072SOL     OW16035   2.092   5.158   6.124
 5072SOL    HW116036   2.066   5.254   6.124
 5072SOL    HW216037   2.021   5.104   6.169
 5073SOL     OW16038   2.102   4.815   6.472
 5073SOL    HW116039   2.116   4.731   6.524
 5073SOL    HW216040   2.047   4.879   6.527
 5074SOL     OW16041   2.482   5.510   7.025
 5074SOL    HW116042   2.390   5.493   7.060
 5074SOL    HW216043   2.510   5.602   7.051
 5075SOL     OW16044   2.468   4.688   5.709
 5075SOL    HW116045   2.475   4.772   5.655
 5075SOL    HW216046   2.514   4.701   5.797
 5076SOL     OW16047   1.984   4.367   6.149
 5076SOL    HW116048   1.939   4.279   6.166
 5076SOL    HW216049   1.983   4.421   6.233
 5077SOL     OW16050   3.704   5.491   5.945
 5077SOL    HW116051   3.758   5.462   6.025
 5077SOL    HW216052   3.734   5.581   5.916
 5078SOL     OW16053   1.889   5.320   5.703
 5078SOL    HW116054   1.870   5.224   5.724
 5078SOL    HW216055   1.856   5.378   5.778
 5079SOL     OW16056   3.551   4.646   6.198
 5079SOL    HW116057   3.646   4.617   6.206
 5079SOL    HW216058   3.543   4.711   6.123
 5080SOL     OW16059   3.503   4.832   6.018
 5080SOL    HW116060   3.589   4.834   5.966
 5080SOL    HW216061   3.517   4.879   6.106
 5081SOL     OW16062   2.475   5.089   6.312
 5081SOL    HW116063   2.426   5.002   6.321
 5081SOL    HW216064   2.452   5.132   6.225
 5082SOL     OW16065   2.671   3.728   6.088
 5082SOL    HW116066   2.711   3.819   6.079
 5082SOL    HW216067   2.571   3.736   6.094
 5083SOL     OW16068   2.059   4.700   6.850
 5083SOL    HW116069   2.148   4.655   6.836
 5083SOL    HW216070   1.986   4.635   6.831
 5084SOL     OW16071   3.387   4.723   5.776
 5084SOL    HW116072   3.324   4.647   5.789
 5084SOL    HW216073   3.435   4.741   5.862
 5085SOL     OW16074   3.328   5.141   6.539
 5085SOL    HW116075   3.269   5.147   6.619
 5085SOL    HW216076   3.313   5.053   6.493
 5086SOL     OW16077   3.529   5.438   6.158
 5086SOL    HW116078   3.488   5.415   6.070
 5086SOL    HW216079   3.511   5.364   6.223
 5087SOL     OW16080   2.460   4.453   5.856
 5087SOL    HW116081   2.484   4.522   5.788
 5087SOL    HW216082   2.382   4.486   5.910
 5088SOL     OW16083   3.143   4.069   6.530
 5088SOL    HW116084   3.057   4.019   6.517
 5088SOL    HW216085   3.205   4.015   6.586
 5089SOL     OW16086   3.438   5.386   5.893
 5089SOL    HW116087   3.527   5.432   5.896
 5089SOL    HW216088   3.417   5.362   5.798
 5090SOL     OW16089   2.669   4.329   7.051
 5090SOL    HW116090   2.622   4.326   7.140
 5090SOL    HW216091   2.618   4.274   6.985
 5091SOL     OW16092   2.853   4.134   6.828
 5091SOL    HW116093   2.776   4.168   6.882
 5091SOL    HW216094   2.819   4.083   6.749
 5092SOL     OW16095   2.903   4.425   6.015
 5092SOL    HW116096   2.929   4.421   6.111
 5092SOL    HW216097   2.818   4.374   6.001
 5093SOL     OW16098   1.938   4.535   6.375
 5093SOL    HW116099   2.037   4.523   6.384
 5093SOL    HW216100   1.914   4.630   6.396
 5094SOL     OW16101   1.992   5.545   7.157
 5094SOL    HW116102   1.982   5.530   7.256
 5094SOL    HW216103   1.906   5.581   7.121
 5095SOL     OW16104   2.727   4.072   5.781
 5095SOL    HW116105   2.786   4.135   5.732
 5095SOL    HW216106   2.746   3.978   5.752
 5096SOL     OW16107   3.224   4.868   6.131
 5096SOL    HW116108   3.307   4.839   6.083
 5096SOL    HW216109   3.175   4.935   6.075
 5097SOL     OW16110   2.412   3.920   6.471
 5097SOL    HW116111   2.407   3.915   6.571
 5097SOL    HW216112   2.414   4.016   6.442
 5098SOL     OW16113   2.870   5.180   6.063
 5098SOL    HW116114   2.824   5.252   6.011
 5098SOL    HW216115   2.866   5.200   6.161
 5099SOL     OW16116   2.213   5.525   6.439
 5099SOL    HW116117   2.263   5.439   6.445
 5099SOL    HW216118   2.278   5.602   6.436
 5100SOL     OW16119   3.657   4.790   6.459
 5100SOL    HW116120   3.595   4.775   6.383
 5100SOL    HW216121   3.605   4.801   6.544
 5101SOL     OW16122   2.183   4.667   5.828
 5101SOL    HW116123   2.265   4.706   5.786
 5101SOL    HW216124   2.156   4.585   5.779
 5102SOL     OW16125   3.320   4.459   6.314
 5102SOL    HW116126   3.315   4.394   6.389
 5102SOL    HW216127   3.400   4.518   6.327
 5103SOL     OW16128   2.973   5.500   5.823
 5103SOL    HW116129   2.913   5.438   5.873
 5103SOL    HW216130   3.004   5.456   5.738
 5104SOL     OW16131   3.494   5.101   5.667
 5104SOL    HW116132   3.462   5.195   5.657
 5104SOL    HW216133   3.418   5.038   5.655
 5105SOL     OW16134   2.326   5.467   5.909
 5105SOL    HW116135   2.359   5.506   5.995
 5105SOL    HW216136   2.402   5.460   5.844
 5106SOL     OW16137   3.262   3.831   6.012
 5106SOL    HW116138   3.238   3.794   5.922
 5106SOL    HW216139   3.361   3.847   6.016
 5107SOL     OW16140   2.111   5.509   6.827
 5107SOL    HW116141   2.168   5.444   6.877
 5107SOL    HW216142   2.095   5.476   6.734
 5108SOL     OW16143   2.802   5.422   6.490
 5108SOL    HW116144   2.882   5.365   6.511
 5108SOL    HW216145   2.753   5.382   6.413
 5109SOL     OW16146   2.244   4.424   6.066
 5109SOL    HW116147   2.289   4.334   6.063
 5109SOL    HW216148   2.150   4.413   6.099
 5110SOL     OW16149   2.476   3.846   5.703
 5110SOL    HW116150   2.574   3.824   5.710
 5110SOL    HW216151   2.445   3.829   5.610
 5111SOL     OW16152   2.750   5.238   6.781
 5111SOL    HW116153   2.727   5.213   6.687
 5111SOL    HW216154   2.811   5.169   6.820
 5112SOL     OW16155   2.665   5.126   6.510
 5112SOL    HW116156   2.755   5.140   6.468
 5112SOL    HW216157   2.594   5.128   6.439
 5113SOL     OW16158   2.784   4.227   6.485
 5113SOL    HW116159   2.759   4.218   6.389
 5113SOL    HW216160   2.832   4.145   6.516
 5114SOL     OW16161   2.401   3.788   6.098
 5114SOL    HW116162   2.320   3.789   6.156
 5114SOL    HW216163   2.404   3.871   6.043
 5115SOL     OW16164   3.296   4.912   5.627
 5115SOL    HW116165   3.328   4.836   5.684
 5115SOL    HW216166   3.204   4.939   5.657
 5116SOL     OW16167   2.159   3.759   5.757
 5116SOL    HW116168   2.208   3.843   5.736
 5116SOL    HW216169   2.221   3.694   5.802
 5117SOL     OW16170   2.797   3.960   6.066
 5117SOL    HW116171   2.749   4.001   5.988
 5117SOL    HW216172   2.896   3.958   6.047
 5118SOL     OW16173   3.089   5.294   6.379
 5118SOL    HW116174   3.110   5.368   6.314
 5118SOL    HW216175   3.157   5.294   6.452
 5119SOL     OW16176   2.321   4.876   6.327
 5119SOL    HW116177   2.250   4.849   6.392
 5119SOL    HW216178   2.295   4.848   6.234
 5120SOL     OW16179   3.133   5.521   6.177
 5120SOL    HW116180   3.177   5.585   6.113
 5120SOL    HW216181   3.083   5.573   6.247
 5121SOL     OW16182   2.894   4.273   5.602
 5121SOL    HW116183   2.853   4.355   5.563
 5121SOL    HW216184   2.958   4.299   5.675
 5122SOL     OW16185   2.423   3.946   6.733
 5122SOL    HW116186   2.461   3.862   6.770
 5122SOL    HW216187   2.335   3.965   6.777
 5123SOL     OW16188   2.728   4.178   6.228
 5123SOL    HW116189   2.696   4.250   6.166
 5123SOL    HW216190   2.752   4.097   6.175
 5124SOL     OW16191   2.879   3.763   6.339
 5124SOL    HW116192   2.807   3.768   6.270
 5124SOL    HW216193   2.855   3.694   6.408
 5125SOL     OW16194   3.291   4.897   6.453
 5125SOL    HW116195   3.236   4.813   6.446
 5125SOL    HW216196   3.317   4.926   6.361
 5126SOL     OW16197   3.328   4.314   6.578
 5126SOL    HW116198   3.298   4.219   6.585
 5126SOL    HW216199   3.401   4.330   6.644
 5127SOL     OW16200   3.719   4.557   5.963
 5127SOL    HW116201   3.761   4.493   6.027
 5127SOL    HW216202   3.681   4.506   5.885
 5128SOL     OW16203   2.350   5.109   5.760
 5128SOL    HW116204   2.263   5.094   5.807
 5128SOL    HW216205   2.333   5.135   5.665
 5129SOL     OW16206   3.526   5.004   6.243
 5129SOL    HW116207   3.625   5.012   6.257
 5129SOL    HW216208   3.481   5.088   6.274
 5130SOL     OW16209   3.252   4.299   5.664
 5130SOL    HW116210   3.198   4.278   5.745
 5130SOL    HW216211   3.343   4.258   5.673
 5131SOL     OW16212   2.389   3.980   5.914
 5131SOL    HW116213   2.416   3.921   5.839
 5131SOL    HW216214   2.389   4.075   5.883
 5132SOL     OW16215   3.616   4.947   7.174
 5132SOL    HW116216   3.707   4.908   7.161
 5132SOL    HW216217   3.624   5.043   7.198
 5133SOL     OW16218   2.973   4.919   6.686
 5133SOL    HW116219   2.933   4.963   6.767
 5133SOL    HW216220   2.932   4.956   6.603
 5134SOL     OW16221   3.500   4.823   6.665
 5134SOL    HW116222   3.505   4.904   6.724
 5134SOL    HW216223   3.414   4.825   6.614
 5135SOL     OW16224   2.567   4.774   5.954
 5135SOL    HW116225   2.553   4.781   6.053
 5135SOL    HW216226   2.651   4.723   5.936
 5136SOL     OW16227   2.272   4.537   6.837
 5136SOL    HW116228   2.358   4.549   6.887
 5136SOL    HW216229   2.230   4.450   6.864
 5137SOL     OW16230   3.136   4.110   6.848
 5137SOL    HW116231   3.157   4.184   6.912
 5137SOL    HW216232   3.047   4.127   6.805
 5138SOL     OW16233   1.926   5.288   6.917
 5138SOL    HW116234   1.880   5.370   6.883
 5138SOL    HW216235   2.024   5.307   6.926
 5139SOL     OW16236   2.229   4.824   6.087
 5139SOL    HW116237   2.222   4.907   6.031
 5139SOL    HW216238   2.233   4.744   6.027
 5140SOL     OW16239   2.428   4.261   6.451
 5140SOL    HW116240   2.440   4.327   6.377
 5140SOL    HW216241   2.474   4.295   6.534
 5141SOL     OW16242   3.114   5.072   5.974
 5141SOL    HW116243   3.164   5.149   6.014
 5141SOL    HW216244   3.019   5.074   6.006
 5142SOL     OW16245   3.134   5.169   6.728
 5142SOL    HW116246   3.181   5.182   6.815
 5142SOL    HW216247   3.068   5.095   6.737
 5143SOL     OW16248   3.444   4.363   6.058
 5143SOL    HW116249   3.413   4.424   6.131
 5143SOL    HW216250   3.494   4.415   5.989
 5144SOL     OW16251   2.216   5.234   6.915
 5144SOL    HW116252   2.195   5.190   6.828
 5144SOL    HW216253   2.313   5.260   6.918
 5145SOL     OW16254   2.435   4.594   6.615
 5145SOL    HW116255   2.479   4.683   6.606
 5145SOL    HW216256   2.372   4.594   6.692
 5146SOL     OW16257   3.222   4.586   6.631
 5146SOL    HW116258   3.147   4.586   6.565
 5146SOL    HW216259   3.259   4.494   6.640
 5147SOL     OW16260   3.071   4.249   5.861
 5147SOL    HW116261   3.084   4.165   5.915
 5147SOL    HW216262   3.042   4.323   5.921
 5148SOL     OW16263   2.169   3.937   6.817
 5148SOL    HW116264   2.146   3.974   6.907
 5148SOL    HW216265   2.139   3.842   6.811
 5149SOL     OW16266   1.899   5.034   6.868
 5149SOL    HW116267   1.952   4.985   6.936
 5149SOL    HW216268   1.921   5.132   6.873
 5150SOL     OW16269   2.594   4.358   6.650
 5150SOL    HW116270   2.653   4.332   6.574
 5150SOL    HW216271   2.566   4.454   6.639
 5151SOL     OW16272   2.169   3.787   6.204
 5151SOL    HW116273   2.158   3.881   6.237
 5151SOL    HW216274   2.164   3.724   6.281
 5152SOL     OW16275   3.484   4.091   5.960
 5152SOL    HW116276   3.486   4.015   6.024
 5152SOL    HW216277   3.436   4.168   6.000
 5153SOL     OW16278   2.885   4.490   6.552
 5153SOL    HW116279   2.900   4.511   6.648
 5153SOL    HW216280   2.855   4.395   6.543
 5154SOL     OW16281   3.402   3.998   5.711
 5154SOL    HW116282   3.341   3.923   5.734
 5154SOL    HW216283   3.424   4.050   5.794
 5155SOL     OW16284   3.165   4.562   5.628
 5155SOL    HW116285   3.199   4.469   5.643
 5155SOL    HW216286   3.183   4.589   5.533
 5156SOL     OW16287   2.930   5.057   6.435
 5156SOL    HW116288   2.937   4.973   6.380
 5156SOL    HW216289   2.992   5.126   6.399
 5157SOL     OW16290   2.181   4.534   6.535
 5157SOL    HW116291   2.274   4.570   6.540
 5157SOL    HW216292   2.175   4.449   6.587
 5158SOL     OW16293   2.201   4.233   6.592
 5158SOL    HW116294   2.149   4.150   6.575
 5158SOL    HW216295   2.278   4.238   6.528
 5159SOL     OW16296   3.022   3.931   7.063
 5159SOL    HW116297   3.022   3.995   7.140
 5159SOL    HW216298   3.050   3.979   6.980
 5160SOL     OW16299   1.870   5.050   5.786
 5160SOL    HW116300   1.777   5.071   5.755
 5160SOL    HW216301   1.880   4.951   5.799
 5161SOL     OW16302   1.950   5.525   6.513
 5161SOL    HW116303   1.908   5.439   6.486
 5161SOL    HW216304   2.044   5.528   6.479
 5162SOL     OW16305   2.366   5.292   6.496
 5162SOL    HW116306   2.432   5.366   6.505
 5162SOL    HW216307   2.410   5.213   6.454
 5163SOL     OW16308   2.864   4.520   6.824
 5163SOL    HW116309   2.905   4.488   6.910
 5163SOL    HW216310   2.768   4.493   6.821
 5164SOL     OW16311   1.902   4.268   6.700
 5164SOL    HW116312   1.987   4.235   6.659
 5164SOL    HW216313   1.915   4.283   6.798
 5165SOL     OW16314   2.677   4.296   5.911
 5165SOL    HW116315   2.684   4.207   5.865
 5165SOL    HW216316   2.583   4.330   5.903
 5166SOL     OW16317   3.519   4.328   6.792
 5166SOL    HW116318   3.481   4.259   6.854
 5166SOL    HW216319   3.601   4.292   6.748
 5167SOL     OW16320   2.533   4.188   6.855
 5167SOL    HW116321   2.499   4.099   6.825
 5167SOL    HW216322   2.559   4.242   6.775
 5168SOL     OW16323   2.792   5.402   7.051
 5168SOL    HW116324   2.768   5.384   6.956
 5168SOL    HW216325   2.822   5.496   7.061
 5169SOL     OW16326   2.335   4.224   5.777
 5169SOL    HW116327   2.396   4.304   5.781
 5169SOL    HW216328   2.240   4.255   5.784
 5170SOL     OW16329   2.021   4.861   7.052
 5170SOL    HW116330   2.043   4.800   7.128
 5170SOL    HW216331   2.031   4.812   6.966
 5171SOL     OW16332   3.209   4.783   6.820
 5171SOL    HW116333   3.233   4.720   6.746
 5171SOL    HW216334   3.119   4.823   6.802
 5172SOL     OW16335   3.164   4.579   5.895
 5172SOL    HW116336   3.078   4.548   5.937
 5172SOL    HW216337   3.160   4.565   5.796
 5173SOL     OW16338   3.621   5.471   6.740
 5173SOL    HW116339   3.682   5.501   6.667
 5173SOL    HW216340   3.583   5.382   6.718
 5174SOL     OW16341   3.114   5.455   6.714
 5174SOL    HW116342   3.198   5.460   6.660
 5174SOL    HW216343   3.091   5.359   6.732
 5175SOL     OW16344   1.945   4.982   6.608
 5175SOL    HW116345   1.940   4.981   6.708
 5175SOL    HW216346   1.862   4.941   6.570
 5176SOL     OW16347   3.588   3.859   6.109
 5176SOL    HW116348   3.661   3.842   6.042
 5176SOL    HW216349   3.557   3.772   6.147
 5177SOL     OW16350   3.250   5.297   6.063
 5177SOL    HW116351   3.317   5.309   5.989
 5177SOL    HW216352   3.210   5.386   6.086
 5178SOL     OW16353   3.142   4.651   6.258
 5178SOL    HW116354   3.202   4.570   6.260
 5178SOL    HW216355   3.182   4.720   6.198
 5179SOL     OW16356   2.534   5.340   5.740
 5179SOL    HW116357   2.543   5.350   5.641
 5179SOL    HW216358   2.494   5.251   5.761
 5180SOL     OW16359   3.703   3.899   6.549
 5180SOL    HW116360   3.742   3.814   6.513
 5180SOL    HW216361   3.605   3.901   6.530
 5181SOL     OW16362   2.125   4.050   6.306
 5181SOL    HW116363   2.046   4.101   6.272
 5181SOL    HW216364   2.116   4.035   6.404
 5182SOL     OW16365   3.056   5.336   5.617
 5182SOL    HW116366   3.062   5.243   5.654
 5182SOL    HW216367   2.997   5.336   5.537
 5183SOL     OW16368   2.684   4.726   6.958
 5183SOL    HW116369   2.724   4.725   6.866
 5183SOL    HW216370   2.694   4.818   6.998
 5184SOL     OW16371   2.778   4.634   5.877
 5184SOL    HW116372   2.841   4.672   5.809
 5184SOL    HW216373   2.818   4.551   5.916
 5185SOL     OW16374   3.366   5.331   5.630
 5185SOL    HW116375   3.274   5.368   5.637
 5185SOL    HW216376   3.404   5.351   5.540
 5186SOL     OW16377   3.476   5.016   6.875
 5186SOL    HW116378   3.536   5.019   6.955
 5186SOL    HW216379   3.401   5.080   6.888
 5187SOL     OW16380   2.901   4.822   6.282
 5187SOL    HW116381   2.831   4.775   6.336
 5187SOL    HW216382   2.960   4.754   6.239
 5188SOL     OW16383   2.876   3.960   6.557
 5188SOL    HW116384   2.868   3.924   6.464
 5188SOL    HW216385   2.874   3.884   6.622
 5189SOL     OW16386   2.452   5.211   6.077
 5189SOL    HW116387   2.494   5.153   6.007
 5189SOL    HW216388   2.408   5.290   6.033
 5190SOL     OW16389   3.571   4.109   6.967
 5190SOL    HW116390   3.644   4.178   6.971
 5190SOL    HW216391   3.599   4.034   6.908
 5191SOL     OW16392   2.117   5.072   5.876
 5191SOL    HW116393   2.021   5.073   5.849
 5191SOL    HW216394   2.129   5.125   5.960
 5192SOL     OW16395   2.534   3.927   7.075
 5192SOL    HW116396   2.624   3.911   7.035
 5192SOL    HW216397   2.542   3.932   7.174
 5193SOL     OW16398   1.937   4.069   5.619
 5193SOL    HW116399   1.845   4.041   5.590
 5193SOL    HW216400   1.968   4.146   5.563
 5194SOL     OW16401   1.934   3.890   5.904
 5194SOL    HW116402   1.917   3.973   5.850
 5194SOL    HW216403   2.024   3.853   5.882
 5195SOL     OW16404   3.045   5.059   5.705
 5195SOL    HW116405   2.946   5.048   5.707
 5195SOL    HW216406   3.079   5.074   5.798
 5196SOL     OW16407   3.355   5.491   6.545
 5196SOL    HW116408   3.388   5.555   6.476
 5196SOL    HW216409   3.421   5.485   6.620
 5197SOL     OW16410   3.312   4.944   7.219
 5197SOL    HW116411   3.303   4.934   7.318
 5197SOL    HW216412   3.408   4.937   7.193
 5198SOL     OW16413   2.252   5.465   7.146
 5198SOL    HW116414   2.161   5.506   7.144
 5198SOL    HW216415   2.245   5.371   7.178
 5199SOL     OW16416   3.536   4.607   6.840
 5199SOL    HW116417   3.509   4.518   6.803
 5199SOL    HW216418   3.537   4.675   6.767
 5200SOL     OW16419   3.087   4.049   6.035
 5200SOL    HW116420   3.152   3.975   6.024
 5200SOL    HW216421   3.107   4.099   6.119
 5201SOL     OW16422   2.456   4.469   6.238
 5201SOL    HW116423   2.506   4.554   6.219
 5201SOL    HW216424   2.368   4.471   6.190
 5202SOL     OW16425   3.592   4.658   7.103
 5202SOL    HW116426   3.630   4.749   7.118
 5202SOL    HW216427   3.584   4.641   7.004
 5203SOL     OW16428   2.721   5.098   5.602
 5203SOL    HW116429   2.675   5.113   5.690
 5203SOL    HW216430   2.765   5.183   5.572
 5204SOL     OW16431   2.523   5.514   6.539
 5204SOL    HW116432   2.477   5.602   6.526
 5204SOL    HW216433   2.622   5.526   6.532
 5205SOL     OW16434   2.721   4.680   6.447
 5205SOL    HW116435   2.775   4.611   6.495
 5205SOL    HW216436   2.689   4.749   6.513
 5206SOL     OW16437   2.945   4.708   5.673
 5206SOL    HW116438   2.922   4.761   5.591
 5206SOL    HW216439   3.026   4.652   5.654
 5207SOL     OW16440   3.723   5.293   6.437
 5207SOL    HW116441   3.652   5.281   6.367
 5207SOL    HW216442   3.724   5.214   6.497
 5208SOL     OW16443   1.941   4.964   6.239
 5208SOL    HW116444   1.940   4.917   6.327
 5208SOL    HW216445   2.023   4.936   6.188
 5209SOL     OW16446   3.686   3.916   6.813
 5209SOL    HW116447   3.682   3.826   6.857
 5209SOL    HW216448   3.689   3.905   6.714
 5210SOL     OW16449   2.290   4.148   6.106
 5210SOL    HW116450   2.320   4.076   6.044
 5210SOL    HW216451   2.251   4.108   6.189
 5211SOL     OW16452   3.567   5.211   6.690
 5211SOL    HW116453   3.474   5.186   6.663
 5211SOL    HW216454   3.593   5.161   6.772
 5212SOL     OW16455   2.179   4.271   6.866
 5212SOL    HW116456   2.217   4.212   6.938
 5212SOL    HW216457   2.219   4.245   6.778
 5213SOL     OW16458   2.674   5.310   6.273
 5213SOL    HW116459   2.706   5.320   6.179
 5213SOL    HW216460   2.595   5.248   6.275
 5214SOL     OW16461   3.286   3.938   6.698
 5214SOL    HW116462   3.338   3.873   6.753
 5214SOL    HW216463   3.237   4.001   6.759
 5215SOL     OW16464   2.863   3.758   6.740
 5215SOL    HW116465   2.800   3.686   6.709
 5215SOL    HW216466   2.956   3.722   6.740
 5216SOL     OW16467   2.632   5.054   5.887
 5216SOL    HW116468   2.586   4.967   5.904
 5216SOL    HW216469   2.723   5.051   5.928
 5217SOL     OW16470   2.480   5.291   6.870
 5217SOL    HW116471   2.475   5.373   6.927
 5217SOL    HW216472   2.569   5.288   6.825
 5218SOL     OW16473   3.214   3.776   5.754
 5218SOL    HW116474   3.249   3.735   5.670
 5218SOL    HW216475   3.124   3.738   5.774
 5219SOL     OW16476   3.162   4.177   6.277
 5219SOL    HW116477   3.103   4.257   6.281
 5219SOL    HW216478   3.177   4.142   6.370
 5220SOL     OW16479   3.455   3.945   6.468
 5220SOL    HW116480   3.371   3.944   6.522
 5220SOL    HW216481   3.457   4.028   6.412
 5221SOL     OW16482   1.901   4.801   5.886
 5221SOL    HW116483   2.000   4.790   5.877
 5221SOL    HW216484   1.861   4.715   5.918
 5222SOL     OW16485   2.737   5.370   5.923
 5222SOL    HW116486   2.660   5.335   5.869
 5222SOL    HW216487   2.705   5.441   5.985
 5223SOL     OW16488   2.092   6.214   0.113
 5223SOL    HW116489   1.999   6.212   0.150
 5223SOL    HW216490   2.093   6.175   0.021
 5224SOL     OW16491   2.087   5.861   0.996
 5224SOL    HW116492   2.122   5.844   1.088
 5224SOL    HW216493   1.999   5.816   0.984
 5225SOL     OW16494   1.881   5.954   0.647
 5225SOL    HW116495   1.799   5.997   0.686
 5225SOL    HW216496   1.853   5.881   0.584
 5226SOL     OW16497   2.431   6.861   1.165
 5226SOL    HW116498   2.338   6.854   1.128
 5226SOL    HW216499   2.442   6.950   1.209
 5227SOL     OW16500   3.417   7.097   0.703
 5227SOL    HW116501   3.360   7.081   0.784
 5227SOL    HW216502   3.358   7.107   0.623
 5228SOL     OW16503   2.997   6.289   0.717
 5228SOL    HW116504   3.054   6.367   0.692
 5228SOL    HW216505   2.937   6.315   0.793
 5229SOL     OW16506   3.617   6.193   0.231
 5229SOL    HW116507   3.605   6.180   0.132
 5229SOL    HW216508   3.587   6.112   0.280
 5230SOL     OW16509   2.630   6.730   1.023
 5230SOL    HW116510   2.552   6.747   1.083
 5230SOL    HW216511   2.664   6.817   0.987
 5231SOL     OW16512   2.712   6.384   1.823
 5231SOL    HW116513   2.708   6.460   1.888
 5231SOL    HW216514   2.734   6.420   1.732
 5232SOL     OW16515   2.547   6.598   0.665
 5232SOL    HW116516   2.616   6.582   0.735
 5232SOL    HW216517   2.474   6.655   0.703
 5233SOL     OW16518   2.548   6.747   1.803
 5233SOL    HW116519   2.608   6.826   1.817
 5233SOL    HW216520   2.462   6.778   1.762
 5234SOL     OW16521   2.197   7.021   1.061
 5234SOL    HW116522   2.119   6.990   1.008
 5234SOL    HW216523   2.255   7.079   1.004
 5235SOL     OW16524   2.300   5.978   1.499
 5235SOL    HW116525   2.382   5.922   1.508
 5235SOL    HW216526   2.219   5.920   1.503
 5236SOL     OW16527   3.465   6.033   0.737
 5236SOL    HW116528   3.391   6.079   0.687
 5236SOL    HW216529   3.516   6.101   0.790
 5237SOL     OW16530   2.102   6.677   0.886
 5237SOL    HW116531   2.116   6.593   0.938
 5237SOL    HW216532   2.047   6.741   0.941
 5238SOL     OW16533   2.468   6.550   0.123
 5238SOL    HW116534   2.475   6.634   0.069
 5238SOL    HW216535   2.514   6.563   0.211
 5239SOL     OW16536   3.456   5.700   1.480
 5239SOL    HW116537   3.438   5.767   1.408
 5239SOL    HW216538   3.453   5.746   1.569
 5240SOL     OW16539   1.984   6.229   0.563
 5240SOL    HW116540   1.939   6.141   0.580
 5240SOL    HW216541   1.983   6.283   0.647
 5241SOL     OW16542   3.551   6.508   0.612
 5241SOL    HW116543   3.646   6.479   0.620
 5241SOL    HW216544   3.543   6.573   0.537
 5242SOL     OW16545   3.503   6.694   0.432
 5242SOL    HW116546   3.589   6.696   0.380
 5242SOL    HW216547   3.517   6.741   0.520
 5243SOL     OW16548   1.975   6.323   1.597
 5243SOL    HW116549   2.063   6.310   1.642
 5243SOL    HW216550   1.962   6.420   1.575
 5244SOL     OW16551   3.155   6.814   1.423
 5244SOL    HW116552   3.192   6.741   1.365
 5244SOL    HW216553   3.207   6.819   1.508
 5245SOL     OW16554   2.671   5.590   0.502
 5245SOL    HW116555   2.711   5.681   0.493
 5245SOL    HW216556   2.571   5.598   0.508
 5246SOL     OW16557   2.059   6.562   1.264
 5246SOL    HW116558   2.148   6.517   1.250
 5246SOL    HW216559   1.986   6.497   1.245
 5247SOL     OW16560   3.387   6.585   0.190
 5247SOL    HW116561   3.324   6.509   0.203
 5247SOL    HW216562   3.435   6.603   0.276
 5248SOL     OW16563   2.179   5.837   1.801
 5248SOL    HW116564   2.250   5.908   1.807
 5248SOL    HW216565   2.091   5.876   1.829
 5249SOL     OW16566   3.328   7.003   0.953
 5249SOL    HW116567   3.269   7.009   1.033
 5249SOL    HW216568   3.313   6.915   0.907
 5250SOL     OW16569   2.460   6.315   0.270
 5250SOL    HW116570   2.484   6.384   0.202
 5250SOL    HW216571   2.382   6.348   0.324
 5251SOL     OW16572   3.143   5.931   0.944
 5251SOL    HW116573   3.057   5.881   0.931
 5251SOL    HW216574   3.205   5.877   1.000
 5252SOL     OW16575   2.669   6.191   1.465
 5252SOL    HW116576   2.622   6.188   1.554
 5252SOL    HW216577   2.618   6.136   1.399
 5253SOL     OW16578   3.256   6.055   1.674
 5253SOL    HW116579   3.236   6.098   1.762
 5253SOL    HW216580   3.334   5.993   1.683
 5254SOL     OW16581   2.835   6.476   1.572
 5254SOL    HW116582   2.881   6.392   1.543
 5254SOL    HW216583   2.779   6.510   1.497
 5255SOL     OW16584   2.853   5.996   1.242
 5255SOL    HW116585   2.776   6.030   1.296
 5255SOL    HW216586   2.819   5.945   1.163
 5256SOL     OW16587   2.903   6.287   0.429
 5256SOL    HW116588   2.929   6.283   0.525
 5256SOL    HW216589   2.818   6.236   0.415
 5257SOL     OW16590   1.938   6.397   0.789
 5257SOL    HW116591   2.037   6.385   0.798
 5257SOL    HW216592   1.914   6.492   0.810
 5258SOL     OW16593   2.727   5.934   0.195
 5258SOL    HW116594   2.786   5.997   0.146
 5258SOL    HW216595   2.746   5.840   0.166
 5259SOL     OW16596   3.581   6.171   1.831
 5259SOL    HW116597   3.555   6.260   1.795
 5259SOL    HW216598   3.579   6.103   1.758
 5260SOL     OW16599   3.224   6.730   0.545
 5260SOL    HW116600   3.307   6.701   0.497
 5260SOL    HW216601   3.175   6.797   0.489
 5261SOL     OW16602   2.412   5.782   0.885
 5261SOL    HW116603   2.407   5.777   0.985
 5261SOL    HW216604   2.414   5.878   0.856
 5262SOL     OW16605   3.657   6.652   0.873
 5262SOL    HW116606   3.595   6.637   0.797
 5262SOL    HW216607   3.605   6.663   0.958
 5263SOL     OW16608   2.183   6.529   0.242
 5263SOL    HW116609   2.265   6.568   0.200
 5263SOL    HW216610   2.156   6.447   0.193
 5264SOL     OW16611   3.320   6.321   0.728
 5264SOL    HW116612   3.315   6.256   0.803
 5264SOL    HW216613   3.400   6.380   0.741
 5265SOL     OW16614   2.064   5.871   1.498
 5265SOL    HW116615   1.984   5.931   1.485
 5265SOL    HW216616   2.054   5.822   1.584
 5266SOL     OW16617   3.494   6.963   0.081
 5266SOL    HW116618   3.462   7.057   0.071
 5266SOL    HW216619   3.418   6.900   0.069
 5267SOL     OW16620   2.244   6.286   0.480
 5267SOL    HW116621   2.289   6.196   0.477
 5267SOL    HW216622   2.150   6.275   0.513
 5268SOL     OW16623   3.409   5.808   1.729
 5268SOL    HW116624   3.404   5.845   1.821
 5268SOL    HW216625   3.337   5.739   1.717
 5269SOL     OW16626   2.643   5.850   1.749
 5269SOL    HW116627   2.710   5.789   1.792
 5269SOL    HW216628   2.570   5.869   1.814
 5270SOL     OW16629   3.213   6.176   1.433
 5270SOL    HW116630   3.241   6.133   1.518
 5270SOL    HW216631   3.238   6.272   1.434
 5271SOL     OW16632   2.784   6.089   0.899
 5271SOL    HW116633   2.759   6.080   0.803
 5271SOL    HW216634   2.832   6.007   0.930
 5272SOL     OW16635   2.401   5.650   0.512
 5272SOL    HW116636   2.320   5.651   0.570
 5272SOL    HW216637   2.404   5.733   0.457
 5273SOL     OW16638   3.296   6.774   0.041
 5273SOL    HW116639   3.328   6.698   0.098
 5273SOL    HW216640   3.204   6.801   0.071
 5274SOL     OW16641   2.797   5.822   0.480
 5274SOL    HW116642   2.749   5.863   0.402
 5274SOL    HW216643   2.896   5.820   0.461
 5275SOL     OW16644   2.938   6.269   1.464
 5275SOL    HW116645   2.858   6.208   1.467
 5275SOL    HW216646   3.019   6.216   1.440
 5276SOL     OW16647   3.089   7.156   0.793
 5276SOL    HW116648   3.110   7.230   0.728
 5276SOL    HW216649   3.157   7.156   0.866
 5277SOL     OW16650   2.321   6.738   0.741
 5277SOL    HW116651   2.250   6.711   0.806
 5277SOL    HW216652   2.295   6.710   0.648
 5278SOL     OW16653   2.894   6.135   0.016
 5278SOL    HW116654   2.853   6.217  -0.023
 5278SOL    HW216655   2.958   6.161   0.089
 5279SOL     OW16656   1.940   6.142   1.386
 5279SOL    HW116657   2.032   6.141   1.345
 5279SOL    HW216658   1.934   6.216   1.453
 5280SOL     OW16659   2.423   5.808   1.147
 5280SOL    HW116660   2.461   5.724   1.184
 5280SOL    HW216661   2.335   5.827   1.191
 5281SOL     OW16662   2.728   6.040   0.642
 5281SOL    HW116663   2.696   6.112   0.580
 5281SOL    HW216664   2.752   5.959   0.589
 5282SOL     OW16665   2.879   5.625   0.753
 5282SOL    HW116666   2.807   5.630   0.684
 5282SOL    HW216667   2.855   5.556   0.822
 5283SOL     OW16668   3.291   6.759   0.867
 5283SOL    HW116669   3.236   6.675   0.860
 5283SOL    HW216670   3.317   6.788   0.775
 5284SOL     OW16671   3.328   6.176   0.992
 5284SOL    HW116672   3.298   6.081   0.999
 5284SOL    HW216673   3.401   6.192   1.058
 5285SOL     OW16674   3.719   6.419   0.377
 5285SOL    HW116675   3.761   6.355   0.441
 5285SOL    HW216676   3.681   6.368   0.299
 5286SOL     OW16677   3.526   6.866   0.657
 5286SOL    HW116678   3.625   6.874   0.671
 5286SOL    HW216679   3.481   6.950   0.688
 5287SOL     OW16680   3.252   6.161   0.078
 5287SOL    HW116681   3.198   6.140   0.159
 5287SOL    HW216682   3.343   6.120   0.087
 5288SOL     OW16683   2.389   5.842   0.328
 5288SOL    HW116684   2.416   5.783   0.253
 5288SOL    HW216685   2.389   5.937   0.297
 5289SOL     OW16686   3.616   6.809   1.588
 5289SOL    HW116687   3.707   6.770   1.575
 5289SOL    HW216688   3.624   6.905   1.612
 5290SOL     OW16689   2.926   6.933   1.340
 5290SOL    HW116690   2.846   6.910   1.395
 5290SOL    HW216691   3.009   6.907   1.389
 5291SOL     OW16692   2.973   6.781   1.100
 5291SOL    HW116693   2.933   6.825   1.181
 5291SOL    HW216694   2.932   6.818   1.017
 5292SOL     OW16695   3.500   6.685   1.079
 5292SOL    HW116696   3.505   6.766   1.138
 5292SOL    HW216697   3.414   6.687   1.028
 5293SOL     OW16698   2.777   5.675   1.402
 5293SOL    HW116699   2.802   5.655   1.307
 5293SOL    HW216700   2.849   5.731   1.444
 5294SOL     OW16701   2.842   6.702   1.719
 5294SOL    HW116702   2.743   6.708   1.729
 5294SOL    HW216703   2.865   6.622   1.663
 5295SOL     OW16704   2.567   6.636   0.368
 5295SOL    HW116705   2.553   6.643   0.467
 5295SOL    HW216706   2.651   6.585   0.350
 5296SOL     OW16707   2.272   6.399   1.251
 5296SOL    HW116708   2.358   6.411   1.301
 5296SOL    HW216709   2.230   6.312   1.278
 5297SOL     OW16710   3.136   5.972   1.262
 5297SOL    HW116711   3.157   6.046   1.326
 5297SOL    HW216712   3.047   5.989   1.219
 5298SOL     OW16713   2.229   6.686   0.501
 5298SOL    HW116714   2.222   6.769   0.445
 5298SOL    HW216715   2.233   6.606   0.441
 5299SOL     OW16716   2.428   6.123   0.865
 5299SOL    HW116717   2.440   6.189   0.791
 5299SOL    HW216718   2.474   6.157   0.948
 5300SOL     OW16719   3.444   6.225   0.472
 5300SOL    HW116720   3.413   6.286   0.545
 5300SOL    HW216721   3.494   6.277   0.403
 5301SOL     OW16722   2.264   6.337   1.598
 5301SOL    HW116723   2.332   6.392   1.551
 5301SOL    HW216724   2.304   6.249   1.625
 5302SOL     OW16725   3.449   6.365   1.670
 5302SOL    HW116726   3.357   6.403   1.665
 5302SOL    HW216727   3.509   6.412   1.605
 5303SOL     OW16728   2.875   5.691   1.770
 5303SOL    HW116729   2.881   5.776   1.718
 5303SOL    HW216730   2.907   5.615   1.713
 5304SOL     OW16731   2.366   5.636   1.740
 5304SOL    HW116732   2.324   5.579   1.670
 5304SOL    HW216733   2.300   5.705   1.772
 5305SOL     OW16734   2.435   6.456   1.029
 5305SOL    HW116735   2.479   6.545   1.020
 5305SOL    HW216736   2.372   6.456   1.106
 5306SOL     OW16737   3.222   6.448   1.045
 5306SOL    HW116738   3.147   6.448   0.979
 5306SOL    HW216739   3.259   6.356   1.054
 5307SOL     OW16740   3.071   6.111   0.275
 5307SOL    HW116741   3.084   6.027   0.329
 5307SOL    HW216742   3.042   6.185   0.335
 5308SOL     OW16743   2.169   5.799   1.231
 5308SOL    HW116744   2.146   5.836   1.321
 5308SOL    HW216745   2.139   5.704   1.225
 5309SOL     OW16746   1.899   6.896   1.282
 5309SOL    HW116747   1.952   6.847   1.350
 5309SOL    HW216748   1.921   6.994   1.287
 5310SOL     OW16749   2.594   6.220   1.064
 5310SOL    HW116750   2.653   6.194   0.988
 5310SOL    HW216751   2.566   6.316   1.053
 5311SOL     OW16752   3.590   6.521   1.854
 5311SOL    HW116753   3.544   6.514   1.765
 5311SOL    HW216754   3.528   6.565   1.920
 5312SOL     OW16755   2.169   5.649   0.618
 5312SOL    HW116756   2.158   5.743   0.651
 5312SOL    HW216757   2.164   5.586   0.695
 5313SOL     OW16758   3.484   5.953   0.374
 5313SOL    HW116759   3.486   5.877   0.438
 5313SOL    HW216760   3.436   6.030   0.414
 5314SOL     OW16761   2.885   6.352   0.966
 5314SOL    HW116762   2.900   6.373   1.062
 5314SOL    HW216763   2.855   6.257   0.957
 5315SOL     OW16764   3.721   7.104   1.605
 5315SOL    HW116765   3.735   7.131   1.510
 5315SOL    HW216766   3.804   7.126   1.658
 5316SOL     OW16767   2.212   6.484   1.804
 5316SOL    HW116768   2.288   6.528   1.852
 5316SOL    HW216769   2.247   6.437   1.722
 5317SOL     OW16770   3.402   5.860   0.125
 5317SOL    HW116771   3.341   5.785   0.148
 5317SOL    HW216772   3.424   5.912   0.208
 5318SOL     OW16773   3.165   6.424   0.042
 5318SOL    HW116774   3.199   6.331   0.057
 5318SOL    HW216775   3.183   6.451  -0.053
 5319SOL     OW16776   2.181   6.396   0.949
 5319SOL    HW116777   2.274   6.432   0.954
 5319SOL    HW216778   2.175   6.311   1.001
 5320SOL     OW16779   2.201   6.095   1.006
 5320SOL    HW116780   2.149   6.012   0.989
 5320SOL    HW216781   2.278   6.100   0.942
 5321SOL     OW16782   3.000   5.966   1.678
 5321SOL    HW116783   2.955   6.029   1.742
 5321SOL    HW216784   3.093   5.997   1.661
 5322SOL     OW16785   3.022   5.793   1.477
 5322SOL    HW116786   3.022   5.857   1.554
 5322SOL    HW216787   3.050   5.841   1.394
 5323SOL     OW16788   2.864   6.382   1.238
 5323SOL    HW116789   2.905   6.350   1.324
 5323SOL    HW216790   2.768   6.355   1.235
 5324SOL     OW16791   1.902   6.130   1.114
 5324SOL    HW116792   1.987   6.097   1.073
 5324SOL    HW216793   1.915   6.145   1.212
 5325SOL     OW16794   2.051   6.106   1.722
 5325SOL    HW116795   2.110   6.066   1.652
 5325SOL    HW216796   1.993   6.177   1.681
 5326SOL     OW16797   3.231   6.536   1.660
 5326SOL    HW116798   3.270   6.625   1.680
 5326SOL    HW216799   3.241   6.516   1.563
 5327SOL     OW16800   2.677   6.158   0.325
 5327SOL    HW116801   2.684   6.069   0.279
 5327SOL    HW216802   2.583   6.192   0.317
 5328SOL     OW16803   3.519   6.190   1.206
 5328SOL    HW116804   3.481   6.121   1.268
 5328SOL    HW216805   3.601   6.154   1.162
 5329SOL     OW16806   2.533   6.050   1.269
 5329SOL    HW116807   2.499   5.961   1.239
 5329SOL    HW216808   2.559   6.104   1.189
 5330SOL     OW16809   2.335   6.086   0.191
 5330SOL    HW116810   2.396   6.166   0.195
 5330SOL    HW216811   2.240   6.117   0.198
 5331SOL     OW16812   2.021   6.723   1.466
 5331SOL    HW116813   2.043   6.662   1.542
 5331SOL    HW216814   2.031   6.674   1.380
 5332SOL     OW16815   3.209   6.645   1.234
 5332SOL    HW116816   3.233   6.582   1.160
 5332SOL    HW216817   3.119   6.685   1.216
 5333SOL     OW16818   3.164   6.441   0.309
 5333SOL    HW116819   3.078   6.410   0.351
 5333SOL    HW216820   3.160   6.427   0.210
 5334SOL     OW16821   1.945   6.844   1.022
 5334SOL    HW116822   1.940   6.843   1.122
 5334SOL    HW216823   1.862   6.803   0.984
 5335SOL     OW16824   2.765   5.672   0.133
 5335SOL    HW116825   2.816   5.673   0.047
 5335SOL    HW216826   2.821   5.630   0.204
 5336SOL     OW16827   3.588   5.721   0.523
 5336SOL    HW116828   3.661   5.704   0.456
 5336SOL    HW216829   3.557   5.634   0.561
 5337SOL     OW16830   3.142   6.513   0.672
 5337SOL    HW116831   3.202   6.432   0.674
 5337SOL    HW216832   3.182   6.582   0.612
 5338SOL     OW16833   2.692   6.859   1.422
 5338SOL    HW116834   2.687   6.892   1.517
 5338SOL    HW216835   2.606   6.878   1.376
 5339SOL     OW16836   3.703   5.761   0.963
 5339SOL    HW116837   3.742   5.676   0.927
 5339SOL    HW216838   3.605   5.763   0.944
 5340SOL     OW16839   2.125   5.912   0.720
 5340SOL    HW116840   2.046   5.963   0.686
 5340SOL    HW216841   2.116   5.897   0.818
 5341SOL     OW16842   2.684   6.588   1.372
 5341SOL    HW116843   2.724   6.587   1.280
 5341SOL    HW216844   2.694   6.680   1.412
 5342SOL     OW16845   2.778   6.496   0.291
 5342SOL    HW116846   2.841   6.534   0.223
 5342SOL    HW216847   2.818   6.413   0.330
 5343SOL     OW16848   2.234   6.874   1.490
 5343SOL    HW116849   2.221   6.967   1.456
 5343SOL    HW216850   2.150   6.822   1.477
 5344SOL     OW16851   3.476   6.878   1.289
 5344SOL    HW116852   3.536   6.881   1.369
 5344SOL    HW216853   3.401   6.942   1.302
 5345SOL     OW16854   2.901   6.684   0.696
 5345SOL    HW116855   2.831   6.637   0.750
 5345SOL    HW216856   2.960   6.616   0.653
 5346SOL     OW16857   2.876   5.822   0.971
 5346SOL    HW116858   2.868   5.786   0.878
 5346SOL    HW216859   2.874   5.746   1.036
 5347SOL     OW16860   3.571   5.971   1.381
 5347SOL    HW116861   3.644   6.040   1.385
 5347SOL    HW216862   3.599   5.896   1.322
 5348SOL     OW16863   1.967   6.599   1.726
 5348SOL    HW116864   1.890   6.566   1.780
 5348SOL    HW216865   2.052   6.569   1.768
 5349SOL     OW16866   2.534   5.789   1.489
 5349SOL    HW116867   2.624   5.773   1.449
 5349SOL    HW216868   2.542   5.794   1.588
 5350SOL     OW16869   1.937   5.931   0.033
 5350SOL    HW116870   1.845   5.903   0.004
 5350SOL    HW216871   1.968   6.008  -0.023
 5351SOL     OW16872   3.302   6.442   1.398
 5351SOL    HW116873   3.245   6.494   1.335
 5351SOL    HW216874   3.398   6.454   1.374
 5352SOL     OW16875   1.934   5.752   0.318
 5352SOL    HW116876   1.917   5.835   0.264
 5352SOL    HW216877   2.024   5.715   0.296
 5353SOL     OW16878   2.475   6.428   1.431
 5353SOL    HW116879   2.531   6.509   1.414
 5353SOL    HW216880   2.534   6.348   1.434
 5354SOL     OW16881   2.578   6.151   1.708
 5354SOL    HW116882   2.597   6.216   1.782
 5354SOL    HW216883   2.638   6.071   1.717
 5355SOL     OW16884   3.312   6.806   1.633
 5355SOL    HW116885   3.303   6.796   1.732
 5355SOL    HW216886   3.408   6.799   1.607
 5356SOL     OW16887   3.536   6.469   1.254
 5356SOL    HW116888   3.509   6.380   1.217
 5356SOL    HW216889   3.537   6.537   1.181
 5357SOL     OW16890   3.087   5.911   0.449
 5357SOL    HW116891   3.152   5.837   0.438
 5357SOL    HW216892   3.107   5.961   0.533
 5358SOL     OW16893   2.456   6.331   0.652
 5358SOL    HW116894   2.506   6.416   0.633
 5358SOL    HW216895   2.368   6.333   0.604
 5359SOL     OW16896   3.639   5.928   1.642
 5359SOL    HW116897   3.622   5.959   1.548
 5359SOL    HW216898   3.555   5.891   1.680
 5360SOL     OW16899   3.592   6.520   1.517
 5360SOL    HW116900   3.630   6.611   1.532
 5360SOL    HW216901   3.584   6.503   1.418
 5361SOL     OW16902   2.721   6.542   0.861
 5361SOL    HW116903   2.775   6.473   0.909
 5361SOL    HW216904   2.689   6.611   0.927
 5362SOL     OW16905   2.945   6.570   0.087
 5362SOL    HW116906   2.922   6.623   0.005
 5362SOL    HW216907   3.026   6.514   0.068
 5363SOL     OW16908   2.083   6.900   1.844
 5363SOL    HW116909   2.018   6.827   1.823
 5363SOL    HW216910   2.087   6.914   1.942
 5364SOL     OW16911   1.941   6.826   0.653
 5364SOL    HW116912   1.940   6.779   0.741
 5364SOL    HW216913   2.023   6.798   0.602
 5365SOL     OW16914   2.534   6.977   1.624
 5365SOL    HW116915   2.456   6.927   1.662
 5365SOL    HW216916   2.531   7.072   1.655
 5366SOL     OW16917   3.686   5.778   1.227
 5366SOL    HW116918   3.682   5.688   1.271
 5366SOL    HW216919   3.689   5.767   1.128
 5367SOL     OW16920   2.290   6.010   0.520
 5367SOL    HW116921   2.320   5.938   0.458
 5367SOL    HW216922   2.251   5.970   0.603
 5368SOL     OW16923   3.567   7.073   1.104
 5368SOL    HW116924   3.474   7.048   1.077
 5368SOL    HW216925   3.593   7.023   1.186
 5369SOL     OW16926   2.179   6.133   1.280
 5369SOL    HW116927   2.217   6.074   1.352
 5369SOL    HW216928   2.219   6.107   1.192
 5370SOL     OW16929   3.286   5.800   1.112
 5370SOL    HW116930   3.338   5.735   1.167
 5370SOL    HW216931   3.237   5.863   1.173
 5371SOL     OW16932   2.863   5.620   1.154
 5371SOL    HW116933   2.800   5.548   1.123
 5371SOL    HW216934   2.956   5.584   1.154
 5372SOL     OW16935   2.632   6.916   0.301
 5372SOL    HW116936   2.586   6.829   0.318
 5372SOL    HW216937   2.723   6.913   0.342
 5373SOL     OW16938   3.214   5.638   0.168
 5373SOL    HW116939   3.249   5.597   0.084
 5373SOL    HW216940   3.124   5.600   0.188
 5374SOL     OW16941   3.162   6.039   0.691
 5374SOL    HW116942   3.103   6.119   0.695
 5374SOL    HW216943   3.177   6.004   0.784
 5375SOL     OW16944   3.455   5.807   0.882
 5375SOL    HW116945   3.371   5.806   0.936
 5375SOL    HW216946   3.457   5.890   0.826
 5376SOL     OW16947   1.901   6.663   0.300
 5376SOL    HW116948   2.000   6.652   0.291
 5376SOL    HW216949   1.861   6.577   0.332
 5377SOL     OW16950   2.092   6.214   1.975
 5377SOL    HW116951   1.999   6.212   2.012
 5377SOL    HW216952   2.093   6.175   1.883
 5378SOL     OW16953   2.087   5.861   2.858
 5378SOL    HW116954   2.122   5.844   2.950
 5378SOL    HW216955   1.999   5.816   2.846
 5379SOL     OW16956   1.881   5.954   2.509
 5379SOL    HW116957   1.799   5.997   2.548
 5379SOL    HW216958   1.853   5.881   2.446
 5380SOL     OW16959   2.431   6.861   3.027
 5380SOL    HW116960   2.338   6.854   2.990
 5380SOL    HW216961   2.442   6.950   3.071
 5381SOL     OW16962   3.417   7.097   2.565
 5381SOL    HW116963   3.360   7.081   2.646
 5381SOL    HW216964   3.358   7.107   2.485
 5382SOL     OW16965   2.997   6.289   2.579
 5382SOL    HW116966   3.054   6.367   2.554
 5382SOL    HW216967   2.937   6.315   2.655
 5383SOL     OW16968   3.617   6.193   2.093
 5383SOL    HW116969   3.605   6.180   1.994
 5383SOL    HW216970   3.587   6.112   2.142
 5384SOL     OW16971   2.630   6.730   2.885
 5384SOL    HW116972   2.552   6.747   2.945
 5384SOL    HW216973   2.664   6.817   2.849
 5385SOL     OW16974   2.712   6.384   3.685
 5385SOL    HW116975   2.708   6.460   3.750
 5385SOL    HW216976   2.734   6.420   3.594
 5386SOL     OW16977   2.547   6.598   2.527
 5386SOL    HW116978   2.616   6.582   2.597
 5386SOL    HW216979   2.474   6.655   2.565
 5387SOL     OW16980   2.548   6.747   3.665
 5387SOL    HW116981   2.608   6.826   3.679
 5387SOL    HW216982   2.462   6.778   3.624
 5388SOL     OW16983   2.197   7.021   2.923
 5388SOL    HW116984   2.119   6.990   2.870
 5388SOL    HW216985   2.255   7.079   2.866
 5389SOL     OW16986   2.300   5.978   3.361
 5389SOL    HW116987   2.382   5.922   3.370
 5389SOL    HW216988   2.219   5.920   3.365
 5390SOL     OW16989   3.465   6.033   2.599
 5390SOL    HW116990   3.391   6.079   2.549
 5390SOL    HW216991   3.516   6.101   2.652
 5391SOL     OW16992   2.102   6.677   2.748
 5391SOL    HW116993   2.116   6.593   2.800
 5391SOL    HW216994   2.047   6.741   2.803
 5392SOL     OW16995   2.468   6.550   1.985
 5392SOL    HW116996   2.475   6.634   1.931
 5392SOL    HW216997   2.514   6.563   2.073
 5393SOL     OW16998   3.456   5.700   3.342
 5393SOL    HW116999   3.438   5.767   3.270
 5393SOL    HW217000   3.453   5.746   3.431
 5394SOL     OW17001   1.984   6.229   2.425
 5394SOL    HW117002   1.939   6.141   2.442
 5394SOL    HW217003   1.983   6.283   2.509
 5395SOL     OW17004   3.551   6.508   2.474
 5395SOL    HW117005   3.646   6.479   2.482
 5395SOL    HW217006   3.543   6.573   2.399
 5396SOL     OW17007   3.503   6.694   2.294
 5396SOL    HW117008   3.589   6.696   2.242
 5396SOL    HW217009   3.517   6.741   2.382
 5397SOL     OW17010   1.975   6.323   3.459
 5397SOL    HW117011   2.063   6.310   3.504
 5397SOL    HW217012   1.962   6.420   3.437
 5398SOL     OW17013   3.155   6.814   3.285
 5398SOL    HW117014   3.192   6.741   3.227
 5398SOL    HW217015   3.207   6.819   3.370
 5399SOL     OW17016   2.671   5.590   2.364
 5399SOL    HW117017   2.711   5.681   2.355
 5399SOL    HW217018   2.571   5.598   2.370
 5400SOL     OW17019   2.059   6.562   3.126
 5400SOL    HW117020   2.148   6.517   3.112
 5400SOL    HW217021   1.986   6.497   3.107
 5401SOL     OW17022   3.387   6.585   2.052
 5401SOL    HW117023   3.324   6.509   2.065
 5401SOL    HW217024   3.435   6.603   2.138
 5402SOL     OW17025   2.179   5.837   3.663
 5402SOL    HW117026   2.250   5.908   3.669
 5402SOL    HW217027   2.091   5.876   3.691
 5403SOL     OW17028   3.328   7.003   2.815
 5403SOL    HW117029   3.269   7.009   2.895
 5403SOL    HW217030   3.313   6.915   2.769
 5404SOL     OW17031   2.460   6.315   2.132
 5404SOL    HW117032   2.484   6.384   2.064
 5404SOL    HW217033   2.382   6.348   2.186
 5405SOL     OW17034   3.143   5.931   2.806
 5405SOL    HW117035   3.057   5.881   2.793
 5405SOL    HW217036   3.205   5.877   2.862
 5406SOL     OW17037   2.669   6.191   3.327
 5406SOL    HW117038   2.622   6.188   3.416
 5406SOL    HW217039   2.618   6.136   3.261
 5407SOL     OW17040   3.256   6.055   3.536
 5407SOL    HW117041   3.236   6.098   3.624
 5407SOL    HW217042   3.334   5.993   3.545
 5408SOL     OW17043   2.835   6.476   3.434
 5408SOL    HW117044   2.881   6.392   3.405
 5408SOL    HW217045   2.779   6.510   3.359
 5409SOL     OW17046   2.853   5.996   3.104
 5409SOL    HW117047   2.776   6.030   3.158
 5409SOL    HW217048   2.819   5.945   3.025
 5410SOL     OW17049   2.903   6.287   2.291
 5410SOL    HW117050   2.929   6.283   2.387
 5410SOL    HW217051   2.818   6.236   2.277
 5411SOL     OW17052   1.938   6.397   2.651
 5411SOL    HW117053   2.037   6.385   2.660
 5411SOL    HW217054   1.914   6.492   2.672
 5412SOL     OW17055   2.727   5.934   2.057
 5412SOL    HW117056   2.786   5.997   2.008
 5412SOL    HW217057   2.746   5.840   2.028
 5413SOL     OW17058   3.581   6.171   3.693
 5413SOL    HW117059   3.555   6.260   3.657
 5413SOL    HW217060   3.579   6.103   3.620
 5414SOL     OW17061   3.224   6.730   2.407
 5414SOL    HW117062   3.307   6.701   2.359
 5414SOL    HW217063   3.175   6.797   2.351
 5415SOL     OW17064   2.412   5.782   2.747
 5415SOL    HW117065   2.407   5.777   2.847
 5415SOL    HW217066   2.414   5.878   2.718
 5416SOL     OW17067   3.657   6.652   2.735
 5416SOL    HW117068   3.595   6.637   2.659
 5416SOL    HW217069   3.605   6.663   2.820
 5417SOL     OW17070   2.183   6.529   2.104
 5417SOL    HW117071   2.265   6.568   2.062
 5417SOL    HW217072   2.156   6.447   2.055
 5418SOL     OW17073   3.320   6.321   2.590
 5418SOL    HW117074   3.315   6.256   2.665
 5418SOL    HW217075   3.400   6.380   2.603
 5419SOL     OW17076   2.064   5.871   3.360
 5419SOL    HW117077   1.984   5.931   3.347
 5419SOL    HW217078   2.054   5.822   3.446
 5420SOL     OW17079   3.494   6.963   1.943
 5420SOL    HW117080   3.462   7.057   1.933
 5420SOL    HW217081   3.418   6.900   1.931
 5421SOL     OW17082   3.262   5.693   2.288
 5421SOL    HW117083   3.238   5.656   2.198
 5421SOL    HW217084   3.361   5.709   2.292
 5422SOL     OW17085   2.244   6.286   2.342
 5422SOL    HW117086   2.289   6.196   2.339
 5422SOL    HW217087   2.150   6.275   2.375
 5423SOL     OW17088   3.409   5.808   3.591
 5423SOL    HW117089   3.404   5.845   3.683
 5423SOL    HW217090   3.337   5.739   3.579
 5424SOL     OW17091   2.476   5.708   1.979
 5424SOL    HW117092   2.574   5.686   1.986
 5424SOL    HW217093   2.445   5.691   1.886
 5425SOL     OW17094   2.643   5.850   3.611
 5425SOL    HW117095   2.710   5.789   3.654
 5425SOL    HW217096   2.570   5.869   3.676
 5426SOL     OW17097   3.213   6.176   3.295
 5426SOL    HW117098   3.241   6.133   3.380
 5426SOL    HW217099   3.238   6.272   3.296
 5427SOL     OW17100   2.784   6.089   2.761
 5427SOL    HW117101   2.759   6.080   2.665
 5427SOL    HW217102   2.832   6.007   2.792
 5428SOL     OW17103   2.401   5.650   2.374
 5428SOL    HW117104   2.320   5.651   2.432
 5428SOL    HW217105   2.404   5.733   2.319
 5429SOL     OW17106   3.296   6.774   1.903
 5429SOL    HW117107   3.328   6.698   1.960
 5429SOL    HW217108   3.204   6.801   1.933
 5430SOL     OW17109   2.159   5.621   2.033
 5430SOL    HW117110   2.208   5.705   2.012
 5430SOL    HW217111   2.221   5.556   2.078
 5431SOL     OW17112   2.797   5.822   2.342
 5431SOL    HW117113   2.749   5.863   2.264
 5431SOL    HW217114   2.896   5.820   2.323
 5432SOL     OW17115   2.938   6.269   3.326
 5432SOL    HW117116   2.858   6.208   3.329
 5432SOL    HW217117   3.019   6.216   3.302
 5433SOL     OW17118   3.089   7.156   2.655
 5433SOL    HW117119   3.110   7.230   2.590
 5433SOL    HW217120   3.157   7.156   2.728
 5434SOL     OW17121   2.321   6.738   2.603
 5434SOL    HW117122   2.250   6.711   2.668
 5434SOL    HW217123   2.295   6.710   2.510
 5435SOL     OW17124   2.894   6.135   1.878
 5435SOL    HW117125   2.853   6.217   1.839
 5435SOL    HW217126   2.958   6.161   1.951
 5436SOL     OW17127   1.940   6.142   3.248
 5436SOL    HW117128   2.032   6.141   3.207
 5436SOL    HW217129   1.934   6.216   3.315
 5437SOL     OW17130   2.423   5.808   3.009
 5437SOL    HW117131   2.461   5.724   3.046
 5437SOL    HW217132   2.335   5.827   3.053
 5438SOL     OW17133   2.728   6.040   2.504
 5438SOL    HW117134   2.696   6.112   2.442
 5438SOL    HW217135   2.752   5.959   2.451
 5439SOL     OW17136   2.879   5.625   2.615
 5439SOL    HW117137   2.807   5.630   2.546
 5439SOL    HW217138   2.855   5.556   2.684
 5440SOL     OW17139   3.291   6.759   2.729
 5440SOL    HW117140   3.236   6.675   2.722
 5440SOL    HW217141   3.317   6.788   2.637
 5441SOL     OW17142   3.328   6.176   2.854
 5441SOL    HW117143   3.298   6.081   2.861
 5441SOL    HW217144   3.401   6.192   2.920
 5442SOL     OW17145   3.719   6.419   2.239
 5442SOL    HW117146   3.761   6.355   2.303
 5442SOL    HW217147   3.681   6.368   2.161
 5443SOL     OW17148   3.526   6.866   2.519
 5443SOL    HW117149   3.625   6.874   2.533
 5443SOL    HW217150   3.481   6.950   2.550
 5444SOL     OW17151   3.252   6.161   1.940
 5444SOL    HW117152   3.198   6.140   2.021
 5444SOL    HW217153   3.343   6.120   1.949
 5445SOL     OW17154   2.389   5.842   2.190
 5445SOL    HW117155   2.416   5.783   2.115
 5445SOL    HW217156   2.389   5.937   2.159
 5446SOL     OW17157   3.616   6.809   3.450
 5446SOL    HW117158   3.707   6.770   3.437
 5446SOL    HW217159   3.624   6.905   3.474
 5447SOL     OW17160   2.926   6.933   3.202
 5447SOL    HW117161   2.846   6.910   3.257
 5447SOL    HW217162   3.009   6.907   3.251
 5448SOL     OW17163   2.973   6.781   2.962
 5448SOL    HW117164   2.933   6.825   3.043
 5448SOL    HW217165   2.932   6.818   2.879
 5449SOL     OW17166   3.500   6.685   2.941
 5449SOL    HW117167   3.505   6.766   3.000
 5449SOL    HW217168   3.414   6.687   2.890
 5450SOL     OW17169   2.777   5.675   3.264
 5450SOL    HW117170   2.802   5.655   3.169
 5450SOL    HW217171   2.849   5.731   3.306
 5451SOL     OW17172   2.842   6.702   3.581
 5451SOL    HW117173   2.743   6.708   3.591
 5451SOL    HW217174   2.865   6.622   3.525
 5452SOL     OW17175   2.567   6.636   2.230
 5452SOL    HW117176   2.553   6.643   2.329
 5452SOL    HW217177   2.651   6.585   2.212
 5453SOL     OW17178   2.272   6.399   3.113
 5453SOL    HW117179   2.358   6.411   3.163
 5453SOL    HW217180   2.230   6.312   3.140
 5454SOL     OW17181   3.136   5.972   3.124
 5454SOL    HW117182   3.157   6.046   3.188
 5454SOL    HW217183   3.047   5.989   3.081
 5455SOL     OW17184   2.229   6.686   2.363
 5455SOL    HW117185   2.222   6.769   2.307
 5455SOL    HW217186   2.233   6.606   2.303
 5456SOL     OW17187   2.428   6.123   2.727
 5456SOL    HW117188   2.440   6.189   2.653
 5456SOL    HW217189   2.474   6.157   2.810
 5457SOL     OW17190   3.444   6.225   2.334
 5457SOL    HW117191   3.413   6.286   2.407
 5457SOL    HW217192   3.494   6.277   2.265
 5458SOL     OW17193   2.264   6.337   3.460
 5458SOL    HW117194   2.332   6.392   3.413
 5458SOL    HW217195   2.304   6.249   3.487
 5459SOL     OW17196   3.449   6.365   3.532
 5459SOL    HW117197   3.357   6.403   3.527
 5459SOL    HW217198   3.509   6.412   3.467
 5460SOL     OW17199   2.875   5.691   3.632
 5460SOL    HW117200   2.881   5.776   3.580
 5460SOL    HW217201   2.907   5.615   3.575
 5461SOL     OW17202   2.366   5.636   3.602
 5461SOL    HW117203   2.324   5.579   3.532
 5461SOL    HW217204   2.300   5.705   3.634
 5462SOL     OW17205   2.435   6.456   2.891
 5462SOL    HW117206   2.479   6.545   2.882
 5462SOL    HW217207   2.372   6.456   2.968
 5463SOL     OW17208   3.222   6.448   2.907
 5463SOL    HW117209   3.147   6.448   2.841
 5463SOL    HW217210   3.259   6.356   2.916
 5464SOL     OW17211   3.071   6.111   2.137
 5464SOL    HW117212   3.084   6.027   2.191
 5464SOL    HW217213   3.042   6.185   2.197
 5465SOL     OW17214   2.169   5.799   3.093
 5465SOL    HW117215   2.146   5.836   3.183
 5465SOL    HW217216   2.139   5.704   3.087
 5466SOL     OW17217   1.899   6.896   3.144
 5466SOL    HW117218   1.952   6.847   3.212
 5466SOL    HW217219   1.921   6.994   3.149
 5467SOL     OW17220   2.594   6.220   2.926
 5467SOL    HW117221   2.653   6.194   2.850
 5467SOL    HW217222   2.566   6.316   2.915
 5468SOL     OW17223   3.590   6.521   3.716
 5468SOL    HW117224   3.544   6.514   3.627
 5468SOL    HW217225   3.528   6.565   3.782
 5469SOL     OW17226   2.169   5.649   2.480
 5469SOL    HW117227   2.158   5.743   2.513
 5469SOL    HW217228   2.164   5.586   2.557
 5470SOL     OW17229   3.484   5.953   2.236
 5470SOL    HW117230   3.486   5.877   2.300
 5470SOL    HW217231   3.436   6.030   2.276
 5471SOL     OW17232   2.885   6.352   2.828
 5471SOL    HW117233   2.900   6.373   2.924
 5471SOL    HW217234   2.855   6.257   2.819
 5472SOL     OW17235   3.721   7.104   3.467
 5472SOL    HW117236   3.735   7.131   3.372
 5472SOL    HW217237   3.804   7.126   3.520
 5473SOL     OW17238   2.212   6.484   3.666
 5473SOL    HW117239   2.288   6.528   3.714
 5473SOL    HW217240   2.247   6.437   3.584
 5474SOL     OW17241   3.402   5.860   1.987
 5474SOL    HW117242   3.341   5.785   2.010
 5474SOL    HW217243   3.424   5.912   2.070
 5475SOL     OW17244   3.165   6.424   1.904
 5475SOL    HW117245   3.199   6.331   1.919
 5475SOL    HW217246   3.183   6.451   1.809
 5476SOL     OW17247   2.181   6.396   2.811
 5476SOL    HW117248   2.274   6.432   2.816
 5476SOL    HW217249   2.175   6.311   2.863
 5477SOL     OW17250   2.201   6.095   2.868
 5477SOL    HW117251   2.149   6.012   2.851
 5477SOL    HW217252   2.278   6.100   2.804
 5478SOL     OW17253   3.000   5.966   3.540
 5478SOL    HW117254   2.955   6.029   3.604
 5478SOL    HW217255   3.093   5.997   3.523
 5479SOL     OW17256   3.022   5.793   3.339
 5479SOL    HW117257   3.022   5.857   3.416
 5479SOL    HW217258   3.050   5.841   3.256
 5480SOL     OW17259   1.870   6.912   2.062
 5480SOL    HW117260   1.777   6.933   2.031
 5480SOL    HW217261   1.880   6.813   2.075
 5481SOL     OW17262   2.864   6.382   3.100
 5481SOL    HW117263   2.905   6.350   3.186
 5481SOL    HW217264   2.768   6.355   3.097
 5482SOL     OW17265   1.902   6.130   2.976
 5482SOL    HW117266   1.987   6.097   2.935
 5482SOL    HW217267   1.915   6.145   3.074
 5483SOL     OW17268   2.051   6.106   3.584
 5483SOL    HW117269   2.110   6.066   3.514
 5483SOL    HW217270   1.993   6.177   3.543
 5484SOL     OW17271   3.231   6.536   3.522
 5484SOL    HW117272   3.270   6.625   3.542
 5484SOL    HW217273   3.241   6.516   3.425
 5485SOL     OW17274   2.677   6.158   2.187
 5485SOL    HW117275   2.684   6.069   2.141
 5485SOL    HW217276   2.583   6.192   2.179
 5486SOL     OW17277   3.519   6.190   3.068
 5486SOL    HW117278   3.481   6.121   3.130
 5486SOL    HW217279   3.601   6.154   3.024
 5487SOL     OW17280   2.533   6.050   3.131
 5487SOL    HW117281   2.499   5.961   3.101
 5487SOL    HW217282   2.559   6.104   3.051
 5488SOL     OW17283   2.335   6.086   2.053
 5488SOL    HW117284   2.396   6.166   2.057
 5488SOL    HW217285   2.240   6.117   2.060
 5489SOL     OW17286   2.021   6.723   3.328
 5489SOL    HW117287   2.043   6.662   3.404
 5489SOL    HW217288   2.031   6.674   3.242
 5490SOL     OW17289   3.209   6.645   3.096
 5490SOL    HW117290   3.233   6.582   3.022
 5490SOL    HW217291   3.119   6.685   3.078
 5491SOL     OW17292   3.164   6.441   2.171
 5491SOL    HW117293   3.078   6.410   2.213
 5491SOL    HW217294   3.160   6.427   2.072
 5492SOL     OW17295   1.945   6.844   2.884
 5492SOL    HW117296   1.940   6.843   2.984
 5492SOL    HW217297   1.862   6.803   2.846
 5493SOL     OW17298   3.588   5.721   2.385
 5493SOL    HW117299   3.661   5.704   2.318
 5493SOL    HW217300   3.557   5.634   2.423
 5494SOL     OW17301   3.142   6.513   2.534
 5494SOL    HW117302   3.202   6.432   2.536
 5494SOL    HW217303   3.182   6.582   2.474
 5495SOL     OW17304   2.692   6.859   3.284
 5495SOL    HW117305   2.687   6.892   3.379
 5495SOL    HW217306   2.606   6.878   3.238
 5496SOL     OW17307   3.703   5.761   2.825
 5496SOL    HW117308   3.742   5.676   2.789
 5496SOL    HW217309   3.605   5.763   2.806
 5497SOL     OW17310   2.125   5.912   2.582
 5497SOL    HW117311   2.046   5.963   2.548
 5497SOL    HW217312   2.116   5.897   2.680
 5498SOL     OW17313   3.056   7.198   1.893
 5498SOL    HW117314   3.062   7.105   1.930
 5498SOL    HW217315   2.997   7.198   1.813
 5499SOL     OW17316   2.684   6.588   3.234
 5499SOL    HW117317   2.724   6.587   3.142
 5499SOL    HW217318   2.694   6.680   3.274
 5500SOL     OW17319   2.778   6.496   2.153
 5500SOL    HW117320   2.841   6.534   2.085
 5500SOL    HW217321   2.818   6.413   2.192
 5501SOL     OW17322   2.234   6.874   3.352
 5501SOL    HW117323   2.221   6.967   3.318
 5501SOL    HW217324   2.150   6.822   3.339
 5502SOL     OW17325   3.476   6.878   3.151
 5502SOL    HW117326   3.536   6.881   3.231
 5502SOL    HW217327   3.401   6.942   3.164
 5503SOL     OW17328   2.901   6.684   2.558
 5503SOL    HW117329   2.831   6.637   2.612
 5503SOL    HW217330   2.960   6.616   2.515
 5504SOL     OW17331   2.876   5.822   2.833
 5504SOL    HW117332   2.868   5.786   2.740
 5504SOL    HW217333   2.874   5.746   2.898
 5505SOL     OW17334   3.571   5.971   3.243
 5505SOL    HW117335   3.644   6.040   3.247
 5505SOL    HW217336   3.599   5.896   3.184
 5506SOL     OW17337   1.967   6.599   3.588
 5506SOL    HW117338   1.890   6.566   3.642
 5506SOL    HW217339   2.052   6.569   3.630
 5507SOL     OW17340   2.534   5.789   3.351
 5507SOL    HW117341   2.624   5.773   3.311
 5507SOL    HW217342   2.542   5.794   3.450
 5508SOL     OW17343   1.937   5.931   1.895
 5508SOL    HW117344   1.845   5.903   1.866
 5508SOL    HW217345   1.968   6.008   1.839
 5509SOL     OW17346   3.302   6.442   3.260
 5509SOL    HW117347   3.245   6.494   3.197
 5509SOL    HW217348   3.398   6.454   3.236
 5510SOL     OW17349   1.934   5.752   2.180
 5510SOL    HW117350   1.917   5.835   2.126
 5510SOL    HW217351   2.024   5.715   2.158
 5511SOL     OW17352   2.475   6.428   3.293
 5511SOL    HW117353   2.531   6.509   3.276
 5511SOL    HW217354   2.534   6.348   3.296
 5512SOL     OW17355   2.578   6.151   3.570
 5512SOL    HW117356   2.597   6.216   3.644
 5512SOL    HW217357   2.638   6.071   3.579
 5513SOL     OW17358   3.312   6.806   3.495
 5513SOL    HW117359   3.303   6.796   3.594
 5513SOL    HW217360   3.408   6.799   3.469
 5514SOL     OW17361   3.536   6.469   3.116
 5514SOL    HW117362   3.509   6.380   3.079
 5514SOL    HW217363   3.537   6.537   3.043
 5515SOL     OW17364   3.087   5.911   2.311
 5515SOL    HW117365   3.152   5.837   2.300
 5515SOL    HW217366   3.107   5.961   2.395
 5516SOL     OW17367   2.456   6.331   2.514
 5516SOL    HW117368   2.506   6.416   2.495
 5516SOL    HW217369   2.368   6.333   2.466
 5517SOL     OW17370   3.639   5.928   3.504
 5517SOL    HW117371   3.622   5.959   3.410
 5517SOL    HW217372   3.555   5.891   3.542
 5518SOL     OW17373   3.592   6.520   3.379
 5518SOL    HW117374   3.630   6.611   3.394
 5518SOL    HW217375   3.584   6.503   3.280
 5519SOL     OW17376   2.721   6.542   2.723
 5519SOL    HW117377   2.775   6.473   2.771
 5519SOL    HW217378   2.689   6.611   2.789
 5520SOL     OW17379   2.945   6.570   1.949
 5520SOL    HW117380   2.922   6.623   1.867
 5520SOL    HW217381   3.026   6.514   1.930
 5521SOL     OW17382   2.083   6.900   3.706
 5521SOL    HW117383   2.018   6.827   3.685
 5521SOL    HW217384   2.087   6.914   3.804
 5522SOL     OW17385   1.941   6.826   2.515
 5522SOL    HW117386   1.940   6.779   2.603
 5522SOL    HW217387   2.023   6.798   2.464
 5523SOL     OW17388   2.534   6.977   3.486
 5523SOL    HW117389   2.456   6.927   3.524
 5523SOL    HW217390   2.531   7.072   3.517
 5524SOL     OW17391   3.686   5.778   3.089
 5524SOL    HW117392   3.682   5.688   3.133
 5524SOL    HW217393   3.689   5.767   2.990
 5525SOL     OW17394   2.290   6.010   2.382
 5525SOL    HW117395   2.320   5.938   2.320
 5525SOL    HW217396   2.251   5.970   2.465
 5526SOL     OW17397   3.567   7.073   2.966
 5526SOL    HW117398   3.474   7.048   2.939
 5526SOL    HW217399   3.593   7.023   3.048
 5527SOL     OW17400   2.179   6.133   3.142
 5527SOL    HW117401   2.217   6.074   3.214
 5527SOL    HW217402   2.219   6.107   3.054
 5528SOL     OW17403   3.286   5.800   2.974
 5528SOL    HW117404   3.338   5.735   3.029
 5528SOL    HW217405   3.237   5.863   3.035
 5529SOL     OW17406   2.863   5.620   3.016
 5529SOL    HW117407   2.800   5.548   2.985
 5529SOL    HW217408   2.956   5.584   3.016
 5530SOL     OW17409   2.632   6.916   2.163
 5530SOL    HW117410   2.586   6.829   2.180
 5530SOL    HW217411   2.723   6.913   2.204
 5531SOL     OW17412   3.214   5.638   2.030
 5531SOL    HW117413   3.249   5.597   1.946
 5531SOL    HW217414   3.124   5.600   2.050
 5532SOL     OW17415   3.162   6.039   2.553
 5532SOL    HW117416   3.103   6.119   2.557
 5532SOL    HW217417   3.177   6.004   2.646
 5533SOL     OW17418   3.455   5.807   2.744
 5533SOL    HW117419   3.371   5.806   2.798
 5533SOL    HW217420   3.457   5.890   2.688
 5534SOL     OW17421   1.901   6.663   2.162
 5534SOL    HW117422   2.000   6.652   2.153
 5534SOL    HW217423   1.861   6.577   2.194
 5535SOL     OW17424   2.092   6.214   3.837
 5535SOL    HW117425   1.999   6.212   3.874
 5535SOL    HW217426   2.093   6.175   3.745
 5536SOL     OW17427   2.087   5.861   4.720
 5536SOL    HW117428   2.122   5.844   4.812
 5536SOL    HW217429   1.999   5.816   4.708
 5537SOL     OW17430   1.881   5.954   4.371
 5537SOL    HW117431   1.799   5.997   4.410
 5537SOL    HW217432   1.853   5.881   4.308
 5538SOL     OW17433   2.431   6.861   4.889
 5538SOL    HW117434   2.338   6.854   4.852
 5538SOL    HW217435   2.442   6.950   4.933
 5539SOL     OW17436   3.417   7.097   4.427
 5539SOL    HW117437   3.360   7.081   4.508
 5539SOL    HW217438   3.358   7.107   4.347
 5540SOL     OW17439   2.997   6.289   4.441
 5540SOL    HW117440   3.054   6.367   4.416
 5540SOL    HW217441   2.937   6.315   4.517
 5541SOL     OW17442   3.617   6.193   3.955
 5541SOL    HW117443   3.605   6.180   3.856
 5541SOL    HW217444   3.587   6.112   4.004
 5542SOL     OW17445   2.630   6.730   4.747
 5542SOL    HW117446   2.552   6.747   4.807
 5542SOL    HW217447   2.664   6.817   4.711
 5543SOL     OW17448   2.712   6.384   5.547
 5543SOL    HW117449   2.708   6.460   5.612
 5543SOL    HW217450   2.734   6.420   5.456
 5544SOL     OW17451   2.547   6.598   4.389
 5544SOL    HW117452   2.616   6.582   4.459
 5544SOL    HW217453   2.474   6.655   4.427
 5545SOL     OW17454   2.548   6.747   5.527
 5545SOL    HW117455   2.608   6.826   5.541
 5545SOL    HW217456   2.462   6.778   5.486
 5546SOL     OW17457   2.197   7.021   4.785
 5546SOL    HW117458   2.119   6.990   4.732
 5546SOL    HW217459   2.255   7.079   4.728
 5547SOL     OW17460   2.300   5.978   5.223
 5547SOL    HW117461   2.382   5.922   5.232
 5547SOL    HW217462   2.219   5.920   5.227
 5548SOL     OW17463   3.465   6.033   4.461
 5548SOL    HW117464   3.391   6.079   4.411
 5548SOL    HW217465   3.516   6.101   4.514
 5549SOL     OW17466   2.102   6.677   4.610
 5549SOL    HW117467   2.116   6.593   4.662
 5549SOL    HW217468   2.047   6.741   4.665
 5550SOL     OW17469   2.468   6.550   3.847
 5550SOL    HW117470   2.475   6.634   3.793
 5550SOL    HW217471   2.514   6.563   3.935
 5551SOL     OW17472   3.456   5.700   5.204
 5551SOL    HW117473   3.438   5.767   5.132
 5551SOL    HW217474   3.453   5.746   5.293
 5552SOL     OW17475   1.984   6.229   4.287
 5552SOL    HW117476   1.939   6.141   4.304
 5552SOL    HW217477   1.983   6.283   4.371
 5553SOL     OW17478   3.551   6.508   4.336
 5553SOL    HW117479   3.646   6.479   4.344
 5553SOL    HW217480   3.543   6.573   4.261
 5554SOL     OW17481   3.503   6.694   4.156
 5554SOL    HW117482   3.589   6.696   4.104
 5554SOL    HW217483   3.517   6.741   4.244
 5555SOL     OW17484   1.975   6.323   5.321
 5555SOL    HW117485   2.063   6.310   5.366
 5555SOL    HW217486   1.962   6.420   5.299
 5556SOL     OW17487   3.155   6.814   5.147
 5556SOL    HW117488   3.192   6.741   5.089
 5556SOL    HW217489   3.207   6.819   5.232
 5557SOL     OW17490   2.671   5.590   4.226
 5557SOL    HW117491   2.711   5.681   4.217
 5557SOL    HW217492   2.571   5.598   4.232
 5558SOL     OW17493   2.059   6.562   4.988
 5558SOL    HW117494   2.148   6.517   4.974
 5558SOL    HW217495   1.986   6.497   4.969
 5559SOL     OW17496   3.387   6.585   3.914
 5559SOL    HW117497   3.324   6.509   3.927
 5559SOL    HW217498   3.435   6.603   4.000
 5560SOL     OW17499   2.179   5.837   5.525
 5560SOL    HW117500   2.250   5.908   5.531
 5560SOL    HW217501   2.091   5.876   5.553
 5561SOL     OW17502   3.328   7.003   4.677
 5561SOL    HW117503   3.269   7.009   4.757
 5561SOL    HW217504   3.313   6.915   4.631
 5562SOL     OW17505   2.460   6.315   3.994
 5562SOL    HW117506   2.484   6.384   3.926
 5562SOL    HW217507   2.382   6.348   4.048
 5563SOL     OW17508   3.143   5.931   4.668
 5563SOL    HW117509   3.057   5.881   4.655
 5563SOL    HW217510   3.205   5.877   4.724
 5564SOL     OW17511   2.669   6.191   5.189
 5564SOL    HW117512   2.622   6.188   5.278
 5564SOL    HW217513   2.618   6.136   5.123
 5565SOL     OW17514   3.256   6.055   5.398
 5565SOL    HW117515   3.236   6.098   5.486
 5565SOL    HW217516   3.334   5.993   5.407
 5566SOL     OW17517   2.835   6.476   5.296
 5566SOL    HW117518   2.881   6.392   5.267
 5566SOL    HW217519   2.779   6.510   5.221
 5567SOL     OW17520   2.853   5.996   4.966
 5567SOL    HW117521   2.776   6.030   5.020
 5567SOL    HW217522   2.819   5.945   4.887
 5568SOL     OW17523   2.903   6.287   4.153
 5568SOL    HW117524   2.929   6.283   4.249
 5568SOL    HW217525   2.818   6.236   4.139
 5569SOL     OW17526   1.938   6.397   4.513
 5569SOL    HW117527   2.037   6.385   4.522
 5569SOL    HW217528   1.914   6.492   4.534
 5570SOL     OW17529   2.727   5.934   3.919
 5570SOL    HW117530   2.786   5.997   3.870
 5570SOL    HW217531   2.746   5.840   3.890
 5571SOL     OW17532   3.581   6.171   5.555
 5571SOL    HW117533   3.555   6.260   5.519
 5571SOL    HW217534   3.579   6.103   5.482
 5572SOL     OW17535   3.224   6.730   4.269
 5572SOL    HW117536   3.307   6.701   4.221
 5572SOL    HW217537   3.175   6.797   4.213
 5573SOL     OW17538   2.412   5.782   4.609
 5573SOL    HW117539   2.407   5.777   4.709
 5573SOL    HW217540   2.414   5.878   4.580
 5574SOL     OW17541   3.657   6.652   4.597
 5574SOL    HW117542   3.595   6.637   4.521
 5574SOL    HW217543   3.605   6.663   4.682
 5575SOL     OW17544   2.183   6.529   3.966
 5575SOL    HW117545   2.265   6.568   3.924
 5575SOL    HW217546   2.156   6.447   3.917
 5576SOL     OW17547   3.320   6.321   4.452
 5576SOL    HW117548   3.315   6.256   4.527
 5576SOL    HW217549   3.400   6.380   4.465
 5577SOL     OW17550   2.064   5.871   5.222
 5577SOL    HW117551   1.984   5.931   5.209
 5577SOL    HW217552   2.054   5.822   5.308
 5578SOL     OW17553   3.494   6.963   3.805
 5578SOL    HW117554   3.462   7.057   3.795
 5578SOL    HW217555   3.418   6.900   3.793
 5579SOL     OW17556   3.262   5.693   4.150
 5579SOL    HW117557   3.238   5.656   4.060
 5579SOL    HW217558   3.361   5.709   4.154
 5580SOL     OW17559   2.244   6.286   4.204
 5580SOL    HW117560   2.289   6.196   4.201
 5580SOL    HW217561   2.150   6.275   4.237
 5581SOL     OW17562   3.409   5.808   5.453
 5581SOL    HW117563   3.404   5.845   5.545
 5581SOL    HW217564   3.337   5.739   5.441
 5582SOL     OW17565   2.476   5.708   3.841
 5582SOL    HW117566   2.574   5.686   3.848
 5582SOL    HW217567   2.445   5.691   3.748
 5583SOL     OW17568   2.643   5.850   5.473
 5583SOL    HW117569   2.710   5.789   5.516
 5583SOL    HW217570   2.570   5.869   5.538
 5584SOL     OW17571   3.213   6.176   5.157
 5584SOL    HW117572   3.241   6.133   5.242
 5584SOL    HW217573   3.238   6.272   5.158
 5585SOL     OW17574   2.784   6.089   4.623
 5585SOL    HW117575   2.759   6.080   4.527
 5585SOL    HW217576   2.832   6.007   4.654
 5586SOL     OW17577   2.401   5.650   4.236
 5586SOL    HW117578   2.320   5.651   4.294
 5586SOL    HW217579   2.404   5.733   4.181
 5587SOL     OW17580   3.296   6.774   3.765
 5587SOL    HW117581   3.328   6.698   3.822
 5587SOL    HW217582   3.204   6.801   3.795
 5588SOL     OW17583   2.159   5.621   3.895
 5588SOL    HW117584   2.208   5.705   3.874
 5588SOL    HW217585   2.221   5.556   3.940
 5589SOL     OW17586   2.797   5.822   4.204
 5589SOL    HW117587   2.749   5.863   4.126
 5589SOL    HW217588   2.896   5.820   4.185
 5590SOL     OW17589   2.938   6.269   5.188
 5590SOL    HW117590   2.858   6.208   5.191
 5590SOL    HW217591   3.019   6.216   5.164
 5591SOL     OW17592   3.089   7.156   4.517
 5591SOL    HW117593   3.110   7.230   4.452
 5591SOL    HW217594   3.157   7.156   4.590
 5592SOL     OW17595   2.321   6.738   4.465
 5592SOL    HW117596   2.250   6.711   4.530
 5592SOL    HW217597   2.295   6.710   4.372
 5593SOL     OW17598   2.894   6.135   3.740
 5593SOL    HW117599   2.853   6.217   3.701
 5593SOL    HW217600   2.958   6.161   3.813
 5594SOL     OW17601   1.940   6.142   5.110
 5594SOL    HW117602   2.032   6.141   5.069
 5594SOL    HW217603   1.934   6.216   5.177
 5595SOL     OW17604   2.423   5.808   4.871
 5595SOL    HW117605   2.461   5.724   4.908
 5595SOL    HW217606   2.335   5.827   4.915
 5596SOL     OW17607   2.728   6.040   4.366
 5596SOL    HW117608   2.696   6.112   4.304
 5596SOL    HW217609   2.752   5.959   4.313
 5597SOL     OW17610   2.879   5.625   4.477
 5597SOL    HW117611   2.807   5.630   4.408
 5597SOL    HW217612   2.855   5.556   4.546
 5598SOL     OW17613   3.291   6.759   4.591
 5598SOL    HW117614   3.236   6.675   4.584
 5598SOL    HW217615   3.317   6.788   4.499
 5599SOL     OW17616   3.328   6.176   4.716
 5599SOL    HW117617   3.298   6.081   4.723
 5599SOL    HW217618   3.401   6.192   4.782
 5600SOL     OW17619   3.719   6.419   4.101
 5600SOL    HW117620   3.761   6.355   4.165
 5600SOL    HW217621   3.681   6.368   4.023
 5601SOL     OW17622   3.526   6.866   4.381
 5601SOL    HW117623   3.625   6.874   4.395
 5601SOL    HW217624   3.481   6.950   4.412
 5602SOL     OW17625   3.252   6.161   3.802
 5602SOL    HW117626   3.198   6.140   3.883
 5602SOL    HW217627   3.343   6.120   3.811
 5603SOL     OW17628   2.389   5.842   4.052
 5603SOL    HW117629   2.416   5.783   3.977
 5603SOL    HW217630   2.389   5.937   4.021
 5604SOL     OW17631   3.616   6.809   5.312
 5604SOL    HW117632   3.707   6.770   5.299
 5604SOL    HW217633   3.624   6.905   5.336
 5605SOL     OW17634   2.926   6.933   5.064
 5605SOL    HW117635   2.846   6.910   5.119
 5605SOL    HW217636   3.009   6.907   5.113
 5606SOL     OW17637   2.973   6.781   4.824
 5606SOL    HW117638   2.933   6.825   4.905
 5606SOL    HW217639   2.932   6.818   4.741
 5607SOL     OW17640   3.500   6.685   4.803
 5607SOL    HW117641   3.505   6.766   4.862
 5607SOL    HW217642   3.414   6.687   4.752
 5608SOL     OW17643   2.777   5.675   5.126
 5608SOL    HW117644   2.802   5.655   5.031
 5608SOL    HW217645   2.849   5.731   5.168
 5609SOL     OW17646   2.842   6.702   5.443
 5609SOL    HW117647   2.743   6.708   5.453
 5609SOL    HW217648   2.865   6.622   5.387
 5610SOL     OW17649   2.567   6.636   4.092
 5610SOL    HW117650   2.553   6.643   4.191
 5610SOL    HW217651   2.651   6.585   4.074
 5611SOL     OW17652   2.272   6.399   4.975
 5611SOL    HW117653   2.358   6.411   5.025
 5611SOL    HW217654   2.230   6.312   5.002
 5612SOL     OW17655   3.136   5.972   4.986
 5612SOL    HW117656   3.157   6.046   5.050
 5612SOL    HW217657   3.047   5.989   4.943
 5613SOL     OW17658   2.229   6.686   4.225
 5613SOL    HW117659   2.222   6.769   4.169
 5613SOL    HW217660   2.233   6.606   4.165
 5614SOL     OW17661   2.428   6.123   4.589
 5614SOL    HW117662   2.440   6.189   4.515
 5614SOL    HW217663   2.474   6.157   4.672
 5615SOL     OW17664   3.444   6.225   4.196
 5615SOL    HW117665   3.413   6.286   4.269
 5615SOL    HW217666   3.494   6.277   4.127
 5616SOL     OW17667   2.264   6.337   5.322
 5616SOL    HW117668   2.332   6.392   5.275
 5616SOL    HW217669   2.304   6.249   5.349
 5617SOL     OW17670   3.449   6.365   5.394
 5617SOL    HW117671   3.357   6.403   5.389
 5617SOL    HW217672   3.509   6.412   5.329
 5618SOL     OW17673   2.875   5.691   5.494
 5618SOL    HW117674   2.881   5.776   5.442
 5618SOL    HW217675   2.907   5.615   5.437
 5619SOL     OW17676   2.366   5.636   5.464
 5619SOL    HW117677   2.324   5.579   5.394
 5619SOL    HW217678   2.300   5.705   5.496
 5620SOL     OW17679   2.435   6.456   4.753
 5620SOL    HW117680   2.479   6.545   4.744
 5620SOL    HW217681   2.372   6.456   4.830
 5621SOL     OW17682   3.222   6.448   4.769
 5621SOL    HW117683   3.147   6.448   4.703
 5621SOL    HW217684   3.259   6.356   4.778
 5622SOL     OW17685   3.071   6.111   3.999
 5622SOL    HW117686   3.084   6.027   4.053
 5622SOL    HW217687   3.042   6.185   4.059
 5623SOL     OW17688   2.169   5.799   4.955
 5623SOL    HW117689   2.146   5.836   5.045
 5623SOL    HW217690   2.139   5.704   4.949
 5624SOL     OW17691   1.899   6.896   5.006
 5624SOL    HW117692   1.952   6.847   5.074
 5624SOL    HW217693   1.921   6.994   5.011
 5625SOL     OW17694   2.594   6.220   4.788
 5625SOL    HW117695   2.653   6.194   4.712
 5625SOL    HW217696   2.566   6.316   4.777
 5626SOL     OW17697   3.590   6.521   5.578
 5626SOL    HW117698   3.544   6.514   5.489
 5626SOL    HW217699   3.528   6.565   5.644
 5627SOL     OW17700   2.169   5.649   4.342
 5627SOL    HW117701   2.158   5.743   4.375
 5627SOL    HW217702   2.164   5.586   4.419
 5628SOL     OW17703   3.484   5.953   4.098
 5628SOL    HW117704   3.486   5.877   4.162
 5628SOL    HW217705   3.436   6.030   4.138
 5629SOL     OW17706   2.885   6.352   4.690
 5629SOL    HW117707   2.900   6.373   4.786
 5629SOL    HW217708   2.855   6.257   4.681
 5630SOL     OW17709   3.721   7.104   5.329
 5630SOL    HW117710   3.735   7.131   5.234
 5630SOL    HW217711   3.804   7.126   5.382
 5631SOL     OW17712   2.212   6.484   5.528
 5631SOL    HW117713   2.288   6.528   5.576
 5631SOL    HW217714   2.247   6.437   5.446
 5632SOL     OW17715   3.402   5.860   3.849
 5632SOL    HW117716   3.341   5.785   3.872
 5632SOL    HW217717   3.424   5.912   3.932
 5633SOL     OW17718   3.165   6.424   3.766
 5633SOL    HW117719   3.199   6.331   3.781
 5633SOL    HW217720   3.183   6.451   3.671
 5634SOL     OW17721   2.181   6.396   4.673
 5634SOL    HW117722   2.274   6.432   4.678
 5634SOL    HW217723   2.175   6.311   4.725
 5635SOL     OW17724   2.201   6.095   4.730
 5635SOL    HW117725   2.149   6.012   4.713
 5635SOL    HW217726   2.278   6.100   4.666
 5636SOL     OW17727   3.000   5.966   5.402
 5636SOL    HW117728   2.955   6.029   5.466
 5636SOL    HW217729   3.093   5.997   5.385
 5637SOL     OW17730   3.022   5.793   5.201
 5637SOL    HW117731   3.022   5.857   5.278
 5637SOL    HW217732   3.050   5.841   5.118
 5638SOL     OW17733   1.870   6.912   3.924
 5638SOL    HW117734   1.777   6.933   3.893
 5638SOL    HW217735   1.880   6.813   3.937
 5639SOL     OW17736   2.864   6.382   4.962
 5639SOL    HW117737   2.905   6.350   5.048
 5639SOL    HW217738   2.768   6.355   4.959
 5640SOL     OW17739   1.902   6.130   4.838
 5640SOL    HW117740   1.987   6.097   4.797
 5640SOL    HW217741   1.915   6.145   4.936
 5641SOL     OW17742   2.051   6.106   5.446
 5641SOL    HW117743   2.110   6.066   5.376
 5641SOL    HW217744   1.993   6.177   5.405
 5642SOL     OW17745   3.231   6.536   5.384
 5642SOL    HW117746   3.270   6.625   5.404
 5642SOL    HW217747   3.241   6.516   5.287
 5643SOL     OW17748   2.677   6.158   4.049
 5643SOL    HW117749   2.684   6.069   4.003
 5643SOL    HW217750   2.583   6.192   4.041
 5644SOL     OW17751   3.519   6.190   4.930
 5644SOL    HW117752   3.481   6.121   4.992
 5644SOL    HW217753   3.601   6.154   4.886
 5645SOL     OW17754   2.533   6.050   4.993
 5645SOL    HW117755   2.499   5.961   4.963
 5645SOL    HW217756   2.559   6.104   4.913
 5646SOL     OW17757   2.335   6.086   3.915
 5646SOL    HW117758   2.396   6.166   3.919
 5646SOL    HW217759   2.240   6.117   3.922
 5647SOL     OW17760   2.021   6.723   5.190
 5647SOL    HW117761   2.043   6.662   5.266
 5647SOL    HW217762   2.031   6.674   5.104
 5648SOL     OW17763   3.209   6.645   4.958
 5648SOL    HW117764   3.233   6.582   4.884
 5648SOL    HW217765   3.119   6.685   4.940
 5649SOL     OW17766   3.164   6.441   4.033
 5649SOL    HW117767   3.078   6.410   4.075
 5649SOL    HW217768   3.160   6.427   3.934
 5650SOL     OW17769   1.945   6.844   4.746
 5650SOL    HW117770   1.940   6.843   4.846
 5650SOL    HW217771   1.862   6.803   4.708
 5651SOL     OW17772   3.588   5.721   4.247
 5651SOL    HW117773   3.661   5.704   4.180
 5651SOL    HW217774   3.557   5.634   4.285
 5652SOL     OW17775   3.142   6.513   4.396
 5652SOL    HW117776   3.202   6.432   4.398
 5652SOL    HW217777   3.182   6.582   4.336
 5653SOL     OW17778   2.692   6.859   5.146
 5653SOL    HW117779   2.687   6.892   5.241
 5653SOL    HW217780   2.606   6.878   5.100
 5654SOL     OW17781   3.703   5.761   4.687
 5654SOL    HW117782   3.742   5.676   4.651
 5654SOL    HW217783   3.605   5.763   4.668
 5655SOL     OW17784   2.125   5.912   4.444
 5655SOL    HW117785   2.046   5.963   4.410
 5655SOL    HW217786   2.116   5.897   4.542
 5656SOL     OW17787   3.056   7.198   3.755
 5656SOL    HW117788   3.062   7.105   3.792
 5656SOL    HW217789   2.997   7.198   3.675
 5657SOL     OW17790   2.684   6.588   5.096
 5657SOL    HW117791   2.724   6.587   5.004
 5657SOL    HW217792   2.694   6.680   5.136
 5658SOL     OW17793   2.778   6.496   4.015
 5658SOL    HW117794   2.841   6.534   3.947
 5658SOL    HW217795   2.818   6.413   4.054
 5659SOL     OW17796   2.234   6.874   5.214
 5659SOL    HW117797   2.221   6.967   5.180
 5659SOL    HW217798   2.150   6.822   5.201
 5660SOL     OW17799   3.476   6.878   5.013
 5660SOL    HW117800   3.536   6.881   5.093
 5660SOL    HW217801   3.401   6.942   5.026
 5661SOL     OW17802   2.901   6.684   4.420
 5661SOL    HW117803   2.831   6.637   4.474
 5661SOL    HW217804   2.960   6.616   4.377
 5662SOL     OW17805   2.876   5.822   4.695
 5662SOL    HW117806   2.868   5.786   4.602
 5662SOL    HW217807   2.874   5.746   4.760
 5663SOL     OW17808   3.571   5.971   5.105
 5663SOL    HW117809   3.644   6.040   5.109
 5663SOL    HW217810   3.599   5.896   5.046
 5664SOL     OW17811   1.967   6.599   5.450
 5664SOL    HW117812   1.890   6.566   5.504
 5664SOL    HW217813   2.052   6.569   5.492
 5665SOL     OW17814   2.534   5.789   5.213
 5665SOL    HW117815   2.624   5.773   5.173
 5665SOL    HW217816   2.542   5.794   5.312
 5666SOL     OW17817   1.937   5.931   3.757
 5666SOL    HW117818   1.845   5.903   3.728
 5666SOL    HW217819   1.968   6.008   3.701
 5667SOL     OW17820   3.302   6.442   5.122
 5667SOL    HW117821   3.245   6.494   5.059
 5667SOL    HW217822   3.398   6.454   5.098
 5668SOL     OW17823   1.934   5.752   4.042
 5668SOL    HW117824   1.917   5.835   3.988
 5668SOL    HW217825   2.024   5.715   4.020
 5669SOL     OW17826   2.475   6.428   5.155
 5669SOL    HW117827   2.531   6.509   5.138
 5669SOL    HW217828   2.534   6.348   5.158
 5670SOL     OW17829   2.578   6.151   5.432
 5670SOL    HW117830   2.597   6.216   5.506
 5670SOL    HW217831   2.638   6.071   5.441
 5671SOL     OW17832   3.312   6.806   5.357
 5671SOL    HW117833   3.303   6.796   5.456
 5671SOL    HW217834   3.408   6.799   5.331
 5672SOL     OW17835   3.536   6.469   4.978
 5672SOL    HW117836   3.509   6.380   4.941
 5672SOL    HW217837   3.537   6.537   4.905
 5673SOL     OW17838   3.087   5.911   4.173
 5673SOL    HW117839   3.152   5.837   4.162
 5673SOL    HW217840   3.107   5.961   4.257
 5674SOL     OW17841   2.456   6.331   4.376
 5674SOL    HW117842   2.506   6.416   4.357
 5674SOL    HW217843   2.368   6.333   4.328
 5675SOL     OW17844   3.639   5.928   5.366
 5675SOL    HW117845   3.622   5.959   5.272
 5675SOL    HW217846   3.555   5.891   5.404
 5676SOL     OW17847   3.592   6.520   5.241
 5676SOL    HW117848   3.630   6.611   5.256
 5676SOL    HW217849   3.584   6.503   5.142
 5677SOL     OW17850   2.721   6.542   4.585
 5677SOL    HW117851   2.775   6.473   4.633
 5677SOL    HW217852   2.689   6.611   4.651
 5678SOL     OW17853   2.945   6.570   3.811
 5678SOL    HW117854   2.922   6.623   3.729
 5678SOL    HW217855   3.026   6.514   3.792
 5679SOL     OW17856   2.083   6.900   5.568
 5679SOL    HW117857   2.018   6.827   5.547
 5679SOL    HW217858   2.087   6.914   5.666
 5680SOL     OW17859   1.941   6.826   4.377
 5680SOL    HW117860   1.940   6.779   4.465
 5680SOL    HW217861   2.023   6.798   4.326
 5681SOL     OW17862   2.534   6.977   5.348
 5681SOL    HW117863   2.456   6.927   5.386
 5681SOL    HW217864   2.531   7.072   5.379
 5682SOL     OW17865   3.686   5.778   4.951
 5682SOL    HW117866   3.682   5.688   4.995
 5682SOL    HW217867   3.689   5.767   4.852
 5683SOL     OW17868   2.290   6.010   4.244
 5683SOL    HW117869   2.320   5.938   4.182
 5683SOL    HW217870   2.251   5.970   4.327
 5684SOL     OW17871   3.567   7.073   4.828
 5684SOL    HW117872   3.474   7.048   4.801
 5684SOL    HW217873   3.593   7.023   4.910
 5685SOL     OW17874   2.179   6.133   5.004
 5685SOL    HW117875   2.217   6.074   5.076
 5685SOL    HW217876   2.219   6.107   4.916
 5686SOL     OW17877   3.286   5.800   4.836
 5686SOL    HW117878   3.338   5.735   4.891
 5686SOL    HW217879   3.237   5.863   4.897
 5687SOL     OW17880   2.863   5.620   4.878
 5687SOL    HW117881   2.800   5.548   4.847
 5687SOL    HW217882   2.956   5.584   4.878
 5688SOL     OW17883   2.632   6.916   4.025
 5688SOL    HW117884   2.586   6.829   4.042
 5688SOL    HW217885   2.723   6.913   4.066
 5689SOL     OW17886   3.214   5.638   3.892
 5689SOL    HW117887   3.249   5.597   3.808
 5689SOL    HW217888   3.124   5.600   3.912
 5690SOL     OW17889   3.162   6.039   4.415
 5690SOL    HW117890   3.103   6.119   4.419
 5690SOL    HW217891   3.177   6.004   4.508
 5691SOL     OW17892   3.455   5.807   4.606
 5691SOL    HW117893   3.371   5.806   4.660
 5691SOL    HW217894   3.457   5.890   4.550
 5692SOL     OW17895   1.901   6.663   4.024
 5692SOL    HW117896   2.000   6.652   4.015
 5692SOL    HW217897   1.861   6.577   4.056
 5693SOL     OW17898   2.092   6.214   5.699
 5693SOL    HW117899   1.999   6.212   5.736
 5693SOL    HW217900   2.093   6.175   5.607
 5694SOL     OW17901   2.087   5.861   6.582
 5694SOL    HW117902   2.122   5.844   6.674
 5694SOL    HW217903   1.999   5.816   6.570
 5695SOL     OW17904   1.881   5.954   6.233
 5695SOL    HW117905   1.799   5.997   6.272
 5695SOL    HW217906   1.853   5.881   6.170
 5696SOL     OW17907   2.431   6.861   6.751
 5696SOL    HW117908   2.338   6.854   6.714
 5696SOL    HW217909   2.442   6.950   6.795
 5697SOL     OW17910   3.417   7.097   6.289
 5697SOL    HW117911   3.360   7.081   6.370
 5697SOL    HW217912   3.358   7.107   6.209
 5698SOL     OW17913   2.997   6.289   6.303
 5698SOL    HW117914   3.054   6.367   6.278
 5698SOL    HW217915   2.937   6.315   6.379
 5699SOL     OW17916   3.617   6.193   5.817
 5699SOL    HW117917   3.605   6.180   5.718
 5699SOL    HW217918   3.587   6.112   5.866
 5700SOL     OW17919   2.630   6.730   6.609
 5700SOL    HW117920   2.552   6.747   6.669
 5700SOL    HW217921   2.664   6.817   6.573
 5701SOL     OW17922   2.547   6.598   6.251
 5701SOL    HW117923   2.616   6.582   6.321
 5701SOL    HW217924   2.474   6.655   6.289
 5702SOL     OW17925   2.197   7.021   6.647
 5702SOL    HW117926   2.119   6.990   6.594
 5702SOL    HW217927   2.255   7.079   6.590
 5703SOL     OW17928   3.465   6.033   6.323
 5703SOL    HW117929   3.391   6.079   6.273
 5703SOL    HW217930   3.516   6.101   6.376
 5704SOL     OW17931   2.102   6.677   6.472
 5704SOL    HW117932   2.116   6.593   6.524
 5704SOL    HW217933   2.047   6.741   6.527
 5705SOL     OW17934   2.468   6.550   5.709
 5705SOL    HW117935   2.475   6.634   5.655
 5705SOL    HW217936   2.514   6.563   5.797
 5706SOL     OW17937   1.984   6.229   6.149
 5706SOL    HW117938   1.939   6.141   6.166
 5706SOL    HW217939   1.983   6.283   6.233
 5707SOL     OW17940   3.551   6.508   6.198
 5707SOL    HW117941   3.646   6.479   6.206
 5707SOL    HW217942   3.543   6.573   6.123
 5708SOL     OW17943   3.503   6.694   6.018
 5708SOL    HW117944   3.589   6.696   5.966
 5708SOL    HW217945   3.517   6.741   6.106
 5709SOL     OW17946   2.671   5.590   6.088
 5709SOL    HW117947   2.711   5.681   6.079
 5709SOL    HW217948   2.571   5.598   6.094
 5710SOL     OW17949   2.059   6.562   6.850
 5710SOL    HW117950   2.148   6.517   6.836
 5710SOL    HW217951   1.986   6.497   6.831
 5711SOL     OW17952   3.387   6.585   5.776
 5711SOL    HW117953   3.324   6.509   5.789
 5711SOL    HW217954   3.435   6.603   5.862
 5712SOL     OW17955   3.328   7.003   6.539
 5712SOL    HW117956   3.269   7.009   6.619
 5712SOL    HW217957   3.313   6.915   6.493
 5713SOL     OW17958   2.460   6.315   5.856
 5713SOL    HW117959   2.484   6.384   5.788
 5713SOL    HW217960   2.382   6.348   5.910
 5714SOL     OW17961   3.143   5.931   6.530
 5714SOL    HW117962   3.057   5.881   6.517
 5714SOL    HW217963   3.205   5.877   6.586
 5715SOL     OW17964   2.669   6.191   7.051
 5715SOL    HW117965   2.622   6.188   7.140
 5715SOL    HW217966   2.618   6.136   6.985
 5716SOL     OW17967   2.853   5.996   6.828
 5716SOL    HW117968   2.776   6.030   6.882
 5716SOL    HW217969   2.819   5.945   6.749
 5717SOL     OW17970   2.903   6.287   6.015
 5717SOL    HW117971   2.929   6.283   6.111
 5717SOL    HW217972   2.818   6.236   6.001
 5718SOL     OW17973   1.938   6.397   6.375
 5718SOL    HW117974   2.037   6.385   6.384
 5718SOL    HW217975   1.914   6.492   6.396
 5719SOL     OW17976   2.727   5.934   5.781
 5719SOL    HW117977   2.786   5.997   5.732
 5719SOL    HW217978   2.746   5.840   5.752
 5720SOL     OW17979   3.224   6.730   6.131
 5720SOL    HW117980   3.307   6.701   6.083
 5720SOL    HW217981   3.175   6.797   6.075
 5721SOL     OW17982   2.412   5.782   6.471
 5721SOL    HW117983   2.407   5.777   6.571
 5721SOL    HW217984   2.414   5.878   6.442
 5722SOL     OW17985   3.657   6.652   6.459
 5722SOL    HW117986   3.595   6.637   6.383
 5722SOL    HW217987   3.605   6.663   6.544
 5723SOL     OW17988   2.183   6.529   5.828
 5723SOL    HW117989   2.265   6.568   5.786
 5723SOL    HW217990   2.156   6.447   5.779
 5724SOL     OW17991   3.320   6.321   6.314
 5724SOL    HW117992   3.315   6.256   6.389
 5724SOL    HW217993   3.400   6.380   6.327
 5725SOL     OW17994   3.494   6.963   5.667
 5725SOL    HW117995   3.462   7.057   5.657
 5725SOL    HW217996   3.418   6.900   5.655
 5726SOL     OW17997   3.262   5.693   6.012
 5726SOL    HW117998   3.238   5.656   5.922
 5726SOL    HW217999   3.361   5.709   6.016
 5727SOL     OW18000   2.244   6.286   6.066
 5727SOL    HW118001   2.289   6.196   6.063
 5727SOL    HW218002   2.150   6.275   6.099
 5728SOL     OW18003   2.476   5.708   5.703
 5728SOL    HW118004   2.574   5.686   5.710
 5728SOL    HW218005   2.445   5.691   5.610
 5729SOL     OW18006   2.784   6.089   6.485
 5729SOL    HW118007   2.759   6.080   6.389
 5729SOL    HW218008   2.832   6.007   6.516
 5730SOL     OW18009   2.401   5.650   6.098
 5730SOL    HW118010   2.320   5.651   6.156
 5730SOL    HW218011   2.404   5.733   6.043
 5731SOL     OW18012   3.296   6.774   5.627
 5731SOL    HW118013   3.328   6.698   5.684
 5731SOL    HW218014   3.204   6.801   5.657
 5732SOL     OW18015   2.159   5.621   5.757
 5732SOL    HW118016   2.208   5.705   5.736
 5732SOL    HW218017   2.221   5.556   5.802
 5733SOL     OW18018   2.797   5.822   6.066
 5733SOL    HW118019   2.749   5.863   5.988
 5733SOL    HW218020   2.896   5.820   6.047
 5734SOL     OW18021   3.089   7.156   6.379
 5734SOL    HW118022   3.110   7.230   6.314
 5734SOL    HW218023   3.157   7.156   6.452
 5735SOL     OW18024   2.321   6.738   6.327
 5735SOL    HW118025   2.250   6.711   6.392
 5735SOL    HW218026   2.295   6.710   6.234
 5736SOL     OW18027   2.894   6.135   5.602
 5736SOL    HW118028   2.853   6.217   5.563
 5736SOL    HW218029   2.958   6.161   5.675
 5737SOL     OW18030   2.423   5.808   6.733
 5737SOL    HW118031   2.461   5.724   6.770
 5737SOL    HW218032   2.335   5.827   6.777
 5738SOL     OW18033   2.728   6.040   6.228
 5738SOL    HW118034   2.696   6.112   6.166
 5738SOL    HW218035   2.752   5.959   6.175
 5739SOL     OW18036   2.879   5.625   6.339
 5739SOL    HW118037   2.807   5.630   6.270
 5739SOL    HW218038   2.855   5.556   6.408
 5740SOL     OW18039   3.291   6.759   6.453
 5740SOL    HW118040   3.236   6.675   6.446
 5740SOL    HW218041   3.317   6.788   6.361
 5741SOL     OW18042   3.328   6.176   6.578
 5741SOL    HW118043   3.298   6.081   6.585
 5741SOL    HW218044   3.401   6.192   6.644
 5742SOL     OW18045   3.719   6.419   5.963
 5742SOL    HW118046   3.761   6.355   6.027
 5742SOL    HW218047   3.681   6.368   5.885
 5743SOL     OW18048   3.526   6.866   6.243
 5743SOL    HW118049   3.625   6.874   6.257
 5743SOL    HW218050   3.481   6.950   6.274
 5744SOL     OW18051   3.252   6.161   5.664
 5744SOL    HW118052   3.198   6.140   5.745
 5744SOL    HW218053   3.343   6.120   5.673
 5745SOL     OW18054   2.389   5.842   5.914
 5745SOL    HW118055   2.416   5.783   5.839
 5745SOL    HW218056   2.389   5.937   5.883
 5746SOL     OW18057   3.616   6.809   7.174
 5746SOL    HW118058   3.707   6.770   7.161
 5746SOL    HW218059   3.624   6.905   7.198
 5747SOL     OW18060   2.926   6.933   6.926
 5747SOL    HW118061   2.846   6.910   6.981
 5747SOL    HW218062   3.009   6.907   6.975
 5748SOL     OW18063   2.973   6.781   6.686
 5748SOL    HW118064   2.933   6.825   6.767
 5748SOL    HW218065   2.932   6.818   6.603
 5749SOL     OW18066   3.500   6.685   6.665
 5749SOL    HW118067   3.505   6.766   6.724
 5749SOL    HW218068   3.414   6.687   6.614
 5750SOL     OW18069   2.567   6.636   5.954
 5750SOL    HW118070   2.553   6.643   6.053
 5750SOL    HW218071   2.651   6.585   5.936
 5751SOL     OW18072   2.272   6.399   6.837
 5751SOL    HW118073   2.358   6.411   6.887
 5751SOL    HW218074   2.230   6.312   6.864
 5752SOL     OW18075   3.136   5.972   6.848
 5752SOL    HW118076   3.157   6.046   6.912
 5752SOL    HW218077   3.047   5.989   6.805
 5753SOL     OW18078   2.229   6.686   6.087
 5753SOL    HW118079   2.222   6.769   6.031
 5753SOL    HW218080   2.233   6.606   6.027
 5754SOL     OW18081   2.428   6.123   6.451
 5754SOL    HW118082   2.440   6.189   6.377
 5754SOL    HW218083   2.474   6.157   6.534
 5755SOL     OW18084   3.444   6.225   6.058
 5755SOL    HW118085   3.413   6.286   6.131
 5755SOL    HW218086   3.494   6.277   5.989
 5756SOL     OW18087   2.435   6.456   6.615
 5756SOL    HW118088   2.479   6.545   6.606
 5756SOL    HW218089   2.372   6.456   6.692
 5757SOL     OW18090   3.222   6.448   6.631
 5757SOL    HW118091   3.147   6.448   6.565
 5757SOL    HW218092   3.259   6.356   6.640
 5758SOL     OW18093   3.071   6.111   5.861
 5758SOL    HW118094   3.084   6.027   5.915
 5758SOL    HW218095   3.042   6.185   5.921
 5759SOL     OW18096   2.169   5.799   6.817
 5759SOL    HW118097   2.146   5.836   6.907
 5759SOL    HW218098   2.139   5.704   6.811
 5760SOL     OW18099   1.899   6.896   6.868
 5760SOL    HW118100   1.952   6.847   6.936
 5760SOL    HW218101   1.921   6.994   6.873
 5761SOL     OW18102   2.594   6.220   6.650
 5761SOL    HW118103   2.653   6.194   6.574
 5761SOL    HW218104   2.566   6.316   6.639
 5762SOL     OW18105   2.169   5.649   6.204
 5762SOL    HW118106   2.158   5.743   6.237
 5762SOL    HW218107   2.164   5.586   6.281
 5763SOL     OW18108   3.484   5.953   5.960
 5763SOL    HW118109   3.486   5.877   6.024
 5763SOL    HW218110   3.436   6.030   6.000
 5764SOL     OW18111   2.885   6.352   6.552
 5764SOL    HW118112   2.900   6.373   6.648
 5764SOL    HW218113   2.855   6.257   6.543
 5765SOL     OW18114   3.402   5.860   5.711
 5765SOL    HW118115   3.341   5.785   5.734
 5765SOL    HW218116   3.424   5.912   5.794
 5766SOL     OW18117   3.165   6.424   5.628
 5766SOL    HW118118   3.199   6.331   5.643
 5766SOL    HW218119   3.183   6.451   5.533
 5767SOL     OW18120   2.181   6.396   6.535
 5767SOL    HW118121   2.274   6.432   6.540
 5767SOL    HW218122   2.175   6.311   6.587
 5768SOL     OW18123   2.201   6.095   6.592
 5768SOL    HW118124   2.149   6.012   6.575
 5768SOL    HW218125   2.278   6.100   6.528
 5769SOL     OW18126   3.022   5.793   7.063
 5769SOL    HW118127   3.022   5.857   7.140
 5769SOL    HW218128   3.050   5.841   6.980
 5770SOL     OW18129   1.870   6.912   5.786
 5770SOL    HW118130   1.777   6.933   5.755
 5770SOL    HW218131   1.880   6.813   5.799
 5771SOL     OW18132   2.864   6.382   6.824
 5771SOL    HW118133   2.905   6.350   6.910
 5771SOL    HW218134   2.768   6.355   6.821
 5772SOL     OW18135   1.902   6.130   6.700
 5772SOL    HW118136   1.987   6.097   6.659
 5772SOL    HW218137   1.915   6.145   6.798
 5773SOL     OW18138   2.677   6.158   5.911
 5773SOL    HW118139   2.684   6.069   5.865
 5773SOL    HW218140   2.583   6.192   5.903
 5774SOL     OW18141   3.519   6.190   6.792
 5774SOL    HW118142   3.481   6.121   6.854
 5774SOL    HW218143   3.601   6.154   6.748
 5775SOL     OW18144   2.533   6.050   6.855
 5775SOL    HW118145   2.499   5.961   6.825
 5775SOL    HW218146   2.559   6.104   6.775
 5776SOL     OW18147   2.335   6.086   5.777
 5776SOL    HW118148   2.396   6.166   5.781
 5776SOL    HW218149   2.240   6.117   5.784
 5777SOL     OW18150   2.021   6.723   7.052
 5777SOL    HW118151   2.043   6.662   7.128
 5777SOL    HW218152   2.031   6.674   6.966
 5778SOL     OW18153   3.209   6.645   6.820
 5778SOL    HW118154   3.233   6.582   6.746
 5778SOL    HW218155   3.119   6.685   6.802
 5779SOL     OW18156   3.164   6.441   5.895
 5779SOL    HW118157   3.078   6.410   5.937
 5779SOL    HW218158   3.160   6.427   5.796
 5780SOL     OW18159   1.945   6.844   6.608
 5780SOL    HW118160   1.940   6.843   6.708
 5780SOL    HW218161   1.862   6.803   6.570
 5781SOL     OW18162   3.588   5.721   6.109
 5781SOL    HW118163   3.661   5.704   6.042
 5781SOL    HW218164   3.557   5.634   6.147
 5782SOL     OW18165   3.142   6.513   6.258
 5782SOL    HW118166   3.202   6.432   6.260
 5782SOL    HW218167   3.182   6.582   6.198
 5783SOL     OW18168   2.692   6.859   7.008
 5783SOL    HW118169   2.687   6.892   7.103
 5783SOL    HW218170   2.606   6.878   6.962
 5784SOL     OW18171   3.703   5.761   6.549
 5784SOL    HW118172   3.742   5.676   6.513
 5784SOL    HW218173   3.605   5.763   6.530
 5785SOL     OW18174   2.125   5.912   6.306
 5785SOL    HW118175   2.046   5.963   6.272
 5785SOL    HW218176   2.116   5.897   6.404
 5786SOL     OW18177   3.056   7.198   5.617
 5786SOL    HW118178   3.062   7.105   5.654
 5786SOL    HW218179   2.997   7.198   5.537
 5787SOL     OW18180   2.684   6.588   6.958
 5787SOL    HW118181   2.724   6.587   6.866
 5787SOL    HW218182   2.694   6.680   6.998
 5788SOL     OW18183   2.778   6.496   5.877
 5788SOL    HW118184   2.841   6.534   5.809
 5788SOL    HW218185   2.818   6.413   5.916
 5789SOL     OW18186   2.234   6.874   7.076
 5789SOL    HW118187   2.221   6.967   7.042
 5789SOL    HW218188   2.150   6.822   7.063
 5790SOL     OW18189   3.476   6.878   6.875
 5790SOL    HW118190   3.536   6.881   6.955
 5790SOL    HW218191   3.401   6.942   6.888
 5791SOL     OW18192   2.901   6.684   6.282
 5791SOL    HW118193   2.831   6.637   6.336
 5791SOL    HW218194   2.960   6.616   6.239
 5792SOL     OW18195   2.876   5.822   6.557
 5792SOL    HW118196   2.868   5.786   6.464
 5792SOL    HW218197   2.874   5.746   6.622
 5793SOL     OW18198   3.571   5.971   6.967
 5793SOL    HW118199   3.644   6.040   6.971
 5793SOL    HW218200   3.599   5.896   6.908
 5794SOL     OW18201   2.534   5.789   7.075
 5794SOL    HW118202   2.624   5.773   7.035
 5794SOL    HW218203   2.542   5.794   7.174
 5795SOL     OW18204   1.937   5.931   5.619
 5795SOL    HW118205   1.845   5.903   5.590
 5795SOL    HW218206   1.968   6.008   5.563
 5796SOL     OW18207   1.934   5.752   5.904
 5796SOL    HW118208   1.917   5.835   5.850
 5796SOL    HW218209   2.024   5.715   5.882
 5797SOL     OW18210   3.312   6.806   7.219
 5797SOL    HW118211   3.303   6.796   7.318
 5797SOL    HW218212   3.408   6.799   7.193
 5798SOL     OW18213   3.536   6.469   6.840
 5798SOL    HW118214   3.509   6.380   6.803
 5798SOL    HW218215   3.537   6.537   6.767
 5799SOL     OW18216   3.087   5.911   6.035
 5799SOL    HW118217   3.152   5.837   6.024
 5799SOL    HW218218   3.107   5.961   6.119
 5800SOL     OW18219   2.456   6.331   6.238
 5800SOL    HW118220   2.506   6.416   6.219
 5800SOL    HW218221   2.368   6.333   6.190
 5801SOL     OW18222   3.592   6.520   7.103
 5801SOL    HW118223   3.630   6.611   7.118
 5801SOL    HW218224   3.584   6.503   7.004
 5802SOL     OW18225   2.721   6.542   6.447
 5802SOL    HW118226   2.775   6.473   6.495
 5802SOL    HW218227   2.689   6.611   6.513
 5803SOL     OW18228   2.945   6.570   5.673
 5803SOL    HW118229   2.922   6.623   5.591
 5803SOL    HW218230   3.026   6.514   5.654
 5804SOL     OW18231   1.941   6.826   6.239
 5804SOL    HW118232   1.940   6.779   6.327
 5804SOL    HW218233   2.023   6.798   6.188
 5805SOL     OW18234   3.686   5.778   6.813
 5805SOL    HW118235   3.682   5.688   6.857
 5805SOL    HW218236   3.689   5.767   6.714
 5806SOL     OW18237   2.290   6.010   6.106
 5806SOL    HW118238   2.320   5.938   6.044
 5806SOL    HW218239   2.251   5.970   6.189
 5807SOL     OW18240   3.567   7.073   6.690
 5807SOL    HW118241   3.474   7.048   6.663
 5807SOL    HW218242   3.593   7.023   6.772
 5808SOL     OW18243   2.179   6.133   6.866
 5808SOL    HW118244   2.217   6.074   6.938
 5808SOL    HW218245   2.219   6.107   6.778
 5809SOL     OW18246   3.286   5.800   6.698
 5809SOL    HW118247   3.338   5.735   6.753
 5809SOL    HW218248   3.237   5.863   6.759
 5810SOL     OW18249   2.863   5.620   6.740
 5810SOL    HW118250   2.800   5.548   6.709
 5810SOL    HW218251   2.956   5.584   6.740
 5811SOL     OW18252   2.632   6.916   5.887
 5811SOL    HW118253   2.586   6.829   5.904
 5811SOL    HW218254   2.723   6.913   5.928
 5812SOL     OW18255   3.214   5.638   5.754
 5812SOL    HW118256   3.249   5.597   5.670
 5812SOL    HW218257   3.124   5.600   5.774
 5813SOL     OW18258   3.162   6.039   6.277
 5813SOL    HW118259   3.103   6.119   6.281
 5813SOL    HW218260   3.177   6.004   6.370
 5814SOL     OW18261   3.455   5.807   6.468
 5814SOL    HW118262   3.371   5.806   6.522
 5814SOL    HW218263   3.457   5.890   6.412
 5815SOL     OW18264   1.901   6.663   5.886
 5815SOL    HW118265   2.000   6.652   5.877
 5815SOL    HW218266   1.861   6.577   5.918
 5816SOL     OW18267   3.954   0.628   0.113
 5816SOL    HW118268   3.861   0.626   0.150
 5816SOL    HW218269   3.955   0.589   0.021
 5817SOL     OW18270   3.949   0.275   0.996
 5817SOL    HW118271   3.984   0.258   1.088
 5817SOL    HW218272   3.861   0.230   0.984
 5818SOL     OW18273   3.743   0.368   0.647
 5818SOL    HW118274   3.661   0.411   0.686
 5818SOL    HW218275   3.715   0.295   0.584
 5819SOL     OW18276   4.293   1.275   1.165
 5819SOL    HW118277   4.200   1.268   1.128
 5819SOL    HW218278   4.304   1.364   1.209
 5820SOL     OW18279   5.279   1.511   0.703
 5820SOL    HW118280   5.222   1.495   0.784
 5820SOL    HW218281   5.220   1.521   0.623
 5821SOL     OW18282   4.859   0.703   0.717
 5821SOL    HW118283   4.916   0.781   0.692
 5821SOL    HW218284   4.799   0.729   0.793
 5822SOL     OW18285   5.479   0.607   0.231
 5822SOL    HW118286   5.467   0.594   0.132
 5822SOL    HW218287   5.449   0.526   0.280
 5823SOL     OW18288   4.492   1.144   1.023
 5823SOL    HW118289   4.414   1.161   1.083
 5823SOL    HW218290   4.526   1.231   0.987
 5824SOL     OW18291   4.574   0.798   1.823
 5824SOL    HW118292   4.570   0.874   1.888
 5824SOL    HW218293   4.596   0.834   1.732
 5825SOL     OW18294   4.409   1.012   0.665
 5825SOL    HW118295   4.478   0.996   0.735
 5825SOL    HW218296   4.336   1.069   0.703
 5826SOL     OW18297   4.410   1.161   1.803
 5826SOL    HW118298   4.470   1.240   1.817
 5826SOL    HW218299   4.324   1.192   1.762
 5827SOL     OW18300   4.059   1.435   1.061
 5827SOL    HW118301   3.981   1.404   1.008
 5827SOL    HW218302   4.117   1.493   1.004
 5828SOL     OW18303   5.184   1.505   1.339
 5828SOL    HW118304   5.208   1.599   1.365
 5828SOL    HW218305   5.168   1.451   1.421
 5829SOL     OW18306   4.162   0.392   1.499
 5829SOL    HW118307   4.244   0.336   1.508
 5829SOL    HW218308   4.081   0.334   1.503
 5830SOL     OW18309   5.327   0.447   0.737
 5830SOL    HW118310   5.253   0.493   0.687
 5830SOL    HW218311   5.378   0.515   0.790
 5831SOL     OW18312   3.955   1.713   0.483
 5831SOL    HW118313   3.989   1.790   0.537
 5831SOL    HW218314   3.999   1.713   0.393
 5832SOL     OW18315   4.851   1.341   1.690
 5832SOL    HW118316   4.898   1.341   1.778
 5832SOL    HW218317   4.803   1.254   1.679
 5833SOL     OW18318   3.954   1.434   0.538
 5833SOL    HW118319   3.928   1.530   0.538
 5833SOL    HW218320   3.883   1.380   0.583
 5834SOL     OW18321   3.964   1.091   0.886
 5834SOL    HW118322   3.978   1.007   0.938
 5834SOL    HW218323   3.909   1.155   0.941
 5835SOL     OW18324   4.344   1.786   1.439
 5835SOL    HW118325   4.252   1.769   1.474
 5835SOL    HW218326   4.372   1.878   1.465
 5836SOL     OW18327   4.330   0.964   0.123
 5836SOL    HW118328   4.337   1.048   0.069
 5836SOL    HW218329   4.376   0.977   0.211
 5837SOL     OW18330   5.318   0.114   1.480
 5837SOL    HW118331   5.300   0.181   1.408
 5837SOL    HW218332   5.315   0.160   1.569
 5838SOL     OW18333   3.846   0.643   0.563
 5838SOL    HW118334   3.801   0.555   0.580
 5838SOL    HW218335   3.845   0.697   0.647
 5839SOL     OW18336   5.566   1.767   0.359
 5839SOL    HW118337   5.620   1.738   0.439
 5839SOL    HW218338   5.596   1.857   0.330
 5840SOL     OW18339   3.751   1.596   0.117
 5840SOL    HW118340   3.732   1.500   0.138
 5840SOL    HW218341   3.718   1.654   0.192
 5841SOL     OW18342   5.413   0.922   0.612
 5841SOL    HW118343   5.508   0.893   0.620
 5841SOL    HW218344   5.405   0.987   0.537
 5842SOL     OW18345   5.365   1.108   0.432
 5842SOL    HW118346   5.451   1.110   0.380
 5842SOL    HW218347   5.379   1.155   0.520
 5843SOL     OW18348   3.837   0.737   1.597
 5843SOL    HW118349   3.925   0.724   1.642
 5843SOL    HW218350   3.824   0.834   1.575
 5844SOL     OW18351   4.337   1.365   0.726
 5844SOL    HW118352   4.288   1.278   0.735
 5844SOL    HW218353   4.314   1.408   0.639
 5845SOL     OW18354   5.017   1.228   1.423
 5845SOL    HW118355   5.054   1.155   1.365
 5845SOL    HW218356   5.069   1.233   1.508
 5846SOL     OW18357   4.533   0.004   0.502
 5846SOL    HW118358   4.573   0.095   0.493
 5846SOL    HW218359   4.433   0.012   0.508
 5847SOL     OW18360   3.921   0.976   1.264
 5847SOL    HW118361   4.010   0.931   1.250
 5847SOL    HW218362   3.848   0.911   1.245
 5848SOL     OW18363   5.249   0.999   0.190
 5848SOL    HW118364   5.186   0.923   0.203
 5848SOL    HW218365   5.297   1.017   0.276
 5849SOL     OW18366   4.911   1.792   1.616
 5849SOL    HW118367   4.935   1.852   1.540
 5849SOL    HW218368   4.918   1.697   1.586
 5850SOL     OW18369   4.041   0.251   1.801
 5850SOL    HW118370   4.112   0.322   1.807
 5850SOL    HW218371   3.953   0.290   1.829
 5851SOL     OW18372   5.190   1.417   0.953
 5851SOL    HW118373   5.131   1.423   1.033
 5851SOL    HW218374   5.175   1.329   0.907
 5852SOL     OW18375   5.391   1.714   0.572
 5852SOL    HW118376   5.350   1.691   0.484
 5852SOL    HW218377   5.373   1.640   0.637
 5853SOL     OW18378   4.322   0.729   0.270
 5853SOL    HW118379   4.346   0.798   0.202
 5853SOL    HW218380   4.244   0.762   0.324
 5854SOL     OW18381   5.005   0.345   0.944
 5854SOL    HW118382   4.919   0.295   0.931
 5854SOL    HW218383   5.067   0.291   1.000
 5855SOL     OW18384   5.300   1.662   0.307
 5855SOL    HW118385   5.389   1.708   0.310
 5855SOL    HW218386   5.279   1.638   0.212
 5856SOL     OW18387   4.531   0.605   1.465
 5856SOL    HW118388   4.484   0.602   1.554
 5856SOL    HW218389   4.480   0.550   1.399
 5857SOL     OW18390   5.118   0.469   1.674
 5857SOL    HW118391   5.098   0.512   1.762
 5857SOL    HW218392   5.196   0.407   1.683
 5858SOL     OW18393   4.697   0.890   1.572
 5858SOL    HW118394   4.743   0.806   1.543
 5858SOL    HW218395   4.641   0.924   1.497
 5859SOL     OW18396   4.715   0.410   1.242
 5859SOL    HW118397   4.638   0.444   1.296
 5859SOL    HW218398   4.681   0.359   1.163
 5860SOL     OW18399   4.765   0.701   0.429
 5860SOL    HW118400   4.791   0.697   0.525
 5860SOL    HW218401   4.680   0.650   0.415
 5861SOL     OW18402   3.800   0.811   0.789
 5861SOL    HW118403   3.899   0.799   0.798
 5861SOL    HW218404   3.776   0.906   0.810
 5862SOL     OW18405   3.854   1.821   1.571
 5862SOL    HW118406   3.844   1.806   1.670
 5862SOL    HW218407   3.768   1.857   1.535
 5863SOL     OW18408   4.589   0.348   0.195
 5863SOL    HW118409   4.648   0.411   0.146
 5863SOL    HW218410   4.608   0.254   0.166
 5864SOL     OW18411   5.443   0.585   1.831
 5864SOL    HW118412   5.417   0.674   1.795
 5864SOL    HW218413   5.441   0.517   1.758
 5865SOL     OW18414   5.086   1.144   0.545
 5865SOL    HW118415   5.169   1.115   0.497
 5865SOL    HW218416   5.037   1.211   0.489
 5866SOL     OW18417   4.274   0.196   0.885
 5866SOL    HW118418   4.269   0.191   0.985
 5866SOL    HW218419   4.276   0.292   0.856
 5867SOL     OW18420   4.732   1.456   0.477
 5867SOL    HW118421   4.686   1.528   0.425
 5867SOL    HW218422   4.728   1.476   0.575
 5868SOL     OW18423   4.075   1.801   0.853
 5868SOL    HW118424   4.125   1.715   0.859
 5868SOL    HW218425   4.140   1.878   0.850
 5869SOL     OW18426   5.519   1.066   0.873
 5869SOL    HW118427   5.457   1.051   0.797
 5869SOL    HW218428   5.467   1.077   0.958
 5870SOL     OW18429   4.951   1.550   1.506
 5870SOL    HW118430   4.957   1.473   1.570
 5870SOL    HW218431   4.899   1.524   1.426
 5871SOL     OW18432   4.045   0.943   0.242
 5871SOL    HW118433   4.127   0.982   0.200
 5871SOL    HW218434   4.018   0.861   0.193
 5872SOL     OW18435   5.182   0.735   0.728
 5872SOL    HW118436   5.177   0.670   0.803
 5872SOL    HW218437   5.262   0.794   0.741
 5873SOL     OW18438   4.185   1.266   1.727
 5873SOL    HW118439   4.135   1.267   1.641
 5873SOL    HW218440   4.122   1.248   1.803
 5874SOL     OW18441   4.835   1.776   0.237
 5874SOL    HW118442   4.775   1.714   0.287
 5874SOL    HW218443   4.866   1.732   0.152
 5875SOL     OW18444   3.926   0.285   1.498
 5875SOL    HW118445   3.846   0.345   1.485
 5875SOL    HW218446   3.916   0.236   1.584
 5876SOL     OW18447   5.356   1.377   0.081
 5876SOL    HW118448   5.324   1.471   0.071
 5876SOL    HW218449   5.280   1.314   0.069
 5877SOL     OW18450   4.188   1.743   0.323
 5877SOL    HW118451   4.221   1.782   0.409
 5877SOL    HW218452   4.264   1.736   0.258
 5878SOL     OW18453   5.124   0.107   0.426
 5878SOL    HW118454   5.100   0.070   0.336
 5878SOL    HW218455   5.223   0.123   0.430
 5879SOL     OW18456   3.973   1.785   1.241
 5879SOL    HW118457   4.030   1.720   1.291
 5879SOL    HW218458   3.957   1.752   1.148
 5880SOL     OW18459   4.664   1.698   0.904
 5880SOL    HW118460   4.744   1.641   0.925
 5880SOL    HW218461   4.615   1.658   0.827
 5881SOL     OW18462   4.106   0.700   0.480
 5881SOL    HW118463   4.151   0.610   0.477
 5881SOL    HW218464   4.012   0.689   0.513
 5882SOL     OW18465   5.271   0.222   1.729
 5882SOL    HW118466   5.266   0.259   1.821
 5882SOL    HW218467   5.199   0.153   1.717
 5883SOL     OW18468   4.338   0.122   0.117
 5883SOL    HW118469   4.436   0.100   0.124
 5883SOL    HW218470   4.307   0.105   0.024
 5884SOL     OW18471   4.505   0.264   1.749
 5884SOL    HW118472   4.572   0.203   1.792
 5884SOL    HW218473   4.432   0.283   1.814
 5885SOL     OW18474   4.612   1.514   1.195
 5885SOL    HW118475   4.589   1.489   1.101
 5885SOL    HW218476   4.673   1.445   1.234
 5886SOL     OW18477   5.075   0.590   1.433
 5886SOL    HW118478   5.103   0.547   1.518
 5886SOL    HW218479   5.100   0.686   1.434
 5887SOL     OW18480   4.527   1.402   0.924
 5887SOL    HW118481   4.617   1.416   0.882
 5887SOL    HW218482   4.456   1.404   0.853
 5888SOL     OW18483   4.646   0.503   0.899
 5888SOL    HW118484   4.621   0.494   0.803
 5888SOL    HW218485   4.694   0.421   0.930
 5889SOL     OW18486   4.263   0.064   0.512
 5889SOL    HW118487   4.182   0.065   0.570
 5889SOL    HW218488   4.266   0.147   0.457
 5890SOL     OW18489   5.158   1.188   0.041
 5890SOL    HW118490   5.190   1.112   0.098
 5890SOL    HW218491   5.066   1.215   0.071
 5891SOL     OW18492   4.021   0.035   0.171
 5891SOL    HW118493   4.070   0.119   0.150
 5891SOL    HW218494   4.083  -0.030   0.216
 5892SOL     OW18495   4.659   0.236   0.480
 5892SOL    HW118496   4.611   0.277   0.402
 5892SOL    HW218497   4.758   0.234   0.461
 5893SOL     OW18498   4.800   0.683   1.464
 5893SOL    HW118499   4.720   0.622   1.467
 5893SOL    HW218500   4.881   0.630   1.440
 5894SOL     OW18501   4.951   1.570   0.793
 5894SOL    HW118502   4.972   1.644   0.728
 5894SOL    HW218503   5.019   1.570   0.866
 5895SOL     OW18504   4.183   1.152   0.741
 5895SOL    HW118505   4.112   1.125   0.806
 5895SOL    HW218506   4.157   1.124   0.648
 5896SOL     OW18507   4.995   1.797   0.591
 5896SOL    HW118508   5.039   1.861   0.527
 5896SOL    HW218509   4.945   1.849   0.661
 5897SOL     OW18510   4.756   0.549   0.016
 5897SOL    HW118511   4.715   0.631  -0.023
 5897SOL    HW218512   4.820   0.575   0.089
 5898SOL     OW18513   3.802   0.556   1.386
 5898SOL    HW118514   3.894   0.555   1.345
 5898SOL    HW218515   3.796   0.630   1.453
 5899SOL     OW18516   4.285   0.222   1.147
 5899SOL    HW118517   4.323   0.138   1.184
 5899SOL    HW218518   4.197   0.241   1.191
 5900SOL     OW18519   4.590   0.454   0.642
 5900SOL    HW118520   4.558   0.526   0.580
 5900SOL    HW218521   4.614   0.373   0.589
 5901SOL     OW18522   4.741   0.039   0.753
 5901SOL    HW118523   4.669   0.044   0.684
 5901SOL    HW218524   4.717  -0.030   0.822
 5902SOL     OW18525   5.153   1.173   0.867
 5902SOL    HW118526   5.098   1.089   0.860
 5902SOL    HW218527   5.179   1.202   0.775
 5903SOL     OW18528   5.190   0.590   0.992
 5903SOL    HW118529   5.160   0.495   0.999
 5903SOL    HW218530   5.263   0.606   1.058
 5904SOL     OW18531   5.581   0.833   0.377
 5904SOL    HW118532   5.623   0.769   0.441
 5904SOL    HW218533   5.543   0.782   0.299
 5905SOL     OW18534   4.212   1.385   0.174
 5905SOL    HW118535   4.125   1.370   0.221
 5905SOL    HW218536   4.195   1.411   0.079
 5906SOL     OW18537   5.388   1.280   0.657
 5906SOL    HW118538   5.487   1.288   0.671
 5906SOL    HW218539   5.343   1.364   0.688
 5907SOL     OW18540   5.114   0.575   0.078
 5907SOL    HW118541   5.060   0.554   0.159
 5907SOL    HW218542   5.205   0.534   0.087
 5908SOL     OW18543   4.251   0.256   0.328
 5908SOL    HW118544   4.278   0.197   0.253
 5908SOL    HW218545   4.251   0.351   0.297
 5909SOL     OW18546   5.478   1.223   1.588
 5909SOL    HW118547   5.569   1.184   1.575
 5909SOL    HW218548   5.486   1.319   1.612
 5910SOL     OW18549   4.788   1.347   1.340
 5910SOL    HW118550   4.708   1.324   1.395
 5910SOL    HW218551   4.871   1.321   1.389
 5911SOL     OW18552   5.316   1.629   1.625
 5911SOL    HW118553   5.343   1.663   1.535
 5911SOL    HW218554   5.395   1.591   1.671
 5912SOL     OW18555   4.835   1.195   1.100
 5912SOL    HW118556   4.795   1.239   1.181
 5912SOL    HW218557   4.794   1.232   1.017
 5913SOL     OW18558   5.362   1.099   1.079
 5913SOL    HW118559   5.367   1.180   1.138
 5913SOL    HW218560   5.276   1.101   1.028
 5914SOL     OW18561   4.639   0.089   1.402
 5914SOL    HW118562   4.664   0.069   1.307
 5914SOL    HW218563   4.711   0.145   1.444
 5915SOL     OW18564   4.704   1.116   1.719
 5915SOL    HW118565   4.605   1.122   1.729
 5915SOL    HW218566   4.727   1.036   1.663
 5916SOL     OW18567   4.429   1.050   0.368
 5916SOL    HW118568   4.415   1.057   0.467
 5916SOL    HW218569   4.513   0.999   0.350
 5917SOL     OW18570   4.134   0.813   1.251
 5917SOL    HW118571   4.220   0.825   1.301
 5917SOL    HW218572   4.092   0.726   1.278
 5918SOL     OW18573   4.998   0.386   1.262
 5918SOL    HW118574   5.019   0.460   1.326
 5918SOL    HW218575   4.909   0.403   1.219
 5919SOL     OW18576   3.788   1.564   1.331
 5919SOL    HW118577   3.742   1.646   1.297
 5919SOL    HW218578   3.886   1.583   1.340
 5920SOL     OW18579   4.091   1.100   0.501
 5920SOL    HW118580   4.084   1.183   0.445
 5920SOL    HW218581   4.095   1.020   0.441
 5921SOL     OW18582   4.290   0.537   0.865
 5921SOL    HW118583   4.302   0.603   0.791
 5921SOL    HW218584   4.336   0.571   0.948
 5922SOL     OW18585   4.976   1.348   0.388
 5922SOL    HW118586   5.026   1.425   0.428
 5922SOL    HW218587   4.881   1.350   0.420
 5923SOL     OW18588   4.996   1.445   1.142
 5923SOL    HW118589   5.043   1.458   1.229
 5923SOL    HW218590   4.930   1.371   1.151
 5924SOL     OW18591   5.306   0.639   0.472
 5924SOL    HW118592   5.275   0.700   0.545
 5924SOL    HW218593   5.356   0.691   0.403
 5925SOL     OW18594   4.078   1.510   1.329
 5925SOL    HW118595   4.057   1.466   1.242
 5925SOL    HW218596   4.175   1.536   1.332
 5926SOL     OW18597   4.126   0.751   1.598
 5926SOL    HW118598   4.194   0.806   1.551
 5926SOL    HW218599   4.166   0.663   1.625
 5927SOL     OW18600   5.311   0.779   1.670
 5927SOL    HW118601   5.219   0.817   1.665
 5927SOL    HW218602   5.371   0.826   1.605
 5928SOL     OW18603   4.737   0.105   1.770
 5928SOL    HW118604   4.743   0.190   1.718
 5928SOL    HW218605   4.769   0.029   1.713
 5929SOL     OW18606   4.228   0.050   1.740
 5929SOL    HW118607   4.186  -0.007   1.670
 5929SOL    HW218608   4.162   0.119   1.772
 5930SOL     OW18609   4.297   0.870   1.029
 5930SOL    HW118610   4.341   0.959   1.020
 5930SOL    HW218611   4.234   0.870   1.106
 5931SOL     OW18612   5.084   0.862   1.045
 5931SOL    HW118613   5.009   0.862   0.979
 5931SOL    HW218614   5.121   0.770   1.054
 5932SOL     OW18615   4.933   0.525   0.275
 5932SOL    HW118616   4.946   0.441   0.329
 5932SOL    HW218617   4.904   0.599   0.335
 5933SOL     OW18618   4.031   0.213   1.231
 5933SOL    HW118619   4.008   0.250   1.321
 5933SOL    HW218620   4.001   0.118   1.225
 5934SOL     OW18621   3.761   1.310   1.282
 5934SOL    HW118622   3.814   1.261   1.350
 5934SOL    HW218623   3.783   1.408   1.287
 5935SOL     OW18624   4.456   0.634   1.064
 5935SOL    HW118625   4.515   0.608   0.988
 5935SOL    HW218626   4.428   0.730   1.053
 5936SOL     OW18627   5.452   0.935   1.854
 5936SOL    HW118628   5.406   0.928   1.765
 5936SOL    HW218629   5.390   0.979   1.920
 5937SOL     OW18630   4.031   0.063   0.618
 5937SOL    HW118631   4.020   0.157   0.651
 5937SOL    HW218632   4.026   0.000   0.695
 5938SOL     OW18633   5.346   0.367   0.374
 5938SOL    HW118634   5.348   0.291   0.438
 5938SOL    HW218635   5.298   0.444   0.414
 5939SOL     OW18636   4.747   0.766   0.966
 5939SOL    HW118637   4.762   0.787   1.062
 5939SOL    HW218638   4.717   0.671   0.957
 5940SOL     OW18639   4.704   1.573   1.700
 5940SOL    HW118640   4.684   1.617   1.612
 5940SOL    HW218641   4.743   1.482   1.684
 5941SOL     OW18642   5.583   1.518   1.605
 5941SOL    HW118643   5.597   1.545   1.510
 5941SOL    HW218644   5.666   1.540   1.658
 5942SOL     OW18645   4.074   0.898   1.804
 5942SOL    HW118646   4.150   0.942   1.852
 5942SOL    HW218647   4.109   0.851   1.722
 5943SOL     OW18648   5.264   0.274   0.125
 5943SOL    HW118649   5.203   0.199   0.148
 5943SOL    HW218650   5.286   0.326   0.208
 5944SOL     OW18651   5.027   0.838   0.042
 5944SOL    HW118652   5.061   0.745   0.057
 5944SOL    HW218653   5.045   0.865  -0.053
 5945SOL     OW18654   4.792   1.333   0.849
 5945SOL    HW118655   4.799   1.249   0.794
 5945SOL    HW218656   4.854   1.402   0.813
 5946SOL     OW18657   4.043   0.810   0.949
 5946SOL    HW118658   4.136   0.846   0.954
 5946SOL    HW218659   4.037   0.725   1.001
 5947SOL     OW18660   4.063   0.509   1.006
 5947SOL    HW118661   4.011   0.426   0.989
 5947SOL    HW218662   4.140   0.514   0.942
 5948SOL     OW18663   4.862   0.380   1.678
 5948SOL    HW118664   4.817   0.443   1.742
 5948SOL    HW218665   4.955   0.411   1.661
 5949SOL     OW18666   4.884   0.207   1.477
 5949SOL    HW118667   4.884   0.271   1.554
 5949SOL    HW218668   4.912   0.255   1.394
 5950SOL     OW18669   3.812   1.801   0.927
 5950SOL    HW118670   3.770   1.715   0.900
 5950SOL    HW218671   3.906   1.804   0.893
 5951SOL     OW18672   4.228   1.568   0.910
 5951SOL    HW118673   4.294   1.642   0.919
 5951SOL    HW218674   4.272   1.489   0.868
 5952SOL     OW18675   4.726   0.796   1.238
 5952SOL    HW118676   4.767   0.764   1.324
 5952SOL    HW218677   4.630   0.769   1.235
 5953SOL     OW18678   3.764   0.544   1.114
 5953SOL    HW118679   3.849   0.511   1.073
 5953SOL    HW218680   3.777   0.559   1.212
 5954SOL     OW18681   3.913   0.520   1.722
 5954SOL    HW118682   3.972   0.480   1.652
 5954SOL    HW218683   3.855   0.591   1.681
 5955SOL     OW18684   5.093   0.950   1.660
 5955SOL    HW118685   5.132   1.039   1.680
 5955SOL    HW218686   5.103   0.930   1.563
 5956SOL     OW18687   4.539   0.572   0.325
 5956SOL    HW118688   4.546   0.483   0.279
 5956SOL    HW218689   4.445   0.606   0.317
 5957SOL     OW18690   5.381   0.604   1.206
 5957SOL    HW118691   5.343   0.535   1.268
 5957SOL    HW218692   5.463   0.568   1.162
 5958SOL     OW18693   3.976   1.564   1.744
 5958SOL    HW118694   3.946   1.621   1.820
 5958SOL    HW218695   3.969   1.467   1.770
 5959SOL     OW18696   4.395   0.464   1.269
 5959SOL    HW118697   4.361   0.375   1.239
 5959SOL    HW218698   4.421   0.518   1.189
 5960SOL     OW18699   4.654   1.678   1.465
 5960SOL    HW118700   4.630   1.660   1.370
 5960SOL    HW218701   4.684   1.772   1.475
 5961SOL     OW18702   4.197   0.500   0.191
 5961SOL    HW118703   4.258   0.580   0.195
 5961SOL    HW218704   4.102   0.531   0.198
 5962SOL     OW18705   3.883   1.137   1.466
 5962SOL    HW118706   3.905   1.076   1.542
 5962SOL    HW218707   3.893   1.088   1.380
 5963SOL     OW18708   5.071   1.059   1.234
 5963SOL    HW118709   5.095   0.996   1.160
 5963SOL    HW218710   4.981   1.099   1.216
 5964SOL     OW18711   5.026   0.855   0.309
 5964SOL    HW118712   4.940   0.824   0.351
 5964SOL    HW218713   5.022   0.841   0.210
 5965SOL     OW18714   5.483   1.747   1.154
 5965SOL    HW118715   5.544   1.777   1.081
 5965SOL    HW218716   5.445   1.658   1.132
 5966SOL     OW18717   4.976   1.731   1.128
 5966SOL    HW118718   5.060   1.736   1.074
 5966SOL    HW218719   4.953   1.635   1.146
 5967SOL     OW18720   3.807   1.258   1.022
 5967SOL    HW118721   3.802   1.257   1.122
 5967SOL    HW218722   3.724   1.217   0.984
 5968SOL     OW18723   4.412   1.662   1.716
 5968SOL    HW118724   4.356   1.743   1.725
 5968SOL    HW218725   4.464   1.666   1.630
 5969SOL     OW18726   4.627   0.086   0.133
 5969SOL    HW118727   4.678   0.087   0.047
 5969SOL    HW218728   4.683   0.044   0.204
 5970SOL     OW18729   5.450   0.135   0.523
 5970SOL    HW118730   5.523   0.118   0.456
 5970SOL    HW218731   5.419   0.048   0.561
 5971SOL     OW18732   5.112   1.573   0.477
 5971SOL    HW118733   5.179   1.585   0.403
 5971SOL    HW218734   5.072   1.662   0.500
 5972SOL     OW18735   3.854   1.794   1.851
 5972SOL    HW118736   3.813   1.720   1.904
 5972SOL    HW218737   3.918   1.845   1.909
 5973SOL     OW18738   5.004   0.927   0.672
 5973SOL    HW118739   5.064   0.846   0.674
 5973SOL    HW218740   5.044   0.996   0.612
 5974SOL     OW18741   4.554   1.273   1.422
 5974SOL    HW118742   4.549   1.306   1.517
 5974SOL    HW218743   4.468   1.292   1.376
 5975SOL     OW18744   4.396   1.616   0.154
 5975SOL    HW118745   4.405   1.626   0.055
 5975SOL    HW218746   4.356   1.527   0.175
 5976SOL     OW18747   5.374   1.720   1.394
 5976SOL    HW118748   5.427   1.730   1.310
 5976SOL    HW218749   5.347   1.810   1.428
 5977SOL     OW18750   5.565   0.175   0.963
 5977SOL    HW118751   5.604   0.090   0.927
 5977SOL    HW218752   5.467   0.177   0.944
 5978SOL     OW18753   3.987   0.326   0.720
 5978SOL    HW118754   3.908   0.377   0.686
 5978SOL    HW218755   3.978   0.311   0.818
 5979SOL     OW18756   4.918   1.612   0.031
 5979SOL    HW118757   4.924   1.519   0.068
 5979SOL    HW218758   4.859   1.612  -0.049
 5980SOL     OW18759   4.546   1.002   1.372
 5980SOL    HW118760   4.586   1.001   1.280
 5980SOL    HW218761   4.556   1.094   1.412
 5981SOL     OW18762   4.640   0.910   0.291
 5981SOL    HW118763   4.703   0.948   0.223
 5981SOL    HW218764   4.680   0.827   0.330
 5982SOL     OW18765   5.228   1.607   0.044
 5982SOL    HW118766   5.136   1.644   0.051
 5982SOL    HW218767   5.266   1.627  -0.046
 5983SOL     OW18768   4.096   1.288   1.490
 5983SOL    HW118769   4.083   1.381   1.456
 5983SOL    HW218770   4.012   1.236   1.477
 5984SOL     OW18771   5.338   1.292   1.289
 5984SOL    HW118772   5.398   1.295   1.369
 5984SOL    HW218773   5.263   1.356   1.302
 5985SOL     OW18774   4.763   1.098   0.696
 5985SOL    HW118775   4.693   1.051   0.750
 5985SOL    HW218776   4.822   1.030   0.653
 5986SOL     OW18777   4.738   0.236   0.971
 5986SOL    HW118778   4.730   0.200   0.878
 5986SOL    HW218779   4.736   0.160   1.036
 5987SOL     OW18780   4.314   1.487   0.491
 5987SOL    HW118781   4.356   1.429   0.421
 5987SOL    HW218782   4.270   1.566   0.447
 5988SOL     OW18783   5.433   0.385   1.381
 5988SOL    HW118784   5.506   0.454   1.385
 5988SOL    HW218785   5.461   0.310   1.322
 5989SOL     OW18786   3.979   1.348   0.290
 5989SOL    HW118787   3.883   1.349   0.263
 5989SOL    HW218788   3.991   1.401   0.374
 5990SOL     OW18789   3.829   1.013   1.726
 5990SOL    HW118790   3.752   0.980   1.780
 5990SOL    HW218791   3.914   0.983   1.768
 5991SOL     OW18792   4.396   0.203   1.489
 5991SOL    HW118793   4.486   0.187   1.449
 5991SOL    HW218794   4.404   0.208   1.588
 5992SOL     OW18795   3.799   0.345   0.033
 5992SOL    HW118796   3.707   0.317   0.004
 5992SOL    HW218797   3.830   0.422  -0.023
 5993SOL     OW18798   5.164   0.856   1.398
 5993SOL    HW118799   5.107   0.908   1.335
 5993SOL    HW218800   5.260   0.868   1.374
 5994SOL     OW18801   3.796   0.166   0.318
 5994SOL    HW118802   3.779   0.249   0.264
 5994SOL    HW218803   3.886   0.129   0.296
 5995SOL     OW18804   4.907   1.335   0.119
 5995SOL    HW118805   4.808   1.324   0.121
 5995SOL    HW218806   4.941   1.350   0.212
 5996SOL     OW18807   4.337   0.842   1.431
 5996SOL    HW118808   4.393   0.923   1.414
 5996SOL    HW218809   4.396   0.762   1.434
 5997SOL     OW18810   5.217   1.767   0.959
 5997SOL    HW118811   5.250   1.831   0.890
 5997SOL    HW218812   5.283   1.761   1.034
 5998SOL     OW18813   4.440   0.565   1.708
 5998SOL    HW118814   4.459   0.630   1.782
 5998SOL    HW218815   4.500   0.485   1.717
 5999SOL     OW18816   5.174   1.220   1.633
 5999SOL    HW118817   5.165   1.210   1.732
 5999SOL    HW218818   5.270   1.213   1.607
 6000SOL     OW18819   4.114   1.741   1.560
 6000SOL    HW118820   4.023   1.782   1.558
 6000SOL    HW218821   4.107   1.647   1.592
 6001SOL     OW18822   5.398   0.883   1.254
 6001SOL    HW118823   5.371   0.794   1.217
 6001SOL    HW218824   5.399   0.951   1.181
 6002SOL     OW18825   4.949   0.325   0.449
 6002SOL    HW118826   5.014   0.251   0.438
 6002SOL    HW218827   4.969   0.375   0.533
 6003SOL     OW18828   4.318   0.745   0.652
 6003SOL    HW118829   4.368   0.830   0.633
 6003SOL    HW218830   4.230   0.747   0.604
 6004SOL     OW18831   5.501   0.342   1.642
 6004SOL    HW118832   5.484   0.373   1.548
 6004SOL    HW218833   5.417   0.305   1.680
 6005SOL     OW18834   5.454   0.934   1.517
 6005SOL    HW118835   5.492   1.025   1.532
 6005SOL    HW218836   5.446   0.917   1.418
 6006SOL     OW18837   4.583   1.374   0.016
 6006SOL    HW118838   4.537   1.389   0.104
 6006SOL    HW218839   4.627   1.459  -0.014
 6007SOL     OW18840   4.385   1.790   0.953
 6007SOL    HW118841   4.339   1.878   0.940
 6007SOL    HW218842   4.484   1.802   0.946
 6008SOL     OW18843   4.583   0.956   0.861
 6008SOL    HW118844   4.637   0.887   0.909
 6008SOL    HW218845   4.551   1.025   0.927
 6009SOL     OW18846   4.807   0.984   0.087
 6009SOL    HW118847   4.784   1.037   0.005
 6009SOL    HW218848   4.888   0.928   0.068
 6010SOL     OW18849   5.585   1.569   0.851
 6010SOL    HW118850   5.514   1.557   0.781
 6010SOL    HW218851   5.586   1.490   0.911
 6011SOL     OW18852   3.945   1.314   1.844
 6011SOL    HW118853   3.880   1.241   1.823
 6011SOL    HW218854   3.949   1.328   1.942
 6012SOL     OW18855   3.803   1.240   0.653
 6012SOL    HW118856   3.802   1.193   0.741
 6012SOL    HW218857   3.885   1.212   0.602
 6013SOL     OW18858   4.396   1.391   1.624
 6013SOL    HW118859   4.318   1.341   1.662
 6013SOL    HW218860   4.393   1.486   1.655
 6014SOL     OW18861   5.548   0.192   1.227
 6014SOL    HW118862   5.544   0.102   1.271
 6014SOL    HW218863   5.551   0.181   1.128
 6015SOL     OW18864   4.152   0.424   0.520
 6015SOL    HW118865   4.182   0.352   0.458
 6015SOL    HW218866   4.113   0.384   0.603
 6016SOL     OW18867   5.429   1.487   1.104
 6016SOL    HW118868   5.336   1.462   1.077
 6016SOL    HW218869   5.455   1.437   1.186
 6017SOL     OW18870   4.041   0.547   1.280
 6017SOL    HW118871   4.079   0.488   1.352
 6017SOL    HW218872   4.081   0.521   1.192
 6018SOL     OW18873   4.536   1.586   0.687
 6018SOL    HW118874   4.568   1.596   0.593
 6018SOL    HW218875   4.457   1.524   0.689
 6019SOL     OW18876   5.148   0.214   1.112
 6019SOL    HW118877   5.200   0.149   1.167
 6019SOL    HW218878   5.099   0.277   1.173
 6020SOL     OW18879   4.725   0.034   1.154
 6020SOL    HW118880   4.662  -0.038   1.123
 6020SOL    HW218881   4.818  -0.002   1.154
 6021SOL     OW18882   4.494   1.330   0.301
 6021SOL    HW118883   4.448   1.243   0.318
 6021SOL    HW218884   4.585   1.327   0.342
 6022SOL     OW18885   4.342   1.567   1.284
 6022SOL    HW118886   4.337   1.649   1.341
 6022SOL    HW218887   4.431   1.564   1.239
 6023SOL     OW18888   5.076   0.052   0.168
 6023SOL    HW118889   5.111   0.011   0.084
 6023SOL    HW218890   4.986   0.014   0.188
 6024SOL     OW18891   5.024   0.453   0.691
 6024SOL    HW118892   4.965   0.533   0.695
 6024SOL    HW218893   5.039   0.418   0.784
 6025SOL     OW18894   5.317   0.221   0.882
 6025SOL    HW118895   5.233   0.220   0.936
 6025SOL    HW218896   5.319   0.304   0.826
 6026SOL     OW18897   3.763   1.077   0.300
 6026SOL    HW118898   3.862   1.066   0.291
 6026SOL    HW218899   3.723   0.991   0.332
 6027SOL     OW18900   4.599   1.646   0.337
 6027SOL    HW118901   4.522   1.611   0.283
 6027SOL    HW218902   4.567   1.717   0.399
 6028SOL     OW18903   3.954   0.628   1.975
 6028SOL    HW118904   3.861   0.626   2.012
 6028SOL    HW218905   3.955   0.589   1.883
 6029SOL     OW18906   3.949   0.275   2.858
 6029SOL    HW118907   3.984   0.258   2.950
 6029SOL    HW218908   3.861   0.230   2.846
 6030SOL     OW18909   3.743   0.368   2.509
 6030SOL    HW118910   3.661   0.411   2.548
 6030SOL    HW218911   3.715   0.295   2.446
 6031SOL     OW18912   4.293   1.275   3.027
 6031SOL    HW118913   4.200   1.268   2.990
 6031SOL    HW218914   4.304   1.364   3.071
 6032SOL     OW18915   5.279   1.511   2.565
 6032SOL    HW118916   5.222   1.495   2.646
 6032SOL    HW218917   5.220   1.521   2.485
 6033SOL     OW18918   4.859   0.703   2.579
 6033SOL    HW118919   4.916   0.781   2.554
 6033SOL    HW218920   4.799   0.729   2.655
 6034SOL     OW18921   5.479   0.607   2.093
 6034SOL    HW118922   5.467   0.594   1.994
 6034SOL    HW218923   5.449   0.526   2.142
 6035SOL     OW18924   4.492   1.144   2.885
 6035SOL    HW118925   4.414   1.161   2.945
 6035SOL    HW218926   4.526   1.231   2.849
 6036SOL     OW18927   4.574   0.798   3.685
 6036SOL    HW118928   4.570   0.874   3.750
 6036SOL    HW218929   4.596   0.834   3.594
 6037SOL     OW18930   4.409   1.012   2.527
 6037SOL    HW118931   4.478   0.996   2.597
 6037SOL    HW218932   4.336   1.069   2.565
 6038SOL     OW18933   4.410   1.161   3.665
 6038SOL    HW118934   4.470   1.240   3.679
 6038SOL    HW218935   4.324   1.192   3.624
 6039SOL     OW18936   4.059   1.435   2.923
 6039SOL    HW118937   3.981   1.404   2.870
 6039SOL    HW218938   4.117   1.493   2.866
 6040SOL     OW18939   5.184   1.505   3.201
 6040SOL    HW118940   5.208   1.599   3.227
 6040SOL    HW218941   5.168   1.451   3.283
 6041SOL     OW18942   4.162   0.392   3.361
 6041SOL    HW118943   4.244   0.336   3.370
 6041SOL    HW218944   4.081   0.334   3.365
 6042SOL     OW18945   5.327   0.447   2.599
 6042SOL    HW118946   5.253   0.493   2.549
 6042SOL    HW218947   5.378   0.515   2.652
 6043SOL     OW18948   3.955   1.713   2.345
 6043SOL    HW118949   3.989   1.790   2.399
 6043SOL    HW218950   3.999   1.713   2.255
 6044SOL     OW18951   4.851   1.341   3.552
 6044SOL    HW118952   4.898   1.341   3.640
 6044SOL    HW218953   4.803   1.254   3.541
 6045SOL     OW18954   3.954   1.434   2.400
 6045SOL    HW118955   3.928   1.530   2.400
 6045SOL    HW218956   3.883   1.380   2.445
 6046SOL     OW18957   3.964   1.091   2.748
 6046SOL    HW118958   3.978   1.007   2.800
 6046SOL    HW218959   3.909   1.155   2.803
 6047SOL     OW18960   4.344   1.786   3.301
 6047SOL    HW118961   4.252   1.769   3.336
 6047SOL    HW218962   4.372   1.878   3.327
 6048SOL     OW18963   4.330   0.964   1.985
 6048SOL    HW118964   4.337   1.048   1.931
 6048SOL    HW218965   4.376   0.977   2.073
 6049SOL     OW18966   5.318   0.114   3.342
 6049SOL    HW118967   5.300   0.181   3.270
 6049SOL    HW218968   5.315   0.160   3.431
 6050SOL     OW18969   3.846   0.643   2.425
 6050SOL    HW118970   3.801   0.555   2.442
 6050SOL    HW218971   3.845   0.697   2.509
 6051SOL     OW18972   5.566   1.767   2.221
 6051SOL    HW118973   5.620   1.738   2.301
 6051SOL    HW218974   5.596   1.857   2.192
 6052SOL     OW18975   3.751   1.596   1.979
 6052SOL    HW118976   3.732   1.500   2.000
 6052SOL    HW218977   3.718   1.654   2.054
 6053SOL     OW18978   5.413   0.922   2.474
 6053SOL    HW118979   5.508   0.893   2.482
 6053SOL    HW218980   5.405   0.987   2.399
 6054SOL     OW18981   5.365   1.108   2.294
 6054SOL    HW118982   5.451   1.110   2.242
 6054SOL    HW218983   5.379   1.155   2.382
 6055SOL     OW18984   3.837   0.737   3.459
 6055SOL    HW118985   3.925   0.724   3.504
 6055SOL    HW218986   3.824   0.834   3.437
 6056SOL     OW18987   4.337   1.365   2.588
 6056SOL    HW118988   4.288   1.278   2.597
 6056SOL    HW218989   4.314   1.408   2.501
 6057SOL     OW18990   5.017   1.228   3.285
 6057SOL    HW118991   5.054   1.155   3.227
 6057SOL    HW218992   5.069   1.233   3.370
 6058SOL     OW18993   4.533   0.004   2.364
 6058SOL    HW118994   4.573   0.095   2.355
 6058SOL    HW218995   4.433   0.012   2.370
 6059SOL     OW18996   3.921   0.976   3.126
 6059SOL    HW118997   4.010   0.931   3.112
 6059SOL    HW218998   3.848   0.911   3.107
 6060SOL     OW18999   5.249   0.999   2.052
 6060SOL    HW119000   5.186   0.923   2.065
 6060SOL    HW219001   5.297   1.017   2.138
 6061SOL     OW19002   4.911   1.792   3.478
 6061SOL    HW119003   4.935   1.852   3.402
 6061SOL    HW219004   4.918   1.697   3.448
 6062SOL     OW19005   4.041   0.251   3.663
 6062SOL    HW119006   4.112   0.322   3.669
 6062SOL    HW219007   3.953   0.290   3.691
 6063SOL     OW19008   5.190   1.417   2.815
 6063SOL    HW119009   5.131   1.423   2.895
 6063SOL    HW219010   5.175   1.329   2.769
 6064SOL     OW19011   5.391   1.714   2.434
 6064SOL    HW119012   5.350   1.691   2.346
 6064SOL    HW219013   5.373   1.640   2.499
 6065SOL     OW19014   4.322   0.729   2.132
 6065SOL    HW119015   4.346   0.798   2.064
 6065SOL    HW219016   4.244   0.762   2.186
 6066SOL     OW19017   5.005   0.345   2.806
 6066SOL    HW119018   4.919   0.295   2.793
 6066SOL    HW219019   5.067   0.291   2.862
 6067SOL     OW19020   5.300   1.662   2.169
 6067SOL    HW119021   5.389   1.708   2.172
 6067SOL    HW219022   5.279   1.638   2.074
 6068SOL     OW19023   4.531   0.605   3.327
 6068SOL    HW119024   4.484   0.602   3.416
 6068SOL    HW219025   4.480   0.550   3.261
 6069SOL     OW19026   5.118   0.469   3.536
 6069SOL    HW119027   5.098   0.512   3.624
 6069SOL    HW219028   5.196   0.407   3.545
 6070SOL     OW19029   4.697   0.890   3.434
 6070SOL    HW119030   4.743   0.806   3.405
 6070SOL    HW219031   4.641   0.924   3.359
 6071SOL     OW19032   4.715   0.410   3.104
 6071SOL    HW119033   4.638   0.444   3.158
 6071SOL    HW219034   4.681   0.359   3.025
 6072SOL     OW19035   4.765   0.701   2.291
 6072SOL    HW119036   4.791   0.697   2.387
 6072SOL    HW219037   4.680   0.650   2.277
 6073SOL     OW19038   3.800   0.811   2.651
 6073SOL    HW119039   3.899   0.799   2.660
 6073SOL    HW219040   3.776   0.906   2.672
 6074SOL     OW19041   3.854   1.821   3.433
 6074SOL    HW119042   3.844   1.806   3.532
 6074SOL    HW219043   3.768   1.857   3.397
 6075SOL     OW19044   4.589   0.348   2.057
 6075SOL    HW119045   4.648   0.411   2.008
 6075SOL    HW219046   4.608   0.254   2.028
 6076SOL     OW19047   5.443   0.585   3.693
 6076SOL    HW119048   5.417   0.674   3.657
 6076SOL    HW219049   5.441   0.517   3.620
 6077SOL     OW19050   5.086   1.144   2.407
 6077SOL    HW119051   5.169   1.115   2.359
 6077SOL    HW219052   5.037   1.211   2.351
 6078SOL     OW19053   4.274   0.196   2.747
 6078SOL    HW119054   4.269   0.191   2.847
 6078SOL    HW219055   4.276   0.292   2.718
 6079SOL     OW19056   4.732   1.456   2.339
 6079SOL    HW119057   4.686   1.528   2.287
 6079SOL    HW219058   4.728   1.476   2.437
 6080SOL     OW19059   4.075   1.801   2.715
 6080SOL    HW119060   4.125   1.715   2.721
 6080SOL    HW219061   4.140   1.878   2.712
 6081SOL     OW19062   5.519   1.066   2.735
 6081SOL    HW119063   5.457   1.051   2.659
 6081SOL    HW219064   5.467   1.077   2.820
 6082SOL     OW19065   4.951   1.550   3.368
 6082SOL    HW119066   4.957   1.473   3.432
 6082SOL    HW219067   4.899   1.524   3.288
 6083SOL     OW19068   4.045   0.943   2.104
 6083SOL    HW119069   4.127   0.982   2.062
 6083SOL    HW219070   4.018   0.861   2.055
 6084SOL     OW19071   5.182   0.735   2.590
 6084SOL    HW119072   5.177   0.670   2.665
 6084SOL    HW219073   5.262   0.794   2.603
 6085SOL     OW19074   4.185   1.266   3.589
 6085SOL    HW119075   4.135   1.267   3.503
 6085SOL    HW219076   4.122   1.248   3.665
 6086SOL     OW19077   4.835   1.776   2.099
 6086SOL    HW119078   4.775   1.714   2.149
 6086SOL    HW219079   4.866   1.732   2.014
 6087SOL     OW19080   3.926   0.285   3.360
 6087SOL    HW119081   3.846   0.345   3.347
 6087SOL    HW219082   3.916   0.236   3.446
 6088SOL     OW19083   5.356   1.377   1.943
 6088SOL    HW119084   5.324   1.471   1.933
 6088SOL    HW219085   5.280   1.314   1.931
 6089SOL     OW19086   4.188   1.743   2.185
 6089SOL    HW119087   4.221   1.782   2.271
 6089SOL    HW219088   4.264   1.736   2.120
 6090SOL     OW19089   5.124   0.107   2.288
 6090SOL    HW119090   5.100   0.070   2.198
 6090SOL    HW219091   5.223   0.123   2.292
 6091SOL     OW19092   3.973   1.785   3.103
 6091SOL    HW119093   4.030   1.720   3.153
 6091SOL    HW219094   3.957   1.752   3.010
 6092SOL     OW19095   4.664   1.698   2.766
 6092SOL    HW119096   4.744   1.641   2.787
 6092SOL    HW219097   4.615   1.658   2.689
 6093SOL     OW19098   4.106   0.700   2.342
 6093SOL    HW119099   4.151   0.610   2.339
 6093SOL    HW219100   4.012   0.689   2.375
 6094SOL     OW19101   5.271   0.222   3.591
 6094SOL    HW119102   5.266   0.259   3.683
 6094SOL    HW219103   5.199   0.153   3.579
 6095SOL     OW19104   4.338   0.122   1.979
 6095SOL    HW119105   4.436   0.100   1.986
 6095SOL    HW219106   4.307   0.105   1.886
 6096SOL     OW19107   4.505   0.264   3.611
 6096SOL    HW119108   4.572   0.203   3.654
 6096SOL    HW219109   4.432   0.283   3.676
 6097SOL     OW19110   4.612   1.514   3.057
 6097SOL    HW119111   4.589   1.489   2.963
 6097SOL    HW219112   4.673   1.445   3.096
 6098SOL     OW19113   5.075   0.590   3.295
 6098SOL    HW119114   5.103   0.547   3.380
 6098SOL    HW219115   5.100   0.686   3.296
 6099SOL     OW19116   4.527   1.402   2.786
 6099SOL    HW119117   4.617   1.416   2.744
 6099SOL    HW219118   4.456   1.404   2.715
 6100SOL     OW19119   4.646   0.503   2.761
 6100SOL    HW119120   4.621   0.494   2.665
 6100SOL    HW219121   4.694   0.421   2.792
 6101SOL     OW19122   4.263   0.064   2.374
 6101SOL    HW119123   4.182   0.065   2.432
 6101SOL    HW219124   4.266   0.147   2.319
 6102SOL     OW19125   5.158   1.188   1.903
 6102SOL    HW119126   5.190   1.112   1.960
 6102SOL    HW219127   5.066   1.215   1.933
 6103SOL     OW19128   4.021   0.035   2.033
 6103SOL    HW119129   4.070   0.119   2.012
 6103SOL    HW219130   4.083  -0.030   2.078
 6104SOL     OW19131   4.659   0.236   2.342
 6104SOL    HW119132   4.611   0.277   2.264
 6104SOL    HW219133   4.758   0.234   2.323
 6105SOL     OW19134   4.800   0.683   3.326
 6105SOL    HW119135   4.720   0.622   3.329
 6105SOL    HW219136   4.881   0.630   3.302
 6106SOL     OW19137   4.951   1.570   2.655
 6106SOL    HW119138   4.972   1.644   2.590
 6106SOL    HW219139   5.019   1.570   2.728
 6107SOL     OW19140   4.183   1.152   2.603
 6107SOL    HW119141   4.112   1.125   2.668
 6107SOL    HW219142   4.157   1.124   2.510
 6108SOL     OW19143   4.995   1.797   2.453
 6108SOL    HW119144   5.039   1.861   2.389
 6108SOL    HW219145   4.945   1.849   2.523
 6109SOL     OW19146   4.756   0.549   1.878
 6109SOL    HW119147   4.715   0.631   1.839
 6109SOL    HW219148   4.820   0.575   1.951
 6110SOL     OW19149   3.802   0.556   3.248
 6110SOL    HW119150   3.894   0.555   3.207
 6110SOL    HW219151   3.796   0.630   3.315
 6111SOL     OW19152   4.285   0.222   3.009
 6111SOL    HW119153   4.323   0.138   3.046
 6111SOL    HW219154   4.197   0.241   3.053
 6112SOL     OW19155   4.590   0.454   2.504
 6112SOL    HW119156   4.558   0.526   2.442
 6112SOL    HW219157   4.614   0.373   2.451
 6113SOL     OW19158   4.741   0.039   2.615
 6113SOL    HW119159   4.669   0.044   2.546
 6113SOL    HW219160   4.717  -0.030   2.684
 6114SOL     OW19161   5.153   1.173   2.729
 6114SOL    HW119162   5.098   1.089   2.722
 6114SOL    HW219163   5.179   1.202   2.637
 6115SOL     OW19164   5.190   0.590   2.854
 6115SOL    HW119165   5.160   0.495   2.861
 6115SOL    HW219166   5.263   0.606   2.920
 6116SOL     OW19167   5.581   0.833   2.239
 6116SOL    HW119168   5.623   0.769   2.303
 6116SOL    HW219169   5.543   0.782   2.161
 6117SOL     OW19170   4.212   1.385   2.036
 6117SOL    HW119171   4.125   1.370   2.083
 6117SOL    HW219172   4.195   1.411   1.941
 6118SOL     OW19173   5.388   1.280   2.519
 6118SOL    HW119174   5.487   1.288   2.533
 6118SOL    HW219175   5.343   1.364   2.550
 6119SOL     OW19176   5.114   0.575   1.940
 6119SOL    HW119177   5.060   0.554   2.021
 6119SOL    HW219178   5.205   0.534   1.949
 6120SOL     OW19179   4.251   0.256   2.190
 6120SOL    HW119180   4.278   0.197   2.115
 6120SOL    HW219181   4.251   0.351   2.159
 6121SOL     OW19182   5.478   1.223   3.450
 6121SOL    HW119183   5.569   1.184   3.437
 6121SOL    HW219184   5.486   1.319   3.474
 6122SOL     OW19185   4.788   1.347   3.202
 6122SOL    HW119186   4.708   1.324   3.257
 6122SOL    HW219187   4.871   1.321   3.251
 6123SOL     OW19188   5.316   1.629   3.487
 6123SOL    HW119189   5.343   1.663   3.397
 6123SOL    HW219190   5.395   1.591   3.533
 6124SOL     OW19191   4.835   1.195   2.962
 6124SOL    HW119192   4.795   1.239   3.043
 6124SOL    HW219193   4.794   1.232   2.879
 6125SOL     OW19194   5.362   1.099   2.941
 6125SOL    HW119195   5.367   1.180   3.000
 6125SOL    HW219196   5.276   1.101   2.890
 6126SOL     OW19197   4.639   0.089   3.264
 6126SOL    HW119198   4.664   0.069   3.169
 6126SOL    HW219199   4.711   0.145   3.306
 6127SOL     OW19200   4.704   1.116   3.581
 6127SOL    HW119201   4.605   1.122   3.591
 6127SOL    HW219202   4.727   1.036   3.525
 6128SOL     OW19203   4.429   1.050   2.230
 6128SOL    HW119204   4.415   1.057   2.329
 6128SOL    HW219205   4.513   0.999   2.212
 6129SOL     OW19206   4.134   0.813   3.113
 6129SOL    HW119207   4.220   0.825   3.163
 6129SOL    HW219208   4.092   0.726   3.140
 6130SOL     OW19209   4.998   0.386   3.124
 6130SOL    HW119210   5.019   0.460   3.188
 6130SOL    HW219211   4.909   0.403   3.081
 6131SOL     OW19212   3.788   1.564   3.193
 6131SOL    HW119213   3.742   1.646   3.159
 6131SOL    HW219214   3.886   1.583   3.202
 6132SOL     OW19215   4.091   1.100   2.363
 6132SOL    HW119216   4.084   1.183   2.307
 6132SOL    HW219217   4.095   1.020   2.303
 6133SOL     OW19218   4.290   0.537   2.727
 6133SOL    HW119219   4.302   0.603   2.653
 6133SOL    HW219220   4.336   0.571   2.810
 6134SOL     OW19221   4.976   1.348   2.250
 6134SOL    HW119222   5.026   1.425   2.290
 6134SOL    HW219223   4.881   1.350   2.282
 6135SOL     OW19224   4.996   1.445   3.004
 6135SOL    HW119225   5.043   1.458   3.091
 6135SOL    HW219226   4.930   1.371   3.013
 6136SOL     OW19227   5.306   0.639   2.334
 6136SOL    HW119228   5.275   0.700   2.407
 6136SOL    HW219229   5.356   0.691   2.265
 6137SOL     OW19230   4.078   1.510   3.191
 6137SOL    HW119231   4.057   1.466   3.104
 6137SOL    HW219232   4.175   1.536   3.194
 6138SOL     OW19233   4.126   0.751   3.460
 6138SOL    HW119234   4.194   0.806   3.413
 6138SOL    HW219235   4.166   0.663   3.487
 6139SOL     OW19236   5.311   0.779   3.532
 6139SOL    HW119237   5.219   0.817   3.527
 6139SOL    HW219238   5.371   0.826   3.467
 6140SOL     OW19239   4.737   0.105   3.632
 6140SOL    HW119240   4.743   0.190   3.580
 6140SOL    HW219241   4.769   0.029   3.575
 6141SOL     OW19242   4.228   0.050   3.602
 6141SOL    HW119243   4.186  -0.007   3.532
 6141SOL    HW219244   4.162   0.119   3.634
 6142SOL     OW19245   4.297   0.870   2.891
 6142SOL    HW119246   4.341   0.959   2.882
 6142SOL    HW219247   4.234   0.870   2.968
 6143SOL     OW19248   5.084   0.862   2.907
 6143SOL    HW119249   5.009   0.862   2.841
 6143SOL    HW219250   5.121   0.770   2.916
 6144SOL     OW19251   4.933   0.525   2.137
 6144SOL    HW119252   4.946   0.441   2.191
 6144SOL    HW219253   4.904   0.599   2.197
 6145SOL     OW19254   4.031   0.213   3.093
 6145SOL    HW119255   4.008   0.250   3.183
 6145SOL    HW219256   4.001   0.118   3.087
 6146SOL     OW19257   3.761   1.310   3.144
 6146SOL    HW119258   3.814   1.261   3.212
 6146SOL    HW219259   3.783   1.408   3.149
 6147SOL     OW19260   4.456   0.634   2.926
 6147SOL    HW119261   4.515   0.608   2.850
 6147SOL    HW219262   4.428   0.730   2.915
 6148SOL     OW19263   5.452   0.935   3.716
 6148SOL    HW119264   5.406   0.928   3.627
 6148SOL    HW219265   5.390   0.979   3.782
 6149SOL     OW19266   4.031   0.063   2.480
 6149SOL    HW119267   4.020   0.157   2.513
 6149SOL    HW219268   4.026   0.000   2.557
 6150SOL     OW19269   5.346   0.367   2.236
 6150SOL    HW119270   5.348   0.291   2.300
 6150SOL    HW219271   5.298   0.444   2.276
 6151SOL     OW19272   4.747   0.766   2.828
 6151SOL    HW119273   4.762   0.787   2.924
 6151SOL    HW219274   4.717   0.671   2.819
 6152SOL     OW19275   4.704   1.573   3.562
 6152SOL    HW119276   4.684   1.617   3.474
 6152SOL    HW219277   4.743   1.482   3.546
 6153SOL     OW19278   5.583   1.518   3.467
 6153SOL    HW119279   5.597   1.545   3.372
 6153SOL    HW219280   5.666   1.540   3.520
 6154SOL     OW19281   4.074   0.898   3.666
 6154SOL    HW119282   4.150   0.942   3.714
 6154SOL    HW219283   4.109   0.851   3.584
 6155SOL     OW19284   5.264   0.274   1.987
 6155SOL    HW119285   5.203   0.199   2.010
 6155SOL    HW219286   5.286   0.326   2.070
 6156SOL     OW19287   5.027   0.838   1.904
 6156SOL    HW119288   5.061   0.745   1.919
 6156SOL    HW219289   5.045   0.865   1.809
 6157SOL     OW19290   4.792   1.333   2.711
 6157SOL    HW119291   4.799   1.249   2.656
 6157SOL    HW219292   4.854   1.402   2.675
 6158SOL     OW19293   4.043   0.810   2.811
 6158SOL    HW119294   4.136   0.846   2.816
 6158SOL    HW219295   4.037   0.725   2.863
 6159SOL     OW19296   4.063   0.509   2.868
 6159SOL    HW119297   4.011   0.426   2.851
 6159SOL    HW219298   4.140   0.514   2.804
 6160SOL     OW19299   4.862   0.380   3.540
 6160SOL    HW119300   4.817   0.443   3.604
 6160SOL    HW219301   4.955   0.411   3.523
 6161SOL     OW19302   4.884   0.207   3.339
 6161SOL    HW119303   4.884   0.271   3.416
 6161SOL    HW219304   4.912   0.255   3.256
 6162SOL     OW19305   3.732   1.326   2.062
 6162SOL    HW119306   3.639   1.347   2.031
 6162SOL    HW219307   3.742   1.227   2.075
 6163SOL     OW19308   3.812   1.801   2.789
 6163SOL    HW119309   3.770   1.715   2.762
 6163SOL    HW219310   3.906   1.804   2.755
 6164SOL     OW19311   4.228   1.568   2.772
 6164SOL    HW119312   4.294   1.642   2.781
 6164SOL    HW219313   4.272   1.489   2.730
 6165SOL     OW19314   4.726   0.796   3.100
 6165SOL    HW119315   4.767   0.764   3.186
 6165SOL    HW219316   4.630   0.769   3.097
 6166SOL     OW19317   3.764   0.544   2.976
 6166SOL    HW119318   3.849   0.511   2.935
 6166SOL    HW219319   3.777   0.559   3.074
 6167SOL     OW19320   3.913   0.520   3.584
 6167SOL    HW119321   3.972   0.480   3.514
 6167SOL    HW219322   3.855   0.591   3.543
 6168SOL     OW19323   5.093   0.950   3.522
 6168SOL    HW119324   5.132   1.039   3.542
 6168SOL    HW219325   5.103   0.930   3.425
 6169SOL     OW19326   4.539   0.572   2.187
 6169SOL    HW119327   4.546   0.483   2.141
 6169SOL    HW219328   4.445   0.606   2.179
 6170SOL     OW19329   5.381   0.604   3.068
 6170SOL    HW119330   5.343   0.535   3.130
 6170SOL    HW219331   5.463   0.568   3.024
 6171SOL     OW19332   3.976   1.564   3.606
 6171SOL    HW119333   3.946   1.621   3.682
 6171SOL    HW219334   3.969   1.467   3.632
 6172SOL     OW19335   4.395   0.464   3.131
 6172SOL    HW119336   4.361   0.375   3.101
 6172SOL    HW219337   4.421   0.518   3.051
 6173SOL     OW19338   4.654   1.678   3.327
 6173SOL    HW119339   4.630   1.660   3.232
 6173SOL    HW219340   4.684   1.772   3.337
 6174SOL     OW19341   4.197   0.500   2.053
 6174SOL    HW119342   4.258   0.580   2.057
 6174SOL    HW219343   4.102   0.531   2.060
 6175SOL     OW19344   3.883   1.137   3.328
 6175SOL    HW119345   3.905   1.076   3.404
 6175SOL    HW219346   3.893   1.088   3.242
 6176SOL     OW19347   5.071   1.059   3.096
 6176SOL    HW119348   5.095   0.996   3.022
 6176SOL    HW219349   4.981   1.099   3.078
 6177SOL     OW19350   5.026   0.855   2.171
 6177SOL    HW119351   4.940   0.824   2.213
 6177SOL    HW219352   5.022   0.841   2.072
 6178SOL     OW19353   5.483   1.747   3.016
 6178SOL    HW119354   5.544   1.777   2.943
 6178SOL    HW219355   5.445   1.658   2.994
 6179SOL     OW19356   4.976   1.731   2.990
 6179SOL    HW119357   5.060   1.736   2.936
 6179SOL    HW219358   4.953   1.635   3.008
 6180SOL     OW19359   3.807   1.258   2.884
 6180SOL    HW119360   3.802   1.257   2.984
 6180SOL    HW219361   3.724   1.217   2.846
 6181SOL     OW19362   4.412   1.662   3.578
 6181SOL    HW119363   4.356   1.743   3.587
 6181SOL    HW219364   4.464   1.666   3.492
 6182SOL     OW19365   5.450   0.135   2.385
 6182SOL    HW119366   5.523   0.118   2.318
 6182SOL    HW219367   5.419   0.048   2.423
 6183SOL     OW19368   5.112   1.573   2.339
 6183SOL    HW119369   5.179   1.585   2.265
 6183SOL    HW219370   5.072   1.662   2.362
 6184SOL     OW19371   3.854   1.794   3.713
 6184SOL    HW119372   3.813   1.720   3.766
 6184SOL    HW219373   3.918   1.845   3.771
 6185SOL     OW19374   5.004   0.927   2.534
 6185SOL    HW119375   5.064   0.846   2.536
 6185SOL    HW219376   5.044   0.996   2.474
 6186SOL     OW19377   4.554   1.273   3.284
 6186SOL    HW119378   4.549   1.306   3.379
 6186SOL    HW219379   4.468   1.292   3.238
 6187SOL     OW19380   4.396   1.616   2.016
 6187SOL    HW119381   4.405   1.626   1.917
 6187SOL    HW219382   4.356   1.527   2.037
 6188SOL     OW19383   5.374   1.720   3.256
 6188SOL    HW119384   5.427   1.730   3.172
 6188SOL    HW219385   5.347   1.810   3.290
 6189SOL     OW19386   5.565   0.175   2.825
 6189SOL    HW119387   5.604   0.090   2.789
 6189SOL    HW219388   5.467   0.177   2.806
 6190SOL     OW19389   3.987   0.326   2.582
 6190SOL    HW119390   3.908   0.377   2.548
 6190SOL    HW219391   3.978   0.311   2.680
 6191SOL     OW19392   4.918   1.612   1.893
 6191SOL    HW119393   4.924   1.519   1.930
 6191SOL    HW219394   4.859   1.612   1.813
 6192SOL     OW19395   4.546   1.002   3.234
 6192SOL    HW119396   4.586   1.001   3.142
 6192SOL    HW219397   4.556   1.094   3.274
 6193SOL     OW19398   4.640   0.910   2.153
 6193SOL    HW119399   4.703   0.948   2.085
 6193SOL    HW219400   4.680   0.827   2.192
 6194SOL     OW19401   5.228   1.607   1.906
 6194SOL    HW119402   5.136   1.644   1.913
 6194SOL    HW219403   5.266   1.627   1.816
 6195SOL     OW19404   4.096   1.288   3.352
 6195SOL    HW119405   4.083   1.381   3.318
 6195SOL    HW219406   4.012   1.236   3.339
 6196SOL     OW19407   5.338   1.292   3.151
 6196SOL    HW119408   5.398   1.295   3.231
 6196SOL    HW219409   5.263   1.356   3.164
 6197SOL     OW19410   4.763   1.098   2.558
 6197SOL    HW119411   4.693   1.051   2.612
 6197SOL    HW219412   4.822   1.030   2.515
 6198SOL     OW19413   4.738   0.236   2.833
 6198SOL    HW119414   4.730   0.200   2.740
 6198SOL    HW219415   4.736   0.160   2.898
 6199SOL     OW19416   4.314   1.487   2.353
 6199SOL    HW119417   4.356   1.429   2.283
 6199SOL    HW219418   4.270   1.566   2.309
 6200SOL     OW19419   5.433   0.385   3.243
 6200SOL    HW119420   5.506   0.454   3.247
 6200SOL    HW219421   5.461   0.310   3.184
 6201SOL     OW19422   3.979   1.348   2.152
 6201SOL    HW119423   3.883   1.349   2.125
 6201SOL    HW219424   3.991   1.401   2.236
 6202SOL     OW19425   3.829   1.013   3.588
 6202SOL    HW119426   3.752   0.980   3.642
 6202SOL    HW219427   3.914   0.983   3.630
 6203SOL     OW19428   4.396   0.203   3.351
 6203SOL    HW119429   4.486   0.187   3.311
 6203SOL    HW219430   4.404   0.208   3.450
 6204SOL     OW19431   3.799   0.345   1.895
 6204SOL    HW119432   3.707   0.317   1.866
 6204SOL    HW219433   3.830   0.422   1.839
 6205SOL     OW19434   5.164   0.856   3.260
 6205SOL    HW119435   5.107   0.908   3.197
 6205SOL    HW219436   5.260   0.868   3.236
 6206SOL     OW19437   3.796   0.166   2.180
 6206SOL    HW119438   3.779   0.249   2.126
 6206SOL    HW219439   3.886   0.129   2.158
 6207SOL     OW19440   4.907   1.335   1.981
 6207SOL    HW119441   4.808   1.324   1.983
 6207SOL    HW219442   4.941   1.350   2.074
 6208SOL     OW19443   4.337   0.842   3.293
 6208SOL    HW119444   4.393   0.923   3.276
 6208SOL    HW219445   4.396   0.762   3.296
 6209SOL     OW19446   5.217   1.767   2.821
 6209SOL    HW119447   5.250   1.831   2.752
 6209SOL    HW219448   5.283   1.761   2.896
 6210SOL     OW19449   4.440   0.565   3.570
 6210SOL    HW119450   4.459   0.630   3.644
 6210SOL    HW219451   4.500   0.485   3.579
 6211SOL     OW19452   5.174   1.220   3.495
 6211SOL    HW119453   5.165   1.210   3.594
 6211SOL    HW219454   5.270   1.213   3.469
 6212SOL     OW19455   4.114   1.741   3.422
 6212SOL    HW119456   4.023   1.782   3.420
 6212SOL    HW219457   4.107   1.647   3.454
 6213SOL     OW19458   5.398   0.883   3.116
 6213SOL    HW119459   5.371   0.794   3.079
 6213SOL    HW219460   5.399   0.951   3.043
 6214SOL     OW19461   4.949   0.325   2.311
 6214SOL    HW119462   5.014   0.251   2.300
 6214SOL    HW219463   4.969   0.375   2.395
 6215SOL     OW19464   4.318   0.745   2.514
 6215SOL    HW119465   4.368   0.830   2.495
 6215SOL    HW219466   4.230   0.747   2.466
 6216SOL     OW19467   5.501   0.342   3.504
 6216SOL    HW119468   5.484   0.373   3.410
 6216SOL    HW219469   5.417   0.305   3.542
 6217SOL     OW19470   5.454   0.934   3.379
 6217SOL    HW119471   5.492   1.025   3.394
 6217SOL    HW219472   5.446   0.917   3.280
 6218SOL     OW19473   4.583   1.374   1.878
 6218SOL    HW119474   4.537   1.389   1.966
 6218SOL    HW219475   4.627   1.459   1.848
 6219SOL     OW19476   4.385   1.790   2.815
 6219SOL    HW119477   4.339   1.878   2.802
 6219SOL    HW219478   4.484   1.802   2.808
 6220SOL     OW19479   4.583   0.956   2.723
 6220SOL    HW119480   4.637   0.887   2.771
 6220SOL    HW219481   4.551   1.025   2.789
 6221SOL     OW19482   4.807   0.984   1.949
 6221SOL    HW119483   4.784   1.037   1.867
 6221SOL    HW219484   4.888   0.928   1.930
 6222SOL     OW19485   5.585   1.569   2.713
 6222SOL    HW119486   5.514   1.557   2.643
 6222SOL    HW219487   5.586   1.490   2.773
 6223SOL     OW19488   3.945   1.314   3.706
 6223SOL    HW119489   3.880   1.241   3.685
 6223SOL    HW219490   3.949   1.328   3.804
 6224SOL     OW19491   3.803   1.240   2.515
 6224SOL    HW119492   3.802   1.193   2.603
 6224SOL    HW219493   3.885   1.212   2.464
 6225SOL     OW19494   4.396   1.391   3.486
 6225SOL    HW119495   4.318   1.341   3.524
 6225SOL    HW219496   4.393   1.486   3.517
 6226SOL     OW19497   5.548   0.192   3.089
 6226SOL    HW119498   5.544   0.102   3.133
 6226SOL    HW219499   5.551   0.181   2.990
 6227SOL     OW19500   4.152   0.424   2.382
 6227SOL    HW119501   4.182   0.352   2.320
 6227SOL    HW219502   4.113   0.384   2.465
 6228SOL     OW19503   5.429   1.487   2.966
 6228SOL    HW119504   5.336   1.462   2.939
 6228SOL    HW219505   5.455   1.437   3.048
 6229SOL     OW19506   4.041   0.547   3.142
 6229SOL    HW119507   4.079   0.488   3.214
 6229SOL    HW219508   4.081   0.521   3.054
 6230SOL     OW19509   4.536   1.586   2.549
 6230SOL    HW119510   4.568   1.596   2.455
 6230SOL    HW219511   4.457   1.524   2.551
 6231SOL     OW19512   5.148   0.214   2.974
 6231SOL    HW119513   5.200   0.149   3.029
 6231SOL    HW219514   5.099   0.277   3.035
 6232SOL     OW19515   4.725   0.034   3.016
 6232SOL    HW119516   4.662  -0.038   2.985
 6232SOL    HW219517   4.818  -0.002   3.016
 6233SOL     OW19518   4.494   1.330   2.163
 6233SOL    HW119519   4.448   1.243   2.180
 6233SOL    HW219520   4.585   1.327   2.204
 6234SOL     OW19521   4.342   1.567   3.146
 6234SOL    HW119522   4.337   1.649   3.203
 6234SOL    HW219523   4.431   1.564   3.101
 6235SOL     OW19524   5.076   0.052   2.030
 6235SOL    HW119525   5.111   0.011   1.946
 6235SOL    HW219526   4.986   0.014   2.050
 6236SOL     OW19527   5.024   0.453   2.553
 6236SOL    HW119528   4.965   0.533   2.557
 6236SOL    HW219529   5.039   0.418   2.646
 6237SOL     OW19530   5.317   0.221   2.744
 6237SOL    HW119531   5.233   0.220   2.798
 6237SOL    HW219532   5.319   0.304   2.688
 6238SOL     OW19533   3.763   1.077   2.162
 6238SOL    HW119534   3.862   1.066   2.153
 6238SOL    HW219535   3.723   0.991   2.194
 6239SOL     OW19536   4.599   1.646   2.199
 6239SOL    HW119537   4.522   1.611   2.145
 6239SOL    HW219538   4.567   1.717   2.261
 6240SOL     OW19539   3.954   0.628   3.837
 6240SOL    HW119540   3.861   0.626   3.874
 6240SOL    HW219541   3.955   0.589   3.745
 6241SOL     OW19542   3.949   0.275   4.720
 6241SOL    HW119543   3.984   0.258   4.812
 6241SOL    HW219544   3.861   0.230   4.708
 6242SOL     OW19545   3.743   0.368   4.371
 6242SOL    HW119546   3.661   0.411   4.410
 6242SOL    HW219547   3.715   0.295   4.308
 6243SOL     OW19548   4.293   1.275   4.889
 6243SOL    HW119549   4.200   1.268   4.852
 6243SOL    HW219550   4.304   1.364   4.933
 6244SOL     OW19551   5.279   1.511   4.427
 6244SOL    HW119552   5.222   1.495   4.508
 6244SOL    HW219553   5.220   1.521   4.347
 6245SOL     OW19554   4.859   0.703   4.441
 6245SOL    HW119555   4.916   0.781   4.416
 6245SOL    HW219556   4.799   0.729   4.517
 6246SOL     OW19557   5.479   0.607   3.955
 6246SOL    HW119558   5.467   0.594   3.856
 6246SOL    HW219559   5.449   0.526   4.004
 6247SOL     OW19560   4.492   1.144   4.747
 6247SOL    HW119561   4.414   1.161   4.807
 6247SOL    HW219562   4.526   1.231   4.711
 6248SOL     OW19563   4.574   0.798   5.547
 6248SOL    HW119564   4.570   0.874   5.612
 6248SOL    HW219565   4.596   0.834   5.456
 6249SOL     OW19566   4.409   1.012   4.389
 6249SOL    HW119567   4.478   0.996   4.459
 6249SOL    HW219568   4.336   1.069   4.427
 6250SOL     OW19569   4.410   1.161   5.527
 6250SOL    HW119570   4.470   1.240   5.541
 6250SOL    HW219571   4.324   1.192   5.486
 6251SOL     OW19572   4.059   1.435   4.785
 6251SOL    HW119573   3.981   1.404   4.732
 6251SOL    HW219574   4.117   1.493   4.728
 6252SOL     OW19575   5.184   1.505   5.063
 6252SOL    HW119576   5.208   1.599   5.089
 6252SOL    HW219577   5.168   1.451   5.145
 6253SOL     OW19578   4.162   0.392   5.223
 6253SOL    HW119579   4.244   0.336   5.232
 6253SOL    HW219580   4.081   0.334   5.227
 6254SOL     OW19581   5.327   0.447   4.461
 6254SOL    HW119582   5.253   0.493   4.411
 6254SOL    HW219583   5.378   0.515   4.514
 6255SOL     OW19584   3.955   1.713   4.207
 6255SOL    HW119585   3.989   1.790   4.261
 6255SOL    HW219586   3.999   1.713   4.117
 6256SOL     OW19587   4.851   1.341   5.414
 6256SOL    HW119588   4.898   1.341   5.502
 6256SOL    HW219589   4.803   1.254   5.403
 6257SOL     OW19590   3.954   1.434   4.262
 6257SOL    HW119591   3.928   1.530   4.262
 6257SOL    HW219592   3.883   1.380   4.307
 6258SOL     OW19593   3.964   1.091   4.610
 6258SOL    HW119594   3.978   1.007   4.662
 6258SOL    HW219595   3.909   1.155   4.665
 6259SOL     OW19596   4.344   1.786   5.163
 6259SOL    HW119597   4.252   1.769   5.198
 6259SOL    HW219598   4.372   1.878   5.189
 6260SOL     OW19599   4.330   0.964   3.847
 6260SOL    HW119600   4.337   1.048   3.793
 6260SOL    HW219601   4.376   0.977   3.935
 6261SOL     OW19602   5.318   0.114   5.204
 6261SOL    HW119603   5.300   0.181   5.132
 6261SOL    HW219604   5.315   0.160   5.293
 6262SOL     OW19605   3.846   0.643   4.287
 6262SOL    HW119606   3.801   0.555   4.304
 6262SOL    HW219607   3.845   0.697   4.371
 6263SOL     OW19608   5.566   1.767   4.083
 6263SOL    HW119609   5.620   1.738   4.163
 6263SOL    HW219610   5.596   1.857   4.054
 6264SOL     OW19611   3.751   1.596   3.841
 6264SOL    HW119612   3.732   1.500   3.862
 6264SOL    HW219613   3.718   1.654   3.916
 6265SOL     OW19614   5.413   0.922   4.336
 6265SOL    HW119615   5.508   0.893   4.344
 6265SOL    HW219616   5.405   0.987   4.261
 6266SOL     OW19617   5.365   1.108   4.156
 6266SOL    HW119618   5.451   1.110   4.104
 6266SOL    HW219619   5.379   1.155   4.244
 6267SOL     OW19620   3.837   0.737   5.321
 6267SOL    HW119621   3.925   0.724   5.366
 6267SOL    HW219622   3.824   0.834   5.299
 6268SOL     OW19623   4.337   1.365   4.450
 6268SOL    HW119624   4.288   1.278   4.459
 6268SOL    HW219625   4.314   1.408   4.363
 6269SOL     OW19626   5.017   1.228   5.147
 6269SOL    HW119627   5.054   1.155   5.089
 6269SOL    HW219628   5.069   1.233   5.232
 6270SOL     OW19629   4.533   0.004   4.226
 6270SOL    HW119630   4.573   0.095   4.217
 6270SOL    HW219631   4.433   0.012   4.232
 6271SOL     OW19632   3.921   0.976   4.988
 6271SOL    HW119633   4.010   0.931   4.974
 6271SOL    HW219634   3.848   0.911   4.969
 6272SOL     OW19635   5.249   0.999   3.914
 6272SOL    HW119636   5.186   0.923   3.927
 6272SOL    HW219637   5.297   1.017   4.000
 6273SOL     OW19638   4.911   1.792   5.340
 6273SOL    HW119639   4.935   1.852   5.264
 6273SOL    HW219640   4.918   1.697   5.310
 6274SOL     OW19641   4.041   0.251   5.525
 6274SOL    HW119642   4.112   0.322   5.531
 6274SOL    HW219643   3.953   0.290   5.553
 6275SOL     OW19644   5.190   1.417   4.677
 6275SOL    HW119645   5.131   1.423   4.757
 6275SOL    HW219646   5.175   1.329   4.631
 6276SOL     OW19647   5.391   1.714   4.296
 6276SOL    HW119648   5.350   1.691   4.208
 6276SOL    HW219649   5.373   1.640   4.361
 6277SOL     OW19650   4.322   0.729   3.994
 6277SOL    HW119651   4.346   0.798   3.926
 6277SOL    HW219652   4.244   0.762   4.048
 6278SOL     OW19653   5.005   0.345   4.668
 6278SOL    HW119654   4.919   0.295   4.655
 6278SOL    HW219655   5.067   0.291   4.724
 6279SOL     OW19656   5.300   1.662   4.031
 6279SOL    HW119657   5.389   1.708   4.034
 6279SOL    HW219658   5.279   1.638   3.936
 6280SOL     OW19659   4.531   0.605   5.189
 6280SOL    HW119660   4.484   0.602   5.278
 6280SOL    HW219661   4.480   0.550   5.123
 6281SOL     OW19662   5.118   0.469   5.398
 6281SOL    HW119663   5.098   0.512   5.486
 6281SOL    HW219664   5.196   0.407   5.407
 6282SOL     OW19665   4.697   0.890   5.296
 6282SOL    HW119666   4.743   0.806   5.267
 6282SOL    HW219667   4.641   0.924   5.221
 6283SOL     OW19668   4.715   0.410   4.966
 6283SOL    HW119669   4.638   0.444   5.020
 6283SOL    HW219670   4.681   0.359   4.887
 6284SOL     OW19671   4.765   0.701   4.153
 6284SOL    HW119672   4.791   0.697   4.249
 6284SOL    HW219673   4.680   0.650   4.139
 6285SOL     OW19674   3.800   0.811   4.513
 6285SOL    HW119675   3.899   0.799   4.522
 6285SOL    HW219676   3.776   0.906   4.534
 6286SOL     OW19677   3.854   1.821   5.295
 6286SOL    HW119678   3.844   1.806   5.394
 6286SOL    HW219679   3.768   1.857   5.259
 6287SOL     OW19680   4.589   0.348   3.919
 6287SOL    HW119681   4.648   0.411   3.870
 6287SOL    HW219682   4.608   0.254   3.890
 6288SOL     OW19683   5.443   0.585   5.555
 6288SOL    HW119684   5.417   0.674   5.519
 6288SOL    HW219685   5.441   0.517   5.482
 6289SOL     OW19686   5.086   1.144   4.269
 6289SOL    HW119687   5.169   1.115   4.221
 6289SOL    HW219688   5.037   1.211   4.213
 6290SOL     OW19689   4.274   0.196   4.609
 6290SOL    HW119690   4.269   0.191   4.709
 6290SOL    HW219691   4.276   0.292   4.580
 6291SOL     OW19692   4.732   1.456   4.201
 6291SOL    HW119693   4.686   1.528   4.149
 6291SOL    HW219694   4.728   1.476   4.299
 6292SOL     OW19695   4.075   1.801   4.577
 6292SOL    HW119696   4.125   1.715   4.583
 6292SOL    HW219697   4.140   1.878   4.574
 6293SOL     OW19698   5.519   1.066   4.597
 6293SOL    HW119699   5.457   1.051   4.521
 6293SOL    HW219700   5.467   1.077   4.682
 6294SOL     OW19701   4.951   1.550   5.230
 6294SOL    HW119702   4.957   1.473   5.294
 6294SOL    HW219703   4.899   1.524   5.150
 6295SOL     OW19704   4.045   0.943   3.966
 6295SOL    HW119705   4.127   0.982   3.924
 6295SOL    HW219706   4.018   0.861   3.917
 6296SOL     OW19707   5.182   0.735   4.452
 6296SOL    HW119708   5.177   0.670   4.527
 6296SOL    HW219709   5.262   0.794   4.465
 6297SOL     OW19710   4.185   1.266   5.451
 6297SOL    HW119711   4.135   1.267   5.365
 6297SOL    HW219712   4.122   1.248   5.527
 6298SOL     OW19713   4.835   1.776   3.961
 6298SOL    HW119714   4.775   1.714   4.011
 6298SOL    HW219715   4.866   1.732   3.876
 6299SOL     OW19716   3.926   0.285   5.222
 6299SOL    HW119717   3.846   0.345   5.209
 6299SOL    HW219718   3.916   0.236   5.308
 6300SOL     OW19719   5.356   1.377   3.805
 6300SOL    HW119720   5.324   1.471   3.795
 6300SOL    HW219721   5.280   1.314   3.793
 6301SOL     OW19722   4.188   1.743   4.047
 6301SOL    HW119723   4.221   1.782   4.133
 6301SOL    HW219724   4.264   1.736   3.982
 6302SOL     OW19725   5.124   0.107   4.150
 6302SOL    HW119726   5.100   0.070   4.060
 6302SOL    HW219727   5.223   0.123   4.154
 6303SOL     OW19728   3.973   1.785   4.965
 6303SOL    HW119729   4.030   1.720   5.015
 6303SOL    HW219730   3.957   1.752   4.872
 6304SOL     OW19731   4.664   1.698   4.628
 6304SOL    HW119732   4.744   1.641   4.649
 6304SOL    HW219733   4.615   1.658   4.551
 6305SOL     OW19734   4.106   0.700   4.204
 6305SOL    HW119735   4.151   0.610   4.201
 6305SOL    HW219736   4.012   0.689   4.237
 6306SOL     OW19737   5.271   0.222   5.453
 6306SOL    HW119738   5.266   0.259   5.545
 6306SOL    HW219739   5.199   0.153   5.441
 6307SOL     OW19740   4.338   0.122   3.841
 6307SOL    HW119741   4.436   0.100   3.848
 6307SOL    HW219742   4.307   0.105   3.748
 6308SOL     OW19743   4.505   0.264   5.473
 6308SOL    HW119744   4.572   0.203   5.516
 6308SOL    HW219745   4.432   0.283   5.538
 6309SOL     OW19746   4.612   1.514   4.919
 6309SOL    HW119747   4.589   1.489   4.825
 6309SOL    HW219748   4.673   1.445   4.958
 6310SOL     OW19749   5.075   0.590   5.157
 6310SOL    HW119750   5.103   0.547   5.242
 6310SOL    HW219751   5.100   0.686   5.158
 6311SOL     OW19752   4.527   1.402   4.648
 6311SOL    HW119753   4.617   1.416   4.606
 6311SOL    HW219754   4.456   1.404   4.577
 6312SOL     OW19755   4.646   0.503   4.623
 6312SOL    HW119756   4.621   0.494   4.527
 6312SOL    HW219757   4.694   0.421   4.654
 6313SOL     OW19758   4.263   0.064   4.236
 6313SOL    HW119759   4.182   0.065   4.294
 6313SOL    HW219760   4.266   0.147   4.181
 6314SOL     OW19761   5.158   1.188   3.765
 6314SOL    HW119762   5.190   1.112   3.822
 6314SOL    HW219763   5.066   1.215   3.795
 6315SOL     OW19764   4.021   0.035   3.895
 6315SOL    HW119765   4.070   0.119   3.874
 6315SOL    HW219766   4.083  -0.030   3.940
 6316SOL     OW19767   4.659   0.236   4.204
 6316SOL    HW119768   4.611   0.277   4.126
 6316SOL    HW219769   4.758   0.234   4.185
 6317SOL     OW19770   4.800   0.683   5.188
 6317SOL    HW119771   4.720   0.622   5.191
 6317SOL    HW219772   4.881   0.630   5.164
 6318SOL     OW19773   4.951   1.570   4.517
 6318SOL    HW119774   4.972   1.644   4.452
 6318SOL    HW219775   5.019   1.570   4.590
 6319SOL     OW19776   4.183   1.152   4.465
 6319SOL    HW119777   4.112   1.125   4.530
 6319SOL    HW219778   4.157   1.124   4.372
 6320SOL     OW19779   4.995   1.797   4.315
 6320SOL    HW119780   5.039   1.861   4.251
 6320SOL    HW219781   4.945   1.849   4.385
 6321SOL     OW19782   4.756   0.549   3.740
 6321SOL    HW119783   4.715   0.631   3.701
 6321SOL    HW219784   4.820   0.575   3.813
 6322SOL     OW19785   3.802   0.556   5.110
 6322SOL    HW119786   3.894   0.555   5.069
 6322SOL    HW219787   3.796   0.630   5.177
 6323SOL     OW19788   4.285   0.222   4.871
 6323SOL    HW119789   4.323   0.138   4.908
 6323SOL    HW219790   4.197   0.241   4.915
 6324SOL     OW19791   4.590   0.454   4.366
 6324SOL    HW119792   4.558   0.526   4.304
 6324SOL    HW219793   4.614   0.373   4.313
 6325SOL     OW19794   4.741   0.039   4.477
 6325SOL    HW119795   4.669   0.044   4.408
 6325SOL    HW219796   4.717  -0.030   4.546
 6326SOL     OW19797   5.153   1.173   4.591
 6326SOL    HW119798   5.098   1.089   4.584
 6326SOL    HW219799   5.179   1.202   4.499
 6327SOL     OW19800   5.190   0.590   4.716
 6327SOL    HW119801   5.160   0.495   4.723
 6327SOL    HW219802   5.263   0.606   4.782
 6328SOL     OW19803   5.581   0.833   4.101
 6328SOL    HW119804   5.623   0.769   4.165
 6328SOL    HW219805   5.543   0.782   4.023
 6329SOL     OW19806   4.212   1.385   3.898
 6329SOL    HW119807   4.125   1.370   3.945
 6329SOL    HW219808   4.195   1.411   3.803
 6330SOL     OW19809   5.388   1.280   4.381
 6330SOL    HW119810   5.487   1.288   4.395
 6330SOL    HW219811   5.343   1.364   4.412
 6331SOL     OW19812   5.114   0.575   3.802
 6331SOL    HW119813   5.060   0.554   3.883
 6331SOL    HW219814   5.205   0.534   3.811
 6332SOL     OW19815   4.251   0.256   4.052
 6332SOL    HW119816   4.278   0.197   3.977
 6332SOL    HW219817   4.251   0.351   4.021
 6333SOL     OW19818   5.478   1.223   5.312
 6333SOL    HW119819   5.569   1.184   5.299
 6333SOL    HW219820   5.486   1.319   5.336
 6334SOL     OW19821   4.788   1.347   5.064
 6334SOL    HW119822   4.708   1.324   5.119
 6334SOL    HW219823   4.871   1.321   5.113
 6335SOL     OW19824   5.316   1.629   5.349
 6335SOL    HW119825   5.343   1.663   5.259
 6335SOL    HW219826   5.395   1.591   5.395
 6336SOL     OW19827   4.835   1.195   4.824
 6336SOL    HW119828   4.795   1.239   4.905
 6336SOL    HW219829   4.794   1.232   4.741
 6337SOL     OW19830   5.362   1.099   4.803
 6337SOL    HW119831   5.367   1.180   4.862
 6337SOL    HW219832   5.276   1.101   4.752
 6338SOL     OW19833   4.639   0.089   5.126
 6338SOL    HW119834   4.664   0.069   5.031
 6338SOL    HW219835   4.711   0.145   5.168
 6339SOL     OW19836   4.704   1.116   5.443
 6339SOL    HW119837   4.605   1.122   5.453
 6339SOL    HW219838   4.727   1.036   5.387
 6340SOL     OW19839   4.429   1.050   4.092
 6340SOL    HW119840   4.415   1.057   4.191
 6340SOL    HW219841   4.513   0.999   4.074
 6341SOL     OW19842   4.134   0.813   4.975
 6341SOL    HW119843   4.220   0.825   5.025
 6341SOL    HW219844   4.092   0.726   5.002
 6342SOL     OW19845   4.998   0.386   4.986
 6342SOL    HW119846   5.019   0.460   5.050
 6342SOL    HW219847   4.909   0.403   4.943
 6343SOL     OW19848   3.788   1.564   5.055
 6343SOL    HW119849   3.742   1.646   5.021
 6343SOL    HW219850   3.886   1.583   5.064
 6344SOL     OW19851   4.091   1.100   4.225
 6344SOL    HW119852   4.084   1.183   4.169
 6344SOL    HW219853   4.095   1.020   4.165
 6345SOL     OW19854   4.290   0.537   4.589
 6345SOL    HW119855   4.302   0.603   4.515
 6345SOL    HW219856   4.336   0.571   4.672
 6346SOL     OW19857   4.976   1.348   4.112
 6346SOL    HW119858   5.026   1.425   4.152
 6346SOL    HW219859   4.881   1.350   4.144
 6347SOL     OW19860   4.996   1.445   4.866
 6347SOL    HW119861   5.043   1.458   4.953
 6347SOL    HW219862   4.930   1.371   4.875
 6348SOL     OW19863   5.306   0.639   4.196
 6348SOL    HW119864   5.275   0.700   4.269
 6348SOL    HW219865   5.356   0.691   4.127
 6349SOL     OW19866   4.078   1.510   5.053
 6349SOL    HW119867   4.057   1.466   4.966
 6349SOL    HW219868   4.175   1.536   5.056
 6350SOL     OW19869   4.126   0.751   5.322
 6350SOL    HW119870   4.194   0.806   5.275
 6350SOL    HW219871   4.166   0.663   5.349
 6351SOL     OW19872   5.311   0.779   5.394
 6351SOL    HW119873   5.219   0.817   5.389
 6351SOL    HW219874   5.371   0.826   5.329
 6352SOL     OW19875   4.737   0.105   5.494
 6352SOL    HW119876   4.743   0.190   5.442
 6352SOL    HW219877   4.769   0.029   5.437
 6353SOL     OW19878   4.228   0.050   5.464
 6353SOL    HW119879   4.186  -0.007   5.394
 6353SOL    HW219880   4.162   0.119   5.496
 6354SOL     OW19881   4.297   0.870   4.753
 6354SOL    HW119882   4.341   0.959   4.744
 6354SOL    HW219883   4.234   0.870   4.830
 6355SOL     OW19884   5.084   0.862   4.769
 6355SOL    HW119885   5.009   0.862   4.703
 6355SOL    HW219886   5.121   0.770   4.778
 6356SOL     OW19887   4.933   0.525   3.999
 6356SOL    HW119888   4.946   0.441   4.053
 6356SOL    HW219889   4.904   0.599   4.059
 6357SOL     OW19890   4.031   0.213   4.955
 6357SOL    HW119891   4.008   0.250   5.045
 6357SOL    HW219892   4.001   0.118   4.949
 6358SOL     OW19893   3.761   1.310   5.006
 6358SOL    HW119894   3.814   1.261   5.074
 6358SOL    HW219895   3.783   1.408   5.011
 6359SOL     OW19896   4.456   0.634   4.788
 6359SOL    HW119897   4.515   0.608   4.712
 6359SOL    HW219898   4.428   0.730   4.777
 6360SOL     OW19899   5.452   0.935   5.578
 6360SOL    HW119900   5.406   0.928   5.489
 6360SOL    HW219901   5.390   0.979   5.644
 6361SOL     OW19902   4.031   0.063   4.342
 6361SOL    HW119903   4.020   0.157   4.375
 6361SOL    HW219904   4.026   0.000   4.419
 6362SOL     OW19905   5.346   0.367   4.098
 6362SOL    HW119906   5.348   0.291   4.162
 6362SOL    HW219907   5.298   0.444   4.138
 6363SOL     OW19908   4.747   0.766   4.690
 6363SOL    HW119909   4.762   0.787   4.786
 6363SOL    HW219910   4.717   0.671   4.681
 6364SOL     OW19911   4.704   1.573   5.424
 6364SOL    HW119912   4.684   1.617   5.336
 6364SOL    HW219913   4.743   1.482   5.408
 6365SOL     OW19914   5.583   1.518   5.329
 6365SOL    HW119915   5.597   1.545   5.234
 6365SOL    HW219916   5.666   1.540   5.382
 6366SOL     OW19917   4.074   0.898   5.528
 6366SOL    HW119918   4.150   0.942   5.576
 6366SOL    HW219919   4.109   0.851   5.446
 6367SOL     OW19920   5.264   0.274   3.849
 6367SOL    HW119921   5.203   0.199   3.872
 6367SOL    HW219922   5.286   0.326   3.932
 6368SOL     OW19923   5.027   0.838   3.766
 6368SOL    HW119924   5.061   0.745   3.781
 6368SOL    HW219925   5.045   0.865   3.671
 6369SOL     OW19926   4.792   1.333   4.573
 6369SOL    HW119927   4.799   1.249   4.518
 6369SOL    HW219928   4.854   1.402   4.537
 6370SOL     OW19929   4.043   0.810   4.673
 6370SOL    HW119930   4.136   0.846   4.678
 6370SOL    HW219931   4.037   0.725   4.725
 6371SOL     OW19932   4.063   0.509   4.730
 6371SOL    HW119933   4.011   0.426   4.713
 6371SOL    HW219934   4.140   0.514   4.666
 6372SOL     OW19935   4.862   0.380   5.402
 6372SOL    HW119936   4.817   0.443   5.466
 6372SOL    HW219937   4.955   0.411   5.385
 6373SOL     OW19938   4.884   0.207   5.201
 6373SOL    HW119939   4.884   0.271   5.278
 6373SOL    HW219940   4.912   0.255   5.118
 6374SOL     OW19941   3.732   1.326   3.924
 6374SOL    HW119942   3.639   1.347   3.893
 6374SOL    HW219943   3.742   1.227   3.937
 6375SOL     OW19944   3.812   1.801   4.651
 6375SOL    HW119945   3.770   1.715   4.624
 6375SOL    HW219946   3.906   1.804   4.617
 6376SOL     OW19947   4.228   1.568   4.634
 6376SOL    HW119948   4.294   1.642   4.643
 6376SOL    HW219949   4.272   1.489   4.592
 6377SOL     OW19950   4.726   0.796   4.962
 6377SOL    HW119951   4.767   0.764   5.048
 6377SOL    HW219952   4.630   0.769   4.959
 6378SOL     OW19953   3.764   0.544   4.838
 6378SOL    HW119954   3.849   0.511   4.797
 6378SOL    HW219955   3.777   0.559   4.936
 6379SOL     OW19956   3.913   0.520   5.446
 6379SOL    HW119957   3.972   0.480   5.376
 6379SOL    HW219958   3.855   0.591   5.405
 6380SOL     OW19959   5.093   0.950   5.384
 6380SOL    HW119960   5.132   1.039   5.404
 6380SOL    HW219961   5.103   0.930   5.287
 6381SOL     OW19962   4.539   0.572   4.049
 6381SOL    HW119963   4.546   0.483   4.003
 6381SOL    HW219964   4.445   0.606   4.041
 6382SOL     OW19965   5.381   0.604   4.930
 6382SOL    HW119966   5.343   0.535   4.992
 6382SOL    HW219967   5.463   0.568   4.886
 6383SOL     OW19968   3.976   1.564   5.468
 6383SOL    HW119969   3.946   1.621   5.544
 6383SOL    HW219970   3.969   1.467   5.494
 6384SOL     OW19971   4.395   0.464   4.993
 6384SOL    HW119972   4.361   0.375   4.963
 6384SOL    HW219973   4.421   0.518   4.913
 6385SOL     OW19974   4.654   1.678   5.189
 6385SOL    HW119975   4.630   1.660   5.094
 6385SOL    HW219976   4.684   1.772   5.199
 6386SOL     OW19977   4.197   0.500   3.915
 6386SOL    HW119978   4.258   0.580   3.919
 6386SOL    HW219979   4.102   0.531   3.922
 6387SOL     OW19980   3.883   1.137   5.190
 6387SOL    HW119981   3.905   1.076   5.266
 6387SOL    HW219982   3.893   1.088   5.104
 6388SOL     OW19983   5.071   1.059   4.958
 6388SOL    HW119984   5.095   0.996   4.884
 6388SOL    HW219985   4.981   1.099   4.940
 6389SOL     OW19986   5.026   0.855   4.033
 6389SOL    HW119987   4.940   0.824   4.075
 6389SOL    HW219988   5.022   0.841   3.934
 6390SOL     OW19989   5.483   1.747   4.878
 6390SOL    HW119990   5.544   1.777   4.805
 6390SOL    HW219991   5.445   1.658   4.856
 6391SOL     OW19992   4.976   1.731   4.852
 6391SOL    HW119993   5.060   1.736   4.798
 6391SOL    HW219994   4.953   1.635   4.870
 6392SOL     OW19995   3.807   1.258   4.746
 6392SOL    HW119996   3.802   1.257   4.846
 6392SOL    HW219997   3.724   1.217   4.708
 6393SOL     OW19998   4.412   1.662   5.440
 6393SOL    HW119999   4.356   1.743   5.449
 6393SOL    HW220000   4.464   1.666   5.354
 6394SOL     OW20001   5.450   0.135   4.247
 6394SOL    HW120002   5.523   0.118   4.180
 6394SOL    HW220003   5.419   0.048   4.285
 6395SOL     OW20004   5.112   1.573   4.201
 6395SOL    HW120005   5.179   1.585   4.127
 6395SOL    HW220006   5.072   1.662   4.224
 6396SOL     OW20007   3.854   1.794   5.575
 6396SOL    HW120008   3.813   1.720   5.628
 6396SOL    HW220009   3.918   1.845   5.633
 6397SOL     OW20010   5.004   0.927   4.396
 6397SOL    HW120011   5.064   0.846   4.398
 6397SOL    HW220012   5.044   0.996   4.336
 6398SOL     OW20013   4.554   1.273   5.146
 6398SOL    HW120014   4.549   1.306   5.241
 6398SOL    HW220015   4.468   1.292   5.100
 6399SOL     OW20016   4.396   1.616   3.878
 6399SOL    HW120017   4.405   1.626   3.779
 6399SOL    HW220018   4.356   1.527   3.899
 6400SOL     OW20019   5.374   1.720   5.118
 6400SOL    HW120020   5.427   1.730   5.034
 6400SOL    HW220021   5.347   1.810   5.152
 6401SOL     OW20022   5.565   0.175   4.687
 6401SOL    HW120023   5.604   0.090   4.651
 6401SOL    HW220024   5.467   0.177   4.668
 6402SOL     OW20025   3.987   0.326   4.444
 6402SOL    HW120026   3.908   0.377   4.410
 6402SOL    HW220027   3.978   0.311   4.542
 6403SOL     OW20028   4.918   1.612   3.755
 6403SOL    HW120029   4.924   1.519   3.792
 6403SOL    HW220030   4.859   1.612   3.675
 6404SOL     OW20031   4.546   1.002   5.096
 6404SOL    HW120032   4.586   1.001   5.004
 6404SOL    HW220033   4.556   1.094   5.136
 6405SOL     OW20034   4.640   0.910   4.015
 6405SOL    HW120035   4.703   0.948   3.947
 6405SOL    HW220036   4.680   0.827   4.054
 6406SOL     OW20037   5.228   1.607   3.768
 6406SOL    HW120038   5.136   1.644   3.775
 6406SOL    HW220039   5.266   1.627   3.678
 6407SOL     OW20040   4.096   1.288   5.214
 6407SOL    HW120041   4.083   1.381   5.180
 6407SOL    HW220042   4.012   1.236   5.201
 6408SOL     OW20043   5.338   1.292   5.013
 6408SOL    HW120044   5.398   1.295   5.093
 6408SOL    HW220045   5.263   1.356   5.026
 6409SOL     OW20046   4.763   1.098   4.420
 6409SOL    HW120047   4.693   1.051   4.474
 6409SOL    HW220048   4.822   1.030   4.377
 6410SOL     OW20049   4.738   0.236   4.695
 6410SOL    HW120050   4.730   0.200   4.602
 6410SOL    HW220051   4.736   0.160   4.760
 6411SOL     OW20052   4.314   1.487   4.215
 6411SOL    HW120053   4.356   1.429   4.145
 6411SOL    HW220054   4.270   1.566   4.171
 6412SOL     OW20055   5.433   0.385   5.105
 6412SOL    HW120056   5.506   0.454   5.109
 6412SOL    HW220057   5.461   0.310   5.046
 6413SOL     OW20058   3.979   1.348   4.014
 6413SOL    HW120059   3.883   1.349   3.987
 6413SOL    HW220060   3.991   1.401   4.098
 6414SOL     OW20061   3.829   1.013   5.450
 6414SOL    HW120062   3.752   0.980   5.504
 6414SOL    HW220063   3.914   0.983   5.492
 6415SOL     OW20064   4.396   0.203   5.213
 6415SOL    HW120065   4.486   0.187   5.173
 6415SOL    HW220066   4.404   0.208   5.312
 6416SOL     OW20067   3.799   0.345   3.757
 6416SOL    HW120068   3.707   0.317   3.728
 6416SOL    HW220069   3.830   0.422   3.701
 6417SOL     OW20070   5.164   0.856   5.122
 6417SOL    HW120071   5.107   0.908   5.059
 6417SOL    HW220072   5.260   0.868   5.098
 6418SOL     OW20073   3.796   0.166   4.042
 6418SOL    HW120074   3.779   0.249   3.988
 6418SOL    HW220075   3.886   0.129   4.020
 6419SOL     OW20076   4.907   1.335   3.843
 6419SOL    HW120077   4.808   1.324   3.845
 6419SOL    HW220078   4.941   1.350   3.936
 6420SOL     OW20079   4.337   0.842   5.155
 6420SOL    HW120080   4.393   0.923   5.138
 6420SOL    HW220081   4.396   0.762   5.158
 6421SOL     OW20082   5.217   1.767   4.683
 6421SOL    HW120083   5.250   1.831   4.614
 6421SOL    HW220084   5.283   1.761   4.758
 6422SOL     OW20085   4.440   0.565   5.432
 6422SOL    HW120086   4.459   0.630   5.506
 6422SOL    HW220087   4.500   0.485   5.441
 6423SOL     OW20088   5.174   1.220   5.357
 6423SOL    HW120089   5.165   1.210   5.456
 6423SOL    HW220090   5.270   1.213   5.331
 6424SOL     OW20091   4.114   1.741   5.284
 6424SOL    HW120092   4.023   1.782   5.282
 6424SOL    HW220093   4.107   1.647   5.316
 6425SOL     OW20094   5.398   0.883   4.978
 6425SOL    HW120095   5.371   0.794   4.941
 6425SOL    HW220096   5.399   0.951   4.905
 6426SOL     OW20097   4.949   0.325   4.173
 6426SOL    HW120098   5.014   0.251   4.162
 6426SOL    HW220099   4.969   0.375   4.257
 6427SOL     OW20100   4.318   0.745   4.376
 6427SOL    HW120101   4.368   0.830   4.357
 6427SOL    HW220102   4.230   0.747   4.328
 6428SOL     OW20103   5.501   0.342   5.366
 6428SOL    HW120104   5.484   0.373   5.272
 6428SOL    HW220105   5.417   0.305   5.404
 6429SOL     OW20106   5.454   0.934   5.241
 6429SOL    HW120107   5.492   1.025   5.256
 6429SOL    HW220108   5.446   0.917   5.142
 6430SOL     OW20109   4.583   1.374   3.740
 6430SOL    HW120110   4.537   1.389   3.828
 6430SOL    HW220111   4.627   1.459   3.710
 6431SOL     OW20112   4.385   1.790   4.677
 6431SOL    HW120113   4.339   1.878   4.664
 6431SOL    HW220114   4.484   1.802   4.670
 6432SOL     OW20115   4.583   0.956   4.585
 6432SOL    HW120116   4.637   0.887   4.633
 6432SOL    HW220117   4.551   1.025   4.651
 6433SOL     OW20118   4.807   0.984   3.811
 6433SOL    HW120119   4.784   1.037   3.729
 6433SOL    HW220120   4.888   0.928   3.792
 6434SOL     OW20121   5.585   1.569   4.575
 6434SOL    HW120122   5.514   1.557   4.505
 6434SOL    HW220123   5.586   1.490   4.635
 6435SOL     OW20124   3.945   1.314   5.568
 6435SOL    HW120125   3.880   1.241   5.547
 6435SOL    HW220126   3.949   1.328   5.666
 6436SOL     OW20127   3.803   1.240   4.377
 6436SOL    HW120128   3.802   1.193   4.465
 6436SOL    HW220129   3.885   1.212   4.326
 6437SOL     OW20130   4.396   1.391   5.348
 6437SOL    HW120131   4.318   1.341   5.386
 6437SOL    HW220132   4.393   1.486   5.379
 6438SOL     OW20133   5.548   0.192   4.951
 6438SOL    HW120134   5.544   0.102   4.995
 6438SOL    HW220135   5.551   0.181   4.852
 6439SOL     OW20136   4.152   0.424   4.244
 6439SOL    HW120137   4.182   0.352   4.182
 6439SOL    HW220138   4.113   0.384   4.327
 6440SOL     OW20139   5.429   1.487   4.828
 6440SOL    HW120140   5.336   1.462   4.801
 6440SOL    HW220141   5.455   1.437   4.910
 6441SOL     OW20142   4.041   0.547   5.004
 6441SOL    HW120143   4.079   0.488   5.076
 6441SOL    HW220144   4.081   0.521   4.916
 6442SOL     OW20145   4.536   1.586   4.411
 6442SOL    HW120146   4.568   1.596   4.317
 6442SOL    HW220147   4.457   1.524   4.413
 6443SOL     OW20148   5.148   0.214   4.836
 6443SOL    HW120149   5.200   0.149   4.891
 6443SOL    HW220150   5.099   0.277   4.897
 6444SOL     OW20151   4.725   0.034   4.878
 6444SOL    HW120152   4.662  -0.038   4.847
 6444SOL    HW220153   4.818  -0.002   4.878
 6445SOL     OW20154   4.494   1.330   4.025
 6445SOL    HW120155   4.448   1.243   4.042
 6445SOL    HW220156   4.585   1.327   4.066
 6446SOL     OW20157   4.342   1.567   5.008
 6446SOL    HW120158   4.337   1.649   5.065
 6446SOL    HW220159   4.431   1.564   4.963
 6447SOL     OW20160   5.076   0.052   3.892
 6447SOL    HW120161   5.111   0.011   3.808
 6447SOL    HW220162   4.986   0.014   3.912
 6448SOL     OW20163   5.024   0.453   4.415
 6448SOL    HW120164   4.965   0.533   4.419
 6448SOL    HW220165   5.039   0.418   4.508
 6449SOL     OW20166   5.317   0.221   4.606
 6449SOL    HW120167   5.233   0.220   4.660
 6449SOL    HW220168   5.319   0.304   4.550
 6450SOL     OW20169   3.763   1.077   4.024
 6450SOL    HW120170   3.862   1.066   4.015
 6450SOL    HW220171   3.723   0.991   4.056
 6451SOL     OW20172   4.599   1.646   4.061
 6451SOL    HW120173   4.522   1.611   4.007
 6451SOL    HW220174   4.567   1.717   4.123
 6452SOL     OW20175   3.954   0.628   5.699
 6452SOL    HW120176   3.861   0.626   5.736
 6452SOL    HW220177   3.955   0.589   5.607
 6453SOL     OW20178   3.949   0.275   6.582
 6453SOL    HW120179   3.984   0.258   6.674
 6453SOL    HW220180   3.861   0.230   6.570
 6454SOL     OW20181   3.743   0.368   6.233
 6454SOL    HW120182   3.661   0.411   6.272
 6454SOL    HW220183   3.715   0.295   6.170
 6455SOL     OW20184   4.293   1.275   6.751
 6455SOL    HW120185   4.200   1.268   6.714
 6455SOL    HW220186   4.304   1.364   6.795
 6456SOL     OW20187   5.279   1.511   6.289
 6456SOL    HW120188   5.222   1.495   6.370
 6456SOL    HW220189   5.220   1.521   6.209
 6457SOL     OW20190   4.859   0.703   6.303
 6457SOL    HW120191   4.916   0.781   6.278
 6457SOL    HW220192   4.799   0.729   6.379
 6458SOL     OW20193   5.479   0.607   5.817
 6458SOL    HW120194   5.467   0.594   5.718
 6458SOL    HW220195   5.449   0.526   5.866
 6459SOL     OW20196   4.492   1.144   6.609
 6459SOL    HW120197   4.414   1.161   6.669
 6459SOL    HW220198   4.526   1.231   6.573
 6460SOL     OW20199   4.409   1.012   6.251
 6460SOL    HW120200   4.478   0.996   6.321
 6460SOL    HW220201   4.336   1.069   6.289
 6461SOL     OW20202   4.059   1.435   6.647
 6461SOL    HW120203   3.981   1.404   6.594
 6461SOL    HW220204   4.117   1.493   6.590
 6462SOL     OW20205   5.327   0.447   6.323
 6462SOL    HW120206   5.253   0.493   6.273
 6462SOL    HW220207   5.378   0.515   6.376
 6463SOL     OW20208   3.955   1.713   6.069
 6463SOL    HW120209   3.989   1.790   6.123
 6463SOL    HW220210   3.999   1.713   5.979
 6464SOL     OW20211   3.954   1.434   6.124
 6464SOL    HW120212   3.928   1.530   6.124
 6464SOL    HW220213   3.883   1.380   6.169
 6465SOL     OW20214   3.964   1.091   6.472
 6465SOL    HW120215   3.978   1.007   6.524
 6465SOL    HW220216   3.909   1.155   6.527
 6466SOL     OW20217   4.344   1.786   7.025
 6466SOL    HW120218   4.252   1.769   7.060
 6466SOL    HW220219   4.372   1.878   7.051
 6467SOL     OW20220   4.330   0.964   5.709
 6467SOL    HW120221   4.337   1.048   5.655
 6467SOL    HW220222   4.376   0.977   5.797
 6468SOL     OW20223   3.846   0.643   6.149
 6468SOL    HW120224   3.801   0.555   6.166
 6468SOL    HW220225   3.845   0.697   6.233
 6469SOL     OW20226   5.566   1.767   5.945
 6469SOL    HW120227   5.620   1.738   6.025
 6469SOL    HW220228   5.596   1.857   5.916
 6470SOL     OW20229   3.751   1.596   5.703
 6470SOL    HW120230   3.732   1.500   5.724
 6470SOL    HW220231   3.718   1.654   5.778
 6471SOL     OW20232   5.413   0.922   6.198
 6471SOL    HW120233   5.508   0.893   6.206
 6471SOL    HW220234   5.405   0.987   6.123
 6472SOL     OW20235   5.365   1.108   6.018
 6472SOL    HW120236   5.451   1.110   5.966
 6472SOL    HW220237   5.379   1.155   6.106
 6473SOL     OW20238   4.337   1.365   6.312
 6473SOL    HW120239   4.288   1.278   6.321
 6473SOL    HW220240   4.314   1.408   6.225
 6474SOL     OW20241   4.533   0.004   6.088
 6474SOL    HW120242   4.573   0.095   6.079
 6474SOL    HW220243   4.433   0.012   6.094
 6475SOL     OW20244   3.921   0.976   6.850
 6475SOL    HW120245   4.010   0.931   6.836
 6475SOL    HW220246   3.848   0.911   6.831
 6476SOL     OW20247   5.249   0.999   5.776
 6476SOL    HW120248   5.186   0.923   5.789
 6476SOL    HW220249   5.297   1.017   5.862
 6477SOL     OW20250   5.190   1.417   6.539
 6477SOL    HW120251   5.131   1.423   6.619
 6477SOL    HW220252   5.175   1.329   6.493
 6478SOL     OW20253   5.391   1.714   6.158
 6478SOL    HW120254   5.350   1.691   6.070
 6478SOL    HW220255   5.373   1.640   6.223
 6479SOL     OW20256   4.322   0.729   5.856
 6479SOL    HW120257   4.346   0.798   5.788
 6479SOL    HW220258   4.244   0.762   5.910
 6480SOL     OW20259   5.005   0.345   6.530
 6480SOL    HW120260   4.919   0.295   6.517
 6480SOL    HW220261   5.067   0.291   6.586
 6481SOL     OW20262   5.300   1.662   5.893
 6481SOL    HW120263   5.389   1.708   5.896
 6481SOL    HW220264   5.279   1.638   5.798
 6482SOL     OW20265   4.531   0.605   7.051
 6482SOL    HW120266   4.484   0.602   7.140
 6482SOL    HW220267   4.480   0.550   6.985
 6483SOL     OW20268   4.715   0.410   6.828
 6483SOL    HW120269   4.638   0.444   6.882
 6483SOL    HW220270   4.681   0.359   6.749
 6484SOL     OW20271   4.765   0.701   6.015
 6484SOL    HW120272   4.791   0.697   6.111
 6484SOL    HW220273   4.680   0.650   6.001
 6485SOL     OW20274   3.800   0.811   6.375
 6485SOL    HW120275   3.899   0.799   6.384
 6485SOL    HW220276   3.776   0.906   6.396
 6486SOL     OW20277   3.854   1.821   7.157
 6486SOL    HW120278   3.844   1.806   7.256
 6486SOL    HW220279   3.768   1.857   7.121
 6487SOL     OW20280   4.589   0.348   5.781
 6487SOL    HW120281   4.648   0.411   5.732
 6487SOL    HW220282   4.608   0.254   5.752
 6488SOL     OW20283   5.086   1.144   6.131
 6488SOL    HW120284   5.169   1.115   6.083
 6488SOL    HW220285   5.037   1.211   6.075
 6489SOL     OW20286   4.274   0.196   6.471
 6489SOL    HW120287   4.269   0.191   6.571
 6489SOL    HW220288   4.276   0.292   6.442
 6490SOL     OW20289   4.732   1.456   6.063
 6490SOL    HW120290   4.686   1.528   6.011
 6490SOL    HW220291   4.728   1.476   6.161
 6491SOL     OW20292   4.075   1.801   6.439
 6491SOL    HW120293   4.125   1.715   6.445
 6491SOL    HW220294   4.140   1.878   6.436
 6492SOL     OW20295   5.519   1.066   6.459
 6492SOL    HW120296   5.457   1.051   6.383
 6492SOL    HW220297   5.467   1.077   6.544
 6493SOL     OW20298   4.045   0.943   5.828
 6493SOL    HW120299   4.127   0.982   5.786
 6493SOL    HW220300   4.018   0.861   5.779
 6494SOL     OW20301   5.182   0.735   6.314
 6494SOL    HW120302   5.177   0.670   6.389
 6494SOL    HW220303   5.262   0.794   6.327
 6495SOL     OW20304   4.835   1.776   5.823
 6495SOL    HW120305   4.775   1.714   5.873
 6495SOL    HW220306   4.866   1.732   5.738
 6496SOL     OW20307   5.356   1.377   5.667
 6496SOL    HW120308   5.324   1.471   5.657
 6496SOL    HW220309   5.280   1.314   5.655
 6497SOL     OW20310   4.188   1.743   5.909
 6497SOL    HW120311   4.221   1.782   5.995
 6497SOL    HW220312   4.264   1.736   5.844
 6498SOL     OW20313   5.124   0.107   6.012
 6498SOL    HW120314   5.100   0.070   5.922
 6498SOL    HW220315   5.223   0.123   6.016
 6499SOL     OW20316   3.973   1.785   6.827
 6499SOL    HW120317   4.030   1.720   6.877
 6499SOL    HW220318   3.957   1.752   6.734
 6500SOL     OW20319   4.664   1.698   6.490
 6500SOL    HW120320   4.744   1.641   6.511
 6500SOL    HW220321   4.615   1.658   6.413
 6501SOL     OW20322   4.106   0.700   6.066
 6501SOL    HW120323   4.151   0.610   6.063
 6501SOL    HW220324   4.012   0.689   6.099
 6502SOL     OW20325   4.338   0.122   5.703
 6502SOL    HW120326   4.436   0.100   5.710
 6502SOL    HW220327   4.307   0.105   5.610
 6503SOL     OW20328   4.612   1.514   6.781
 6503SOL    HW120329   4.589   1.489   6.687
 6503SOL    HW220330   4.673   1.445   6.820
 6504SOL     OW20331   4.527   1.402   6.510
 6504SOL    HW120332   4.617   1.416   6.468
 6504SOL    HW220333   4.456   1.404   6.439
 6505SOL     OW20334   4.646   0.503   6.485
 6505SOL    HW120335   4.621   0.494   6.389
 6505SOL    HW220336   4.694   0.421   6.516
 6506SOL     OW20337   4.263   0.064   6.098
 6506SOL    HW120338   4.182   0.065   6.156
 6506SOL    HW220339   4.266   0.147   6.043
 6507SOL     OW20340   5.158   1.188   5.627
 6507SOL    HW120341   5.190   1.112   5.684
 6507SOL    HW220342   5.066   1.215   5.657
 6508SOL     OW20343   4.021   0.035   5.757
 6508SOL    HW120344   4.070   0.119   5.736
 6508SOL    HW220345   4.083  -0.030   5.802
 6509SOL     OW20346   4.659   0.236   6.066
 6509SOL    HW120347   4.611   0.277   5.988
 6509SOL    HW220348   4.758   0.234   6.047
 6510SOL     OW20349   4.951   1.570   6.379
 6510SOL    HW120350   4.972   1.644   6.314
 6510SOL    HW220351   5.019   1.570   6.452
 6511SOL     OW20352   4.183   1.152   6.327
 6511SOL    HW120353   4.112   1.125   6.392
 6511SOL    HW220354   4.157   1.124   6.234
 6512SOL     OW20355   4.995   1.797   6.177
 6512SOL    HW120356   5.039   1.861   6.113
 6512SOL    HW220357   4.945   1.849   6.247
 6513SOL     OW20358   4.756   0.549   5.602
 6513SOL    HW120359   4.715   0.631   5.563
 6513SOL    HW220360   4.820   0.575   5.675
 6514SOL     OW20361   4.285   0.222   6.733
 6514SOL    HW120362   4.323   0.138   6.770
 6514SOL    HW220363   4.197   0.241   6.777
 6515SOL     OW20364   4.590   0.454   6.228
 6515SOL    HW120365   4.558   0.526   6.166
 6515SOL    HW220366   4.614   0.373   6.175
 6516SOL     OW20367   4.741   0.039   6.339
 6516SOL    HW120368   4.669   0.044   6.270
 6516SOL    HW220369   4.717  -0.030   6.408
 6517SOL     OW20370   5.153   1.173   6.453
 6517SOL    HW120371   5.098   1.089   6.446
 6517SOL    HW220372   5.179   1.202   6.361
 6518SOL     OW20373   5.190   0.590   6.578
 6518SOL    HW120374   5.160   0.495   6.585
 6518SOL    HW220375   5.263   0.606   6.644
 6519SOL     OW20376   5.581   0.833   5.963
 6519SOL    HW120377   5.623   0.769   6.027
 6519SOL    HW220378   5.543   0.782   5.885
 6520SOL     OW20379   4.212   1.385   5.760
 6520SOL    HW120380   4.125   1.370   5.807
 6520SOL    HW220381   4.195   1.411   5.665
 6521SOL     OW20382   5.388   1.280   6.243
 6521SOL    HW120383   5.487   1.288   6.257
 6521SOL    HW220384   5.343   1.364   6.274
 6522SOL     OW20385   5.114   0.575   5.664
 6522SOL    HW120386   5.060   0.554   5.745
 6522SOL    HW220387   5.205   0.534   5.673
 6523SOL     OW20388   4.251   0.256   5.914
 6523SOL    HW120389   4.278   0.197   5.839
 6523SOL    HW220390   4.251   0.351   5.883
 6524SOL     OW20391   5.478   1.223   7.174
 6524SOL    HW120392   5.569   1.184   7.161
 6524SOL    HW220393   5.486   1.319   7.198
 6525SOL     OW20394   4.835   1.195   6.686
 6525SOL    HW120395   4.795   1.239   6.767
 6525SOL    HW220396   4.794   1.232   6.603
 6526SOL     OW20397   5.362   1.099   6.665
 6526SOL    HW120398   5.367   1.180   6.724
 6526SOL    HW220399   5.276   1.101   6.614
 6527SOL     OW20400   4.429   1.050   5.954
 6527SOL    HW120401   4.415   1.057   6.053
 6527SOL    HW220402   4.513   0.999   5.936
 6528SOL     OW20403   4.134   0.813   6.837
 6528SOL    HW120404   4.220   0.825   6.887
 6528SOL    HW220405   4.092   0.726   6.864
 6529SOL     OW20406   4.998   0.386   6.848
 6529SOL    HW120407   5.019   0.460   6.912
 6529SOL    HW220408   4.909   0.403   6.805
 6530SOL     OW20409   3.788   1.564   6.917
 6530SOL    HW120410   3.742   1.646   6.883
 6530SOL    HW220411   3.886   1.583   6.926
 6531SOL     OW20412   4.091   1.100   6.087
 6531SOL    HW120413   4.084   1.183   6.031
 6531SOL    HW220414   4.095   1.020   6.027
 6532SOL     OW20415   4.290   0.537   6.451
 6532SOL    HW120416   4.302   0.603   6.377
 6532SOL    HW220417   4.336   0.571   6.534
 6533SOL     OW20418   4.976   1.348   5.974
 6533SOL    HW120419   5.026   1.425   6.014
 6533SOL    HW220420   4.881   1.350   6.006
 6534SOL     OW20421   4.996   1.445   6.728
 6534SOL    HW120422   5.043   1.458   6.815
 6534SOL    HW220423   4.930   1.371   6.737
 6535SOL     OW20424   5.306   0.639   6.058
 6535SOL    HW120425   5.275   0.700   6.131
 6535SOL    HW220426   5.356   0.691   5.989
 6536SOL     OW20427   4.078   1.510   6.915
 6536SOL    HW120428   4.057   1.466   6.828
 6536SOL    HW220429   4.175   1.536   6.918
 6537SOL     OW20430   4.297   0.870   6.615
 6537SOL    HW120431   4.341   0.959   6.606
 6537SOL    HW220432   4.234   0.870   6.692
 6538SOL     OW20433   5.084   0.862   6.631
 6538SOL    HW120434   5.009   0.862   6.565
 6538SOL    HW220435   5.121   0.770   6.640
 6539SOL     OW20436   4.933   0.525   5.861
 6539SOL    HW120437   4.946   0.441   5.915
 6539SOL    HW220438   4.904   0.599   5.921
 6540SOL     OW20439   4.031   0.213   6.817
 6540SOL    HW120440   4.008   0.250   6.907
 6540SOL    HW220441   4.001   0.118   6.811
 6541SOL     OW20442   3.761   1.310   6.868
 6541SOL    HW120443   3.814   1.261   6.936
 6541SOL    HW220444   3.783   1.408   6.873
 6542SOL     OW20445   4.456   0.634   6.650
 6542SOL    HW120446   4.515   0.608   6.574
 6542SOL    HW220447   4.428   0.730   6.639
 6543SOL     OW20448   4.031   0.063   6.204
 6543SOL    HW120449   4.020   0.157   6.237
 6543SOL    HW220450   4.026   0.000   6.281
 6544SOL     OW20451   5.346   0.367   5.960
 6544SOL    HW120452   5.348   0.291   6.024
 6544SOL    HW220453   5.298   0.444   6.000
 6545SOL     OW20454   4.747   0.766   6.552
 6545SOL    HW120455   4.762   0.787   6.648
 6545SOL    HW220456   4.717   0.671   6.543
 6546SOL     OW20457   5.264   0.274   5.711
 6546SOL    HW120458   5.203   0.199   5.734
 6546SOL    HW220459   5.286   0.326   5.794
 6547SOL     OW20460   5.027   0.838   5.628
 6547SOL    HW120461   5.061   0.745   5.643
 6547SOL    HW220462   5.045   0.865   5.533
 6548SOL     OW20463   4.792   1.333   6.435
 6548SOL    HW120464   4.799   1.249   6.380
 6548SOL    HW220465   4.854   1.402   6.399
 6549SOL     OW20466   4.043   0.810   6.535
 6549SOL    HW120467   4.136   0.846   6.540
 6549SOL    HW220468   4.037   0.725   6.587
 6550SOL     OW20469   4.063   0.509   6.592
 6550SOL    HW120470   4.011   0.426   6.575
 6550SOL    HW220471   4.140   0.514   6.528
 6551SOL     OW20472   4.884   0.207   7.063
 6551SOL    HW120473   4.884   0.271   7.140
 6551SOL    HW220474   4.912   0.255   6.980
 6552SOL     OW20475   3.732   1.326   5.786
 6552SOL    HW120476   3.639   1.347   5.755
 6552SOL    HW220477   3.742   1.227   5.799
 6553SOL     OW20478   3.812   1.801   6.513
 6553SOL    HW120479   3.770   1.715   6.486
 6553SOL    HW220480   3.906   1.804   6.479
 6554SOL     OW20481   4.228   1.568   6.496
 6554SOL    HW120482   4.294   1.642   6.505
 6554SOL    HW220483   4.272   1.489   6.454
 6555SOL     OW20484   4.726   0.796   6.824
 6555SOL    HW120485   4.767   0.764   6.910
 6555SOL    HW220486   4.630   0.769   6.821
 6556SOL     OW20487   3.764   0.544   6.700
 6556SOL    HW120488   3.849   0.511   6.659
 6556SOL    HW220489   3.777   0.559   6.798
 6557SOL     OW20490   4.539   0.572   5.911
 6557SOL    HW120491   4.546   0.483   5.865
 6557SOL    HW220492   4.445   0.606   5.903
 6558SOL     OW20493   5.381   0.604   6.792
 6558SOL    HW120494   5.343   0.535   6.854
 6558SOL    HW220495   5.463   0.568   6.748
 6559SOL     OW20496   4.395   0.464   6.855
 6559SOL    HW120497   4.361   0.375   6.825
 6559SOL    HW220498   4.421   0.518   6.775
 6560SOL     OW20499   4.654   1.678   7.051
 6560SOL    HW120500   4.630   1.660   6.956
 6560SOL    HW220501   4.684   1.772   7.061
 6561SOL     OW20502   4.197   0.500   5.777
 6561SOL    HW120503   4.258   0.580   5.781
 6561SOL    HW220504   4.102   0.531   5.784
 6562SOL     OW20505   3.883   1.137   7.052
 6562SOL    HW120506   3.905   1.076   7.128
 6562SOL    HW220507   3.893   1.088   6.966
 6563SOL     OW20508   5.071   1.059   6.820
 6563SOL    HW120509   5.095   0.996   6.746
 6563SOL    HW220510   4.981   1.099   6.802
 6564SOL     OW20511   5.026   0.855   5.895
 6564SOL    HW120512   4.940   0.824   5.937
 6564SOL    HW220513   5.022   0.841   5.796
 6565SOL     OW20514   5.483   1.747   6.740
 6565SOL    HW120515   5.544   1.777   6.667
 6565SOL    HW220516   5.445   1.658   6.718
 6566SOL     OW20517   4.976   1.731   6.714
 6566SOL    HW120518   5.060   1.736   6.660
 6566SOL    HW220519   4.953   1.635   6.732
 6567SOL     OW20520   3.807   1.258   6.608
 6567SOL    HW120521   3.802   1.257   6.708
 6567SOL    HW220522   3.724   1.217   6.570
 6568SOL     OW20523   5.450   0.135   6.109
 6568SOL    HW120524   5.523   0.118   6.042
 6568SOL    HW220525   5.419   0.048   6.147
 6569SOL     OW20526   5.112   1.573   6.063
 6569SOL    HW120527   5.179   1.585   5.989
 6569SOL    HW220528   5.072   1.662   6.086
 6570SOL     OW20529   5.004   0.927   6.258
 6570SOL    HW120530   5.064   0.846   6.260
 6570SOL    HW220531   5.044   0.996   6.198
 6571SOL     OW20532   4.396   1.616   5.740
 6571SOL    HW120533   4.405   1.626   5.641
 6571SOL    HW220534   4.356   1.527   5.761
 6572SOL     OW20535   5.565   0.175   6.549
 6572SOL    HW120536   5.604   0.090   6.513
 6572SOL    HW220537   5.467   0.177   6.530
 6573SOL     OW20538   3.987   0.326   6.306
 6573SOL    HW120539   3.908   0.377   6.272
 6573SOL    HW220540   3.978   0.311   6.404
 6574SOL     OW20541   4.918   1.612   5.617
 6574SOL    HW120542   4.924   1.519   5.654
 6574SOL    HW220543   4.859   1.612   5.537
 6575SOL     OW20544   4.546   1.002   6.958
 6575SOL    HW120545   4.586   1.001   6.866
 6575SOL    HW220546   4.556   1.094   6.998
 6576SOL     OW20547   4.640   0.910   5.877
 6576SOL    HW120548   4.703   0.948   5.809
 6576SOL    HW220549   4.680   0.827   5.916
 6577SOL     OW20550   5.228   1.607   5.630
 6577SOL    HW120551   5.136   1.644   5.637
 6577SOL    HW220552   5.266   1.627   5.540
 6578SOL     OW20553   5.338   1.292   6.875
 6578SOL    HW120554   5.398   1.295   6.955
 6578SOL    HW220555   5.263   1.356   6.888
 6579SOL     OW20556   4.763   1.098   6.282
 6579SOL    HW120557   4.693   1.051   6.336
 6579SOL    HW220558   4.822   1.030   6.239
 6580SOL     OW20559   4.738   0.236   6.557
 6580SOL    HW120560   4.730   0.200   6.464
 6580SOL    HW220561   4.736   0.160   6.622
 6581SOL     OW20562   4.314   1.487   6.077
 6581SOL    HW120563   4.356   1.429   6.007
 6581SOL    HW220564   4.270   1.566   6.033
 6582SOL     OW20565   5.433   0.385   6.967
 6582SOL    HW120566   5.506   0.454   6.971
 6582SOL    HW220567   5.461   0.310   6.908
 6583SOL     OW20568   3.979   1.348   5.876
 6583SOL    HW120569   3.883   1.349   5.849
 6583SOL    HW220570   3.991   1.401   5.960
 6584SOL     OW20571   3.799   0.345   5.619
 6584SOL    HW120572   3.707   0.317   5.590
 6584SOL    HW220573   3.830   0.422   5.563
 6585SOL     OW20574   3.796   0.166   5.904
 6585SOL    HW120575   3.779   0.249   5.850
 6585SOL    HW220576   3.886   0.129   5.882
 6586SOL     OW20577   4.907   1.335   5.705
 6586SOL    HW120578   4.808   1.324   5.707
 6586SOL    HW220579   4.941   1.350   5.798
 6587SOL     OW20580   5.217   1.767   6.545
 6587SOL    HW120581   5.250   1.831   6.476
 6587SOL    HW220582   5.283   1.761   6.620
 6588SOL     OW20583   5.174   1.220   7.219
 6588SOL    HW120584   5.165   1.210   7.318
 6588SOL    HW220585   5.270   1.213   7.193
 6589SOL     OW20586   4.114   1.741   7.146
 6589SOL    HW120587   4.023   1.782   7.144
 6589SOL    HW220588   4.107   1.647   7.178
 6590SOL     OW20589   5.398   0.883   6.840
 6590SOL    HW120590   5.371   0.794   6.803
 6590SOL    HW220591   5.399   0.951   6.767
 6591SOL     OW20592   4.949   0.325   6.035
 6591SOL    HW120593   5.014   0.251   6.024
 6591SOL    HW220594   4.969   0.375   6.119
 6592SOL     OW20595   4.318   0.745   6.238
 6592SOL    HW120596   4.368   0.830   6.219
 6592SOL    HW220597   4.230   0.747   6.190
 6593SOL     OW20598   5.454   0.934   7.103
 6593SOL    HW120599   5.492   1.025   7.118
 6593SOL    HW220600   5.446   0.917   7.004
 6594SOL     OW20601   4.583   1.374   5.602
 6594SOL    HW120602   4.537   1.389   5.690
 6594SOL    HW220603   4.627   1.459   5.572
 6595SOL     OW20604   4.385   1.790   6.539
 6595SOL    HW120605   4.339   1.878   6.526
 6595SOL    HW220606   4.484   1.802   6.532
 6596SOL     OW20607   4.583   0.956   6.447
 6596SOL    HW120608   4.637   0.887   6.495
 6596SOL    HW220609   4.551   1.025   6.513
 6597SOL     OW20610   4.807   0.984   5.673
 6597SOL    HW120611   4.784   1.037   5.591
 6597SOL    HW220612   4.888   0.928   5.654
 6598SOL     OW20613   5.585   1.569   6.437
 6598SOL    HW120614   5.514   1.557   6.367
 6598SOL    HW220615   5.586   1.490   6.497
 6599SOL     OW20616   3.803   1.240   6.239
 6599SOL    HW120617   3.802   1.193   6.327
 6599SOL    HW220618   3.885   1.212   6.188
 6600SOL     OW20619   5.548   0.192   6.813
 6600SOL    HW120620   5.544   0.102   6.857
 6600SOL    HW220621   5.551   0.181   6.714
 6601SOL     OW20622   4.152   0.424   6.106
 6601SOL    HW120623   4.182   0.352   6.044
 6601SOL    HW220624   4.113   0.384   6.189
 6602SOL     OW20625   5.429   1.487   6.690
 6602SOL    HW120626   5.336   1.462   6.663
 6602SOL    HW220627   5.455   1.437   6.772
 6603SOL     OW20628   4.041   0.547   6.866
 6603SOL    HW120629   4.079   0.488   6.938
 6603SOL    HW220630   4.081   0.521   6.778
 6604SOL     OW20631   4.536   1.586   6.273
 6604SOL    HW120632   4.568   1.596   6.179
 6604SOL    HW220633   4.457   1.524   6.275
 6605SOL     OW20634   5.148   0.214   6.698
 6605SOL    HW120635   5.200   0.149   6.753
 6605SOL    HW220636   5.099   0.277   6.759
 6606SOL     OW20637   4.725   0.034   6.740
 6606SOL    HW120638   4.662  -0.038   6.709
 6606SOL    HW220639   4.818  -0.002   6.740
 6607SOL     OW20640   4.494   1.330   5.887
 6607SOL    HW120641   4.448   1.243   5.904
 6607SOL    HW220642   4.585   1.327   5.928
 6608SOL     OW20643   4.342   1.567   6.870
 6608SOL    HW120644   4.337   1.649   6.927
 6608SOL    HW220645   4.431   1.564   6.825
 6609SOL     OW20646   5.076   0.052   5.754
 6609SOL    HW120647   5.111   0.011   5.670
 6609SOL    HW220648   4.986   0.014   5.774
 6610SOL     OW20649   5.024   0.453   6.277
 6610SOL    HW120650   4.965   0.533   6.281
 6610SOL    HW220651   5.039   0.418   6.370
 6611SOL     OW20652   5.317   0.221   6.468
 6611SOL    HW120653   5.233   0.220   6.522
 6611SOL    HW220654   5.319   0.304   6.412
 6612SOL     OW20655   3.763   1.077   5.886
 6612SOL    HW120656   3.862   1.066   5.877
 6612SOL    HW220657   3.723   0.991   5.918
 6613SOL     OW20658   4.599   1.646   5.923
 6613SOL    HW120659   4.522   1.611   5.869
 6613SOL    HW220660   4.567   1.717   5.985
 6614SOL     OW20661   3.954   2.490   0.113
 6614SOL    HW120662   3.861   2.488   0.150
 6614SOL    HW220663   3.955   2.451   0.021
 6615SOL     OW20664   3.949   2.137   0.996
 6615SOL    HW120665   3.984   2.120   1.088
 6615SOL    HW220666   3.861   2.092   0.984
 6616SOL     OW20667   3.743   2.230   0.647
 6616SOL    HW120668   3.661   2.273   0.686
 6616SOL    HW220669   3.715   2.157   0.584
 6617SOL     OW20670   4.293   3.137   1.165
 6617SOL    HW120671   4.200   3.130   1.128
 6617SOL    HW220672   4.304   3.226   1.209
 6618SOL     OW20673   5.279   3.373   0.703
 6618SOL    HW120674   5.222   3.357   0.784
 6618SOL    HW220675   5.220   3.383   0.623
 6619SOL     OW20676   4.859   2.565   0.717
 6619SOL    HW120677   4.916   2.643   0.692
 6619SOL    HW220678   4.799   2.591   0.793
 6620SOL     OW20679   5.479   2.469   0.231
 6620SOL    HW120680   5.467   2.456   0.132
 6620SOL    HW220681   5.449   2.388   0.280
 6621SOL     OW20682   4.492   3.006   1.023
 6621SOL    HW120683   4.414   3.023   1.083
 6621SOL    HW220684   4.526   3.093   0.987
 6622SOL     OW20685   4.574   2.660   1.823
 6622SOL    HW120686   4.570   2.736   1.888
 6622SOL    HW220687   4.596   2.696   1.732
 6623SOL     OW20688   4.409   2.874   0.665
 6623SOL    HW120689   4.478   2.858   0.735
 6623SOL    HW220690   4.336   2.931   0.703
 6624SOL     OW20691   4.410   3.023   1.803
 6624SOL    HW120692   4.470   3.102   1.817
 6624SOL    HW220693   4.324   3.054   1.762
 6625SOL     OW20694   4.059   3.297   1.061
 6625SOL    HW120695   3.981   3.266   1.008
 6625SOL    HW220696   4.117   3.355   1.004
 6626SOL     OW20697   5.184   3.367   1.339
 6626SOL    HW120698   5.208   3.461   1.365
 6626SOL    HW220699   5.168   3.313   1.421
 6627SOL     OW20700   4.162   2.254   1.499
 6627SOL    HW120701   4.244   2.198   1.508
 6627SOL    HW220702   4.081   2.196   1.503
 6628SOL     OW20703   5.327   2.309   0.737
 6628SOL    HW120704   5.253   2.355   0.687
 6628SOL    HW220705   5.378   2.377   0.790
 6629SOL     OW20706   3.955   3.575   0.483
 6629SOL    HW120707   3.989   3.652   0.537
 6629SOL    HW220708   3.999   3.575   0.393
 6630SOL     OW20709   4.851   3.203   1.690
 6630SOL    HW120710   4.898   3.203   1.778
 6630SOL    HW220711   4.803   3.116   1.679
 6631SOL     OW20712   3.954   3.296   0.538
 6631SOL    HW120713   3.928   3.392   0.538
 6631SOL    HW220714   3.883   3.242   0.583
 6632SOL     OW20715   3.964   2.953   0.886
 6632SOL    HW120716   3.978   2.869   0.938
 6632SOL    HW220717   3.909   3.017   0.941
 6633SOL     OW20718   4.344   3.648   1.439
 6633SOL    HW120719   4.252   3.631   1.474
 6633SOL    HW220720   4.372   3.740   1.465
 6634SOL     OW20721   4.330   2.826   0.123
 6634SOL    HW120722   4.337   2.910   0.069
 6634SOL    HW220723   4.376   2.839   0.211
 6635SOL     OW20724   5.318   1.976   1.480
 6635SOL    HW120725   5.300   2.043   1.408
 6635SOL    HW220726   5.315   2.022   1.569
 6636SOL     OW20727   3.846   2.505   0.563
 6636SOL    HW120728   3.801   2.417   0.580
 6636SOL    HW220729   3.845   2.559   0.647
 6637SOL     OW20730   5.566   3.629   0.359
 6637SOL    HW120731   5.620   3.600   0.439
 6637SOL    HW220732   5.596   3.719   0.330
 6638SOL     OW20733   3.751   3.458   0.117
 6638SOL    HW120734   3.732   3.362   0.138
 6638SOL    HW220735   3.718   3.516   0.192
 6639SOL     OW20736   5.413   2.784   0.612
 6639SOL    HW120737   5.508   2.755   0.620
 6639SOL    HW220738   5.405   2.849   0.537
 6640SOL     OW20739   5.365   2.970   0.432
 6640SOL    HW120740   5.451   2.972   0.380
 6640SOL    HW220741   5.379   3.017   0.520
 6641SOL     OW20742   3.837   2.599   1.597
 6641SOL    HW120743   3.925   2.586   1.642
 6641SOL    HW220744   3.824   2.696   1.575
 6642SOL     OW20745   4.337   3.227   0.726
 6642SOL    HW120746   4.288   3.140   0.735
 6642SOL    HW220747   4.314   3.270   0.639
 6643SOL     OW20748   5.017   3.090   1.423
 6643SOL    HW120749   5.054   3.017   1.365
 6643SOL    HW220750   5.069   3.095   1.508
 6644SOL     OW20751   4.533   1.866   0.502
 6644SOL    HW120752   4.573   1.957   0.493
 6644SOL    HW220753   4.433   1.874   0.508
 6645SOL     OW20754   3.921   2.838   1.264
 6645SOL    HW120755   4.010   2.793   1.250
 6645SOL    HW220756   3.848   2.773   1.245
 6646SOL     OW20757   5.249   2.861   0.190
 6646SOL    HW120758   5.186   2.785   0.203
 6646SOL    HW220759   5.297   2.879   0.276
 6647SOL     OW20760   4.911   3.654   1.616
 6647SOL    HW120761   4.935   3.714   1.540
 6647SOL    HW220762   4.918   3.559   1.586
 6648SOL     OW20763   4.041   2.113   1.801
 6648SOL    HW120764   4.112   2.184   1.807
 6648SOL    HW220765   3.953   2.152   1.829
 6649SOL     OW20766   5.190   3.279   0.953
 6649SOL    HW120767   5.131   3.285   1.033
 6649SOL    HW220768   5.175   3.191   0.907
 6650SOL     OW20769   5.391   3.576   0.572
 6650SOL    HW120770   5.350   3.553   0.484
 6650SOL    HW220771   5.373   3.502   0.637
 6651SOL     OW20772   4.322   2.591   0.270
 6651SOL    HW120773   4.346   2.660   0.202
 6651SOL    HW220774   4.244   2.624   0.324
 6652SOL     OW20775   5.005   2.207   0.944
 6652SOL    HW120776   4.919   2.157   0.931
 6652SOL    HW220777   5.067   2.153   1.000
 6653SOL     OW20778   5.300   3.524   0.307
 6653SOL    HW120779   5.389   3.570   0.310
 6653SOL    HW220780   5.279   3.500   0.212
 6654SOL     OW20781   4.531   2.467   1.465
 6654SOL    HW120782   4.484   2.464   1.554
 6654SOL    HW220783   4.480   2.412   1.399
 6655SOL     OW20784   5.118   2.331   1.674
 6655SOL    HW120785   5.098   2.374   1.762
 6655SOL    HW220786   5.196   2.269   1.683
 6656SOL     OW20787   4.697   2.752   1.572
 6656SOL    HW120788   4.743   2.668   1.543
 6656SOL    HW220789   4.641   2.786   1.497
 6657SOL     OW20790   4.715   2.272   1.242
 6657SOL    HW120791   4.638   2.306   1.296
 6657SOL    HW220792   4.681   2.221   1.163
 6658SOL     OW20793   4.765   2.563   0.429
 6658SOL    HW120794   4.791   2.559   0.525
 6658SOL    HW220795   4.680   2.512   0.415
 6659SOL     OW20796   3.800   2.673   0.789
 6659SOL    HW120797   3.899   2.661   0.798
 6659SOL    HW220798   3.776   2.768   0.810
 6660SOL     OW20799   3.854   3.683   1.571
 6660SOL    HW120800   3.844   3.668   1.670
 6660SOL    HW220801   3.768   3.719   1.535
 6661SOL     OW20802   4.589   2.210   0.195
 6661SOL    HW120803   4.648   2.273   0.146
 6661SOL    HW220804   4.608   2.116   0.166
 6662SOL     OW20805   5.443   2.447   1.831
 6662SOL    HW120806   5.417   2.536   1.795
 6662SOL    HW220807   5.441   2.379   1.758
 6663SOL     OW20808   5.086   3.006   0.545
 6663SOL    HW120809   5.169   2.977   0.497
 6663SOL    HW220810   5.037   3.073   0.489
 6664SOL     OW20811   4.274   2.058   0.885
 6664SOL    HW120812   4.269   2.053   0.985
 6664SOL    HW220813   4.276   2.154   0.856
 6665SOL     OW20814   4.732   3.318   0.477
 6665SOL    HW120815   4.686   3.390   0.425
 6665SOL    HW220816   4.728   3.338   0.575
 6666SOL     OW20817   4.075   3.663   0.853
 6666SOL    HW120818   4.125   3.577   0.859
 6666SOL    HW220819   4.140   3.740   0.850
 6667SOL     OW20820   5.519   2.928   0.873
 6667SOL    HW120821   5.457   2.913   0.797
 6667SOL    HW220822   5.467   2.939   0.958
 6668SOL     OW20823   4.951   3.412   1.506
 6668SOL    HW120824   4.957   3.335   1.570
 6668SOL    HW220825   4.899   3.386   1.426
 6669SOL     OW20826   4.045   2.805   0.242
 6669SOL    HW120827   4.127   2.844   0.200
 6669SOL    HW220828   4.018   2.723   0.193
 6670SOL     OW20829   5.182   2.597   0.728
 6670SOL    HW120830   5.177   2.532   0.803
 6670SOL    HW220831   5.262   2.656   0.741
 6671SOL     OW20832   4.185   3.128   1.727
 6671SOL    HW120833   4.135   3.129   1.641
 6671SOL    HW220834   4.122   3.110   1.803
 6672SOL     OW20835   4.835   3.638   0.237
 6672SOL    HW120836   4.775   3.576   0.287
 6672SOL    HW220837   4.866   3.594   0.152
 6673SOL     OW20838   3.926   2.147   1.498
 6673SOL    HW120839   3.846   2.207   1.485
 6673SOL    HW220840   3.916   2.098   1.584
 6674SOL     OW20841   5.356   3.239   0.081
 6674SOL    HW120842   5.324   3.333   0.071
 6674SOL    HW220843   5.280   3.176   0.069
 6675SOL     OW20844   4.188   3.605   0.323
 6675SOL    HW120845   4.221   3.644   0.409
 6675SOL    HW220846   4.264   3.598   0.258
 6676SOL     OW20847   3.973   3.647   1.241
 6676SOL    HW120848   4.030   3.582   1.291
 6676SOL    HW220849   3.957   3.614   1.148
 6677SOL     OW20850   4.664   3.560   0.904
 6677SOL    HW120851   4.744   3.503   0.925
 6677SOL    HW220852   4.615   3.520   0.827
 6678SOL     OW20853   4.106   2.562   0.480
 6678SOL    HW120854   4.151   2.472   0.477
 6678SOL    HW220855   4.012   2.551   0.513
 6679SOL     OW20856   5.271   2.084   1.729
 6679SOL    HW120857   5.266   2.121   1.821
 6679SOL    HW220858   5.199   2.015   1.717
 6680SOL     OW20859   4.505   2.126   1.749
 6680SOL    HW120860   4.572   2.065   1.792
 6680SOL    HW220861   4.432   2.145   1.814
 6681SOL     OW20862   4.612   3.376   1.195
 6681SOL    HW120863   4.589   3.351   1.101
 6681SOL    HW220864   4.673   3.307   1.234
 6682SOL     OW20865   5.075   2.452   1.433
 6682SOL    HW120866   5.103   2.409   1.518
 6682SOL    HW220867   5.100   2.548   1.434
 6683SOL     OW20868   4.527   3.264   0.924
 6683SOL    HW120869   4.617   3.278   0.882
 6683SOL    HW220870   4.456   3.266   0.853
 6684SOL     OW20871   4.646   2.365   0.899
 6684SOL    HW120872   4.621   2.356   0.803
 6684SOL    HW220873   4.694   2.283   0.930
 6685SOL     OW20874   4.263   1.926   0.512
 6685SOL    HW120875   4.182   1.927   0.570
 6685SOL    HW220876   4.266   2.009   0.457
 6686SOL     OW20877   5.158   3.050   0.041
 6686SOL    HW120878   5.190   2.974   0.098
 6686SOL    HW220879   5.066   3.077   0.071
 6687SOL     OW20880   4.659   2.098   0.480
 6687SOL    HW120881   4.611   2.139   0.402
 6687SOL    HW220882   4.758   2.096   0.461
 6688SOL     OW20883   4.800   2.545   1.464
 6688SOL    HW120884   4.720   2.484   1.467
 6688SOL    HW220885   4.881   2.492   1.440
 6689SOL     OW20886   4.951   3.432   0.793
 6689SOL    HW120887   4.972   3.506   0.728
 6689SOL    HW220888   5.019   3.432   0.866
 6690SOL     OW20889   4.183   3.014   0.741
 6690SOL    HW120890   4.112   2.987   0.806
 6690SOL    HW220891   4.157   2.986   0.648
 6691SOL     OW20892   4.995   3.659   0.591
 6691SOL    HW120893   5.039   3.723   0.527
 6691SOL    HW220894   4.945   3.711   0.661
 6692SOL     OW20895   4.756   2.411   0.016
 6692SOL    HW120896   4.715   2.493  -0.023
 6692SOL    HW220897   4.820   2.437   0.089
 6693SOL     OW20898   3.802   2.418   1.386
 6693SOL    HW120899   3.894   2.417   1.345
 6693SOL    HW220900   3.796   2.492   1.453
 6694SOL     OW20901   4.285   2.084   1.147
 6694SOL    HW120902   4.323   2.000   1.184
 6694SOL    HW220903   4.197   2.103   1.191
 6695SOL     OW20904   4.590   2.316   0.642
 6695SOL    HW120905   4.558   2.388   0.580
 6695SOL    HW220906   4.614   2.235   0.589
 6696SOL     OW20907   4.741   1.901   0.753
 6696SOL    HW120908   4.669   1.906   0.684
 6696SOL    HW220909   4.717   1.832   0.822
 6697SOL     OW20910   5.153   3.035   0.867
 6697SOL    HW120911   5.098   2.951   0.860
 6697SOL    HW220912   5.179   3.064   0.775
 6698SOL     OW20913   5.190   2.452   0.992
 6698SOL    HW120914   5.160   2.357   0.999
 6698SOL    HW220915   5.263   2.468   1.058
 6699SOL     OW20916   5.581   2.695   0.377
 6699SOL    HW120917   5.623   2.631   0.441
 6699SOL    HW220918   5.543   2.644   0.299
 6700SOL     OW20919   4.212   3.247   0.174
 6700SOL    HW120920   4.125   3.232   0.221
 6700SOL    HW220921   4.195   3.273   0.079
 6701SOL     OW20922   5.388   3.142   0.657
 6701SOL    HW120923   5.487   3.150   0.671
 6701SOL    HW220924   5.343   3.226   0.688
 6702SOL     OW20925   5.114   2.437   0.078
 6702SOL    HW120926   5.060   2.416   0.159
 6702SOL    HW220927   5.205   2.396   0.087
 6703SOL     OW20928   4.251   2.118   0.328
 6703SOL    HW120929   4.278   2.059   0.253
 6703SOL    HW220930   4.251   2.213   0.297
 6704SOL     OW20931   5.478   3.085   1.588
 6704SOL    HW120932   5.569   3.046   1.575
 6704SOL    HW220933   5.486   3.181   1.612
 6705SOL     OW20934   4.788   3.209   1.340
 6705SOL    HW120935   4.708   3.186   1.395
 6705SOL    HW220936   4.871   3.183   1.389
 6706SOL     OW20937   5.316   3.491   1.625
 6706SOL    HW120938   5.343   3.525   1.535
 6706SOL    HW220939   5.395   3.453   1.671
 6707SOL     OW20940   4.835   3.057   1.100
 6707SOL    HW120941   4.795   3.101   1.181
 6707SOL    HW220942   4.794   3.094   1.017
 6708SOL     OW20943   5.362   2.961   1.079
 6708SOL    HW120944   5.367   3.042   1.138
 6708SOL    HW220945   5.276   2.963   1.028
 6709SOL     OW20946   4.639   1.951   1.402
 6709SOL    HW120947   4.664   1.931   1.307
 6709SOL    HW220948   4.711   2.007   1.444
 6710SOL     OW20949   4.704   2.978   1.719
 6710SOL    HW120950   4.605   2.984   1.729
 6710SOL    HW220951   4.727   2.898   1.663
 6711SOL     OW20952   4.429   2.912   0.368
 6711SOL    HW120953   4.415   2.919   0.467
 6711SOL    HW220954   4.513   2.861   0.350
 6712SOL     OW20955   4.134   2.675   1.251
 6712SOL    HW120956   4.220   2.687   1.301
 6712SOL    HW220957   4.092   2.588   1.278
 6713SOL     OW20958   4.998   2.248   1.262
 6713SOL    HW120959   5.019   2.322   1.326
 6713SOL    HW220960   4.909   2.265   1.219
 6714SOL     OW20961   3.788   3.426   1.331
 6714SOL    HW120962   3.742   3.508   1.297
 6714SOL    HW220963   3.886   3.445   1.340
 6715SOL     OW20964   4.091   2.962   0.501
 6715SOL    HW120965   4.084   3.045   0.445
 6715SOL    HW220966   4.095   2.882   0.441
 6716SOL     OW20967   4.290   2.399   0.865
 6716SOL    HW120968   4.302   2.465   0.791
 6716SOL    HW220969   4.336   2.433   0.948
 6717SOL     OW20970   4.976   3.210   0.388
 6717SOL    HW120971   5.026   3.287   0.428
 6717SOL    HW220972   4.881   3.212   0.420
 6718SOL     OW20973   4.996   3.307   1.142
 6718SOL    HW120974   5.043   3.320   1.229
 6718SOL    HW220975   4.930   3.233   1.151
 6719SOL     OW20976   5.306   2.501   0.472
 6719SOL    HW120977   5.275   2.562   0.545
 6719SOL    HW220978   5.356   2.553   0.403
 6720SOL     OW20979   4.078   3.372   1.329
 6720SOL    HW120980   4.057   3.328   1.242
 6720SOL    HW220981   4.175   3.398   1.332
 6721SOL     OW20982   4.126   2.613   1.598
 6721SOL    HW120983   4.194   2.668   1.551
 6721SOL    HW220984   4.166   2.525   1.625
 6722SOL     OW20985   5.311   2.641   1.670
 6722SOL    HW120986   5.219   2.679   1.665
 6722SOL    HW220987   5.371   2.688   1.605
 6723SOL     OW20988   4.737   1.967   1.770
 6723SOL    HW120989   4.743   2.052   1.718
 6723SOL    HW220990   4.769   1.891   1.713
 6724SOL     OW20991   4.228   1.912   1.740
 6724SOL    HW120992   4.186   1.855   1.670
 6724SOL    HW220993   4.162   1.981   1.772
 6725SOL     OW20994   4.297   2.732   1.029
 6725SOL    HW120995   4.341   2.821   1.020
 6725SOL    HW220996   4.234   2.732   1.106
 6726SOL     OW20997   5.084   2.724   1.045
 6726SOL    HW120998   5.009   2.724   0.979
 6726SOL    HW220999   5.121   2.632   1.054
 6727SOL     OW21000   4.933   2.387   0.275
 6727SOL    HW121001   4.946   2.303   0.329
 6727SOL    HW221002   4.904   2.461   0.335
 6728SOL     OW21003   4.031   2.075   1.231
 6728SOL    HW121004   4.008   2.112   1.321
 6728SOL    HW221005   4.001   1.980   1.225
 6729SOL     OW21006   3.761   3.172   1.282
 6729SOL    HW121007   3.814   3.123   1.350
 6729SOL    HW221008   3.783   3.270   1.287
 6730SOL     OW21009   4.456   2.496   1.064
 6730SOL    HW121010   4.515   2.470   0.988
 6730SOL    HW221011   4.428   2.592   1.053
 6731SOL     OW21012   5.452   2.797   1.854
 6731SOL    HW121013   5.406   2.790   1.765
 6731SOL    HW221014   5.390   2.841   1.920
 6732SOL     OW21015   4.031   1.925   0.618
 6732SOL    HW121016   4.020   2.019   0.651
 6732SOL    HW221017   4.026   1.862   0.695
 6733SOL     OW21018   5.346   2.229   0.374
 6733SOL    HW121019   5.348   2.153   0.438
 6733SOL    HW221020   5.298   2.306   0.414
 6734SOL     OW21021   4.747   2.628   0.966
 6734SOL    HW121022   4.762   2.649   1.062
 6734SOL    HW221023   4.717   2.533   0.957
 6735SOL     OW21024   4.704   3.435   1.700
 6735SOL    HW121025   4.684   3.479   1.612
 6735SOL    HW221026   4.743   3.344   1.684
 6736SOL     OW21027   5.583   3.380   1.605
 6736SOL    HW121028   5.597   3.407   1.510
 6736SOL    HW221029   5.666   3.402   1.658
 6737SOL     OW21030   4.074   2.760   1.804
 6737SOL    HW121031   4.150   2.804   1.852
 6737SOL    HW221032   4.109   2.713   1.722
 6738SOL     OW21033   5.264   2.136   0.125
 6738SOL    HW121034   5.203   2.061   0.148
 6738SOL    HW221035   5.286   2.188   0.208
 6739SOL     OW21036   5.027   2.700   0.042
 6739SOL    HW121037   5.061   2.607   0.057
 6739SOL    HW221038   5.045   2.727  -0.053
 6740SOL     OW21039   4.792   3.195   0.849
 6740SOL    HW121040   4.799   3.111   0.794
 6740SOL    HW221041   4.854   3.264   0.813
 6741SOL     OW21042   4.043   2.672   0.949
 6741SOL    HW121043   4.136   2.708   0.954
 6741SOL    HW221044   4.037   2.587   1.001
 6742SOL     OW21045   4.063   2.371   1.006
 6742SOL    HW121046   4.011   2.288   0.989
 6742SOL    HW221047   4.140   2.376   0.942
 6743SOL     OW21048   4.862   2.242   1.678
 6743SOL    HW121049   4.817   2.305   1.742
 6743SOL    HW221050   4.955   2.273   1.661
 6744SOL     OW21051   4.884   2.069   1.477
 6744SOL    HW121052   4.884   2.133   1.554
 6744SOL    HW221053   4.912   2.117   1.394
 6745SOL     OW21054   3.812   3.663   0.927
 6745SOL    HW121055   3.770   3.577   0.900
 6745SOL    HW221056   3.906   3.666   0.893
 6746SOL     OW21057   4.228   3.430   0.910
 6746SOL    HW121058   4.294   3.504   0.919
 6746SOL    HW221059   4.272   3.351   0.868
 6747SOL     OW21060   4.726   2.658   1.238
 6747SOL    HW121061   4.767   2.626   1.324
 6747SOL    HW221062   4.630   2.631   1.235
 6748SOL     OW21063   3.764   2.406   1.114
 6748SOL    HW121064   3.849   2.373   1.073
 6748SOL    HW221065   3.777   2.421   1.212
 6749SOL     OW21066   3.913   2.382   1.722
 6749SOL    HW121067   3.972   2.342   1.652
 6749SOL    HW221068   3.855   2.453   1.681
 6750SOL     OW21069   5.093   2.812   1.660
 6750SOL    HW121070   5.132   2.901   1.680
 6750SOL    HW221071   5.103   2.792   1.563
 6751SOL     OW21072   4.539   2.434   0.325
 6751SOL    HW121073   4.546   2.345   0.279
 6751SOL    HW221074   4.445   2.468   0.317
 6752SOL     OW21075   5.381   2.466   1.206
 6752SOL    HW121076   5.343   2.397   1.268
 6752SOL    HW221077   5.463   2.430   1.162
 6753SOL     OW21078   3.976   3.426   1.744
 6753SOL    HW121079   3.946   3.483   1.820
 6753SOL    HW221080   3.969   3.329   1.770
 6754SOL     OW21081   4.395   2.326   1.269
 6754SOL    HW121082   4.361   2.237   1.239
 6754SOL    HW221083   4.421   2.380   1.189
 6755SOL     OW21084   4.654   3.540   1.465
 6755SOL    HW121085   4.630   3.522   1.370
 6755SOL    HW221086   4.684   3.634   1.475
 6756SOL     OW21087   4.197   2.362   0.191
 6756SOL    HW121088   4.258   2.442   0.195
 6756SOL    HW221089   4.102   2.393   0.198
 6757SOL     OW21090   3.883   2.999   1.466
 6757SOL    HW121091   3.905   2.938   1.542
 6757SOL    HW221092   3.893   2.950   1.380
 6758SOL     OW21093   5.071   2.921   1.234
 6758SOL    HW121094   5.095   2.858   1.160
 6758SOL    HW221095   4.981   2.961   1.216
 6759SOL     OW21096   5.026   2.717   0.309
 6759SOL    HW121097   4.940   2.686   0.351
 6759SOL    HW221098   5.022   2.703   0.210
 6760SOL     OW21099   5.483   3.609   1.154
 6760SOL    HW121100   5.544   3.639   1.081
 6760SOL    HW221101   5.445   3.520   1.132
 6761SOL     OW21102   4.976   3.593   1.128
 6761SOL    HW121103   5.060   3.598   1.074
 6761SOL    HW221104   4.953   3.497   1.146
 6762SOL     OW21105   3.807   3.120   1.022
 6762SOL    HW121106   3.802   3.119   1.122
 6762SOL    HW221107   3.724   3.079   0.984
 6763SOL     OW21108   4.412   3.524   1.716
 6763SOL    HW121109   4.356   3.605   1.725
 6763SOL    HW221110   4.464   3.528   1.630
 6764SOL     OW21111   4.627   1.948   0.133
 6764SOL    HW121112   4.678   1.949   0.047
 6764SOL    HW221113   4.683   1.906   0.204
 6765SOL     OW21114   5.450   1.997   0.523
 6765SOL    HW121115   5.523   1.980   0.456
 6765SOL    HW221116   5.419   1.910   0.561
 6766SOL     OW21117   5.112   3.435   0.477
 6766SOL    HW121118   5.179   3.447   0.403
 6766SOL    HW221119   5.072   3.524   0.500
 6767SOL     OW21120   3.854   3.656   1.851
 6767SOL    HW121121   3.813   3.582   1.904
 6767SOL    HW221122   3.918   3.707   1.909
 6768SOL     OW21123   5.004   2.789   0.672
 6768SOL    HW121124   5.064   2.708   0.674
 6768SOL    HW221125   5.044   2.858   0.612
 6769SOL     OW21126   4.554   3.135   1.422
 6769SOL    HW121127   4.549   3.168   1.517
 6769SOL    HW221128   4.468   3.154   1.376
 6770SOL     OW21129   4.396   3.478   0.154
 6770SOL    HW121130   4.405   3.488   0.055
 6770SOL    HW221131   4.356   3.389   0.175
 6771SOL     OW21132   5.374   3.582   1.394
 6771SOL    HW121133   5.427   3.592   1.310
 6771SOL    HW221134   5.347   3.672   1.428
 6772SOL     OW21135   5.565   2.037   0.963
 6772SOL    HW121136   5.604   1.952   0.927
 6772SOL    HW221137   5.467   2.039   0.944
 6773SOL     OW21138   3.987   2.188   0.720
 6773SOL    HW121139   3.908   2.239   0.686
 6773SOL    HW221140   3.978   2.173   0.818
 6774SOL     OW21141   4.918   3.474   0.031
 6774SOL    HW121142   4.924   3.381   0.068
 6774SOL    HW221143   4.859   3.474  -0.049
 6775SOL     OW21144   4.546   2.864   1.372
 6775SOL    HW121145   4.586   2.863   1.280
 6775SOL    HW221146   4.556   2.956   1.412
 6776SOL     OW21147   4.640   2.772   0.291
 6776SOL    HW121148   4.703   2.810   0.223
 6776SOL    HW221149   4.680   2.689   0.330
 6777SOL     OW21150   5.228   3.469   0.044
 6777SOL    HW121151   5.136   3.506   0.051
 6777SOL    HW221152   5.266   3.489  -0.046
 6778SOL     OW21153   4.096   3.150   1.490
 6778SOL    HW121154   4.083   3.243   1.456
 6778SOL    HW221155   4.012   3.098   1.477
 6779SOL     OW21156   5.338   3.154   1.289
 6779SOL    HW121157   5.398   3.157   1.369
 6779SOL    HW221158   5.263   3.218   1.302
 6780SOL     OW21159   4.763   2.960   0.696
 6780SOL    HW121160   4.693   2.913   0.750
 6780SOL    HW221161   4.822   2.892   0.653
 6781SOL     OW21162   4.738   2.098   0.971
 6781SOL    HW121163   4.730   2.062   0.878
 6781SOL    HW221164   4.736   2.022   1.036
 6782SOL     OW21165   4.314   3.349   0.491
 6782SOL    HW121166   4.356   3.291   0.421
 6782SOL    HW221167   4.270   3.428   0.447
 6783SOL     OW21168   5.433   2.247   1.381
 6783SOL    HW121169   5.506   2.316   1.385
 6783SOL    HW221170   5.461   2.172   1.322
 6784SOL     OW21171   3.979   3.210   0.290
 6784SOL    HW121172   3.883   3.211   0.263
 6784SOL    HW221173   3.991   3.263   0.374
 6785SOL     OW21174   3.829   2.875   1.726
 6785SOL    HW121175   3.752   2.842   1.780
 6785SOL    HW221176   3.914   2.845   1.768
 6786SOL     OW21177   4.396   2.065   1.489
 6786SOL    HW121178   4.486   2.049   1.449
 6786SOL    HW221179   4.404   2.070   1.588
 6787SOL     OW21180   3.799   2.207   0.033
 6787SOL    HW121181   3.707   2.179   0.004
 6787SOL    HW221182   3.830   2.284  -0.023
 6788SOL     OW21183   5.164   2.718   1.398
 6788SOL    HW121184   5.107   2.770   1.335
 6788SOL    HW221185   5.260   2.730   1.374
 6789SOL     OW21186   3.796   2.028   0.318
 6789SOL    HW121187   3.779   2.111   0.264
 6789SOL    HW221188   3.886   1.991   0.296
 6790SOL     OW21189   4.907   3.197   0.119
 6790SOL    HW121190   4.808   3.186   0.121
 6790SOL    HW221191   4.941   3.212   0.212
 6791SOL     OW21192   4.337   2.704   1.431
 6791SOL    HW121193   4.393   2.785   1.414
 6791SOL    HW221194   4.396   2.624   1.434
 6792SOL     OW21195   5.217   3.629   0.959
 6792SOL    HW121196   5.250   3.693   0.890
 6792SOL    HW221197   5.283   3.623   1.034
 6793SOL     OW21198   4.440   2.427   1.708
 6793SOL    HW121199   4.459   2.492   1.782
 6793SOL    HW221200   4.500   2.347   1.717
 6794SOL     OW21201   5.174   3.082   1.633
 6794SOL    HW121202   5.165   3.072   1.732
 6794SOL    HW221203   5.270   3.075   1.607
 6795SOL     OW21204   4.114   3.603   1.560
 6795SOL    HW121205   4.023   3.644   1.558
 6795SOL    HW221206   4.107   3.509   1.592
 6796SOL     OW21207   5.398   2.745   1.254
 6796SOL    HW121208   5.371   2.656   1.217
 6796SOL    HW221209   5.399   2.813   1.181
 6797SOL     OW21210   4.949   2.187   0.449
 6797SOL    HW121211   5.014   2.113   0.438
 6797SOL    HW221212   4.969   2.237   0.533
 6798SOL     OW21213   4.318   2.607   0.652
 6798SOL    HW121214   4.368   2.692   0.633
 6798SOL    HW221215   4.230   2.609   0.604
 6799SOL     OW21216   5.501   2.204   1.642
 6799SOL    HW121217   5.484   2.235   1.548
 6799SOL    HW221218   5.417   2.167   1.680
 6800SOL     OW21219   5.454   2.796   1.517
 6800SOL    HW121220   5.492   2.887   1.532
 6800SOL    HW221221   5.446   2.779   1.418
 6801SOL     OW21222   4.583   3.236   0.016
 6801SOL    HW121223   4.537   3.251   0.104
 6801SOL    HW221224   4.627   3.321  -0.014
 6802SOL     OW21225   4.385   3.652   0.953
 6802SOL    HW121226   4.339   3.740   0.940
 6802SOL    HW221227   4.484   3.664   0.946
 6803SOL     OW21228   4.583   2.818   0.861
 6803SOL    HW121229   4.637   2.749   0.909
 6803SOL    HW221230   4.551   2.887   0.927
 6804SOL     OW21231   4.807   2.846   0.087
 6804SOL    HW121232   4.784   2.899   0.005
 6804SOL    HW221233   4.888   2.790   0.068
 6805SOL     OW21234   5.585   3.431   0.851
 6805SOL    HW121235   5.514   3.419   0.781
 6805SOL    HW221236   5.586   3.352   0.911
 6806SOL     OW21237   3.945   3.176   1.844
 6806SOL    HW121238   3.880   3.103   1.823
 6806SOL    HW221239   3.949   3.190   1.942
 6807SOL     OW21240   3.803   3.102   0.653
 6807SOL    HW121241   3.802   3.055   0.741
 6807SOL    HW221242   3.885   3.074   0.602
 6808SOL     OW21243   4.396   3.253   1.624
 6808SOL    HW121244   4.318   3.203   1.662
 6808SOL    HW221245   4.393   3.348   1.655
 6809SOL     OW21246   5.548   2.054   1.227
 6809SOL    HW121247   5.544   1.964   1.271
 6809SOL    HW221248   5.551   2.043   1.128
 6810SOL     OW21249   4.152   2.286   0.520
 6810SOL    HW121250   4.182   2.214   0.458
 6810SOL    HW221251   4.113   2.246   0.603
 6811SOL     OW21252   5.429   3.349   1.104
 6811SOL    HW121253   5.336   3.324   1.077
 6811SOL    HW221254   5.455   3.299   1.186
 6812SOL     OW21255   4.041   2.409   1.280
 6812SOL    HW121256   4.079   2.350   1.352
 6812SOL    HW221257   4.081   2.383   1.192
 6813SOL     OW21258   4.536   3.448   0.687
 6813SOL    HW121259   4.568   3.458   0.593
 6813SOL    HW221260   4.457   3.386   0.689
 6814SOL     OW21261   5.148   2.076   1.112
 6814SOL    HW121262   5.200   2.011   1.167
 6814SOL    HW221263   5.099   2.139   1.173
 6815SOL     OW21264   4.725   1.896   1.154
 6815SOL    HW121265   4.662   1.824   1.123
 6815SOL    HW221266   4.818   1.860   1.154
 6816SOL     OW21267   4.494   3.192   0.301
 6816SOL    HW121268   4.448   3.105   0.318
 6816SOL    HW221269   4.585   3.189   0.342
 6817SOL     OW21270   4.342   3.429   1.284
 6817SOL    HW121271   4.337   3.511   1.341
 6817SOL    HW221272   4.431   3.426   1.239
 6818SOL     OW21273   5.076   1.914   0.168
 6818SOL    HW121274   5.111   1.873   0.084
 6818SOL    HW221275   4.986   1.876   0.188
 6819SOL     OW21276   5.024   2.315   0.691
 6819SOL    HW121277   4.965   2.395   0.695
 6819SOL    HW221278   5.039   2.280   0.784
 6820SOL     OW21279   5.317   2.083   0.882
 6820SOL    HW121280   5.233   2.082   0.936
 6820SOL    HW221281   5.319   2.166   0.826
 6821SOL     OW21282   3.763   2.939   0.300
 6821SOL    HW121283   3.862   2.928   0.291
 6821SOL    HW221284   3.723   2.853   0.332
 6822SOL     OW21285   4.599   3.508   0.337
 6822SOL    HW121286   4.522   3.473   0.283
 6822SOL    HW221287   4.567   3.579   0.399
 6823SOL     OW21288   3.954   2.490   1.975
 6823SOL    HW121289   3.861   2.488   2.012
 6823SOL    HW221290   3.955   2.451   1.883
 6824SOL     OW21291   3.949   2.137   2.858
 6824SOL    HW121292   3.984   2.120   2.950
 6824SOL    HW221293   3.861   2.092   2.846
 6825SOL     OW21294   3.743   2.230   2.509
 6825SOL    HW121295   3.661   2.273   2.548
 6825SOL    HW221296   3.715   2.157   2.446
 6826SOL     OW21297   4.293   3.137   3.027
 6826SOL    HW121298   4.200   3.130   2.990
 6826SOL    HW221299   4.304   3.226   3.071
 6827SOL     OW21300   5.279   3.373   2.565
 6827SOL    HW121301   5.222   3.357   2.646
 6827SOL    HW221302   5.220   3.383   2.485
 6828SOL     OW21303   4.859   2.565   2.579
 6828SOL    HW121304   4.916   2.643   2.554
 6828SOL    HW221305   4.799   2.591   2.655
 6829SOL     OW21306   5.479   2.469   2.093
 6829SOL    HW121307   5.467   2.456   1.994
 6829SOL    HW221308   5.449   2.388   2.142
 6830SOL     OW21309   4.492   3.006   2.885
 6830SOL    HW121310   4.414   3.023   2.945
 6830SOL    HW221311   4.526   3.093   2.849
 6831SOL     OW21312   4.574   2.660   3.685
 6831SOL    HW121313   4.570   2.736   3.750
 6831SOL    HW221314   4.596   2.696   3.594
 6832SOL     OW21315   4.410   3.023   3.665
 6832SOL    HW121316   4.470   3.102   3.679
 6832SOL    HW221317   4.324   3.054   3.624
 6833SOL     OW21318   4.059   3.297   2.923
 6833SOL    HW121319   3.981   3.266   2.870
 6833SOL    HW221320   4.117   3.355   2.866
 6834SOL     OW21321   5.184   3.367   3.201
 6834SOL    HW121322   5.208   3.461   3.227
 6834SOL    HW221323   5.168   3.313   3.283
 6835SOL     OW21324   4.162   2.254   3.361
 6835SOL    HW121325   4.244   2.198   3.370
 6835SOL    HW221326   4.081   2.196   3.365
 6836SOL     OW21327   5.327   2.309   2.599
 6836SOL    HW121328   5.253   2.355   2.549
 6836SOL    HW221329   5.378   2.377   2.652
 6837SOL     OW21330   4.851   3.203   3.552
 6837SOL    HW121331   4.898   3.203   3.640
 6837SOL    HW221332   4.803   3.116   3.541
 6838SOL     OW21333   4.344   3.648   3.301
 6838SOL    HW121334   4.252   3.631   3.336
 6838SOL    HW221335   4.372   3.740   3.327
 6839SOL     OW21336   4.330   2.826   1.985
 6839SOL    HW121337   4.337   2.910   1.931
 6839SOL    HW221338   4.376   2.839   2.073
 6840SOL     OW21339   5.318   1.976   3.342
 6840SOL    HW121340   5.300   2.043   3.270
 6840SOL    HW221341   5.315   2.022   3.431
 6841SOL     OW21342   3.846   2.505   2.425
 6841SOL    HW121343   3.801   2.417   2.442
 6841SOL    HW221344   3.845   2.559   2.509
 6842SOL     OW21345   5.566   3.629   2.221
 6842SOL    HW121346   5.620   3.600   2.301
 6842SOL    HW221347   5.596   3.719   2.192
 6843SOL     OW21348   3.751   3.458   1.979
 6843SOL    HW121349   3.732   3.362   2.000
 6843SOL    HW221350   3.718   3.516   2.054
 6844SOL     OW21351   5.413   2.784   2.474
 6844SOL    HW121352   5.508   2.755   2.482
 6844SOL    HW221353   5.405   2.849   2.399
 6845SOL     OW21354   5.365   2.970   2.294
 6845SOL    HW121355   5.451   2.972   2.242
 6845SOL    HW221356   5.379   3.017   2.382
 6846SOL     OW21357   5.017   3.090   3.285
 6846SOL    HW121358   5.054   3.017   3.227
 6846SOL    HW221359   5.069   3.095   3.370
 6847SOL     OW21360   4.533   1.866   2.364
 6847SOL    HW121361   4.573   1.957   2.355
 6847SOL    HW221362   4.433   1.874   2.370
 6848SOL     OW21363   3.921   2.838   3.126
 6848SOL    HW121364   4.010   2.793   3.112
 6848SOL    HW221365   3.848   2.773   3.107
 6849SOL     OW21366   5.249   2.861   2.052
 6849SOL    HW121367   5.186   2.785   2.065
 6849SOL    HW221368   5.297   2.879   2.138
 6850SOL     OW21369   4.911   3.654   3.478
 6850SOL    HW121370   4.935   3.714   3.402
 6850SOL    HW221371   4.918   3.559   3.448
 6851SOL     OW21372   4.041   2.113   3.663
 6851SOL    HW121373   4.112   2.184   3.669
 6851SOL    HW221374   3.953   2.152   3.691
 6852SOL     OW21375   5.190   3.279   2.815
 6852SOL    HW121376   5.131   3.285   2.895
 6852SOL    HW221377   5.175   3.191   2.769
 6853SOL     OW21378   5.391   3.576   2.434
 6853SOL    HW121379   5.350   3.553   2.346
 6853SOL    HW221380   5.373   3.502   2.499
 6854SOL     OW21381   4.322   2.591   2.132
 6854SOL    HW121382   4.346   2.660   2.064
 6854SOL    HW221383   4.244   2.624   2.186
 6855SOL     OW21384   5.005   2.207   2.806
 6855SOL    HW121385   4.919   2.157   2.793
 6855SOL    HW221386   5.067   2.153   2.862
 6856SOL     OW21387   5.300   3.524   2.169
 6856SOL    HW121388   5.389   3.570   2.172
 6856SOL    HW221389   5.279   3.500   2.074
 6857SOL     OW21390   4.697   2.752   3.434
 6857SOL    HW121391   4.743   2.668   3.405
 6857SOL    HW221392   4.641   2.786   3.359
 6858SOL     OW21393   4.715   2.272   3.104
 6858SOL    HW121394   4.638   2.306   3.158
 6858SOL    HW221395   4.681   2.221   3.025
 6859SOL     OW21396   4.765   2.563   2.291
 6859SOL    HW121397   4.791   2.559   2.387
 6859SOL    HW221398   4.680   2.512   2.277
 6860SOL     OW21399   3.854   3.683   3.433
 6860SOL    HW121400   3.844   3.668   3.532
 6860SOL    HW221401   3.768   3.719   3.397
 6861SOL     OW21402   4.589   2.210   2.057
 6861SOL    HW121403   4.648   2.273   2.008
 6861SOL    HW221404   4.608   2.116   2.028
 6862SOL     OW21405   5.443   2.447   3.693
 6862SOL    HW121406   5.417   2.536   3.657
 6862SOL    HW221407   5.441   2.379   3.620
 6863SOL     OW21408   4.274   2.058   2.747
 6863SOL    HW121409   4.269   2.053   2.847
 6863SOL    HW221410   4.276   2.154   2.718
 6864SOL     OW21411   4.075   3.663   2.715
 6864SOL    HW121412   4.125   3.577   2.721
 6864SOL    HW221413   4.140   3.740   2.712
 6865SOL     OW21414   5.519   2.928   2.735
 6865SOL    HW121415   5.457   2.913   2.659
 6865SOL    HW221416   5.467   2.939   2.820
 6866SOL     OW21417   4.951   3.412   3.368
 6866SOL    HW121418   4.957   3.335   3.432
 6866SOL    HW221419   4.899   3.386   3.288
 6867SOL     OW21420   4.045   2.805   2.104
 6867SOL    HW121421   4.127   2.844   2.062
 6867SOL    HW221422   4.018   2.723   2.055
 6868SOL     OW21423   5.182   2.597   2.590
 6868SOL    HW121424   5.177   2.532   2.665
 6868SOL    HW221425   5.262   2.656   2.603
 6869SOL     OW21426   4.185   3.128   3.589
 6869SOL    HW121427   4.135   3.129   3.503
 6869SOL    HW221428   4.122   3.110   3.665
 6870SOL     OW21429   4.835   3.638   2.099
 6870SOL    HW121430   4.775   3.576   2.149
 6870SOL    HW221431   4.866   3.594   2.014
 6871SOL     OW21432   3.926   2.147   3.360
 6871SOL    HW121433   3.846   2.207   3.347
 6871SOL    HW221434   3.916   2.098   3.446
 6872SOL     OW21435   5.356   3.239   1.943
 6872SOL    HW121436   5.324   3.333   1.933
 6872SOL    HW221437   5.280   3.176   1.931
 6873SOL     OW21438   4.188   3.605   2.185
 6873SOL    HW121439   4.221   3.644   2.271
 6873SOL    HW221440   4.264   3.598   2.120
 6874SOL     OW21441   5.124   1.969   2.288
 6874SOL    HW121442   5.100   1.932   2.198
 6874SOL    HW221443   5.223   1.985   2.292
 6875SOL     OW21444   3.973   3.647   3.103
 6875SOL    HW121445   4.030   3.582   3.153
 6875SOL    HW221446   3.957   3.614   3.010
 6876SOL     OW21447   4.664   3.560   2.766
 6876SOL    HW121448   4.744   3.503   2.787
 6876SOL    HW221449   4.615   3.520   2.689
 6877SOL     OW21450   4.106   2.562   2.342
 6877SOL    HW121451   4.151   2.472   2.339
 6877SOL    HW221452   4.012   2.551   2.375
 6878SOL     OW21453   5.271   2.084   3.591
 6878SOL    HW121454   5.266   2.121   3.683
 6878SOL    HW221455   5.199   2.015   3.579
 6879SOL     OW21456   4.338   1.984   1.979
 6879SOL    HW121457   4.436   1.962   1.986
 6879SOL    HW221458   4.307   1.967   1.886
 6880SOL     OW21459   4.505   2.126   3.611
 6880SOL    HW121460   4.572   2.065   3.654
 6880SOL    HW221461   4.432   2.145   3.676
 6881SOL     OW21462   4.612   3.376   3.057
 6881SOL    HW121463   4.589   3.351   2.963
 6881SOL    HW221464   4.673   3.307   3.096
 6882SOL     OW21465   4.527   3.264   2.786
 6882SOL    HW121466   4.617   3.278   2.744
 6882SOL    HW221467   4.456   3.266   2.715
 6883SOL     OW21468   4.646   2.365   2.761
 6883SOL    HW121469   4.621   2.356   2.665
 6883SOL    HW221470   4.694   2.283   2.792
 6884SOL     OW21471   4.263   1.926   2.374
 6884SOL    HW121472   4.182   1.927   2.432
 6884SOL    HW221473   4.266   2.009   2.319
 6885SOL     OW21474   5.158   3.050   1.903
 6885SOL    HW121475   5.190   2.974   1.960
 6885SOL    HW221476   5.066   3.077   1.933
 6886SOL     OW21477   4.021   1.897   2.033
 6886SOL    HW121478   4.070   1.981   2.012
 6886SOL    HW221479   4.083   1.832   2.078
 6887SOL     OW21480   4.659   2.098   2.342
 6887SOL    HW121481   4.611   2.139   2.264
 6887SOL    HW221482   4.758   2.096   2.323
 6888SOL     OW21483   4.756   2.411   1.878
 6888SOL    HW121484   4.715   2.493   1.839
 6888SOL    HW221485   4.820   2.437   1.951
 6889SOL     OW21486   4.285   2.084   3.009
 6889SOL    HW121487   4.323   2.000   3.046
 6889SOL    HW221488   4.197   2.103   3.053
 6890SOL     OW21489   4.590   2.316   2.504
 6890SOL    HW121490   4.558   2.388   2.442
 6890SOL    HW221491   4.614   2.235   2.451
 6891SOL     OW21492   4.741   1.901   2.615
 6891SOL    HW121493   4.669   1.906   2.546
 6891SOL    HW221494   4.717   1.832   2.684
 6892SOL     OW21495   5.581   2.695   2.239
 6892SOL    HW121496   5.623   2.631   2.303
 6892SOL    HW221497   5.543   2.644   2.161
 6893SOL     OW21498   4.212   3.247   2.036
 6893SOL    HW121499   4.125   3.232   2.083
 6893SOL    HW221500   4.195   3.273   1.941
 6894SOL     OW21501   5.388   3.142   2.519
 6894SOL    HW121502   5.487   3.150   2.533
 6894SOL    HW221503   5.343   3.226   2.550
 6895SOL     OW21504   5.114   2.437   1.940
 6895SOL    HW121505   5.060   2.416   2.021
 6895SOL    HW221506   5.205   2.396   1.949
 6896SOL     OW21507   4.251   2.118   2.190
 6896SOL    HW121508   4.278   2.059   2.115
 6896SOL    HW221509   4.251   2.213   2.159
 6897SOL     OW21510   5.478   3.085   3.450
 6897SOL    HW121511   5.569   3.046   3.437
 6897SOL    HW221512   5.486   3.181   3.474
 6898SOL     OW21513   4.788   3.209   3.202
 6898SOL    HW121514   4.708   3.186   3.257
 6898SOL    HW221515   4.871   3.183   3.251
 6899SOL     OW21516   5.316   3.491   3.487
 6899SOL    HW121517   5.343   3.525   3.397
 6899SOL    HW221518   5.395   3.453   3.533
 6900SOL     OW21519   4.835   3.057   2.962
 6900SOL    HW121520   4.795   3.101   3.043
 6900SOL    HW221521   4.794   3.094   2.879
 6901SOL     OW21522   5.362   2.961   2.941
 6901SOL    HW121523   5.367   3.042   3.000
 6901SOL    HW221524   5.276   2.963   2.890
 6902SOL     OW21525   4.639   1.951   3.264
 6902SOL    HW121526   4.664   1.931   3.169
 6902SOL    HW221527   4.711   2.007   3.306
 6903SOL     OW21528   4.704   2.978   3.581
 6903SOL    HW121529   4.605   2.984   3.591
 6903SOL    HW221530   4.727   2.898   3.525
 6904SOL     OW21531   4.429   2.912   2.230
 6904SOL    HW121532   4.415   2.919   2.329
 6904SOL    HW221533   4.513   2.861   2.212
 6905SOL     OW21534   4.998   2.248   3.124
 6905SOL    HW121535   5.019   2.322   3.188
 6905SOL    HW221536   4.909   2.265   3.081
 6906SOL     OW21537   3.788   3.426   3.193
 6906SOL    HW121538   3.742   3.508   3.159
 6906SOL    HW221539   3.886   3.445   3.202
 6907SOL     OW21540   4.091   2.962   2.363
 6907SOL    HW121541   4.084   3.045   2.307
 6907SOL    HW221542   4.095   2.882   2.303
 6908SOL     OW21543   4.290   2.399   2.727
 6908SOL    HW121544   4.302   2.465   2.653
 6908SOL    HW221545   4.336   2.433   2.810
 6909SOL     OW21546   4.996   3.307   3.004
 6909SOL    HW121547   5.043   3.320   3.091
 6909SOL    HW221548   4.930   3.233   3.013
 6910SOL     OW21549   5.306   2.501   2.334
 6910SOL    HW121550   5.275   2.562   2.407
 6910SOL    HW221551   5.356   2.553   2.265
 6911SOL     OW21552   4.078   3.372   3.191
 6911SOL    HW121553   4.057   3.328   3.104
 6911SOL    HW221554   4.175   3.398   3.194
 6912SOL     OW21555   5.311   2.641   3.532
 6912SOL    HW121556   5.219   2.679   3.527
 6912SOL    HW221557   5.371   2.688   3.467
 6913SOL     OW21558   4.737   1.967   3.632
 6913SOL    HW121559   4.743   2.052   3.580
 6913SOL    HW221560   4.769   1.891   3.575
 6914SOL     OW21561   4.228   1.912   3.602
 6914SOL    HW121562   4.186   1.855   3.532
 6914SOL    HW221563   4.162   1.981   3.634
 6915SOL     OW21564   4.933   2.387   2.137
 6915SOL    HW121565   4.946   2.303   2.191
 6915SOL    HW221566   4.904   2.461   2.197
 6916SOL     OW21567   4.031   2.075   3.093
 6916SOL    HW121568   4.008   2.112   3.183
 6916SOL    HW221569   4.001   1.980   3.087
 6917SOL     OW21570   3.761   3.172   3.144
 6917SOL    HW121571   3.814   3.123   3.212
 6917SOL    HW221572   3.783   3.270   3.149
 6918SOL     OW21573   5.452   2.797   3.716
 6918SOL    HW121574   5.406   2.790   3.627
 6918SOL    HW221575   5.390   2.841   3.782
 6919SOL     OW21576   4.031   1.925   2.480
 6919SOL    HW121577   4.020   2.019   2.513
 6919SOL    HW221578   4.026   1.862   2.557
 6920SOL     OW21579   5.346   2.229   2.236
 6920SOL    HW121580   5.348   2.153   2.300
 6920SOL    HW221581   5.298   2.306   2.276
 6921SOL     OW21582   4.704   3.435   3.562
 6921SOL    HW121583   4.684   3.479   3.474
 6921SOL    HW221584   4.743   3.344   3.546
 6922SOL     OW21585   5.583   3.380   3.467
 6922SOL    HW121586   5.597   3.407   3.372
 6922SOL    HW221587   5.666   3.402   3.520
 6923SOL     OW21588   4.074   2.760   3.666
 6923SOL    HW121589   4.150   2.804   3.714
 6923SOL    HW221590   4.109   2.713   3.584
 6924SOL     OW21591   5.264   2.136   1.987
 6924SOL    HW121592   5.203   2.061   2.010
 6924SOL    HW221593   5.286   2.188   2.070
 6925SOL     OW21594   5.027   2.700   1.904
 6925SOL    HW121595   5.061   2.607   1.919
 6925SOL    HW221596   5.045   2.727   1.809
 6926SOL     OW21597   4.063   2.371   2.868
 6926SOL    HW121598   4.011   2.288   2.851
 6926SOL    HW221599   4.140   2.376   2.804
 6927SOL     OW21600   4.862   2.242   3.540
 6927SOL    HW121601   4.817   2.305   3.604
 6927SOL    HW221602   4.955   2.273   3.523
 6928SOL     OW21603   4.884   2.069   3.339
 6928SOL    HW121604   4.884   2.133   3.416
 6928SOL    HW221605   4.912   2.117   3.256
 6929SOL     OW21606   3.732   3.188   2.062
 6929SOL    HW121607   3.639   3.209   2.031
 6929SOL    HW221608   3.742   3.089   2.075
 6930SOL     OW21609   3.812   3.663   2.789
 6930SOL    HW121610   3.770   3.577   2.762
 6930SOL    HW221611   3.906   3.666   2.755
 6931SOL     OW21612   4.228   3.430   2.772
 6931SOL    HW121613   4.294   3.504   2.781
 6931SOL    HW221614   4.272   3.351   2.730
 6932SOL     OW21615   5.093   2.812   3.522
 6932SOL    HW121616   5.132   2.901   3.542
 6932SOL    HW221617   5.103   2.792   3.425
 6933SOL     OW21618   4.539   2.434   2.187
 6933SOL    HW121619   4.546   2.345   2.141
 6933SOL    HW221620   4.445   2.468   2.179
 6934SOL     OW21621   5.381   2.466   3.068
 6934SOL    HW121622   5.343   2.397   3.130
 6934SOL    HW221623   5.463   2.430   3.024
 6935SOL     OW21624   3.976   3.426   3.606
 6935SOL    HW121625   3.946   3.483   3.682
 6935SOL    HW221626   3.969   3.329   3.632
 6936SOL     OW21627   4.395   2.326   3.131
 6936SOL    HW121628   4.361   2.237   3.101
 6936SOL    HW221629   4.421   2.380   3.051
 6937SOL     OW21630   4.654   3.540   3.327
 6937SOL    HW121631   4.630   3.522   3.232
 6937SOL    HW221632   4.684   3.634   3.337
 6938SOL     OW21633   4.197   2.362   2.053
 6938SOL    HW121634   4.258   2.442   2.057
 6938SOL    HW221635   4.102   2.393   2.060
 6939SOL     OW21636   3.883   2.999   3.328
 6939SOL    HW121637   3.905   2.938   3.404
 6939SOL    HW221638   3.893   2.950   3.242
 6940SOL     OW21639   5.071   2.921   3.096
 6940SOL    HW121640   5.095   2.858   3.022
 6940SOL    HW221641   4.981   2.961   3.078
 6941SOL     OW21642   5.026   2.717   2.171
 6941SOL    HW121643   4.940   2.686   2.213
 6941SOL    HW221644   5.022   2.703   2.072
 6942SOL     OW21645   5.483   3.609   3.016
 6942SOL    HW121646   5.544   3.639   2.943
 6942SOL    HW221647   5.445   3.520   2.994
 6943SOL     OW21648   4.976   3.593   2.990
 6943SOL    HW121649   5.060   3.598   2.936
 6943SOL    HW221650   4.953   3.497   3.008
 6944SOL     OW21651   3.807   3.120   2.884
 6944SOL    HW121652   3.802   3.119   2.984
 6944SOL    HW221653   3.724   3.079   2.846
 6945SOL     OW21654   4.412   3.524   3.578
 6945SOL    HW121655   4.356   3.605   3.587
 6945SOL    HW221656   4.464   3.528   3.492
 6946SOL     OW21657   5.450   1.997   2.385
 6946SOL    HW121658   5.523   1.980   2.318
 6946SOL    HW221659   5.419   1.910   2.423
 6947SOL     OW21660   3.854   3.656   3.713
 6947SOL    HW121661   3.813   3.582   3.766
 6947SOL    HW221662   3.918   3.707   3.771
 6948SOL     OW21663   5.004   2.789   2.534
 6948SOL    HW121664   5.064   2.708   2.536
 6948SOL    HW221665   5.044   2.858   2.474
 6949SOL     OW21666   4.554   3.135   3.284
 6949SOL    HW121667   4.549   3.168   3.379
 6949SOL    HW221668   4.468   3.154   3.238
 6950SOL     OW21669   4.396   3.478   2.016
 6950SOL    HW121670   4.405   3.488   1.917
 6950SOL    HW221671   4.356   3.389   2.037
 6951SOL     OW21672   5.374   3.582   3.256
 6951SOL    HW121673   5.427   3.592   3.172
 6951SOL    HW221674   5.347   3.672   3.290
 6952SOL     OW21675   5.565   2.037   2.825
 6952SOL    HW121676   5.604   1.952   2.789
 6952SOL    HW221677   5.467   2.039   2.806
 6953SOL     OW21678   3.987   2.188   2.582
 6953SOL    HW121679   3.908   2.239   2.548
 6953SOL    HW221680   3.978   2.173   2.680
 6954SOL     OW21681   4.918   3.474   1.893
 6954SOL    HW121682   4.924   3.381   1.930
 6954SOL    HW221683   4.859   3.474   1.813
 6955SOL     OW21684   4.546   2.864   3.234
 6955SOL    HW121685   4.586   2.863   3.142
 6955SOL    HW221686   4.556   2.956   3.274
 6956SOL     OW21687   4.640   2.772   2.153
 6956SOL    HW121688   4.703   2.810   2.085
 6956SOL    HW221689   4.680   2.689   2.192
 6957SOL     OW21690   5.228   3.469   1.906
 6957SOL    HW121691   5.136   3.506   1.913
 6957SOL    HW221692   5.266   3.489   1.816
 6958SOL     OW21693   4.096   3.150   3.352
 6958SOL    HW121694   4.083   3.243   3.318
 6958SOL    HW221695   4.012   3.098   3.339
 6959SOL     OW21696   5.338   3.154   3.151
 6959SOL    HW121697   5.398   3.157   3.231
 6959SOL    HW221698   5.263   3.218   3.164
 6960SOL     OW21699   4.738   2.098   2.833
 6960SOL    HW121700   4.730   2.062   2.740
 6960SOL    HW221701   4.736   2.022   2.898
 6961SOL     OW21702   5.433   2.247   3.243
 6961SOL    HW121703   5.506   2.316   3.247
 6961SOL    HW221704   5.461   2.172   3.184
 6962SOL     OW21705   3.979   3.210   2.152
 6962SOL    HW121706   3.883   3.211   2.125
 6962SOL    HW221707   3.991   3.263   2.236
 6963SOL     OW21708   3.829   2.875   3.588
 6963SOL    HW121709   3.752   2.842   3.642
 6963SOL    HW221710   3.914   2.845   3.630
 6964SOL     OW21711   4.396   2.065   3.351
 6964SOL    HW121712   4.486   2.049   3.311
 6964SOL    HW221713   4.404   2.070   3.450
 6965SOL     OW21714   3.799   2.207   1.895
 6965SOL    HW121715   3.707   2.179   1.866
 6965SOL    HW221716   3.830   2.284   1.839
 6966SOL     OW21717   5.164   2.718   3.260
 6966SOL    HW121718   5.107   2.770   3.197
 6966SOL    HW221719   5.260   2.730   3.236
 6967SOL     OW21720   3.796   2.028   2.180
 6967SOL    HW121721   3.779   2.111   2.126
 6967SOL    HW221722   3.886   1.991   2.158
 6968SOL     OW21723   4.907   3.197   1.981
 6968SOL    HW121724   4.808   3.186   1.983
 6968SOL    HW221725   4.941   3.212   2.074
 6969SOL     OW21726   5.217   3.629   2.821
 6969SOL    HW121727   5.250   3.693   2.752
 6969SOL    HW221728   5.283   3.623   2.896
 6970SOL     OW21729   5.174   3.082   3.495
 6970SOL    HW121730   5.165   3.072   3.594
 6970SOL    HW221731   5.270   3.075   3.469
 6971SOL     OW21732   4.114   3.603   3.422
 6971SOL    HW121733   4.023   3.644   3.420
 6971SOL    HW221734   4.107   3.509   3.454
 6972SOL     OW21735   5.398   2.745   3.116
 6972SOL    HW121736   5.371   2.656   3.079
 6972SOL    HW221737   5.399   2.813   3.043
 6973SOL     OW21738   4.949   2.187   2.311
 6973SOL    HW121739   5.014   2.113   2.300
 6973SOL    HW221740   4.969   2.237   2.395
 6974SOL     OW21741   4.318   2.607   2.514
 6974SOL    HW121742   4.368   2.692   2.495
 6974SOL    HW221743   4.230   2.609   2.466
 6975SOL     OW21744   5.501   2.204   3.504
 6975SOL    HW121745   5.484   2.235   3.410
 6975SOL    HW221746   5.417   2.167   3.542
 6976SOL     OW21747   5.454   2.796   3.379
 6976SOL    HW121748   5.492   2.887   3.394
 6976SOL    HW221749   5.446   2.779   3.280
 6977SOL     OW21750   4.583   3.236   1.878
 6977SOL    HW121751   4.537   3.251   1.966
 6977SOL    HW221752   4.627   3.321   1.848
 6978SOL     OW21753   4.385   3.652   2.815
 6978SOL    HW121754   4.339   3.740   2.802
 6978SOL    HW221755   4.484   3.664   2.808
 6979SOL     OW21756   4.807   2.846   1.949
 6979SOL    HW121757   4.784   2.899   1.867
 6979SOL    HW221758   4.888   2.790   1.930
 6980SOL     OW21759   5.585   3.431   2.713
 6980SOL    HW121760   5.514   3.419   2.643
 6980SOL    HW221761   5.586   3.352   2.773
 6981SOL     OW21762   3.945   3.176   3.706
 6981SOL    HW121763   3.880   3.103   3.685
 6981SOL    HW221764   3.949   3.190   3.804
 6982SOL     OW21765   4.396   3.253   3.486
 6982SOL    HW121766   4.318   3.203   3.524
 6982SOL    HW221767   4.393   3.348   3.517
 6983SOL     OW21768   5.548   2.054   3.089
 6983SOL    HW121769   5.544   1.964   3.133
 6983SOL    HW221770   5.551   2.043   2.990
 6984SOL     OW21771   4.152   2.286   2.382
 6984SOL    HW121772   4.182   2.214   2.320
 6984SOL    HW221773   4.113   2.246   2.465
 6985SOL     OW21774   5.429   3.349   2.966
 6985SOL    HW121775   5.336   3.324   2.939
 6985SOL    HW221776   5.455   3.299   3.048
 6986SOL     OW21777   5.148   2.076   2.974
 6986SOL    HW121778   5.200   2.011   3.029
 6986SOL    HW221779   5.099   2.139   3.035
 6987SOL     OW21780   4.725   1.896   3.016
 6987SOL    HW121781   4.662   1.824   2.985
 6987SOL    HW221782   4.818   1.860   3.016
 6988SOL     OW21783   4.494   3.192   2.163
 6988SOL    HW121784   4.448   3.105   2.180
 6988SOL    HW221785   4.585   3.189   2.204
 6989SOL     OW21786   4.342   3.429   3.146
 6989SOL    HW121787   4.337   3.511   3.203
 6989SOL    HW221788   4.431   3.426   3.101
 6990SOL     OW21789   5.076   1.914   2.030
 6990SOL    HW121790   5.111   1.873   1.946
 6990SOL    HW221791   4.986   1.876   2.050
 6991SOL     OW21792   5.024   2.315   2.553
 6991SOL    HW121793   4.965   2.395   2.557
 6991SOL    HW221794   5.039   2.280   2.646
 6992SOL     OW21795   5.317   2.083   2.744
 6992SOL    HW121796   5.233   2.082   2.798
 6992SOL    HW221797   5.319   2.166   2.688
 6993SOL     OW21798   3.763   2.939   2.162
 6993SOL    HW121799   3.862   2.928   2.153
 6993SOL    HW221800   3.723   2.853   2.194
 6994SOL     OW21801   4.599   3.508   2.199
 6994SOL    HW121802   4.522   3.473   2.145
 6994SOL    HW221803   4.567   3.579   2.261
 6995SOL     OW21804   3.949   2.137   4.720
 6995SOL    HW121805   3.984   2.120   4.812
 6995SOL    HW221806   3.861   2.092   4.708
 6996SOL     OW21807   3.743   2.230   4.371
 6996SOL    HW121808   3.661   2.273   4.410
 6996SOL    HW221809   3.715   2.157   4.308
 6997SOL     OW21810   4.293   3.137   4.889
 6997SOL    HW121811   4.200   3.130   4.852
 6997SOL    HW221812   4.304   3.226   4.933
 6998SOL     OW21813   4.859   2.565   4.441
 6998SOL    HW121814   4.916   2.643   4.416
 6998SOL    HW221815   4.799   2.591   4.517
 6999SOL     OW21816   5.479   2.469   3.955
 6999SOL    HW121817   5.467   2.456   3.856
 6999SOL    HW221818   5.449   2.388   4.004
 7000SOL     OW21819   4.492   3.006   4.747
 7000SOL    HW121820   4.414   3.023   4.807
 7000SOL    HW221821   4.526   3.093   4.711
 7001SOL     OW21822   4.574   2.660   5.547
 7001SOL    HW121823   4.570   2.736   5.612
 7001SOL    HW221824   4.596   2.696   5.456
 7002SOL     OW21825   4.410   3.023   5.527
 7002SOL    HW121826   4.470   3.102   5.541
 7002SOL    HW221827   4.324   3.054   5.486
 7003SOL     OW21828   4.059   3.297   4.785
 7003SOL    HW121829   3.981   3.266   4.732
 7003SOL    HW221830   4.117   3.355   4.728
 7004SOL     OW21831   5.184   3.367   5.063
 7004SOL    HW121832   5.208   3.461   5.089
 7004SOL    HW221833   5.168   3.313   5.145
 7005SOL     OW21834   4.162   2.254   5.223
 7005SOL    HW121835   4.244   2.198   5.232
 7005SOL    HW221836   4.081   2.196   5.227
 7006SOL     OW21837   5.327   2.309   4.461
 7006SOL    HW121838   5.253   2.355   4.411
 7006SOL    HW221839   5.378   2.377   4.514
 7007SOL     OW21840   3.955   3.575   4.207
 7007SOL    HW121841   3.989   3.652   4.261
 7007SOL    HW221842   3.999   3.575   4.117
 7008SOL     OW21843   4.851   3.203   5.414
 7008SOL    HW121844   4.898   3.203   5.502
 7008SOL    HW221845   4.803   3.116   5.403
 7009SOL     OW21846   3.954   3.296   4.262
 7009SOL    HW121847   3.928   3.392   4.262
 7009SOL    HW221848   3.883   3.242   4.307
 7010SOL     OW21849   3.964   2.953   4.610
 7010SOL    HW121850   3.978   2.869   4.662
 7010SOL    HW221851   3.909   3.017   4.665
 7011SOL     OW21852   4.344   3.648   5.163
 7011SOL    HW121853   4.252   3.631   5.198
 7011SOL    HW221854   4.372   3.740   5.189
 7012SOL     OW21855   4.330   2.826   3.847
 7012SOL    HW121856   4.337   2.910   3.793
 7012SOL    HW221857   4.376   2.839   3.935
 7013SOL     OW21858   5.318   1.976   5.204
 7013SOL    HW121859   5.300   2.043   5.132
 7013SOL    HW221860   5.315   2.022   5.293
 7014SOL     OW21861   3.846   2.505   4.287
 7014SOL    HW121862   3.801   2.417   4.304
 7014SOL    HW221863   3.845   2.559   4.371
 7015SOL     OW21864   5.566   3.629   4.083
 7015SOL    HW121865   5.620   3.600   4.163
 7015SOL    HW221866   5.596   3.719   4.054
 7016SOL     OW21867   3.751   3.458   3.841
 7016SOL    HW121868   3.732   3.362   3.862
 7016SOL    HW221869   3.718   3.516   3.916
 7017SOL     OW21870   5.413   2.784   4.336
 7017SOL    HW121871   5.508   2.755   4.344
 7017SOL    HW221872   5.405   2.849   4.261
 7018SOL     OW21873   5.365   2.970   4.156
 7018SOL    HW121874   5.451   2.972   4.104
 7018SOL    HW221875   5.379   3.017   4.244
 7019SOL     OW21876   3.837   2.599   5.321
 7019SOL    HW121877   3.925   2.586   5.366
 7019SOL    HW221878   3.824   2.696   5.299
 7020SOL     OW21879   5.017   3.090   5.147
 7020SOL    HW121880   5.054   3.017   5.089
 7020SOL    HW221881   5.069   3.095   5.232
 7021SOL     OW21882   4.533   1.866   4.226
 7021SOL    HW121883   4.573   1.957   4.217
 7021SOL    HW221884   4.433   1.874   4.232
 7022SOL     OW21885   3.921   2.838   4.988
 7022SOL    HW121886   4.010   2.793   4.974
 7022SOL    HW221887   3.848   2.773   4.969
 7023SOL     OW21888   5.249   2.861   3.914
 7023SOL    HW121889   5.186   2.785   3.927
 7023SOL    HW221890   5.297   2.879   4.000
 7024SOL     OW21891   4.911   3.654   5.340
 7024SOL    HW121892   4.935   3.714   5.264
 7024SOL    HW221893   4.918   3.559   5.310
 7025SOL     OW21894   4.041   2.113   5.525
 7025SOL    HW121895   4.112   2.184   5.531
 7025SOL    HW221896   3.953   2.152   5.553
 7026SOL     OW21897   5.391   3.576   4.296
 7026SOL    HW121898   5.350   3.553   4.208
 7026SOL    HW221899   5.373   3.502   4.361
 7027SOL     OW21900   5.005   2.207   4.668
 7027SOL    HW121901   4.919   2.157   4.655
 7027SOL    HW221902   5.067   2.153   4.724
 7028SOL     OW21903   5.300   3.524   4.031
 7028SOL    HW121904   5.389   3.570   4.034
 7028SOL    HW221905   5.279   3.500   3.936
 7029SOL     OW21906   4.531   2.467   5.189
 7029SOL    HW121907   4.484   2.464   5.278
 7029SOL    HW221908   4.480   2.412   5.123
 7030SOL     OW21909   5.118   2.331   5.398
 7030SOL    HW121910   5.098   2.374   5.486
 7030SOL    HW221911   5.196   2.269   5.407
 7031SOL     OW21912   4.697   2.752   5.296
 7031SOL    HW121913   4.743   2.668   5.267
 7031SOL    HW221914   4.641   2.786   5.221
 7032SOL     OW21915   4.715   2.272   4.966
 7032SOL    HW121916   4.638   2.306   5.020
 7032SOL    HW221917   4.681   2.221   4.887
 7033SOL     OW21918   3.800   2.673   4.513
 7033SOL    HW121919   3.899   2.661   4.522
 7033SOL    HW221920   3.776   2.768   4.534
 7034SOL     OW21921   3.854   3.683   5.295
 7034SOL    HW121922   3.844   3.668   5.394
 7034SOL    HW221923   3.768   3.719   5.259
 7035SOL     OW21924   4.589   2.210   3.919
 7035SOL    HW121925   4.648   2.273   3.870
 7035SOL    HW221926   4.608   2.116   3.890
 7036SOL     OW21927   5.443   2.447   5.555
 7036SOL    HW121928   5.417   2.536   5.519
 7036SOL    HW221929   5.441   2.379   5.482
 7037SOL     OW21930   4.274   2.058   4.609
 7037SOL    HW121931   4.269   2.053   4.709
 7037SOL    HW221932   4.276   2.154   4.580
 7038SOL     OW21933   4.732   3.318   4.201
 7038SOL    HW121934   4.686   3.390   4.149
 7038SOL    HW221935   4.728   3.338   4.299
 7039SOL     OW21936   5.519   2.928   4.597
 7039SOL    HW121937   5.457   2.913   4.521
 7039SOL    HW221938   5.467   2.939   4.682
 7040SOL     OW21939   4.951   3.412   5.230
 7040SOL    HW121940   4.957   3.335   5.294
 7040SOL    HW221941   4.899   3.386   5.150
 7041SOL     OW21942   4.045   2.805   3.966
 7041SOL    HW121943   4.127   2.844   3.924
 7041SOL    HW221944   4.018   2.723   3.917
 7042SOL     OW21945   5.182   2.597   4.452
 7042SOL    HW121946   5.177   2.532   4.527
 7042SOL    HW221947   5.262   2.656   4.465
 7043SOL     OW21948   4.185   3.128   5.451
 7043SOL    HW121949   4.135   3.129   5.365
 7043SOL    HW221950   4.122   3.110   5.527
 7044SOL     OW21951   4.835   3.638   3.961
 7044SOL    HW121952   4.775   3.576   4.011
 7044SOL    HW221953   4.866   3.594   3.876
 7045SOL     OW21954   3.926   2.147   5.222
 7045SOL    HW121955   3.846   2.207   5.209
 7045SOL    HW221956   3.916   2.098   5.308
 7046SOL     OW21957   5.356   3.239   3.805
 7046SOL    HW121958   5.324   3.333   3.795
 7046SOL    HW221959   5.280   3.176   3.793
 7047SOL     OW21960   4.188   3.605   4.047
 7047SOL    HW121961   4.221   3.644   4.133
 7047SOL    HW221962   4.264   3.598   3.982
 7048SOL     OW21963   5.124   1.969   4.150
 7048SOL    HW121964   5.100   1.932   4.060
 7048SOL    HW221965   5.223   1.985   4.154
 7049SOL     OW21966   3.973   3.647   4.965
 7049SOL    HW121967   4.030   3.582   5.015
 7049SOL    HW221968   3.957   3.614   4.872
 7050SOL     OW21969   5.271   2.084   5.453
 7050SOL    HW121970   5.266   2.121   5.545
 7050SOL    HW221971   5.199   2.015   5.441
 7051SOL     OW21972   4.338   1.984   3.841
 7051SOL    HW121973   4.436   1.962   3.848
 7051SOL    HW221974   4.307   1.967   3.748
 7052SOL     OW21975   4.505   2.126   5.473
 7052SOL    HW121976   4.572   2.065   5.516
 7052SOL    HW221977   4.432   2.145   5.538
 7053SOL     OW21978   4.612   3.376   4.919
 7053SOL    HW121979   4.589   3.351   4.825
 7053SOL    HW221980   4.673   3.307   4.958
 7054SOL     OW21981   5.075   2.452   5.157
 7054SOL    HW121982   5.103   2.409   5.242
 7054SOL    HW221983   5.100   2.548   5.158
 7055SOL     OW21984   4.646   2.365   4.623
 7055SOL    HW121985   4.621   2.356   4.527
 7055SOL    HW221986   4.694   2.283   4.654
 7056SOL     OW21987   4.263   1.926   4.236
 7056SOL    HW121988   4.182   1.927   4.294
 7056SOL    HW221989   4.266   2.009   4.181
 7057SOL     OW21990   5.158   3.050   3.765
 7057SOL    HW121991   5.190   2.974   3.822
 7057SOL    HW221992   5.066   3.077   3.795
 7058SOL     OW21993   4.021   1.897   3.895
 7058SOL    HW121994   4.070   1.981   3.874
 7058SOL    HW221995   4.083   1.832   3.940
 7059SOL     OW21996   4.659   2.098   4.204
 7059SOL    HW121997   4.611   2.139   4.126
 7059SOL    HW221998   4.758   2.096   4.185
 7060SOL     OW21999   4.800   2.545   5.188
 7060SOL    HW122000   4.720   2.484   5.191
 7060SOL    HW222001   4.881   2.492   5.164
 7061SOL     OW22002   3.802   2.418   5.110
 7061SOL    HW122003   3.894   2.417   5.069
 7061SOL    HW222004   3.796   2.492   5.177
 7062SOL     OW22005   4.285   2.084   4.871
 7062SOL    HW122006   4.323   2.000   4.908
 7062SOL    HW222007   4.197   2.103   4.915
 7063SOL     OW22008   4.590   2.316   4.366
 7063SOL    HW122009   4.558   2.388   4.304
 7063SOL    HW222010   4.614   2.235   4.313
 7064SOL     OW22011   4.741   1.901   4.477
 7064SOL    HW122012   4.669   1.906   4.408
 7064SOL    HW222013   4.717   1.832   4.546
 7065SOL     OW22014   5.190   2.452   4.716
 7065SOL    HW122015   5.160   2.357   4.723
 7065SOL    HW222016   5.263   2.468   4.782
 7066SOL     OW22017   5.581   2.695   4.101
 7066SOL    HW122018   5.623   2.631   4.165
 7066SOL    HW222019   5.543   2.644   4.023
 7067SOL     OW22020   4.212   3.247   3.898
 7067SOL    HW122021   4.125   3.232   3.945
 7067SOL    HW222022   4.195   3.273   3.803
 7068SOL     OW22023   5.388   3.142   4.381
 7068SOL    HW122024   5.487   3.150   4.395
 7068SOL    HW222025   5.343   3.226   4.412
 7069SOL     OW22026   4.251   2.118   4.052
 7069SOL    HW122027   4.278   2.059   3.977
 7069SOL    HW222028   4.251   2.213   4.021
 7070SOL     OW22029   5.478   3.085   5.312
 7070SOL    HW122030   5.569   3.046   5.299
 7070SOL    HW222031   5.486   3.181   5.336
 7071SOL     OW22032   4.788   3.209   5.064
 7071SOL    HW122033   4.708   3.186   5.119
 7071SOL    HW222034   4.871   3.183   5.113
 7072SOL     OW22035   5.316   3.491   5.349
 7072SOL    HW122036   5.343   3.525   5.259
 7072SOL    HW222037   5.395   3.453   5.395
 7073SOL     OW22038   4.835   3.057   4.824
 7073SOL    HW122039   4.795   3.101   4.905
 7073SOL    HW222040   4.794   3.094   4.741
 7074SOL     OW22041   5.362   2.961   4.803
 7074SOL    HW122042   5.367   3.042   4.862
 7074SOL    HW222043   5.276   2.963   4.752
 7075SOL     OW22044   4.639   1.951   5.126
 7075SOL    HW122045   4.664   1.931   5.031
 7075SOL    HW222046   4.711   2.007   5.168
 7076SOL     OW22047   4.704   2.978   5.443
 7076SOL    HW122048   4.605   2.984   5.453
 7076SOL    HW222049   4.727   2.898   5.387
 7077SOL     OW22050   4.134   2.675   4.975
 7077SOL    HW122051   4.220   2.687   5.025
 7077SOL    HW222052   4.092   2.588   5.002
 7078SOL     OW22053   4.998   2.248   4.986
 7078SOL    HW122054   5.019   2.322   5.050
 7078SOL    HW222055   4.909   2.265   4.943
 7079SOL     OW22056   3.788   3.426   5.055
 7079SOL    HW122057   3.742   3.508   5.021
 7079SOL    HW222058   3.886   3.445   5.064
 7080SOL     OW22059   4.290   2.399   4.589
 7080SOL    HW122060   4.302   2.465   4.515
 7080SOL    HW222061   4.336   2.433   4.672
 7081SOL     OW22062   4.976   3.210   4.112
 7081SOL    HW122063   5.026   3.287   4.152
 7081SOL    HW222064   4.881   3.212   4.144
 7082SOL     OW22065   4.996   3.307   4.866
 7082SOL    HW122066   5.043   3.320   4.953
 7082SOL    HW222067   4.930   3.233   4.875
 7083SOL     OW22068   5.306   2.501   4.196
 7083SOL    HW122069   5.275   2.562   4.269
 7083SOL    HW222070   5.356   2.553   4.127
 7084SOL     OW22071   4.078   3.372   5.053
 7084SOL    HW122072   4.057   3.328   4.966
 7084SOL    HW222073   4.175   3.398   5.056
 7085SOL     OW22074   4.126   2.613   5.322
 7085SOL    HW122075   4.194   2.668   5.275
 7085SOL    HW222076   4.166   2.525   5.349
 7086SOL     OW22077   5.311   2.641   5.394
 7086SOL    HW122078   5.219   2.679   5.389
 7086SOL    HW222079   5.371   2.688   5.329
 7087SOL     OW22080   4.737   1.967   5.494
 7087SOL    HW122081   4.743   2.052   5.442
 7087SOL    HW222082   4.769   1.891   5.437
 7088SOL     OW22083   4.228   1.912   5.464
 7088SOL    HW122084   4.186   1.855   5.394
 7088SOL    HW222085   4.162   1.981   5.496
 7089SOL     OW22086   4.297   2.732   4.753
 7089SOL    HW122087   4.341   2.821   4.744
 7089SOL    HW222088   4.234   2.732   4.830
 7090SOL     OW22089   5.084   2.724   4.769
 7090SOL    HW122090   5.009   2.724   4.703
 7090SOL    HW222091   5.121   2.632   4.778
 7091SOL     OW22092   4.031   2.075   4.955
 7091SOL    HW122093   4.008   2.112   5.045
 7091SOL    HW222094   4.001   1.980   4.949
 7092SOL     OW22095   3.761   3.172   5.006
 7092SOL    HW122096   3.814   3.123   5.074
 7092SOL    HW222097   3.783   3.270   5.011
 7093SOL     OW22098   4.456   2.496   4.788
 7093SOL    HW122099   4.515   2.470   4.712
 7093SOL    HW222100   4.428   2.592   4.777
 7094SOL     OW22101   5.452   2.797   5.578
 7094SOL    HW122102   5.406   2.790   5.489
 7094SOL    HW222103   5.390   2.841   5.644
 7095SOL     OW22104   4.031   1.925   4.342
 7095SOL    HW122105   4.020   2.019   4.375
 7095SOL    HW222106   4.026   1.862   4.419
 7096SOL     OW22107   5.346   2.229   4.098
 7096SOL    HW122108   5.348   2.153   4.162
 7096SOL    HW222109   5.298   2.306   4.138
 7097SOL     OW22110   4.747   2.628   4.690
 7097SOL    HW122111   4.762   2.649   4.786
 7097SOL    HW222112   4.717   2.533   4.681
 7098SOL     OW22113   4.704   3.435   5.424
 7098SOL    HW122114   4.684   3.479   5.336
 7098SOL    HW222115   4.743   3.344   5.408
 7099SOL     OW22116   5.583   3.380   5.329
 7099SOL    HW122117   5.597   3.407   5.234
 7099SOL    HW222118   5.666   3.402   5.382
 7100SOL     OW22119   4.074   2.760   5.528
 7100SOL    HW122120   4.150   2.804   5.576
 7100SOL    HW222121   4.109   2.713   5.446
 7101SOL     OW22122   5.264   2.136   3.849
 7101SOL    HW122123   5.203   2.061   3.872
 7101SOL    HW222124   5.286   2.188   3.932
 7102SOL     OW22125   4.043   2.672   4.673
 7102SOL    HW122126   4.136   2.708   4.678
 7102SOL    HW222127   4.037   2.587   4.725
 7103SOL     OW22128   4.063   2.371   4.730
 7103SOL    HW122129   4.011   2.288   4.713
 7103SOL    HW222130   4.140   2.376   4.666
 7104SOL     OW22131   4.862   2.242   5.402
 7104SOL    HW122132   4.817   2.305   5.466
 7104SOL    HW222133   4.955   2.273   5.385
 7105SOL     OW22134   4.884   2.069   5.201
 7105SOL    HW122135   4.884   2.133   5.278
 7105SOL    HW222136   4.912   2.117   5.118
 7106SOL     OW22137   3.732   3.188   3.924
 7106SOL    HW122138   3.639   3.209   3.893
 7106SOL    HW222139   3.742   3.089   3.937
 7107SOL     OW22140   4.726   2.658   4.962
 7107SOL    HW122141   4.767   2.626   5.048
 7107SOL    HW222142   4.630   2.631   4.959
 7108SOL     OW22143   3.764   2.406   4.838
 7108SOL    HW122144   3.849   2.373   4.797
 7108SOL    HW222145   3.777   2.421   4.936
 7109SOL     OW22146   3.913   2.382   5.446
 7109SOL    HW122147   3.972   2.342   5.376
 7109SOL    HW222148   3.855   2.453   5.405
 7110SOL     OW22149   5.093   2.812   5.384
 7110SOL    HW122150   5.132   2.901   5.404
 7110SOL    HW222151   5.103   2.792   5.287
 7111SOL     OW22152   5.381   2.466   4.930
 7111SOL    HW122153   5.343   2.397   4.992
 7111SOL    HW222154   5.463   2.430   4.886
 7112SOL     OW22155   3.976   3.426   5.468
 7112SOL    HW122156   3.946   3.483   5.544
 7112SOL    HW222157   3.969   3.329   5.494
 7113SOL     OW22158   4.395   2.326   4.993
 7113SOL    HW122159   4.361   2.237   4.963
 7113SOL    HW222160   4.421   2.380   4.913
 7114SOL     OW22161   4.654   3.540   5.189
 7114SOL    HW122162   4.630   3.522   5.094
 7114SOL    HW222163   4.684   3.634   5.199
 7115SOL     OW22164   3.883   2.999   5.190
 7115SOL    HW122165   3.905   2.938   5.266
 7115SOL    HW222166   3.893   2.950   5.104
 7116SOL     OW22167   5.071   2.921   4.958
 7116SOL    HW122168   5.095   2.858   4.884
 7116SOL    HW222169   4.981   2.961   4.940
 7117SOL     OW22170   5.483   3.609   4.878
 7117SOL    HW122171   5.544   3.639   4.805
 7117SOL    HW222172   5.445   3.520   4.856
 7118SOL     OW22173   4.976   3.593   4.852
 7118SOL    HW122174   5.060   3.598   4.798
 7118SOL    HW222175   4.953   3.497   4.870
 7119SOL     OW22176   3.807   3.120   4.746
 7119SOL    HW122177   3.802   3.119   4.846
 7119SOL    HW222178   3.724   3.079   4.708
 7120SOL     OW22179   4.412   3.524   5.440
 7120SOL    HW122180   4.356   3.605   5.449
 7120SOL    HW222181   4.464   3.528   5.354
 7121SOL     OW22182   5.450   1.997   4.247
 7121SOL    HW122183   5.523   1.980   4.180
 7121SOL    HW222184   5.419   1.910   4.285
 7122SOL     OW22185   5.112   3.435   4.201
 7122SOL    HW122186   5.179   3.447   4.127
 7122SOL    HW222187   5.072   3.524   4.224
 7123SOL     OW22188   3.854   3.656   5.575
 7123SOL    HW122189   3.813   3.582   5.628
 7123SOL    HW222190   3.918   3.707   5.633
 7124SOL     OW22191   4.554   3.135   5.146
 7124SOL    HW122192   4.549   3.168   5.241
 7124SOL    HW222193   4.468   3.154   5.100
 7125SOL     OW22194   4.396   3.478   3.878
 7125SOL    HW122195   4.405   3.488   3.779
 7125SOL    HW222196   4.356   3.389   3.899
 7126SOL     OW22197   5.374   3.582   5.118
 7126SOL    HW122198   5.427   3.592   5.034
 7126SOL    HW222199   5.347   3.672   5.152
 7127SOL     OW22200   5.565   2.037   4.687
 7127SOL    HW122201   5.604   1.952   4.651
 7127SOL    HW222202   5.467   2.039   4.668
 7128SOL     OW22203   3.987   2.188   4.444
 7128SOL    HW122204   3.908   2.239   4.410
 7128SOL    HW222205   3.978   2.173   4.542
 7129SOL     OW22206   4.918   3.474   3.755
 7129SOL    HW122207   4.924   3.381   3.792
 7129SOL    HW222208   4.859   3.474   3.675
 7130SOL     OW22209   4.546   2.864   5.096
 7130SOL    HW122210   4.586   2.863   5.004
 7130SOL    HW222211   4.556   2.956   5.136
 7131SOL     OW22212   5.228   3.469   3.768
 7131SOL    HW122213   5.136   3.506   3.775
 7131SOL    HW222214   5.266   3.489   3.678
 7132SOL     OW22215   4.096   3.150   5.214
 7132SOL    HW122216   4.083   3.243   5.180
 7132SOL    HW222217   4.012   3.098   5.201
 7133SOL     OW22218   5.338   3.154   5.013
 7133SOL    HW122219   5.398   3.157   5.093
 7133SOL    HW222220   5.263   3.218   5.026
 7134SOL     OW22221   4.738   2.098   4.695
 7134SOL    HW122222   4.730   2.062   4.602
 7134SOL    HW222223   4.736   2.022   4.760
 7135SOL     OW22224   4.314   3.349   4.215
 7135SOL    HW122225   4.356   3.291   4.145
 7135SOL    HW222226   4.270   3.428   4.171
 7136SOL     OW22227   5.433   2.247   5.105
 7136SOL    HW122228   5.506   2.316   5.109
 7136SOL    HW222229   5.461   2.172   5.046
 7137SOL     OW22230   3.979   3.210   4.014
 7137SOL    HW122231   3.883   3.211   3.987
 7137SOL    HW222232   3.991   3.263   4.098
 7138SOL     OW22233   3.829   2.875   5.450
 7138SOL    HW122234   3.752   2.842   5.504
 7138SOL    HW222235   3.914   2.845   5.492
 7139SOL     OW22236   4.396   2.065   5.213
 7139SOL    HW122237   4.486   2.049   5.173
 7139SOL    HW222238   4.404   2.070   5.312
 7140SOL     OW22239   3.799   2.207   3.757
 7140SOL    HW122240   3.707   2.179   3.728
 7140SOL    HW222241   3.830   2.284   3.701
 7141SOL     OW22242   5.164   2.718   5.122
 7141SOL    HW122243   5.107   2.770   5.059
 7141SOL    HW222244   5.260   2.730   5.098
 7142SOL     OW22245   3.796   2.028   4.042
 7142SOL    HW122246   3.779   2.111   3.988
 7142SOL    HW222247   3.886   1.991   4.020
 7143SOL     OW22248   4.907   3.197   3.843
 7143SOL    HW122249   4.808   3.186   3.845
 7143SOL    HW222250   4.941   3.212   3.936
 7144SOL     OW22251   4.337   2.704   5.155
 7144SOL    HW122252   4.393   2.785   5.138
 7144SOL    HW222253   4.396   2.624   5.158
 7145SOL     OW22254   5.217   3.629   4.683
 7145SOL    HW122255   5.250   3.693   4.614
 7145SOL    HW222256   5.283   3.623   4.758
 7146SOL     OW22257   4.440   2.427   5.432
 7146SOL    HW122258   4.459   2.492   5.506
 7146SOL    HW222259   4.500   2.347   5.441
 7147SOL     OW22260   5.174   3.082   5.357
 7147SOL    HW122261   5.165   3.072   5.456
 7147SOL    HW222262   5.270   3.075   5.331
 7148SOL     OW22263   4.114   3.603   5.284
 7148SOL    HW122264   4.023   3.644   5.282
 7148SOL    HW222265   4.107   3.509   5.316
 7149SOL     OW22266   5.398   2.745   4.978
 7149SOL    HW122267   5.371   2.656   4.941
 7149SOL    HW222268   5.399   2.813   4.905
 7150SOL     OW22269   4.949   2.187   4.173
 7150SOL    HW122270   5.014   2.113   4.162
 7150SOL    HW222271   4.969   2.237   4.257
 7151SOL     OW22272   5.501   2.204   5.366
 7151SOL    HW122273   5.484   2.235   5.272
 7151SOL    HW222274   5.417   2.167   5.404
 7152SOL     OW22275   5.454   2.796   5.241
 7152SOL    HW122276   5.492   2.887   5.256
 7152SOL    HW222277   5.446   2.779   5.142
 7153SOL     OW22278   4.583   3.236   3.740
 7153SOL    HW122279   4.537   3.251   3.828
 7153SOL    HW222280   4.627   3.321   3.710
 7154SOL     OW22281   4.583   2.818   4.585
 7154SOL    HW122282   4.637   2.749   4.633
 7154SOL    HW222283   4.551   2.887   4.651
 7155SOL     OW22284   4.807   2.846   3.811
 7155SOL    HW122285   4.784   2.899   3.729
 7155SOL    HW222286   4.888   2.790   3.792
 7156SOL     OW22287   5.585   3.431   4.575
 7156SOL    HW122288   5.514   3.419   4.505
 7156SOL    HW222289   5.586   3.352   4.635
 7157SOL     OW22290   3.945   3.176   5.568
 7157SOL    HW122291   3.880   3.103   5.547
 7157SOL    HW222292   3.949   3.190   5.666
 7158SOL     OW22293   4.396   3.253   5.348
 7158SOL    HW122294   4.318   3.203   5.386
 7158SOL    HW222295   4.393   3.348   5.379
 7159SOL     OW22296   5.548   2.054   4.951
 7159SOL    HW122297   5.544   1.964   4.995
 7159SOL    HW222298   5.551   2.043   4.852
 7160SOL     OW22299   4.152   2.286   4.244
 7160SOL    HW122300   4.182   2.214   4.182
 7160SOL    HW222301   4.113   2.246   4.327
 7161SOL     OW22302   5.429   3.349   4.828
 7161SOL    HW122303   5.336   3.324   4.801
 7161SOL    HW222304   5.455   3.299   4.910
 7162SOL     OW22305   4.041   2.409   5.004
 7162SOL    HW122306   4.079   2.350   5.076
 7162SOL    HW222307   4.081   2.383   4.916
 7163SOL     OW22308   5.148   2.076   4.836
 7163SOL    HW122309   5.200   2.011   4.891
 7163SOL    HW222310   5.099   2.139   4.897
 7164SOL     OW22311   4.725   1.896   4.878
 7164SOL    HW122312   4.662   1.824   4.847
 7164SOL    HW222313   4.818   1.860   4.878
 7165SOL     OW22314   4.494   3.192   4.025
 7165SOL    HW122315   4.448   3.105   4.042
 7165SOL    HW222316   4.585   3.189   4.066
 7166SOL     OW22317   4.342   3.429   5.008
 7166SOL    HW122318   4.337   3.511   5.065
 7166SOL    HW222319   4.431   3.426   4.963
 7167SOL     OW22320   5.076   1.914   3.892
 7167SOL    HW122321   5.111   1.873   3.808
 7167SOL    HW222322   4.986   1.876   3.912
 7168SOL     OW22323   5.024   2.315   4.415
 7168SOL    HW122324   4.965   2.395   4.419
 7168SOL    HW222325   5.039   2.280   4.508
 7169SOL     OW22326   5.317   2.083   4.606
 7169SOL    HW122327   5.233   2.082   4.660
 7169SOL    HW222328   5.319   2.166   4.550
 7170SOL     OW22329   3.763   2.939   4.024
 7170SOL    HW122330   3.862   2.928   4.015
 7170SOL    HW222331   3.723   2.853   4.056
 7171SOL     OW22332   4.599   3.508   4.061
 7171SOL    HW122333   4.522   3.473   4.007
 7171SOL    HW222334   4.567   3.579   4.123
 7172SOL     OW22335   3.954   2.490   5.699
 7172SOL    HW122336   3.861   2.488   5.736
 7172SOL    HW222337   3.955   2.451   5.607
 7173SOL     OW22338   3.949   2.137   6.582
 7173SOL    HW122339   3.984   2.120   6.674
 7173SOL    HW222340   3.861   2.092   6.570
 7174SOL     OW22341   3.743   2.230   6.233
 7174SOL    HW122342   3.661   2.273   6.272
 7174SOL    HW222343   3.715   2.157   6.170
 7175SOL     OW22344   4.293   3.137   6.751
 7175SOL    HW122345   4.200   3.130   6.714
 7175SOL    HW222346   4.304   3.226   6.795
 7176SOL     OW22347   5.279   3.373   6.289
 7176SOL    HW122348   5.222   3.357   6.370
 7176SOL    HW222349   5.220   3.383   6.209
 7177SOL     OW22350   4.859   2.565   6.303
 7177SOL    HW122351   4.916   2.643   6.278
 7177SOL    HW222352   4.799   2.591   6.379
 7178SOL     OW22353   5.479   2.469   5.817
 7178SOL    HW122354   5.467   2.456   5.718
 7178SOL    HW222355   5.449   2.388   5.866
 7179SOL     OW22356   4.492   3.006   6.609
 7179SOL    HW122357   4.414   3.023   6.669
 7179SOL    HW222358   4.526   3.093   6.573
 7180SOL     OW22359   4.409   2.874   6.251
 7180SOL    HW122360   4.478   2.858   6.321
 7180SOL    HW222361   4.336   2.931   6.289
 7181SOL     OW22362   4.059   3.297   6.647
 7181SOL    HW122363   3.981   3.266   6.594
 7181SOL    HW222364   4.117   3.355   6.590
 7182SOL     OW22365   5.327   2.309   6.323
 7182SOL    HW122366   5.253   2.355   6.273
 7182SOL    HW222367   5.378   2.377   6.376
 7183SOL     OW22368   3.955   3.575   6.069
 7183SOL    HW122369   3.989   3.652   6.123
 7183SOL    HW222370   3.999   3.575   5.979
 7184SOL     OW22371   3.954   3.296   6.124
 7184SOL    HW122372   3.928   3.392   6.124
 7184SOL    HW222373   3.883   3.242   6.169
 7185SOL     OW22374   3.964   2.953   6.472
 7185SOL    HW122375   3.978   2.869   6.524
 7185SOL    HW222376   3.909   3.017   6.527
 7186SOL     OW22377   4.344   3.648   7.025
 7186SOL    HW122378   4.252   3.631   7.060
 7186SOL    HW222379   4.372   3.740   7.051
 7187SOL     OW22380   4.330   2.826   5.709
 7187SOL    HW122381   4.337   2.910   5.655
 7187SOL    HW222382   4.376   2.839   5.797
 7188SOL     OW22383   3.846   2.505   6.149
 7188SOL    HW122384   3.801   2.417   6.166
 7188SOL    HW222385   3.845   2.559   6.233
 7189SOL     OW22386   5.566   3.629   5.945
 7189SOL    HW122387   5.620   3.600   6.025
 7189SOL    HW222388   5.596   3.719   5.916
 7190SOL     OW22389   3.751   3.458   5.703
 7190SOL    HW122390   3.732   3.362   5.724
 7190SOL    HW222391   3.718   3.516   5.778
 7191SOL     OW22392   5.413   2.784   6.198
 7191SOL    HW122393   5.508   2.755   6.206
 7191SOL    HW222394   5.405   2.849   6.123
 7192SOL     OW22395   5.365   2.970   6.018
 7192SOL    HW122396   5.451   2.972   5.966
 7192SOL    HW222397   5.379   3.017   6.106
 7193SOL     OW22398   4.337   3.227   6.312
 7193SOL    HW122399   4.288   3.140   6.321
 7193SOL    HW222400   4.314   3.270   6.225
 7194SOL     OW22401   4.533   1.866   6.088
 7194SOL    HW122402   4.573   1.957   6.079
 7194SOL    HW222403   4.433   1.874   6.094
 7195SOL     OW22404   3.921   2.838   6.850
 7195SOL    HW122405   4.010   2.793   6.836
 7195SOL    HW222406   3.848   2.773   6.831
 7196SOL     OW22407   5.249   2.861   5.776
 7196SOL    HW122408   5.186   2.785   5.789
 7196SOL    HW222409   5.297   2.879   5.862
 7197SOL     OW22410   5.190   3.279   6.539
 7197SOL    HW122411   5.131   3.285   6.619
 7197SOL    HW222412   5.175   3.191   6.493
 7198SOL     OW22413   5.391   3.576   6.158
 7198SOL    HW122414   5.350   3.553   6.070
 7198SOL    HW222415   5.373   3.502   6.223
 7199SOL     OW22416   4.322   2.591   5.856
 7199SOL    HW122417   4.346   2.660   5.788
 7199SOL    HW222418   4.244   2.624   5.910
 7200SOL     OW22419   5.005   2.207   6.530
 7200SOL    HW122420   4.919   2.157   6.517
 7200SOL    HW222421   5.067   2.153   6.586
 7201SOL     OW22422   5.300   3.524   5.893
 7201SOL    HW122423   5.389   3.570   5.896
 7201SOL    HW222424   5.279   3.500   5.798
 7202SOL     OW22425   4.531   2.467   7.051
 7202SOL    HW122426   4.484   2.464   7.140
 7202SOL    HW222427   4.480   2.412   6.985
 7203SOL     OW22428   4.715   2.272   6.828
 7203SOL    HW122429   4.638   2.306   6.882
 7203SOL    HW222430   4.681   2.221   6.749
 7204SOL     OW22431   4.765   2.563   6.015
 7204SOL    HW122432   4.791   2.559   6.111
 7204SOL    HW222433   4.680   2.512   6.001
 7205SOL     OW22434   3.800   2.673   6.375
 7205SOL    HW122435   3.899   2.661   6.384
 7205SOL    HW222436   3.776   2.768   6.396
 7206SOL     OW22437   3.854   3.683   7.157
 7206SOL    HW122438   3.844   3.668   7.256
 7206SOL    HW222439   3.768   3.719   7.121
 7207SOL     OW22440   4.589   2.210   5.781
 7207SOL    HW122441   4.648   2.273   5.732
 7207SOL    HW222442   4.608   2.116   5.752
 7208SOL     OW22443   5.086   3.006   6.131
 7208SOL    HW122444   5.169   2.977   6.083
 7208SOL    HW222445   5.037   3.073   6.075
 7209SOL     OW22446   4.274   2.058   6.471
 7209SOL    HW122447   4.269   2.053   6.571
 7209SOL    HW222448   4.276   2.154   6.442
 7210SOL     OW22449   4.732   3.318   6.063
 7210SOL    HW122450   4.686   3.390   6.011
 7210SOL    HW222451   4.728   3.338   6.161
 7211SOL     OW22452   4.075   3.663   6.439
 7211SOL    HW122453   4.125   3.577   6.445
 7211SOL    HW222454   4.140   3.740   6.436
 7212SOL     OW22455   5.519   2.928   6.459
 7212SOL    HW122456   5.457   2.913   6.383
 7212SOL    HW222457   5.467   2.939   6.544
 7213SOL     OW22458   4.045   2.805   5.828
 7213SOL    HW122459   4.127   2.844   5.786
 7213SOL    HW222460   4.018   2.723   5.779
 7214SOL     OW22461   5.182   2.597   6.314
 7214SOL    HW122462   5.177   2.532   6.389
 7214SOL    HW222463   5.262   2.656   6.327
 7215SOL     OW22464   4.835   3.638   5.823
 7215SOL    HW122465   4.775   3.576   5.873
 7215SOL    HW222466   4.866   3.594   5.738
 7216SOL     OW22467   5.356   3.239   5.667
 7216SOL    HW122468   5.324   3.333   5.657
 7216SOL    HW222469   5.280   3.176   5.655
 7217SOL     OW22470   4.188   3.605   5.909
 7217SOL    HW122471   4.221   3.644   5.995
 7217SOL    HW222472   4.264   3.598   5.844
 7218SOL     OW22473   5.124   1.969   6.012
 7218SOL    HW122474   5.100   1.932   5.922
 7218SOL    HW222475   5.223   1.985   6.016
 7219SOL     OW22476   3.973   3.647   6.827
 7219SOL    HW122477   4.030   3.582   6.877
 7219SOL    HW222478   3.957   3.614   6.734
 7220SOL     OW22479   4.664   3.560   6.490
 7220SOL    HW122480   4.744   3.503   6.511
 7220SOL    HW222481   4.615   3.520   6.413
 7221SOL     OW22482   4.106   2.562   6.066
 7221SOL    HW122483   4.151   2.472   6.063
 7221SOL    HW222484   4.012   2.551   6.099
 7222SOL     OW22485   4.338   1.984   5.703
 7222SOL    HW122486   4.436   1.962   5.710
 7222SOL    HW222487   4.307   1.967   5.610
 7223SOL     OW22488   4.612   3.376   6.781
 7223SOL    HW122489   4.589   3.351   6.687
 7223SOL    HW222490   4.673   3.307   6.820
 7224SOL     OW22491   4.527   3.264   6.510
 7224SOL    HW122492   4.617   3.278   6.468
 7224SOL    HW222493   4.456   3.266   6.439
 7225SOL     OW22494   4.646   2.365   6.485
 7225SOL    HW122495   4.621   2.356   6.389
 7225SOL    HW222496   4.694   2.283   6.516
 7226SOL     OW22497   4.263   1.926   6.098
 7226SOL    HW122498   4.182   1.927   6.156
 7226SOL    HW222499   4.266   2.009   6.043
 7227SOL     OW22500   5.158   3.050   5.627
 7227SOL    HW122501   5.190   2.974   5.684
 7227SOL    HW222502   5.066   3.077   5.657
 7228SOL     OW22503   4.021   1.897   5.757
 7228SOL    HW122504   4.070   1.981   5.736
 7228SOL    HW222505   4.083   1.832   5.802
 7229SOL     OW22506   4.659   2.098   6.066
 7229SOL    HW122507   4.611   2.139   5.988
 7229SOL    HW222508   4.758   2.096   6.047
 7230SOL     OW22509   4.951   3.432   6.379
 7230SOL    HW122510   4.972   3.506   6.314
 7230SOL    HW222511   5.019   3.432   6.452
 7231SOL     OW22512   4.183   3.014   6.327
 7231SOL    HW122513   4.112   2.987   6.392
 7231SOL    HW222514   4.157   2.986   6.234
 7232SOL     OW22515   4.995   3.659   6.177
 7232SOL    HW122516   5.039   3.723   6.113
 7232SOL    HW222517   4.945   3.711   6.247
 7233SOL     OW22518   4.756   2.411   5.602
 7233SOL    HW122519   4.715   2.493   5.563
 7233SOL    HW222520   4.820   2.437   5.675
 7234SOL     OW22521   4.285   2.084   6.733
 7234SOL    HW122522   4.323   2.000   6.770
 7234SOL    HW222523   4.197   2.103   6.777
 7235SOL     OW22524   4.590   2.316   6.228
 7235SOL    HW122525   4.558   2.388   6.166
 7235SOL    HW222526   4.614   2.235   6.175
 7236SOL     OW22527   4.741   1.901   6.339
 7236SOL    HW122528   4.669   1.906   6.270
 7236SOL    HW222529   4.717   1.832   6.408
 7237SOL     OW22530   5.153   3.035   6.453
 7237SOL    HW122531   5.098   2.951   6.446
 7237SOL    HW222532   5.179   3.064   6.361
 7238SOL     OW22533   5.190   2.452   6.578
 7238SOL    HW122534   5.160   2.357   6.585
 7238SOL    HW222535   5.263   2.468   6.644
 7239SOL     OW22536   5.581   2.695   5.963
 7239SOL    HW122537   5.623   2.631   6.027
 7239SOL    HW222538   5.543   2.644   5.885
 7240SOL     OW22539   4.212   3.247   5.760
 7240SOL    HW122540   4.125   3.232   5.807
 7240SOL    HW222541   4.195   3.273   5.665
 7241SOL     OW22542   5.388   3.142   6.243
 7241SOL    HW122543   5.487   3.150   6.257
 7241SOL    HW222544   5.343   3.226   6.274
 7242SOL     OW22545   5.114   2.437   5.664
 7242SOL    HW122546   5.060   2.416   5.745
 7242SOL    HW222547   5.205   2.396   5.673
 7243SOL     OW22548   4.251   2.118   5.914
 7243SOL    HW122549   4.278   2.059   5.839
 7243SOL    HW222550   4.251   2.213   5.883
 7244SOL     OW22551   5.478   3.085   7.174
 7244SOL    HW122552   5.569   3.046   7.161
 7244SOL    HW222553   5.486   3.181   7.198
 7245SOL     OW22554   4.835   3.057   6.686
 7245SOL    HW122555   4.795   3.101   6.767
 7245SOL    HW222556   4.794   3.094   6.603
 7246SOL     OW22557   5.362   2.961   6.665
 7246SOL    HW122558   5.367   3.042   6.724
 7246SOL    HW222559   5.276   2.963   6.614
 7247SOL     OW22560   4.429   2.912   5.954
 7247SOL    HW122561   4.415   2.919   6.053
 7247SOL    HW222562   4.513   2.861   5.936
 7248SOL     OW22563   4.134   2.675   6.837
 7248SOL    HW122564   4.220   2.687   6.887
 7248SOL    HW222565   4.092   2.588   6.864
 7249SOL     OW22566   4.998   2.248   6.848
 7249SOL    HW122567   5.019   2.322   6.912
 7249SOL    HW222568   4.909   2.265   6.805
 7250SOL     OW22569   3.788   3.426   6.917
 7250SOL    HW122570   3.742   3.508   6.883
 7250SOL    HW222571   3.886   3.445   6.926
 7251SOL     OW22572   4.091   2.962   6.087
 7251SOL    HW122573   4.084   3.045   6.031
 7251SOL    HW222574   4.095   2.882   6.027
 7252SOL     OW22575   4.290   2.399   6.451
 7252SOL    HW122576   4.302   2.465   6.377
 7252SOL    HW222577   4.336   2.433   6.534
 7253SOL     OW22578   4.976   3.210   5.974
 7253SOL    HW122579   5.026   3.287   6.014
 7253SOL    HW222580   4.881   3.212   6.006
 7254SOL     OW22581   4.996   3.307   6.728
 7254SOL    HW122582   5.043   3.320   6.815
 7254SOL    HW222583   4.930   3.233   6.737
 7255SOL     OW22584   5.306   2.501   6.058
 7255SOL    HW122585   5.275   2.562   6.131
 7255SOL    HW222586   5.356   2.553   5.989
 7256SOL     OW22587   4.078   3.372   6.915
 7256SOL    HW122588   4.057   3.328   6.828
 7256SOL    HW222589   4.175   3.398   6.918
 7257SOL     OW22590   4.297   2.732   6.615
 7257SOL    HW122591   4.341   2.821   6.606
 7257SOL    HW222592   4.234   2.732   6.692
 7258SOL     OW22593   5.084   2.724   6.631
 7258SOL    HW122594   5.009   2.724   6.565
 7258SOL    HW222595   5.121   2.632   6.640
 7259SOL     OW22596   4.933   2.387   5.861
 7259SOL    HW122597   4.946   2.303   5.915
 7259SOL    HW222598   4.904   2.461   5.921
 7260SOL     OW22599   4.031   2.075   6.817
 7260SOL    HW122600   4.008   2.112   6.907
 7260SOL    HW222601   4.001   1.980   6.811
 7261SOL     OW22602   3.761   3.172   6.868
 7261SOL    HW122603   3.814   3.123   6.936
 7261SOL    HW222604   3.783   3.270   6.873
 7262SOL     OW22605   4.456   2.496   6.650
 7262SOL    HW122606   4.515   2.470   6.574
 7262SOL    HW222607   4.428   2.592   6.639
 7263SOL     OW22608   4.031   1.925   6.204
 7263SOL    HW122609   4.020   2.019   6.237
 7263SOL    HW222610   4.026   1.862   6.281
 7264SOL     OW22611   5.346   2.229   5.960
 7264SOL    HW122612   5.348   2.153   6.024
 7264SOL    HW222613   5.298   2.306   6.000
 7265SOL     OW22614   4.747   2.628   6.552
 7265SOL    HW122615   4.762   2.649   6.648
 7265SOL    HW222616   4.717   2.533   6.543
 7266SOL     OW22617   5.264   2.136   5.711
 7266SOL    HW122618   5.203   2.061   5.734
 7266SOL    HW222619   5.286   2.188   5.794
 7267SOL     OW22620   5.027   2.700   5.628
 7267SOL    HW122621   5.061   2.607   5.643
 7267SOL    HW222622   5.045   2.727   5.533
 7268SOL     OW22623   4.792   3.195   6.435
 7268SOL    HW122624   4.799   3.111   6.380
 7268SOL    HW222625   4.854   3.264   6.399
 7269SOL     OW22626   4.043   2.672   6.535
 7269SOL    HW122627   4.136   2.708   6.540
 7269SOL    HW222628   4.037   2.587   6.587
 7270SOL     OW22629   4.063   2.371   6.592
 7270SOL    HW122630   4.011   2.288   6.575
 7270SOL    HW222631   4.140   2.376   6.528
 7271SOL     OW22632   4.884   2.069   7.063
 7271SOL    HW122633   4.884   2.133   7.140
 7271SOL    HW222634   4.912   2.117   6.980
 7272SOL     OW22635   3.732   3.188   5.786
 7272SOL    HW122636   3.639   3.209   5.755
 7272SOL    HW222637   3.742   3.089   5.799
 7273SOL     OW22638   3.812   3.663   6.513
 7273SOL    HW122639   3.770   3.577   6.486
 7273SOL    HW222640   3.906   3.666   6.479
 7274SOL     OW22641   4.228   3.430   6.496
 7274SOL    HW122642   4.294   3.504   6.505
 7274SOL    HW222643   4.272   3.351   6.454
 7275SOL     OW22644   4.726   2.658   6.824
 7275SOL    HW122645   4.767   2.626   6.910
 7275SOL    HW222646   4.630   2.631   6.821
 7276SOL     OW22647   3.764   2.406   6.700
 7276SOL    HW122648   3.849   2.373   6.659
 7276SOL    HW222649   3.777   2.421   6.798
 7277SOL     OW22650   4.539   2.434   5.911
 7277SOL    HW122651   4.546   2.345   5.865
 7277SOL    HW222652   4.445   2.468   5.903
 7278SOL     OW22653   5.381   2.466   6.792
 7278SOL    HW122654   5.343   2.397   6.854
 7278SOL    HW222655   5.463   2.430   6.748
 7279SOL     OW22656   4.395   2.326   6.855
 7279SOL    HW122657   4.361   2.237   6.825
 7279SOL    HW222658   4.421   2.380   6.775
 7280SOL     OW22659   4.654   3.540   7.051
 7280SOL    HW122660   4.630   3.522   6.956
 7280SOL    HW222661   4.684   3.634   7.061
 7281SOL     OW22662   4.197   2.362   5.777
 7281SOL    HW122663   4.258   2.442   5.781
 7281SOL    HW222664   4.102   2.393   5.784
 7282SOL     OW22665   3.883   2.999   7.052
 7282SOL    HW122666   3.905   2.938   7.128
 7282SOL    HW222667   3.893   2.950   6.966
 7283SOL     OW22668   5.071   2.921   6.820
 7283SOL    HW122669   5.095   2.858   6.746
 7283SOL    HW222670   4.981   2.961   6.802
 7284SOL     OW22671   5.026   2.717   5.895
 7284SOL    HW122672   4.940   2.686   5.937
 7284SOL    HW222673   5.022   2.703   5.796
 7285SOL     OW22674   5.483   3.609   6.740
 7285SOL    HW122675   5.544   3.639   6.667
 7285SOL    HW222676   5.445   3.520   6.718
 7286SOL     OW22677   4.976   3.593   6.714
 7286SOL    HW122678   5.060   3.598   6.660
 7286SOL    HW222679   4.953   3.497   6.732
 7287SOL     OW22680   3.807   3.120   6.608
 7287SOL    HW122681   3.802   3.119   6.708
 7287SOL    HW222682   3.724   3.079   6.570
 7288SOL     OW22683   5.450   1.997   6.109
 7288SOL    HW122684   5.523   1.980   6.042
 7288SOL    HW222685   5.419   1.910   6.147
 7289SOL     OW22686   5.112   3.435   6.063
 7289SOL    HW122687   5.179   3.447   5.989
 7289SOL    HW222688   5.072   3.524   6.086
 7290SOL     OW22689   5.004   2.789   6.258
 7290SOL    HW122690   5.064   2.708   6.260
 7290SOL    HW222691   5.044   2.858   6.198
 7291SOL     OW22692   4.396   3.478   5.740
 7291SOL    HW122693   4.405   3.488   5.641
 7291SOL    HW222694   4.356   3.389   5.761
 7292SOL     OW22695   5.565   2.037   6.549
 7292SOL    HW122696   5.604   1.952   6.513
 7292SOL    HW222697   5.467   2.039   6.530
 7293SOL     OW22698   3.987   2.188   6.306
 7293SOL    HW122699   3.908   2.239   6.272
 7293SOL    HW222700   3.978   2.173   6.404
 7294SOL     OW22701   4.918   3.474   5.617
 7294SOL    HW122702   4.924   3.381   5.654
 7294SOL    HW222703   4.859   3.474   5.537
 7295SOL     OW22704   4.546   2.864   6.958
 7295SOL    HW122705   4.586   2.863   6.866
 7295SOL    HW222706   4.556   2.956   6.998
 7296SOL     OW22707   4.640   2.772   5.877
 7296SOL    HW122708   4.703   2.810   5.809
 7296SOL    HW222709   4.680   2.689   5.916
 7297SOL     OW22710   5.228   3.469   5.630
 7297SOL    HW122711   5.136   3.506   5.637
 7297SOL    HW222712   5.266   3.489   5.540
 7298SOL     OW22713   5.338   3.154   6.875
 7298SOL    HW122714   5.398   3.157   6.955
 7298SOL    HW222715   5.263   3.218   6.888
 7299SOL     OW22716   4.763   2.960   6.282
 7299SOL    HW122717   4.693   2.913   6.336
 7299SOL    HW222718   4.822   2.892   6.239
 7300SOL     OW22719   4.738   2.098   6.557
 7300SOL    HW122720   4.730   2.062   6.464
 7300SOL    HW222721   4.736   2.022   6.622
 7301SOL     OW22722   4.314   3.349   6.077
 7301SOL    HW122723   4.356   3.291   6.007
 7301SOL    HW222724   4.270   3.428   6.033
 7302SOL     OW22725   5.433   2.247   6.967
 7302SOL    HW122726   5.506   2.316   6.971
 7302SOL    HW222727   5.461   2.172   6.908
 7303SOL     OW22728   3.979   3.210   5.876
 7303SOL    HW122729   3.883   3.211   5.849
 7303SOL    HW222730   3.991   3.263   5.960
 7304SOL     OW22731   4.396   2.065   7.075
 7304SOL    HW122732   4.486   2.049   7.035
 7304SOL    HW222733   4.404   2.070   7.174
 7305SOL     OW22734   3.799   2.207   5.619
 7305SOL    HW122735   3.707   2.179   5.590
 7305SOL    HW222736   3.830   2.284   5.563
 7306SOL     OW22737   3.796   2.028   5.904
 7306SOL    HW122738   3.779   2.111   5.850
 7306SOL    HW222739   3.886   1.991   5.882
 7307SOL     OW22740   4.907   3.197   5.705
 7307SOL    HW122741   4.808   3.186   5.707
 7307SOL    HW222742   4.941   3.212   5.798
 7308SOL     OW22743   5.217   3.629   6.545
 7308SOL    HW122744   5.250   3.693   6.476
 7308SOL    HW222745   5.283   3.623   6.620
 7309SOL     OW22746   5.174   3.082   7.219
 7309SOL    HW122747   5.165   3.072   7.318
 7309SOL    HW222748   5.270   3.075   7.193
 7310SOL     OW22749   4.114   3.603   7.146
 7310SOL    HW122750   4.023   3.644   7.144
 7310SOL    HW222751   4.107   3.509   7.178
 7311SOL     OW22752   5.398   2.745   6.840
 7311SOL    HW122753   5.371   2.656   6.803
 7311SOL    HW222754   5.399   2.813   6.767
 7312SOL     OW22755   4.949   2.187   6.035
 7312SOL    HW122756   5.014   2.113   6.024
 7312SOL    HW222757   4.969   2.237   6.119
 7313SOL     OW22758   4.318   2.607   6.238
 7313SOL    HW122759   4.368   2.692   6.219
 7313SOL    HW222760   4.230   2.609   6.190
 7314SOL     OW22761   5.454   2.796   7.103
 7314SOL    HW122762   5.492   2.887   7.118
 7314SOL    HW222763   5.446   2.779   7.004
 7315SOL     OW22764   4.583   3.236   5.602
 7315SOL    HW122765   4.537   3.251   5.690
 7315SOL    HW222766   4.627   3.321   5.572
 7316SOL     OW22767   4.385   3.652   6.539
 7316SOL    HW122768   4.339   3.740   6.526
 7316SOL    HW222769   4.484   3.664   6.532
 7317SOL     OW22770   4.583   2.818   6.447
 7317SOL    HW122771   4.637   2.749   6.495
 7317SOL    HW222772   4.551   2.887   6.513
 7318SOL     OW22773   4.807   2.846   5.673
 7318SOL    HW122774   4.784   2.899   5.591
 7318SOL    HW222775   4.888   2.790   5.654
 7319SOL     OW22776   5.585   3.431   6.437
 7319SOL    HW122777   5.514   3.419   6.367
 7319SOL    HW222778   5.586   3.352   6.497
 7320SOL     OW22779   3.803   3.102   6.239
 7320SOL    HW122780   3.802   3.055   6.327
 7320SOL    HW222781   3.885   3.074   6.188
 7321SOL     OW22782   5.548   2.054   6.813
 7321SOL    HW122783   5.544   1.964   6.857
 7321SOL    HW222784   5.551   2.043   6.714
 7322SOL     OW22785   4.152   2.286   6.106
 7322SOL    HW122786   4.182   2.214   6.044
 7322SOL    HW222787   4.113   2.246   6.189
 7323SOL     OW22788   5.429   3.349   6.690
 7323SOL    HW122789   5.336   3.324   6.663
 7323SOL    HW222790   5.455   3.299   6.772
 7324SOL     OW22791   4.041   2.409   6.866
 7324SOL    HW122792   4.079   2.350   6.938
 7324SOL    HW222793   4.081   2.383   6.778
 7325SOL     OW22794   4.536   3.448   6.273
 7325SOL    HW122795   4.568   3.458   6.179
 7325SOL    HW222796   4.457   3.386   6.275
 7326SOL     OW22797   5.148   2.076   6.698
 7326SOL    HW122798   5.200   2.011   6.753
 7326SOL    HW222799   5.099   2.139   6.759
 7327SOL     OW22800   4.725   1.896   6.740
 7327SOL    HW122801   4.662   1.824   6.709
 7327SOL    HW222802   4.818   1.860   6.740
 7328SOL     OW22803   4.494   3.192   5.887
 7328SOL    HW122804   4.448   3.105   5.904
 7328SOL    HW222805   4.585   3.189   5.928
 7329SOL     OW22806   4.342   3.429   6.870
 7329SOL    HW122807   4.337   3.511   6.927
 7329SOL    HW222808   4.431   3.426   6.825
 7330SOL     OW22809   5.076   1.914   5.754
 7330SOL    HW122810   5.111   1.873   5.670
 7330SOL    HW222811   4.986   1.876   5.774
 7331SOL     OW22812   5.024   2.315   6.277
 7331SOL    HW122813   4.965   2.395   6.281
 7331SOL    HW222814   5.039   2.280   6.370
 7332SOL     OW22815   5.317   2.083   6.468
 7332SOL    HW122816   5.233   2.082   6.522
 7332SOL    HW222817   5.319   2.166   6.412
 7333SOL     OW22818   3.763   2.939   5.886
 7333SOL    HW122819   3.862   2.928   5.877
 7333SOL    HW222820   3.723   2.853   5.918
 7334SOL     OW22821   4.599   3.508   5.923
 7334SOL    HW122822   4.522   3.473   5.869
 7334SOL    HW222823   4.567   3.579   5.985
 7335SOL     OW22824   3.954   4.352   0.113
 7335SOL    HW122825   3.861   4.350   0.150
 7335SOL    HW222826   3.955   4.313   0.021
 7336SOL     OW22827   3.949   3.999   0.996
 7336SOL    HW122828   3.984   3.982   1.088
 7336SOL    HW222829   3.861   3.954   0.984
 7337SOL     OW22830   3.743   4.092   0.647
 7337SOL    HW122831   3.661   4.135   0.686
 7337SOL    HW222832   3.715   4.019   0.584
 7338SOL     OW22833   4.293   4.999   1.165
 7338SOL    HW122834   4.200   4.992   1.128
 7338SOL    HW222835   4.304   5.088   1.209
 7339SOL     OW22836   5.279   5.235   0.703
 7339SOL    HW122837   5.222   5.219   0.784
 7339SOL    HW222838   5.220   5.245   0.623
 7340SOL     OW22839   4.859   4.427   0.717
 7340SOL    HW122840   4.916   4.505   0.692
 7340SOL    HW222841   4.799   4.453   0.793
 7341SOL     OW22842   5.479   4.331   0.231
 7341SOL    HW122843   5.467   4.318   0.132
 7341SOL    HW222844   5.449   4.250   0.280
 7342SOL     OW22845   4.492   4.868   1.023
 7342SOL    HW122846   4.414   4.885   1.083
 7342SOL    HW222847   4.526   4.955   0.987
 7343SOL     OW22848   4.574   4.522   1.823
 7343SOL    HW122849   4.570   4.598   1.888
 7343SOL    HW222850   4.596   4.558   1.732
 7344SOL     OW22851   4.409   4.736   0.665
 7344SOL    HW122852   4.478   4.720   0.735
 7344SOL    HW222853   4.336   4.793   0.703
 7345SOL     OW22854   4.410   4.885   1.803
 7345SOL    HW122855   4.470   4.964   1.817
 7345SOL    HW222856   4.324   4.916   1.762
 7346SOL     OW22857   4.059   5.159   1.061
 7346SOL    HW122858   3.981   5.128   1.008
 7346SOL    HW222859   4.117   5.217   1.004
 7347SOL     OW22860   5.184   5.229   1.339
 7347SOL    HW122861   5.208   5.323   1.365
 7347SOL    HW222862   5.168   5.175   1.421
 7348SOL     OW22863   4.162   4.116   1.499
 7348SOL    HW122864   4.244   4.060   1.508
 7348SOL    HW222865   4.081   4.058   1.503
 7349SOL     OW22866   5.327   4.171   0.737
 7349SOL    HW122867   5.253   4.217   0.687
 7349SOL    HW222868   5.378   4.239   0.790
 7350SOL     OW22869   3.955   5.437   0.483
 7350SOL    HW122870   3.989   5.514   0.537
 7350SOL    HW222871   3.999   5.437   0.393
 7351SOL     OW22872   4.851   5.065   1.690
 7351SOL    HW122873   4.898   5.065   1.778
 7351SOL    HW222874   4.803   4.978   1.679
 7352SOL     OW22875   3.954   5.158   0.538
 7352SOL    HW122876   3.928   5.254   0.538
 7352SOL    HW222877   3.883   5.104   0.583
 7353SOL     OW22878   3.964   4.815   0.886
 7353SOL    HW122879   3.978   4.731   0.938
 7353SOL    HW222880   3.909   4.879   0.941
 7354SOL     OW22881   4.344   5.510   1.439
 7354SOL    HW122882   4.252   5.493   1.474
 7354SOL    HW222883   4.372   5.602   1.465
 7355SOL     OW22884   4.330   4.688   0.123
 7355SOL    HW122885   4.337   4.772   0.069
 7355SOL    HW222886   4.376   4.701   0.211
 7356SOL     OW22887   5.318   3.838   1.480
 7356SOL    HW122888   5.300   3.905   1.408
 7356SOL    HW222889   5.315   3.884   1.569
 7357SOL     OW22890   3.846   4.367   0.563
 7357SOL    HW122891   3.801   4.279   0.580
 7357SOL    HW222892   3.845   4.421   0.647
 7358SOL     OW22893   5.566   5.491   0.359
 7358SOL    HW122894   5.620   5.462   0.439
 7358SOL    HW222895   5.596   5.581   0.330
 7359SOL     OW22896   3.751   5.320   0.117
 7359SOL    HW122897   3.732   5.224   0.138
 7359SOL    HW222898   3.718   5.378   0.192
 7360SOL     OW22899   5.413   4.646   0.612
 7360SOL    HW122900   5.508   4.617   0.620
 7360SOL    HW222901   5.405   4.711   0.537
 7361SOL     OW22902   5.365   4.832   0.432
 7361SOL    HW122903   5.451   4.834   0.380
 7361SOL    HW222904   5.379   4.879   0.520
 7362SOL     OW22905   3.837   4.461   1.597
 7362SOL    HW122906   3.925   4.448   1.642
 7362SOL    HW222907   3.824   4.558   1.575
 7363SOL     OW22908   4.337   5.089   0.726
 7363SOL    HW122909   4.288   5.002   0.735
 7363SOL    HW222910   4.314   5.132   0.639
 7364SOL     OW22911   5.017   4.952   1.423
 7364SOL    HW122912   5.054   4.879   1.365
 7364SOL    HW222913   5.069   4.957   1.508
 7365SOL     OW22914   4.533   3.728   0.502
 7365SOL    HW122915   4.573   3.819   0.493
 7365SOL    HW222916   4.433   3.736   0.508
 7366SOL     OW22917   3.921   4.700   1.264
 7366SOL    HW122918   4.010   4.655   1.250
 7366SOL    HW222919   3.848   4.635   1.245
 7367SOL     OW22920   5.249   4.723   0.190
 7367SOL    HW122921   5.186   4.647   0.203
 7367SOL    HW222922   5.297   4.741   0.276
 7368SOL     OW22923   4.911   5.516   1.616
 7368SOL    HW122924   4.935   5.576   1.540
 7368SOL    HW222925   4.918   5.421   1.586
 7369SOL     OW22926   4.041   3.975   1.801
 7369SOL    HW122927   4.112   4.046   1.807
 7369SOL    HW222928   3.953   4.014   1.829
 7370SOL     OW22929   5.190   5.141   0.953
 7370SOL    HW122930   5.131   5.147   1.033
 7370SOL    HW222931   5.175   5.053   0.907
 7371SOL     OW22932   5.391   5.438   0.572
 7371SOL    HW122933   5.350   5.415   0.484
 7371SOL    HW222934   5.373   5.364   0.637
 7372SOL     OW22935   4.322   4.453   0.270
 7372SOL    HW122936   4.346   4.522   0.202
 7372SOL    HW222937   4.244   4.486   0.324
 7373SOL     OW22938   5.005   4.069   0.944
 7373SOL    HW122939   4.919   4.019   0.931
 7373SOL    HW222940   5.067   4.015   1.000
 7374SOL     OW22941   5.300   5.386   0.307
 7374SOL    HW122942   5.389   5.432   0.310
 7374SOL    HW222943   5.279   5.362   0.212
 7375SOL     OW22944   4.531   4.329   1.465
 7375SOL    HW122945   4.484   4.326   1.554
 7375SOL    HW222946   4.480   4.274   1.399
 7376SOL     OW22947   5.118   4.193   1.674
 7376SOL    HW122948   5.098   4.236   1.762
 7376SOL    HW222949   5.196   4.131   1.683
 7377SOL     OW22950   4.697   4.614   1.572
 7377SOL    HW122951   4.743   4.530   1.543
 7377SOL    HW222952   4.641   4.648   1.497
 7378SOL     OW22953   4.715   4.134   1.242
 7378SOL    HW122954   4.638   4.168   1.296
 7378SOL    HW222955   4.681   4.083   1.163
 7379SOL     OW22956   4.765   4.425   0.429
 7379SOL    HW122957   4.791   4.421   0.525
 7379SOL    HW222958   4.680   4.374   0.415
 7380SOL     OW22959   3.800   4.535   0.789
 7380SOL    HW122960   3.899   4.523   0.798
 7380SOL    HW222961   3.776   4.630   0.810
 7381SOL     OW22962   3.854   5.545   1.571
 7381SOL    HW122963   3.844   5.530   1.670
 7381SOL    HW222964   3.768   5.581   1.535
 7382SOL     OW22965   4.589   4.072   0.195
 7382SOL    HW122966   4.648   4.135   0.146
 7382SOL    HW222967   4.608   3.978   0.166
 7383SOL     OW22968   5.443   4.309   1.831
 7383SOL    HW122969   5.417   4.398   1.795
 7383SOL    HW222970   5.441   4.241   1.758
 7384SOL     OW22971   5.086   4.868   0.545
 7384SOL    HW122972   5.169   4.839   0.497
 7384SOL    HW222973   5.037   4.935   0.489
 7385SOL     OW22974   4.274   3.920   0.885
 7385SOL    HW122975   4.269   3.915   0.985
 7385SOL    HW222976   4.276   4.016   0.856
 7386SOL     OW22977   4.732   5.180   0.477
 7386SOL    HW122978   4.686   5.252   0.425
 7386SOL    HW222979   4.728   5.200   0.575
 7387SOL     OW22980   4.075   5.525   0.853
 7387SOL    HW122981   4.125   5.439   0.859
 7387SOL    HW222982   4.140   5.602   0.850
 7388SOL     OW22983   5.519   4.790   0.873
 7388SOL    HW122984   5.457   4.775   0.797
 7388SOL    HW222985   5.467   4.801   0.958
 7389SOL     OW22986   4.951   5.274   1.506
 7389SOL    HW122987   4.957   5.197   1.570
 7389SOL    HW222988   4.899   5.248   1.426
 7390SOL     OW22989   4.045   4.667   0.242
 7390SOL    HW122990   4.127   4.706   0.200
 7390SOL    HW222991   4.018   4.585   0.193
 7391SOL     OW22992   5.182   4.459   0.728
 7391SOL    HW122993   5.177   4.394   0.803
 7391SOL    HW222994   5.262   4.518   0.741
 7392SOL     OW22995   4.185   4.990   1.727
 7392SOL    HW122996   4.135   4.991   1.641
 7392SOL    HW222997   4.122   4.972   1.803
 7393SOL     OW22998   4.835   5.500   0.237
 7393SOL    HW122999   4.775   5.438   0.287
 7393SOL    HW223000   4.866   5.456   0.152
 7394SOL     OW23001   3.926   4.009   1.498
 7394SOL    HW123002   3.846   4.069   1.485
 7394SOL    HW223003   3.916   3.960   1.584
 7395SOL     OW23004   5.356   5.101   0.081
 7395SOL    HW123005   5.324   5.195   0.071
 7395SOL    HW223006   5.280   5.038   0.069
 7396SOL     OW23007   4.188   5.467   0.323
 7396SOL    HW123008   4.221   5.506   0.409
 7396SOL    HW223009   4.264   5.460   0.258
 7397SOL     OW23010   3.973   5.509   1.241
 7397SOL    HW123011   4.030   5.444   1.291
 7397SOL    HW223012   3.957   5.476   1.148
 7398SOL     OW23013   4.664   5.422   0.904
 7398SOL    HW123014   4.744   5.365   0.925
 7398SOL    HW223015   4.615   5.382   0.827
 7399SOL     OW23016   4.106   4.424   0.480
 7399SOL    HW123017   4.151   4.334   0.477
 7399SOL    HW223018   4.012   4.413   0.513
 7400SOL     OW23019   5.271   3.946   1.729
 7400SOL    HW123020   5.266   3.983   1.821
 7400SOL    HW223021   5.199   3.877   1.717
 7401SOL     OW23022   4.505   3.988   1.749
 7401SOL    HW123023   4.572   3.927   1.792
 7401SOL    HW223024   4.432   4.007   1.814
 7402SOL     OW23025   4.612   5.238   1.195
 7402SOL    HW123026   4.589   5.213   1.101
 7402SOL    HW223027   4.673   5.169   1.234
 7403SOL     OW23028   5.075   4.314   1.433
 7403SOL    HW123029   5.103   4.271   1.518
 7403SOL    HW223030   5.100   4.410   1.434
 7404SOL     OW23031   4.527   5.126   0.924
 7404SOL    HW123032   4.617   5.140   0.882
 7404SOL    HW223033   4.456   5.128   0.853
 7405SOL     OW23034   4.646   4.227   0.899
 7405SOL    HW123035   4.621   4.218   0.803
 7405SOL    HW223036   4.694   4.145   0.930
 7406SOL     OW23037   4.263   3.788   0.512
 7406SOL    HW123038   4.182   3.789   0.570
 7406SOL    HW223039   4.266   3.871   0.457
 7407SOL     OW23040   5.158   4.912   0.041
 7407SOL    HW123041   5.190   4.836   0.098
 7407SOL    HW223042   5.066   4.939   0.071
 7408SOL     OW23043   4.659   3.960   0.480
 7408SOL    HW123044   4.611   4.001   0.402
 7408SOL    HW223045   4.758   3.958   0.461
 7409SOL     OW23046   4.800   4.407   1.464
 7409SOL    HW123047   4.720   4.346   1.467
 7409SOL    HW223048   4.881   4.354   1.440
 7410SOL     OW23049   4.951   5.294   0.793
 7410SOL    HW123050   4.972   5.368   0.728
 7410SOL    HW223051   5.019   5.294   0.866
 7411SOL     OW23052   4.183   4.876   0.741
 7411SOL    HW123053   4.112   4.849   0.806
 7411SOL    HW223054   4.157   4.848   0.648
 7412SOL     OW23055   4.995   5.521   0.591
 7412SOL    HW123056   5.039   5.585   0.527
 7412SOL    HW223057   4.945   5.573   0.661
 7413SOL     OW23058   4.756   4.273   0.016
 7413SOL    HW123059   4.715   4.355  -0.023
 7413SOL    HW223060   4.820   4.299   0.089
 7414SOL     OW23061   3.802   4.280   1.386
 7414SOL    HW123062   3.894   4.279   1.345
 7414SOL    HW223063   3.796   4.354   1.453
 7415SOL     OW23064   4.285   3.946   1.147
 7415SOL    HW123065   4.323   3.862   1.184
 7415SOL    HW223066   4.197   3.965   1.191
 7416SOL     OW23067   4.590   4.178   0.642
 7416SOL    HW123068   4.558   4.250   0.580
 7416SOL    HW223069   4.614   4.097   0.589
 7417SOL     OW23070   4.741   3.763   0.753
 7417SOL    HW123071   4.669   3.768   0.684
 7417SOL    HW223072   4.717   3.694   0.822
 7418SOL     OW23073   5.153   4.897   0.867
 7418SOL    HW123074   5.098   4.813   0.860
 7418SOL    HW223075   5.179   4.926   0.775
 7419SOL     OW23076   5.190   4.314   0.992
 7419SOL    HW123077   5.160   4.219   0.999
 7419SOL    HW223078   5.263   4.330   1.058
 7420SOL     OW23079   5.581   4.557   0.377
 7420SOL    HW123080   5.623   4.493   0.441
 7420SOL    HW223081   5.543   4.506   0.299
 7421SOL     OW23082   4.212   5.109   0.174
 7421SOL    HW123083   4.125   5.094   0.221
 7421SOL    HW223084   4.195   5.135   0.079
 7422SOL     OW23085   5.388   5.004   0.657
 7422SOL    HW123086   5.487   5.012   0.671
 7422SOL    HW223087   5.343   5.088   0.688
 7423SOL     OW23088   5.114   4.299   0.078
 7423SOL    HW123089   5.060   4.278   0.159
 7423SOL    HW223090   5.205   4.258   0.087
 7424SOL     OW23091   4.251   3.980   0.328
 7424SOL    HW123092   4.278   3.921   0.253
 7424SOL    HW223093   4.251   4.075   0.297
 7425SOL     OW23094   5.478   4.947   1.588
 7425SOL    HW123095   5.569   4.908   1.575
 7425SOL    HW223096   5.486   5.043   1.612
 7426SOL     OW23097   4.788   5.071   1.340
 7426SOL    HW123098   4.708   5.048   1.395
 7426SOL    HW223099   4.871   5.045   1.389
 7427SOL     OW23100   5.316   5.353   1.625
 7427SOL    HW123101   5.343   5.387   1.535
 7427SOL    HW223102   5.395   5.315   1.671
 7428SOL     OW23103   4.835   4.919   1.100
 7428SOL    HW123104   4.795   4.963   1.181
 7428SOL    HW223105   4.794   4.956   1.017
 7429SOL     OW23106   5.362   4.823   1.079
 7429SOL    HW123107   5.367   4.904   1.138
 7429SOL    HW223108   5.276   4.825   1.028
 7430SOL     OW23109   4.639   3.813   1.402
 7430SOL    HW123110   4.664   3.793   1.307
 7430SOL    HW223111   4.711   3.869   1.444
 7431SOL     OW23112   4.704   4.840   1.719
 7431SOL    HW123113   4.605   4.846   1.729
 7431SOL    HW223114   4.727   4.760   1.663
 7432SOL     OW23115   4.429   4.774   0.368
 7432SOL    HW123116   4.415   4.781   0.467
 7432SOL    HW223117   4.513   4.723   0.350
 7433SOL     OW23118   4.134   4.537   1.251
 7433SOL    HW123119   4.220   4.549   1.301
 7433SOL    HW223120   4.092   4.450   1.278
 7434SOL     OW23121   4.998   4.110   1.262
 7434SOL    HW123122   5.019   4.184   1.326
 7434SOL    HW223123   4.909   4.127   1.219
 7435SOL     OW23124   3.788   5.288   1.331
 7435SOL    HW123125   3.742   5.370   1.297
 7435SOL    HW223126   3.886   5.307   1.340
 7436SOL     OW23127   4.091   4.824   0.501
 7436SOL    HW123128   4.084   4.907   0.445
 7436SOL    HW223129   4.095   4.744   0.441
 7437SOL     OW23130   4.290   4.261   0.865
 7437SOL    HW123131   4.302   4.327   0.791
 7437SOL    HW223132   4.336   4.295   0.948
 7438SOL     OW23133   4.976   5.072   0.388
 7438SOL    HW123134   5.026   5.149   0.428
 7438SOL    HW223135   4.881   5.074   0.420
 7439SOL     OW23136   4.996   5.169   1.142
 7439SOL    HW123137   5.043   5.182   1.229
 7439SOL    HW223138   4.930   5.095   1.151
 7440SOL     OW23139   5.306   4.363   0.472
 7440SOL    HW123140   5.275   4.424   0.545
 7440SOL    HW223141   5.356   4.415   0.403
 7441SOL     OW23142   4.078   5.234   1.329
 7441SOL    HW123143   4.057   5.190   1.242
 7441SOL    HW223144   4.175   5.260   1.332
 7442SOL     OW23145   4.126   4.475   1.598
 7442SOL    HW123146   4.194   4.530   1.551
 7442SOL    HW223147   4.166   4.387   1.625
 7443SOL     OW23148   5.311   4.503   1.670
 7443SOL    HW123149   5.219   4.541   1.665
 7443SOL    HW223150   5.371   4.550   1.605
 7444SOL     OW23151   4.737   3.829   1.770
 7444SOL    HW123152   4.743   3.914   1.718
 7444SOL    HW223153   4.769   3.753   1.713
 7445SOL     OW23154   4.228   3.774   1.740
 7445SOL    HW123155   4.186   3.717   1.670
 7445SOL    HW223156   4.162   3.843   1.772
 7446SOL     OW23157   4.297   4.594   1.029
 7446SOL    HW123158   4.341   4.683   1.020
 7446SOL    HW223159   4.234   4.594   1.106
 7447SOL     OW23160   5.084   4.586   1.045
 7447SOL    HW123161   5.009   4.586   0.979
 7447SOL    HW223162   5.121   4.494   1.054
 7448SOL     OW23163   4.933   4.249   0.275
 7448SOL    HW123164   4.946   4.165   0.329
 7448SOL    HW223165   4.904   4.323   0.335
 7449SOL     OW23166   4.031   3.937   1.231
 7449SOL    HW123167   4.008   3.974   1.321
 7449SOL    HW223168   4.001   3.842   1.225
 7450SOL     OW23169   3.761   5.034   1.282
 7450SOL    HW123170   3.814   4.985   1.350
 7450SOL    HW223171   3.783   5.132   1.287
 7451SOL     OW23172   4.456   4.358   1.064
 7451SOL    HW123173   4.515   4.332   0.988
 7451SOL    HW223174   4.428   4.454   1.053
 7452SOL     OW23175   5.452   4.659   1.854
 7452SOL    HW123176   5.406   4.652   1.765
 7452SOL    HW223177   5.390   4.703   1.920
 7453SOL     OW23178   4.031   3.787   0.618
 7453SOL    HW123179   4.020   3.881   0.651
 7453SOL    HW223180   4.026   3.724   0.695
 7454SOL     OW23181   5.346   4.091   0.374
 7454SOL    HW123182   5.348   4.015   0.438
 7454SOL    HW223183   5.298   4.168   0.414
 7455SOL     OW23184   4.747   4.490   0.966
 7455SOL    HW123185   4.762   4.511   1.062
 7455SOL    HW223186   4.717   4.395   0.957
 7456SOL     OW23187   4.704   5.297   1.700
 7456SOL    HW123188   4.684   5.341   1.612
 7456SOL    HW223189   4.743   5.206   1.684
 7457SOL     OW23190   5.583   5.242   1.605
 7457SOL    HW123191   5.597   5.269   1.510
 7457SOL    HW223192   5.666   5.264   1.658
 7458SOL     OW23193   4.074   4.622   1.804
 7458SOL    HW123194   4.150   4.666   1.852
 7458SOL    HW223195   4.109   4.575   1.722
 7459SOL     OW23196   5.264   3.998   0.125
 7459SOL    HW123197   5.203   3.923   0.148
 7459SOL    HW223198   5.286   4.050   0.208
 7460SOL     OW23199   5.027   4.562   0.042
 7460SOL    HW123200   5.061   4.469   0.057
 7460SOL    HW223201   5.045   4.589  -0.053
 7461SOL     OW23202   4.792   5.057   0.849
 7461SOL    HW123203   4.799   4.973   0.794
 7461SOL    HW223204   4.854   5.126   0.813
 7462SOL     OW23205   4.043   4.534   0.949
 7462SOL    HW123206   4.136   4.570   0.954
 7462SOL    HW223207   4.037   4.449   1.001
 7463SOL     OW23208   4.063   4.233   1.006
 7463SOL    HW123209   4.011   4.150   0.989
 7463SOL    HW223210   4.140   4.238   0.942
 7464SOL     OW23211   4.862   4.104   1.678
 7464SOL    HW123212   4.817   4.167   1.742
 7464SOL    HW223213   4.955   4.135   1.661
 7465SOL     OW23214   4.884   3.931   1.477
 7465SOL    HW123215   4.884   3.995   1.554
 7465SOL    HW223216   4.912   3.979   1.394
 7466SOL     OW23217   3.812   5.525   0.927
 7466SOL    HW123218   3.770   5.439   0.900
 7466SOL    HW223219   3.906   5.528   0.893
 7467SOL     OW23220   4.228   5.292   0.910
 7467SOL    HW123221   4.294   5.366   0.919
 7467SOL    HW223222   4.272   5.213   0.868
 7468SOL     OW23223   4.726   4.520   1.238
 7468SOL    HW123224   4.767   4.488   1.324
 7468SOL    HW223225   4.630   4.493   1.235
 7469SOL     OW23226   3.764   4.268   1.114
 7469SOL    HW123227   3.849   4.235   1.073
 7469SOL    HW223228   3.777   4.283   1.212
 7470SOL     OW23229   3.913   4.244   1.722
 7470SOL    HW123230   3.972   4.204   1.652
 7470SOL    HW223231   3.855   4.315   1.681
 7471SOL     OW23232   5.093   4.674   1.660
 7471SOL    HW123233   5.132   4.763   1.680
 7471SOL    HW223234   5.103   4.654   1.563
 7472SOL     OW23235   4.539   4.296   0.325
 7472SOL    HW123236   4.546   4.207   0.279
 7472SOL    HW223237   4.445   4.330   0.317
 7473SOL     OW23238   5.381   4.328   1.206
 7473SOL    HW123239   5.343   4.259   1.268
 7473SOL    HW223240   5.463   4.292   1.162
 7474SOL     OW23241   3.976   5.288   1.744
 7474SOL    HW123242   3.946   5.345   1.820
 7474SOL    HW223243   3.969   5.191   1.770
 7475SOL     OW23244   4.395   4.188   1.269
 7475SOL    HW123245   4.361   4.099   1.239
 7475SOL    HW223246   4.421   4.242   1.189
 7476SOL     OW23247   4.654   5.402   1.465
 7476SOL    HW123248   4.630   5.384   1.370
 7476SOL    HW223249   4.684   5.496   1.475
 7477SOL     OW23250   4.197   4.224   0.191
 7477SOL    HW123251   4.258   4.304   0.195
 7477SOL    HW223252   4.102   4.255   0.198
 7478SOL     OW23253   3.883   4.861   1.466
 7478SOL    HW123254   3.905   4.800   1.542
 7478SOL    HW223255   3.893   4.812   1.380
 7479SOL     OW23256   5.071   4.783   1.234
 7479SOL    HW123257   5.095   4.720   1.160
 7479SOL    HW223258   4.981   4.823   1.216
 7480SOL     OW23259   5.026   4.579   0.309
 7480SOL    HW123260   4.940   4.548   0.351
 7480SOL    HW223261   5.022   4.565   0.210
 7481SOL     OW23262   5.483   5.471   1.154
 7481SOL    HW123263   5.544   5.501   1.081
 7481SOL    HW223264   5.445   5.382   1.132
 7482SOL     OW23265   4.976   5.455   1.128
 7482SOL    HW123266   5.060   5.460   1.074
 7482SOL    HW223267   4.953   5.359   1.146
 7483SOL     OW23268   3.807   4.982   1.022
 7483SOL    HW123269   3.802   4.981   1.122
 7483SOL    HW223270   3.724   4.941   0.984
 7484SOL     OW23271   4.412   5.386   1.716
 7484SOL    HW123272   4.356   5.467   1.725
 7484SOL    HW223273   4.464   5.390   1.630
 7485SOL     OW23274   4.627   3.810   0.133
 7485SOL    HW123275   4.678   3.811   0.047
 7485SOL    HW223276   4.683   3.768   0.204
 7486SOL     OW23277   5.450   3.859   0.523
 7486SOL    HW123278   5.523   3.842   0.456
 7486SOL    HW223279   5.419   3.772   0.561
 7487SOL     OW23280   5.112   5.297   0.477
 7487SOL    HW123281   5.179   5.309   0.403
 7487SOL    HW223282   5.072   5.386   0.500
 7488SOL     OW23283   3.854   5.518   1.851
 7488SOL    HW123284   3.813   5.444   1.904
 7488SOL    HW223285   3.918   5.569   1.909
 7489SOL     OW23286   5.004   4.651   0.672
 7489SOL    HW123287   5.064   4.570   0.674
 7489SOL    HW223288   5.044   4.720   0.612
 7490SOL     OW23289   4.554   4.997   1.422
 7490SOL    HW123290   4.549   5.030   1.517
 7490SOL    HW223291   4.468   5.016   1.376
 7491SOL     OW23292   4.396   5.340   0.154
 7491SOL    HW123293   4.405   5.350   0.055
 7491SOL    HW223294   4.356   5.251   0.175
 7492SOL     OW23295   5.374   5.444   1.394
 7492SOL    HW123296   5.427   5.454   1.310
 7492SOL    HW223297   5.347   5.534   1.428
 7493SOL     OW23298   5.565   3.899   0.963
 7493SOL    HW123299   5.604   3.814   0.927
 7493SOL    HW223300   5.467   3.901   0.944
 7494SOL     OW23301   3.987   4.050   0.720
 7494SOL    HW123302   3.908   4.101   0.686
 7494SOL    HW223303   3.978   4.035   0.818
 7495SOL     OW23304   4.918   5.336   0.031
 7495SOL    HW123305   4.924   5.243   0.068
 7495SOL    HW223306   4.859   5.336  -0.049
 7496SOL     OW23307   4.546   4.726   1.372
 7496SOL    HW123308   4.586   4.725   1.280
 7496SOL    HW223309   4.556   4.818   1.412
 7497SOL     OW23310   4.640   4.634   0.291
 7497SOL    HW123311   4.703   4.672   0.223
 7497SOL    HW223312   4.680   4.551   0.330
 7498SOL     OW23313   5.228   5.331   0.044
 7498SOL    HW123314   5.136   5.368   0.051
 7498SOL    HW223315   5.266   5.351  -0.046
 7499SOL     OW23316   4.096   5.012   1.490
 7499SOL    HW123317   4.083   5.105   1.456
 7499SOL    HW223318   4.012   4.960   1.477
 7500SOL     OW23319   5.338   5.016   1.289
 7500SOL    HW123320   5.398   5.019   1.369
 7500SOL    HW223321   5.263   5.080   1.302
 7501SOL     OW23322   4.763   4.822   0.696
 7501SOL    HW123323   4.693   4.775   0.750
 7501SOL    HW223324   4.822   4.754   0.653
 7502SOL     OW23325   4.738   3.960   0.971
 7502SOL    HW123326   4.730   3.924   0.878
 7502SOL    HW223327   4.736   3.884   1.036
 7503SOL     OW23328   4.314   5.211   0.491
 7503SOL    HW123329   4.356   5.153   0.421
 7503SOL    HW223330   4.270   5.290   0.447
 7504SOL     OW23331   5.433   4.109   1.381
 7504SOL    HW123332   5.506   4.178   1.385
 7504SOL    HW223333   5.461   4.034   1.322
 7505SOL     OW23334   3.979   5.072   0.290
 7505SOL    HW123335   3.883   5.073   0.263
 7505SOL    HW223336   3.991   5.125   0.374
 7506SOL     OW23337   3.829   4.737   1.726
 7506SOL    HW123338   3.752   4.704   1.780
 7506SOL    HW223339   3.914   4.707   1.768
 7507SOL     OW23340   4.396   3.927   1.489
 7507SOL    HW123341   4.486   3.911   1.449
 7507SOL    HW223342   4.404   3.932   1.588
 7508SOL     OW23343   3.799   4.069   0.033
 7508SOL    HW123344   3.707   4.041   0.004
 7508SOL    HW223345   3.830   4.146  -0.023
 7509SOL     OW23346   5.164   4.580   1.398
 7509SOL    HW123347   5.107   4.632   1.335
 7509SOL    HW223348   5.260   4.592   1.374
 7510SOL     OW23349   3.796   3.890   0.318
 7510SOL    HW123350   3.779   3.973   0.264
 7510SOL    HW223351   3.886   3.853   0.296
 7511SOL     OW23352   4.907   5.059   0.119
 7511SOL    HW123353   4.808   5.048   0.121
 7511SOL    HW223354   4.941   5.074   0.212
 7512SOL     OW23355   4.337   4.566   1.431
 7512SOL    HW123356   4.393   4.647   1.414
 7512SOL    HW223357   4.396   4.486   1.434
 7513SOL     OW23358   5.217   5.491   0.959
 7513SOL    HW123359   5.250   5.555   0.890
 7513SOL    HW223360   5.283   5.485   1.034
 7514SOL     OW23361   4.440   4.289   1.708
 7514SOL    HW123362   4.459   4.354   1.782
 7514SOL    HW223363   4.500   4.209   1.717
 7515SOL     OW23364   5.174   4.944   1.633
 7515SOL    HW123365   5.165   4.934   1.732
 7515SOL    HW223366   5.270   4.937   1.607
 7516SOL     OW23367   4.114   5.465   1.560
 7516SOL    HW123368   4.023   5.506   1.558
 7516SOL    HW223369   4.107   5.371   1.592
 7517SOL     OW23370   5.398   4.607   1.254
 7517SOL    HW123371   5.371   4.518   1.217
 7517SOL    HW223372   5.399   4.675   1.181
 7518SOL     OW23373   4.949   4.049   0.449
 7518SOL    HW123374   5.014   3.975   0.438
 7518SOL    HW223375   4.969   4.099   0.533
 7519SOL     OW23376   4.318   4.469   0.652
 7519SOL    HW123377   4.368   4.554   0.633
 7519SOL    HW223378   4.230   4.471   0.604
 7520SOL     OW23379   5.501   4.066   1.642
 7520SOL    HW123380   5.484   4.097   1.548
 7520SOL    HW223381   5.417   4.029   1.680
 7521SOL     OW23382   5.454   4.658   1.517
 7521SOL    HW123383   5.492   4.749   1.532
 7521SOL    HW223384   5.446   4.641   1.418
 7522SOL     OW23385   4.583   5.098   0.016
 7522SOL    HW123386   4.537   5.113   0.104
 7522SOL    HW223387   4.627   5.183  -0.014
 7523SOL     OW23388   4.385   5.514   0.953
 7523SOL    HW123389   4.339   5.602   0.940
 7523SOL    HW223390   4.484   5.526   0.946
 7524SOL     OW23391   4.583   4.680   0.861
 7524SOL    HW123392   4.637   4.611   0.909
 7524SOL    HW223393   4.551   4.749   0.927
 7525SOL     OW23394   4.807   4.708   0.087
 7525SOL    HW123395   4.784   4.761   0.005
 7525SOL    HW223396   4.888   4.652   0.068
 7526SOL     OW23397   5.585   5.293   0.851
 7526SOL    HW123398   5.514   5.281   0.781
 7526SOL    HW223399   5.586   5.214   0.911
 7527SOL     OW23400   3.945   5.038   1.844
 7527SOL    HW123401   3.880   4.965   1.823
 7527SOL    HW223402   3.949   5.052   1.942
 7528SOL     OW23403   3.803   4.964   0.653
 7528SOL    HW123404   3.802   4.917   0.741
 7528SOL    HW223405   3.885   4.936   0.602
 7529SOL     OW23406   4.396   5.115   1.624
 7529SOL    HW123407   4.318   5.065   1.662
 7529SOL    HW223408   4.393   5.210   1.655
 7530SOL     OW23409   5.548   3.916   1.227
 7530SOL    HW123410   5.544   3.826   1.271
 7530SOL    HW223411   5.551   3.905   1.128
 7531SOL     OW23412   4.152   4.148   0.520
 7531SOL    HW123413   4.182   4.076   0.458
 7531SOL    HW223414   4.113   4.108   0.603
 7532SOL     OW23415   5.429   5.211   1.104
 7532SOL    HW123416   5.336   5.186   1.077
 7532SOL    HW223417   5.455   5.161   1.186
 7533SOL     OW23418   4.041   4.271   1.280
 7533SOL    HW123419   4.079   4.212   1.352
 7533SOL    HW223420   4.081   4.245   1.192
 7534SOL     OW23421   4.536   5.310   0.687
 7534SOL    HW123422   4.568   5.320   0.593
 7534SOL    HW223423   4.457   5.248   0.689
 7535SOL     OW23424   5.148   3.938   1.112
 7535SOL    HW123425   5.200   3.873   1.167
 7535SOL    HW223426   5.099   4.001   1.173
 7536SOL     OW23427   4.725   3.758   1.154
 7536SOL    HW123428   4.662   3.686   1.123
 7536SOL    HW223429   4.818   3.722   1.154
 7537SOL     OW23430   4.494   5.054   0.301
 7537SOL    HW123431   4.448   4.967   0.318
 7537SOL    HW223432   4.585   5.051   0.342
 7538SOL     OW23433   4.342   5.291   1.284
 7538SOL    HW123434   4.337   5.373   1.341
 7538SOL    HW223435   4.431   5.288   1.239
 7539SOL     OW23436   5.076   3.776   0.168
 7539SOL    HW123437   5.111   3.735   0.084
 7539SOL    HW223438   4.986   3.738   0.188
 7540SOL     OW23439   5.024   4.177   0.691
 7540SOL    HW123440   4.965   4.257   0.695
 7540SOL    HW223441   5.039   4.142   0.784
 7541SOL     OW23442   5.317   3.945   0.882
 7541SOL    HW123443   5.233   3.944   0.936
 7541SOL    HW223444   5.319   4.028   0.826
 7542SOL     OW23445   3.763   4.801   0.300
 7542SOL    HW123446   3.862   4.790   0.291
 7542SOL    HW223447   3.723   4.715   0.332
 7543SOL     OW23448   4.599   5.370   0.337
 7543SOL    HW123449   4.522   5.335   0.283
 7543SOL    HW223450   4.567   5.441   0.399
 7544SOL     OW23451   3.954   4.352   1.975
 7544SOL    HW123452   3.861   4.350   2.012
 7544SOL    HW223453   3.955   4.313   1.883
 7545SOL     OW23454   3.949   3.999   2.858
 7545SOL    HW123455   3.984   3.982   2.950
 7545SOL    HW223456   3.861   3.954   2.846
 7546SOL     OW23457   4.293   4.999   3.027
 7546SOL    HW123458   4.200   4.992   2.990
 7546SOL    HW223459   4.304   5.088   3.071
 7547SOL     OW23460   5.279   5.235   2.565
 7547SOL    HW123461   5.222   5.219   2.646
 7547SOL    HW223462   5.220   5.245   2.485
 7548SOL     OW23463   4.859   4.427   2.579
 7548SOL    HW123464   4.916   4.505   2.554
 7548SOL    HW223465   4.799   4.453   2.655
 7549SOL     OW23466   5.479   4.331   2.093
 7549SOL    HW123467   5.467   4.318   1.994
 7549SOL    HW223468   5.449   4.250   2.142
 7550SOL     OW23469   4.492   4.868   2.885
 7550SOL    HW123470   4.414   4.885   2.945
 7550SOL    HW223471   4.526   4.955   2.849
 7551SOL     OW23472   4.409   4.736   2.527
 7551SOL    HW123473   4.478   4.720   2.597
 7551SOL    HW223474   4.336   4.793   2.565
 7552SOL     OW23475   4.410   4.885   3.665
 7552SOL    HW123476   4.470   4.964   3.679
 7552SOL    HW223477   4.324   4.916   3.624
 7553SOL     OW23478   4.059   5.159   2.923
 7553SOL    HW123479   3.981   5.128   2.870
 7553SOL    HW223480   4.117   5.217   2.866
 7554SOL     OW23481   5.184   5.229   3.201
 7554SOL    HW123482   5.208   5.323   3.227
 7554SOL    HW223483   5.168   5.175   3.283
 7555SOL     OW23484   4.162   4.116   3.361
 7555SOL    HW123485   4.244   4.060   3.370
 7555SOL    HW223486   4.081   4.058   3.365
 7556SOL     OW23487   3.955   5.437   2.345
 7556SOL    HW123488   3.989   5.514   2.399
 7556SOL    HW223489   3.999   5.437   2.255
 7557SOL     OW23490   4.851   5.065   3.552
 7557SOL    HW123491   4.898   5.065   3.640
 7557SOL    HW223492   4.803   4.978   3.541
 7558SOL     OW23493   3.954   5.158   2.400
 7558SOL    HW123494   3.928   5.254   2.400
 7558SOL    HW223495   3.883   5.104   2.445
 7559SOL     OW23496   3.964   4.815   2.748
 7559SOL    HW123497   3.978   4.731   2.800
 7559SOL    HW223498   3.909   4.879   2.803
 7560SOL     OW23499   4.344   5.510   3.301
 7560SOL    HW123500   4.252   5.493   3.336
 7560SOL    HW223501   4.372   5.602   3.327
 7561SOL     OW23502   4.330   4.688   1.985
 7561SOL    HW123503   4.337   4.772   1.931
 7561SOL    HW223504   4.376   4.701   2.073
 7562SOL     OW23505   5.318   3.838   3.342
 7562SOL    HW123506   5.300   3.905   3.270
 7562SOL    HW223507   5.315   3.884   3.431
 7563SOL     OW23508   3.846   4.367   2.425
 7563SOL    HW123509   3.801   4.279   2.442
 7563SOL    HW223510   3.845   4.421   2.509
 7564SOL     OW23511   5.566   5.491   2.221
 7564SOL    HW123512   5.620   5.462   2.301
 7564SOL    HW223513   5.596   5.581   2.192
 7565SOL     OW23514   3.751   5.320   1.979
 7565SOL    HW123515   3.732   5.224   2.000
 7565SOL    HW223516   3.718   5.378   2.054
 7566SOL     OW23517   5.413   4.646   2.474
 7566SOL    HW123518   5.508   4.617   2.482
 7566SOL    HW223519   5.405   4.711   2.399
 7567SOL     OW23520   5.365   4.832   2.294
 7567SOL    HW123521   5.451   4.834   2.242
 7567SOL    HW223522   5.379   4.879   2.382
 7568SOL     OW23523   4.337   5.089   2.588
 7568SOL    HW123524   4.288   5.002   2.597
 7568SOL    HW223525   4.314   5.132   2.501
 7569SOL     OW23526   5.017   4.952   3.285
 7569SOL    HW123527   5.054   4.879   3.227
 7569SOL    HW223528   5.069   4.957   3.370
 7570SOL     OW23529   3.921   4.700   3.126
 7570SOL    HW123530   4.010   4.655   3.112
 7570SOL    HW223531   3.848   4.635   3.107
 7571SOL     OW23532   5.249   4.723   2.052
 7571SOL    HW123533   5.186   4.647   2.065
 7571SOL    HW223534   5.297   4.741   2.138
 7572SOL     OW23535   4.911   5.516   3.478
 7572SOL    HW123536   4.935   5.576   3.402
 7572SOL    HW223537   4.918   5.421   3.448
 7573SOL     OW23538   4.041   3.975   3.663
 7573SOL    HW123539   4.112   4.046   3.669
 7573SOL    HW223540   3.953   4.014   3.691
 7574SOL     OW23541   5.190   5.141   2.815
 7574SOL    HW123542   5.131   5.147   2.895
 7574SOL    HW223543   5.175   5.053   2.769
 7575SOL     OW23544   5.391   5.438   2.434
 7575SOL    HW123545   5.350   5.415   2.346
 7575SOL    HW223546   5.373   5.364   2.499
 7576SOL     OW23547   4.322   4.453   2.132
 7576SOL    HW123548   4.346   4.522   2.064
 7576SOL    HW223549   4.244   4.486   2.186
 7577SOL     OW23550   5.300   5.386   2.169
 7577SOL    HW123551   5.389   5.432   2.172
 7577SOL    HW223552   5.279   5.362   2.074
 7578SOL     OW23553   4.531   4.329   3.327
 7578SOL    HW123554   4.484   4.326   3.416
 7578SOL    HW223555   4.480   4.274   3.261
 7579SOL     OW23556   5.118   4.193   3.536
 7579SOL    HW123557   5.098   4.236   3.624
 7579SOL    HW223558   5.196   4.131   3.545
 7580SOL     OW23559   4.715   4.134   3.104
 7580SOL    HW123560   4.638   4.168   3.158
 7580SOL    HW223561   4.681   4.083   3.025
 7581SOL     OW23562   4.765   4.425   2.291
 7581SOL    HW123563   4.791   4.421   2.387
 7581SOL    HW223564   4.680   4.374   2.277
 7582SOL     OW23565   3.800   4.535   2.651
 7582SOL    HW123566   3.899   4.523   2.660
 7582SOL    HW223567   3.776   4.630   2.672
 7583SOL     OW23568   3.854   5.545   3.433
 7583SOL    HW123569   3.844   5.530   3.532
 7583SOL    HW223570   3.768   5.581   3.397
 7584SOL     OW23571   4.589   4.072   2.057
 7584SOL    HW123572   4.648   4.135   2.008
 7584SOL    HW223573   4.608   3.978   2.028
 7585SOL     OW23574   5.443   4.309   3.693
 7585SOL    HW123575   5.417   4.398   3.657
 7585SOL    HW223576   5.441   4.241   3.620
 7586SOL     OW23577   5.086   4.868   2.407
 7586SOL    HW123578   5.169   4.839   2.359
 7586SOL    HW223579   5.037   4.935   2.351
 7587SOL     OW23580   4.732   5.180   2.339
 7587SOL    HW123581   4.686   5.252   2.287
 7587SOL    HW223582   4.728   5.200   2.437
 7588SOL     OW23583   4.075   5.525   2.715
 7588SOL    HW123584   4.125   5.439   2.721
 7588SOL    HW223585   4.140   5.602   2.712
 7589SOL     OW23586   5.519   4.790   2.735
 7589SOL    HW123587   5.457   4.775   2.659
 7589SOL    HW223588   5.467   4.801   2.820
 7590SOL     OW23589   4.951   5.274   3.368
 7590SOL    HW123590   4.957   5.197   3.432
 7590SOL    HW223591   4.899   5.248   3.288
 7591SOL     OW23592   4.045   4.667   2.104
 7591SOL    HW123593   4.127   4.706   2.062
 7591SOL    HW223594   4.018   4.585   2.055
 7592SOL     OW23595   5.182   4.459   2.590
 7592SOL    HW123596   5.177   4.394   2.665
 7592SOL    HW223597   5.262   4.518   2.603
 7593SOL     OW23598   4.185   4.990   3.589
 7593SOL    HW123599   4.135   4.991   3.503
 7593SOL    HW223600   4.122   4.972   3.665
 7594SOL     OW23601   4.835   5.500   2.099
 7594SOL    HW123602   4.775   5.438   2.149
 7594SOL    HW223603   4.866   5.456   2.014
 7595SOL     OW23604   3.926   4.009   3.360
 7595SOL    HW123605   3.846   4.069   3.347
 7595SOL    HW223606   3.916   3.960   3.446
 7596SOL     OW23607   5.356   5.101   1.943
 7596SOL    HW123608   5.324   5.195   1.933
 7596SOL    HW223609   5.280   5.038   1.931
 7597SOL     OW23610   4.188   5.467   2.185
 7597SOL    HW123611   4.221   5.506   2.271
 7597SOL    HW223612   4.264   5.460   2.120
 7598SOL     OW23613   5.124   3.831   2.288
 7598SOL    HW123614   5.100   3.794   2.198
 7598SOL    HW223615   5.223   3.847   2.292
 7599SOL     OW23616   3.973   5.509   3.103
 7599SOL    HW123617   4.030   5.444   3.153
 7599SOL    HW223618   3.957   5.476   3.010
 7600SOL     OW23619   4.664   5.422   2.766
 7600SOL    HW123620   4.744   5.365   2.787
 7600SOL    HW223621   4.615   5.382   2.689
 7601SOL     OW23622   4.106   4.424   2.342
 7601SOL    HW123623   4.151   4.334   2.339
 7601SOL    HW223624   4.012   4.413   2.375
 7602SOL     OW23625   5.271   3.946   3.591
 7602SOL    HW123626   5.266   3.983   3.683
 7602SOL    HW223627   5.199   3.877   3.579
 7603SOL     OW23628   4.338   3.846   1.979
 7603SOL    HW123629   4.436   3.824   1.986
 7603SOL    HW223630   4.307   3.829   1.886
 7604SOL     OW23631   4.505   3.988   3.611
 7604SOL    HW123632   4.572   3.927   3.654
 7604SOL    HW223633   4.432   4.007   3.676
 7605SOL     OW23634   4.612   5.238   3.057
 7605SOL    HW123635   4.589   5.213   2.963
 7605SOL    HW223636   4.673   5.169   3.096
 7606SOL     OW23637   5.075   4.314   3.295
 7606SOL    HW123638   5.103   4.271   3.380
 7606SOL    HW223639   5.100   4.410   3.296
 7607SOL     OW23640   4.527   5.126   2.786
 7607SOL    HW123641   4.617   5.140   2.744
 7607SOL    HW223642   4.456   5.128   2.715
 7608SOL     OW23643   5.158   4.912   1.903
 7608SOL    HW123644   5.190   4.836   1.960
 7608SOL    HW223645   5.066   4.939   1.933
 7609SOL     OW23646   4.021   3.759   2.033
 7609SOL    HW123647   4.070   3.843   2.012
 7609SOL    HW223648   4.083   3.694   2.078
 7610SOL     OW23649   4.659   3.960   2.342
 7610SOL    HW123650   4.611   4.001   2.264
 7610SOL    HW223651   4.758   3.958   2.323
 7611SOL     OW23652   4.951   5.294   2.655
 7611SOL    HW123653   4.972   5.368   2.590
 7611SOL    HW223654   5.019   5.294   2.728
 7612SOL     OW23655   4.183   4.876   2.603
 7612SOL    HW123656   4.112   4.849   2.668
 7612SOL    HW223657   4.157   4.848   2.510
 7613SOL     OW23658   4.995   5.521   2.453
 7613SOL    HW123659   5.039   5.585   2.389
 7613SOL    HW223660   4.945   5.573   2.523
 7614SOL     OW23661   4.756   4.273   1.878
 7614SOL    HW123662   4.715   4.355   1.839
 7614SOL    HW223663   4.820   4.299   1.951
 7615SOL     OW23664   3.802   4.280   3.248
 7615SOL    HW123665   3.894   4.279   3.207
 7615SOL    HW223666   3.796   4.354   3.315
 7616SOL     OW23667   4.285   3.946   3.009
 7616SOL    HW123668   4.323   3.862   3.046
 7616SOL    HW223669   4.197   3.965   3.053
 7617SOL     OW23670   4.590   4.178   2.504
 7617SOL    HW123671   4.558   4.250   2.442
 7617SOL    HW223672   4.614   4.097   2.451
 7618SOL     OW23673   5.153   4.897   2.729
 7618SOL    HW123674   5.098   4.813   2.722
 7618SOL    HW223675   5.179   4.926   2.637
 7619SOL     OW23676   5.581   4.557   2.239
 7619SOL    HW123677   5.623   4.493   2.303
 7619SOL    HW223678   5.543   4.506   2.161
 7620SOL     OW23679   4.212   5.109   2.036
 7620SOL    HW123680   4.125   5.094   2.083
 7620SOL    HW223681   4.195   5.135   1.941
 7621SOL     OW23682   5.388   5.004   2.519
 7621SOL    HW123683   5.487   5.012   2.533
 7621SOL    HW223684   5.343   5.088   2.550
 7622SOL     OW23685   5.114   4.299   1.940
 7622SOL    HW123686   5.060   4.278   2.021
 7622SOL    HW223687   5.205   4.258   1.949
 7623SOL     OW23688   4.251   3.980   2.190
 7623SOL    HW123689   4.278   3.921   2.115
 7623SOL    HW223690   4.251   4.075   2.159
 7624SOL     OW23691   5.478   4.947   3.450
 7624SOL    HW123692   5.569   4.908   3.437
 7624SOL    HW223693   5.486   5.043   3.474
 7625SOL     OW23694   4.788   5.071   3.202
 7625SOL    HW123695   4.708   5.048   3.257
 7625SOL    HW223696   4.871   5.045   3.251
 7626SOL     OW23697   5.316   5.353   3.487
 7626SOL    HW123698   5.343   5.387   3.397
 7626SOL    HW223699   5.395   5.315   3.533
 7627SOL     OW23700   4.835   4.919   2.962
 7627SOL    HW123701   4.795   4.963   3.043
 7627SOL    HW223702   4.794   4.956   2.879
 7628SOL     OW23703   5.362   4.823   2.941
 7628SOL    HW123704   5.367   4.904   3.000
 7628SOL    HW223705   5.276   4.825   2.890
 7629SOL     OW23706   4.639   3.813   3.264
 7629SOL    HW123707   4.664   3.793   3.169
 7629SOL    HW223708   4.711   3.869   3.306
 7630SOL     OW23709   4.704   4.840   3.581
 7630SOL    HW123710   4.605   4.846   3.591
 7630SOL    HW223711   4.727   4.760   3.525
 7631SOL     OW23712   4.429   4.774   2.230
 7631SOL    HW123713   4.415   4.781   2.329
 7631SOL    HW223714   4.513   4.723   2.212
 7632SOL     OW23715   4.998   4.110   3.124
 7632SOL    HW123716   5.019   4.184   3.188
 7632SOL    HW223717   4.909   4.127   3.081
 7633SOL     OW23718   3.788   5.288   3.193
 7633SOL    HW123719   3.742   5.370   3.159
 7633SOL    HW223720   3.886   5.307   3.202
 7634SOL     OW23721   4.091   4.824   2.363
 7634SOL    HW123722   4.084   4.907   2.307
 7634SOL    HW223723   4.095   4.744   2.303
 7635SOL     OW23724   4.976   5.072   2.250
 7635SOL    HW123725   5.026   5.149   2.290
 7635SOL    HW223726   4.881   5.074   2.282
 7636SOL     OW23727   4.996   5.169   3.004
 7636SOL    HW123728   5.043   5.182   3.091
 7636SOL    HW223729   4.930   5.095   3.013
 7637SOL     OW23730   5.306   4.363   2.334
 7637SOL    HW123731   5.275   4.424   2.407
 7637SOL    HW223732   5.356   4.415   2.265
 7638SOL     OW23733   4.078   5.234   3.191
 7638SOL    HW123734   4.057   5.190   3.104
 7638SOL    HW223735   4.175   5.260   3.194
 7639SOL     OW23736   5.311   4.503   3.532
 7639SOL    HW123737   5.219   4.541   3.527
 7639SOL    HW223738   5.371   4.550   3.467
 7640SOL     OW23739   4.737   3.829   3.632
 7640SOL    HW123740   4.743   3.914   3.580
 7640SOL    HW223741   4.769   3.753   3.575
 7641SOL     OW23742   4.228   3.774   3.602
 7641SOL    HW123743   4.186   3.717   3.532
 7641SOL    HW223744   4.162   3.843   3.634
 7642SOL     OW23745   4.297   4.594   2.891
 7642SOL    HW123746   4.341   4.683   2.882
 7642SOL    HW223747   4.234   4.594   2.968
 7643SOL     OW23748   5.084   4.586   2.907
 7643SOL    HW123749   5.009   4.586   2.841
 7643SOL    HW223750   5.121   4.494   2.916
 7644SOL     OW23751   4.933   4.249   2.137
 7644SOL    HW123752   4.946   4.165   2.191
 7644SOL    HW223753   4.904   4.323   2.197
 7645SOL     OW23754   4.031   3.937   3.093
 7645SOL    HW123755   4.008   3.974   3.183
 7645SOL    HW223756   4.001   3.842   3.087
 7646SOL     OW23757   3.761   5.034   3.144
 7646SOL    HW123758   3.814   4.985   3.212
 7646SOL    HW223759   3.783   5.132   3.149
 7647SOL     OW23760   5.452   4.659   3.716
 7647SOL    HW123761   5.406   4.652   3.627
 7647SOL    HW223762   5.390   4.703   3.782
 7648SOL     OW23763   5.346   4.091   2.236
 7648SOL    HW123764   5.348   4.015   2.300
 7648SOL    HW223765   5.298   4.168   2.276
 7649SOL     OW23766   4.704   5.297   3.562
 7649SOL    HW123767   4.684   5.341   3.474
 7649SOL    HW223768   4.743   5.206   3.546
 7650SOL     OW23769   5.583   5.242   3.467
 7650SOL    HW123770   5.597   5.269   3.372
 7650SOL    HW223771   5.666   5.264   3.520
 7651SOL     OW23772   5.264   3.998   1.987
 7651SOL    HW123773   5.203   3.923   2.010
 7651SOL    HW223774   5.286   4.050   2.070
 7652SOL     OW23775   5.027   4.562   1.904
 7652SOL    HW123776   5.061   4.469   1.919
 7652SOL    HW223777   5.045   4.589   1.809
 7653SOL     OW23778   4.792   5.057   2.711
 7653SOL    HW123779   4.799   4.973   2.656
 7653SOL    HW223780   4.854   5.126   2.675
 7654SOL     OW23781   4.862   4.104   3.540
 7654SOL    HW123782   4.817   4.167   3.604
 7654SOL    HW223783   4.955   4.135   3.523
 7655SOL     OW23784   4.884   3.931   3.339
 7655SOL    HW123785   4.884   3.995   3.416
 7655SOL    HW223786   4.912   3.979   3.256
 7656SOL     OW23787   3.732   5.050   2.062
 7656SOL    HW123788   3.639   5.071   2.031
 7656SOL    HW223789   3.742   4.951   2.075
 7657SOL     OW23790   3.812   5.525   2.789
 7657SOL    HW123791   3.770   5.439   2.762
 7657SOL    HW223792   3.906   5.528   2.755
 7658SOL     OW23793   4.228   5.292   2.772
 7658SOL    HW123794   4.294   5.366   2.781
 7658SOL    HW223795   4.272   5.213   2.730
 7659SOL     OW23796   3.913   4.244   3.584
 7659SOL    HW123797   3.972   4.204   3.514
 7659SOL    HW223798   3.855   4.315   3.543
 7660SOL     OW23799   4.539   4.296   2.187
 7660SOL    HW123800   4.546   4.207   2.141
 7660SOL    HW223801   4.445   4.330   2.179
 7661SOL     OW23802   5.381   4.328   3.068
 7661SOL    HW123803   5.343   4.259   3.130
 7661SOL    HW223804   5.463   4.292   3.024
 7662SOL     OW23805   3.976   5.288   3.606
 7662SOL    HW123806   3.946   5.345   3.682
 7662SOL    HW223807   3.969   5.191   3.632
 7663SOL     OW23808   4.395   4.188   3.131
 7663SOL    HW123809   4.361   4.099   3.101
 7663SOL    HW223810   4.421   4.242   3.051
 7664SOL     OW23811   4.654   5.402   3.327
 7664SOL    HW123812   4.630   5.384   3.232
 7664SOL    HW223813   4.684   5.496   3.337
 7665SOL     OW23814   4.197   4.224   2.053
 7665SOL    HW123815   4.258   4.304   2.057
 7665SOL    HW223816   4.102   4.255   2.060
 7666SOL     OW23817   3.883   4.861   3.328
 7666SOL    HW123818   3.905   4.800   3.404
 7666SOL    HW223819   3.893   4.812   3.242
 7667SOL     OW23820   5.071   4.783   3.096
 7667SOL    HW123821   5.095   4.720   3.022
 7667SOL    HW223822   4.981   4.823   3.078
 7668SOL     OW23823   5.026   4.579   2.171
 7668SOL    HW123824   4.940   4.548   2.213
 7668SOL    HW223825   5.022   4.565   2.072
 7669SOL     OW23826   5.483   5.471   3.016
 7669SOL    HW123827   5.544   5.501   2.943
 7669SOL    HW223828   5.445   5.382   2.994
 7670SOL     OW23829   4.976   5.455   2.990
 7670SOL    HW123830   5.060   5.460   2.936
 7670SOL    HW223831   4.953   5.359   3.008
 7671SOL     OW23832   3.807   4.982   2.884
 7671SOL    HW123833   3.802   4.981   2.984
 7671SOL    HW223834   3.724   4.941   2.846
 7672SOL     OW23835   4.412   5.386   3.578
 7672SOL    HW123836   4.356   5.467   3.587
 7672SOL    HW223837   4.464   5.390   3.492
 7673SOL     OW23838   5.450   3.859   2.385
 7673SOL    HW123839   5.523   3.842   2.318
 7673SOL    HW223840   5.419   3.772   2.423
 7674SOL     OW23841   5.112   5.297   2.339
 7674SOL    HW123842   5.179   5.309   2.265
 7674SOL    HW223843   5.072   5.386   2.362
 7675SOL     OW23844   3.854   5.518   3.713
 7675SOL    HW123845   3.813   5.444   3.766
 7675SOL    HW223846   3.918   5.569   3.771
 7676SOL     OW23847   5.004   4.651   2.534
 7676SOL    HW123848   5.064   4.570   2.536
 7676SOL    HW223849   5.044   4.720   2.474
 7677SOL     OW23850   4.554   4.997   3.284
 7677SOL    HW123851   4.549   5.030   3.379
 7677SOL    HW223852   4.468   5.016   3.238
 7678SOL     OW23853   4.396   5.340   2.016
 7678SOL    HW123854   4.405   5.350   1.917
 7678SOL    HW223855   4.356   5.251   2.037
 7679SOL     OW23856   5.374   5.444   3.256
 7679SOL    HW123857   5.427   5.454   3.172
 7679SOL    HW223858   5.347   5.534   3.290
 7680SOL     OW23859   5.565   3.899   2.825
 7680SOL    HW123860   5.604   3.814   2.789
 7680SOL    HW223861   5.467   3.901   2.806
 7681SOL     OW23862   4.918   5.336   1.893
 7681SOL    HW123863   4.924   5.243   1.930
 7681SOL    HW223864   4.859   5.336   1.813
 7682SOL     OW23865   4.546   4.726   3.234
 7682SOL    HW123866   4.586   4.725   3.142
 7682SOL    HW223867   4.556   4.818   3.274
 7683SOL     OW23868   4.640   4.634   2.153
 7683SOL    HW123869   4.703   4.672   2.085
 7683SOL    HW223870   4.680   4.551   2.192
 7684SOL     OW23871   5.228   5.331   1.906
 7684SOL    HW123872   5.136   5.368   1.913
 7684SOL    HW223873   5.266   5.351   1.816
 7685SOL     OW23874   4.096   5.012   3.352
 7685SOL    HW123875   4.083   5.105   3.318
 7685SOL    HW223876   4.012   4.960   3.339
 7686SOL     OW23877   5.338   5.016   3.151
 7686SOL    HW123878   5.398   5.019   3.231
 7686SOL    HW223879   5.263   5.080   3.164
 7687SOL     OW23880   4.763   4.822   2.558
 7687SOL    HW123881   4.693   4.775   2.612
 7687SOL    HW223882   4.822   4.754   2.515
 7688SOL     OW23883   4.738   3.960   2.833
 7688SOL    HW123884   4.730   3.924   2.740
 7688SOL    HW223885   4.736   3.884   2.898
 7689SOL     OW23886   4.314   5.211   2.353
 7689SOL    HW123887   4.356   5.153   2.283
 7689SOL    HW223888   4.270   5.290   2.309
 7690SOL     OW23889   5.433   4.109   3.243
 7690SOL    HW123890   5.506   4.178   3.247
 7690SOL    HW223891   5.461   4.034   3.184
 7691SOL     OW23892   3.979   5.072   2.152
 7691SOL    HW123893   3.883   5.073   2.125
 7691SOL    HW223894   3.991   5.125   2.236
 7692SOL     OW23895   3.829   4.737   3.588
 7692SOL    HW123896   3.752   4.704   3.642
 7692SOL    HW223897   3.914   4.707   3.630
 7693SOL     OW23898   4.396   3.927   3.351
 7693SOL    HW123899   4.486   3.911   3.311
 7693SOL    HW223900   4.404   3.932   3.450
 7694SOL     OW23901   3.799   4.069   1.895
 7694SOL    HW123902   3.707   4.041   1.866
 7694SOL    HW223903   3.830   4.146   1.839
 7695SOL     OW23904   3.796   3.890   2.180
 7695SOL    HW123905   3.779   3.973   2.126
 7695SOL    HW223906   3.886   3.853   2.158
 7696SOL     OW23907   4.907   5.059   1.981
 7696SOL    HW123908   4.808   5.048   1.983
 7696SOL    HW223909   4.941   5.074   2.074
 7697SOL     OW23910   5.217   5.491   2.821
 7697SOL    HW123911   5.250   5.555   2.752
 7697SOL    HW223912   5.283   5.485   2.896
 7698SOL     OW23913   4.440   4.289   3.570
 7698SOL    HW123914   4.459   4.354   3.644
 7698SOL    HW223915   4.500   4.209   3.579
 7699SOL     OW23916   5.174   4.944   3.495
 7699SOL    HW123917   5.165   4.934   3.594
 7699SOL    HW223918   5.270   4.937   3.469
 7700SOL     OW23919   4.114   5.465   3.422
 7700SOL    HW123920   4.023   5.506   3.420
 7700SOL    HW223921   4.107   5.371   3.454
 7701SOL     OW23922   5.398   4.607   3.116
 7701SOL    HW123923   5.371   4.518   3.079
 7701SOL    HW223924   5.399   4.675   3.043
 7702SOL     OW23925   4.949   4.049   2.311
 7702SOL    HW123926   5.014   3.975   2.300
 7702SOL    HW223927   4.969   4.099   2.395
 7703SOL     OW23928   4.318   4.469   2.514
 7703SOL    HW123929   4.368   4.554   2.495
 7703SOL    HW223930   4.230   4.471   2.466
 7704SOL     OW23931   5.501   4.066   3.504
 7704SOL    HW123932   5.484   4.097   3.410
 7704SOL    HW223933   5.417   4.029   3.542
 7705SOL     OW23934   5.454   4.658   3.379
 7705SOL    HW123935   5.492   4.749   3.394
 7705SOL    HW223936   5.446   4.641   3.280
 7706SOL     OW23937   4.583   5.098   1.878
 7706SOL    HW123938   4.537   5.113   1.966
 7706SOL    HW223939   4.627   5.183   1.848
 7707SOL     OW23940   4.385   5.514   2.815
 7707SOL    HW123941   4.339   5.602   2.802
 7707SOL    HW223942   4.484   5.526   2.808
 7708SOL     OW23943   4.583   4.680   2.723
 7708SOL    HW123944   4.637   4.611   2.771
 7708SOL    HW223945   4.551   4.749   2.789
 7709SOL     OW23946   4.807   4.708   1.949
 7709SOL    HW123947   4.784   4.761   1.867
 7709SOL    HW223948   4.888   4.652   1.930
 7710SOL     OW23949   5.585   5.293   2.713
 7710SOL    HW123950   5.514   5.281   2.643
 7710SOL    HW223951   5.586   5.214   2.773
 7711SOL     OW23952   3.945   5.038   3.706
 7711SOL    HW123953   3.880   4.965   3.685
 7711SOL    HW223954   3.949   5.052   3.804
 7712SOL     OW23955   3.803   4.964   2.515
 7712SOL    HW123956   3.802   4.917   2.603
 7712SOL    HW223957   3.885   4.936   2.464
 7713SOL     OW23958   4.396   5.115   3.486
 7713SOL    HW123959   4.318   5.065   3.524
 7713SOL    HW223960   4.393   5.210   3.517
 7714SOL     OW23961   5.548   3.916   3.089
 7714SOL    HW123962   5.544   3.826   3.133
 7714SOL    HW223963   5.551   3.905   2.990
 7715SOL     OW23964   4.152   4.148   2.382
 7715SOL    HW123965   4.182   4.076   2.320
 7715SOL    HW223966   4.113   4.108   2.465
 7716SOL     OW23967   5.429   5.211   2.966
 7716SOL    HW123968   5.336   5.186   2.939
 7716SOL    HW223969   5.455   5.161   3.048
 7717SOL     OW23970   4.041   4.271   3.142
 7717SOL    HW123971   4.079   4.212   3.214
 7717SOL    HW223972   4.081   4.245   3.054
 7718SOL     OW23973   4.536   5.310   2.549
 7718SOL    HW123974   4.568   5.320   2.455
 7718SOL    HW223975   4.457   5.248   2.551
 7719SOL     OW23976   5.148   3.938   2.974
 7719SOL    HW123977   5.200   3.873   3.029
 7719SOL    HW223978   5.099   4.001   3.035
 7720SOL     OW23979   4.725   3.758   3.016
 7720SOL    HW123980   4.662   3.686   2.985
 7720SOL    HW223981   4.818   3.722   3.016
 7721SOL     OW23982   4.494   5.054   2.163
 7721SOL    HW123983   4.448   4.967   2.180
 7721SOL    HW223984   4.585   5.051   2.204
 7722SOL     OW23985   4.342   5.291   3.146
 7722SOL    HW123986   4.337   5.373   3.203
 7722SOL    HW223987   4.431   5.288   3.101
 7723SOL     OW23988   5.076   3.776   2.030
 7723SOL    HW123989   5.111   3.735   1.946
 7723SOL    HW223990   4.986   3.738   2.050
 7724SOL     OW23991   5.317   3.945   2.744
 7724SOL    HW123992   5.233   3.944   2.798
 7724SOL    HW223993   5.319   4.028   2.688
 7725SOL     OW23994   3.763   4.801   2.162
 7725SOL    HW123995   3.862   4.790   2.153
 7725SOL    HW223996   3.723   4.715   2.194
 7726SOL     OW23997   4.599   5.370   2.199
 7726SOL    HW123998   4.522   5.335   2.145
 7726SOL    HW223999   4.567   5.441   2.261
 7727SOL     OW24000   3.949   3.999   4.720
 7727SOL    HW124001   3.984   3.982   4.812
 7727SOL    HW224002   3.861   3.954   4.708
 7728SOL     OW24003   4.293   4.999   4.889
 7728SOL    HW124004   4.200   4.992   4.852
 7728SOL    HW224005   4.304   5.088   4.933
 7729SOL     OW24006   5.279   5.235   4.427
 7729SOL    HW124007   5.222   5.219   4.508
 7729SOL    HW224008   5.220   5.245   4.347
 7730SOL     OW24009   4.859   4.427   4.441
 7730SOL    HW124010   4.916   4.505   4.416
 7730SOL    HW224011   4.799   4.453   4.517
 7731SOL     OW24012   5.479   4.331   3.955
 7731SOL    HW124013   5.467   4.318   3.856
 7731SOL    HW224014   5.449   4.250   4.004
 7732SOL     OW24015   4.492   4.868   4.747
 7732SOL    HW124016   4.414   4.885   4.807
 7732SOL    HW224017   4.526   4.955   4.711
 7733SOL     OW24018   4.574   4.522   5.547
 7733SOL    HW124019   4.570   4.598   5.612
 7733SOL    HW224020   4.596   4.558   5.456
 7734SOL     OW24021   4.409   4.736   4.389
 7734SOL    HW124022   4.478   4.720   4.459
 7734SOL    HW224023   4.336   4.793   4.427
 7735SOL     OW24024   4.410   4.885   5.527
 7735SOL    HW124025   4.470   4.964   5.541
 7735SOL    HW224026   4.324   4.916   5.486
 7736SOL     OW24027   4.059   5.159   4.785
 7736SOL    HW124028   3.981   5.128   4.732
 7736SOL    HW224029   4.117   5.217   4.728
 7737SOL     OW24030   5.184   5.229   5.063
 7737SOL    HW124031   5.208   5.323   5.089
 7737SOL    HW224032   5.168   5.175   5.145
 7738SOL     OW24033   4.162   4.116   5.223
 7738SOL    HW124034   4.244   4.060   5.232
 7738SOL    HW224035   4.081   4.058   5.227
 7739SOL     OW24036   5.327   4.171   4.461
 7739SOL    HW124037   5.253   4.217   4.411
 7739SOL    HW224038   5.378   4.239   4.514
 7740SOL     OW24039   3.955   5.437   4.207
 7740SOL    HW124040   3.989   5.514   4.261
 7740SOL    HW224041   3.999   5.437   4.117
 7741SOL     OW24042   4.851   5.065   5.414
 7741SOL    HW124043   4.898   5.065   5.502
 7741SOL    HW224044   4.803   4.978   5.403
 7742SOL     OW24045   3.954   5.158   4.262
 7742SOL    HW124046   3.928   5.254   4.262
 7742SOL    HW224047   3.883   5.104   4.307
 7743SOL     OW24048   3.964   4.815   4.610
 7743SOL    HW124049   3.978   4.731   4.662
 7743SOL    HW224050   3.909   4.879   4.665
 7744SOL     OW24051   4.344   5.510   5.163
 7744SOL    HW124052   4.252   5.493   5.198
 7744SOL    HW224053   4.372   5.602   5.189
 7745SOL     OW24054   4.330   4.688   3.847
 7745SOL    HW124055   4.337   4.772   3.793
 7745SOL    HW224056   4.376   4.701   3.935
 7746SOL     OW24057   5.318   3.838   5.204
 7746SOL    HW124058   5.300   3.905   5.132
 7746SOL    HW224059   5.315   3.884   5.293
 7747SOL     OW24060   5.566   5.491   4.083
 7747SOL    HW124061   5.620   5.462   4.163
 7747SOL    HW224062   5.596   5.581   4.054
 7748SOL     OW24063   3.751   5.320   3.841
 7748SOL    HW124064   3.732   5.224   3.862
 7748SOL    HW224065   3.718   5.378   3.916
 7749SOL     OW24066   5.413   4.646   4.336
 7749SOL    HW124067   5.508   4.617   4.344
 7749SOL    HW224068   5.405   4.711   4.261
 7750SOL     OW24069   5.365   4.832   4.156
 7750SOL    HW124070   5.451   4.834   4.104
 7750SOL    HW224071   5.379   4.879   4.244
 7751SOL     OW24072   3.837   4.461   5.321
 7751SOL    HW124073   3.925   4.448   5.366
 7751SOL    HW224074   3.824   4.558   5.299
 7752SOL     OW24075   4.337   5.089   4.450
 7752SOL    HW124076   4.288   5.002   4.459
 7752SOL    HW224077   4.314   5.132   4.363
 7753SOL     OW24078   5.017   4.952   5.147
 7753SOL    HW124079   5.054   4.879   5.089
 7753SOL    HW224080   5.069   4.957   5.232
 7754SOL     OW24081   4.533   3.728   4.226
 7754SOL    HW124082   4.573   3.819   4.217
 7754SOL    HW224083   4.433   3.736   4.232
 7755SOL     OW24084   3.921   4.700   4.988
 7755SOL    HW124085   4.010   4.655   4.974
 7755SOL    HW224086   3.848   4.635   4.969
 7756SOL     OW24087   5.249   4.723   3.914
 7756SOL    HW124088   5.186   4.647   3.927
 7756SOL    HW224089   5.297   4.741   4.000
 7757SOL     OW24090   4.911   5.516   5.340
 7757SOL    HW124091   4.935   5.576   5.264
 7757SOL    HW224092   4.918   5.421   5.310
 7758SOL     OW24093   4.041   3.975   5.525
 7758SOL    HW124094   4.112   4.046   5.531
 7758SOL    HW224095   3.953   4.014   5.553
 7759SOL     OW24096   5.190   5.141   4.677
 7759SOL    HW124097   5.131   5.147   4.757
 7759SOL    HW224098   5.175   5.053   4.631
 7760SOL     OW24099   5.391   5.438   4.296
 7760SOL    HW124100   5.350   5.415   4.208
 7760SOL    HW224101   5.373   5.364   4.361
 7761SOL     OW24102   5.005   4.069   4.668
 7761SOL    HW124103   4.919   4.019   4.655
 7761SOL    HW224104   5.067   4.015   4.724
 7762SOL     OW24105   5.300   5.386   4.031
 7762SOL    HW124106   5.389   5.432   4.034
 7762SOL    HW224107   5.279   5.362   3.936
 7763SOL     OW24108   4.531   4.329   5.189
 7763SOL    HW124109   4.484   4.326   5.278
 7763SOL    HW224110   4.480   4.274   5.123
 7764SOL     OW24111   5.118   4.193   5.398
 7764SOL    HW124112   5.098   4.236   5.486
 7764SOL    HW224113   5.196   4.131   5.407
 7765SOL     OW24114   4.697   4.614   5.296
 7765SOL    HW124115   4.743   4.530   5.267
 7765SOL    HW224116   4.641   4.648   5.221
 7766SOL     OW24117   4.715   4.134   4.966
 7766SOL    HW124118   4.638   4.168   5.020
 7766SOL    HW224119   4.681   4.083   4.887
 7767SOL     OW24120   3.800   4.535   4.513
 7767SOL    HW124121   3.899   4.523   4.522
 7767SOL    HW224122   3.776   4.630   4.534
 7768SOL     OW24123   3.854   5.545   5.295
 7768SOL    HW124124   3.844   5.530   5.394
 7768SOL    HW224125   3.768   5.581   5.259
 7769SOL     OW24126   4.589   4.072   3.919
 7769SOL    HW124127   4.648   4.135   3.870
 7769SOL    HW224128   4.608   3.978   3.890
 7770SOL     OW24129   5.443   4.309   5.555
 7770SOL    HW124130   5.417   4.398   5.519
 7770SOL    HW224131   5.441   4.241   5.482
 7771SOL     OW24132   5.086   4.868   4.269
 7771SOL    HW124133   5.169   4.839   4.221
 7771SOL    HW224134   5.037   4.935   4.213
 7772SOL     OW24135   4.732   5.180   4.201
 7772SOL    HW124136   4.686   5.252   4.149
 7772SOL    HW224137   4.728   5.200   4.299
 7773SOL     OW24138   4.075   5.525   4.577
 7773SOL    HW124139   4.125   5.439   4.583
 7773SOL    HW224140   4.140   5.602   4.574
 7774SOL     OW24141   5.519   4.790   4.597
 7774SOL    HW124142   5.457   4.775   4.521
 7774SOL    HW224143   5.467   4.801   4.682
 7775SOL     OW24144   4.951   5.274   5.230
 7775SOL    HW124145   4.957   5.197   5.294
 7775SOL    HW224146   4.899   5.248   5.150
 7776SOL     OW24147   5.182   4.459   4.452
 7776SOL    HW124148   5.177   4.394   4.527
 7776SOL    HW224149   5.262   4.518   4.465
 7777SOL     OW24150   4.185   4.990   5.451
 7777SOL    HW124151   4.135   4.991   5.365
 7777SOL    HW224152   4.122   4.972   5.527
 7778SOL     OW24153   4.835   5.500   3.961
 7778SOL    HW124154   4.775   5.438   4.011
 7778SOL    HW224155   4.866   5.456   3.876
 7779SOL     OW24156   3.926   4.009   5.222
 7779SOL    HW124157   3.846   4.069   5.209
 7779SOL    HW224158   3.916   3.960   5.308
 7780SOL     OW24159   5.356   5.101   3.805
 7780SOL    HW124160   5.324   5.195   3.795
 7780SOL    HW224161   5.280   5.038   3.793
 7781SOL     OW24162   4.188   5.467   4.047
 7781SOL    HW124163   4.221   5.506   4.133
 7781SOL    HW224164   4.264   5.460   3.982
 7782SOL     OW24165   5.124   3.831   4.150
 7782SOL    HW124166   5.100   3.794   4.060
 7782SOL    HW224167   5.223   3.847   4.154
 7783SOL     OW24168   3.973   5.509   4.965
 7783SOL    HW124169   4.030   5.444   5.015
 7783SOL    HW224170   3.957   5.476   4.872
 7784SOL     OW24171   4.664   5.422   4.628
 7784SOL    HW124172   4.744   5.365   4.649
 7784SOL    HW224173   4.615   5.382   4.551
 7785SOL     OW24174   5.271   3.946   5.453
 7785SOL    HW124175   5.266   3.983   5.545
 7785SOL    HW224176   5.199   3.877   5.441
 7786SOL     OW24177   4.338   3.846   3.841
 7786SOL    HW124178   4.436   3.824   3.848
 7786SOL    HW224179   4.307   3.829   3.748
 7787SOL     OW24180   4.505   3.988   5.473
 7787SOL    HW124181   4.572   3.927   5.516
 7787SOL    HW224182   4.432   4.007   5.538
 7788SOL     OW24183   4.612   5.238   4.919
 7788SOL    HW124184   4.589   5.213   4.825
 7788SOL    HW224185   4.673   5.169   4.958
 7789SOL     OW24186   5.075   4.314   5.157
 7789SOL    HW124187   5.103   4.271   5.242
 7789SOL    HW224188   5.100   4.410   5.158
 7790SOL     OW24189   4.527   5.126   4.648
 7790SOL    HW124190   4.617   5.140   4.606
 7790SOL    HW224191   4.456   5.128   4.577
 7791SOL     OW24192   4.646   4.227   4.623
 7791SOL    HW124193   4.621   4.218   4.527
 7791SOL    HW224194   4.694   4.145   4.654
 7792SOL     OW24195   4.263   3.788   4.236
 7792SOL    HW124196   4.182   3.789   4.294
 7792SOL    HW224197   4.266   3.871   4.181
 7793SOL     OW24198   5.158   4.912   3.765
 7793SOL    HW124199   5.190   4.836   3.822
 7793SOL    HW224200   5.066   4.939   3.795
 7794SOL     OW24201   4.021   3.759   3.895
 7794SOL    HW124202   4.070   3.843   3.874
 7794SOL    HW224203   4.083   3.694   3.940
 7795SOL     OW24204   4.659   3.960   4.204
 7795SOL    HW124205   4.611   4.001   4.126
 7795SOL    HW224206   4.758   3.958   4.185
 7796SOL     OW24207   4.800   4.407   5.188
 7796SOL    HW124208   4.720   4.346   5.191
 7796SOL    HW224209   4.881   4.354   5.164
 7797SOL     OW24210   4.951   5.294   4.517
 7797SOL    HW124211   4.972   5.368   4.452
 7797SOL    HW224212   5.019   5.294   4.590
 7798SOL     OW24213   4.183   4.876   4.465
 7798SOL    HW124214   4.112   4.849   4.530
 7798SOL    HW224215   4.157   4.848   4.372
 7799SOL     OW24216   4.995   5.521   4.315
 7799SOL    HW124217   5.039   5.585   4.251
 7799SOL    HW224218   4.945   5.573   4.385
 7800SOL     OW24219   4.756   4.273   3.740
 7800SOL    HW124220   4.715   4.355   3.701
 7800SOL    HW224221   4.820   4.299   3.813
 7801SOL     OW24222   3.802   4.280   5.110
 7801SOL    HW124223   3.894   4.279   5.069
 7801SOL    HW224224   3.796   4.354   5.177
 7802SOL     OW24225   4.285   3.946   4.871
 7802SOL    HW124226   4.323   3.862   4.908
 7802SOL    HW224227   4.197   3.965   4.915
 7803SOL     OW24228   5.153   4.897   4.591
 7803SOL    HW124229   5.098   4.813   4.584
 7803SOL    HW224230   5.179   4.926   4.499
 7804SOL     OW24231   5.190   4.314   4.716
 7804SOL    HW124232   5.160   4.219   4.723
 7804SOL    HW224233   5.263   4.330   4.782
 7805SOL     OW24234   5.581   4.557   4.101
 7805SOL    HW124235   5.623   4.493   4.165
 7805SOL    HW224236   5.543   4.506   4.023
 7806SOL     OW24237   4.212   5.109   3.898
 7806SOL    HW124238   4.125   5.094   3.945
 7806SOL    HW224239   4.195   5.135   3.803
 7807SOL     OW24240   5.388   5.004   4.381
 7807SOL    HW124241   5.487   5.012   4.395
 7807SOL    HW224242   5.343   5.088   4.412
 7808SOL     OW24243   5.114   4.299   3.802
 7808SOL    HW124244   5.060   4.278   3.883
 7808SOL    HW224245   5.205   4.258   3.811
 7809SOL     OW24246   4.251   3.980   4.052
 7809SOL    HW124247   4.278   3.921   3.977
 7809SOL    HW224248   4.251   4.075   4.021
 7810SOL     OW24249   5.478   4.947   5.312
 7810SOL    HW124250   5.569   4.908   5.299
 7810SOL    HW224251   5.486   5.043   5.336
 7811SOL     OW24252   4.788   5.071   5.064
 7811SOL    HW124253   4.708   5.048   5.119
 7811SOL    HW224254   4.871   5.045   5.113
 7812SOL     OW24255   5.316   5.353   5.349
 7812SOL    HW124256   5.343   5.387   5.259
 7812SOL    HW224257   5.395   5.315   5.395
 7813SOL     OW24258   4.835   4.919   4.824
 7813SOL    HW124259   4.795   4.963   4.905
 7813SOL    HW224260   4.794   4.956   4.741
 7814SOL     OW24261   5.362   4.823   4.803
 7814SOL    HW124262   5.367   4.904   4.862
 7814SOL    HW224263   5.276   4.825   4.752
 7815SOL     OW24264   4.639   3.813   5.126
 7815SOL    HW124265   4.664   3.793   5.031
 7815SOL    HW224266   4.711   3.869   5.168
 7816SOL     OW24267   4.704   4.840   5.443
 7816SOL    HW124268   4.605   4.846   5.453
 7816SOL    HW224269   4.727   4.760   5.387
 7817SOL     OW24270   4.429   4.774   4.092
 7817SOL    HW124271   4.415   4.781   4.191
 7817SOL    HW224272   4.513   4.723   4.074
 7818SOL     OW24273   4.134   4.537   4.975
 7818SOL    HW124274   4.220   4.549   5.025
 7818SOL    HW224275   4.092   4.450   5.002
 7819SOL     OW24276   4.998   4.110   4.986
 7819SOL    HW124277   5.019   4.184   5.050
 7819SOL    HW224278   4.909   4.127   4.943
 7820SOL     OW24279   3.788   5.288   5.055
 7820SOL    HW124280   3.742   5.370   5.021
 7820SOL    HW224281   3.886   5.307   5.064
 7821SOL     OW24282   4.091   4.824   4.225
 7821SOL    HW124283   4.084   4.907   4.169
 7821SOL    HW224284   4.095   4.744   4.165
 7822SOL     OW24285   4.290   4.261   4.589
 7822SOL    HW124286   4.302   4.327   4.515
 7822SOL    HW224287   4.336   4.295   4.672
 7823SOL     OW24288   4.976   5.072   4.112
 7823SOL    HW124289   5.026   5.149   4.152
 7823SOL    HW224290   4.881   5.074   4.144
 7824SOL     OW24291   4.996   5.169   4.866
 7824SOL    HW124292   5.043   5.182   4.953
 7824SOL    HW224293   4.930   5.095   4.875
 7825SOL     OW24294   4.078   5.234   5.053
 7825SOL    HW124295   4.057   5.190   4.966
 7825SOL    HW224296   4.175   5.260   5.056
 7826SOL     OW24297   4.126   4.475   5.322
 7826SOL    HW124298   4.194   4.530   5.275
 7826SOL    HW224299   4.166   4.387   5.349
 7827SOL     OW24300   5.311   4.503   5.394
 7827SOL    HW124301   5.219   4.541   5.389
 7827SOL    HW224302   5.371   4.550   5.329
 7828SOL     OW24303   4.737   3.829   5.494
 7828SOL    HW124304   4.743   3.914   5.442
 7828SOL    HW224305   4.769   3.753   5.437
 7829SOL     OW24306   4.228   3.774   5.464
 7829SOL    HW124307   4.186   3.717   5.394
 7829SOL    HW224308   4.162   3.843   5.496
 7830SOL     OW24309   4.297   4.594   4.753
 7830SOL    HW124310   4.341   4.683   4.744
 7830SOL    HW224311   4.234   4.594   4.830
 7831SOL     OW24312   5.084   4.586   4.769
 7831SOL    HW124313   5.009   4.586   4.703
 7831SOL    HW224314   5.121   4.494   4.778
 7832SOL     OW24315   4.031   3.937   4.955
 7832SOL    HW124316   4.008   3.974   5.045
 7832SOL    HW224317   4.001   3.842   4.949
 7833SOL     OW24318   3.761   5.034   5.006
 7833SOL    HW124319   3.814   4.985   5.074
 7833SOL    HW224320   3.783   5.132   5.011
 7834SOL     OW24321   4.456   4.358   4.788
 7834SOL    HW124322   4.515   4.332   4.712
 7834SOL    HW224323   4.428   4.454   4.777
 7835SOL     OW24324   5.452   4.659   5.578
 7835SOL    HW124325   5.406   4.652   5.489
 7835SOL    HW224326   5.390   4.703   5.644
 7836SOL     OW24327   5.346   4.091   4.098
 7836SOL    HW124328   5.348   4.015   4.162
 7836SOL    HW224329   5.298   4.168   4.138
 7837SOL     OW24330   4.747   4.490   4.690
 7837SOL    HW124331   4.762   4.511   4.786
 7837SOL    HW224332   4.717   4.395   4.681
 7838SOL     OW24333   4.704   5.297   5.424
 7838SOL    HW124334   4.684   5.341   5.336
 7838SOL    HW224335   4.743   5.206   5.408
 7839SOL     OW24336   5.583   5.242   5.329
 7839SOL    HW124337   5.597   5.269   5.234
 7839SOL    HW224338   5.666   5.264   5.382
 7840SOL     OW24339   4.074   4.622   5.528
 7840SOL    HW124340   4.150   4.666   5.576
 7840SOL    HW224341   4.109   4.575   5.446
 7841SOL     OW24342   5.264   3.998   3.849
 7841SOL    HW124343   5.203   3.923   3.872
 7841SOL    HW224344   5.286   4.050   3.932
 7842SOL     OW24345   4.792   5.057   4.573
 7842SOL    HW124346   4.799   4.973   4.518
 7842SOL    HW224347   4.854   5.126   4.537
 7843SOL     OW24348   4.043   4.534   4.673
 7843SOL    HW124349   4.136   4.570   4.678
 7843SOL    HW224350   4.037   4.449   4.725
 7844SOL     OW24351   4.063   4.233   4.730
 7844SOL    HW124352   4.011   4.150   4.713
 7844SOL    HW224353   4.140   4.238   4.666
 7845SOL     OW24354   4.862   4.104   5.402
 7845SOL    HW124355   4.817   4.167   5.466
 7845SOL    HW224356   4.955   4.135   5.385
 7846SOL     OW24357   4.884   3.931   5.201
 7846SOL    HW124358   4.884   3.995   5.278
 7846SOL    HW224359   4.912   3.979   5.118
 7847SOL     OW24360   3.732   5.050   3.924
 7847SOL    HW124361   3.639   5.071   3.893
 7847SOL    HW224362   3.742   4.951   3.937
 7848SOL     OW24363   3.812   5.525   4.651
 7848SOL    HW124364   3.770   5.439   4.624
 7848SOL    HW224365   3.906   5.528   4.617
 7849SOL     OW24366   4.228   5.292   4.634
 7849SOL    HW124367   4.294   5.366   4.643
 7849SOL    HW224368   4.272   5.213   4.592
 7850SOL     OW24369   4.726   4.520   4.962
 7850SOL    HW124370   4.767   4.488   5.048
 7850SOL    HW224371   4.630   4.493   4.959
 7851SOL     OW24372   3.764   4.268   4.838
 7851SOL    HW124373   3.849   4.235   4.797
 7851SOL    HW224374   3.777   4.283   4.936
 7852SOL     OW24375   3.913   4.244   5.446
 7852SOL    HW124376   3.972   4.204   5.376
 7852SOL    HW224377   3.855   4.315   5.405
 7853SOL     OW24378   5.093   4.674   5.384
 7853SOL    HW124379   5.132   4.763   5.404
 7853SOL    HW224380   5.103   4.654   5.287
 7854SOL     OW24381   5.381   4.328   4.930
 7854SOL    HW124382   5.343   4.259   4.992
 7854SOL    HW224383   5.463   4.292   4.886
 7855SOL     OW24384   3.976   5.288   5.468
 7855SOL    HW124385   3.946   5.345   5.544
 7855SOL    HW224386   3.969   5.191   5.494
 7856SOL     OW24387   4.395   4.188   4.993
 7856SOL    HW124388   4.361   4.099   4.963
 7856SOL    HW224389   4.421   4.242   4.913
 7857SOL     OW24390   4.654   5.402   5.189
 7857SOL    HW124391   4.630   5.384   5.094
 7857SOL    HW224392   4.684   5.496   5.199
 7858SOL     OW24393   4.197   4.224   3.915
 7858SOL    HW124394   4.258   4.304   3.919
 7858SOL    HW224395   4.102   4.255   3.922
 7859SOL     OW24396   3.883   4.861   5.190
 7859SOL    HW124397   3.905   4.800   5.266
 7859SOL    HW224398   3.893   4.812   5.104
 7860SOL     OW24399   5.071   4.783   4.958
 7860SOL    HW124400   5.095   4.720   4.884
 7860SOL    HW224401   4.981   4.823   4.940
 7861SOL     OW24402   5.483   5.471   4.878
 7861SOL    HW124403   5.544   5.501   4.805
 7861SOL    HW224404   5.445   5.382   4.856
 7862SOL     OW24405   4.976   5.455   4.852
 7862SOL    HW124406   5.060   5.460   4.798
 7862SOL    HW224407   4.953   5.359   4.870
 7863SOL     OW24408   3.807   4.982   4.746
 7863SOL    HW124409   3.802   4.981   4.846
 7863SOL    HW224410   3.724   4.941   4.708
 7864SOL     OW24411   4.412   5.386   5.440
 7864SOL    HW124412   4.356   5.467   5.449
 7864SOL    HW224413   4.464   5.390   5.354
 7865SOL     OW24414   5.450   3.859   4.247
 7865SOL    HW124415   5.523   3.842   4.180
 7865SOL    HW224416   5.419   3.772   4.285
 7866SOL     OW24417   5.112   5.297   4.201
 7866SOL    HW124418   5.179   5.309   4.127
 7866SOL    HW224419   5.072   5.386   4.224
 7867SOL     OW24420   3.854   5.518   5.575
 7867SOL    HW124421   3.813   5.444   5.628
 7867SOL    HW224422   3.918   5.569   5.633
 7868SOL     OW24423   5.004   4.651   4.396
 7868SOL    HW124424   5.064   4.570   4.398
 7868SOL    HW224425   5.044   4.720   4.336
 7869SOL     OW24426   4.554   4.997   5.146
 7869SOL    HW124427   4.549   5.030   5.241
 7869SOL    HW224428   4.468   5.016   5.100
 7870SOL     OW24429   4.396   5.340   3.878
 7870SOL    HW124430   4.405   5.350   3.779
 7870SOL    HW224431   4.356   5.251   3.899
 7871SOL     OW24432   5.374   5.444   5.118
 7871SOL    HW124433   5.427   5.454   5.034
 7871SOL    HW224434   5.347   5.534   5.152
 7872SOL     OW24435   5.565   3.899   4.687
 7872SOL    HW124436   5.604   3.814   4.651
 7872SOL    HW224437   5.467   3.901   4.668
 7873SOL     OW24438   4.918   5.336   3.755
 7873SOL    HW124439   4.924   5.243   3.792
 7873SOL    HW224440   4.859   5.336   3.675
 7874SOL     OW24441   4.546   4.726   5.096
 7874SOL    HW124442   4.586   4.725   5.004
 7874SOL    HW224443   4.556   4.818   5.136
 7875SOL     OW24444   5.228   5.331   3.768
 7875SOL    HW124445   5.136   5.368   3.775
 7875SOL    HW224446   5.266   5.351   3.678
 7876SOL     OW24447   4.096   5.012   5.214
 7876SOL    HW124448   4.083   5.105   5.180
 7876SOL    HW224449   4.012   4.960   5.201
 7877SOL     OW24450   5.338   5.016   5.013
 7877SOL    HW124451   5.398   5.019   5.093
 7877SOL    HW224452   5.263   5.080   5.026
 7878SOL     OW24453   4.763   4.822   4.420
 7878SOL    HW124454   4.693   4.775   4.474
 7878SOL    HW224455   4.822   4.754   4.377
 7879SOL     OW24456   4.314   5.211   4.215
 7879SOL    HW124457   4.356   5.153   4.145
 7879SOL    HW224458   4.270   5.290   4.171
 7880SOL     OW24459   5.433   4.109   5.105
 7880SOL    HW124460   5.506   4.178   5.109
 7880SOL    HW224461   5.461   4.034   5.046
 7881SOL     OW24462   3.979   5.072   4.014
 7881SOL    HW124463   3.883   5.073   3.987
 7881SOL    HW224464   3.991   5.125   4.098
 7882SOL     OW24465   3.829   4.737   5.450
 7882SOL    HW124466   3.752   4.704   5.504
 7882SOL    HW224467   3.914   4.707   5.492
 7883SOL     OW24468   4.396   3.927   5.213
 7883SOL    HW124469   4.486   3.911   5.173
 7883SOL    HW224470   4.404   3.932   5.312
 7884SOL     OW24471   3.799   4.069   3.757
 7884SOL    HW124472   3.707   4.041   3.728
 7884SOL    HW224473   3.830   4.146   3.701
 7885SOL     OW24474   5.164   4.580   5.122
 7885SOL    HW124475   5.107   4.632   5.059
 7885SOL    HW224476   5.260   4.592   5.098
 7886SOL     OW24477   3.796   3.890   4.042
 7886SOL    HW124478   3.779   3.973   3.988
 7886SOL    HW224479   3.886   3.853   4.020
 7887SOL     OW24480   4.907   5.059   3.843
 7887SOL    HW124481   4.808   5.048   3.845
 7887SOL    HW224482   4.941   5.074   3.936
 7888SOL     OW24483   4.337   4.566   5.155
 7888SOL    HW124484   4.393   4.647   5.138
 7888SOL    HW224485   4.396   4.486   5.158
 7889SOL     OW24486   5.217   5.491   4.683
 7889SOL    HW124487   5.250   5.555   4.614
 7889SOL    HW224488   5.283   5.485   4.758
 7890SOL     OW24489   4.440   4.289   5.432
 7890SOL    HW124490   4.459   4.354   5.506
 7890SOL    HW224491   4.500   4.209   5.441
 7891SOL     OW24492   5.174   4.944   5.357
 7891SOL    HW124493   5.165   4.934   5.456
 7891SOL    HW224494   5.270   4.937   5.331
 7892SOL     OW24495   4.114   5.465   5.284
 7892SOL    HW124496   4.023   5.506   5.282
 7892SOL    HW224497   4.107   5.371   5.316
 7893SOL     OW24498   5.398   4.607   4.978
 7893SOL    HW124499   5.371   4.518   4.941
 7893SOL    HW224500   5.399   4.675   4.905
 7894SOL     OW24501   4.318   4.469   4.376
 7894SOL    HW124502   4.368   4.554   4.357
 7894SOL    HW224503   4.230   4.471   4.328
 7895SOL     OW24504   5.501   4.066   5.366
 7895SOL    HW124505   5.484   4.097   5.272
 7895SOL    HW224506   5.417   4.029   5.404
 7896SOL     OW24507   5.454   4.658   5.241
 7896SOL    HW124508   5.492   4.749   5.256
 7896SOL    HW224509   5.446   4.641   5.142
 7897SOL     OW24510   4.583   5.098   3.740
 7897SOL    HW124511   4.537   5.113   3.828
 7897SOL    HW224512   4.627   5.183   3.710
 7898SOL     OW24513   4.385   5.514   4.677
 7898SOL    HW124514   4.339   5.602   4.664
 7898SOL    HW224515   4.484   5.526   4.670
 7899SOL     OW24516   4.583   4.680   4.585
 7899SOL    HW124517   4.637   4.611   4.633
 7899SOL    HW224518   4.551   4.749   4.651
 7900SOL     OW24519   4.807   4.708   3.811
 7900SOL    HW124520   4.784   4.761   3.729
 7900SOL    HW224521   4.888   4.652   3.792
 7901SOL     OW24522   5.585   5.293   4.575
 7901SOL    HW124523   5.514   5.281   4.505
 7901SOL    HW224524   5.586   5.214   4.635
 7902SOL     OW24525   3.945   5.038   5.568
 7902SOL    HW124526   3.880   4.965   5.547
 7902SOL    HW224527   3.949   5.052   5.666
 7903SOL     OW24528   3.803   4.964   4.377
 7903SOL    HW124529   3.802   4.917   4.465
 7903SOL    HW224530   3.885   4.936   4.326
 7904SOL     OW24531   4.396   5.115   5.348
 7904SOL    HW124532   4.318   5.065   5.386
 7904SOL    HW224533   4.393   5.210   5.379
 7905SOL     OW24534   5.548   3.916   4.951
 7905SOL    HW124535   5.544   3.826   4.995
 7905SOL    HW224536   5.551   3.905   4.852
 7906SOL     OW24537   5.429   5.211   4.828
 7906SOL    HW124538   5.336   5.186   4.801
 7906SOL    HW224539   5.455   5.161   4.910
 7907SOL     OW24540   4.041   4.271   5.004
 7907SOL    HW124541   4.079   4.212   5.076
 7907SOL    HW224542   4.081   4.245   4.916
 7908SOL     OW24543   4.536   5.310   4.411
 7908SOL    HW124544   4.568   5.320   4.317
 7908SOL    HW224545   4.457   5.248   4.413
 7909SOL     OW24546   5.148   3.938   4.836
 7909SOL    HW124547   5.200   3.873   4.891
 7909SOL    HW224548   5.099   4.001   4.897
 7910SOL     OW24549   4.725   3.758   4.878
 7910SOL    HW124550   4.662   3.686   4.847
 7910SOL    HW224551   4.818   3.722   4.878
 7911SOL     OW24552   4.494   5.054   4.025
 7911SOL    HW124553   4.448   4.967   4.042
 7911SOL    HW224554   4.585   5.051   4.066
 7912SOL     OW24555   4.342   5.291   5.008
 7912SOL    HW124556   4.337   5.373   5.065
 7912SOL    HW224557   4.431   5.288   4.963
 7913SOL     OW24558   5.076   3.776   3.892
 7913SOL    HW124559   5.111   3.735   3.808
 7913SOL    HW224560   4.986   3.738   3.912
 7914SOL     OW24561   5.317   3.945   4.606
 7914SOL    HW124562   5.233   3.944   4.660
 7914SOL    HW224563   5.319   4.028   4.550
 7915SOL     OW24564   3.763   4.801   4.024
 7915SOL    HW124565   3.862   4.790   4.015
 7915SOL    HW224566   3.723   4.715   4.056
 7916SOL     OW24567   4.599   5.370   4.061
 7916SOL    HW124568   4.522   5.335   4.007
 7916SOL    HW224569   4.567   5.441   4.123
 7917SOL     OW24570   3.954   4.352   5.699
 7917SOL    HW124571   3.861   4.350   5.736
 7917SOL    HW224572   3.955   4.313   5.607
 7918SOL     OW24573   3.949   3.999   6.582
 7918SOL    HW124574   3.984   3.982   6.674
 7918SOL    HW224575   3.861   3.954   6.570
 7919SOL     OW24576   3.743   4.092   6.233
 7919SOL    HW124577   3.661   4.135   6.272
 7919SOL    HW224578   3.715   4.019   6.170
 7920SOL     OW24579   4.293   4.999   6.751
 7920SOL    HW124580   4.200   4.992   6.714
 7920SOL    HW224581   4.304   5.088   6.795
 7921SOL     OW24582   5.279   5.235   6.289
 7921SOL    HW124583   5.222   5.219   6.370
 7921SOL    HW224584   5.220   5.245   6.209
 7922SOL     OW24585   4.859   4.427   6.303
 7922SOL    HW124586   4.916   4.505   6.278
 7922SOL    HW224587   4.799   4.453   6.379
 7923SOL     OW24588   5.479   4.331   5.817
 7923SOL    HW124589   5.467   4.318   5.718
 7923SOL    HW224590   5.449   4.250   5.866
 7924SOL     OW24591   4.492   4.868   6.609
 7924SOL    HW124592   4.414   4.885   6.669
 7924SOL    HW224593   4.526   4.955   6.573
 7925SOL     OW24594   4.409   4.736   6.251
 7925SOL    HW124595   4.478   4.720   6.321
 7925SOL    HW224596   4.336   4.793   6.289
 7926SOL     OW24597   4.059   5.159   6.647
 7926SOL    HW124598   3.981   5.128   6.594
 7926SOL    HW224599   4.117   5.217   6.590
 7927SOL     OW24600   5.327   4.171   6.323
 7927SOL    HW124601   5.253   4.217   6.273
 7927SOL    HW224602   5.378   4.239   6.376
 7928SOL     OW24603   3.955   5.437   6.069
 7928SOL    HW124604   3.989   5.514   6.123
 7928SOL    HW224605   3.999   5.437   5.979
 7929SOL     OW24606   3.954   5.158   6.124
 7929SOL    HW124607   3.928   5.254   6.124
 7929SOL    HW224608   3.883   5.104   6.169
 7930SOL     OW24609   3.964   4.815   6.472
 7930SOL    HW124610   3.978   4.731   6.524
 7930SOL    HW224611   3.909   4.879   6.527
 7931SOL     OW24612   4.344   5.510   7.025
 7931SOL    HW124613   4.252   5.493   7.060
 7931SOL    HW224614   4.372   5.602   7.051
 7932SOL     OW24615   4.330   4.688   5.709
 7932SOL    HW124616   4.337   4.772   5.655
 7932SOL    HW224617   4.376   4.701   5.797
 7933SOL     OW24618   3.846   4.367   6.149
 7933SOL    HW124619   3.801   4.279   6.166
 7933SOL    HW224620   3.845   4.421   6.233
 7934SOL     OW24621   5.566   5.491   5.945
 7934SOL    HW124622   5.620   5.462   6.025
 7934SOL    HW224623   5.596   5.581   5.916
 7935SOL     OW24624   3.751   5.320   5.703
 7935SOL    HW124625   3.732   5.224   5.724
 7935SOL    HW224626   3.718   5.378   5.778
 7936SOL     OW24627   5.413   4.646   6.198
 7936SOL    HW124628   5.508   4.617   6.206
 7936SOL    HW224629   5.405   4.711   6.123
 7937SOL     OW24630   5.365   4.832   6.018
 7937SOL    HW124631   5.451   4.834   5.966
 7937SOL    HW224632   5.379   4.879   6.106
 7938SOL     OW24633   4.337   5.089   6.312
 7938SOL    HW124634   4.288   5.002   6.321
 7938SOL    HW224635   4.314   5.132   6.225
 7939SOL     OW24636   4.533   3.728   6.088
 7939SOL    HW124637   4.573   3.819   6.079
 7939SOL    HW224638   4.433   3.736   6.094
 7940SOL     OW24639   3.921   4.700   6.850
 7940SOL    HW124640   4.010   4.655   6.836
 7940SOL    HW224641   3.848   4.635   6.831
 7941SOL     OW24642   5.249   4.723   5.776
 7941SOL    HW124643   5.186   4.647   5.789
 7941SOL    HW224644   5.297   4.741   5.862
 7942SOL     OW24645   5.190   5.141   6.539
 7942SOL    HW124646   5.131   5.147   6.619
 7942SOL    HW224647   5.175   5.053   6.493
 7943SOL     OW24648   5.391   5.438   6.158
 7943SOL    HW124649   5.350   5.415   6.070
 7943SOL    HW224650   5.373   5.364   6.223
 7944SOL     OW24651   4.322   4.453   5.856
 7944SOL    HW124652   4.346   4.522   5.788
 7944SOL    HW224653   4.244   4.486   5.910
 7945SOL     OW24654   5.005   4.069   6.530
 7945SOL    HW124655   4.919   4.019   6.517
 7945SOL    HW224656   5.067   4.015   6.586
 7946SOL     OW24657   5.300   5.386   5.893
 7946SOL    HW124658   5.389   5.432   5.896
 7946SOL    HW224659   5.279   5.362   5.798
 7947SOL     OW24660   4.531   4.329   7.051
 7947SOL    HW124661   4.484   4.326   7.140
 7947SOL    HW224662   4.480   4.274   6.985
 7948SOL     OW24663   4.715   4.134   6.828
 7948SOL    HW124664   4.638   4.168   6.882
 7948SOL    HW224665   4.681   4.083   6.749
 7949SOL     OW24666   4.765   4.425   6.015
 7949SOL    HW124667   4.791   4.421   6.111
 7949SOL    HW224668   4.680   4.374   6.001
 7950SOL     OW24669   3.800   4.535   6.375
 7950SOL    HW124670   3.899   4.523   6.384
 7950SOL    HW224671   3.776   4.630   6.396
 7951SOL     OW24672   3.854   5.545   7.157
 7951SOL    HW124673   3.844   5.530   7.256
 7951SOL    HW224674   3.768   5.581   7.121
 7952SOL     OW24675   4.589   4.072   5.781
 7952SOL    HW124676   4.648   4.135   5.732
 7952SOL    HW224677   4.608   3.978   5.752
 7953SOL     OW24678   5.086   4.868   6.131
 7953SOL    HW124679   5.169   4.839   6.083
 7953SOL    HW224680   5.037   4.935   6.075
 7954SOL     OW24681   4.274   3.920   6.471
 7954SOL    HW124682   4.269   3.915   6.571
 7954SOL    HW224683   4.276   4.016   6.442
 7955SOL     OW24684   4.732   5.180   6.063
 7955SOL    HW124685   4.686   5.252   6.011
 7955SOL    HW224686   4.728   5.200   6.161
 7956SOL     OW24687   4.075   5.525   6.439
 7956SOL    HW124688   4.125   5.439   6.445
 7956SOL    HW224689   4.140   5.602   6.436
 7957SOL     OW24690   5.519   4.790   6.459
 7957SOL    HW124691   5.457   4.775   6.383
 7957SOL    HW224692   5.467   4.801   6.544
 7958SOL     OW24693   4.045   4.667   5.828
 7958SOL    HW124694   4.127   4.706   5.786
 7958SOL    HW224695   4.018   4.585   5.779
 7959SOL     OW24696   5.182   4.459   6.314
 7959SOL    HW124697   5.177   4.394   6.389
 7959SOL    HW224698   5.262   4.518   6.327
 7960SOL     OW24699   4.835   5.500   5.823
 7960SOL    HW124700   4.775   5.438   5.873
 7960SOL    HW224701   4.866   5.456   5.738
 7961SOL     OW24702   5.356   5.101   5.667
 7961SOL    HW124703   5.324   5.195   5.657
 7961SOL    HW224704   5.280   5.038   5.655
 7962SOL     OW24705   4.188   5.467   5.909
 7962SOL    HW124706   4.221   5.506   5.995
 7962SOL    HW224707   4.264   5.460   5.844
 7963SOL     OW24708   5.124   3.831   6.012
 7963SOL    HW124709   5.100   3.794   5.922
 7963SOL    HW224710   5.223   3.847   6.016
 7964SOL     OW24711   3.973   5.509   6.827
 7964SOL    HW124712   4.030   5.444   6.877
 7964SOL    HW224713   3.957   5.476   6.734
 7965SOL     OW24714   4.664   5.422   6.490
 7965SOL    HW124715   4.744   5.365   6.511
 7965SOL    HW224716   4.615   5.382   6.413
 7966SOL     OW24717   4.106   4.424   6.066
 7966SOL    HW124718   4.151   4.334   6.063
 7966SOL    HW224719   4.012   4.413   6.099
 7967SOL     OW24720   4.338   3.846   5.703
 7967SOL    HW124721   4.436   3.824   5.710
 7967SOL    HW224722   4.307   3.829   5.610
 7968SOL     OW24723   4.612   5.238   6.781
 7968SOL    HW124724   4.589   5.213   6.687
 7968SOL    HW224725   4.673   5.169   6.820
 7969SOL     OW24726   4.527   5.126   6.510
 7969SOL    HW124727   4.617   5.140   6.468
 7969SOL    HW224728   4.456   5.128   6.439
 7970SOL     OW24729   4.646   4.227   6.485
 7970SOL    HW124730   4.621   4.218   6.389
 7970SOL    HW224731   4.694   4.145   6.516
 7971SOL     OW24732   4.263   3.788   6.098
 7971SOL    HW124733   4.182   3.789   6.156
 7971SOL    HW224734   4.266   3.871   6.043
 7972SOL     OW24735   5.158   4.912   5.627
 7972SOL    HW124736   5.190   4.836   5.684
 7972SOL    HW224737   5.066   4.939   5.657
 7973SOL     OW24738   4.021   3.759   5.757
 7973SOL    HW124739   4.070   3.843   5.736
 7973SOL    HW224740   4.083   3.694   5.802
 7974SOL     OW24741   4.659   3.960   6.066
 7974SOL    HW124742   4.611   4.001   5.988
 7974SOL    HW224743   4.758   3.958   6.047
 7975SOL     OW24744   4.951   5.294   6.379
 7975SOL    HW124745   4.972   5.368   6.314
 7975SOL    HW224746   5.019   5.294   6.452
 7976SOL     OW24747   4.183   4.876   6.327
 7976SOL    HW124748   4.112   4.849   6.392
 7976SOL    HW224749   4.157   4.848   6.234
 7977SOL     OW24750   4.995   5.521   6.177
 7977SOL    HW124751   5.039   5.585   6.113
 7977SOL    HW224752   4.945   5.573   6.247
 7978SOL     OW24753   4.756   4.273   5.602
 7978SOL    HW124754   4.715   4.355   5.563
 7978SOL    HW224755   4.820   4.299   5.675
 7979SOL     OW24756   4.285   3.946   6.733
 7979SOL    HW124757   4.323   3.862   6.770
 7979SOL    HW224758   4.197   3.965   6.777
 7980SOL     OW24759   4.590   4.178   6.228
 7980SOL    HW124760   4.558   4.250   6.166
 7980SOL    HW224761   4.614   4.097   6.175
 7981SOL     OW24762   4.741   3.763   6.339
 7981SOL    HW124763   4.669   3.768   6.270
 7981SOL    HW224764   4.717   3.694   6.408
 7982SOL     OW24765   5.153   4.897   6.453
 7982SOL    HW124766   5.098   4.813   6.446
 7982SOL    HW224767   5.179   4.926   6.361
 7983SOL     OW24768   5.190   4.314   6.578
 7983SOL    HW124769   5.160   4.219   6.585
 7983SOL    HW224770   5.263   4.330   6.644
 7984SOL     OW24771   5.581   4.557   5.963
 7984SOL    HW124772   5.623   4.493   6.027
 7984SOL    HW224773   5.543   4.506   5.885
 7985SOL     OW24774   4.212   5.109   5.760
 7985SOL    HW124775   4.125   5.094   5.807
 7985SOL    HW224776   4.195   5.135   5.665
 7986SOL     OW24777   5.388   5.004   6.243
 7986SOL    HW124778   5.487   5.012   6.257
 7986SOL    HW224779   5.343   5.088   6.274
 7987SOL     OW24780   5.114   4.299   5.664
 7987SOL    HW124781   5.060   4.278   5.745
 7987SOL    HW224782   5.205   4.258   5.673
 7988SOL     OW24783   4.251   3.980   5.914
 7988SOL    HW124784   4.278   3.921   5.839
 7988SOL    HW224785   4.251   4.075   5.883
 7989SOL     OW24786   5.478   4.947   7.174
 7989SOL    HW124787   5.569   4.908   7.161
 7989SOL    HW224788   5.486   5.043   7.198
 7990SOL     OW24789   4.835   4.919   6.686
 7990SOL    HW124790   4.795   4.963   6.767
 7990SOL    HW224791   4.794   4.956   6.603
 7991SOL     OW24792   5.362   4.823   6.665
 7991SOL    HW124793   5.367   4.904   6.724
 7991SOL    HW224794   5.276   4.825   6.614
 7992SOL     OW24795   4.429   4.774   5.954
 7992SOL    HW124796   4.415   4.781   6.053
 7992SOL    HW224797   4.513   4.723   5.936
 7993SOL     OW24798   4.134   4.537   6.837
 7993SOL    HW124799   4.220   4.549   6.887
 7993SOL    HW224800   4.092   4.450   6.864
 7994SOL     OW24801   4.998   4.110   6.848
 7994SOL    HW124802   5.019   4.184   6.912
 7994SOL    HW224803   4.909   4.127   6.805
 7995SOL     OW24804   3.788   5.288   6.917
 7995SOL    HW124805   3.742   5.370   6.883
 7995SOL    HW224806   3.886   5.307   6.926
 7996SOL     OW24807   4.091   4.824   6.087
 7996SOL    HW124808   4.084   4.907   6.031
 7996SOL    HW224809   4.095   4.744   6.027
 7997SOL     OW24810   4.290   4.261   6.451
 7997SOL    HW124811   4.302   4.327   6.377
 7997SOL    HW224812   4.336   4.295   6.534
 7998SOL     OW24813   4.976   5.072   5.974
 7998SOL    HW124814   5.026   5.149   6.014
 7998SOL    HW224815   4.881   5.074   6.006
 7999SOL     OW24816   4.996   5.169   6.728
 7999SOL    HW124817   5.043   5.182   6.815
 7999SOL    HW224818   4.930   5.095   6.737
 8000SOL     OW24819   5.306   4.363   6.058
 8000SOL    HW124820   5.275   4.424   6.131
 8000SOL    HW224821   5.356   4.415   5.989
 8001SOL     OW24822   4.078   5.234   6.915
 8001SOL    HW124823   4.057   5.190   6.828
 8001SOL    HW224824   4.175   5.260   6.918
 8002SOL     OW24825   4.297   4.594   6.615
 8002SOL    HW124826   4.341   4.683   6.606
 8002SOL    HW224827   4.234   4.594   6.692
 8003SOL     OW24828   5.084   4.586   6.631
 8003SOL    HW124829   5.009   4.586   6.565
 8003SOL    HW224830   5.121   4.494   6.640
 8004SOL     OW24831   4.933   4.249   5.861
 8004SOL    HW124832   4.946   4.165   5.915
 8004SOL    HW224833   4.904   4.323   5.921
 8005SOL     OW24834   4.031   3.937   6.817
 8005SOL    HW124835   4.008   3.974   6.907
 8005SOL    HW224836   4.001   3.842   6.811
 8006SOL     OW24837   3.761   5.034   6.868
 8006SOL    HW124838   3.814   4.985   6.936
 8006SOL    HW224839   3.783   5.132   6.873
 8007SOL     OW24840   4.456   4.358   6.650
 8007SOL    HW124841   4.515   4.332   6.574
 8007SOL    HW224842   4.428   4.454   6.639
 8008SOL     OW24843   4.031   3.787   6.204
 8008SOL    HW124844   4.020   3.881   6.237
 8008SOL    HW224845   4.026   3.724   6.281
 8009SOL     OW24846   5.346   4.091   5.960
 8009SOL    HW124847   5.348   4.015   6.024
 8009SOL    HW224848   5.298   4.168   6.000
 8010SOL     OW24849   4.747   4.490   6.552
 8010SOL    HW124850   4.762   4.511   6.648
 8010SOL    HW224851   4.717   4.395   6.543
 8011SOL     OW24852   5.264   3.998   5.711
 8011SOL    HW124853   5.203   3.923   5.734
 8011SOL    HW224854   5.286   4.050   5.794
 8012SOL     OW24855   5.027   4.562   5.628
 8012SOL    HW124856   5.061   4.469   5.643
 8012SOL    HW224857   5.045   4.589   5.533
 8013SOL     OW24858   4.792   5.057   6.435
 8013SOL    HW124859   4.799   4.973   6.380
 8013SOL    HW224860   4.854   5.126   6.399
 8014SOL     OW24861   4.043   4.534   6.535
 8014SOL    HW124862   4.136   4.570   6.540
 8014SOL    HW224863   4.037   4.449   6.587
 8015SOL     OW24864   4.063   4.233   6.592
 8015SOL    HW124865   4.011   4.150   6.575
 8015SOL    HW224866   4.140   4.238   6.528
 8016SOL     OW24867   4.884   3.931   7.063
 8016SOL    HW124868   4.884   3.995   7.140
 8016SOL    HW224869   4.912   3.979   6.980
 8017SOL     OW24870   3.732   5.050   5.786
 8017SOL    HW124871   3.639   5.071   5.755
 8017SOL    HW224872   3.742   4.951   5.799
 8018SOL     OW24873   3.812   5.525   6.513
 8018SOL    HW124874   3.770   5.439   6.486
 8018SOL    HW224875   3.906   5.528   6.479
 8019SOL     OW24876   4.228   5.292   6.496
 8019SOL    HW124877   4.294   5.366   6.505
 8019SOL    HW224878   4.272   5.213   6.454
 8020SOL     OW24879   4.726   4.520   6.824
 8020SOL    HW124880   4.767   4.488   6.910
 8020SOL    HW224881   4.630   4.493   6.821
 8021SOL     OW24882   3.764   4.268   6.700
 8021SOL    HW124883   3.849   4.235   6.659
 8021SOL    HW224884   3.777   4.283   6.798
 8022SOL     OW24885   4.539   4.296   5.911
 8022SOL    HW124886   4.546   4.207   5.865
 8022SOL    HW224887   4.445   4.330   5.903
 8023SOL     OW24888   5.381   4.328   6.792
 8023SOL    HW124889   5.343   4.259   6.854
 8023SOL    HW224890   5.463   4.292   6.748
 8024SOL     OW24891   4.395   4.188   6.855
 8024SOL    HW124892   4.361   4.099   6.825
 8024SOL    HW224893   4.421   4.242   6.775
 8025SOL     OW24894   4.654   5.402   7.051
 8025SOL    HW124895   4.630   5.384   6.956
 8025SOL    HW224896   4.684   5.496   7.061
 8026SOL     OW24897   4.197   4.224   5.777
 8026SOL    HW124898   4.258   4.304   5.781
 8026SOL    HW224899   4.102   4.255   5.784
 8027SOL     OW24900   3.883   4.861   7.052
 8027SOL    HW124901   3.905   4.800   7.128
 8027SOL    HW224902   3.893   4.812   6.966
 8028SOL     OW24903   5.071   4.783   6.820
 8028SOL    HW124904   5.095   4.720   6.746
 8028SOL    HW224905   4.981   4.823   6.802
 8029SOL     OW24906   5.026   4.579   5.895
 8029SOL    HW124907   4.940   4.548   5.937
 8029SOL    HW224908   5.022   4.565   5.796
 8030SOL     OW24909   5.483   5.471   6.740
 8030SOL    HW124910   5.544   5.501   6.667
 8030SOL    HW224911   5.445   5.382   6.718
 8031SOL     OW24912   4.976   5.455   6.714
 8031SOL    HW124913   5.060   5.460   6.660
 8031SOL    HW224914   4.953   5.359   6.732
 8032SOL     OW24915   3.807   4.982   6.608
 8032SOL    HW124916   3.802   4.981   6.708
 8032SOL    HW224917   3.724   4.941   6.570
 8033SOL     OW24918   5.450   3.859   6.109
 8033SOL    HW124919   5.523   3.842   6.042
 8033SOL    HW224920   5.419   3.772   6.147
 8034SOL     OW24921   5.112   5.297   6.063
 8034SOL    HW124922   5.179   5.309   5.989
 8034SOL    HW224923   5.072   5.386   6.086
 8035SOL     OW24924   5.004   4.651   6.258
 8035SOL    HW124925   5.064   4.570   6.260
 8035SOL    HW224926   5.044   4.720   6.198
 8036SOL     OW24927   4.396   5.340   5.740
 8036SOL    HW124928   4.405   5.350   5.641
 8036SOL    HW224929   4.356   5.251   5.761
 8037SOL     OW24930   5.565   3.899   6.549
 8037SOL    HW124931   5.604   3.814   6.513
 8037SOL    HW224932   5.467   3.901   6.530
 8038SOL     OW24933   3.987   4.050   6.306
 8038SOL    HW124934   3.908   4.101   6.272
 8038SOL    HW224935   3.978   4.035   6.404
 8039SOL     OW24936   4.918   5.336   5.617
 8039SOL    HW124937   4.924   5.243   5.654
 8039SOL    HW224938   4.859   5.336   5.537
 8040SOL     OW24939   4.546   4.726   6.958
 8040SOL    HW124940   4.586   4.725   6.866
 8040SOL    HW224941   4.556   4.818   6.998
 8041SOL     OW24942   4.640   4.634   5.877
 8041SOL    HW124943   4.703   4.672   5.809
 8041SOL    HW224944   4.680   4.551   5.916
 8042SOL     OW24945   5.228   5.331   5.630
 8042SOL    HW124946   5.136   5.368   5.637
 8042SOL    HW224947   5.266   5.351   5.540
 8043SOL     OW24948   5.338   5.016   6.875
 8043SOL    HW124949   5.398   5.019   6.955
 8043SOL    HW224950   5.263   5.080   6.888
 8044SOL     OW24951   4.763   4.822   6.282
 8044SOL    HW124952   4.693   4.775   6.336
 8044SOL    HW224953   4.822   4.754   6.239
 8045SOL     OW24954   4.738   3.960   6.557
 8045SOL    HW124955   4.730   3.924   6.464
 8045SOL    HW224956   4.736   3.884   6.622
 8046SOL     OW24957   4.314   5.211   6.077
 8046SOL    HW124958   4.356   5.153   6.007
 8046SOL    HW224959   4.270   5.290   6.033
 8047SOL     OW24960   5.433   4.109   6.967
 8047SOL    HW124961   5.506   4.178   6.971
 8047SOL    HW224962   5.461   4.034   6.908
 8048SOL     OW24963   3.979   5.072   5.876
 8048SOL    HW124964   3.883   5.073   5.849
 8048SOL    HW224965   3.991   5.125   5.960
 8049SOL     OW24966   4.396   3.927   7.075
 8049SOL    HW124967   4.486   3.911   7.035
 8049SOL    HW224968   4.404   3.932   7.174
 8050SOL     OW24969   3.799   4.069   5.619
 8050SOL    HW124970   3.707   4.041   5.590
 8050SOL    HW224971   3.830   4.146   5.563
 8051SOL     OW24972   3.796   3.890   5.904
 8051SOL    HW124973   3.779   3.973   5.850
 8051SOL    HW224974   3.886   3.853   5.882
 8052SOL     OW24975   4.907   5.059   5.705
 8052SOL    HW124976   4.808   5.048   5.707
 8052SOL    HW224977   4.941   5.074   5.798
 8053SOL     OW24978   5.217   5.491   6.545
 8053SOL    HW124979   5.250   5.555   6.476
 8053SOL    HW224980   5.283   5.485   6.620
 8054SOL     OW24981   5.174   4.944   7.219
 8054SOL    HW124982   5.165   4.934   7.318
 8054SOL    HW224983   5.270   4.937   7.193
 8055SOL     OW24984   4.114   5.465   7.146
 8055SOL    HW124985   4.023   5.506   7.144
 8055SOL    HW224986   4.107   5.371   7.178
 8056SOL     OW24987   5.398   4.607   6.840
 8056SOL    HW124988   5.371   4.518   6.803
 8056SOL    HW224989   5.399   4.675   6.767
 8057SOL     OW24990   4.949   4.049   6.035
 8057SOL    HW124991   5.014   3.975   6.024
 8057SOL    HW224992   4.969   4.099   6.119
 8058SOL     OW24993   4.318   4.469   6.238
 8058SOL    HW124994   4.368   4.554   6.219
 8058SOL    HW224995   4.230   4.471   6.190
 8059SOL     OW24996   5.454   4.658   7.103
 8059SOL    HW124997   5.492   4.749   7.118
 8059SOL    HW224998   5.446   4.641   7.004
 8060SOL     OW24999   4.583   5.098   5.602
 8060SOL    HW125000   4.537   5.113   5.690
 8060SOL    HW225001   4.627   5.183   5.572
 8061SOL     OW25002   4.385   5.514   6.539
 8061SOL    HW125003   4.339   5.602   6.526
 8061SOL    HW225004   4.484   5.526   6.532
 8062SOL     OW25005   4.583   4.680   6.447
 8062SOL    HW125006   4.637   4.611   6.495
 8062SOL    HW225007   4.551   4.749   6.513
 8063SOL     OW25008   4.807   4.708   5.673
 8063SOL    HW125009   4.784   4.761   5.591
 8063SOL    HW225010   4.888   4.652   5.654
 8064SOL     OW25011   5.585   5.293   6.437
 8064SOL    HW125012   5.514   5.281   6.367
 8064SOL    HW225013   5.586   5.214   6.497
 8065SOL     OW25014   3.803   4.964   6.239
 8065SOL    HW125015   3.802   4.917   6.327
 8065SOL    HW225016   3.885   4.936   6.188
 8066SOL     OW25017   5.548   3.916   6.813
 8066SOL    HW125018   5.544   3.826   6.857
 8066SOL    HW225019   5.551   3.905   6.714
 8067SOL     OW25020   4.152   4.148   6.106
 8067SOL    HW125021   4.182   4.076   6.044
 8067SOL    HW225022   4.113   4.108   6.189
 8068SOL     OW25023   5.429   5.211   6.690
 8068SOL    HW125024   5.336   5.186   6.663
 8068SOL    HW225025   5.455   5.161   6.772
 8069SOL     OW25026   4.041   4.271   6.866
 8069SOL    HW125027   4.079   4.212   6.938
 8069SOL    HW225028   4.081   4.245   6.778
 8070SOL     OW25029   4.536   5.310   6.273
 8070SOL    HW125030   4.568   5.320   6.179
 8070SOL    HW225031   4.457   5.248   6.275
 8071SOL     OW25032   5.148   3.938   6.698
 8071SOL    HW125033   5.200   3.873   6.753
 8071SOL    HW225034   5.099   4.001   6.759
 8072SOL     OW25035   4.725   3.758   6.740
 8072SOL    HW125036   4.662   3.686   6.709
 8072SOL    HW225037   4.818   3.722   6.740
 8073SOL     OW25038   4.494   5.054   5.887
 8073SOL    HW125039   4.448   4.967   5.904
 8073SOL    HW225040   4.585   5.051   5.928
 8074SOL     OW25041   4.342   5.291   6.870
 8074SOL    HW125042   4.337   5.373   6.927
 8074SOL    HW225043   4.431   5.288   6.825
 8075SOL     OW25044   5.076   3.776   5.754
 8075SOL    HW125045   5.111   3.735   5.670
 8075SOL    HW225046   4.986   3.738   5.774
 8076SOL     OW25047   5.024   4.177   6.277
 8076SOL    HW125048   4.965   4.257   6.281
 8076SOL    HW225049   5.039   4.142   6.370
 8077SOL     OW25050   5.317   3.945   6.468
 8077SOL    HW125051   5.233   3.944   6.522
 8077SOL    HW225052   5.319   4.028   6.412
 8078SOL     OW25053   3.763   4.801   5.886
 8078SOL    HW125054   3.862   4.790   5.877
 8078SOL    HW225055   3.723   4.715   5.918
 8079SOL     OW25056   4.599   5.370   5.923
 8079SOL    HW125057   4.522   5.335   5.869
 8079SOL    HW225058   4.567   5.441   5.985
 8080SOL     OW25059   3.954   6.214   0.113
 8080SOL    HW125060   3.861   6.212   0.150
 8080SOL    HW225061   3.955   6.175   0.021
 8081SOL     OW25062   3.949   5.861   0.996
 8081SOL    HW125063   3.984   5.844   1.088
 8081SOL    HW225064   3.861   5.816   0.984
 8082SOL     OW25065   3.743   5.954   0.647
 8082SOL    HW125066   3.661   5.997   0.686
 8082SOL    HW225067   3.715   5.881   0.584
 8083SOL     OW25068   4.293   6.861   1.165
 8083SOL    HW125069   4.200   6.854   1.128
 8083SOL    HW225070   4.304   6.950   1.209
 8084SOL     OW25071   5.279   7.097   0.703
 8084SOL    HW125072   5.222   7.081   0.784
 8084SOL    HW225073   5.220   7.107   0.623
 8085SOL     OW25074   4.859   6.289   0.717
 8085SOL    HW125075   4.916   6.367   0.692
 8085SOL    HW225076   4.799   6.315   0.793
 8086SOL     OW25077   5.479   6.193   0.231
 8086SOL    HW125078   5.467   6.180   0.132
 8086SOL    HW225079   5.449   6.112   0.280
 8087SOL     OW25080   4.492   6.730   1.023
 8087SOL    HW125081   4.414   6.747   1.083
 8087SOL    HW225082   4.526   6.817   0.987
 8088SOL     OW25083   4.574   6.384   1.823
 8088SOL    HW125084   4.570   6.460   1.888
 8088SOL    HW225085   4.596   6.420   1.732
 8089SOL     OW25086   4.409   6.598   0.665
 8089SOL    HW125087   4.478   6.582   0.735
 8089SOL    HW225088   4.336   6.655   0.703
 8090SOL     OW25089   4.410   6.747   1.803
 8090SOL    HW125090   4.470   6.826   1.817
 8090SOL    HW225091   4.324   6.778   1.762
 8091SOL     OW25092   4.059   7.021   1.061
 8091SOL    HW125093   3.981   6.990   1.008
 8091SOL    HW225094   4.117   7.079   1.004
 8092SOL     OW25095   4.162   5.978   1.499
 8092SOL    HW125096   4.244   5.922   1.508
 8092SOL    HW225097   4.081   5.920   1.503
 8093SOL     OW25098   5.327   6.033   0.737
 8093SOL    HW125099   5.253   6.079   0.687
 8093SOL    HW225100   5.378   6.101   0.790
 8094SOL     OW25101   3.964   6.677   0.886
 8094SOL    HW125102   3.978   6.593   0.938
 8094SOL    HW225103   3.909   6.741   0.941
 8095SOL     OW25104   4.330   6.550   0.123
 8095SOL    HW125105   4.337   6.634   0.069
 8095SOL    HW225106   4.376   6.563   0.211
 8096SOL     OW25107   5.318   5.700   1.480
 8096SOL    HW125108   5.300   5.767   1.408
 8096SOL    HW225109   5.315   5.746   1.569
 8097SOL     OW25110   3.846   6.229   0.563
 8097SOL    HW125111   3.801   6.141   0.580
 8097SOL    HW225112   3.845   6.283   0.647
 8098SOL     OW25113   5.413   6.508   0.612
 8098SOL    HW125114   5.508   6.479   0.620
 8098SOL    HW225115   5.405   6.573   0.537
 8099SOL     OW25116   5.365   6.694   0.432
 8099SOL    HW125117   5.451   6.696   0.380
 8099SOL    HW225118   5.379   6.741   0.520
 8100SOL     OW25119   3.837   6.323   1.597
 8100SOL    HW125120   3.925   6.310   1.642
 8100SOL    HW225121   3.824   6.420   1.575
 8101SOL     OW25122   5.017   6.814   1.423
 8101SOL    HW125123   5.054   6.741   1.365
 8101SOL    HW225124   5.069   6.819   1.508
 8102SOL     OW25125   4.533   5.590   0.502
 8102SOL    HW125126   4.573   5.681   0.493
 8102SOL    HW225127   4.433   5.598   0.508
 8103SOL     OW25128   3.921   6.562   1.264
 8103SOL    HW125129   4.010   6.517   1.250
 8103SOL    HW225130   3.848   6.497   1.245
 8104SOL     OW25131   5.249   6.585   0.190
 8104SOL    HW125132   5.186   6.509   0.203
 8104SOL    HW225133   5.297   6.603   0.276
 8105SOL     OW25134   4.041   5.837   1.801
 8105SOL    HW125135   4.112   5.908   1.807
 8105SOL    HW225136   3.953   5.876   1.829
 8106SOL     OW25137   5.190   7.003   0.953
 8106SOL    HW125138   5.131   7.009   1.033
 8106SOL    HW225139   5.175   6.915   0.907
 8107SOL     OW25140   4.322   6.315   0.270
 8107SOL    HW125141   4.346   6.384   0.202
 8107SOL    HW225142   4.244   6.348   0.324
 8108SOL     OW25143   5.005   5.931   0.944
 8108SOL    HW125144   4.919   5.881   0.931
 8108SOL    HW225145   5.067   5.877   1.000
 8109SOL     OW25146   4.531   6.191   1.465
 8109SOL    HW125147   4.484   6.188   1.554
 8109SOL    HW225148   4.480   6.136   1.399
 8110SOL     OW25149   5.118   6.055   1.674
 8110SOL    HW125150   5.098   6.098   1.762
 8110SOL    HW225151   5.196   5.993   1.683
 8111SOL     OW25152   4.697   6.476   1.572
 8111SOL    HW125153   4.743   6.392   1.543
 8111SOL    HW225154   4.641   6.510   1.497
 8112SOL     OW25155   4.715   5.996   1.242
 8112SOL    HW125156   4.638   6.030   1.296
 8112SOL    HW225157   4.681   5.945   1.163
 8113SOL     OW25158   4.765   6.287   0.429
 8113SOL    HW125159   4.791   6.283   0.525
 8113SOL    HW225160   4.680   6.236   0.415
 8114SOL     OW25161   3.800   6.397   0.789
 8114SOL    HW125162   3.899   6.385   0.798
 8114SOL    HW225163   3.776   6.492   0.810
 8115SOL     OW25164   4.589   5.934   0.195
 8115SOL    HW125165   4.648   5.997   0.146
 8115SOL    HW225166   4.608   5.840   0.166
 8116SOL     OW25167   5.443   6.171   1.831
 8116SOL    HW125168   5.417   6.260   1.795
 8116SOL    HW225169   5.441   6.103   1.758
 8117SOL     OW25170   5.086   6.730   0.545
 8117SOL    HW125171   5.169   6.701   0.497
 8117SOL    HW225172   5.037   6.797   0.489
 8118SOL     OW25173   4.274   5.782   0.885
 8118SOL    HW125174   4.269   5.777   0.985
 8118SOL    HW225175   4.276   5.878   0.856
 8119SOL     OW25176   5.519   6.652   0.873
 8119SOL    HW125177   5.457   6.637   0.797
 8119SOL    HW225178   5.467   6.663   0.958
 8120SOL     OW25179   4.045   6.529   0.242
 8120SOL    HW125180   4.127   6.568   0.200
 8120SOL    HW225181   4.018   6.447   0.193
 8121SOL     OW25182   5.182   6.321   0.728
 8121SOL    HW125183   5.177   6.256   0.803
 8121SOL    HW225184   5.262   6.380   0.741
 8122SOL     OW25185   3.926   5.871   1.498
 8122SOL    HW125186   3.846   5.931   1.485
 8122SOL    HW225187   3.916   5.822   1.584
 8123SOL     OW25188   5.356   6.963   0.081
 8123SOL    HW125189   5.324   7.057   0.071
 8123SOL    HW225190   5.280   6.900   0.069
 8124SOL     OW25191   4.106   6.286   0.480
 8124SOL    HW125192   4.151   6.196   0.477
 8124SOL    HW225193   4.012   6.275   0.513
 8125SOL     OW25194   5.271   5.808   1.729
 8125SOL    HW125195   5.266   5.845   1.821
 8125SOL    HW225196   5.199   5.739   1.717
 8126SOL     OW25197   4.505   5.850   1.749
 8126SOL    HW125198   4.572   5.789   1.792
 8126SOL    HW225199   4.432   5.869   1.814
 8127SOL     OW25200   5.075   6.176   1.433
 8127SOL    HW125201   5.103   6.133   1.518
 8127SOL    HW225202   5.100   6.272   1.434
 8128SOL     OW25203   4.646   6.089   0.899
 8128SOL    HW125204   4.621   6.080   0.803
 8128SOL    HW225205   4.694   6.007   0.930
 8129SOL     OW25206   4.263   5.650   0.512
 8129SOL    HW125207   4.182   5.651   0.570
 8129SOL    HW225208   4.266   5.733   0.457
 8130SOL     OW25209   5.158   6.774   0.041
 8130SOL    HW125210   5.190   6.698   0.098
 8130SOL    HW225211   5.066   6.801   0.071
 8131SOL     OW25212   4.659   5.822   0.480
 8131SOL    HW125213   4.611   5.863   0.402
 8131SOL    HW225214   4.758   5.820   0.461
 8132SOL     OW25215   4.800   6.269   1.464
 8132SOL    HW125216   4.720   6.208   1.467
 8132SOL    HW225217   4.881   6.216   1.440
 8133SOL     OW25218   4.951   7.156   0.793
 8133SOL    HW125219   4.972   7.230   0.728
 8133SOL    HW225220   5.019   7.156   0.866
 8134SOL     OW25221   4.183   6.738   0.741
 8134SOL    HW125222   4.112   6.711   0.806
 8134SOL    HW225223   4.157   6.710   0.648
 8135SOL     OW25224   4.756   6.135   0.016
 8135SOL    HW125225   4.715   6.217  -0.023
 8135SOL    HW225226   4.820   6.161   0.089
 8136SOL     OW25227   3.802   6.142   1.386
 8136SOL    HW125228   3.894   6.141   1.345
 8136SOL    HW225229   3.796   6.216   1.453
 8137SOL     OW25230   4.285   5.808   1.147
 8137SOL    HW125231   4.323   5.724   1.184
 8137SOL    HW225232   4.197   5.827   1.191
 8138SOL     OW25233   4.590   6.040   0.642
 8138SOL    HW125234   4.558   6.112   0.580
 8138SOL    HW225235   4.614   5.959   0.589
 8139SOL     OW25236   4.741   5.625   0.753
 8139SOL    HW125237   4.669   5.630   0.684
 8139SOL    HW225238   4.717   5.556   0.822
 8140SOL     OW25239   5.153   6.759   0.867
 8140SOL    HW125240   5.098   6.675   0.860
 8140SOL    HW225241   5.179   6.788   0.775
 8141SOL     OW25242   5.190   6.176   0.992
 8141SOL    HW125243   5.160   6.081   0.999
 8141SOL    HW225244   5.263   6.192   1.058
 8142SOL     OW25245   5.581   6.419   0.377
 8142SOL    HW125246   5.623   6.355   0.441
 8142SOL    HW225247   5.543   6.368   0.299
 8143SOL     OW25248   5.388   6.866   0.657
 8143SOL    HW125249   5.487   6.874   0.671
 8143SOL    HW225250   5.343   6.950   0.688
 8144SOL     OW25251   5.114   6.161   0.078
 8144SOL    HW125252   5.060   6.140   0.159
 8144SOL    HW225253   5.205   6.120   0.087
 8145SOL     OW25254   4.251   5.842   0.328
 8145SOL    HW125255   4.278   5.783   0.253
 8145SOL    HW225256   4.251   5.937   0.297
 8146SOL     OW25257   5.478   6.809   1.588
 8146SOL    HW125258   5.569   6.770   1.575
 8146SOL    HW225259   5.486   6.905   1.612
 8147SOL     OW25260   4.788   6.933   1.340
 8147SOL    HW125261   4.708   6.910   1.395
 8147SOL    HW225262   4.871   6.907   1.389
 8148SOL     OW25263   4.835   6.781   1.100
 8148SOL    HW125264   4.795   6.825   1.181
 8148SOL    HW225265   4.794   6.818   1.017
 8149SOL     OW25266   5.362   6.685   1.079
 8149SOL    HW125267   5.367   6.766   1.138
 8149SOL    HW225268   5.276   6.687   1.028
 8150SOL     OW25269   4.639   5.675   1.402
 8150SOL    HW125270   4.664   5.655   1.307
 8150SOL    HW225271   4.711   5.731   1.444
 8151SOL     OW25272   4.704   6.702   1.719
 8151SOL    HW125273   4.605   6.708   1.729
 8151SOL    HW225274   4.727   6.622   1.663
 8152SOL     OW25275   4.429   6.636   0.368
 8152SOL    HW125276   4.415   6.643   0.467
 8152SOL    HW225277   4.513   6.585   0.350
 8153SOL     OW25278   4.134   6.399   1.251
 8153SOL    HW125279   4.220   6.411   1.301
 8153SOL    HW225280   4.092   6.312   1.278
 8154SOL     OW25281   4.998   5.972   1.262
 8154SOL    HW125282   5.019   6.046   1.326
 8154SOL    HW225283   4.909   5.989   1.219
 8155SOL     OW25284   4.091   6.686   0.501
 8155SOL    HW125285   4.084   6.769   0.445
 8155SOL    HW225286   4.095   6.606   0.441
 8156SOL     OW25287   4.290   6.123   0.865
 8156SOL    HW125288   4.302   6.189   0.791
 8156SOL    HW225289   4.336   6.157   0.948
 8157SOL     OW25290   5.306   6.225   0.472
 8157SOL    HW125291   5.275   6.286   0.545
 8157SOL    HW225292   5.356   6.277   0.403
 8158SOL     OW25293   4.126   6.337   1.598
 8158SOL    HW125294   4.194   6.392   1.551
 8158SOL    HW225295   4.166   6.249   1.625
 8159SOL     OW25296   5.311   6.365   1.670
 8159SOL    HW125297   5.219   6.403   1.665
 8159SOL    HW225298   5.371   6.412   1.605
 8160SOL     OW25299   4.737   5.691   1.770
 8160SOL    HW125300   4.743   5.776   1.718
 8160SOL    HW225301   4.769   5.615   1.713
 8161SOL     OW25302   4.228   5.636   1.740
 8161SOL    HW125303   4.186   5.579   1.670
 8161SOL    HW225304   4.162   5.705   1.772
 8162SOL     OW25305   4.297   6.456   1.029
 8162SOL    HW125306   4.341   6.545   1.020
 8162SOL    HW225307   4.234   6.456   1.106
 8163SOL     OW25308   5.084   6.448   1.045
 8163SOL    HW125309   5.009   6.448   0.979
 8163SOL    HW225310   5.121   6.356   1.054
 8164SOL     OW25311   4.933   6.111   0.275
 8164SOL    HW125312   4.946   6.027   0.329
 8164SOL    HW225313   4.904   6.185   0.335
 8165SOL     OW25314   4.031   5.799   1.231
 8165SOL    HW125315   4.008   5.836   1.321
 8165SOL    HW225316   4.001   5.704   1.225
 8166SOL     OW25317   3.761   6.896   1.282
 8166SOL    HW125318   3.814   6.847   1.350
 8166SOL    HW225319   3.783   6.994   1.287
 8167SOL     OW25320   4.456   6.220   1.064
 8167SOL    HW125321   4.515   6.194   0.988
 8167SOL    HW225322   4.428   6.316   1.053
 8168SOL     OW25323   5.452   6.521   1.854
 8168SOL    HW125324   5.406   6.514   1.765
 8168SOL    HW225325   5.390   6.565   1.920
 8169SOL     OW25326   4.031   5.649   0.618
 8169SOL    HW125327   4.020   5.743   0.651
 8169SOL    HW225328   4.026   5.586   0.695
 8170SOL     OW25329   5.346   5.953   0.374
 8170SOL    HW125330   5.348   5.877   0.438
 8170SOL    HW225331   5.298   6.030   0.414
 8171SOL     OW25332   4.747   6.352   0.966
 8171SOL    HW125333   4.762   6.373   1.062
 8171SOL    HW225334   4.717   6.257   0.957
 8172SOL     OW25335   5.583   7.104   1.605
 8172SOL    HW125336   5.597   7.131   1.510
 8172SOL    HW225337   5.666   7.126   1.658
 8173SOL     OW25338   4.074   6.484   1.804
 8173SOL    HW125339   4.150   6.528   1.852
 8173SOL    HW225340   4.109   6.437   1.722
 8174SOL     OW25341   5.264   5.860   0.125
 8174SOL    HW125342   5.203   5.785   0.148
 8174SOL    HW225343   5.286   5.912   0.208
 8175SOL     OW25344   5.027   6.424   0.042
 8175SOL    HW125345   5.061   6.331   0.057
 8175SOL    HW225346   5.045   6.451  -0.053
 8176SOL     OW25347   4.043   6.396   0.949
 8176SOL    HW125348   4.136   6.432   0.954
 8176SOL    HW225349   4.037   6.311   1.001
 8177SOL     OW25350   4.063   6.095   1.006
 8177SOL    HW125351   4.011   6.012   0.989
 8177SOL    HW225352   4.140   6.100   0.942
 8178SOL     OW25353   4.862   5.966   1.678
 8178SOL    HW125354   4.817   6.029   1.742
 8178SOL    HW225355   4.955   5.997   1.661
 8179SOL     OW25356   4.884   5.793   1.477
 8179SOL    HW125357   4.884   5.857   1.554
 8179SOL    HW225358   4.912   5.841   1.394
 8180SOL     OW25359   4.726   6.382   1.238
 8180SOL    HW125360   4.767   6.350   1.324
 8180SOL    HW225361   4.630   6.355   1.235
 8181SOL     OW25362   3.764   6.130   1.114
 8181SOL    HW125363   3.849   6.097   1.073
 8181SOL    HW225364   3.777   6.145   1.212
 8182SOL     OW25365   3.913   6.106   1.722
 8182SOL    HW125366   3.972   6.066   1.652
 8182SOL    HW225367   3.855   6.177   1.681
 8183SOL     OW25368   5.093   6.536   1.660
 8183SOL    HW125369   5.132   6.625   1.680
 8183SOL    HW225370   5.103   6.516   1.563
 8184SOL     OW25371   4.539   6.158   0.325
 8184SOL    HW125372   4.546   6.069   0.279
 8184SOL    HW225373   4.445   6.192   0.317
 8185SOL     OW25374   5.381   6.190   1.206
 8185SOL    HW125375   5.343   6.121   1.268
 8185SOL    HW225376   5.463   6.154   1.162
 8186SOL     OW25377   4.395   6.050   1.269
 8186SOL    HW125378   4.361   5.961   1.239
 8186SOL    HW225379   4.421   6.104   1.189
 8187SOL     OW25380   4.197   6.086   0.191
 8187SOL    HW125381   4.258   6.166   0.195
 8187SOL    HW225382   4.102   6.117   0.198
 8188SOL     OW25383   3.883   6.723   1.466
 8188SOL    HW125384   3.905   6.662   1.542
 8188SOL    HW225385   3.893   6.674   1.380
 8189SOL     OW25386   5.071   6.645   1.234
 8189SOL    HW125387   5.095   6.582   1.160
 8189SOL    HW225388   4.981   6.685   1.216
 8190SOL     OW25389   5.026   6.441   0.309
 8190SOL    HW125390   4.940   6.410   0.351
 8190SOL    HW225391   5.022   6.427   0.210
 8191SOL     OW25392   3.807   6.844   1.022
 8191SOL    HW125393   3.802   6.843   1.122
 8191SOL    HW225394   3.724   6.803   0.984
 8192SOL     OW25395   4.627   5.672   0.133
 8192SOL    HW125396   4.678   5.673   0.047
 8192SOL    HW225397   4.683   5.630   0.204
 8193SOL     OW25398   5.450   5.721   0.523
 8193SOL    HW125399   5.523   5.704   0.456
 8193SOL    HW225400   5.419   5.634   0.561
 8194SOL     OW25401   5.004   6.513   0.672
 8194SOL    HW125402   5.064   6.432   0.674
 8194SOL    HW225403   5.044   6.582   0.612
 8195SOL     OW25404   4.554   6.859   1.422
 8195SOL    HW125405   4.549   6.892   1.517
 8195SOL    HW225406   4.468   6.878   1.376
 8196SOL     OW25407   5.565   5.761   0.963
 8196SOL    HW125408   5.604   5.676   0.927
 8196SOL    HW225409   5.467   5.763   0.944
 8197SOL     OW25410   3.987   5.912   0.720
 8197SOL    HW125411   3.908   5.963   0.686
 8197SOL    HW225412   3.978   5.897   0.818
 8198SOL     OW25413   4.546   6.588   1.372
 8198SOL    HW125414   4.586   6.587   1.280
 8198SOL    HW225415   4.556   6.680   1.412
 8199SOL     OW25416   4.640   6.496   0.291
 8199SOL    HW125417   4.703   6.534   0.223
 8199SOL    HW225418   4.680   6.413   0.330
 8200SOL     OW25419   4.096   6.874   1.490
 8200SOL    HW125420   4.083   6.967   1.456
 8200SOL    HW225421   4.012   6.822   1.477
 8201SOL     OW25422   5.338   6.878   1.289
 8201SOL    HW125423   5.398   6.881   1.369
 8201SOL    HW225424   5.263   6.942   1.302
 8202SOL     OW25425   4.763   6.684   0.696
 8202SOL    HW125426   4.693   6.637   0.750
 8202SOL    HW225427   4.822   6.616   0.653
 8203SOL     OW25428   4.738   5.822   0.971
 8203SOL    HW125429   4.730   5.786   0.878
 8203SOL    HW225430   4.736   5.746   1.036
 8204SOL     OW25431   5.433   5.971   1.381
 8204SOL    HW125432   5.506   6.040   1.385
 8204SOL    HW225433   5.461   5.896   1.322
 8205SOL     OW25434   3.829   6.599   1.726
 8205SOL    HW125435   3.752   6.566   1.780
 8205SOL    HW225436   3.914   6.569   1.768
 8206SOL     OW25437   4.396   5.789   1.489
 8206SOL    HW125438   4.486   5.773   1.449
 8206SOL    HW225439   4.404   5.794   1.588
 8207SOL     OW25440   3.799   5.931   0.033
 8207SOL    HW125441   3.707   5.903   0.004
 8207SOL    HW225442   3.830   6.008  -0.023
 8208SOL     OW25443   5.164   6.442   1.398
 8208SOL    HW125444   5.107   6.494   1.335
 8208SOL    HW225445   5.260   6.454   1.374
 8209SOL     OW25446   3.796   5.752   0.318
 8209SOL    HW125447   3.779   5.835   0.264
 8209SOL    HW225448   3.886   5.715   0.296
 8210SOL     OW25449   4.337   6.428   1.431
 8210SOL    HW125450   4.393   6.509   1.414
 8210SOL    HW225451   4.396   6.348   1.434
 8211SOL     OW25452   4.440   6.151   1.708
 8211SOL    HW125453   4.459   6.216   1.782
 8211SOL    HW225454   4.500   6.071   1.717
 8212SOL     OW25455   5.174   6.806   1.633
 8212SOL    HW125456   5.165   6.796   1.732
 8212SOL    HW225457   5.270   6.799   1.607
 8213SOL     OW25458   5.398   6.469   1.254
 8213SOL    HW125459   5.371   6.380   1.217
 8213SOL    HW225460   5.399   6.537   1.181
 8214SOL     OW25461   4.949   5.911   0.449
 8214SOL    HW125462   5.014   5.837   0.438
 8214SOL    HW225463   4.969   5.961   0.533
 8215SOL     OW25464   4.318   6.331   0.652
 8215SOL    HW125465   4.368   6.416   0.633
 8215SOL    HW225466   4.230   6.333   0.604
 8216SOL     OW25467   5.501   5.928   1.642
 8216SOL    HW125468   5.484   5.959   1.548
 8216SOL    HW225469   5.417   5.891   1.680
 8217SOL     OW25470   5.454   6.520   1.517
 8217SOL    HW125471   5.492   6.611   1.532
 8217SOL    HW225472   5.446   6.503   1.418
 8218SOL     OW25473   4.583   6.542   0.861
 8218SOL    HW125474   4.637   6.473   0.909
 8218SOL    HW225475   4.551   6.611   0.927
 8219SOL     OW25476   4.807   6.570   0.087
 8219SOL    HW125477   4.784   6.623   0.005
 8219SOL    HW225478   4.888   6.514   0.068
 8220SOL     OW25479   3.945   6.900   1.844
 8220SOL    HW125480   3.880   6.827   1.823
 8220SOL    HW225481   3.949   6.914   1.942
 8221SOL     OW25482   3.803   6.826   0.653
 8221SOL    HW125483   3.802   6.779   0.741
 8221SOL    HW225484   3.885   6.798   0.602
 8222SOL     OW25485   4.396   6.977   1.624
 8222SOL    HW125486   4.318   6.927   1.662
 8222SOL    HW225487   4.393   7.072   1.655
 8223SOL     OW25488   5.548   5.778   1.227
 8223SOL    HW125489   5.544   5.688   1.271
 8223SOL    HW225490   5.551   5.767   1.128
 8224SOL     OW25491   4.152   6.010   0.520
 8224SOL    HW125492   4.182   5.938   0.458
 8224SOL    HW225493   4.113   5.970   0.603
 8225SOL     OW25494   5.429   7.073   1.104
 8225SOL    HW125495   5.336   7.048   1.077
 8225SOL    HW225496   5.455   7.023   1.186
 8226SOL     OW25497   4.041   6.133   1.280
 8226SOL    HW125498   4.079   6.074   1.352
 8226SOL    HW225499   4.081   6.107   1.192
 8227SOL     OW25500   5.148   5.800   1.112
 8227SOL    HW125501   5.200   5.735   1.167
 8227SOL    HW225502   5.099   5.863   1.173
 8228SOL     OW25503   4.725   5.620   1.154
 8228SOL    HW125504   4.662   5.548   1.123
 8228SOL    HW225505   4.818   5.584   1.154
 8229SOL     OW25506   4.494   6.916   0.301
 8229SOL    HW125507   4.448   6.829   0.318
 8229SOL    HW225508   4.585   6.913   0.342
 8230SOL     OW25509   5.076   5.638   0.168
 8230SOL    HW125510   5.111   5.597   0.084
 8230SOL    HW225511   4.986   5.600   0.188
 8231SOL     OW25512   5.024   6.039   0.691
 8231SOL    HW125513   4.965   6.119   0.695
 8231SOL    HW225514   5.039   6.004   0.784
 8232SOL     OW25515   5.317   5.807   0.882
 8232SOL    HW125516   5.233   5.806   0.936
 8232SOL    HW225517   5.319   5.890   0.826
 8233SOL     OW25518   3.763   6.663   0.300
 8233SOL    HW125519   3.862   6.652   0.291
 8233SOL    HW225520   3.723   6.577   0.332
 8234SOL     OW25521   3.954   6.214   1.975
 8234SOL    HW125522   3.861   6.212   2.012
 8234SOL    HW225523   3.955   6.175   1.883
 8235SOL     OW25524   3.949   5.861   2.858
 8235SOL    HW125525   3.984   5.844   2.950
 8235SOL    HW225526   3.861   5.816   2.846
 8236SOL     OW25527   3.743   5.954   2.509
 8236SOL    HW125528   3.661   5.997   2.548
 8236SOL    HW225529   3.715   5.881   2.446
 8237SOL     OW25530   4.293   6.861   3.027
 8237SOL    HW125531   4.200   6.854   2.990
 8237SOL    HW225532   4.304   6.950   3.071
 8238SOL     OW25533   5.279   7.097   2.565
 8238SOL    HW125534   5.222   7.081   2.646
 8238SOL    HW225535   5.220   7.107   2.485
 8239SOL     OW25536   4.859   6.289   2.579
 8239SOL    HW125537   4.916   6.367   2.554
 8239SOL    HW225538   4.799   6.315   2.655
 8240SOL     OW25539   5.479   6.193   2.093
 8240SOL    HW125540   5.467   6.180   1.994
 8240SOL    HW225541   5.449   6.112   2.142
 8241SOL     OW25542   4.492   6.730   2.885
 8241SOL    HW125543   4.414   6.747   2.945
 8241SOL    HW225544   4.526   6.817   2.849
 8242SOL     OW25545   4.574   6.384   3.685
 8242SOL    HW125546   4.570   6.460   3.750
 8242SOL    HW225547   4.596   6.420   3.594
 8243SOL     OW25548   4.409   6.598   2.527
 8243SOL    HW125549   4.478   6.582   2.597
 8243SOL    HW225550   4.336   6.655   2.565
 8244SOL     OW25551   4.410   6.747   3.665
 8244SOL    HW125552   4.470   6.826   3.679
 8244SOL    HW225553   4.324   6.778   3.624
 8245SOL     OW25554   4.059   7.021   2.923
 8245SOL    HW125555   3.981   6.990   2.870
 8245SOL    HW225556   4.117   7.079   2.866
 8246SOL     OW25557   4.162   5.978   3.361
 8246SOL    HW125558   4.244   5.922   3.370
 8246SOL    HW225559   4.081   5.920   3.365
 8247SOL     OW25560   5.327   6.033   2.599
 8247SOL    HW125561   5.253   6.079   2.549
 8247SOL    HW225562   5.378   6.101   2.652
 8248SOL     OW25563   3.964   6.677   2.748
 8248SOL    HW125564   3.978   6.593   2.800
 8248SOL    HW225565   3.909   6.741   2.803
 8249SOL     OW25566   4.330   6.550   1.985
 8249SOL    HW125567   4.337   6.634   1.931
 8249SOL    HW225568   4.376   6.563   2.073
 8250SOL     OW25569   5.318   5.700   3.342
 8250SOL    HW125570   5.300   5.767   3.270
 8250SOL    HW225571   5.315   5.746   3.431
 8251SOL     OW25572   3.846   6.229   2.425
 8251SOL    HW125573   3.801   6.141   2.442
 8251SOL    HW225574   3.845   6.283   2.509
 8252SOL     OW25575   5.413   6.508   2.474
 8252SOL    HW125576   5.508   6.479   2.482
 8252SOL    HW225577   5.405   6.573   2.399
 8253SOL     OW25578   5.365   6.694   2.294
 8253SOL    HW125579   5.451   6.696   2.242
 8253SOL    HW225580   5.379   6.741   2.382
 8254SOL     OW25581   3.837   6.323   3.459
 8254SOL    HW125582   3.925   6.310   3.504
 8254SOL    HW225583   3.824   6.420   3.437
 8255SOL     OW25584   5.017   6.814   3.285
 8255SOL    HW125585   5.054   6.741   3.227
 8255SOL    HW225586   5.069   6.819   3.370
 8256SOL     OW25587   4.533   5.590   2.364
 8256SOL    HW125588   4.573   5.681   2.355
 8256SOL    HW225589   4.433   5.598   2.370
 8257SOL     OW25590   3.921   6.562   3.126
 8257SOL    HW125591   4.010   6.517   3.112
 8257SOL    HW225592   3.848   6.497   3.107
 8258SOL     OW25593   5.249   6.585   2.052
 8258SOL    HW125594   5.186   6.509   2.065
 8258SOL    HW225595   5.297   6.603   2.138
 8259SOL     OW25596   4.041   5.837   3.663
 8259SOL    HW125597   4.112   5.908   3.669
 8259SOL    HW225598   3.953   5.876   3.691
 8260SOL     OW25599   5.190   7.003   2.815
 8260SOL    HW125600   5.131   7.009   2.895
 8260SOL    HW225601   5.175   6.915   2.769
 8261SOL     OW25602   4.322   6.315   2.132
 8261SOL    HW125603   4.346   6.384   2.064
 8261SOL    HW225604   4.244   6.348   2.186
 8262SOL     OW25605   5.005   5.931   2.806
 8262SOL    HW125606   4.919   5.881   2.793
 8262SOL    HW225607   5.067   5.877   2.862
 8263SOL     OW25608   4.531   6.191   3.327
 8263SOL    HW125609   4.484   6.188   3.416
 8263SOL    HW225610   4.480   6.136   3.261
 8264SOL     OW25611   5.118   6.055   3.536
 8264SOL    HW125612   5.098   6.098   3.624
 8264SOL    HW225613   5.196   5.993   3.545
 8265SOL     OW25614   4.697   6.476   3.434
 8265SOL    HW125615   4.743   6.392   3.405
 8265SOL    HW225616   4.641   6.510   3.359
 8266SOL     OW25617   4.715   5.996   3.104
 8266SOL    HW125618   4.638   6.030   3.158
 8266SOL    HW225619   4.681   5.945   3.025
 8267SOL     OW25620   4.765   6.287   2.291
 8267SOL    HW125621   4.791   6.283   2.387
 8267SOL    HW225622   4.680   6.236   2.277
 8268SOL     OW25623   3.800   6.397   2.651
 8268SOL    HW125624   3.899   6.385   2.660
 8268SOL    HW225625   3.776   6.492   2.672
 8269SOL     OW25626   4.589   5.934   2.057
 8269SOL    HW125627   4.648   5.997   2.008
 8269SOL    HW225628   4.608   5.840   2.028
 8270SOL     OW25629   5.443   6.171   3.693
 8270SOL    HW125630   5.417   6.260   3.657
 8270SOL    HW225631   5.441   6.103   3.620
 8271SOL     OW25632   5.086   6.730   2.407
 8271SOL    HW125633   5.169   6.701   2.359
 8271SOL    HW225634   5.037   6.797   2.351
 8272SOL     OW25635   4.274   5.782   2.747
 8272SOL    HW125636   4.269   5.777   2.847
 8272SOL    HW225637   4.276   5.878   2.718
 8273SOL     OW25638   5.519   6.652   2.735
 8273SOL    HW125639   5.457   6.637   2.659
 8273SOL    HW225640   5.467   6.663   2.820
 8274SOL     OW25641   4.045   6.529   2.104
 8274SOL    HW125642   4.127   6.568   2.062
 8274SOL    HW225643   4.018   6.447   2.055
 8275SOL     OW25644   5.182   6.321   2.590
 8275SOL    HW125645   5.177   6.256   2.665
 8275SOL    HW225646   5.262   6.380   2.603
 8276SOL     OW25647   3.926   5.871   3.360
 8276SOL    HW125648   3.846   5.931   3.347
 8276SOL    HW225649   3.916   5.822   3.446
 8277SOL     OW25650   5.356   6.963   1.943
 8277SOL    HW125651   5.324   7.057   1.933
 8277SOL    HW225652   5.280   6.900   1.931
 8278SOL     OW25653   5.124   5.693   2.288
 8278SOL    HW125654   5.100   5.656   2.198
 8278SOL    HW225655   5.223   5.709   2.292
 8279SOL     OW25656   4.106   6.286   2.342
 8279SOL    HW125657   4.151   6.196   2.339
 8279SOL    HW225658   4.012   6.275   2.375
 8280SOL     OW25659   5.271   5.808   3.591
 8280SOL    HW125660   5.266   5.845   3.683
 8280SOL    HW225661   5.199   5.739   3.579
 8281SOL     OW25662   4.338   5.708   1.979
 8281SOL    HW125663   4.436   5.686   1.986
 8281SOL    HW225664   4.307   5.691   1.886
 8282SOL     OW25665   4.505   5.850   3.611
 8282SOL    HW125666   4.572   5.789   3.654
 8282SOL    HW225667   4.432   5.869   3.676
 8283SOL     OW25668   5.075   6.176   3.295
 8283SOL    HW125669   5.103   6.133   3.380
 8283SOL    HW225670   5.100   6.272   3.296
 8284SOL     OW25671   4.646   6.089   2.761
 8284SOL    HW125672   4.621   6.080   2.665
 8284SOL    HW225673   4.694   6.007   2.792
 8285SOL     OW25674   4.263   5.650   2.374
 8285SOL    HW125675   4.182   5.651   2.432
 8285SOL    HW225676   4.266   5.733   2.319
 8286SOL     OW25677   5.158   6.774   1.903
 8286SOL    HW125678   5.190   6.698   1.960
 8286SOL    HW225679   5.066   6.801   1.933
 8287SOL     OW25680   4.021   5.621   2.033
 8287SOL    HW125681   4.070   5.705   2.012
 8287SOL    HW225682   4.083   5.556   2.078
 8288SOL     OW25683   4.659   5.822   2.342
 8288SOL    HW125684   4.611   5.863   2.264
 8288SOL    HW225685   4.758   5.820   2.323
 8289SOL     OW25686   4.800   6.269   3.326
 8289SOL    HW125687   4.720   6.208   3.329
 8289SOL    HW225688   4.881   6.216   3.302
 8290SOL     OW25689   4.951   7.156   2.655
 8290SOL    HW125690   4.972   7.230   2.590
 8290SOL    HW225691   5.019   7.156   2.728
 8291SOL     OW25692   4.183   6.738   2.603
 8291SOL    HW125693   4.112   6.711   2.668
 8291SOL    HW225694   4.157   6.710   2.510
 8292SOL     OW25695   4.756   6.135   1.878
 8292SOL    HW125696   4.715   6.217   1.839
 8292SOL    HW225697   4.820   6.161   1.951
 8293SOL     OW25698   3.802   6.142   3.248
 8293SOL    HW125699   3.894   6.141   3.207
 8293SOL    HW225700   3.796   6.216   3.315
 8294SOL     OW25701   4.285   5.808   3.009
 8294SOL    HW125702   4.323   5.724   3.046
 8294SOL    HW225703   4.197   5.827   3.053
 8295SOL     OW25704   4.590   6.040   2.504
 8295SOL    HW125705   4.558   6.112   2.442
 8295SOL    HW225706   4.614   5.959   2.451
 8296SOL     OW25707   4.741   5.625   2.615
 8296SOL    HW125708   4.669   5.630   2.546
 8296SOL    HW225709   4.717   5.556   2.684
 8297SOL     OW25710   5.153   6.759   2.729
 8297SOL    HW125711   5.098   6.675   2.722
 8297SOL    HW225712   5.179   6.788   2.637
 8298SOL     OW25713   5.190   6.176   2.854
 8298SOL    HW125714   5.160   6.081   2.861
 8298SOL    HW225715   5.263   6.192   2.920
 8299SOL     OW25716   5.581   6.419   2.239
 8299SOL    HW125717   5.623   6.355   2.303
 8299SOL    HW225718   5.543   6.368   2.161
 8300SOL     OW25719   5.388   6.866   2.519
 8300SOL    HW125720   5.487   6.874   2.533
 8300SOL    HW225721   5.343   6.950   2.550
 8301SOL     OW25722   5.114   6.161   1.940
 8301SOL    HW125723   5.060   6.140   2.021
 8301SOL    HW225724   5.205   6.120   1.949
 8302SOL     OW25725   4.251   5.842   2.190
 8302SOL    HW125726   4.278   5.783   2.115
 8302SOL    HW225727   4.251   5.937   2.159
 8303SOL     OW25728   5.478   6.809   3.450
 8303SOL    HW125729   5.569   6.770   3.437
 8303SOL    HW225730   5.486   6.905   3.474
 8304SOL     OW25731   4.788   6.933   3.202
 8304SOL    HW125732   4.708   6.910   3.257
 8304SOL    HW225733   4.871   6.907   3.251
 8305SOL     OW25734   4.835   6.781   2.962
 8305SOL    HW125735   4.795   6.825   3.043
 8305SOL    HW225736   4.794   6.818   2.879
 8306SOL     OW25737   5.362   6.685   2.941
 8306SOL    HW125738   5.367   6.766   3.000
 8306SOL    HW225739   5.276   6.687   2.890
 8307SOL     OW25740   4.639   5.675   3.264
 8307SOL    HW125741   4.664   5.655   3.169
 8307SOL    HW225742   4.711   5.731   3.306
 8308SOL     OW25743   4.704   6.702   3.581
 8308SOL    HW125744   4.605   6.708   3.591
 8308SOL    HW225745   4.727   6.622   3.525
 8309SOL     OW25746   4.429   6.636   2.230
 8309SOL    HW125747   4.415   6.643   2.329
 8309SOL    HW225748   4.513   6.585   2.212
 8310SOL     OW25749   4.134   6.399   3.113
 8310SOL    HW125750   4.220   6.411   3.163
 8310SOL    HW225751   4.092   6.312   3.140
 8311SOL     OW25752   4.998   5.972   3.124
 8311SOL    HW125753   5.019   6.046   3.188
 8311SOL    HW225754   4.909   5.989   3.081
 8312SOL     OW25755   4.091   6.686   2.363
 8312SOL    HW125756   4.084   6.769   2.307
 8312SOL    HW225757   4.095   6.606   2.303
 8313SOL     OW25758   4.290   6.123   2.727
 8313SOL    HW125759   4.302   6.189   2.653
 8313SOL    HW225760   4.336   6.157   2.810
 8314SOL     OW25761   5.306   6.225   2.334
 8314SOL    HW125762   5.275   6.286   2.407
 8314SOL    HW225763   5.356   6.277   2.265
 8315SOL     OW25764   4.126   6.337   3.460
 8315SOL    HW125765   4.194   6.392   3.413
 8315SOL    HW225766   4.166   6.249   3.487
 8316SOL     OW25767   5.311   6.365   3.532
 8316SOL    HW125768   5.219   6.403   3.527
 8316SOL    HW225769   5.371   6.412   3.467
 8317SOL     OW25770   4.737   5.691   3.632
 8317SOL    HW125771   4.743   5.776   3.580
 8317SOL    HW225772   4.769   5.615   3.575
 8318SOL     OW25773   4.228   5.636   3.602
 8318SOL    HW125774   4.186   5.579   3.532
 8318SOL    HW225775   4.162   5.705   3.634
 8319SOL     OW25776   4.297   6.456   2.891
 8319SOL    HW125777   4.341   6.545   2.882
 8319SOL    HW225778   4.234   6.456   2.968
 8320SOL     OW25779   5.084   6.448   2.907
 8320SOL    HW125780   5.009   6.448   2.841
 8320SOL    HW225781   5.121   6.356   2.916
 8321SOL     OW25782   4.933   6.111   2.137
 8321SOL    HW125783   4.946   6.027   2.191
 8321SOL    HW225784   4.904   6.185   2.197
 8322SOL     OW25785   4.031   5.799   3.093
 8322SOL    HW125786   4.008   5.836   3.183
 8322SOL    HW225787   4.001   5.704   3.087
 8323SOL     OW25788   3.761   6.896   3.144
 8323SOL    HW125789   3.814   6.847   3.212
 8323SOL    HW225790   3.783   6.994   3.149
 8324SOL     OW25791   4.456   6.220   2.926
 8324SOL    HW125792   4.515   6.194   2.850
 8324SOL    HW225793   4.428   6.316   2.915
 8325SOL     OW25794   5.452   6.521   3.716
 8325SOL    HW125795   5.406   6.514   3.627
 8325SOL    HW225796   5.390   6.565   3.782
 8326SOL     OW25797   4.031   5.649   2.480
 8326SOL    HW125798   4.020   5.743   2.513
 8326SOL    HW225799   4.026   5.586   2.557
 8327SOL     OW25800   5.346   5.953   2.236
 8327SOL    HW125801   5.348   5.877   2.300
 8327SOL    HW225802   5.298   6.030   2.276
 8328SOL     OW25803   4.747   6.352   2.828
 8328SOL    HW125804   4.762   6.373   2.924
 8328SOL    HW225805   4.717   6.257   2.819
 8329SOL     OW25806   5.583   7.104   3.467
 8329SOL    HW125807   5.597   7.131   3.372
 8329SOL    HW225808   5.666   7.126   3.520
 8330SOL     OW25809   4.074   6.484   3.666
 8330SOL    HW125810   4.150   6.528   3.714
 8330SOL    HW225811   4.109   6.437   3.584
 8331SOL     OW25812   5.264   5.860   1.987
 8331SOL    HW125813   5.203   5.785   2.010
 8331SOL    HW225814   5.286   5.912   2.070
 8332SOL     OW25815   5.027   6.424   1.904
 8332SOL    HW125816   5.061   6.331   1.919
 8332SOL    HW225817   5.045   6.451   1.809
 8333SOL     OW25818   4.043   6.396   2.811
 8333SOL    HW125819   4.136   6.432   2.816
 8333SOL    HW225820   4.037   6.311   2.863
 8334SOL     OW25821   4.063   6.095   2.868
 8334SOL    HW125822   4.011   6.012   2.851
 8334SOL    HW225823   4.140   6.100   2.804
 8335SOL     OW25824   4.862   5.966   3.540
 8335SOL    HW125825   4.817   6.029   3.604
 8335SOL    HW225826   4.955   5.997   3.523
 8336SOL     OW25827   4.884   5.793   3.339
 8336SOL    HW125828   4.884   5.857   3.416
 8336SOL    HW225829   4.912   5.841   3.256
 8337SOL     OW25830   3.732   6.912   2.062
 8337SOL    HW125831   3.639   6.933   2.031
 8337SOL    HW225832   3.742   6.813   2.075
 8338SOL     OW25833   4.726   6.382   3.100
 8338SOL    HW125834   4.767   6.350   3.186
 8338SOL    HW225835   4.630   6.355   3.097
 8339SOL     OW25836   3.764   6.130   2.976
 8339SOL    HW125837   3.849   6.097   2.935
 8339SOL    HW225838   3.777   6.145   3.074
 8340SOL     OW25839   3.913   6.106   3.584
 8340SOL    HW125840   3.972   6.066   3.514
 8340SOL    HW225841   3.855   6.177   3.543
 8341SOL     OW25842   5.093   6.536   3.522
 8341SOL    HW125843   5.132   6.625   3.542
 8341SOL    HW225844   5.103   6.516   3.425
 8342SOL     OW25845   4.539   6.158   2.187
 8342SOL    HW125846   4.546   6.069   2.141
 8342SOL    HW225847   4.445   6.192   2.179
 8343SOL     OW25848   5.381   6.190   3.068
 8343SOL    HW125849   5.343   6.121   3.130
 8343SOL    HW225850   5.463   6.154   3.024
 8344SOL     OW25851   4.395   6.050   3.131
 8344SOL    HW125852   4.361   5.961   3.101
 8344SOL    HW225853   4.421   6.104   3.051
 8345SOL     OW25854   4.197   6.086   2.053
 8345SOL    HW125855   4.258   6.166   2.057
 8345SOL    HW225856   4.102   6.117   2.060
 8346SOL     OW25857   3.883   6.723   3.328
 8346SOL    HW125858   3.905   6.662   3.404
 8346SOL    HW225859   3.893   6.674   3.242
 8347SOL     OW25860   5.071   6.645   3.096
 8347SOL    HW125861   5.095   6.582   3.022
 8347SOL    HW225862   4.981   6.685   3.078
 8348SOL     OW25863   5.026   6.441   2.171
 8348SOL    HW125864   4.940   6.410   2.213
 8348SOL    HW225865   5.022   6.427   2.072
 8349SOL     OW25866   3.807   6.844   2.884
 8349SOL    HW125867   3.802   6.843   2.984
 8349SOL    HW225868   3.724   6.803   2.846
 8350SOL     OW25869   5.450   5.721   2.385
 8350SOL    HW125870   5.523   5.704   2.318
 8350SOL    HW225871   5.419   5.634   2.423
 8351SOL     OW25872   5.004   6.513   2.534
 8351SOL    HW125873   5.064   6.432   2.536
 8351SOL    HW225874   5.044   6.582   2.474
 8352SOL     OW25875   4.554   6.859   3.284
 8352SOL    HW125876   4.549   6.892   3.379
 8352SOL    HW225877   4.468   6.878   3.238
 8353SOL     OW25878   5.565   5.761   2.825
 8353SOL    HW125879   5.604   5.676   2.789
 8353SOL    HW225880   5.467   5.763   2.806
 8354SOL     OW25881   3.987   5.912   2.582
 8354SOL    HW125882   3.908   5.963   2.548
 8354SOL    HW225883   3.978   5.897   2.680
 8355SOL     OW25884   4.918   7.198   1.893
 8355SOL    HW125885   4.924   7.105   1.930
 8355SOL    HW225886   4.859   7.198   1.813
 8356SOL     OW25887   4.546   6.588   3.234
 8356SOL    HW125888   4.586   6.587   3.142
 8356SOL    HW225889   4.556   6.680   3.274
 8357SOL     OW25890   4.640   6.496   2.153
 8357SOL    HW125891   4.703   6.534   2.085
 8357SOL    HW225892   4.680   6.413   2.192
 8358SOL     OW25893   4.096   6.874   3.352
 8358SOL    HW125894   4.083   6.967   3.318
 8358SOL    HW225895   4.012   6.822   3.339
 8359SOL     OW25896   5.338   6.878   3.151
 8359SOL    HW125897   5.398   6.881   3.231
 8359SOL    HW225898   5.263   6.942   3.164
 8360SOL     OW25899   4.763   6.684   2.558
 8360SOL    HW125900   4.693   6.637   2.612
 8360SOL    HW225901   4.822   6.616   2.515
 8361SOL     OW25902   4.738   5.822   2.833
 8361SOL    HW125903   4.730   5.786   2.740
 8361SOL    HW225904   4.736   5.746   2.898
 8362SOL     OW25905   5.433   5.971   3.243
 8362SOL    HW125906   5.506   6.040   3.247
 8362SOL    HW225907   5.461   5.896   3.184
 8363SOL     OW25908   3.829   6.599   3.588
 8363SOL    HW125909   3.752   6.566   3.642
 8363SOL    HW225910   3.914   6.569   3.630
 8364SOL     OW25911   4.396   5.789   3.351
 8364SOL    HW125912   4.486   5.773   3.311
 8364SOL    HW225913   4.404   5.794   3.450
 8365SOL     OW25914   3.799   5.931   1.895
 8365SOL    HW125915   3.707   5.903   1.866
 8365SOL    HW225916   3.830   6.008   1.839
 8366SOL     OW25917   5.164   6.442   3.260
 8366SOL    HW125918   5.107   6.494   3.197
 8366SOL    HW225919   5.260   6.454   3.236
 8367SOL     OW25920   3.796   5.752   2.180
 8367SOL    HW125921   3.779   5.835   2.126
 8367SOL    HW225922   3.886   5.715   2.158
 8368SOL     OW25923   4.337   6.428   3.293
 8368SOL    HW125924   4.393   6.509   3.276
 8368SOL    HW225925   4.396   6.348   3.296
 8369SOL     OW25926   4.440   6.151   3.570
 8369SOL    HW125927   4.459   6.216   3.644
 8369SOL    HW225928   4.500   6.071   3.579
 8370SOL     OW25929   5.174   6.806   3.495
 8370SOL    HW125930   5.165   6.796   3.594
 8370SOL    HW225931   5.270   6.799   3.469
 8371SOL     OW25932   5.398   6.469   3.116
 8371SOL    HW125933   5.371   6.380   3.079
 8371SOL    HW225934   5.399   6.537   3.043
 8372SOL     OW25935   4.949   5.911   2.311
 8372SOL    HW125936   5.014   5.837   2.300
 8372SOL    HW225937   4.969   5.961   2.395
 8373SOL     OW25938   4.318   6.331   2.514
 8373SOL    HW125939   4.368   6.416   2.495
 8373SOL    HW225940   4.230   6.333   2.466
 8374SOL     OW25941   5.501   5.928   3.504
 8374SOL    HW125942   5.484   5.959   3.410
 8374SOL    HW225943   5.417   5.891   3.542
 8375SOL     OW25944   5.454   6.520   3.379
 8375SOL    HW125945   5.492   6.611   3.394
 8375SOL    HW225946   5.446   6.503   3.280
 8376SOL     OW25947   4.583   6.542   2.723
 8376SOL    HW125948   4.637   6.473   2.771
 8376SOL    HW225949   4.551   6.611   2.789
 8377SOL     OW25950   4.807   6.570   1.949
 8377SOL    HW125951   4.784   6.623   1.867
 8377SOL    HW225952   4.888   6.514   1.930
 8378SOL     OW25953   3.945   6.900   3.706
 8378SOL    HW125954   3.880   6.827   3.685
 8378SOL    HW225955   3.949   6.914   3.804
 8379SOL     OW25956   3.803   6.826   2.515
 8379SOL    HW125957   3.802   6.779   2.603
 8379SOL    HW225958   3.885   6.798   2.464
 8380SOL     OW25959   4.396   6.977   3.486
 8380SOL    HW125960   4.318   6.927   3.524
 8380SOL    HW225961   4.393   7.072   3.517
 8381SOL     OW25962   5.548   5.778   3.089
 8381SOL    HW125963   5.544   5.688   3.133
 8381SOL    HW225964   5.551   5.767   2.990
 8382SOL     OW25965   4.152   6.010   2.382
 8382SOL    HW125966   4.182   5.938   2.320
 8382SOL    HW225967   4.113   5.970   2.465
 8383SOL     OW25968   5.429   7.073   2.966
 8383SOL    HW125969   5.336   7.048   2.939
 8383SOL    HW225970   5.455   7.023   3.048
 8384SOL     OW25971   4.041   6.133   3.142
 8384SOL    HW125972   4.079   6.074   3.214
 8384SOL    HW225973   4.081   6.107   3.054
 8385SOL     OW25974   5.148   5.800   2.974
 8385SOL    HW125975   5.200   5.735   3.029
 8385SOL    HW225976   5.099   5.863   3.035
 8386SOL     OW25977   4.725   5.620   3.016
 8386SOL    HW125978   4.662   5.548   2.985
 8386SOL    HW225979   4.818   5.584   3.016
 8387SOL     OW25980   4.494   6.916   2.163
 8387SOL    HW125981   4.448   6.829   2.180
 8387SOL    HW225982   4.585   6.913   2.204
 8388SOL     OW25983   5.076   5.638   2.030
 8388SOL    HW125984   5.111   5.597   1.946
 8388SOL    HW225985   4.986   5.600   2.050
 8389SOL     OW25986   5.024   6.039   2.553
 8389SOL    HW125987   4.965   6.119   2.557
 8389SOL    HW225988   5.039   6.004   2.646
 8390SOL     OW25989   5.317   5.807   2.744
 8390SOL    HW125990   5.233   5.806   2.798
 8390SOL    HW225991   5.319   5.890   2.688
 8391SOL     OW25992   3.763   6.663   2.162
 8391SOL    HW125993   3.862   6.652   2.153
 8391SOL    HW225994   3.723   6.577   2.194
 8392SOL     OW25995   3.954   6.214   3.837
 8392SOL    HW125996   3.861   6.212   3.874
 8392SOL    HW225997   3.955   6.175   3.745
 8393SOL     OW25998   3.949   5.861   4.720
 8393SOL    HW125999   3.984   5.844   4.812
 8393SOL    HW226000   3.861   5.816   4.708
 8394SOL     OW26001   3.743   5.954   4.371
 8394SOL    HW126002   3.661   5.997   4.410
 8394SOL    HW226003   3.715   5.881   4.308
 8395SOL     OW26004   4.293   6.861   4.889
 8395SOL    HW126005   4.200   6.854   4.852
 8395SOL    HW226006   4.304   6.950   4.933
 8396SOL     OW26007   5.279   7.097   4.427
 8396SOL    HW126008   5.222   7.081   4.508
 8396SOL    HW226009   5.220   7.107   4.347
 8397SOL     OW26010   4.859   6.289   4.441
 8397SOL    HW126011   4.916   6.367   4.416
 8397SOL    HW226012   4.799   6.315   4.517
 8398SOL     OW26013   5.479   6.193   3.955
 8398SOL    HW126014   5.467   6.180   3.856
 8398SOL    HW226015   5.449   6.112   4.004
 8399SOL     OW26016   4.492   6.730   4.747
 8399SOL    HW126017   4.414   6.747   4.807
 8399SOL    HW226018   4.526   6.817   4.711
 8400SOL     OW26019   4.574   6.384   5.547
 8400SOL    HW126020   4.570   6.460   5.612
 8400SOL    HW226021   4.596   6.420   5.456
 8401SOL     OW26022   4.409   6.598   4.389
 8401SOL    HW126023   4.478   6.582   4.459
 8401SOL    HW226024   4.336   6.655   4.427
 8402SOL     OW26025   4.410   6.747   5.527
 8402SOL    HW126026   4.470   6.826   5.541
 8402SOL    HW226027   4.324   6.778   5.486
 8403SOL     OW26028   4.059   7.021   4.785
 8403SOL    HW126029   3.981   6.990   4.732
 8403SOL    HW226030   4.117   7.079   4.728
 8404SOL     OW26031   4.162   5.978   5.223
 8404SOL    HW126032   4.244   5.922   5.232
 8404SOL    HW226033   4.081   5.920   5.227
 8405SOL     OW26034   5.327   6.033   4.461
 8405SOL    HW126035   5.253   6.079   4.411
 8405SOL    HW226036   5.378   6.101   4.514
 8406SOL     OW26037   3.964   6.677   4.610
 8406SOL    HW126038   3.978   6.593   4.662
 8406SOL    HW226039   3.909   6.741   4.665
 8407SOL     OW26040   4.330   6.550   3.847
 8407SOL    HW126041   4.337   6.634   3.793
 8407SOL    HW226042   4.376   6.563   3.935
 8408SOL     OW26043   5.318   5.700   5.204
 8408SOL    HW126044   5.300   5.767   5.132
 8408SOL    HW226045   5.315   5.746   5.293
 8409SOL     OW26046   3.846   6.229   4.287
 8409SOL    HW126047   3.801   6.141   4.304
 8409SOL    HW226048   3.845   6.283   4.371
 8410SOL     OW26049   5.413   6.508   4.336
 8410SOL    HW126050   5.508   6.479   4.344
 8410SOL    HW226051   5.405   6.573   4.261
 8411SOL     OW26052   5.365   6.694   4.156
 8411SOL    HW126053   5.451   6.696   4.104
 8411SOL    HW226054   5.379   6.741   4.244
 8412SOL     OW26055   3.837   6.323   5.321
 8412SOL    HW126056   3.925   6.310   5.366
 8412SOL    HW226057   3.824   6.420   5.299
 8413SOL     OW26058   5.017   6.814   5.147
 8413SOL    HW126059   5.054   6.741   5.089
 8413SOL    HW226060   5.069   6.819   5.232
 8414SOL     OW26061   4.533   5.590   4.226
 8414SOL    HW126062   4.573   5.681   4.217
 8414SOL    HW226063   4.433   5.598   4.232
 8415SOL     OW26064   3.921   6.562   4.988
 8415SOL    HW126065   4.010   6.517   4.974
 8415SOL    HW226066   3.848   6.497   4.969
 8416SOL     OW26067   5.249   6.585   3.914
 8416SOL    HW126068   5.186   6.509   3.927
 8416SOL    HW226069   5.297   6.603   4.000
 8417SOL     OW26070   4.041   5.837   5.525
 8417SOL    HW126071   4.112   5.908   5.531
 8417SOL    HW226072   3.953   5.876   5.553
 8418SOL     OW26073   5.190   7.003   4.677
 8418SOL    HW126074   5.131   7.009   4.757
 8418SOL    HW226075   5.175   6.915   4.631
 8419SOL     OW26076   4.322   6.315   3.994
 8419SOL    HW126077   4.346   6.384   3.926
 8419SOL    HW226078   4.244   6.348   4.048
 8420SOL     OW26079   5.005   5.931   4.668
 8420SOL    HW126080   4.919   5.881   4.655
 8420SOL    HW226081   5.067   5.877   4.724
 8421SOL     OW26082   4.531   6.191   5.189
 8421SOL    HW126083   4.484   6.188   5.278
 8421SOL    HW226084   4.480   6.136   5.123
 8422SOL     OW26085   5.118   6.055   5.398
 8422SOL    HW126086   5.098   6.098   5.486
 8422SOL    HW226087   5.196   5.993   5.407
 8423SOL     OW26088   4.697   6.476   5.296
 8423SOL    HW126089   4.743   6.392   5.267
 8423SOL    HW226090   4.641   6.510   5.221
 8424SOL     OW26091   4.715   5.996   4.966
 8424SOL    HW126092   4.638   6.030   5.020
 8424SOL    HW226093   4.681   5.945   4.887
 8425SOL     OW26094   4.765   6.287   4.153
 8425SOL    HW126095   4.791   6.283   4.249
 8425SOL    HW226096   4.680   6.236   4.139
 8426SOL     OW26097   3.800   6.397   4.513
 8426SOL    HW126098   3.899   6.385   4.522
 8426SOL    HW226099   3.776   6.492   4.534
 8427SOL     OW26100   4.589   5.934   3.919
 8427SOL    HW126101   4.648   5.997   3.870
 8427SOL    HW226102   4.608   5.840   3.890
 8428SOL     OW26103   5.443   6.171   5.555
 8428SOL    HW126104   5.417   6.260   5.519
 8428SOL    HW226105   5.441   6.103   5.482
 8429SOL     OW26106   5.086   6.730   4.269
 8429SOL    HW126107   5.169   6.701   4.221
 8429SOL    HW226108   5.037   6.797   4.213
 8430SOL     OW26109   4.274   5.782   4.609
 8430SOL    HW126110   4.269   5.777   4.709
 8430SOL    HW226111   4.276   5.878   4.580
 8431SOL     OW26112   5.519   6.652   4.597
 8431SOL    HW126113   5.457   6.637   4.521
 8431SOL    HW226114   5.467   6.663   4.682
 8432SOL     OW26115   4.045   6.529   3.966
 8432SOL    HW126116   4.127   6.568   3.924
 8432SOL    HW226117   4.018   6.447   3.917
 8433SOL     OW26118   5.182   6.321   4.452
 8433SOL    HW126119   5.177   6.256   4.527
 8433SOL    HW226120   5.262   6.380   4.465
 8434SOL     OW26121   3.926   5.871   5.222
 8434SOL    HW126122   3.846   5.931   5.209
 8434SOL    HW226123   3.916   5.822   5.308
 8435SOL     OW26124   5.356   6.963   3.805
 8435SOL    HW126125   5.324   7.057   3.795
 8435SOL    HW226126   5.280   6.900   3.793
 8436SOL     OW26127   5.124   5.693   4.150
 8436SOL    HW126128   5.100   5.656   4.060
 8436SOL    HW226129   5.223   5.709   4.154
 8437SOL     OW26130   4.106   6.286   4.204
 8437SOL    HW126131   4.151   6.196   4.201
 8437SOL    HW226132   4.012   6.275   4.237
 8438SOL     OW26133   5.271   5.808   5.453
 8438SOL    HW126134   5.266   5.845   5.545
 8438SOL    HW226135   5.199   5.739   5.441
 8439SOL     OW26136   4.338   5.708   3.841
 8439SOL    HW126137   4.436   5.686   3.848
 8439SOL    HW226138   4.307   5.691   3.748
 8440SOL     OW26139   4.505   5.850   5.473
 8440SOL    HW126140   4.572   5.789   5.516
 8440SOL    HW226141   4.432   5.869   5.538
 8441SOL     OW26142   5.075   6.176   5.157
 8441SOL    HW126143   5.103   6.133   5.242
 8441SOL    HW226144   5.100   6.272   5.158
 8442SOL     OW26145   4.646   6.089   4.623
 8442SOL    HW126146   4.621   6.080   4.527
 8442SOL    HW226147   4.694   6.007   4.654
 8443SOL     OW26148   4.263   5.650   4.236
 8443SOL    HW126149   4.182   5.651   4.294
 8443SOL    HW226150   4.266   5.733   4.181
 8444SOL     OW26151   5.158   6.774   3.765
 8444SOL    HW126152   5.190   6.698   3.822
 8444SOL    HW226153   5.066   6.801   3.795
 8445SOL     OW26154   4.021   5.621   3.895
 8445SOL    HW126155   4.070   5.705   3.874
 8445SOL    HW226156   4.083   5.556   3.940
 8446SOL     OW26157   4.659   5.822   4.204
 8446SOL    HW126158   4.611   5.863   4.126
 8446SOL    HW226159   4.758   5.820   4.185
 8447SOL     OW26160   4.800   6.269   5.188
 8447SOL    HW126161   4.720   6.208   5.191
 8447SOL    HW226162   4.881   6.216   5.164
 8448SOL     OW26163   4.951   7.156   4.517
 8448SOL    HW126164   4.972   7.230   4.452
 8448SOL    HW226165   5.019   7.156   4.590
 8449SOL     OW26166   4.183   6.738   4.465
 8449SOL    HW126167   4.112   6.711   4.530
 8449SOL    HW226168   4.157   6.710   4.372
 8450SOL     OW26169   4.756   6.135   3.740
 8450SOL    HW126170   4.715   6.217   3.701
 8450SOL    HW226171   4.820   6.161   3.813
 8451SOL     OW26172   3.802   6.142   5.110
 8451SOL    HW126173   3.894   6.141   5.069
 8451SOL    HW226174   3.796   6.216   5.177
 8452SOL     OW26175   4.285   5.808   4.871
 8452SOL    HW126176   4.323   5.724   4.908
 8452SOL    HW226177   4.197   5.827   4.915
 8453SOL     OW26178   4.590   6.040   4.366
 8453SOL    HW126179   4.558   6.112   4.304
 8453SOL    HW226180   4.614   5.959   4.313
 8454SOL     OW26181   4.741   5.625   4.477
 8454SOL    HW126182   4.669   5.630   4.408
 8454SOL    HW226183   4.717   5.556   4.546
 8455SOL     OW26184   5.153   6.759   4.591
 8455SOL    HW126185   5.098   6.675   4.584
 8455SOL    HW226186   5.179   6.788   4.499
 8456SOL     OW26187   5.190   6.176   4.716
 8456SOL    HW126188   5.160   6.081   4.723
 8456SOL    HW226189   5.263   6.192   4.782
 8457SOL     OW26190   5.581   6.419   4.101
 8457SOL    HW126191   5.623   6.355   4.165
 8457SOL    HW226192   5.543   6.368   4.023
 8458SOL     OW26193   5.388   6.866   4.381
 8458SOL    HW126194   5.487   6.874   4.395
 8458SOL    HW226195   5.343   6.950   4.412
 8459SOL     OW26196   5.114   6.161   3.802
 8459SOL    HW126197   5.060   6.140   3.883
 8459SOL    HW226198   5.205   6.120   3.811
 8460SOL     OW26199   4.251   5.842   4.052
 8460SOL    HW126200   4.278   5.783   3.977
 8460SOL    HW226201   4.251   5.937   4.021
 8461SOL     OW26202   5.478   6.809   5.312
 8461SOL    HW126203   5.569   6.770   5.299
 8461SOL    HW226204   5.486   6.905   5.336
 8462SOL     OW26205   4.788   6.933   5.064
 8462SOL    HW126206   4.708   6.910   5.119
 8462SOL    HW226207   4.871   6.907   5.113
 8463SOL     OW26208   4.835   6.781   4.824
 8463SOL    HW126209   4.795   6.825   4.905
 8463SOL    HW226210   4.794   6.818   4.741
 8464SOL     OW26211   5.362   6.685   4.803
 8464SOL    HW126212   5.367   6.766   4.862
 8464SOL    HW226213   5.276   6.687   4.752
 8465SOL     OW26214   4.639   5.675   5.126
 8465SOL    HW126215   4.664   5.655   5.031
 8465SOL    HW226216   4.711   5.731   5.168
 8466SOL     OW26217   4.704   6.702   5.443
 8466SOL    HW126218   4.605   6.708   5.453
 8466SOL    HW226219   4.727   6.622   5.387
 8467SOL     OW26220   4.429   6.636   4.092
 8467SOL    HW126221   4.415   6.643   4.191
 8467SOL    HW226222   4.513   6.585   4.074
 8468SOL     OW26223   4.134   6.399   4.975
 8468SOL    HW126224   4.220   6.411   5.025
 8468SOL    HW226225   4.092   6.312   5.002
 8469SOL     OW26226   4.998   5.972   4.986
 8469SOL    HW126227   5.019   6.046   5.050
 8469SOL    HW226228   4.909   5.989   4.943
 8470SOL     OW26229   4.091   6.686   4.225
 8470SOL    HW126230   4.084   6.769   4.169
 8470SOL    HW226231   4.095   6.606   4.165
 8471SOL     OW26232   4.290   6.123   4.589
 8471SOL    HW126233   4.302   6.189   4.515
 8471SOL    HW226234   4.336   6.157   4.672
 8472SOL     OW26235   5.306   6.225   4.196
 8472SOL    HW126236   5.275   6.286   4.269
 8472SOL    HW226237   5.356   6.277   4.127
 8473SOL     OW26238   4.126   6.337   5.322
 8473SOL    HW126239   4.194   6.392   5.275
 8473SOL    HW226240   4.166   6.249   5.349
 8474SOL     OW26241   5.311   6.365   5.394
 8474SOL    HW126242   5.219   6.403   5.389
 8474SOL    HW226243   5.371   6.412   5.329
 8475SOL     OW26244   4.737   5.691   5.494
 8475SOL    HW126245   4.743   5.776   5.442
 8475SOL    HW226246   4.769   5.615   5.437
 8476SOL     OW26247   4.228   5.636   5.464
 8476SOL    HW126248   4.186   5.579   5.394
 8476SOL    HW226249   4.162   5.705   5.496
 8477SOL     OW26250   4.297   6.456   4.753
 8477SOL    HW126251   4.341   6.545   4.744
 8477SOL    HW226252   4.234   6.456   4.830
 8478SOL     OW26253   5.084   6.448   4.769
 8478SOL    HW126254   5.009   6.448   4.703
 8478SOL    HW226255   5.121   6.356   4.778
 8479SOL     OW26256   4.933   6.111   3.999
 8479SOL    HW126257   4.946   6.027   4.053
 8479SOL    HW226258   4.904   6.185   4.059
 8480SOL     OW26259   4.031   5.799   4.955
 8480SOL    HW126260   4.008   5.836   5.045
 8480SOL    HW226261   4.001   5.704   4.949
 8481SOL     OW26262   3.761   6.896   5.006
 8481SOL    HW126263   3.814   6.847   5.074
 8481SOL    HW226264   3.783   6.994   5.011
 8482SOL     OW26265   4.456   6.220   4.788
 8482SOL    HW126266   4.515   6.194   4.712
 8482SOL    HW226267   4.428   6.316   4.777
 8483SOL     OW26268   5.452   6.521   5.578
 8483SOL    HW126269   5.406   6.514   5.489
 8483SOL    HW226270   5.390   6.565   5.644
 8484SOL     OW26271   4.031   5.649   4.342
 8484SOL    HW126272   4.020   5.743   4.375
 8484SOL    HW226273   4.026   5.586   4.419
 8485SOL     OW26274   5.346   5.953   4.098
 8485SOL    HW126275   5.348   5.877   4.162
 8485SOL    HW226276   5.298   6.030   4.138
 8486SOL     OW26277   4.747   6.352   4.690
 8486SOL    HW126278   4.762   6.373   4.786
 8486SOL    HW226279   4.717   6.257   4.681
 8487SOL     OW26280   5.583   7.104   5.329
 8487SOL    HW126281   5.597   7.131   5.234
 8487SOL    HW226282   5.666   7.126   5.382
 8488SOL     OW26283   4.074   6.484   5.528
 8488SOL    HW126284   4.150   6.528   5.576
 8488SOL    HW226285   4.109   6.437   5.446
 8489SOL     OW26286   5.264   5.860   3.849
 8489SOL    HW126287   5.203   5.785   3.872
 8489SOL    HW226288   5.286   5.912   3.932
 8490SOL     OW26289   5.027   6.424   3.766
 8490SOL    HW126290   5.061   6.331   3.781
 8490SOL    HW226291   5.045   6.451   3.671
 8491SOL     OW26292   4.043   6.396   4.673
 8491SOL    HW126293   4.136   6.432   4.678
 8491SOL    HW226294   4.037   6.311   4.725
 8492SOL     OW26295   4.063   6.095   4.730
 8492SOL    HW126296   4.011   6.012   4.713
 8492SOL    HW226297   4.140   6.100   4.666
 8493SOL     OW26298   4.862   5.966   5.402
 8493SOL    HW126299   4.817   6.029   5.466
 8493SOL    HW226300   4.955   5.997   5.385
 8494SOL     OW26301   4.884   5.793   5.201
 8494SOL    HW126302   4.884   5.857   5.278
 8494SOL    HW226303   4.912   5.841   5.118
 8495SOL     OW26304   3.732   6.912   3.924
 8495SOL    HW126305   3.639   6.933   3.893
 8495SOL    HW226306   3.742   6.813   3.937
 8496SOL     OW26307   4.726   6.382   4.962
 8496SOL    HW126308   4.767   6.350   5.048
 8496SOL    HW226309   4.630   6.355   4.959
 8497SOL     OW26310   3.764   6.130   4.838
 8497SOL    HW126311   3.849   6.097   4.797
 8497SOL    HW226312   3.777   6.145   4.936
 8498SOL     OW26313   3.913   6.106   5.446
 8498SOL    HW126314   3.972   6.066   5.376
 8498SOL    HW226315   3.855   6.177   5.405
 8499SOL     OW26316   5.093   6.536   5.384
 8499SOL    HW126317   5.132   6.625   5.404
 8499SOL    HW226318   5.103   6.516   5.287
 8500SOL     OW26319   4.539   6.158   4.049
 8500SOL    HW126320   4.546   6.069   4.003
 8500SOL    HW226321   4.445   6.192   4.041
 8501SOL     OW26322   5.381   6.190   4.930
 8501SOL    HW126323   5.343   6.121   4.992
 8501SOL    HW226324   5.463   6.154   4.886
 8502SOL     OW26325   4.395   6.050   4.993
 8502SOL    HW126326   4.361   5.961   4.963
 8502SOL    HW226327   4.421   6.104   4.913
 8503SOL     OW26328   4.197   6.086   3.915
 8503SOL    HW126329   4.258   6.166   3.919
 8503SOL    HW226330   4.102   6.117   3.922
 8504SOL     OW26331   3.883   6.723   5.190
 8504SOL    HW126332   3.905   6.662   5.266
 8504SOL    HW226333   3.893   6.674   5.104
 8505SOL     OW26334   5.071   6.645   4.958
 8505SOL    HW126335   5.095   6.582   4.884
 8505SOL    HW226336   4.981   6.685   4.940
 8506SOL     OW26337   5.026   6.441   4.033
 8506SOL    HW126338   4.940   6.410   4.075
 8506SOL    HW226339   5.022   6.427   3.934
 8507SOL     OW26340   3.807   6.844   4.746
 8507SOL    HW126341   3.802   6.843   4.846
 8507SOL    HW226342   3.724   6.803   4.708
 8508SOL     OW26343   5.450   5.721   4.247
 8508SOL    HW126344   5.523   5.704   4.180
 8508SOL    HW226345   5.419   5.634   4.285
 8509SOL     OW26346   5.004   6.513   4.396
 8509SOL    HW126347   5.064   6.432   4.398
 8509SOL    HW226348   5.044   6.582   4.336
 8510SOL     OW26349   4.554   6.859   5.146
 8510SOL    HW126350   4.549   6.892   5.241
 8510SOL    HW226351   4.468   6.878   5.100
 8511SOL     OW26352   5.565   5.761   4.687
 8511SOL    HW126353   5.604   5.676   4.651
 8511SOL    HW226354   5.467   5.763   4.668
 8512SOL     OW26355   3.987   5.912   4.444
 8512SOL    HW126356   3.908   5.963   4.410
 8512SOL    HW226357   3.978   5.897   4.542
 8513SOL     OW26358   4.918   7.198   3.755
 8513SOL    HW126359   4.924   7.105   3.792
 8513SOL    HW226360   4.859   7.198   3.675
 8514SOL     OW26361   4.546   6.588   5.096
 8514SOL    HW126362   4.586   6.587   5.004
 8514SOL    HW226363   4.556   6.680   5.136
 8515SOL     OW26364   4.640   6.496   4.015
 8515SOL    HW126365   4.703   6.534   3.947
 8515SOL    HW226366   4.680   6.413   4.054
 8516SOL     OW26367   4.096   6.874   5.214
 8516SOL    HW126368   4.083   6.967   5.180
 8516SOL    HW226369   4.012   6.822   5.201
 8517SOL     OW26370   5.338   6.878   5.013
 8517SOL    HW126371   5.398   6.881   5.093
 8517SOL    HW226372   5.263   6.942   5.026
 8518SOL     OW26373   4.763   6.684   4.420
 8518SOL    HW126374   4.693   6.637   4.474
 8518SOL    HW226375   4.822   6.616   4.377
 8519SOL     OW26376   4.738   5.822   4.695
 8519SOL    HW126377   4.730   5.786   4.602
 8519SOL    HW226378   4.736   5.746   4.760
 8520SOL     OW26379   5.433   5.971   5.105
 8520SOL    HW126380   5.506   6.040   5.109
 8520SOL    HW226381   5.461   5.896   5.046
 8521SOL     OW26382   3.829   6.599   5.450
 8521SOL    HW126383   3.752   6.566   5.504
 8521SOL    HW226384   3.914   6.569   5.492
 8522SOL     OW26385   4.396   5.789   5.213
 8522SOL    HW126386   4.486   5.773   5.173
 8522SOL    HW226387   4.404   5.794   5.312
 8523SOL     OW26388   3.799   5.931   3.757
 8523SOL    HW126389   3.707   5.903   3.728
 8523SOL    HW226390   3.830   6.008   3.701
 8524SOL     OW26391   5.164   6.442   5.122
 8524SOL    HW126392   5.107   6.494   5.059
 8524SOL    HW226393   5.260   6.454   5.098
 8525SOL     OW26394   3.796   5.752   4.042
 8525SOL    HW126395   3.779   5.835   3.988
 8525SOL    HW226396   3.886   5.715   4.020
 8526SOL     OW26397   4.337   6.428   5.155
 8526SOL    HW126398   4.393   6.509   5.138
 8526SOL    HW226399   4.396   6.348   5.158
 8527SOL     OW26400   4.440   6.151   5.432
 8527SOL    HW126401   4.459   6.216   5.506
 8527SOL    HW226402   4.500   6.071   5.441
 8528SOL     OW26403   5.174   6.806   5.357
 8528SOL    HW126404   5.165   6.796   5.456
 8528SOL    HW226405   5.270   6.799   5.331
 8529SOL     OW26406   5.398   6.469   4.978
 8529SOL    HW126407   5.371   6.380   4.941
 8529SOL    HW226408   5.399   6.537   4.905
 8530SOL     OW26409   4.949   5.911   4.173
 8530SOL    HW126410   5.014   5.837   4.162
 8530SOL    HW226411   4.969   5.961   4.257
 8531SOL     OW26412   4.318   6.331   4.376
 8531SOL    HW126413   4.368   6.416   4.357
 8531SOL    HW226414   4.230   6.333   4.328
 8532SOL     OW26415   5.501   5.928   5.366
 8532SOL    HW126416   5.484   5.959   5.272
 8532SOL    HW226417   5.417   5.891   5.404
 8533SOL     OW26418   5.454   6.520   5.241
 8533SOL    HW126419   5.492   6.611   5.256
 8533SOL    HW226420   5.446   6.503   5.142
 8534SOL     OW26421   4.583   6.542   4.585
 8534SOL    HW126422   4.637   6.473   4.633
 8534SOL    HW226423   4.551   6.611   4.651
 8535SOL     OW26424   4.807   6.570   3.811
 8535SOL    HW126425   4.784   6.623   3.729
 8535SOL    HW226426   4.888   6.514   3.792
 8536SOL     OW26427   3.945   6.900   5.568
 8536SOL    HW126428   3.880   6.827   5.547
 8536SOL    HW226429   3.949   6.914   5.666
 8537SOL     OW26430   3.803   6.826   4.377
 8537SOL    HW126431   3.802   6.779   4.465
 8537SOL    HW226432   3.885   6.798   4.326
 8538SOL     OW26433   4.396   6.977   5.348
 8538SOL    HW126434   4.318   6.927   5.386
 8538SOL    HW226435   4.393   7.072   5.379
 8539SOL     OW26436   5.548   5.778   4.951
 8539SOL    HW126437   5.544   5.688   4.995
 8539SOL    HW226438   5.551   5.767   4.852
 8540SOL     OW26439   4.152   6.010   4.244
 8540SOL    HW126440   4.182   5.938   4.182
 8540SOL    HW226441   4.113   5.970   4.327
 8541SOL     OW26442   5.429   7.073   4.828
 8541SOL    HW126443   5.336   7.048   4.801
 8541SOL    HW226444   5.455   7.023   4.910
 8542SOL     OW26445   4.041   6.133   5.004
 8542SOL    HW126446   4.079   6.074   5.076
 8542SOL    HW226447   4.081   6.107   4.916
 8543SOL     OW26448   5.148   5.800   4.836
 8543SOL    HW126449   5.200   5.735   4.891
 8543SOL    HW226450   5.099   5.863   4.897
 8544SOL     OW26451   4.725   5.620   4.878
 8544SOL    HW126452   4.662   5.548   4.847
 8544SOL    HW226453   4.818   5.584   4.878
 8545SOL     OW26454   4.494   6.916   4.025
 8545SOL    HW126455   4.448   6.829   4.042
 8545SOL    HW226456   4.585   6.913   4.066
 8546SOL     OW26457   5.076   5.638   3.892
 8546SOL    HW126458   5.111   5.597   3.808
 8546SOL    HW226459   4.986   5.600   3.912
 8547SOL     OW26460   5.024   6.039   4.415
 8547SOL    HW126461   4.965   6.119   4.419
 8547SOL    HW226462   5.039   6.004   4.508
 8548SOL     OW26463   5.317   5.807   4.606
 8548SOL    HW126464   5.233   5.806   4.660
 8548SOL    HW226465   5.319   5.890   4.550
 8549SOL     OW26466   3.763   6.663   4.024
 8549SOL    HW126467   3.862   6.652   4.015
 8549SOL    HW226468   3.723   6.577   4.056
 8550SOL     OW26469   3.954   6.214   5.699
 8550SOL    HW126470   3.861   6.212   5.736
 8550SOL    HW226471   3.955   6.175   5.607
 8551SOL     OW26472   3.949   5.861   6.582
 8551SOL    HW126473   3.984   5.844   6.674
 8551SOL    HW226474   3.861   5.816   6.570
 8552SOL     OW26475   3.743   5.954   6.233
 8552SOL    HW126476   3.661   5.997   6.272
 8552SOL    HW226477   3.715   5.881   6.170
 8553SOL     OW26478   4.293   6.861   6.751
 8553SOL    HW126479   4.200   6.854   6.714
 8553SOL    HW226480   4.304   6.950   6.795
 8554SOL     OW26481   5.279   7.097   6.289
 8554SOL    HW126482   5.222   7.081   6.370
 8554SOL    HW226483   5.220   7.107   6.209
 8555SOL     OW26484   4.859   6.289   6.303
 8555SOL    HW126485   4.916   6.367   6.278
 8555SOL    HW226486   4.799   6.315   6.379
 8556SOL     OW26487   5.479   6.193   5.817
 8556SOL    HW126488   5.467   6.180   5.718
 8556SOL    HW226489   5.449   6.112   5.866
 8557SOL     OW26490   4.492   6.730   6.609
 8557SOL    HW126491   4.414   6.747   6.669
 8557SOL    HW226492   4.526   6.817   6.573
 8558SOL     OW26493   4.409   6.598   6.251
 8558SOL    HW126494   4.478   6.582   6.321
 8558SOL    HW226495   4.336   6.655   6.289
 8559SOL     OW26496   4.059   7.021   6.647
 8559SOL    HW126497   3.981   6.990   6.594
 8559SOL    HW226498   4.117   7.079   6.590
 8560SOL     OW26499   5.327   6.033   6.323
 8560SOL    HW126500   5.253   6.079   6.273
 8560SOL    HW226501   5.378   6.101   6.376
 8561SOL     OW26502   3.964   6.677   6.472
 8561SOL    HW126503   3.978   6.593   6.524
 8561SOL    HW226504   3.909   6.741   6.527
 8562SOL     OW26505   4.330   6.550   5.709
 8562SOL    HW126506   4.337   6.634   5.655
 8562SOL    HW226507   4.376   6.563   5.797
 8563SOL     OW26508   3.846   6.229   6.149
 8563SOL    HW126509   3.801   6.141   6.166
 8563SOL    HW226510   3.845   6.283   6.233
 8564SOL     OW26511   5.413   6.508   6.198
 8564SOL    HW126512   5.508   6.479   6.206
 8564SOL    HW226513   5.405   6.573   6.123
 8565SOL     OW26514   5.365   6.694   6.018
 8565SOL    HW126515   5.451   6.696   5.966
 8565SOL    HW226516   5.379   6.741   6.106
 8566SOL     OW26517   4.533   5.590   6.088
 8566SOL    HW126518   4.573   5.681   6.079
 8566SOL    HW226519   4.433   5.598   6.094
 8567SOL     OW26520   3.921   6.562   6.850
 8567SOL    HW126521   4.010   6.517   6.836
 8567SOL    HW226522   3.848   6.497   6.831
 8568SOL     OW26523   5.249   6.585   5.776
 8568SOL    HW126524   5.186   6.509   5.789
 8568SOL    HW226525   5.297   6.603   5.862
 8569SOL     OW26526   5.190   7.003   6.539
 8569SOL    HW126527   5.131   7.009   6.619
 8569SOL    HW226528   5.175   6.915   6.493
 8570SOL     OW26529   4.322   6.315   5.856
 8570SOL    HW126530   4.346   6.384   5.788
 8570SOL    HW226531   4.244   6.348   5.910
 8571SOL     OW26532   5.005   5.931   6.530
 8571SOL    HW126533   4.919   5.881   6.517
 8571SOL    HW226534   5.067   5.877   6.586
 8572SOL     OW26535   4.531   6.191   7.051
 8572SOL    HW126536   4.484   6.188   7.140
 8572SOL    HW226537   4.480   6.136   6.985
 8573SOL     OW26538   4.715   5.996   6.828
 8573SOL    HW126539   4.638   6.030   6.882
 8573SOL    HW226540   4.681   5.945   6.749
 8574SOL     OW26541   4.765   6.287   6.015
 8574SOL    HW126542   4.791   6.283   6.111
 8574SOL    HW226543   4.680   6.236   6.001
 8575SOL     OW26544   3.800   6.397   6.375
 8575SOL    HW126545   3.899   6.385   6.384
 8575SOL    HW226546   3.776   6.492   6.396
 8576SOL     OW26547   4.589   5.934   5.781
 8576SOL    HW126548   4.648   5.997   5.732
 8576SOL    HW226549   4.608   5.840   5.752
 8577SOL     OW26550   5.086   6.730   6.131
 8577SOL    HW126551   5.169   6.701   6.083
 8577SOL    HW226552   5.037   6.797   6.075
 8578SOL     OW26553   4.274   5.782   6.471
 8578SOL    HW126554   4.269   5.777   6.571
 8578SOL    HW226555   4.276   5.878   6.442
 8579SOL     OW26556   5.519   6.652   6.459
 8579SOL    HW126557   5.457   6.637   6.383
 8579SOL    HW226558   5.467   6.663   6.544
 8580SOL     OW26559   4.045   6.529   5.828
 8580SOL    HW126560   4.127   6.568   5.786
 8580SOL    HW226561   4.018   6.447   5.779
 8581SOL     OW26562   5.182   6.321   6.314
 8581SOL    HW126563   5.177   6.256   6.389
 8581SOL    HW226564   5.262   6.380   6.327
 8582SOL     OW26565   5.356   6.963   5.667
 8582SOL    HW126566   5.324   7.057   5.657
 8582SOL    HW226567   5.280   6.900   5.655
 8583SOL     OW26568   5.124   5.693   6.012
 8583SOL    HW126569   5.100   5.656   5.922
 8583SOL    HW226570   5.223   5.709   6.016
 8584SOL     OW26571   4.106   6.286   6.066
 8584SOL    HW126572   4.151   6.196   6.063
 8584SOL    HW226573   4.012   6.275   6.099
 8585SOL     OW26574   4.338   5.708   5.703
 8585SOL    HW126575   4.436   5.686   5.710
 8585SOL    HW226576   4.307   5.691   5.610
 8586SOL     OW26577   4.646   6.089   6.485
 8586SOL    HW126578   4.621   6.080   6.389
 8586SOL    HW226579   4.694   6.007   6.516
 8587SOL     OW26580   4.263   5.650   6.098
 8587SOL    HW126581   4.182   5.651   6.156
 8587SOL    HW226582   4.266   5.733   6.043
 8588SOL     OW26583   5.158   6.774   5.627
 8588SOL    HW126584   5.190   6.698   5.684
 8588SOL    HW226585   5.066   6.801   5.657
 8589SOL     OW26586   4.021   5.621   5.757
 8589SOL    HW126587   4.070   5.705   5.736
 8589SOL    HW226588   4.083   5.556   5.802
 8590SOL     OW26589   4.659   5.822   6.066
 8590SOL    HW126590   4.611   5.863   5.988
 8590SOL    HW226591   4.758   5.820   6.047
 8591SOL     OW26592   4.951   7.156   6.379
 8591SOL    HW126593   4.972   7.230   6.314
 8591SOL    HW226594   5.019   7.156   6.452
 8592SOL     OW26595   4.183   6.738   6.327
 8592SOL    HW126596   4.112   6.711   6.392
 8592SOL    HW226597   4.157   6.710   6.234
 8593SOL     OW26598   4.756   6.135   5.602
 8593SOL    HW126599   4.715   6.217   5.563
 8593SOL    HW226600   4.820   6.161   5.675
 8594SOL     OW26601   4.285   5.808   6.733
 8594SOL    HW126602   4.323   5.724   6.770
 8594SOL    HW226603   4.197   5.827   6.777
 8595SOL     OW26604   4.590   6.040   6.228
 8595SOL    HW126605   4.558   6.112   6.166
 8595SOL    HW226606   4.614   5.959   6.175
 8596SOL     OW26607   4.741   5.625   6.339
 8596SOL    HW126608   4.669   5.630   6.270
 8596SOL    HW226609   4.717   5.556   6.408
 8597SOL     OW26610   5.153   6.759   6.453
 8597SOL    HW126611   5.098   6.675   6.446
 8597SOL    HW226612   5.179   6.788   6.361
 8598SOL     OW26613   5.190   6.176   6.578
 8598SOL    HW126614   5.160   6.081   6.585
 8598SOL    HW226615   5.263   6.192   6.644
 8599SOL     OW26616   5.581   6.419   5.963
 8599SOL    HW126617   5.623   6.355   6.027
 8599SOL    HW226618   5.543   6.368   5.885
 8600SOL     OW26619   5.388   6.866   6.243
 8600SOL    HW126620   5.487   6.874   6.257
 8600SOL    HW226621   5.343   6.950   6.274
 8601SOL     OW26622   5.114   6.161   5.664
 8601SOL    HW126623   5.060   6.140   5.745
 8601SOL    HW226624   5.205   6.120   5.673
 8602SOL     OW26625   4.251   5.842   5.914
 8602SOL    HW126626   4.278   5.783   5.839
 8602SOL    HW226627   4.251   5.937   5.883
 8603SOL     OW26628   5.478   6.809   7.174
 8603SOL    HW126629   5.569   6.770   7.161
 8603SOL    HW226630   5.486   6.905   7.198
 8604SOL     OW26631   4.788   6.933   6.926
 8604SOL    HW126632   4.708   6.910   6.981
 8604SOL    HW226633   4.871   6.907   6.975
 8605SOL     OW26634   4.835   6.781   6.686
 8605SOL    HW126635   4.795   6.825   6.767
 8605SOL    HW226636   4.794   6.818   6.603
 8606SOL     OW26637   5.362   6.685   6.665
 8606SOL    HW126638   5.367   6.766   6.724
 8606SOL    HW226639   5.276   6.687   6.614
 8607SOL     OW26640   4.429   6.636   5.954
 8607SOL    HW126641   4.415   6.643   6.053
 8607SOL    HW226642   4.513   6.585   5.936
 8608SOL     OW26643   4.134   6.399   6.837
 8608SOL    HW126644   4.220   6.411   6.887
 8608SOL    HW226645   4.092   6.312   6.864
 8609SOL     OW26646   4.998   5.972   6.848
 8609SOL    HW126647   5.019   6.046   6.912
 8609SOL    HW226648   4.909   5.989   6.805
 8610SOL     OW26649   4.091   6.686   6.087
 8610SOL    HW126650   4.084   6.769   6.031
 8610SOL    HW226651   4.095   6.606   6.027
 8611SOL     OW26652   4.290   6.123   6.451
 8611SOL    HW126653   4.302   6.189   6.377
 8611SOL    HW226654   4.336   6.157   6.534
 8612SOL     OW26655   5.306   6.225   6.058
 8612SOL    HW126656   5.275   6.286   6.131
 8612SOL    HW226657   5.356   6.277   5.989
 8613SOL     OW26658   4.297   6.456   6.615
 8613SOL    HW126659   4.341   6.545   6.606
 8613SOL    HW226660   4.234   6.456   6.692
 8614SOL     OW26661   5.084   6.448   6.631
 8614SOL    HW126662   5.009   6.448   6.565
 8614SOL    HW226663   5.121   6.356   6.640
 8615SOL     OW26664   4.933   6.111   5.861
 8615SOL    HW126665   4.946   6.027   5.915
 8615SOL    HW226666   4.904   6.185   5.921
 8616SOL     OW26667   4.031   5.799   6.817
 8616SOL    HW126668   4.008   5.836   6.907
 8616SOL    HW226669   4.001   5.704   6.811
 8617SOL     OW26670   3.761   6.896   6.868
 8617SOL    HW126671   3.814   6.847   6.936
 8617SOL    HW226672   3.783   6.994   6.873
 8618SOL     OW26673   4.456   6.220   6.650
 8618SOL    HW126674   4.515   6.194   6.574
 8618SOL    HW226675   4.428   6.316   6.639
 8619SOL     OW26676   4.031   5.649   6.204
 8619SOL    HW126677   4.020   5.743   6.237
 8619SOL    HW226678   4.026   5.586   6.281
 8620SOL     OW26679   5.346   5.953   5.960
 8620SOL    HW126680   5.348   5.877   6.024
 8620SOL    HW226681   5.298   6.030   6.000
 8621SOL     OW26682   4.747   6.352   6.552
 8621SOL    HW126683   4.762   6.373   6.648
 8621SOL    HW226684   4.717   6.257   6.543
 8622SOL     OW26685   5.264   5.860   5.711
 8622SOL    HW126686   5.203   5.785   5.734
 8622SOL    HW226687   5.286   5.912   5.794
 8623SOL     OW26688   5.027   6.424   5.628
 8623SOL    HW126689   5.061   6.331   5.643
 8623SOL    HW226690   5.045   6.451   5.533
 8624SOL     OW26691   4.043   6.396   6.535
 8624SOL    HW126692   4.136   6.432   6.540
 8624SOL    HW226693   4.037   6.311   6.587
 8625SOL     OW26694   4.063   6.095   6.592
 8625SOL    HW126695   4.011   6.012   6.575
 8625SOL    HW226696   4.140   6.100   6.528
 8626SOL     OW26697   4.884   5.793   7.063
 8626SOL    HW126698   4.884   5.857   7.140
 8626SOL    HW226699   4.912   5.841   6.980
 8627SOL     OW26700   3.732   6.912   5.786
 8627SOL    HW126701   3.639   6.933   5.755
 8627SOL    HW226702   3.742   6.813   5.799
 8628SOL     OW26703   4.726   6.382   6.824
 8628SOL    HW126704   4.767   6.350   6.910
 8628SOL    HW226705   4.630   6.355   6.821
 8629SOL     OW26706   3.764   6.130   6.700
 8629SOL    HW126707   3.849   6.097   6.659
 8629SOL    HW226708   3.777   6.145   6.798
 8630SOL     OW26709   4.539   6.158   5.911
 8630SOL    HW126710   4.546   6.069   5.865
 8630SOL    HW226711   4.445   6.192   5.903
 8631SOL     OW26712   5.381   6.190   6.792
 8631SOL    HW126713   5.343   6.121   6.854
 8631SOL    HW226714   5.463   6.154   6.748
 8632SOL     OW26715   4.395   6.050   6.855
 8632SOL    HW126716   4.361   5.961   6.825
 8632SOL    HW226717   4.421   6.104   6.775
 8633SOL     OW26718   4.197   6.086   5.777
 8633SOL    HW126719   4.258   6.166   5.781
 8633SOL    HW226720   4.102   6.117   5.784
 8634SOL     OW26721   3.883   6.723   7.052
 8634SOL    HW126722   3.905   6.662   7.128
 8634SOL    HW226723   3.893   6.674   6.966
 8635SOL     OW26724   5.071   6.645   6.820
 8635SOL    HW126725   5.095   6.582   6.746
 8635SOL    HW226726   4.981   6.685   6.802
 8636SOL     OW26727   5.026   6.441   5.895
 8636SOL    HW126728   4.940   6.410   5.937
 8636SOL    HW226729   5.022   6.427   5.796
 8637SOL     OW26730   3.807   6.844   6.608
 8637SOL    HW126731   3.802   6.843   6.708
 8637SOL    HW226732   3.724   6.803   6.570
 8638SOL     OW26733   5.450   5.721   6.109
 8638SOL    HW126734   5.523   5.704   6.042
 8638SOL    HW226735   5.419   5.634   6.147
 8639SOL     OW26736   5.004   6.513   6.258
 8639SOL    HW126737   5.064   6.432   6.260
 8639SOL    HW226738   5.044   6.582   6.198
 8640SOL     OW26739   4.554   6.859   7.008
 8640SOL    HW126740   4.549   6.892   7.103
 8640SOL    HW226741   4.468   6.878   6.962
 8641SOL     OW26742   5.565   5.761   6.549
 8641SOL    HW126743   5.604   5.676   6.513
 8641SOL    HW226744   5.467   5.763   6.530
 8642SOL     OW26745   3.987   5.912   6.306
 8642SOL    HW126746   3.908   5.963   6.272
 8642SOL    HW226747   3.978   5.897   6.404
 8643SOL     OW26748   4.918   7.198   5.617
 8643SOL    HW126749   4.924   7.105   5.654
 8643SOL    HW226750   4.859   7.198   5.537
 8644SOL     OW26751   4.546   6.588   6.958
 8644SOL    HW126752   4.586   6.587   6.866
 8644SOL    HW226753   4.556   6.680   6.998
 8645SOL     OW26754   4.640   6.496   5.877
 8645SOL    HW126755   4.703   6.534   5.809
 8645SOL    HW226756   4.680   6.413   5.916
 8646SOL     OW26757   4.096   6.874   7.076
 8646SOL    HW126758   4.083   6.967   7.042
 8646SOL    HW226759   4.012   6.822   7.063
 8647SOL     OW26760   5.338   6.878   6.875
 8647SOL    HW126761   5.398   6.881   6.955
 8647SOL    HW226762   5.263   6.942   6.888
 8648SOL     OW26763   4.763   6.684   6.282
 8648SOL    HW126764   4.693   6.637   6.336
 8648SOL    HW226765   4.822   6.616   6.239
 8649SOL     OW26766   4.738   5.822   6.557
 8649SOL    HW126767   4.730   5.786   6.464
 8649SOL    HW226768   4.736   5.746   6.622
 8650SOL     OW26769   5.433   5.971   6.967
 8650SOL    HW126770   5.506   6.040   6.971
 8650SOL    HW226771   5.461   5.896   6.908
 8651SOL     OW26772   4.396   5.789   7.075
 8651SOL    HW126773   4.486   5.773   7.035
 8651SOL    HW226774   4.404   5.794   7.174
 8652SOL     OW26775   3.799   5.931   5.619
 8652SOL    HW126776   3.707   5.903   5.590
 8652SOL    HW226777   3.830   6.008   5.563
 8653SOL     OW26778   3.796   5.752   5.904
 8653SOL    HW126779   3.779   5.835   5.850
 8653SOL    HW226780   3.886   5.715   5.882
 8654SOL     OW26781   5.174   6.806   7.219
 8654SOL    HW126782   5.165   6.796   7.318
 8654SOL    HW226783   5.270   6.799   7.193
 8655SOL     OW26784   5.398   6.469   6.840
 8655SOL    HW126785   5.371   6.380   6.803
 8655SOL    HW226786   5.399   6.537   6.767
 8656SOL     OW26787   4.949   5.911   6.035
 8656SOL    HW126788   5.014   5.837   6.024
 8656SOL    HW226789   4.969   5.961   6.119
 8657SOL     OW26790   4.318   6.331   6.238
 8657SOL    HW126791   4.368   6.416   6.219
 8657SOL    HW226792   4.230   6.333   6.190
 8658SOL     OW26793   5.454   6.520   7.103
 8658SOL    HW126794   5.492   6.611   7.118
 8658SOL    HW226795   5.446   6.503   7.004
 8659SOL     OW26796   4.583   6.542   6.447
 8659SOL    HW126797   4.637   6.473   6.495
 8659SOL    HW226798   4.551   6.611   6.513
 8660SOL     OW26799   4.807   6.570   5.673
 8660SOL    HW126800   4.784   6.623   5.591
 8660SOL    HW226801   4.888   6.514   5.654
 8661SOL     OW26802   3.803   6.826   6.239
 8661SOL    HW126803   3.802   6.779   6.327
 8661SOL    HW226804   3.885   6.798   6.188
 8662SOL     OW26805   5.548   5.778   6.813
 8662SOL    HW126806   5.544   5.688   6.857
 8662SOL    HW226807   5.551   5.767   6.714
 8663SOL     OW26808   4.152   6.010   6.106
 8663SOL    HW126809   4.182   5.938   6.044
 8663SOL    HW226810   4.113   5.970   6.189
 8664SOL     OW26811   5.429   7.073   6.690
 8664SOL    HW126812   5.336   7.048   6.663
 8664SOL    HW226813   5.455   7.023   6.772
 8665SOL     OW26814   4.041   6.133   6.866
 8665SOL    HW126815   4.079   6.074   6.938
 8665SOL    HW226816   4.081   6.107   6.778
 8666SOL     OW26817   5.148   5.800   6.698
 8666SOL    HW126818   5.200   5.735   6.753
 8666SOL    HW226819   5.099   5.863   6.759
 8667SOL     OW26820   4.725   5.620   6.740
 8667SOL    HW126821   4.662   5.548   6.709
 8667SOL    HW226822   4.818   5.584   6.740
 8668SOL     OW26823   4.494   6.916   5.887
 8668SOL    HW126824   4.448   6.829   5.904
 8668SOL    HW226825   4.585   6.913   5.928
 8669SOL     OW26826   5.076   5.638   5.754
 8669SOL    HW126827   5.111   5.597   5.670
 8669SOL    HW226828   4.986   5.600   5.774
 8670SOL     OW26829   5.024   6.039   6.277
 8670SOL    HW126830   4.965   6.119   6.281
 8670SOL    HW226831   5.039   6.004   6.370
 8671SOL     OW26832   5.317   5.807   6.468
 8671SOL    HW126833   5.233   5.806   6.522
 8671SOL    HW226834   5.319   5.890   6.412
 8672SOL     OW26835   3.763   6.663   5.886
 8672SOL    HW126836   3.862   6.652   5.877
 8672SOL    HW226837   3.723   6.577   5.918
 8673SOL     OW26838   5.816   0.628   0.113
 8673SOL    HW126839   5.723   0.626   0.150
 8673SOL    HW226840   5.817   0.589   0.021
 8674SOL     OW26841   5.811   0.275   0.996
 8674SOL    HW126842   5.846   0.258   1.088
 8674SOL    HW226843   5.723   0.230   0.984
 8675SOL     OW26844   5.605   0.368   0.647
 8675SOL    HW126845   5.523   0.411   0.686
 8675SOL    HW226846   5.577   0.295   0.584
 8676SOL     OW26847   6.155   1.275   1.165
 8676SOL    HW126848   6.062   1.268   1.128
 8676SOL    HW226849   6.166   1.364   1.209
 8677SOL     OW26850   7.141   1.511   0.703
 8677SOL    HW126851   7.084   1.495   0.784
 8677SOL    HW226852   7.082   1.521   0.623
 8678SOL     OW26853   6.721   0.703   0.717
 8678SOL    HW126854   6.778   0.781   0.692
 8678SOL    HW226855   6.661   0.729   0.793
 8679SOL     OW26856   6.354   1.144   1.023
 8679SOL    HW126857   6.276   1.161   1.083
 8679SOL    HW226858   6.388   1.231   0.987
 8680SOL     OW26859   6.436   0.798   1.823
 8680SOL    HW126860   6.432   0.874   1.888
 8680SOL    HW226861   6.458   0.834   1.732
 8681SOL     OW26862   6.271   1.012   0.665
 8681SOL    HW126863   6.340   0.996   0.735
 8681SOL    HW226864   6.198   1.069   0.703
 8682SOL     OW26865   6.272   1.161   1.803
 8682SOL    HW126866   6.332   1.240   1.817
 8682SOL    HW226867   6.186   1.192   1.762
 8683SOL     OW26868   5.921   1.435   1.061
 8683SOL    HW126869   5.843   1.404   1.008
 8683SOL    HW226870   5.979   1.493   1.004
 8684SOL     OW26871   6.024   0.392   1.499
 8684SOL    HW126872   6.106   0.336   1.508
 8684SOL    HW226873   5.943   0.334   1.503
 8685SOL     OW26874   5.817   1.713   0.483
 8685SOL    HW126875   5.851   1.790   0.537
 8685SOL    HW226876   5.861   1.713   0.393
 8686SOL     OW26877   6.713   1.341   1.690
 8686SOL    HW126878   6.760   1.341   1.778
 8686SOL    HW226879   6.665   1.254   1.679
 8687SOL     OW26880   5.816   1.434   0.538
 8687SOL    HW126881   5.790   1.530   0.538
 8687SOL    HW226882   5.745   1.380   0.583
 8688SOL     OW26883   5.826   1.091   0.886
 8688SOL    HW126884   5.840   1.007   0.938
 8688SOL    HW226885   5.771   1.155   0.941
 8689SOL     OW26886   6.206   1.786   1.439
 8689SOL    HW126887   6.114   1.769   1.474
 8689SOL    HW226888   6.234   1.878   1.465
 8690SOL     OW26889   6.192   0.964   0.123
 8690SOL    HW126890   6.199   1.048   0.069
 8690SOL    HW226891   6.238   0.977   0.211
 8691SOL     OW26892   5.708   0.643   0.563
 8691SOL    HW126893   5.663   0.555   0.580
 8691SOL    HW226894   5.707   0.697   0.647
 8692SOL     OW26895   5.613   1.596   0.117
 8692SOL    HW126896   5.594   1.500   0.138
 8692SOL    HW226897   5.580   1.654   0.192
 8693SOL     OW26898   5.699   0.737   1.597
 8693SOL    HW126899   5.787   0.724   1.642
 8693SOL    HW226900   5.686   0.834   1.575
 8694SOL     OW26901   6.199   1.365   0.726
 8694SOL    HW126902   6.150   1.278   0.735
 8694SOL    HW226903   6.176   1.408   0.639
 8695SOL     OW26904   6.879   1.228   1.423
 8695SOL    HW126905   6.916   1.155   1.365
 8695SOL    HW226906   6.931   1.233   1.508
 8696SOL     OW26907   6.395   0.004   0.502
 8696SOL    HW126908   6.435   0.095   0.493
 8696SOL    HW226909   6.295   0.012   0.508
 8697SOL     OW26910   5.783   0.976   1.264
 8697SOL    HW126911   5.872   0.931   1.250
 8697SOL    HW226912   5.710   0.911   1.245
 8698SOL     OW26913   6.773   1.792   1.616
 8698SOL    HW126914   6.797   1.852   1.540
 8698SOL    HW226915   6.780   1.697   1.586
 8699SOL     OW26916   5.903   0.251   1.801
 8699SOL    HW126917   5.974   0.322   1.807
 8699SOL    HW226918   5.815   0.290   1.829
 8700SOL     OW26919   6.184   0.729   0.270
 8700SOL    HW126920   6.208   0.798   0.202
 8700SOL    HW226921   6.106   0.762   0.324
 8701SOL     OW26922   6.867   0.345   0.944
 8701SOL    HW126923   6.781   0.295   0.931
 8701SOL    HW226924   6.929   0.291   1.000
 8702SOL     OW26925   6.393   0.605   1.465
 8702SOL    HW126926   6.346   0.602   1.554
 8702SOL    HW226927   6.342   0.550   1.399
 8703SOL     OW26928   6.980   0.469   1.674
 8703SOL    HW126929   6.960   0.512   1.762
 8703SOL    HW226930   7.058   0.407   1.683
 8704SOL     OW26931   6.559   0.890   1.572
 8704SOL    HW126932   6.605   0.806   1.543
 8704SOL    HW226933   6.503   0.924   1.497
 8705SOL     OW26934   6.577   0.410   1.242
 8705SOL    HW126935   6.500   0.444   1.296
 8705SOL    HW226936   6.543   0.359   1.163
 8706SOL     OW26937   6.627   0.701   0.429
 8706SOL    HW126938   6.653   0.697   0.525
 8706SOL    HW226939   6.542   0.650   0.415
 8707SOL     OW26940   5.662   0.811   0.789
 8707SOL    HW126941   5.761   0.799   0.798
 8707SOL    HW226942   5.638   0.906   0.810
 8708SOL     OW26943   5.716   1.821   1.571
 8708SOL    HW126944   5.706   1.806   1.670
 8708SOL    HW226945   5.630   1.857   1.535
 8709SOL     OW26946   6.451   0.348   0.195
 8709SOL    HW126947   6.510   0.411   0.146
 8709SOL    HW226948   6.470   0.254   0.166
 8710SOL     OW26949   6.948   1.144   0.545
 8710SOL    HW126950   7.031   1.115   0.497
 8710SOL    HW226951   6.899   1.211   0.489
 8711SOL     OW26952   6.136   0.196   0.885
 8711SOL    HW126953   6.131   0.191   0.985
 8711SOL    HW226954   6.138   0.292   0.856
 8712SOL     OW26955   6.594   1.456   0.477
 8712SOL    HW126956   6.548   1.528   0.425
 8712SOL    HW226957   6.590   1.476   0.575
 8713SOL     OW26958   5.937   1.801   0.853
 8713SOL    HW126959   5.987   1.715   0.859
 8713SOL    HW226960   6.002   1.878   0.850
 8714SOL     OW26961   6.813   1.550   1.506
 8714SOL    HW126962   6.819   1.473   1.570
 8714SOL    HW226963   6.761   1.524   1.426
 8715SOL     OW26964   5.907   0.943   0.242
 8715SOL    HW126965   5.989   0.982   0.200
 8715SOL    HW226966   5.880   0.861   0.193
 8716SOL     OW26967   6.047   1.266   1.727
 8716SOL    HW126968   5.997   1.267   1.641
 8716SOL    HW226969   5.984   1.248   1.803
 8717SOL     OW26970   6.697   1.776   0.237
 8717SOL    HW126971   6.637   1.714   0.287
 8717SOL    HW226972   6.728   1.732   0.152
 8718SOL     OW26973   5.788   0.285   1.498
 8718SOL    HW126974   5.708   0.345   1.485
 8718SOL    HW226975   5.778   0.236   1.584
 8719SOL     OW26976   7.218   1.377   0.081
 8719SOL    HW126977   7.186   1.471   0.071
 8719SOL    HW226978   7.142   1.314   0.069
 8720SOL     OW26979   6.050   1.743   0.323
 8720SOL    HW126980   6.083   1.782   0.409
 8720SOL    HW226981   6.126   1.736   0.258
 8721SOL     OW26982   5.835   1.785   1.241
 8721SOL    HW126983   5.892   1.720   1.291
 8721SOL    HW226984   5.819   1.752   1.148
 8722SOL     OW26985   6.526   1.698   0.904
 8722SOL    HW126986   6.606   1.641   0.925
 8722SOL    HW226987   6.477   1.658   0.827
 8723SOL     OW26988   5.968   0.700   0.480
 8723SOL    HW126989   6.013   0.610   0.477
 8723SOL    HW226990   5.874   0.689   0.513
 8724SOL     OW26991   6.200   0.122   0.117
 8724SOL    HW126992   6.298   0.100   0.124
 8724SOL    HW226993   6.169   0.105   0.024
 8725SOL     OW26994   6.367   0.264   1.749
 8725SOL    HW126995   6.434   0.203   1.792
 8725SOL    HW226996   6.294   0.283   1.814
 8726SOL     OW26997   6.474   1.514   1.195
 8726SOL    HW126998   6.451   1.489   1.101
 8726SOL    HW226999   6.535   1.445   1.234
 8727SOL     OW27000   6.389   1.402   0.924
 8727SOL    HW127001   6.479   1.416   0.882
 8727SOL    HW227002   6.318   1.404   0.853
 8728SOL     OW27003   6.508   0.503   0.899
 8728SOL    HW127004   6.483   0.494   0.803
 8728SOL    HW227005   6.556   0.421   0.930
 8729SOL     OW27006   6.125   0.064   0.512
 8729SOL    HW127007   6.044   0.065   0.570
 8729SOL    HW227008   6.128   0.147   0.457
 8730SOL     OW27009   5.883   0.035   0.171
 8730SOL    HW127010   5.932   0.119   0.150
 8730SOL    HW227011   5.945  -0.030   0.216
 8731SOL     OW27012   6.521   0.236   0.480
 8731SOL    HW127013   6.473   0.277   0.402
 8731SOL    HW227014   6.620   0.234   0.461
 8732SOL     OW27015   6.662   0.683   1.464
 8732SOL    HW127016   6.582   0.622   1.467
 8732SOL    HW227017   6.743   0.630   1.440
 8733SOL     OW27018   6.813   1.570   0.793
 8733SOL    HW127019   6.834   1.644   0.728
 8733SOL    HW227020   6.881   1.570   0.866
 8734SOL     OW27021   6.045   1.152   0.741
 8734SOL    HW127022   5.974   1.125   0.806
 8734SOL    HW227023   6.019   1.124   0.648
 8735SOL     OW27024   6.857   1.797   0.591
 8735SOL    HW127025   6.901   1.861   0.527
 8735SOL    HW227026   6.807   1.849   0.661
 8736SOL     OW27027   6.618   0.549   0.016
 8736SOL    HW127028   6.577   0.631  -0.023
 8736SOL    HW227029   6.682   0.575   0.089
 8737SOL     OW27030   5.664   0.556   1.386
 8737SOL    HW127031   5.756   0.555   1.345
 8737SOL    HW227032   5.658   0.630   1.453
 8738SOL     OW27033   6.147   0.222   1.147
 8738SOL    HW127034   6.185   0.138   1.184
 8738SOL    HW227035   6.059   0.241   1.191
 8739SOL     OW27036   6.452   0.454   0.642
 8739SOL    HW127037   6.420   0.526   0.580
 8739SOL    HW227038   6.476   0.373   0.589
 8740SOL     OW27039   6.603   0.039   0.753
 8740SOL    HW127040   6.531   0.044   0.684
 8740SOL    HW227041   6.579  -0.030   0.822
 8741SOL     OW27042   6.074   1.385   0.174
 8741SOL    HW127043   5.987   1.370   0.221
 8741SOL    HW227044   6.057   1.411   0.079
 8742SOL     OW27045   6.113   0.256   0.328
 8742SOL    HW127046   6.140   0.197   0.253
 8742SOL    HW227047   6.113   0.351   0.297
 8743SOL     OW27048   6.650   1.347   1.340
 8743SOL    HW127049   6.570   1.324   1.395
 8743SOL    HW227050   6.733   1.321   1.389
 8744SOL     OW27051   6.697   1.195   1.100
 8744SOL    HW127052   6.657   1.239   1.181
 8744SOL    HW227053   6.656   1.232   1.017
 8745SOL     OW27054   6.501   0.089   1.402
 8745SOL    HW127055   6.526   0.069   1.307
 8745SOL    HW227056   6.573   0.145   1.444
 8746SOL     OW27057   6.566   1.116   1.719
 8746SOL    HW127058   6.467   1.122   1.729
 8746SOL    HW227059   6.589   1.036   1.663
 8747SOL     OW27060   6.291   1.050   0.368
 8747SOL    HW127061   6.277   1.057   0.467
 8747SOL    HW227062   6.375   0.999   0.350
 8748SOL     OW27063   5.996   0.813   1.251
 8748SOL    HW127064   6.082   0.825   1.301
 8748SOL    HW227065   5.954   0.726   1.278
 8749SOL     OW27066   6.860   0.386   1.262
 8749SOL    HW127067   6.881   0.460   1.326
 8749SOL    HW227068   6.771   0.403   1.219
 8750SOL     OW27069   5.650   1.564   1.331
 8750SOL    HW127070   5.604   1.646   1.297
 8750SOL    HW227071   5.748   1.583   1.340
 8751SOL     OW27072   5.953   1.100   0.501
 8751SOL    HW127073   5.946   1.183   0.445
 8751SOL    HW227074   5.957   1.020   0.441
 8752SOL     OW27075   6.152   0.537   0.865
 8752SOL    HW127076   6.164   0.603   0.791
 8752SOL    HW227077   6.198   0.571   0.948
 8753SOL     OW27078   6.838   1.348   0.388
 8753SOL    HW127079   6.888   1.425   0.428
 8753SOL    HW227080   6.743   1.350   0.420
 8754SOL     OW27081   6.858   1.445   1.142
 8754SOL    HW127082   6.905   1.458   1.229
 8754SOL    HW227083   6.792   1.371   1.151
 8755SOL     OW27084   5.940   1.510   1.329
 8755SOL    HW127085   5.919   1.466   1.242
 8755SOL    HW227086   6.037   1.536   1.332
 8756SOL     OW27087   5.988   0.751   1.598
 8756SOL    HW127088   6.056   0.806   1.551
 8756SOL    HW227089   6.028   0.663   1.625
 8757SOL     OW27090   6.599   0.105   1.770
 8757SOL    HW127091   6.605   0.190   1.718
 8757SOL    HW227092   6.631   0.029   1.713
 8758SOL     OW27093   6.090   0.050   1.740
 8758SOL    HW127094   6.048  -0.007   1.670
 8758SOL    HW227095   6.024   0.119   1.772
 8759SOL     OW27096   6.159   0.870   1.029
 8759SOL    HW127097   6.203   0.959   1.020
 8759SOL    HW227098   6.096   0.870   1.106
 8760SOL     OW27099   6.946   0.862   1.045
 8760SOL    HW127100   6.871   0.862   0.979
 8760SOL    HW227101   6.983   0.770   1.054
 8761SOL     OW27102   6.795   0.525   0.275
 8761SOL    HW127103   6.808   0.441   0.329
 8761SOL    HW227104   6.766   0.599   0.335
 8762SOL     OW27105   5.893   0.213   1.231
 8762SOL    HW127106   5.870   0.250   1.321
 8762SOL    HW227107   5.863   0.118   1.225
 8763SOL     OW27108   5.623   1.310   1.282
 8763SOL    HW127109   5.676   1.261   1.350
 8763SOL    HW227110   5.645   1.408   1.287
 8764SOL     OW27111   6.318   0.634   1.064
 8764SOL    HW127112   6.377   0.608   0.988
 8764SOL    HW227113   6.290   0.730   1.053
 8765SOL     OW27114   5.893   0.063   0.618
 8765SOL    HW127115   5.882   0.157   0.651
 8765SOL    HW227116   5.888   0.000   0.695
 8766SOL     OW27117   7.208   0.367   0.374
 8766SOL    HW127118   7.210   0.291   0.438
 8766SOL    HW227119   7.160   0.444   0.414
 8767SOL     OW27120   6.609   0.766   0.966
 8767SOL    HW127121   6.624   0.787   1.062
 8767SOL    HW227122   6.579   0.671   0.957
 8768SOL     OW27123   6.566   1.573   1.700
 8768SOL    HW127124   6.546   1.617   1.612
 8768SOL    HW227125   6.605   1.482   1.684
 8769SOL     OW27126   5.936   0.898   1.804
 8769SOL    HW127127   6.012   0.942   1.852
 8769SOL    HW227128   5.971   0.851   1.722
 8770SOL     OW27129   6.889   0.838   0.042
 8770SOL    HW127130   6.923   0.745   0.057
 8770SOL    HW227131   6.907   0.865  -0.053
 8771SOL     OW27132   6.654   1.333   0.849
 8771SOL    HW127133   6.661   1.249   0.794
 8771SOL    HW227134   6.716   1.402   0.813
 8772SOL     OW27135   5.905   0.810   0.949
 8772SOL    HW127136   5.998   0.846   0.954
 8772SOL    HW227137   5.899   0.725   1.001
 8773SOL     OW27138   5.925   0.509   1.006
 8773SOL    HW127139   5.873   0.426   0.989
 8773SOL    HW227140   6.002   0.514   0.942
 8774SOL     OW27141   6.724   0.380   1.678
 8774SOL    HW127142   6.679   0.443   1.742
 8774SOL    HW227143   6.817   0.411   1.661
 8775SOL     OW27144   6.746   0.207   1.477
 8775SOL    HW127145   6.746   0.271   1.554
 8775SOL    HW227146   6.774   0.255   1.394
 8776SOL     OW27147   5.674   1.801   0.927
 8776SOL    HW127148   5.632   1.715   0.900
 8776SOL    HW227149   5.768   1.804   0.893
 8777SOL     OW27150   6.090   1.568   0.910
 8777SOL    HW127151   6.156   1.642   0.919
 8777SOL    HW227152   6.134   1.489   0.868
 8778SOL     OW27153   6.588   0.796   1.238
 8778SOL    HW127154   6.629   0.764   1.324
 8778SOL    HW227155   6.492   0.769   1.235
 8779SOL     OW27156   5.626   0.544   1.114
 8779SOL    HW127157   5.711   0.511   1.073
 8779SOL    HW227158   5.639   0.559   1.212
 8780SOL     OW27159   5.775   0.520   1.722
 8780SOL    HW127160   5.834   0.480   1.652
 8780SOL    HW227161   5.717   0.591   1.681
 8781SOL     OW27162   6.401   0.572   0.325
 8781SOL    HW127163   6.408   0.483   0.279
 8781SOL    HW227164   6.307   0.606   0.317
 8782SOL     OW27165   5.838   1.564   1.744
 8782SOL    HW127166   5.808   1.621   1.820
 8782SOL    HW227167   5.831   1.467   1.770
 8783SOL     OW27168   6.257   0.464   1.269
 8783SOL    HW127169   6.223   0.375   1.239
 8783SOL    HW227170   6.283   0.518   1.189
 8784SOL     OW27171   6.516   1.678   1.465
 8784SOL    HW127172   6.492   1.660   1.370
 8784SOL    HW227173   6.546   1.772   1.475
 8785SOL     OW27174   6.059   0.500   0.191
 8785SOL    HW127175   6.120   0.580   0.195
 8785SOL    HW227176   5.964   0.531   0.198
 8786SOL     OW27177   5.745   1.137   1.466
 8786SOL    HW127178   5.767   1.076   1.542
 8786SOL    HW227179   5.755   1.088   1.380
 8787SOL     OW27180   6.933   1.059   1.234
 8787SOL    HW127181   6.957   0.996   1.160
 8787SOL    HW227182   6.843   1.099   1.216
 8788SOL     OW27183   6.888   0.855   0.309
 8788SOL    HW127184   6.802   0.824   0.351
 8788SOL    HW227185   6.884   0.841   0.210
 8789SOL     OW27186   6.838   1.731   1.128
 8789SOL    HW127187   6.922   1.736   1.074
 8789SOL    HW227188   6.815   1.635   1.146
 8790SOL     OW27189   5.669   1.258   1.022
 8790SOL    HW127190   5.664   1.257   1.122
 8790SOL    HW227191   5.586   1.217   0.984
 8791SOL     OW27192   6.274   1.662   1.716
 8791SOL    HW127193   6.218   1.743   1.725
 8791SOL    HW227194   6.326   1.666   1.630
 8792SOL     OW27195   6.489   0.086   0.133
 8792SOL    HW127196   6.540   0.087   0.047
 8792SOL    HW227197   6.545   0.044   0.204
 8793SOL     OW27198   6.974   1.573   0.477
 8793SOL    HW127199   7.041   1.585   0.403
 8793SOL    HW227200   6.934   1.662   0.500
 8794SOL     OW27201   5.716   1.794   1.851
 8794SOL    HW127202   5.675   1.720   1.904
 8794SOL    HW227203   5.780   1.845   1.909
 8795SOL     OW27204   6.866   0.927   0.672
 8795SOL    HW127205   6.926   0.846   0.674
 8795SOL    HW227206   6.906   0.996   0.612
 8796SOL     OW27207   6.416   1.273   1.422
 8796SOL    HW127208   6.411   1.306   1.517
 8796SOL    HW227209   6.330   1.292   1.376
 8797SOL     OW27210   6.258   1.616   0.154
 8797SOL    HW127211   6.267   1.626   0.055
 8797SOL    HW227212   6.218   1.527   0.175
 8798SOL     OW27213   5.849   0.326   0.720
 8798SOL    HW127214   5.770   0.377   0.686
 8798SOL    HW227215   5.840   0.311   0.818
 8799SOL     OW27216   6.780   1.612   0.031
 8799SOL    HW127217   6.786   1.519   0.068
 8799SOL    HW227218   6.721   1.612  -0.049
 8800SOL     OW27219   6.408   1.002   1.372
 8800SOL    HW127220   6.448   1.001   1.280
 8800SOL    HW227221   6.418   1.094   1.412
 8801SOL     OW27222   6.502   0.910   0.291
 8801SOL    HW127223   6.565   0.948   0.223
 8801SOL    HW227224   6.542   0.827   0.330
 8802SOL     OW27225   5.958   1.288   1.490
 8802SOL    HW127226   5.945   1.381   1.456
 8802SOL    HW227227   5.874   1.236   1.477
 8803SOL     OW27228   6.625   1.098   0.696
 8803SOL    HW127229   6.555   1.051   0.750
 8803SOL    HW227230   6.684   1.030   0.653
 8804SOL     OW27231   6.600   0.236   0.971
 8804SOL    HW127232   6.592   0.200   0.878
 8804SOL    HW227233   6.598   0.160   1.036
 8805SOL     OW27234   6.176   1.487   0.491
 8805SOL    HW127235   6.218   1.429   0.421
 8805SOL    HW227236   6.132   1.566   0.447
 8806SOL     OW27237   5.841   1.348   0.290
 8806SOL    HW127238   5.745   1.349   0.263
 8806SOL    HW227239   5.853   1.401   0.374
 8807SOL     OW27240   5.691   1.013   1.726
 8807SOL    HW127241   5.614   0.980   1.780
 8807SOL    HW227242   5.776   0.983   1.768
 8808SOL     OW27243   6.258   0.203   1.489
 8808SOL    HW127244   6.348   0.187   1.449
 8808SOL    HW227245   6.266   0.208   1.588
 8809SOL     OW27246   5.661   0.345   0.033
 8809SOL    HW127247   5.569   0.317   0.004
 8809SOL    HW227248   5.692   0.422  -0.023
 8810SOL     OW27249   5.658   0.166   0.318
 8810SOL    HW127250   5.641   0.249   0.264
 8810SOL    HW227251   5.748   0.129   0.296
 8811SOL     OW27252   6.199   0.842   1.431
 8811SOL    HW127253   6.255   0.923   1.414
 8811SOL    HW227254   6.258   0.762   1.434
 8812SOL     OW27255   6.302   0.565   1.708
 8812SOL    HW127256   6.321   0.630   1.782
 8812SOL    HW227257   6.362   0.485   1.717
 8813SOL     OW27258   7.036   1.220   1.633
 8813SOL    HW127259   7.027   1.210   1.732
 8813SOL    HW227260   7.132   1.213   1.607
 8814SOL     OW27261   5.976   1.741   1.560
 8814SOL    HW127262   5.885   1.782   1.558
 8814SOL    HW227263   5.969   1.647   1.592
 8815SOL     OW27264   6.811   0.325   0.449
 8815SOL    HW127265   6.876   0.251   0.438
 8815SOL    HW227266   6.831   0.375   0.533
 8816SOL     OW27267   6.180   0.745   0.652
 8816SOL    HW127268   6.230   0.830   0.633
 8816SOL    HW227269   6.092   0.747   0.604
 8817SOL     OW27270   6.445   1.374   0.016
 8817SOL    HW127271   6.399   1.389   0.104
 8817SOL    HW227272   6.489   1.459  -0.014
 8818SOL     OW27273   6.247   1.790   0.953
 8818SOL    HW127274   6.201   1.878   0.940
 8818SOL    HW227275   6.346   1.802   0.946
 8819SOL     OW27276   6.445   0.956   0.861
 8819SOL    HW127277   6.499   0.887   0.909
 8819SOL    HW227278   6.413   1.025   0.927
 8820SOL     OW27279   6.669   0.984   0.087
 8820SOL    HW127280   6.646   1.037   0.005
 8820SOL    HW227281   6.750   0.928   0.068
 8821SOL     OW27282   5.807   1.314   1.844
 8821SOL    HW127283   5.742   1.241   1.823
 8821SOL    HW227284   5.811   1.328   1.942
 8822SOL     OW27285   5.665   1.240   0.653
 8822SOL    HW127286   5.664   1.193   0.741
 8822SOL    HW227287   5.747   1.212   0.602
 8823SOL     OW27288   6.258   1.391   1.624
 8823SOL    HW127289   6.180   1.341   1.662
 8823SOL    HW227290   6.255   1.486   1.655
 8824SOL     OW27291   6.014   0.424   0.520
 8824SOL    HW127292   6.044   0.352   0.458
 8824SOL    HW227293   5.975   0.384   0.603
 8825SOL     OW27294   5.903   0.547   1.280
 8825SOL    HW127295   5.941   0.488   1.352
 8825SOL    HW227296   5.943   0.521   1.192
 8826SOL     OW27297   6.398   1.586   0.687
 8826SOL    HW127298   6.430   1.596   0.593
 8826SOL    HW227299   6.319   1.524   0.689
 8827SOL     OW27300   7.010   0.214   1.112
 8827SOL    HW127301   7.062   0.149   1.167
 8827SOL    HW227302   6.961   0.277   1.173
 8828SOL     OW27303   6.587   0.034   1.154
 8828SOL    HW127304   6.524  -0.038   1.123
 8828SOL    HW227305   6.680  -0.002   1.154
 8829SOL     OW27306   6.356   1.330   0.301
 8829SOL    HW127307   6.310   1.243   0.318
 8829SOL    HW227308   6.447   1.327   0.342
 8830SOL     OW27309   6.204   1.567   1.284
 8830SOL    HW127310   6.199   1.649   1.341
 8830SOL    HW227311   6.293   1.564   1.239
 8831SOL     OW27312   5.625   1.077   0.300
 8831SOL    HW127313   5.724   1.066   0.291
 8831SOL    HW227314   5.585   0.991   0.332
 8832SOL     OW27315   6.461   1.646   0.337
 8832SOL    HW127316   6.384   1.611   0.283
 8832SOL    HW227317   6.429   1.717   0.399
 8833SOL     OW27318   5.816   0.628   1.975
 8833SOL    HW127319   5.723   0.626   2.012
 8833SOL    HW227320   5.817   0.589   1.883
 8834SOL     OW27321   5.811   0.275   2.858
 8834SOL    HW127322   5.846   0.258   2.950
 8834SOL    HW227323   5.723   0.230   2.846
 8835SOL     OW27324   5.605   0.368   2.509
 8835SOL    HW127325   5.523   0.411   2.548
 8835SOL    HW227326   5.577   0.295   2.446
 8836SOL     OW27327   6.155   1.275   3.027
 8836SOL    HW127328   6.062   1.268   2.990
 8836SOL    HW227329   6.166   1.364   3.071
 8837SOL     OW27330   7.141   1.511   2.565
 8837SOL    HW127331   7.084   1.495   2.646
 8837SOL    HW227332   7.082   1.521   2.485
 8838SOL     OW27333   6.721   0.703   2.579
 8838SOL    HW127334   6.778   0.781   2.554
 8838SOL    HW227335   6.661   0.729   2.655
 8839SOL     OW27336   6.354   1.144   2.885
 8839SOL    HW127337   6.276   1.161   2.945
 8839SOL    HW227338   6.388   1.231   2.849
 8840SOL     OW27339   6.436   0.798   3.685
 8840SOL    HW127340   6.432   0.874   3.750
 8840SOL    HW227341   6.458   0.834   3.594
 8841SOL     OW27342   6.271   1.012   2.527
 8841SOL    HW127343   6.340   0.996   2.597
 8841SOL    HW227344   6.198   1.069   2.565
 8842SOL     OW27345   6.272   1.161   3.665
 8842SOL    HW127346   6.332   1.240   3.679
 8842SOL    HW227347   6.186   1.192   3.624
 8843SOL     OW27348   5.921   1.435   2.923
 8843SOL    HW127349   5.843   1.404   2.870
 8843SOL    HW227350   5.979   1.493   2.866
 8844SOL     OW27351   6.024   0.392   3.361
 8844SOL    HW127352   6.106   0.336   3.370
 8844SOL    HW227353   5.943   0.334   3.365
 8845SOL     OW27354   5.817   1.713   2.345
 8845SOL    HW127355   5.851   1.790   2.399
 8845SOL    HW227356   5.861   1.713   2.255
 8846SOL     OW27357   6.713   1.341   3.552
 8846SOL    HW127358   6.760   1.341   3.640
 8846SOL    HW227359   6.665   1.254   3.541
 8847SOL     OW27360   5.816   1.434   2.400
 8847SOL    HW127361   5.790   1.530   2.400
 8847SOL    HW227362   5.745   1.380   2.445
 8848SOL     OW27363   5.826   1.091   2.748
 8848SOL    HW127364   5.840   1.007   2.800
 8848SOL    HW227365   5.771   1.155   2.803
 8849SOL     OW27366   6.206   1.786   3.301
 8849SOL    HW127367   6.114   1.769   3.336
 8849SOL    HW227368   6.234   1.878   3.327
 8850SOL     OW27369   6.192   0.964   1.985
 8850SOL    HW127370   6.199   1.048   1.931
 8850SOL    HW227371   6.238   0.977   2.073
 8851SOL     OW27372   5.708   0.643   2.425
 8851SOL    HW127373   5.663   0.555   2.442
 8851SOL    HW227374   5.707   0.697   2.509
 8852SOL     OW27375   5.613   1.596   1.979
 8852SOL    HW127376   5.594   1.500   2.000
 8852SOL    HW227377   5.580   1.654   2.054
 8853SOL     OW27378   5.699   0.737   3.459
 8853SOL    HW127379   5.787   0.724   3.504
 8853SOL    HW227380   5.686   0.834   3.437
 8854SOL     OW27381   6.199   1.365   2.588
 8854SOL    HW127382   6.150   1.278   2.597
 8854SOL    HW227383   6.176   1.408   2.501
 8855SOL     OW27384   6.879   1.228   3.285
 8855SOL    HW127385   6.916   1.155   3.227
 8855SOL    HW227386   6.931   1.233   3.370
 8856SOL     OW27387   6.395   0.004   2.364
 8856SOL    HW127388   6.435   0.095   2.355
 8856SOL    HW227389   6.295   0.012   2.370
 8857SOL     OW27390   5.783   0.976   3.126
 8857SOL    HW127391   5.872   0.931   3.112
 8857SOL    HW227392   5.710   0.911   3.107
 8858SOL     OW27393   6.773   1.792   3.478
 8858SOL    HW127394   6.797   1.852   3.402
 8858SOL    HW227395   6.780   1.697   3.448
 8859SOL     OW27396   5.903   0.251   3.663
 8859SOL    HW127397   5.974   0.322   3.669
 8859SOL    HW227398   5.815   0.290   3.691
 8860SOL     OW27399   6.184   0.729   2.132
 8860SOL    HW127400   6.208   0.798   2.064
 8860SOL    HW227401   6.106   0.762   2.186
 8861SOL     OW27402   6.867   0.345   2.806
 8861SOL    HW127403   6.781   0.295   2.793
 8861SOL    HW227404   6.929   0.291   2.862
 8862SOL     OW27405   6.393   0.605   3.327
 8862SOL    HW127406   6.346   0.602   3.416
 8862SOL    HW227407   6.342   0.550   3.261
 8863SOL     OW27408   6.980   0.469   3.536
 8863SOL    HW127409   6.960   0.512   3.624
 8863SOL    HW227410   7.058   0.407   3.545
 8864SOL     OW27411   6.559   0.890   3.434
 8864SOL    HW127412   6.605   0.806   3.405
 8864SOL    HW227413   6.503   0.924   3.359
 8865SOL     OW27414   6.577   0.410   3.104
 8865SOL    HW127415   6.500   0.444   3.158
 8865SOL    HW227416   6.543   0.359   3.025
 8866SOL     OW27417   6.627   0.701   2.291
 8866SOL    HW127418   6.653   0.697   2.387
 8866SOL    HW227419   6.542   0.650   2.277
 8867SOL     OW27420   5.662   0.811   2.651
 8867SOL    HW127421   5.761   0.799   2.660
 8867SOL    HW227422   5.638   0.906   2.672
 8868SOL     OW27423   5.716   1.821   3.433
 8868SOL    HW127424   5.706   1.806   3.532
 8868SOL    HW227425   5.630   1.857   3.397
 8869SOL     OW27426   6.451   0.348   2.057
 8869SOL    HW127427   6.510   0.411   2.008
 8869SOL    HW227428   6.470   0.254   2.028
 8870SOL     OW27429   6.948   1.144   2.407
 8870SOL    HW127430   7.031   1.115   2.359
 8870SOL    HW227431   6.899   1.211   2.351
 8871SOL     OW27432   6.136   0.196   2.747
 8871SOL    HW127433   6.131   0.191   2.847
 8871SOL    HW227434   6.138   0.292   2.718
 8872SOL     OW27435   6.594   1.456   2.339
 8872SOL    HW127436   6.548   1.528   2.287
 8872SOL    HW227437   6.590   1.476   2.437
 8873SOL     OW27438   5.937   1.801   2.715
 8873SOL    HW127439   5.987   1.715   2.721
 8873SOL    HW227440   6.002   1.878   2.712
 8874SOL     OW27441   6.813   1.550   3.368
 8874SOL    HW127442   6.819   1.473   3.432
 8874SOL    HW227443   6.761   1.524   3.288
 8875SOL     OW27444   5.907   0.943   2.104
 8875SOL    HW127445   5.989   0.982   2.062
 8875SOL    HW227446   5.880   0.861   2.055
 8876SOL     OW27447   6.047   1.266   3.589
 8876SOL    HW127448   5.997   1.267   3.503
 8876SOL    HW227449   5.984   1.248   3.665
 8877SOL     OW27450   6.697   1.776   2.099
 8877SOL    HW127451   6.637   1.714   2.149
 8877SOL    HW227452   6.728   1.732   2.014
 8878SOL     OW27453   5.788   0.285   3.360
 8878SOL    HW127454   5.708   0.345   3.347
 8878SOL    HW227455   5.778   0.236   3.446
 8879SOL     OW27456   6.050   1.743   2.185
 8879SOL    HW127457   6.083   1.782   2.271
 8879SOL    HW227458   6.126   1.736   2.120
 8880SOL     OW27459   5.835   1.785   3.103
 8880SOL    HW127460   5.892   1.720   3.153
 8880SOL    HW227461   5.819   1.752   3.010
 8881SOL     OW27462   6.526   1.698   2.766
 8881SOL    HW127463   6.606   1.641   2.787
 8881SOL    HW227464   6.477   1.658   2.689
 8882SOL     OW27465   5.968   0.700   2.342
 8882SOL    HW127466   6.013   0.610   2.339
 8882SOL    HW227467   5.874   0.689   2.375
 8883SOL     OW27468   6.200   0.122   1.979
 8883SOL    HW127469   6.298   0.100   1.986
 8883SOL    HW227470   6.169   0.105   1.886
 8884SOL     OW27471   6.367   0.264   3.611
 8884SOL    HW127472   6.434   0.203   3.654
 8884SOL    HW227473   6.294   0.283   3.676
 8885SOL     OW27474   6.474   1.514   3.057
 8885SOL    HW127475   6.451   1.489   2.963
 8885SOL    HW227476   6.535   1.445   3.096
 8886SOL     OW27477   6.389   1.402   2.786
 8886SOL    HW127478   6.479   1.416   2.744
 8886SOL    HW227479   6.318   1.404   2.715
 8887SOL     OW27480   6.508   0.503   2.761
 8887SOL    HW127481   6.483   0.494   2.665
 8887SOL    HW227482   6.556   0.421   2.792
 8888SOL     OW27483   6.125   0.064   2.374
 8888SOL    HW127484   6.044   0.065   2.432
 8888SOL    HW227485   6.128   0.147   2.319
 8889SOL     OW27486   7.020   1.188   1.903
 8889SOL    HW127487   7.052   1.112   1.960
 8889SOL    HW227488   6.928   1.215   1.933
 8890SOL     OW27489   5.883   0.035   2.033
 8890SOL    HW127490   5.932   0.119   2.012
 8890SOL    HW227491   5.945  -0.030   2.078
 8891SOL     OW27492   6.521   0.236   2.342
 8891SOL    HW127493   6.473   0.277   2.264
 8891SOL    HW227494   6.620   0.234   2.323
 8892SOL     OW27495   6.662   0.683   3.326
 8892SOL    HW127496   6.582   0.622   3.329
 8892SOL    HW227497   6.743   0.630   3.302
 8893SOL     OW27498   6.813   1.570   2.655
 8893SOL    HW127499   6.834   1.644   2.590
 8893SOL    HW227500   6.881   1.570   2.728
 8894SOL     OW27501   6.045   1.152   2.603
 8894SOL    HW127502   5.974   1.125   2.668
 8894SOL    HW227503   6.019   1.124   2.510
 8895SOL     OW27504   6.857   1.797   2.453
 8895SOL    HW127505   6.901   1.861   2.389
 8895SOL    HW227506   6.807   1.849   2.523
 8896SOL     OW27507   6.618   0.549   1.878
 8896SOL    HW127508   6.577   0.631   1.839
 8896SOL    HW227509   6.682   0.575   1.951
 8897SOL     OW27510   5.664   0.556   3.248
 8897SOL    HW127511   5.756   0.555   3.207
 8897SOL    HW227512   5.658   0.630   3.315
 8898SOL     OW27513   6.147   0.222   3.009
 8898SOL    HW127514   6.185   0.138   3.046
 8898SOL    HW227515   6.059   0.241   3.053
 8899SOL     OW27516   6.452   0.454   2.504
 8899SOL    HW127517   6.420   0.526   2.442
 8899SOL    HW227518   6.476   0.373   2.451
 8900SOL     OW27519   6.603   0.039   2.615
 8900SOL    HW127520   6.531   0.044   2.546
 8900SOL    HW227521   6.579  -0.030   2.684
 8901SOL     OW27522   6.074   1.385   2.036
 8901SOL    HW127523   5.987   1.370   2.083
 8901SOL    HW227524   6.057   1.411   1.941
 8902SOL     OW27525   6.113   0.256   2.190
 8902SOL    HW127526   6.140   0.197   2.115
 8902SOL    HW227527   6.113   0.351   2.159
 8903SOL     OW27528   6.650   1.347   3.202
 8903SOL    HW127529   6.570   1.324   3.257
 8903SOL    HW227530   6.733   1.321   3.251
 8904SOL     OW27531   6.697   1.195   2.962
 8904SOL    HW127532   6.657   1.239   3.043
 8904SOL    HW227533   6.656   1.232   2.879
 8905SOL     OW27534   6.501   0.089   3.264
 8905SOL    HW127535   6.526   0.069   3.169
 8905SOL    HW227536   6.573   0.145   3.306
 8906SOL     OW27537   6.566   1.116   3.581
 8906SOL    HW127538   6.467   1.122   3.591
 8906SOL    HW227539   6.589   1.036   3.525
 8907SOL     OW27540   6.291   1.050   2.230
 8907SOL    HW127541   6.277   1.057   2.329
 8907SOL    HW227542   6.375   0.999   2.212
 8908SOL     OW27543   5.996   0.813   3.113
 8908SOL    HW127544   6.082   0.825   3.163
 8908SOL    HW227545   5.954   0.726   3.140
 8909SOL     OW27546   6.860   0.386   3.124
 8909SOL    HW127547   6.881   0.460   3.188
 8909SOL    HW227548   6.771   0.403   3.081
 8910SOL     OW27549   5.650   1.564   3.193
 8910SOL    HW127550   5.604   1.646   3.159
 8910SOL    HW227551   5.748   1.583   3.202
 8911SOL     OW27552   5.953   1.100   2.363
 8911SOL    HW127553   5.946   1.183   2.307
 8911SOL    HW227554   5.957   1.020   2.303
 8912SOL     OW27555   6.152   0.537   2.727
 8912SOL    HW127556   6.164   0.603   2.653
 8912SOL    HW227557   6.198   0.571   2.810
 8913SOL     OW27558   6.838   1.348   2.250
 8913SOL    HW127559   6.888   1.425   2.290
 8913SOL    HW227560   6.743   1.350   2.282
 8914SOL     OW27561   6.858   1.445   3.004
 8914SOL    HW127562   6.905   1.458   3.091
 8914SOL    HW227563   6.792   1.371   3.013
 8915SOL     OW27564   5.940   1.510   3.191
 8915SOL    HW127565   5.919   1.466   3.104
 8915SOL    HW227566   6.037   1.536   3.194
 8916SOL     OW27567   5.988   0.751   3.460
 8916SOL    HW127568   6.056   0.806   3.413
 8916SOL    HW227569   6.028   0.663   3.487
 8917SOL     OW27570   6.599   0.105   3.632
 8917SOL    HW127571   6.605   0.190   3.580
 8917SOL    HW227572   6.631   0.029   3.575
 8918SOL     OW27573   6.090   0.050   3.602
 8918SOL    HW127574   6.048  -0.007   3.532
 8918SOL    HW227575   6.024   0.119   3.634
 8919SOL     OW27576   6.159   0.870   2.891
 8919SOL    HW127577   6.203   0.959   2.882
 8919SOL    HW227578   6.096   0.870   2.968
 8920SOL     OW27579   6.946   0.862   2.907
 8920SOL    HW127580   6.871   0.862   2.841
 8920SOL    HW227581   6.983   0.770   2.916
 8921SOL     OW27582   6.795   0.525   2.137
 8921SOL    HW127583   6.808   0.441   2.191
 8921SOL    HW227584   6.766   0.599   2.197
 8922SOL     OW27585   5.893   0.213   3.093
 8922SOL    HW127586   5.870   0.250   3.183
 8922SOL    HW227587   5.863   0.118   3.087
 8923SOL     OW27588   5.623   1.310   3.144
 8923SOL    HW127589   5.676   1.261   3.212
 8923SOL    HW227590   5.645   1.408   3.149
 8924SOL     OW27591   6.318   0.634   2.926
 8924SOL    HW127592   6.377   0.608   2.850
 8924SOL    HW227593   6.290   0.730   2.915
 8925SOL     OW27594   5.893   0.063   2.480
 8925SOL    HW127595   5.882   0.157   2.513
 8925SOL    HW227596   5.888   0.000   2.557
 8926SOL     OW27597   7.208   0.367   2.236
 8926SOL    HW127598   7.210   0.291   2.300
 8926SOL    HW227599   7.160   0.444   2.276
 8927SOL     OW27600   6.609   0.766   2.828
 8927SOL    HW127601   6.624   0.787   2.924
 8927SOL    HW227602   6.579   0.671   2.819
 8928SOL     OW27603   6.566   1.573   3.562
 8928SOL    HW127604   6.546   1.617   3.474
 8928SOL    HW227605   6.605   1.482   3.546
 8929SOL     OW27606   5.936   0.898   3.666
 8929SOL    HW127607   6.012   0.942   3.714
 8929SOL    HW227608   5.971   0.851   3.584
 8930SOL     OW27609   6.889   0.838   1.904
 8930SOL    HW127610   6.923   0.745   1.919
 8930SOL    HW227611   6.907   0.865   1.809
 8931SOL     OW27612   6.654   1.333   2.711
 8931SOL    HW127613   6.661   1.249   2.656
 8931SOL    HW227614   6.716   1.402   2.675
 8932SOL     OW27615   5.905   0.810   2.811
 8932SOL    HW127616   5.998   0.846   2.816
 8932SOL    HW227617   5.899   0.725   2.863
 8933SOL     OW27618   5.925   0.509   2.868
 8933SOL    HW127619   5.873   0.426   2.851
 8933SOL    HW227620   6.002   0.514   2.804
 8934SOL     OW27621   6.724   0.380   3.540
 8934SOL    HW127622   6.679   0.443   3.604
 8934SOL    HW227623   6.817   0.411   3.523
 8935SOL     OW27624   6.746   0.207   3.339
 8935SOL    HW127625   6.746   0.271   3.416
 8935SOL    HW227626   6.774   0.255   3.256
 8936SOL     OW27627   5.594   1.326   2.062
 8936SOL    HW127628   5.501   1.347   2.031
 8936SOL    HW227629   5.604   1.227   2.075
 8937SOL     OW27630   5.674   1.801   2.789
 8937SOL    HW127631   5.632   1.715   2.762
 8937SOL    HW227632   5.768   1.804   2.755
 8938SOL     OW27633   6.090   1.568   2.772
 8938SOL    HW127634   6.156   1.642   2.781
 8938SOL    HW227635   6.134   1.489   2.730
 8939SOL     OW27636   6.588   0.796   3.100
 8939SOL    HW127637   6.629   0.764   3.186
 8939SOL    HW227638   6.492   0.769   3.097
 8940SOL     OW27639   5.626   0.544   2.976
 8940SOL    HW127640   5.711   0.511   2.935
 8940SOL    HW227641   5.639   0.559   3.074
 8941SOL     OW27642   5.775   0.520   3.584
 8941SOL    HW127643   5.834   0.480   3.514
 8941SOL    HW227644   5.717   0.591   3.543
 8942SOL     OW27645   6.401   0.572   2.187
 8942SOL    HW127646   6.408   0.483   2.141
 8942SOL    HW227647   6.307   0.606   2.179
 8943SOL     OW27648   5.838   1.564   3.606
 8943SOL    HW127649   5.808   1.621   3.682
 8943SOL    HW227650   5.831   1.467   3.632
 8944SOL     OW27651   6.257   0.464   3.131
 8944SOL    HW127652   6.223   0.375   3.101
 8944SOL    HW227653   6.283   0.518   3.051
 8945SOL     OW27654   6.516   1.678   3.327
 8945SOL    HW127655   6.492   1.660   3.232
 8945SOL    HW227656   6.546   1.772   3.337
 8946SOL     OW27657   6.059   0.500   2.053
 8946SOL    HW127658   6.120   0.580   2.057
 8946SOL    HW227659   5.964   0.531   2.060
 8947SOL     OW27660   5.745   1.137   3.328
 8947SOL    HW127661   5.767   1.076   3.404
 8947SOL    HW227662   5.755   1.088   3.242
 8948SOL     OW27663   6.933   1.059   3.096
 8948SOL    HW127664   6.957   0.996   3.022
 8948SOL    HW227665   6.843   1.099   3.078
 8949SOL     OW27666   6.888   0.855   2.171
 8949SOL    HW127667   6.802   0.824   2.213
 8949SOL    HW227668   6.884   0.841   2.072
 8950SOL     OW27669   6.838   1.731   2.990
 8950SOL    HW127670   6.922   1.736   2.936
 8950SOL    HW227671   6.815   1.635   3.008
 8951SOL     OW27672   5.669   1.258   2.884
 8951SOL    HW127673   5.664   1.257   2.984
 8951SOL    HW227674   5.586   1.217   2.846
 8952SOL     OW27675   6.274   1.662   3.578
 8952SOL    HW127676   6.218   1.743   3.587
 8952SOL    HW227677   6.326   1.666   3.492
 8953SOL     OW27678   6.974   1.573   2.339
 8953SOL    HW127679   7.041   1.585   2.265
 8953SOL    HW227680   6.934   1.662   2.362
 8954SOL     OW27681   5.716   1.794   3.713
 8954SOL    HW127682   5.675   1.720   3.766
 8954SOL    HW227683   5.780   1.845   3.771
 8955SOL     OW27684   6.866   0.927   2.534
 8955SOL    HW127685   6.926   0.846   2.536
 8955SOL    HW227686   6.906   0.996   2.474
 8956SOL     OW27687   6.416   1.273   3.284
 8956SOL    HW127688   6.411   1.306   3.379
 8956SOL    HW227689   6.330   1.292   3.238
 8957SOL     OW27690   6.258   1.616   2.016
 8957SOL    HW127691   6.267   1.626   1.917
 8957SOL    HW227692   6.218   1.527   2.037
 8958SOL     OW27693   5.849   0.326   2.582
 8958SOL    HW127694   5.770   0.377   2.548
 8958SOL    HW227695   5.840   0.311   2.680
 8959SOL     OW27696   6.780   1.612   1.893
 8959SOL    HW127697   6.786   1.519   1.930
 8959SOL    HW227698   6.721   1.612   1.813
 8960SOL     OW27699   6.408   1.002   3.234
 8960SOL    HW127700   6.448   1.001   3.142
 8960SOL    HW227701   6.418   1.094   3.274
 8961SOL     OW27702   6.502   0.910   2.153
 8961SOL    HW127703   6.565   0.948   2.085
 8961SOL    HW227704   6.542   0.827   2.192
 8962SOL     OW27705   5.958   1.288   3.352
 8962SOL    HW127706   5.945   1.381   3.318
 8962SOL    HW227707   5.874   1.236   3.339
 8963SOL     OW27708   6.625   1.098   2.558
 8963SOL    HW127709   6.555   1.051   2.612
 8963SOL    HW227710   6.684   1.030   2.515
 8964SOL     OW27711   6.600   0.236   2.833
 8964SOL    HW127712   6.592   0.200   2.740
 8964SOL    HW227713   6.598   0.160   2.898
 8965SOL     OW27714   6.176   1.487   2.353
 8965SOL    HW127715   6.218   1.429   2.283
 8965SOL    HW227716   6.132   1.566   2.309
 8966SOL     OW27717   5.841   1.348   2.152
 8966SOL    HW127718   5.745   1.349   2.125
 8966SOL    HW227719   5.853   1.401   2.236
 8967SOL     OW27720   5.691   1.013   3.588
 8967SOL    HW127721   5.614   0.980   3.642
 8967SOL    HW227722   5.776   0.983   3.630
 8968SOL     OW27723   6.258   0.203   3.351
 8968SOL    HW127724   6.348   0.187   3.311
 8968SOL    HW227725   6.266   0.208   3.450
 8969SOL     OW27726   5.661   0.345   1.895
 8969SOL    HW127727   5.569   0.317   1.866
 8969SOL    HW227728   5.692   0.422   1.839
 8970SOL     OW27729   5.658   0.166   2.180
 8970SOL    HW127730   5.641   0.249   2.126
 8970SOL    HW227731   5.748   0.129   2.158
 8971SOL     OW27732   6.199   0.842   3.293
 8971SOL    HW127733   6.255   0.923   3.276
 8971SOL    HW227734   6.258   0.762   3.296
 8972SOL     OW27735   6.302   0.565   3.570
 8972SOL    HW127736   6.321   0.630   3.644
 8972SOL    HW227737   6.362   0.485   3.579
 8973SOL     OW27738   7.036   1.220   3.495
 8973SOL    HW127739   7.027   1.210   3.594
 8973SOL    HW227740   7.132   1.213   3.469
 8974SOL     OW27741   5.976   1.741   3.422
 8974SOL    HW127742   5.885   1.782   3.420
 8974SOL    HW227743   5.969   1.647   3.454
 8975SOL     OW27744   6.811   0.325   2.311
 8975SOL    HW127745   6.876   0.251   2.300
 8975SOL    HW227746   6.831   0.375   2.395
 8976SOL     OW27747   6.180   0.745   2.514
 8976SOL    HW127748   6.230   0.830   2.495
 8976SOL    HW227749   6.092   0.747   2.466
 8977SOL     OW27750   6.445   1.374   1.878
 8977SOL    HW127751   6.399   1.389   1.966
 8977SOL    HW227752   6.489   1.459   1.848
 8978SOL     OW27753   6.247   1.790   2.815
 8978SOL    HW127754   6.201   1.878   2.802
 8978SOL    HW227755   6.346   1.802   2.808
 8979SOL     OW27756   6.445   0.956   2.723
 8979SOL    HW127757   6.499   0.887   2.771
 8979SOL    HW227758   6.413   1.025   2.789
 8980SOL     OW27759   6.669   0.984   1.949
 8980SOL    HW127760   6.646   1.037   1.867
 8980SOL    HW227761   6.750   0.928   1.930
 8981SOL     OW27762   5.807   1.314   3.706
 8981SOL    HW127763   5.742   1.241   3.685
 8981SOL    HW227764   5.811   1.328   3.804
 8982SOL     OW27765   5.665   1.240   2.515
 8982SOL    HW127766   5.664   1.193   2.603
 8982SOL    HW227767   5.747   1.212   2.464
 8983SOL     OW27768   6.258   1.391   3.486
 8983SOL    HW127769   6.180   1.341   3.524
 8983SOL    HW227770   6.255   1.486   3.517
 8984SOL     OW27771   6.014   0.424   2.382
 8984SOL    HW127772   6.044   0.352   2.320
 8984SOL    HW227773   5.975   0.384   2.465
 8985SOL     OW27774   5.903   0.547   3.142
 8985SOL    HW127775   5.941   0.488   3.214
 8985SOL    HW227776   5.943   0.521   3.054
 8986SOL     OW27777   6.398   1.586   2.549
 8986SOL    HW127778   6.430   1.596   2.455
 8986SOL    HW227779   6.319   1.524   2.551
 8987SOL     OW27780   7.010   0.214   2.974
 8987SOL    HW127781   7.062   0.149   3.029
 8987SOL    HW227782   6.961   0.277   3.035
 8988SOL     OW27783   6.587   0.034   3.016
 8988SOL    HW127784   6.524  -0.038   2.985
 8988SOL    HW227785   6.680  -0.002   3.016
 8989SOL     OW27786   6.356   1.330   2.163
 8989SOL    HW127787   6.310   1.243   2.180
 8989SOL    HW227788   6.447   1.327   2.204
 8990SOL     OW27789   6.204   1.567   3.146
 8990SOL    HW127790   6.199   1.649   3.203
 8990SOL    HW227791   6.293   1.564   3.101
 8991SOL     OW27792   5.625   1.077   2.162
 8991SOL    HW127793   5.724   1.066   2.153
 8991SOL    HW227794   5.585   0.991   2.194
 8992SOL     OW27795   6.461   1.646   2.199
 8992SOL    HW127796   6.384   1.611   2.145
 8992SOL    HW227797   6.429   1.717   2.261
 8993SOL     OW27798   5.816   0.628   3.837
 8993SOL    HW127799   5.723   0.626   3.874
 8993SOL    HW227800   5.817   0.589   3.745
 8994SOL     OW27801   5.811   0.275   4.720
 8994SOL    HW127802   5.846   0.258   4.812
 8994SOL    HW227803   5.723   0.230   4.708
 8995SOL     OW27804   5.605   0.368   4.371
 8995SOL    HW127805   5.523   0.411   4.410
 8995SOL    HW227806   5.577   0.295   4.308
 8996SOL     OW27807   6.155   1.275   4.889
 8996SOL    HW127808   6.062   1.268   4.852
 8996SOL    HW227809   6.166   1.364   4.933
 8997SOL     OW27810   7.141   1.511   4.427
 8997SOL    HW127811   7.084   1.495   4.508
 8997SOL    HW227812   7.082   1.521   4.347
 8998SOL     OW27813   6.721   0.703   4.441
 8998SOL    HW127814   6.778   0.781   4.416
 8998SOL    HW227815   6.661   0.729   4.517
 8999SOL     OW27816   6.354   1.144   4.747
 8999SOL    HW127817   6.276   1.161   4.807
 8999SOL    HW227818   6.388   1.231   4.711
 9000SOL     OW27819   6.436   0.798   5.547
 9000SOL    HW127820   6.432   0.874   5.612
 9000SOL    HW227821   6.458   0.834   5.456
 9001SOL     OW27822   6.271   1.012   4.389
 9001SOL    HW127823   6.340   0.996   4.459
 9001SOL    HW227824   6.198   1.069   4.427
 9002SOL     OW27825   6.272   1.161   5.527
 9002SOL    HW127826   6.332   1.240   5.541
 9002SOL    HW227827   6.186   1.192   5.486
 9003SOL     OW27828   5.921   1.435   4.785
 9003SOL    HW127829   5.843   1.404   4.732
 9003SOL    HW227830   5.979   1.493   4.728
 9004SOL     OW27831   6.024   0.392   5.223
 9004SOL    HW127832   6.106   0.336   5.232
 9004SOL    HW227833   5.943   0.334   5.227
 9005SOL     OW27834   5.817   1.713   4.207
 9005SOL    HW127835   5.851   1.790   4.261
 9005SOL    HW227836   5.861   1.713   4.117
 9006SOL     OW27837   6.713   1.341   5.414
 9006SOL    HW127838   6.760   1.341   5.502
 9006SOL    HW227839   6.665   1.254   5.403
 9007SOL     OW27840   5.816   1.434   4.262
 9007SOL    HW127841   5.790   1.530   4.262
 9007SOL    HW227842   5.745   1.380   4.307
 9008SOL     OW27843   5.826   1.091   4.610
 9008SOL    HW127844   5.840   1.007   4.662
 9008SOL    HW227845   5.771   1.155   4.665
 9009SOL     OW27846   6.206   1.786   5.163
 9009SOL    HW127847   6.114   1.769   5.198
 9009SOL    HW227848   6.234   1.878   5.189
 9010SOL     OW27849   6.192   0.964   3.847
 9010SOL    HW127850   6.199   1.048   3.793
 9010SOL    HW227851   6.238   0.977   3.935
 9011SOL     OW27852   5.708   0.643   4.287
 9011SOL    HW127853   5.663   0.555   4.304
 9011SOL    HW227854   5.707   0.697   4.371
 9012SOL     OW27855   5.613   1.596   3.841
 9012SOL    HW127856   5.594   1.500   3.862
 9012SOL    HW227857   5.580   1.654   3.916
 9013SOL     OW27858   5.699   0.737   5.321
 9013SOL    HW127859   5.787   0.724   5.366
 9013SOL    HW227860   5.686   0.834   5.299
 9014SOL     OW27861   6.199   1.365   4.450
 9014SOL    HW127862   6.150   1.278   4.459
 9014SOL    HW227863   6.176   1.408   4.363
 9015SOL     OW27864   6.879   1.228   5.147
 9015SOL    HW127865   6.916   1.155   5.089
 9015SOL    HW227866   6.931   1.233   5.232
 9016SOL     OW27867   6.395   0.004   4.226
 9016SOL    HW127868   6.435   0.095   4.217
 9016SOL    HW227869   6.295   0.012   4.232
 9017SOL     OW27870   5.783   0.976   4.988
 9017SOL    HW127871   5.872   0.931   4.974
 9017SOL    HW227872   5.710   0.911   4.969
 9018SOL     OW27873   6.773   1.792   5.340
 9018SOL    HW127874   6.797   1.852   5.264
 9018SOL    HW227875   6.780   1.697   5.310
 9019SOL     OW27876   5.903   0.251   5.525
 9019SOL    HW127877   5.974   0.322   5.531
 9019SOL    HW227878   5.815   0.290   5.553
 9020SOL     OW27879   6.184   0.729   3.994
 9020SOL    HW127880   6.208   0.798   3.926
 9020SOL    HW227881   6.106   0.762   4.048
 9021SOL     OW27882   6.867   0.345   4.668
 9021SOL    HW127883   6.781   0.295   4.655
 9021SOL    HW227884   6.929   0.291   4.724
 9022SOL     OW27885   6.393   0.605   5.189
 9022SOL    HW127886   6.346   0.602   5.278
 9022SOL    HW227887   6.342   0.550   5.123
 9023SOL     OW27888   6.980   0.469   5.398
 9023SOL    HW127889   6.960   0.512   5.486
 9023SOL    HW227890   7.058   0.407   5.407
 9024SOL     OW27891   6.559   0.890   5.296
 9024SOL    HW127892   6.605   0.806   5.267
 9024SOL    HW227893   6.503   0.924   5.221
 9025SOL     OW27894   6.577   0.410   4.966
 9025SOL    HW127895   6.500   0.444   5.020
 9025SOL    HW227896   6.543   0.359   4.887
 9026SOL     OW27897   6.627   0.701   4.153
 9026SOL    HW127898   6.653   0.697   4.249
 9026SOL    HW227899   6.542   0.650   4.139
 9027SOL     OW27900   5.662   0.811   4.513
 9027SOL    HW127901   5.761   0.799   4.522
 9027SOL    HW227902   5.638   0.906   4.534
 9028SOL     OW27903   5.716   1.821   5.295
 9028SOL    HW127904   5.706   1.806   5.394
 9028SOL    HW227905   5.630   1.857   5.259
 9029SOL     OW27906   6.451   0.348   3.919
 9029SOL    HW127907   6.510   0.411   3.870
 9029SOL    HW227908   6.470   0.254   3.890
 9030SOL     OW27909   6.948   1.144   4.269
 9030SOL    HW127910   7.031   1.115   4.221
 9030SOL    HW227911   6.899   1.211   4.213
 9031SOL     OW27912   6.136   0.196   4.609
 9031SOL    HW127913   6.131   0.191   4.709
 9031SOL    HW227914   6.138   0.292   4.580
 9032SOL     OW27915   6.594   1.456   4.201
 9032SOL    HW127916   6.548   1.528   4.149
 9032SOL    HW227917   6.590   1.476   4.299
 9033SOL     OW27918   5.937   1.801   4.577
 9033SOL    HW127919   5.987   1.715   4.583
 9033SOL    HW227920   6.002   1.878   4.574
 9034SOL     OW27921   6.813   1.550   5.230
 9034SOL    HW127922   6.819   1.473   5.294
 9034SOL    HW227923   6.761   1.524   5.150
 9035SOL     OW27924   5.907   0.943   3.966
 9035SOL    HW127925   5.989   0.982   3.924
 9035SOL    HW227926   5.880   0.861   3.917
 9036SOL     OW27927   6.047   1.266   5.451
 9036SOL    HW127928   5.997   1.267   5.365
 9036SOL    HW227929   5.984   1.248   5.527
 9037SOL     OW27930   6.697   1.776   3.961
 9037SOL    HW127931   6.637   1.714   4.011
 9037SOL    HW227932   6.728   1.732   3.876
 9038SOL     OW27933   5.788   0.285   5.222
 9038SOL    HW127934   5.708   0.345   5.209
 9038SOL    HW227935   5.778   0.236   5.308
 9039SOL     OW27936   6.050   1.743   4.047
 9039SOL    HW127937   6.083   1.782   4.133
 9039SOL    HW227938   6.126   1.736   3.982
 9040SOL     OW27939   5.835   1.785   4.965
 9040SOL    HW127940   5.892   1.720   5.015
 9040SOL    HW227941   5.819   1.752   4.872
 9041SOL     OW27942   6.526   1.698   4.628
 9041SOL    HW127943   6.606   1.641   4.649
 9041SOL    HW227944   6.477   1.658   4.551
 9042SOL     OW27945   5.968   0.700   4.204
 9042SOL    HW127946   6.013   0.610   4.201
 9042SOL    HW227947   5.874   0.689   4.237
 9043SOL     OW27948   6.200   0.122   3.841
 9043SOL    HW127949   6.298   0.100   3.848
 9043SOL    HW227950   6.169   0.105   3.748
 9044SOL     OW27951   6.367   0.264   5.473
 9044SOL    HW127952   6.434   0.203   5.516
 9044SOL    HW227953   6.294   0.283   5.538
 9045SOL     OW27954   6.474   1.514   4.919
 9045SOL    HW127955   6.451   1.489   4.825
 9045SOL    HW227956   6.535   1.445   4.958
 9046SOL     OW27957   6.389   1.402   4.648
 9046SOL    HW127958   6.479   1.416   4.606
 9046SOL    HW227959   6.318   1.404   4.577
 9047SOL     OW27960   6.508   0.503   4.623
 9047SOL    HW127961   6.483   0.494   4.527
 9047SOL    HW227962   6.556   0.421   4.654
 9048SOL     OW27963   6.125   0.064   4.236
 9048SOL    HW127964   6.044   0.065   4.294
 9048SOL    HW227965   6.128   0.147   4.181
 9049SOL     OW27966   7.020   1.188   3.765
 9049SOL    HW127967   7.052   1.112   3.822
 9049SOL    HW227968   6.928   1.215   3.795
 9050SOL     OW27969   5.883   0.035   3.895
 9050SOL    HW127970   5.932   0.119   3.874
 9050SOL    HW227971   5.945  -0.030   3.940
 9051SOL     OW27972   6.521   0.236   4.204
 9051SOL    HW127973   6.473   0.277   4.126
 9051SOL    HW227974   6.620   0.234   4.185
 9052SOL     OW27975   6.662   0.683   5.188
 9052SOL    HW127976   6.582   0.622   5.191
 9052SOL    HW227977   6.743   0.630   5.164
 9053SOL     OW27978   6.813   1.570   4.517
 9053SOL    HW127979   6.834   1.644   4.452
 9053SOL    HW227980   6.881   1.570   4.590
 9054SOL     OW27981   6.045   1.152   4.465
 9054SOL    HW127982   5.974   1.125   4.530
 9054SOL    HW227983   6.019   1.124   4.372
 9055SOL     OW27984   6.857   1.797   4.315
 9055SOL    HW127985   6.901   1.861   4.251
 9055SOL    HW227986   6.807   1.849   4.385
 9056SOL     OW27987   6.618   0.549   3.740
 9056SOL    HW127988   6.577   0.631   3.701
 9056SOL    HW227989   6.682   0.575   3.813
 9057SOL     OW27990   5.664   0.556   5.110
 9057SOL    HW127991   5.756   0.555   5.069
 9057SOL    HW227992   5.658   0.630   5.177
 9058SOL     OW27993   6.147   0.222   4.871
 9058SOL    HW127994   6.185   0.138   4.908
 9058SOL    HW227995   6.059   0.241   4.915
 9059SOL     OW27996   6.452   0.454   4.366
 9059SOL    HW127997   6.420   0.526   4.304
 9059SOL    HW227998   6.476   0.373   4.313
 9060SOL     OW27999   6.603   0.039   4.477
 9060SOL    HW128000   6.531   0.044   4.408
 9060SOL    HW228001   6.579  -0.030   4.546
 9061SOL     OW28002   6.074   1.385   3.898
 9061SOL    HW128003   5.987   1.370   3.945
 9061SOL    HW228004   6.057   1.411   3.803
 9062SOL     OW28005   6.113   0.256   4.052
 9062SOL    HW128006   6.140   0.197   3.977
 9062SOL    HW228007   6.113   0.351   4.021
 9063SOL     OW28008   6.650   1.347   5.064
 9063SOL    HW128009   6.570   1.324   5.119
 9063SOL    HW228010   6.733   1.321   5.113
 9064SOL     OW28011   6.697   1.195   4.824
 9064SOL    HW128012   6.657   1.239   4.905
 9064SOL    HW228013   6.656   1.232   4.741
 9065SOL     OW28014   6.501   0.089   5.126
 9065SOL    HW128015   6.526   0.069   5.031
 9065SOL    HW228016   6.573   0.145   5.168
 9066SOL     OW28017   6.566   1.116   5.443
 9066SOL    HW128018   6.467   1.122   5.453
 9066SOL    HW228019   6.589   1.036   5.387
 9067SOL     OW28020   6.291   1.050   4.092
 9067SOL    HW128021   6.277   1.057   4.191
 9067SOL    HW228022   6.375   0.999   4.074
 9068SOL     OW28023   5.996   0.813   4.975
 9068SOL    HW128024   6.082   0.825   5.025
 9068SOL    HW228025   5.954   0.726   5.002
 9069SOL     OW28026   6.860   0.386   4.986
 9069SOL    HW128027   6.881   0.460   5.050
 9069SOL    HW228028   6.771   0.403   4.943
 9070SOL     OW28029   5.650   1.564   5.055
 9070SOL    HW128030   5.604   1.646   5.021
 9070SOL    HW228031   5.748   1.583   5.064
 9071SOL     OW28032   5.953   1.100   4.225
 9071SOL    HW128033   5.946   1.183   4.169
 9071SOL    HW228034   5.957   1.020   4.165
 9072SOL     OW28035   6.152   0.537   4.589
 9072SOL    HW128036   6.164   0.603   4.515
 9072SOL    HW228037   6.198   0.571   4.672
 9073SOL     OW28038   6.838   1.348   4.112
 9073SOL    HW128039   6.888   1.425   4.152
 9073SOL    HW228040   6.743   1.350   4.144
 9074SOL     OW28041   6.858   1.445   4.866
 9074SOL    HW128042   6.905   1.458   4.953
 9074SOL    HW228043   6.792   1.371   4.875
 9075SOL     OW28044   5.940   1.510   5.053
 9075SOL    HW128045   5.919   1.466   4.966
 9075SOL    HW228046   6.037   1.536   5.056
 9076SOL     OW28047   5.988   0.751   5.322
 9076SOL    HW128048   6.056   0.806   5.275
 9076SOL    HW228049   6.028   0.663   5.349
 9077SOL     OW28050   6.599   0.105   5.494
 9077SOL    HW128051   6.605   0.190   5.442
 9077SOL    HW228052   6.631   0.029   5.437
 9078SOL     OW28053   6.090   0.050   5.464
 9078SOL    HW128054   6.048  -0.007   5.394
 9078SOL    HW228055   6.024   0.119   5.496
 9079SOL     OW28056   6.159   0.870   4.753
 9079SOL    HW128057   6.203   0.959   4.744
 9079SOL    HW228058   6.096   0.870   4.830
 9080SOL     OW28059   6.946   0.862   4.769
 9080SOL    HW128060   6.871   0.862   4.703
 9080SOL    HW228061   6.983   0.770   4.778
 9081SOL     OW28062   6.795   0.525   3.999
 9081SOL    HW128063   6.808   0.441   4.053
 9081SOL    HW228064   6.766   0.599   4.059
 9082SOL     OW28065   5.893   0.213   4.955
 9082SOL    HW128066   5.870   0.250   5.045
 9082SOL    HW228067   5.863   0.118   4.949
 9083SOL     OW28068   5.623   1.310   5.006
 9083SOL    HW128069   5.676   1.261   5.074
 9083SOL    HW228070   5.645   1.408   5.011
 9084SOL     OW28071   6.318   0.634   4.788
 9084SOL    HW128072   6.377   0.608   4.712
 9084SOL    HW228073   6.290   0.730   4.777
 9085SOL     OW28074   5.893   0.063   4.342
 9085SOL    HW128075   5.882   0.157   4.375
 9085SOL    HW228076   5.888   0.000   4.419
 9086SOL     OW28077   7.208   0.367   4.098
 9086SOL    HW128078   7.210   0.291   4.162
 9086SOL    HW228079   7.160   0.444   4.138
 9087SOL     OW28080   6.609   0.766   4.690
 9087SOL    HW128081   6.624   0.787   4.786
 9087SOL    HW228082   6.579   0.671   4.681
 9088SOL     OW28083   6.566   1.573   5.424
 9088SOL    HW128084   6.546   1.617   5.336
 9088SOL    HW228085   6.605   1.482   5.408
 9089SOL     OW28086   5.936   0.898   5.528
 9089SOL    HW128087   6.012   0.942   5.576
 9089SOL    HW228088   5.971   0.851   5.446
 9090SOL     OW28089   6.889   0.838   3.766
 9090SOL    HW128090   6.923   0.745   3.781
 9090SOL    HW228091   6.907   0.865   3.671
 9091SOL     OW28092   6.654   1.333   4.573
 9091SOL    HW128093   6.661   1.249   4.518
 9091SOL    HW228094   6.716   1.402   4.537
 9092SOL     OW28095   5.905   0.810   4.673
 9092SOL    HW128096   5.998   0.846   4.678
 9092SOL    HW228097   5.899   0.725   4.725
 9093SOL     OW28098   5.925   0.509   4.730
 9093SOL    HW128099   5.873   0.426   4.713
 9093SOL    HW228100   6.002   0.514   4.666
 9094SOL     OW28101   6.724   0.380   5.402
 9094SOL    HW128102   6.679   0.443   5.466
 9094SOL    HW228103   6.817   0.411   5.385
 9095SOL     OW28104   6.746   0.207   5.201
 9095SOL    HW128105   6.746   0.271   5.278
 9095SOL    HW228106   6.774   0.255   5.118
 9096SOL     OW28107   5.594   1.326   3.924
 9096SOL    HW128108   5.501   1.347   3.893
 9096SOL    HW228109   5.604   1.227   3.937
 9097SOL     OW28110   5.674   1.801   4.651
 9097SOL    HW128111   5.632   1.715   4.624
 9097SOL    HW228112   5.768   1.804   4.617
 9098SOL     OW28113   6.090   1.568   4.634
 9098SOL    HW128114   6.156   1.642   4.643
 9098SOL    HW228115   6.134   1.489   4.592
 9099SOL     OW28116   6.588   0.796   4.962
 9099SOL    HW128117   6.629   0.764   5.048
 9099SOL    HW228118   6.492   0.769   4.959
 9100SOL     OW28119   5.626   0.544   4.838
 9100SOL    HW128120   5.711   0.511   4.797
 9100SOL    HW228121   5.639   0.559   4.936
 9101SOL     OW28122   5.775   0.520   5.446
 9101SOL    HW128123   5.834   0.480   5.376
 9101SOL    HW228124   5.717   0.591   5.405
 9102SOL     OW28125   6.401   0.572   4.049
 9102SOL    HW128126   6.408   0.483   4.003
 9102SOL    HW228127   6.307   0.606   4.041
 9103SOL     OW28128   5.838   1.564   5.468
 9103SOL    HW128129   5.808   1.621   5.544
 9103SOL    HW228130   5.831   1.467   5.494
 9104SOL     OW28131   6.257   0.464   4.993
 9104SOL    HW128132   6.223   0.375   4.963
 9104SOL    HW228133   6.283   0.518   4.913
 9105SOL     OW28134   6.516   1.678   5.189
 9105SOL    HW128135   6.492   1.660   5.094
 9105SOL    HW228136   6.546   1.772   5.199
 9106SOL     OW28137   6.059   0.500   3.915
 9106SOL    HW128138   6.120   0.580   3.919
 9106SOL    HW228139   5.964   0.531   3.922
 9107SOL     OW28140   5.745   1.137   5.190
 9107SOL    HW128141   5.767   1.076   5.266
 9107SOL    HW228142   5.755   1.088   5.104
 9108SOL     OW28143   6.933   1.059   4.958
 9108SOL    HW128144   6.957   0.996   4.884
 9108SOL    HW228145   6.843   1.099   4.940
 9109SOL     OW28146   6.888   0.855   4.033
 9109SOL    HW128147   6.802   0.824   4.075
 9109SOL    HW228148   6.884   0.841   3.934
 9110SOL     OW28149   6.838   1.731   4.852
 9110SOL    HW128150   6.922   1.736   4.798
 9110SOL    HW228151   6.815   1.635   4.870
 9111SOL     OW28152   5.669   1.258   4.746
 9111SOL    HW128153   5.664   1.257   4.846
 9111SOL    HW228154   5.586   1.217   4.708
 9112SOL     OW28155   6.274   1.662   5.440
 9112SOL    HW128156   6.218   1.743   5.449
 9112SOL    HW228157   6.326   1.666   5.354
 9113SOL     OW28158   6.974   1.573   4.201
 9113SOL    HW128159   7.041   1.585   4.127
 9113SOL    HW228160   6.934   1.662   4.224
 9114SOL     OW28161   5.716   1.794   5.575
 9114SOL    HW128162   5.675   1.720   5.628
 9114SOL    HW228163   5.780   1.845   5.633
 9115SOL     OW28164   6.866   0.927   4.396
 9115SOL    HW128165   6.926   0.846   4.398
 9115SOL    HW228166   6.906   0.996   4.336
 9116SOL     OW28167   6.416   1.273   5.146
 9116SOL    HW128168   6.411   1.306   5.241
 9116SOL    HW228169   6.330   1.292   5.100
 9117SOL     OW28170   6.258   1.616   3.878
 9117SOL    HW128171   6.267   1.626   3.779
 9117SOL    HW228172   6.218   1.527   3.899
 9118SOL     OW28173   5.849   0.326   4.444
 9118SOL    HW128174   5.770   0.377   4.410
 9118SOL    HW228175   5.840   0.311   4.542
 9119SOL     OW28176   6.780   1.612   3.755
 9119SOL    HW128177   6.786   1.519   3.792
 9119SOL    HW228178   6.721   1.612   3.675
 9120SOL     OW28179   6.408   1.002   5.096
 9120SOL    HW128180   6.448   1.001   5.004
 9120SOL    HW228181   6.418   1.094   5.136
 9121SOL     OW28182   6.502   0.910   4.015
 9121SOL    HW128183   6.565   0.948   3.947
 9121SOL    HW228184   6.542   0.827   4.054
 9122SOL     OW28185   5.958   1.288   5.214
 9122SOL    HW128186   5.945   1.381   5.180
 9122SOL    HW228187   5.874   1.236   5.201
 9123SOL     OW28188   6.625   1.098   4.420
 9123SOL    HW128189   6.555   1.051   4.474
 9123SOL    HW228190   6.684   1.030   4.377
 9124SOL     OW28191   6.600   0.236   4.695
 9124SOL    HW128192   6.592   0.200   4.602
 9124SOL    HW228193   6.598   0.160   4.760
 9125SOL     OW28194   6.176   1.487   4.215
 9125SOL    HW128195   6.218   1.429   4.145
 9125SOL    HW228196   6.132   1.566   4.171
 9126SOL     OW28197   5.841   1.348   4.014
 9126SOL    HW128198   5.745   1.349   3.987
 9126SOL    HW228199   5.853   1.401   4.098
 9127SOL     OW28200   5.691   1.013   5.450
 9127SOL    HW128201   5.614   0.980   5.504
 9127SOL    HW228202   5.776   0.983   5.492
 9128SOL     OW28203   6.258   0.203   5.213
 9128SOL    HW128204   6.348   0.187   5.173
 9128SOL    HW228205   6.266   0.208   5.312
 9129SOL     OW28206   5.661   0.345   3.757
 9129SOL    HW128207   5.569   0.317   3.728
 9129SOL    HW228208   5.692   0.422   3.701
 9130SOL     OW28209   5.658   0.166   4.042
 9130SOL    HW128210   5.641   0.249   3.988
 9130SOL    HW228211   5.748   0.129   4.020
 9131SOL     OW28212   6.199   0.842   5.155
 9131SOL    HW128213   6.255   0.923   5.138
 9131SOL    HW228214   6.258   0.762   5.158
 9132SOL     OW28215   6.302   0.565   5.432
 9132SOL    HW128216   6.321   0.630   5.506
 9132SOL    HW228217   6.362   0.485   5.441
 9133SOL     OW28218   7.036   1.220   5.357
 9133SOL    HW128219   7.027   1.210   5.456
 9133SOL    HW228220   7.132   1.213   5.331
 9134SOL     OW28221   5.976   1.741   5.284
 9134SOL    HW128222   5.885   1.782   5.282
 9134SOL    HW228223   5.969   1.647   5.316
 9135SOL     OW28224   6.811   0.325   4.173
 9135SOL    HW128225   6.876   0.251   4.162
 9135SOL    HW228226   6.831   0.375   4.257
 9136SOL     OW28227   6.180   0.745   4.376
 9136SOL    HW128228   6.230   0.830   4.357
 9136SOL    HW228229   6.092   0.747   4.328
 9137SOL     OW28230   6.445   1.374   3.740
 9137SOL    HW128231   6.399   1.389   3.828
 9137SOL    HW228232   6.489   1.459   3.710
 9138SOL     OW28233   6.247   1.790   4.677
 9138SOL    HW128234   6.201   1.878   4.664
 9138SOL    HW228235   6.346   1.802   4.670
 9139SOL     OW28236   6.445   0.956   4.585
 9139SOL    HW128237   6.499   0.887   4.633
 9139SOL    HW228238   6.413   1.025   4.651
 9140SOL     OW28239   6.669   0.984   3.811
 9140SOL    HW128240   6.646   1.037   3.729
 9140SOL    HW228241   6.750   0.928   3.792
 9141SOL     OW28242   5.807   1.314   5.568
 9141SOL    HW128243   5.742   1.241   5.547
 9141SOL    HW228244   5.811   1.328   5.666
 9142SOL     OW28245   5.665   1.240   4.377
 9142SOL    HW128246   5.664   1.193   4.465
 9142SOL    HW228247   5.747   1.212   4.326
 9143SOL     OW28248   6.258   1.391   5.348
 9143SOL    HW128249   6.180   1.341   5.386
 9143SOL    HW228250   6.255   1.486   5.379
 9144SOL     OW28251   6.014   0.424   4.244
 9144SOL    HW128252   6.044   0.352   4.182
 9144SOL    HW228253   5.975   0.384   4.327
 9145SOL     OW28254   5.903   0.547   5.004
 9145SOL    HW128255   5.941   0.488   5.076
 9145SOL    HW228256   5.943   0.521   4.916
 9146SOL     OW28257   6.398   1.586   4.411
 9146SOL    HW128258   6.430   1.596   4.317
 9146SOL    HW228259   6.319   1.524   4.413
 9147SOL     OW28260   7.010   0.214   4.836
 9147SOL    HW128261   7.062   0.149   4.891
 9147SOL    HW228262   6.961   0.277   4.897
 9148SOL     OW28263   6.587   0.034   4.878
 9148SOL    HW128264   6.524  -0.038   4.847
 9148SOL    HW228265   6.680  -0.002   4.878
 9149SOL     OW28266   6.356   1.330   4.025
 9149SOL    HW128267   6.310   1.243   4.042
 9149SOL    HW228268   6.447   1.327   4.066
 9150SOL     OW28269   6.204   1.567   5.008
 9150SOL    HW128270   6.199   1.649   5.065
 9150SOL    HW228271   6.293   1.564   4.963
 9151SOL     OW28272   5.625   1.077   4.024
 9151SOL    HW128273   5.724   1.066   4.015
 9151SOL    HW228274   5.585   0.991   4.056
 9152SOL     OW28275   6.461   1.646   4.061
 9152SOL    HW128276   6.384   1.611   4.007
 9152SOL    HW228277   6.429   1.717   4.123
 9153SOL     OW28278   5.816   0.628   5.699
 9153SOL    HW128279   5.723   0.626   5.736
 9153SOL    HW228280   5.817   0.589   5.607
 9154SOL     OW28281   5.811   0.275   6.582
 9154SOL    HW128282   5.846   0.258   6.674
 9154SOL    HW228283   5.723   0.230   6.570
 9155SOL     OW28284   5.605   0.368   6.233
 9155SOL    HW128285   5.523   0.411   6.272
 9155SOL    HW228286   5.577   0.295   6.170
 9156SOL     OW28287   6.155   1.275   6.751
 9156SOL    HW128288   6.062   1.268   6.714
 9156SOL    HW228289   6.166   1.364   6.795
 9157SOL     OW28290   7.141   1.511   6.289
 9157SOL    HW128291   7.084   1.495   6.370
 9157SOL    HW228292   7.082   1.521   6.209
 9158SOL     OW28293   6.721   0.703   6.303
 9158SOL    HW128294   6.778   0.781   6.278
 9158SOL    HW228295   6.661   0.729   6.379
 9159SOL     OW28296   6.354   1.144   6.609
 9159SOL    HW128297   6.276   1.161   6.669
 9159SOL    HW228298   6.388   1.231   6.573
 9160SOL     OW28299   6.271   1.012   6.251
 9160SOL    HW128300   6.340   0.996   6.321
 9160SOL    HW228301   6.198   1.069   6.289
 9161SOL     OW28302   5.921   1.435   6.647
 9161SOL    HW128303   5.843   1.404   6.594
 9161SOL    HW228304   5.979   1.493   6.590
 9162SOL     OW28305   5.817   1.713   6.069
 9162SOL    HW128306   5.851   1.790   6.123
 9162SOL    HW228307   5.861   1.713   5.979
 9163SOL     OW28308   5.816   1.434   6.124
 9163SOL    HW128309   5.790   1.530   6.124
 9163SOL    HW228310   5.745   1.380   6.169
 9164SOL     OW28311   5.826   1.091   6.472
 9164SOL    HW128312   5.840   1.007   6.524
 9164SOL    HW228313   5.771   1.155   6.527
 9165SOL     OW28314   6.206   1.786   7.025
 9165SOL    HW128315   6.114   1.769   7.060
 9165SOL    HW228316   6.234   1.878   7.051
 9166SOL     OW28317   6.192   0.964   5.709
 9166SOL    HW128318   6.199   1.048   5.655
 9166SOL    HW228319   6.238   0.977   5.797
 9167SOL     OW28320   5.708   0.643   6.149
 9167SOL    HW128321   5.663   0.555   6.166
 9167SOL    HW228322   5.707   0.697   6.233
 9168SOL     OW28323   5.613   1.596   5.703
 9168SOL    HW128324   5.594   1.500   5.724
 9168SOL    HW228325   5.580   1.654   5.778
 9169SOL     OW28326   6.199   1.365   6.312
 9169SOL    HW128327   6.150   1.278   6.321
 9169SOL    HW228328   6.176   1.408   6.225
 9170SOL     OW28329   6.879   1.228   7.009
 9170SOL    HW128330   6.916   1.155   6.951
 9170SOL    HW228331   6.931   1.233   7.094
 9171SOL     OW28332   6.395   0.004   6.088
 9171SOL    HW128333   6.435   0.095   6.079
 9171SOL    HW228334   6.295   0.012   6.094
 9172SOL     OW28335   5.783   0.976   6.850
 9172SOL    HW128336   5.872   0.931   6.836
 9172SOL    HW228337   5.710   0.911   6.831
 9173SOL     OW28338   6.184   0.729   5.856
 9173SOL    HW128339   6.208   0.798   5.788
 9173SOL    HW228340   6.106   0.762   5.910
 9174SOL     OW28341   6.867   0.345   6.530
 9174SOL    HW128342   6.781   0.295   6.517
 9174SOL    HW228343   6.929   0.291   6.586
 9175SOL     OW28344   6.393   0.605   7.051
 9175SOL    HW128345   6.346   0.602   7.140
 9175SOL    HW228346   6.342   0.550   6.985
 9176SOL     OW28347   6.577   0.410   6.828
 9176SOL    HW128348   6.500   0.444   6.882
 9176SOL    HW228349   6.543   0.359   6.749
 9177SOL     OW28350   6.627   0.701   6.015
 9177SOL    HW128351   6.653   0.697   6.111
 9177SOL    HW228352   6.542   0.650   6.001
 9178SOL     OW28353   5.662   0.811   6.375
 9178SOL    HW128354   5.761   0.799   6.384
 9178SOL    HW228355   5.638   0.906   6.396
 9179SOL     OW28356   5.716   1.821   7.157
 9179SOL    HW128357   5.706   1.806   7.256
 9179SOL    HW228358   5.630   1.857   7.121
 9180SOL     OW28359   6.451   0.348   5.781
 9180SOL    HW128360   6.510   0.411   5.732
 9180SOL    HW228361   6.470   0.254   5.752
 9181SOL     OW28362   6.948   1.144   6.131
 9181SOL    HW128363   7.031   1.115   6.083
 9181SOL    HW228364   6.899   1.211   6.075
 9182SOL     OW28365   6.136   0.196   6.471
 9182SOL    HW128366   6.131   0.191   6.571
 9182SOL    HW228367   6.138   0.292   6.442
 9183SOL     OW28368   6.594   1.456   6.063
 9183SOL    HW128369   6.548   1.528   6.011
 9183SOL    HW228370   6.590   1.476   6.161
 9184SOL     OW28371   5.937   1.801   6.439
 9184SOL    HW128372   5.987   1.715   6.445
 9184SOL    HW228373   6.002   1.878   6.436
 9185SOL     OW28374   5.907   0.943   5.828
 9185SOL    HW128375   5.989   0.982   5.786
 9185SOL    HW228376   5.880   0.861   5.779
 9186SOL     OW28377   6.697   1.776   5.823
 9186SOL    HW128378   6.637   1.714   5.873
 9186SOL    HW228379   6.728   1.732   5.738
 9187SOL     OW28380   6.050   1.743   5.909
 9187SOL    HW128381   6.083   1.782   5.995
 9187SOL    HW228382   6.126   1.736   5.844
 9188SOL     OW28383   5.835   1.785   6.827
 9188SOL    HW128384   5.892   1.720   6.877
 9188SOL    HW228385   5.819   1.752   6.734
 9189SOL     OW28386   6.526   1.698   6.490
 9189SOL    HW128387   6.606   1.641   6.511
 9189SOL    HW228388   6.477   1.658   6.413
 9190SOL     OW28389   5.968   0.700   6.066
 9190SOL    HW128390   6.013   0.610   6.063
 9190SOL    HW228391   5.874   0.689   6.099
 9191SOL     OW28392   6.200   0.122   5.703
 9191SOL    HW128393   6.298   0.100   5.710
 9191SOL    HW228394   6.169   0.105   5.610
 9192SOL     OW28395   6.474   1.514   6.781
 9192SOL    HW128396   6.451   1.489   6.687
 9192SOL    HW228397   6.535   1.445   6.820
 9193SOL     OW28398   6.389   1.402   6.510
 9193SOL    HW128399   6.479   1.416   6.468
 9193SOL    HW228400   6.318   1.404   6.439
 9194SOL     OW28401   6.508   0.503   6.485
 9194SOL    HW128402   6.483   0.494   6.389
 9194SOL    HW228403   6.556   0.421   6.516
 9195SOL     OW28404   6.125   0.064   6.098
 9195SOL    HW128405   6.044   0.065   6.156
 9195SOL    HW228406   6.128   0.147   6.043
 9196SOL     OW28407   7.020   1.188   5.627
 9196SOL    HW128408   7.052   1.112   5.684
 9196SOL    HW228409   6.928   1.215   5.657
 9197SOL     OW28410   5.883   0.035   5.757
 9197SOL    HW128411   5.932   0.119   5.736
 9197SOL    HW228412   5.945  -0.030   5.802
 9198SOL     OW28413   6.521   0.236   6.066
 9198SOL    HW128414   6.473   0.277   5.988
 9198SOL    HW228415   6.620   0.234   6.047
 9199SOL     OW28416   6.813   1.570   6.379
 9199SOL    HW128417   6.834   1.644   6.314
 9199SOL    HW228418   6.881   1.570   6.452
 9200SOL     OW28419   6.045   1.152   6.327
 9200SOL    HW128420   5.974   1.125   6.392
 9200SOL    HW228421   6.019   1.124   6.234
 9201SOL     OW28422   6.857   1.797   6.177
 9201SOL    HW128423   6.901   1.861   6.113
 9201SOL    HW228424   6.807   1.849   6.247
 9202SOL     OW28425   6.618   0.549   5.602
 9202SOL    HW128426   6.577   0.631   5.563
 9202SOL    HW228427   6.682   0.575   5.675
 9203SOL     OW28428   6.147   0.222   6.733
 9203SOL    HW128429   6.185   0.138   6.770
 9203SOL    HW228430   6.059   0.241   6.777
 9204SOL     OW28431   6.452   0.454   6.228
 9204SOL    HW128432   6.420   0.526   6.166
 9204SOL    HW228433   6.476   0.373   6.175
 9205SOL     OW28434   6.603   0.039   6.339
 9205SOL    HW128435   6.531   0.044   6.270
 9205SOL    HW228436   6.579  -0.030   6.408
 9206SOL     OW28437   6.074   1.385   5.760
 9206SOL    HW128438   5.987   1.370   5.807
 9206SOL    HW228439   6.057   1.411   5.665
 9207SOL     OW28440   6.113   0.256   5.914
 9207SOL    HW128441   6.140   0.197   5.839
 9207SOL    HW228442   6.113   0.351   5.883
 9208SOL     OW28443   7.178   1.629   7.211
 9208SOL    HW128444   7.205   1.663   7.121
 9208SOL    HW228445   7.257   1.591   7.257
 9209SOL     OW28446   6.697   1.195   6.686
 9209SOL    HW128447   6.657   1.239   6.767
 9209SOL    HW228448   6.656   1.232   6.603
 9210SOL     OW28449   6.291   1.050   5.954
 9210SOL    HW128450   6.277   1.057   6.053
 9210SOL    HW228451   6.375   0.999   5.936
 9211SOL     OW28452   5.996   0.813   6.837
 9211SOL    HW128453   6.082   0.825   6.887
 9211SOL    HW228454   5.954   0.726   6.864
 9212SOL     OW28455   6.860   0.386   6.848
 9212SOL    HW128456   6.881   0.460   6.912
 9212SOL    HW228457   6.771   0.403   6.805
 9213SOL     OW28458   5.650   1.564   6.917
 9213SOL    HW128459   5.604   1.646   6.883
 9213SOL    HW228460   5.748   1.583   6.926
 9214SOL     OW28461   5.953   1.100   6.087
 9214SOL    HW128462   5.946   1.183   6.031
 9214SOL    HW228463   5.957   1.020   6.027
 9215SOL     OW28464   6.152   0.537   6.451
 9215SOL    HW128465   6.164   0.603   6.377
 9215SOL    HW228466   6.198   0.571   6.534
 9216SOL     OW28467   6.838   1.348   5.974
 9216SOL    HW128468   6.888   1.425   6.014
 9216SOL    HW228469   6.743   1.350   6.006
 9217SOL     OW28470   6.858   1.445   6.728
 9217SOL    HW128471   6.905   1.458   6.815
 9217SOL    HW228472   6.792   1.371   6.737
 9218SOL     OW28473   5.940   1.510   6.915
 9218SOL    HW128474   5.919   1.466   6.828
 9218SOL    HW228475   6.037   1.536   6.918
 9219SOL     OW28476   6.159   0.870   6.615
 9219SOL    HW128477   6.203   0.959   6.606
 9219SOL    HW228478   6.096   0.870   6.692
 9220SOL     OW28479   6.946   0.862   6.631
 9220SOL    HW128480   6.871   0.862   6.565
 9220SOL    HW228481   6.983   0.770   6.640
 9221SOL     OW28482   6.795   0.525   5.861
 9221SOL    HW128483   6.808   0.441   5.915
 9221SOL    HW228484   6.766   0.599   5.921
 9222SOL     OW28485   5.893   0.213   6.817
 9222SOL    HW128486   5.870   0.250   6.907
 9222SOL    HW228487   5.863   0.118   6.811
 9223SOL     OW28488   5.623   1.310   6.868
 9223SOL    HW128489   5.676   1.261   6.936
 9223SOL    HW228490   5.645   1.408   6.873
 9224SOL     OW28491   6.318   0.634   6.650
 9224SOL    HW128492   6.377   0.608   6.574
 9224SOL    HW228493   6.290   0.730   6.639
 9225SOL     OW28494   5.893   0.063   6.204
 9225SOL    HW128495   5.882   0.157   6.237
 9225SOL    HW228496   5.888   0.000   6.281
 9226SOL     OW28497   7.208   0.367   5.960
 9226SOL    HW128498   7.210   0.291   6.024
 9226SOL    HW228499   7.160   0.444   6.000
 9227SOL     OW28500   6.609   0.766   6.552
 9227SOL    HW128501   6.624   0.787   6.648
 9227SOL    HW228502   6.579   0.671   6.543
 9228SOL     OW28503   6.889   0.838   5.628
 9228SOL    HW128504   6.923   0.745   5.643
 9228SOL    HW228505   6.907   0.865   5.533
 9229SOL     OW28506   6.654   1.333   6.435
 9229SOL    HW128507   6.661   1.249   6.380
 9229SOL    HW228508   6.716   1.402   6.399
 9230SOL     OW28509   5.905   0.810   6.535
 9230SOL    HW128510   5.998   0.846   6.540
 9230SOL    HW228511   5.899   0.725   6.587
 9231SOL     OW28512   5.925   0.509   6.592
 9231SOL    HW128513   5.873   0.426   6.575
 9231SOL    HW228514   6.002   0.514   6.528
 9232SOL     OW28515   6.746   0.207   7.063
 9232SOL    HW128516   6.746   0.271   7.140
 9232SOL    HW228517   6.774   0.255   6.980
 9233SOL     OW28518   5.594   1.326   5.786
 9233SOL    HW128519   5.501   1.347   5.755
 9233SOL    HW228520   5.604   1.227   5.799
 9234SOL     OW28521   5.674   1.801   6.513
 9234SOL    HW128522   5.632   1.715   6.486
 9234SOL    HW228523   5.768   1.804   6.479
 9235SOL     OW28524   6.090   1.568   6.496
 9235SOL    HW128525   6.156   1.642   6.505
 9235SOL    HW228526   6.134   1.489   6.454
 9236SOL     OW28527   6.588   0.796   6.824
 9236SOL    HW128528   6.629   0.764   6.910
 9236SOL    HW228529   6.492   0.769   6.821
 9237SOL     OW28530   5.626   0.544   6.700
 9237SOL    HW128531   5.711   0.511   6.659
 9237SOL    HW228532   5.639   0.559   6.798
 9238SOL     OW28533   6.401   0.572   5.911
 9238SOL    HW128534   6.408   0.483   5.865
 9238SOL    HW228535   6.307   0.606   5.903
 9239SOL     OW28536   6.257   0.464   6.855
 9239SOL    HW128537   6.223   0.375   6.825
 9239SOL    HW228538   6.283   0.518   6.775
 9240SOL     OW28539   6.516   1.678   7.051
 9240SOL    HW128540   6.492   1.660   6.956
 9240SOL    HW228541   6.546   1.772   7.061
 9241SOL     OW28542   6.059   0.500   5.777
 9241SOL    HW128543   6.120   0.580   5.781
 9241SOL    HW228544   5.964   0.531   5.784
 9242SOL     OW28545   5.745   1.137   7.052
 9242SOL    HW128546   5.767   1.076   7.128
 9242SOL    HW228547   5.755   1.088   6.966
 9243SOL     OW28548   6.933   1.059   6.820
 9243SOL    HW128549   6.957   0.996   6.746
 9243SOL    HW228550   6.843   1.099   6.802
 9244SOL     OW28551   6.888   0.855   5.895
 9244SOL    HW128552   6.802   0.824   5.937
 9244SOL    HW228553   6.884   0.841   5.796
 9245SOL     OW28554   6.838   1.731   6.714
 9245SOL    HW128555   6.922   1.736   6.660
 9245SOL    HW228556   6.815   1.635   6.732
 9246SOL     OW28557   5.669   1.258   6.608
 9246SOL    HW128558   5.664   1.257   6.708
 9246SOL    HW228559   5.586   1.217   6.570
 9247SOL     OW28560   6.974   1.573   6.063
 9247SOL    HW128561   7.041   1.585   5.989
 9247SOL    HW228562   6.934   1.662   6.086
 9248SOL     OW28563   6.866   0.927   6.258
 9248SOL    HW128564   6.926   0.846   6.260
 9248SOL    HW228565   6.906   0.996   6.198
 9249SOL     OW28566   6.258   1.616   5.740
 9249SOL    HW128567   6.267   1.626   5.641
 9249SOL    HW228568   6.218   1.527   5.761
 9250SOL     OW28569   5.849   0.326   6.306
 9250SOL    HW128570   5.770   0.377   6.272
 9250SOL    HW228571   5.840   0.311   6.404
 9251SOL     OW28572   6.780   1.612   5.617
 9251SOL    HW128573   6.786   1.519   5.654
 9251SOL    HW228574   6.721   1.612   5.537
 9252SOL     OW28575   6.408   1.002   6.958
 9252SOL    HW128576   6.448   1.001   6.866
 9252SOL    HW228577   6.418   1.094   6.998
 9253SOL     OW28578   6.502   0.910   5.877
 9253SOL    HW128579   6.565   0.948   5.809
 9253SOL    HW228580   6.542   0.827   5.916
 9254SOL     OW28581   6.625   1.098   6.282
 9254SOL    HW128582   6.555   1.051   6.336
 9254SOL    HW228583   6.684   1.030   6.239
 9255SOL     OW28584   6.600   0.236   6.557
 9255SOL    HW128585   6.592   0.200   6.464
 9255SOL    HW228586   6.598   0.160   6.622
 9256SOL     OW28587   6.176   1.487   6.077
 9256SOL    HW128588   6.218   1.429   6.007
 9256SOL    HW228589   6.132   1.566   6.033
 9257SOL     OW28590   5.841   1.348   5.876
 9257SOL    HW128591   5.745   1.349   5.849
 9257SOL    HW228592   5.853   1.401   5.960
 9258SOL     OW28593   5.661   0.345   5.619
 9258SOL    HW128594   5.569   0.317   5.590
 9258SOL    HW228595   5.692   0.422   5.563
 9259SOL     OW28596   5.658   0.166   5.904
 9259SOL    HW128597   5.641   0.249   5.850
 9259SOL    HW228598   5.748   0.129   5.882
 9260SOL     OW28599   5.976   1.741   7.146
 9260SOL    HW128600   5.885   1.782   7.144
 9260SOL    HW228601   5.969   1.647   7.178
 9261SOL     OW28602   6.811   0.325   6.035
 9261SOL    HW128603   6.876   0.251   6.024
 9261SOL    HW228604   6.831   0.375   6.119
 9262SOL     OW28605   6.180   0.745   6.238
 9262SOL    HW128606   6.230   0.830   6.219
 9262SOL    HW228607   6.092   0.747   6.190
 9263SOL     OW28608   6.445   1.374   5.602
 9263SOL    HW128609   6.399   1.389   5.690
 9263SOL    HW228610   6.489   1.459   5.572
 9264SOL     OW28611   6.247   1.790   6.539
 9264SOL    HW128612   6.201   1.878   6.526
 9264SOL    HW228613   6.346   1.802   6.532
 9265SOL     OW28614   6.445   0.956   6.447
 9265SOL    HW128615   6.499   0.887   6.495
 9265SOL    HW228616   6.413   1.025   6.513
 9266SOL     OW28617   6.669   0.984   5.673
 9266SOL    HW128618   6.646   1.037   5.591
 9266SOL    HW228619   6.750   0.928   5.654
 9267SOL     OW28620   5.665   1.240   6.239
 9267SOL    HW128621   5.664   1.193   6.327
 9267SOL    HW228622   5.747   1.212   6.188
 9268SOL     OW28623   6.014   0.424   6.106
 9268SOL    HW128624   6.044   0.352   6.044
 9268SOL    HW228625   5.975   0.384   6.189
 9269SOL     OW28626   5.903   0.547   6.866
 9269SOL    HW128627   5.941   0.488   6.938
 9269SOL    HW228628   5.943   0.521   6.778
 9270SOL     OW28629   6.398   1.586   6.273
 9270SOL    HW128630   6.430   1.596   6.179
 9270SOL    HW228631   6.319   1.524   6.275
 9271SOL     OW28632   7.010   0.214   6.698
 9271SOL    HW128633   7.062   0.149   6.753
 9271SOL    HW228634   6.961   0.277   6.759
 9272SOL     OW28635   6.587   0.034   6.740
 9272SOL    HW128636   6.524  -0.038   6.709
 9272SOL    HW228637   6.680  -0.002   6.740
 9273SOL     OW28638   6.356   1.330   5.887
 9273SOL    HW128639   6.310   1.243   5.904
 9273SOL    HW228640   6.447   1.327   5.928
 9274SOL     OW28641   6.204   1.567   6.870
 9274SOL    HW128642   6.199   1.649   6.927
 9274SOL    HW228643   6.293   1.564   6.825
 9275SOL     OW28644   5.625   1.077   5.886
 9275SOL    HW128645   5.724   1.066   5.877
 9275SOL    HW228646   5.585   0.991   5.918
 9276SOL     OW28647   6.461   1.646   5.923
 9276SOL    HW128648   6.384   1.611   5.869
 9276SOL    HW228649   6.429   1.717   5.985
 9277SOL     OW28650   5.816   2.490   0.113
 9277SOL    HW128651   5.723   2.488   0.150
 9277SOL    HW228652   5.817   2.451   0.021
 9278SOL     OW28653   5.811   2.137   0.996
 9278SOL    HW128654   5.846   2.120   1.088
 9278SOL    HW228655   5.723   2.092   0.984
 9279SOL     OW28656   5.605   2.230   0.647
 9279SOL    HW128657   5.523   2.273   0.686
 9279SOL    HW228658   5.577   2.157   0.584
 9280SOL     OW28659   6.155   3.137   1.165
 9280SOL    HW128660   6.062   3.130   1.128
 9280SOL    HW228661   6.166   3.226   1.209
 9281SOL     OW28662   7.141   3.373   0.703
 9281SOL    HW128663   7.084   3.357   0.784
 9281SOL    HW228664   7.082   3.383   0.623
 9282SOL     OW28665   6.721   2.565   0.717
 9282SOL    HW128666   6.778   2.643   0.692
 9282SOL    HW228667   6.661   2.591   0.793
 9283SOL     OW28668   6.354   3.006   1.023
 9283SOL    HW128669   6.276   3.023   1.083
 9283SOL    HW228670   6.388   3.093   0.987
 9284SOL     OW28671   6.436   2.660   1.823
 9284SOL    HW128672   6.432   2.736   1.888
 9284SOL    HW228673   6.458   2.696   1.732
 9285SOL     OW28674   6.271   2.874   0.665
 9285SOL    HW128675   6.340   2.858   0.735
 9285SOL    HW228676   6.198   2.931   0.703
 9286SOL     OW28677   6.272   3.023   1.803
 9286SOL    HW128678   6.332   3.102   1.817
 9286SOL    HW228679   6.186   3.054   1.762
 9287SOL     OW28680   5.921   3.297   1.061
 9287SOL    HW128681   5.843   3.266   1.008
 9287SOL    HW228682   5.979   3.355   1.004
 9288SOL     OW28683   6.024   2.254   1.499
 9288SOL    HW128684   6.106   2.198   1.508
 9288SOL    HW228685   5.943   2.196   1.503
 9289SOL     OW28686   5.817   3.575   0.483
 9289SOL    HW128687   5.851   3.652   0.537
 9289SOL    HW228688   5.861   3.575   0.393
 9290SOL     OW28689   6.713   3.203   1.690
 9290SOL    HW128690   6.760   3.203   1.778
 9290SOL    HW228691   6.665   3.116   1.679
 9291SOL     OW28692   5.816   3.296   0.538
 9291SOL    HW128693   5.790   3.392   0.538
 9291SOL    HW228694   5.745   3.242   0.583
 9292SOL     OW28695   5.826   2.953   0.886
 9292SOL    HW128696   5.840   2.869   0.938
 9292SOL    HW228697   5.771   3.017   0.941
 9293SOL     OW28698   6.206   3.648   1.439
 9293SOL    HW128699   6.114   3.631   1.474
 9293SOL    HW228700   6.234   3.740   1.465
 9294SOL     OW28701   6.192   2.826   0.123
 9294SOL    HW128702   6.199   2.910   0.069
 9294SOL    HW228703   6.238   2.839   0.211
 9295SOL     OW28704   5.708   2.505   0.563
 9295SOL    HW128705   5.663   2.417   0.580
 9295SOL    HW228706   5.707   2.559   0.647
 9296SOL     OW28707   5.613   3.458   0.117
 9296SOL    HW128708   5.594   3.362   0.138
 9296SOL    HW228709   5.580   3.516   0.192
 9297SOL     OW28710   5.699   2.599   1.597
 9297SOL    HW128711   5.787   2.586   1.642
 9297SOL    HW228712   5.686   2.696   1.575
 9298SOL     OW28713   6.199   3.227   0.726
 9298SOL    HW128714   6.150   3.140   0.735
 9298SOL    HW228715   6.176   3.270   0.639
 9299SOL     OW28716   6.879   3.090   1.423
 9299SOL    HW128717   6.916   3.017   1.365
 9299SOL    HW228718   6.931   3.095   1.508
 9300SOL     OW28719   6.395   1.866   0.502
 9300SOL    HW128720   6.435   1.957   0.493
 9300SOL    HW228721   6.295   1.874   0.508
 9301SOL     OW28722   5.783   2.838   1.264
 9301SOL    HW128723   5.872   2.793   1.250
 9301SOL    HW228724   5.710   2.773   1.245
 9302SOL     OW28725   6.773   3.654   1.616
 9302SOL    HW128726   6.797   3.714   1.540
 9302SOL    HW228727   6.780   3.559   1.586
 9303SOL     OW28728   5.903   2.113   1.801
 9303SOL    HW128729   5.974   2.184   1.807
 9303SOL    HW228730   5.815   2.152   1.829
 9304SOL     OW28731   6.184   2.591   0.270
 9304SOL    HW128732   6.208   2.660   0.202
 9304SOL    HW228733   6.106   2.624   0.324
 9305SOL     OW28734   6.867   2.207   0.944
 9305SOL    HW128735   6.781   2.157   0.931
 9305SOL    HW228736   6.929   2.153   1.000
 9306SOL     OW28737   6.393   2.467   1.465
 9306SOL    HW128738   6.346   2.464   1.554
 9306SOL    HW228739   6.342   2.412   1.399
 9307SOL     OW28740   6.980   2.331   1.674
 9307SOL    HW128741   6.960   2.374   1.762
 9307SOL    HW228742   7.058   2.269   1.683
 9308SOL     OW28743   6.559   2.752   1.572
 9308SOL    HW128744   6.605   2.668   1.543
 9308SOL    HW228745   6.503   2.786   1.497
 9309SOL     OW28746   6.577   2.272   1.242
 9309SOL    HW128747   6.500   2.306   1.296
 9309SOL    HW228748   6.543   2.221   1.163
 9310SOL     OW28749   6.627   2.563   0.429
 9310SOL    HW128750   6.653   2.559   0.525
 9310SOL    HW228751   6.542   2.512   0.415
 9311SOL     OW28752   5.662   2.673   0.789
 9311SOL    HW128753   5.761   2.661   0.798
 9311SOL    HW228754   5.638   2.768   0.810
 9312SOL     OW28755   5.716   3.683   1.571
 9312SOL    HW128756   5.706   3.668   1.670
 9312SOL    HW228757   5.630   3.719   1.535
 9313SOL     OW28758   6.451   2.210   0.195
 9313SOL    HW128759   6.510   2.273   0.146
 9313SOL    HW228760   6.470   2.116   0.166
 9314SOL     OW28761   6.948   3.006   0.545
 9314SOL    HW128762   7.031   2.977   0.497
 9314SOL    HW228763   6.899   3.073   0.489
 9315SOL     OW28764   6.136   2.058   0.885
 9315SOL    HW128765   6.131   2.053   0.985
 9315SOL    HW228766   6.138   2.154   0.856
 9316SOL     OW28767   6.594   3.318   0.477
 9316SOL    HW128768   6.548   3.390   0.425
 9316SOL    HW228769   6.590   3.338   0.575
 9317SOL     OW28770   5.937   3.663   0.853
 9317SOL    HW128771   5.987   3.577   0.859
 9317SOL    HW228772   6.002   3.740   0.850
 9318SOL     OW28773   6.813   3.412   1.506
 9318SOL    HW128774   6.819   3.335   1.570
 9318SOL    HW228775   6.761   3.386   1.426
 9319SOL     OW28776   5.907   2.805   0.242
 9319SOL    HW128777   5.989   2.844   0.200
 9319SOL    HW228778   5.880   2.723   0.193
 9320SOL     OW28779   6.047   3.128   1.727
 9320SOL    HW128780   5.997   3.129   1.641
 9320SOL    HW228781   5.984   3.110   1.803
 9321SOL     OW28782   6.697   3.638   0.237
 9321SOL    HW128783   6.637   3.576   0.287
 9321SOL    HW228784   6.728   3.594   0.152
 9322SOL     OW28785   5.788   2.147   1.498
 9322SOL    HW128786   5.708   2.207   1.485
 9322SOL    HW228787   5.778   2.098   1.584
 9323SOL     OW28788   7.218   3.239   0.081
 9323SOL    HW128789   7.186   3.333   0.071
 9323SOL    HW228790   7.142   3.176   0.069
 9324SOL     OW28791   6.050   3.605   0.323
 9324SOL    HW128792   6.083   3.644   0.409
 9324SOL    HW228793   6.126   3.598   0.258
 9325SOL     OW28794   5.835   3.647   1.241
 9325SOL    HW128795   5.892   3.582   1.291
 9325SOL    HW228796   5.819   3.614   1.148
 9326SOL     OW28797   6.526   3.560   0.904
 9326SOL    HW128798   6.606   3.503   0.925
 9326SOL    HW228799   6.477   3.520   0.827
 9327SOL     OW28800   5.968   2.562   0.480
 9327SOL    HW128801   6.013   2.472   0.477
 9327SOL    HW228802   5.874   2.551   0.513
 9328SOL     OW28803   6.367   2.126   1.749
 9328SOL    HW128804   6.434   2.065   1.792
 9328SOL    HW228805   6.294   2.145   1.814
 9329SOL     OW28806   6.474   3.376   1.195
 9329SOL    HW128807   6.451   3.351   1.101
 9329SOL    HW228808   6.535   3.307   1.234
 9330SOL     OW28809   6.389   3.264   0.924
 9330SOL    HW128810   6.479   3.278   0.882
 9330SOL    HW228811   6.318   3.266   0.853
 9331SOL     OW28812   6.508   2.365   0.899
 9331SOL    HW128813   6.483   2.356   0.803
 9331SOL    HW228814   6.556   2.283   0.930
 9332SOL     OW28815   6.125   1.926   0.512
 9332SOL    HW128816   6.044   1.927   0.570
 9332SOL    HW228817   6.128   2.009   0.457
 9333SOL     OW28818   6.521   2.098   0.480
 9333SOL    HW128819   6.473   2.139   0.402
 9333SOL    HW228820   6.620   2.096   0.461
 9334SOL     OW28821   6.662   2.545   1.464
 9334SOL    HW128822   6.582   2.484   1.467
 9334SOL    HW228823   6.743   2.492   1.440
 9335SOL     OW28824   6.813   3.432   0.793
 9335SOL    HW128825   6.834   3.506   0.728
 9335SOL    HW228826   6.881   3.432   0.866
 9336SOL     OW28827   6.045   3.014   0.741
 9336SOL    HW128828   5.974   2.987   0.806
 9336SOL    HW228829   6.019   2.986   0.648
 9337SOL     OW28830   6.857   3.659   0.591
 9337SOL    HW128831   6.901   3.723   0.527
 9337SOL    HW228832   6.807   3.711   0.661
 9338SOL     OW28833   6.618   2.411   0.016
 9338SOL    HW128834   6.577   2.493  -0.023
 9338SOL    HW228835   6.682   2.437   0.089
 9339SOL     OW28836   5.664   2.418   1.386
 9339SOL    HW128837   5.756   2.417   1.345
 9339SOL    HW228838   5.658   2.492   1.453
 9340SOL     OW28839   6.147   2.084   1.147
 9340SOL    HW128840   6.185   2.000   1.184
 9340SOL    HW228841   6.059   2.103   1.191
 9341SOL     OW28842   6.452   2.316   0.642
 9341SOL    HW128843   6.420   2.388   0.580
 9341SOL    HW228844   6.476   2.235   0.589
 9342SOL     OW28845   6.603   1.901   0.753
 9342SOL    HW128846   6.531   1.906   0.684
 9342SOL    HW228847   6.579   1.832   0.822
 9343SOL     OW28848   6.074   3.247   0.174
 9343SOL    HW128849   5.987   3.232   0.221
 9343SOL    HW228850   6.057   3.273   0.079
 9344SOL     OW28851   6.113   2.118   0.328
 9344SOL    HW128852   6.140   2.059   0.253
 9344SOL    HW228853   6.113   2.213   0.297
 9345SOL     OW28854   6.650   3.209   1.340
 9345SOL    HW128855   6.570   3.186   1.395
 9345SOL    HW228856   6.733   3.183   1.389
 9346SOL     OW28857   6.697   3.057   1.100
 9346SOL    HW128858   6.657   3.101   1.181
 9346SOL    HW228859   6.656   3.094   1.017
 9347SOL     OW28860   6.501   1.951   1.402
 9347SOL    HW128861   6.526   1.931   1.307
 9347SOL    HW228862   6.573   2.007   1.444
 9348SOL     OW28863   6.566   2.978   1.719
 9348SOL    HW128864   6.467   2.984   1.729
 9348SOL    HW228865   6.589   2.898   1.663
 9349SOL     OW28866   6.291   2.912   0.368
 9349SOL    HW128867   6.277   2.919   0.467
 9349SOL    HW228868   6.375   2.861   0.350
 9350SOL     OW28869   5.996   2.675   1.251
 9350SOL    HW128870   6.082   2.687   1.301
 9350SOL    HW228871   5.954   2.588   1.278
 9351SOL     OW28872   6.860   2.248   1.262
 9351SOL    HW128873   6.881   2.322   1.326
 9351SOL    HW228874   6.771   2.265   1.219
 9352SOL     OW28875   5.650   3.426   1.331
 9352SOL    HW128876   5.604   3.508   1.297
 9352SOL    HW228877   5.748   3.445   1.340
 9353SOL     OW28878   5.953   2.962   0.501
 9353SOL    HW128879   5.946   3.045   0.445
 9353SOL    HW228880   5.957   2.882   0.441
 9354SOL     OW28881   6.152   2.399   0.865
 9354SOL    HW128882   6.164   2.465   0.791
 9354SOL    HW228883   6.198   2.433   0.948
 9355SOL     OW28884   6.838   3.210   0.388
 9355SOL    HW128885   6.888   3.287   0.428
 9355SOL    HW228886   6.743   3.212   0.420
 9356SOL     OW28887   6.858   3.307   1.142
 9356SOL    HW128888   6.905   3.320   1.229
 9356SOL    HW228889   6.792   3.233   1.151
 9357SOL     OW28890   5.940   3.372   1.329
 9357SOL    HW128891   5.919   3.328   1.242
 9357SOL    HW228892   6.037   3.398   1.332
 9358SOL     OW28893   5.988   2.613   1.598
 9358SOL    HW128894   6.056   2.668   1.551
 9358SOL    HW228895   6.028   2.525   1.625
 9359SOL     OW28896   6.599   1.967   1.770
 9359SOL    HW128897   6.605   2.052   1.718
 9359SOL    HW228898   6.631   1.891   1.713
 9360SOL     OW28899   6.090   1.912   1.740
 9360SOL    HW128900   6.048   1.855   1.670
 9360SOL    HW228901   6.024   1.981   1.772
 9361SOL     OW28902   6.159   2.732   1.029
 9361SOL    HW128903   6.203   2.821   1.020
 9361SOL    HW228904   6.096   2.732   1.106
 9362SOL     OW28905   6.946   2.724   1.045
 9362SOL    HW128906   6.871   2.724   0.979
 9362SOL    HW228907   6.983   2.632   1.054
 9363SOL     OW28908   6.795   2.387   0.275
 9363SOL    HW128909   6.808   2.303   0.329
 9363SOL    HW228910   6.766   2.461   0.335
 9364SOL     OW28911   5.893   2.075   1.231
 9364SOL    HW128912   5.870   2.112   1.321
 9364SOL    HW228913   5.863   1.980   1.225
 9365SOL     OW28914   5.623   3.172   1.282
 9365SOL    HW128915   5.676   3.123   1.350
 9365SOL    HW228916   5.645   3.270   1.287
 9366SOL     OW28917   6.318   2.496   1.064
 9366SOL    HW128918   6.377   2.470   0.988
 9366SOL    HW228919   6.290   2.592   1.053
 9367SOL     OW28920   5.893   1.925   0.618
 9367SOL    HW128921   5.882   2.019   0.651
 9367SOL    HW228922   5.888   1.862   0.695
 9368SOL     OW28923   7.208   2.229   0.374
 9368SOL    HW128924   7.210   2.153   0.438
 9368SOL    HW228925   7.160   2.306   0.414
 9369SOL     OW28926   6.609   2.628   0.966
 9369SOL    HW128927   6.624   2.649   1.062
 9369SOL    HW228928   6.579   2.533   0.957
 9370SOL     OW28929   6.566   3.435   1.700
 9370SOL    HW128930   6.546   3.479   1.612
 9370SOL    HW228931   6.605   3.344   1.684
 9371SOL     OW28932   5.936   2.760   1.804
 9371SOL    HW128933   6.012   2.804   1.852
 9371SOL    HW228934   5.971   2.713   1.722
 9372SOL     OW28935   6.889   2.700   0.042
 9372SOL    HW128936   6.923   2.607   0.057
 9372SOL    HW228937   6.907   2.727  -0.053
 9373SOL     OW28938   6.654   3.195   0.849
 9373SOL    HW128939   6.661   3.111   0.794
 9373SOL    HW228940   6.716   3.264   0.813
 9374SOL     OW28941   5.905   2.672   0.949
 9374SOL    HW128942   5.998   2.708   0.954
 9374SOL    HW228943   5.899   2.587   1.001
 9375SOL     OW28944   5.925   2.371   1.006
 9375SOL    HW128945   5.873   2.288   0.989
 9375SOL    HW228946   6.002   2.376   0.942
 9376SOL     OW28947   6.724   2.242   1.678
 9376SOL    HW128948   6.679   2.305   1.742
 9376SOL    HW228949   6.817   2.273   1.661
 9377SOL     OW28950   6.746   2.069   1.477
 9377SOL    HW128951   6.746   2.133   1.554
 9377SOL    HW228952   6.774   2.117   1.394
 9378SOL     OW28953   5.674   3.663   0.927
 9378SOL    HW128954   5.632   3.577   0.900
 9378SOL    HW228955   5.768   3.666   0.893
 9379SOL     OW28956   6.090   3.430   0.910
 9379SOL    HW128957   6.156   3.504   0.919
 9379SOL    HW228958   6.134   3.351   0.868
 9380SOL     OW28959   6.588   2.658   1.238
 9380SOL    HW128960   6.629   2.626   1.324
 9380SOL    HW228961   6.492   2.631   1.235
 9381SOL     OW28962   5.626   2.406   1.114
 9381SOL    HW128963   5.711   2.373   1.073
 9381SOL    HW228964   5.639   2.421   1.212
 9382SOL     OW28965   5.775   2.382   1.722
 9382SOL    HW128966   5.834   2.342   1.652
 9382SOL    HW228967   5.717   2.453   1.681
 9383SOL     OW28968   6.401   2.434   0.325
 9383SOL    HW128969   6.408   2.345   0.279
 9383SOL    HW228970   6.307   2.468   0.317
 9384SOL     OW28971   5.838   3.426   1.744
 9384SOL    HW128972   5.808   3.483   1.820
 9384SOL    HW228973   5.831   3.329   1.770
 9385SOL     OW28974   6.257   2.326   1.269
 9385SOL    HW128975   6.223   2.237   1.239
 9385SOL    HW228976   6.283   2.380   1.189
 9386SOL     OW28977   6.516   3.540   1.465
 9386SOL    HW128978   6.492   3.522   1.370
 9386SOL    HW228979   6.546   3.634   1.475
 9387SOL     OW28980   6.059   2.362   0.191
 9387SOL    HW128981   6.120   2.442   0.195
 9387SOL    HW228982   5.964   2.393   0.198
 9388SOL     OW28983   5.745   2.999   1.466
 9388SOL    HW128984   5.767   2.938   1.542
 9388SOL    HW228985   5.755   2.950   1.380
 9389SOL     OW28986   6.933   2.921   1.234
 9389SOL    HW128987   6.957   2.858   1.160
 9389SOL    HW228988   6.843   2.961   1.216
 9390SOL     OW28989   6.888   2.717   0.309
 9390SOL    HW128990   6.802   2.686   0.351
 9390SOL    HW228991   6.884   2.703   0.210
 9391SOL     OW28992   6.838   3.593   1.128
 9391SOL    HW128993   6.922   3.598   1.074
 9391SOL    HW228994   6.815   3.497   1.146
 9392SOL     OW28995   5.669   3.120   1.022
 9392SOL    HW128996   5.664   3.119   1.122
 9392SOL    HW228997   5.586   3.079   0.984
 9393SOL     OW28998   6.274   3.524   1.716
 9393SOL    HW128999   6.218   3.605   1.725
 9393SOL    HW229000   6.326   3.528   1.630
 9394SOL     OW29001   6.489   1.948   0.133
 9394SOL    HW129002   6.540   1.949   0.047
 9394SOL    HW229003   6.545   1.906   0.204
 9395SOL     OW29004   6.974   3.435   0.477
 9395SOL    HW129005   7.041   3.447   0.403
 9395SOL    HW229006   6.934   3.524   0.500
 9396SOL     OW29007   5.716   3.656   1.851
 9396SOL    HW129008   5.675   3.582   1.904
 9396SOL    HW229009   5.780   3.707   1.909
 9397SOL     OW29010   6.866   2.789   0.672
 9397SOL    HW129011   6.926   2.708   0.674
 9397SOL    HW229012   6.906   2.858   0.612
 9398SOL     OW29013   6.416   3.135   1.422
 9398SOL    HW129014   6.411   3.168   1.517
 9398SOL    HW229015   6.330   3.154   1.376
 9399SOL     OW29016   6.258   3.478   0.154
 9399SOL    HW129017   6.267   3.488   0.055
 9399SOL    HW229018   6.218   3.389   0.175
 9400SOL     OW29019   5.849   2.188   0.720
 9400SOL    HW129020   5.770   2.239   0.686
 9400SOL    HW229021   5.840   2.173   0.818
 9401SOL     OW29022   6.780   3.474   0.031
 9401SOL    HW129023   6.786   3.381   0.068
 9401SOL    HW229024   6.721   3.474  -0.049
 9402SOL     OW29025   6.408   2.864   1.372
 9402SOL    HW129026   6.448   2.863   1.280
 9402SOL    HW229027   6.418   2.956   1.412
 9403SOL     OW29028   6.502   2.772   0.291
 9403SOL    HW129029   6.565   2.810   0.223
 9403SOL    HW229030   6.542   2.689   0.330
 9404SOL     OW29031   5.958   3.150   1.490
 9404SOL    HW129032   5.945   3.243   1.456
 9404SOL    HW229033   5.874   3.098   1.477
 9405SOL     OW29034   6.625   2.960   0.696
 9405SOL    HW129035   6.555   2.913   0.750
 9405SOL    HW229036   6.684   2.892   0.653
 9406SOL     OW29037   6.600   2.098   0.971
 9406SOL    HW129038   6.592   2.062   0.878
 9406SOL    HW229039   6.598   2.022   1.036
 9407SOL     OW29040   6.176   3.349   0.491
 9407SOL    HW129041   6.218   3.291   0.421
 9407SOL    HW229042   6.132   3.428   0.447
 9408SOL     OW29043   5.841   3.210   0.290
 9408SOL    HW129044   5.745   3.211   0.263
 9408SOL    HW229045   5.853   3.263   0.374
 9409SOL     OW29046   5.691   2.875   1.726
 9409SOL    HW129047   5.614   2.842   1.780
 9409SOL    HW229048   5.776   2.845   1.768
 9410SOL     OW29049   6.258   2.065   1.489
 9410SOL    HW129050   6.348   2.049   1.449
 9410SOL    HW229051   6.266   2.070   1.588
 9411SOL     OW29052   5.661   2.207   0.033
 9411SOL    HW129053   5.569   2.179   0.004
 9411SOL    HW229054   5.692   2.284  -0.023
 9412SOL     OW29055   5.658   2.028   0.318
 9412SOL    HW129056   5.641   2.111   0.264
 9412SOL    HW229057   5.748   1.991   0.296
 9413SOL     OW29058   6.199   2.704   1.431
 9413SOL    HW129059   6.255   2.785   1.414
 9413SOL    HW229060   6.258   2.624   1.434
 9414SOL     OW29061   6.302   2.427   1.708
 9414SOL    HW129062   6.321   2.492   1.782
 9414SOL    HW229063   6.362   2.347   1.717
 9415SOL     OW29064   7.036   3.082   1.633
 9415SOL    HW129065   7.027   3.072   1.732
 9415SOL    HW229066   7.132   3.075   1.607
 9416SOL     OW29067   5.976   3.603   1.560
 9416SOL    HW129068   5.885   3.644   1.558
 9416SOL    HW229069   5.969   3.509   1.592
 9417SOL     OW29070   6.811   2.187   0.449
 9417SOL    HW129071   6.876   2.113   0.438
 9417SOL    HW229072   6.831   2.237   0.533
 9418SOL     OW29073   6.180   2.607   0.652
 9418SOL    HW129074   6.230   2.692   0.633
 9418SOL    HW229075   6.092   2.609   0.604
 9419SOL     OW29076   6.445   3.236   0.016
 9419SOL    HW129077   6.399   3.251   0.104
 9419SOL    HW229078   6.489   3.321  -0.014
 9420SOL     OW29079   6.247   3.652   0.953
 9420SOL    HW129080   6.201   3.740   0.940
 9420SOL    HW229081   6.346   3.664   0.946
 9421SOL     OW29082   6.445   2.818   0.861
 9421SOL    HW129083   6.499   2.749   0.909
 9421SOL    HW229084   6.413   2.887   0.927
 9422SOL     OW29085   6.669   2.846   0.087
 9422SOL    HW129086   6.646   2.899   0.005
 9422SOL    HW229087   6.750   2.790   0.068
 9423SOL     OW29088   5.807   3.176   1.844
 9423SOL    HW129089   5.742   3.103   1.823
 9423SOL    HW229090   5.811   3.190   1.942
 9424SOL     OW29091   5.665   3.102   0.653
 9424SOL    HW129092   5.664   3.055   0.741
 9424SOL    HW229093   5.747   3.074   0.602
 9425SOL     OW29094   6.258   3.253   1.624
 9425SOL    HW129095   6.180   3.203   1.662
 9425SOL    HW229096   6.255   3.348   1.655
 9426SOL     OW29097   6.014   2.286   0.520
 9426SOL    HW129098   6.044   2.214   0.458
 9426SOL    HW229099   5.975   2.246   0.603
 9427SOL     OW29100   5.903   2.409   1.280
 9427SOL    HW129101   5.941   2.350   1.352
 9427SOL    HW229102   5.943   2.383   1.192
 9428SOL     OW29103   6.398   3.448   0.687
 9428SOL    HW129104   6.430   3.458   0.593
 9428SOL    HW229105   6.319   3.386   0.689
 9429SOL     OW29106   7.010   2.076   1.112
 9429SOL    HW129107   7.062   2.011   1.167
 9429SOL    HW229108   6.961   2.139   1.173
 9430SOL     OW29109   6.587   1.896   1.154
 9430SOL    HW129110   6.524   1.824   1.123
 9430SOL    HW229111   6.680   1.860   1.154
 9431SOL     OW29112   6.356   3.192   0.301
 9431SOL    HW129113   6.310   3.105   0.318
 9431SOL    HW229114   6.447   3.189   0.342
 9432SOL     OW29115   6.204   3.429   1.284
 9432SOL    HW129116   6.199   3.511   1.341
 9432SOL    HW229117   6.293   3.426   1.239
 9433SOL     OW29118   5.625   2.939   0.300
 9433SOL    HW129119   5.724   2.928   0.291
 9433SOL    HW229120   5.585   2.853   0.332
 9434SOL     OW29121   6.461   3.508   0.337
 9434SOL    HW129122   6.384   3.473   0.283
 9434SOL    HW229123   6.429   3.579   0.399
 9435SOL     OW29124   5.816   2.490   1.975
 9435SOL    HW129125   5.723   2.488   2.012
 9435SOL    HW229126   5.817   2.451   1.883
 9436SOL     OW29127   5.811   2.137   2.858
 9436SOL    HW129128   5.846   2.120   2.950
 9436SOL    HW229129   5.723   2.092   2.846
 9437SOL     OW29130   5.605   2.230   2.509
 9437SOL    HW129131   5.523   2.273   2.548
 9437SOL    HW229132   5.577   2.157   2.446
 9438SOL     OW29133   6.155   3.137   3.027
 9438SOL    HW129134   6.062   3.130   2.990
 9438SOL    HW229135   6.166   3.226   3.071
 9439SOL     OW29136   7.141   3.373   2.565
 9439SOL    HW129137   7.084   3.357   2.646
 9439SOL    HW229138   7.082   3.383   2.485
 9440SOL     OW29139   6.721   2.565   2.579
 9440SOL    HW129140   6.778   2.643   2.554
 9440SOL    HW229141   6.661   2.591   2.655
 9441SOL     OW29142   6.354   3.006   2.885
 9441SOL    HW129143   6.276   3.023   2.945
 9441SOL    HW229144   6.388   3.093   2.849
 9442SOL     OW29145   6.436   2.660   3.685
 9442SOL    HW129146   6.432   2.736   3.750
 9442SOL    HW229147   6.458   2.696   3.594
 9443SOL     OW29148   6.271   2.874   2.527
 9443SOL    HW129149   6.340   2.858   2.597
 9443SOL    HW229150   6.198   2.931   2.565
 9444SOL     OW29151   6.272   3.023   3.665
 9444SOL    HW129152   6.332   3.102   3.679
 9444SOL    HW229153   6.186   3.054   3.624
 9445SOL     OW29154   5.921   3.297   2.923
 9445SOL    HW129155   5.843   3.266   2.870
 9445SOL    HW229156   5.979   3.355   2.866
 9446SOL     OW29157   6.024   2.254   3.361
 9446SOL    HW129158   6.106   2.198   3.370
 9446SOL    HW229159   5.943   2.196   3.365
 9447SOL     OW29160   5.817   3.575   2.345
 9447SOL    HW129161   5.851   3.652   2.399
 9447SOL    HW229162   5.861   3.575   2.255
 9448SOL     OW29163   6.713   3.203   3.552
 9448SOL    HW129164   6.760   3.203   3.640
 9448SOL    HW229165   6.665   3.116   3.541
 9449SOL     OW29166   5.816   3.296   2.400
 9449SOL    HW129167   5.790   3.392   2.400
 9449SOL    HW229168   5.745   3.242   2.445
 9450SOL     OW29169   5.826   2.953   2.748
 9450SOL    HW129170   5.840   2.869   2.800
 9450SOL    HW229171   5.771   3.017   2.803
 9451SOL     OW29172   6.206   3.648   3.301
 9451SOL    HW129173   6.114   3.631   3.336
 9451SOL    HW229174   6.234   3.740   3.327
 9452SOL     OW29175   6.192   2.826   1.985
 9452SOL    HW129176   6.199   2.910   1.931
 9452SOL    HW229177   6.238   2.839   2.073
 9453SOL     OW29178   5.708   2.505   2.425
 9453SOL    HW129179   5.663   2.417   2.442
 9453SOL    HW229180   5.707   2.559   2.509
 9454SOL     OW29181   5.613   3.458   1.979
 9454SOL    HW129182   5.594   3.362   2.000
 9454SOL    HW229183   5.580   3.516   2.054
 9455SOL     OW29184   5.699   2.599   3.459
 9455SOL    HW129185   5.787   2.586   3.504
 9455SOL    HW229186   5.686   2.696   3.437
 9456SOL     OW29187   6.199   3.227   2.588
 9456SOL    HW129188   6.150   3.140   2.597
 9456SOL    HW229189   6.176   3.270   2.501
 9457SOL     OW29190   6.879   3.090   3.285
 9457SOL    HW129191   6.916   3.017   3.227
 9457SOL    HW229192   6.931   3.095   3.370
 9458SOL     OW29193   6.395   1.866   2.364
 9458SOL    HW129194   6.435   1.957   2.355
 9458SOL    HW229195   6.295   1.874   2.370
 9459SOL     OW29196   5.783   2.838   3.126
 9459SOL    HW129197   5.872   2.793   3.112
 9459SOL    HW229198   5.710   2.773   3.107
 9460SOL     OW29199   6.773   3.654   3.478
 9460SOL    HW129200   6.797   3.714   3.402
 9460SOL    HW229201   6.780   3.559   3.448
 9461SOL     OW29202   5.903   2.113   3.663
 9461SOL    HW129203   5.974   2.184   3.669
 9461SOL    HW229204   5.815   2.152   3.691
 9462SOL     OW29205   6.184   2.591   2.132
 9462SOL    HW129206   6.208   2.660   2.064
 9462SOL    HW229207   6.106   2.624   2.186
 9463SOL     OW29208   6.867   2.207   2.806
 9463SOL    HW129209   6.781   2.157   2.793
 9463SOL    HW229210   6.929   2.153   2.862
 9464SOL     OW29211   6.393   2.467   3.327
 9464SOL    HW129212   6.346   2.464   3.416
 9464SOL    HW229213   6.342   2.412   3.261
 9465SOL     OW29214   6.980   2.331   3.536
 9465SOL    HW129215   6.960   2.374   3.624
 9465SOL    HW229216   7.058   2.269   3.545
 9466SOL     OW29217   6.559   2.752   3.434
 9466SOL    HW129218   6.605   2.668   3.405
 9466SOL    HW229219   6.503   2.786   3.359
 9467SOL     OW29220   6.577   2.272   3.104
 9467SOL    HW129221   6.500   2.306   3.158
 9467SOL    HW229222   6.543   2.221   3.025
 9468SOL     OW29223   6.627   2.563   2.291
 9468SOL    HW129224   6.653   2.559   2.387
 9468SOL    HW229225   6.542   2.512   2.277
 9469SOL     OW29226   5.662   2.673   2.651
 9469SOL    HW129227   5.761   2.661   2.660
 9469SOL    HW229228   5.638   2.768   2.672
 9470SOL     OW29229   5.716   3.683   3.433
 9470SOL    HW129230   5.706   3.668   3.532
 9470SOL    HW229231   5.630   3.719   3.397
 9471SOL     OW29232   6.451   2.210   2.057
 9471SOL    HW129233   6.510   2.273   2.008
 9471SOL    HW229234   6.470   2.116   2.028
 9472SOL     OW29235   6.948   3.006   2.407
 9472SOL    HW129236   7.031   2.977   2.359
 9472SOL    HW229237   6.899   3.073   2.351
 9473SOL     OW29238   6.136   2.058   2.747
 9473SOL    HW129239   6.131   2.053   2.847
 9473SOL    HW229240   6.138   2.154   2.718
 9474SOL     OW29241   6.594   3.318   2.339
 9474SOL    HW129242   6.548   3.390   2.287
 9474SOL    HW229243   6.590   3.338   2.437
 9475SOL     OW29244   5.937   3.663   2.715
 9475SOL    HW129245   5.987   3.577   2.721
 9475SOL    HW229246   6.002   3.740   2.712
 9476SOL     OW29247   6.813   3.412   3.368
 9476SOL    HW129248   6.819   3.335   3.432
 9476SOL    HW229249   6.761   3.386   3.288
 9477SOL     OW29250   5.907   2.805   2.104
 9477SOL    HW129251   5.989   2.844   2.062
 9477SOL    HW229252   5.880   2.723   2.055
 9478SOL     OW29253   6.047   3.128   3.589
 9478SOL    HW129254   5.997   3.129   3.503
 9478SOL    HW229255   5.984   3.110   3.665
 9479SOL     OW29256   6.697   3.638   2.099
 9479SOL    HW129257   6.637   3.576   2.149
 9479SOL    HW229258   6.728   3.594   2.014
 9480SOL     OW29259   5.788   2.147   3.360
 9480SOL    HW129260   5.708   2.207   3.347
 9480SOL    HW229261   5.778   2.098   3.446
 9481SOL     OW29262   6.050   3.605   2.185
 9481SOL    HW129263   6.083   3.644   2.271
 9481SOL    HW229264   6.126   3.598   2.120
 9482SOL     OW29265   5.835   3.647   3.103
 9482SOL    HW129266   5.892   3.582   3.153
 9482SOL    HW229267   5.819   3.614   3.010
 9483SOL     OW29268   6.526   3.560   2.766
 9483SOL    HW129269   6.606   3.503   2.787
 9483SOL    HW229270   6.477   3.520   2.689
 9484SOL     OW29271   5.968   2.562   2.342
 9484SOL    HW129272   6.013   2.472   2.339
 9484SOL    HW229273   5.874   2.551   2.375
 9485SOL     OW29274   6.200   1.984   1.979
 9485SOL    HW129275   6.298   1.962   1.986
 9485SOL    HW229276   6.169   1.967   1.886
 9486SOL     OW29277   6.367   2.126   3.611
 9486SOL    HW129278   6.434   2.065   3.654
 9486SOL    HW229279   6.294   2.145   3.676
 9487SOL     OW29280   6.474   3.376   3.057
 9487SOL    HW129281   6.451   3.351   2.963
 9487SOL    HW229282   6.535   3.307   3.096
 9488SOL     OW29283   6.389   3.264   2.786
 9488SOL    HW129284   6.479   3.278   2.744
 9488SOL    HW229285   6.318   3.266   2.715
 9489SOL     OW29286   6.508   2.365   2.761
 9489SOL    HW129287   6.483   2.356   2.665
 9489SOL    HW229288   6.556   2.283   2.792
 9490SOL     OW29289   6.125   1.926   2.374
 9490SOL    HW129290   6.044   1.927   2.432
 9490SOL    HW229291   6.128   2.009   2.319
 9491SOL     OW29292   7.020   3.050   1.903
 9491SOL    HW129293   7.052   2.974   1.960
 9491SOL    HW229294   6.928   3.077   1.933
 9492SOL     OW29295   5.883   1.897   2.033
 9492SOL    HW129296   5.932   1.981   2.012
 9492SOL    HW229297   5.945   1.832   2.078
 9493SOL     OW29298   6.521   2.098   2.342
 9493SOL    HW129299   6.473   2.139   2.264
 9493SOL    HW229300   6.620   2.096   2.323
 9494SOL     OW29301   6.662   2.545   3.326
 9494SOL    HW129302   6.582   2.484   3.329
 9494SOL    HW229303   6.743   2.492   3.302
 9495SOL     OW29304   6.813   3.432   2.655
 9495SOL    HW129305   6.834   3.506   2.590
 9495SOL    HW229306   6.881   3.432   2.728
 9496SOL     OW29307   6.045   3.014   2.603
 9496SOL    HW129308   5.974   2.987   2.668
 9496SOL    HW229309   6.019   2.986   2.510
 9497SOL     OW29310   6.857   3.659   2.453
 9497SOL    HW129311   6.901   3.723   2.389
 9497SOL    HW229312   6.807   3.711   2.523
 9498SOL     OW29313   6.618   2.411   1.878
 9498SOL    HW129314   6.577   2.493   1.839
 9498SOL    HW229315   6.682   2.437   1.951
 9499SOL     OW29316   5.664   2.418   3.248
 9499SOL    HW129317   5.756   2.417   3.207
 9499SOL    HW229318   5.658   2.492   3.315
 9500SOL     OW29319   6.147   2.084   3.009
 9500SOL    HW129320   6.185   2.000   3.046
 9500SOL    HW229321   6.059   2.103   3.053
 9501SOL     OW29322   6.452   2.316   2.504
 9501SOL    HW129323   6.420   2.388   2.442
 9501SOL    HW229324   6.476   2.235   2.451
 9502SOL     OW29325   6.603   1.901   2.615
 9502SOL    HW129326   6.531   1.906   2.546
 9502SOL    HW229327   6.579   1.832   2.684
 9503SOL     OW29328   6.074   3.247   2.036
 9503SOL    HW129329   5.987   3.232   2.083
 9503SOL    HW229330   6.057   3.273   1.941
 9504SOL     OW29331   6.113   2.118   2.190
 9504SOL    HW129332   6.140   2.059   2.115
 9504SOL    HW229333   6.113   2.213   2.159
 9505SOL     OW29334   6.650   3.209   3.202
 9505SOL    HW129335   6.570   3.186   3.257
 9505SOL    HW229336   6.733   3.183   3.251
 9506SOL     OW29337   6.697   3.057   2.962
 9506SOL    HW129338   6.657   3.101   3.043
 9506SOL    HW229339   6.656   3.094   2.879
 9507SOL     OW29340   6.501   1.951   3.264
 9507SOL    HW129341   6.526   1.931   3.169
 9507SOL    HW229342   6.573   2.007   3.306
 9508SOL     OW29343   6.566   2.978   3.581
 9508SOL    HW129344   6.467   2.984   3.591
 9508SOL    HW229345   6.589   2.898   3.525
 9509SOL     OW29346   6.291   2.912   2.230
 9509SOL    HW129347   6.277   2.919   2.329
 9509SOL    HW229348   6.375   2.861   2.212
 9510SOL     OW29349   5.996   2.675   3.113
 9510SOL    HW129350   6.082   2.687   3.163
 9510SOL    HW229351   5.954   2.588   3.140
 9511SOL     OW29352   6.860   2.248   3.124
 9511SOL    HW129353   6.881   2.322   3.188
 9511SOL    HW229354   6.771   2.265   3.081
 9512SOL     OW29355   5.650   3.426   3.193
 9512SOL    HW129356   5.604   3.508   3.159
 9512SOL    HW229357   5.748   3.445   3.202
 9513SOL     OW29358   5.953   2.962   2.363
 9513SOL    HW129359   5.946   3.045   2.307
 9513SOL    HW229360   5.957   2.882   2.303
 9514SOL     OW29361   6.152   2.399   2.727
 9514SOL    HW129362   6.164   2.465   2.653
 9514SOL    HW229363   6.198   2.433   2.810
 9515SOL     OW29364   6.838   3.210   2.250
 9515SOL    HW129365   6.888   3.287   2.290
 9515SOL    HW229366   6.743   3.212   2.282
 9516SOL     OW29367   6.858   3.307   3.004
 9516SOL    HW129368   6.905   3.320   3.091
 9516SOL    HW229369   6.792   3.233   3.013
 9517SOL     OW29370   5.940   3.372   3.191
 9517SOL    HW129371   5.919   3.328   3.104
 9517SOL    HW229372   6.037   3.398   3.194
 9518SOL     OW29373   5.988   2.613   3.460
 9518SOL    HW129374   6.056   2.668   3.413
 9518SOL    HW229375   6.028   2.525   3.487
 9519SOL     OW29376   6.599   1.967   3.632
 9519SOL    HW129377   6.605   2.052   3.580
 9519SOL    HW229378   6.631   1.891   3.575
 9520SOL     OW29379   6.090   1.912   3.602
 9520SOL    HW129380   6.048   1.855   3.532
 9520SOL    HW229381   6.024   1.981   3.634
 9521SOL     OW29382   6.159   2.732   2.891
 9521SOL    HW129383   6.203   2.821   2.882
 9521SOL    HW229384   6.096   2.732   2.968
 9522SOL     OW29385   6.946   2.724   2.907
 9522SOL    HW129386   6.871   2.724   2.841
 9522SOL    HW229387   6.983   2.632   2.916
 9523SOL     OW29388   6.795   2.387   2.137
 9523SOL    HW129389   6.808   2.303   2.191
 9523SOL    HW229390   6.766   2.461   2.197
 9524SOL     OW29391   5.893   2.075   3.093
 9524SOL    HW129392   5.870   2.112   3.183
 9524SOL    HW229393   5.863   1.980   3.087
 9525SOL     OW29394   5.623   3.172   3.144
 9525SOL    HW129395   5.676   3.123   3.212
 9525SOL    HW229396   5.645   3.270   3.149
 9526SOL     OW29397   6.318   2.496   2.926
 9526SOL    HW129398   6.377   2.470   2.850
 9526SOL    HW229399   6.290   2.592   2.915
 9527SOL     OW29400   5.893   1.925   2.480
 9527SOL    HW129401   5.882   2.019   2.513
 9527SOL    HW229402   5.888   1.862   2.557
 9528SOL     OW29403   7.208   2.229   2.236
 9528SOL    HW129404   7.210   2.153   2.300
 9528SOL    HW229405   7.160   2.306   2.276
 9529SOL     OW29406   6.609   2.628   2.828
 9529SOL    HW129407   6.624   2.649   2.924
 9529SOL    HW229408   6.579   2.533   2.819
 9530SOL     OW29409   6.566   3.435   3.562
 9530SOL    HW129410   6.546   3.479   3.474
 9530SOL    HW229411   6.605   3.344   3.546
 9531SOL     OW29412   5.936   2.760   3.666
 9531SOL    HW129413   6.012   2.804   3.714
 9531SOL    HW229414   5.971   2.713   3.584
 9532SOL     OW29415   6.889   2.700   1.904
 9532SOL    HW129416   6.923   2.607   1.919
 9532SOL    HW229417   6.907   2.727   1.809
 9533SOL     OW29418   6.654   3.195   2.711
 9533SOL    HW129419   6.661   3.111   2.656
 9533SOL    HW229420   6.716   3.264   2.675
 9534SOL     OW29421   5.905   2.672   2.811
 9534SOL    HW129422   5.998   2.708   2.816
 9534SOL    HW229423   5.899   2.587   2.863
 9535SOL     OW29424   5.925   2.371   2.868
 9535SOL    HW129425   5.873   2.288   2.851
 9535SOL    HW229426   6.002   2.376   2.804
 9536SOL     OW29427   6.724   2.242   3.540
 9536SOL    HW129428   6.679   2.305   3.604
 9536SOL    HW229429   6.817   2.273   3.523
 9537SOL     OW29430   6.746   2.069   3.339
 9537SOL    HW129431   6.746   2.133   3.416
 9537SOL    HW229432   6.774   2.117   3.256
 9538SOL     OW29433   5.594   3.188   2.062
 9538SOL    HW129434   5.501   3.209   2.031
 9538SOL    HW229435   5.604   3.089   2.075
 9539SOL     OW29436   5.674   3.663   2.789
 9539SOL    HW129437   5.632   3.577   2.762
 9539SOL    HW229438   5.768   3.666   2.755
 9540SOL     OW29439   6.090   3.430   2.772
 9540SOL    HW129440   6.156   3.504   2.781
 9540SOL    HW229441   6.134   3.351   2.730
 9541SOL     OW29442   6.588   2.658   3.100
 9541SOL    HW129443   6.629   2.626   3.186
 9541SOL    HW229444   6.492   2.631   3.097
 9542SOL     OW29445   5.626   2.406   2.976
 9542SOL    HW129446   5.711   2.373   2.935
 9542SOL    HW229447   5.639   2.421   3.074
 9543SOL     OW29448   5.775   2.382   3.584
 9543SOL    HW129449   5.834   2.342   3.514
 9543SOL    HW229450   5.717   2.453   3.543
 9544SOL     OW29451   6.401   2.434   2.187
 9544SOL    HW129452   6.408   2.345   2.141
 9544SOL    HW229453   6.307   2.468   2.179
 9545SOL     OW29454   5.838   3.426   3.606
 9545SOL    HW129455   5.808   3.483   3.682
 9545SOL    HW229456   5.831   3.329   3.632
 9546SOL     OW29457   6.257   2.326   3.131
 9546SOL    HW129458   6.223   2.237   3.101
 9546SOL    HW229459   6.283   2.380   3.051
 9547SOL     OW29460   6.516   3.540   3.327
 9547SOL    HW129461   6.492   3.522   3.232
 9547SOL    HW229462   6.546   3.634   3.337
 9548SOL     OW29463   6.059   2.362   2.053
 9548SOL    HW129464   6.120   2.442   2.057
 9548SOL    HW229465   5.964   2.393   2.060
 9549SOL     OW29466   5.745   2.999   3.328
 9549SOL    HW129467   5.767   2.938   3.404
 9549SOL    HW229468   5.755   2.950   3.242
 9550SOL     OW29469   6.933   2.921   3.096
 9550SOL    HW129470   6.957   2.858   3.022
 9550SOL    HW229471   6.843   2.961   3.078
 9551SOL     OW29472   6.888   2.717   2.171
 9551SOL    HW129473   6.802   2.686   2.213
 9551SOL    HW229474   6.884   2.703   2.072
 9552SOL     OW29475   6.838   3.593   2.990
 9552SOL    HW129476   6.922   3.598   2.936
 9552SOL    HW229477   6.815   3.497   3.008
 9553SOL     OW29478   5.669   3.120   2.884
 9553SOL    HW129479   5.664   3.119   2.984
 9553SOL    HW229480   5.586   3.079   2.846
 9554SOL     OW29481   6.274   3.524   3.578
 9554SOL    HW129482   6.218   3.605   3.587
 9554SOL    HW229483   6.326   3.528   3.492
 9555SOL     OW29484   6.974   3.435   2.339
 9555SOL    HW129485   7.041   3.447   2.265
 9555SOL    HW229486   6.934   3.524   2.362
 9556SOL     OW29487   5.716   3.656   3.713
 9556SOL    HW129488   5.675   3.582   3.766
 9556SOL    HW229489   5.780   3.707   3.771
 9557SOL     OW29490   6.866   2.789   2.534
 9557SOL    HW129491   6.926   2.708   2.536
 9557SOL    HW229492   6.906   2.858   2.474
 9558SOL     OW29493   6.416   3.135   3.284
 9558SOL    HW129494   6.411   3.168   3.379
 9558SOL    HW229495   6.330   3.154   3.238
 9559SOL     OW29496   6.258   3.478   2.016
 9559SOL    HW129497   6.267   3.488   1.917
 9559SOL    HW229498   6.218   3.389   2.037
 9560SOL     OW29499   5.849   2.188   2.582
 9560SOL    HW129500   5.770   2.239   2.548
 9560SOL    HW229501   5.840   2.173   2.680
 9561SOL     OW29502   6.780   3.474   1.893
 9561SOL    HW129503   6.786   3.381   1.930
 9561SOL    HW229504   6.721   3.474   1.813
 9562SOL     OW29505   6.408   2.864   3.234
 9562SOL    HW129506   6.448   2.863   3.142
 9562SOL    HW229507   6.418   2.956   3.274
 9563SOL     OW29508   6.502   2.772   2.153
 9563SOL    HW129509   6.565   2.810   2.085
 9563SOL    HW229510   6.542   2.689   2.192
 9564SOL     OW29511   5.958   3.150   3.352
 9564SOL    HW129512   5.945   3.243   3.318
 9564SOL    HW229513   5.874   3.098   3.339
 9565SOL     OW29514   6.625   2.960   2.558
 9565SOL    HW129515   6.555   2.913   2.612
 9565SOL    HW229516   6.684   2.892   2.515
 9566SOL     OW29517   6.600   2.098   2.833
 9566SOL    HW129518   6.592   2.062   2.740
 9566SOL    HW229519   6.598   2.022   2.898
 9567SOL     OW29520   6.176   3.349   2.353
 9567SOL    HW129521   6.218   3.291   2.283
 9567SOL    HW229522   6.132   3.428   2.309
 9568SOL     OW29523   5.841   3.210   2.152
 9568SOL    HW129524   5.745   3.211   2.125
 9568SOL    HW229525   5.853   3.263   2.236
 9569SOL     OW29526   5.691   2.875   3.588
 9569SOL    HW129527   5.614   2.842   3.642
 9569SOL    HW229528   5.776   2.845   3.630
 9570SOL     OW29529   6.258   2.065   3.351
 9570SOL    HW129530   6.348   2.049   3.311
 9570SOL    HW229531   6.266   2.070   3.450
 9571SOL     OW29532   5.661   2.207   1.895
 9571SOL    HW129533   5.569   2.179   1.866
 9571SOL    HW229534   5.692   2.284   1.839
 9572SOL     OW29535   5.658   2.028   2.180
 9572SOL    HW129536   5.641   2.111   2.126
 9572SOL    HW229537   5.748   1.991   2.158
 9573SOL     OW29538   6.199   2.704   3.293
 9573SOL    HW129539   6.255   2.785   3.276
 9573SOL    HW229540   6.258   2.624   3.296
 9574SOL     OW29541   6.302   2.427   3.570
 9574SOL    HW129542   6.321   2.492   3.644
 9574SOL    HW229543   6.362   2.347   3.579
 9575SOL     OW29544   7.036   3.082   3.495
 9575SOL    HW129545   7.027   3.072   3.594
 9575SOL    HW229546   7.132   3.075   3.469
 9576SOL     OW29547   5.976   3.603   3.422
 9576SOL    HW129548   5.885   3.644   3.420
 9576SOL    HW229549   5.969   3.509   3.454
 9577SOL     OW29550   6.811   2.187   2.311
 9577SOL    HW129551   6.876   2.113   2.300
 9577SOL    HW229552   6.831   2.237   2.395
 9578SOL     OW29553   6.180   2.607   2.514
 9578SOL    HW129554   6.230   2.692   2.495
 9578SOL    HW229555   6.092   2.609   2.466
 9579SOL     OW29556   6.445   3.236   1.878
 9579SOL    HW129557   6.399   3.251   1.966
 9579SOL    HW229558   6.489   3.321   1.848
 9580SOL     OW29559   6.247   3.652   2.815
 9580SOL    HW129560   6.201   3.740   2.802
 9580SOL    HW229561   6.346   3.664   2.808
 9581SOL     OW29562   6.445   2.818   2.723
 9581SOL    HW129563   6.499   2.749   2.771
 9581SOL    HW229564   6.413   2.887   2.789
 9582SOL     OW29565   6.669   2.846   1.949
 9582SOL    HW129566   6.646   2.899   1.867
 9582SOL    HW229567   6.750   2.790   1.930
 9583SOL     OW29568   5.807   3.176   3.706
 9583SOL    HW129569   5.742   3.103   3.685
 9583SOL    HW229570   5.811   3.190   3.804
 9584SOL     OW29571   5.665   3.102   2.515
 9584SOL    HW129572   5.664   3.055   2.603
 9584SOL    HW229573   5.747   3.074   2.464
 9585SOL     OW29574   6.258   3.253   3.486
 9585SOL    HW129575   6.180   3.203   3.524
 9585SOL    HW229576   6.255   3.348   3.517
 9586SOL     OW29577   6.014   2.286   2.382
 9586SOL    HW129578   6.044   2.214   2.320
 9586SOL    HW229579   5.975   2.246   2.465
 9587SOL     OW29580   5.903   2.409   3.142
 9587SOL    HW129581   5.941   2.350   3.214
 9587SOL    HW229582   5.943   2.383   3.054
 9588SOL     OW29583   6.398   3.448   2.549
 9588SOL    HW129584   6.430   3.458   2.455
 9588SOL    HW229585   6.319   3.386   2.551
 9589SOL     OW29586   7.010   2.076   2.974
 9589SOL    HW129587   7.062   2.011   3.029
 9589SOL    HW229588   6.961   2.139   3.035
 9590SOL     OW29589   6.587   1.896   3.016
 9590SOL    HW129590   6.524   1.824   2.985
 9590SOL    HW229591   6.680   1.860   3.016
 9591SOL     OW29592   6.356   3.192   2.163
 9591SOL    HW129593   6.310   3.105   2.180
 9591SOL    HW229594   6.447   3.189   2.204
 9592SOL     OW29595   6.204   3.429   3.146
 9592SOL    HW129596   6.199   3.511   3.203
 9592SOL    HW229597   6.293   3.426   3.101
 9593SOL     OW29598   6.938   1.914   2.030
 9593SOL    HW129599   6.973   1.873   1.946
 9593SOL    HW229600   6.848   1.876   2.050
 9594SOL     OW29601   5.625   2.939   2.162
 9594SOL    HW129602   5.724   2.928   2.153
 9594SOL    HW229603   5.585   2.853   2.194
 9595SOL     OW29604   6.461   3.508   2.199
 9595SOL    HW129605   6.384   3.473   2.145
 9595SOL    HW229606   6.429   3.579   2.261
 9596SOL     OW29607   5.816   2.490   3.837
 9596SOL    HW129608   5.723   2.488   3.874
 9596SOL    HW229609   5.817   2.451   3.745
 9597SOL     OW29610   5.811   2.137   4.720
 9597SOL    HW129611   5.846   2.120   4.812
 9597SOL    HW229612   5.723   2.092   4.708
 9598SOL     OW29613   5.605   2.230   4.371
 9598SOL    HW129614   5.523   2.273   4.410
 9598SOL    HW229615   5.577   2.157   4.308
 9599SOL     OW29616   6.155   3.137   4.889
 9599SOL    HW129617   6.062   3.130   4.852
 9599SOL    HW229618   6.166   3.226   4.933
 9600SOL     OW29619   7.141   3.373   4.427
 9600SOL    HW129620   7.084   3.357   4.508
 9600SOL    HW229621   7.082   3.383   4.347
 9601SOL     OW29622   6.721   2.565   4.441
 9601SOL    HW129623   6.778   2.643   4.416
 9601SOL    HW229624   6.661   2.591   4.517
 9602SOL     OW29625   6.354   3.006   4.747
 9602SOL    HW129626   6.276   3.023   4.807
 9602SOL    HW229627   6.388   3.093   4.711
 9603SOL     OW29628   6.436   2.660   5.547
 9603SOL    HW129629   6.432   2.736   5.612
 9603SOL    HW229630   6.458   2.696   5.456
 9604SOL     OW29631   6.271   2.874   4.389
 9604SOL    HW129632   6.340   2.858   4.459
 9604SOL    HW229633   6.198   2.931   4.427
 9605SOL     OW29634   6.272   3.023   5.527
 9605SOL    HW129635   6.332   3.102   5.541
 9605SOL    HW229636   6.186   3.054   5.486
 9606SOL     OW29637   5.921   3.297   4.785
 9606SOL    HW129638   5.843   3.266   4.732
 9606SOL    HW229639   5.979   3.355   4.728
 9607SOL     OW29640   6.024   2.254   5.223
 9607SOL    HW129641   6.106   2.198   5.232
 9607SOL    HW229642   5.943   2.196   5.227
 9608SOL     OW29643   5.817   3.575   4.207
 9608SOL    HW129644   5.851   3.652   4.261
 9608SOL    HW229645   5.861   3.575   4.117
 9609SOL     OW29646   6.713   3.203   5.414
 9609SOL    HW129647   6.760   3.203   5.502
 9609SOL    HW229648   6.665   3.116   5.403
 9610SOL     OW29649   5.816   3.296   4.262
 9610SOL    HW129650   5.790   3.392   4.262
 9610SOL    HW229651   5.745   3.242   4.307
 9611SOL     OW29652   5.826   2.953   4.610
 9611SOL    HW129653   5.840   2.869   4.662
 9611SOL    HW229654   5.771   3.017   4.665
 9612SOL     OW29655   6.206   3.648   5.163
 9612SOL    HW129656   6.114   3.631   5.198
 9612SOL    HW229657   6.234   3.740   5.189
 9613SOL     OW29658   6.192   2.826   3.847
 9613SOL    HW129659   6.199   2.910   3.793
 9613SOL    HW229660   6.238   2.839   3.935
 9614SOL     OW29661   5.708   2.505   4.287
 9614SOL    HW129662   5.663   2.417   4.304
 9614SOL    HW229663   5.707   2.559   4.371
 9615SOL     OW29664   5.613   3.458   3.841
 9615SOL    HW129665   5.594   3.362   3.862
 9615SOL    HW229666   5.580   3.516   3.916
 9616SOL     OW29667   5.699   2.599   5.321
 9616SOL    HW129668   5.787   2.586   5.366
 9616SOL    HW229669   5.686   2.696   5.299
 9617SOL     OW29670   6.199   3.227   4.450
 9617SOL    HW129671   6.150   3.140   4.459
 9617SOL    HW229672   6.176   3.270   4.363
 9618SOL     OW29673   6.879   3.090   5.147
 9618SOL    HW129674   6.916   3.017   5.089
 9618SOL    HW229675   6.931   3.095   5.232
 9619SOL     OW29676   6.395   1.866   4.226
 9619SOL    HW129677   6.435   1.957   4.217
 9619SOL    HW229678   6.295   1.874   4.232
 9620SOL     OW29679   5.783   2.838   4.988
 9620SOL    HW129680   5.872   2.793   4.974
 9620SOL    HW229681   5.710   2.773   4.969
 9621SOL     OW29682   6.773   3.654   5.340
 9621SOL    HW129683   6.797   3.714   5.264
 9621SOL    HW229684   6.780   3.559   5.310
 9622SOL     OW29685   5.903   2.113   5.525
 9622SOL    HW129686   5.974   2.184   5.531
 9622SOL    HW229687   5.815   2.152   5.553
 9623SOL     OW29688   6.184   2.591   3.994
 9623SOL    HW129689   6.208   2.660   3.926
 9623SOL    HW229690   6.106   2.624   4.048
 9624SOL     OW29691   6.867   2.207   4.668
 9624SOL    HW129692   6.781   2.157   4.655
 9624SOL    HW229693   6.929   2.153   4.724
 9625SOL     OW29694   6.393   2.467   5.189
 9625SOL    HW129695   6.346   2.464   5.278
 9625SOL    HW229696   6.342   2.412   5.123
 9626SOL     OW29697   6.980   2.331   5.398
 9626SOL    HW129698   6.960   2.374   5.486
 9626SOL    HW229699   7.058   2.269   5.407
 9627SOL     OW29700   6.559   2.752   5.296
 9627SOL    HW129701   6.605   2.668   5.267
 9627SOL    HW229702   6.503   2.786   5.221
 9628SOL     OW29703   6.577   2.272   4.966
 9628SOL    HW129704   6.500   2.306   5.020
 9628SOL    HW229705   6.543   2.221   4.887
 9629SOL     OW29706   6.627   2.563   4.153
 9629SOL    HW129707   6.653   2.559   4.249
 9629SOL    HW229708   6.542   2.512   4.139
 9630SOL     OW29709   5.662   2.673   4.513
 9630SOL    HW129710   5.761   2.661   4.522
 9630SOL    HW229711   5.638   2.768   4.534
 9631SOL     OW29712   5.716   3.683   5.295
 9631SOL    HW129713   5.706   3.668   5.394
 9631SOL    HW229714   5.630   3.719   5.259
 9632SOL     OW29715   6.451   2.210   3.919
 9632SOL    HW129716   6.510   2.273   3.870
 9632SOL    HW229717   6.470   2.116   3.890
 9633SOL     OW29718   6.948   3.006   4.269
 9633SOL    HW129719   7.031   2.977   4.221
 9633SOL    HW229720   6.899   3.073   4.213
 9634SOL     OW29721   6.136   2.058   4.609
 9634SOL    HW129722   6.131   2.053   4.709
 9634SOL    HW229723   6.138   2.154   4.580
 9635SOL     OW29724   6.594   3.318   4.201
 9635SOL    HW129725   6.548   3.390   4.149
 9635SOL    HW229726   6.590   3.338   4.299
 9636SOL     OW29727   5.937   3.663   4.577
 9636SOL    HW129728   5.987   3.577   4.583
 9636SOL    HW229729   6.002   3.740   4.574
 9637SOL     OW29730   6.813   3.412   5.230
 9637SOL    HW129731   6.819   3.335   5.294
 9637SOL    HW229732   6.761   3.386   5.150
 9638SOL     OW29733   5.907   2.805   3.966
 9638SOL    HW129734   5.989   2.844   3.924
 9638SOL    HW229735   5.880   2.723   3.917
 9639SOL     OW29736   6.047   3.128   5.451
 9639SOL    HW129737   5.997   3.129   5.365
 9639SOL    HW229738   5.984   3.110   5.527
 9640SOL     OW29739   6.697   3.638   3.961
 9640SOL    HW129740   6.637   3.576   4.011
 9640SOL    HW229741   6.728   3.594   3.876
 9641SOL     OW29742   5.788   2.147   5.222
 9641SOL    HW129743   5.708   2.207   5.209
 9641SOL    HW229744   5.778   2.098   5.308
 9642SOL     OW29745   6.050   3.605   4.047
 9642SOL    HW129746   6.083   3.644   4.133
 9642SOL    HW229747   6.126   3.598   3.982
 9643SOL     OW29748   5.835   3.647   4.965
 9643SOL    HW129749   5.892   3.582   5.015
 9643SOL    HW229750   5.819   3.614   4.872
 9644SOL     OW29751   6.526   3.560   4.628
 9644SOL    HW129752   6.606   3.503   4.649
 9644SOL    HW229753   6.477   3.520   4.551
 9645SOL     OW29754   5.968   2.562   4.204
 9645SOL    HW129755   6.013   2.472   4.201
 9645SOL    HW229756   5.874   2.551   4.237
 9646SOL     OW29757   6.200   1.984   3.841
 9646SOL    HW129758   6.298   1.962   3.848
 9646SOL    HW229759   6.169   1.967   3.748
 9647SOL     OW29760   6.367   2.126   5.473
 9647SOL    HW129761   6.434   2.065   5.516
 9647SOL    HW229762   6.294   2.145   5.538
 9648SOL     OW29763   6.474   3.376   4.919
 9648SOL    HW129764   6.451   3.351   4.825
 9648SOL    HW229765   6.535   3.307   4.958
 9649SOL     OW29766   6.389   3.264   4.648
 9649SOL    HW129767   6.479   3.278   4.606
 9649SOL    HW229768   6.318   3.266   4.577
 9650SOL     OW29769   6.508   2.365   4.623
 9650SOL    HW129770   6.483   2.356   4.527
 9650SOL    HW229771   6.556   2.283   4.654
 9651SOL     OW29772   6.125   1.926   4.236
 9651SOL    HW129773   6.044   1.927   4.294
 9651SOL    HW229774   6.128   2.009   4.181
 9652SOL     OW29775   7.020   3.050   3.765
 9652SOL    HW129776   7.052   2.974   3.822
 9652SOL    HW229777   6.928   3.077   3.795
 9653SOL     OW29778   5.883   1.897   3.895
 9653SOL    HW129779   5.932   1.981   3.874
 9653SOL    HW229780   5.945   1.832   3.940
 9654SOL     OW29781   6.521   2.098   4.204
 9654SOL    HW129782   6.473   2.139   4.126
 9654SOL    HW229783   6.620   2.096   4.185
 9655SOL     OW29784   6.662   2.545   5.188
 9655SOL    HW129785   6.582   2.484   5.191
 9655SOL    HW229786   6.743   2.492   5.164
 9656SOL     OW29787   6.813   3.432   4.517
 9656SOL    HW129788   6.834   3.506   4.452
 9656SOL    HW229789   6.881   3.432   4.590
 9657SOL     OW29790   6.045   3.014   4.465
 9657SOL    HW129791   5.974   2.987   4.530
 9657SOL    HW229792   6.019   2.986   4.372
 9658SOL     OW29793   6.857   3.659   4.315
 9658SOL    HW129794   6.901   3.723   4.251
 9658SOL    HW229795   6.807   3.711   4.385
 9659SOL     OW29796   6.618   2.411   3.740
 9659SOL    HW129797   6.577   2.493   3.701
 9659SOL    HW229798   6.682   2.437   3.813
 9660SOL     OW29799   5.664   2.418   5.110
 9660SOL    HW129800   5.756   2.417   5.069
 9660SOL    HW229801   5.658   2.492   5.177
 9661SOL     OW29802   6.147   2.084   4.871
 9661SOL    HW129803   6.185   2.000   4.908
 9661SOL    HW229804   6.059   2.103   4.915
 9662SOL     OW29805   6.452   2.316   4.366
 9662SOL    HW129806   6.420   2.388   4.304
 9662SOL    HW229807   6.476   2.235   4.313
 9663SOL     OW29808   6.603   1.901   4.477
 9663SOL    HW129809   6.531   1.906   4.408
 9663SOL    HW229810   6.579   1.832   4.546
 9664SOL     OW29811   6.074   3.247   3.898
 9664SOL    HW129812   5.987   3.232   3.945
 9664SOL    HW229813   6.057   3.273   3.803
 9665SOL     OW29814   6.113   2.118   4.052
 9665SOL    HW129815   6.140   2.059   3.977
 9665SOL    HW229816   6.113   2.213   4.021
 9666SOL     OW29817   6.650   3.209   5.064
 9666SOL    HW129818   6.570   3.186   5.119
 9666SOL    HW229819   6.733   3.183   5.113
 9667SOL     OW29820   6.697   3.057   4.824
 9667SOL    HW129821   6.657   3.101   4.905
 9667SOL    HW229822   6.656   3.094   4.741
 9668SOL     OW29823   6.501   1.951   5.126
 9668SOL    HW129824   6.526   1.931   5.031
 9668SOL    HW229825   6.573   2.007   5.168
 9669SOL     OW29826   6.566   2.978   5.443
 9669SOL    HW129827   6.467   2.984   5.453
 9669SOL    HW229828   6.589   2.898   5.387
 9670SOL     OW29829   6.291   2.912   4.092
 9670SOL    HW129830   6.277   2.919   4.191
 9670SOL    HW229831   6.375   2.861   4.074
 9671SOL     OW29832   5.996   2.675   4.975
 9671SOL    HW129833   6.082   2.687   5.025
 9671SOL    HW229834   5.954   2.588   5.002
 9672SOL     OW29835   6.860   2.248   4.986
 9672SOL    HW129836   6.881   2.322   5.050
 9672SOL    HW229837   6.771   2.265   4.943
 9673SOL     OW29838   5.650   3.426   5.055
 9673SOL    HW129839   5.604   3.508   5.021
 9673SOL    HW229840   5.748   3.445   5.064
 9674SOL     OW29841   5.953   2.962   4.225
 9674SOL    HW129842   5.946   3.045   4.169
 9674SOL    HW229843   5.957   2.882   4.165
 9675SOL     OW29844   6.152   2.399   4.589
 9675SOL    HW129845   6.164   2.465   4.515
 9675SOL    HW229846   6.198   2.433   4.672
 9676SOL     OW29847   6.838   3.210   4.112
 9676SOL    HW129848   6.888   3.287   4.152
 9676SOL    HW229849   6.743   3.212   4.144
 9677SOL     OW29850   6.858   3.307   4.866
 9677SOL    HW129851   6.905   3.320   4.953
 9677SOL    HW229852   6.792   3.233   4.875
 9678SOL     OW29853   5.940   3.372   5.053
 9678SOL    HW129854   5.919   3.328   4.966
 9678SOL    HW229855   6.037   3.398   5.056
 9679SOL     OW29856   5.988   2.613   5.322
 9679SOL    HW129857   6.056   2.668   5.275
 9679SOL    HW229858   6.028   2.525   5.349
 9680SOL     OW29859   6.599   1.967   5.494
 9680SOL    HW129860   6.605   2.052   5.442
 9680SOL    HW229861   6.631   1.891   5.437
 9681SOL     OW29862   6.090   1.912   5.464
 9681SOL    HW129863   6.048   1.855   5.394
 9681SOL    HW229864   6.024   1.981   5.496
 9682SOL     OW29865   6.159   2.732   4.753
 9682SOL    HW129866   6.203   2.821   4.744
 9682SOL    HW229867   6.096   2.732   4.830
 9683SOL     OW29868   6.946   2.724   4.769
 9683SOL    HW129869   6.871   2.724   4.703
 9683SOL    HW229870   6.983   2.632   4.778
 9684SOL     OW29871   6.795   2.387   3.999
 9684SOL    HW129872   6.808   2.303   4.053
 9684SOL    HW229873   6.766   2.461   4.059
 9685SOL     OW29874   5.893   2.075   4.955
 9685SOL    HW129875   5.870   2.112   5.045
 9685SOL    HW229876   5.863   1.980   4.949
 9686SOL     OW29877   5.623   3.172   5.006
 9686SOL    HW129878   5.676   3.123   5.074
 9686SOL    HW229879   5.645   3.270   5.011
 9687SOL     OW29880   6.318   2.496   4.788
 9687SOL    HW129881   6.377   2.470   4.712
 9687SOL    HW229882   6.290   2.592   4.777
 9688SOL     OW29883   5.893   1.925   4.342
 9688SOL    HW129884   5.882   2.019   4.375
 9688SOL    HW229885   5.888   1.862   4.419
 9689SOL     OW29886   7.208   2.229   4.098
 9689SOL    HW129887   7.210   2.153   4.162
 9689SOL    HW229888   7.160   2.306   4.138
 9690SOL     OW29889   6.609   2.628   4.690
 9690SOL    HW129890   6.624   2.649   4.786
 9690SOL    HW229891   6.579   2.533   4.681
 9691SOL     OW29892   6.566   3.435   5.424
 9691SOL    HW129893   6.546   3.479   5.336
 9691SOL    HW229894   6.605   3.344   5.408
 9692SOL     OW29895   5.936   2.760   5.528
 9692SOL    HW129896   6.012   2.804   5.576
 9692SOL    HW229897   5.971   2.713   5.446
 9693SOL     OW29898   6.889   2.700   3.766
 9693SOL    HW129899   6.923   2.607   3.781
 9693SOL    HW229900   6.907   2.727   3.671
 9694SOL     OW29901   6.654   3.195   4.573
 9694SOL    HW129902   6.661   3.111   4.518
 9694SOL    HW229903   6.716   3.264   4.537
 9695SOL     OW29904   5.905   2.672   4.673
 9695SOL    HW129905   5.998   2.708   4.678
 9695SOL    HW229906   5.899   2.587   4.725
 9696SOL     OW29907   5.925   2.371   4.730
 9696SOL    HW129908   5.873   2.288   4.713
 9696SOL    HW229909   6.002   2.376   4.666
 9697SOL     OW29910   6.724   2.242   5.402
 9697SOL    HW129911   6.679   2.305   5.466
 9697SOL    HW229912   6.817   2.273   5.385
 9698SOL     OW29913   6.746   2.069   5.201
 9698SOL    HW129914   6.746   2.133   5.278
 9698SOL    HW229915   6.774   2.117   5.118
 9699SOL     OW29916   5.594   3.188   3.924
 9699SOL    HW129917   5.501   3.209   3.893
 9699SOL    HW229918   5.604   3.089   3.937
 9700SOL     OW29919   5.674   3.663   4.651
 9700SOL    HW129920   5.632   3.577   4.624
 9700SOL    HW229921   5.768   3.666   4.617
 9701SOL     OW29922   6.090   3.430   4.634
 9701SOL    HW129923   6.156   3.504   4.643
 9701SOL    HW229924   6.134   3.351   4.592
 9702SOL     OW29925   6.588   2.658   4.962
 9702SOL    HW129926   6.629   2.626   5.048
 9702SOL    HW229927   6.492   2.631   4.959
 9703SOL     OW29928   5.626   2.406   4.838
 9703SOL    HW129929   5.711   2.373   4.797
 9703SOL    HW229930   5.639   2.421   4.936
 9704SOL     OW29931   5.775   2.382   5.446
 9704SOL    HW129932   5.834   2.342   5.376
 9704SOL    HW229933   5.717   2.453   5.405
 9705SOL     OW29934   6.401   2.434   4.049
 9705SOL    HW129935   6.408   2.345   4.003
 9705SOL    HW229936   6.307   2.468   4.041
 9706SOL     OW29937   5.838   3.426   5.468
 9706SOL    HW129938   5.808   3.483   5.544
 9706SOL    HW229939   5.831   3.329   5.494
 9707SOL     OW29940   6.257   2.326   4.993
 9707SOL    HW129941   6.223   2.237   4.963
 9707SOL    HW229942   6.283   2.380   4.913
 9708SOL     OW29943   6.516   3.540   5.189
 9708SOL    HW129944   6.492   3.522   5.094
 9708SOL    HW229945   6.546   3.634   5.199
 9709SOL     OW29946   6.059   2.362   3.915
 9709SOL    HW129947   6.120   2.442   3.919
 9709SOL    HW229948   5.964   2.393   3.922
 9710SOL     OW29949   5.745   2.999   5.190
 9710SOL    HW129950   5.767   2.938   5.266
 9710SOL    HW229951   5.755   2.950   5.104
 9711SOL     OW29952   6.933   2.921   4.958
 9711SOL    HW129953   6.957   2.858   4.884
 9711SOL    HW229954   6.843   2.961   4.940
 9712SOL     OW29955   6.888   2.717   4.033
 9712SOL    HW129956   6.802   2.686   4.075
 9712SOL    HW229957   6.884   2.703   3.934
 9713SOL     OW29958   6.838   3.593   4.852
 9713SOL    HW129959   6.922   3.598   4.798
 9713SOL    HW229960   6.815   3.497   4.870
 9714SOL     OW29961   5.669   3.120   4.746
 9714SOL    HW129962   5.664   3.119   4.846
 9714SOL    HW229963   5.586   3.079   4.708
 9715SOL     OW29964   6.274   3.524   5.440
 9715SOL    HW129965   6.218   3.605   5.449
 9715SOL    HW229966   6.326   3.528   5.354
 9716SOL     OW29967   6.974   3.435   4.201
 9716SOL    HW129968   7.041   3.447   4.127
 9716SOL    HW229969   6.934   3.524   4.224
 9717SOL     OW29970   5.716   3.656   5.575
 9717SOL    HW129971   5.675   3.582   5.628
 9717SOL    HW229972   5.780   3.707   5.633
 9718SOL     OW29973   6.866   2.789   4.396
 9718SOL    HW129974   6.926   2.708   4.398
 9718SOL    HW229975   6.906   2.858   4.336
 9719SOL     OW29976   6.416   3.135   5.146
 9719SOL    HW129977   6.411   3.168   5.241
 9719SOL    HW229978   6.330   3.154   5.100
 9720SOL     OW29979   6.258   3.478   3.878
 9720SOL    HW129980   6.267   3.488   3.779
 9720SOL    HW229981   6.218   3.389   3.899
 9721SOL     OW29982   5.849   2.188   4.444
 9721SOL    HW129983   5.770   2.239   4.410
 9721SOL    HW229984   5.840   2.173   4.542
 9722SOL     OW29985   6.780   3.474   3.755
 9722SOL    HW129986   6.786   3.381   3.792
 9722SOL    HW229987   6.721   3.474   3.675
 9723SOL     OW29988   6.408   2.864   5.096
 9723SOL    HW129989   6.448   2.863   5.004
 9723SOL    HW229990   6.418   2.956   5.136
 9724SOL     OW29991   6.502   2.772   4.015
 9724SOL    HW129992   6.565   2.810   3.947
 9724SOL    HW229993   6.542   2.689   4.054
 9725SOL     OW29994   5.958   3.150   5.214
 9725SOL    HW129995   5.945   3.243   5.180
 9725SOL    HW229996   5.874   3.098   5.201
 9726SOL     OW29997   6.625   2.960   4.420
 9726SOL    HW129998   6.555   2.913   4.474
 9726SOL    HW229999   6.684   2.892   4.377
 9727SOL     OW30000   6.600   2.098   4.695
 9727SOL    HW130001   6.592   2.062   4.602
 9727SOL    HW230002   6.598   2.022   4.760
 9728SOL     OW30003   6.176   3.349   4.215
 9728SOL    HW130004   6.218   3.291   4.145
 9728SOL    HW230005   6.132   3.428   4.171
 9729SOL     OW30006   5.841   3.210   4.014
 9729SOL    HW130007   5.745   3.211   3.987
 9729SOL    HW230008   5.853   3.263   4.098
 9730SOL     OW30009   5.691   2.875   5.450
 9730SOL    HW130010   5.614   2.842   5.504
 9730SOL    HW230011   5.776   2.845   5.492
 9731SOL     OW30012   6.258   2.065   5.213
 9731SOL    HW130013   6.348   2.049   5.173
 9731SOL    HW230014   6.266   2.070   5.312
 9732SOL     OW30015   5.661   2.207   3.757
 9732SOL    HW130016   5.569   2.179   3.728
 9732SOL    HW230017   5.692   2.284   3.701
 9733SOL     OW30018   5.658   2.028   4.042
 9733SOL    HW130019   5.641   2.111   3.988
 9733SOL    HW230020   5.748   1.991   4.020
 9734SOL     OW30021   6.199   2.704   5.155
 9734SOL    HW130022   6.255   2.785   5.138
 9734SOL    HW230023   6.258   2.624   5.158
 9735SOL     OW30024   6.302   2.427   5.432
 9735SOL    HW130025   6.321   2.492   5.506
 9735SOL    HW230026   6.362   2.347   5.441
 9736SOL     OW30027   7.036   3.082   5.357
 9736SOL    HW130028   7.027   3.072   5.456
 9736SOL    HW230029   7.132   3.075   5.331
 9737SOL     OW30030   5.976   3.603   5.284
 9737SOL    HW130031   5.885   3.644   5.282
 9737SOL    HW230032   5.969   3.509   5.316
 9738SOL     OW30033   6.811   2.187   4.173
 9738SOL    HW130034   6.876   2.113   4.162
 9738SOL    HW230035   6.831   2.237   4.257
 9739SOL     OW30036   6.180   2.607   4.376
 9739SOL    HW130037   6.230   2.692   4.357
 9739SOL    HW230038   6.092   2.609   4.328
 9740SOL     OW30039   6.445   3.236   3.740
 9740SOL    HW130040   6.399   3.251   3.828
 9740SOL    HW230041   6.489   3.321   3.710
 9741SOL     OW30042   6.247   3.652   4.677
 9741SOL    HW130043   6.201   3.740   4.664
 9741SOL    HW230044   6.346   3.664   4.670
 9742SOL     OW30045   6.445   2.818   4.585
 9742SOL    HW130046   6.499   2.749   4.633
 9742SOL    HW230047   6.413   2.887   4.651
 9743SOL     OW30048   6.669   2.846   3.811
 9743SOL    HW130049   6.646   2.899   3.729
 9743SOL    HW230050   6.750   2.790   3.792
 9744SOL     OW30051   5.807   3.176   5.568
 9744SOL    HW130052   5.742   3.103   5.547
 9744SOL    HW230053   5.811   3.190   5.666
 9745SOL     OW30054   5.665   3.102   4.377
 9745SOL    HW130055   5.664   3.055   4.465
 9745SOL    HW230056   5.747   3.074   4.326
 9746SOL     OW30057   6.258   3.253   5.348
 9746SOL    HW130058   6.180   3.203   5.386
 9746SOL    HW230059   6.255   3.348   5.379
 9747SOL     OW30060   6.014   2.286   4.244
 9747SOL    HW130061   6.044   2.214   4.182
 9747SOL    HW230062   5.975   2.246   4.327
 9748SOL     OW30063   5.903   2.409   5.004
 9748SOL    HW130064   5.941   2.350   5.076
 9748SOL    HW230065   5.943   2.383   4.916
 9749SOL     OW30066   6.398   3.448   4.411
 9749SOL    HW130067   6.430   3.458   4.317
 9749SOL    HW230068   6.319   3.386   4.413
 9750SOL     OW30069   7.010   2.076   4.836
 9750SOL    HW130070   7.062   2.011   4.891
 9750SOL    HW230071   6.961   2.139   4.897
 9751SOL     OW30072   6.587   1.896   4.878
 9751SOL    HW130073   6.524   1.824   4.847
 9751SOL    HW230074   6.680   1.860   4.878
 9752SOL     OW30075   6.356   3.192   4.025
 9752SOL    HW130076   6.310   3.105   4.042
 9752SOL    HW230077   6.447   3.189   4.066
 9753SOL     OW30078   6.204   3.429   5.008
 9753SOL    HW130079   6.199   3.511   5.065
 9753SOL    HW230080   6.293   3.426   4.963
 9754SOL     OW30081   6.938   1.914   3.892
 9754SOL    HW130082   6.973   1.873   3.808
 9754SOL    HW230083   6.848   1.876   3.912
 9755SOL     OW30084   5.625   2.939   4.024
 9755SOL    HW130085   5.724   2.928   4.015
 9755SOL    HW230086   5.585   2.853   4.056
 9756SOL     OW30087   6.461   3.508   4.061
 9756SOL    HW130088   6.384   3.473   4.007
 9756SOL    HW230089   6.429   3.579   4.123
 9757SOL     OW30090   5.816   2.490   5.699
 9757SOL    HW130091   5.723   2.488   5.736
 9757SOL    HW230092   5.817   2.451   5.607
 9758SOL     OW30093   5.811   2.137   6.582
 9758SOL    HW130094   5.846   2.120   6.674
 9758SOL    HW230095   5.723   2.092   6.570
 9759SOL     OW30096   5.605   2.230   6.233
 9759SOL    HW130097   5.523   2.273   6.272
 9759SOL    HW230098   5.577   2.157   6.170
 9760SOL     OW30099   6.155   3.137   6.751
 9760SOL    HW130100   6.062   3.130   6.714
 9760SOL    HW230101   6.166   3.226   6.795
 9761SOL     OW30102   7.141   3.373   6.289
 9761SOL    HW130103   7.084   3.357   6.370
 9761SOL    HW230104   7.082   3.383   6.209
 9762SOL     OW30105   6.721   2.565   6.303
 9762SOL    HW130106   6.778   2.643   6.278
 9762SOL    HW230107   6.661   2.591   6.379
 9763SOL     OW30108   6.354   3.006   6.609
 9763SOL    HW130109   6.276   3.023   6.669
 9763SOL    HW230110   6.388   3.093   6.573
 9764SOL     OW30111   6.271   2.874   6.251
 9764SOL    HW130112   6.340   2.858   6.321
 9764SOL    HW230113   6.198   2.931   6.289
 9765SOL     OW30114   5.921   3.297   6.647
 9765SOL    HW130115   5.843   3.266   6.594
 9765SOL    HW230116   5.979   3.355   6.590
 9766SOL     OW30117   5.817   3.575   6.069
 9766SOL    HW130118   5.851   3.652   6.123
 9766SOL    HW230119   5.861   3.575   5.979
 9767SOL     OW30120   5.816   3.296   6.124
 9767SOL    HW130121   5.790   3.392   6.124
 9767SOL    HW230122   5.745   3.242   6.169
 9768SOL     OW30123   5.826   2.953   6.472
 9768SOL    HW130124   5.840   2.869   6.524
 9768SOL    HW230125   5.771   3.017   6.527
 9769SOL     OW30126   6.206   3.648   7.025
 9769SOL    HW130127   6.114   3.631   7.060
 9769SOL    HW230128   6.234   3.740   7.051
 9770SOL     OW30129   6.192   2.826   5.709
 9770SOL    HW130130   6.199   2.910   5.655
 9770SOL    HW230131   6.238   2.839   5.797
 9771SOL     OW30132   7.180   1.976   7.066
 9771SOL    HW130133   7.162   2.043   6.994
 9771SOL    HW230134   7.177   2.022   7.155
 9772SOL     OW30135   5.708   2.505   6.149
 9772SOL    HW130136   5.663   2.417   6.166
 9772SOL    HW230137   5.707   2.559   6.233
 9773SOL     OW30138   5.613   3.458   5.703
 9773SOL    HW130139   5.594   3.362   5.724
 9773SOL    HW230140   5.580   3.516   5.778
 9774SOL     OW30141   6.199   3.227   6.312
 9774SOL    HW130142   6.150   3.140   6.321
 9774SOL    HW230143   6.176   3.270   6.225
 9775SOL     OW30144   6.879   3.090   7.009
 9775SOL    HW130145   6.916   3.017   6.951
 9775SOL    HW230146   6.931   3.095   7.094
 9776SOL     OW30147   6.395   1.866   6.088
 9776SOL    HW130148   6.435   1.957   6.079
 9776SOL    HW230149   6.295   1.874   6.094
 9777SOL     OW30150   5.783   2.838   6.850
 9777SOL    HW130151   5.872   2.793   6.836
 9777SOL    HW230152   5.710   2.773   6.831
 9778SOL     OW30153   6.184   2.591   5.856
 9778SOL    HW130154   6.208   2.660   5.788
 9778SOL    HW230155   6.106   2.624   5.910
 9779SOL     OW30156   6.867   2.207   6.530
 9779SOL    HW130157   6.781   2.157   6.517
 9779SOL    HW230158   6.929   2.153   6.586
 9780SOL     OW30159   6.393   2.467   7.051
 9780SOL    HW130160   6.346   2.464   7.140
 9780SOL    HW230161   6.342   2.412   6.985
 9781SOL     OW30162   6.577   2.272   6.828
 9781SOL    HW130163   6.500   2.306   6.882
 9781SOL    HW230164   6.543   2.221   6.749
 9782SOL     OW30165   6.627   2.563   6.015
 9782SOL    HW130166   6.653   2.559   6.111
 9782SOL    HW230167   6.542   2.512   6.001
 9783SOL     OW30168   5.662   2.673   6.375
 9783SOL    HW130169   5.761   2.661   6.384
 9783SOL    HW230170   5.638   2.768   6.396
 9784SOL     OW30171   5.716   3.683   7.157
 9784SOL    HW130172   5.706   3.668   7.256
 9784SOL    HW230173   5.630   3.719   7.121
 9785SOL     OW30174   6.451   2.210   5.781
 9785SOL    HW130175   6.510   2.273   5.732
 9785SOL    HW230176   6.470   2.116   5.752
 9786SOL     OW30177   6.948   3.006   6.131
 9786SOL    HW130178   7.031   2.977   6.083
 9786SOL    HW230179   6.899   3.073   6.075
 9787SOL     OW30180   6.136   2.058   6.471
 9787SOL    HW130181   6.131   2.053   6.571
 9787SOL    HW230182   6.138   2.154   6.442
 9788SOL     OW30183   6.594   3.318   6.063
 9788SOL    HW130184   6.548   3.390   6.011
 9788SOL    HW230185   6.590   3.338   6.161
 9789SOL     OW30186   5.937   3.663   6.439
 9789SOL    HW130187   5.987   3.577   6.445
 9789SOL    HW230188   6.002   3.740   6.436
 9790SOL     OW30189   5.907   2.805   5.828
 9790SOL    HW130190   5.989   2.844   5.786
 9790SOL    HW230191   5.880   2.723   5.779
 9791SOL     OW30192   6.697   3.638   5.823
 9791SOL    HW130193   6.637   3.576   5.873
 9791SOL    HW230194   6.728   3.594   5.738
 9792SOL     OW30195   6.050   3.605   5.909
 9792SOL    HW130196   6.083   3.644   5.995
 9792SOL    HW230197   6.126   3.598   5.844
 9793SOL     OW30198   5.835   3.647   6.827
 9793SOL    HW130199   5.892   3.582   6.877
 9793SOL    HW230200   5.819   3.614   6.734
 9794SOL     OW30201   6.526   3.560   6.490
 9794SOL    HW130202   6.606   3.503   6.511
 9794SOL    HW230203   6.477   3.520   6.413
 9795SOL     OW30204   5.968   2.562   6.066
 9795SOL    HW130205   6.013   2.472   6.063
 9795SOL    HW230206   5.874   2.551   6.099
 9796SOL     OW30207   6.200   1.984   5.703
 9796SOL    HW130208   6.298   1.962   5.710
 9796SOL    HW230209   6.169   1.967   5.610
 9797SOL     OW30210   6.474   3.376   6.781
 9797SOL    HW130211   6.451   3.351   6.687
 9797SOL    HW230212   6.535   3.307   6.820
 9798SOL     OW30213   6.389   3.264   6.510
 9798SOL    HW130214   6.479   3.278   6.468
 9798SOL    HW230215   6.318   3.266   6.439
 9799SOL     OW30216   6.508   2.365   6.485
 9799SOL    HW130217   6.483   2.356   6.389
 9799SOL    HW230218   6.556   2.283   6.516
 9800SOL     OW30219   6.125   1.926   6.098
 9800SOL    HW130220   6.044   1.927   6.156
 9800SOL    HW230221   6.128   2.009   6.043
 9801SOL     OW30222   7.020   3.050   5.627
 9801SOL    HW130223   7.052   2.974   5.684
 9801SOL    HW230224   6.928   3.077   5.657
 9802SOL     OW30225   5.883   1.897   5.757
 9802SOL    HW130226   5.932   1.981   5.736
 9802SOL    HW230227   5.945   1.832   5.802
 9803SOL     OW30228   6.521   2.098   6.066
 9803SOL    HW130229   6.473   2.139   5.988
 9803SOL    HW230230   6.620   2.096   6.047
 9804SOL     OW30231   6.813   3.432   6.379
 9804SOL    HW130232   6.834   3.506   6.314
 9804SOL    HW230233   6.881   3.432   6.452
 9805SOL     OW30234   6.045   3.014   6.327
 9805SOL    HW130235   5.974   2.987   6.392
 9805SOL    HW230236   6.019   2.986   6.234
 9806SOL     OW30237   6.857   3.659   6.177
 9806SOL    HW130238   6.901   3.723   6.113
 9806SOL    HW230239   6.807   3.711   6.247
 9807SOL     OW30240   6.618   2.411   5.602
 9807SOL    HW130241   6.577   2.493   5.563
 9807SOL    HW230242   6.682   2.437   5.675
 9808SOL     OW30243   6.147   2.084   6.733
 9808SOL    HW130244   6.185   2.000   6.770
 9808SOL    HW230245   6.059   2.103   6.777
 9809SOL     OW30246   6.452   2.316   6.228
 9809SOL    HW130247   6.420   2.388   6.166
 9809SOL    HW230248   6.476   2.235   6.175
 9810SOL     OW30249   6.603   1.901   6.339
 9810SOL    HW130250   6.531   1.906   6.270
 9810SOL    HW230251   6.579   1.832   6.408
 9811SOL     OW30252   6.074   3.247   5.760
 9811SOL    HW130253   5.987   3.232   5.807
 9811SOL    HW230254   6.057   3.273   5.665
 9812SOL     OW30255   6.113   2.118   5.914
 9812SOL    HW130256   6.140   2.059   5.839
 9812SOL    HW230257   6.113   2.213   5.883
 9813SOL     OW30258   7.178   3.491   7.211
 9813SOL    HW130259   7.205   3.525   7.121
 9813SOL    HW230260   7.257   3.453   7.257
 9814SOL     OW30261   6.697   3.057   6.686
 9814SOL    HW130262   6.657   3.101   6.767
 9814SOL    HW230263   6.656   3.094   6.603
 9815SOL     OW30264   6.291   2.912   5.954
 9815SOL    HW130265   6.277   2.919   6.053
 9815SOL    HW230266   6.375   2.861   5.936
 9816SOL     OW30267   5.996   2.675   6.837
 9816SOL    HW130268   6.082   2.687   6.887
 9816SOL    HW230269   5.954   2.588   6.864
 9817SOL     OW30270   6.860   2.248   6.848
 9817SOL    HW130271   6.881   2.322   6.912
 9817SOL    HW230272   6.771   2.265   6.805
 9818SOL     OW30273   5.650   3.426   6.917
 9818SOL    HW130274   5.604   3.508   6.883
 9818SOL    HW230275   5.748   3.445   6.926
 9819SOL     OW30276   5.953   2.962   6.087
 9819SOL    HW130277   5.946   3.045   6.031
 9819SOL    HW230278   5.957   2.882   6.027
 9820SOL     OW30279   6.152   2.399   6.451
 9820SOL    HW130280   6.164   2.465   6.377
 9820SOL    HW230281   6.198   2.433   6.534
 9821SOL     OW30282   6.838   3.210   5.974
 9821SOL    HW130283   6.888   3.287   6.014
 9821SOL    HW230284   6.743   3.212   6.006
 9822SOL     OW30285   6.858   3.307   6.728
 9822SOL    HW130286   6.905   3.320   6.815
 9822SOL    HW230287   6.792   3.233   6.737
 9823SOL     OW30288   5.940   3.372   6.915
 9823SOL    HW130289   5.919   3.328   6.828
 9823SOL    HW230290   6.037   3.398   6.918
 9824SOL     OW30291   6.159   2.732   6.615
 9824SOL    HW130292   6.203   2.821   6.606
 9824SOL    HW230293   6.096   2.732   6.692
 9825SOL     OW30294   6.946   2.724   6.631
 9825SOL    HW130295   6.871   2.724   6.565
 9825SOL    HW230296   6.983   2.632   6.640
 9826SOL     OW30297   6.795   2.387   5.861
 9826SOL    HW130298   6.808   2.303   5.915
 9826SOL    HW230299   6.766   2.461   5.921
 9827SOL     OW30300   5.893   2.075   6.817
 9827SOL    HW130301   5.870   2.112   6.907
 9827SOL    HW230302   5.863   1.980   6.811
 9828SOL     OW30303   5.623   3.172   6.868
 9828SOL    HW130304   5.676   3.123   6.936
 9828SOL    HW230305   5.645   3.270   6.873
 9829SOL     OW30306   6.318   2.496   6.650
 9829SOL    HW130307   6.377   2.470   6.574
 9829SOL    HW230308   6.290   2.592   6.639
 9830SOL     OW30309   5.893   1.925   6.204
 9830SOL    HW130310   5.882   2.019   6.237
 9830SOL    HW230311   5.888   1.862   6.281
 9831SOL     OW30312   7.208   2.229   5.960
 9831SOL    HW130313   7.210   2.153   6.024
 9831SOL    HW230314   7.160   2.306   6.000
 9832SOL     OW30315   6.609   2.628   6.552
 9832SOL    HW130316   6.624   2.649   6.648
 9832SOL    HW230317   6.579   2.533   6.543
 9833SOL     OW30318   6.889   2.700   5.628
 9833SOL    HW130319   6.923   2.607   5.643
 9833SOL    HW230320   6.907   2.727   5.533
 9834SOL     OW30321   6.654   3.195   6.435
 9834SOL    HW130322   6.661   3.111   6.380
 9834SOL    HW230323   6.716   3.264   6.399
 9835SOL     OW30324   5.905   2.672   6.535
 9835SOL    HW130325   5.998   2.708   6.540
 9835SOL    HW230326   5.899   2.587   6.587
 9836SOL     OW30327   5.925   2.371   6.592
 9836SOL    HW130328   5.873   2.288   6.575
 9836SOL    HW230329   6.002   2.376   6.528
 9837SOL     OW30330   6.746   2.069   7.063
 9837SOL    HW130331   6.746   2.133   7.140
 9837SOL    HW230332   6.774   2.117   6.980
 9838SOL     OW30333   5.594   3.188   5.786
 9838SOL    HW130334   5.501   3.209   5.755
 9838SOL    HW230335   5.604   3.089   5.799
 9839SOL     OW30336   5.674   3.663   6.513
 9839SOL    HW130337   5.632   3.577   6.486
 9839SOL    HW230338   5.768   3.666   6.479
 9840SOL     OW30339   6.090   3.430   6.496
 9840SOL    HW130340   6.156   3.504   6.505
 9840SOL    HW230341   6.134   3.351   6.454
 9841SOL     OW30342   6.588   2.658   6.824
 9841SOL    HW130343   6.629   2.626   6.910
 9841SOL    HW230344   6.492   2.631   6.821
 9842SOL     OW30345   5.626   2.406   6.700
 9842SOL    HW130346   5.711   2.373   6.659
 9842SOL    HW230347   5.639   2.421   6.798
 9843SOL     OW30348   6.401   2.434   5.911
 9843SOL    HW130349   6.408   2.345   5.865
 9843SOL    HW230350   6.307   2.468   5.903
 9844SOL     OW30351   6.257   2.326   6.855
 9844SOL    HW130352   6.223   2.237   6.825
 9844SOL    HW230353   6.283   2.380   6.775
 9845SOL     OW30354   6.516   3.540   7.051
 9845SOL    HW130355   6.492   3.522   6.956
 9845SOL    HW230356   6.546   3.634   7.061
 9846SOL     OW30357   6.059   2.362   5.777
 9846SOL    HW130358   6.120   2.442   5.781
 9846SOL    HW230359   5.964   2.393   5.784
 9847SOL     OW30360   5.745   2.999   7.052
 9847SOL    HW130361   5.767   2.938   7.128
 9847SOL    HW230362   5.755   2.950   6.966
 9848SOL     OW30363   6.933   2.921   6.820
 9848SOL    HW130364   6.957   2.858   6.746
 9848SOL    HW230365   6.843   2.961   6.802
 9849SOL     OW30366   6.888   2.717   5.895
 9849SOL    HW130367   6.802   2.686   5.937
 9849SOL    HW230368   6.884   2.703   5.796
 9850SOL     OW30369   6.838   3.593   6.714
 9850SOL    HW130370   6.922   3.598   6.660
 9850SOL    HW230371   6.815   3.497   6.732
 9851SOL     OW30372   5.669   3.120   6.608
 9851SOL    HW130373   5.664   3.119   6.708
 9851SOL    HW230374   5.586   3.079   6.570
 9852SOL     OW30375   6.974   3.435   6.063
 9852SOL    HW130376   7.041   3.447   5.989
 9852SOL    HW230377   6.934   3.524   6.086
 9853SOL     OW30378   6.866   2.789   6.258
 9853SOL    HW130379   6.926   2.708   6.260
 9853SOL    HW230380   6.906   2.858   6.198
 9854SOL     OW30381   6.258   3.478   5.740
 9854SOL    HW130382   6.267   3.488   5.641
 9854SOL    HW230383   6.218   3.389   5.761
 9855SOL     OW30384   5.849   2.188   6.306
 9855SOL    HW130385   5.770   2.239   6.272
 9855SOL    HW230386   5.840   2.173   6.404
 9856SOL     OW30387   6.780   3.474   5.617
 9856SOL    HW130388   6.786   3.381   5.654
 9856SOL    HW230389   6.721   3.474   5.537
 9857SOL     OW30390   6.408   2.864   6.958
 9857SOL    HW130391   6.448   2.863   6.866
 9857SOL    HW230392   6.418   2.956   6.998
 9858SOL     OW30393   6.502   2.772   5.877
 9858SOL    HW130394   6.565   2.810   5.809
 9858SOL    HW230395   6.542   2.689   5.916
 9859SOL     OW30396   6.625   2.960   6.282
 9859SOL    HW130397   6.555   2.913   6.336
 9859SOL    HW230398   6.684   2.892   6.239
 9860SOL     OW30399   6.600   2.098   6.557
 9860SOL    HW130400   6.592   2.062   6.464
 9860SOL    HW230401   6.598   2.022   6.622
 9861SOL     OW30402   6.176   3.349   6.077
 9861SOL    HW130403   6.218   3.291   6.007
 9861SOL    HW230404   6.132   3.428   6.033
 9862SOL     OW30405   5.841   3.210   5.876
 9862SOL    HW130406   5.745   3.211   5.849
 9862SOL    HW230407   5.853   3.263   5.960
 9863SOL     OW30408   6.258   2.065   7.075
 9863SOL    HW130409   6.348   2.049   7.035
 9863SOL    HW230410   6.266   2.070   7.174
 9864SOL     OW30411   5.661   2.207   5.619
 9864SOL    HW130412   5.569   2.179   5.590
 9864SOL    HW230413   5.692   2.284   5.563
 9865SOL     OW30414   5.658   2.028   5.904
 9865SOL    HW130415   5.641   2.111   5.850
 9865SOL    HW230416   5.748   1.991   5.882
 9866SOL     OW30417   5.976   3.603   7.146
 9866SOL    HW130418   5.885   3.644   7.144
 9866SOL    HW230419   5.969   3.509   7.178
 9867SOL     OW30420   6.811   2.187   6.035
 9867SOL    HW130421   6.876   2.113   6.024
 9867SOL    HW230422   6.831   2.237   6.119
 9868SOL     OW30423   6.180   2.607   6.238
 9868SOL    HW130424   6.230   2.692   6.219
 9868SOL    HW230425   6.092   2.609   6.190
 9869SOL     OW30426   6.445   3.236   5.602
 9869SOL    HW130427   6.399   3.251   5.690
 9869SOL    HW230428   6.489   3.321   5.572
 9870SOL     OW30429   6.247   3.652   6.539
 9870SOL    HW130430   6.201   3.740   6.526
 9870SOL    HW230431   6.346   3.664   6.532
 9871SOL     OW30432   6.445   2.818   6.447
 9871SOL    HW130433   6.499   2.749   6.495
 9871SOL    HW230434   6.413   2.887   6.513
 9872SOL     OW30435   6.669   2.846   5.673
 9872SOL    HW130436   6.646   2.899   5.591
 9872SOL    HW230437   6.750   2.790   5.654
 9873SOL     OW30438   5.665   3.102   6.239
 9873SOL    HW130439   5.664   3.055   6.327
 9873SOL    HW230440   5.747   3.074   6.188
 9874SOL     OW30441   6.014   2.286   6.106
 9874SOL    HW130442   6.044   2.214   6.044
 9874SOL    HW230443   5.975   2.246   6.189
 9875SOL     OW30444   5.903   2.409   6.866
 9875SOL    HW130445   5.941   2.350   6.938
 9875SOL    HW230446   5.943   2.383   6.778
 9876SOL     OW30447   6.398   3.448   6.273
 9876SOL    HW130448   6.430   3.458   6.179
 9876SOL    HW230449   6.319   3.386   6.275
 9877SOL     OW30450   7.010   2.076   6.698
 9877SOL    HW130451   7.062   2.011   6.753
 9877SOL    HW230452   6.961   2.139   6.759
 9878SOL     OW30453   6.587   1.896   6.740
 9878SOL    HW130454   6.524   1.824   6.709
 9878SOL    HW230455   6.680   1.860   6.740
 9879SOL     OW30456   6.356   3.192   5.887
 9879SOL    HW130457   6.310   3.105   5.904
 9879SOL    HW230458   6.447   3.189   5.928
 9880SOL     OW30459   6.204   3.429   6.870
 9880SOL    HW130460   6.199   3.511   6.927
 9880SOL    HW230461   6.293   3.426   6.825
 9881SOL     OW30462   6.938   1.914   5.754
 9881SOL    HW130463   6.973   1.873   5.670
 9881SOL    HW230464   6.848   1.876   5.774
 9882SOL     OW30465   5.625   2.939   5.886
 9882SOL    HW130466   5.724   2.928   5.877
 9882SOL    HW230467   5.585   2.853   5.918
 9883SOL     OW30468   6.461   3.508   5.923
 9883SOL    HW130469   6.384   3.473   5.869
 9883SOL    HW230470   6.429   3.579   5.985
 9884SOL     OW30471   5.816   4.352   0.113
 9884SOL    HW130472   5.723   4.350   0.150
 9884SOL    HW230473   5.817   4.313   0.021
 9885SOL     OW30474   5.811   3.999   0.996
 9885SOL    HW130475   5.846   3.982   1.088
 9885SOL    HW230476   5.723   3.954   0.984
 9886SOL     OW30477   5.605   4.092   0.647
 9886SOL    HW130478   5.523   4.135   0.686
 9886SOL    HW230479   5.577   4.019   0.584
 9887SOL     OW30480   6.155   4.999   1.165
 9887SOL    HW130481   6.062   4.992   1.128
 9887SOL    HW230482   6.166   5.088   1.209
 9888SOL     OW30483   7.141   5.235   0.703
 9888SOL    HW130484   7.084   5.219   0.784
 9888SOL    HW230485   7.082   5.245   0.623
 9889SOL     OW30486   6.721   4.427   0.717
 9889SOL    HW130487   6.778   4.505   0.692
 9889SOL    HW230488   6.661   4.453   0.793
 9890SOL     OW30489   6.354   4.868   1.023
 9890SOL    HW130490   6.276   4.885   1.083
 9890SOL    HW230491   6.388   4.955   0.987
 9891SOL     OW30492   6.436   4.522   1.823
 9891SOL    HW130493   6.432   4.598   1.888
 9891SOL    HW230494   6.458   4.558   1.732
 9892SOL     OW30495   6.271   4.736   0.665
 9892SOL    HW130496   6.340   4.720   0.735
 9892SOL    HW230497   6.198   4.793   0.703
 9893SOL     OW30498   6.272   4.885   1.803
 9893SOL    HW130499   6.332   4.964   1.817
 9893SOL    HW230500   6.186   4.916   1.762
 9894SOL     OW30501   5.921   5.159   1.061
 9894SOL    HW130502   5.843   5.128   1.008
 9894SOL    HW230503   5.979   5.217   1.004
 9895SOL     OW30504   6.024   4.116   1.499
 9895SOL    HW130505   6.106   4.060   1.508
 9895SOL    HW230506   5.943   4.058   1.503
 9896SOL     OW30507   5.817   5.437   0.483
 9896SOL    HW130508   5.851   5.514   0.537
 9896SOL    HW230509   5.861   5.437   0.393
 9897SOL     OW30510   6.713   5.065   1.690
 9897SOL    HW130511   6.760   5.065   1.778
 9897SOL    HW230512   6.665   4.978   1.679
 9898SOL     OW30513   5.816   5.158   0.538
 9898SOL    HW130514   5.790   5.254   0.538
 9898SOL    HW230515   5.745   5.104   0.583
 9899SOL     OW30516   5.826   4.815   0.886
 9899SOL    HW130517   5.840   4.731   0.938
 9899SOL    HW230518   5.771   4.879   0.941
 9900SOL     OW30519   6.206   5.510   1.439
 9900SOL    HW130520   6.114   5.493   1.474
 9900SOL    HW230521   6.234   5.602   1.465
 9901SOL     OW30522   6.192   4.688   0.123
 9901SOL    HW130523   6.199   4.772   0.069
 9901SOL    HW230524   6.238   4.701   0.211
 9902SOL     OW30525   5.708   4.367   0.563
 9902SOL    HW130526   5.663   4.279   0.580
 9902SOL    HW230527   5.707   4.421   0.647
 9903SOL     OW30528   5.613   5.320   0.117
 9903SOL    HW130529   5.594   5.224   0.138
 9903SOL    HW230530   5.580   5.378   0.192
 9904SOL     OW30531   5.699   4.461   1.597
 9904SOL    HW130532   5.787   4.448   1.642
 9904SOL    HW230533   5.686   4.558   1.575
 9905SOL     OW30534   6.199   5.089   0.726
 9905SOL    HW130535   6.150   5.002   0.735
 9905SOL    HW230536   6.176   5.132   0.639
 9906SOL     OW30537   6.879   4.952   1.423
 9906SOL    HW130538   6.916   4.879   1.365
 9906SOL    HW230539   6.931   4.957   1.508
 9907SOL     OW30540   6.395   3.728   0.502
 9907SOL    HW130541   6.435   3.819   0.493
 9907SOL    HW230542   6.295   3.736   0.508
 9908SOL     OW30543   5.783   4.700   1.264
 9908SOL    HW130544   5.872   4.655   1.250
 9908SOL    HW230545   5.710   4.635   1.245
 9909SOL     OW30546   6.773   5.516   1.616
 9909SOL    HW130547   6.797   5.576   1.540
 9909SOL    HW230548   6.780   5.421   1.586
 9910SOL     OW30549   5.903   3.975   1.801
 9910SOL    HW130550   5.974   4.046   1.807
 9910SOL    HW230551   5.815   4.014   1.829
 9911SOL     OW30552   6.184   4.453   0.270
 9911SOL    HW130553   6.208   4.522   0.202
 9911SOL    HW230554   6.106   4.486   0.324
 9912SOL     OW30555   6.867   4.069   0.944
 9912SOL    HW130556   6.781   4.019   0.931
 9912SOL    HW230557   6.929   4.015   1.000
 9913SOL     OW30558   6.393   4.329   1.465
 9913SOL    HW130559   6.346   4.326   1.554
 9913SOL    HW230560   6.342   4.274   1.399
 9914SOL     OW30561   6.980   4.193   1.674
 9914SOL    HW130562   6.960   4.236   1.762
 9914SOL    HW230563   7.058   4.131   1.683
 9915SOL     OW30564   6.559   4.614   1.572
 9915SOL    HW130565   6.605   4.530   1.543
 9915SOL    HW230566   6.503   4.648   1.497
 9916SOL     OW30567   6.577   4.134   1.242
 9916SOL    HW130568   6.500   4.168   1.296
 9916SOL    HW230569   6.543   4.083   1.163
 9917SOL     OW30570   6.627   4.425   0.429
 9917SOL    HW130571   6.653   4.421   0.525
 9917SOL    HW230572   6.542   4.374   0.415
 9918SOL     OW30573   5.662   4.535   0.789
 9918SOL    HW130574   5.761   4.523   0.798
 9918SOL    HW230575   5.638   4.630   0.810
 9919SOL     OW30576   5.716   5.545   1.571
 9919SOL    HW130577   5.706   5.530   1.670
 9919SOL    HW230578   5.630   5.581   1.535
 9920SOL     OW30579   6.451   4.072   0.195
 9920SOL    HW130580   6.510   4.135   0.146
 9920SOL    HW230581   6.470   3.978   0.166
 9921SOL     OW30582   6.948   4.868   0.545
 9921SOL    HW130583   7.031   4.839   0.497
 9921SOL    HW230584   6.899   4.935   0.489
 9922SOL     OW30585   6.136   3.920   0.885
 9922SOL    HW130586   6.131   3.915   0.985
 9922SOL    HW230587   6.138   4.016   0.856
 9923SOL     OW30588   6.594   5.180   0.477
 9923SOL    HW130589   6.548   5.252   0.425
 9923SOL    HW230590   6.590   5.200   0.575
 9924SOL     OW30591   5.937   5.525   0.853
 9924SOL    HW130592   5.987   5.439   0.859
 9924SOL    HW230593   6.002   5.602   0.850
 9925SOL     OW30594   6.813   5.274   1.506
 9925SOL    HW130595   6.819   5.197   1.570
 9925SOL    HW230596   6.761   5.248   1.426
 9926SOL     OW30597   5.907   4.667   0.242
 9926SOL    HW130598   5.989   4.706   0.200
 9926SOL    HW230599   5.880   4.585   0.193
 9927SOL     OW30600   6.047   4.990   1.727
 9927SOL    HW130601   5.997   4.991   1.641
 9927SOL    HW230602   5.984   4.972   1.803
 9928SOL     OW30603   6.697   5.500   0.237
 9928SOL    HW130604   6.637   5.438   0.287
 9928SOL    HW230605   6.728   5.456   0.152
 9929SOL     OW30606   5.788   4.009   1.498
 9929SOL    HW130607   5.708   4.069   1.485
 9929SOL    HW230608   5.778   3.960   1.584
 9930SOL     OW30609   7.218   5.101   0.081
 9930SOL    HW130610   7.186   5.195   0.071
 9930SOL    HW230611   7.142   5.038   0.069
 9931SOL     OW30612   6.050   5.467   0.323
 9931SOL    HW130613   6.083   5.506   0.409
 9931SOL    HW230614   6.126   5.460   0.258
 9932SOL     OW30615   5.835   5.509   1.241
 9932SOL    HW130616   5.892   5.444   1.291
 9932SOL    HW230617   5.819   5.476   1.148
 9933SOL     OW30618   6.526   5.422   0.904
 9933SOL    HW130619   6.606   5.365   0.925
 9933SOL    HW230620   6.477   5.382   0.827
 9934SOL     OW30621   5.968   4.424   0.480
 9934SOL    HW130622   6.013   4.334   0.477
 9934SOL    HW230623   5.874   4.413   0.513
 9935SOL     OW30624   6.367   3.988   1.749
 9935SOL    HW130625   6.434   3.927   1.792
 9935SOL    HW230626   6.294   4.007   1.814
 9936SOL     OW30627   6.474   5.238   1.195
 9936SOL    HW130628   6.451   5.213   1.101
 9936SOL    HW230629   6.535   5.169   1.234
 9937SOL     OW30630   6.389   5.126   0.924
 9937SOL    HW130631   6.479   5.140   0.882
 9937SOL    HW230632   6.318   5.128   0.853
 9938SOL     OW30633   6.508   4.227   0.899
 9938SOL    HW130634   6.483   4.218   0.803
 9938SOL    HW230635   6.556   4.145   0.930
 9939SOL     OW30636   6.125   3.788   0.512
 9939SOL    HW130637   6.044   3.789   0.570
 9939SOL    HW230638   6.128   3.871   0.457
 9940SOL     OW30639   6.521   3.960   0.480
 9940SOL    HW130640   6.473   4.001   0.402
 9940SOL    HW230641   6.620   3.958   0.461
 9941SOL     OW30642   6.662   4.407   1.464
 9941SOL    HW130643   6.582   4.346   1.467
 9941SOL    HW230644   6.743   4.354   1.440
 9942SOL     OW30645   6.813   5.294   0.793
 9942SOL    HW130646   6.834   5.368   0.728
 9942SOL    HW230647   6.881   5.294   0.866
 9943SOL     OW30648   6.045   4.876   0.741
 9943SOL    HW130649   5.974   4.849   0.806
 9943SOL    HW230650   6.019   4.848   0.648
 9944SOL     OW30651   6.857   5.521   0.591
 9944SOL    HW130652   6.901   5.585   0.527
 9944SOL    HW230653   6.807   5.573   0.661
 9945SOL     OW30654   6.618   4.273   0.016
 9945SOL    HW130655   6.577   4.355  -0.023
 9945SOL    HW230656   6.682   4.299   0.089
 9946SOL     OW30657   5.664   4.280   1.386
 9946SOL    HW130658   5.756   4.279   1.345
 9946SOL    HW230659   5.658   4.354   1.453
 9947SOL     OW30660   6.147   3.946   1.147
 9947SOL    HW130661   6.185   3.862   1.184
 9947SOL    HW230662   6.059   3.965   1.191
 9948SOL     OW30663   6.452   4.178   0.642
 9948SOL    HW130664   6.420   4.250   0.580
 9948SOL    HW230665   6.476   4.097   0.589
 9949SOL     OW30666   6.603   3.763   0.753
 9949SOL    HW130667   6.531   3.768   0.684
 9949SOL    HW230668   6.579   3.694   0.822
 9950SOL     OW30669   6.074   5.109   0.174
 9950SOL    HW130670   5.987   5.094   0.221
 9950SOL    HW230671   6.057   5.135   0.079
 9951SOL     OW30672   6.113   3.980   0.328
 9951SOL    HW130673   6.140   3.921   0.253
 9951SOL    HW230674   6.113   4.075   0.297
 9952SOL     OW30675   6.650   5.071   1.340
 9952SOL    HW130676   6.570   5.048   1.395
 9952SOL    HW230677   6.733   5.045   1.389
 9953SOL     OW30678   6.697   4.919   1.100
 9953SOL    HW130679   6.657   4.963   1.181
 9953SOL    HW230680   6.656   4.956   1.017
 9954SOL     OW30681   6.501   3.813   1.402
 9954SOL    HW130682   6.526   3.793   1.307
 9954SOL    HW230683   6.573   3.869   1.444
 9955SOL     OW30684   6.566   4.840   1.719
 9955SOL    HW130685   6.467   4.846   1.729
 9955SOL    HW230686   6.589   4.760   1.663
 9956SOL     OW30687   6.291   4.774   0.368
 9956SOL    HW130688   6.277   4.781   0.467
 9956SOL    HW230689   6.375   4.723   0.350
 9957SOL     OW30690   5.996   4.537   1.251
 9957SOL    HW130691   6.082   4.549   1.301
 9957SOL    HW230692   5.954   4.450   1.278
 9958SOL     OW30693   6.860   4.110   1.262
 9958SOL    HW130694   6.881   4.184   1.326
 9958SOL    HW230695   6.771   4.127   1.219
 9959SOL     OW30696   5.650   5.288   1.331
 9959SOL    HW130697   5.604   5.370   1.297
 9959SOL    HW230698   5.748   5.307   1.340
 9960SOL     OW30699   5.953   4.824   0.501
 9960SOL    HW130700   5.946   4.907   0.445
 9960SOL    HW230701   5.957   4.744   0.441
 9961SOL     OW30702   6.152   4.261   0.865
 9961SOL    HW130703   6.164   4.327   0.791
 9961SOL    HW230704   6.198   4.295   0.948
 9962SOL     OW30705   6.838   5.072   0.388
 9962SOL    HW130706   6.888   5.149   0.428
 9962SOL    HW230707   6.743   5.074   0.420
 9963SOL     OW30708   6.858   5.169   1.142
 9963SOL    HW130709   6.905   5.182   1.229
 9963SOL    HW230710   6.792   5.095   1.151
 9964SOL     OW30711   5.940   5.234   1.329
 9964SOL    HW130712   5.919   5.190   1.242
 9964SOL    HW230713   6.037   5.260   1.332
 9965SOL     OW30714   5.988   4.475   1.598
 9965SOL    HW130715   6.056   4.530   1.551
 9965SOL    HW230716   6.028   4.387   1.625
 9966SOL     OW30717   6.599   3.829   1.770
 9966SOL    HW130718   6.605   3.914   1.718
 9966SOL    HW230719   6.631   3.753   1.713
 9967SOL     OW30720   6.090   3.774   1.740
 9967SOL    HW130721   6.048   3.717   1.670
 9967SOL    HW230722   6.024   3.843   1.772
 9968SOL     OW30723   6.159   4.594   1.029
 9968SOL    HW130724   6.203   4.683   1.020
 9968SOL    HW230725   6.096   4.594   1.106
 9969SOL     OW30726   6.946   4.586   1.045
 9969SOL    HW130727   6.871   4.586   0.979
 9969SOL    HW230728   6.983   4.494   1.054
 9970SOL     OW30729   6.795   4.249   0.275
 9970SOL    HW130730   6.808   4.165   0.329
 9970SOL    HW230731   6.766   4.323   0.335
 9971SOL     OW30732   5.893   3.937   1.231
 9971SOL    HW130733   5.870   3.974   1.321
 9971SOL    HW230734   5.863   3.842   1.225
 9972SOL     OW30735   5.623   5.034   1.282
 9972SOL    HW130736   5.676   4.985   1.350
 9972SOL    HW230737   5.645   5.132   1.287
 9973SOL     OW30738   6.318   4.358   1.064
 9973SOL    HW130739   6.377   4.332   0.988
 9973SOL    HW230740   6.290   4.454   1.053
 9974SOL     OW30741   5.893   3.787   0.618
 9974SOL    HW130742   5.882   3.881   0.651
 9974SOL    HW230743   5.888   3.724   0.695
 9975SOL     OW30744   7.208   4.091   0.374
 9975SOL    HW130745   7.210   4.015   0.438
 9975SOL    HW230746   7.160   4.168   0.414
 9976SOL     OW30747   6.609   4.490   0.966
 9976SOL    HW130748   6.624   4.511   1.062
 9976SOL    HW230749   6.579   4.395   0.957
 9977SOL     OW30750   6.566   5.297   1.700
 9977SOL    HW130751   6.546   5.341   1.612
 9977SOL    HW230752   6.605   5.206   1.684
 9978SOL     OW30753   5.936   4.622   1.804
 9978SOL    HW130754   6.012   4.666   1.852
 9978SOL    HW230755   5.971   4.575   1.722
 9979SOL     OW30756   6.889   4.562   0.042
 9979SOL    HW130757   6.923   4.469   0.057
 9979SOL    HW230758   6.907   4.589  -0.053
 9980SOL     OW30759   6.654   5.057   0.849
 9980SOL    HW130760   6.661   4.973   0.794
 9980SOL    HW230761   6.716   5.126   0.813
 9981SOL     OW30762   5.905   4.534   0.949
 9981SOL    HW130763   5.998   4.570   0.954
 9981SOL    HW230764   5.899   4.449   1.001
 9982SOL     OW30765   5.925   4.233   1.006
 9982SOL    HW130766   5.873   4.150   0.989
 9982SOL    HW230767   6.002   4.238   0.942
 9983SOL     OW30768   6.724   4.104   1.678
 9983SOL    HW130769   6.679   4.167   1.742
 9983SOL    HW230770   6.817   4.135   1.661
 9984SOL     OW30771   6.746   3.931   1.477
 9984SOL    HW130772   6.746   3.995   1.554
 9984SOL    HW230773   6.774   3.979   1.394
 9985SOL     OW30774   5.674   5.525   0.927
 9985SOL    HW130775   5.632   5.439   0.900
 9985SOL    HW230776   5.768   5.528   0.893
 9986SOL     OW30777   6.090   5.292   0.910
 9986SOL    HW130778   6.156   5.366   0.919
 9986SOL    HW230779   6.134   5.213   0.868
 9987SOL     OW30780   6.588   4.520   1.238
 9987SOL    HW130781   6.629   4.488   1.324
 9987SOL    HW230782   6.492   4.493   1.235
 9988SOL     OW30783   5.626   4.268   1.114
 9988SOL    HW130784   5.711   4.235   1.073
 9988SOL    HW230785   5.639   4.283   1.212
 9989SOL     OW30786   5.775   4.244   1.722
 9989SOL    HW130787   5.834   4.204   1.652
 9989SOL    HW230788   5.717   4.315   1.681
 9990SOL     OW30789   6.401   4.296   0.325
 9990SOL    HW130790   6.408   4.207   0.279
 9990SOL    HW230791   6.307   4.330   0.317
 9991SOL     OW30792   5.838   5.288   1.744
 9991SOL    HW130793   5.808   5.345   1.820
 9991SOL    HW230794   5.831   5.191   1.770
 9992SOL     OW30795   6.257   4.188   1.269
 9992SOL    HW130796   6.223   4.099   1.239
 9992SOL    HW230797   6.283   4.242   1.189
 9993SOL     OW30798   6.516   5.402   1.465
 9993SOL    HW130799   6.492   5.384   1.370
 9993SOL    HW230800   6.546   5.496   1.475
 9994SOL     OW30801   6.059   4.224   0.191
 9994SOL    HW130802   6.120   4.304   0.195
 9994SOL    HW230803   5.964   4.255   0.198
 9995SOL     OW30804   5.745   4.861   1.466
 9995SOL    HW130805   5.767   4.800   1.542
 9995SOL    HW230806   5.755   4.812   1.380
 9996SOL     OW30807   6.933   4.783   1.234
 9996SOL    HW130808   6.957   4.720   1.160
 9996SOL    HW230809   6.843   4.823   1.216
 9997SOL     OW30810   6.888   4.579   0.309
 9997SOL    HW130811   6.802   4.548   0.351
 9997SOL    HW230812   6.884   4.565   0.210
 9998SOL     OW30813   6.838   5.455   1.128
 9998SOL    HW130814   6.922   5.460   1.074
 9998SOL    HW230815   6.815   5.359   1.146
 9999SOL     OW30816   5.669   4.982   1.022
 9999SOL    HW130817   5.664   4.981   1.122
 9999SOL    HW230818   5.586   4.941   0.984
10000SOL     OW30819   6.274   5.386   1.716
10000SOL    HW130820   6.218   5.467   1.725
10000SOL    HW230821   6.326   5.390   1.630
10001SOL     OW30822   6.489   3.810   0.133
10001SOL    HW130823   6.540   3.811   0.047
10001SOL    HW230824   6.545   3.768   0.204
10002SOL     OW30825   6.974   5.297   0.477
10002SOL    HW130826   7.041   5.309   0.403
10002SOL    HW230827   6.934   5.386   0.500
10003SOL     OW30828   5.716   5.518   1.851
10003SOL    HW130829   5.675   5.444   1.904
10003SOL    HW230830   5.780   5.569   1.909
10004SOL     OW30831   6.866   4.651   0.672
10004SOL    HW130832   6.926   4.570   0.674
10004SOL    HW230833   6.906   4.720   0.612
10005SOL     OW30834   6.416   4.997   1.422
10005SOL    HW130835   6.411   5.030   1.517
10005SOL    HW230836   6.330   5.016   1.376
10006SOL     OW30837   6.258   5.340   0.154
10006SOL    HW130838   6.267   5.350   0.055
10006SOL    HW230839   6.218   5.251   0.175
10007SOL     OW30840   5.849   4.050   0.720
10007SOL    HW130841   5.770   4.101   0.686
10007SOL    HW230842   5.840   4.035   0.818
10008SOL     OW30843   6.780   5.336   0.031
10008SOL    HW130844   6.786   5.243   0.068
10008SOL    HW230845   6.721   5.336  -0.049
10009SOL     OW30846   6.408   4.726   1.372
10009SOL    HW130847   6.448   4.725   1.280
10009SOL    HW230848   6.418   4.818   1.412
10010SOL     OW30849   6.502   4.634   0.291
10010SOL    HW130850   6.565   4.672   0.223
10010SOL    HW230851   6.542   4.551   0.330
10011SOL     OW30852   5.958   5.012   1.490
10011SOL    HW130853   5.945   5.105   1.456
10011SOL    HW230854   5.874   4.960   1.477
10012SOL     OW30855   6.625   4.822   0.696
10012SOL    HW130856   6.555   4.775   0.750
10012SOL    HW230857   6.684   4.754   0.653
10013SOL     OW30858   6.600   3.960   0.971
10013SOL    HW130859   6.592   3.924   0.878
10013SOL    HW230860   6.598   3.884   1.036
10014SOL     OW30861   6.176   5.211   0.491
10014SOL    HW130862   6.218   5.153   0.421
10014SOL    HW230863   6.132   5.290   0.447
10015SOL     OW30864   5.841   5.072   0.290
10015SOL    HW130865   5.745   5.073   0.263
10015SOL    HW230866   5.853   5.125   0.374
10016SOL     OW30867   5.691   4.737   1.726
10016SOL    HW130868   5.614   4.704   1.780
10016SOL    HW230869   5.776   4.707   1.768
10017SOL     OW30870   6.258   3.927   1.489
10017SOL    HW130871   6.348   3.911   1.449
10017SOL    HW230872   6.266   3.932   1.588
10018SOL     OW30873   5.661   4.069   0.033
10018SOL    HW130874   5.569   4.041   0.004
10018SOL    HW230875   5.692   4.146  -0.023
10019SOL     OW30876   5.658   3.890   0.318
10019SOL    HW130877   5.641   3.973   0.264
10019SOL    HW230878   5.748   3.853   0.296
10020SOL     OW30879   6.199   4.566   1.431
10020SOL    HW130880   6.255   4.647   1.414
10020SOL    HW230881   6.258   4.486   1.434
10021SOL     OW30882   6.302   4.289   1.708
10021SOL    HW130883   6.321   4.354   1.782
10021SOL    HW230884   6.362   4.209   1.717
10022SOL     OW30885   7.036   4.944   1.633
10022SOL    HW130886   7.027   4.934   1.732
10022SOL    HW230887   7.132   4.937   1.607
10023SOL     OW30888   5.976   5.465   1.560
10023SOL    HW130889   5.885   5.506   1.558
10023SOL    HW230890   5.969   5.371   1.592
10024SOL     OW30891   6.811   4.049   0.449
10024SOL    HW130892   6.876   3.975   0.438
10024SOL    HW230893   6.831   4.099   0.533
10025SOL     OW30894   6.180   4.469   0.652
10025SOL    HW130895   6.230   4.554   0.633
10025SOL    HW230896   6.092   4.471   0.604
10026SOL     OW30897   6.445   5.098   0.016
10026SOL    HW130898   6.399   5.113   0.104
10026SOL    HW230899   6.489   5.183  -0.014
10027SOL     OW30900   6.247   5.514   0.953
10027SOL    HW130901   6.201   5.602   0.940
10027SOL    HW230902   6.346   5.526   0.946
10028SOL     OW30903   6.445   4.680   0.861
10028SOL    HW130904   6.499   4.611   0.909
10028SOL    HW230905   6.413   4.749   0.927
10029SOL     OW30906   6.669   4.708   0.087
10029SOL    HW130907   6.646   4.761   0.005
10029SOL    HW230908   6.750   4.652   0.068
10030SOL     OW30909   5.807   5.038   1.844
10030SOL    HW130910   5.742   4.965   1.823
10030SOL    HW230911   5.811   5.052   1.942
10031SOL     OW30912   5.665   4.964   0.653
10031SOL    HW130913   5.664   4.917   0.741
10031SOL    HW230914   5.747   4.936   0.602
10032SOL     OW30915   6.258   5.115   1.624
10032SOL    HW130916   6.180   5.065   1.662
10032SOL    HW230917   6.255   5.210   1.655
10033SOL     OW30918   6.014   4.148   0.520
10033SOL    HW130919   6.044   4.076   0.458
10033SOL    HW230920   5.975   4.108   0.603
10034SOL     OW30921   5.903   4.271   1.280
10034SOL    HW130922   5.941   4.212   1.352
10034SOL    HW230923   5.943   4.245   1.192
10035SOL     OW30924   6.398   5.310   0.687
10035SOL    HW130925   6.430   5.320   0.593
10035SOL    HW230926   6.319   5.248   0.689
10036SOL     OW30927   7.010   3.938   1.112
10036SOL    HW130928   7.062   3.873   1.167
10036SOL    HW230929   6.961   4.001   1.173
10037SOL     OW30930   6.587   3.758   1.154
10037SOL    HW130931   6.524   3.686   1.123
10037SOL    HW230932   6.680   3.722   1.154
10038SOL     OW30933   6.356   5.054   0.301
10038SOL    HW130934   6.310   4.967   0.318
10038SOL    HW230935   6.447   5.051   0.342
10039SOL     OW30936   6.204   5.291   1.284
10039SOL    HW130937   6.199   5.373   1.341
10039SOL    HW230938   6.293   5.288   1.239
10040SOL     OW30939   5.625   4.801   0.300
10040SOL    HW130940   5.724   4.790   0.291
10040SOL    HW230941   5.585   4.715   0.332
10041SOL     OW30942   6.461   5.370   0.337
10041SOL    HW130943   6.384   5.335   0.283
10041SOL    HW230944   6.429   5.441   0.399
10042SOL     OW30945   5.816   4.352   1.975
10042SOL    HW130946   5.723   4.350   2.012
10042SOL    HW230947   5.817   4.313   1.883
10043SOL     OW30948   5.811   3.999   2.858
10043SOL    HW130949   5.846   3.982   2.950
10043SOL    HW230950   5.723   3.954   2.846
10044SOL     OW30951   5.605   4.092   2.509
10044SOL    HW130952   5.523   4.135   2.548
10044SOL    HW230953   5.577   4.019   2.446
10045SOL     OW30954   6.155   4.999   3.027
10045SOL    HW130955   6.062   4.992   2.990
10045SOL    HW230956   6.166   5.088   3.071
10046SOL     OW30957   7.141   5.235   2.565
10046SOL    HW130958   7.084   5.219   2.646
10046SOL    HW230959   7.082   5.245   2.485
10047SOL     OW30960   6.721   4.427   2.579
10047SOL    HW130961   6.778   4.505   2.554
10047SOL    HW230962   6.661   4.453   2.655
10048SOL     OW30963   6.354   4.868   2.885
10048SOL    HW130964   6.276   4.885   2.945
10048SOL    HW230965   6.388   4.955   2.849
10049SOL     OW30966   6.436   4.522   3.685
10049SOL    HW130967   6.432   4.598   3.750
10049SOL    HW230968   6.458   4.558   3.594
10050SOL     OW30969   6.271   4.736   2.527
10050SOL    HW130970   6.340   4.720   2.597
10050SOL    HW230971   6.198   4.793   2.565
10051SOL     OW30972   6.272   4.885   3.665
10051SOL    HW130973   6.332   4.964   3.679
10051SOL    HW230974   6.186   4.916   3.624
10052SOL     OW30975   5.921   5.159   2.923
10052SOL    HW130976   5.843   5.128   2.870
10052SOL    HW230977   5.979   5.217   2.866
10053SOL     OW30978   6.024   4.116   3.361
10053SOL    HW130979   6.106   4.060   3.370
10053SOL    HW230980   5.943   4.058   3.365
10054SOL     OW30981   5.817   5.437   2.345
10054SOL    HW130982   5.851   5.514   2.399
10054SOL    HW230983   5.861   5.437   2.255
10055SOL     OW30984   6.713   5.065   3.552
10055SOL    HW130985   6.760   5.065   3.640
10055SOL    HW230986   6.665   4.978   3.541
10056SOL     OW30987   5.816   5.158   2.400
10056SOL    HW130988   5.790   5.254   2.400
10056SOL    HW230989   5.745   5.104   2.445
10057SOL     OW30990   5.826   4.815   2.748
10057SOL    HW130991   5.840   4.731   2.800
10057SOL    HW230992   5.771   4.879   2.803
10058SOL     OW30993   6.206   5.510   3.301
10058SOL    HW130994   6.114   5.493   3.336
10058SOL    HW230995   6.234   5.602   3.327
10059SOL     OW30996   6.192   4.688   1.985
10059SOL    HW130997   6.199   4.772   1.931
10059SOL    HW230998   6.238   4.701   2.073
10060SOL     OW30999   5.708   4.367   2.425
10060SOL    HW131000   5.663   4.279   2.442
10060SOL    HW231001   5.707   4.421   2.509
10061SOL     OW31002   5.613   5.320   1.979
10061SOL    HW131003   5.594   5.224   2.000
10061SOL    HW231004   5.580   5.378   2.054
10062SOL     OW31005   5.699   4.461   3.459
10062SOL    HW131006   5.787   4.448   3.504
10062SOL    HW231007   5.686   4.558   3.437
10063SOL     OW31008   6.199   5.089   2.588
10063SOL    HW131009   6.150   5.002   2.597
10063SOL    HW231010   6.176   5.132   2.501
10064SOL     OW31011   6.879   4.952   3.285
10064SOL    HW131012   6.916   4.879   3.227
10064SOL    HW231013   6.931   4.957   3.370
10065SOL     OW31014   6.395   3.728   2.364
10065SOL    HW131015   6.435   3.819   2.355
10065SOL    HW231016   6.295   3.736   2.370
10066SOL     OW31017   5.783   4.700   3.126
10066SOL    HW131018   5.872   4.655   3.112
10066SOL    HW231019   5.710   4.635   3.107
10067SOL     OW31020   6.773   5.516   3.478
10067SOL    HW131021   6.797   5.576   3.402
10067SOL    HW231022   6.780   5.421   3.448
10068SOL     OW31023   5.903   3.975   3.663
10068SOL    HW131024   5.974   4.046   3.669
10068SOL    HW231025   5.815   4.014   3.691
10069SOL     OW31026   6.184   4.453   2.132
10069SOL    HW131027   6.208   4.522   2.064
10069SOL    HW231028   6.106   4.486   2.186
10070SOL     OW31029   6.867   4.069   2.806
10070SOL    HW131030   6.781   4.019   2.793
10070SOL    HW231031   6.929   4.015   2.862
10071SOL     OW31032   6.393   4.329   3.327
10071SOL    HW131033   6.346   4.326   3.416
10071SOL    HW231034   6.342   4.274   3.261
10072SOL     OW31035   6.980   4.193   3.536
10072SOL    HW131036   6.960   4.236   3.624
10072SOL    HW231037   7.058   4.131   3.545
10073SOL     OW31038   6.559   4.614   3.434
10073SOL    HW131039   6.605   4.530   3.405
10073SOL    HW231040   6.503   4.648   3.359
10074SOL     OW31041   6.577   4.134   3.104
10074SOL    HW131042   6.500   4.168   3.158
10074SOL    HW231043   6.543   4.083   3.025
10075SOL     OW31044   6.627   4.425   2.291
10075SOL    HW131045   6.653   4.421   2.387
10075SOL    HW231046   6.542   4.374   2.277
10076SOL     OW31047   5.662   4.535   2.651
10076SOL    HW131048   5.761   4.523   2.660
10076SOL    HW231049   5.638   4.630   2.672
10077SOL     OW31050   5.716   5.545   3.433
10077SOL    HW131051   5.706   5.530   3.532
10077SOL    HW231052   5.630   5.581   3.397
10078SOL     OW31053   6.451   4.072   2.057
10078SOL    HW131054   6.510   4.135   2.008
10078SOL    HW231055   6.470   3.978   2.028
10079SOL     OW31056   6.948   4.868   2.407
10079SOL    HW131057   7.031   4.839   2.359
10079SOL    HW231058   6.899   4.935   2.351
10080SOL     OW31059   6.136   3.920   2.747
10080SOL    HW131060   6.131   3.915   2.847
10080SOL    HW231061   6.138   4.016   2.718
10081SOL     OW31062   6.594   5.180   2.339
10081SOL    HW131063   6.548   5.252   2.287
10081SOL    HW231064   6.590   5.200   2.437
10082SOL     OW31065   5.937   5.525   2.715
10082SOL    HW131066   5.987   5.439   2.721
10082SOL    HW231067   6.002   5.602   2.712
10083SOL     OW31068   6.813   5.274   3.368
10083SOL    HW131069   6.819   5.197   3.432
10083SOL    HW231070   6.761   5.248   3.288
10084SOL     OW31071   5.907   4.667   2.104
10084SOL    HW131072   5.989   4.706   2.062
10084SOL    HW231073   5.880   4.585   2.055
10085SOL     OW31074   6.047   4.990   3.589
10085SOL    HW131075   5.997   4.991   3.503
10085SOL    HW231076   5.984   4.972   3.665
10086SOL     OW31077   6.697   5.500   2.099
10086SOL    HW131078   6.637   5.438   2.149
10086SOL    HW231079   6.728   5.456   2.014
10087SOL     OW31080   5.788   4.009   3.360
10087SOL    HW131081   5.708   4.069   3.347
10087SOL    HW231082   5.778   3.960   3.446
10088SOL     OW31083   6.050   5.467   2.185
10088SOL    HW131084   6.083   5.506   2.271
10088SOL    HW231085   6.126   5.460   2.120
10089SOL     OW31086   5.835   5.509   3.103
10089SOL    HW131087   5.892   5.444   3.153
10089SOL    HW231088   5.819   5.476   3.010
10090SOL     OW31089   6.526   5.422   2.766
10090SOL    HW131090   6.606   5.365   2.787
10090SOL    HW231091   6.477   5.382   2.689
10091SOL     OW31092   5.968   4.424   2.342
10091SOL    HW131093   6.013   4.334   2.339
10091SOL    HW231094   5.874   4.413   2.375
10092SOL     OW31095   6.200   3.846   1.979
10092SOL    HW131096   6.298   3.824   1.986
10092SOL    HW231097   6.169   3.829   1.886
10093SOL     OW31098   6.367   3.988   3.611
10093SOL    HW131099   6.434   3.927   3.654
10093SOL    HW231100   6.294   4.007   3.676
10094SOL     OW31101   6.474   5.238   3.057
10094SOL    HW131102   6.451   5.213   2.963
10094SOL    HW231103   6.535   5.169   3.096
10095SOL     OW31104   6.389   5.126   2.786
10095SOL    HW131105   6.479   5.140   2.744
10095SOL    HW231106   6.318   5.128   2.715
10096SOL     OW31107   6.508   4.227   2.761
10096SOL    HW131108   6.483   4.218   2.665
10096SOL    HW231109   6.556   4.145   2.792
10097SOL     OW31110   6.125   3.788   2.374
10097SOL    HW131111   6.044   3.789   2.432
10097SOL    HW231112   6.128   3.871   2.319
10098SOL     OW31113   7.020   4.912   1.903
10098SOL    HW131114   7.052   4.836   1.960
10098SOL    HW231115   6.928   4.939   1.933
10099SOL     OW31116   5.883   3.759   2.033
10099SOL    HW131117   5.932   3.843   2.012
10099SOL    HW231118   5.945   3.694   2.078
10100SOL     OW31119   6.521   3.960   2.342
10100SOL    HW131120   6.473   4.001   2.264
10100SOL    HW231121   6.620   3.958   2.323
10101SOL     OW31122   6.662   4.407   3.326
10101SOL    HW131123   6.582   4.346   3.329
10101SOL    HW231124   6.743   4.354   3.302
10102SOL     OW31125   6.813   5.294   2.655
10102SOL    HW131126   6.834   5.368   2.590
10102SOL    HW231127   6.881   5.294   2.728
10103SOL     OW31128   6.045   4.876   2.603
10103SOL    HW131129   5.974   4.849   2.668
10103SOL    HW231130   6.019   4.848   2.510
10104SOL     OW31131   6.857   5.521   2.453
10104SOL    HW131132   6.901   5.585   2.389
10104SOL    HW231133   6.807   5.573   2.523
10105SOL     OW31134   6.618   4.273   1.878
10105SOL    HW131135   6.577   4.355   1.839
10105SOL    HW231136   6.682   4.299   1.951
10106SOL     OW31137   5.664   4.280   3.248
10106SOL    HW131138   5.756   4.279   3.207
10106SOL    HW231139   5.658   4.354   3.315
10107SOL     OW31140   6.147   3.946   3.009
10107SOL    HW131141   6.185   3.862   3.046
10107SOL    HW231142   6.059   3.965   3.053
10108SOL     OW31143   6.452   4.178   2.504
10108SOL    HW131144   6.420   4.250   2.442
10108SOL    HW231145   6.476   4.097   2.451
10109SOL     OW31146   6.603   3.763   2.615
10109SOL    HW131147   6.531   3.768   2.546
10109SOL    HW231148   6.579   3.694   2.684
10110SOL     OW31149   6.074   5.109   2.036
10110SOL    HW131150   5.987   5.094   2.083
10110SOL    HW231151   6.057   5.135   1.941
10111SOL     OW31152   6.113   3.980   2.190
10111SOL    HW131153   6.140   3.921   2.115
10111SOL    HW231154   6.113   4.075   2.159
10112SOL     OW31155   6.650   5.071   3.202
10112SOL    HW131156   6.570   5.048   3.257
10112SOL    HW231157   6.733   5.045   3.251
10113SOL     OW31158   6.697   4.919   2.962
10113SOL    HW131159   6.657   4.963   3.043
10113SOL    HW231160   6.656   4.956   2.879
10114SOL     OW31161   6.501   3.813   3.264
10114SOL    HW131162   6.526   3.793   3.169
10114SOL    HW231163   6.573   3.869   3.306
10115SOL     OW31164   6.566   4.840   3.581
10115SOL    HW131165   6.467   4.846   3.591
10115SOL    HW231166   6.589   4.760   3.525
10116SOL     OW31167   6.291   4.774   2.230
10116SOL    HW131168   6.277   4.781   2.329
10116SOL    HW231169   6.375   4.723   2.212
10117SOL     OW31170   5.996   4.537   3.113
10117SOL    HW131171   6.082   4.549   3.163
10117SOL    HW231172   5.954   4.450   3.140
10118SOL     OW31173   6.860   4.110   3.124
10118SOL    HW131174   6.881   4.184   3.188
10118SOL    HW231175   6.771   4.127   3.081
10119SOL     OW31176   5.650   5.288   3.193
10119SOL    HW131177   5.604   5.370   3.159
10119SOL    HW231178   5.748   5.307   3.202
10120SOL     OW31179   5.953   4.824   2.363
10120SOL    HW131180   5.946   4.907   2.307
10120SOL    HW231181   5.957   4.744   2.303
10121SOL     OW31182   6.152   4.261   2.727
10121SOL    HW131183   6.164   4.327   2.653
10121SOL    HW231184   6.198   4.295   2.810
10122SOL     OW31185   6.838   5.072   2.250
10122SOL    HW131186   6.888   5.149   2.290
10122SOL    HW231187   6.743   5.074   2.282
10123SOL     OW31188   6.858   5.169   3.004
10123SOL    HW131189   6.905   5.182   3.091
10123SOL    HW231190   6.792   5.095   3.013
10124SOL     OW31191   5.940   5.234   3.191
10124SOL    HW131192   5.919   5.190   3.104
10124SOL    HW231193   6.037   5.260   3.194
10125SOL     OW31194   5.988   4.475   3.460
10125SOL    HW131195   6.056   4.530   3.413
10125SOL    HW231196   6.028   4.387   3.487
10126SOL     OW31197   6.599   3.829   3.632
10126SOL    HW131198   6.605   3.914   3.580
10126SOL    HW231199   6.631   3.753   3.575
10127SOL     OW31200   6.090   3.774   3.602
10127SOL    HW131201   6.048   3.717   3.532
10127SOL    HW231202   6.024   3.843   3.634
10128SOL     OW31203   6.159   4.594   2.891
10128SOL    HW131204   6.203   4.683   2.882
10128SOL    HW231205   6.096   4.594   2.968
10129SOL     OW31206   6.946   4.586   2.907
10129SOL    HW131207   6.871   4.586   2.841
10129SOL    HW231208   6.983   4.494   2.916
10130SOL     OW31209   6.795   4.249   2.137
10130SOL    HW131210   6.808   4.165   2.191
10130SOL    HW231211   6.766   4.323   2.197
10131SOL     OW31212   5.893   3.937   3.093
10131SOL    HW131213   5.870   3.974   3.183
10131SOL    HW231214   5.863   3.842   3.087
10132SOL     OW31215   5.623   5.034   3.144
10132SOL    HW131216   5.676   4.985   3.212
10132SOL    HW231217   5.645   5.132   3.149
10133SOL     OW31218   6.318   4.358   2.926
10133SOL    HW131219   6.377   4.332   2.850
10133SOL    HW231220   6.290   4.454   2.915
10134SOL     OW31221   5.893   3.787   2.480
10134SOL    HW131222   5.882   3.881   2.513
10134SOL    HW231223   5.888   3.724   2.557
10135SOL     OW31224   7.208   4.091   2.236
10135SOL    HW131225   7.210   4.015   2.300
10135SOL    HW231226   7.160   4.168   2.276
10136SOL     OW31227   6.609   4.490   2.828
10136SOL    HW131228   6.624   4.511   2.924
10136SOL    HW231229   6.579   4.395   2.819
10137SOL     OW31230   6.566   5.297   3.562
10137SOL    HW131231   6.546   5.341   3.474
10137SOL    HW231232   6.605   5.206   3.546
10138SOL     OW31233   5.936   4.622   3.666
10138SOL    HW131234   6.012   4.666   3.714
10138SOL    HW231235   5.971   4.575   3.584
10139SOL     OW31236   6.889   4.562   1.904
10139SOL    HW131237   6.923   4.469   1.919
10139SOL    HW231238   6.907   4.589   1.809
10140SOL     OW31239   6.654   5.057   2.711
10140SOL    HW131240   6.661   4.973   2.656
10140SOL    HW231241   6.716   5.126   2.675
10141SOL     OW31242   5.905   4.534   2.811
10141SOL    HW131243   5.998   4.570   2.816
10141SOL    HW231244   5.899   4.449   2.863
10142SOL     OW31245   5.925   4.233   2.868
10142SOL    HW131246   5.873   4.150   2.851
10142SOL    HW231247   6.002   4.238   2.804
10143SOL     OW31248   6.724   4.104   3.540
10143SOL    HW131249   6.679   4.167   3.604
10143SOL    HW231250   6.817   4.135   3.523
10144SOL     OW31251   6.746   3.931   3.339
10144SOL    HW131252   6.746   3.995   3.416
10144SOL    HW231253   6.774   3.979   3.256
10145SOL     OW31254   5.594   5.050   2.062
10145SOL    HW131255   5.501   5.071   2.031
10145SOL    HW231256   5.604   4.951   2.075
10146SOL     OW31257   5.674   5.525   2.789
10146SOL    HW131258   5.632   5.439   2.762
10146SOL    HW231259   5.768   5.528   2.755
10147SOL     OW31260   6.090   5.292   2.772
10147SOL    HW131261   6.156   5.366   2.781
10147SOL    HW231262   6.134   5.213   2.730
10148SOL     OW31263   6.588   4.520   3.100
10148SOL    HW131264   6.629   4.488   3.186
10148SOL    HW231265   6.492   4.493   3.097
10149SOL     OW31266   5.626   4.268   2.976
10149SOL    HW131267   5.711   4.235   2.935
10149SOL    HW231268   5.639   4.283   3.074
10150SOL     OW31269   5.775   4.244   3.584
10150SOL    HW131270   5.834   4.204   3.514
10150SOL    HW231271   5.717   4.315   3.543
10151SOL     OW31272   6.401   4.296   2.187
10151SOL    HW131273   6.408   4.207   2.141
10151SOL    HW231274   6.307   4.330   2.179
10152SOL     OW31275   5.838   5.288   3.606
10152SOL    HW131276   5.808   5.345   3.682
10152SOL    HW231277   5.831   5.191   3.632
10153SOL     OW31278   6.257   4.188   3.131
10153SOL    HW131279   6.223   4.099   3.101
10153SOL    HW231280   6.283   4.242   3.051
10154SOL     OW31281   6.516   5.402   3.327
10154SOL    HW131282   6.492   5.384   3.232
10154SOL    HW231283   6.546   5.496   3.337
10155SOL     OW31284   6.059   4.224   2.053
10155SOL    HW131285   6.120   4.304   2.057
10155SOL    HW231286   5.964   4.255   2.060
10156SOL     OW31287   5.745   4.861   3.328
10156SOL    HW131288   5.767   4.800   3.404
10156SOL    HW231289   5.755   4.812   3.242
10157SOL     OW31290   6.933   4.783   3.096
10157SOL    HW131291   6.957   4.720   3.022
10157SOL    HW231292   6.843   4.823   3.078
10158SOL     OW31293   6.888   4.579   2.171
10158SOL    HW131294   6.802   4.548   2.213
10158SOL    HW231295   6.884   4.565   2.072
10159SOL     OW31296   6.838   5.455   2.990
10159SOL    HW131297   6.922   5.460   2.936
10159SOL    HW231298   6.815   5.359   3.008
10160SOL     OW31299   5.669   4.982   2.884
10160SOL    HW131300   5.664   4.981   2.984
10160SOL    HW231301   5.586   4.941   2.846
10161SOL     OW31302   6.274   5.386   3.578
10161SOL    HW131303   6.218   5.467   3.587
10161SOL    HW231304   6.326   5.390   3.492
10162SOL     OW31305   6.974   5.297   2.339
10162SOL    HW131306   7.041   5.309   2.265
10162SOL    HW231307   6.934   5.386   2.362
10163SOL     OW31308   5.716   5.518   3.713
10163SOL    HW131309   5.675   5.444   3.766
10163SOL    HW231310   5.780   5.569   3.771
10164SOL     OW31311   6.866   4.651   2.534
10164SOL    HW131312   6.926   4.570   2.536
10164SOL    HW231313   6.906   4.720   2.474
10165SOL     OW31314   6.416   4.997   3.284
10165SOL    HW131315   6.411   5.030   3.379
10165SOL    HW231316   6.330   5.016   3.238
10166SOL     OW31317   6.258   5.340   2.016
10166SOL    HW131318   6.267   5.350   1.917
10166SOL    HW231319   6.218   5.251   2.037
10167SOL     OW31320   5.849   4.050   2.582
10167SOL    HW131321   5.770   4.101   2.548
10167SOL    HW231322   5.840   4.035   2.680
10168SOL     OW31323   6.780   5.336   1.893
10168SOL    HW131324   6.786   5.243   1.930
10168SOL    HW231325   6.721   5.336   1.813
10169SOL     OW31326   6.408   4.726   3.234
10169SOL    HW131327   6.448   4.725   3.142
10169SOL    HW231328   6.418   4.818   3.274
10170SOL     OW31329   6.502   4.634   2.153
10170SOL    HW131330   6.565   4.672   2.085
10170SOL    HW231331   6.542   4.551   2.192
10171SOL     OW31332   5.958   5.012   3.352
10171SOL    HW131333   5.945   5.105   3.318
10171SOL    HW231334   5.874   4.960   3.339
10172SOL     OW31335   6.625   4.822   2.558
10172SOL    HW131336   6.555   4.775   2.612
10172SOL    HW231337   6.684   4.754   2.515
10173SOL     OW31338   6.600   3.960   2.833
10173SOL    HW131339   6.592   3.924   2.740
10173SOL    HW231340   6.598   3.884   2.898
10174SOL     OW31341   6.176   5.211   2.353
10174SOL    HW131342   6.218   5.153   2.283
10174SOL    HW231343   6.132   5.290   2.309
10175SOL     OW31344   5.841   5.072   2.152
10175SOL    HW131345   5.745   5.073   2.125
10175SOL    HW231346   5.853   5.125   2.236
10176SOL     OW31347   5.691   4.737   3.588
10176SOL    HW131348   5.614   4.704   3.642
10176SOL    HW231349   5.776   4.707   3.630
10177SOL     OW31350   6.258   3.927   3.351
10177SOL    HW131351   6.348   3.911   3.311
10177SOL    HW231352   6.266   3.932   3.450
10178SOL     OW31353   5.661   4.069   1.895
10178SOL    HW131354   5.569   4.041   1.866
10178SOL    HW231355   5.692   4.146   1.839
10179SOL     OW31356   5.658   3.890   2.180
10179SOL    HW131357   5.641   3.973   2.126
10179SOL    HW231358   5.748   3.853   2.158
10180SOL     OW31359   6.199   4.566   3.293
10180SOL    HW131360   6.255   4.647   3.276
10180SOL    HW231361   6.258   4.486   3.296
10181SOL     OW31362   6.302   4.289   3.570
10181SOL    HW131363   6.321   4.354   3.644
10181SOL    HW231364   6.362   4.209   3.579
10182SOL     OW31365   7.036   4.944   3.495
10182SOL    HW131366   7.027   4.934   3.594
10182SOL    HW231367   7.132   4.937   3.469
10183SOL     OW31368   5.976   5.465   3.422
10183SOL    HW131369   5.885   5.506   3.420
10183SOL    HW231370   5.969   5.371   3.454
10184SOL     OW31371   6.811   4.049   2.311
10184SOL    HW131372   6.876   3.975   2.300
10184SOL    HW231373   6.831   4.099   2.395
10185SOL     OW31374   6.180   4.469   2.514
10185SOL    HW131375   6.230   4.554   2.495
10185SOL    HW231376   6.092   4.471   2.466
10186SOL     OW31377   6.445   5.098   1.878
10186SOL    HW131378   6.399   5.113   1.966
10186SOL    HW231379   6.489   5.183   1.848
10187SOL     OW31380   6.247   5.514   2.815
10187SOL    HW131381   6.201   5.602   2.802
10187SOL    HW231382   6.346   5.526   2.808
10188SOL     OW31383   6.445   4.680   2.723
10188SOL    HW131384   6.499   4.611   2.771
10188SOL    HW231385   6.413   4.749   2.789
10189SOL     OW31386   6.669   4.708   1.949
10189SOL    HW131387   6.646   4.761   1.867
10189SOL    HW231388   6.750   4.652   1.930
10190SOL     OW31389   5.807   5.038   3.706
10190SOL    HW131390   5.742   4.965   3.685
10190SOL    HW231391   5.811   5.052   3.804
10191SOL     OW31392   5.665   4.964   2.515
10191SOL    HW131393   5.664   4.917   2.603
10191SOL    HW231394   5.747   4.936   2.464
10192SOL     OW31395   6.258   5.115   3.486
10192SOL    HW131396   6.180   5.065   3.524
10192SOL    HW231397   6.255   5.210   3.517
10193SOL     OW31398   6.014   4.148   2.382
10193SOL    HW131399   6.044   4.076   2.320
10193SOL    HW231400   5.975   4.108   2.465
10194SOL     OW31401   5.903   4.271   3.142
10194SOL    HW131402   5.941   4.212   3.214
10194SOL    HW231403   5.943   4.245   3.054
10195SOL     OW31404   6.398   5.310   2.549
10195SOL    HW131405   6.430   5.320   2.455
10195SOL    HW231406   6.319   5.248   2.551
10196SOL     OW31407   7.010   3.938   2.974
10196SOL    HW131408   7.062   3.873   3.029
10196SOL    HW231409   6.961   4.001   3.035
10197SOL     OW31410   6.587   3.758   3.016
10197SOL    HW131411   6.524   3.686   2.985
10197SOL    HW231412   6.680   3.722   3.016
10198SOL     OW31413   6.356   5.054   2.163
10198SOL    HW131414   6.310   4.967   2.180
10198SOL    HW231415   6.447   5.051   2.204
10199SOL     OW31416   6.204   5.291   3.146
10199SOL    HW131417   6.199   5.373   3.203
10199SOL    HW231418   6.293   5.288   3.101
10200SOL     OW31419   6.938   3.776   2.030
10200SOL    HW131420   6.973   3.735   1.946
10200SOL    HW231421   6.848   3.738   2.050
10201SOL     OW31422   5.625   4.801   2.162
10201SOL    HW131423   5.724   4.790   2.153
10201SOL    HW231424   5.585   4.715   2.194
10202SOL     OW31425   6.461   5.370   2.199
10202SOL    HW131426   6.384   5.335   2.145
10202SOL    HW231427   6.429   5.441   2.261
10203SOL     OW31428   5.816   4.352   3.837
10203SOL    HW131429   5.723   4.350   3.874
10203SOL    HW231430   5.817   4.313   3.745
10204SOL     OW31431   5.811   3.999   4.720
10204SOL    HW131432   5.846   3.982   4.812
10204SOL    HW231433   5.723   3.954   4.708
10205SOL     OW31434   5.605   4.092   4.371
10205SOL    HW131435   5.523   4.135   4.410
10205SOL    HW231436   5.577   4.019   4.308
10206SOL     OW31437   6.155   4.999   4.889
10206SOL    HW131438   6.062   4.992   4.852
10206SOL    HW231439   6.166   5.088   4.933
10207SOL     OW31440   7.141   5.235   4.427
10207SOL    HW131441   7.084   5.219   4.508
10207SOL    HW231442   7.082   5.245   4.347
10208SOL     OW31443   6.721   4.427   4.441
10208SOL    HW131444   6.778   4.505   4.416
10208SOL    HW231445   6.661   4.453   4.517
10209SOL     OW31446   6.354   4.868   4.747
10209SOL    HW131447   6.276   4.885   4.807
10209SOL    HW231448   6.388   4.955   4.711
10210SOL     OW31449   6.436   4.522   5.547
10210SOL    HW131450   6.432   4.598   5.612
10210SOL    HW231451   6.458   4.558   5.456
10211SOL     OW31452   6.271   4.736   4.389
10211SOL    HW131453   6.340   4.720   4.459
10211SOL    HW231454   6.198   4.793   4.427
10212SOL     OW31455   6.272   4.885   5.527
10212SOL    HW131456   6.332   4.964   5.541
10212SOL    HW231457   6.186   4.916   5.486
10213SOL     OW31458   5.921   5.159   4.785
10213SOL    HW131459   5.843   5.128   4.732
10213SOL    HW231460   5.979   5.217   4.728
10214SOL     OW31461   6.024   4.116   5.223
10214SOL    HW131462   6.106   4.060   5.232
10214SOL    HW231463   5.943   4.058   5.227
10215SOL     OW31464   5.817   5.437   4.207
10215SOL    HW131465   5.851   5.514   4.261
10215SOL    HW231466   5.861   5.437   4.117
10216SOL     OW31467   6.713   5.065   5.414
10216SOL    HW131468   6.760   5.065   5.502
10216SOL    HW231469   6.665   4.978   5.403
10217SOL     OW31470   5.816   5.158   4.262
10217SOL    HW131471   5.790   5.254   4.262
10217SOL    HW231472   5.745   5.104   4.307
10218SOL     OW31473   5.826   4.815   4.610
10218SOL    HW131474   5.840   4.731   4.662
10218SOL    HW231475   5.771   4.879   4.665
10219SOL     OW31476   6.206   5.510   5.163
10219SOL    HW131477   6.114   5.493   5.198
10219SOL    HW231478   6.234   5.602   5.189
10220SOL     OW31479   6.192   4.688   3.847
10220SOL    HW131480   6.199   4.772   3.793
10220SOL    HW231481   6.238   4.701   3.935
10221SOL     OW31482   5.708   4.367   4.287
10221SOL    HW131483   5.663   4.279   4.304
10221SOL    HW231484   5.707   4.421   4.371
10222SOL     OW31485   5.613   5.320   3.841
10222SOL    HW131486   5.594   5.224   3.862
10222SOL    HW231487   5.580   5.378   3.916
10223SOL     OW31488   5.699   4.461   5.321
10223SOL    HW131489   5.787   4.448   5.366
10223SOL    HW231490   5.686   4.558   5.299
10224SOL     OW31491   6.199   5.089   4.450
10224SOL    HW131492   6.150   5.002   4.459
10224SOL    HW231493   6.176   5.132   4.363
10225SOL     OW31494   6.879   4.952   5.147
10225SOL    HW131495   6.916   4.879   5.089
10225SOL    HW231496   6.931   4.957   5.232
10226SOL     OW31497   6.395   3.728   4.226
10226SOL    HW131498   6.435   3.819   4.217
10226SOL    HW231499   6.295   3.736   4.232
10227SOL     OW31500   5.783   4.700   4.988
10227SOL    HW131501   5.872   4.655   4.974
10227SOL    HW231502   5.710   4.635   4.969
10228SOL     OW31503   6.773   5.516   5.340
10228SOL    HW131504   6.797   5.576   5.264
10228SOL    HW231505   6.780   5.421   5.310
10229SOL     OW31506   5.903   3.975   5.525
10229SOL    HW131507   5.974   4.046   5.531
10229SOL    HW231508   5.815   4.014   5.553
10230SOL     OW31509   6.184   4.453   3.994
10230SOL    HW131510   6.208   4.522   3.926
10230SOL    HW231511   6.106   4.486   4.048
10231SOL     OW31512   6.867   4.069   4.668
10231SOL    HW131513   6.781   4.019   4.655
10231SOL    HW231514   6.929   4.015   4.724
10232SOL     OW31515   6.393   4.329   5.189
10232SOL    HW131516   6.346   4.326   5.278
10232SOL    HW231517   6.342   4.274   5.123
10233SOL     OW31518   6.980   4.193   5.398
10233SOL    HW131519   6.960   4.236   5.486
10233SOL    HW231520   7.058   4.131   5.407
10234SOL     OW31521   6.559   4.614   5.296
10234SOL    HW131522   6.605   4.530   5.267
10234SOL    HW231523   6.503   4.648   5.221
10235SOL     OW31524   6.577   4.134   4.966
10235SOL    HW131525   6.500   4.168   5.020
10235SOL    HW231526   6.543   4.083   4.887
10236SOL     OW31527   6.627   4.425   4.153
10236SOL    HW131528   6.653   4.421   4.249
10236SOL    HW231529   6.542   4.374   4.139
10237SOL     OW31530   5.662   4.535   4.513
10237SOL    HW131531   5.761   4.523   4.522
10237SOL    HW231532   5.638   4.630   4.534
10238SOL     OW31533   5.716   5.545   5.295
10238SOL    HW131534   5.706   5.530   5.394
10238SOL    HW231535   5.630   5.581   5.259
10239SOL     OW31536   6.451   4.072   3.919
10239SOL    HW131537   6.510   4.135   3.870
10239SOL    HW231538   6.470   3.978   3.890
10240SOL     OW31539   6.948   4.868   4.269
10240SOL    HW131540   7.031   4.839   4.221
10240SOL    HW231541   6.899   4.935   4.213
10241SOL     OW31542   6.136   3.920   4.609
10241SOL    HW131543   6.131   3.915   4.709
10241SOL    HW231544   6.138   4.016   4.580
10242SOL     OW31545   6.594   5.180   4.201
10242SOL    HW131546   6.548   5.252   4.149
10242SOL    HW231547   6.590   5.200   4.299
10243SOL     OW31548   5.937   5.525   4.577
10243SOL    HW131549   5.987   5.439   4.583
10243SOL    HW231550   6.002   5.602   4.574
10244SOL     OW31551   6.813   5.274   5.230
10244SOL    HW131552   6.819   5.197   5.294
10244SOL    HW231553   6.761   5.248   5.150
10245SOL     OW31554   5.907   4.667   3.966
10245SOL    HW131555   5.989   4.706   3.924
10245SOL    HW231556   5.880   4.585   3.917
10246SOL     OW31557   6.047   4.990   5.451
10246SOL    HW131558   5.997   4.991   5.365
10246SOL    HW231559   5.984   4.972   5.527
10247SOL     OW31560   6.697   5.500   3.961
10247SOL    HW131561   6.637   5.438   4.011
10247SOL    HW231562   6.728   5.456   3.876
10248SOL     OW31563   5.788   4.009   5.222
10248SOL    HW131564   5.708   4.069   5.209
10248SOL    HW231565   5.778   3.960   5.308
10249SOL     OW31566   6.050   5.467   4.047
10249SOL    HW131567   6.083   5.506   4.133
10249SOL    HW231568   6.126   5.460   3.982
10250SOL     OW31569   5.835   5.509   4.965
10250SOL    HW131570   5.892   5.444   5.015
10250SOL    HW231571   5.819   5.476   4.872
10251SOL     OW31572   6.526   5.422   4.628
10251SOL    HW131573   6.606   5.365   4.649
10251SOL    HW231574   6.477   5.382   4.551
10252SOL     OW31575   5.968   4.424   4.204
10252SOL    HW131576   6.013   4.334   4.201
10252SOL    HW231577   5.874   4.413   4.237
10253SOL     OW31578   6.200   3.846   3.841
10253SOL    HW131579   6.298   3.824   3.848
10253SOL    HW231580   6.169   3.829   3.748
10254SOL     OW31581   6.367   3.988   5.473
10254SOL    HW131582   6.434   3.927   5.516
10254SOL    HW231583   6.294   4.007   5.538
10255SOL     OW31584   6.474   5.238   4.919
10255SOL    HW131585   6.451   5.213   4.825
10255SOL    HW231586   6.535   5.169   4.958
10256SOL     OW31587   6.389   5.126   4.648
10256SOL    HW131588   6.479   5.140   4.606
10256SOL    HW231589   6.318   5.128   4.577
10257SOL     OW31590   6.508   4.227   4.623
10257SOL    HW131591   6.483   4.218   4.527
10257SOL    HW231592   6.556   4.145   4.654
10258SOL     OW31593   6.125   3.788   4.236
10258SOL    HW131594   6.044   3.789   4.294
10258SOL    HW231595   6.128   3.871   4.181
10259SOL     OW31596   7.020   4.912   3.765
10259SOL    HW131597   7.052   4.836   3.822
10259SOL    HW231598   6.928   4.939   3.795
10260SOL     OW31599   5.883   3.759   3.895
10260SOL    HW131600   5.932   3.843   3.874
10260SOL    HW231601   5.945   3.694   3.940
10261SOL     OW31602   6.521   3.960   4.204
10261SOL    HW131603   6.473   4.001   4.126
10261SOL    HW231604   6.620   3.958   4.185
10262SOL     OW31605   6.662   4.407   5.188
10262SOL    HW131606   6.582   4.346   5.191
10262SOL    HW231607   6.743   4.354   5.164
10263SOL     OW31608   6.813   5.294   4.517
10263SOL    HW131609   6.834   5.368   4.452
10263SOL    HW231610   6.881   5.294   4.590
10264SOL     OW31611   6.045   4.876   4.465
10264SOL    HW131612   5.974   4.849   4.530
10264SOL    HW231613   6.019   4.848   4.372
10265SOL     OW31614   6.857   5.521   4.315
10265SOL    HW131615   6.901   5.585   4.251
10265SOL    HW231616   6.807   5.573   4.385
10266SOL     OW31617   6.618   4.273   3.740
10266SOL    HW131618   6.577   4.355   3.701
10266SOL    HW231619   6.682   4.299   3.813
10267SOL     OW31620   5.664   4.280   5.110
10267SOL    HW131621   5.756   4.279   5.069
10267SOL    HW231622   5.658   4.354   5.177
10268SOL     OW31623   6.147   3.946   4.871
10268SOL    HW131624   6.185   3.862   4.908
10268SOL    HW231625   6.059   3.965   4.915
10269SOL     OW31626   6.452   4.178   4.366
10269SOL    HW131627   6.420   4.250   4.304
10269SOL    HW231628   6.476   4.097   4.313
10270SOL     OW31629   6.603   3.763   4.477
10270SOL    HW131630   6.531   3.768   4.408
10270SOL    HW231631   6.579   3.694   4.546
10271SOL     OW31632   6.074   5.109   3.898
10271SOL    HW131633   5.987   5.094   3.945
10271SOL    HW231634   6.057   5.135   3.803
10272SOL     OW31635   6.113   3.980   4.052
10272SOL    HW131636   6.140   3.921   3.977
10272SOL    HW231637   6.113   4.075   4.021
10273SOL     OW31638   6.650   5.071   5.064
10273SOL    HW131639   6.570   5.048   5.119
10273SOL    HW231640   6.733   5.045   5.113
10274SOL     OW31641   6.697   4.919   4.824
10274SOL    HW131642   6.657   4.963   4.905
10274SOL    HW231643   6.656   4.956   4.741
10275SOL     OW31644   6.501   3.813   5.126
10275SOL    HW131645   6.526   3.793   5.031
10275SOL    HW231646   6.573   3.869   5.168
10276SOL     OW31647   6.566   4.840   5.443
10276SOL    HW131648   6.467   4.846   5.453
10276SOL    HW231649   6.589   4.760   5.387
10277SOL     OW31650   6.291   4.774   4.092
10277SOL    HW131651   6.277   4.781   4.191
10277SOL    HW231652   6.375   4.723   4.074
10278SOL     OW31653   5.996   4.537   4.975
10278SOL    HW131654   6.082   4.549   5.025
10278SOL    HW231655   5.954   4.450   5.002
10279SOL     OW31656   6.860   4.110   4.986
10279SOL    HW131657   6.881   4.184   5.050
10279SOL    HW231658   6.771   4.127   4.943
10280SOL     OW31659   5.650   5.288   5.055
10280SOL    HW131660   5.604   5.370   5.021
10280SOL    HW231661   5.748   5.307   5.064
10281SOL     OW31662   5.953   4.824   4.225
10281SOL    HW131663   5.946   4.907   4.169
10281SOL    HW231664   5.957   4.744   4.165
10282SOL     OW31665   6.152   4.261   4.589
10282SOL    HW131666   6.164   4.327   4.515
10282SOL    HW231667   6.198   4.295   4.672
10283SOL     OW31668   6.838   5.072   4.112
10283SOL    HW131669   6.888   5.149   4.152
10283SOL    HW231670   6.743   5.074   4.144
10284SOL     OW31671   6.858   5.169   4.866
10284SOL    HW131672   6.905   5.182   4.953
10284SOL    HW231673   6.792   5.095   4.875
10285SOL     OW31674   5.940   5.234   5.053
10285SOL    HW131675   5.919   5.190   4.966
10285SOL    HW231676   6.037   5.260   5.056
10286SOL     OW31677   5.988   4.475   5.322
10286SOL    HW131678   6.056   4.530   5.275
10286SOL    HW231679   6.028   4.387   5.349
10287SOL     OW31680   6.599   3.829   5.494
10287SOL    HW131681   6.605   3.914   5.442
10287SOL    HW231682   6.631   3.753   5.437
10288SOL     OW31683   6.090   3.774   5.464
10288SOL    HW131684   6.048   3.717   5.394
10288SOL    HW231685   6.024   3.843   5.496
10289SOL     OW31686   6.159   4.594   4.753
10289SOL    HW131687   6.203   4.683   4.744
10289SOL    HW231688   6.096   4.594   4.830
10290SOL     OW31689   6.946   4.586   4.769
10290SOL    HW131690   6.871   4.586   4.703
10290SOL    HW231691   6.983   4.494   4.778
10291SOL     OW31692   6.795   4.249   3.999
10291SOL    HW131693   6.808   4.165   4.053
10291SOL    HW231694   6.766   4.323   4.059
10292SOL     OW31695   5.893   3.937   4.955
10292SOL    HW131696   5.870   3.974   5.045
10292SOL    HW231697   5.863   3.842   4.949
10293SOL     OW31698   5.623   5.034   5.006
10293SOL    HW131699   5.676   4.985   5.074
10293SOL    HW231700   5.645   5.132   5.011
10294SOL     OW31701   6.318   4.358   4.788
10294SOL    HW131702   6.377   4.332   4.712
10294SOL    HW231703   6.290   4.454   4.777
10295SOL     OW31704   5.893   3.787   4.342
10295SOL    HW131705   5.882   3.881   4.375
10295SOL    HW231706   5.888   3.724   4.419
10296SOL     OW31707   7.208   4.091   4.098
10296SOL    HW131708   7.210   4.015   4.162
10296SOL    HW231709   7.160   4.168   4.138
10297SOL     OW31710   6.609   4.490   4.690
10297SOL    HW131711   6.624   4.511   4.786
10297SOL    HW231712   6.579   4.395   4.681
10298SOL     OW31713   6.566   5.297   5.424
10298SOL    HW131714   6.546   5.341   5.336
10298SOL    HW231715   6.605   5.206   5.408
10299SOL     OW31716   5.936   4.622   5.528
10299SOL    HW131717   6.012   4.666   5.576
10299SOL    HW231718   5.971   4.575   5.446
10300SOL     OW31719   6.889   4.562   3.766
10300SOL    HW131720   6.923   4.469   3.781
10300SOL    HW231721   6.907   4.589   3.671
10301SOL     OW31722   6.654   5.057   4.573
10301SOL    HW131723   6.661   4.973   4.518
10301SOL    HW231724   6.716   5.126   4.537
10302SOL     OW31725   5.905   4.534   4.673
10302SOL    HW131726   5.998   4.570   4.678
10302SOL    HW231727   5.899   4.449   4.725
10303SOL     OW31728   5.925   4.233   4.730
10303SOL    HW131729   5.873   4.150   4.713
10303SOL    HW231730   6.002   4.238   4.666
10304SOL     OW31731   6.724   4.104   5.402
10304SOL    HW131732   6.679   4.167   5.466
10304SOL    HW231733   6.817   4.135   5.385
10305SOL     OW31734   6.746   3.931   5.201
10305SOL    HW131735   6.746   3.995   5.278
10305SOL    HW231736   6.774   3.979   5.118
10306SOL     OW31737   5.594   5.050   3.924
10306SOL    HW131738   5.501   5.071   3.893
10306SOL    HW231739   5.604   4.951   3.937
10307SOL     OW31740   5.674   5.525   4.651
10307SOL    HW131741   5.632   5.439   4.624
10307SOL    HW231742   5.768   5.528   4.617
10308SOL     OW31743   6.090   5.292   4.634
10308SOL    HW131744   6.156   5.366   4.643
10308SOL    HW231745   6.134   5.213   4.592
10309SOL     OW31746   6.588   4.520   4.962
10309SOL    HW131747   6.629   4.488   5.048
10309SOL    HW231748   6.492   4.493   4.959
10310SOL     OW31749   5.626   4.268   4.838
10310SOL    HW131750   5.711   4.235   4.797
10310SOL    HW231751   5.639   4.283   4.936
10311SOL     OW31752   5.775   4.244   5.446
10311SOL    HW131753   5.834   4.204   5.376
10311SOL    HW231754   5.717   4.315   5.405
10312SOL     OW31755   6.401   4.296   4.049
10312SOL    HW131756   6.408   4.207   4.003
10312SOL    HW231757   6.307   4.330   4.041
10313SOL     OW31758   5.838   5.288   5.468
10313SOL    HW131759   5.808   5.345   5.544
10313SOL    HW231760   5.831   5.191   5.494
10314SOL     OW31761   6.257   4.188   4.993
10314SOL    HW131762   6.223   4.099   4.963
10314SOL    HW231763   6.283   4.242   4.913
10315SOL     OW31764   6.516   5.402   5.189
10315SOL    HW131765   6.492   5.384   5.094
10315SOL    HW231766   6.546   5.496   5.199
10316SOL     OW31767   6.059   4.224   3.915
10316SOL    HW131768   6.120   4.304   3.919
10316SOL    HW231769   5.964   4.255   3.922
10317SOL     OW31770   5.745   4.861   5.190
10317SOL    HW131771   5.767   4.800   5.266
10317SOL    HW231772   5.755   4.812   5.104
10318SOL     OW31773   6.933   4.783   4.958
10318SOL    HW131774   6.957   4.720   4.884
10318SOL    HW231775   6.843   4.823   4.940
10319SOL     OW31776   6.888   4.579   4.033
10319SOL    HW131777   6.802   4.548   4.075
10319SOL    HW231778   6.884   4.565   3.934
10320SOL     OW31779   6.838   5.455   4.852
10320SOL    HW131780   6.922   5.460   4.798
10320SOL    HW231781   6.815   5.359   4.870
10321SOL     OW31782   5.669   4.982   4.746
10321SOL    HW131783   5.664   4.981   4.846
10321SOL    HW231784   5.586   4.941   4.708
10322SOL     OW31785   6.274   5.386   5.440
10322SOL    HW131786   6.218   5.467   5.449
10322SOL    HW231787   6.326   5.390   5.354
10323SOL     OW31788   6.974   5.297   4.201
10323SOL    HW131789   7.041   5.309   4.127
10323SOL    HW231790   6.934   5.386   4.224
10324SOL     OW31791   5.716   5.518   5.575
10324SOL    HW131792   5.675   5.444   5.628
10324SOL    HW231793   5.780   5.569   5.633
10325SOL     OW31794   6.866   4.651   4.396
10325SOL    HW131795   6.926   4.570   4.398
10325SOL    HW231796   6.906   4.720   4.336
10326SOL     OW31797   6.416   4.997   5.146
10326SOL    HW131798   6.411   5.030   5.241
10326SOL    HW231799   6.330   5.016   5.100
10327SOL     OW31800   6.258   5.340   3.878
10327SOL    HW131801   6.267   5.350   3.779
10327SOL    HW231802   6.218   5.251   3.899
10328SOL     OW31803   5.849   4.050   4.444
10328SOL    HW131804   5.770   4.101   4.410
10328SOL    HW231805   5.840   4.035   4.542
10329SOL     OW31806   6.780   5.336   3.755
10329SOL    HW131807   6.786   5.243   3.792
10329SOL    HW231808   6.721   5.336   3.675
10330SOL     OW31809   6.408   4.726   5.096
10330SOL    HW131810   6.448   4.725   5.004
10330SOL    HW231811   6.418   4.818   5.136
10331SOL     OW31812   6.502   4.634   4.015
10331SOL    HW131813   6.565   4.672   3.947
10331SOL    HW231814   6.542   4.551   4.054
10332SOL     OW31815   5.958   5.012   5.214
10332SOL    HW131816   5.945   5.105   5.180
10332SOL    HW231817   5.874   4.960   5.201
10333SOL     OW31818   6.625   4.822   4.420
10333SOL    HW131819   6.555   4.775   4.474
10333SOL    HW231820   6.684   4.754   4.377
10334SOL     OW31821   6.600   3.960   4.695
10334SOL    HW131822   6.592   3.924   4.602
10334SOL    HW231823   6.598   3.884   4.760
10335SOL     OW31824   6.176   5.211   4.215
10335SOL    HW131825   6.218   5.153   4.145
10335SOL    HW231826   6.132   5.290   4.171
10336SOL     OW31827   5.841   5.072   4.014
10336SOL    HW131828   5.745   5.073   3.987
10336SOL    HW231829   5.853   5.125   4.098
10337SOL     OW31830   5.691   4.737   5.450
10337SOL    HW131831   5.614   4.704   5.504
10337SOL    HW231832   5.776   4.707   5.492
10338SOL     OW31833   6.258   3.927   5.213
10338SOL    HW131834   6.348   3.911   5.173
10338SOL    HW231835   6.266   3.932   5.312
10339SOL     OW31836   5.661   4.069   3.757
10339SOL    HW131837   5.569   4.041   3.728
10339SOL    HW231838   5.692   4.146   3.701
10340SOL     OW31839   5.658   3.890   4.042
10340SOL    HW131840   5.641   3.973   3.988
10340SOL    HW231841   5.748   3.853   4.020
10341SOL     OW31842   6.199   4.566   5.155
10341SOL    HW131843   6.255   4.647   5.138
10341SOL    HW231844   6.258   4.486   5.158
10342SOL     OW31845   6.302   4.289   5.432
10342SOL    HW131846   6.321   4.354   5.506
10342SOL    HW231847   6.362   4.209   5.441
10343SOL     OW31848   7.036   4.944   5.357
10343SOL    HW131849   7.027   4.934   5.456
10343SOL    HW231850   7.132   4.937   5.331
10344SOL     OW31851   5.976   5.465   5.284
10344SOL    HW131852   5.885   5.506   5.282
10344SOL    HW231853   5.969   5.371   5.316
10345SOL     OW31854   6.811   4.049   4.173
10345SOL    HW131855   6.876   3.975   4.162
10345SOL    HW231856   6.831   4.099   4.257
10346SOL     OW31857   6.180   4.469   4.376
10346SOL    HW131858   6.230   4.554   4.357
10346SOL    HW231859   6.092   4.471   4.328
10347SOL     OW31860   6.445   5.098   3.740
10347SOL    HW131861   6.399   5.113   3.828
10347SOL    HW231862   6.489   5.183   3.710
10348SOL     OW31863   6.247   5.514   4.677
10348SOL    HW131864   6.201   5.602   4.664
10348SOL    HW231865   6.346   5.526   4.670
10349SOL     OW31866   6.445   4.680   4.585
10349SOL    HW131867   6.499   4.611   4.633
10349SOL    HW231868   6.413   4.749   4.651
10350SOL     OW31869   6.669   4.708   3.811
10350SOL    HW131870   6.646   4.761   3.729
10350SOL    HW231871   6.750   4.652   3.792
10351SOL     OW31872   5.807   5.038   5.568
10351SOL    HW131873   5.742   4.965   5.547
10351SOL    HW231874   5.811   5.052   5.666
10352SOL     OW31875   5.665   4.964   4.377
10352SOL    HW131876   5.664   4.917   4.465
10352SOL    HW231877   5.747   4.936   4.326
10353SOL     OW31878   6.258   5.115   5.348
10353SOL    HW131879   6.180   5.065   5.386
10353SOL    HW231880   6.255   5.210   5.379
10354SOL     OW31881   6.014   4.148   4.244
10354SOL    HW131882   6.044   4.076   4.182
10354SOL    HW231883   5.975   4.108   4.327
10355SOL     OW31884   5.903   4.271   5.004
10355SOL    HW131885   5.941   4.212   5.076
10355SOL    HW231886   5.943   4.245   4.916
10356SOL     OW31887   6.398   5.310   4.411
10356SOL    HW131888   6.430   5.320   4.317
10356SOL    HW231889   6.319   5.248   4.413
10357SOL     OW31890   7.010   3.938   4.836
10357SOL    HW131891   7.062   3.873   4.891
10357SOL    HW231892   6.961   4.001   4.897
10358SOL     OW31893   6.587   3.758   4.878
10358SOL    HW131894   6.524   3.686   4.847
10358SOL    HW231895   6.680   3.722   4.878
10359SOL     OW31896   6.356   5.054   4.025
10359SOL    HW131897   6.310   4.967   4.042
10359SOL    HW231898   6.447   5.051   4.066
10360SOL     OW31899   6.204   5.291   5.008
10360SOL    HW131900   6.199   5.373   5.065
10360SOL    HW231901   6.293   5.288   4.963
10361SOL     OW31902   6.938   3.776   3.892
10361SOL    HW131903   6.973   3.735   3.808
10361SOL    HW231904   6.848   3.738   3.912
10362SOL     OW31905   5.625   4.801   4.024
10362SOL    HW131906   5.724   4.790   4.015
10362SOL    HW231907   5.585   4.715   4.056
10363SOL     OW31908   6.461   5.370   4.061
10363SOL    HW131909   6.384   5.335   4.007
10363SOL    HW231910   6.429   5.441   4.123
10364SOL     OW31911   5.816   4.352   5.699
10364SOL    HW131912   5.723   4.350   5.736
10364SOL    HW231913   5.817   4.313   5.607
10365SOL     OW31914   5.811   3.999   6.582
10365SOL    HW131915   5.846   3.982   6.674
10365SOL    HW231916   5.723   3.954   6.570
10366SOL     OW31917   5.605   4.092   6.233
10366SOL    HW131918   5.523   4.135   6.272
10366SOL    HW231919   5.577   4.019   6.170
10367SOL     OW31920   6.155   4.999   6.751
10367SOL    HW131921   6.062   4.992   6.714
10367SOL    HW231922   6.166   5.088   6.795
10368SOL     OW31923   7.141   5.235   6.289
10368SOL    HW131924   7.084   5.219   6.370
10368SOL    HW231925   7.082   5.245   6.209
10369SOL     OW31926   6.721   4.427   6.303
10369SOL    HW131927   6.778   4.505   6.278
10369SOL    HW231928   6.661   4.453   6.379
10370SOL     OW31929   6.354   4.868   6.609
10370SOL    HW131930   6.276   4.885   6.669
10370SOL    HW231931   6.388   4.955   6.573
10371SOL     OW31932   6.271   4.736   6.251
10371SOL    HW131933   6.340   4.720   6.321
10371SOL    HW231934   6.198   4.793   6.289
10372SOL     OW31935   5.921   5.159   6.647
10372SOL    HW131936   5.843   5.128   6.594
10372SOL    HW231937   5.979   5.217   6.590
10373SOL     OW31938   5.817   5.437   6.069
10373SOL    HW131939   5.851   5.514   6.123
10373SOL    HW231940   5.861   5.437   5.979
10374SOL     OW31941   5.816   5.158   6.124
10374SOL    HW131942   5.790   5.254   6.124
10374SOL    HW231943   5.745   5.104   6.169
10375SOL     OW31944   5.826   4.815   6.472
10375SOL    HW131945   5.840   4.731   6.524
10375SOL    HW231946   5.771   4.879   6.527
10376SOL     OW31947   6.206   5.510   7.025
10376SOL    HW131948   6.114   5.493   7.060
10376SOL    HW231949   6.234   5.602   7.051
10377SOL     OW31950   6.192   4.688   5.709
10377SOL    HW131951   6.199   4.772   5.655
10377SOL    HW231952   6.238   4.701   5.797
10378SOL     OW31953   7.180   3.838   7.066
10378SOL    HW131954   7.162   3.905   6.994
10378SOL    HW231955   7.177   3.884   7.155
10379SOL     OW31956   5.708   4.367   6.149
10379SOL    HW131957   5.663   4.279   6.166
10379SOL    HW231958   5.707   4.421   6.233
10380SOL     OW31959   5.613   5.320   5.703
10380SOL    HW131960   5.594   5.224   5.724
10380SOL    HW231961   5.580   5.378   5.778
10381SOL     OW31962   6.199   5.089   6.312
10381SOL    HW131963   6.150   5.002   6.321
10381SOL    HW231964   6.176   5.132   6.225
10382SOL     OW31965   6.879   4.952   7.009
10382SOL    HW131966   6.916   4.879   6.951
10382SOL    HW231967   6.931   4.957   7.094
10383SOL     OW31968   6.395   3.728   6.088
10383SOL    HW131969   6.435   3.819   6.079
10383SOL    HW231970   6.295   3.736   6.094
10384SOL     OW31971   5.783   4.700   6.850
10384SOL    HW131972   5.872   4.655   6.836
10384SOL    HW231973   5.710   4.635   6.831
10385SOL     OW31974   6.184   4.453   5.856
10385SOL    HW131975   6.208   4.522   5.788
10385SOL    HW231976   6.106   4.486   5.910
10386SOL     OW31977   6.867   4.069   6.530
10386SOL    HW131978   6.781   4.019   6.517
10386SOL    HW231979   6.929   4.015   6.586
10387SOL     OW31980   6.393   4.329   7.051
10387SOL    HW131981   6.346   4.326   7.140
10387SOL    HW231982   6.342   4.274   6.985
10388SOL     OW31983   6.577   4.134   6.828
10388SOL    HW131984   6.500   4.168   6.882
10388SOL    HW231985   6.543   4.083   6.749
10389SOL     OW31986   6.627   4.425   6.015
10389SOL    HW131987   6.653   4.421   6.111
10389SOL    HW231988   6.542   4.374   6.001
10390SOL     OW31989   5.662   4.535   6.375
10390SOL    HW131990   5.761   4.523   6.384
10390SOL    HW231991   5.638   4.630   6.396
10391SOL     OW31992   5.716   5.545   7.157
10391SOL    HW131993   5.706   5.530   7.256
10391SOL    HW231994   5.630   5.581   7.121
10392SOL     OW31995   6.451   4.072   5.781
10392SOL    HW131996   6.510   4.135   5.732
10392SOL    HW231997   6.470   3.978   5.752
10393SOL     OW31998   6.948   4.868   6.131
10393SOL    HW131999   7.031   4.839   6.083
10393SOL    HW232000   6.899   4.935   6.075
10394SOL     OW32001   6.136   3.920   6.471
10394SOL    HW132002   6.131   3.915   6.571
10394SOL    HW232003   6.138   4.016   6.442
10395SOL     OW32004   6.594   5.180   6.063
10395SOL    HW132005   6.548   5.252   6.011
10395SOL    HW232006   6.590   5.200   6.161
10396SOL     OW32007   5.937   5.525   6.439
10396SOL    HW132008   5.987   5.439   6.445
10396SOL    HW232009   6.002   5.602   6.436
10397SOL     OW32010   5.907   4.667   5.828
10397SOL    HW132011   5.989   4.706   5.786
10397SOL    HW232012   5.880   4.585   5.779
10398SOL     OW32013   6.697   5.500   5.823
10398SOL    HW132014   6.637   5.438   5.873
10398SOL    HW232015   6.728   5.456   5.738
10399SOL     OW32016   6.050   5.467   5.909
10399SOL    HW132017   6.083   5.506   5.995
10399SOL    HW232018   6.126   5.460   5.844
10400SOL     OW32019   5.835   5.509   6.827
10400SOL    HW132020   5.892   5.444   6.877
10400SOL    HW232021   5.819   5.476   6.734
10401SOL     OW32022   6.526   5.422   6.490
10401SOL    HW132023   6.606   5.365   6.511
10401SOL    HW232024   6.477   5.382   6.413
10402SOL     OW32025   5.968   4.424   6.066
10402SOL    HW132026   6.013   4.334   6.063
10402SOL    HW232027   5.874   4.413   6.099
10403SOL     OW32028   6.200   3.846   5.703
10403SOL    HW132029   6.298   3.824   5.710
10403SOL    HW232030   6.169   3.829   5.610
10404SOL     OW32031   6.474   5.238   6.781
10404SOL    HW132032   6.451   5.213   6.687
10404SOL    HW232033   6.535   5.169   6.820
10405SOL     OW32034   6.389   5.126   6.510
10405SOL    HW132035   6.479   5.140   6.468
10405SOL    HW232036   6.318   5.128   6.439
10406SOL     OW32037   6.508   4.227   6.485
10406SOL    HW132038   6.483   4.218   6.389
10406SOL    HW232039   6.556   4.145   6.516
10407SOL     OW32040   6.125   3.788   6.098
10407SOL    HW132041   6.044   3.789   6.156
10407SOL    HW232042   6.128   3.871   6.043
10408SOL     OW32043   7.020   4.912   5.627
10408SOL    HW132044   7.052   4.836   5.684
10408SOL    HW232045   6.928   4.939   5.657
10409SOL     OW32046   5.883   3.759   5.757
10409SOL    HW132047   5.932   3.843   5.736
10409SOL    HW232048   5.945   3.694   5.802
10410SOL     OW32049   6.521   3.960   6.066
10410SOL    HW132050   6.473   4.001   5.988
10410SOL    HW232051   6.620   3.958   6.047
10411SOL     OW32052   6.813   5.294   6.379
10411SOL    HW132053   6.834   5.368   6.314
10411SOL    HW232054   6.881   5.294   6.452
10412SOL     OW32055   6.045   4.876   6.327
10412SOL    HW132056   5.974   4.849   6.392
10412SOL    HW232057   6.019   4.848   6.234
10413SOL     OW32058   6.857   5.521   6.177
10413SOL    HW132059   6.901   5.585   6.113
10413SOL    HW232060   6.807   5.573   6.247
10414SOL     OW32061   6.618   4.273   5.602
10414SOL    HW132062   6.577   4.355   5.563
10414SOL    HW232063   6.682   4.299   5.675
10415SOL     OW32064   6.147   3.946   6.733
10415SOL    HW132065   6.185   3.862   6.770
10415SOL    HW232066   6.059   3.965   6.777
10416SOL     OW32067   6.452   4.178   6.228
10416SOL    HW132068   6.420   4.250   6.166
10416SOL    HW232069   6.476   4.097   6.175
10417SOL     OW32070   6.603   3.763   6.339
10417SOL    HW132071   6.531   3.768   6.270
10417SOL    HW232072   6.579   3.694   6.408
10418SOL     OW32073   6.074   5.109   5.760
10418SOL    HW132074   5.987   5.094   5.807
10418SOL    HW232075   6.057   5.135   5.665
10419SOL     OW32076   6.113   3.980   5.914
10419SOL    HW132077   6.140   3.921   5.839
10419SOL    HW232078   6.113   4.075   5.883
10420SOL     OW32079   7.178   5.353   7.211
10420SOL    HW132080   7.205   5.387   7.121
10420SOL    HW232081   7.257   5.315   7.257
10421SOL     OW32082   6.697   4.919   6.686
10421SOL    HW132083   6.657   4.963   6.767
10421SOL    HW232084   6.656   4.956   6.603
10422SOL     OW32085   6.291   4.774   5.954
10422SOL    HW132086   6.277   4.781   6.053
10422SOL    HW232087   6.375   4.723   5.936
10423SOL     OW32088   5.996   4.537   6.837
10423SOL    HW132089   6.082   4.549   6.887
10423SOL    HW232090   5.954   4.450   6.864
10424SOL     OW32091   6.860   4.110   6.848
10424SOL    HW132092   6.881   4.184   6.912
10424SOL    HW232093   6.771   4.127   6.805
10425SOL     OW32094   5.650   5.288   6.917
10425SOL    HW132095   5.604   5.370   6.883
10425SOL    HW232096   5.748   5.307   6.926
10426SOL     OW32097   5.953   4.824   6.087
10426SOL    HW132098   5.946   4.907   6.031
10426SOL    HW232099   5.957   4.744   6.027
10427SOL     OW32100   6.152   4.261   6.451
10427SOL    HW132101   6.164   4.327   6.377
10427SOL    HW232102   6.198   4.295   6.534
10428SOL     OW32103   6.838   5.072   5.974
10428SOL    HW132104   6.888   5.149   6.014
10428SOL    HW232105   6.743   5.074   6.006
10429SOL     OW32106   6.858   5.169   6.728
10429SOL    HW132107   6.905   5.182   6.815
10429SOL    HW232108   6.792   5.095   6.737
10430SOL     OW32109   5.940   5.234   6.915
10430SOL    HW132110   5.919   5.190   6.828
10430SOL    HW232111   6.037   5.260   6.918
10431SOL     OW32112   6.159   4.594   6.615
10431SOL    HW132113   6.203   4.683   6.606
10431SOL    HW232114   6.096   4.594   6.692
10432SOL     OW32115   6.946   4.586   6.631
10432SOL    HW132116   6.871   4.586   6.565
10432SOL    HW232117   6.983   4.494   6.640
10433SOL     OW32118   6.795   4.249   5.861
10433SOL    HW132119   6.808   4.165   5.915
10433SOL    HW232120   6.766   4.323   5.921
10434SOL     OW32121   5.893   3.937   6.817
10434SOL    HW132122   5.870   3.974   6.907
10434SOL    HW232123   5.863   3.842   6.811
10435SOL     OW32124   5.623   5.034   6.868
10435SOL    HW132125   5.676   4.985   6.936
10435SOL    HW232126   5.645   5.132   6.873
10436SOL     OW32127   6.318   4.358   6.650
10436SOL    HW132128   6.377   4.332   6.574
10436SOL    HW232129   6.290   4.454   6.639
10437SOL     OW32130   5.893   3.787   6.204
10437SOL    HW132131   5.882   3.881   6.237
10437SOL    HW232132   5.888   3.724   6.281
10438SOL     OW32133   7.208   4.091   5.960
10438SOL    HW132134   7.210   4.015   6.024
10438SOL    HW232135   7.160   4.168   6.000
10439SOL     OW32136   6.609   4.490   6.552
10439SOL    HW132137   6.624   4.511   6.648
10439SOL    HW232138   6.579   4.395   6.543
10440SOL     OW32139   6.889   4.562   5.628
10440SOL    HW132140   6.923   4.469   5.643
10440SOL    HW232141   6.907   4.589   5.533
10441SOL     OW32142   6.654   5.057   6.435
10441SOL    HW132143   6.661   4.973   6.380
10441SOL    HW232144   6.716   5.126   6.399
10442SOL     OW32145   5.905   4.534   6.535
10442SOL    HW132146   5.998   4.570   6.540
10442SOL    HW232147   5.899   4.449   6.587
10443SOL     OW32148   5.925   4.233   6.592
10443SOL    HW132149   5.873   4.150   6.575
10443SOL    HW232150   6.002   4.238   6.528
10444SOL     OW32151   6.746   3.931   7.063
10444SOL    HW132152   6.746   3.995   7.140
10444SOL    HW232153   6.774   3.979   6.980
10445SOL     OW32154   5.594   5.050   5.786
10445SOL    HW132155   5.501   5.071   5.755
10445SOL    HW232156   5.604   4.951   5.799
10446SOL     OW32157   5.674   5.525   6.513
10446SOL    HW132158   5.632   5.439   6.486
10446SOL    HW232159   5.768   5.528   6.479
10447SOL     OW32160   6.090   5.292   6.496
10447SOL    HW132161   6.156   5.366   6.505
10447SOL    HW232162   6.134   5.213   6.454
10448SOL     OW32163   6.588   4.520   6.824
10448SOL    HW132164   6.629   4.488   6.910
10448SOL    HW232165   6.492   4.493   6.821
10449SOL     OW32166   5.626   4.268   6.700
10449SOL    HW132167   5.711   4.235   6.659
10449SOL    HW232168   5.639   4.283   6.798
10450SOL     OW32169   6.401   4.296   5.911
10450SOL    HW132170   6.408   4.207   5.865
10450SOL    HW232171   6.307   4.330   5.903
10451SOL     OW32172   6.257   4.188   6.855
10451SOL    HW132173   6.223   4.099   6.825
10451SOL    HW232174   6.283   4.242   6.775
10452SOL     OW32175   6.516   5.402   7.051
10452SOL    HW132176   6.492   5.384   6.956
10452SOL    HW232177   6.546   5.496   7.061
10453SOL     OW32178   6.059   4.224   5.777
10453SOL    HW132179   6.120   4.304   5.781
10453SOL    HW232180   5.964   4.255   5.784
10454SOL     OW32181   5.745   4.861   7.052
10454SOL    HW132182   5.767   4.800   7.128
10454SOL    HW232183   5.755   4.812   6.966
10455SOL     OW32184   6.933   4.783   6.820
10455SOL    HW132185   6.957   4.720   6.746
10455SOL    HW232186   6.843   4.823   6.802
10456SOL     OW32187   6.888   4.579   5.895
10456SOL    HW132188   6.802   4.548   5.937
10456SOL    HW232189   6.884   4.565   5.796
10457SOL     OW32190   6.838   5.455   6.714
10457SOL    HW132191   6.922   5.460   6.660
10457SOL    HW232192   6.815   5.359   6.732
10458SOL     OW32193   5.669   4.982   6.608
10458SOL    HW132194   5.664   4.981   6.708
10458SOL    HW232195   5.586   4.941   6.570
10459SOL     OW32196   6.974   5.297   6.063
10459SOL    HW132197   7.041   5.309   5.989
10459SOL    HW232198   6.934   5.386   6.086
10460SOL     OW32199   6.866   4.651   6.258
10460SOL    HW132200   6.926   4.570   6.260
10460SOL    HW232201   6.906   4.720   6.198
10461SOL     OW32202   6.258   5.340   5.740
10461SOL    HW132203   6.267   5.350   5.641
10461SOL    HW232204   6.218   5.251   5.761
10462SOL     OW32205   5.849   4.050   6.306
10462SOL    HW132206   5.770   4.101   6.272
10462SOL    HW232207   5.840   4.035   6.404
10463SOL     OW32208   6.780   5.336   5.617
10463SOL    HW132209   6.786   5.243   5.654
10463SOL    HW232210   6.721   5.336   5.537
10464SOL     OW32211   6.408   4.726   6.958
10464SOL    HW132212   6.448   4.725   6.866
10464SOL    HW232213   6.418   4.818   6.998
10465SOL     OW32214   6.502   4.634   5.877
10465SOL    HW132215   6.565   4.672   5.809
10465SOL    HW232216   6.542   4.551   5.916
10466SOL     OW32217   6.625   4.822   6.282
10466SOL    HW132218   6.555   4.775   6.336
10466SOL    HW232219   6.684   4.754   6.239
10467SOL     OW32220   6.600   3.960   6.557
10467SOL    HW132221   6.592   3.924   6.464
10467SOL    HW232222   6.598   3.884   6.622
10468SOL     OW32223   6.176   5.211   6.077
10468SOL    HW132224   6.218   5.153   6.007
10468SOL    HW232225   6.132   5.290   6.033
10469SOL     OW32226   5.841   5.072   5.876
10469SOL    HW132227   5.745   5.073   5.849
10469SOL    HW232228   5.853   5.125   5.960
10470SOL     OW32229   6.258   3.927   7.075
10470SOL    HW132230   6.348   3.911   7.035
10470SOL    HW232231   6.266   3.932   7.174
10471SOL     OW32232   5.661   4.069   5.619
10471SOL    HW132233   5.569   4.041   5.590
10471SOL    HW232234   5.692   4.146   5.563
10472SOL     OW32235   5.658   3.890   5.904
10472SOL    HW132236   5.641   3.973   5.850
10472SOL    HW232237   5.748   3.853   5.882
10473SOL     OW32238   5.976   5.465   7.146
10473SOL    HW132239   5.885   5.506   7.144
10473SOL    HW232240   5.969   5.371   7.178
10474SOL     OW32241   6.811   4.049   6.035
10474SOL    HW132242   6.876   3.975   6.024
10474SOL    HW232243   6.831   4.099   6.119
10475SOL     OW32244   6.180   4.469   6.238
10475SOL    HW132245   6.230   4.554   6.219
10475SOL    HW232246   6.092   4.471   6.190
10476SOL     OW32247   6.445   5.098   5.602
10476SOL    HW132248   6.399   5.113   5.690
10476SOL    HW232249   6.489   5.183   5.572
10477SOL     OW32250   6.247   5.514   6.539
10477SOL    HW132251   6.201   5.602   6.526
10477SOL    HW232252   6.346   5.526   6.532
10478SOL     OW32253   6.445   4.680   6.447
10478SOL    HW132254   6.499   4.611   6.495
10478SOL    HW232255   6.413   4.749   6.513
10479SOL     OW32256   6.669   4.708   5.673
10479SOL    HW132257   6.646   4.761   5.591
10479SOL    HW232258   6.750   4.652   5.654
10480SOL     OW32259   5.665   4.964   6.239
10480SOL    HW132260   5.664   4.917   6.327
10480SOL    HW232261   5.747   4.936   6.188
10481SOL     OW32262   6.014   4.148   6.106
10481SOL    HW132263   6.044   4.076   6.044
10481SOL    HW232264   5.975   4.108   6.189
10482SOL     OW32265   5.903   4.271   6.866
10482SOL    HW132266   5.941   4.212   6.938
10482SOL    HW232267   5.943   4.245   6.778
10483SOL     OW32268   6.398   5.310   6.273
10483SOL    HW132269   6.430   5.320   6.179
10483SOL    HW232270   6.319   5.248   6.275
10484SOL     OW32271   7.010   3.938   6.698
10484SOL    HW132272   7.062   3.873   6.753
10484SOL    HW232273   6.961   4.001   6.759
10485SOL     OW32274   6.587   3.758   6.740
10485SOL    HW132275   6.524   3.686   6.709
10485SOL    HW232276   6.680   3.722   6.740
10486SOL     OW32277   6.356   5.054   5.887
10486SOL    HW132278   6.310   4.967   5.904
10486SOL    HW232279   6.447   5.051   5.928
10487SOL     OW32280   6.204   5.291   6.870
10487SOL    HW132281   6.199   5.373   6.927
10487SOL    HW232282   6.293   5.288   6.825
10488SOL     OW32283   6.938   3.776   5.754
10488SOL    HW132284   6.973   3.735   5.670
10488SOL    HW232285   6.848   3.738   5.774
10489SOL     OW32286   5.625   4.801   5.886
10489SOL    HW132287   5.724   4.790   5.877
10489SOL    HW232288   5.585   4.715   5.918
10490SOL     OW32289   6.461   5.370   5.923
10490SOL    HW132290   6.384   5.335   5.869
10490SOL    HW232291   6.429   5.441   5.985
10491SOL     OW32292   5.816   6.214   0.113
10491SOL    HW132293   5.723   6.212   0.150
10491SOL    HW232294   5.817   6.175   0.021
10492SOL     OW32295   5.811   5.861   0.996
10492SOL    HW132296   5.846   5.844   1.088
10492SOL    HW232297   5.723   5.816   0.984
10493SOL     OW32298   5.605   5.954   0.647
10493SOL    HW132299   5.523   5.997   0.686
10493SOL    HW232300   5.577   5.881   0.584
10494SOL     OW32301   6.155   6.861   1.165
10494SOL    HW132302   6.062   6.854   1.128
10494SOL    HW232303   6.166   6.950   1.209
10495SOL     OW32304   7.141   7.097   0.703
10495SOL    HW132305   7.084   7.081   0.784
10495SOL    HW232306   7.082   7.107   0.623
10496SOL     OW32307   6.721   6.289   0.717
10496SOL    HW132308   6.778   6.367   0.692
10496SOL    HW232309   6.661   6.315   0.793
10497SOL     OW32310   6.354   6.730   1.023
10497SOL    HW132311   6.276   6.747   1.083
10497SOL    HW232312   6.388   6.817   0.987
10498SOL     OW32313   6.436   6.384   1.823
10498SOL    HW132314   6.432   6.460   1.888
10498SOL    HW232315   6.458   6.420   1.732
10499SOL     OW32316   6.271   6.598   0.665
10499SOL    HW132317   6.340   6.582   0.735
10499SOL    HW232318   6.198   6.655   0.703
10500SOL     OW32319   6.272   6.747   1.803
10500SOL    HW132320   6.332   6.826   1.817
10500SOL    HW232321   6.186   6.778   1.762
10501SOL     OW32322   5.921   7.021   1.061
10501SOL    HW132323   5.843   6.990   1.008
10501SOL    HW232324   5.979   7.079   1.004
10502SOL     OW32325   6.024   5.978   1.499
10502SOL    HW132326   6.106   5.922   1.508
10502SOL    HW232327   5.943   5.920   1.503
10503SOL     OW32328   5.826   6.677   0.886
10503SOL    HW132329   5.840   6.593   0.938
10503SOL    HW232330   5.771   6.741   0.941
10504SOL     OW32331   6.192   6.550   0.123
10504SOL    HW132332   6.199   6.634   0.069
10504SOL    HW232333   6.238   6.563   0.211
10505SOL     OW32334   5.708   6.229   0.563
10505SOL    HW132335   5.663   6.141   0.580
10505SOL    HW232336   5.707   6.283   0.647
10506SOL     OW32337   5.699   6.323   1.597
10506SOL    HW132338   5.787   6.310   1.642
10506SOL    HW232339   5.686   6.420   1.575
10507SOL     OW32340   6.879   6.814   1.423
10507SOL    HW132341   6.916   6.741   1.365
10507SOL    HW232342   6.931   6.819   1.508
10508SOL     OW32343   6.395   5.590   0.502
10508SOL    HW132344   6.435   5.681   0.493
10508SOL    HW232345   6.295   5.598   0.508
10509SOL     OW32346   5.783   6.562   1.264
10509SOL    HW132347   5.872   6.517   1.250
10509SOL    HW232348   5.710   6.497   1.245
10510SOL     OW32349   5.903   5.837   1.801
10510SOL    HW132350   5.974   5.908   1.807
10510SOL    HW232351   5.815   5.876   1.829
10511SOL     OW32352   6.184   6.315   0.270
10511SOL    HW132353   6.208   6.384   0.202
10511SOL    HW232354   6.106   6.348   0.324
10512SOL     OW32355   6.867   5.931   0.944
10512SOL    HW132356   6.781   5.881   0.931
10512SOL    HW232357   6.929   5.877   1.000
10513SOL     OW32358   6.393   6.191   1.465
10513SOL    HW132359   6.346   6.188   1.554
10513SOL    HW232360   6.342   6.136   1.399
10514SOL     OW32361   6.980   6.055   1.674
10514SOL    HW132362   6.960   6.098   1.762
10514SOL    HW232363   7.058   5.993   1.683
10515SOL     OW32364   6.559   6.476   1.572
10515SOL    HW132365   6.605   6.392   1.543
10515SOL    HW232366   6.503   6.510   1.497
10516SOL     OW32367   6.577   5.996   1.242
10516SOL    HW132368   6.500   6.030   1.296
10516SOL    HW232369   6.543   5.945   1.163
10517SOL     OW32370   6.627   6.287   0.429
10517SOL    HW132371   6.653   6.283   0.525
10517SOL    HW232372   6.542   6.236   0.415
10518SOL     OW32373   5.662   6.397   0.789
10518SOL    HW132374   5.761   6.385   0.798
10518SOL    HW232375   5.638   6.492   0.810
10519SOL     OW32376   6.451   5.934   0.195
10519SOL    HW132377   6.510   5.997   0.146
10519SOL    HW232378   6.470   5.840   0.166
10520SOL     OW32379   6.948   6.730   0.545
10520SOL    HW132380   7.031   6.701   0.497
10520SOL    HW232381   6.899   6.797   0.489
10521SOL     OW32382   6.136   5.782   0.885
10521SOL    HW132383   6.131   5.777   0.985
10521SOL    HW232384   6.138   5.878   0.856
10522SOL     OW32385   5.907   6.529   0.242
10522SOL    HW132386   5.989   6.568   0.200
10522SOL    HW232387   5.880   6.447   0.193
10523SOL     OW32388   5.788   5.871   1.498
10523SOL    HW132389   5.708   5.931   1.485
10523SOL    HW232390   5.778   5.822   1.584
10524SOL     OW32391   5.968   6.286   0.480
10524SOL    HW132392   6.013   6.196   0.477
10524SOL    HW232393   5.874   6.275   0.513
10525SOL     OW32394   6.367   5.850   1.749
10525SOL    HW132395   6.434   5.789   1.792
10525SOL    HW232396   6.294   5.869   1.814
10526SOL     OW32397   6.508   6.089   0.899
10526SOL    HW132398   6.483   6.080   0.803
10526SOL    HW232399   6.556   6.007   0.930
10527SOL     OW32400   6.125   5.650   0.512
10527SOL    HW132401   6.044   5.651   0.570
10527SOL    HW232402   6.128   5.733   0.457
10528SOL     OW32403   6.521   5.822   0.480
10528SOL    HW132404   6.473   5.863   0.402
10528SOL    HW232405   6.620   5.820   0.461
10529SOL     OW32406   6.662   6.269   1.464
10529SOL    HW132407   6.582   6.208   1.467
10529SOL    HW232408   6.743   6.216   1.440
10530SOL     OW32409   6.813   7.156   0.793
10530SOL    HW132410   6.834   7.230   0.728
10530SOL    HW232411   6.881   7.156   0.866
10531SOL     OW32412   6.045   6.738   0.741
10531SOL    HW132413   5.974   6.711   0.806
10531SOL    HW232414   6.019   6.710   0.648
10532SOL     OW32415   6.618   6.135   0.016
10532SOL    HW132416   6.577   6.217  -0.023
10532SOL    HW232417   6.682   6.161   0.089
10533SOL     OW32418   5.664   6.142   1.386
10533SOL    HW132419   5.756   6.141   1.345
10533SOL    HW232420   5.658   6.216   1.453
10534SOL     OW32421   6.147   5.808   1.147
10534SOL    HW132422   6.185   5.724   1.184
10534SOL    HW232423   6.059   5.827   1.191
10535SOL     OW32424   6.452   6.040   0.642
10535SOL    HW132425   6.420   6.112   0.580
10535SOL    HW232426   6.476   5.959   0.589
10536SOL     OW32427   6.603   5.625   0.753
10536SOL    HW132428   6.531   5.630   0.684
10536SOL    HW232429   6.579   5.556   0.822
10537SOL     OW32430   6.113   5.842   0.328
10537SOL    HW132431   6.140   5.783   0.253
10537SOL    HW232432   6.113   5.937   0.297
10538SOL     OW32433   6.650   6.933   1.340
10538SOL    HW132434   6.570   6.910   1.395
10538SOL    HW232435   6.733   6.907   1.389
10539SOL     OW32436   6.697   6.781   1.100
10539SOL    HW132437   6.657   6.825   1.181
10539SOL    HW232438   6.656   6.818   1.017
10540SOL     OW32439   6.501   5.675   1.402
10540SOL    HW132440   6.526   5.655   1.307
10540SOL    HW232441   6.573   5.731   1.444
10541SOL     OW32442   6.566   6.702   1.719
10541SOL    HW132443   6.467   6.708   1.729
10541SOL    HW232444   6.589   6.622   1.663
10542SOL     OW32445   6.291   6.636   0.368
10542SOL    HW132446   6.277   6.643   0.467
10542SOL    HW232447   6.375   6.585   0.350
10543SOL     OW32448   5.996   6.399   1.251
10543SOL    HW132449   6.082   6.411   1.301
10543SOL    HW232450   5.954   6.312   1.278
10544SOL     OW32451   6.860   5.972   1.262
10544SOL    HW132452   6.881   6.046   1.326
10544SOL    HW232453   6.771   5.989   1.219
10545SOL     OW32454   5.953   6.686   0.501
10545SOL    HW132455   5.946   6.769   0.445
10545SOL    HW232456   5.957   6.606   0.441
10546SOL     OW32457   6.152   6.123   0.865
10546SOL    HW132458   6.164   6.189   0.791
10546SOL    HW232459   6.198   6.157   0.948
10547SOL     OW32460   6.838   6.934   0.388
10547SOL    HW132461   6.888   7.011   0.428
10547SOL    HW232462   6.743   6.936   0.420
10548SOL     OW32463   5.988   6.337   1.598
10548SOL    HW132464   6.056   6.392   1.551
10548SOL    HW232465   6.028   6.249   1.625
10549SOL     OW32466   6.599   5.691   1.770
10549SOL    HW132467   6.605   5.776   1.718
10549SOL    HW232468   6.631   5.615   1.713
10550SOL     OW32469   6.090   5.636   1.740
10550SOL    HW132470   6.048   5.579   1.670
10550SOL    HW232471   6.024   5.705   1.772
10551SOL     OW32472   6.159   6.456   1.029
10551SOL    HW132473   6.203   6.545   1.020
10551SOL    HW232474   6.096   6.456   1.106
10552SOL     OW32475   6.946   6.448   1.045
10552SOL    HW132476   6.871   6.448   0.979
10552SOL    HW232477   6.983   6.356   1.054
10553SOL     OW32478   6.795   6.111   0.275
10553SOL    HW132479   6.808   6.027   0.329
10553SOL    HW232480   6.766   6.185   0.335
10554SOL     OW32481   5.893   5.799   1.231
10554SOL    HW132482   5.870   5.836   1.321
10554SOL    HW232483   5.863   5.704   1.225
10555SOL     OW32484   5.623   6.896   1.282
10555SOL    HW132485   5.676   6.847   1.350
10555SOL    HW232486   5.645   6.994   1.287
10556SOL     OW32487   6.318   6.220   1.064
10556SOL    HW132488   6.377   6.194   0.988
10556SOL    HW232489   6.290   6.316   1.053
10557SOL     OW32490   5.893   5.649   0.618
10557SOL    HW132491   5.882   5.743   0.651
10557SOL    HW232492   5.888   5.586   0.695
10558SOL     OW32493   7.208   5.953   0.374
10558SOL    HW132494   7.210   5.877   0.438
10558SOL    HW232495   7.160   6.030   0.414
10559SOL     OW32496   6.609   6.352   0.966
10559SOL    HW132497   6.624   6.373   1.062
10559SOL    HW232498   6.579   6.257   0.957
10560SOL     OW32499   5.936   6.484   1.804
10560SOL    HW132500   6.012   6.528   1.852
10560SOL    HW232501   5.971   6.437   1.722
10561SOL     OW32502   6.889   6.424   0.042
10561SOL    HW132503   6.923   6.331   0.057
10561SOL    HW232504   6.907   6.451  -0.053
10562SOL     OW32505   5.905   6.396   0.949
10562SOL    HW132506   5.998   6.432   0.954
10562SOL    HW232507   5.899   6.311   1.001
10563SOL     OW32508   5.925   6.095   1.006
10563SOL    HW132509   5.873   6.012   0.989
10563SOL    HW232510   6.002   6.100   0.942
10564SOL     OW32511   6.724   5.966   1.678
10564SOL    HW132512   6.679   6.029   1.742
10564SOL    HW232513   6.817   5.997   1.661
10565SOL     OW32514   6.746   5.793   1.477
10565SOL    HW132515   6.746   5.857   1.554
10565SOL    HW232516   6.774   5.841   1.394
10566SOL     OW32517   6.588   6.382   1.238
10566SOL    HW132518   6.629   6.350   1.324
10566SOL    HW232519   6.492   6.355   1.235
10567SOL     OW32520   5.626   6.130   1.114
10567SOL    HW132521   5.711   6.097   1.073
10567SOL    HW232522   5.639   6.145   1.212
10568SOL     OW32523   5.775   6.106   1.722
10568SOL    HW132524   5.834   6.066   1.652
10568SOL    HW232525   5.717   6.177   1.681
10569SOL     OW32526   6.401   6.158   0.325
10569SOL    HW132527   6.408   6.069   0.279
10569SOL    HW232528   6.307   6.192   0.317
10570SOL     OW32529   6.257   6.050   1.269
10570SOL    HW132530   6.223   5.961   1.239
10570SOL    HW232531   6.283   6.104   1.189
10571SOL     OW32532   6.059   6.086   0.191
10571SOL    HW132533   6.120   6.166   0.195
10571SOL    HW232534   5.964   6.117   0.198
10572SOL     OW32535   5.745   6.723   1.466
10572SOL    HW132536   5.767   6.662   1.542
10572SOL    HW232537   5.755   6.674   1.380
10573SOL     OW32538   6.933   6.645   1.234
10573SOL    HW132539   6.957   6.582   1.160
10573SOL    HW232540   6.843   6.685   1.216
10574SOL     OW32541   6.888   6.441   0.309
10574SOL    HW132542   6.802   6.410   0.351
10574SOL    HW232543   6.884   6.427   0.210
10575SOL     OW32544   5.669   6.844   1.022
10575SOL    HW132545   5.664   6.843   1.122
10575SOL    HW232546   5.586   6.803   0.984
10576SOL     OW32547   6.489   5.672   0.133
10576SOL    HW132548   6.540   5.673   0.047
10576SOL    HW232549   6.545   5.630   0.204
10577SOL     OW32550   6.866   6.513   0.672
10577SOL    HW132551   6.926   6.432   0.674
10577SOL    HW232552   6.906   6.582   0.612
10578SOL     OW32553   6.416   6.859   1.422
10578SOL    HW132554   6.411   6.892   1.517
10578SOL    HW232555   6.330   6.878   1.376
10579SOL     OW32556   5.849   5.912   0.720
10579SOL    HW132557   5.770   5.963   0.686
10579SOL    HW232558   5.840   5.897   0.818
10580SOL     OW32559   6.408   6.588   1.372
10580SOL    HW132560   6.448   6.587   1.280
10580SOL    HW232561   6.418   6.680   1.412
10581SOL     OW32562   6.502   6.496   0.291
10581SOL    HW132563   6.565   6.534   0.223
10581SOL    HW232564   6.542   6.413   0.330
10582SOL     OW32565   5.958   6.874   1.490
10582SOL    HW132566   5.945   6.967   1.456
10582SOL    HW232567   5.874   6.822   1.477
10583SOL     OW32568   6.625   6.684   0.696
10583SOL    HW132569   6.555   6.637   0.750
10583SOL    HW232570   6.684   6.616   0.653
10584SOL     OW32571   6.600   5.822   0.971
10584SOL    HW132572   6.592   5.786   0.878
10584SOL    HW232573   6.598   5.746   1.036
10585SOL     OW32574   5.691   6.599   1.726
10585SOL    HW132575   5.614   6.566   1.780
10585SOL    HW232576   5.776   6.569   1.768
10586SOL     OW32577   6.258   5.789   1.489
10586SOL    HW132578   6.348   5.773   1.449
10586SOL    HW232579   6.266   5.794   1.588
10587SOL     OW32580   5.661   5.931   0.033
10587SOL    HW132581   5.569   5.903   0.004
10587SOL    HW232582   5.692   6.008  -0.023
10588SOL     OW32583   5.658   5.752   0.318
10588SOL    HW132584   5.641   5.835   0.264
10588SOL    HW232585   5.748   5.715   0.296
10589SOL     OW32586   6.199   6.428   1.431
10589SOL    HW132587   6.255   6.509   1.414
10589SOL    HW232588   6.258   6.348   1.434
10590SOL     OW32589   6.302   6.151   1.708
10590SOL    HW132590   6.321   6.216   1.782
10590SOL    HW232591   6.362   6.071   1.717
10591SOL     OW32592   7.036   6.806   1.633
10591SOL    HW132593   7.027   6.796   1.732
10591SOL    HW232594   7.132   6.799   1.607
10592SOL     OW32595   6.811   5.911   0.449
10592SOL    HW132596   6.876   5.837   0.438
10592SOL    HW232597   6.831   5.961   0.533
10593SOL     OW32598   6.180   6.331   0.652
10593SOL    HW132599   6.230   6.416   0.633
10593SOL    HW232600   6.092   6.333   0.604
10594SOL     OW32601   6.445   6.542   0.861
10594SOL    HW132602   6.499   6.473   0.909
10594SOL    HW232603   6.413   6.611   0.927
10595SOL     OW32604   6.669   6.570   0.087
10595SOL    HW132605   6.646   6.623   0.005
10595SOL    HW232606   6.750   6.514   0.068
10596SOL     OW32607   5.807   6.900   1.844
10596SOL    HW132608   5.742   6.827   1.823
10596SOL    HW232609   5.811   6.914   1.942
10597SOL     OW32610   5.665   6.826   0.653
10597SOL    HW132611   5.664   6.779   0.741
10597SOL    HW232612   5.747   6.798   0.602
10598SOL     OW32613   6.258   6.977   1.624
10598SOL    HW132614   6.180   6.927   1.662
10598SOL    HW232615   6.255   7.072   1.655
10599SOL     OW32616   6.014   6.010   0.520
10599SOL    HW132617   6.044   5.938   0.458
10599SOL    HW232618   5.975   5.970   0.603
10600SOL     OW32619   5.903   6.133   1.280
10600SOL    HW132620   5.941   6.074   1.352
10600SOL    HW232621   5.943   6.107   1.192
10601SOL     OW32622   7.010   5.800   1.112
10601SOL    HW132623   7.062   5.735   1.167
10601SOL    HW232624   6.961   5.863   1.173
10602SOL     OW32625   6.587   5.620   1.154
10602SOL    HW132626   6.524   5.548   1.123
10602SOL    HW232627   6.680   5.584   1.154
10603SOL     OW32628   6.356   6.916   0.301
10603SOL    HW132629   6.310   6.829   0.318
10603SOL    HW232630   6.447   6.913   0.342
10604SOL     OW32631   5.625   6.663   0.300
10604SOL    HW132632   5.724   6.652   0.291
10604SOL    HW232633   5.585   6.577   0.332
10605SOL     OW32634   5.816   6.214   1.975
10605SOL    HW132635   5.723   6.212   2.012
10605SOL    HW232636   5.817   6.175   1.883
10606SOL     OW32637   5.811   5.861   2.858
10606SOL    HW132638   5.846   5.844   2.950
10606SOL    HW232639   5.723   5.816   2.846
10607SOL     OW32640   5.605   5.954   2.509
10607SOL    HW132641   5.523   5.997   2.548
10607SOL    HW232642   5.577   5.881   2.446
10608SOL     OW32643   6.155   6.861   3.027
10608SOL    HW132644   6.062   6.854   2.990
10608SOL    HW232645   6.166   6.950   3.071
10609SOL     OW32646   7.141   7.097   2.565
10609SOL    HW132647   7.084   7.081   2.646
10609SOL    HW232648   7.082   7.107   2.485
10610SOL     OW32649   6.721   6.289   2.579
10610SOL    HW132650   6.778   6.367   2.554
10610SOL    HW232651   6.661   6.315   2.655
10611SOL     OW32652   6.354   6.730   2.885
10611SOL    HW132653   6.276   6.747   2.945
10611SOL    HW232654   6.388   6.817   2.849
10612SOL     OW32655   6.436   6.384   3.685
10612SOL    HW132656   6.432   6.460   3.750
10612SOL    HW232657   6.458   6.420   3.594
10613SOL     OW32658   6.271   6.598   2.527
10613SOL    HW132659   6.340   6.582   2.597
10613SOL    HW232660   6.198   6.655   2.565
10614SOL     OW32661   6.272   6.747   3.665
10614SOL    HW132662   6.332   6.826   3.679
10614SOL    HW232663   6.186   6.778   3.624
10615SOL     OW32664   5.921   7.021   2.923
10615SOL    HW132665   5.843   6.990   2.870
10615SOL    HW232666   5.979   7.079   2.866
10616SOL     OW32667   6.024   5.978   3.361
10616SOL    HW132668   6.106   5.922   3.370
10616SOL    HW232669   5.943   5.920   3.365
10617SOL     OW32670   5.826   6.677   2.748
10617SOL    HW132671   5.840   6.593   2.800
10617SOL    HW232672   5.771   6.741   2.803
10618SOL     OW32673   6.192   6.550   1.985
10618SOL    HW132674   6.199   6.634   1.931
10618SOL    HW232675   6.238   6.563   2.073
10619SOL     OW32676   5.708   6.229   2.425
10619SOL    HW132677   5.663   6.141   2.442
10619SOL    HW232678   5.707   6.283   2.509
10620SOL     OW32679   5.699   6.323   3.459
10620SOL    HW132680   5.787   6.310   3.504
10620SOL    HW232681   5.686   6.420   3.437
10621SOL     OW32682   6.879   6.814   3.285
10621SOL    HW132683   6.916   6.741   3.227
10621SOL    HW232684   6.931   6.819   3.370
10622SOL     OW32685   6.395   5.590   2.364
10622SOL    HW132686   6.435   5.681   2.355
10622SOL    HW232687   6.295   5.598   2.370
10623SOL     OW32688   5.783   6.562   3.126
10623SOL    HW132689   5.872   6.517   3.112
10623SOL    HW232690   5.710   6.497   3.107
10624SOL     OW32691   5.903   5.837   3.663
10624SOL    HW132692   5.974   5.908   3.669
10624SOL    HW232693   5.815   5.876   3.691
10625SOL     OW32694   6.184   6.315   2.132
10625SOL    HW132695   6.208   6.384   2.064
10625SOL    HW232696   6.106   6.348   2.186
10626SOL     OW32697   6.867   5.931   2.806
10626SOL    HW132698   6.781   5.881   2.793
10626SOL    HW232699   6.929   5.877   2.862
10627SOL     OW32700   6.393   6.191   3.327
10627SOL    HW132701   6.346   6.188   3.416
10627SOL    HW232702   6.342   6.136   3.261
10628SOL     OW32703   6.980   6.055   3.536
10628SOL    HW132704   6.960   6.098   3.624
10628SOL    HW232705   7.058   5.993   3.545
10629SOL     OW32706   6.559   6.476   3.434
10629SOL    HW132707   6.605   6.392   3.405
10629SOL    HW232708   6.503   6.510   3.359
10630SOL     OW32709   6.577   5.996   3.104
10630SOL    HW132710   6.500   6.030   3.158
10630SOL    HW232711   6.543   5.945   3.025
10631SOL     OW32712   6.627   6.287   2.291
10631SOL    HW132713   6.653   6.283   2.387
10631SOL    HW232714   6.542   6.236   2.277
10632SOL     OW32715   5.662   6.397   2.651
10632SOL    HW132716   5.761   6.385   2.660
10632SOL    HW232717   5.638   6.492   2.672
10633SOL     OW32718   6.451   5.934   2.057
10633SOL    HW132719   6.510   5.997   2.008
10633SOL    HW232720   6.470   5.840   2.028
10634SOL     OW32721   6.948   6.730   2.407
10634SOL    HW132722   7.031   6.701   2.359
10634SOL    HW232723   6.899   6.797   2.351
10635SOL     OW32724   6.136   5.782   2.747
10635SOL    HW132725   6.131   5.777   2.847
10635SOL    HW232726   6.138   5.878   2.718
10636SOL     OW32727   5.907   6.529   2.104
10636SOL    HW132728   5.989   6.568   2.062
10636SOL    HW232729   5.880   6.447   2.055
10637SOL     OW32730   5.788   5.871   3.360
10637SOL    HW132731   5.708   5.931   3.347
10637SOL    HW232732   5.778   5.822   3.446
10638SOL     OW32733   5.968   6.286   2.342
10638SOL    HW132734   6.013   6.196   2.339
10638SOL    HW232735   5.874   6.275   2.375
10639SOL     OW32736   6.200   5.708   1.979
10639SOL    HW132737   6.298   5.686   1.986
10639SOL    HW232738   6.169   5.691   1.886
10640SOL     OW32739   6.367   5.850   3.611
10640SOL    HW132740   6.434   5.789   3.654
10640SOL    HW232741   6.294   5.869   3.676
10641SOL     OW32742   6.508   6.089   2.761
10641SOL    HW132743   6.483   6.080   2.665
10641SOL    HW232744   6.556   6.007   2.792
10642SOL     OW32745   6.125   5.650   2.374
10642SOL    HW132746   6.044   5.651   2.432
10642SOL    HW232747   6.128   5.733   2.319
10643SOL     OW32748   7.020   6.774   1.903
10643SOL    HW132749   7.052   6.698   1.960
10643SOL    HW232750   6.928   6.801   1.933
10644SOL     OW32751   5.883   5.621   2.033
10644SOL    HW132752   5.932   5.705   2.012
10644SOL    HW232753   5.945   5.556   2.078
10645SOL     OW32754   6.521   5.822   2.342
10645SOL    HW132755   6.473   5.863   2.264
10645SOL    HW232756   6.620   5.820   2.323
10646SOL     OW32757   6.662   6.269   3.326
10646SOL    HW132758   6.582   6.208   3.329
10646SOL    HW232759   6.743   6.216   3.302
10647SOL     OW32760   6.813   7.156   2.655
10647SOL    HW132761   6.834   7.230   2.590
10647SOL    HW232762   6.881   7.156   2.728
10648SOL     OW32763   6.045   6.738   2.603
10648SOL    HW132764   5.974   6.711   2.668
10648SOL    HW232765   6.019   6.710   2.510
10649SOL     OW32766   6.618   6.135   1.878
10649SOL    HW132767   6.577   6.217   1.839
10649SOL    HW232768   6.682   6.161   1.951
10650SOL     OW32769   5.664   6.142   3.248
10650SOL    HW132770   5.756   6.141   3.207
10650SOL    HW232771   5.658   6.216   3.315
10651SOL     OW32772   6.147   5.808   3.009
10651SOL    HW132773   6.185   5.724   3.046
10651SOL    HW232774   6.059   5.827   3.053
10652SOL     OW32775   6.452   6.040   2.504
10652SOL    HW132776   6.420   6.112   2.442
10652SOL    HW232777   6.476   5.959   2.451
10653SOL     OW32778   6.603   5.625   2.615
10653SOL    HW132779   6.531   5.630   2.546
10653SOL    HW232780   6.579   5.556   2.684
10654SOL     OW32781   6.113   5.842   2.190
10654SOL    HW132782   6.140   5.783   2.115
10654SOL    HW232783   6.113   5.937   2.159
10655SOL     OW32784   6.650   6.933   3.202
10655SOL    HW132785   6.570   6.910   3.257
10655SOL    HW232786   6.733   6.907   3.251
10656SOL     OW32787   6.697   6.781   2.962
10656SOL    HW132788   6.657   6.825   3.043
10656SOL    HW232789   6.656   6.818   2.879
10657SOL     OW32790   6.501   5.675   3.264
10657SOL    HW132791   6.526   5.655   3.169
10657SOL    HW232792   6.573   5.731   3.306
10658SOL     OW32793   6.566   6.702   3.581
10658SOL    HW132794   6.467   6.708   3.591
10658SOL    HW232795   6.589   6.622   3.525
10659SOL     OW32796   6.291   6.636   2.230
10659SOL    HW132797   6.277   6.643   2.329
10659SOL    HW232798   6.375   6.585   2.212
10660SOL     OW32799   5.996   6.399   3.113
10660SOL    HW132800   6.082   6.411   3.163
10660SOL    HW232801   5.954   6.312   3.140
10661SOL     OW32802   6.860   5.972   3.124
10661SOL    HW132803   6.881   6.046   3.188
10661SOL    HW232804   6.771   5.989   3.081
10662SOL     OW32805   5.953   6.686   2.363
10662SOL    HW132806   5.946   6.769   2.307
10662SOL    HW232807   5.957   6.606   2.303
10663SOL     OW32808   6.152   6.123   2.727
10663SOL    HW132809   6.164   6.189   2.653
10663SOL    HW232810   6.198   6.157   2.810
10664SOL     OW32811   6.838   6.934   2.250
10664SOL    HW132812   6.888   7.011   2.290
10664SOL    HW232813   6.743   6.936   2.282
10665SOL     OW32814   5.988   6.337   3.460
10665SOL    HW132815   6.056   6.392   3.413
10665SOL    HW232816   6.028   6.249   3.487
10666SOL     OW32817   6.599   5.691   3.632
10666SOL    HW132818   6.605   5.776   3.580
10666SOL    HW232819   6.631   5.615   3.575
10667SOL     OW32820   6.090   5.636   3.602
10667SOL    HW132821   6.048   5.579   3.532
10667SOL    HW232822   6.024   5.705   3.634
10668SOL     OW32823   6.159   6.456   2.891
10668SOL    HW132824   6.203   6.545   2.882
10668SOL    HW232825   6.096   6.456   2.968
10669SOL     OW32826   6.946   6.448   2.907
10669SOL    HW132827   6.871   6.448   2.841
10669SOL    HW232828   6.983   6.356   2.916
10670SOL     OW32829   6.795   6.111   2.137
10670SOL    HW132830   6.808   6.027   2.191
10670SOL    HW232831   6.766   6.185   2.197
10671SOL     OW32832   5.893   5.799   3.093
10671SOL    HW132833   5.870   5.836   3.183
10671SOL    HW232834   5.863   5.704   3.087
10672SOL     OW32835   5.623   6.896   3.144
10672SOL    HW132836   5.676   6.847   3.212
10672SOL    HW232837   5.645   6.994   3.149
10673SOL     OW32838   6.318   6.220   2.926
10673SOL    HW132839   6.377   6.194   2.850
10673SOL    HW232840   6.290   6.316   2.915
10674SOL     OW32841   5.893   5.649   2.480
10674SOL    HW132842   5.882   5.743   2.513
10674SOL    HW232843   5.888   5.586   2.557
10675SOL     OW32844   7.208   5.953   2.236
10675SOL    HW132845   7.210   5.877   2.300
10675SOL    HW232846   7.160   6.030   2.276
10676SOL     OW32847   6.609   6.352   2.828
10676SOL    HW132848   6.624   6.373   2.924
10676SOL    HW232849   6.579   6.257   2.819
10677SOL     OW32850   5.936   6.484   3.666
10677SOL    HW132851   6.012   6.528   3.714
10677SOL    HW232852   5.971   6.437   3.584
10678SOL     OW32853   6.889   6.424   1.904
10678SOL    HW132854   6.923   6.331   1.919
10678SOL    HW232855   6.907   6.451   1.809
10679SOL     OW32856   5.905   6.396   2.811
10679SOL    HW132857   5.998   6.432   2.816
10679SOL    HW232858   5.899   6.311   2.863
10680SOL     OW32859   5.925   6.095   2.868
10680SOL    HW132860   5.873   6.012   2.851
10680SOL    HW232861   6.002   6.100   2.804
10681SOL     OW32862   6.724   5.966   3.540
10681SOL    HW132863   6.679   6.029   3.604
10681SOL    HW232864   6.817   5.997   3.523
10682SOL     OW32865   6.746   5.793   3.339
10682SOL    HW132866   6.746   5.857   3.416
10682SOL    HW232867   6.774   5.841   3.256
10683SOL     OW32868   5.594   6.912   2.062
10683SOL    HW132869   5.501   6.933   2.031
10683SOL    HW232870   5.604   6.813   2.075
10684SOL     OW32871   6.588   6.382   3.100
10684SOL    HW132872   6.629   6.350   3.186
10684SOL    HW232873   6.492   6.355   3.097
10685SOL     OW32874   5.626   6.130   2.976
10685SOL    HW132875   5.711   6.097   2.935
10685SOL    HW232876   5.639   6.145   3.074
10686SOL     OW32877   5.775   6.106   3.584
10686SOL    HW132878   5.834   6.066   3.514
10686SOL    HW232879   5.717   6.177   3.543
10687SOL     OW32880   6.401   6.158   2.187
10687SOL    HW132881   6.408   6.069   2.141
10687SOL    HW232882   6.307   6.192   2.179
10688SOL     OW32883   6.257   6.050   3.131
10688SOL    HW132884   6.223   5.961   3.101
10688SOL    HW232885   6.283   6.104   3.051
10689SOL     OW32886   6.059   6.086   2.053
10689SOL    HW132887   6.120   6.166   2.057
10689SOL    HW232888   5.964   6.117   2.060
10690SOL     OW32889   5.745   6.723   3.328
10690SOL    HW132890   5.767   6.662   3.404
10690SOL    HW232891   5.755   6.674   3.242
10691SOL     OW32892   6.933   6.645   3.096
10691SOL    HW132893   6.957   6.582   3.022
10691SOL    HW232894   6.843   6.685   3.078
10692SOL     OW32895   6.888   6.441   2.171
10692SOL    HW132896   6.802   6.410   2.213
10692SOL    HW232897   6.884   6.427   2.072
10693SOL     OW32898   5.669   6.844   2.884
10693SOL    HW132899   5.664   6.843   2.984
10693SOL    HW232900   5.586   6.803   2.846
10694SOL     OW32901   6.866   6.513   2.534
10694SOL    HW132902   6.926   6.432   2.536
10694SOL    HW232903   6.906   6.582   2.474
10695SOL     OW32904   6.416   6.859   3.284
10695SOL    HW132905   6.411   6.892   3.379
10695SOL    HW232906   6.330   6.878   3.238
10696SOL     OW32907   5.849   5.912   2.582
10696SOL    HW132908   5.770   5.963   2.548
10696SOL    HW232909   5.840   5.897   2.680
10697SOL     OW32910   6.780   7.198   1.893
10697SOL    HW132911   6.786   7.105   1.930
10697SOL    HW232912   6.721   7.198   1.813
10698SOL     OW32913   6.408   6.588   3.234
10698SOL    HW132914   6.448   6.587   3.142
10698SOL    HW232915   6.418   6.680   3.274
10699SOL     OW32916   6.502   6.496   2.153
10699SOL    HW132917   6.565   6.534   2.085
10699SOL    HW232918   6.542   6.413   2.192
10700SOL     OW32919   5.958   6.874   3.352
10700SOL    HW132920   5.945   6.967   3.318
10700SOL    HW232921   5.874   6.822   3.339
10701SOL     OW32922   6.625   6.684   2.558
10701SOL    HW132923   6.555   6.637   2.612
10701SOL    HW232924   6.684   6.616   2.515
10702SOL     OW32925   6.600   5.822   2.833
10702SOL    HW132926   6.592   5.786   2.740
10702SOL    HW232927   6.598   5.746   2.898
10703SOL     OW32928   5.691   6.599   3.588
10703SOL    HW132929   5.614   6.566   3.642
10703SOL    HW232930   5.776   6.569   3.630
10704SOL     OW32931   6.258   5.789   3.351
10704SOL    HW132932   6.348   5.773   3.311
10704SOL    HW232933   6.266   5.794   3.450
10705SOL     OW32934   5.661   5.931   1.895
10705SOL    HW132935   5.569   5.903   1.866
10705SOL    HW232936   5.692   6.008   1.839
10706SOL     OW32937   5.658   5.752   2.180
10706SOL    HW132938   5.641   5.835   2.126
10706SOL    HW232939   5.748   5.715   2.158
10707SOL     OW32940   6.199   6.428   3.293
10707SOL    HW132941   6.255   6.509   3.276
10707SOL    HW232942   6.258   6.348   3.296
10708SOL     OW32943   6.302   6.151   3.570
10708SOL    HW132944   6.321   6.216   3.644
10708SOL    HW232945   6.362   6.071   3.579
10709SOL     OW32946   7.036   6.806   3.495
10709SOL    HW132947   7.027   6.796   3.594
10709SOL    HW232948   7.132   6.799   3.469
10710SOL     OW32949   6.811   5.911   2.311
10710SOL    HW132950   6.876   5.837   2.300
10710SOL    HW232951   6.831   5.961   2.395
10711SOL     OW32952   6.180   6.331   2.514
10711SOL    HW132953   6.230   6.416   2.495
10711SOL    HW232954   6.092   6.333   2.466
10712SOL     OW32955   6.445   6.542   2.723
10712SOL    HW132956   6.499   6.473   2.771
10712SOL    HW232957   6.413   6.611   2.789
10713SOL     OW32958   6.669   6.570   1.949
10713SOL    HW132959   6.646   6.623   1.867
10713SOL    HW232960   6.750   6.514   1.930
10714SOL     OW32961   5.807   6.900   3.706
10714SOL    HW132962   5.742   6.827   3.685
10714SOL    HW232963   5.811   6.914   3.804
10715SOL     OW32964   5.665   6.826   2.515
10715SOL    HW132965   5.664   6.779   2.603
10715SOL    HW232966   5.747   6.798   2.464
10716SOL     OW32967   6.258   6.977   3.486
10716SOL    HW132968   6.180   6.927   3.524
10716SOL    HW232969   6.255   7.072   3.517
10717SOL     OW32970   6.014   6.010   2.382
10717SOL    HW132971   6.044   5.938   2.320
10717SOL    HW232972   5.975   5.970   2.465
10718SOL     OW32973   5.903   6.133   3.142
10718SOL    HW132974   5.941   6.074   3.214
10718SOL    HW232975   5.943   6.107   3.054
10719SOL     OW32976   7.010   5.800   2.974
10719SOL    HW132977   7.062   5.735   3.029
10719SOL    HW232978   6.961   5.863   3.035
10720SOL     OW32979   6.587   5.620   3.016
10720SOL    HW132980   6.524   5.548   2.985
10720SOL    HW232981   6.680   5.584   3.016
10721SOL     OW32982   6.356   6.916   2.163
10721SOL    HW132983   6.310   6.829   2.180
10721SOL    HW232984   6.447   6.913   2.204
10722SOL     OW32985   6.938   5.638   2.030
10722SOL    HW132986   6.973   5.597   1.946
10722SOL    HW232987   6.848   5.600   2.050
10723SOL     OW32988   5.625   6.663   2.162
10723SOL    HW132989   5.724   6.652   2.153
10723SOL    HW232990   5.585   6.577   2.194
10724SOL     OW32991   5.816   6.214   3.837
10724SOL    HW132992   5.723   6.212   3.874
10724SOL    HW232993   5.817   6.175   3.745
10725SOL     OW32994   5.811   5.861   4.720
10725SOL    HW132995   5.846   5.844   4.812
10725SOL    HW232996   5.723   5.816   4.708
10726SOL     OW32997   5.605   5.954   4.371
10726SOL    HW132998   5.523   5.997   4.410
10726SOL    HW232999   5.577   5.881   4.308
10727SOL     OW33000   6.155   6.861   4.889
10727SOL    HW133001   6.062   6.854   4.852
10727SOL    HW233002   6.166   6.950   4.933
10728SOL     OW33003   7.141   7.097   4.427
10728SOL    HW133004   7.084   7.081   4.508
10728SOL    HW233005   7.082   7.107   4.347
10729SOL     OW33006   6.721   6.289   4.441
10729SOL    HW133007   6.778   6.367   4.416
10729SOL    HW233008   6.661   6.315   4.517
10730SOL     OW33009   6.354   6.730   4.747
10730SOL    HW133010   6.276   6.747   4.807
10730SOL    HW233011   6.388   6.817   4.711
10731SOL     OW33012   6.436   6.384   5.547
10731SOL    HW133013   6.432   6.460   5.612
10731SOL    HW233014   6.458   6.420   5.456
10732SOL     OW33015   6.271   6.598   4.389
10732SOL    HW133016   6.340   6.582   4.459
10732SOL    HW233017   6.198   6.655   4.427
10733SOL     OW33018   6.272   6.747   5.527
10733SOL    HW133019   6.332   6.826   5.541
10733SOL    HW233020   6.186   6.778   5.486
10734SOL     OW33021   5.921   7.021   4.785
10734SOL    HW133022   5.843   6.990   4.732
10734SOL    HW233023   5.979   7.079   4.728
10735SOL     OW33024   6.024   5.978   5.223
10735SOL    HW133025   6.106   5.922   5.232
10735SOL    HW233026   5.943   5.920   5.227
10736SOL     OW33027   5.826   6.677   4.610
10736SOL    HW133028   5.840   6.593   4.662
10736SOL    HW233029   5.771   6.741   4.665
10737SOL     OW33030   6.192   6.550   3.847
10737SOL    HW133031   6.199   6.634   3.793
10737SOL    HW233032   6.238   6.563   3.935
10738SOL     OW33033   5.708   6.229   4.287
10738SOL    HW133034   5.663   6.141   4.304
10738SOL    HW233035   5.707   6.283   4.371
10739SOL     OW33036   5.699   6.323   5.321
10739SOL    HW133037   5.787   6.310   5.366
10739SOL    HW233038   5.686   6.420   5.299
10740SOL     OW33039   6.879   6.814   5.147
10740SOL    HW133040   6.916   6.741   5.089
10740SOL    HW233041   6.931   6.819   5.232
10741SOL     OW33042   6.395   5.590   4.226
10741SOL    HW133043   6.435   5.681   4.217
10741SOL    HW233044   6.295   5.598   4.232
10742SOL     OW33045   5.783   6.562   4.988
10742SOL    HW133046   5.872   6.517   4.974
10742SOL    HW233047   5.710   6.497   4.969
10743SOL     OW33048   5.903   5.837   5.525
10743SOL    HW133049   5.974   5.908   5.531
10743SOL    HW233050   5.815   5.876   5.553
10744SOL     OW33051   6.184   6.315   3.994
10744SOL    HW133052   6.208   6.384   3.926
10744SOL    HW233053   6.106   6.348   4.048
10745SOL     OW33054   6.867   5.931   4.668
10745SOL    HW133055   6.781   5.881   4.655
10745SOL    HW233056   6.929   5.877   4.724
10746SOL     OW33057   6.393   6.191   5.189
10746SOL    HW133058   6.346   6.188   5.278
10746SOL    HW233059   6.342   6.136   5.123
10747SOL     OW33060   6.980   6.055   5.398
10747SOL    HW133061   6.960   6.098   5.486
10747SOL    HW233062   7.058   5.993   5.407
10748SOL     OW33063   6.559   6.476   5.296
10748SOL    HW133064   6.605   6.392   5.267
10748SOL    HW233065   6.503   6.510   5.221
10749SOL     OW33066   6.577   5.996   4.966
10749SOL    HW133067   6.500   6.030   5.020
10749SOL    HW233068   6.543   5.945   4.887
10750SOL     OW33069   6.627   6.287   4.153
10750SOL    HW133070   6.653   6.283   4.249
10750SOL    HW233071   6.542   6.236   4.139
10751SOL     OW33072   5.662   6.397   4.513
10751SOL    HW133073   5.761   6.385   4.522
10751SOL    HW233074   5.638   6.492   4.534
10752SOL     OW33075   6.451   5.934   3.919
10752SOL    HW133076   6.510   5.997   3.870
10752SOL    HW233077   6.470   5.840   3.890
10753SOL     OW33078   6.948   6.730   4.269
10753SOL    HW133079   7.031   6.701   4.221
10753SOL    HW233080   6.899   6.797   4.213
10754SOL     OW33081   6.136   5.782   4.609
10754SOL    HW133082   6.131   5.777   4.709
10754SOL    HW233083   6.138   5.878   4.580
10755SOL     OW33084   5.907   6.529   3.966
10755SOL    HW133085   5.989   6.568   3.924
10755SOL    HW233086   5.880   6.447   3.917
10756SOL     OW33087   5.788   5.871   5.222
10756SOL    HW133088   5.708   5.931   5.209
10756SOL    HW233089   5.778   5.822   5.308
10757SOL     OW33090   5.968   6.286   4.204
10757SOL    HW133091   6.013   6.196   4.201
10757SOL    HW233092   5.874   6.275   4.237
10758SOL     OW33093   6.200   5.708   3.841
10758SOL    HW133094   6.298   5.686   3.848
10758SOL    HW233095   6.169   5.691   3.748
10759SOL     OW33096   6.367   5.850   5.473
10759SOL    HW133097   6.434   5.789   5.516
10759SOL    HW233098   6.294   5.869   5.538
10760SOL     OW33099   6.508   6.089   4.623
10760SOL    HW133100   6.483   6.080   4.527
10760SOL    HW233101   6.556   6.007   4.654
10761SOL     OW33102   6.125   5.650   4.236
10761SOL    HW133103   6.044   5.651   4.294
10761SOL    HW233104   6.128   5.733   4.181
10762SOL     OW33105   7.020   6.774   3.765
10762SOL    HW133106   7.052   6.698   3.822
10762SOL    HW233107   6.928   6.801   3.795
10763SOL     OW33108   5.883   5.621   3.895
10763SOL    HW133109   5.932   5.705   3.874
10763SOL    HW233110   5.945   5.556   3.940
10764SOL     OW33111   6.521   5.822   4.204
10764SOL    HW133112   6.473   5.863   4.126
10764SOL    HW233113   6.620   5.820   4.185
10765SOL     OW33114   6.662   6.269   5.188
10765SOL    HW133115   6.582   6.208   5.191
10765SOL    HW233116   6.743   6.216   5.164
10766SOL     OW33117   6.813   7.156   4.517
10766SOL    HW133118   6.834   7.230   4.452
10766SOL    HW233119   6.881   7.156   4.590
10767SOL     OW33120   6.045   6.738   4.465
10767SOL    HW133121   5.974   6.711   4.530
10767SOL    HW233122   6.019   6.710   4.372
10768SOL     OW33123   6.618   6.135   3.740
10768SOL    HW133124   6.577   6.217   3.701
10768SOL    HW233125   6.682   6.161   3.813
10769SOL     OW33126   5.664   6.142   5.110
10769SOL    HW133127   5.756   6.141   5.069
10769SOL    HW233128   5.658   6.216   5.177
10770SOL     OW33129   6.147   5.808   4.871
10770SOL    HW133130   6.185   5.724   4.908
10770SOL    HW233131   6.059   5.827   4.915
10771SOL     OW33132   6.452   6.040   4.366
10771SOL    HW133133   6.420   6.112   4.304
10771SOL    HW233134   6.476   5.959   4.313
10772SOL     OW33135   6.603   5.625   4.477
10772SOL    HW133136   6.531   5.630   4.408
10772SOL    HW233137   6.579   5.556   4.546
10773SOL     OW33138   6.113   5.842   4.052
10773SOL    HW133139   6.140   5.783   3.977
10773SOL    HW233140   6.113   5.937   4.021
10774SOL     OW33141   6.650   6.933   5.064
10774SOL    HW133142   6.570   6.910   5.119
10774SOL    HW233143   6.733   6.907   5.113
10775SOL     OW33144   6.697   6.781   4.824
10775SOL    HW133145   6.657   6.825   4.905
10775SOL    HW233146   6.656   6.818   4.741
10776SOL     OW33147   6.501   5.675   5.126
10776SOL    HW133148   6.526   5.655   5.031
10776SOL    HW233149   6.573   5.731   5.168
10777SOL     OW33150   6.566   6.702   5.443
10777SOL    HW133151   6.467   6.708   5.453
10777SOL    HW233152   6.589   6.622   5.387
10778SOL     OW33153   6.291   6.636   4.092
10778SOL    HW133154   6.277   6.643   4.191
10778SOL    HW233155   6.375   6.585   4.074
10779SOL     OW33156   5.996   6.399   4.975
10779SOL    HW133157   6.082   6.411   5.025
10779SOL    HW233158   5.954   6.312   5.002
10780SOL     OW33159   6.860   5.972   4.986
10780SOL    HW133160   6.881   6.046   5.050
10780SOL    HW233161   6.771   5.989   4.943
10781SOL     OW33162   5.953   6.686   4.225
10781SOL    HW133163   5.946   6.769   4.169
10781SOL    HW233164   5.957   6.606   4.165
10782SOL     OW33165   6.152   6.123   4.589
10782SOL    HW133166   6.164   6.189   4.515
10782SOL    HW233167   6.198   6.157   4.672
10783SOL     OW33168   6.838   6.934   4.112
10783SOL    HW133169   6.888   7.011   4.152
10783SOL    HW233170   6.743   6.936   4.144
10784SOL     OW33171   5.988   6.337   5.322
10784SOL    HW133172   6.056   6.392   5.275
10784SOL    HW233173   6.028   6.249   5.349
10785SOL     OW33174   6.599   5.691   5.494
10785SOL    HW133175   6.605   5.776   5.442
10785SOL    HW233176   6.631   5.615   5.437
10786SOL     OW33177   6.090   5.636   5.464
10786SOL    HW133178   6.048   5.579   5.394
10786SOL    HW233179   6.024   5.705   5.496
10787SOL     OW33180   6.159   6.456   4.753
10787SOL    HW133181   6.203   6.545   4.744
10787SOL    HW233182   6.096   6.456   4.830
10788SOL     OW33183   6.946   6.448   4.769
10788SOL    HW133184   6.871   6.448   4.703
10788SOL    HW233185   6.983   6.356   4.778
10789SOL     OW33186   6.795   6.111   3.999
10789SOL    HW133187   6.808   6.027   4.053
10789SOL    HW233188   6.766   6.185   4.059
10790SOL     OW33189   5.893   5.799   4.955
10790SOL    HW133190   5.870   5.836   5.045
10790SOL    HW233191   5.863   5.704   4.949
10791SOL     OW33192   5.623   6.896   5.006
10791SOL    HW133193   5.676   6.847   5.074
10791SOL    HW233194   5.645   6.994   5.011
10792SOL     OW33195   6.318   6.220   4.788
10792SOL    HW133196   6.377   6.194   4.712
10792SOL    HW233197   6.290   6.316   4.777
10793SOL     OW33198   5.893   5.649   4.342
10793SOL    HW133199   5.882   5.743   4.375
10793SOL    HW233200   5.888   5.586   4.419
10794SOL     OW33201   7.208   5.953   4.098
10794SOL    HW133202   7.210   5.877   4.162
10794SOL    HW233203   7.160   6.030   4.138
10795SOL     OW33204   6.609   6.352   4.690
10795SOL    HW133205   6.624   6.373   4.786
10795SOL    HW233206   6.579   6.257   4.681
10796SOL     OW33207   5.936   6.484   5.528
10796SOL    HW133208   6.012   6.528   5.576
10796SOL    HW233209   5.971   6.437   5.446
10797SOL     OW33210   6.889   6.424   3.766
10797SOL    HW133211   6.923   6.331   3.781
10797SOL    HW233212   6.907   6.451   3.671
10798SOL     OW33213   5.905   6.396   4.673
10798SOL    HW133214   5.998   6.432   4.678
10798SOL    HW233215   5.899   6.311   4.725
10799SOL     OW33216   5.925   6.095   4.730
10799SOL    HW133217   5.873   6.012   4.713
10799SOL    HW233218   6.002   6.100   4.666
10800SOL     OW33219   6.724   5.966   5.402
10800SOL    HW133220   6.679   6.029   5.466
10800SOL    HW233221   6.817   5.997   5.385
10801SOL     OW33222   6.746   5.793   5.201
10801SOL    HW133223   6.746   5.857   5.278
10801SOL    HW233224   6.774   5.841   5.118
10802SOL     OW33225   5.594   6.912   3.924
10802SOL    HW133226   5.501   6.933   3.893
10802SOL    HW233227   5.604   6.813   3.937
10803SOL     OW33228   6.588   6.382   4.962
10803SOL    HW133229   6.629   6.350   5.048
10803SOL    HW233230   6.492   6.355   4.959
10804SOL     OW33231   5.626   6.130   4.838
10804SOL    HW133232   5.711   6.097   4.797
10804SOL    HW233233   5.639   6.145   4.936
10805SOL     OW33234   5.775   6.106   5.446
10805SOL    HW133235   5.834   6.066   5.376
10805SOL    HW233236   5.717   6.177   5.405
10806SOL     OW33237   6.401   6.158   4.049
10806SOL    HW133238   6.408   6.069   4.003
10806SOL    HW233239   6.307   6.192   4.041
10807SOL     OW33240   6.257   6.050   4.993
10807SOL    HW133241   6.223   5.961   4.963
10807SOL    HW233242   6.283   6.104   4.913
10808SOL     OW33243   6.059   6.086   3.915
10808SOL    HW133244   6.120   6.166   3.919
10808SOL    HW233245   5.964   6.117   3.922
10809SOL     OW33246   5.745   6.723   5.190
10809SOL    HW133247   5.767   6.662   5.266
10809SOL    HW233248   5.755   6.674   5.104
10810SOL     OW33249   6.933   6.645   4.958
10810SOL    HW133250   6.957   6.582   4.884
10810SOL    HW233251   6.843   6.685   4.940
10811SOL     OW33252   6.888   6.441   4.033
10811SOL    HW133253   6.802   6.410   4.075
10811SOL    HW233254   6.884   6.427   3.934
10812SOL     OW33255   5.669   6.844   4.746
10812SOL    HW133256   5.664   6.843   4.846
10812SOL    HW233257   5.586   6.803   4.708
10813SOL     OW33258   6.866   6.513   4.396
10813SOL    HW133259   6.926   6.432   4.398
10813SOL    HW233260   6.906   6.582   4.336
10814SOL     OW33261   6.416   6.859   5.146
10814SOL    HW133262   6.411   6.892   5.241
10814SOL    HW233263   6.330   6.878   5.100
10815SOL     OW33264   5.849   5.912   4.444
10815SOL    HW133265   5.770   5.963   4.410
10815SOL    HW233266   5.840   5.897   4.542
10816SOL     OW33267   6.780   7.198   3.755
10816SOL    HW133268   6.786   7.105   3.792
10816SOL    HW233269   6.721   7.198   3.675
10817SOL     OW33270   6.408   6.588   5.096
10817SOL    HW133271   6.448   6.587   5.004
10817SOL    HW233272   6.418   6.680   5.136
10818SOL     OW33273   6.502   6.496   4.015
10818SOL    HW133274   6.565   6.534   3.947
10818SOL    HW233275   6.542   6.413   4.054
10819SOL     OW33276   5.958   6.874   5.214
10819SOL    HW133277   5.945   6.967   5.180
10819SOL    HW233278   5.874   6.822   5.201
10820SOL     OW33279   6.625   6.684   4.420
10820SOL    HW133280   6.555   6.637   4.474
10820SOL    HW233281   6.684   6.616   4.377
10821SOL     OW33282   6.600   5.822   4.695
10821SOL    HW133283   6.592   5.786   4.602
10821SOL    HW233284   6.598   5.746   4.760
10822SOL     OW33285   5.691   6.599   5.450
10822SOL    HW133286   5.614   6.566   5.504
10822SOL    HW233287   5.776   6.569   5.492
10823SOL     OW33288   6.258   5.789   5.213
10823SOL    HW133289   6.348   5.773   5.173
10823SOL    HW233290   6.266   5.794   5.312
10824SOL     OW33291   5.661   5.931   3.757
10824SOL    HW133292   5.569   5.903   3.728
10824SOL    HW233293   5.692   6.008   3.701
10825SOL     OW33294   5.658   5.752   4.042
10825SOL    HW133295   5.641   5.835   3.988
10825SOL    HW233296   5.748   5.715   4.020
10826SOL     OW33297   6.199   6.428   5.155
10826SOL    HW133298   6.255   6.509   5.138
10826SOL    HW233299   6.258   6.348   5.158
10827SOL     OW33300   6.302   6.151   5.432
10827SOL    HW133301   6.321   6.216   5.506
10827SOL    HW233302   6.362   6.071   5.441
10828SOL     OW33303   7.036   6.806   5.357
10828SOL    HW133304   7.027   6.796   5.456
10828SOL    HW233305   7.132   6.799   5.331
10829SOL     OW33306   6.811   5.911   4.173
10829SOL    HW133307   6.876   5.837   4.162
10829SOL    HW233308   6.831   5.961   4.257
10830SOL     OW33309   6.180   6.331   4.376
10830SOL    HW133310   6.230   6.416   4.357
10830SOL    HW233311   6.092   6.333   4.328
10831SOL     OW33312   6.445   6.542   4.585
10831SOL    HW133313   6.499   6.473   4.633
10831SOL    HW233314   6.413   6.611   4.651
10832SOL     OW33315   6.669   6.570   3.811
10832SOL    HW133316   6.646   6.623   3.729
10832SOL    HW233317   6.750   6.514   3.792
10833SOL     OW33318   5.807   6.900   5.568
10833SOL    HW133319   5.742   6.827   5.547
10833SOL    HW233320   5.811   6.914   5.666
10834SOL     OW33321   5.665   6.826   4.377
10834SOL    HW133322   5.664   6.779   4.465
10834SOL    HW233323   5.747   6.798   4.326
10835SOL     OW33324   6.258   6.977   5.348
10835SOL    HW133325   6.180   6.927   5.386
10835SOL    HW233326   6.255   7.072   5.379
10836SOL     OW33327   6.014   6.010   4.244
10836SOL    HW133328   6.044   5.938   4.182
10836SOL    HW233329   5.975   5.970   4.327
10837SOL     OW33330   5.903   6.133   5.004
10837SOL    HW133331   5.941   6.074   5.076
10837SOL    HW233332   5.943   6.107   4.916
10838SOL     OW33333   7.010   5.800   4.836
10838SOL    HW133334   7.062   5.735   4.891
10838SOL    HW233335   6.961   5.863   4.897
10839SOL     OW33336   6.587   5.620   4.878
10839SOL    HW133337   6.524   5.548   4.847
10839SOL    HW233338   6.680   5.584   4.878
10840SOL     OW33339   6.356   6.916   4.025
10840SOL    HW133340   6.310   6.829   4.042
10840SOL    HW233341   6.447   6.913   4.066
10841SOL     OW33342   6.938   5.638   3.892
10841SOL    HW133343   6.973   5.597   3.808
10841SOL    HW233344   6.848   5.600   3.912
10842SOL     OW33345   5.625   6.663   4.024
10842SOL    HW133346   5.724   6.652   4.015
10842SOL    HW233347   5.585   6.577   4.056
10843SOL     OW33348   5.816   6.214   5.699
10843SOL    HW133349   5.723   6.212   5.736
10843SOL    HW233350   5.817   6.175   5.607
10844SOL     OW33351   5.811   5.861   6.582
10844SOL    HW133352   5.846   5.844   6.674
10844SOL    HW233353   5.723   5.816   6.570
10845SOL     OW33354   5.605   5.954   6.233
10845SOL    HW133355   5.523   5.997   6.272
10845SOL    HW233356   5.577   5.881   6.170
10846SOL     OW33357   6.155   6.861   6.751
10846SOL    HW133358   6.062   6.854   6.714
10846SOL    HW233359   6.166   6.950   6.795
10847SOL     OW33360   7.141   7.097   6.289
10847SOL    HW133361   7.084   7.081   6.370
10847SOL    HW233362   7.082   7.107   6.209
10848SOL     OW33363   6.721   6.289   6.303
10848SOL    HW133364   6.778   6.367   6.278
10848SOL    HW233365   6.661   6.315   6.379
10849SOL     OW33366   6.354   6.730   6.609
10849SOL    HW133367   6.276   6.747   6.669
10849SOL    HW233368   6.388   6.817   6.573
10850SOL     OW33369   6.271   6.598   6.251
10850SOL    HW133370   6.340   6.582   6.321
10850SOL    HW233371   6.198   6.655   6.289
10851SOL     OW33372   5.921   7.021   6.647
10851SOL    HW133373   5.843   6.990   6.594
10851SOL    HW233374   5.979   7.079   6.590
10852SOL     OW33375   5.826   6.677   6.472
10852SOL    HW133376   5.840   6.593   6.524
10852SOL    HW233377   5.771   6.741   6.527
10853SOL     OW33378   6.192   6.550   5.709
10853SOL    HW133379   6.199   6.634   5.655
10853SOL    HW233380   6.238   6.563   5.797
10854SOL     OW33381   7.180   5.700   7.066
10854SOL    HW133382   7.162   5.767   6.994
10854SOL    HW233383   7.177   5.746   7.155
10855SOL     OW33384   5.708   6.229   6.149
10855SOL    HW133385   5.663   6.141   6.166
10855SOL    HW233386   5.707   6.283   6.233
10856SOL     OW33387   6.879   6.814   7.009
10856SOL    HW133388   6.916   6.741   6.951
10856SOL    HW233389   6.931   6.819   7.094
10857SOL     OW33390   6.395   5.590   6.088
10857SOL    HW133391   6.435   5.681   6.079
10857SOL    HW233392   6.295   5.598   6.094
10858SOL     OW33393   5.783   6.562   6.850
10858SOL    HW133394   5.872   6.517   6.836
10858SOL    HW233395   5.710   6.497   6.831
10859SOL     OW33396   6.184   6.315   5.856
10859SOL    HW133397   6.208   6.384   5.788
10859SOL    HW233398   6.106   6.348   5.910
10860SOL     OW33399   6.867   5.931   6.530
10860SOL    HW133400   6.781   5.881   6.517
10860SOL    HW233401   6.929   5.877   6.586
10861SOL     OW33402   6.393   6.191   7.051
10861SOL    HW133403   6.346   6.188   7.140
10861SOL    HW233404   6.342   6.136   6.985
10862SOL     OW33405   6.577   5.996   6.828
10862SOL    HW133406   6.500   6.030   6.882
10862SOL    HW233407   6.543   5.945   6.749
10863SOL     OW33408   6.627   6.287   6.015
10863SOL    HW133409   6.653   6.283   6.111
10863SOL    HW233410   6.542   6.236   6.001
10864SOL     OW33411   5.662   6.397   6.375
10864SOL    HW133412   5.761   6.385   6.384
10864SOL    HW233413   5.638   6.492   6.396
10865SOL     OW33414   6.451   5.934   5.781
10865SOL    HW133415   6.510   5.997   5.732
10865SOL    HW233416   6.470   5.840   5.752
10866SOL     OW33417   6.948   6.730   6.131
10866SOL    HW133418   7.031   6.701   6.083
10866SOL    HW233419   6.899   6.797   6.075
10867SOL     OW33420   6.136   5.782   6.471
10867SOL    HW133421   6.131   5.777   6.571
10867SOL    HW233422   6.138   5.878   6.442
10868SOL     OW33423   5.907   6.529   5.828
10868SOL    HW133424   5.989   6.568   5.786
10868SOL    HW233425   5.880   6.447   5.779
10869SOL     OW33426   5.968   6.286   6.066
10869SOL    HW133427   6.013   6.196   6.063
10869SOL    HW233428   5.874   6.275   6.099
10870SOL     OW33429   6.200   5.708   5.703
10870SOL    HW133430   6.298   5.686   5.710
10870SOL    HW233431   6.169   5.691   5.610
10871SOL     OW33432   6.508   6.089   6.485
10871SOL    HW133433   6.483   6.080   6.389
10871SOL    HW233434   6.556   6.007   6.516
10872SOL     OW33435   6.125   5.650   6.098
10872SOL    HW133436   6.044   5.651   6.156
10872SOL    HW233437   6.128   5.733   6.043
10873SOL     OW33438   7.020   6.774   5.627
10873SOL    HW133439   7.052   6.698   5.684
10873SOL    HW233440   6.928   6.801   5.657
10874SOL     OW33441   5.883   5.621   5.757
10874SOL    HW133442   5.932   5.705   5.736
10874SOL    HW233443   5.945   5.556   5.802
10875SOL     OW33444   6.521   5.822   6.066
10875SOL    HW133445   6.473   5.863   5.988
10875SOL    HW233446   6.620   5.820   6.047
10876SOL     OW33447   6.813   7.156   6.379
10876SOL    HW133448   6.834   7.230   6.314
10876SOL    HW233449   6.881   7.156   6.452
10877SOL     OW33450   6.045   6.738   6.327
10877SOL    HW133451   5.974   6.711   6.392
10877SOL    HW233452   6.019   6.710   6.234
10878SOL     OW33453   6.618   6.135   5.602
10878SOL    HW133454   6.577   6.217   5.563
10878SOL    HW233455   6.682   6.161   5.675
10879SOL     OW33456   6.147   5.808   6.733
10879SOL    HW133457   6.185   5.724   6.770
10879SOL    HW233458   6.059   5.827   6.777
10880SOL     OW33459   6.452   6.040   6.228
10880SOL    HW133460   6.420   6.112   6.166
10880SOL    HW233461   6.476   5.959   6.175
10881SOL     OW33462   6.603   5.625   6.339
10881SOL    HW133463   6.531   5.630   6.270
10881SOL    HW233464   6.579   5.556   6.408
10882SOL     OW33465   6.113   5.842   5.914
10882SOL    HW133466   6.140   5.783   5.839
10882SOL    HW233467   6.113   5.937   5.883
10883SOL     OW33468   6.650   6.933   6.926
10883SOL    HW133469   6.570   6.910   6.981
10883SOL    HW233470   6.733   6.907   6.975
10884SOL     OW33471   6.697   6.781   6.686
10884SOL    HW133472   6.657   6.825   6.767
10884SOL    HW233473   6.656   6.818   6.603
10885SOL     OW33474   6.291   6.636   5.954
10885SOL    HW133475   6.277   6.643   6.053
10885SOL    HW233476   6.375   6.585   5.936
10886SOL     OW33477   5.996   6.399   6.837
10886SOL    HW133478   6.082   6.411   6.887
10886SOL    HW233479   5.954   6.312   6.864
10887SOL     OW33480   6.860   5.972   6.848
10887SOL    HW133481   6.881   6.046   6.912
10887SOL    HW233482   6.771   5.989   6.805
10888SOL     OW33483   5.953   6.686   6.087
10888SOL    HW133484   5.946   6.769   6.031
10888SOL    HW233485   5.957   6.606   6.027
10889SOL     OW33486   6.152   6.123   6.451
10889SOL    HW133487   6.164   6.189   6.377
10889SOL    HW233488   6.198   6.157   6.534
10890SOL     OW33489   6.838   6.934   5.974
10890SOL    HW133490   6.888   7.011   6.014
10890SOL    HW233491   6.743   6.936   6.006
10891SOL     OW33492   6.159   6.456   6.615
10891SOL    HW133493   6.203   6.545   6.606
10891SOL    HW233494   6.096   6.456   6.692
10892SOL     OW33495   6.946   6.448   6.631
10892SOL    HW133496   6.871   6.448   6.565
10892SOL    HW233497   6.983   6.356   6.640
10893SOL     OW33498   6.795   6.111   5.861
10893SOL    HW133499   6.808   6.027   5.915
10893SOL    HW233500   6.766   6.185   5.921
10894SOL     OW33501   5.893   5.799   6.817
10894SOL    HW133502   5.870   5.836   6.907
10894SOL    HW233503   5.863   5.704   6.811
10895SOL     OW33504   5.623   6.896   6.868
10895SOL    HW133505   5.676   6.847   6.936
10895SOL    HW233506   5.645   6.994   6.873
10896SOL     OW33507   6.318   6.220   6.650
10896SOL    HW133508   6.377   6.194   6.574
10896SOL    HW233509   6.290   6.316   6.639
10897SOL     OW33510   5.893   5.649   6.204
10897SOL    HW133511   5.882   5.743   6.237
10897SOL    HW233512   5.888   5.586   6.281
10898SOL     OW33513   7.208   5.953   5.960
10898SOL    HW133514   7.210   5.877   6.024
10898SOL    HW233515   7.160   6.030   6.000
10899SOL     OW33516   6.609   6.352   6.552
10899SOL    HW133517   6.624   6.373   6.648
10899SOL    HW233518   6.579   6.257   6.543
10900SOL     OW33519   6.889   6.424   5.628
10900SOL    HW133520   6.923   6.331   5.643
10900SOL    HW233521   6.907   6.451   5.533
10901SOL     OW33522   5.905   6.396   6.535
10901SOL    HW133523   5.998   6.432   6.540
10901SOL    HW233524   5.899   6.311   6.587
10902SOL     OW33525   5.925   6.095   6.592
10902SOL    HW133526   5.873   6.012   6.575
10902SOL    HW233527   6.002   6.100   6.528
10903SOL     OW33528   6.746   5.793   7.063
10903SOL    HW133529   6.746   5.857   7.140
10903SOL    HW233530   6.774   5.841   6.980
10904SOL     OW33531   5.594   6.912   5.786
10904SOL    HW133532   5.501   6.933   5.755
10904SOL    HW233533   5.604   6.813   5.799
10905SOL     OW33534   6.588   6.382   6.824
10905SOL    HW133535   6.629   6.350   6.910
10905SOL    HW233536   6.492   6.355   6.821
10906SOL     OW33537   5.626   6.130   6.700
10906SOL    HW133538   5.711   6.097   6.659
10906SOL    HW233539   5.639   6.145   6.798
10907SOL     OW33540   6.401   6.158   5.911
10907SOL    HW133541   6.408   6.069   5.865
10907SOL    HW233542   6.307   6.192   5.903
10908SOL     OW33543   6.257   6.050   6.855
10908SOL    HW133544   6.223   5.961   6.825
10908SOL    HW233545   6.283   6.104   6.775
10909SOL     OW33546   6.059   6.086   5.777
10909SOL    HW133547   6.120   6.166   5.781
10909SOL    HW233548   5.964   6.117   5.784
10910SOL     OW33549   5.745   6.723   7.052
10910SOL    HW133550   5.767   6.662   7.128
10910SOL    HW233551   5.755   6.674   6.966
10911SOL     OW33552   6.933   6.645   6.820
10911SOL    HW133553   6.957   6.582   6.746
10911SOL    HW233554   6.843   6.685   6.802
10912SOL     OW33555   6.888   6.441   5.895
10912SOL    HW133556   6.802   6.410   5.937
10912SOL    HW233557   6.884   6.427   5.796
10913SOL     OW33558   5.669   6.844   6.608
10913SOL    HW133559   5.664   6.843   6.708
10913SOL    HW233560   5.586   6.803   6.570
10914SOL     OW33561   6.866   6.513   6.258
10914SOL    HW133562   6.926   6.432   6.260
10914SOL    HW233563   6.906   6.582   6.198
10915SOL     OW33564   6.416   6.859   7.008
10915SOL    HW133565   6.411   6.892   7.103
10915SOL    HW233566   6.330   6.878   6.962
10916SOL     OW33567   5.849   5.912   6.306
10916SOL    HW133568   5.770   5.963   6.272
10916SOL    HW233569   5.840   5.897   6.404
10917SOL     OW33570   6.780   7.198   5.617
10917SOL    HW133571   6.786   7.105   5.654
10917SOL    HW233572   6.721   7.198   5.537
10918SOL     OW33573   6.408   6.588   6.958
10918SOL    HW133574   6.448   6.587   6.866
10918SOL    HW233575   6.418   6.680   6.998
10919SOL     OW33576   6.502   6.496   5.877
10919SOL    HW133577   6.565   6.534   5.809
10919SOL    HW233578   6.542   6.413   5.916
10920SOL     OW33579   5.958   6.874   7.076
10920SOL    HW133580   5.945   6.967   7.042
10920SOL    HW233581   5.874   6.822   7.063
10921SOL     OW33582   6.625   6.684   6.282
10921SOL    HW133583   6.555   6.637   6.336
10921SOL    HW233584   6.684   6.616   6.239
10922SOL     OW33585   6.600   5.822   6.557
10922SOL    HW133586   6.592   5.786   6.464
10922SOL    HW233587   6.598   5.746   6.622
10923SOL     OW33588   6.258   5.789   7.075
10923SOL    HW133589   6.348   5.773   7.035
10923SOL    HW233590   6.266   5.794   7.174
10924SOL     OW33591   5.661   5.931   5.619
10924SOL    HW133592   5.569   5.903   5.590
10924SOL    HW233593   5.692   6.008   5.563
10925SOL     OW33594   5.658   5.752   5.904
10925SOL    HW133595   5.641   5.835   5.850
10925SOL    HW233596   5.748   5.715   5.882
10926SOL     OW33597   6.811   5.911   6.035
10926SOL    HW133598   6.876   5.837   6.024
10926SOL    HW233599   6.831   5.961   6.119
10927SOL     OW33600   6.180   6.331   6.238
10927SOL    HW133601   6.230   6.416   6.219
10927SOL    HW233602   6.092   6.333   6.190
10928SOL     OW33603   6.445   6.542   6.447
10928SOL    HW133604   6.499   6.473   6.495
10928SOL    HW233605   6.413   6.611   6.513
10929SOL     OW33606   6.669   6.570   5.673
10929SOL    HW133607   6.646   6.623   5.591
10929SOL    HW233608   6.750   6.514   5.654
10930SOL     OW33609   5.665   6.826   6.239
10930SOL    HW133610   5.664   6.779   6.327
10930SOL    HW233611   5.747   6.798   6.188
10931SOL     OW33612   6.014   6.010   6.106
10931SOL    HW133613   6.044   5.938   6.044
10931SOL    HW233614   5.975   5.970   6.189
10932SOL     OW33615   5.903   6.133   6.866
10932SOL    HW133616   5.941   6.074   6.938
10932SOL    HW233617   5.943   6.107   6.778
10933SOL     OW33618   7.010   5.800   6.698
10933SOL    HW133619   7.062   5.735   6.753
10933SOL    HW233620   6.961   5.863   6.759
10934SOL     OW33621   6.587   5.620   6.740
10934SOL    HW133622   6.524   5.548   6.709
10934SOL    HW233623   6.680   5.584   6.740
10935SOL     OW33624   6.356   6.916   5.887
10935SOL    HW133625   6.310   6.829   5.904
10935SOL    HW233626   6.447   6.913   5.928
10936SOL     OW33627   6.938   5.638   5.754
10936SOL    HW133628   6.973   5.597   5.670
10936SOL    HW233629   6.848   5.600   5.774
10937SOL     OW33630   5.625   6.663   5.886
10937SOL    HW133631   5.724   6.652   5.877
10937SOL    HW233632   5.585   6.577   5.918
   7.00000   7.00000   7.00000
