;
;	File 'topol.top' was generated
;	By user: azadeh (1000)
;	On host: ubuntu
;	At date: Wed Mar 28 15:36:31 2018

;
;	This is a include topology file
;
;	Created by:
;	                  :-) GROMACS - gmx x2top, VERSION 5.1.4 (-:
;	
;	Executable:   /usr/local/gromacs/bin/gmx
;	Data prefix:  /usr/local/gromacs
;	Command line:
;	  gmx x2top -f cnt.pdb -o topol.top -ff gromos54a7 -nopbc -name CNT
;	Force field was read from current directory or a relative path - path added.
;

; Include forcefield parameters
#include "./gromos54a7.ff/forcefield.itp"

[ moleculetype ]
; Name            nrexcl
CNT                 3

[ atoms ]
;   nr       type  resnr residue  atom   cgnr     charge       mass  typeB    chargeB      massB
     1         CJ      0    C         C      1          0     12.011   ; qtot 0
     2         CJ      0    C         C      2          0     12.011   ; qtot 0
     3         CJ      0    C         C      3     -0.160     12.011   ; qtot 0
     4         CJ      0    C         C      4          0     12.011   ; qtot 0
     5         CJ      0    C         C      5          0     12.011   ; qtot 0
     6         CJ      0    C         C      6          0     12.011   ; qtot 0
     7         CJ      0    C         C      7          0     12.011   ; qtot 0
     8         CJ      0    C         C      8          0     12.011   ; qtot 0
     9         CJ      0    C         C      9          0     12.011   ; qtot 0
    10         CJ      0    C         C     10          0     12.011   ; qtot 0
    11         CJ      0    C         C     11     -0.180     12.011   ; qtot 0
    12         CJ      0    C         C     12      0.130     12.011   ; qtot 0
    13         CJ      0    C         C     13          0     12.011   ; qtot 0
    14         CJ      0    C         C     14          0     12.011   ; qtot 0
    15         CJ      0    C         C     15          0     12.011   ; qtot 0
    16         CJ      0    C         C     16          0     12.011   ; qtot 0
    17         CJ      0    C         C     17          0     12.011   ; qtot 0
    18         CJ      0    C         C     18          0     12.011   ; qtot 0
    19         CJ      0    C         C     19          0     12.011   ; qtot 0
    20         CJ      0    C         C     20          0     12.011   ; qtot 0
    21         CJ      0    C         C     21          0     12.011   ; qtot 0
    22         CJ      0    C         C     22          0     12.011   ; qtot 0
    23         CJ      0    C         C     23          0     12.011   ; qtot 0
    24         CJ      0    C         C     24          0     12.011   ; qtot 0
    25         CJ      0    C         C     25          0     12.011   ; qtot 0
    26         CJ      0    C         C     26     -0.160     12.011   ; qtot 0
    27         CJ      0    C         C     27     -0.160     12.011   ; qtot 0
    28         CJ      0    C         C     28          0     12.011   ; qtot 0
    29         CJ      0    C         C     29          0     12.011   ; qtot 0
    30         CJ      0    C         C     30          0     12.011   ; qtot 0
    31         CJ      0    C         C     31          0     12.011   ; qtot 0
    32         CJ      0    C         C     32          0     12.011   ; qtot 0
    33         CJ      0    C         C     33          0     12.011   ; qtot 0
    34         CJ      0    C         C     34          0     12.011   ; qtot 0
    35         CJ      0    C         C     35          0     12.011   ; qtot 0
    36         CJ      0    C         C     36          0     12.011   ; qtot 0
    37         CJ      0    C         C     37          0     12.011   ; qtot 0
    38         CJ      0    C         C     38          0     12.011   ; qtot 0
    39         CJ      0    C         C     39          0     12.011   ; qtot 0
    40         CJ      0    C         C     40          0     12.011   ; qtot 0
    41         CJ      0    C         C     41          0     12.011   ; qtot 0
    42         CJ      0    C         C     42          0     12.011   ; qtot 0
    43         CJ      0    C         C     43          0     12.011   ; qtot 0
    44         CJ      0    C         C     44          0     12.011   ; qtot 0
    45         CJ      0    C         C     45          0     12.011   ; qtot 0
    46         CJ      0    C         C     46          0     12.011   ; qtot 0
    47         CJ      0    C         C     47          0     12.011   ; qtot 0
    48         CJ      0    C         C     48          0     12.011   ; qtot 0
    49         CJ      0    C         C     49          0     12.011   ; qtot 0
    50         CJ      0    C         C     50          0     12.011   ; qtot 0
    51         CJ      0    C         C     51          0     12.011   ; qtot 0
    52         CJ      0    C         C     52          0     12.011   ; qtot 0
    53         CJ      0    C         C     53          0     12.011   ; qtot 0
    54         CJ      0    C         C     54          0     12.011   ; qtot 0
    55         CJ      0    C         C     55          0     12.011   ; qtot 0
    56         CJ      0    C         C     56          0     12.011   ; qtot 0
    57         CJ      0    C         C     57          0     12.011   ; qtot 0
    58         CJ      0    C         C     58          0     12.011   ; qtot 0
    59         CJ      0    C         C     59          0     12.011   ; qtot 0
    60         CJ      0    C         C     60          0     12.011   ; qtot 0
    61         CJ      0    C         C     61          0     12.011   ; qtot 0
    62         CJ      0    C         C     62          0     12.011   ; qtot 0
    63         CJ      0    C         C     63          0     12.011   ; qtot 0
    64         CJ      0    C         C     64          0     12.011   ; qtot 0
    65         CJ      0    C         C     65          0     12.011   ; qtot 0
    66         CJ      0    C         C     66          0     12.011   ; qtot 0
    67         CJ      0    C         C     67          0     12.011   ; qtot 0
    68         CJ      0    C         C     68          0     12.011   ; qtot 0
    69         CJ      0    C         C     69     -0.180     12.011   ; qtot 0
    70         CJ      0    C         C     70      0.130     12.011   ; qtot 0
    71         CJ      0    C         C     71          0     12.011   ; qtot 0
    72         CJ      0    C         C     72          0     12.011   ; qtot 0
    73         CJ      0    C         C     73          0     12.011   ; qtot 0
    74         CJ      0    C         C     74          0     12.011   ; qtot 0
    75         CJ      0    C         C     75          0     12.011   ; qtot 0
    76         CJ      0    C         C     76          0     12.011   ; qtot 0
    77         CJ      0    C         C     77          0     12.011   ; qtot 0
    78         CJ      0    C         C     78          0     12.011   ; qtot 0
    79         CJ      0    C         C     79          0     12.011   ; qtot 0
    80         CJ      0    C         C     80          0     12.011   ; qtot 0
    81         CJ      0    C         C     81          0     12.011   ; qtot 0
    82         CJ      0    C         C     82          0     12.011   ; qtot 0
    83         CJ      0    C         C     83          0     12.011   ; qtot 0
    84         CJ      0    C         C     84          0     12.011   ; qtot 0
    85         CJ      0    C         C     85          0     12.011   ; qtot 0
    86         CJ      0    C         C     86          0     12.011   ; qtot 0
    87         CJ      0    C         C     87          0     12.011   ; qtot 0
    88         CJ      0    C         C     88          0     12.011   ; qtot 0
    89         CJ      0    C         C     89          0     12.011   ; qtot 0
    90         CJ      0    C         C     90          0     12.011   ; qtot 0
    91         CJ      0    C         C     91          0     12.011   ; qtot 0
    92         CJ      0    C         C     92          0     12.011   ; qtot 0
    93         CJ      0    C         C     93          0     12.011   ; qtot 0
    94         CJ      0    C         C     94          0     12.011   ; qtot 0
    95         CJ      0    C         C     95          0     12.011   ; qtot 0
    96         CJ      0    C         C     96          0     12.011   ; qtot 0
    97         CJ      0    C         C     97          0     12.011   ; qtot 0
    98         CJ      0    C         C     98          0     12.011   ; qtot 0
    99         CJ      0    C         C     99          0     12.011   ; qtot 0
   100         CJ      0    C         C    100     -0.160     12.011   ; qtot 0
   101         CJ      0    C         C    101      0.130     12.011   ; qtot 0
   102         CJ      0    C         C    102          0     12.011   ; qtot 0
   103         CJ      0    C         C    103          0     12.011   ; qtot 0
   104         CJ      0    C         C    104          0     12.011   ; qtot 0
   105         CJ      0    C         C    105          0     12.011   ; qtot 0
   106         CJ      0    C         C    106          0     12.011   ; qtot 0
   107         CJ      0    C         C    107          0     12.011   ; qtot 0
   108         CJ      0    C         C    108          0     12.011   ; qtot 0
   109         CJ      0    C         C    109          0     12.011   ; qtot 0
   110         CJ      0    C         C    110          0     12.011   ; qtot 0
   111         CJ      0    C         C    111          0     12.011   ; qtot 0
   112         CJ      0    C         C    112          0     12.011   ; qtot 0
   113         CJ      0    C         C    113          0     12.011   ; qtot 0
   114         CJ      0    C         C    114          0     12.011   ; qtot 0
   115         CJ      0    C         C    115          0     12.011   ; qtot 0
   116         CJ      0    C         C    116          0     12.011   ; qtot 0
   117         CJ      0    C         C    117          0     12.011   ; qtot 0
   118         CJ      0    C         C    118          0     12.011   ; qtot 0
   119         CJ      0    C         C    119          0     12.011   ; qtot 0
   120         CJ      0    C         C    120          0     12.011   ; qtot 0
   121         CJ      0    C         C    121          0     12.011   ; qtot 0
   122         CJ      0    C         C    122          0     12.011   ; qtot 0
   123         CJ      0    C         C    123          0     12.011   ; qtot 0
   124         CJ      0    C         C    124          0     12.011   ; qtot 0
   125         CJ      0    C         C    125          0     12.011   ; qtot 0
   126         CJ      0    C         C    126          0     12.011   ; qtot 0
   127         CJ      0    C         C    127          0     12.011   ; qtot 0
   128         CJ      0    C         C    128          0     12.011   ; qtot 0
   129         CJ      0    C         C    129          0     12.011   ; qtot 0
   130         CJ      0    C         C    130          0     12.011   ; qtot 0
   131         CJ      0    C         C    131          0     12.011   ; qtot 0
   132         CJ      0    C         C    132          0     12.011   ; qtot 0
   133         CJ      0    C         C    133     -0.160     12.011   ; qtot 0
   134         CJ      0    C         C    134     -0.160     12.011   ; qtot 0
   135         CJ      0    C         C    135     -0.160     12.011   ; qtot 0
   136         CJ      0    C         C    136          0     12.011   ; qtot 0
   137         CJ      0    C         C    137          0     12.011   ; qtot 0
   138         CJ      0    C         C    138          0     12.011   ; qtot 0
   139         CJ      0    C         C    139          0     12.011   ; qtot 0
   140         CJ      0    C         C    140          0     12.011   ; qtot 0
   141         CJ      0    C         C    141          0     12.011   ; qtot 0
   142         CJ      0    C         C    142          0     12.011   ; qtot 0
   143         CJ      0    C         C    143          0     12.011   ; qtot 0
   144         CJ      0    C         C    144          0     12.011   ; qtot 0
   145         CJ      0    C         C    145          0     12.011   ; qtot 0
   146         CJ      0    C         C    146          0     12.011   ; qtot 0
   147         CJ      0    C         C    147          0     12.011   ; qtot 0
   148         CJ      0    C         C    148          0     12.011   ; qtot 0
   149         CJ      0    C         C    149          0     12.011   ; qtot 0
   150         CJ      0    C         C    150          0     12.011   ; qtot 0
   151         CJ      0    C         C    151          0     12.011   ; qtot 0
   152         CJ      0    C         C    152          0     12.011   ; qtot 0
   153         CJ      0    C         C    153          0     12.011   ; qtot 0
   154         CJ      0    C         C    154          0     12.011   ; qtot 0
   155         CJ      0    C         C    155          0     12.011   ; qtot 0
   156         CJ      0    C         C    156          0     12.011   ; qtot 0
   157         CJ      0    C         C    157          0     12.011   ; qtot 0
   158         CJ      0    C         C    158          0     12.011   ; qtot 0
   159         CJ      0    C         C    159          0     12.011   ; qtot 0
   160         CJ      0    C         C    160          0     12.011   ; qtot 0
   161         CJ      0    C         C    161          0     12.011   ; qtot 0
   162         CJ      0    C         C    162          0     12.011   ; qtot 0
   163         CJ      0    C         C    163          0     12.011   ; qtot 0
   164         CJ      0    C         C    164          0     12.011   ; qtot 0
   165         CJ      0    C         C    165          0     12.011   ; qtot 0
   166         CJ      0    C         C    166     -0.180     12.011   ; qtot 0
   167         CJ      0    C         C    167      0.130     12.011   ; qtot 0
   168         CJ      0    C         C    168     -0.180     12.011   ; qtot 0
   169         CJ      0    C         C    169          0     12.011   ; qtot 0
   170         CJ      0    C         C    170          0     12.011   ; qtot 0
   171         CJ      0    C         C    171          0     12.011   ; qtot 0
   172         CJ      0    C         C    172          0     12.011   ; qtot 0
   173         CJ      0    C         C    173          0     12.011   ; qtot 0
   174         CJ      0    C         C    174          0     12.011   ; qtot 0
   175         CJ      0    C         C    175          0     12.011   ; qtot 0
   176         CJ      0    C         C    176          0     12.011   ; qtot 0
   177         CJ      0    C         C    177          0     12.011   ; qtot 0
   178         CJ      0    C         C    178          0     12.011   ; qtot 0
   179         CJ      0    C         C    179          0     12.011   ; qtot 0
   180         CJ      0    C         C    180          0     12.011   ; qtot 0
   181         CJ      0    C         C    181          0     12.011   ; qtot 0
   182         CJ      0    C         C    182          0     12.011   ; qtot 0
   183         CJ      0    C         C    183          0     12.011   ; qtot 0
   184         CJ      0    C         C    184          0     12.011   ; qtot 0
   185         CJ      0    C         C    185          0     12.011   ; qtot 0
   186         CJ      0    C         C    186          0     12.011   ; qtot 0
   187         CJ      0    C         C    187          0     12.011   ; qtot 0
   188         CJ      0    C         C    188          0     12.011   ; qtot 0
   189         CJ      0    C         C    189          0     12.011   ; qtot 0
   190         CJ      0    C         C    190          0     12.011   ; qtot 0
   191         CJ      0    C         C    191          0     12.011   ; qtot 0
   192         CJ      0    C         C    192          0     12.011   ; qtot 0
   193         CJ      0    C         C    193          0     12.011   ; qtot 0
   194         CJ      0    C         C    194          0     12.011   ; qtot 0
   195         CJ      0    C         C    195          0     12.011   ; qtot 0
   196         CJ      0    C         C    196          0     12.011   ; qtot 0
   197         CJ      0    C         C    197          0     12.011   ; qtot 0
   198         CJ      0    C         C    198          0     12.011   ; qtot 0
   199         CJ      0    C         C    199          0     12.011   ; qtot 0
   200         CJ      0    C         C    200     -0.160     12.011   ; qtot 0
   201         CJ      0    C         C    201      0.130     12.011   ; qtot 0
   202         CJ      0    C         C    202          0     12.011   ; qtot 0
   203         CJ      0    C         C    203          0     12.011   ; qtot 0
   204         CJ      0    C         C    204          0     12.011   ; qtot 0
   205         CJ      0    C         C    205          0     12.011   ; qtot 0
   206         CJ      0    C         C    206          0     12.011   ; qtot 0
   207         CJ      0    C         C    207          0     12.011   ; qtot 0
   208         CJ      0    C         C    208          0     12.011   ; qtot 0
   209         CJ      0    C         C    209          0     12.011   ; qtot 0
   210         CJ      0    C         C    210          0     12.011   ; qtot 0
   211         CJ      0    C         C    211          0     12.011   ; qtot 0
   212         CJ      0    C         C    212          0     12.011   ; qtot 0
   213         CJ      0    C         C    213          0     12.011   ; qtot 0
   214         CJ      0    C         C    214          0     12.011   ; qtot 0
   215         CJ      0    C         C    215          0     12.011   ; qtot 0
   216         CJ      0    C         C    216          0     12.011   ; qtot 0
   217         CJ      0    C         C    217          0     12.011   ; qtot 0
   218         CJ      0    C         C    218          0     12.011   ; qtot 0
   219         CJ      0    C         C    219          0     12.011   ; qtot 0
   220         CJ      0    C         C    220          0     12.011   ; qtot 0
   221         CJ      0    C         C    221          0     12.011   ; qtot 0
   222         CJ      0    C         C    222          0     12.011   ; qtot 0
   223         CJ      0    C         C    223          0     12.011   ; qtot 0
   224         CJ      0    C         C    224          0     12.011   ; qtot 0
   225         CJ      0    C         C    225          0     12.011   ; qtot 0
   226         CJ      0    C         C    226          0     12.011   ; qtot 0
   227         CJ      0    C         C    227          0     12.011   ; qtot 0
   228         CJ      0    C         C    228          0     12.011   ; qtot 0
   229         CJ      0    C         C    229          0     12.011   ; qtot 0
   230         CJ      0    C         C    230          0     12.011   ; qtot 0
   231         CJ      0    C         C    231          0     12.011   ; qtot 0
   232         CJ      0    C         C    232          0     12.011   ; qtot 0
   233         CJ      0    C         C    233     -0.160     12.011   ; qtot 0
   234         CJ      0    C         C    234     -0.160     12.011   ; qtot 0
   235         CJ      0    C         C    235     -0.160     12.011   ; qtot 0
   236         CJ      0    C         C    236          0     12.011   ; qtot 0
   237         CJ      0    C         C    237          0     12.011   ; qtot 0
   238         CJ      0    C         C    238          0     12.011   ; qtot 0
   239         CJ      0    C         C    239          0     12.011   ; qtot 0
   240         CJ      0    C         C    240          0     12.011   ; qtot 0
   241         CJ      0    C         C    241          0     12.011   ; qtot 0
   242         CJ      0    C         C    242          0     12.011   ; qtot 0
   243         CJ      0    C         C    243          0     12.011   ; qtot 0
   244         CJ      0    C         C    244          0     12.011   ; qtot 0
   245         CJ      0    C         C    245          0     12.011   ; qtot 0
   246         CJ      0    C         C    246          0     12.011   ; qtot 0
   247         CJ      0    C         C    247          0     12.011   ; qtot 0
   248         CJ      0    C         C    248          0     12.011   ; qtot 0
   249         CJ      0    C         C    249          0     12.011   ; qtot 0
   250         CJ      0    C         C    250          0     12.011   ; qtot 0
   251         CJ      0    C         C    251          0     12.011   ; qtot 0
   252         CJ      0    C         C    252          0     12.011   ; qtot 0
   253         CJ      0    C         C    253          0     12.011   ; qtot 0
   254         CJ      0    C         C    254          0     12.011   ; qtot 0
   255         CJ      0    C         C    255          0     12.011   ; qtot 0
   256         CJ      0    C         C    256          0     12.011   ; qtot 0
   257         CJ      0    C         C    257          0     12.011   ; qtot 0
   258         CJ      0    C         C    258          0     12.011   ; qtot 0
   259         CJ      0    C         C    259          0     12.011   ; qtot 0
   260         CJ      0    C         C    260          0     12.011   ; qtot 0
   261         CJ      0    C         C    261          0     12.011   ; qtot 0
   262         CJ      0    C         C    262          0     12.011   ; qtot 0
   263         CJ      0    C         C    263          0     12.011   ; qtot 0
   264         CJ      0    C         C    264          0     12.011   ; qtot 0
   265         CJ      0    C         C    265          0     12.011   ; qtot 0
   266         CJ      0    C         C    266     -0.180      12.011   ; qtot 0
   267         CJ      0    C         C    267      0.130     12.011   ; qtot 0
   268         CJ      0    C         C    268     -0.180     12.011   ; qtot 0
   269         CJ      0    C         C    269          0     12.011   ; qtot 0
   270         CJ      0    C         C    270          0     12.011   ; qtot 0
   271         CJ      0    C         C    271          0     12.011   ; qtot 0
   272         CJ      0    C         C    272          0     12.011   ; qtot 0
   273         CJ      0    C         C    273          0     12.011   ; qtot 0
   274         CJ      0    C         C    274          0     12.011   ; qtot 0
   275         CJ      0    C         C    275          0     12.011   ; qtot 0
   276         CJ      0    C         C    276          0     12.011   ; qtot 0
   277         CJ      0    C         C    277          0     12.011   ; qtot 0
   278         CJ      0    C         C    278          0     12.011   ; qtot 0
   279         CJ      0    C         C    279          0     12.011   ; qtot 0
   280         CJ      0    C         C    280          0     12.011   ; qtot 0
   281         CJ      0    C         C    281          0     12.011   ; qtot 0
   282         CJ      0    C         C    282          0     12.011   ; qtot 0
   283         CJ      0    C         C    283          0     12.011   ; qtot 0
   284         CJ      0    C         C    284          0     12.011   ; qtot 0
   285         CJ      0    C         C    285          0     12.011   ; qtot 0
   286         CJ      0    C         C    286          0     12.011   ; qtot 0
   287         CJ      0    C         C    287          0     12.011   ; qtot 0
   288         CJ      0    C         C    288          0     12.011   ; qtot 0
   289         CJ      0    C         C    289          0     12.011   ; qtot 0
   290         CJ      0    C         C    290          0     12.011   ; qtot 0
   291         CJ      0    C         C    291          0     12.011   ; qtot 0
   292         CJ      0    C         C    292          0     12.011   ; qtot 0
   293         CJ      0    C         C    293          0     12.011   ; qtot 0
   294         CJ      0    C         C    294          0     12.011   ; qtot 0
   295         CJ      0    C         C    295          0     12.011   ; qtot 0
   296         CJ      0    C         C    296          0     12.011   ; qtot 0
   297         CJ      0    C         C    297          0     12.011   ; qtot 0
   298         CJ      0    C         C    298          0     12.011   ; qtot 0
   299         CJ      0    C         C    299          0     12.011   ; qtot 0
   300         CJ      0    C         C    300     -0.180     12.011   ; qtot 0
   301         CJ      0    C         C    301      0.130     12.011   ; qtot 0
   302         CJ      0    C         C    302          0     12.011   ; qtot 0
   303         CJ      0    C         C    303          0     12.011   ; qtot 0
   304         CJ      0    C         C    304          0     12.011   ; qtot 0
   305         CJ      0    C         C    305          0     12.011   ; qtot 0
   306         CJ      0    C         C    306          0     12.011   ; qtot 0
   307         CJ      0    C         C    307          0     12.011   ; qtot 0
   308         CJ      0    C         C    308          0     12.011   ; qtot 0
   309         CJ      0    C         C    309          0     12.011   ; qtot 0
   310         CJ      0    C         C    310          0     12.011   ; qtot 0
   311         CJ      0    C         C    311          0     12.011   ; qtot 0
   312         CJ      0    C         C    312          0     12.011   ; qtot 0
   313         CJ      0    C         C    313          0     12.011   ; qtot 0
   314         CJ      0    C         C    314          0     12.011   ; qtot 0
   315         CJ      0    C         C    315          0     12.011   ; qtot 0
   316         CJ      0    C         C    316          0     12.011   ; qtot 0
   317         CJ      0    C         C    317          0     12.011   ; qtot 0
   318         CJ      0    C         C    318          0     12.011   ; qtot 0
   319         CJ      0    C         C    319          0     12.011   ; qtot 0
   320         CJ      0    C         C    320          0     12.011   ; qtot 0
   321         CJ      0    C         C    321          0     12.011   ; qtot 0
   322         CJ      0    C         C    322          0     12.011   ; qtot 0
   323         CJ      0    C         C    323          0     12.011   ; qtot 0
   324         CJ      0    C         C    324          0     12.011   ; qtot 0
   325         CJ      0    C         C    325          0     12.011   ; qtot 0
   326         CJ      0    C         C    326          0     12.011   ; qtot 0
   327         CJ      0    C         C    327          0     12.011   ; qtot 0
   328         CJ      0    C         C    328          0     12.011   ; qtot 0
   329         CJ      0    C         C    329          0     12.011   ; qtot 0
   330         CJ      0    C         C    330          0     12.011   ; qtot 0
   331         CJ      0    C         C    331          0     12.011   ; qtot 0
   332         CJ      0    C         C    332          0     12.011   ; qtot 0
   333         CJ      0    C         C    333      0.130     12.011   ; qtot 0
   334         CJ      0    C         C    334     -0.160     12.011   ; qtot 0
   335         CJ      0    C         C    335     -0.160     12.011   ; qtot 0
   336         CJ      0    C         C    336          0     12.011   ; qtot 0
   337         CJ      0    C         C    337          0     12.011   ; qtot 0
   338         CJ      0    C         C    338          0     12.011   ; qtot 0
   339         CJ      0    C         C    339          0     12.011   ; qtot 0
   340         CJ      0    C         C    340          0     12.011   ; qtot 0
   341         CJ      0    C         C    341          0     12.011   ; qtot 0
   342         CJ      0    C         C    342          0     12.011   ; qtot 0
   343         CJ      0    C         C    343          0     12.011   ; qtot 0
   344         CJ      0    C         C    344          0     12.011   ; qtot 0
   345         CJ      0    C         C    345          0     12.011   ; qtot 0
   346         CJ      0    C         C    346          0     12.011   ; qtot 0
   347         CJ      0    C         C    347          0     12.011   ; qtot 0
   348         CJ      0    C         C    348          0     12.011   ; qtot 0
   349         CJ      0    C         C    349          0     12.011   ; qtot 0
   350         CJ      0    C         C    350          0     12.011   ; qtot 0
   351         CJ      0    C         C    351          0     12.011   ; qtot 0
   352         CJ      0    C         C    352          0     12.011   ; qtot 0
   353         CJ      0    C         C    353          0     12.011   ; qtot 0
   354         CJ      0    C         C    354          0     12.011   ; qtot 0
   355         CJ      0    C         C    355          0     12.011   ; qtot 0
   356         CJ      0    C         C    356          0     12.011   ; qtot 0
   357         CJ      0    C         C    357          0     12.011   ; qtot 0
   358         CJ      0    C         C    358          0     12.011   ; qtot 0
   359         CJ      0    C         C    359          0     12.011   ; qtot 0
   360         CJ      0    C         C    360          0     12.011   ; qtot 0
   361         CJ      0    C         C    361          0     12.011   ; qtot 0
   362         CJ      0    C         C    362          0     12.011   ; qtot 0
   363         CJ      0    C         C    363          0     12.011   ; qtot 0
   364         CJ      0    C         C    364          0     12.011   ; qtot 0
   365         CJ      0    C         C    365          0     12.011   ; qtot 0
   366         CJ      0    C         C    366     -0.160     12.011   ; qtot 0
   367         CJ      0    C         C    367     -0.160     12.011   ; qtot 0
   368         CJ      0    C         C    368     -0.180      12.011   ; qtot 0
   369         CJ      0    C         C    369          0     12.011   ; qtot 0
   370         CJ      0    C         C    370          0     12.011   ; qtot 0
   371         CJ      0    C         C    371          0     12.011   ; qtot 0
   372         CJ      0    C         C    372          0     12.011   ; qtot 0
   373         CJ      0    C         C    373          0     12.011   ; qtot 0
   374         CJ      0    C         C    374          0     12.011   ; qtot 0
   375         CJ      0    C         C    375          0     12.011   ; qtot 0
   376         CJ      0    C         C    376          0     12.011   ; qtot 0
   377         CJ      0    C         C    377          0     12.011   ; qtot 0
   378         CJ      0    C         C    378          0     12.011   ; qtot 0
   379         CJ      0    C         C    379          0     12.011   ; qtot 0
   380         CJ      0    C         C    380          0     12.011   ; qtot 0
   381         CJ      0    C         C    381          0     12.011   ; qtot 0
   382         CJ      0    C         C    382          0     12.011   ; qtot 0
   383         CJ      0    C         C    383          0     12.011   ; qtot 0
   384         CJ      0    C         C    384          0     12.011   ; qtot 0
   385         CJ      0    C         C    385          0     12.011   ; qtot 0
   386         CJ      0    C         C    386          0     12.011   ; qtot 0
   387         CJ      0    C         C    387          0     12.011   ; qtot 0
   388         CJ      0    C         C    388          0     12.011   ; qtot 0
   389         CJ      0    C         C    389          0     12.011   ; qtot 0
   390         CJ      0    C         C    390          0     12.011   ; qtot 0
   391         CJ      0    C         C    391          0     12.011   ; qtot 0
   392         CJ      0    C         C    392          0     12.011   ; qtot 0
   393         CJ      0    C         C    393          0     12.011   ; qtot 0
   394         CJ      0    C         C    394          0     12.011   ; qtot 0
   395         CJ      0    C         C    395          0     12.011   ; qtot 0
   396         CJ      0    C         C    396          0     12.011   ; qtot 0
   397         CJ      0    C         C    397          0     12.011   ; qtot 0
   398         CJ      0    C         C    398          0     12.011   ; qtot 0
   399         CJ      0    C         C    399          0     12.011   ; qtot 0
   400         CJ      0    C         C    400     -0.160     12.011   ; qtot 0
   401         CJ      0    C         C    401      0.130     12.011   ; qtot 0
   402         CJ      0    C         C    402          0     12.011   ; qtot 0
   403         CJ      0    C         C    403          0     12.011   ; qtot 0
   404         CJ      0    C         C    404          0     12.011   ; qtot 0
   405         CJ      0    C         C    405          0     12.011   ; qtot 0
   406         CJ      0    C         C    406          0     12.011   ; qtot 0
   407         CJ      0    C         C    407          0     12.011   ; qtot 0
   408         CJ      0    C         C    408          0     12.011   ; qtot 0
   409         CJ      0    C         C    409          0     12.011   ; qtot 0
   410         CJ      0    C         C    410          0     12.011   ; qtot 0
   411         CJ      0    C         C    411          0     12.011   ; qtot 0
   412         CJ      0    C         C    412          0     12.011   ; qtot 0
   413         CJ      0    C         C    413          0     12.011   ; qtot 0
   414         CJ      0    C         C    414          0     12.011   ; qtot 0
   415         CJ      0    C         C    415          0     12.011   ; qtot 0
   416         CJ      0    C         C    416          0     12.011   ; qtot 0
   417         CJ      0    C         C    417          0     12.011   ; qtot 0
   418         CJ      0    C         C    418          0     12.011   ; qtot 0
   419         CJ      0    C         C    419          0     12.011   ; qtot 0
   420         CJ      0    C         C    420          0     12.011   ; qtot 0
   421         CJ      0    C         C    421          0     12.011   ; qtot 0
   422         CJ      0    C         C    422          0     12.011   ; qtot 0
   423         CJ      0    C         C    423          0     12.011   ; qtot 0
   424         CJ      0    C         C    424          0     12.011   ; qtot 0
   425         CJ      0    C         C    425          0     12.011   ; qtot 0
   426         CJ      0    C         C    426          0     12.011   ; qtot 0
   427         CJ      0    C         C    427          0     12.011   ; qtot 0
   428         CJ      0    C         C    428          0     12.011   ; qtot 0
   429         CJ      0    C         C    429          0     12.011   ; qtot 0
   430         CJ      0    C         C    430          0     12.011   ; qtot 0
   431         CJ      0    C         C    431          0     12.011   ; qtot 0
   432         CJ      0    C         C    432          0     12.011   ; qtot 0
   433         CJ      0    C         C    433     -0.160     12.011   ; qtot 0
   434         CJ      0    C         C    434     -0.160     12.011   ; qtot 0
   435         CJ      0    C         C    435     -0.160     12.011   ; qtot 0
   436         CJ      0    C         C    436          0     12.011   ; qtot 0
   437         CJ      0    C         C    437          0     12.011   ; qtot 0
   438         CJ      0    C         C    438          0     12.011   ; qtot 0
   439         CJ      0    C         C    439          0     12.011   ; qtot 0
   440         CJ      0    C         C    440          0     12.011   ; qtot 0
   441         CJ      0    C         C    441          0     12.011   ; qtot 0
   442         CJ      0    C         C    442          0     12.011   ; qtot 0
   443         CJ      0    C         C    443          0     12.011   ; qtot 0
   444         CJ      0    C         C    444          0     12.011   ; qtot 0
   445         CJ      0    C         C    445          0     12.011   ; qtot 0
   446         CJ      0    C         C    446          0     12.011   ; qtot 0
   447         CJ      0    C         C    447          0     12.011   ; qtot 0
   448         CJ      0    C         C    448          0     12.011   ; qtot 0
   449         CJ      0    C         C    449          0     12.011   ; qtot 0
   450         CJ      0    C         C    450          0     12.011   ; qtot 0
   451         CJ      0    C         C    451          0     12.011   ; qtot 0
   452         CJ      0    C         C    452          0     12.011   ; qtot 0
   453         CJ      0    C         C    453          0     12.011   ; qtot 0
   454         CJ      0    C         C    454          0     12.011   ; qtot 0
   455         CJ      0    C         C    455          0     12.011   ; qtot 0
   456         CJ      0    C         C    456          0     12.011   ; qtot 0
   457         CJ      0    C         C    457          0     12.011   ; qtot 0
   458         CJ      0    C         C    458          0     12.011   ; qtot 0
   459         CJ      0    C         C    459          0     12.011   ; qtot 0
   460         CJ      0    C         C    460          0     12.011   ; qtot 0
   461         CJ      0    C         C    461          0     12.011   ; qtot 0
   462         CJ      0    C         C    462          0     12.011   ; qtot 0
   463         CJ      0    C         C    463          0     12.011   ; qtot 0
   464         CJ      0    C         C    464          0     12.011   ; qtot 0
   465         CJ      0    C         C    465          0     12.011   ; qtot 0
   466         CJ      0    C         C    466      0.130     12.011   ; qtot 0
   467         CJ      0    C         C    467     -0.180     12.011   ; qtot 0
   468         CJ      0    C         C    468     -0.180     12.011   ; qtot 0
   469         CJ      0    C         C    469          0     12.011   ; qtot 0
   470         CJ      0    C         C    470          0     12.011   ; qtot 0
   471         CJ      0    C         C    471          0     12.011   ; qtot 0
   472         CJ      0    C         C    472          0     12.011   ; qtot 0
   473         CJ      0    C         C    473          0     12.011   ; qtot 0
   474         CJ      0    C         C    474          0     12.011   ; qtot 0
   475         CJ      0    C         C    475          0     12.011   ; qtot 0
   476         CJ      0    C         C    476          0     12.011   ; qtot 0
   477         CJ      0    C         C    477          0     12.011   ; qtot 0
   478         CJ      0    C         C    478          0     12.011   ; qtot 0
   479         CJ      0    C         C    479          0     12.011   ; qtot 0
   480         CJ      0    C         C    480          0     12.011   ; qtot 0
   481         CJ      0    C         C    481          0     12.011   ; qtot 0
   482         CJ      0    C         C    482          0     12.011   ; qtot 0
   483         CJ      0    C         C    483          0     12.011   ; qtot 0
   484         CJ      0    C         C    484          0     12.011   ; qtot 0
   485         CJ      0    C         C    485          0     12.011   ; qtot 0
   486         CJ      0    C         C    486          0     12.011   ; qtot 0
   487         CJ      0    C         C    487          0     12.011   ; qtot 0
   488         CJ      0    C         C    488          0     12.011   ; qtot 0
   489         CJ      0    C         C    489          0     12.011   ; qtot 0
   490         CJ      0    C         C    490          0     12.011   ; qtot 0
   491         CJ      0    C         C    491          0     12.011   ; qtot 0
   492         CJ      0    C         C    492          0     12.011   ; qtot 0
   493         CJ      0    C         C    493          0     12.011   ; qtot 0
   494         CJ      0    C         C    494          0     12.011   ; qtot 0
   495         CJ      0    C         C    495          0     12.011   ; qtot 0
   496         CJ      0    C         C    496          0     12.011   ; qtot 0
   497         CJ      0    C         C    497          0     12.011   ; qtot 0
   498         CJ      0    C         C    498          0     12.011   ; qtot 0
   499         CJ      0    C         C    499          0     12.011   ; qtot 0
   500         CJ      0    C         C    500     -0.160     12.011   ; qtot 0
   501         CJ      0    C         C    501      0.130     12.011   ; qtot 0
   502         CJ      0    C         C    502          0     12.011   ; qtot 0
   503         CJ      0    C         C    503          0     12.011   ; qtot 0
   504         CJ      0    C         C    504          0     12.011   ; qtot 0
   505         CJ      0    C         C    505          0     12.011   ; qtot 0
   506         CJ      0    C         C    506          0     12.011   ; qtot 0
   507         CJ      0    C         C    507          0     12.011   ; qtot 0
   508         CJ      0    C         C    508          0     12.011   ; qtot 0
   509         CJ      0    C         C    509          0     12.011   ; qtot 0
   510         CJ      0    C         C    510          0     12.011   ; qtot 0
   511         CJ      0    C         C    511          0     12.011   ; qtot 0
   512         CJ      0    C         C    512          0     12.011   ; qtot 0
   513         CJ      0    C         C    513          0     12.011   ; qtot 0
   514         CJ      0    C         C    514          0     12.011   ; qtot 0
   515         CJ      0    C         C    515          0     12.011   ; qtot 0
   516         CJ      0    C         C    516          0     12.011   ; qtot 0
   517         CJ      0    C         C    517          0     12.011   ; qtot 0
   518         CJ      0    C         C    518          0     12.011   ; qtot 0
   519         CJ      0    C         C    519          0     12.011   ; qtot 0
   520         CJ      0    C         C    520          0     12.011   ; qtot 0
   521         CJ      0    C         C    521          0     12.011   ; qtot 0
   522         CJ      0    C         C    522          0     12.011   ; qtot 0
   523         CJ      0    C         C    523          0     12.011   ; qtot 0
   524         CJ      0    C         C    524          0     12.011   ; qtot 0
   525         CJ      0    C         C    525          0     12.011   ; qtot 0
   526         CJ      0    C         C    526          0     12.011   ; qtot 0
   527         CJ      0    C         C    527          0     12.011   ; qtot 0
   528         CJ      0    C         C    528          0     12.011   ; qtot 0
   529         CJ      0    C         C    529          0     12.011   ; qtot 0
   530         CJ      0    C         C    530          0     12.011   ; qtot 0
   531         CJ      0    C         C    531          0     12.011   ; qtot 0
   532         CJ      0    C         C    532          0     12.011   ; qtot 0
   533         CJ      0    C         C    533     -0.160     12.011   ; qtot 0
   534         CJ      0    C         C    534     -0.160     12.011   ; qtot 0
   535         CJ      0    C         C    535     -0.160     12.011   ; qtot 0
   536         CJ      0    C         C    536          0     12.011   ; qtot 0
   537         CJ      0    C         C    537          0     12.011   ; qtot 0
   538         CJ      0    C         C    538          0     12.011   ; qtot 0
   539         CJ      0    C         C    539          0     12.011   ; qtot 0
   540         CJ      0    C         C    540          0     12.011   ; qtot 0
   541         CJ      0    C         C    541          0     12.011   ; qtot 0
   542         CJ      0    C         C    542          0     12.011   ; qtot 0
   543         CJ      0    C         C    543          0     12.011   ; qtot 0
   544         CJ      0    C         C    544          0     12.011   ; qtot 0
   545         CJ      0    C         C    545          0     12.011   ; qtot 0
   546         CJ      0    C         C    546          0     12.011   ; qtot 0
   547         CJ      0    C         C    547          0     12.011   ; qtot 0
   548         CJ      0    C         C    548          0     12.011   ; qtot 0
   549         CJ      0    C         C    549          0     12.011   ; qtot 0
   550         CJ      0    C         C    550          0     12.011   ; qtot 0
   551         CJ      0    C         C    551          0     12.011   ; qtot 0
   552         CJ      0    C         C    552          0     12.011   ; qtot 0
   553         CJ      0    C         C    553          0     12.011   ; qtot 0
   554         CJ      0    C         C    554          0     12.011   ; qtot 0
   555         CJ      0    C         C    555          0     12.011   ; qtot 0
   556         CJ      0    C         C    556          0     12.011   ; qtot 0
   557         CJ      0    C         C    557          0     12.011   ; qtot 0
   558         CJ      0    C         C    558          0     12.011   ; qtot 0
   559         CJ      0    C         C    559          0     12.011   ; qtot 0
   560         CJ      0    C         C    560          0     12.011   ; qtot 0
   561         CJ      0    C         C    561          0     12.011   ; qtot 0
   562         CJ      0    C         C    562          0     12.011   ; qtot 0
   563         CJ      0    C         C    563          0     12.011   ; qtot 0
   564         CJ      0    C         C    564          0     12.011   ; qtot 0
   565         CJ      0    C         C    565          0     12.011   ; qtot 0
   566         CJ      0    C         C    566      0.130     12.011   ; qtot 0
   567         CJ      0    C         C    567     -0.180     12.011   ; qtot 0
   568         CJ      0    C         C    568     -0.180     12.011   ; qtot 0
   569         CJ      0    C         C    569          0     12.011   ; qtot 0
   570         CJ      0    C         C    570          0     12.011   ; qtot 0
   571         CJ      0    C         C    571          0     12.011   ; qtot 0
   572         CJ      0    C         C    572          0     12.011   ; qtot 0
   573         CJ      0    C         C    573          0     12.011   ; qtot 0
   574         CJ      0    C         C    574          0     12.011   ; qtot 0
   575         CJ      0    C         C    575          0     12.011   ; qtot 0
   576         CJ      0    C         C    576          0     12.011   ; qtot 0
   577         CJ      0    C         C    577          0     12.011   ; qtot 0
   578         CJ      0    C         C    578          0     12.011   ; qtot 0
   579         CJ      0    C         C    579          0     12.011   ; qtot 0
   580         CJ      0    C         C    580          0     12.011   ; qtot 0
   581         CJ      0    C         C    581          0     12.011   ; qtot 0
   582         CJ      0    C         C    582          0     12.011   ; qtot 0
   583         CJ      0    C         C    583          0     12.011   ; qtot 0
   584         CJ      0    C         C    584          0     12.011   ; qtot 0
   585         CJ      0    C         C    585          0     12.011   ; qtot 0
   586         CJ      0    C         C    586          0     12.011   ; qtot 0
   587         CJ      0    C         C    587          0     12.011   ; qtot 0
   588         CJ      0    C         C    588          0     12.011   ; qtot 0
   589         CJ      0    C         C    589          0     12.011   ; qtot 0
   590         CJ      0    C         C    590          0     12.011   ; qtot 0
   591         CJ      0    C         C    591          0     12.011   ; qtot 0
   592         CJ      0    C         C    592          0     12.011   ; qtot 0
   593         CJ      0    C         C    593          0     12.011   ; qtot 0
   594         CJ      0    C         C    594          0     12.011   ; qtot 0
   595         CJ      0    C         C    595          0     12.011   ; qtot 0
   596         CJ      0    C         C    596          0     12.011   ; qtot 0
   597         CJ      0    C         C    597          0     12.011   ; qtot 0
   598         CJ      0    C         C    598          0     12.011   ; qtot 0
   599         CJ      0    C         C    599          0     12.011   ; qtot 0
   600         CJ      0    C         C    600     -0.160     12.011   ; qtot 0
   601         CJ      0    C         C    601      0.130     12.011   ; qtot 0
   602         CJ      0    C         C    602          0     12.011   ; qtot 0
   603         CJ      0    C         C    603          0     12.011   ; qtot 0
   604         CJ      0    C         C    604          0     12.011   ; qtot 0
   605         CJ      0    C         C    605          0     12.011   ; qtot 0
   606         CJ      0    C         C    606          0     12.011   ; qtot 0
   607         CJ      0    C         C    607          0     12.011   ; qtot 0
   608         CJ      0    C         C    608          0     12.011   ; qtot 0
   609         CJ      0    C         C    609          0     12.011   ; qtot 0
   610         CJ      0    C         C    610          0     12.011   ; qtot 0
   611         CJ      0    C         C    611          0     12.011   ; qtot 0
   612         CJ      0    C         C    612          0     12.011   ; qtot 0
   613         CJ      0    C         C    613          0     12.011   ; qtot 0
   614         CJ      0    C         C    614          0     12.011   ; qtot 0
   615         CJ      0    C         C    615          0     12.011   ; qtot 0
   616         CJ      0    C         C    616          0     12.011   ; qtot 0
   617         CJ      0    C         C    617          0     12.011   ; qtot 0
   618         CJ      0    C         C    618          0     12.011   ; qtot 0
   619         CJ      0    C         C    619          0     12.011   ; qtot 0
   620         CJ      0    C         C    620          0     12.011   ; qtot 0
   621         CJ      0    C         C    621          0     12.011   ; qtot 0
   622         CJ      0    C         C    622          0     12.011   ; qtot 0
   623         CJ      0    C         C    623          0     12.011   ; qtot 0
   624         CJ      0    C         C    624          0     12.011   ; qtot 0
   625         CJ      0    C         C    625          0     12.011   ; qtot 0
   626         CJ      0    C         C    626          0     12.011   ; qtot 0
   627         CJ      0    C         C    627          0     12.011   ; qtot 0
   628         CJ      0    C         C    628          0     12.011   ; qtot 0
   629         CJ      0    C         C    629          0     12.011   ; qtot 0
   630         CJ      0    C         C    630          0     12.011   ; qtot 0
   631         CJ      0    C         C    631          0     12.011   ; qtot 0
   632         CJ      0    C         C    632          0     12.011   ; qtot 0
   633         CJ      0    C         C    633     -0.160     12.011   ; qtot 0
   634         CJ      0    C         C    634     -0.160     12.011   ; qtot 0
   635         CJ      0    C         C    635     -0.160     12.011   ; qtot 0
   636         CJ      0    C         C    636          0     12.011   ; qtot 0
   637         CJ      0    C         C    637          0     12.011   ; qtot 0
   638         CJ      0    C         C    638          0     12.011   ; qtot 0
   639         CJ      0    C         C    639          0     12.011   ; qtot 0
   640         CJ      0    C         C    640          0     12.011   ; qtot 0
   641         CJ      0    C         C    641          0     12.011   ; qtot 0
   642         CJ      0    C         C    642          0     12.011   ; qtot 0
   643         CJ      0    C         C    643          0     12.011   ; qtot 0
   644         CJ      0    C         C    644          0     12.011   ; qtot 0
   645         CJ      0    C         C    645          0     12.011   ; qtot 0
   646         CJ      0    C         C    646          0     12.011   ; qtot 0
   647         CJ      0    C         C    647          0     12.011   ; qtot 0
   648         CJ      0    C         C    648          0     12.011   ; qtot 0
   649         CJ      0    C         C    649          0     12.011   ; qtot 0
   650         CJ      0    C         C    650          0     12.011   ; qtot 0
   651         CJ      0    C         C    651          0     12.011   ; qtot 0
   652         CJ      0    C         C    652          0     12.011   ; qtot 0
   653         CJ      0    C         C    653          0     12.011   ; qtot 0
   654         CJ      0    C         C    654          0     12.011   ; qtot 0
   655         CJ      0    C         C    655          0     12.011   ; qtot 0
   656         CJ      0    C         C    656          0     12.011   ; qtot 0
   657         CJ      0    C         C    657          0     12.011   ; qtot 0
   658         CJ      0    C         C    658          0     12.011   ; qtot 0
   659         CJ      0    C         C    659          0     12.011   ; qtot 0
   660         CJ      0    C         C    660          0     12.011   ; qtot 0
   661         CJ      0    C         C    661          0     12.011   ; qtot 0
   662         CJ      0    C         C    662          0     12.011   ; qtot 0
   663         CJ      0    C         C    663          0     12.011   ; qtot 0
   664         CJ      0    C         C    664          0     12.011   ; qtot 0
   665         CJ      0    C         C    665          0     12.011   ; qtot 0
   666         CJ      0    C         C    666     -0.160     12.011   ; qtot 0
   667         CJ      0    C         C    667     -0.160     12.011   ; qtot 0
   668         CJ      0    C         C    668          0     12.011   ; qtot 0
   669         CJ      0    C         C    669          0     12.011   ; qtot 0
   670         CJ      0    C         C    670          0     12.011   ; qtot 0
   671         CJ      0    C         C    671          0     12.011   ; qtot 0
   672         CJ      0    C         C    672          0     12.011   ; qtot 0
   673         CJ      0    C         C    673          0     12.011   ; qtot 0
   674         CJ      0    C         C    674          0     12.011   ; qtot 0
   675         CJ      0    C         C    675          0     12.011   ; qtot 0
   676         CJ      0    C         C    676          0     12.011   ; qtot 0
   677         CJ      0    C         C    677          0     12.011   ; qtot 0
   678         CJ      0    C         C    678          0     12.011   ; qtot 0
   679         CJ      0    C         C    679          0     12.011   ; qtot 0
   680         CJ      0    C         C    680          0     12.011   ; qtot 0
   681         CJ      0    C         C    681          0     12.011   ; qtot 0
   682         CJ      0    C         C    682          0     12.011   ; qtot 0
   683         CJ      0    C         C    683          0     12.011   ; qtot 0
   684         CJ      0    C         C    684          0     12.011   ; qtot 0
   685         CJ      0    C         C    685          0     12.011   ; qtot 0
   686         CJ      0    C         C    686          0     12.011   ; qtot 0
   687         CJ      0    C         C    687          0     12.011   ; qtot 0
   688         CJ      0    C         C    688          0     12.011   ; qtot 0
   689         CJ      0    C         C    689          0     12.011   ; qtot 0
   690         CJ      0    C         C    690          0     12.011   ; qtot 0
   691         CJ      0    C         C    691          0     12.011   ; qtot 0
   692         CJ      0    C         C    692          0     12.011   ; qtot 0
   693         CJ      0    C         C    693          0     12.011   ; qtot 0
   694         CJ      0    C         C    694     -0.160     12.011   ; qtot 0
   695         CJ      0    C         C    695          0     12.011   ; qtot 0
   696         CJ      0    C         C    696          0     12.011   ; qtot 0
   697         CJ      0    C         C    697          0     12.011   ; qtot 0
   698         CJ      0    C         C    698          0     12.011   ; qtot 0
   699         CJ      0    C         C    699          0     12.011   ; qtot 0
   700         CJ      0    C         C    700          0     12.011   ; qtot 0
   701         CJ      0    C         C    701          0     12.011   ; qtot 0
   702         CJ      0    C         C    702          0     12.011   ; qtot 0
   703         CJ      0    C         C    703          0     12.011   ; qtot 0
   704         CJ      0    C         C    704          0     12.011   ; qtot 0
   705         CJ      0    C         C    705          0     12.011   ; qtot 0
   706         CJ      0    C         C    706          0     12.011   ; qtot 0
   707         CJ      0    C         C    707          0     12.011   ; qtot 0
   708         CJ      0    C         C    708          0     12.011   ; qtot 0
   709         CJ      0    C         C    709          0     12.011   ; qtot 0
   710         CJ      0    C         C    710          0     12.011   ; qtot 0
   711         CJ      0    C         C    711          0     12.011   ; qtot 0
   712         CJ      0    C         C    712          0     12.011   ; qtot 0
   713         CJ      0    C         C    713          0     12.011   ; qtot 0
   714         CJ      0    C         C    714          0     12.011   ; qtot 0
   715         CJ      0    C         C    715          0     12.011   ; qtot 0
   716         CJ      0    C         C    716      0.130     12.011   ; qtot 0
   717         CJ      0    C         C    717     -0.180     12.011   ; qtot 0
   718         CJ      0    C         C    718          0     12.011   ; qtot 0
   719         CJ      0    C         C    719          0     12.011   ; qtot 0
   720         CJ      0    C         C    720          0     12.011   ; qtot 0
   721         CJ      0    C         C    721          0     12.011   ; qtot 0
   722         CJ      0    C         C    722          0     12.011   ; qtot 0
   723         CJ      0    C         C    723          0     12.011   ; qtot 0
   724         CJ      0    C         C    724          0     12.011   ; qtot 0
   725         CJ      0    C         C    725          0     12.011   ; qtot 0
   726         CJ      0    C         C    726          0     12.011   ; qtot 0
   727         CJ      0    C         C    727          0     12.011   ; qtot 0
   728         CJ      0    C         C    728          0     12.011   ; qtot 0
   729         CJ      0    C         C    729          0     12.011   ; qtot 0
   730         CJ      0    C         C    730          0     12.011   ; qtot 0
   731         CJ      0    C         C    731          0     12.011   ; qtot 0
   732         CJ      0    C         C    732          0     12.011   ; qtot 0
   733         CJ      0    C         C    733     -0.160     12.011   ; qtot 0
   734         CJ      0    C         C    734          0     12.011   ; qtot 0
   735         CJ      0    C         C    735          0     12.011   ; qtot 0
   736         CJ      0    C         C    736          0     12.011   ; qtot 0
   737         CJ      0    C         C    737          0     12.011   ; qtot 0
   738         CJ      0    C         C    738          0     12.011   ; qtot 0
   739         CJ      0    C         C    739          0     12.011   ; qtot 0
   740         CJ      0    C         C    740          0     12.011   ; qtot 0
   741         CJ      0    C         C    741          0     12.011   ; qtot 0
   742         CJ      0    C         C    742          0     12.011   ; qtot 0
   743         CJ      0    C         C    743          0     12.011   ; qtot 0
   744         CJ      0    C         C    744     -0.160     12.011   ; qtot 0
   745         CJ      0    C         C    745          0     12.011   ; qtot 0
   746         CJ      0    C         C    746          0     12.011   ; qtot 0
   747         CJ      0    C         C    747          0     12.011   ; qtot 0
   748         CJ      0    C         C    748          0     12.011   ; qtot 0
   749         CJ      0    C         C    749          0     12.011   ; qtot 0
   750         CJ      0    C         C    750     -0.180     12.011   ; qtot 0
   751         OA      0    C         O    751     -0.580    15.9994   ; qtot 0
   752          H      0    C         H    752      0.450      1.008   ; qtot 0
   753         OA      0    C         O    753     -0.580    15.9994   ; qtot 0
   754          H      0    C         H    754      0.450      1.008   ; qtot 0
   755         OA      0    C         O    755     -0.580    15.9994   ; qtot 0
   756          H      0    C         H    756      0.450      1.008   ; qtot 0
   757         OA      0    C         O    757     -0.580    15.9994   ; qtot 0
   758          H      0    C         H    758      0.450      1.008   ; qtot 0
   759         OA      0    C         O    759     -0.580    15.9994   ; qtot 0
   760          H      0    C         H    760      0.450      1.008   ; qtot 0
   761         OA      0    C         O    761     -0.580    15.9994   ; qtot 0
   762          H      0    C         H    762      0.450      1.008   ; qtot 0
   763         OA      0    C         O    763     -0.580    15.9994   ; qtot 0
   764          H      0    C         H    764      0.450      1.008   ; qtot 0
   765         OA      0    C         O    765     -0.580    15.9994   ; qtot 0
   766          H      0    C         H    766      0.450      1.008   ; qtot 0
   767         OA      0    C         O    767     -0.580    15.9994   ; qtot 0
   768          H      0    C         H    768      0.450      1.008   ; qtot 0
   769         OA      0    C         O    769     -0.580    15.9994   ; qtot 0
   770          H      0    C         H    770      0.450      1.008   ; qtot 0
   771         OA      0    C         O    771     -0.580    15.9994   ; qtot 0
   772          H      0    C         H    772      0.450      1.008   ; qtot 0
   773         OA      0    C         O    773     -0.580    15.9994   ; qtot 0
   774          H      0    C         H    774      0.450      1.008   ; qtot 0
   775         OA      0    C         O    775     -0.580    15.9994   ; qtot 0
   776          H      0    C         H    776      0.450      1.008   ; qtot 0
   777         OA      0    C         O    777     -0.580    15.9994   ; qtot 0
   778          H      0    C         H    778      0.450      1.008   ; qtot 0
   779         HC      0    C         H    779      0.160      1.008   ; qtot 0
   780         HC      0    C         H    780      0.160      1.008   ; qtot 0
   781         HC      0    C         H    781      0.180      1.008   ; qtot 0
   782         HC      0    C         H    782      0.160      1.008   ; qtot 0
   783         HC      0    C         H    783      0.160      1.008   ; qtot 0
   784         HC      0    C         H    784      0.180      1.008   ; qtot 0
   785         HC      0    C         H    785      0.160      1.008   ; qtot 0
   786         HC      0    C         H    786      0.160      1.008   ; qtot 0
   787         HC      0    C         H    787      0.180      1.008   ; qtot 0
   788         HC      0    C         H    788      0.160      1.008   ; qtot 0
   789         HC      0    C         H    789      0.160      1.008   ; qtot 0
   790         HC      0    C         H    790      0.180      1.008   ; qtot 0
   791         HC      0    C         H    791      0.160      1.008   ; qtot 0
   792         HC      0    C         H    792      0.160      1.008   ; qtot 0
   793         HC      0    C         H    793      0.180      1.008   ; qtot 0
   794         HC      0    C         H    794      0.160      1.008   ; qtot 0
   795         HC      0    C         H    795      0.160      1.008   ; qtot 0
   796         HC      0    C         H    796      0.180      1.008   ; qtot 0
   797         HC      0    C         H    797      0.160      1.008   ; qtot 0
   798         HC      0    C         H    798      0.160      1.008   ; qtot 0
   799         HC      0    C         H    799      0.180      1.008   ; qtot 0
   800         HC      0    C         H    800      0.160      1.008   ; qtot 0
   801         HC      0    C         H    801      0.160      1.008   ; qtot 0
   802         HC      0    C         H    802      0.180      1.008   ; qtot 0
   803         HC      0    C         H    803      0.160      1.008   ; qtot 0
   804         HC      0    C         H    804      0.160      1.008   ; qtot 0
   805         HC      0    C         H    805      0.160      1.008   ; qtot 0
   806         HC      0    C         H    806      0.160      1.008   ; qtot 0
   807         HC      0    C         H    807      0.180      1.008   ; qtot 0
   808         HC      0    C         H    808      0.180      1.008   ; qtot 0
   809         HC      0    C         H    809      0.160      1.008   ; qtot 0
   810         HC      0    C         H    810      0.160      1.008   ; qtot 0
   811         HC      0    C         H    811      0.180      1.008   ; qtot 0
   812         HC      0    C         H    812      0.160      1.008   ; qtot 0
   813         HC      0    C         H    813      0.160      1.008   ; qtot 0
   814         HC      0    C         H    814      0.180      1.008   ; qtot 0
   815         HC      0    C         H    815      0.160      1.008   ; qtot 0
   816         HC      0    C         H    816      0.180      1.008   ; qtot 0
   817         HC      0    C         H    817      0.160      1.008   ; qtot 0
   818         HC      0    C         H    818      0.160      1.008   ; qtot 0
   819         HC      0    C         H    819      0.160      1.008   ; qtot 0
   820         HC      0    C         H    820      0.160      1.008   ; qtot 0
   821         HC      0    C         H    821      0.160      1.008   ; qtot 0
   822         HC      0    C         H    822      0.180      1.008   ; qtot 0
   823         HC      0    C         H    823      0.160      1.008   ; qtot 0
   824         HC      0    C         H    824      0.160      1.008   ; qtot 0

[ bonds ]
;  ai    aj funct            c0            c1            c2            c3
    1     2     2  1.420000e-01  6.5389e+06  1.420000e-01  6.5389e+06 
    1     8     2  1.410000e-01  6.5389e+06  1.410000e-01  6.5389e+06 
    1   664     2  1.430000e-01  6.5389e+06  1.430000e-01  6.5389e+06 
    2     3     2  1.410000e-01  6.5389e+06  1.410000e-01  6.5389e+06 
    2    10     2  1.430000e-01  6.5389e+06  1.430000e-01  6.5389e+06 
    3   666     2  1.390000e-01  8.6600e+06  1.390000e-01  8.6600e+06 
    3   818     2  1.080000e-01  1.2100e+07  1.080000e-01  1.2100e+07 
    4     5     2  1.410000e-01  6.5389e+06  1.410000e-01  6.5389e+06 
    4    17     2  1.410000e-01  6.5389e+06  1.410000e-01  6.5389e+06 
    4   691     2  1.410000e-01  6.5389e+06  1.410000e-01  6.5389e+06 
    5     6     2  1.410000e-01  6.5389e+06  1.410000e-01  6.5389e+06 
    5    19     2  1.410000e-01  6.5389e+06  1.410000e-01  6.5389e+06 
    6     8     2  1.410000e-01  6.5389e+06  1.410000e-01  6.5389e+06 
    6   693     2  1.410000e-01  6.5389e+06  1.410000e-01  6.5389e+06 
    7     8     2  1.410000e-01  6.5389e+06  1.410000e-01  6.5389e+06 
    7     9     2  1.410000e-01  6.5389e+06  1.410000e-01  6.5389e+06 
    7    21     2  1.410000e-01  6.5389e+06  1.410000e-01  6.5389e+06 
    9    10     2  1.420000e-01  6.5389e+06  1.420000e-01  6.5389e+06 
    9    23     2  1.420000e-01  6.5389e+06  1.420000e-01  6.5389e+06 
   10    12     2  1.420000e-01  6.5389e+06  1.420000e-01  6.5389e+06 
   11    12     2  1.400000e-01  8.6600e+06  1.400000e-01  8.6600e+06 
   11    25     2  1.410000e-01  8.5400e+06  1.410000e-01  8.5400e+06 
   11   816     2  1.080000e-01  1.2100e+07  1.080000e-01  1.2100e+07 
   12   775     2  1.400000e-01  1.1000e+07  1.400000e-01  1.1000e+07 
   13    14     2  1.410000e-01  6.5389e+06  1.410000e-01  6.5389e+06 
   13    31     2  1.410000e-01  6.5389e+06  1.410000e-01  6.5389e+06 
   13   713     2  1.410000e-01  6.5389e+06  1.410000e-01  6.5389e+06 
   14    15     2  1.410000e-01  6.5389e+06  1.410000e-01  6.5389e+06 
   14    33     2  1.410000e-01  6.5389e+06  1.410000e-01  6.5389e+06 
   15    17     2  1.410000e-01  6.5389e+06  1.410000e-01  6.5389e+06 
   15   715     2  1.410000e-01  6.5389e+06  1.410000e-01  6.5389e+06 
   16    17     2  1.410000e-01  6.5389e+06  1.410000e-01  6.5389e+06 
   16    18     2  1.410000e-01  6.5389e+06  1.410000e-01  6.5389e+06 
   16    35     2  1.410000e-01  6.5389e+06  1.410000e-01  6.5389e+06 
   18    19     2  1.410000e-01  6.5389e+06  1.410000e-01  6.5389e+06 
   18    37     2  1.410000e-01  6.5389e+06  1.410000e-01  6.5389e+06 
   19    21     2  1.410000e-01  6.5389e+06  1.410000e-01  6.5389e+06 
   20    21     2  1.410000e-01  6.5389e+06  1.410000e-01  6.5389e+06 
   20    22     2  1.410000e-01  6.5389e+06  1.410000e-01  6.5389e+06 
   20    39     2  1.410000e-01  6.5389e+06  1.410000e-01  6.5389e+06 
   22    23     2  1.410000e-01  6.5389e+06  1.410000e-01  6.5389e+06 
   22    41     2  1.410000e-01  6.5389e+06  1.410000e-01  6.5389e+06 
   23    25     2  1.410000e-01  6.5389e+06  1.410000e-01  6.5389e+06 
   24    25     2  1.430000e-01  6.5389e+06  1.430000e-01  6.5389e+06 
   24    26     2  1.410000e-01  6.5389e+06  1.410000e-01  6.5389e+06 
   24    43     2  1.420000e-01  6.5389e+06  1.420000e-01  6.5389e+06 
   26    45     2  1.390000e-01  8.6600e+06  1.390000e-01  8.6600e+06 
   26   817     2  1.080000e-01  1.2100e+07  1.080000e-01  1.2100e+07 
   27    28     2  1.410000e-01  6.5389e+06  1.410000e-01  6.5389e+06 
   27    50     2  1.410000e-01  6.5389e+06  1.410000e-01  6.5389e+06 
   27   730     2  1.410000e-01  6.5389e+06  1.410000e-01  6.5389e+06 
   28    29     2  1.410000e-01  6.5389e+06  1.410000e-01  6.5389e+06 
   28    52     2  1.410000e-01  6.5389e+06  1.410000e-01  6.5389e+06 
   29    31     2  1.410000e-01  6.5389e+06  1.410000e-01  6.5389e+06 
   29   732     2  1.410000e-01  6.5389e+06  1.410000e-01  6.5389e+06 
   30    31     2  1.410000e-01  6.5389e+06  1.410000e-01  6.5389e+06 
   30    32     2  1.410000e-01  6.5389e+06  1.410000e-01  6.5389e+06 
   30    54     2  1.410000e-01  6.5389e+06  1.410000e-01  6.5389e+06 
   32    33     2  1.410000e-01  6.5389e+06  1.410000e-01  6.5389e+06 
   32    56     2  1.410000e-01  6.5389e+06  1.410000e-01  6.5389e+06 
   33    35     2  1.410000e-01  6.5389e+06  1.410000e-01  6.5389e+06 
   34    35     2  1.410000e-01  6.5389e+06  1.410000e-01  6.5389e+06 
   34    36     2  1.410000e-01  6.5389e+06  1.410000e-01  6.5389e+06 
   34    58     2  1.410000e-01  6.5389e+06  1.410000e-01  6.5389e+06 
   36    37     2  1.410000e-01  6.5389e+06  1.410000e-01  6.5389e+06 
   36    60     2  1.410000e-01  6.5389e+06  1.410000e-01  6.5389e+06 
   37    39     2  1.410000e-01  6.5389e+06  1.410000e-01  6.5389e+06 
   38    39     2  1.410000e-01  6.5389e+06  1.410000e-01  6.5389e+06 
   38    40     2  1.410000e-01  6.5389e+06  1.410000e-01  6.5389e+06 
   38    62     2  1.410000e-01  6.5389e+06  1.410000e-01  6.5389e+06 
   40    41     2  1.410000e-01  6.5389e+06  1.410000e-01  6.5389e+06 
   40    64     2  1.410000e-01  6.5389e+06  1.410000e-01  6.5389e+06 
   41    43     2  1.410000e-01  6.5389e+06  1.410000e-01  6.5389e+06 
   42    43     2  1.420000e-01  6.5389e+06  1.420000e-01  6.5389e+06 
   42    44     2  1.420000e-01  6.5389e+06  1.420000e-01  6.5389e+06 
   42    66     2  1.410000e-01  6.5389e+06  1.410000e-01  6.5389e+06 
   44    45     2  1.410000e-01  6.5389e+06  1.410000e-01  6.5389e+06 
   44    68     2  1.430000e-01  6.5389e+06  1.430000e-01  6.5389e+06 
   45   815     2  1.080000e-01  1.2100e+07  1.080000e-01  1.2100e+07 
   46    47     2  1.410000e-01  6.5389e+06  1.410000e-01  6.5389e+06 
   46    75     2  1.410000e-01  6.5389e+06  1.410000e-01  6.5389e+06 
   46   741     2  1.410000e-01  6.5389e+06  1.410000e-01  6.5389e+06 
   47    48     2  1.410000e-01  6.5389e+06  1.410000e-01  6.5389e+06 
   47    77     2  1.410000e-01  6.5389e+06  1.410000e-01  6.5389e+06 
   48    50     2  1.410000e-01  6.5389e+06  1.410000e-01  6.5389e+06 
   48   743     2  1.410000e-01  6.5389e+06  1.410000e-01  6.5389e+06 
   49    50     2  1.410000e-01  6.5389e+06  1.410000e-01  6.5389e+06 
   49    51     2  1.410000e-01  6.5389e+06  1.410000e-01  6.5389e+06 
   49    79     2  1.410000e-01  6.5389e+06  1.410000e-01  6.5389e+06 
   51    52     2  1.410000e-01  6.5389e+06  1.410000e-01  6.5389e+06 
   51    81     2  1.410000e-01  6.5389e+06  1.410000e-01  6.5389e+06 
   52    54     2  1.410000e-01  6.5389e+06  1.410000e-01  6.5389e+06 
   53    54     2  1.410000e-01  6.5389e+06  1.410000e-01  6.5389e+06 
   53    55     2  1.410000e-01  6.5389e+06  1.410000e-01  6.5389e+06 
   53    83     2  1.410000e-01  6.5389e+06  1.410000e-01  6.5389e+06 
   55    56     2  1.410000e-01  6.5389e+06  1.410000e-01  6.5389e+06 
   55    85     2  1.410000e-01  6.5389e+06  1.410000e-01  6.5389e+06 
   56    58     2  1.410000e-01  6.5389e+06  1.410000e-01  6.5389e+06 
   57    58     2  1.410000e-01  6.5389e+06  1.410000e-01  6.5389e+06 
   57    59     2  1.410000e-01  6.5389e+06  1.410000e-01  6.5389e+06 
   57    87     2  1.410000e-01  6.5389e+06  1.410000e-01  6.5389e+06 
   59    60     2  1.410000e-01  6.5389e+06  1.410000e-01  6.5389e+06 
   59    89     2  1.410000e-01  6.5389e+06  1.410000e-01  6.5389e+06 
   60    62     2  1.410000e-01  6.5389e+06  1.410000e-01  6.5389e+06 
   61    62     2  1.410000e-01  6.5389e+06  1.410000e-01  6.5389e+06 
   61    63     2  1.410000e-01  6.5389e+06  1.410000e-01  6.5389e+06 
   61    91     2  1.410000e-01  6.5389e+06  1.410000e-01  6.5389e+06 
   63    64     2  1.410000e-01  6.5389e+06  1.410000e-01  6.5389e+06 
   63    93     2  1.410000e-01  6.5389e+06  1.410000e-01  6.5389e+06 
   64    66     2  1.410000e-01  6.5389e+06  1.410000e-01  6.5389e+06 
   65    66     2  1.410000e-01  6.5389e+06  1.410000e-01  6.5389e+06 
   65    67     2  1.410000e-01  6.5389e+06  1.410000e-01  6.5389e+06 
   65    95     2  1.410000e-01  6.5389e+06  1.410000e-01  6.5389e+06 
   67    68     2  1.420000e-01  6.5389e+06  1.420000e-01  6.5389e+06 
   67    97     2  1.420000e-01  6.5389e+06  1.420000e-01  6.5389e+06 
   68    70     2  1.420000e-01  6.5389e+06  1.420000e-01  6.5389e+06 
   69    70     2  1.400000e-01  8.6600e+06  1.400000e-01  8.6600e+06 
   69    99     2  1.410000e-01  8.5400e+06  1.410000e-01  8.5400e+06 
   69   814     2  1.080000e-01  1.2100e+07  1.080000e-01  1.2100e+07 
   70   773     2  1.400000e-01  1.1000e+07  1.400000e-01  1.1000e+07 
   71    72     2  1.410000e-01  6.5389e+06  1.410000e-01  6.5389e+06 
   71   103     2  1.420000e-01  6.5389e+06  1.420000e-01  6.5389e+06 
   71   747     2  1.420000e-01  6.5389e+06  1.420000e-01  6.5389e+06 
   72    73     2  1.410000e-01  6.5389e+06  1.410000e-01  6.5389e+06 
   72   105     2  1.410000e-01  6.5389e+06  1.410000e-01  6.5389e+06 
   73    75     2  1.410000e-01  6.5389e+06  1.410000e-01  6.5389e+06 
   73   749     2  1.410000e-01  6.5389e+06  1.410000e-01  6.5389e+06 
   74    75     2  1.410000e-01  6.5389e+06  1.410000e-01  6.5389e+06 
   74    76     2  1.410000e-01  6.5389e+06  1.410000e-01  6.5389e+06 
   74   107     2  1.410000e-01  6.5389e+06  1.410000e-01  6.5389e+06 
   76    77     2  1.410000e-01  6.5389e+06  1.410000e-01  6.5389e+06 
   76   109     2  1.410000e-01  6.5389e+06  1.410000e-01  6.5389e+06 
   77    79     2  1.410000e-01  6.5389e+06  1.410000e-01  6.5389e+06 
   78    79     2  1.410000e-01  6.5389e+06  1.410000e-01  6.5389e+06 
   78    80     2  1.410000e-01  6.5389e+06  1.410000e-01  6.5389e+06 
   78   111     2  1.410000e-01  6.5389e+06  1.410000e-01  6.5389e+06 
   80    81     2  1.410000e-01  6.5389e+06  1.410000e-01  6.5389e+06 
   80   113     2  1.410000e-01  6.5389e+06  1.410000e-01  6.5389e+06 
   81    83     2  1.410000e-01  6.5389e+06  1.410000e-01  6.5389e+06 
   82    83     2  1.410000e-01  6.5389e+06  1.410000e-01  6.5389e+06 
   82    84     2  1.410000e-01  6.5389e+06  1.410000e-01  6.5389e+06 
   82   115     2  1.410000e-01  6.5389e+06  1.410000e-01  6.5389e+06 
   84    85     2  1.410000e-01  6.5389e+06  1.410000e-01  6.5389e+06 
   84   117     2  1.410000e-01  6.5389e+06  1.410000e-01  6.5389e+06 
   85    87     2  1.410000e-01  6.5389e+06  1.410000e-01  6.5389e+06 
   86    87     2  1.410000e-01  6.5389e+06  1.410000e-01  6.5389e+06 
   86    88     2  1.410000e-01  6.5389e+06  1.410000e-01  6.5389e+06 
   86   119     2  1.410000e-01  6.5389e+06  1.410000e-01  6.5389e+06 
   88    89     2  1.410000e-01  6.5389e+06  1.410000e-01  6.5389e+06 
   88   121     2  1.410000e-01  6.5389e+06  1.410000e-01  6.5389e+06 
   89    91     2  1.410000e-01  6.5389e+06  1.410000e-01  6.5389e+06 
   90    91     2  1.410000e-01  6.5389e+06  1.410000e-01  6.5389e+06 
   90    92     2  1.410000e-01  6.5389e+06  1.410000e-01  6.5389e+06 
   90   123     2  1.410000e-01  6.5389e+06  1.410000e-01  6.5389e+06 
   92    93     2  1.410000e-01  6.5389e+06  1.410000e-01  6.5389e+06 
   92   125     2  1.410000e-01  6.5389e+06  1.410000e-01  6.5389e+06 
   93    95     2  1.410000e-01  6.5389e+06  1.410000e-01  6.5389e+06 
   94    95     2  1.410000e-01  6.5389e+06  1.410000e-01  6.5389e+06 
   94    96     2  1.410000e-01  6.5389e+06  1.410000e-01  6.5389e+06 
   94   127     2  1.410000e-01  6.5389e+06  1.410000e-01  6.5389e+06 
   96    97     2  1.410000e-01  6.5389e+06  1.410000e-01  6.5389e+06 
   96   129     2  1.410000e-01  6.5389e+06  1.410000e-01  6.5389e+06 
   97    99     2  1.410000e-01  6.5389e+06  1.410000e-01  6.5389e+06 
   98    99     2  1.430000e-01  6.5389e+06  1.430000e-01  6.5389e+06 
   98   100     2  1.410000e-01  6.5389e+06  1.410000e-01  6.5389e+06 
   98   131     2  1.420000e-01  6.5389e+06  1.420000e-01  6.5389e+06 
  100   133     2  1.390000e-01  8.6600e+06  1.390000e-01  8.6600e+06 
  100   813     2  1.080000e-01  1.2100e+07  1.080000e-01  1.2100e+07 
  101   103     2  1.420000e-01  6.5389e+06  1.420000e-01  6.5389e+06 
  101   750     2  1.400000e-01  8.6600e+06  1.400000e-01  8.6600e+06 
  101   759     2  1.400000e-01  1.1000e+07  1.400000e-01  1.1000e+07 
  102   103     2  1.430000e-01  6.5389e+06  1.430000e-01  6.5389e+06 
  102   104     2  1.420000e-01  6.5389e+06  1.420000e-01  6.5389e+06 
  102   135     2  1.410000e-01  6.5389e+06  1.410000e-01  6.5389e+06 
  104   105     2  1.410000e-01  6.5389e+06  1.410000e-01  6.5389e+06 
  104   137     2  1.420000e-01  6.5389e+06  1.420000e-01  6.5389e+06 
  105   107     2  1.410000e-01  6.5389e+06  1.410000e-01  6.5389e+06 
  106   107     2  1.410000e-01  6.5389e+06  1.410000e-01  6.5389e+06 
  106   108     2  1.410000e-01  6.5389e+06  1.410000e-01  6.5389e+06 
  106   139     2  1.410000e-01  6.5389e+06  1.410000e-01  6.5389e+06 
  108   109     2  1.410000e-01  6.5389e+06  1.410000e-01  6.5389e+06 
  108   141     2  1.410000e-01  6.5389e+06  1.410000e-01  6.5389e+06 
  109   111     2  1.410000e-01  6.5389e+06  1.410000e-01  6.5389e+06 
  110   111     2  1.410000e-01  6.5389e+06  1.410000e-01  6.5389e+06 
  110   112     2  1.410000e-01  6.5389e+06  1.410000e-01  6.5389e+06 
  110   143     2  1.410000e-01  6.5389e+06  1.410000e-01  6.5389e+06 
  112   113     2  1.410000e-01  6.5389e+06  1.410000e-01  6.5389e+06 
  112   145     2  1.410000e-01  6.5389e+06  1.410000e-01  6.5389e+06 
  113   115     2  1.410000e-01  6.5389e+06  1.410000e-01  6.5389e+06 
  114   115     2  1.410000e-01  6.5389e+06  1.410000e-01  6.5389e+06 
  114   116     2  1.410000e-01  6.5389e+06  1.410000e-01  6.5389e+06 
  114   147     2  1.410000e-01  6.5389e+06  1.410000e-01  6.5389e+06 
  116   117     2  1.410000e-01  6.5389e+06  1.410000e-01  6.5389e+06 
  116   149     2  1.410000e-01  6.5389e+06  1.410000e-01  6.5389e+06 
  117   119     2  1.410000e-01  6.5389e+06  1.410000e-01  6.5389e+06 
  118   119     2  1.410000e-01  6.5389e+06  1.410000e-01  6.5389e+06 
  118   120     2  1.410000e-01  6.5389e+06  1.410000e-01  6.5389e+06 
  118   151     2  1.410000e-01  6.5389e+06  1.410000e-01  6.5389e+06 
  120   121     2  1.410000e-01  6.5389e+06  1.410000e-01  6.5389e+06 
  120   153     2  1.410000e-01  6.5389e+06  1.410000e-01  6.5389e+06 
  121   123     2  1.410000e-01  6.5389e+06  1.410000e-01  6.5389e+06 
  122   123     2  1.410000e-01  6.5389e+06  1.410000e-01  6.5389e+06 
  122   124     2  1.410000e-01  6.5389e+06  1.410000e-01  6.5389e+06 
  122   155     2  1.410000e-01  6.5389e+06  1.410000e-01  6.5389e+06 
  124   125     2  1.410000e-01  6.5389e+06  1.410000e-01  6.5389e+06 
  124   157     2  1.410000e-01  6.5389e+06  1.410000e-01  6.5389e+06 
  125   127     2  1.410000e-01  6.5389e+06  1.410000e-01  6.5389e+06 
  126   127     2  1.410000e-01  6.5389e+06  1.410000e-01  6.5389e+06 
  126   128     2  1.410000e-01  6.5389e+06  1.410000e-01  6.5389e+06 
  126   159     2  1.410000e-01  6.5389e+06  1.410000e-01  6.5389e+06 
  128   129     2  1.410000e-01  6.5389e+06  1.410000e-01  6.5389e+06 
  128   161     2  1.410000e-01  6.5389e+06  1.410000e-01  6.5389e+06 
  129   131     2  1.410000e-01  6.5389e+06  1.410000e-01  6.5389e+06 
  130   131     2  1.420000e-01  6.5389e+06  1.420000e-01  6.5389e+06 
  130   132     2  1.420000e-01  6.5389e+06  1.420000e-01  6.5389e+06 
  130   163     2  1.410000e-01  6.5389e+06  1.410000e-01  6.5389e+06 
  132   133     2  1.410000e-01  6.5389e+06  1.410000e-01  6.5389e+06 
  132   165     2  1.430000e-01  6.5389e+06  1.430000e-01  6.5389e+06 
  133   812     2  1.080000e-01  1.2100e+07  1.080000e-01  1.2100e+07 
  134   135     2  1.390000e-01  8.6600e+06  1.390000e-01  8.6600e+06 
  134   136     2  1.410000e-01  6.5389e+06  1.410000e-01  6.5389e+06 
  134   794     2  1.080000e-01  1.2100e+07  1.080000e-01  1.2100e+07 
  135   795     2  1.080000e-01  1.2100e+07  1.080000e-01  1.2100e+07 
  136   137     2  1.420000e-01  6.5389e+06  1.420000e-01  6.5389e+06 
  136   169     2  1.430000e-01  6.5389e+06  1.430000e-01  6.5389e+06 
  137   139     2  1.410000e-01  6.5389e+06  1.410000e-01  6.5389e+06 
  138   139     2  1.410000e-01  6.5389e+06  1.410000e-01  6.5389e+06 
  138   140     2  1.410000e-01  6.5389e+06  1.410000e-01  6.5389e+06 
  138   171     2  1.410000e-01  6.5389e+06  1.410000e-01  6.5389e+06 
  140   141     2  1.410000e-01  6.5389e+06  1.410000e-01  6.5389e+06 
  140   173     2  1.410000e-01  6.5389e+06  1.410000e-01  6.5389e+06 
  141   143     2  1.410000e-01  6.5389e+06  1.410000e-01  6.5389e+06 
  142   143     2  1.410000e-01  6.5389e+06  1.410000e-01  6.5389e+06 
  142   144     2  1.410000e-01  6.5389e+06  1.410000e-01  6.5389e+06 
  142   175     2  1.410000e-01  6.5389e+06  1.410000e-01  6.5389e+06 
  144   145     2  1.410000e-01  6.5389e+06  1.410000e-01  6.5389e+06 
  144   177     2  1.410000e-01  6.5389e+06  1.410000e-01  6.5389e+06 
  145   147     2  1.410000e-01  6.5389e+06  1.410000e-01  6.5389e+06 
  146   147     2  1.410000e-01  6.5389e+06  1.410000e-01  6.5389e+06 
  146   148     2  1.410000e-01  6.5389e+06  1.410000e-01  6.5389e+06 
  146   179     2  1.410000e-01  6.5389e+06  1.410000e-01  6.5389e+06 
  148   149     2  1.410000e-01  6.5389e+06  1.410000e-01  6.5389e+06 
  148   181     2  1.410000e-01  6.5389e+06  1.410000e-01  6.5389e+06 
  149   151     2  1.410000e-01  6.5389e+06  1.410000e-01  6.5389e+06 
  150   151     2  1.410000e-01  6.5389e+06  1.410000e-01  6.5389e+06 
  150   152     2  1.410000e-01  6.5389e+06  1.410000e-01  6.5389e+06 
  150   183     2  1.410000e-01  6.5389e+06  1.410000e-01  6.5389e+06 
  152   153     2  1.410000e-01  6.5389e+06  1.410000e-01  6.5389e+06 
  152   185     2  1.410000e-01  6.5389e+06  1.410000e-01  6.5389e+06 
  153   155     2  1.410000e-01  6.5389e+06  1.410000e-01  6.5389e+06 
  154   155     2  1.410000e-01  6.5389e+06  1.410000e-01  6.5389e+06 
  154   156     2  1.410000e-01  6.5389e+06  1.410000e-01  6.5389e+06 
  154   187     2  1.410000e-01  6.5389e+06  1.410000e-01  6.5389e+06 
  156   157     2  1.410000e-01  6.5389e+06  1.410000e-01  6.5389e+06 
  156   189     2  1.410000e-01  6.5389e+06  1.410000e-01  6.5389e+06 
  157   159     2  1.410000e-01  6.5389e+06  1.410000e-01  6.5389e+06 
  158   159     2  1.410000e-01  6.5389e+06  1.410000e-01  6.5389e+06 
  158   160     2  1.410000e-01  6.5389e+06  1.410000e-01  6.5389e+06 
  158   191     2  1.410000e-01  6.5389e+06  1.410000e-01  6.5389e+06 
  160   161     2  1.410000e-01  6.5389e+06  1.410000e-01  6.5389e+06 
  160   193     2  1.410000e-01  6.5389e+06  1.410000e-01  6.5389e+06 
  161   163     2  1.410000e-01  6.5389e+06  1.410000e-01  6.5389e+06 
  162   163     2  1.410000e-01  6.5389e+06  1.410000e-01  6.5389e+06 
  162   164     2  1.410000e-01  6.5389e+06  1.410000e-01  6.5389e+06 
  162   195     2  1.410000e-01  6.5389e+06  1.410000e-01  6.5389e+06 
  164   165     2  1.420000e-01  6.5389e+06  1.420000e-01  6.5389e+06 
  164   197     2  1.420000e-01  6.5389e+06  1.420000e-01  6.5389e+06 
  165   167     2  1.420000e-01  6.5389e+06  1.420000e-01  6.5389e+06 
  166   167     2  1.400000e-01  8.6600e+06  1.400000e-01  8.6600e+06 
  166   199     2  1.410000e-01  8.5400e+06  1.410000e-01  8.5400e+06 
  166   811     2  1.080000e-01  1.2100e+07  1.080000e-01  1.2100e+07 
  167   771     2  1.400000e-01  1.1000e+07  1.400000e-01  1.1000e+07 
  168   169     2  1.410000e-01  8.5400e+06  1.410000e-01  8.5400e+06 
  168   201     2  1.400000e-01  8.6600e+06  1.400000e-01  8.6600e+06 
  168   793     2  1.080000e-01  1.2100e+07  1.080000e-01  1.2100e+07 
  169   171     2  1.410000e-01  6.5389e+06  1.410000e-01  6.5389e+06 
  170   171     2  1.420000e-01  6.5389e+06  1.420000e-01  6.5389e+06 
  170   172     2  1.410000e-01  6.5389e+06  1.410000e-01  6.5389e+06 
  170   203     2  1.420000e-01  6.5389e+06  1.420000e-01  6.5389e+06 
  172   173     2  1.410000e-01  6.5389e+06  1.410000e-01  6.5389e+06 
  172   205     2  1.410000e-01  6.5389e+06  1.410000e-01  6.5389e+06 
  173   175     2  1.410000e-01  6.5389e+06  1.410000e-01  6.5389e+06 
  174   175     2  1.410000e-01  6.5389e+06  1.410000e-01  6.5389e+06 
  174   176     2  1.410000e-01  6.5389e+06  1.410000e-01  6.5389e+06 
  174   207     2  1.410000e-01  6.5389e+06  1.410000e-01  6.5389e+06 
  176   177     2  1.410000e-01  6.5389e+06  1.410000e-01  6.5389e+06 
  176   209     2  1.410000e-01  6.5389e+06  1.410000e-01  6.5389e+06 
  177   179     2  1.410000e-01  6.5389e+06  1.410000e-01  6.5389e+06 
  178   179     2  1.410000e-01  6.5389e+06  1.410000e-01  6.5389e+06 
  178   180     2  1.410000e-01  6.5389e+06  1.410000e-01  6.5389e+06 
  178   211     2  1.410000e-01  6.5389e+06  1.410000e-01  6.5389e+06 
  180   181     2  1.410000e-01  6.5389e+06  1.410000e-01  6.5389e+06 
  180   213     2  1.410000e-01  6.5389e+06  1.410000e-01  6.5389e+06 
  181   183     2  1.410000e-01  6.5389e+06  1.410000e-01  6.5389e+06 
  182   183     2  1.410000e-01  6.5389e+06  1.410000e-01  6.5389e+06 
  182   184     2  1.410000e-01  6.5389e+06  1.410000e-01  6.5389e+06 
  182   215     2  1.410000e-01  6.5389e+06  1.410000e-01  6.5389e+06 
  184   185     2  1.410000e-01  6.5389e+06  1.410000e-01  6.5389e+06 
  184   217     2  1.410000e-01  6.5389e+06  1.410000e-01  6.5389e+06 
  185   187     2  1.410000e-01  6.5389e+06  1.410000e-01  6.5389e+06 
  186   187     2  1.410000e-01  6.5389e+06  1.410000e-01  6.5389e+06 
  186   188     2  1.410000e-01  6.5389e+06  1.410000e-01  6.5389e+06 
  186   219     2  1.410000e-01  6.5389e+06  1.410000e-01  6.5389e+06 
  188   189     2  1.410000e-01  6.5389e+06  1.410000e-01  6.5389e+06 
  188   221     2  1.410000e-01  6.5389e+06  1.410000e-01  6.5389e+06 
  189   191     2  1.410000e-01  6.5389e+06  1.410000e-01  6.5389e+06 
  190   191     2  1.410000e-01  6.5389e+06  1.410000e-01  6.5389e+06 
  190   192     2  1.410000e-01  6.5389e+06  1.410000e-01  6.5389e+06 
  190   223     2  1.410000e-01  6.5389e+06  1.410000e-01  6.5389e+06 
  192   193     2  1.410000e-01  6.5389e+06  1.410000e-01  6.5389e+06 
  192   225     2  1.410000e-01  6.5389e+06  1.410000e-01  6.5389e+06 
  193   195     2  1.410000e-01  6.5389e+06  1.410000e-01  6.5389e+06 
  194   195     2  1.410000e-01  6.5389e+06  1.410000e-01  6.5389e+06 
  194   196     2  1.410000e-01  6.5389e+06  1.410000e-01  6.5389e+06 
  194   227     2  1.410000e-01  6.5389e+06  1.410000e-01  6.5389e+06 
  196   197     2  1.410000e-01  6.5389e+06  1.410000e-01  6.5389e+06 
  196   229     2  1.410000e-01  6.5389e+06  1.410000e-01  6.5389e+06 
  197   199     2  1.410000e-01  6.5389e+06  1.410000e-01  6.5389e+06 
  198   199     2  1.430000e-01  6.5389e+06  1.430000e-01  6.5389e+06 
  198   200     2  1.410000e-01  6.5389e+06  1.410000e-01  6.5389e+06 
  198   231     2  1.420000e-01  6.5389e+06  1.420000e-01  6.5389e+06 
  200   233     2  1.390000e-01  8.6600e+06  1.390000e-01  8.6600e+06 
  200   810     2  1.080000e-01  1.2100e+07  1.080000e-01  1.2100e+07 
  201   203     2  1.420000e-01  6.5389e+06  1.420000e-01  6.5389e+06 
  201   763     2  1.400000e-01  1.1000e+07  1.400000e-01  1.1000e+07 
  202   203     2  1.430000e-01  6.5389e+06  1.430000e-01  6.5389e+06 
  202   204     2  1.420000e-01  6.5389e+06  1.420000e-01  6.5389e+06 
  202   235     2  1.410000e-01  6.5389e+06  1.410000e-01  6.5389e+06 
  204   205     2  1.410000e-01  6.5389e+06  1.410000e-01  6.5389e+06 
  204   237     2  1.420000e-01  6.5389e+06  1.420000e-01  6.5389e+06 
  205   207     2  1.410000e-01  6.5389e+06  1.410000e-01  6.5389e+06 
  206   207     2  1.410000e-01  6.5389e+06  1.410000e-01  6.5389e+06 
  206   208     2  1.410000e-01  6.5389e+06  1.410000e-01  6.5389e+06 
  206   239     2  1.410000e-01  6.5389e+06  1.410000e-01  6.5389e+06 
  208   209     2  1.410000e-01  6.5389e+06  1.410000e-01  6.5389e+06 
  208   241     2  1.410000e-01  6.5389e+06  1.410000e-01  6.5389e+06 
  209   211     2  1.410000e-01  6.5389e+06  1.410000e-01  6.5389e+06 
  210   211     2  1.410000e-01  6.5389e+06  1.410000e-01  6.5389e+06 
  210   212     2  1.410000e-01  6.5389e+06  1.410000e-01  6.5389e+06 
  210   243     2  1.410000e-01  6.5389e+06  1.410000e-01  6.5389e+06 
  212   213     2  1.410000e-01  6.5389e+06  1.410000e-01  6.5389e+06 
  212   245     2  1.410000e-01  6.5389e+06  1.410000e-01  6.5389e+06 
  213   215     2  1.410000e-01  6.5389e+06  1.410000e-01  6.5389e+06 
  214   215     2  1.410000e-01  6.5389e+06  1.410000e-01  6.5389e+06 
  214   216     2  1.410000e-01  6.5389e+06  1.410000e-01  6.5389e+06 
  214   247     2  1.410000e-01  6.5389e+06  1.410000e-01  6.5389e+06 
  216   217     2  1.410000e-01  6.5389e+06  1.410000e-01  6.5389e+06 
  216   249     2  1.410000e-01  6.5389e+06  1.410000e-01  6.5389e+06 
  217   219     2  1.410000e-01  6.5389e+06  1.410000e-01  6.5389e+06 
  218   219     2  1.410000e-01  6.5389e+06  1.410000e-01  6.5389e+06 
  218   220     2  1.410000e-01  6.5389e+06  1.410000e-01  6.5389e+06 
  218   251     2  1.410000e-01  6.5389e+06  1.410000e-01  6.5389e+06 
  220   221     2  1.410000e-01  6.5389e+06  1.410000e-01  6.5389e+06 
  220   253     2  1.410000e-01  6.5389e+06  1.410000e-01  6.5389e+06 
  221   223     2  1.410000e-01  6.5389e+06  1.410000e-01  6.5389e+06 
  222   223     2  1.410000e-01  6.5389e+06  1.410000e-01  6.5389e+06 
  222   224     2  1.410000e-01  6.5389e+06  1.410000e-01  6.5389e+06 
  222   255     2  1.410000e-01  6.5389e+06  1.410000e-01  6.5389e+06 
  224   225     2  1.410000e-01  6.5389e+06  1.410000e-01  6.5389e+06 
  224   257     2  1.410000e-01  6.5389e+06  1.410000e-01  6.5389e+06 
  225   227     2  1.410000e-01  6.5389e+06  1.410000e-01  6.5389e+06 
  226   227     2  1.410000e-01  6.5389e+06  1.410000e-01  6.5389e+06 
  226   228     2  1.410000e-01  6.5389e+06  1.410000e-01  6.5389e+06 
  226   259     2  1.410000e-01  6.5389e+06  1.410000e-01  6.5389e+06 
  228   229     2  1.410000e-01  6.5389e+06  1.410000e-01  6.5389e+06 
  228   261     2  1.410000e-01  6.5389e+06  1.410000e-01  6.5389e+06 
  229   231     2  1.410000e-01  6.5389e+06  1.410000e-01  6.5389e+06 
  230   231     2  1.420000e-01  6.5389e+06  1.420000e-01  6.5389e+06 
  230   232     2  1.420000e-01  6.5389e+06  1.420000e-01  6.5389e+06 
  230   263     2  1.410000e-01  6.5389e+06  1.410000e-01  6.5389e+06 
  232   233     2  1.410000e-01  6.5389e+06  1.410000e-01  6.5389e+06 
  232   265     2  1.430000e-01  6.5389e+06  1.430000e-01  6.5389e+06 
  233   809     2  1.080000e-01  1.2100e+07  1.080000e-01  1.2100e+07 
  234   235     2  1.390000e-01  8.6600e+06  1.390000e-01  8.6600e+06 
  234   236     2  1.410000e-01  6.5389e+06  1.410000e-01  6.5389e+06 
  234   791     2  1.080000e-01  1.2100e+07  1.080000e-01  1.2100e+07 
  235   792     2  1.080000e-01  1.2100e+07  1.080000e-01  1.2100e+07 
  236   237     2  1.420000e-01  6.5389e+06  1.420000e-01  6.5389e+06 
  236   269     2  1.430000e-01  6.5389e+06  1.430000e-01  6.5389e+06 
  237   239     2  1.410000e-01  6.5389e+06  1.410000e-01  6.5389e+06 
  238   239     2  1.410000e-01  6.5389e+06  1.410000e-01  6.5389e+06 
  238   240     2  1.410000e-01  6.5389e+06  1.410000e-01  6.5389e+06 
  238   271     2  1.410000e-01  6.5389e+06  1.410000e-01  6.5389e+06 
  240   241     2  1.410000e-01  6.5389e+06  1.410000e-01  6.5389e+06 
  240   273     2  1.410000e-01  6.5389e+06  1.410000e-01  6.5389e+06 
  241   243     2  1.410000e-01  6.5389e+06  1.410000e-01  6.5389e+06 
  242   243     2  1.410000e-01  6.5389e+06  1.410000e-01  6.5389e+06 
  242   244     2  1.410000e-01  6.5389e+06  1.410000e-01  6.5389e+06 
  242   275     2  1.410000e-01  6.5389e+06  1.410000e-01  6.5389e+06 
  244   245     2  1.410000e-01  6.5389e+06  1.410000e-01  6.5389e+06 
  244   277     2  1.410000e-01  6.5389e+06  1.410000e-01  6.5389e+06 
  245   247     2  1.410000e-01  6.5389e+06  1.410000e-01  6.5389e+06 
  246   247     2  1.410000e-01  6.5389e+06  1.410000e-01  6.5389e+06 
  246   248     2  1.410000e-01  6.5389e+06  1.410000e-01  6.5389e+06 
  246   279     2  1.410000e-01  6.5389e+06  1.410000e-01  6.5389e+06 
  248   249     2  1.410000e-01  6.5389e+06  1.410000e-01  6.5389e+06 
  248   281     2  1.410000e-01  6.5389e+06  1.410000e-01  6.5389e+06 
  249   251     2  1.410000e-01  6.5389e+06  1.410000e-01  6.5389e+06 
  250   251     2  1.410000e-01  6.5389e+06  1.410000e-01  6.5389e+06 
  250   252     2  1.410000e-01  6.5389e+06  1.410000e-01  6.5389e+06 
  250   283     2  1.410000e-01  6.5389e+06  1.410000e-01  6.5389e+06 
  252   253     2  1.410000e-01  6.5389e+06  1.410000e-01  6.5389e+06 
  252   285     2  1.410000e-01  6.5389e+06  1.410000e-01  6.5389e+06 
  253   255     2  1.410000e-01  6.5389e+06  1.410000e-01  6.5389e+06 
  254   255     2  1.410000e-01  6.5389e+06  1.410000e-01  6.5389e+06 
  254   256     2  1.410000e-01  6.5389e+06  1.410000e-01  6.5389e+06 
  254   287     2  1.410000e-01  6.5389e+06  1.410000e-01  6.5389e+06 
  256   257     2  1.410000e-01  6.5389e+06  1.410000e-01  6.5389e+06 
  256   289     2  1.410000e-01  6.5389e+06  1.410000e-01  6.5389e+06 
  257   259     2  1.410000e-01  6.5389e+06  1.410000e-01  6.5389e+06 
  258   259     2  1.410000e-01  6.5389e+06  1.410000e-01  6.5389e+06 
  258   260     2  1.410000e-01  6.5389e+06  1.410000e-01  6.5389e+06 
  258   291     2  1.410000e-01  6.5389e+06  1.410000e-01  6.5389e+06 
  260   261     2  1.410000e-01  6.5389e+06  1.410000e-01  6.5389e+06 
  260   293     2  1.410000e-01  6.5389e+06  1.410000e-01  6.5389e+06 
  261   263     2  1.410000e-01  6.5389e+06  1.410000e-01  6.5389e+06 
  262   263     2  1.410000e-01  6.5389e+06  1.410000e-01  6.5389e+06 
  262   264     2  1.410000e-01  6.5389e+06  1.410000e-01  6.5389e+06 
  262   295     2  1.410000e-01  6.5389e+06  1.410000e-01  6.5389e+06 
  264   265     2  1.420000e-01  6.5389e+06  1.420000e-01  6.5389e+06 
  264   297     2  1.420000e-01  6.5389e+06  1.420000e-01  6.5389e+06 
  265   267     2  1.420000e-01  6.5389e+06  1.420000e-01  6.5389e+06 
  266   267     2  1.410000e-01  8.6600e+06  1.410000e-01  8.6600e+06 
  266   299     2  1.410000e-01  8.5400e+06  1.410000e-01  8.5400e+06 
  266   808     2  1.080000e-01  1.2100e+07  1.080000e-01  1.2100e+07 
  267   767     2  1.400000e-01  1.1000e+07  1.400000e-01  1.1000e+07 
  268   269     2  1.410000e-01  8.5400e+06  1.410000e-01  8.5400e+06 
  268   301     2  1.400000e-01  8.6600e+06  1.400000e-01  8.6600e+06 
  268   790     2  1.080000e-01  1.2100e+07  1.080000e-01  1.2100e+07 
  269   271     2  1.410000e-01  6.5389e+06  1.410000e-01  6.5389e+06 
  270   271     2  1.420000e-01  6.5389e+06  1.420000e-01  6.5389e+06 
  270   272     2  1.410000e-01  6.5389e+06  1.410000e-01  6.5389e+06 
  270   303     2  1.420000e-01  6.5389e+06  1.420000e-01  6.5389e+06 
  272   273     2  1.410000e-01  6.5389e+06  1.410000e-01  6.5389e+06 
  272   305     2  1.410000e-01  6.5389e+06  1.410000e-01  6.5389e+06 
  273   275     2  1.410000e-01  6.5389e+06  1.410000e-01  6.5389e+06 
  274   275     2  1.410000e-01  6.5389e+06  1.410000e-01  6.5389e+06 
  274   276     2  1.410000e-01  6.5389e+06  1.410000e-01  6.5389e+06 
  274   307     2  1.410000e-01  6.5389e+06  1.410000e-01  6.5389e+06 
  276   277     2  1.410000e-01  6.5389e+06  1.410000e-01  6.5389e+06 
  276   309     2  1.410000e-01  6.5389e+06  1.410000e-01  6.5389e+06 
  277   279     2  1.410000e-01  6.5389e+06  1.410000e-01  6.5389e+06 
  278   279     2  1.410000e-01  6.5389e+06  1.410000e-01  6.5389e+06 
  278   280     2  1.410000e-01  6.5389e+06  1.410000e-01  6.5389e+06 
  278   311     2  1.410000e-01  6.5389e+06  1.410000e-01  6.5389e+06 
  280   281     2  1.410000e-01  6.5389e+06  1.410000e-01  6.5389e+06 
  280   313     2  1.410000e-01  6.5389e+06  1.410000e-01  6.5389e+06 
  281   283     2  1.410000e-01  6.5389e+06  1.410000e-01  6.5389e+06 
  282   283     2  1.410000e-01  6.5389e+06  1.410000e-01  6.5389e+06 
  282   284     2  1.410000e-01  6.5389e+06  1.410000e-01  6.5389e+06 
  282   315     2  1.410000e-01  6.5389e+06  1.410000e-01  6.5389e+06 
  284   285     2  1.410000e-01  6.5389e+06  1.410000e-01  6.5389e+06 
  284   317     2  1.410000e-01  6.5389e+06  1.410000e-01  6.5389e+06 
  285   287     2  1.410000e-01  6.5389e+06  1.410000e-01  6.5389e+06 
  286   287     2  1.410000e-01  6.5389e+06  1.410000e-01  6.5389e+06 
  286   288     2  1.410000e-01  6.5389e+06  1.410000e-01  6.5389e+06 
  286   319     2  1.410000e-01  6.5389e+06  1.410000e-01  6.5389e+06 
  288   289     2  1.410000e-01  6.5389e+06  1.410000e-01  6.5389e+06 
  288   321     2  1.410000e-01  6.5389e+06  1.410000e-01  6.5389e+06 
  289   291     2  1.410000e-01  6.5389e+06  1.410000e-01  6.5389e+06 
  290   291     2  1.410000e-01  6.5389e+06  1.410000e-01  6.5389e+06 
  290   292     2  1.410000e-01  6.5389e+06  1.410000e-01  6.5389e+06 
  290   323     2  1.410000e-01  6.5389e+06  1.410000e-01  6.5389e+06 
  292   293     2  1.410000e-01  6.5389e+06  1.410000e-01  6.5389e+06 
  292   325     2  1.410000e-01  6.5389e+06  1.410000e-01  6.5389e+06 
  293   295     2  1.410000e-01  6.5389e+06  1.410000e-01  6.5389e+06 
  294   295     2  1.410000e-01  6.5389e+06  1.410000e-01  6.5389e+06 
  294   296     2  1.410000e-01  6.5389e+06  1.410000e-01  6.5389e+06 
  294   327     2  1.410000e-01  6.5389e+06  1.410000e-01  6.5389e+06 
  296   297     2  1.410000e-01  6.5389e+06  1.410000e-01  6.5389e+06 
  296   329     2  1.410000e-01  6.5389e+06  1.410000e-01  6.5389e+06 
  297   299     2  1.420000e-01  6.5389e+06  1.420000e-01  6.5389e+06 
  298   299     2  1.430000e-01  6.5389e+06  1.430000e-01  6.5389e+06 
  298   300     2  1.410000e-01  8.5400e+06  1.410000e-01  8.5400e+06 
  298   331     2  1.420000e-01  6.5389e+06  1.420000e-01  6.5389e+06 
  300   333     2  1.400000e-01  8.6600e+06  1.400000e-01  8.6600e+06 
  300   807     2  1.080000e-01  1.2100e+07  1.080000e-01  1.2100e+07 
  301   303     2  1.420000e-01  6.5389e+06  1.420000e-01  6.5389e+06 
  301   761     2  1.400000e-01  1.1000e+07  1.400000e-01  1.1000e+07 
  302   303     2  1.430000e-01  6.5389e+06  1.430000e-01  6.5389e+06 
  302   304     2  1.420000e-01  6.5389e+06  1.420000e-01  6.5389e+06 
  302   335     2  1.410000e-01  6.5389e+06  1.410000e-01  6.5389e+06 
  304   305     2  1.410000e-01  6.5389e+06  1.410000e-01  6.5389e+06 
  304   337     2  1.420000e-01  6.5389e+06  1.420000e-01  6.5389e+06 
  305   307     2  1.410000e-01  6.5389e+06  1.410000e-01  6.5389e+06 
  306   307     2  1.410000e-01  6.5389e+06  1.410000e-01  6.5389e+06 
  306   308     2  1.410000e-01  6.5389e+06  1.410000e-01  6.5389e+06 
  306   339     2  1.410000e-01  6.5389e+06  1.410000e-01  6.5389e+06 
  308   309     2  1.410000e-01  6.5389e+06  1.410000e-01  6.5389e+06 
  308   341     2  1.410000e-01  6.5389e+06  1.410000e-01  6.5389e+06 
  309   311     2  1.410000e-01  6.5389e+06  1.410000e-01  6.5389e+06 
  310   311     2  1.410000e-01  6.5389e+06  1.410000e-01  6.5389e+06 
  310   312     2  1.410000e-01  6.5389e+06  1.410000e-01  6.5389e+06 
  310   343     2  1.410000e-01  6.5389e+06  1.410000e-01  6.5389e+06 
  312   313     2  1.410000e-01  6.5389e+06  1.410000e-01  6.5389e+06 
  312   345     2  1.410000e-01  6.5389e+06  1.410000e-01  6.5389e+06 
  313   315     2  1.410000e-01  6.5389e+06  1.410000e-01  6.5389e+06 
  314   315     2  1.410000e-01  6.5389e+06  1.410000e-01  6.5389e+06 
  314   316     2  1.410000e-01  6.5389e+06  1.410000e-01  6.5389e+06 
  314   347     2  1.410000e-01  6.5389e+06  1.410000e-01  6.5389e+06 
  316   317     2  1.410000e-01  6.5389e+06  1.410000e-01  6.5389e+06 
  316   349     2  1.410000e-01  6.5389e+06  1.410000e-01  6.5389e+06 
  317   319     2  1.410000e-01  6.5389e+06  1.410000e-01  6.5389e+06 
  318   319     2  1.410000e-01  6.5389e+06  1.410000e-01  6.5389e+06 
  318   320     2  1.410000e-01  6.5389e+06  1.410000e-01  6.5389e+06 
  318   351     2  1.410000e-01  6.5389e+06  1.410000e-01  6.5389e+06 
  320   321     2  1.410000e-01  6.5389e+06  1.410000e-01  6.5389e+06 
  320   353     2  1.410000e-01  6.5389e+06  1.410000e-01  6.5389e+06 
  321   323     2  1.410000e-01  6.5389e+06  1.410000e-01  6.5389e+06 
  322   323     2  1.410000e-01  6.5389e+06  1.410000e-01  6.5389e+06 
  322   324     2  1.410000e-01  6.5389e+06  1.410000e-01  6.5389e+06 
  322   355     2  1.410000e-01  6.5389e+06  1.410000e-01  6.5389e+06 
  324   325     2  1.410000e-01  6.5389e+06  1.410000e-01  6.5389e+06 
  324   357     2  1.410000e-01  6.5389e+06  1.410000e-01  6.5389e+06 
  325   327     2  1.410000e-01  6.5389e+06  1.410000e-01  6.5389e+06 
  326   327     2  1.410000e-01  6.5389e+06  1.410000e-01  6.5389e+06 
  326   328     2  1.410000e-01  6.5389e+06  1.410000e-01  6.5389e+06 
  326   359     2  1.410000e-01  6.5389e+06  1.410000e-01  6.5389e+06 
  328   329     2  1.410000e-01  6.5389e+06  1.410000e-01  6.5389e+06 
  328   361     2  1.410000e-01  6.5389e+06  1.410000e-01  6.5389e+06 
  329   331     2  1.410000e-01  6.5389e+06  1.410000e-01  6.5389e+06 
  330   331     2  1.420000e-01  6.5389e+06  1.420000e-01  6.5389e+06 
  330   332     2  1.420000e-01  6.5389e+06  1.420000e-01  6.5389e+06 
  330   363     2  1.410000e-01  6.5389e+06  1.410000e-01  6.5389e+06 
  332   333     2  1.420000e-01  6.5389e+06  1.420000e-01  6.5389e+06 
  332   365     2  1.430000e-01  6.5389e+06  1.430000e-01  6.5389e+06 
  333   765     2  1.400000e-01  1.1000e+07  1.400000e-01  1.1000e+07 
  334   335     2  1.390000e-01  8.6600e+06  1.390000e-01  8.6600e+06 
  334   336     2  1.410000e-01  6.5389e+06  1.410000e-01  6.5389e+06 
  334   788     2  1.080000e-01  1.2100e+07  1.080000e-01  1.2100e+07 
  335   789     2  1.080000e-01  1.2100e+07  1.080000e-01  1.2100e+07 
  336   337     2  1.420000e-01  6.5389e+06  1.420000e-01  6.5389e+06 
  336   369     2  1.430000e-01  6.5389e+06  1.430000e-01  6.5389e+06 
  337   339     2  1.410000e-01  6.5389e+06  1.410000e-01  6.5389e+06 
  338   339     2  1.410000e-01  6.5389e+06  1.410000e-01  6.5389e+06 
  338   340     2  1.410000e-01  6.5389e+06  1.410000e-01  6.5389e+06 
  338   371     2  1.410000e-01  6.5389e+06  1.410000e-01  6.5389e+06 
  340   341     2  1.410000e-01  6.5389e+06  1.410000e-01  6.5389e+06 
  340   373     2  1.410000e-01  6.5389e+06  1.410000e-01  6.5389e+06 
  341   343     2  1.410000e-01  6.5389e+06  1.410000e-01  6.5389e+06 
  342   343     2  1.410000e-01  6.5389e+06  1.410000e-01  6.5389e+06 
  342   344     2  1.410000e-01  6.5389e+06  1.410000e-01  6.5389e+06 
  342   375     2  1.410000e-01  6.5389e+06  1.410000e-01  6.5389e+06 
  344   345     2  1.410000e-01  6.5389e+06  1.410000e-01  6.5389e+06 
  344   377     2  1.410000e-01  6.5389e+06  1.410000e-01  6.5389e+06 
  345   347     2  1.410000e-01  6.5389e+06  1.410000e-01  6.5389e+06 
  346   347     2  1.410000e-01  6.5389e+06  1.410000e-01  6.5389e+06 
  346   348     2  1.410000e-01  6.5389e+06  1.410000e-01  6.5389e+06 
  346   379     2  1.410000e-01  6.5389e+06  1.410000e-01  6.5389e+06 
  348   349     2  1.410000e-01  6.5389e+06  1.410000e-01  6.5389e+06 
  348   381     2  1.410000e-01  6.5389e+06  1.410000e-01  6.5389e+06 
  349   351     2  1.410000e-01  6.5389e+06  1.410000e-01  6.5389e+06 
  350   351     2  1.410000e-01  6.5389e+06  1.410000e-01  6.5389e+06 
  350   352     2  1.410000e-01  6.5389e+06  1.410000e-01  6.5389e+06 
  350   383     2  1.410000e-01  6.5389e+06  1.410000e-01  6.5389e+06 
  352   353     2  1.410000e-01  6.5389e+06  1.410000e-01  6.5389e+06 
  352   385     2  1.410000e-01  6.5389e+06  1.410000e-01  6.5389e+06 
  353   355     2  1.410000e-01  6.5389e+06  1.410000e-01  6.5389e+06 
  354   355     2  1.410000e-01  6.5389e+06  1.410000e-01  6.5389e+06 
  354   356     2  1.410000e-01  6.5389e+06  1.410000e-01  6.5389e+06 
  354   387     2  1.410000e-01  6.5389e+06  1.410000e-01  6.5389e+06 
  356   357     2  1.410000e-01  6.5389e+06  1.410000e-01  6.5389e+06 
  356   389     2  1.410000e-01  6.5389e+06  1.410000e-01  6.5389e+06 
  357   359     2  1.410000e-01  6.5389e+06  1.410000e-01  6.5389e+06 
  358   359     2  1.410000e-01  6.5389e+06  1.410000e-01  6.5389e+06 
  358   360     2  1.410000e-01  6.5389e+06  1.410000e-01  6.5389e+06 
  358   391     2  1.410000e-01  6.5389e+06  1.410000e-01  6.5389e+06 
  360   361     2  1.410000e-01  6.5389e+06  1.410000e-01  6.5389e+06 
  360   393     2  1.410000e-01  6.5389e+06  1.410000e-01  6.5389e+06 
  361   363     2  1.410000e-01  6.5389e+06  1.410000e-01  6.5389e+06 
  362   363     2  1.410000e-01  6.5389e+06  1.410000e-01  6.5389e+06 
  362   364     2  1.410000e-01  6.5389e+06  1.410000e-01  6.5389e+06 
  362   395     2  1.410000e-01  6.5389e+06  1.410000e-01  6.5389e+06 
  364   365     2  1.420000e-01  6.5389e+06  1.420000e-01  6.5389e+06 
  364   397     2  1.430000e-01  6.5389e+06  1.430000e-01  6.5389e+06 
  365   367     2  1.410000e-01  6.5389e+06  1.410000e-01  6.5389e+06 
  366   367     2  1.390000e-01  8.6600e+06  1.390000e-01  8.6600e+06 
  366   399     2  1.410000e-01  6.5389e+06  1.410000e-01  6.5389e+06 
  366   805     2  1.080000e-01  1.2100e+07  1.080000e-01  1.2100e+07 
  367   806     2  1.080000e-01  1.2100e+07  1.080000e-01  1.2100e+07 
  368   369     2  1.410000e-01  8.5400e+06  1.410000e-01  8.5400e+06 
  368   401     2  1.400000e-01  8.6600e+06  1.400000e-01  8.6600e+06 
  368   787     2  1.080000e-01  1.2100e+07  1.080000e-01  1.2100e+07 
  369   371     2  1.410000e-01  6.5389e+06  1.410000e-01  6.5389e+06 
  370   371     2  1.420000e-01  6.5389e+06  1.420000e-01  6.5389e+06 
  370   372     2  1.410000e-01  6.5389e+06  1.410000e-01  6.5389e+06 
  370   403     2  1.420000e-01  6.5389e+06  1.420000e-01  6.5389e+06 
  372   373     2  1.410000e-01  6.5389e+06  1.410000e-01  6.5389e+06 
  372   405     2  1.410000e-01  6.5389e+06  1.410000e-01  6.5389e+06 
  373   375     2  1.410000e-01  6.5389e+06  1.410000e-01  6.5389e+06 
  374   375     2  1.410000e-01  6.5389e+06  1.410000e-01  6.5389e+06 
  374   376     2  1.410000e-01  6.5389e+06  1.410000e-01  6.5389e+06 
  374   407     2  1.410000e-01  6.5389e+06  1.410000e-01  6.5389e+06 
  376   377     2  1.410000e-01  6.5389e+06  1.410000e-01  6.5389e+06 
  376   409     2  1.410000e-01  6.5389e+06  1.410000e-01  6.5389e+06 
  377   379     2  1.410000e-01  6.5389e+06  1.410000e-01  6.5389e+06 
  378   379     2  1.410000e-01  6.5389e+06  1.410000e-01  6.5389e+06 
  378   380     2  1.410000e-01  6.5389e+06  1.410000e-01  6.5389e+06 
  378   411     2  1.410000e-01  6.5389e+06  1.410000e-01  6.5389e+06 
  380   381     2  1.410000e-01  6.5389e+06  1.410000e-01  6.5389e+06 
  380   413     2  1.410000e-01  6.5389e+06  1.410000e-01  6.5389e+06 
  381   383     2  1.410000e-01  6.5389e+06  1.410000e-01  6.5389e+06 
  382   383     2  1.410000e-01  6.5389e+06  1.410000e-01  6.5389e+06 
  382   384     2  1.410000e-01  6.5389e+06  1.410000e-01  6.5389e+06 
  382   415     2  1.410000e-01  6.5389e+06  1.410000e-01  6.5389e+06 
  384   385     2  1.410000e-01  6.5389e+06  1.410000e-01  6.5389e+06 
  384   417     2  1.410000e-01  6.5389e+06  1.410000e-01  6.5389e+06 
  385   387     2  1.410000e-01  6.5389e+06  1.410000e-01  6.5389e+06 
  386   387     2  1.410000e-01  6.5389e+06  1.410000e-01  6.5389e+06 
  386   388     2  1.410000e-01  6.5389e+06  1.410000e-01  6.5389e+06 
  386   419     2  1.410000e-01  6.5389e+06  1.410000e-01  6.5389e+06 
  388   389     2  1.410000e-01  6.5389e+06  1.410000e-01  6.5389e+06 
  388   421     2  1.410000e-01  6.5389e+06  1.410000e-01  6.5389e+06 
  389   391     2  1.410000e-01  6.5389e+06  1.410000e-01  6.5389e+06 
  390   391     2  1.410000e-01  6.5389e+06  1.410000e-01  6.5389e+06 
  390   392     2  1.410000e-01  6.5389e+06  1.410000e-01  6.5389e+06 
  390   423     2  1.410000e-01  6.5389e+06  1.410000e-01  6.5389e+06 
  392   393     2  1.410000e-01  6.5389e+06  1.410000e-01  6.5389e+06 
  392   425     2  1.410000e-01  6.5389e+06  1.410000e-01  6.5389e+06 
  393   395     2  1.410000e-01  6.5389e+06  1.410000e-01  6.5389e+06 
  394   395     2  1.410000e-01  6.5389e+06  1.410000e-01  6.5389e+06 
  394   396     2  1.410000e-01  6.5389e+06  1.410000e-01  6.5389e+06 
  394   427     2  1.410000e-01  6.5389e+06  1.410000e-01  6.5389e+06 
  396   397     2  1.410000e-01  6.5389e+06  1.410000e-01  6.5389e+06 
  396   429     2  1.410000e-01  6.5389e+06  1.410000e-01  6.5389e+06 
  397   399     2  1.420000e-01  6.5389e+06  1.420000e-01  6.5389e+06 
  398   399     2  1.430000e-01  6.5389e+06  1.430000e-01  6.5389e+06 
  398   400     2  1.410000e-01  6.5389e+06  1.410000e-01  6.5389e+06 
  398   431     2  1.420000e-01  6.5389e+06  1.420000e-01  6.5389e+06 
  400   433     2  1.390000e-01  8.6600e+06  1.390000e-01  8.6600e+06 
  400   804     2  1.080000e-01  1.2100e+07  1.080000e-01  1.2100e+07 
  401   403     2  1.420000e-01  6.5389e+06  1.420000e-01  6.5389e+06 
  401   755     2  1.400000e-01  1.1000e+07  1.400000e-01  1.1000e+07 
  402   403     2  1.430000e-01  6.5389e+06  1.430000e-01  6.5389e+06 
  402   404     2  1.420000e-01  6.5389e+06  1.420000e-01  6.5389e+06 
  402   435     2  1.410000e-01  6.5389e+06  1.410000e-01  6.5389e+06 
  404   405     2  1.410000e-01  6.5389e+06  1.410000e-01  6.5389e+06 
  404   437     2  1.420000e-01  6.5389e+06  1.420000e-01  6.5389e+06 
  405   407     2  1.410000e-01  6.5389e+06  1.410000e-01  6.5389e+06 
  406   407     2  1.410000e-01  6.5389e+06  1.410000e-01  6.5389e+06 
  406   408     2  1.410000e-01  6.5389e+06  1.410000e-01  6.5389e+06 
  406   439     2  1.410000e-01  6.5389e+06  1.410000e-01  6.5389e+06 
  408   409     2  1.410000e-01  6.5389e+06  1.410000e-01  6.5389e+06 
  408   441     2  1.410000e-01  6.5389e+06  1.410000e-01  6.5389e+06 
  409   411     2  1.410000e-01  6.5389e+06  1.410000e-01  6.5389e+06 
  410   411     2  1.410000e-01  6.5389e+06  1.410000e-01  6.5389e+06 
  410   412     2  1.410000e-01  6.5389e+06  1.410000e-01  6.5389e+06 
  410   443     2  1.410000e-01  6.5389e+06  1.410000e-01  6.5389e+06 
  412   413     2  1.410000e-01  6.5389e+06  1.410000e-01  6.5389e+06 
  412   445     2  1.410000e-01  6.5389e+06  1.410000e-01  6.5389e+06 
  413   415     2  1.410000e-01  6.5389e+06  1.410000e-01  6.5389e+06 
  414   415     2  1.410000e-01  6.5389e+06  1.410000e-01  6.5389e+06 
  414   416     2  1.410000e-01  6.5389e+06  1.410000e-01  6.5389e+06 
  414   447     2  1.410000e-01  6.5389e+06  1.410000e-01  6.5389e+06 
  416   417     2  1.410000e-01  6.5389e+06  1.410000e-01  6.5389e+06 
  416   449     2  1.410000e-01  6.5389e+06  1.410000e-01  6.5389e+06 
  417   419     2  1.410000e-01  6.5389e+06  1.410000e-01  6.5389e+06 
  418   419     2  1.410000e-01  6.5389e+06  1.410000e-01  6.5389e+06 
  418   420     2  1.410000e-01  6.5389e+06  1.410000e-01  6.5389e+06 
  418   451     2  1.410000e-01  6.5389e+06  1.410000e-01  6.5389e+06 
  420   421     2  1.410000e-01  6.5389e+06  1.410000e-01  6.5389e+06 
  420   453     2  1.410000e-01  6.5389e+06  1.410000e-01  6.5389e+06 
  421   423     2  1.410000e-01  6.5389e+06  1.410000e-01  6.5389e+06 
  422   423     2  1.410000e-01  6.5389e+06  1.410000e-01  6.5389e+06 
  422   424     2  1.410000e-01  6.5389e+06  1.410000e-01  6.5389e+06 
  422   455     2  1.410000e-01  6.5389e+06  1.410000e-01  6.5389e+06 
  424   425     2  1.410000e-01  6.5389e+06  1.410000e-01  6.5389e+06 
  424   457     2  1.410000e-01  6.5389e+06  1.410000e-01  6.5389e+06 
  425   427     2  1.410000e-01  6.5389e+06  1.410000e-01  6.5389e+06 
  426   427     2  1.410000e-01  6.5389e+06  1.410000e-01  6.5389e+06 
  426   428     2  1.410000e-01  6.5389e+06  1.410000e-01  6.5389e+06 
  426   459     2  1.410000e-01  6.5389e+06  1.410000e-01  6.5389e+06 
  428   429     2  1.410000e-01  6.5389e+06  1.410000e-01  6.5389e+06 
  428   461     2  1.410000e-01  6.5389e+06  1.410000e-01  6.5389e+06 
  429   431     2  1.410000e-01  6.5389e+06  1.410000e-01  6.5389e+06 
  430   431     2  1.420000e-01  6.5389e+06  1.420000e-01  6.5389e+06 
  430   432     2  1.420000e-01  6.5389e+06  1.420000e-01  6.5389e+06 
  430   463     2  1.410000e-01  6.5389e+06  1.410000e-01  6.5389e+06 
  432   433     2  1.410000e-01  6.5389e+06  1.410000e-01  6.5389e+06 
  432   465     2  1.430000e-01  6.5389e+06  1.430000e-01  6.5389e+06 
  433   803     2  1.080000e-01  1.2100e+07  1.080000e-01  1.2100e+07 
  434   435     2  1.390000e-01  8.6600e+06  1.390000e-01  8.6600e+06 
  434   436     2  1.410000e-01  6.5389e+06  1.410000e-01  6.5389e+06 
  434   785     2  1.080000e-01  1.2100e+07  1.080000e-01  1.2100e+07 
  435   786     2  1.080000e-01  1.2100e+07  1.080000e-01  1.2100e+07 
  436   437     2  1.420000e-01  6.5389e+06  1.420000e-01  6.5389e+06 
  436   469     2  1.430000e-01  6.5389e+06  1.430000e-01  6.5389e+06 
  437   439     2  1.410000e-01  6.5389e+06  1.410000e-01  6.5389e+06 
  438   439     2  1.410000e-01  6.5389e+06  1.410000e-01  6.5389e+06 
  438   440     2  1.410000e-01  6.5389e+06  1.410000e-01  6.5389e+06 
  438   471     2  1.410000e-01  6.5389e+06  1.410000e-01  6.5389e+06 
  440   441     2  1.410000e-01  6.5389e+06  1.410000e-01  6.5389e+06 
  440   473     2  1.410000e-01  6.5389e+06  1.410000e-01  6.5389e+06 
  441   443     2  1.410000e-01  6.5389e+06  1.410000e-01  6.5389e+06 
  442   443     2  1.410000e-01  6.5389e+06  1.410000e-01  6.5389e+06 
  442   444     2  1.410000e-01  6.5389e+06  1.410000e-01  6.5389e+06 
  442   475     2  1.410000e-01  6.5389e+06  1.410000e-01  6.5389e+06 
  444   445     2  1.410000e-01  6.5389e+06  1.410000e-01  6.5389e+06 
  444   477     2  1.410000e-01  6.5389e+06  1.410000e-01  6.5389e+06 
  445   447     2  1.410000e-01  6.5389e+06  1.410000e-01  6.5389e+06 
  446   447     2  1.410000e-01  6.5389e+06  1.410000e-01  6.5389e+06 
  446   448     2  1.410000e-01  6.5389e+06  1.410000e-01  6.5389e+06 
  446   479     2  1.410000e-01  6.5389e+06  1.410000e-01  6.5389e+06 
  448   449     2  1.410000e-01  6.5389e+06  1.410000e-01  6.5389e+06 
  448   481     2  1.410000e-01  6.5389e+06  1.410000e-01  6.5389e+06 
  449   451     2  1.410000e-01  6.5389e+06  1.410000e-01  6.5389e+06 
  450   451     2  1.410000e-01  6.5389e+06  1.410000e-01  6.5389e+06 
  450   452     2  1.410000e-01  6.5389e+06  1.410000e-01  6.5389e+06 
  450   483     2  1.410000e-01  6.5389e+06  1.410000e-01  6.5389e+06 
  452   453     2  1.410000e-01  6.5389e+06  1.410000e-01  6.5389e+06 
  452   485     2  1.410000e-01  6.5389e+06  1.410000e-01  6.5389e+06 
  453   455     2  1.410000e-01  6.5389e+06  1.410000e-01  6.5389e+06 
  454   455     2  1.410000e-01  6.5389e+06  1.410000e-01  6.5389e+06 
  454   456     2  1.410000e-01  6.5389e+06  1.410000e-01  6.5389e+06 
  454   487     2  1.410000e-01  6.5389e+06  1.410000e-01  6.5389e+06 
  456   457     2  1.410000e-01  6.5389e+06  1.410000e-01  6.5389e+06 
  456   489     2  1.410000e-01  6.5389e+06  1.410000e-01  6.5389e+06 
  457   459     2  1.410000e-01  6.5389e+06  1.410000e-01  6.5389e+06 
  458   459     2  1.410000e-01  6.5389e+06  1.410000e-01  6.5389e+06 
  458   460     2  1.410000e-01  6.5389e+06  1.410000e-01  6.5389e+06 
  458   491     2  1.410000e-01  6.5389e+06  1.410000e-01  6.5389e+06 
  460   461     2  1.410000e-01  6.5389e+06  1.410000e-01  6.5389e+06 
  460   493     2  1.410000e-01  6.5389e+06  1.410000e-01  6.5389e+06 
  461   463     2  1.410000e-01  6.5389e+06  1.410000e-01  6.5389e+06 
  462   463     2  1.410000e-01  6.5389e+06  1.410000e-01  6.5389e+06 
  462   464     2  1.410000e-01  6.5389e+06  1.410000e-01  6.5389e+06 
  462   495     2  1.410000e-01  6.5389e+06  1.410000e-01  6.5389e+06 
  464   465     2  1.410000e-01  6.5389e+06  1.410000e-01  6.5389e+06 
  464   497     2  1.420000e-01  6.5389e+06  1.420000e-01  6.5389e+06 
  465   467     2  1.410000e-01  8.5400e+06  1.410000e-01  8.5400e+06 
  466   467     2  1.400000e-01  8.6600e+06  1.400000e-01  8.6600e+06 
  466   499     2  1.420000e-01  6.5389e+06  1.420000e-01  6.5389e+06 
  466   769     2  1.400000e-01  1.1000e+07  1.400000e-01  1.1000e+07 
  467   802     2  1.080000e-01  1.2100e+07  1.080000e-01  1.2100e+07 
  468   469     2  1.410000e-01  8.5400e+06  1.410000e-01  8.5400e+06 
  468   501     2  1.400000e-01  8.6600e+06  1.400000e-01  8.6600e+06 
  468   784     2  1.080000e-01  1.2100e+07  1.080000e-01  1.2100e+07 
  469   471     2  1.410000e-01  6.5389e+06  1.410000e-01  6.5389e+06 
  470   471     2  1.420000e-01  6.5389e+06  1.420000e-01  6.5389e+06 
  470   472     2  1.410000e-01  6.5389e+06  1.410000e-01  6.5389e+06 
  470   503     2  1.420000e-01  6.5389e+06  1.420000e-01  6.5389e+06 
  472   473     2  1.410000e-01  6.5389e+06  1.410000e-01  6.5389e+06 
  472   505     2  1.410000e-01  6.5389e+06  1.410000e-01  6.5389e+06 
  473   475     2  1.410000e-01  6.5389e+06  1.410000e-01  6.5389e+06 
  474   475     2  1.410000e-01  6.5389e+06  1.410000e-01  6.5389e+06 
  474   476     2  1.410000e-01  6.5389e+06  1.410000e-01  6.5389e+06 
  474   507     2  1.410000e-01  6.5389e+06  1.410000e-01  6.5389e+06 
  476   477     2  1.410000e-01  6.5389e+06  1.410000e-01  6.5389e+06 
  476   509     2  1.410000e-01  6.5389e+06  1.410000e-01  6.5389e+06 
  477   479     2  1.410000e-01  6.5389e+06  1.410000e-01  6.5389e+06 
  478   479     2  1.410000e-01  6.5389e+06  1.410000e-01  6.5389e+06 
  478   480     2  1.410000e-01  6.5389e+06  1.410000e-01  6.5389e+06 
  478   511     2  1.410000e-01  6.5389e+06  1.410000e-01  6.5389e+06 
  480   481     2  1.410000e-01  6.5389e+06  1.410000e-01  6.5389e+06 
  480   513     2  1.410000e-01  6.5389e+06  1.410000e-01  6.5389e+06 
  481   483     2  1.410000e-01  6.5389e+06  1.410000e-01  6.5389e+06 
  482   483     2  1.410000e-01  6.5389e+06  1.410000e-01  6.5389e+06 
  482   484     2  1.410000e-01  6.5389e+06  1.410000e-01  6.5389e+06 
  482   515     2  1.410000e-01  6.5389e+06  1.410000e-01  6.5389e+06 
  484   485     2  1.410000e-01  6.5389e+06  1.410000e-01  6.5389e+06 
  484   517     2  1.410000e-01  6.5389e+06  1.410000e-01  6.5389e+06 
  485   487     2  1.410000e-01  6.5389e+06  1.410000e-01  6.5389e+06 
  486   487     2  1.410000e-01  6.5389e+06  1.410000e-01  6.5389e+06 
  486   488     2  1.410000e-01  6.5389e+06  1.410000e-01  6.5389e+06 
  486   519     2  1.410000e-01  6.5389e+06  1.410000e-01  6.5389e+06 
  488   489     2  1.410000e-01  6.5389e+06  1.410000e-01  6.5389e+06 
  488   521     2  1.410000e-01  6.5389e+06  1.410000e-01  6.5389e+06 
  489   491     2  1.410000e-01  6.5389e+06  1.410000e-01  6.5389e+06 
  490   491     2  1.410000e-01  6.5389e+06  1.410000e-01  6.5389e+06 
  490   492     2  1.410000e-01  6.5389e+06  1.410000e-01  6.5389e+06 
  490   523     2  1.410000e-01  6.5389e+06  1.410000e-01  6.5389e+06 
  492   493     2  1.410000e-01  6.5389e+06  1.410000e-01  6.5389e+06 
  492   525     2  1.410000e-01  6.5389e+06  1.410000e-01  6.5389e+06 
  493   495     2  1.410000e-01  6.5389e+06  1.410000e-01  6.5389e+06 
  494   495     2  1.410000e-01  6.5389e+06  1.410000e-01  6.5389e+06 
  494   496     2  1.410000e-01  6.5389e+06  1.410000e-01  6.5389e+06 
  494   527     2  1.410000e-01  6.5389e+06  1.410000e-01  6.5389e+06 
  496   497     2  1.410000e-01  6.5389e+06  1.410000e-01  6.5389e+06 
  496   529     2  1.410000e-01  6.5389e+06  1.410000e-01  6.5389e+06 
  497   499     2  1.420000e-01  6.5389e+06  1.420000e-01  6.5389e+06 
  498   499     2  1.430000e-01  6.5389e+06  1.430000e-01  6.5389e+06 
  498   500     2  1.410000e-01  6.5389e+06  1.410000e-01  6.5389e+06 
  498   531     2  1.420000e-01  6.5389e+06  1.420000e-01  6.5389e+06 
  500   533     2  1.390000e-01  8.6600e+06  1.390000e-01  8.6600e+06 
  500   824     2  1.080000e-01  6.5389e+06  1.080000e-01  6.5389e+06 
  501   503     2  1.420000e-01  6.5389e+06  1.420000e-01  6.5389e+06 
  501   751     2  1.400000e-01  1.1000e+07  1.400000e-01  1.1000e+07 
  502   503     2  1.430000e-01  6.5389e+06  1.430000e-01  6.5389e+06 
  502   504     2  1.420000e-01  6.5389e+06  1.420000e-01  6.5389e+06 
  502   535     2  1.410000e-01  6.5389e+06  1.410000e-01  6.5389e+06 
  504   505     2  1.410000e-01  6.5389e+06  1.410000e-01  6.5389e+06 
  504   537     2  1.420000e-01  6.5389e+06  1.420000e-01  6.5389e+06 
  505   507     2  1.410000e-01  6.5389e+06  1.410000e-01  6.5389e+06 
  506   507     2  1.410000e-01  6.5389e+06  1.410000e-01  6.5389e+06 
  506   508     2  1.410000e-01  6.5389e+06  1.410000e-01  6.5389e+06 
  506   539     2  1.410000e-01  6.5389e+06  1.410000e-01  6.5389e+06 
  508   509     2  1.410000e-01  6.5389e+06  1.410000e-01  6.5389e+06 
  508   541     2  1.410000e-01  6.5389e+06  1.410000e-01  6.5389e+06 
  509   511     2  1.410000e-01  6.5389e+06  1.410000e-01  6.5389e+06 
  510   511     2  1.410000e-01  6.5389e+06  1.410000e-01  6.5389e+06 
  510   512     2  1.410000e-01  6.5389e+06  1.410000e-01  6.5389e+06 
  510   543     2  1.410000e-01  6.5389e+06  1.410000e-01  6.5389e+06 
  512   513     2  1.410000e-01  6.5389e+06  1.410000e-01  6.5389e+06 
  512   545     2  1.410000e-01  6.5389e+06  1.410000e-01  6.5389e+06 
  513   515     2  1.410000e-01  6.5389e+06  1.410000e-01  6.5389e+06 
  514   515     2  1.410000e-01  6.5389e+06  1.410000e-01  6.5389e+06 
  514   516     2  1.410000e-01  6.5389e+06  1.410000e-01  6.5389e+06 
  514   547     2  1.410000e-01  6.5389e+06  1.410000e-01  6.5389e+06 
  516   517     2  1.410000e-01  6.5389e+06  1.410000e-01  6.5389e+06 
  516   549     2  1.410000e-01  6.5389e+06  1.410000e-01  6.5389e+06 
  517   519     2  1.410000e-01  6.5389e+06  1.410000e-01  6.5389e+06 
  518   519     2  1.410000e-01  6.5389e+06  1.410000e-01  6.5389e+06 
  518   520     2  1.410000e-01  6.5389e+06  1.410000e-01  6.5389e+06 
  518   551     2  1.410000e-01  6.5389e+06  1.410000e-01  6.5389e+06 
  520   521     2  1.410000e-01  6.5389e+06  1.410000e-01  6.5389e+06 
  520   553     2  1.410000e-01  6.5389e+06  1.410000e-01  6.5389e+06 
  521   523     2  1.410000e-01  6.5389e+06  1.410000e-01  6.5389e+06 
  522   523     2  1.410000e-01  6.5389e+06  1.410000e-01  6.5389e+06 
  522   524     2  1.410000e-01  6.5389e+06  1.410000e-01  6.5389e+06 
  522   555     2  1.410000e-01  6.5389e+06  1.410000e-01  6.5389e+06 
  524   525     2  1.410000e-01  6.5389e+06  1.410000e-01  6.5389e+06 
  524   557     2  1.410000e-01  6.5389e+06  1.410000e-01  6.5389e+06 
  525   527     2  1.410000e-01  6.5389e+06  1.410000e-01  6.5389e+06 
  526   527     2  1.410000e-01  6.5389e+06  1.410000e-01  6.5389e+06 
  526   528     2  1.410000e-01  6.5389e+06  1.410000e-01  6.5389e+06 
  526   559     2  1.410000e-01  6.5389e+06  1.410000e-01  6.5389e+06 
  528   529     2  1.410000e-01  6.5389e+06  1.410000e-01  6.5389e+06 
  528   561     2  1.410000e-01  6.5389e+06  1.410000e-01  6.5389e+06 
  529   531     2  1.410000e-01  6.5389e+06  1.410000e-01  6.5389e+06 
  530   531     2  1.420000e-01  6.5389e+06  1.420000e-01  6.5389e+06 
  530   532     2  1.420000e-01  6.5389e+06  1.420000e-01  6.5389e+06 
  530   563     2  1.410000e-01  6.5389e+06  1.410000e-01  6.5389e+06 
  532   533     2  1.410000e-01  6.5389e+06  1.410000e-01  6.5389e+06 
  532   565     2  1.430000e-01  6.5389e+06  1.430000e-01  6.5389e+06 
  533   823     2  1.080000e-01  1.2100e+07  1.080000e-01  1.2100e+07 
  534   535     2  1.390000e-01  8.6600e+06  1.390000e-01  8.6600e+06 
  534   536     2  1.410000e-01  6.5389e+06  1.410000e-01  6.5389e+06 
  534   780     2  1.080000e-01  1.2100e+07  1.080000e-01  1.2100e+07 
  535   779     2  1.080000e-01  1.2100e+07  1.080000e-01  1.2100e+07 
  536   537     2  1.420000e-01  6.5389e+06  1.420000e-01  6.5389e+06 
  536   569     2  1.430000e-01  6.5389e+06  1.430000e-01  6.5389e+06 
  537   539     2  1.410000e-01  6.5389e+06  1.410000e-01  6.5389e+06 
  538   539     2  1.410000e-01  6.5389e+06  1.410000e-01  6.5389e+06 
  538   540     2  1.410000e-01  6.5389e+06  1.410000e-01  6.5389e+06 
  538   571     2  1.410000e-01  6.5389e+06  1.410000e-01  6.5389e+06 
  540   541     2  1.410000e-01  6.5389e+06  1.410000e-01  6.5389e+06 
  540   573     2  1.410000e-01  6.5389e+06  1.410000e-01  6.5389e+06 
  541   543     2  1.410000e-01  6.5389e+06  1.410000e-01  6.5389e+06 
  542   543     2  1.410000e-01  6.5389e+06  1.410000e-01  6.5389e+06 
  542   544     2  1.410000e-01  6.5389e+06  1.410000e-01  6.5389e+06 
  542   575     2  1.410000e-01  6.5389e+06  1.410000e-01  6.5389e+06 
  544   545     2  1.410000e-01  6.5389e+06  1.410000e-01  6.5389e+06 
  544   577     2  1.410000e-01  6.5389e+06  1.410000e-01  6.5389e+06 
  545   547     2  1.410000e-01  6.5389e+06  1.410000e-01  6.5389e+06 
  546   547     2  1.410000e-01  6.5389e+06  1.410000e-01  6.5389e+06 
  546   548     2  1.410000e-01  6.5389e+06  1.410000e-01  6.5389e+06 
  546   579     2  1.410000e-01  6.5389e+06  1.410000e-01  6.5389e+06 
  548   549     2  1.410000e-01  6.5389e+06  1.410000e-01  6.5389e+06 
  548   581     2  1.410000e-01  6.5389e+06  1.410000e-01  6.5389e+06 
  549   551     2  1.410000e-01  6.5389e+06  1.410000e-01  6.5389e+06 
  550   551     2  1.410000e-01  6.5389e+06  1.410000e-01  6.5389e+06 
  550   552     2  1.410000e-01  6.5389e+06  1.410000e-01  6.5389e+06 
  550   583     2  1.410000e-01  6.5389e+06  1.410000e-01  6.5389e+06 
  552   553     2  1.410000e-01  6.5389e+06  1.410000e-01  6.5389e+06 
  552   585     2  1.410000e-01  6.5389e+06  1.410000e-01  6.5389e+06 
  553   555     2  1.410000e-01  6.5389e+06  1.410000e-01  6.5389e+06 
  554   555     2  1.410000e-01  6.5389e+06  1.410000e-01  6.5389e+06 
  554   556     2  1.410000e-01  6.5389e+06  1.410000e-01  6.5389e+06 
  554   587     2  1.410000e-01  6.5389e+06  1.410000e-01  6.5389e+06 
  556   557     2  1.410000e-01  6.5389e+06  1.410000e-01  6.5389e+06 
  556   589     2  1.410000e-01  6.5389e+06  1.410000e-01  6.5389e+06 
  557   559     2  1.410000e-01  6.5389e+06  1.410000e-01  6.5389e+06 
  558   559     2  1.410000e-01  6.5389e+06  1.410000e-01  6.5389e+06 
  558   560     2  1.410000e-01  6.5389e+06  1.410000e-01  6.5389e+06 
  558   591     2  1.410000e-01  6.5389e+06  1.410000e-01  6.5389e+06 
  560   561     2  1.410000e-01  6.5389e+06  1.410000e-01  6.5389e+06 
  560   593     2  1.410000e-01  6.5389e+06  1.410000e-01  6.5389e+06 
  561   563     2  1.410000e-01  6.5389e+06  1.410000e-01  6.5389e+06 
  562   563     2  1.410000e-01  6.5389e+06  1.410000e-01  6.5389e+06 
  562   564     2  1.410000e-01  6.5389e+06  1.410000e-01  6.5389e+06 
  562   595     2  1.410000e-01  6.5389e+06  1.410000e-01  6.5389e+06 
  564   565     2  1.410000e-01  6.5389e+06  1.410000e-01  6.5389e+06 
  564   597     2  1.420000e-01  6.5389e+06  1.420000e-01  6.5389e+06 
  565   567     2  1.410000e-01  8.5400e+06  1.410000e-01  8.5400e+06 
  566   567     2  1.400000e-01  8.6600e+06  1.400000e-01  8.6600e+06 
  566   599     2  1.420000e-01  6.5389e+06  1.420000e-01  6.5389e+06 
  566   777     2  1.400000e-01  1.1000e+07  1.400000e-01  1.1000e+07 
  567   822     2  1.080000e-01  1.2100e+07  1.080000e-01  1.2100e+07 
  568   569     2  1.410000e-01  8.5400e+06  1.410000e-01  8.5400e+06 
  568   601     2  1.400000e-01  8.6600e+06  1.400000e-01  8.6600e+06 
  568   781     2  1.080000e-01  1.2100e+07  1.080000e-01  1.2100e+07 
  569   571     2  1.410000e-01  6.5389e+06  1.410000e-01  6.5389e+06 
  570   571     2  1.420000e-01  6.5389e+06  1.420000e-01  6.5389e+06 
  570   572     2  1.410000e-01  6.5389e+06  1.410000e-01  6.5389e+06 
  570   603     2  1.420000e-01  6.5389e+06  1.420000e-01  6.5389e+06 
  572   573     2  1.410000e-01  6.5389e+06  1.410000e-01  6.5389e+06 
  572   605     2  1.410000e-01  6.5389e+06  1.410000e-01  6.5389e+06 
  573   575     2  1.410000e-01  6.5389e+06  1.410000e-01  6.5389e+06 
  574   575     2  1.410000e-01  6.5389e+06  1.410000e-01  6.5389e+06 
  574   576     2  1.410000e-01  6.5389e+06  1.410000e-01  6.5389e+06 
  574   607     2  1.410000e-01  6.5389e+06  1.410000e-01  6.5389e+06 
  576   577     2  1.410000e-01  6.5389e+06  1.410000e-01  6.5389e+06 
  576   609     2  1.410000e-01  6.5389e+06  1.410000e-01  6.5389e+06 
  577   579     2  1.410000e-01  6.5389e+06  1.410000e-01  6.5389e+06 
  578   579     2  1.410000e-01  6.5389e+06  1.410000e-01  6.5389e+06 
  578   580     2  1.410000e-01  6.5389e+06  1.410000e-01  6.5389e+06 
  578   611     2  1.410000e-01  6.5389e+06  1.410000e-01  6.5389e+06 
  580   581     2  1.410000e-01  6.5389e+06  1.410000e-01  6.5389e+06 
  580   613     2  1.410000e-01  6.5389e+06  1.410000e-01  6.5389e+06 
  581   583     2  1.410000e-01  6.5389e+06  1.410000e-01  6.5389e+06 
  582   583     2  1.410000e-01  6.5389e+06  1.410000e-01  6.5389e+06 
  582   584     2  1.410000e-01  6.5389e+06  1.410000e-01  6.5389e+06 
  582   615     2  1.410000e-01  6.5389e+06  1.410000e-01  6.5389e+06 
  584   585     2  1.410000e-01  6.5389e+06  1.410000e-01  6.5389e+06 
  584   617     2  1.410000e-01  6.5389e+06  1.410000e-01  6.5389e+06 
  585   587     2  1.410000e-01  6.5389e+06  1.410000e-01  6.5389e+06 
  586   587     2  1.410000e-01  6.5389e+06  1.410000e-01  6.5389e+06 
  586   588     2  1.410000e-01  6.5389e+06  1.410000e-01  6.5389e+06 
  586   619     2  1.410000e-01  6.5389e+06  1.410000e-01  6.5389e+06 
  588   589     2  1.410000e-01  6.5389e+06  1.410000e-01  6.5389e+06 
  588   621     2  1.410000e-01  6.5389e+06  1.410000e-01  6.5389e+06 
  589   591     2  1.410000e-01  6.5389e+06  1.410000e-01  6.5389e+06 
  590   591     2  1.410000e-01  6.5389e+06  1.410000e-01  6.5389e+06 
  590   592     2  1.410000e-01  6.5389e+06  1.410000e-01  6.5389e+06 
  590   623     2  1.410000e-01  6.5389e+06  1.410000e-01  6.5389e+06 
  592   593     2  1.410000e-01  6.5389e+06  1.410000e-01  6.5389e+06 
  592   625     2  1.410000e-01  6.5389e+06  1.410000e-01  6.5389e+06 
  593   595     2  1.410000e-01  6.5389e+06  1.410000e-01  6.5389e+06 
  594   595     2  1.410000e-01  6.5389e+06  1.410000e-01  6.5389e+06 
  594   596     2  1.410000e-01  6.5389e+06  1.410000e-01  6.5389e+06 
  594   627     2  1.410000e-01  6.5389e+06  1.410000e-01  6.5389e+06 
  596   597     2  1.410000e-01  6.5389e+06  1.410000e-01  6.5389e+06 
  596   629     2  1.410000e-01  6.5389e+06  1.410000e-01  6.5389e+06 
  597   599     2  1.420000e-01  6.5389e+06  1.420000e-01  6.5389e+06 
  598   599     2  1.430000e-01  6.5389e+06  1.430000e-01  6.5389e+06 
  598   600     2  1.410000e-01  6.5389e+06  1.410000e-01  6.5389e+06 
  598   631     2  1.420000e-01  6.5389e+06  1.420000e-01  6.5389e+06 
  600   633     2  1.390000e-01  8.6600e+06  1.390000e-01  8.6600e+06 
  600   821     2  1.080000e-01  1.2100e+07  1.080000e-01  1.2100e+07 
  601   603     2  1.420000e-01  6.5389e+06  1.420000e-01  6.5389e+06 
  601   753     2  1.400000e-01  1.1000e+07  1.400000e-01  1.1000e+07 
  602   603     2  1.430000e-01  6.5389e+06  1.430000e-01  6.5389e+06 
  602   604     2  1.420000e-01  6.5389e+06  1.420000e-01  6.5389e+06 
  602   635     2  1.410000e-01  6.5389e+06  1.410000e-01  6.5389e+06 
  604   605     2  1.410000e-01  6.5389e+06  1.410000e-01  6.5389e+06 
  604   637     2  1.420000e-01  6.5389e+06  1.420000e-01  6.5389e+06 
  605   607     2  1.410000e-01  6.5389e+06  1.410000e-01  6.5389e+06 
  606   607     2  1.410000e-01  6.5389e+06  1.410000e-01  6.5389e+06 
  606   608     2  1.410000e-01  6.5389e+06  1.410000e-01  6.5389e+06 
  606   639     2  1.410000e-01  6.5389e+06  1.410000e-01  6.5389e+06 
  608   609     2  1.410000e-01  6.5389e+06  1.410000e-01  6.5389e+06 
  608   641     2  1.410000e-01  6.5389e+06  1.410000e-01  6.5389e+06 
  609   611     2  1.410000e-01  6.5389e+06  1.410000e-01  6.5389e+06 
  610   611     2  1.410000e-01  6.5389e+06  1.410000e-01  6.5389e+06 
  610   612     2  1.410000e-01  6.5389e+06  1.410000e-01  6.5389e+06 
  610   643     2  1.410000e-01  6.5389e+06  1.410000e-01  6.5389e+06 
  612   613     2  1.410000e-01  6.5389e+06  1.410000e-01  6.5389e+06 
  612   645     2  1.410000e-01  6.5389e+06  1.410000e-01  6.5389e+06 
  613   615     2  1.410000e-01  6.5389e+06  1.410000e-01  6.5389e+06 
  614   615     2  1.410000e-01  6.5389e+06  1.410000e-01  6.5389e+06 
  614   616     2  1.410000e-01  6.5389e+06  1.410000e-01  6.5389e+06 
  614   647     2  1.410000e-01  6.5389e+06  1.410000e-01  6.5389e+06 
  616   617     2  1.410000e-01  6.5389e+06  1.410000e-01  6.5389e+06 
  616   649     2  1.410000e-01  6.5389e+06  1.410000e-01  6.5389e+06 
  617   619     2  1.410000e-01  6.5389e+06  1.410000e-01  6.5389e+06 
  618   619     2  1.410000e-01  6.5389e+06  1.410000e-01  6.5389e+06 
  618   620     2  1.410000e-01  6.5389e+06  1.410000e-01  6.5389e+06 
  618   651     2  1.410000e-01  6.5389e+06  1.410000e-01  6.5389e+06 
  620   621     2  1.410000e-01  6.5389e+06  1.410000e-01  6.5389e+06 
  620   653     2  1.410000e-01  6.5389e+06  1.410000e-01  6.5389e+06 
  621   623     2  1.410000e-01  6.5389e+06  1.410000e-01  6.5389e+06 
  622   623     2  1.410000e-01  6.5389e+06  1.410000e-01  6.5389e+06 
  622   624     2  1.410000e-01  6.5389e+06  1.410000e-01  6.5389e+06 
  622   655     2  1.410000e-01  6.5389e+06  1.410000e-01  6.5389e+06 
  624   625     2  1.410000e-01  6.5389e+06  1.410000e-01  6.5389e+06 
  624   657     2  1.410000e-01  6.5389e+06  1.410000e-01  6.5389e+06 
  625   627     2  1.410000e-01  6.5389e+06  1.410000e-01  6.5389e+06 
  626   627     2  1.410000e-01  6.5389e+06  1.410000e-01  6.5389e+06 
  626   628     2  1.410000e-01  6.5389e+06  1.410000e-01  6.5389e+06 
  626   659     2  1.410000e-01  6.5389e+06  1.410000e-01  6.5389e+06 
  628   629     2  1.410000e-01  6.5389e+06  1.410000e-01  6.5389e+06 
  628   661     2  1.410000e-01  6.5389e+06  1.410000e-01  6.5389e+06 
  629   631     2  1.410000e-01  6.5389e+06  1.410000e-01  6.5389e+06 
  630   631     2  1.430000e-01  6.5389e+06  1.430000e-01  6.5389e+06 
  630   632     2  1.420000e-01  6.5389e+06  1.420000e-01  6.5389e+06 
  630   663     2  1.410000e-01  6.5389e+06  1.410000e-01  6.5389e+06 
  632   633     2  1.410000e-01  6.5389e+06  1.410000e-01  6.5389e+06 
  632   665     2  1.430000e-01  6.5389e+06  1.430000e-01  6.5389e+06 
  633   820     2  1.070000e-01  1.2100e+07  1.070000e-01  1.2100e+07 
  634   635     2  1.390000e-01  8.6600e+06  1.390000e-01  8.6600e+06 
  634   636     2  1.410000e-01  6.5389e+06  1.410000e-01  6.5389e+06 
  634   783     2  1.080000e-01  1.2100e+07  1.080000e-01  1.2100e+07 
  635   782     2  1.080000e-01  1.2100e+07  1.080000e-01  1.2100e+07 
  636   637     2  1.420000e-01  6.5389e+06  1.420000e-01  6.5389e+06 
  636   668     2  1.430000e-01  6.5389e+06  1.430000e-01  6.5389e+06 
  637   639     2  1.410000e-01  6.5389e+06  1.410000e-01  6.5389e+06 
  638   639     2  1.410000e-01  6.5389e+06  1.410000e-01  6.5389e+06 
  638   640     2  1.410000e-01  6.5389e+06  1.410000e-01  6.5389e+06 
  638   670     2  1.410000e-01  6.5389e+06  1.410000e-01  6.5389e+06 
  640   641     2  1.410000e-01  6.5389e+06  1.410000e-01  6.5389e+06 
  640   672     2  1.410000e-01  6.5389e+06  1.410000e-01  6.5389e+06 
  641   643     2  1.410000e-01  6.5389e+06  1.410000e-01  6.5389e+06 
  642   643     2  1.410000e-01  6.5389e+06  1.410000e-01  6.5389e+06 
  642   644     2  1.410000e-01  6.5389e+06  1.410000e-01  6.5389e+06 
  642   674     2  1.410000e-01  6.5389e+06  1.410000e-01  6.5389e+06 
  644   645     2  1.410000e-01  6.5389e+06  1.410000e-01  6.5389e+06 
  644   676     2  1.410000e-01  6.5389e+06  1.410000e-01  6.5389e+06 
  645   647     2  1.410000e-01  6.5389e+06  1.410000e-01  6.5389e+06 
  646   647     2  1.410000e-01  6.5389e+06  1.410000e-01  6.5389e+06 
  646   648     2  1.410000e-01  6.5389e+06  1.410000e-01  6.5389e+06 
  646   678     2  1.410000e-01  6.5389e+06  1.410000e-01  6.5389e+06 
  648   649     2  1.410000e-01  6.5389e+06  1.410000e-01  6.5389e+06 
  648   680     2  1.410000e-01  6.5389e+06  1.410000e-01  6.5389e+06 
  649   651     2  1.410000e-01  6.5389e+06  1.410000e-01  6.5389e+06 
  650   651     2  1.410000e-01  6.5389e+06  1.410000e-01  6.5389e+06 
  650   652     2  1.410000e-01  6.5389e+06  1.410000e-01  6.5389e+06 
  650   682     2  1.410000e-01  6.5389e+06  1.410000e-01  6.5389e+06 
  652   653     2  1.410000e-01  6.5389e+06  1.410000e-01  6.5389e+06 
  652   684     2  1.410000e-01  6.5389e+06  1.410000e-01  6.5389e+06 
  653   655     2  1.410000e-01  6.5389e+06  1.410000e-01  6.5389e+06 
  654   655     2  1.410000e-01  6.5389e+06  1.410000e-01  6.5389e+06 
  654   656     2  1.410000e-01  6.5389e+06  1.410000e-01  6.5389e+06 
  654   686     2  1.410000e-01  6.5389e+06  1.410000e-01  6.5389e+06 
  656   657     2  1.410000e-01  6.5389e+06  1.410000e-01  6.5389e+06 
  656   688     2  1.410000e-01  6.5389e+06  1.410000e-01  6.5389e+06 
  657   659     2  1.410000e-01  6.5389e+06  1.410000e-01  6.5389e+06 
  658   659     2  1.410000e-01  6.5389e+06  1.410000e-01  6.5389e+06 
  658   660     2  1.410000e-01  6.5389e+06  1.410000e-01  6.5389e+06 
  658   690     2  1.410000e-01  6.5389e+06  1.410000e-01  6.5389e+06 
  660   661     2  1.410000e-01  6.5389e+06  1.410000e-01  6.5389e+06 
  660   692     2  1.410000e-01  6.5389e+06  1.410000e-01  6.5389e+06 
  661   663     2  1.410000e-01  6.5389e+06  1.410000e-01  6.5389e+06 
  662   663     2  1.410000e-01  6.5389e+06  1.410000e-01  6.5389e+06 
  662   664     2  1.410000e-01  6.5389e+06  1.410000e-01  6.5389e+06 
  662   693     2  1.410000e-01  6.5389e+06  1.410000e-01  6.5389e+06 
  664   665     2  1.420000e-01  6.5389e+06  1.420000e-01  6.5389e+06 
  665   666     2  1.410000e-01  6.5389e+06  1.410000e-01  6.5389e+06 
  666   819     2  1.080000e-01  1.2100e+07  1.080000e-01  1.2100e+07 
  667   668     2  1.410000e-01  6.5389e+06  1.410000e-01  6.5389e+06 
  667   694     2  1.390000e-01  8.6600e+06  1.390000e-01  8.6600e+06 
  667   801     2  1.080000e-01  1.2100e+07  1.080000e-01  1.2100e+07 
  668   670     2  1.420000e-01  6.5389e+06  1.420000e-01  6.5389e+06 
  669   670     2  1.420000e-01  6.5389e+06  1.420000e-01  6.5389e+06 
  669   671     2  1.410000e-01  6.5389e+06  1.410000e-01  6.5389e+06 
  669   696     2  1.420000e-01  6.5389e+06  1.420000e-01  6.5389e+06 
  671   672     2  1.410000e-01  6.5389e+06  1.410000e-01  6.5389e+06 
  671   698     2  1.410000e-01  6.5389e+06  1.410000e-01  6.5389e+06 
  672   674     2  1.410000e-01  6.5389e+06  1.410000e-01  6.5389e+06 
  673   674     2  1.410000e-01  6.5389e+06  1.410000e-01  6.5389e+06 
  673   675     2  1.410000e-01  6.5389e+06  1.410000e-01  6.5389e+06 
  673   700     2  1.410000e-01  6.5389e+06  1.410000e-01  6.5389e+06 
  675   676     2  1.410000e-01  6.5389e+06  1.410000e-01  6.5389e+06 
  675   702     2  1.410000e-01  6.5389e+06  1.410000e-01  6.5389e+06 
  676   678     2  1.410000e-01  6.5389e+06  1.410000e-01  6.5389e+06 
  677   678     2  1.410000e-01  6.5389e+06  1.410000e-01  6.5389e+06 
  677   679     2  1.410000e-01  6.5389e+06  1.410000e-01  6.5389e+06 
  677   704     2  1.410000e-01  6.5389e+06  1.410000e-01  6.5389e+06 
  679   680     2  1.410000e-01  6.5389e+06  1.410000e-01  6.5389e+06 
  679   706     2  1.410000e-01  6.5389e+06  1.410000e-01  6.5389e+06 
  680   682     2  1.410000e-01  6.5389e+06  1.410000e-01  6.5389e+06 
  681   682     2  1.410000e-01  6.5389e+06  1.410000e-01  6.5389e+06 
  681   683     2  1.410000e-01  6.5389e+06  1.410000e-01  6.5389e+06 
  681   708     2  1.410000e-01  6.5389e+06  1.410000e-01  6.5389e+06 
  683   684     2  1.410000e-01  6.5389e+06  1.410000e-01  6.5389e+06 
  683   710     2  1.410000e-01  6.5389e+06  1.410000e-01  6.5389e+06 
  684   686     2  1.410000e-01  6.5389e+06  1.410000e-01  6.5389e+06 
  685   686     2  1.410000e-01  6.5389e+06  1.410000e-01  6.5389e+06 
  685   687     2  1.410000e-01  6.5389e+06  1.410000e-01  6.5389e+06 
  685   712     2  1.410000e-01  6.5389e+06  1.410000e-01  6.5389e+06 
  687   688     2  1.410000e-01  6.5389e+06  1.410000e-01  6.5389e+06 
  687   714     2  1.410000e-01  6.5389e+06  1.410000e-01  6.5389e+06 
  688   690     2  1.410000e-01  6.5389e+06  1.410000e-01  6.5389e+06 
  689   690     2  1.410000e-01  6.5389e+06  1.410000e-01  6.5389e+06 
  689   691     2  1.410000e-01  6.5389e+06  1.410000e-01  6.5389e+06 
  689   715     2  1.410000e-01  6.5389e+06  1.410000e-01  6.5389e+06 
  691   692     2  1.410000e-01  6.5389e+06  1.410000e-01  6.5389e+06 
  692   693     2  1.410000e-01  6.5389e+06  1.410000e-01  6.5389e+06 
  694   696     2  1.410000e-01  6.5389e+06  1.410000e-01  6.5389e+06 
  694   800     2  1.080000e-01  1.2100e+07  1.080000e-01  1.2100e+07 
  695   696     2  1.430000e-01  6.5389e+06  1.430000e-01  6.5389e+06 
  695   697     2  1.410000e-01  6.5389e+06  1.410000e-01  6.5389e+06 
  695   717     2  1.410000e-01  8.5400e+06  1.410000e-01  8.5400e+06 
  697   698     2  1.410000e-01  6.5389e+06  1.410000e-01  6.5389e+06 
  697   719     2  1.420000e-01  6.5389e+06  1.420000e-01  6.5389e+06 
  698   700     2  1.410000e-01  6.5389e+06  1.410000e-01  6.5389e+06 
  699   700     2  1.410000e-01  6.5389e+06  1.410000e-01  6.5389e+06 
  699   701     2  1.410000e-01  6.5389e+06  1.410000e-01  6.5389e+06 
  699   721     2  1.410000e-01  6.5389e+06  1.410000e-01  6.5389e+06 
  701   702     2  1.410000e-01  6.5389e+06  1.410000e-01  6.5389e+06 
  701   723     2  1.410000e-01  6.5389e+06  1.410000e-01  6.5389e+06 
  702   704     2  1.410000e-01  6.5389e+06  1.410000e-01  6.5389e+06 
  703   704     2  1.410000e-01  6.5389e+06  1.410000e-01  6.5389e+06 
  703   705     2  1.410000e-01  6.5389e+06  1.410000e-01  6.5389e+06 
  703   725     2  1.410000e-01  6.5389e+06  1.410000e-01  6.5389e+06 
  705   706     2  1.410000e-01  6.5389e+06  1.410000e-01  6.5389e+06 
  705   727     2  1.410000e-01  6.5389e+06  1.410000e-01  6.5389e+06 
  706   708     2  1.410000e-01  6.5389e+06  1.410000e-01  6.5389e+06 
  707   708     2  1.410000e-01  6.5389e+06  1.410000e-01  6.5389e+06 
  707   709     2  1.410000e-01  6.5389e+06  1.410000e-01  6.5389e+06 
  707   729     2  1.410000e-01  6.5389e+06  1.410000e-01  6.5389e+06 
  709   710     2  1.410000e-01  6.5389e+06  1.410000e-01  6.5389e+06 
  709   731     2  1.410000e-01  6.5389e+06  1.410000e-01  6.5389e+06 
  710   712     2  1.410000e-01  6.5389e+06  1.410000e-01  6.5389e+06 
  711   712     2  1.410000e-01  6.5389e+06  1.410000e-01  6.5389e+06 
  711   713     2  1.410000e-01  6.5389e+06  1.410000e-01  6.5389e+06 
  711   732     2  1.410000e-01  6.5389e+06  1.410000e-01  6.5389e+06 
  713   714     2  1.410000e-01  6.5389e+06  1.410000e-01  6.5389e+06 
  714   715     2  1.410000e-01  6.5389e+06  1.410000e-01  6.5389e+06 
  716   717     2  1.400000e-01  8.6600e+06  1.400000e-01  8.6600e+06 
  716   718     2  1.420000e-01  6.5389e+06  1.420000e-01  6.5389e+06 
  716   757     2  1.400000e-01  1.1000e+07  1.400000e-01  1.1000e+07 
  717   799     2  1.080000e-01  1.2100e+07  1.080000e-01  1.2100e+07 
  718   719     2  1.420000e-01  6.5389e+06  1.420000e-01  6.5389e+06 
  718   734     2  1.430000e-01  6.5389e+06  1.430000e-01  6.5389e+06 
  719   721     2  1.410000e-01  6.5389e+06  1.410000e-01  6.5389e+06 
  720   721     2  1.410000e-01  6.5389e+06  1.410000e-01  6.5389e+06 
  720   722     2  1.410000e-01  6.5389e+06  1.410000e-01  6.5389e+06 
  720   736     2  1.410000e-01  6.5389e+06  1.410000e-01  6.5389e+06 
  722   723     2  1.410000e-01  6.5389e+06  1.410000e-01  6.5389e+06 
  722   738     2  1.410000e-01  6.5389e+06  1.410000e-01  6.5389e+06 
  723   725     2  1.410000e-01  6.5389e+06  1.410000e-01  6.5389e+06 
  724   725     2  1.410000e-01  6.5389e+06  1.410000e-01  6.5389e+06 
  724   726     2  1.410000e-01  6.5389e+06  1.410000e-01  6.5389e+06 
  724   740     2  1.410000e-01  6.5389e+06  1.410000e-01  6.5389e+06 
  726   727     2  1.410000e-01  6.5389e+06  1.410000e-01  6.5389e+06 
  726   742     2  1.410000e-01  6.5389e+06  1.410000e-01  6.5389e+06 
  727   729     2  1.410000e-01  6.5389e+06  1.410000e-01  6.5389e+06 
  728   729     2  1.410000e-01  6.5389e+06  1.410000e-01  6.5389e+06 
  728   730     2  1.410000e-01  6.5389e+06  1.410000e-01  6.5389e+06 
  728   743     2  1.410000e-01  6.5389e+06  1.410000e-01  6.5389e+06 
  730   731     2  1.410000e-01  6.5389e+06  1.410000e-01  6.5389e+06 
  731   732     2  1.410000e-01  6.5389e+06  1.410000e-01  6.5389e+06 
  733   734     2  1.410000e-01  6.5389e+06  1.410000e-01  6.5389e+06 
  733   744     2  1.390000e-01  8.6600e+06  1.390000e-01  8.6600e+06 
  733   798     2  1.080000e-01  1.2100e+07  1.080000e-01  1.2100e+07 
  734   736     2  1.420000e-01  6.5389e+06  1.420000e-01  6.5389e+06 
  735   736     2  1.420000e-01  6.5389e+06  1.420000e-01  6.5389e+06 
  735   737     2  1.410000e-01  6.5389e+06  1.410000e-01  6.5389e+06 
  735   746     2  1.420000e-01  6.5389e+06  1.420000e-01  6.5389e+06 
  737   738     2  1.410000e-01  6.5389e+06  1.410000e-01  6.5389e+06 
  737   748     2  1.410000e-01  6.5389e+06  1.410000e-01  6.5389e+06 
  738   740     2  1.410000e-01  6.5389e+06  1.410000e-01  6.5389e+06 
  739   740     2  1.410000e-01  6.5389e+06  1.410000e-01  6.5389e+06 
  739   741     2  1.410000e-01  6.5389e+06  1.410000e-01  6.5389e+06 
  739   749     2  1.410000e-01  6.5389e+06  1.410000e-01  6.5389e+06 
  741   742     2  1.410000e-01  6.5389e+06  1.410000e-01  6.5389e+06 
  742   743     2  1.410000e-01  6.5389e+06  1.410000e-01  6.5389e+06 
  744   746     2  1.410000e-01  6.5389e+06  1.410000e-01  6.5389e+06 
  744   797     2  1.080000e-01  1.2100e+07  1.080000e-01  1.2100e+07 
  745   746     2  1.430000e-01  6.5389e+06  1.430000e-01  6.5389e+06 
  745   747     2  1.410000e-01  6.5389e+06  1.410000e-01  6.5389e+06 
  745   750     2  1.410000e-01  8.5400e+06  1.410000e-01  8.5400e+06 
  747   748     2  1.410000e-01  6.5389e+06  1.410000e-01  6.5389e+06 
  748   749     2  1.410000e-01  6.5389e+06  1.410000e-01  6.5389e+06 
  750   796     2  1.080000e-01  1.2100e+07  1.080000e-01  1.2100e+07 
  751   752     2  1.010000e-01  7.9547e+06  1.010000e-01  7.9547e+06 
  753   754     2  1.010000e-01  7.9547e+06  1.010000e-01  7.9547e+06 
  755   756     2  1.010000e-01  7.9547e+06  1.010000e-01  7.9547e+06 
  757   758     2  1.010000e-01  7.9547e+06  1.010000e-01  7.9547e+06 
  759   760     2  1.010000e-01  7.9547e+06  1.010000e-01  7.9547e+06 
  761   762     2  1.010000e-01  7.9547e+06  1.010000e-01  7.9547e+06 
  763   764     2  1.010000e-01  7.9547e+06  1.010000e-01  7.9547e+06 
  765   766     2  1.010000e-01  7.9547e+06  1.010000e-01  7.9547e+06 
  767   768     2  1.010000e-01  7.9547e+06  1.010000e-01  7.9547e+06 
  769   770     2  1.010000e-01  7.9547e+06  1.010000e-01  7.9547e+06 
  771   772     2  1.010000e-01  7.9547e+06  1.010000e-01  7.9547e+06 
  773   774     2  1.010000e-01  7.9547e+06  1.010000e-01  7.9547e+06 
  775   776     2  1.010000e-01  7.9547e+06  1.010000e-01  7.9547e+06 
  777   778     2  1.010000e-01  7.9547e+06  1.010000e-01  7.9547e+06 

[ pairs ]
;  ai    aj funct            c0            c1            c2            c3
    1     5     1 
    1     9     1 
    1    12     1 
    1    21     1 
    1   632     1 
    1   663     1 
    1   666     1 
    1   693     1 
    1   818     1 
    2     6     1 
    2     7     1 
    2    11     1 
    2    23     1 
    2   662     1 
    2   665     1 
    2   775     1 
    2   819     1 
    3     8     1 
    3     9     1 
    3    12     1 
    3   632     1 
    3   664     1 
    4     8     1 
    4    14     1 
    4    18     1 
    4    21     1 
    4    35     1 
    4   660     1 
    4   690     1 
    4   693     1 
    4   715     1 
    5     7     1 
    5    15     1 
    5    16     1 
    5    20     1 
    5    37     1 
    5   662     1 
    5   689     1 
    5   692     1 
    6     9     1 
    6    17     1 
    6    18     1 
    6    21     1 
    6   660     1 
    6   663     1 
    6   664     1 
    6   691     1 
    7    12     1 
    7    18     1 
    7    22     1 
    7    25     1 
    7    39     1 
    7   664     1 
    7   693     1 
    8    10     1 
    8    19     1 
    8    20     1 
    8    23     1 
    8   662     1 
    8   665     1 
    8   692     1 
    9    11     1 
    9    19     1 
    9    20     1 
    9    24     1 
    9    41     1 
    9   775     1 
   10    21     1 
   10    22     1 
   10    25     1 
   10   664     1 
   10   666     1 
   10   776     1 
   10   816     1 
   10   818     1 
   11    22     1 
   11    26     1 
   11    43     1 
   11   776     1 
   12    23     1 
   12    24     1 
   13    17     1 
   13    28     1 
   13    32     1 
   13    35     1 
   13    54     1 
   13   687     1 
   13   712     1 
   13   715     1 
   13   732     1 
   14    16     1 
   14    29     1 
   14    30     1 
   14    34     1 
   14    56     1 
   14   689     1 
   14   711     1 
   14   714     1 
   15    18     1 
   15    31     1 
   15    32     1 
   15    35     1 
   15   687     1 
   15   690     1 
   15   691     1 
   15   713     1 
   16    21     1 
   16    32     1 
   16    36     1 
   16    39     1 
   16    58     1 
   16   691     1 
   16   715     1 
   17    19     1 
   17    33     1 
   17    34     1 
   17    37     1 
   17   689     1 
   17   692     1 
   17   714     1 
   18    20     1 
   18    33     1 
   18    34     1 
   18    38     1 
   18    60     1 
   19    22     1 
   19    35     1 
   19    36     1 
   19    39     1 
   19   691     1 
   19   693     1 
   20    25     1 
   20    36     1 
   20    40     1 
   20    43     1 
   20    62     1 
   21    23     1 
   21    37     1 
   21    38     1 
   21    41     1 
   22    24     1 
   22    37     1 
   22    38     1 
   22    42     1 
   22    64     1 
   23    26     1 
   23    39     1 
   23    40     1 
   23    43     1 
   23   816     1 
   24    40     1 
   24    44     1 
   24    66     1 
   24   815     1 
   24   816     1 
   25    41     1 
   25    42     1 
   25    45     1 
   25   775     1 
   25   817     1 
   26    41     1 
   26    42     1 
   26    68     1 
   27    31     1 
   27    47     1 
   27    51     1 
   27    54     1 
   27    79     1 
   27   709     1 
   27   729     1 
   27   732     1 
   27   743     1 
   28    30     1 
   28    48     1 
   28    49     1 
   28    53     1 
   28    81     1 
   28   711     1 
   28   728     1 
   28   731     1 
   29    32     1 
   29    50     1 
   29    51     1 
   29    54     1 
   29   709     1 
   29   712     1 
   29   713     1 
   29   730     1 
   30    35     1 
   30    51     1 
   30    55     1 
   30    58     1 
   30    83     1 
   30   713     1 
   30   732     1 
   31    33     1 
   31    52     1 
   31    53     1 
   31    56     1 
   31   711     1 
   31   714     1 
   31   731     1 
   32    34     1 
   32    52     1 
   32    53     1 
   32    57     1 
   32    85     1 
   33    36     1 
   33    54     1 
   33    55     1 
   33    58     1 
   33   713     1 
   33   715     1 
   34    39     1 
   34    55     1 
   34    59     1 
   34    62     1 
   34    87     1 
   35    37     1 
   35    56     1 
   35    57     1 
   35    60     1 
   36    38     1 
   36    56     1 
   36    57     1 
   36    61     1 
   36    89     1 
   37    40     1 
   37    58     1 
   37    59     1 
   37    62     1 
   38    43     1 
   38    59     1 
   38    63     1 
   38    66     1 
   38    91     1 
   39    41     1 
   39    60     1 
   39    61     1 
   39    64     1 
   40    42     1 
   40    60     1 
   40    61     1 
   40    65     1 
   40    93     1 
   41    44     1 
   41    62     1 
   41    63     1 
   41    66     1 
   42    63     1 
   42    67     1 
   42    70     1 
   42    95     1 
   42   815     1 
   43    45     1 
   43    64     1 
   43    65     1 
   43    68     1 
   43   817     1 
   44    64     1 
   44    65     1 
   44    69     1 
   44    97     1 
   44   773     1 
   44   817     1 
   45    66     1 
   45    67     1 
   45    70     1 
   46    50     1 
   46    72     1 
   46    76     1 
   46    79     1 
   46   107     1 
   46   726     1 
   46   740     1 
   46   743     1 
   46   749     1 
   47    49     1 
   47    73     1 
   47    74     1 
   47    78     1 
   47   109     1 
   47   728     1 
   47   739     1 
   47   742     1 
   48    51     1 
   48    75     1 
   48    76     1 
   48    79     1 
   48   726     1 
   48   729     1 
   48   730     1 
   48   741     1 
   49    54     1 
   49    76     1 
   49    80     1 
   49    83     1 
   49   111     1 
   49   730     1 
   49   743     1 
   50    52     1 
   50    77     1 
   50    78     1 
   50    81     1 
   50   728     1 
   50   731     1 
   50   742     1 
   51    53     1 
   51    77     1 
   51    78     1 
   51    82     1 
   51   113     1 
   52    55     1 
   52    79     1 
   52    80     1 
   52    83     1 
   52   730     1 
   52   732     1 
   53    58     1 
   53    80     1 
   53    84     1 
   53    87     1 
   53   115     1 
   54    56     1 
   54    81     1 
   54    82     1 
   54    85     1 
   55    57     1 
   55    81     1 
   55    82     1 
   55    86     1 
   55   117     1 
   56    59     1 
   56    83     1 
   56    84     1 
   56    87     1 
   57    62     1 
   57    84     1 
   57    88     1 
   57    91     1 
   57   119     1 
   58    60     1 
   58    85     1 
   58    86     1 
   58    89     1 
   59    61     1 
   59    85     1 
   59    86     1 
   59    90     1 
   59   121     1 
   60    63     1 
   60    87     1 
   60    88     1 
   60    91     1 
   61    66     1 
   61    88     1 
   61    92     1 
   61    95     1 
   61   123     1 
   62    64     1 
   62    89     1 
   62    90     1 
   62    93     1 
   63    65     1 
   63    89     1 
   63    90     1 
   63    94     1 
   63   125     1 
   64    67     1 
   64    91     1 
   64    92     1 
   64    95     1 
   65    70     1 
   65    92     1 
   65    96     1 
   65    99     1 
   65   127     1 
   66    68     1 
   66    93     1 
   66    94     1 
   66    97     1 
   67    69     1 
   67    93     1 
   67    94     1 
   67    98     1 
   67   129     1 
   67   773     1 
   68    95     1 
   68    96     1 
   68    99     1 
   68   774     1 
   68   814     1 
   68   815     1 
   69    96     1 
   69   100     1 
   69   131     1 
   69   774     1 
   70    97     1 
   70    98     1 
   71    75     1 
   71   104     1 
   71   107     1 
   71   135     1 
   71   737     1 
   71   746     1 
   71   749     1 
   71   750     1 
   71   759     1 
   72    74     1 
   72   101     1 
   72   102     1 
   72   106     1 
   72   137     1 
   72   739     1 
   72   745     1 
   72   748     1 
   73    76     1 
   73   103     1 
   73   104     1 
   73   107     1 
   73   737     1 
   73   740     1 
   73   741     1 
   73   747     1 
   74    79     1 
   74   104     1 
   74   108     1 
   74   111     1 
   74   139     1 
   74   741     1 
   74   749     1 
   75    77     1 
   75   105     1 
   75   106     1 
   75   109     1 
   75   739     1 
   75   742     1 
   75   748     1 
   76    78     1 
   76   105     1 
   76   106     1 
   76   110     1 
   76   141     1 
   77    80     1 
   77   107     1 
   77   108     1 
   77   111     1 
   77   741     1 
   77   743     1 
   78    83     1 
   78   108     1 
   78   112     1 
   78   115     1 
   78   143     1 
   79    81     1 
   79   109     1 
   79   110     1 
   79   113     1 
   80    82     1 
   80   109     1 
   80   110     1 
   80   114     1 
   80   145     1 
   81    84     1 
   81   111     1 
   81   112     1 
   81   115     1 
   82    87     1 
   82   112     1 
   82   116     1 
   82   119     1 
   82   147     1 
   83    85     1 
   83   113     1 
   83   114     1 
   83   117     1 
   84    86     1 
   84   113     1 
   84   114     1 
   84   118     1 
   84   149     1 
   85    88     1 
   85   115     1 
   85   116     1 
   85   119     1 
   86    91     1 
   86   116     1 
   86   120     1 
   86   123     1 
   86   151     1 
   87    89     1 
   87   117     1 
   87   118     1 
   87   121     1 
   88    90     1 
   88   117     1 
   88   118     1 
   88   122     1 
   88   153     1 
   89    92     1 
   89   119     1 
   89   120     1 
   89   123     1 
   90    95     1 
   90   120     1 
   90   124     1 
   90   127     1 
   90   155     1 
   91    93     1 
   91   121     1 
   91   122     1 
   91   125     1 
   92    94     1 
   92   121     1 
   92   122     1 
   92   126     1 
   92   157     1 
   93    96     1 
   93   123     1 
   93   124     1 
   93   127     1 
   94    99     1 
   94   124     1 
   94   128     1 
   94   131     1 
   94   159     1 
   95    97     1 
   95   125     1 
   95   126     1 
   95   129     1 
   96    98     1 
   96   125     1 
   96   126     1 
   96   130     1 
   96   161     1 
   97   100     1 
   97   127     1 
   97   128     1 
   97   131     1 
   97   814     1 
   98   128     1 
   98   132     1 
   98   163     1 
   98   812     1 
   98   814     1 
   99   129     1 
   99   130     1 
   99   133     1 
   99   773     1 
   99   813     1 
  100   129     1 
  100   130     1 
  100   165     1 
  101   104     1 
  101   135     1 
  101   746     1 
  101   747     1 
  102   107     1 
  102   136     1 
  102   139     1 
  102   747     1 
  102   750     1 
  102   759     1 
  102   794     1 
  103   105     1 
  103   134     1 
  103   137     1 
  103   745     1 
  103   748     1 
  103   760     1 
  103   795     1 
  103   796     1 
  104   106     1 
  104   134     1 
  104   138     1 
  104   169     1 
  104   795     1 
  105   108     1 
  105   135     1 
  105   136     1 
  105   139     1 
  105   747     1 
  105   749     1 
  106   111     1 
  106   136     1 
  106   140     1 
  106   143     1 
  106   171     1 
  107   109     1 
  107   137     1 
  107   138     1 
  107   141     1 
  108   110     1 
  108   137     1 
  108   138     1 
  108   142     1 
  108   173     1 
  109   112     1 
  109   139     1 
  109   140     1 
  109   143     1 
  110   115     1 
  110   140     1 
  110   144     1 
  110   147     1 
  110   175     1 
  111   113     1 
  111   141     1 
  111   142     1 
  111   145     1 
  112   114     1 
  112   141     1 
  112   142     1 
  112   146     1 
  112   177     1 
  113   116     1 
  113   143     1 
  113   144     1 
  113   147     1 
  114   119     1 
  114   144     1 
  114   148     1 
  114   151     1 
  114   179     1 
  115   117     1 
  115   145     1 
  115   146     1 
  115   149     1 
  116   118     1 
  116   145     1 
  116   146     1 
  116   150     1 
  116   181     1 
  117   120     1 
  117   147     1 
  117   148     1 
  117   151     1 
  118   123     1 
  118   148     1 
  118   152     1 
  118   155     1 
  118   183     1 
  119   121     1 
  119   149     1 
  119   150     1 
  119   153     1 
  120   122     1 
  120   149     1 
  120   150     1 
  120   154     1 
  120   185     1 
  121   124     1 
  121   151     1 
  121   152     1 
  121   155     1 
  122   127     1 
  122   152     1 
  122   156     1 
  122   159     1 
  122   187     1 
  123   125     1 
  123   153     1 
  123   154     1 
  123   157     1 
  124   126     1 
  124   153     1 
  124   154     1 
  124   158     1 
  124   189     1 
  125   128     1 
  125   155     1 
  125   156     1 
  125   159     1 
  126   131     1 
  126   156     1 
  126   160     1 
  126   163     1 
  126   191     1 
  127   129     1 
  127   157     1 
  127   158     1 
  127   161     1 
  128   130     1 
  128   157     1 
  128   158     1 
  128   162     1 
  128   193     1 
  129   132     1 
  129   159     1 
  129   160     1 
  129   163     1 
  130   160     1 
  130   164     1 
  130   167     1 
  130   195     1 
  130   812     1 
  131   133     1 
  131   161     1 
  131   162     1 
  131   165     1 
  131   813     1 
  132   161     1 
  132   162     1 
  132   166     1 
  132   197     1 
  132   771     1 
  132   813     1 
  133   163     1 
  133   164     1 
  133   167     1 
  134   139     1 
  134   168     1 
  134   171     1 
  135   137     1 
  135   169     1 
  136   138     1 
  136   170     1 
  136   201     1 
  136   793     1 
  136   795     1 
  137   140     1 
  137   168     1 
  137   171     1 
  137   794     1 
  138   143     1 
  138   168     1 
  138   172     1 
  138   175     1 
  138   203     1 
  139   141     1 
  139   169     1 
  139   170     1 
  139   173     1 
  140   142     1 
  140   169     1 
  140   170     1 
  140   174     1 
  140   205     1 
  141   144     1 
  141   171     1 
  141   172     1 
  141   175     1 
  142   147     1 
  142   172     1 
  142   176     1 
  142   179     1 
  142   207     1 
  143   145     1 
  143   173     1 
  143   174     1 
  143   177     1 
  144   146     1 
  144   173     1 
  144   174     1 
  144   178     1 
  144   209     1 
  145   148     1 
  145   175     1 
  145   176     1 
  145   179     1 
  146   151     1 
  146   176     1 
  146   180     1 
  146   183     1 
  146   211     1 
  147   149     1 
  147   177     1 
  147   178     1 
  147   181     1 
  148   150     1 
  148   177     1 
  148   178     1 
  148   182     1 
  148   213     1 
  149   152     1 
  149   179     1 
  149   180     1 
  149   183     1 
  150   155     1 
  150   180     1 
  150   184     1 
  150   187     1 
  150   215     1 
  151   153     1 
  151   181     1 
  151   182     1 
  151   185     1 
  152   154     1 
  152   181     1 
  152   182     1 
  152   186     1 
  152   217     1 
  153   156     1 
  153   183     1 
  153   184     1 
  153   187     1 
  154   159     1 
  154   184     1 
  154   188     1 
  154   191     1 
  154   219     1 
  155   157     1 
  155   185     1 
  155   186     1 
  155   189     1 
  156   158     1 
  156   185     1 
  156   186     1 
  156   190     1 
  156   221     1 
  157   160     1 
  157   187     1 
  157   188     1 
  157   191     1 
  158   163     1 
  158   188     1 
  158   192     1 
  158   195     1 
  158   223     1 
  159   161     1 
  159   189     1 
  159   190     1 
  159   193     1 
  160   162     1 
  160   189     1 
  160   190     1 
  160   194     1 
  160   225     1 
  161   164     1 
  161   191     1 
  161   192     1 
  161   195     1 
  162   167     1 
  162   192     1 
  162   196     1 
  162   199     1 
  162   227     1 
  163   165     1 
  163   193     1 
  163   194     1 
  163   197     1 
  164   166     1 
  164   193     1 
  164   194     1 
  164   198     1 
  164   229     1 
  164   771     1 
  165   195     1 
  165   196     1 
  165   199     1 
  165   772     1 
  165   811     1 
  165   812     1 
  166   196     1 
  166   200     1 
  166   231     1 
  166   772     1 
  167   197     1 
  167   198     1 
  168   170     1 
  168   202     1 
  168   764     1 
  169   172     1 
  169   203     1 
  169   763     1 
  169   794     1 
  170   175     1 
  170   204     1 
  170   207     1 
  170   235     1 
  170   763     1 
  171   173     1 
  171   201     1 
  171   202     1 
  171   205     1 
  171   793     1 
  172   174     1 
  172   201     1 
  172   202     1 
  172   206     1 
  172   237     1 
  173   176     1 
  173   203     1 
  173   204     1 
  173   207     1 
  174   179     1 
  174   204     1 
  174   208     1 
  174   211     1 
  174   239     1 
  175   177     1 
  175   205     1 
  175   206     1 
  175   209     1 
  176   178     1 
  176   205     1 
  176   206     1 
  176   210     1 
  176   241     1 
  177   180     1 
  177   207     1 
  177   208     1 
  177   211     1 
  178   183     1 
  178   208     1 
  178   212     1 
  178   215     1 
  178   243     1 
  179   181     1 
  179   209     1 
  179   210     1 
  179   213     1 
  180   182     1 
  180   209     1 
  180   210     1 
  180   214     1 
  180   245     1 
  181   184     1 
  181   211     1 
  181   212     1 
  181   215     1 
  182   187     1 
  182   212     1 
  182   216     1 
  182   219     1 
  182   247     1 
  183   185     1 
  183   213     1 
  183   214     1 
  183   217     1 
  184   186     1 
  184   213     1 
  184   214     1 
  184   218     1 
  184   249     1 
  185   188     1 
  185   215     1 
  185   216     1 
  185   219     1 
  186   191     1 
  186   216     1 
  186   220     1 
  186   223     1 
  186   251     1 
  187   189     1 
  187   217     1 
  187   218     1 
  187   221     1 
  188   190     1 
  188   217     1 
  188   218     1 
  188   222     1 
  188   253     1 
  189   192     1 
  189   219     1 
  189   220     1 
  189   223     1 
  190   195     1 
  190   220     1 
  190   224     1 
  190   227     1 
  190   255     1 
  191   193     1 
  191   221     1 
  191   222     1 
  191   225     1 
  192   194     1 
  192   221     1 
  192   222     1 
  192   226     1 
  192   257     1 
  193   196     1 
  193   223     1 
  193   224     1 
  193   227     1 
  194   199     1 
  194   224     1 
  194   228     1 
  194   231     1 
  194   259     1 
  195   197     1 
  195   225     1 
  195   226     1 
  195   229     1 
  196   198     1 
  196   225     1 
  196   226     1 
  196   230     1 
  196   261     1 
  197   200     1 
  197   227     1 
  197   228     1 
  197   231     1 
  197   811     1 
  198   228     1 
  198   232     1 
  198   263     1 
  198   809     1 
  198   811     1 
  199   229     1 
  199   230     1 
  199   233     1 
  199   771     1 
  199   810     1 
  200   229     1 
  200   230     1 
  200   265     1 
  201   204     1 
  201   235     1 
  202   207     1 
  202   236     1 
  202   239     1 
  202   763     1 
  202   791     1 
  203   205     1 
  203   234     1 
  203   237     1 
  203   764     1 
  203   792     1 
  203   793     1 
  204   206     1 
  204   234     1 
  204   238     1 
  204   269     1 
  204   792     1 
  205   208     1 
  205   235     1 
  205   236     1 
  205   239     1 
  206   211     1 
  206   236     1 
  206   240     1 
  206   243     1 
  206   271     1 
  207   209     1 
  207   237     1 
  207   238     1 
  207   241     1 
  208   210     1 
  208   237     1 
  208   238     1 
  208   242     1 
  208   273     1 
  209   212     1 
  209   239     1 
  209   240     1 
  209   243     1 
  210   215     1 
  210   240     1 
  210   244     1 
  210   247     1 
  210   275     1 
  211   213     1 
  211   241     1 
  211   242     1 
  211   245     1 
  212   214     1 
  212   241     1 
  212   242     1 
  212   246     1 
  212   277     1 
  213   216     1 
  213   243     1 
  213   244     1 
  213   247     1 
  214   219     1 
  214   244     1 
  214   248     1 
  214   251     1 
  214   279     1 
  215   217     1 
  215   245     1 
  215   246     1 
  215   249     1 
  216   218     1 
  216   245     1 
  216   246     1 
  216   250     1 
  216   281     1 
  217   220     1 
  217   247     1 
  217   248     1 
  217   251     1 
  218   223     1 
  218   248     1 
  218   252     1 
  218   255     1 
  218   283     1 
  219   221     1 
  219   249     1 
  219   250     1 
  219   253     1 
  220   222     1 
  220   249     1 
  220   250     1 
  220   254     1 
  220   285     1 
  221   224     1 
  221   251     1 
  221   252     1 
  221   255     1 
  222   227     1 
  222   252     1 
  222   256     1 
  222   259     1 
  222   287     1 
  223   225     1 
  223   253     1 
  223   254     1 
  223   257     1 
  224   226     1 
  224   253     1 
  224   254     1 
  224   258     1 
  224   289     1 
  225   228     1 
  225   255     1 
  225   256     1 
  225   259     1 
  226   231     1 
  226   256     1 
  226   260     1 
  226   263     1 
  226   291     1 
  227   229     1 
  227   257     1 
  227   258     1 
  227   261     1 
  228   230     1 
  228   257     1 
  228   258     1 
  228   262     1 
  228   293     1 
  229   232     1 
  229   259     1 
  229   260     1 
  229   263     1 
  230   260     1 
  230   264     1 
  230   267     1 
  230   295     1 
  230   809     1 
  231   233     1 
  231   261     1 
  231   262     1 
  231   265     1 
  231   810     1 
  232   261     1 
  232   262     1 
  232   266     1 
  232   297     1 
  232   767     1 
  232   810     1 
  233   263     1 
  233   264     1 
  233   267     1 
  234   239     1 
  234   268     1 
  234   271     1 
  235   237     1 
  235   269     1 
  236   238     1 
  236   270     1 
  236   301     1 
  236   790     1 
  236   792     1 
  237   240     1 
  237   268     1 
  237   271     1 
  237   791     1 
  238   243     1 
  238   268     1 
  238   272     1 
  238   275     1 
  238   303     1 
  239   241     1 
  239   269     1 
  239   270     1 
  239   273     1 
  240   242     1 
  240   269     1 
  240   270     1 
  240   274     1 
  240   305     1 
  241   244     1 
  241   271     1 
  241   272     1 
  241   275     1 
  242   247     1 
  242   272     1 
  242   276     1 
  242   279     1 
  242   307     1 
  243   245     1 
  243   273     1 
  243   274     1 
  243   277     1 
  244   246     1 
  244   273     1 
  244   274     1 
  244   278     1 
  244   309     1 
  245   248     1 
  245   275     1 
  245   276     1 
  245   279     1 
  246   251     1 
  246   276     1 
  246   280     1 
  246   283     1 
  246   311     1 
  247   249     1 
  247   277     1 
  247   278     1 
  247   281     1 
  248   250     1 
  248   277     1 
  248   278     1 
  248   282     1 
  248   313     1 
  249   252     1 
  249   279     1 
  249   280     1 
  249   283     1 
  250   255     1 
  250   280     1 
  250   284     1 
  250   287     1 
  250   315     1 
  251   253     1 
  251   281     1 
  251   282     1 
  251   285     1 
  252   254     1 
  252   281     1 
  252   282     1 
  252   286     1 
  252   317     1 
  253   256     1 
  253   283     1 
  253   284     1 
  253   287     1 
  254   259     1 
  254   284     1 
  254   288     1 
  254   291     1 
  254   319     1 
  255   257     1 
  255   285     1 
  255   286     1 
  255   289     1 
  256   258     1 
  256   285     1 
  256   286     1 
  256   290     1 
  256   321     1 
  257   260     1 
  257   287     1 
  257   288     1 
  257   291     1 
  258   263     1 
  258   288     1 
  258   292     1 
  258   295     1 
  258   323     1 
  259   261     1 
  259   289     1 
  259   290     1 
  259   293     1 
  260   262     1 
  260   289     1 
  260   290     1 
  260   294     1 
  260   325     1 
  261   264     1 
  261   291     1 
  261   292     1 
  261   295     1 
  262   267     1 
  262   292     1 
  262   296     1 
  262   299     1 
  262   327     1 
  263   265     1 
  263   293     1 
  263   294     1 
  263   297     1 
  264   266     1 
  264   293     1 
  264   294     1 
  264   298     1 
  264   329     1 
  264   767     1 
  265   295     1 
  265   296     1 
  265   299     1 
  265   768     1 
  265   808     1 
  265   809     1 
  266   296     1 
  266   300     1 
  266   331     1 
  266   768     1 
  267   297     1 
  267   298     1 
  268   270     1 
  268   302     1 
  268   762     1 
  269   272     1 
  269   303     1 
  269   761     1 
  269   791     1 
  270   275     1 
  270   304     1 
  270   307     1 
  270   335     1 
  270   761     1 
  271   273     1 
  271   301     1 
  271   302     1 
  271   305     1 
  271   790     1 
  272   274     1 
  272   301     1 
  272   302     1 
  272   306     1 
  272   337     1 
  273   276     1 
  273   303     1 
  273   304     1 
  273   307     1 
  274   279     1 
  274   304     1 
  274   308     1 
  274   311     1 
  274   339     1 
  275   277     1 
  275   305     1 
  275   306     1 
  275   309     1 
  276   278     1 
  276   305     1 
  276   306     1 
  276   310     1 
  276   341     1 
  277   280     1 
  277   307     1 
  277   308     1 
  277   311     1 
  278   283     1 
  278   308     1 
  278   312     1 
  278   315     1 
  278   343     1 
  279   281     1 
  279   309     1 
  279   310     1 
  279   313     1 
  280   282     1 
  280   309     1 
  280   310     1 
  280   314     1 
  280   345     1 
  281   284     1 
  281   311     1 
  281   312     1 
  281   315     1 
  282   287     1 
  282   312     1 
  282   316     1 
  282   319     1 
  282   347     1 
  283   285     1 
  283   313     1 
  283   314     1 
  283   317     1 
  284   286     1 
  284   313     1 
  284   314     1 
  284   318     1 
  284   349     1 
  285   288     1 
  285   315     1 
  285   316     1 
  285   319     1 
  286   291     1 
  286   316     1 
  286   320     1 
  286   323     1 
  286   351     1 
  287   289     1 
  287   317     1 
  287   318     1 
  287   321     1 
  288   290     1 
  288   317     1 
  288   318     1 
  288   322     1 
  288   353     1 
  289   292     1 
  289   319     1 
  289   320     1 
  289   323     1 
  290   295     1 
  290   320     1 
  290   324     1 
  290   327     1 
  290   355     1 
  291   293     1 
  291   321     1 
  291   322     1 
  291   325     1 
  292   294     1 
  292   321     1 
  292   322     1 
  292   326     1 
  292   357     1 
  293   296     1 
  293   323     1 
  293   324     1 
  293   327     1 
  294   299     1 
  294   324     1 
  294   328     1 
  294   331     1 
  294   359     1 
  295   297     1 
  295   325     1 
  295   326     1 
  295   329     1 
  296   298     1 
  296   325     1 
  296   326     1 
  296   330     1 
  296   361     1 
  297   300     1 
  297   327     1 
  297   328     1 
  297   331     1 
  297   808     1 
  298   328     1 
  298   332     1 
  298   363     1 
  298   765     1 
  298   808     1 
  299   329     1 
  299   330     1 
  299   333     1 
  299   767     1 
  299   807     1 
  300   329     1 
  300   330     1 
  300   365     1 
  300   766     1 
  301   304     1 
  301   335     1 
  302   307     1 
  302   336     1 
  302   339     1 
  302   761     1 
  302   788     1 
  303   305     1 
  303   334     1 
  303   337     1 
  303   762     1 
  303   789     1 
  303   790     1 
  304   306     1 
  304   334     1 
  304   338     1 
  304   369     1 
  304   789     1 
  305   308     1 
  305   335     1 
  305   336     1 
  305   339     1 
  306   311     1 
  306   336     1 
  306   340     1 
  306   343     1 
  306   371     1 
  307   309     1 
  307   337     1 
  307   338     1 
  307   341     1 
  308   310     1 
  308   337     1 
  308   338     1 
  308   342     1 
  308   373     1 
  309   312     1 
  309   339     1 
  309   340     1 
  309   343     1 
  310   315     1 
  310   340     1 
  310   344     1 
  310   347     1 
  310   375     1 
  311   313     1 
  311   341     1 
  311   342     1 
  311   345     1 
  312   314     1 
  312   341     1 
  312   342     1 
  312   346     1 
  312   377     1 
  313   316     1 
  313   343     1 
  313   344     1 
  313   347     1 
  314   319     1 
  314   344     1 
  314   348     1 
  314   351     1 
  314   379     1 
  315   317     1 
  315   345     1 
  315   346     1 
  315   349     1 
  316   318     1 
  316   345     1 
  316   346     1 
  316   350     1 
  316   381     1 
  317   320     1 
  317   347     1 
  317   348     1 
  317   351     1 
  318   323     1 
  318   348     1 
  318   352     1 
  318   355     1 
  318   383     1 
  319   321     1 
  319   349     1 
  319   350     1 
  319   353     1 
  320   322     1 
  320   349     1 
  320   350     1 
  320   354     1 
  320   385     1 
  321   324     1 
  321   351     1 
  321   352     1 
  321   355     1 
  322   327     1 
  322   352     1 
  322   356     1 
  322   359     1 
  322   387     1 
  323   325     1 
  323   353     1 
  323   354     1 
  323   357     1 
  324   326     1 
  324   353     1 
  324   354     1 
  324   358     1 
  324   389     1 
  325   328     1 
  325   355     1 
  325   356     1 
  325   359     1 
  326   331     1 
  326   356     1 
  326   360     1 
  326   363     1 
  326   391     1 
  327   329     1 
  327   357     1 
  327   358     1 
  327   361     1 
  328   330     1 
  328   357     1 
  328   358     1 
  328   362     1 
  328   393     1 
  329   332     1 
  329   359     1 
  329   360     1 
  329   363     1 
  330   360     1 
  330   364     1 
  330   367     1 
  330   395     1 
  330   765     1 
  331   333     1 
  331   361     1 
  331   362     1 
  331   365     1 
  331   807     1 
  332   361     1 
  332   362     1 
  332   366     1 
  332   397     1 
  332   766     1 
  332   806     1 
  332   807     1 
  333   363     1 
  333   364     1 
  333   367     1 
  334   339     1 
  334   368     1 
  334   371     1 
  335   337     1 
  335   369     1 
  336   338     1 
  336   370     1 
  336   401     1 
  336   787     1 
  336   789     1 
  337   340     1 
  337   368     1 
  337   371     1 
  337   788     1 
  338   343     1 
  338   368     1 
  338   372     1 
  338   375     1 
  338   403     1 
  339   341     1 
  339   369     1 
  339   370     1 
  339   373     1 
  340   342     1 
  340   369     1 
  340   370     1 
  340   374     1 
  340   405     1 
  341   344     1 
  341   371     1 
  341   372     1 
  341   375     1 
  342   347     1 
  342   372     1 
  342   376     1 
  342   379     1 
  342   407     1 
  343   345     1 
  343   373     1 
  343   374     1 
  343   377     1 
  344   346     1 
  344   373     1 
  344   374     1 
  344   378     1 
  344   409     1 
  345   348     1 
  345   375     1 
  345   376     1 
  345   379     1 
  346   351     1 
  346   376     1 
  346   380     1 
  346   383     1 
  346   411     1 
  347   349     1 
  347   377     1 
  347   378     1 
  347   381     1 
  348   350     1 
  348   377     1 
  348   378     1 
  348   382     1 
  348   413     1 
  349   352     1 
  349   379     1 
  349   380     1 
  349   383     1 
  350   355     1 
  350   380     1 
  350   384     1 
  350   387     1 
  350   415     1 
  351   353     1 
  351   381     1 
  351   382     1 
  351   385     1 
  352   354     1 
  352   381     1 
  352   382     1 
  352   386     1 
  352   417     1 
  353   356     1 
  353   383     1 
  353   384     1 
  353   387     1 
  354   359     1 
  354   384     1 
  354   388     1 
  354   391     1 
  354   419     1 
  355   357     1 
  355   385     1 
  355   386     1 
  355   389     1 
  356   358     1 
  356   385     1 
  356   386     1 
  356   390     1 
  356   421     1 
  357   360     1 
  357   387     1 
  357   388     1 
  357   391     1 
  358   363     1 
  358   388     1 
  358   392     1 
  358   395     1 
  358   423     1 
  359   361     1 
  359   389     1 
  359   390     1 
  359   393     1 
  360   362     1 
  360   389     1 
  360   390     1 
  360   394     1 
  360   425     1 
  361   364     1 
  361   391     1 
  361   392     1 
  361   395     1 
  362   367     1 
  362   392     1 
  362   396     1 
  362   399     1 
  362   427     1 
  363   365     1 
  363   393     1 
  363   394     1 
  363   397     1 
  364   366     1 
  364   393     1 
  364   394     1 
  364   398     1 
  364   429     1 
  364   806     1 
  365   395     1 
  365   396     1 
  365   399     1 
  365   765     1 
  365   805     1 
  366   396     1 
  366   400     1 
  366   431     1 
  367   397     1 
  367   398     1 
  368   370     1 
  368   402     1 
  368   756     1 
  369   372     1 
  369   403     1 
  369   755     1 
  369   788     1 
  370   375     1 
  370   404     1 
  370   407     1 
  370   435     1 
  370   755     1 
  371   373     1 
  371   401     1 
  371   402     1 
  371   405     1 
  371   787     1 
  372   374     1 
  372   401     1 
  372   402     1 
  372   406     1 
  372   437     1 
  373   376     1 
  373   403     1 
  373   404     1 
  373   407     1 
  374   379     1 
  374   404     1 
  374   408     1 
  374   411     1 
  374   439     1 
  375   377     1 
  375   405     1 
  375   406     1 
  375   409     1 
  376   378     1 
  376   405     1 
  376   406     1 
  376   410     1 
  376   441     1 
  377   380     1 
  377   407     1 
  377   408     1 
  377   411     1 
  378   383     1 
  378   408     1 
  378   412     1 
  378   415     1 
  378   443     1 
  379   381     1 
  379   409     1 
  379   410     1 
  379   413     1 
  380   382     1 
  380   409     1 
  380   410     1 
  380   414     1 
  380   445     1 
  381   384     1 
  381   411     1 
  381   412     1 
  381   415     1 
  382   387     1 
  382   412     1 
  382   416     1 
  382   419     1 
  382   447     1 
  383   385     1 
  383   413     1 
  383   414     1 
  383   417     1 
  384   386     1 
  384   413     1 
  384   414     1 
  384   418     1 
  384   449     1 
  385   388     1 
  385   415     1 
  385   416     1 
  385   419     1 
  386   391     1 
  386   416     1 
  386   420     1 
  386   423     1 
  386   451     1 
  387   389     1 
  387   417     1 
  387   418     1 
  387   421     1 
  388   390     1 
  388   417     1 
  388   418     1 
  388   422     1 
  388   453     1 
  389   392     1 
  389   419     1 
  389   420     1 
  389   423     1 
  390   395     1 
  390   420     1 
  390   424     1 
  390   427     1 
  390   455     1 
  391   393     1 
  391   421     1 
  391   422     1 
  391   425     1 
  392   394     1 
  392   421     1 
  392   422     1 
  392   426     1 
  392   457     1 
  393   396     1 
  393   423     1 
  393   424     1 
  393   427     1 
  394   399     1 
  394   424     1 
  394   428     1 
  394   431     1 
  394   459     1 
  395   397     1 
  395   425     1 
  395   426     1 
  395   429     1 
  396   398     1 
  396   425     1 
  396   426     1 
  396   430     1 
  396   461     1 
  397   400     1 
  397   427     1 
  397   428     1 
  397   431     1 
  397   805     1 
  398   428     1 
  398   432     1 
  398   463     1 
  398   803     1 
  398   805     1 
  399   429     1 
  399   430     1 
  399   433     1 
  399   804     1 
  399   806     1 
  400   429     1 
  400   430     1 
  400   465     1 
  401   404     1 
  401   435     1 
  402   407     1 
  402   436     1 
  402   439     1 
  402   755     1 
  402   785     1 
  403   405     1 
  403   434     1 
  403   437     1 
  403   756     1 
  403   786     1 
  403   787     1 
  404   406     1 
  404   434     1 
  404   438     1 
  404   469     1 
  404   786     1 
  405   408     1 
  405   435     1 
  405   436     1 
  405   439     1 
  406   411     1 
  406   436     1 
  406   440     1 
  406   443     1 
  406   471     1 
  407   409     1 
  407   437     1 
  407   438     1 
  407   441     1 
  408   410     1 
  408   437     1 
  408   438     1 
  408   442     1 
  408   473     1 
  409   412     1 
  409   439     1 
  409   440     1 
  409   443     1 
  410   415     1 
  410   440     1 
  410   444     1 
  410   447     1 
  410   475     1 
  411   413     1 
  411   441     1 
  411   442     1 
  411   445     1 
  412   414     1 
  412   441     1 
  412   442     1 
  412   446     1 
  412   477     1 
  413   416     1 
  413   443     1 
  413   444     1 
  413   447     1 
  414   419     1 
  414   444     1 
  414   448     1 
  414   451     1 
  414   479     1 
  415   417     1 
  415   445     1 
  415   446     1 
  415   449     1 
  416   418     1 
  416   445     1 
  416   446     1 
  416   450     1 
  416   481     1 
  417   420     1 
  417   447     1 
  417   448     1 
  417   451     1 
  418   423     1 
  418   448     1 
  418   452     1 
  418   455     1 
  418   483     1 
  419   421     1 
  419   449     1 
  419   450     1 
  419   453     1 
  420   422     1 
  420   449     1 
  420   450     1 
  420   454     1 
  420   485     1 
  421   424     1 
  421   451     1 
  421   452     1 
  421   455     1 
  422   427     1 
  422   452     1 
  422   456     1 
  422   459     1 
  422   487     1 
  423   425     1 
  423   453     1 
  423   454     1 
  423   457     1 
  424   426     1 
  424   453     1 
  424   454     1 
  424   458     1 
  424   489     1 
  425   428     1 
  425   455     1 
  425   456     1 
  425   459     1 
  426   431     1 
  426   456     1 
  426   460     1 
  426   463     1 
  426   491     1 
  427   429     1 
  427   457     1 
  427   458     1 
  427   461     1 
  428   430     1 
  428   457     1 
  428   458     1 
  428   462     1 
  428   493     1 
  429   432     1 
  429   459     1 
  429   460     1 
  429   463     1 
  430   460     1 
  430   464     1 
  430   467     1 
  430   495     1 
  430   803     1 
  431   433     1 
  431   461     1 
  431   462     1 
  431   465     1 
  431   804     1 
  432   461     1 
  432   462     1 
  432   466     1 
  432   497     1 
  432   802     1 
  432   804     1 
  433   463     1 
  433   464     1 
  433   467     1 
  434   439     1 
  434   468     1 
  434   471     1 
  435   437     1 
  435   469     1 
  436   438     1 
  436   470     1 
  436   501     1 
  436   784     1 
  436   786     1 
  437   440     1 
  437   468     1 
  437   471     1 
  437   785     1 
  438   443     1 
  438   468     1 
  438   472     1 
  438   475     1 
  438   503     1 
  439   441     1 
  439   469     1 
  439   470     1 
  439   473     1 
  440   442     1 
  440   469     1 
  440   470     1 
  440   474     1 
  440   505     1 
  441   444     1 
  441   471     1 
  441   472     1 
  441   475     1 
  442   447     1 
  442   472     1 
  442   476     1 
  442   479     1 
  442   507     1 
  443   445     1 
  443   473     1 
  443   474     1 
  443   477     1 
  444   446     1 
  444   473     1 
  444   474     1 
  444   478     1 
  444   509     1 
  445   448     1 
  445   475     1 
  445   476     1 
  445   479     1 
  446   451     1 
  446   476     1 
  446   480     1 
  446   483     1 
  446   511     1 
  447   449     1 
  447   477     1 
  447   478     1 
  447   481     1 
  448   450     1 
  448   477     1 
  448   478     1 
  448   482     1 
  448   513     1 
  449   452     1 
  449   479     1 
  449   480     1 
  449   483     1 
  450   455     1 
  450   480     1 
  450   484     1 
  450   487     1 
  450   515     1 
  451   453     1 
  451   481     1 
  451   482     1 
  451   485     1 
  452   454     1 
  452   481     1 
  452   482     1 
  452   486     1 
  452   517     1 
  453   456     1 
  453   483     1 
  453   484     1 
  453   487     1 
  454   459     1 
  454   484     1 
  454   488     1 
  454   491     1 
  454   519     1 
  455   457     1 
  455   485     1 
  455   486     1 
  455   489     1 
  456   458     1 
  456   485     1 
  456   486     1 
  456   490     1 
  456   521     1 
  457   460     1 
  457   487     1 
  457   488     1 
  457   491     1 
  458   463     1 
  458   488     1 
  458   492     1 
  458   495     1 
  458   523     1 
  459   461     1 
  459   489     1 
  459   490     1 
  459   493     1 
  460   462     1 
  460   489     1 
  460   490     1 
  460   494     1 
  460   525     1 
  461   464     1 
  461   491     1 
  461   492     1 
  461   495     1 
  462   467     1 
  462   492     1 
  462   496     1 
  462   499     1 
  462   527     1 
  463   465     1 
  463   493     1 
  463   494     1 
  463   497     1 
  464   466     1 
  464   493     1 
  464   494     1 
  464   498     1 
  464   529     1 
  464   802     1 
  465   495     1 
  465   496     1 
  465   499     1 
  465   769     1 
  465   803     1 
  466   496     1 
  466   500     1 
  466   531     1 
  467   497     1 
  467   498     1 
  467   770     1 
  468   470     1 
  468   502     1 
  468   752     1 
  469   472     1 
  469   503     1 
  469   751     1 
  469   785     1 
  470   475     1 
  470   504     1 
  470   507     1 
  470   535     1 
  470   751     1 
  471   473     1 
  471   501     1 
  471   502     1 
  471   505     1 
  471   784     1 
  472   474     1 
  472   501     1 
  472   502     1 
  472   506     1 
  472   537     1 
  473   476     1 
  473   503     1 
  473   504     1 
  473   507     1 
  474   479     1 
  474   504     1 
  474   508     1 
  474   511     1 
  474   539     1 
  475   477     1 
  475   505     1 
  475   506     1 
  475   509     1 
  476   478     1 
  476   505     1 
  476   506     1 
  476   510     1 
  476   541     1 
  477   480     1 
  477   507     1 
  477   508     1 
  477   511     1 
  478   483     1 
  478   508     1 
  478   512     1 
  478   515     1 
  478   543     1 
  479   481     1 
  479   509     1 
  479   510     1 
  479   513     1 
  480   482     1 
  480   509     1 
  480   510     1 
  480   514     1 
  480   545     1 
  481   484     1 
  481   511     1 
  481   512     1 
  481   515     1 
  482   487     1 
  482   512     1 
  482   516     1 
  482   519     1 
  482   547     1 
  483   485     1 
  483   513     1 
  483   514     1 
  483   517     1 
  484   486     1 
  484   513     1 
  484   514     1 
  484   518     1 
  484   549     1 
  485   488     1 
  485   515     1 
  485   516     1 
  485   519     1 
  486   491     1 
  486   516     1 
  486   520     1 
  486   523     1 
  486   551     1 
  487   489     1 
  487   517     1 
  487   518     1 
  487   521     1 
  488   490     1 
  488   517     1 
  488   518     1 
  488   522     1 
  488   553     1 
  489   492     1 
  489   519     1 
  489   520     1 
  489   523     1 
  490   495     1 
  490   520     1 
  490   524     1 
  490   527     1 
  490   555     1 
  491   493     1 
  491   521     1 
  491   522     1 
  491   525     1 
  492   494     1 
  492   521     1 
  492   522     1 
  492   526     1 
  492   557     1 
  493   496     1 
  493   523     1 
  493   524     1 
  493   527     1 
  494   499     1 
  494   524     1 
  494   528     1 
  494   531     1 
  494   559     1 
  495   497     1 
  495   525     1 
  495   526     1 
  495   529     1 
  496   498     1 
  496   525     1 
  496   526     1 
  496   530     1 
  496   561     1 
  497   500     1 
  497   527     1 
  497   528     1 
  497   531     1 
  497   769     1 
  498   528     1 
  498   532     1 
  498   563     1 
  498   769     1 
  498   823     1 
  499   529     1 
  499   530     1 
  499   533     1 
  499   770     1 
  499   802     1 
  499   824     1 
  500   529     1 
  500   530     1 
  500   565     1 
  501   504     1 
  501   535     1 
  502   507     1 
  502   536     1 
  502   539     1 
  502   751     1 
  502   780     1 
  503   505     1 
  503   534     1 
  503   537     1 
  503   752     1 
  503   779     1 
  503   784     1 
  504   506     1 
  504   534     1 
  504   538     1 
  504   569     1 
  504   779     1 
  505   508     1 
  505   535     1 
  505   536     1 
  505   539     1 
  506   511     1 
  506   536     1 
  506   540     1 
  506   543     1 
  506   571     1 
  507   509     1 
  507   537     1 
  507   538     1 
  507   541     1 
  508   510     1 
  508   537     1 
  508   538     1 
  508   542     1 
  508   573     1 
  509   512     1 
  509   539     1 
  509   540     1 
  509   543     1 
  510   515     1 
  510   540     1 
  510   544     1 
  510   547     1 
  510   575     1 
  511   513     1 
  511   541     1 
  511   542     1 
  511   545     1 
  512   514     1 
  512   541     1 
  512   542     1 
  512   546     1 
  512   577     1 
  513   516     1 
  513   543     1 
  513   544     1 
  513   547     1 
  514   519     1 
  514   544     1 
  514   548     1 
  514   551     1 
  514   579     1 
  515   517     1 
  515   545     1 
  515   546     1 
  515   549     1 
  516   518     1 
  516   545     1 
  516   546     1 
  516   550     1 
  516   581     1 
  517   520     1 
  517   547     1 
  517   548     1 
  517   551     1 
  518   523     1 
  518   548     1 
  518   552     1 
  518   555     1 
  518   583     1 
  519   521     1 
  519   549     1 
  519   550     1 
  519   553     1 
  520   522     1 
  520   549     1 
  520   550     1 
  520   554     1 
  520   585     1 
  521   524     1 
  521   551     1 
  521   552     1 
  521   555     1 
  522   527     1 
  522   552     1 
  522   556     1 
  522   559     1 
  522   587     1 
  523   525     1 
  523   553     1 
  523   554     1 
  523   557     1 
  524   526     1 
  524   553     1 
  524   554     1 
  524   558     1 
  524   589     1 
  525   528     1 
  525   555     1 
  525   556     1 
  525   559     1 
  526   531     1 
  526   556     1 
  526   560     1 
  526   563     1 
  526   591     1 
  527   529     1 
  527   557     1 
  527   558     1 
  527   561     1 
  528   530     1 
  528   557     1 
  528   558     1 
  528   562     1 
  528   593     1 
  529   532     1 
  529   559     1 
  529   560     1 
  529   563     1 
  530   560     1 
  530   564     1 
  530   567     1 
  530   595     1 
  530   823     1 
  531   533     1 
  531   561     1 
  531   562     1 
  531   565     1 
  531   824     1 
  532   561     1 
  532   562     1 
  532   566     1 
  532   597     1 
  532   822     1 
  532   824     1 
  533   563     1 
  533   564     1 
  533   567     1 
  534   539     1 
  534   568     1 
  534   571     1 
  535   537     1 
  535   569     1 
  536   538     1 
  536   570     1 
  536   601     1 
  536   779     1 
  536   781     1 
  537   540     1 
  537   568     1 
  537   571     1 
  537   780     1 
  538   543     1 
  538   568     1 
  538   572     1 
  538   575     1 
  538   603     1 
  539   541     1 
  539   569     1 
  539   570     1 
  539   573     1 
  540   542     1 
  540   569     1 
  540   570     1 
  540   574     1 
  540   605     1 
  541   544     1 
  541   571     1 
  541   572     1 
  541   575     1 
  542   547     1 
  542   572     1 
  542   576     1 
  542   579     1 
  542   607     1 
  543   545     1 
  543   573     1 
  543   574     1 
  543   577     1 
  544   546     1 
  544   573     1 
  544   574     1 
  544   578     1 
  544   609     1 
  545   548     1 
  545   575     1 
  545   576     1 
  545   579     1 
  546   551     1 
  546   576     1 
  546   580     1 
  546   583     1 
  546   611     1 
  547   549     1 
  547   577     1 
  547   578     1 
  547   581     1 
  548   550     1 
  548   577     1 
  548   578     1 
  548   582     1 
  548   613     1 
  549   552     1 
  549   579     1 
  549   580     1 
  549   583     1 
  550   555     1 
  550   580     1 
  550   584     1 
  550   587     1 
  550   615     1 
  551   553     1 
  551   581     1 
  551   582     1 
  551   585     1 
  552   554     1 
  552   581     1 
  552   582     1 
  552   586     1 
  552   617     1 
  553   556     1 
  553   583     1 
  553   584     1 
  553   587     1 
  554   559     1 
  554   584     1 
  554   588     1 
  554   591     1 
  554   619     1 
  555   557     1 
  555   585     1 
  555   586     1 
  555   589     1 
  556   558     1 
  556   585     1 
  556   586     1 
  556   590     1 
  556   621     1 
  557   560     1 
  557   587     1 
  557   588     1 
  557   591     1 
  558   563     1 
  558   588     1 
  558   592     1 
  558   595     1 
  558   623     1 
  559   561     1 
  559   589     1 
  559   590     1 
  559   593     1 
  560   562     1 
  560   589     1 
  560   590     1 
  560   594     1 
  560   625     1 
  561   564     1 
  561   591     1 
  561   592     1 
  561   595     1 
  562   567     1 
  562   592     1 
  562   596     1 
  562   599     1 
  562   627     1 
  563   565     1 
  563   593     1 
  563   594     1 
  563   597     1 
  564   566     1 
  564   593     1 
  564   594     1 
  564   598     1 
  564   629     1 
  564   822     1 
  565   595     1 
  565   596     1 
  565   599     1 
  565   777     1 
  565   823     1 
  566   596     1 
  566   600     1 
  566   631     1 
  567   597     1 
  567   598     1 
  567   778     1 
  568   570     1 
  568   602     1 
  568   754     1 
  569   572     1 
  569   603     1 
  569   753     1 
  569   780     1 
  570   575     1 
  570   604     1 
  570   607     1 
  570   635     1 
  570   753     1 
  571   573     1 
  571   601     1 
  571   602     1 
  571   605     1 
  571   781     1 
  572   574     1 
  572   601     1 
  572   602     1 
  572   606     1 
  572   637     1 
  573   576     1 
  573   603     1 
  573   604     1 
  573   607     1 
  574   579     1 
  574   604     1 
  574   608     1 
  574   611     1 
  574   639     1 
  575   577     1 
  575   605     1 
  575   606     1 
  575   609     1 
  576   578     1 
  576   605     1 
  576   606     1 
  576   610     1 
  576   641     1 
  577   580     1 
  577   607     1 
  577   608     1 
  577   611     1 
  578   583     1 
  578   608     1 
  578   612     1 
  578   615     1 
  578   643     1 
  579   581     1 
  579   609     1 
  579   610     1 
  579   613     1 
  580   582     1 
  580   609     1 
  580   610     1 
  580   614     1 
  580   645     1 
  581   584     1 
  581   611     1 
  581   612     1 
  581   615     1 
  582   587     1 
  582   612     1 
  582   616     1 
  582   619     1 
  582   647     1 
  583   585     1 
  583   613     1 
  583   614     1 
  583   617     1 
  584   586     1 
  584   613     1 
  584   614     1 
  584   618     1 
  584   649     1 
  585   588     1 
  585   615     1 
  585   616     1 
  585   619     1 
  586   591     1 
  586   616     1 
  586   620     1 
  586   623     1 
  586   651     1 
  587   589     1 
  587   617     1 
  587   618     1 
  587   621     1 
  588   590     1 
  588   617     1 
  588   618     1 
  588   622     1 
  588   653     1 
  589   592     1 
  589   619     1 
  589   620     1 
  589   623     1 
  590   595     1 
  590   620     1 
  590   624     1 
  590   627     1 
  590   655     1 
  591   593     1 
  591   621     1 
  591   622     1 
  591   625     1 
  592   594     1 
  592   621     1 
  592   622     1 
  592   626     1 
  592   657     1 
  593   596     1 
  593   623     1 
  593   624     1 
  593   627     1 
  594   599     1 
  594   624     1 
  594   628     1 
  594   631     1 
  594   659     1 
  595   597     1 
  595   625     1 
  595   626     1 
  595   629     1 
  596   598     1 
  596   625     1 
  596   626     1 
  596   630     1 
  596   661     1 
  597   600     1 
  597   627     1 
  597   628     1 
  597   631     1 
  597   777     1 
  598   628     1 
  598   632     1 
  598   663     1 
  598   777     1 
  598   820     1 
  599   629     1 
  599   630     1 
  599   633     1 
  599   778     1 
  599   821     1 
  599   822     1 
  600   629     1 
  600   630     1 
  600   665     1 
  601   604     1 
  601   635     1 
  602   607     1 
  602   636     1 
  602   639     1 
  602   753     1 
  602   783     1 
  603   605     1 
  603   634     1 
  603   637     1 
  603   754     1 
  603   781     1 
  603   782     1 
  604   606     1 
  604   634     1 
  604   638     1 
  604   668     1 
  604   782     1 
  605   608     1 
  605   635     1 
  605   636     1 
  605   639     1 
  606   611     1 
  606   636     1 
  606   640     1 
  606   643     1 
  606   670     1 
  607   609     1 
  607   637     1 
  607   638     1 
  607   641     1 
  608   610     1 
  608   637     1 
  608   638     1 
  608   642     1 
  608   672     1 
  609   612     1 
  609   639     1 
  609   640     1 
  609   643     1 
  610   615     1 
  610   640     1 
  610   644     1 
  610   647     1 
  610   674     1 
  611   613     1 
  611   641     1 
  611   642     1 
  611   645     1 
  612   614     1 
  612   641     1 
  612   642     1 
  612   646     1 
  612   676     1 
  613   616     1 
  613   643     1 
  613   644     1 
  613   647     1 
  614   619     1 
  614   644     1 
  614   648     1 
  614   651     1 
  614   678     1 
  615   617     1 
  615   645     1 
  615   646     1 
  615   649     1 
  616   618     1 
  616   645     1 
  616   646     1 
  616   650     1 
  616   680     1 
  617   620     1 
  617   647     1 
  617   648     1 
  617   651     1 
  618   623     1 
  618   648     1 
  618   652     1 
  618   655     1 
  618   682     1 
  619   621     1 
  619   649     1 
  619   650     1 
  619   653     1 
  620   622     1 
  620   649     1 
  620   650     1 
  620   654     1 
  620   684     1 
  621   624     1 
  621   651     1 
  621   652     1 
  621   655     1 
  622   627     1 
  622   652     1 
  622   656     1 
  622   659     1 
  622   686     1 
  623   625     1 
  623   653     1 
  623   654     1 
  623   657     1 
  624   626     1 
  624   653     1 
  624   654     1 
  624   658     1 
  624   688     1 
  625   628     1 
  625   655     1 
  625   656     1 
  625   659     1 
  626   631     1 
  626   656     1 
  626   660     1 
  626   663     1 
  626   690     1 
  627   629     1 
  627   657     1 
  627   658     1 
  627   661     1 
  628   630     1 
  628   657     1 
  628   658     1 
  628   662     1 
  628   692     1 
  629   632     1 
  629   659     1 
  629   660     1 
  629   663     1 
  630   660     1 
  630   664     1 
  630   666     1 
  630   693     1 
  630   820     1 
  631   633     1 
  631   661     1 
  631   662     1 
  631   665     1 
  631   821     1 
  632   661     1 
  632   662     1 
  632   819     1 
  632   821     1 
  633   663     1 
  633   664     1 
  633   666     1 
  634   639     1 
  634   667     1 
  634   670     1 
  635   637     1 
  635   668     1 
  636   638     1 
  636   669     1 
  636   694     1 
  636   782     1 
  636   801     1 
  637   640     1 
  637   667     1 
  637   670     1 
  637   783     1 
  638   643     1 
  638   667     1 
  638   671     1 
  638   674     1 
  638   696     1 
  639   641     1 
  639   668     1 
  639   669     1 
  639   672     1 
  640   642     1 
  640   668     1 
  640   669     1 
  640   673     1 
  640   698     1 
  641   644     1 
  641   670     1 
  641   671     1 
  641   674     1 
  642   647     1 
  642   671     1 
  642   675     1 
  642   678     1 
  642   700     1 
  643   645     1 
  643   672     1 
  643   673     1 
  643   676     1 
  644   646     1 
  644   672     1 
  644   673     1 
  644   677     1 
  644   702     1 
  645   648     1 
  645   674     1 
  645   675     1 
  645   678     1 
  646   651     1 
  646   675     1 
  646   679     1 
  646   682     1 
  646   704     1 
  647   649     1 
  647   676     1 
  647   677     1 
  647   680     1 
  648   650     1 
  648   676     1 
  648   677     1 
  648   681     1 
  648   706     1 
  649   652     1 
  649   678     1 
  649   679     1 
  649   682     1 
  650   655     1 
  650   679     1 
  650   683     1 
  650   686     1 
  650   708     1 
  651   653     1 
  651   680     1 
  651   681     1 
  651   684     1 
  652   654     1 
  652   680     1 
  652   681     1 
  652   685     1 
  652   710     1 
  653   656     1 
  653   682     1 
  653   683     1 
  653   686     1 
  654   659     1 
  654   683     1 
  654   687     1 
  654   690     1 
  654   712     1 
  655   657     1 
  655   684     1 
  655   685     1 
  655   688     1 
  656   658     1 
  656   684     1 
  656   685     1 
  656   689     1 
  656   714     1 
  657   660     1 
  657   686     1 
  657   687     1 
  657   690     1 
  658   663     1 
  658   687     1 
  658   691     1 
  658   693     1 
  658   715     1 
  659   661     1 
  659   688     1 
  659   689     1 
  659   692     1 
  660   662     1 
  660   688     1 
  660   689     1 
  661   664     1 
  661   690     1 
  661   691     1 
  661   693     1 
  662   666     1 
  662   691     1 
  663   665     1 
  663   692     1 
  664   692     1 
  664   819     1 
  665   693     1 
  665   818     1 
  665   820     1 
  667   669     1 
  667   695     1 
  668   671     1 
  668   696     1 
  668   783     1 
  668   800     1 
  669   674     1 
  669   697     1 
  669   700     1 
  669   717     1 
  669   800     1 
  670   672     1 
  670   694     1 
  670   695     1 
  670   698     1 
  670   801     1 
  671   673     1 
  671   694     1 
  671   695     1 
  671   699     1 
  671   719     1 
  672   675     1 
  672   696     1 
  672   697     1 
  672   700     1 
  673   678     1 
  673   697     1 
  673   701     1 
  673   704     1 
  673   721     1 
  674   676     1 
  674   698     1 
  674   699     1 
  674   702     1 
  675   677     1 
  675   698     1 
  675   699     1 
  675   703     1 
  675   723     1 
  676   679     1 
  676   700     1 
  676   701     1 
  676   704     1 
  677   682     1 
  677   701     1 
  677   705     1 
  677   708     1 
  677   725     1 
  678   680     1 
  678   702     1 
  678   703     1 
  678   706     1 
  679   681     1 
  679   702     1 
  679   703     1 
  679   707     1 
  679   727     1 
  680   683     1 
  680   704     1 
  680   705     1 
  680   708     1 
  681   686     1 
  681   705     1 
  681   709     1 
  681   712     1 
  681   729     1 
  682   684     1 
  682   706     1 
  682   707     1 
  682   710     1 
  683   685     1 
  683   706     1 
  683   707     1 
  683   711     1 
  683   731     1 
  684   687     1 
  684   708     1 
  684   709     1 
  684   712     1 
  685   690     1 
  685   709     1 
  685   713     1 
  685   715     1 
  685   732     1 
  686   688     1 
  686   710     1 
  686   711     1 
  686   714     1 
  687   689     1 
  687   710     1 
  687   711     1 
  688   691     1 
  688   712     1 
  688   713     1 
  688   715     1 
  689   693     1 
  689   713     1 
  690   692     1 
  690   714     1 
  691   714     1 
  692   715     1 
  694   697     1 
  694   717     1 
  695   700     1 
  695   718     1 
  695   721     1 
  695   757     1 
  695   800     1 
  696   698     1 
  696   716     1 
  696   719     1 
  696   799     1 
  696   801     1 
  697   699     1 
  697   716     1 
  697   720     1 
  697   734     1 
  697   799     1 
  698   701     1 
  698   717     1 
  698   718     1 
  698   721     1 
  699   704     1 
  699   718     1 
  699   722     1 
  699   725     1 
  699   736     1 
  700   702     1 
  700   719     1 
  700   720     1 
  700   723     1 
  701   703     1 
  701   719     1 
  701   720     1 
  701   724     1 
  701   738     1 
  702   705     1 
  702   721     1 
  702   722     1 
  702   725     1 
  703   708     1 
  703   722     1 
  703   726     1 
  703   729     1 
  703   740     1 
  704   706     1 
  704   723     1 
  704   724     1 
  704   727     1 
  705   707     1 
  705   723     1 
  705   724     1 
  705   728     1 
  705   742     1 
  706   709     1 
  706   725     1 
  706   726     1 
  706   729     1 
  707   712     1 
  707   726     1 
  707   730     1 
  707   732     1 
  707   743     1 
  708   710     1 
  708   727     1 
  708   728     1 
  708   731     1 
  709   711     1 
  709   727     1 
  709   728     1 
  710   713     1 
  710   729     1 
  710   730     1 
  710   732     1 
  711   715     1 
  711   730     1 
  712   714     1 
  712   731     1 
  713   731     1 
  714   732     1 
  716   721     1 
  716   733     1 
  716   736     1 
  717   719     1 
  717   734     1 
  717   758     1 
  718   720     1 
  718   735     1 
  718   744     1 
  718   758     1 
  718   798     1 
  718   799     1 
  719   722     1 
  719   733     1 
  719   736     1 
  719   757     1 
  720   725     1 
  720   733     1 
  720   737     1 
  720   740     1 
  720   746     1 
  721   723     1 
  721   734     1 
  721   735     1 
  721   738     1 
  722   724     1 
  722   734     1 
  722   735     1 
  722   739     1 
  722   748     1 
  723   726     1 
  723   736     1 
  723   737     1 
  723   740     1 
  724   729     1 
  724   737     1 
  724   741     1 
  724   743     1 
  724   749     1 
  725   727     1 
  725   738     1 
  725   739     1 
  725   742     1 
  726   728     1 
  726   738     1 
  726   739     1 
  727   730     1 
  727   740     1 
  727   741     1 
  727   743     1 
  728   732     1 
  728   741     1 
  729   731     1 
  729   742     1 
  730   742     1 
  731   743     1 
  733   735     1 
  733   745     1 
  734   737     1 
  734   746     1 
  734   757     1 
  734   797     1 
  735   740     1 
  735   747     1 
  735   749     1 
  735   750     1 
  735   797     1 
  736   738     1 
  736   744     1 
  736   745     1 
  736   748     1 
  736   798     1 
  737   739     1 
  737   744     1 
  737   745     1 
  738   741     1 
  738   746     1 
  738   747     1 
  738   749     1 
  739   743     1 
  739   747     1 
  740   742     1 
  740   748     1 
  741   748     1 
  742   749     1 
  744   747     1 
  744   750     1 
  745   749     1 
  745   759     1 
  745   797     1 
  746   748     1 
  746   796     1 
  746   798     1 
  747   796     1 
  748   750     1 
  750   760     1 
  751   784     1 
  753   781     1 
  755   787     1 
  757   799     1 
  759   796     1 
  761   790     1 
  763   793     1 
  765   807     1 
  767   808     1 
  769   802     1 
  771   811     1 
  773   814     1 
  775   816     1 
  777   822     1 
  779   780     1 
  782   783     1 
  785   786     1 
  788   789     1 
  791   792     1 
  794   795     1 
  797   798     1 
  800   801     1 
  803   804     1 
  805   806     1 
  809   810     1 
  812   813     1 
  815   817     1 
  818   819     1 
  820   821     1 
  823   824     1 

[ angles ]
;  ai    aj    ak funct            c0            c1            c2            c3
    2     1     8     2  1.200000e+02  5.600000e+02  1.200000e+02  5.600000e+02
    2     1   664     2  1.210000e+02  5.600000e+02  1.210000e+02  5.600000e+02
    8     1   664     2  1.190000e+02  5.600000e+02  1.190000e+02  5.600000e+02
    1     2     3     2  1.180000e+02  5.600000e+02  1.180000e+02  5.600000e+02
    1     2    10     2  1.200000e+02  5.600000e+02  1.200000e+02  5.600000e+02
    3     2    10     2  1.220000e+02  6.400000e+02  1.220000e+02  6.400000e+02
    2     3   666     2  1.220000e+02  5.600000e+02  1.220000e+02  5.600000e+02
    2     3   818     2  1.230000e+02  5.050000e+02  1.230000e+02  5.050000e+02
  666     3   818     2  1.150000e+02  5.050000e+02  1.150000e+02  5.050000e+02
    5     4    17     2  1.200000e+02  5.600000e+02  1.200000e+02  5.600000e+02
    5     4   691     2  1.200000e+02  5.600000e+02  1.200000e+02  5.600000e+02
   17     4   691     2  1.200000e+02  5.600000e+02  1.200000e+02  5.600000e+02
    4     5     6     2  1.200000e+02  5.600000e+02  1.200000e+02  5.600000e+02
    4     5    19     2  1.200000e+02  5.600000e+02  1.200000e+02  5.600000e+02
    6     5    19     2  1.200000e+02  5.600000e+02  1.200000e+02  5.600000e+02
    5     6     8     2  1.200000e+02  5.600000e+02  1.200000e+02  5.600000e+02
    5     6   693     2  1.200000e+02  5.600000e+02  1.200000e+02  5.600000e+02
    8     6   693     2  1.200000e+02  5.600000e+02  1.200000e+02  5.600000e+02
    8     7     9     2  1.200000e+02  5.600000e+02  1.200000e+02  5.600000e+02
    8     7    21     2  1.200000e+02  5.600000e+02  1.200000e+02  5.600000e+02
    9     7    21     2  1.200000e+02  5.600000e+02  1.200000e+02  5.600000e+02
    1     8     6     2  1.200000e+02  5.600000e+02  1.200000e+02  5.600000e+02
    1     8     7     2  1.200000e+02  5.600000e+02  1.200000e+02  5.600000e+02
    6     8     7     2  1.200000e+02  5.600000e+02  1.200000e+02  5.600000e+02
    7     9    10     2  1.200000e+02  5.600000e+02  1.200000e+02  5.600000e+02
    7     9    23     2  1.200000e+02  5.600000e+02  1.200000e+02  5.600000e+02
   10     9    23     2  1.200000e+02  5.600000e+02  1.200000e+02  5.600000e+02
    2    10     9     2  1.190000e+02  5.600000e+02  1.190000e+02  5.600000e+02
    2    10    12     2  1.240000e+02  6.400000e+02  1.240000e+02  6.400000e+02
    9    10    12     2  1.170000e+02  5.600000e+02  1.170000e+02  5.600000e+02
   12    11    25     2  1.210000e+02  5.600000e+02  1.210000e+02  5.600000e+02
   12    11   816     2  1.180000e+02  5.050000e+02  1.180000e+02  5.050000e+02
   25    11   816     2  1.210000e+02  5.050000e+02  1.210000e+02  5.050000e+02
   10    12    11     2  1.200000e+02  5.600000e+02  1.200000e+02  5.600000e+02
   10    12   775     2  1.210000e+02  6.350000e+02  1.210000e+02  6.350000e+02
   11    12   775     2  1.190000e+02  5.600000e+02  1.190000e+02  5.600000e+02
   14    13    31     2  1.200000e+02  5.600000e+02  1.200000e+02  5.600000e+02
   14    13   713     2  1.200000e+02  5.600000e+02  1.200000e+02  5.600000e+02
   31    13   713     2  1.200000e+02  5.600000e+02  1.200000e+02  5.600000e+02
   13    14    15     2  1.200000e+02  5.600000e+02  1.200000e+02  5.600000e+02
   13    14    33     2  1.200000e+02  5.600000e+02  1.200000e+02  5.600000e+02
   15    14    33     2  1.200000e+02  5.600000e+02  1.200000e+02  5.600000e+02
   14    15    17     2  1.200000e+02  5.600000e+02  1.200000e+02  5.600000e+02
   14    15   715     2  1.200000e+02  5.600000e+02  1.200000e+02  5.600000e+02
   17    15   715     2  1.200000e+02  5.600000e+02  1.200000e+02  5.600000e+02
   17    16    18     2  1.200000e+02  5.600000e+02  1.200000e+02  5.600000e+02
   17    16    35     2  1.200000e+02  5.600000e+02  1.200000e+02  5.600000e+02
   18    16    35     2  1.200000e+02  5.600000e+02  1.200000e+02  5.600000e+02
    4    17    15     2  1.200000e+02  5.600000e+02  1.200000e+02  5.600000e+02
    4    17    16     2  1.200000e+02  5.600000e+02  1.200000e+02  5.600000e+02
   15    17    16     2  1.200000e+02  5.600000e+02  1.200000e+02  5.600000e+02
   16    18    19     2  1.200000e+02  5.600000e+02  1.200000e+02  5.600000e+02
   16    18    37     2  1.200000e+02  5.600000e+02  1.200000e+02  5.600000e+02
   19    18    37     2  1.200000e+02  5.600000e+02  1.200000e+02  5.600000e+02
    5    19    18     2  1.200000e+02  5.600000e+02  1.200000e+02  5.600000e+02
    5    19    21     2  1.200000e+02  5.600000e+02  1.200000e+02  5.600000e+02
   18    19    21     2  1.200000e+02  5.600000e+02  1.200000e+02  5.600000e+02
   21    20    22     2  1.200000e+02  5.600000e+02  1.200000e+02  5.600000e+02
   21    20    39     2  1.200000e+02  5.600000e+02  1.200000e+02  5.600000e+02
   22    20    39     2  1.200000e+02  5.600000e+02  1.200000e+02  5.600000e+02
    7    21    19     2  1.200000e+02  5.600000e+02  1.200000e+02  5.600000e+02
    7    21    20     2  1.200000e+02  5.600000e+02  1.200000e+02  5.600000e+02
   19    21    20     2  1.200000e+02  5.600000e+02  1.200000e+02  5.600000e+02
   20    22    23     2  1.200000e+02  5.600000e+02  1.200000e+02  5.600000e+02
   20    22    41     2  1.200000e+02  5.600000e+02  1.200000e+02  5.600000e+02
   23    22    41     2  1.200000e+02  5.600000e+02  1.200000e+02  5.600000e+02
    9    23    22     2  1.200000e+02  5.600000e+02  1.200000e+02  5.600000e+02
    9    23    25     2  1.200000e+02  5.600000e+02  1.200000e+02  5.600000e+02
   22    23    25     2  1.200000e+02  5.600000e+02  1.200000e+02  5.600000e+02
   25    24    26     2  1.220000e+02  6.400000e+02  1.220000e+02  6.400000e+02
   25    24    43     2  1.200000e+02  5.600000e+02  1.200000e+02  5.600000e+02
   26    24    43     2  1.180000e+02  5.600000e+02  1.180000e+02  5.600000e+02
   11    25    23     2  1.180000e+02  5.600000e+02  1.180000e+02  5.600000e+02
   11    25    24     2  1.230000e+02  6.400000e+02  1.230000e+02  6.400000e+02
   23    25    24     2  1.190000e+02  5.600000e+02  1.190000e+02  5.600000e+02
   24    26    45     2  1.210000e+02  5.600000e+02  1.210000e+02  5.600000e+02
   24    26   817     2  1.220000e+02  5.050000e+02  1.220000e+02  5.050000e+02
   45    26   817     2  1.160000e+02  5.050000e+02  1.160000e+02  5.050000e+02
   28    27    50     2  1.200000e+02  5.600000e+02  1.200000e+02  5.600000e+02
   28    27   730     2  1.200000e+02  5.600000e+02  1.200000e+02  5.600000e+02
   50    27   730     2  1.200000e+02  5.600000e+02  1.200000e+02  5.600000e+02
   27    28    29     2  1.200000e+02  5.600000e+02  1.200000e+02  5.600000e+02
   27    28    52     2  1.200000e+02  5.600000e+02  1.200000e+02  5.600000e+02
   29    28    52     2  1.200000e+02  5.600000e+02  1.200000e+02  5.600000e+02
   28    29    31     2  1.200000e+02  5.600000e+02  1.200000e+02  5.600000e+02
   28    29   732     2  1.200000e+02  5.600000e+02  1.200000e+02  5.600000e+02
   31    29   732     2  1.200000e+02  5.600000e+02  1.200000e+02  5.600000e+02
   31    30    32     2  1.200000e+02  5.600000e+02  1.200000e+02  5.600000e+02
   31    30    54     2  1.200000e+02  5.600000e+02  1.200000e+02  5.600000e+02
   32    30    54     2  1.200000e+02  5.600000e+02  1.200000e+02  5.600000e+02
   13    31    29     2  1.200000e+02  5.600000e+02  1.200000e+02  5.600000e+02
   13    31    30     2  1.200000e+02  5.600000e+02  1.200000e+02  5.600000e+02
   29    31    30     2  1.200000e+02  5.600000e+02  1.200000e+02  5.600000e+02
   30    32    33     2  1.200000e+02  5.600000e+02  1.200000e+02  5.600000e+02
   30    32    56     2  1.200000e+02  5.600000e+02  1.200000e+02  5.600000e+02
   33    32    56     2  1.200000e+02  5.600000e+02  1.200000e+02  5.600000e+02
   14    33    32     2  1.200000e+02  5.600000e+02  1.200000e+02  5.600000e+02
   14    33    35     2  1.200000e+02  5.600000e+02  1.200000e+02  5.600000e+02
   32    33    35     2  1.200000e+02  5.600000e+02  1.200000e+02  5.600000e+02
   35    34    36     2  1.200000e+02  5.600000e+02  1.200000e+02  5.600000e+02
   35    34    58     2  1.200000e+02  5.600000e+02  1.200000e+02  5.600000e+02
   36    34    58     2  1.200000e+02  5.600000e+02  1.200000e+02  5.600000e+02
   16    35    33     2  1.200000e+02  5.600000e+02  1.200000e+02  5.600000e+02
   16    35    34     2  1.200000e+02  5.600000e+02  1.200000e+02  5.600000e+02
   33    35    34     2  1.200000e+02  5.600000e+02  1.200000e+02  5.600000e+02
   34    36    37     2  1.200000e+02  5.600000e+02  1.200000e+02  5.600000e+02
   34    36    60     2  1.200000e+02  5.600000e+02  1.200000e+02  5.600000e+02
   37    36    60     2  1.200000e+02  5.600000e+02  1.200000e+02  5.600000e+02
   18    37    36     2  1.200000e+02  5.600000e+02  1.200000e+02  5.600000e+02
   18    37    39     2  1.200000e+02  5.600000e+02  1.200000e+02  5.600000e+02
   36    37    39     2  1.200000e+02  5.600000e+02  1.200000e+02  5.600000e+02
   39    38    40     2  1.200000e+02  5.600000e+02  1.200000e+02  5.600000e+02
   39    38    62     2  1.200000e+02  5.600000e+02  1.200000e+02  5.600000e+02
   40    38    62     2  1.200000e+02  5.600000e+02  1.200000e+02  5.600000e+02
   20    39    37     2  1.200000e+02  5.600000e+02  1.200000e+02  5.600000e+02
   20    39    38     2  1.200000e+02  5.600000e+02  1.200000e+02  5.600000e+02
   37    39    38     2  1.200000e+02  5.600000e+02  1.200000e+02  5.600000e+02
   38    40    41     2  1.200000e+02  5.600000e+02  1.200000e+02  5.600000e+02
   38    40    64     2  1.200000e+02  5.600000e+02  1.200000e+02  5.600000e+02
   41    40    64     2  1.200000e+02  5.600000e+02  1.200000e+02  5.600000e+02
   22    41    40     2  1.200000e+02  5.600000e+02  1.200000e+02  5.600000e+02
   22    41    43     2  1.200000e+02  5.600000e+02  1.200000e+02  5.600000e+02
   40    41    43     2  1.200000e+02  5.600000e+02  1.200000e+02  5.600000e+02
   43    42    44     2  1.200000e+02  5.600000e+02  1.200000e+02  5.600000e+02
   43    42    66     2  1.190000e+02  5.600000e+02  1.190000e+02  5.600000e+02
   44    42    66     2  1.200000e+02  5.600000e+02  1.200000e+02  5.600000e+02
   24    43    41     2  1.200000e+02  5.600000e+02  1.200000e+02  5.600000e+02
   24    43    42     2  1.200000e+02  5.600000e+02  1.200000e+02  5.600000e+02
   41    43    42     2  1.200000e+02  5.600000e+02  1.200000e+02  5.600000e+02
   42    44    45     2  1.180000e+02  5.600000e+02  1.180000e+02  5.600000e+02
   42    44    68     2  1.200000e+02  5.600000e+02  1.200000e+02  5.600000e+02
   45    44    68     2  1.220000e+02  6.400000e+02  1.220000e+02  6.400000e+02
   26    45    44     2  1.220000e+02  5.600000e+02  1.220000e+02  5.600000e+02
   26    45   815     2  1.150000e+02  5.050000e+02  1.150000e+02  5.050000e+02
   44    45   815     2  1.230000e+02  5.050000e+02  1.230000e+02  5.050000e+02
   47    46    75     2  1.200000e+02  5.600000e+02  1.200000e+02  5.600000e+02
   47    46   741     2  1.200000e+02  5.600000e+02  1.200000e+02  5.600000e+02
   75    46   741     2  1.200000e+02  5.600000e+02  1.200000e+02  5.600000e+02
   46    47    48     2  1.200000e+02  5.600000e+02  1.200000e+02  5.600000e+02
   46    47    77     2  1.200000e+02  5.600000e+02  1.200000e+02  5.600000e+02
   48    47    77     2  1.200000e+02  5.600000e+02  1.200000e+02  5.600000e+02
   47    48    50     2  1.200000e+02  5.600000e+02  1.200000e+02  5.600000e+02
   47    48   743     2  1.200000e+02  5.600000e+02  1.200000e+02  5.600000e+02
   50    48   743     2  1.200000e+02  5.600000e+02  1.200000e+02  5.600000e+02
   50    49    51     2  1.200000e+02  5.600000e+02  1.200000e+02  5.600000e+02
   50    49    79     2  1.200000e+02  5.600000e+02  1.200000e+02  5.600000e+02
   51    49    79     2  1.200000e+02  5.600000e+02  1.200000e+02  5.600000e+02
   27    50    48     2  1.200000e+02  5.600000e+02  1.200000e+02  5.600000e+02
   27    50    49     2  1.200000e+02  5.600000e+02  1.200000e+02  5.600000e+02
   48    50    49     2  1.200000e+02  5.600000e+02  1.200000e+02  5.600000e+02
   49    51    52     2  1.200000e+02  5.600000e+02  1.200000e+02  5.600000e+02
   49    51    81     2  1.200000e+02  5.600000e+02  1.200000e+02  5.600000e+02
   52    51    81     2  1.200000e+02  5.600000e+02  1.200000e+02  5.600000e+02
   28    52    51     2  1.200000e+02  5.600000e+02  1.200000e+02  5.600000e+02
   28    52    54     2  1.200000e+02  5.600000e+02  1.200000e+02  5.600000e+02
   51    52    54     2  1.200000e+02  5.600000e+02  1.200000e+02  5.600000e+02
   54    53    55     2  1.200000e+02  5.600000e+02  1.200000e+02  5.600000e+02
   54    53    83     2  1.200000e+02  5.600000e+02  1.200000e+02  5.600000e+02
   55    53    83     2  1.200000e+02  5.600000e+02  1.200000e+02  5.600000e+02
   30    54    52     2  1.200000e+02  5.600000e+02  1.200000e+02  5.600000e+02
   30    54    53     2  1.200000e+02  5.600000e+02  1.200000e+02  5.600000e+02
   52    54    53     2  1.200000e+02  5.600000e+02  1.200000e+02  5.600000e+02
   53    55    56     2  1.200000e+02  5.600000e+02  1.200000e+02  5.600000e+02
   53    55    85     2  1.200000e+02  5.600000e+02  1.200000e+02  5.600000e+02
   56    55    85     2  1.200000e+02  5.600000e+02  1.200000e+02  5.600000e+02
   32    56    55     2  1.200000e+02  5.600000e+02  1.200000e+02  5.600000e+02
   32    56    58     2  1.200000e+02  5.600000e+02  1.200000e+02  5.600000e+02
   55    56    58     2  1.200000e+02  5.600000e+02  1.200000e+02  5.600000e+02
   58    57    59     2  1.200000e+02  5.600000e+02  1.200000e+02  5.600000e+02
   58    57    87     2  1.200000e+02  5.600000e+02  1.200000e+02  5.600000e+02
   59    57    87     2  1.200000e+02  5.600000e+02  1.200000e+02  5.600000e+02
   34    58    56     2  1.200000e+02  5.600000e+02  1.200000e+02  5.600000e+02
   34    58    57     2  1.200000e+02  5.600000e+02  1.200000e+02  5.600000e+02
   56    58    57     2  1.200000e+02  5.600000e+02  1.200000e+02  5.600000e+02
   57    59    60     2  1.200000e+02  5.600000e+02  1.200000e+02  5.600000e+02
   57    59    89     2  1.200000e+02  5.600000e+02  1.200000e+02  5.600000e+02
   60    59    89     2  1.200000e+02  5.600000e+02  1.200000e+02  5.600000e+02
   36    60    59     2  1.200000e+02  5.600000e+02  1.200000e+02  5.600000e+02
   36    60    62     2  1.200000e+02  5.600000e+02  1.200000e+02  5.600000e+02
   59    60    62     2  1.200000e+02  5.600000e+02  1.200000e+02  5.600000e+02
   62    61    63     2  1.200000e+02  5.600000e+02  1.200000e+02  5.600000e+02
   62    61    91     2  1.200000e+02  5.600000e+02  1.200000e+02  5.600000e+02
   63    61    91     2  1.200000e+02  5.600000e+02  1.200000e+02  5.600000e+02
   38    62    60     2  1.200000e+02  5.600000e+02  1.200000e+02  5.600000e+02
   38    62    61     2  1.200000e+02  5.600000e+02  1.200000e+02  5.600000e+02
   60    62    61     2  1.200000e+02  5.600000e+02  1.200000e+02  5.600000e+02
   61    63    64     2  1.200000e+02  5.600000e+02  1.200000e+02  5.600000e+02
   61    63    93     2  1.200000e+02  5.600000e+02  1.200000e+02  5.600000e+02
   64    63    93     2  1.200000e+02  5.600000e+02  1.200000e+02  5.600000e+02
   40    64    63     2  1.200000e+02  5.600000e+02  1.200000e+02  5.600000e+02
   40    64    66     2  1.200000e+02  5.600000e+02  1.200000e+02  5.600000e+02
   63    64    66     2  1.200000e+02  5.600000e+02  1.200000e+02  5.600000e+02
   66    65    67     2  1.200000e+02  5.600000e+02  1.200000e+02  5.600000e+02
   66    65    95     2  1.200000e+02  5.600000e+02  1.200000e+02  5.600000e+02
   67    65    95     2  1.200000e+02  5.600000e+02  1.200000e+02  5.600000e+02
   42    66    64     2  1.200000e+02  5.600000e+02  1.200000e+02  5.600000e+02
   42    66    65     2  1.200000e+02  5.600000e+02  1.200000e+02  5.600000e+02
   64    66    65     2  1.200000e+02  5.600000e+02  1.200000e+02  5.600000e+02
   65    67    68     2  1.200000e+02  5.600000e+02  1.200000e+02  5.600000e+02
   65    67    97     2  1.200000e+02  5.600000e+02  1.200000e+02  5.600000e+02
   68    67    97     2  1.200000e+02  5.600000e+02  1.200000e+02  5.600000e+02
   44    68    67     2  1.190000e+02  5.600000e+02  1.190000e+02  5.600000e+02
   44    68    70     2  1.240000e+02  6.400000e+02  1.240000e+02  6.400000e+02
   67    68    70     2  1.170000e+02  5.600000e+02  1.170000e+02  5.600000e+02
   70    69    99     2  1.210000e+02  5.600000e+02  1.210000e+02  5.600000e+02
   70    69   814     2  1.180000e+02  5.050000e+02  1.180000e+02  5.050000e+02
   99    69   814     2  1.210000e+02  5.050000e+02  1.210000e+02  5.050000e+02
   68    70    69     2  1.200000e+02  5.600000e+02  1.200000e+02  5.600000e+02
   68    70   773     2  1.210000e+02  6.350000e+02  1.210000e+02  6.350000e+02
   69    70   773     2  1.190000e+02  5.600000e+02  1.190000e+02  5.600000e+02
   72    71   103     2  1.200000e+02  5.600000e+02  1.200000e+02  5.600000e+02
   72    71   747     2  1.200000e+02  5.600000e+02  1.200000e+02  5.600000e+02
  103    71   747     2  1.200000e+02  5.600000e+02  1.200000e+02  5.600000e+02
   71    72    73     2  1.200000e+02  5.600000e+02  1.200000e+02  5.600000e+02
   71    72   105     2  1.200000e+02  5.600000e+02  1.200000e+02  5.600000e+02
   73    72   105     2  1.200000e+02  5.600000e+02  1.200000e+02  5.600000e+02
   72    73    75     2  1.200000e+02  5.600000e+02  1.200000e+02  5.600000e+02
   72    73   749     2  1.200000e+02  5.600000e+02  1.200000e+02  5.600000e+02
   75    73   749     2  1.200000e+02  5.600000e+02  1.200000e+02  5.600000e+02
   75    74    76     2  1.200000e+02  5.600000e+02  1.200000e+02  5.600000e+02
   75    74   107     2  1.200000e+02  5.600000e+02  1.200000e+02  5.600000e+02
   76    74   107     2  1.200000e+02  5.600000e+02  1.200000e+02  5.600000e+02
   46    75    73     2  1.200000e+02  5.600000e+02  1.200000e+02  5.600000e+02
   46    75    74     2  1.200000e+02  5.600000e+02  1.200000e+02  5.600000e+02
   73    75    74     2  1.200000e+02  5.600000e+02  1.200000e+02  5.600000e+02
   74    76    77     2  1.200000e+02  5.600000e+02  1.200000e+02  5.600000e+02
   74    76   109     2  1.200000e+02  5.600000e+02  1.200000e+02  5.600000e+02
   77    76   109     2  1.200000e+02  5.600000e+02  1.200000e+02  5.600000e+02
   47    77    76     2  1.200000e+02  5.600000e+02  1.200000e+02  5.600000e+02
   47    77    79     2  1.200000e+02  5.600000e+02  1.200000e+02  5.600000e+02
   76    77    79     2  1.200000e+02  5.600000e+02  1.200000e+02  5.600000e+02
   79    78    80     2  1.200000e+02  5.600000e+02  1.200000e+02  5.600000e+02
   79    78   111     2  1.200000e+02  5.600000e+02  1.200000e+02  5.600000e+02
   80    78   111     2  1.200000e+02  5.600000e+02  1.200000e+02  5.600000e+02
   49    79    77     2  1.200000e+02  5.600000e+02  1.200000e+02  5.600000e+02
   49    79    78     2  1.200000e+02  5.600000e+02  1.200000e+02  5.600000e+02
   77    79    78     2  1.200000e+02  5.600000e+02  1.200000e+02  5.600000e+02
   78    80    81     2  1.200000e+02  5.600000e+02  1.200000e+02  5.600000e+02
   78    80   113     2  1.200000e+02  5.600000e+02  1.200000e+02  5.600000e+02
   81    80   113     2  1.200000e+02  5.600000e+02  1.200000e+02  5.600000e+02
   51    81    80     2  1.200000e+02  5.600000e+02  1.200000e+02  5.600000e+02
   51    81    83     2  1.200000e+02  5.600000e+02  1.200000e+02  5.600000e+02
   80    81    83     2  1.200000e+02  5.600000e+02  1.200000e+02  5.600000e+02
   83    82    84     2  1.200000e+02  5.600000e+02  1.200000e+02  5.600000e+02
   83    82   115     2  1.200000e+02  5.600000e+02  1.200000e+02  5.600000e+02
   84    82   115     2  1.200000e+02  5.600000e+02  1.200000e+02  5.600000e+02
   53    83    81     2  1.200000e+02  5.600000e+02  1.200000e+02  5.600000e+02
   53    83    82     2  1.200000e+02  5.600000e+02  1.200000e+02  5.600000e+02
   81    83    82     2  1.200000e+02  5.600000e+02  1.200000e+02  5.600000e+02
   82    84    85     2  1.200000e+02  5.600000e+02  1.200000e+02  5.600000e+02
   82    84   117     2  1.200000e+02  5.600000e+02  1.200000e+02  5.600000e+02
   85    84   117     2  1.200000e+02  5.600000e+02  1.200000e+02  5.600000e+02
   55    85    84     2  1.200000e+02  5.600000e+02  1.200000e+02  5.600000e+02
   55    85    87     2  1.200000e+02  5.600000e+02  1.200000e+02  5.600000e+02
   84    85    87     2  1.200000e+02  5.600000e+02  1.200000e+02  5.600000e+02
   87    86    88     2  1.200000e+02  5.600000e+02  1.200000e+02  5.600000e+02
   87    86   119     2  1.200000e+02  5.600000e+02  1.200000e+02  5.600000e+02
   88    86   119     2  1.200000e+02  5.600000e+02  1.200000e+02  5.600000e+02
   57    87    85     2  1.200000e+02  5.600000e+02  1.200000e+02  5.600000e+02
   57    87    86     2  1.200000e+02  5.600000e+02  1.200000e+02  5.600000e+02
   85    87    86     2  1.200000e+02  5.600000e+02  1.200000e+02  5.600000e+02
   86    88    89     2  1.200000e+02  5.600000e+02  1.200000e+02  5.600000e+02
   86    88   121     2  1.200000e+02  5.600000e+02  1.200000e+02  5.600000e+02
   89    88   121     2  1.200000e+02  5.600000e+02  1.200000e+02  5.600000e+02
   59    89    88     2  1.200000e+02  5.600000e+02  1.200000e+02  5.600000e+02
   59    89    91     2  1.200000e+02  5.600000e+02  1.200000e+02  5.600000e+02
   88    89    91     2  1.200000e+02  5.600000e+02  1.200000e+02  5.600000e+02
   91    90    92     2  1.200000e+02  5.600000e+02  1.200000e+02  5.600000e+02
   91    90   123     2  1.200000e+02  5.600000e+02  1.200000e+02  5.600000e+02
   92    90   123     2  1.200000e+02  5.600000e+02  1.200000e+02  5.600000e+02
   61    91    89     2  1.200000e+02  5.600000e+02  1.200000e+02  5.600000e+02
   61    91    90     2  1.200000e+02  5.600000e+02  1.200000e+02  5.600000e+02
   89    91    90     2  1.200000e+02  5.600000e+02  1.200000e+02  5.600000e+02
   90    92    93     2  1.200000e+02  5.600000e+02  1.200000e+02  5.600000e+02
   90    92   125     2  1.200000e+02  5.600000e+02  1.200000e+02  5.600000e+02
   93    92   125     2  1.200000e+02  5.600000e+02  1.200000e+02  5.600000e+02
   63    93    92     2  1.200000e+02  5.600000e+02  1.200000e+02  5.600000e+02
   63    93    95     2  1.200000e+02  5.600000e+02  1.200000e+02  5.600000e+02
   92    93    95     2  1.200000e+02  5.600000e+02  1.200000e+02  5.600000e+02
   95    94    96     2  1.200000e+02  5.600000e+02  1.200000e+02  5.600000e+02
   95    94   127     2  1.200000e+02  5.600000e+02  1.200000e+02  5.600000e+02
   96    94   127     2  1.200000e+02  5.600000e+02  1.200000e+02  5.600000e+02
   65    95    93     2  1.200000e+02  5.600000e+02  1.200000e+02  5.600000e+02
   65    95    94     2  1.200000e+02  5.600000e+02  1.200000e+02  5.600000e+02
   93    95    94     2  1.200000e+02  5.600000e+02  1.200000e+02  5.600000e+02
   94    96    97     2  1.200000e+02  5.600000e+02  1.200000e+02  5.600000e+02
   94    96   129     2  1.200000e+02  5.600000e+02  1.200000e+02  5.600000e+02
   97    96   129     2  1.200000e+02  5.600000e+02  1.200000e+02  5.600000e+02
   67    97    96     2  1.200000e+02  5.600000e+02  1.200000e+02  5.600000e+02
   67    97    99     2  1.200000e+02  5.600000e+02  1.200000e+02  5.600000e+02
   96    97    99     2  1.200000e+02  5.600000e+02  1.200000e+02  5.600000e+02
   99    98   100     2  1.220000e+02  6.400000e+02  1.220000e+02  6.400000e+02
   99    98   131     2  1.200000e+02  5.600000e+02  1.200000e+02  5.600000e+02
  100    98   131     2  1.180000e+02  5.600000e+02  1.180000e+02  5.600000e+02
   69    99    97     2  1.180000e+02  5.600000e+02  1.180000e+02  5.600000e+02
   69    99    98     2  1.230000e+02  6.400000e+02  1.230000e+02  6.400000e+02
   97    99    98     2  1.190000e+02  5.600000e+02  1.190000e+02  5.600000e+02
   98   100   133     2  1.210000e+02  5.600000e+02  1.210000e+02  5.600000e+02
   98   100   813     2  1.220000e+02  5.050000e+02  1.220000e+02  5.050000e+02
  133   100   813     2  1.160000e+02  5.050000e+02  1.160000e+02  5.050000e+02
  103   101   750     2  1.200000e+02  5.600000e+02  1.200000e+02  5.600000e+02
  103   101   759     2  1.210000e+02  6.350000e+02  1.210000e+02  6.350000e+02
  750   101   759     2  1.190000e+02  5.600000e+02  1.190000e+02  5.600000e+02
  103   102   104     2  1.200000e+02  5.600000e+02  1.200000e+02  5.600000e+02
  103   102   135     2  1.220000e+02  6.400000e+02  1.220000e+02  6.400000e+02
  104   102   135     2  1.180000e+02  5.600000e+02  1.180000e+02  5.600000e+02
   71   103   101     2  1.170000e+02  5.600000e+02  1.170000e+02  5.600000e+02
   71   103   102     2  1.190000e+02  5.600000e+02  1.190000e+02  5.600000e+02
  101   103   102     2  1.240000e+02  6.400000e+02  1.240000e+02  6.400000e+02
  102   104   105     2  1.200000e+02  5.600000e+02  1.200000e+02  5.600000e+02
  102   104   137     2  1.200000e+02  5.600000e+02  1.200000e+02  5.600000e+02
  105   104   137     2  1.190000e+02  5.600000e+02  1.190000e+02  5.600000e+02
   72   105   104     2  1.200000e+02  5.600000e+02  1.200000e+02  5.600000e+02
   72   105   107     2  1.200000e+02  5.600000e+02  1.200000e+02  5.600000e+02
  104   105   107     2  1.200000e+02  5.600000e+02  1.200000e+02  5.600000e+02
  107   106   108     2  1.200000e+02  5.600000e+02  1.200000e+02  5.600000e+02
  107   106   139     2  1.200000e+02  5.600000e+02  1.200000e+02  5.600000e+02
  108   106   139     2  1.200000e+02  5.600000e+02  1.200000e+02  5.600000e+02
   74   107   105     2  1.200000e+02  5.600000e+02  1.200000e+02  5.600000e+02
   74   107   106     2  1.200000e+02  5.600000e+02  1.200000e+02  5.600000e+02
  105   107   106     2  1.200000e+02  5.600000e+02  1.200000e+02  5.600000e+02
  106   108   109     2  1.200000e+02  5.600000e+02  1.200000e+02  5.600000e+02
  106   108   141     2  1.200000e+02  5.600000e+02  1.200000e+02  5.600000e+02
  109   108   141     2  1.200000e+02  5.600000e+02  1.200000e+02  5.600000e+02
   76   109   108     2  1.200000e+02  5.600000e+02  1.200000e+02  5.600000e+02
   76   109   111     2  1.200000e+02  5.600000e+02  1.200000e+02  5.600000e+02
  108   109   111     2  1.200000e+02  5.600000e+02  1.200000e+02  5.600000e+02
  111   110   112     2  1.200000e+02  5.600000e+02  1.200000e+02  5.600000e+02
  111   110   143     2  1.200000e+02  5.600000e+02  1.200000e+02  5.600000e+02
  112   110   143     2  1.200000e+02  5.600000e+02  1.200000e+02  5.600000e+02
   78   111   109     2  1.200000e+02  5.600000e+02  1.200000e+02  5.600000e+02
   78   111   110     2  1.200000e+02  5.600000e+02  1.200000e+02  5.600000e+02
  109   111   110     2  1.200000e+02  5.600000e+02  1.200000e+02  5.600000e+02
  110   112   113     2  1.200000e+02  5.600000e+02  1.200000e+02  5.600000e+02
  110   112   145     2  1.200000e+02  5.600000e+02  1.200000e+02  5.600000e+02
  113   112   145     2  1.200000e+02  5.600000e+02  1.200000e+02  5.600000e+02
   80   113   112     2  1.200000e+02  5.600000e+02  1.200000e+02  5.600000e+02
   80   113   115     2  1.200000e+02  5.600000e+02  1.200000e+02  5.600000e+02
  112   113   115     2  1.200000e+02  5.600000e+02  1.200000e+02  5.600000e+02
  115   114   116     2  1.200000e+02  5.600000e+02  1.200000e+02  5.600000e+02
  115   114   147     2  1.200000e+02  5.600000e+02  1.200000e+02  5.600000e+02
  116   114   147     2  1.200000e+02  5.600000e+02  1.200000e+02  5.600000e+02
   82   115   113     2  1.200000e+02  5.600000e+02  1.200000e+02  5.600000e+02
   82   115   114     2  1.200000e+02  5.600000e+02  1.200000e+02  5.600000e+02
  113   115   114     2  1.200000e+02  5.600000e+02  1.200000e+02  5.600000e+02
  114   116   117     2  1.200000e+02  5.600000e+02  1.200000e+02  5.600000e+02
  114   116   149     2  1.200000e+02  5.600000e+02  1.200000e+02  5.600000e+02
  117   116   149     2  1.200000e+02  5.600000e+02  1.200000e+02  5.600000e+02
   84   117   116     2  1.200000e+02  5.600000e+02  1.200000e+02  5.600000e+02
   84   117   119     2  1.200000e+02  5.600000e+02  1.200000e+02  5.600000e+02
  116   117   119     2  1.200000e+02  5.600000e+02  1.200000e+02  5.600000e+02
  119   118   120     2  1.200000e+02  5.600000e+02  1.200000e+02  5.600000e+02
  119   118   151     2  1.200000e+02  5.600000e+02  1.200000e+02  5.600000e+02
  120   118   151     2  1.200000e+02  5.600000e+02  1.200000e+02  5.600000e+02
   86   119   117     2  1.200000e+02  5.600000e+02  1.200000e+02  5.600000e+02
   86   119   118     2  1.200000e+02  5.600000e+02  1.200000e+02  5.600000e+02
  117   119   118     2  1.200000e+02  5.600000e+02  1.200000e+02  5.600000e+02
  118   120   121     2  1.200000e+02  5.600000e+02  1.200000e+02  5.600000e+02
  118   120   153     2  1.200000e+02  5.600000e+02  1.200000e+02  5.600000e+02
  121   120   153     2  1.200000e+02  5.600000e+02  1.200000e+02  5.600000e+02
   88   121   120     2  1.200000e+02  5.600000e+02  1.200000e+02  5.600000e+02
   88   121   123     2  1.200000e+02  5.600000e+02  1.200000e+02  5.600000e+02
  120   121   123     2  1.200000e+02  5.600000e+02  1.200000e+02  5.600000e+02
  123   122   124     2  1.200000e+02  5.600000e+02  1.200000e+02  5.600000e+02
  123   122   155     2  1.200000e+02  5.600000e+02  1.200000e+02  5.600000e+02
  124   122   155     2  1.200000e+02  5.600000e+02  1.200000e+02  5.600000e+02
   90   123   121     2  1.200000e+02  5.600000e+02  1.200000e+02  5.600000e+02
   90   123   122     2  1.200000e+02  5.600000e+02  1.200000e+02  5.600000e+02
  121   123   122     2  1.200000e+02  5.600000e+02  1.200000e+02  5.600000e+02
  122   124   125     2  1.200000e+02  5.600000e+02  1.200000e+02  5.600000e+02
  122   124   157     2  1.200000e+02  5.600000e+02  1.200000e+02  5.600000e+02
  125   124   157     2  1.200000e+02  5.600000e+02  1.200000e+02  5.600000e+02
   92   125   124     2  1.200000e+02  5.600000e+02  1.200000e+02  5.600000e+02
   92   125   127     2  1.200000e+02  5.600000e+02  1.200000e+02  5.600000e+02
  124   125   127     2  1.200000e+02  5.600000e+02  1.200000e+02  5.600000e+02
  127   126   128     2  1.200000e+02  5.600000e+02  1.200000e+02  5.600000e+02
  127   126   159     2  1.200000e+02  5.600000e+02  1.200000e+02  5.600000e+02
  128   126   159     2  1.200000e+02  5.600000e+02  1.200000e+02  5.600000e+02
   94   127   125     2  1.200000e+02  5.600000e+02  1.200000e+02  5.600000e+02
   94   127   126     2  1.200000e+02  5.600000e+02  1.200000e+02  5.600000e+02
  125   127   126     2  1.200000e+02  5.600000e+02  1.200000e+02  5.600000e+02
  126   128   129     2  1.200000e+02  5.600000e+02  1.200000e+02  5.600000e+02
  126   128   161     2  1.200000e+02  5.600000e+02  1.200000e+02  5.600000e+02
  129   128   161     2  1.200000e+02  5.600000e+02  1.200000e+02  5.600000e+02
   96   129   128     2  1.200000e+02  5.600000e+02  1.200000e+02  5.600000e+02
   96   129   131     2  1.200000e+02  5.600000e+02  1.200000e+02  5.600000e+02
  128   129   131     2  1.200000e+02  5.600000e+02  1.200000e+02  5.600000e+02
  131   130   132     2  1.200000e+02  5.600000e+02  1.200000e+02  5.600000e+02
  131   130   163     2  1.190000e+02  5.600000e+02  1.190000e+02  5.600000e+02
  132   130   163     2  1.200000e+02  5.600000e+02  1.200000e+02  5.600000e+02
   98   131   129     2  1.200000e+02  5.600000e+02  1.200000e+02  5.600000e+02
   98   131   130     2  1.200000e+02  5.600000e+02  1.200000e+02  5.600000e+02
  129   131   130     2  1.200000e+02  5.600000e+02  1.200000e+02  5.600000e+02
  130   132   133     2  1.180000e+02  5.600000e+02  1.180000e+02  5.600000e+02
  130   132   165     2  1.200000e+02  5.600000e+02  1.200000e+02  5.600000e+02
  133   132   165     2  1.220000e+02  6.400000e+02  1.220000e+02  6.400000e+02
  100   133   132     2  1.220000e+02  5.600000e+02  1.220000e+02  5.600000e+02
  100   133   812     2  1.150000e+02  5.050000e+02  1.150000e+02  5.050000e+02
  132   133   812     2  1.230000e+02  5.050000e+02  1.230000e+02  5.050000e+02
  135   134   136     2  1.210000e+02  5.600000e+02  1.210000e+02  5.600000e+02
  135   134   794     2  1.160000e+02  5.050000e+02  1.160000e+02  5.050000e+02
  136   134   794     2  1.220000e+02  5.050000e+02  1.220000e+02  5.050000e+02
  102   135   134     2  1.220000e+02  5.600000e+02  1.220000e+02  5.600000e+02
  102   135   795     2  1.230000e+02  5.050000e+02  1.230000e+02  5.050000e+02
  134   135   795     2  1.150000e+02  5.050000e+02  1.150000e+02  5.050000e+02
  134   136   137     2  1.180000e+02  5.600000e+02  1.180000e+02  5.600000e+02
  134   136   169     2  1.220000e+02  6.400000e+02  1.220000e+02  6.400000e+02
  137   136   169     2  1.200000e+02  5.600000e+02  1.200000e+02  5.600000e+02
  104   137   136     2  1.200000e+02  5.600000e+02  1.200000e+02  5.600000e+02
  104   137   139     2  1.200000e+02  5.600000e+02  1.200000e+02  5.600000e+02
  136   137   139     2  1.200000e+02  5.600000e+02  1.200000e+02  5.600000e+02
  139   138   140     2  1.200000e+02  5.600000e+02  1.200000e+02  5.600000e+02
  139   138   171     2  1.200000e+02  5.600000e+02  1.200000e+02  5.600000e+02
  140   138   171     2  1.200000e+02  5.600000e+02  1.200000e+02  5.600000e+02
  106   139   137     2  1.200000e+02  5.600000e+02  1.200000e+02  5.600000e+02
  106   139   138     2  1.200000e+02  5.600000e+02  1.200000e+02  5.600000e+02
  137   139   138     2  1.200000e+02  5.600000e+02  1.200000e+02  5.600000e+02
  138   140   141     2  1.200000e+02  5.600000e+02  1.200000e+02  5.600000e+02
  138   140   173     2  1.200000e+02  5.600000e+02  1.200000e+02  5.600000e+02
  141   140   173     2  1.200000e+02  5.600000e+02  1.200000e+02  5.600000e+02
  108   141   140     2  1.200000e+02  5.600000e+02  1.200000e+02  5.600000e+02
  108   141   143     2  1.200000e+02  5.600000e+02  1.200000e+02  5.600000e+02
  140   141   143     2  1.200000e+02  5.600000e+02  1.200000e+02  5.600000e+02
  143   142   144     2  1.200000e+02  5.600000e+02  1.200000e+02  5.600000e+02
  143   142   175     2  1.200000e+02  5.600000e+02  1.200000e+02  5.600000e+02
  144   142   175     2  1.200000e+02  5.600000e+02  1.200000e+02  5.600000e+02
  110   143   141     2  1.200000e+02  5.600000e+02  1.200000e+02  5.600000e+02
  110   143   142     2  1.200000e+02  5.600000e+02  1.200000e+02  5.600000e+02
  141   143   142     2  1.200000e+02  5.600000e+02  1.200000e+02  5.600000e+02
  142   144   145     2  1.200000e+02  5.600000e+02  1.200000e+02  5.600000e+02
  142   144   177     2  1.200000e+02  5.600000e+02  1.200000e+02  5.600000e+02
  145   144   177     2  1.200000e+02  5.600000e+02  1.200000e+02  5.600000e+02
  112   145   144     2  1.200000e+02  5.600000e+02  1.200000e+02  5.600000e+02
  112   145   147     2  1.200000e+02  5.600000e+02  1.200000e+02  5.600000e+02
  144   145   147     2  1.200000e+02  5.600000e+02  1.200000e+02  5.600000e+02
  147   146   148     2  1.200000e+02  5.600000e+02  1.200000e+02  5.600000e+02
  147   146   179     2  1.200000e+02  5.600000e+02  1.200000e+02  5.600000e+02
  148   146   179     2  1.200000e+02  5.600000e+02  1.200000e+02  5.600000e+02
  114   147   145     2  1.200000e+02  5.600000e+02  1.200000e+02  5.600000e+02
  114   147   146     2  1.200000e+02  5.600000e+02  1.200000e+02  5.600000e+02
  145   147   146     2  1.200000e+02  5.600000e+02  1.200000e+02  5.600000e+02
  146   148   149     2  1.200000e+02  5.600000e+02  1.200000e+02  5.600000e+02
  146   148   181     2  1.200000e+02  5.600000e+02  1.200000e+02  5.600000e+02
  149   148   181     2  1.200000e+02  5.600000e+02  1.200000e+02  5.600000e+02
  116   149   148     2  1.200000e+02  5.600000e+02  1.200000e+02  5.600000e+02
  116   149   151     2  1.200000e+02  5.600000e+02  1.200000e+02  5.600000e+02
  148   149   151     2  1.200000e+02  5.600000e+02  1.200000e+02  5.600000e+02
  151   150   152     2  1.200000e+02  5.600000e+02  1.200000e+02  5.600000e+02
  151   150   183     2  1.200000e+02  5.600000e+02  1.200000e+02  5.600000e+02
  152   150   183     2  1.200000e+02  5.600000e+02  1.200000e+02  5.600000e+02
  118   151   149     2  1.200000e+02  5.600000e+02  1.200000e+02  5.600000e+02
  118   151   150     2  1.200000e+02  5.600000e+02  1.200000e+02  5.600000e+02
  149   151   150     2  1.200000e+02  5.600000e+02  1.200000e+02  5.600000e+02
  150   152   153     2  1.200000e+02  5.600000e+02  1.200000e+02  5.600000e+02
  150   152   185     2  1.200000e+02  5.600000e+02  1.200000e+02  5.600000e+02
  153   152   185     2  1.200000e+02  5.600000e+02  1.200000e+02  5.600000e+02
  120   153   152     2  1.200000e+02  5.600000e+02  1.200000e+02  5.600000e+02
  120   153   155     2  1.200000e+02  5.600000e+02  1.200000e+02  5.600000e+02
  152   153   155     2  1.200000e+02  5.600000e+02  1.200000e+02  5.600000e+02
  155   154   156     2  1.200000e+02  5.600000e+02  1.200000e+02  5.600000e+02
  155   154   187     2  1.200000e+02  5.600000e+02  1.200000e+02  5.600000e+02
  156   154   187     2  1.200000e+02  5.600000e+02  1.200000e+02  5.600000e+02
  122   155   153     2  1.200000e+02  5.600000e+02  1.200000e+02  5.600000e+02
  122   155   154     2  1.200000e+02  5.600000e+02  1.200000e+02  5.600000e+02
  153   155   154     2  1.200000e+02  5.600000e+02  1.200000e+02  5.600000e+02
  154   156   157     2  1.200000e+02  5.600000e+02  1.200000e+02  5.600000e+02
  154   156   189     2  1.200000e+02  5.600000e+02  1.200000e+02  5.600000e+02
  157   156   189     2  1.200000e+02  5.600000e+02  1.200000e+02  5.600000e+02
  124   157   156     2  1.200000e+02  5.600000e+02  1.200000e+02  5.600000e+02
  124   157   159     2  1.200000e+02  5.600000e+02  1.200000e+02  5.600000e+02
  156   157   159     2  1.200000e+02  5.600000e+02  1.200000e+02  5.600000e+02
  159   158   160     2  1.200000e+02  5.600000e+02  1.200000e+02  5.600000e+02
  159   158   191     2  1.200000e+02  5.600000e+02  1.200000e+02  5.600000e+02
  160   158   191     2  1.200000e+02  5.600000e+02  1.200000e+02  5.600000e+02
  126   159   157     2  1.200000e+02  5.600000e+02  1.200000e+02  5.600000e+02
  126   159   158     2  1.200000e+02  5.600000e+02  1.200000e+02  5.600000e+02
  157   159   158     2  1.200000e+02  5.600000e+02  1.200000e+02  5.600000e+02
  158   160   161     2  1.200000e+02  5.600000e+02  1.200000e+02  5.600000e+02
  158   160   193     2  1.200000e+02  5.600000e+02  1.200000e+02  5.600000e+02
  161   160   193     2  1.200000e+02  5.600000e+02  1.200000e+02  5.600000e+02
  128   161   160     2  1.200000e+02  5.600000e+02  1.200000e+02  5.600000e+02
  128   161   163     2  1.200000e+02  5.600000e+02  1.200000e+02  5.600000e+02
  160   161   163     2  1.200000e+02  5.600000e+02  1.200000e+02  5.600000e+02
  163   162   164     2  1.200000e+02  5.600000e+02  1.200000e+02  5.600000e+02
  163   162   195     2  1.200000e+02  5.600000e+02  1.200000e+02  5.600000e+02
  164   162   195     2  1.200000e+02  5.600000e+02  1.200000e+02  5.600000e+02
  130   163   161     2  1.200000e+02  5.600000e+02  1.200000e+02  5.600000e+02
  130   163   162     2  1.200000e+02  5.600000e+02  1.200000e+02  5.600000e+02
  161   163   162     2  1.200000e+02  5.600000e+02  1.200000e+02  5.600000e+02
  162   164   165     2  1.200000e+02  5.600000e+02  1.200000e+02  5.600000e+02
  162   164   197     2  1.200000e+02  5.600000e+02  1.200000e+02  5.600000e+02
  165   164   197     2  1.200000e+02  5.600000e+02  1.200000e+02  5.600000e+02
  132   165   164     2  1.190000e+02  5.600000e+02  1.190000e+02  5.600000e+02
  132   165   167     2  1.240000e+02  5.600000e+02  1.240000e+02  5.600000e+02
  164   165   167     2  1.170000e+02  5.600000e+02  1.170000e+02  5.600000e+02
  167   166   199     2  1.210000e+02  5.600000e+02  1.210000e+02  5.600000e+02
  167   166   811     2  1.180000e+02  5.050000e+02  1.180000e+02  5.050000e+02
  199   166   811     2  1.210000e+02  5.050000e+02  1.210000e+02  5.050000e+02
  165   167   166     2  1.200000e+02  5.600000e+02  1.200000e+02  5.600000e+02
  165   167   771     2  1.210000e+02  6.350000e+02  1.210000e+02  6.350000e+02
  166   167   771     2  1.190000e+02  5.600000e+02  1.190000e+02  5.600000e+02
  169   168   201     2  1.210000e+02  5.600000e+02  1.210000e+02  5.600000e+02
  169   168   793     2  1.210000e+02  5.050000e+02  1.210000e+02  5.050000e+02
  201   168   793     2  1.180000e+02  5.050000e+02  1.180000e+02  5.050000e+02
  136   169   168     2  1.230000e+02  6.400000e+02  1.230000e+02  6.400000e+02
  136   169   171     2  1.190000e+02  5.600000e+02  1.190000e+02  5.600000e+02
  168   169   171     2  1.180000e+02  5.600000e+02  1.180000e+02  5.600000e+02
  171   170   172     2  1.200000e+02  5.600000e+02  1.200000e+02  5.600000e+02
  171   170   203     2  1.200000e+02  5.600000e+02  1.200000e+02  5.600000e+02
  172   170   203     2  1.200000e+02  5.600000e+02  1.200000e+02  5.600000e+02
  138   171   169     2  1.200000e+02  5.600000e+02  1.200000e+02  5.600000e+02
  138   171   170     2  1.200000e+02  5.600000e+02  1.200000e+02  5.600000e+02
  169   171   170     2  1.200000e+02  5.600000e+02  1.200000e+02  5.600000e+02
  170   172   173     2  1.200000e+02  5.600000e+02  1.200000e+02  5.600000e+02
  170   172   205     2  1.200000e+02  5.600000e+02  1.200000e+02  5.600000e+02
  173   172   205     2  1.200000e+02  5.600000e+02  1.200000e+02  5.600000e+02
  140   173   172     2  1.200000e+02  5.600000e+02  1.200000e+02  5.600000e+02
  140   173   175     2  1.200000e+02  5.600000e+02  1.200000e+02  5.600000e+02
  172   173   175     2  1.200000e+02  5.600000e+02  1.200000e+02  5.600000e+02
  175   174   176     2  1.200000e+02  5.600000e+02  1.200000e+02  5.600000e+02
  175   174   207     2  1.200000e+02  5.600000e+02  1.200000e+02  5.600000e+02
  176   174   207     2  1.200000e+02  5.600000e+02  1.200000e+02  5.600000e+02
  142   175   173     2  1.200000e+02  5.600000e+02  1.200000e+02  5.600000e+02
  142   175   174     2  1.200000e+02  5.600000e+02  1.200000e+02  5.600000e+02
  173   175   174     2  1.200000e+02  5.600000e+02  1.200000e+02  5.600000e+02
  174   176   177     2  1.200000e+02  5.600000e+02  1.200000e+02  5.600000e+02
  174   176   209     2  1.200000e+02  5.600000e+02  1.200000e+02  5.600000e+02
  177   176   209     2  1.200000e+02  5.600000e+02  1.200000e+02  5.600000e+02
  144   177   176     2  1.200000e+02  5.600000e+02  1.200000e+02  5.600000e+02
  144   177   179     2  1.200000e+02  5.600000e+02  1.200000e+02  5.600000e+02
  176   177   179     2  1.200000e+02  5.600000e+02  1.200000e+02  5.600000e+02
  179   178   180     2  1.200000e+02  5.600000e+02  1.200000e+02  5.600000e+02
  179   178   211     2  1.200000e+02  5.600000e+02  1.200000e+02  5.600000e+02
  180   178   211     2  1.200000e+02  5.600000e+02  1.200000e+02  5.600000e+02
  146   179   177     2  1.200000e+02  5.600000e+02  1.200000e+02  5.600000e+02
  146   179   178     2  1.200000e+02  5.600000e+02  1.200000e+02  5.600000e+02
  177   179   178     2  1.200000e+02  5.600000e+02  1.200000e+02  5.600000e+02
  178   180   181     2  1.200000e+02  5.600000e+02  1.200000e+02  5.600000e+02
  178   180   213     2  1.200000e+02  5.600000e+02  1.200000e+02  5.600000e+02
  181   180   213     2  1.200000e+02  5.600000e+02  1.200000e+02  5.600000e+02
  148   181   180     2  1.200000e+02  5.600000e+02  1.200000e+02  5.600000e+02
  148   181   183     2  1.200000e+02  5.600000e+02  1.200000e+02  5.600000e+02
  180   181   183     2  1.200000e+02  5.600000e+02  1.200000e+02  5.600000e+02
  183   182   184     2  1.200000e+02  5.600000e+02  1.200000e+02  5.600000e+02
  183   182   215     2  1.200000e+02  5.600000e+02  1.200000e+02  5.600000e+02
  184   182   215     2  1.200000e+02  5.600000e+02  1.200000e+02  5.600000e+02
  150   183   181     2  1.200000e+02  5.600000e+02  1.200000e+02  5.600000e+02
  150   183   182     2  1.200000e+02  5.600000e+02  1.200000e+02  5.600000e+02
  181   183   182     2  1.200000e+02  5.600000e+02  1.200000e+02  5.600000e+02
  182   184   185     2  1.200000e+02  5.600000e+02  1.200000e+02  5.600000e+02
  182   184   217     2  1.200000e+02  5.600000e+02  1.200000e+02  5.600000e+02
  185   184   217     2  1.200000e+02  5.600000e+02  1.200000e+02  5.600000e+02
  152   185   184     2  1.200000e+02  5.600000e+02  1.200000e+02  5.600000e+02
  152   185   187     2  1.200000e+02  5.600000e+02  1.200000e+02  5.600000e+02
  184   185   187     2  1.200000e+02  5.600000e+02  1.200000e+02  5.600000e+02
  187   186   188     2  1.200000e+02  5.600000e+02  1.200000e+02  5.600000e+02
  187   186   219     2  1.200000e+02  5.600000e+02  1.200000e+02  5.600000e+02
  188   186   219     2  1.200000e+02  5.600000e+02  1.200000e+02  5.600000e+02
  154   187   185     2  1.200000e+02  5.600000e+02  1.200000e+02  5.600000e+02
  154   187   186     2  1.200000e+02  5.600000e+02  1.200000e+02  5.600000e+02
  185   187   186     2  1.200000e+02  5.600000e+02  1.200000e+02  5.600000e+02
  186   188   189     2  1.200000e+02  5.600000e+02  1.200000e+02  5.600000e+02
  186   188   221     2  1.200000e+02  5.600000e+02  1.200000e+02  5.600000e+02
  189   188   221     2  1.200000e+02  5.600000e+02  1.200000e+02  5.600000e+02
  156   189   188     2  1.200000e+02  5.600000e+02  1.200000e+02  5.600000e+02
  156   189   191     2  1.200000e+02  5.600000e+02  1.200000e+02  5.600000e+02
  188   189   191     2  1.200000e+02  5.600000e+02  1.200000e+02  5.600000e+02
  191   190   192     2  1.200000e+02  5.600000e+02  1.200000e+02  5.600000e+02
  191   190   223     2  1.200000e+02  5.600000e+02  1.200000e+02  5.600000e+02
  192   190   223     2  1.200000e+02  5.600000e+02  1.200000e+02  5.600000e+02
  158   191   189     2  1.200000e+02  5.600000e+02  1.200000e+02  5.600000e+02
  158   191   190     2  1.200000e+02  5.600000e+02  1.200000e+02  5.600000e+02
  189   191   190     2  1.200000e+02  5.600000e+02  1.200000e+02  5.600000e+02
  190   192   193     2  1.200000e+02  5.600000e+02  1.200000e+02  5.600000e+02
  190   192   225     2  1.200000e+02  5.600000e+02  1.200000e+02  5.600000e+02
  193   192   225     2  1.200000e+02  5.600000e+02  1.200000e+02  5.600000e+02
  160   193   192     2  1.200000e+02  5.600000e+02  1.200000e+02  5.600000e+02
  160   193   195     2  1.200000e+02  5.600000e+02  1.200000e+02  5.600000e+02
  192   193   195     2  1.200000e+02  5.600000e+02  1.200000e+02  5.600000e+02
  195   194   196     2  1.200000e+02  5.600000e+02  1.200000e+02  5.600000e+02
  195   194   227     2  1.200000e+02  5.600000e+02  1.200000e+02  5.600000e+02
  196   194   227     2  1.200000e+02  5.600000e+02  1.200000e+02  5.600000e+02
  162   195   193     2  1.200000e+02  5.600000e+02  1.200000e+02  5.600000e+02
  162   195   194     2  1.200000e+02  5.600000e+02  1.200000e+02  5.600000e+02
  193   195   194     2  1.200000e+02  5.600000e+02  1.200000e+02  5.600000e+02
  194   196   197     2  1.200000e+02  5.600000e+02  1.200000e+02  5.600000e+02
  194   196   229     2  1.200000e+02  5.600000e+02  1.200000e+02  5.600000e+02
  197   196   229     2  1.200000e+02  5.600000e+02  1.200000e+02  5.600000e+02
  164   197   196     2  1.200000e+02  5.600000e+02  1.200000e+02  5.600000e+02
  164   197   199     2  1.200000e+02  5.600000e+02  1.200000e+02  5.600000e+02
  196   197   199     2  1.200000e+02  5.600000e+02  1.200000e+02  5.600000e+02
  199   198   200     2  1.220000e+02  6.400000e+02  1.220000e+02  6.400000e+02
  199   198   231     2  1.200000e+02  5.600000e+02  1.200000e+02  5.600000e+02
  200   198   231     2  1.180000e+02  5.600000e+02  1.180000e+02  5.600000e+02
  166   199   197     2  1.180000e+02  5.600000e+02  1.180000e+02  5.600000e+02
  166   199   198     2  1.230000e+02  5.600000e+02  1.230000e+02  5.600000e+02
  197   199   198     2  1.190000e+02  5.600000e+02  1.190000e+02  5.600000e+02
  198   200   233     2  1.210000e+02  5.600000e+02  1.210000e+02  5.600000e+02
  198   200   810     2  1.220000e+02  5.050000e+02  1.220000e+02  5.050000e+02
  233   200   810     2  1.160000e+02  5.050000e+02  1.160000e+02  5.050000e+02
  168   201   203     2  1.200000e+02  5.600000e+02  1.200000e+02  5.600000e+02
  168   201   763     2  1.190000e+02  5.600000e+02  1.190000e+02  5.600000e+02
  203   201   763     2  1.210000e+02  6.350000e+02  1.210000e+02  6.350000e+02
  203   202   204     2  1.200000e+02  5.600000e+02  1.200000e+02  5.600000e+02
  203   202   235     2  1.220000e+02  6.400000e+02  1.220000e+02  6.400000e+02
  204   202   235     2  1.180000e+02  5.600000e+02  1.180000e+02  5.600000e+02
  170   203   201     2  1.170000e+02  5.600000e+02  1.170000e+02  5.600000e+02
  170   203   202     2  1.190000e+02  5.600000e+02  1.190000e+02  5.600000e+02
  201   203   202     2  1.240000e+02  6.400000e+02  1.240000e+02  6.400000e+02
  202   204   205     2  1.200000e+02  5.600000e+02  1.200000e+02  5.600000e+02
  202   204   237     2  1.210000e+02  5.600000e+02  1.210000e+02  5.600000e+02
  205   204   237     2  1.190000e+02  5.600000e+02  1.190000e+02  5.600000e+02
  172   205   204     2  1.200000e+02  5.600000e+02  1.200000e+02  5.600000e+02
  172   205   207     2  1.200000e+02  5.600000e+02  1.200000e+02  5.600000e+02
  204   205   207     2  1.200000e+02  5.600000e+02  1.200000e+02  5.600000e+02
  207   206   208     2  1.200000e+02  5.600000e+02  1.200000e+02  5.600000e+02
  207   206   239     2  1.200000e+02  5.600000e+02  1.200000e+02  5.600000e+02
  208   206   239     2  1.200000e+02  5.600000e+02  1.200000e+02  5.600000e+02
  174   207   205     2  1.200000e+02  5.600000e+02  1.200000e+02  5.600000e+02
  174   207   206     2  1.200000e+02  5.600000e+02  1.200000e+02  5.600000e+02
  205   207   206     2  1.200000e+02  5.600000e+02  1.200000e+02  5.600000e+02
  206   208   209     2  1.200000e+02  5.600000e+02  1.200000e+02  5.600000e+02
  206   208   241     2  1.200000e+02  5.600000e+02  1.200000e+02  5.600000e+02
  209   208   241     2  1.200000e+02  5.600000e+02  1.200000e+02  5.600000e+02
  176   209   208     2  1.200000e+02  5.600000e+02  1.200000e+02  5.600000e+02
  176   209   211     2  1.200000e+02  5.600000e+02  1.200000e+02  5.600000e+02
  208   209   211     2  1.200000e+02  5.600000e+02  1.200000e+02  5.600000e+02
  211   210   212     2  1.200000e+02  5.600000e+02  1.200000e+02  5.600000e+02
  211   210   243     2  1.200000e+02  5.600000e+02  1.200000e+02  5.600000e+02
  212   210   243     2  1.200000e+02  5.600000e+02  1.200000e+02  5.600000e+02
  178   211   209     2  1.200000e+02  5.600000e+02  1.200000e+02  5.600000e+02
  178   211   210     2  1.200000e+02  5.600000e+02  1.200000e+02  5.600000e+02
  209   211   210     2  1.200000e+02  5.600000e+02  1.200000e+02  5.600000e+02
  210   212   213     2  1.200000e+02  5.600000e+02  1.200000e+02  5.600000e+02
  210   212   245     2  1.200000e+02  5.600000e+02  1.200000e+02  5.600000e+02
  213   212   245     2  1.200000e+02  5.600000e+02  1.200000e+02  5.600000e+02
  180   213   212     2  1.200000e+02  5.600000e+02  1.200000e+02  5.600000e+02
  180   213   215     2  1.200000e+02  5.600000e+02  1.200000e+02  5.600000e+02
  212   213   215     2  1.200000e+02  5.600000e+02  1.200000e+02  5.600000e+02
  215   214   216     2  1.200000e+02  5.600000e+02  1.200000e+02  5.600000e+02
  215   214   247     2  1.200000e+02  5.600000e+02  1.200000e+02  5.600000e+02
  216   214   247     2  1.200000e+02  5.600000e+02  1.200000e+02  5.600000e+02
  182   215   213     2  1.200000e+02  5.600000e+02  1.200000e+02  5.600000e+02
  182   215   214     2  1.200000e+02  5.600000e+02  1.200000e+02  5.600000e+02
  213   215   214     2  1.200000e+02  5.600000e+02  1.200000e+02  5.600000e+02
  214   216   217     2  1.200000e+02  5.600000e+02  1.200000e+02  5.600000e+02
  214   216   249     2  1.200000e+02  5.600000e+02  1.200000e+02  5.600000e+02
  217   216   249     2  1.200000e+02  5.600000e+02  1.200000e+02  5.600000e+02
  184   217   216     2  1.200000e+02  5.600000e+02  1.200000e+02  5.600000e+02
  184   217   219     2  1.200000e+02  5.600000e+02  1.200000e+02  5.600000e+02
  216   217   219     2  1.200000e+02  5.600000e+02  1.200000e+02  5.600000e+02
  219   218   220     2  1.200000e+02  5.600000e+02  1.200000e+02  5.600000e+02
  219   218   251     2  1.200000e+02  5.600000e+02  1.200000e+02  5.600000e+02
  220   218   251     2  1.200000e+02  5.600000e+02  1.200000e+02  5.600000e+02
  186   219   217     2  1.200000e+02  5.600000e+02  1.200000e+02  5.600000e+02
  186   219   218     2  1.200000e+02  5.600000e+02  1.200000e+02  5.600000e+02
  217   219   218     2  1.200000e+02  5.600000e+02  1.200000e+02  5.600000e+02
  218   220   221     2  1.200000e+02  5.600000e+02  1.200000e+02  5.600000e+02
  218   220   253     2  1.200000e+02  5.600000e+02  1.200000e+02  5.600000e+02
  221   220   253     2  1.200000e+02  5.600000e+02  1.200000e+02  5.600000e+02
  188   221   220     2  1.200000e+02  5.600000e+02  1.200000e+02  5.600000e+02
  188   221   223     2  1.200000e+02  5.600000e+02  1.200000e+02  5.600000e+02
  220   221   223     2  1.200000e+02  5.600000e+02  1.200000e+02  5.600000e+02
  223   222   224     2  1.200000e+02  5.600000e+02  1.200000e+02  5.600000e+02
  223   222   255     2  1.200000e+02  5.600000e+02  1.200000e+02  5.600000e+02
  224   222   255     2  1.200000e+02  5.600000e+02  1.200000e+02  5.600000e+02
  190   223   221     2  1.200000e+02  5.600000e+02  1.200000e+02  5.600000e+02
  190   223   222     2  1.200000e+02  5.600000e+02  1.200000e+02  5.600000e+02
  221   223   222     2  1.200000e+02  5.600000e+02  1.200000e+02  5.600000e+02
  222   224   225     2  1.200000e+02  5.600000e+02  1.200000e+02  5.600000e+02
  222   224   257     2  1.200000e+02  5.600000e+02  1.200000e+02  5.600000e+02
  225   224   257     2  1.200000e+02  5.600000e+02  1.200000e+02  5.600000e+02
  192   225   224     2  1.200000e+02  5.600000e+02  1.200000e+02  5.600000e+02
  192   225   227     2  1.200000e+02  5.600000e+02  1.200000e+02  5.600000e+02
  224   225   227     2  1.200000e+02  5.600000e+02  1.200000e+02  5.600000e+02
  227   226   228     2  1.200000e+02  5.600000e+02  1.200000e+02  5.600000e+02
  227   226   259     2  1.200000e+02  5.600000e+02  1.200000e+02  5.600000e+02
  228   226   259     2  1.200000e+02  5.600000e+02  1.200000e+02  5.600000e+02
  194   227   225     2  1.200000e+02  5.600000e+02  1.200000e+02  5.600000e+02
  194   227   226     2  1.200000e+02  5.600000e+02  1.200000e+02  5.600000e+02
  225   227   226     2  1.200000e+02  5.600000e+02  1.200000e+02  5.600000e+02
  226   228   229     2  1.200000e+02  5.600000e+02  1.200000e+02  5.600000e+02
  226   228   261     2  1.200000e+02  5.600000e+02  1.200000e+02  5.600000e+02
  229   228   261     2  1.200000e+02  5.600000e+02  1.200000e+02  5.600000e+02
  196   229   228     2  1.200000e+02  5.600000e+02  1.200000e+02  5.600000e+02
  196   229   231     2  1.200000e+02  5.600000e+02  1.200000e+02  5.600000e+02
  228   229   231     2  1.200000e+02  5.600000e+02  1.200000e+02  5.600000e+02
  231   230   232     2  1.210000e+02  5.600000e+02  1.210000e+02  5.600000e+02
  231   230   263     2  1.190000e+02  5.600000e+02  1.190000e+02  5.600000e+02
  232   230   263     2  1.200000e+02  5.600000e+02  1.200000e+02  5.600000e+02
  198   231   229     2  1.200000e+02  5.600000e+02  1.200000e+02  5.600000e+02
  198   231   230     2  1.200000e+02  5.600000e+02  1.200000e+02  5.600000e+02
  229   231   230     2  1.200000e+02  5.600000e+02  1.200000e+02  5.600000e+02
  230   232   233     2  1.180000e+02  5.600000e+02  1.180000e+02  5.600000e+02
  230   232   265     2  1.200000e+02  5.600000e+02  1.200000e+02  5.600000e+02
  233   232   265     2  1.220000e+02  6.400000e+02  1.220000e+02  6.400000e+02
  200   233   232     2  1.220000e+02  5.600000e+02  1.220000e+02  5.600000e+02
  200   233   809     2  1.150000e+02  5.050000e+02  1.150000e+02  5.050000e+02
  232   233   809     2  1.230000e+02  5.050000e+02  1.230000e+02  5.050000e+02
  235   234   236     2  1.210000e+02  5.600000e+02  1.210000e+02  5.600000e+02
  235   234   791     2  1.160000e+02  5.050000e+02  1.160000e+02  5.050000e+02
  236   234   791     2  1.220000e+02  5.050000e+02  1.220000e+02  5.050000e+02
  202   235   234     2  1.220000e+02  5.600000e+02  1.220000e+02  5.600000e+02
  202   235   792     2  1.230000e+02  5.050000e+02  1.230000e+02  5.050000e+02
  234   235   792     2  1.150000e+02  5.050000e+02  1.150000e+02  5.050000e+02
  234   236   237     2  1.180000e+02  5.600000e+02  1.180000e+02  5.600000e+02
  234   236   269     2  1.220000e+02  6.400000e+02  1.220000e+02  6.400000e+02
  237   236   269     2  1.200000e+02  5.600000e+02  1.200000e+02  5.600000e+02
  204   237   236     2  1.200000e+02  5.600000e+02  1.200000e+02  5.600000e+02
  204   237   239     2  1.200000e+02  5.600000e+02  1.200000e+02  5.600000e+02
  236   237   239     2  1.200000e+02  5.600000e+02  1.200000e+02  5.600000e+02
  239   238   240     2  1.200000e+02  5.600000e+02  1.200000e+02  5.600000e+02
  239   238   271     2  1.200000e+02  5.600000e+02  1.200000e+02  5.600000e+02
  240   238   271     2  1.200000e+02  5.600000e+02  1.200000e+02  5.600000e+02
  206   239   237     2  1.200000e+02  5.600000e+02  1.200000e+02  5.600000e+02
  206   239   238     2  1.200000e+02  5.600000e+02  1.200000e+02  5.600000e+02
  237   239   238     2  1.200000e+02  5.600000e+02  1.200000e+02  5.600000e+02
  238   240   241     2  1.200000e+02  5.600000e+02  1.200000e+02  5.600000e+02
  238   240   273     2  1.200000e+02  5.600000e+02  1.200000e+02  5.600000e+02
  241   240   273     2  1.200000e+02  5.600000e+02  1.200000e+02  5.600000e+02
  208   241   240     2  1.200000e+02  5.600000e+02  1.200000e+02  5.600000e+02
  208   241   243     2  1.200000e+02  5.600000e+02  1.200000e+02  5.600000e+02
  240   241   243     2  1.200000e+02  5.600000e+02  1.200000e+02  5.600000e+02
  243   242   244     2  1.200000e+02  5.600000e+02  1.200000e+02  5.600000e+02
  243   242   275     2  1.200000e+02  5.600000e+02  1.200000e+02  5.600000e+02
  244   242   275     2  1.200000e+02  5.600000e+02  1.200000e+02  5.600000e+02
  210   243   241     2  1.200000e+02  5.600000e+02  1.200000e+02  5.600000e+02
  210   243   242     2  1.200000e+02  5.600000e+02  1.200000e+02  5.600000e+02
  241   243   242     2  1.200000e+02  5.600000e+02  1.200000e+02  5.600000e+02
  242   244   245     2  1.200000e+02  5.600000e+02  1.200000e+02  5.600000e+02
  242   244   277     2  1.200000e+02  5.600000e+02  1.200000e+02  5.600000e+02
  245   244   277     2  1.200000e+02  5.600000e+02  1.200000e+02  5.600000e+02
  212   245   244     2  1.200000e+02  5.600000e+02  1.200000e+02  5.600000e+02
  212   245   247     2  1.200000e+02  5.600000e+02  1.200000e+02  5.600000e+02
  244   245   247     2  1.200000e+02  5.600000e+02  1.200000e+02  5.600000e+02
  247   246   248     2  1.200000e+02  5.600000e+02  1.200000e+02  5.600000e+02
  247   246   279     2  1.200000e+02  5.600000e+02  1.200000e+02  5.600000e+02
  248   246   279     2  1.200000e+02  5.600000e+02  1.200000e+02  5.600000e+02
  214   247   245     2  1.200000e+02  5.600000e+02  1.200000e+02  5.600000e+02
  214   247   246     2  1.200000e+02  5.600000e+02  1.200000e+02  5.600000e+02
  245   247   246     2  1.200000e+02  5.600000e+02  1.200000e+02  5.600000e+02
  246   248   249     2  1.200000e+02  5.600000e+02  1.200000e+02  5.600000e+02
  246   248   281     2  1.200000e+02  5.600000e+02  1.200000e+02  5.600000e+02
  249   248   281     2  1.200000e+02  5.600000e+02  1.200000e+02  5.600000e+02
  216   249   248     2  1.200000e+02  5.600000e+02  1.200000e+02  5.600000e+02
  216   249   251     2  1.200000e+02  5.600000e+02  1.200000e+02  5.600000e+02
  248   249   251     2  1.200000e+02  5.600000e+02  1.200000e+02  5.600000e+02
  251   250   252     2  1.200000e+02  5.600000e+02  1.200000e+02  5.600000e+02
  251   250   283     2  1.200000e+02  5.600000e+02  1.200000e+02  5.600000e+02
  252   250   283     2  1.200000e+02  5.600000e+02  1.200000e+02  5.600000e+02
  218   251   249     2  1.200000e+02  5.600000e+02  1.200000e+02  5.600000e+02
  218   251   250     2  1.200000e+02  5.600000e+02  1.200000e+02  5.600000e+02
  249   251   250     2  1.200000e+02  5.600000e+02  1.200000e+02  5.600000e+02
  250   252   253     2  1.200000e+02  5.600000e+02  1.200000e+02  5.600000e+02
  250   252   285     2  1.200000e+02  5.600000e+02  1.200000e+02  5.600000e+02
  253   252   285     2  1.200000e+02  5.600000e+02  1.200000e+02  5.600000e+02
  220   253   252     2  1.200000e+02  5.600000e+02  1.200000e+02  5.600000e+02
  220   253   255     2  1.200000e+02  5.600000e+02  1.200000e+02  5.600000e+02
  252   253   255     2  1.200000e+02  5.600000e+02  1.200000e+02  5.600000e+02
  255   254   256     2  1.200000e+02  5.600000e+02  1.200000e+02  5.600000e+02
  255   254   287     2  1.200000e+02  5.600000e+02  1.200000e+02  5.600000e+02
  256   254   287     2  1.200000e+02  5.600000e+02  1.200000e+02  5.600000e+02
  222   255   253     2  1.200000e+02  5.600000e+02  1.200000e+02  5.600000e+02
  222   255   254     2  1.200000e+02  5.600000e+02  1.200000e+02  5.600000e+02
  253   255   254     2  1.200000e+02  5.600000e+02  1.200000e+02  5.600000e+02
  254   256   257     2  1.200000e+02  5.600000e+02  1.200000e+02  5.600000e+02
  254   256   289     2  1.200000e+02  5.600000e+02  1.200000e+02  5.600000e+02
  257   256   289     2  1.200000e+02  5.600000e+02  1.200000e+02  5.600000e+02
  224   257   256     2  1.200000e+02  5.600000e+02  1.200000e+02  5.600000e+02
  224   257   259     2  1.200000e+02  5.600000e+02  1.200000e+02  5.600000e+02
  256   257   259     2  1.200000e+02  5.600000e+02  1.200000e+02  5.600000e+02
  259   258   260     2  1.200000e+02  5.600000e+02  1.200000e+02  5.600000e+02
  259   258   291     2  1.200000e+02  5.600000e+02  1.200000e+02  5.600000e+02
  260   258   291     2  1.200000e+02  5.600000e+02  1.200000e+02  5.600000e+02
  226   259   257     2  1.200000e+02  5.600000e+02  1.200000e+02  5.600000e+02
  226   259   258     2  1.200000e+02  5.600000e+02  1.200000e+02  5.600000e+02
  257   259   258     2  1.200000e+02  5.600000e+02  1.200000e+02  5.600000e+02
  258   260   261     2  1.200000e+02  5.600000e+02  1.200000e+02  5.600000e+02
  258   260   293     2  1.200000e+02  5.600000e+02  1.200000e+02  5.600000e+02
  261   260   293     2  1.200000e+02  5.600000e+02  1.200000e+02  5.600000e+02
  228   261   260     2  1.200000e+02  5.600000e+02  1.200000e+02  5.600000e+02
  228   261   263     2  1.200000e+02  5.600000e+02  1.200000e+02  5.600000e+02
  260   261   263     2  1.200000e+02  5.600000e+02  1.200000e+02  5.600000e+02
  263   262   264     2  1.200000e+02  5.600000e+02  1.200000e+02  5.600000e+02
  263   262   295     2  1.200000e+02  5.600000e+02  1.200000e+02  5.600000e+02
  264   262   295     2  1.200000e+02  5.600000e+02  1.200000e+02  5.600000e+02
  230   263   261     2  1.200000e+02  5.600000e+02  1.200000e+02  5.600000e+02
  230   263   262     2  1.200000e+02  5.600000e+02  1.200000e+02  5.600000e+02
  261   263   262     2  1.200000e+02  5.600000e+02  1.200000e+02  5.600000e+02
  262   264   265     2  1.200000e+02  5.600000e+02  1.200000e+02  5.600000e+02
  262   264   297     2  1.200000e+02  5.600000e+02  1.200000e+02  5.600000e+02
  265   264   297     2  1.200000e+02  5.600000e+02  1.200000e+02  5.600000e+02
  232   265   264     2  1.190000e+02  5.600000e+02  1.190000e+02  5.600000e+02
  232   265   267     2  1.240000e+02  6.400000e+02  1.240000e+02  6.400000e+02
  264   265   267     2  1.170000e+02  5.600000e+02  1.170000e+02  5.600000e+02
  267   266   299     2  1.210000e+02  5.600000e+02  1.210000e+02  5.600000e+02
  267   266   808     2  1.170000e+02  5.050000e+02  1.170000e+02  5.050000e+02
  299   266   808     2  1.220000e+02  5.050000e+02  1.220000e+02  5.050000e+02
  265   267   266     2  1.200000e+02  5.600000e+02  1.200000e+02  5.600000e+02
  265   267   767     2  1.210000e+02  6.350000e+02  1.210000e+02  6.350000e+02
  266   267   767     2  1.190000e+02  5.600000e+02  1.190000e+02  5.600000e+02
  269   268   301     2  1.210000e+02  5.600000e+02  1.210000e+02  5.600000e+02
  269   268   790     2  1.210000e+02  5.050000e+02  1.210000e+02  5.050000e+02
  301   268   790     2  1.180000e+02  5.050000e+02  1.180000e+02  5.050000e+02
  236   269   268     2  1.230000e+02  6.400000e+02  1.230000e+02  6.400000e+02
  236   269   271     2  1.190000e+02  5.600000e+02  1.190000e+02  5.600000e+02
  268   269   271     2  1.180000e+02  5.600000e+02  1.180000e+02  5.600000e+02
  271   270   272     2  1.200000e+02  5.600000e+02  1.200000e+02  5.600000e+02
  271   270   303     2  1.200000e+02  5.600000e+02  1.200000e+02  5.600000e+02
  272   270   303     2  1.200000e+02  5.600000e+02  1.200000e+02  5.600000e+02
  238   271   269     2  1.200000e+02  5.600000e+02  1.200000e+02  5.600000e+02
  238   271   270     2  1.200000e+02  5.600000e+02  1.200000e+02  5.600000e+02
  269   271   270     2  1.200000e+02  5.600000e+02  1.200000e+02  5.600000e+02
  270   272   273     2  1.200000e+02  5.600000e+02  1.200000e+02  5.600000e+02
  270   272   305     2  1.200000e+02  5.600000e+02  1.200000e+02  5.600000e+02
  273   272   305     2  1.200000e+02  5.600000e+02  1.200000e+02  5.600000e+02
  240   273   272     2  1.200000e+02  5.600000e+02  1.200000e+02  5.600000e+02
  240   273   275     2  1.200000e+02  5.600000e+02  1.200000e+02  5.600000e+02
  272   273   275     2  1.200000e+02  5.600000e+02  1.200000e+02  5.600000e+02
  275   274   276     2  1.200000e+02  5.600000e+02  1.200000e+02  5.600000e+02
  275   274   307     2  1.200000e+02  5.600000e+02  1.200000e+02  5.600000e+02
  276   274   307     2  1.200000e+02  5.600000e+02  1.200000e+02  5.600000e+02
  242   275   273     2  1.200000e+02  5.600000e+02  1.200000e+02  5.600000e+02
  242   275   274     2  1.200000e+02  5.600000e+02  1.200000e+02  5.600000e+02
  273   275   274     2  1.200000e+02  5.600000e+02  1.200000e+02  5.600000e+02
  274   276   277     2  1.200000e+02  5.600000e+02  1.200000e+02  5.600000e+02
  274   276   309     2  1.200000e+02  5.600000e+02  1.200000e+02  5.600000e+02
  277   276   309     2  1.200000e+02  5.600000e+02  1.200000e+02  5.600000e+02
  244   277   276     2  1.200000e+02  5.600000e+02  1.200000e+02  5.600000e+02
  244   277   279     2  1.200000e+02  5.600000e+02  1.200000e+02  5.600000e+02
  276   277   279     2  1.200000e+02  5.600000e+02  1.200000e+02  5.600000e+02
  279   278   280     2  1.200000e+02  5.600000e+02  1.200000e+02  5.600000e+02
  279   278   311     2  1.200000e+02  5.600000e+02  1.200000e+02  5.600000e+02
  280   278   311     2  1.200000e+02  5.600000e+02  1.200000e+02  5.600000e+02
  246   279   277     2  1.200000e+02  5.600000e+02  1.200000e+02  5.600000e+02
  246   279   278     2  1.200000e+02  5.600000e+02  1.200000e+02  5.600000e+02
  277   279   278     2  1.200000e+02  5.600000e+02  1.200000e+02  5.600000e+02
  278   280   281     2  1.200000e+02  5.600000e+02  1.200000e+02  5.600000e+02
  278   280   313     2  1.200000e+02  5.600000e+02  1.200000e+02  5.600000e+02
  281   280   313     2  1.200000e+02  5.600000e+02  1.200000e+02  5.600000e+02
  248   281   280     2  1.200000e+02  5.600000e+02  1.200000e+02  5.600000e+02
  248   281   283     2  1.200000e+02  5.600000e+02  1.200000e+02  5.600000e+02
  280   281   283     2  1.200000e+02  5.600000e+02  1.200000e+02  5.600000e+02
  283   282   284     2  1.200000e+02  5.600000e+02  1.200000e+02  5.600000e+02
  283   282   315     2  1.200000e+02  5.600000e+02  1.200000e+02  5.600000e+02
  284   282   315     2  1.200000e+02  5.600000e+02  1.200000e+02  5.600000e+02
  250   283   281     2  1.200000e+02  5.600000e+02  1.200000e+02  5.600000e+02
  250   283   282     2  1.200000e+02  5.600000e+02  1.200000e+02  5.600000e+02
  281   283   282     2  1.200000e+02  5.600000e+02  1.200000e+02  5.600000e+02
  282   284   285     2  1.200000e+02  5.600000e+02  1.200000e+02  5.600000e+02
  282   284   317     2  1.200000e+02  5.600000e+02  1.200000e+02  5.600000e+02
  285   284   317     2  1.200000e+02  5.600000e+02  1.200000e+02  5.600000e+02
  252   285   284     2  1.200000e+02  5.600000e+02  1.200000e+02  5.600000e+02
  252   285   287     2  1.200000e+02  5.600000e+02  1.200000e+02  5.600000e+02
  284   285   287     2  1.200000e+02  5.600000e+02  1.200000e+02  5.600000e+02
  287   286   288     2  1.200000e+02  5.600000e+02  1.200000e+02  5.600000e+02
  287   286   319     2  1.200000e+02  5.600000e+02  1.200000e+02  5.600000e+02
  288   286   319     2  1.200000e+02  5.600000e+02  1.200000e+02  5.600000e+02
  254   287   285     2  1.200000e+02  5.600000e+02  1.200000e+02  5.600000e+02
  254   287   286     2  1.200000e+02  5.600000e+02  1.200000e+02  5.600000e+02
  285   287   286     2  1.200000e+02  5.600000e+02  1.200000e+02  5.600000e+02
  286   288   289     2  1.200000e+02  5.600000e+02  1.200000e+02  5.600000e+02
  286   288   321     2  1.200000e+02  5.600000e+02  1.200000e+02  5.600000e+02
  289   288   321     2  1.200000e+02  5.600000e+02  1.200000e+02  5.600000e+02
  256   289   288     2  1.200000e+02  5.600000e+02  1.200000e+02  5.600000e+02
  256   289   291     2  1.200000e+02  5.600000e+02  1.200000e+02  5.600000e+02
  288   289   291     2  1.200000e+02  5.600000e+02  1.200000e+02  5.600000e+02
  291   290   292     2  1.200000e+02  5.600000e+02  1.200000e+02  5.600000e+02
  291   290   323     2  1.200000e+02  5.600000e+02  1.200000e+02  5.600000e+02
  292   290   323     2  1.200000e+02  5.600000e+02  1.200000e+02  5.600000e+02
  258   291   289     2  1.200000e+02  5.600000e+02  1.200000e+02  5.600000e+02
  258   291   290     2  1.200000e+02  5.600000e+02  1.200000e+02  5.600000e+02
  289   291   290     2  1.200000e+02  5.600000e+02  1.200000e+02  5.600000e+02
  290   292   293     2  1.200000e+02  5.600000e+02  1.200000e+02  5.600000e+02
  290   292   325     2  1.200000e+02  5.600000e+02  1.200000e+02  5.600000e+02
  293   292   325     2  1.200000e+02  5.600000e+02  1.200000e+02  5.600000e+02
  260   293   292     2  1.200000e+02  5.600000e+02  1.200000e+02  5.600000e+02
  260   293   295     2  1.200000e+02  5.600000e+02  1.200000e+02  5.600000e+02
  292   293   295     2  1.200000e+02  5.600000e+02  1.200000e+02  5.600000e+02
  295   294   296     2  1.200000e+02  5.600000e+02  1.200000e+02  5.600000e+02
  295   294   327     2  1.200000e+02  5.600000e+02  1.200000e+02  5.600000e+02
  296   294   327     2  1.200000e+02  5.600000e+02  1.200000e+02  5.600000e+02
  262   295   293     2  1.200000e+02  5.600000e+02  1.200000e+02  5.600000e+02
  262   295   294     2  1.200000e+02  5.600000e+02  1.200000e+02  5.600000e+02
  293   295   294     2  1.200000e+02  5.600000e+02  1.200000e+02  5.600000e+02
  294   296   297     2  1.200000e+02  5.600000e+02  1.200000e+02  5.600000e+02
  294   296   329     2  1.200000e+02  5.600000e+02  1.200000e+02  5.600000e+02
  297   296   329     2  1.200000e+02  5.600000e+02  1.200000e+02  5.600000e+02
  264   297   296     2  1.200000e+02  5.600000e+02  1.200000e+02  5.600000e+02
  264   297   299     2  1.200000e+02  5.600000e+02  1.200000e+02  5.600000e+02
  296   297   299     2  1.200000e+02  5.600000e+02  1.200000e+02  5.600000e+02
  299   298   300     2  1.230000e+02  6.400000e+02  1.230000e+02  6.400000e+02
  299   298   331     2  1.190000e+02  5.600000e+02  1.190000e+02  5.600000e+02
  300   298   331     2  1.170000e+02  5.600000e+02  1.170000e+02  5.600000e+02
  266   299   297     2  1.170000e+02  5.600000e+02  1.170000e+02  5.600000e+02
  266   299   298     2  1.230000e+02  5.600000e+02  1.230000e+02  5.600000e+02
  297   299   298     2  1.190000e+02  5.600000e+02  1.190000e+02  5.600000e+02
  298   300   333     2  1.210000e+02  5.600000e+02  1.210000e+02  5.600000e+02
  298   300   807     2  1.220000e+02  5.050000e+02  1.220000e+02  5.050000e+02
  333   300   807     2  1.170000e+02  5.050000e+02  1.170000e+02  5.050000e+02
  268   301   303     2  1.200000e+02  5.600000e+02  1.200000e+02  5.600000e+02
  268   301   761     2  1.190000e+02  5.600000e+02  1.190000e+02  5.600000e+02
  303   301   761     2  1.210000e+02  6.350000e+02  1.210000e+02  6.350000e+02
  303   302   304     2  1.200000e+02  5.600000e+02  1.200000e+02  5.600000e+02
  303   302   335     2  1.220000e+02  5.600000e+02  1.220000e+02  5.600000e+02
  304   302   335     2  1.180000e+02  5.600000e+02  1.180000e+02  5.600000e+02
  270   303   301     2  1.170000e+02  5.600000e+02  1.170000e+02  5.600000e+02
  270   303   302     2  1.190000e+02  5.600000e+02  1.190000e+02  5.600000e+02
  301   303   302     2  1.240000e+02  6.400000e+02  1.240000e+02  6.400000e+02
  302   304   305     2  1.200000e+02  5.600000e+02  1.200000e+02  5.600000e+02
  302   304   337     2  1.200000e+02  5.600000e+02  1.200000e+02  5.600000e+02
  305   304   337     2  1.190000e+02  5.600000e+02  1.190000e+02  5.600000e+02
  272   305   304     2  1.200000e+02  5.600000e+02  1.200000e+02  5.600000e+02
  272   305   307     2  1.200000e+02  5.600000e+02  1.200000e+02  5.600000e+02
  304   305   307     2  1.200000e+02  5.600000e+02  1.200000e+02  5.600000e+02
  307   306   308     2  1.200000e+02  5.600000e+02  1.200000e+02  5.600000e+02
  307   306   339     2  1.200000e+02  5.600000e+02  1.200000e+02  5.600000e+02
  308   306   339     2  1.200000e+02  5.600000e+02  1.200000e+02  5.600000e+02
  274   307   305     2  1.200000e+02  5.600000e+02  1.200000e+02  5.600000e+02
  274   307   306     2  1.200000e+02  5.600000e+02  1.200000e+02  5.600000e+02
  305   307   306     2  1.200000e+02  5.600000e+02  1.200000e+02  5.600000e+02
  306   308   309     2  1.200000e+02  5.600000e+02  1.200000e+02  5.600000e+02
  306   308   341     2  1.200000e+02  5.600000e+02  1.200000e+02  5.600000e+02
  309   308   341     2  1.200000e+02  5.600000e+02  1.200000e+02  5.600000e+02
  276   309   308     2  1.200000e+02  5.600000e+02  1.200000e+02  5.600000e+02
  276   309   311     2  1.200000e+02  5.600000e+02  1.200000e+02  5.600000e+02
  308   309   311     2  1.200000e+02  5.600000e+02  1.200000e+02  5.600000e+02
  311   310   312     2  1.200000e+02  5.600000e+02  1.200000e+02  5.600000e+02
  311   310   343     2  1.200000e+02  5.600000e+02  1.200000e+02  5.600000e+02
  312   310   343     2  1.200000e+02  5.600000e+02  1.200000e+02  5.600000e+02
  278   311   309     2  1.200000e+02  5.600000e+02  1.200000e+02  5.600000e+02
  278   311   310     2  1.200000e+02  5.600000e+02  1.200000e+02  5.600000e+02
  309   311   310     2  1.200000e+02  5.600000e+02  1.200000e+02  5.600000e+02
  310   312   313     2  1.200000e+02  5.600000e+02  1.200000e+02  5.600000e+02
  310   312   345     2  1.200000e+02  5.600000e+02  1.200000e+02  5.600000e+02
  313   312   345     2  1.200000e+02  5.600000e+02  1.200000e+02  5.600000e+02
  280   313   312     2  1.200000e+02  5.600000e+02  1.200000e+02  5.600000e+02
  280   313   315     2  1.200000e+02  5.600000e+02  1.200000e+02  5.600000e+02
  312   313   315     2  1.200000e+02  5.600000e+02  1.200000e+02  5.600000e+02
  315   314   316     2  1.200000e+02  5.600000e+02  1.200000e+02  5.600000e+02
  315   314   347     2  1.200000e+02  5.600000e+02  1.200000e+02  5.600000e+02
  316   314   347     2  1.200000e+02  5.600000e+02  1.200000e+02  5.600000e+02
  282   315   313     2  1.200000e+02  5.600000e+02  1.200000e+02  5.600000e+02
  282   315   314     2  1.200000e+02  5.600000e+02  1.200000e+02  5.600000e+02
  313   315   314     2  1.200000e+02  5.600000e+02  1.200000e+02  5.600000e+02
  314   316   317     2  1.200000e+02  5.600000e+02  1.200000e+02  5.600000e+02
  314   316   349     2  1.200000e+02  5.600000e+02  1.200000e+02  5.600000e+02
  317   316   349     2  1.200000e+02  5.600000e+02  1.200000e+02  5.600000e+02
  284   317   316     2  1.200000e+02  5.600000e+02  1.200000e+02  5.600000e+02
  284   317   319     2  1.200000e+02  5.600000e+02  1.200000e+02  5.600000e+02
  316   317   319     2  1.200000e+02  5.600000e+02  1.200000e+02  5.600000e+02
  319   318   320     2  1.200000e+02  5.600000e+02  1.200000e+02  5.600000e+02
  319   318   351     2  1.200000e+02  5.600000e+02  1.200000e+02  5.600000e+02
  320   318   351     2  1.200000e+02  5.600000e+02  1.200000e+02  5.600000e+02
  286   319   317     2  1.200000e+02  5.600000e+02  1.200000e+02  5.600000e+02
  286   319   318     2  1.200000e+02  5.600000e+02  1.200000e+02  5.600000e+02
  317   319   318     2  1.200000e+02  5.600000e+02  1.200000e+02  5.600000e+02
  318   320   321     2  1.200000e+02  5.600000e+02  1.200000e+02  5.600000e+02
  318   320   353     2  1.200000e+02  5.600000e+02  1.200000e+02  5.600000e+02
  321   320   353     2  1.200000e+02  5.600000e+02  1.200000e+02  5.600000e+02
  288   321   320     2  1.200000e+02  5.600000e+02  1.200000e+02  5.600000e+02
  288   321   323     2  1.200000e+02  5.600000e+02  1.200000e+02  5.600000e+02
  320   321   323     2  1.200000e+02  5.600000e+02  1.200000e+02  5.600000e+02
  323   322   324     2  1.200000e+02  5.600000e+02  1.200000e+02  5.600000e+02
  323   322   355     2  1.200000e+02  5.600000e+02  1.200000e+02  5.600000e+02
  324   322   355     2  1.200000e+02  5.600000e+02  1.200000e+02  5.600000e+02
  290   323   321     2  1.200000e+02  5.600000e+02  1.200000e+02  5.600000e+02
  290   323   322     2  1.200000e+02  5.600000e+02  1.200000e+02  5.600000e+02
  321   323   322     2  1.200000e+02  5.600000e+02  1.200000e+02  5.600000e+02
  322   324   325     2  1.200000e+02  5.600000e+02  1.200000e+02  5.600000e+02
  322   324   357     2  1.200000e+02  5.600000e+02  1.200000e+02  5.600000e+02
  325   324   357     2  1.200000e+02  5.600000e+02  1.200000e+02  5.600000e+02
  292   325   324     2  1.200000e+02  5.600000e+02  1.200000e+02  5.600000e+02
  292   325   327     2  1.200000e+02  5.600000e+02  1.200000e+02  5.600000e+02
  324   325   327     2  1.200000e+02  5.600000e+02  1.200000e+02  5.600000e+02
  327   326   328     2  1.200000e+02  5.600000e+02  1.200000e+02  5.600000e+02
  327   326   359     2  1.200000e+02  5.600000e+02  1.200000e+02  5.600000e+02
  328   326   359     2  1.200000e+02  5.600000e+02  1.200000e+02  5.600000e+02
  294   327   325     2  1.200000e+02  5.600000e+02  1.200000e+02  5.600000e+02
  294   327   326     2  1.200000e+02  5.600000e+02  1.200000e+02  5.600000e+02
  325   327   326     2  1.200000e+02  5.600000e+02  1.200000e+02  5.600000e+02
  326   328   329     2  1.200000e+02  5.600000e+02  1.200000e+02  5.600000e+02
  326   328   361     2  1.200000e+02  5.600000e+02  1.200000e+02  5.600000e+02
  329   328   361     2  1.200000e+02  5.600000e+02  1.200000e+02  5.600000e+02
  296   329   328     2  1.200000e+02  5.600000e+02  1.200000e+02  5.600000e+02
  296   329   331     2  1.200000e+02  5.600000e+02  1.200000e+02  5.600000e+02
  328   329   331     2  1.200000e+02  5.600000e+02  1.200000e+02  5.600000e+02
  331   330   332     2  1.200000e+02  5.600000e+02  1.200000e+02  5.600000e+02
  331   330   363     2  1.200000e+02  5.600000e+02  1.200000e+02  5.600000e+02
  332   330   363     2  1.200000e+02  5.600000e+02  1.200000e+02  5.600000e+02
  298   331   329     2  1.200000e+02  5.600000e+02  1.200000e+02  5.600000e+02
  298   331   330     2  1.210000e+02  5.600000e+02  1.210000e+02  5.600000e+02
  329   331   330     2  1.200000e+02  5.600000e+02  1.200000e+02  5.600000e+02
  330   332   333     2  1.170000e+02  5.600000e+02  1.170000e+02  5.600000e+02
  330   332   365     2  1.190000e+02  5.600000e+02  1.190000e+02  5.600000e+02
  333   332   365     2  1.240000e+02  6.400000e+02  1.240000e+02  6.400000e+02
  300   333   332     2  1.200000e+02  5.600000e+02  1.200000e+02  5.600000e+02
  300   333   765     2  1.190000e+02  5.600000e+02  1.190000e+02  5.600000e+02
  332   333   765     2  1.210000e+02  6.350000e+02  1.210000e+02  6.350000e+02
  335   334   336     2  1.210000e+02  5.600000e+02  1.210000e+02  5.600000e+02
  335   334   788     2  1.160000e+02  5.050000e+02  1.160000e+02  5.050000e+02
  336   334   788     2  1.220000e+02  5.050000e+02  1.220000e+02  5.050000e+02
  302   335   334     2  1.220000e+02  5.600000e+02  1.220000e+02  5.600000e+02
  302   335   789     2  1.230000e+02  5.050000e+02  1.230000e+02  5.050000e+02
  334   335   789     2  1.150000e+02  5.050000e+02  1.150000e+02  5.050000e+02
  334   336   337     2  1.180000e+02  5.600000e+02  1.180000e+02  5.600000e+02
  334   336   369     2  1.220000e+02  6.400000e+02  1.220000e+02  6.400000e+02
  337   336   369     2  1.200000e+02  5.600000e+02  1.200000e+02  5.600000e+02
  304   337   336     2  1.200000e+02  5.600000e+02  1.200000e+02  5.600000e+02
  304   337   339     2  1.200000e+02  5.600000e+02  1.200000e+02  5.600000e+02
  336   337   339     2  1.200000e+02  5.600000e+02  1.200000e+02  5.600000e+02
  339   338   340     2  1.200000e+02  5.600000e+02  1.200000e+02  5.600000e+02
  339   338   371     2  1.200000e+02  5.600000e+02  1.200000e+02  5.600000e+02
  340   338   371     2  1.200000e+02  5.600000e+02  1.200000e+02  5.600000e+02
  306   339   337     2  1.200000e+02  5.600000e+02  1.200000e+02  5.600000e+02
  306   339   338     2  1.200000e+02  5.600000e+02  1.200000e+02  5.600000e+02
  337   339   338     2  1.200000e+02  5.600000e+02  1.200000e+02  5.600000e+02
  338   340   341     2  1.200000e+02  5.600000e+02  1.200000e+02  5.600000e+02
  338   340   373     2  1.200000e+02  5.600000e+02  1.200000e+02  5.600000e+02
  341   340   373     2  1.200000e+02  5.600000e+02  1.200000e+02  5.600000e+02
  308   341   340     2  1.200000e+02  5.600000e+02  1.200000e+02  5.600000e+02
  308   341   343     2  1.200000e+02  5.600000e+02  1.200000e+02  5.600000e+02
  340   341   343     2  1.200000e+02  5.600000e+02  1.200000e+02  5.600000e+02
  343   342   344     2  1.200000e+02  5.600000e+02  1.200000e+02  5.600000e+02
  343   342   375     2  1.200000e+02  5.600000e+02  1.200000e+02  5.600000e+02
  344   342   375     2  1.200000e+02  5.600000e+02  1.200000e+02  5.600000e+02
  310   343   341     2  1.200000e+02  5.600000e+02  1.200000e+02  5.600000e+02
  310   343   342     2  1.200000e+02  5.600000e+02  1.200000e+02  5.600000e+02
  341   343   342     2  1.200000e+02  5.600000e+02  1.200000e+02  5.600000e+02
  342   344   345     2  1.200000e+02  5.600000e+02  1.200000e+02  5.600000e+02
  342   344   377     2  1.200000e+02  5.600000e+02  1.200000e+02  5.600000e+02
  345   344   377     2  1.200000e+02  5.600000e+02  1.200000e+02  5.600000e+02
  312   345   344     2  1.200000e+02  5.600000e+02  1.200000e+02  5.600000e+02
  312   345   347     2  1.200000e+02  5.600000e+02  1.200000e+02  5.600000e+02
  344   345   347     2  1.200000e+02  5.600000e+02  1.200000e+02  5.600000e+02
  347   346   348     2  1.200000e+02  5.600000e+02  1.200000e+02  5.600000e+02
  347   346   379     2  1.200000e+02  5.600000e+02  1.200000e+02  5.600000e+02
  348   346   379     2  1.200000e+02  5.600000e+02  1.200000e+02  5.600000e+02
  314   347   345     2  1.200000e+02  5.600000e+02  1.200000e+02  5.600000e+02
  314   347   346     2  1.200000e+02  5.600000e+02  1.200000e+02  5.600000e+02
  345   347   346     2  1.200000e+02  5.600000e+02  1.200000e+02  5.600000e+02
  346   348   349     2  1.200000e+02  5.600000e+02  1.200000e+02  5.600000e+02
  346   348   381     2  1.200000e+02  5.600000e+02  1.200000e+02  5.600000e+02
  349   348   381     2  1.200000e+02  5.600000e+02  1.200000e+02  5.600000e+02
  316   349   348     2  1.200000e+02  5.600000e+02  1.200000e+02  5.600000e+02
  316   349   351     2  1.200000e+02  5.600000e+02  1.200000e+02  5.600000e+02
  348   349   351     2  1.200000e+02  5.600000e+02  1.200000e+02  5.600000e+02
  351   350   352     2  1.200000e+02  5.600000e+02  1.200000e+02  5.600000e+02
  351   350   383     2  1.200000e+02  5.600000e+02  1.200000e+02  5.600000e+02
  352   350   383     2  1.200000e+02  5.600000e+02  1.200000e+02  5.600000e+02
  318   351   349     2  1.200000e+02  5.600000e+02  1.200000e+02  5.600000e+02
  318   351   350     2  1.200000e+02  5.600000e+02  1.200000e+02  5.600000e+02
  349   351   350     2  1.200000e+02  5.600000e+02  1.200000e+02  5.600000e+02
  350   352   353     2  1.200000e+02  5.600000e+02  1.200000e+02  5.600000e+02
  350   352   385     2  1.200000e+02  5.600000e+02  1.200000e+02  5.600000e+02
  353   352   385     2  1.200000e+02  5.600000e+02  1.200000e+02  5.600000e+02
  320   353   352     2  1.200000e+02  5.600000e+02  1.200000e+02  5.600000e+02
  320   353   355     2  1.200000e+02  5.600000e+02  1.200000e+02  5.600000e+02
  352   353   355     2  1.200000e+02  5.600000e+02  1.200000e+02  5.600000e+02
  355   354   356     2  1.200000e+02  5.600000e+02  1.200000e+02  5.600000e+02
  355   354   387     2  1.200000e+02  5.600000e+02  1.200000e+02  5.600000e+02
  356   354   387     2  1.200000e+02  5.600000e+02  1.200000e+02  5.600000e+02
  322   355   353     2  1.200000e+02  5.600000e+02  1.200000e+02  5.600000e+02
  322   355   354     2  1.200000e+02  5.600000e+02  1.200000e+02  5.600000e+02
  353   355   354     2  1.200000e+02  5.600000e+02  1.200000e+02  5.600000e+02
  354   356   357     2  1.200000e+02  5.600000e+02  1.200000e+02  5.600000e+02
  354   356   389     2  1.200000e+02  5.600000e+02  1.200000e+02  5.600000e+02
  357   356   389     2  1.200000e+02  5.600000e+02  1.200000e+02  5.600000e+02
  324   357   356     2  1.200000e+02  5.600000e+02  1.200000e+02  5.600000e+02
  324   357   359     2  1.200000e+02  5.600000e+02  1.200000e+02  5.600000e+02
  356   357   359     2  1.200000e+02  5.600000e+02  1.200000e+02  5.600000e+02
  359   358   360     2  1.200000e+02  5.600000e+02  1.200000e+02  5.600000e+02
  359   358   391     2  1.200000e+02  5.600000e+02  1.200000e+02  5.600000e+02
  360   358   391     2  1.200000e+02  5.600000e+02  1.200000e+02  5.600000e+02
  326   359   357     2  1.200000e+02  5.600000e+02  1.200000e+02  5.600000e+02
  326   359   358     2  1.200000e+02  5.600000e+02  1.200000e+02  5.600000e+02
  357   359   358     2  1.200000e+02  5.600000e+02  1.200000e+02  5.600000e+02
  358   360   361     2  1.200000e+02  5.600000e+02  1.200000e+02  5.600000e+02
  358   360   393     2  1.200000e+02  5.600000e+02  1.200000e+02  5.600000e+02
  361   360   393     2  1.200000e+02  5.600000e+02  1.200000e+02  5.600000e+02
  328   361   360     2  1.200000e+02  5.600000e+02  1.200000e+02  5.600000e+02
  328   361   363     2  1.200000e+02  5.600000e+02  1.200000e+02  5.600000e+02
  360   361   363     2  1.200000e+02  5.600000e+02  1.200000e+02  5.600000e+02
  363   362   364     2  1.200000e+02  5.600000e+02  1.200000e+02  5.600000e+02
  363   362   395     2  1.200000e+02  5.600000e+02  1.200000e+02  5.600000e+02
  364   362   395     2  1.200000e+02  5.600000e+02  1.200000e+02  5.600000e+02
  330   363   361     2  1.200000e+02  5.600000e+02  1.200000e+02  5.600000e+02
  330   363   362     2  1.200000e+02  5.600000e+02  1.200000e+02  5.600000e+02
  361   363   362     2  1.200000e+02  5.600000e+02  1.200000e+02  5.600000e+02
  362   364   365     2  1.200000e+02  5.600000e+02  1.200000e+02  5.600000e+02
  362   364   397     2  1.190000e+02  5.600000e+02  1.190000e+02  5.600000e+02
  365   364   397     2  1.210000e+02  5.600000e+02  1.210000e+02  5.600000e+02
  332   365   364     2  1.200000e+02  5.600000e+02  1.200000e+02  5.600000e+02
  332   365   367     2  1.220000e+02  6.400000e+02  1.220000e+02  6.400000e+02
  364   365   367     2  1.180000e+02  5.600000e+02  1.180000e+02  5.600000e+02
  367   366   399     2  1.220000e+02  5.600000e+02  1.220000e+02  5.600000e+02
  367   366   805     2  1.150000e+02  5.050000e+02  1.150000e+02  5.050000e+02
  399   366   805     2  1.230000e+02  5.050000e+02  1.230000e+02  5.050000e+02
  365   367   366     2  1.220000e+02  5.600000e+02  1.220000e+02  5.600000e+02
  365   367   806     2  1.230000e+02  5.050000e+02  1.230000e+02  5.050000e+02
  366   367   806     2  1.150000e+02  5.050000e+02  1.150000e+02  5.050000e+02
  369   368   401     2  1.210000e+02  5.600000e+02  1.210000e+02  5.600000e+02
  369   368   787     2  1.210000e+02  5.050000e+02  1.210000e+02  5.050000e+02
  401   368   787     2  1.180000e+02  5.050000e+02  1.180000e+02  5.050000e+02
  336   369   368     2  1.230000e+02  6.400000e+02  1.230000e+02  6.400000e+02
  336   369   371     2  1.190000e+02  5.600000e+02  1.190000e+02  5.600000e+02
  368   369   371     2  1.180000e+02  5.600000e+02  1.180000e+02  5.600000e+02
  371   370   372     2  1.200000e+02  5.600000e+02  1.200000e+02  5.600000e+02
  371   370   403     2  1.200000e+02  5.600000e+02  1.200000e+02  5.600000e+02
  372   370   403     2  1.200000e+02  5.600000e+02  1.200000e+02  5.600000e+02
  338   371   369     2  1.200000e+02  5.600000e+02  1.200000e+02  5.600000e+02
  338   371   370     2  1.200000e+02  5.600000e+02  1.200000e+02  5.600000e+02
  369   371   370     2  1.200000e+02  5.600000e+02  1.200000e+02  5.600000e+02
  370   372   373     2  1.200000e+02  5.600000e+02  1.200000e+02  5.600000e+02
  370   372   405     2  1.200000e+02  5.600000e+02  1.200000e+02  5.600000e+02
  373   372   405     2  1.200000e+02  5.600000e+02  1.200000e+02  5.600000e+02
  340   373   372     2  1.200000e+02  5.600000e+02  1.200000e+02  5.600000e+02
  340   373   375     2  1.200000e+02  5.600000e+02  1.200000e+02  5.600000e+02
  372   373   375     2  1.200000e+02  5.600000e+02  1.200000e+02  5.600000e+02
  375   374   376     2  1.200000e+02  5.600000e+02  1.200000e+02  5.600000e+02
  375   374   407     2  1.200000e+02  5.600000e+02  1.200000e+02  5.600000e+02
  376   374   407     2  1.200000e+02  5.600000e+02  1.200000e+02  5.600000e+02
  342   375   373     2  1.200000e+02  5.600000e+02  1.200000e+02  5.600000e+02
  342   375   374     2  1.200000e+02  5.600000e+02  1.200000e+02  5.600000e+02
  373   375   374     2  1.200000e+02  5.600000e+02  1.200000e+02  5.600000e+02
  374   376   377     2  1.200000e+02  5.600000e+02  1.200000e+02  5.600000e+02
  374   376   409     2  1.200000e+02  5.600000e+02  1.200000e+02  5.600000e+02
  377   376   409     2  1.200000e+02  5.600000e+02  1.200000e+02  5.600000e+02
  344   377   376     2  1.200000e+02  5.600000e+02  1.200000e+02  5.600000e+02
  344   377   379     2  1.200000e+02  5.600000e+02  1.200000e+02  5.600000e+02
  376   377   379     2  1.200000e+02  5.600000e+02  1.200000e+02  5.600000e+02
  379   378   380     2  1.200000e+02  5.600000e+02  1.200000e+02  5.600000e+02
  379   378   411     2  1.200000e+02  5.600000e+02  1.200000e+02  5.600000e+02
  380   378   411     2  1.200000e+02  5.600000e+02  1.200000e+02  5.600000e+02
  346   379   377     2  1.200000e+02  5.600000e+02  1.200000e+02  5.600000e+02
  346   379   378     2  1.200000e+02  5.600000e+02  1.200000e+02  5.600000e+02
  377   379   378     2  1.200000e+02  5.600000e+02  1.200000e+02  5.600000e+02
  378   380   381     2  1.200000e+02  5.600000e+02  1.200000e+02  5.600000e+02
  378   380   413     2  1.200000e+02  5.600000e+02  1.200000e+02  5.600000e+02
  381   380   413     2  1.200000e+02  5.600000e+02  1.200000e+02  5.600000e+02
  348   381   380     2  1.200000e+02  5.600000e+02  1.200000e+02  5.600000e+02
  348   381   383     2  1.200000e+02  5.600000e+02  1.200000e+02  5.600000e+02
  380   381   383     2  1.200000e+02  5.600000e+02  1.200000e+02  5.600000e+02
  383   382   384     2  1.200000e+02  5.600000e+02  1.200000e+02  5.600000e+02
  383   382   415     2  1.200000e+02  5.600000e+02  1.200000e+02  5.600000e+02
  384   382   415     2  1.200000e+02  5.600000e+02  1.200000e+02  5.600000e+02
  350   383   381     2  1.200000e+02  5.600000e+02  1.200000e+02  5.600000e+02
  350   383   382     2  1.200000e+02  5.600000e+02  1.200000e+02  5.600000e+02
  381   383   382     2  1.200000e+02  5.600000e+02  1.200000e+02  5.600000e+02
  382   384   385     2  1.200000e+02  5.600000e+02  1.200000e+02  5.600000e+02
  382   384   417     2  1.200000e+02  5.600000e+02  1.200000e+02  5.600000e+02
  385   384   417     2  1.200000e+02  5.600000e+02  1.200000e+02  5.600000e+02
  352   385   384     2  1.200000e+02  5.600000e+02  1.200000e+02  5.600000e+02
  352   385   387     2  1.200000e+02  5.600000e+02  1.200000e+02  5.600000e+02
  384   385   387     2  1.200000e+02  5.600000e+02  1.200000e+02  5.600000e+02
  387   386   388     2  1.200000e+02  5.600000e+02  1.200000e+02  5.600000e+02
  387   386   419     2  1.200000e+02  5.600000e+02  1.200000e+02  5.600000e+02
  388   386   419     2  1.200000e+02  5.600000e+02  1.200000e+02  5.600000e+02
  354   387   385     2  1.200000e+02  5.600000e+02  1.200000e+02  5.600000e+02
  354   387   386     2  1.200000e+02  5.600000e+02  1.200000e+02  5.600000e+02
  385   387   386     2  1.200000e+02  5.600000e+02  1.200000e+02  5.600000e+02
  386   388   389     2  1.200000e+02  5.600000e+02  1.200000e+02  5.600000e+02
  386   388   421     2  1.200000e+02  5.600000e+02  1.200000e+02  5.600000e+02
  389   388   421     2  1.200000e+02  5.600000e+02  1.200000e+02  5.600000e+02
  356   389   388     2  1.200000e+02  5.600000e+02  1.200000e+02  5.600000e+02
  356   389   391     2  1.200000e+02  5.600000e+02  1.200000e+02  5.600000e+02
  388   389   391     2  1.200000e+02  5.600000e+02  1.200000e+02  5.600000e+02
  391   390   392     2  1.200000e+02  5.600000e+02  1.200000e+02  5.600000e+02
  391   390   423     2  1.200000e+02  5.600000e+02  1.200000e+02  5.600000e+02
  392   390   423     2  1.200000e+02  5.600000e+02  1.200000e+02  5.600000e+02
  358   391   389     2  1.200000e+02  5.600000e+02  1.200000e+02  5.600000e+02
  358   391   390     2  1.200000e+02  5.600000e+02  1.200000e+02  5.600000e+02
  389   391   390     2  1.200000e+02  5.600000e+02  1.200000e+02  5.600000e+02
  390   392   393     2  1.200000e+02  5.600000e+02  1.200000e+02  5.600000e+02
  390   392   425     2  1.200000e+02  5.600000e+02  1.200000e+02  5.600000e+02
  393   392   425     2  1.200000e+02  5.600000e+02  1.200000e+02  5.600000e+02
  360   393   392     2  1.200000e+02  5.600000e+02  1.200000e+02  5.600000e+02
  360   393   395     2  1.200000e+02  5.600000e+02  1.200000e+02  5.600000e+02
  392   393   395     2  1.200000e+02  5.600000e+02  1.200000e+02  5.600000e+02
  395   394   396     2  1.200000e+02  5.600000e+02  1.200000e+02  5.600000e+02
  395   394   427     2  1.200000e+02  5.600000e+02  1.200000e+02  5.600000e+02
  396   394   427     2  1.200000e+02  5.600000e+02  1.200000e+02  5.600000e+02
  362   395   393     2  1.200000e+02  5.600000e+02  1.200000e+02  5.600000e+02
  362   395   394     2  1.200000e+02  5.600000e+02  1.200000e+02  5.600000e+02
  393   395   394     2  1.200000e+02  5.600000e+02  1.200000e+02  5.600000e+02
  394   396   397     2  1.200000e+02  5.600000e+02  1.200000e+02  5.600000e+02
  394   396   429     2  1.200000e+02  5.600000e+02  1.200000e+02  5.600000e+02
  397   396   429     2  1.200000e+02  5.600000e+02  1.200000e+02  5.600000e+02
  364   397   396     2  1.200000e+02  5.600000e+02  1.200000e+02  5.600000e+02
  364   397   399     2  1.200000e+02  5.600000e+02  1.200000e+02  5.600000e+02
  396   397   399     2  1.200000e+02  5.600000e+02  1.200000e+02  5.600000e+02
  399   398   400     2  1.230000e+02  6.400000e+02  1.230000e+02  6.400000e+02
  399   398   431     2  1.190000e+02  5.600000e+02  1.190000e+02  5.600000e+02
  400   398   431     2  1.180000e+02  5.600000e+02  1.180000e+02  5.600000e+02
  366   399   397     2  1.180000e+02  5.600000e+02  1.180000e+02  5.600000e+02
  366   399   398     2  1.220000e+02  6.400000e+02  1.220000e+02  6.400000e+02
  397   399   398     2  1.200000e+02  5.600000e+02  1.200000e+02  5.600000e+02
  398   400   433     2  1.210000e+02  5.600000e+02  1.210000e+02  5.600000e+02
  398   400   804     2  1.230000e+02  5.050000e+02  1.230000e+02  5.050000e+02
  433   400   804     2  1.160000e+02  5.050000e+02  1.160000e+02  5.050000e+02
  368   401   403     2  1.200000e+02  5.600000e+02  1.200000e+02  5.600000e+02
  368   401   755     2  1.190000e+02  5.600000e+02  1.190000e+02  5.600000e+02
  403   401   755     2  1.210000e+02  6.350000e+02  1.210000e+02  6.350000e+02
  403   402   404     2  1.200000e+02  5.600000e+02  1.200000e+02  5.600000e+02
  403   402   435     2  1.220000e+02  6.400000e+02  1.220000e+02  6.400000e+02
  404   402   435     2  1.180000e+02  5.600000e+02  1.180000e+02  5.600000e+02
  370   403   401     2  1.170000e+02  5.600000e+02  1.170000e+02  5.600000e+02
  370   403   402     2  1.190000e+02  5.600000e+02  1.190000e+02  5.600000e+02
  401   403   402     2  1.240000e+02  6.400000e+02  1.240000e+02  6.400000e+02
  402   404   405     2  1.200000e+02  5.600000e+02  1.200000e+02  5.600000e+02
  402   404   437     2  1.200000e+02  5.600000e+02  1.200000e+02  5.600000e+02
  405   404   437     2  1.190000e+02  5.600000e+02  1.190000e+02  5.600000e+02
  372   405   404     2  1.200000e+02  5.600000e+02  1.200000e+02  5.600000e+02
  372   405   407     2  1.200000e+02  5.600000e+02  1.200000e+02  5.600000e+02
  404   405   407     2  1.200000e+02  5.600000e+02  1.200000e+02  5.600000e+02
  407   406   408     2  1.200000e+02  5.600000e+02  1.200000e+02  5.600000e+02
  407   406   439     2  1.200000e+02  5.600000e+02  1.200000e+02  5.600000e+02
  408   406   439     2  1.200000e+02  5.600000e+02  1.200000e+02  5.600000e+02
  374   407   405     2  1.200000e+02  5.600000e+02  1.200000e+02  5.600000e+02
  374   407   406     2  1.200000e+02  5.600000e+02  1.200000e+02  5.600000e+02
  405   407   406     2  1.200000e+02  5.600000e+02  1.200000e+02  5.600000e+02
  406   408   409     2  1.200000e+02  5.600000e+02  1.200000e+02  5.600000e+02
  406   408   441     2  1.200000e+02  5.600000e+02  1.200000e+02  5.600000e+02
  409   408   441     2  1.200000e+02  5.600000e+02  1.200000e+02  5.600000e+02
  376   409   408     2  1.200000e+02  5.600000e+02  1.200000e+02  5.600000e+02
  376   409   411     2  1.200000e+02  5.600000e+02  1.200000e+02  5.600000e+02
  408   409   411     2  1.200000e+02  5.600000e+02  1.200000e+02  5.600000e+02
  411   410   412     2  1.200000e+02  5.600000e+02  1.200000e+02  5.600000e+02
  411   410   443     2  1.200000e+02  5.600000e+02  1.200000e+02  5.600000e+02
  412   410   443     2  1.200000e+02  5.600000e+02  1.200000e+02  5.600000e+02
  378   411   409     2  1.200000e+02  5.600000e+02  1.200000e+02  5.600000e+02
  378   411   410     2  1.200000e+02  5.600000e+02  1.200000e+02  5.600000e+02
  409   411   410     2  1.200000e+02  5.600000e+02  1.200000e+02  5.600000e+02
  410   412   413     2  1.200000e+02  5.600000e+02  1.200000e+02  5.600000e+02
  410   412   445     2  1.200000e+02  5.600000e+02  1.200000e+02  5.600000e+02
  413   412   445     2  1.200000e+02  5.600000e+02  1.200000e+02  5.600000e+02
  380   413   412     2  1.200000e+02  5.600000e+02  1.200000e+02  5.600000e+02
  380   413   415     2  1.200000e+02  5.600000e+02  1.200000e+02  5.600000e+02
  412   413   415     2  1.200000e+02  5.600000e+02  1.200000e+02  5.600000e+02
  415   414   416     2  1.200000e+02  5.600000e+02  1.200000e+02  5.600000e+02
  415   414   447     2  1.200000e+02  5.600000e+02  1.200000e+02  5.600000e+02
  416   414   447     2  1.200000e+02  5.600000e+02  1.200000e+02  5.600000e+02
  382   415   413     2  1.200000e+02  5.600000e+02  1.200000e+02  5.600000e+02
  382   415   414     2  1.200000e+02  5.600000e+02  1.200000e+02  5.600000e+02
  413   415   414     2  1.200000e+02  5.600000e+02  1.200000e+02  5.600000e+02
  414   416   417     2  1.200000e+02  5.600000e+02  1.200000e+02  5.600000e+02
  414   416   449     2  1.200000e+02  5.600000e+02  1.200000e+02  5.600000e+02
  417   416   449     2  1.200000e+02  5.600000e+02  1.200000e+02  5.600000e+02
  384   417   416     2  1.200000e+02  5.600000e+02  1.200000e+02  5.600000e+02
  384   417   419     2  1.200000e+02  5.600000e+02  1.200000e+02  5.600000e+02
  416   417   419     2  1.200000e+02  5.600000e+02  1.200000e+02  5.600000e+02
  419   418   420     2  1.200000e+02  5.600000e+02  1.200000e+02  5.600000e+02
  419   418   451     2  1.200000e+02  5.600000e+02  1.200000e+02  5.600000e+02
  420   418   451     2  1.200000e+02  5.600000e+02  1.200000e+02  5.600000e+02
  386   419   417     2  1.200000e+02  5.600000e+02  1.200000e+02  5.600000e+02
  386   419   418     2  1.200000e+02  5.600000e+02  1.200000e+02  5.600000e+02
  417   419   418     2  1.200000e+02  5.600000e+02  1.200000e+02  5.600000e+02
  418   420   421     2  1.200000e+02  5.600000e+02  1.200000e+02  5.600000e+02
  418   420   453     2  1.200000e+02  5.600000e+02  1.200000e+02  5.600000e+02
  421   420   453     2  1.200000e+02  5.600000e+02  1.200000e+02  5.600000e+02
  388   421   420     2  1.200000e+02  5.600000e+02  1.200000e+02  5.600000e+02
  388   421   423     2  1.200000e+02  5.600000e+02  1.200000e+02  5.600000e+02
  420   421   423     2  1.200000e+02  5.600000e+02  1.200000e+02  5.600000e+02
  423   422   424     2  1.200000e+02  5.600000e+02  1.200000e+02  5.600000e+02
  423   422   455     2  1.200000e+02  5.600000e+02  1.200000e+02  5.600000e+02
  424   422   455     2  1.200000e+02  5.600000e+02  1.200000e+02  5.600000e+02
  390   423   421     2  1.200000e+02  5.600000e+02  1.200000e+02  5.600000e+02
  390   423   422     2  1.200000e+02  5.600000e+02  1.200000e+02  5.600000e+02
  421   423   422     2  1.200000e+02  5.600000e+02  1.200000e+02  5.600000e+02
  422   424   425     2  1.200000e+02  5.600000e+02  1.200000e+02  5.600000e+02
  422   424   457     2  1.200000e+02  5.600000e+02  1.200000e+02  5.600000e+02
  425   424   457     2  1.200000e+02  5.600000e+02  1.200000e+02  5.600000e+02
  392   425   424     2  1.200000e+02  5.600000e+02  1.200000e+02  5.600000e+02
  392   425   427     2  1.200000e+02  5.600000e+02  1.200000e+02  5.600000e+02
  424   425   427     2  1.200000e+02  5.600000e+02  1.200000e+02  5.600000e+02
  427   426   428     2  1.200000e+02  5.600000e+02  1.200000e+02  5.600000e+02
  427   426   459     2  1.200000e+02  5.600000e+02  1.200000e+02  5.600000e+02
  428   426   459     2  1.200000e+02  5.600000e+02  1.200000e+02  5.600000e+02
  394   427   425     2  1.200000e+02  5.600000e+02  1.200000e+02  5.600000e+02
  394   427   426     2  1.200000e+02  5.600000e+02  1.200000e+02  5.600000e+02
  425   427   426     2  1.200000e+02  5.600000e+02  1.200000e+02  5.600000e+02
  426   428   429     2  1.200000e+02  5.600000e+02  1.200000e+02  5.600000e+02
  426   428   461     2  1.200000e+02  5.600000e+02  1.200000e+02  5.600000e+02
  429   428   461     2  1.200000e+02  5.600000e+02  1.200000e+02  5.600000e+02
  396   429   428     2  1.200000e+02  5.600000e+02  1.200000e+02  5.600000e+02
  396   429   431     2  1.200000e+02  5.600000e+02  1.200000e+02  5.600000e+02
  428   429   431     2  1.200000e+02  5.600000e+02  1.200000e+02  5.600000e+02
  431   430   432     2  1.210000e+02  5.600000e+02  1.210000e+02  5.600000e+02
  431   430   463     2  1.200000e+02  5.600000e+02  1.200000e+02  5.600000e+02
  432   430   463     2  1.200000e+02  5.600000e+02  1.200000e+02  5.600000e+02
  398   431   429     2  1.200000e+02  5.600000e+02  1.200000e+02  5.600000e+02
  398   431   430     2  1.200000e+02  5.600000e+02  1.200000e+02  5.600000e+02
  429   431   430     2  1.200000e+02  5.600000e+02  1.200000e+02  5.600000e+02
  430   432   433     2  1.180000e+02  5.600000e+02  1.180000e+02  5.600000e+02
  430   432   465     2  1.190000e+02  5.600000e+02  1.190000e+02  5.600000e+02
  433   432   465     2  1.230000e+02  6.400000e+02  1.230000e+02  6.400000e+02
  400   433   432     2  1.210000e+02  5.600000e+02  1.210000e+02  5.600000e+02
  400   433   803     2  1.160000e+02  5.050000e+02  1.160000e+02  5.050000e+02
  432   433   803     2  1.230000e+02  5.050000e+02  1.230000e+02  5.050000e+02
  435   434   436     2  1.210000e+02  5.600000e+02  1.210000e+02  5.600000e+02
  435   434   785     2  1.160000e+02  5.050000e+02  1.160000e+02  5.050000e+02
  436   434   785     2  1.220000e+02  5.050000e+02  1.220000e+02  5.050000e+02
  402   435   434     2  1.220000e+02  5.600000e+02  1.220000e+02  5.600000e+02
  402   435   786     2  1.230000e+02  5.050000e+02  1.230000e+02  5.050000e+02
  434   435   786     2  1.150000e+02  5.050000e+02  1.150000e+02  5.050000e+02
  434   436   437     2  1.180000e+02  5.600000e+02  1.180000e+02  5.600000e+02
  434   436   469     2  1.220000e+02  6.400000e+02  1.220000e+02  6.400000e+02
  437   436   469     2  1.200000e+02  5.600000e+02  1.200000e+02  5.600000e+02
  404   437   436     2  1.200000e+02  5.600000e+02  1.200000e+02  5.600000e+02
  404   437   439     2  1.200000e+02  5.600000e+02  1.200000e+02  5.600000e+02
  436   437   439     2  1.200000e+02  5.600000e+02  1.200000e+02  5.600000e+02
  439   438   440     2  1.200000e+02  5.600000e+02  1.200000e+02  5.600000e+02
  439   438   471     2  1.200000e+02  5.600000e+02  1.200000e+02  5.600000e+02
  440   438   471     2  1.200000e+02  5.600000e+02  1.200000e+02  5.600000e+02
  406   439   437     2  1.200000e+02  5.600000e+02  1.200000e+02  5.600000e+02
  406   439   438     2  1.200000e+02  5.600000e+02  1.200000e+02  5.600000e+02
  437   439   438     2  1.200000e+02  5.600000e+02  1.200000e+02  5.600000e+02
  438   440   441     2  1.200000e+02  5.600000e+02  1.200000e+02  5.600000e+02
  438   440   473     2  1.200000e+02  5.600000e+02  1.200000e+02  5.600000e+02
  441   440   473     2  1.200000e+02  5.600000e+02  1.200000e+02  5.600000e+02
  408   441   440     2  1.200000e+02  5.600000e+02  1.200000e+02  5.600000e+02
  408   441   443     2  1.200000e+02  5.600000e+02  1.200000e+02  5.600000e+02
  440   441   443     2  1.200000e+02  5.600000e+02  1.200000e+02  5.600000e+02
  443   442   444     2  1.200000e+02  5.600000e+02  1.200000e+02  5.600000e+02
  443   442   475     2  1.200000e+02  5.600000e+02  1.200000e+02  5.600000e+02
  444   442   475     2  1.200000e+02  5.600000e+02  1.200000e+02  5.600000e+02
  410   443   441     2  1.200000e+02  5.600000e+02  1.200000e+02  5.600000e+02
  410   443   442     2  1.200000e+02  5.600000e+02  1.200000e+02  5.600000e+02
  441   443   442     2  1.200000e+02  5.600000e+02  1.200000e+02  5.600000e+02
  442   444   445     2  1.200000e+02  5.600000e+02  1.200000e+02  5.600000e+02
  442   444   477     2  1.200000e+02  5.600000e+02  1.200000e+02  5.600000e+02
  445   444   477     2  1.200000e+02  5.600000e+02  1.200000e+02  5.600000e+02
  412   445   444     2  1.200000e+02  5.600000e+02  1.200000e+02  5.600000e+02
  412   445   447     2  1.200000e+02  5.600000e+02  1.200000e+02  5.600000e+02
  444   445   447     2  1.200000e+02  5.600000e+02  1.200000e+02  5.600000e+02
  447   446   448     2  1.200000e+02  5.600000e+02  1.200000e+02  5.600000e+02
  447   446   479     2  1.200000e+02  5.600000e+02  1.200000e+02  5.600000e+02
  448   446   479     2  1.200000e+02  5.600000e+02  1.200000e+02  5.600000e+02
  414   447   445     2  1.200000e+02  5.600000e+02  1.200000e+02  5.600000e+02
  414   447   446     2  1.200000e+02  5.600000e+02  1.200000e+02  5.600000e+02
  445   447   446     2  1.200000e+02  5.600000e+02  1.200000e+02  5.600000e+02
  446   448   449     2  1.200000e+02  5.600000e+02  1.200000e+02  5.600000e+02
  446   448   481     2  1.200000e+02  5.600000e+02  1.200000e+02  5.600000e+02
  449   448   481     2  1.200000e+02  5.600000e+02  1.200000e+02  5.600000e+02
  416   449   448     2  1.200000e+02  5.600000e+02  1.200000e+02  5.600000e+02
  416   449   451     2  1.200000e+02  5.600000e+02  1.200000e+02  5.600000e+02
  448   449   451     2  1.200000e+02  5.600000e+02  1.200000e+02  5.600000e+02
  451   450   452     2  1.200000e+02  5.600000e+02  1.200000e+02  5.600000e+02
  451   450   483     2  1.200000e+02  5.600000e+02  1.200000e+02  5.600000e+02
  452   450   483     2  1.200000e+02  5.600000e+02  1.200000e+02  5.600000e+02
  418   451   449     2  1.200000e+02  5.600000e+02  1.200000e+02  5.600000e+02
  418   451   450     2  1.200000e+02  5.600000e+02  1.200000e+02  5.600000e+02
  449   451   450     2  1.200000e+02  5.600000e+02  1.200000e+02  5.600000e+02
  450   452   453     2  1.200000e+02  5.600000e+02  1.200000e+02  5.600000e+02
  450   452   485     2  1.200000e+02  5.600000e+02  1.200000e+02  5.600000e+02
  453   452   485     2  1.200000e+02  5.600000e+02  1.200000e+02  5.600000e+02
  420   453   452     2  1.200000e+02  5.600000e+02  1.200000e+02  5.600000e+02
  420   453   455     2  1.200000e+02  5.600000e+02  1.200000e+02  5.600000e+02
  452   453   455     2  1.200000e+02  5.600000e+02  1.200000e+02  5.600000e+02
  455   454   456     2  1.200000e+02  5.600000e+02  1.200000e+02  5.600000e+02
  455   454   487     2  1.200000e+02  5.600000e+02  1.200000e+02  5.600000e+02
  456   454   487     2  1.200000e+02  5.600000e+02  1.200000e+02  5.600000e+02
  422   455   453     2  1.200000e+02  5.600000e+02  1.200000e+02  5.600000e+02
  422   455   454     2  1.200000e+02  5.600000e+02  1.200000e+02  5.600000e+02
  453   455   454     2  1.200000e+02  5.600000e+02  1.200000e+02  5.600000e+02
  454   456   457     2  1.200000e+02  5.600000e+02  1.200000e+02  5.600000e+02
  454   456   489     2  1.200000e+02  5.600000e+02  1.200000e+02  5.600000e+02
  457   456   489     2  1.200000e+02  5.600000e+02  1.200000e+02  5.600000e+02
  424   457   456     2  1.200000e+02  5.600000e+02  1.200000e+02  5.600000e+02
  424   457   459     2  1.200000e+02  5.600000e+02  1.200000e+02  5.600000e+02
  456   457   459     2  1.200000e+02  5.600000e+02  1.200000e+02  5.600000e+02
  459   458   460     2  1.200000e+02  5.600000e+02  1.200000e+02  5.600000e+02
  459   458   491     2  1.200000e+02  5.600000e+02  1.200000e+02  5.600000e+02
  460   458   491     2  1.200000e+02  5.600000e+02  1.200000e+02  5.600000e+02
  426   459   457     2  1.200000e+02  5.600000e+02  1.200000e+02  5.600000e+02
  426   459   458     2  1.200000e+02  5.600000e+02  1.200000e+02  5.600000e+02
  457   459   458     2  1.200000e+02  5.600000e+02  1.200000e+02  5.600000e+02
  458   460   461     2  1.200000e+02  5.600000e+02  1.200000e+02  5.600000e+02
  458   460   493     2  1.200000e+02  5.600000e+02  1.200000e+02  5.600000e+02
  461   460   493     2  1.200000e+02  5.600000e+02  1.200000e+02  5.600000e+02
  428   461   460     2  1.200000e+02  5.600000e+02  1.200000e+02  5.600000e+02
  428   461   463     2  1.200000e+02  5.600000e+02  1.200000e+02  5.600000e+02
  460   461   463     2  1.200000e+02  5.600000e+02  1.200000e+02  5.600000e+02
  463   462   464     2  1.200000e+02  5.600000e+02  1.200000e+02  5.600000e+02
  463   462   495     2  1.200000e+02  5.600000e+02  1.200000e+02  5.600000e+02
  464   462   495     2  1.200000e+02  5.600000e+02  1.200000e+02  5.600000e+02
  430   463   461     2  1.200000e+02  5.600000e+02  1.200000e+02  5.600000e+02
  430   463   462     2  1.200000e+02  5.600000e+02  1.200000e+02  5.600000e+02
  461   463   462     2  1.200000e+02  5.600000e+02  1.200000e+02  5.600000e+02
  462   464   465     2  1.200000e+02  5.600000e+02  1.200000e+02  5.600000e+02
  462   464   497     2  1.200000e+02  5.600000e+02  1.200000e+02  5.600000e+02
  465   464   497     2  1.200000e+02  5.600000e+02  1.200000e+02  5.600000e+02
  432   465   464     2  1.190000e+02  5.600000e+02  1.190000e+02  5.600000e+02
  432   465   467     2  1.230000e+02  6.400000e+02  1.230000e+02  6.400000e+02
  464   465   467     2  1.170000e+02  5.600000e+02  1.170000e+02  5.600000e+02
  467   466   499     2  1.200000e+02  5.600000e+02  1.200000e+02  5.600000e+02
  467   466   769     2  1.190000e+02  5.600000e+02  1.190000e+02  5.600000e+02
  499   466   769     2  1.210000e+02  6.350000e+02  1.210000e+02  6.350000e+02
  465   467   466     2  1.210000e+02  5.600000e+02  1.210000e+02  5.600000e+02
  465   467   802     2  1.210000e+02  5.050000e+02  1.210000e+02  5.050000e+02
  466   467   802     2  1.170000e+02  5.050000e+02  1.170000e+02  5.050000e+02
  469   468   501     2  1.210000e+02  5.600000e+02  1.210000e+02  5.600000e+02
  469   468   784     2  1.210000e+02  5.050000e+02  1.210000e+02  5.050000e+02
  501   468   784     2  1.180000e+02  5.050000e+02  1.180000e+02  5.050000e+02
  436   469   468     2  1.230000e+02  6.400000e+02  1.230000e+02  6.400000e+02
  436   469   471     2  1.190000e+02  5.600000e+02  1.190000e+02  5.600000e+02
  468   469   471     2  1.180000e+02  5.600000e+02  1.180000e+02  5.600000e+02
  471   470   472     2  1.200000e+02  5.600000e+02  1.200000e+02  5.600000e+02
  471   470   503     2  1.200000e+02  5.600000e+02  1.200000e+02  5.600000e+02
  472   470   503     2  1.200000e+02  5.600000e+02  1.200000e+02  5.600000e+02
  438   471   469     2  1.200000e+02  5.600000e+02  1.200000e+02  5.600000e+02
  438   471   470     2  1.200000e+02  5.600000e+02  1.200000e+02  5.600000e+02
  469   471   470     2  1.200000e+02  5.600000e+02  1.200000e+02  5.600000e+02
  470   472   473     2  1.200000e+02  5.600000e+02  1.200000e+02  5.600000e+02
  470   472   505     2  1.200000e+02  5.600000e+02  1.200000e+02  5.600000e+02
  473   472   505     2  1.200000e+02  5.600000e+02  1.200000e+02  5.600000e+02
  440   473   472     2  1.200000e+02  5.600000e+02  1.200000e+02  5.600000e+02
  440   473   475     2  1.200000e+02  5.600000e+02  1.200000e+02  5.600000e+02
  472   473   475     2  1.200000e+02  5.600000e+02  1.200000e+02  5.600000e+02
  475   474   476     2  1.200000e+02  5.600000e+02  1.200000e+02  5.600000e+02
  475   474   507     2  1.200000e+02  5.600000e+02  1.200000e+02  5.600000e+02
  476   474   507     2  1.200000e+02  5.600000e+02  1.200000e+02  5.600000e+02
  442   475   473     2  1.200000e+02  5.600000e+02  1.200000e+02  5.600000e+02
  442   475   474     2  1.200000e+02  5.600000e+02  1.200000e+02  5.600000e+02
  473   475   474     2  1.200000e+02  5.600000e+02  1.200000e+02  5.600000e+02
  474   476   477     2  1.200000e+02  5.600000e+02  1.200000e+02  5.600000e+02
  474   476   509     2  1.200000e+02  5.600000e+02  1.200000e+02  5.600000e+02
  477   476   509     2  1.200000e+02  5.600000e+02  1.200000e+02  5.600000e+02
  444   477   476     2  1.200000e+02  5.600000e+02  1.200000e+02  5.600000e+02
  444   477   479     2  1.200000e+02  5.600000e+02  1.200000e+02  5.600000e+02
  476   477   479     2  1.200000e+02  5.600000e+02  1.200000e+02  5.600000e+02
  479   478   480     2  1.200000e+02  5.600000e+02  1.200000e+02  5.600000e+02
  479   478   511     2  1.200000e+02  5.600000e+02  1.200000e+02  5.600000e+02
  480   478   511     2  1.200000e+02  5.600000e+02  1.200000e+02  5.600000e+02
  446   479   477     2  1.200000e+02  5.600000e+02  1.200000e+02  5.600000e+02
  446   479   478     2  1.200000e+02  5.600000e+02  1.200000e+02  5.600000e+02
  477   479   478     2  1.200000e+02  5.600000e+02  1.200000e+02  5.600000e+02
  478   480   481     2  1.200000e+02  5.600000e+02  1.200000e+02  5.600000e+02
  478   480   513     2  1.200000e+02  5.600000e+02  1.200000e+02  5.600000e+02
  481   480   513     2  1.200000e+02  5.600000e+02  1.200000e+02  5.600000e+02
  448   481   480     2  1.200000e+02  5.600000e+02  1.200000e+02  5.600000e+02
  448   481   483     2  1.200000e+02  5.600000e+02  1.200000e+02  5.600000e+02
  480   481   483     2  1.200000e+02  5.600000e+02  1.200000e+02  5.600000e+02
  483   482   484     2  1.200000e+02  5.600000e+02  1.200000e+02  5.600000e+02
  483   482   515     2  1.200000e+02  5.600000e+02  1.200000e+02  5.600000e+02
  484   482   515     2  1.200000e+02  5.600000e+02  1.200000e+02  5.600000e+02
  450   483   481     2  1.200000e+02  5.600000e+02  1.200000e+02  5.600000e+02
  450   483   482     2  1.200000e+02  5.600000e+02  1.200000e+02  5.600000e+02
  481   483   482     2  1.200000e+02  5.600000e+02  1.200000e+02  5.600000e+02
  482   484   485     2  1.200000e+02  5.600000e+02  1.200000e+02  5.600000e+02
  482   484   517     2  1.200000e+02  5.600000e+02  1.200000e+02  5.600000e+02
  485   484   517     2  1.200000e+02  5.600000e+02  1.200000e+02  5.600000e+02
  452   485   484     2  1.200000e+02  5.600000e+02  1.200000e+02  5.600000e+02
  452   485   487     2  1.200000e+02  5.600000e+02  1.200000e+02  5.600000e+02
  484   485   487     2  1.200000e+02  5.600000e+02  1.200000e+02  5.600000e+02
  487   486   488     2  1.200000e+02  5.600000e+02  1.200000e+02  5.600000e+02
  487   486   519     2  1.200000e+02  5.600000e+02  1.200000e+02  5.600000e+02
  488   486   519     2  1.200000e+02  5.600000e+02  1.200000e+02  5.600000e+02
  454   487   485     2  1.200000e+02  5.600000e+02  1.200000e+02  5.600000e+02
  454   487   486     2  1.200000e+02  5.600000e+02  1.200000e+02  5.600000e+02
  485   487   486     2  1.200000e+02  5.600000e+02  1.200000e+02  5.600000e+02
  486   488   489     2  1.200000e+02  5.600000e+02  1.200000e+02  5.600000e+02
  486   488   521     2  1.200000e+02  5.600000e+02  1.200000e+02  5.600000e+02
  489   488   521     2  1.200000e+02  5.600000e+02  1.200000e+02  5.600000e+02
  456   489   488     2  1.200000e+02  5.600000e+02  1.200000e+02  5.600000e+02
  456   489   491     2  1.200000e+02  5.600000e+02  1.200000e+02  5.600000e+02
  488   489   491     2  1.200000e+02  5.600000e+02  1.200000e+02  5.600000e+02
  491   490   492     2  1.200000e+02  5.600000e+02  1.200000e+02  5.600000e+02
  491   490   523     2  1.200000e+02  5.600000e+02  1.200000e+02  5.600000e+02
  492   490   523     2  1.200000e+02  5.600000e+02  1.200000e+02  5.600000e+02
  458   491   489     2  1.200000e+02  5.600000e+02  1.200000e+02  5.600000e+02
  458   491   490     2  1.200000e+02  5.600000e+02  1.200000e+02  5.600000e+02
  489   491   490     2  1.200000e+02  5.600000e+02  1.200000e+02  5.600000e+02
  490   492   493     2  1.200000e+02  5.600000e+02  1.200000e+02  5.600000e+02
  490   492   525     2  1.200000e+02  5.600000e+02  1.200000e+02  5.600000e+02
  493   492   525     2  1.200000e+02  5.600000e+02  1.200000e+02  5.600000e+02
  460   493   492     2  1.200000e+02  5.600000e+02  1.200000e+02  5.600000e+02
  460   493   495     2  1.200000e+02  5.600000e+02  1.200000e+02  5.600000e+02
  492   493   495     2  1.200000e+02  5.600000e+02  1.200000e+02  5.600000e+02
  495   494   496     2  1.200000e+02  5.600000e+02  1.200000e+02  5.600000e+02
  495   494   527     2  1.200000e+02  5.600000e+02  1.200000e+02  5.600000e+02
  496   494   527     2  1.200000e+02  5.600000e+02  1.200000e+02  5.600000e+02
  462   495   493     2  1.200000e+02  5.600000e+02  1.200000e+02  5.600000e+02
  462   495   494     2  1.200000e+02  5.600000e+02  1.200000e+02  5.600000e+02
  493   495   494     2  1.200000e+02  5.600000e+02  1.200000e+02  5.600000e+02
  494   496   497     2  1.200000e+02  5.600000e+02  1.200000e+02  5.600000e+02
  494   496   529     2  1.200000e+02  5.600000e+02  1.200000e+02  5.600000e+02
  497   496   529     2  1.200000e+02  5.600000e+02  1.200000e+02  5.600000e+02
  464   497   496     2  1.200000e+02  5.600000e+02  1.200000e+02  5.600000e+02
  464   497   499     2  1.200000e+02  5.600000e+02  1.200000e+02  5.600000e+02
  496   497   499     2  1.200000e+02  5.600000e+02  1.200000e+02  5.600000e+02
  499   498   500     2  1.220000e+02  6.400000e+02  1.220000e+02  6.400000e+02
  499   498   531     2  1.200000e+02  5.600000e+02  1.200000e+02  5.600000e+02
  500   498   531     2  1.180000e+02  5.600000e+02  1.180000e+02  5.600000e+02
  466   499   497     2  1.170000e+02  5.600000e+02  1.170000e+02  5.600000e+02
  466   499   498     2  1.240000e+02  6.400000e+02  1.240000e+02  6.400000e+02
  497   499   498     2  1.190000e+02  5.600000e+02  1.190000e+02  5.600000e+02
  498   500   533     2  1.220000e+02  5.600000e+02  1.220000e+02  5.600000e+02
  498   500   824     2  1.230000e+02  5.050000e+02  1.230000e+02  5.050000e+02
  533   500   824     2  1.150000e+02  5.050000e+02  1.150000e+02  5.050000e+02
  468   501   503     2  1.200000e+02  5.600000e+02  1.200000e+02  5.600000e+02
  468   501   751     2  1.190000e+02  5.600000e+02  1.190000e+02  5.600000e+02
  503   501   751     2  1.210000e+02  6.350000e+02  1.210000e+02  6.350000e+02
  503   502   504     2  1.200000e+02  5.600000e+02  1.200000e+02  5.600000e+02
  503   502   535     2  1.220000e+02  6.400000e+02  1.220000e+02  6.400000e+02
  504   502   535     2  1.180000e+02  5.600000e+02  1.180000e+02  5.600000e+02
  470   503   501     2  1.170000e+02  5.600000e+02  1.170000e+02  5.600000e+02
  470   503   502     2  1.190000e+02  5.600000e+02  1.190000e+02  5.600000e+02
  501   503   502     2  1.240000e+02  6.400000e+02  1.240000e+02  6.400000e+02
  502   504   505     2  1.200000e+02  5.600000e+02  1.200000e+02  5.600000e+02
  502   504   537     2  1.200000e+02  5.600000e+02  1.200000e+02  5.600000e+02
  505   504   537     2  1.190000e+02  5.600000e+02  1.190000e+02  5.600000e+02
  472   505   504     2  1.200000e+02  5.600000e+02  1.200000e+02  5.600000e+02
  472   505   507     2  1.200000e+02  5.600000e+02  1.200000e+02  5.600000e+02
  504   505   507     2  1.200000e+02  5.600000e+02  1.200000e+02  5.600000e+02
  507   506   508     2  1.200000e+02  5.600000e+02  1.200000e+02  5.600000e+02
  507   506   539     2  1.200000e+02  5.600000e+02  1.200000e+02  5.600000e+02
  508   506   539     2  1.200000e+02  5.600000e+02  1.200000e+02  5.600000e+02
  474   507   505     2  1.200000e+02  5.600000e+02  1.200000e+02  5.600000e+02
  474   507   506     2  1.200000e+02  5.600000e+02  1.200000e+02  5.600000e+02
  505   507   506     2  1.200000e+02  5.600000e+02  1.200000e+02  5.600000e+02
  506   508   509     2  1.200000e+02  5.600000e+02  1.200000e+02  5.600000e+02
  506   508   541     2  1.200000e+02  5.600000e+02  1.200000e+02  5.600000e+02
  509   508   541     2  1.200000e+02  5.600000e+02  1.200000e+02  5.600000e+02
  476   509   508     2  1.200000e+02  5.600000e+02  1.200000e+02  5.600000e+02
  476   509   511     2  1.200000e+02  5.600000e+02  1.200000e+02  5.600000e+02
  508   509   511     2  1.200000e+02  5.600000e+02  1.200000e+02  5.600000e+02
  511   510   512     2  1.200000e+02  5.600000e+02  1.200000e+02  5.600000e+02
  511   510   543     2  1.200000e+02  5.600000e+02  1.200000e+02  5.600000e+02
  512   510   543     2  1.200000e+02  5.600000e+02  1.200000e+02  5.600000e+02
  478   511   509     2  1.200000e+02  5.600000e+02  1.200000e+02  5.600000e+02
  478   511   510     2  1.200000e+02  5.600000e+02  1.200000e+02  5.600000e+02
  509   511   510     2  1.200000e+02  5.600000e+02  1.200000e+02  5.600000e+02
  510   512   513     2  1.200000e+02  5.600000e+02  1.200000e+02  5.600000e+02
  510   512   545     2  1.200000e+02  5.600000e+02  1.200000e+02  5.600000e+02
  513   512   545     2  1.200000e+02  5.600000e+02  1.200000e+02  5.600000e+02
  480   513   512     2  1.200000e+02  5.600000e+02  1.200000e+02  5.600000e+02
  480   513   515     2  1.200000e+02  5.600000e+02  1.200000e+02  5.600000e+02
  512   513   515     2  1.200000e+02  5.600000e+02  1.200000e+02  5.600000e+02
  515   514   516     2  1.200000e+02  5.600000e+02  1.200000e+02  5.600000e+02
  515   514   547     2  1.200000e+02  5.600000e+02  1.200000e+02  5.600000e+02
  516   514   547     2  1.200000e+02  5.600000e+02  1.200000e+02  5.600000e+02
  482   515   513     2  1.200000e+02  5.600000e+02  1.200000e+02  5.600000e+02
  482   515   514     2  1.200000e+02  5.600000e+02  1.200000e+02  5.600000e+02
  513   515   514     2  1.200000e+02  5.600000e+02  1.200000e+02  5.600000e+02
  514   516   517     2  1.200000e+02  5.600000e+02  1.200000e+02  5.600000e+02
  514   516   549     2  1.200000e+02  5.600000e+02  1.200000e+02  5.600000e+02
  517   516   549     2  1.200000e+02  5.600000e+02  1.200000e+02  5.600000e+02
  484   517   516     2  1.200000e+02  5.600000e+02  1.200000e+02  5.600000e+02
  484   517   519     2  1.200000e+02  5.600000e+02  1.200000e+02  5.600000e+02
  516   517   519     2  1.200000e+02  5.600000e+02  1.200000e+02  5.600000e+02
  519   518   520     2  1.200000e+02  5.600000e+02  1.200000e+02  5.600000e+02
  519   518   551     2  1.200000e+02  5.600000e+02  1.200000e+02  5.600000e+02
  520   518   551     2  1.200000e+02  5.600000e+02  1.200000e+02  5.600000e+02
  486   519   517     2  1.200000e+02  5.600000e+02  1.200000e+02  5.600000e+02
  486   519   518     2  1.200000e+02  5.600000e+02  1.200000e+02  5.600000e+02
  517   519   518     2  1.200000e+02  5.600000e+02  1.200000e+02  5.600000e+02
  518   520   521     2  1.200000e+02  5.600000e+02  1.200000e+02  5.600000e+02
  518   520   553     2  1.200000e+02  5.600000e+02  1.200000e+02  5.600000e+02
  521   520   553     2  1.200000e+02  5.600000e+02  1.200000e+02  5.600000e+02
  488   521   520     2  1.200000e+02  5.600000e+02  1.200000e+02  5.600000e+02
  488   521   523     2  1.200000e+02  5.600000e+02  1.200000e+02  5.600000e+02
  520   521   523     2  1.200000e+02  5.600000e+02  1.200000e+02  5.600000e+02
  523   522   524     2  1.200000e+02  5.600000e+02  1.200000e+02  5.600000e+02
  523   522   555     2  1.200000e+02  5.600000e+02  1.200000e+02  5.600000e+02
  524   522   555     2  1.200000e+02  5.600000e+02  1.200000e+02  5.600000e+02
  490   523   521     2  1.200000e+02  5.600000e+02  1.200000e+02  5.600000e+02
  490   523   522     2  1.200000e+02  5.600000e+02  1.200000e+02  5.600000e+02
  521   523   522     2  1.200000e+02  5.600000e+02  1.200000e+02  5.600000e+02
  522   524   525     2  1.200000e+02  5.600000e+02  1.200000e+02  5.600000e+02
  522   524   557     2  1.200000e+02  5.600000e+02  1.200000e+02  5.600000e+02
  525   524   557     2  1.200000e+02  5.600000e+02  1.200000e+02  5.600000e+02
  492   525   524     2  1.200000e+02  5.600000e+02  1.200000e+02  5.600000e+02
  492   525   527     2  1.200000e+02  5.600000e+02  1.200000e+02  5.600000e+02
  524   525   527     2  1.200000e+02  5.600000e+02  1.200000e+02  5.600000e+02
  527   526   528     2  1.200000e+02  5.600000e+02  1.200000e+02  5.600000e+02
  527   526   559     2  1.200000e+02  5.600000e+02  1.200000e+02  5.600000e+02
  528   526   559     2  1.200000e+02  5.600000e+02  1.200000e+02  5.600000e+02
  494   527   525     2  1.200000e+02  5.600000e+02  1.200000e+02  5.600000e+02
  494   527   526     2  1.200000e+02  5.600000e+02  1.200000e+02  5.600000e+02
  525   527   526     2  1.200000e+02  5.600000e+02  1.200000e+02  5.600000e+02
  526   528   529     2  1.200000e+02  5.600000e+02  1.200000e+02  5.600000e+02
  526   528   561     2  1.200000e+02  5.600000e+02  1.200000e+02  5.600000e+02
  529   528   561     2  1.200000e+02  5.600000e+02  1.200000e+02  5.600000e+02
  496   529   528     2  1.200000e+02  5.600000e+02  1.200000e+02  5.600000e+02
  496   529   531     2  1.200000e+02  5.600000e+02  1.200000e+02  5.600000e+02
  528   529   531     2  1.200000e+02  5.600000e+02  1.200000e+02  5.600000e+02
  531   530   532     2  1.200000e+02  5.600000e+02  1.200000e+02  5.600000e+02
  531   530   563     2  1.200000e+02  5.600000e+02  1.200000e+02  5.600000e+02
  532   530   563     2  1.200000e+02  5.600000e+02  1.200000e+02  5.600000e+02
  498   531   529     2  1.200000e+02  5.600000e+02  1.200000e+02  5.600000e+02
  498   531   530     2  1.210000e+02  5.600000e+02  1.210000e+02  5.600000e+02
  529   531   530     2  1.190000e+02  5.600000e+02  1.190000e+02  5.600000e+02
  530   532   533     2  1.180000e+02  5.600000e+02  1.180000e+02  5.600000e+02
  530   532   565     2  1.200000e+02  5.600000e+02  1.200000e+02  5.600000e+02
  533   532   565     2  1.220000e+02  6.400000e+02  1.220000e+02  6.400000e+02
  500   533   532     2  1.210000e+02  5.600000e+02  1.210000e+02  5.600000e+02
  500   533   823     2  1.160000e+02  5.050000e+02  1.160000e+02  5.050000e+02
  532   533   823     2  1.220000e+02  5.050000e+02  1.220000e+02  5.050000e+02
  535   534   536     2  1.210000e+02  5.600000e+02  1.210000e+02  5.600000e+02
  535   534   780     2  1.160000e+02  5.050000e+02  1.160000e+02  5.050000e+02
  536   534   780     2  1.220000e+02  5.050000e+02  1.220000e+02  5.050000e+02
  502   535   534     2  1.220000e+02  5.600000e+02  1.220000e+02  5.600000e+02
  502   535   779     2  1.230000e+02  5.050000e+02  1.230000e+02  5.050000e+02
  534   535   779     2  1.150000e+02  5.050000e+02  1.150000e+02  5.050000e+02
  534   536   537     2  1.180000e+02  5.600000e+02  1.180000e+02  5.600000e+02
  534   536   569     2  1.220000e+02  6.400000e+02  1.220000e+02  6.400000e+02
  537   536   569     2  1.200000e+02  5.600000e+02  1.200000e+02  5.600000e+02
  504   537   536     2  1.200000e+02  5.600000e+02  1.200000e+02  5.600000e+02
  504   537   539     2  1.200000e+02  5.600000e+02  1.200000e+02  5.600000e+02
  536   537   539     2  1.200000e+02  5.600000e+02  1.200000e+02  5.600000e+02
  539   538   540     2  1.200000e+02  5.600000e+02  1.200000e+02  5.600000e+02
  539   538   571     2  1.200000e+02  5.600000e+02  1.200000e+02  5.600000e+02
  540   538   571     2  1.200000e+02  5.600000e+02  1.200000e+02  5.600000e+02
  506   539   537     2  1.200000e+02  5.600000e+02  1.200000e+02  5.600000e+02
  506   539   538     2  1.200000e+02  5.600000e+02  1.200000e+02  5.600000e+02
  537   539   538     2  1.200000e+02  5.600000e+02  1.200000e+02  5.600000e+02
  538   540   541     2  1.200000e+02  5.600000e+02  1.200000e+02  5.600000e+02
  538   540   573     2  1.200000e+02  5.600000e+02  1.200000e+02  5.600000e+02
  541   540   573     2  1.200000e+02  5.600000e+02  1.200000e+02  5.600000e+02
  508   541   540     2  1.200000e+02  5.600000e+02  1.200000e+02  5.600000e+02
  508   541   543     2  1.200000e+02  5.600000e+02  1.200000e+02  5.600000e+02
  540   541   543     2  1.200000e+02  5.600000e+02  1.200000e+02  5.600000e+02
  543   542   544     2  1.200000e+02  5.600000e+02  1.200000e+02  5.600000e+02
  543   542   575     2  1.200000e+02  5.600000e+02  1.200000e+02  5.600000e+02
  544   542   575     2  1.200000e+02  5.600000e+02  1.200000e+02  5.600000e+02
  510   543   541     2  1.200000e+02  5.600000e+02  1.200000e+02  5.600000e+02
  510   543   542     2  1.200000e+02  5.600000e+02  1.200000e+02  5.600000e+02
  541   543   542     2  1.200000e+02  5.600000e+02  1.200000e+02  5.600000e+02
  542   544   545     2  1.200000e+02  5.600000e+02  1.200000e+02  5.600000e+02
  542   544   577     2  1.200000e+02  5.600000e+02  1.200000e+02  5.600000e+02
  545   544   577     2  1.200000e+02  5.600000e+02  1.200000e+02  5.600000e+02
  512   545   544     2  1.200000e+02  5.600000e+02  1.200000e+02  5.600000e+02
  512   545   547     2  1.200000e+02  5.600000e+02  1.200000e+02  5.600000e+02
  544   545   547     2  1.200000e+02  5.600000e+02  1.200000e+02  5.600000e+02
  547   546   548     2  1.200000e+02  5.600000e+02  1.200000e+02  5.600000e+02
  547   546   579     2  1.200000e+02  5.600000e+02  1.200000e+02  5.600000e+02
  548   546   579     2  1.200000e+02  5.600000e+02  1.200000e+02  5.600000e+02
  514   547   545     2  1.200000e+02  5.600000e+02  1.200000e+02  5.600000e+02
  514   547   546     2  1.200000e+02  5.600000e+02  1.200000e+02  5.600000e+02
  545   547   546     2  1.200000e+02  5.600000e+02  1.200000e+02  5.600000e+02
  546   548   549     2  1.200000e+02  5.600000e+02  1.200000e+02  5.600000e+02
  546   548   581     2  1.200000e+02  5.600000e+02  1.200000e+02  5.600000e+02
  549   548   581     2  1.200000e+02  5.600000e+02  1.200000e+02  5.600000e+02
  516   549   548     2  1.200000e+02  5.600000e+02  1.200000e+02  5.600000e+02
  516   549   551     2  1.200000e+02  5.600000e+02  1.200000e+02  5.600000e+02
  548   549   551     2  1.200000e+02  5.600000e+02  1.200000e+02  5.600000e+02
  551   550   552     2  1.200000e+02  5.600000e+02  1.200000e+02  5.600000e+02
  551   550   583     2  1.200000e+02  5.600000e+02  1.200000e+02  5.600000e+02
  552   550   583     2  1.200000e+02  5.600000e+02  1.200000e+02  5.600000e+02
  518   551   549     2  1.200000e+02  5.600000e+02  1.200000e+02  5.600000e+02
  518   551   550     2  1.200000e+02  5.600000e+02  1.200000e+02  5.600000e+02
  549   551   550     2  1.200000e+02  5.600000e+02  1.200000e+02  5.600000e+02
  550   552   553     2  1.200000e+02  5.600000e+02  1.200000e+02  5.600000e+02
  550   552   585     2  1.200000e+02  5.600000e+02  1.200000e+02  5.600000e+02
  553   552   585     2  1.200000e+02  5.600000e+02  1.200000e+02  5.600000e+02
  520   553   552     2  1.200000e+02  5.600000e+02  1.200000e+02  5.600000e+02
  520   553   555     2  1.200000e+02  5.600000e+02  1.200000e+02  5.600000e+02
  552   553   555     2  1.200000e+02  5.600000e+02  1.200000e+02  5.600000e+02
  555   554   556     2  1.200000e+02  5.600000e+02  1.200000e+02  5.600000e+02
  555   554   587     2  1.200000e+02  5.600000e+02  1.200000e+02  5.600000e+02
  556   554   587     2  1.200000e+02  5.600000e+02  1.200000e+02  5.600000e+02
  522   555   553     2  1.200000e+02  5.600000e+02  1.200000e+02  5.600000e+02
  522   555   554     2  1.200000e+02  5.600000e+02  1.200000e+02  5.600000e+02
  553   555   554     2  1.200000e+02  5.600000e+02  1.200000e+02  5.600000e+02
  554   556   557     2  1.200000e+02  5.600000e+02  1.200000e+02  5.600000e+02
  554   556   589     2  1.200000e+02  5.600000e+02  1.200000e+02  5.600000e+02
  557   556   589     2  1.200000e+02  5.600000e+02  1.200000e+02  5.600000e+02
  524   557   556     2  1.200000e+02  5.600000e+02  1.200000e+02  5.600000e+02
  524   557   559     2  1.200000e+02  5.600000e+02  1.200000e+02  5.600000e+02
  556   557   559     2  1.200000e+02  5.600000e+02  1.200000e+02  5.600000e+02
  559   558   560     2  1.200000e+02  5.600000e+02  1.200000e+02  5.600000e+02
  559   558   591     2  1.200000e+02  5.600000e+02  1.200000e+02  5.600000e+02
  560   558   591     2  1.200000e+02  5.600000e+02  1.200000e+02  5.600000e+02
  526   559   557     2  1.200000e+02  5.600000e+02  1.200000e+02  5.600000e+02
  526   559   558     2  1.200000e+02  5.600000e+02  1.200000e+02  5.600000e+02
  557   559   558     2  1.200000e+02  5.600000e+02  1.200000e+02  5.600000e+02
  558   560   561     2  1.200000e+02  5.600000e+02  1.200000e+02  5.600000e+02
  558   560   593     2  1.200000e+02  5.600000e+02  1.200000e+02  5.600000e+02
  561   560   593     2  1.200000e+02  5.600000e+02  1.200000e+02  5.600000e+02
  528   561   560     2  1.200000e+02  5.600000e+02  1.200000e+02  5.600000e+02
  528   561   563     2  1.200000e+02  5.600000e+02  1.200000e+02  5.600000e+02
  560   561   563     2  1.200000e+02  5.600000e+02  1.200000e+02  5.600000e+02
  563   562   564     2  1.200000e+02  5.600000e+02  1.200000e+02  5.600000e+02
  563   562   595     2  1.200000e+02  5.600000e+02  1.200000e+02  5.600000e+02
  564   562   595     2  1.200000e+02  5.600000e+02  1.200000e+02  5.600000e+02
  530   563   561     2  1.200000e+02  5.600000e+02  1.200000e+02  5.600000e+02
  530   563   562     2  1.200000e+02  5.600000e+02  1.200000e+02  5.600000e+02
  561   563   562     2  1.200000e+02  5.600000e+02  1.200000e+02  5.600000e+02
  562   564   565     2  1.200000e+02  5.600000e+02  1.200000e+02  5.600000e+02
  562   564   597     2  1.200000e+02  5.600000e+02  1.200000e+02  5.600000e+02
  565   564   597     2  1.200000e+02  5.600000e+02  1.200000e+02  5.600000e+02
  532   565   564     2  1.190000e+02  5.600000e+02  1.190000e+02  5.600000e+02
  532   565   567     2  1.230000e+02  6.400000e+02  1.230000e+02  6.400000e+02
  564   565   567     2  1.180000e+02  5.600000e+02  1.180000e+02  5.600000e+02
  567   566   599     2  1.200000e+02  5.600000e+02  1.200000e+02  5.600000e+02
  567   566   777     2  1.190000e+02  5.600000e+02  1.190000e+02  5.600000e+02
  599   566   777     2  1.210000e+02  6.350000e+02  1.210000e+02  6.350000e+02
  565   567   566     2  1.210000e+02  5.600000e+02  1.210000e+02  5.600000e+02
  565   567   822     2  1.210000e+02  5.050000e+02  1.210000e+02  5.050000e+02
  566   567   822     2  1.180000e+02  5.050000e+02  1.180000e+02  5.050000e+02
  569   568   601     2  1.210000e+02  5.600000e+02  1.210000e+02  5.600000e+02
  569   568   781     2  1.210000e+02  5.050000e+02  1.210000e+02  5.050000e+02
  601   568   781     2  1.180000e+02  5.050000e+02  1.180000e+02  5.050000e+02
  536   569   568     2  1.230000e+02  6.400000e+02  1.230000e+02  6.400000e+02
  536   569   571     2  1.190000e+02  5.600000e+02  1.190000e+02  5.600000e+02
  568   569   571     2  1.180000e+02  5.600000e+02  1.180000e+02  5.600000e+02
  571   570   572     2  1.200000e+02  5.600000e+02  1.200000e+02  5.600000e+02
  571   570   603     2  1.200000e+02  5.600000e+02  1.200000e+02  5.600000e+02
  572   570   603     2  1.200000e+02  5.600000e+02  1.200000e+02  5.600000e+02
  538   571   569     2  1.200000e+02  5.600000e+02  1.200000e+02  5.600000e+02
  538   571   570     2  1.200000e+02  5.600000e+02  1.200000e+02  5.600000e+02
  569   571   570     2  1.200000e+02  5.600000e+02  1.200000e+02  5.600000e+02
  570   572   573     2  1.200000e+02  5.600000e+02  1.200000e+02  5.600000e+02
  570   572   605     2  1.200000e+02  5.600000e+02  1.200000e+02  5.600000e+02
  573   572   605     2  1.200000e+02  5.600000e+02  1.200000e+02  5.600000e+02
  540   573   572     2  1.200000e+02  5.600000e+02  1.200000e+02  5.600000e+02
  540   573   575     2  1.200000e+02  5.600000e+02  1.200000e+02  5.600000e+02
  572   573   575     2  1.200000e+02  5.600000e+02  1.200000e+02  5.600000e+02
  575   574   576     2  1.200000e+02  5.600000e+02  1.200000e+02  5.600000e+02
  575   574   607     2  1.200000e+02  5.600000e+02  1.200000e+02  5.600000e+02
  576   574   607     2  1.200000e+02  5.600000e+02  1.200000e+02  5.600000e+02
  542   575   573     2  1.200000e+02  5.600000e+02  1.200000e+02  5.600000e+02
  542   575   574     2  1.200000e+02  5.600000e+02  1.200000e+02  5.600000e+02
  573   575   574     2  1.200000e+02  5.600000e+02  1.200000e+02  5.600000e+02
  574   576   577     2  1.200000e+02  5.600000e+02  1.200000e+02  5.600000e+02
  574   576   609     2  1.200000e+02  5.600000e+02  1.200000e+02  5.600000e+02
  577   576   609     2  1.200000e+02  5.600000e+02  1.200000e+02  5.600000e+02
  544   577   576     2  1.200000e+02  5.600000e+02  1.200000e+02  5.600000e+02
  544   577   579     2  1.200000e+02  5.600000e+02  1.200000e+02  5.600000e+02
  576   577   579     2  1.200000e+02  5.600000e+02  1.200000e+02  5.600000e+02
  579   578   580     2  1.200000e+02  5.600000e+02  1.200000e+02  5.600000e+02
  579   578   611     2  1.200000e+02  5.600000e+02  1.200000e+02  5.600000e+02
  580   578   611     2  1.200000e+02  5.600000e+02  1.200000e+02  5.600000e+02
  546   579   577     2  1.200000e+02  5.600000e+02  1.200000e+02  5.600000e+02
  546   579   578     2  1.200000e+02  5.600000e+02  1.200000e+02  5.600000e+02
  577   579   578     2  1.200000e+02  5.600000e+02  1.200000e+02  5.600000e+02
  578   580   581     2  1.200000e+02  5.600000e+02  1.200000e+02  5.600000e+02
  578   580   613     2  1.200000e+02  5.600000e+02  1.200000e+02  5.600000e+02
  581   580   613     2  1.200000e+02  5.600000e+02  1.200000e+02  5.600000e+02
  548   581   580     2  1.200000e+02  5.600000e+02  1.200000e+02  5.600000e+02
  548   581   583     2  1.200000e+02  5.600000e+02  1.200000e+02  5.600000e+02
  580   581   583     2  1.200000e+02  5.600000e+02  1.200000e+02  5.600000e+02
  583   582   584     2  1.200000e+02  5.600000e+02  1.200000e+02  5.600000e+02
  583   582   615     2  1.200000e+02  5.600000e+02  1.200000e+02  5.600000e+02
  584   582   615     2  1.200000e+02  5.600000e+02  1.200000e+02  5.600000e+02
  550   583   581     2  1.200000e+02  5.600000e+02  1.200000e+02  5.600000e+02
  550   583   582     2  1.200000e+02  5.600000e+02  1.200000e+02  5.600000e+02
  581   583   582     2  1.200000e+02  5.600000e+02  1.200000e+02  5.600000e+02
  582   584   585     2  1.200000e+02  5.600000e+02  1.200000e+02  5.600000e+02
  582   584   617     2  1.200000e+02  5.600000e+02  1.200000e+02  5.600000e+02
  585   584   617     2  1.200000e+02  5.600000e+02  1.200000e+02  5.600000e+02
  552   585   584     2  1.200000e+02  5.600000e+02  1.200000e+02  5.600000e+02
  552   585   587     2  1.200000e+02  5.600000e+02  1.200000e+02  5.600000e+02
  584   585   587     2  1.200000e+02  5.600000e+02  1.200000e+02  5.600000e+02
  587   586   588     2  1.200000e+02  5.600000e+02  1.200000e+02  5.600000e+02
  587   586   619     2  1.200000e+02  5.600000e+02  1.200000e+02  5.600000e+02
  588   586   619     2  1.200000e+02  5.600000e+02  1.200000e+02  5.600000e+02
  554   587   585     2  1.200000e+02  5.600000e+02  1.200000e+02  5.600000e+02
  554   587   586     2  1.200000e+02  5.600000e+02  1.200000e+02  5.600000e+02
  585   587   586     2  1.200000e+02  5.600000e+02  1.200000e+02  5.600000e+02
  586   588   589     2  1.200000e+02  5.600000e+02  1.200000e+02  5.600000e+02
  586   588   621     2  1.200000e+02  5.600000e+02  1.200000e+02  5.600000e+02
  589   588   621     2  1.200000e+02  5.600000e+02  1.200000e+02  5.600000e+02
  556   589   588     2  1.200000e+02  5.600000e+02  1.200000e+02  5.600000e+02
  556   589   591     2  1.200000e+02  5.600000e+02  1.200000e+02  5.600000e+02
  588   589   591     2  1.200000e+02  5.600000e+02  1.200000e+02  5.600000e+02
  591   590   592     2  1.200000e+02  5.600000e+02  1.200000e+02  5.600000e+02
  591   590   623     2  1.200000e+02  5.600000e+02  1.200000e+02  5.600000e+02
  592   590   623     2  1.200000e+02  5.600000e+02  1.200000e+02  5.600000e+02
  558   591   589     2  1.200000e+02  5.600000e+02  1.200000e+02  5.600000e+02
  558   591   590     2  1.200000e+02  5.600000e+02  1.200000e+02  5.600000e+02
  589   591   590     2  1.200000e+02  5.600000e+02  1.200000e+02  5.600000e+02
  590   592   593     2  1.200000e+02  5.600000e+02  1.200000e+02  5.600000e+02
  590   592   625     2  1.200000e+02  5.600000e+02  1.200000e+02  5.600000e+02
  593   592   625     2  1.200000e+02  5.600000e+02  1.200000e+02  5.600000e+02
  560   593   592     2  1.200000e+02  5.600000e+02  1.200000e+02  5.600000e+02
  560   593   595     2  1.200000e+02  5.600000e+02  1.200000e+02  5.600000e+02
  592   593   595     2  1.200000e+02  5.600000e+02  1.200000e+02  5.600000e+02
  595   594   596     2  1.200000e+02  5.600000e+02  1.200000e+02  5.600000e+02
  595   594   627     2  1.200000e+02  5.600000e+02  1.200000e+02  5.600000e+02
  596   594   627     2  1.200000e+02  5.600000e+02  1.200000e+02  5.600000e+02
  562   595   593     2  1.200000e+02  5.600000e+02  1.200000e+02  5.600000e+02
  562   595   594     2  1.200000e+02  5.600000e+02  1.200000e+02  5.600000e+02
  593   595   594     2  1.200000e+02  5.600000e+02  1.200000e+02  5.600000e+02
  594   596   597     2  1.200000e+02  5.600000e+02  1.200000e+02  5.600000e+02
  594   596   629     2  1.200000e+02  5.600000e+02  1.200000e+02  5.600000e+02
  597   596   629     2  1.200000e+02  5.600000e+02  1.200000e+02  5.600000e+02
  564   597   596     2  1.200000e+02  5.600000e+02  1.200000e+02  5.600000e+02
  564   597   599     2  1.200000e+02  5.600000e+02  1.200000e+02  5.600000e+02
  596   597   599     2  1.200000e+02  5.600000e+02  1.200000e+02  5.600000e+02
  599   598   600     2  1.220000e+02  6.400000e+02  1.220000e+02  6.400000e+02
  599   598   631     2  1.200000e+02  5.600000e+02  1.200000e+02  5.600000e+02
  600   598   631     2  1.180000e+02  5.600000e+02  1.180000e+02  5.600000e+02
  566   599   597     2  1.170000e+02  5.600000e+02  1.170000e+02  5.600000e+02
  566   599   598     2  1.240000e+02  6.400000e+02  1.240000e+02  6.400000e+02
  597   599   598     2  1.190000e+02  5.600000e+02  1.190000e+02  5.600000e+02
  598   600   633     2  1.220000e+02  5.600000e+02  1.220000e+02  5.600000e+02
  598   600   821     2  1.230000e+02  5.050000e+02  1.230000e+02  5.050000e+02
  633   600   821     2  1.150000e+02  5.050000e+02  1.150000e+02  5.050000e+02
  568   601   603     2  1.200000e+02  5.600000e+02  1.200000e+02  5.600000e+02
  568   601   753     2  1.190000e+02  5.600000e+02  1.190000e+02  5.600000e+02
  603   601   753     2  1.210000e+02  6.350000e+02  1.210000e+02  6.350000e+02
  603   602   604     2  1.200000e+02  5.600000e+02  1.200000e+02  5.600000e+02
  603   602   635     2  1.220000e+02  5.600000e+02  1.220000e+02  5.600000e+02
  604   602   635     2  1.180000e+02  6.400000e+02  1.180000e+02  6.400000e+02
  570   603   601     2  1.170000e+02  5.600000e+02  1.170000e+02  5.600000e+02
  570   603   602     2  1.190000e+02  5.600000e+02  1.190000e+02  5.600000e+02
  601   603   602     2  1.240000e+02  6.400000e+02  1.240000e+02  6.400000e+02
  602   604   605     2  1.200000e+02  5.600000e+02  1.200000e+02  5.600000e+02
  602   604   637     2  1.210000e+02  5.600000e+02  1.210000e+02  5.600000e+02
  605   604   637     2  1.190000e+02  5.600000e+02  1.190000e+02  5.600000e+02
  572   605   604     2  1.200000e+02  5.600000e+02  1.200000e+02  5.600000e+02
  572   605   607     2  1.200000e+02  5.600000e+02  1.200000e+02  5.600000e+02
  604   605   607     2  1.200000e+02  5.600000e+02  1.200000e+02  5.600000e+02
  607   606   608     2  1.200000e+02  5.600000e+02  1.200000e+02  5.600000e+02
  607   606   639     2  1.200000e+02  5.600000e+02  1.200000e+02  5.600000e+02
  608   606   639     2  1.200000e+02  5.600000e+02  1.200000e+02  5.600000e+02
  574   607   605     2  1.200000e+02  5.600000e+02  1.200000e+02  5.600000e+02
  574   607   606     2  1.200000e+02  5.600000e+02  1.200000e+02  5.600000e+02
  605   607   606     2  1.200000e+02  5.600000e+02  1.200000e+02  5.600000e+02
  606   608   609     2  1.200000e+02  5.600000e+02  1.200000e+02  5.600000e+02
  606   608   641     2  1.200000e+02  5.600000e+02  1.200000e+02  5.600000e+02
  609   608   641     2  1.200000e+02  5.600000e+02  1.200000e+02  5.600000e+02
  576   609   608     2  1.200000e+02  5.600000e+02  1.200000e+02  5.600000e+02
  576   609   611     2  1.200000e+02  5.600000e+02  1.200000e+02  5.600000e+02
  608   609   611     2  1.200000e+02  5.600000e+02  1.200000e+02  5.600000e+02
  611   610   612     2  1.200000e+02  5.600000e+02  1.200000e+02  5.600000e+02
  611   610   643     2  1.200000e+02  5.600000e+02  1.200000e+02  5.600000e+02
  612   610   643     2  1.200000e+02  5.600000e+02  1.200000e+02  5.600000e+02
  578   611   609     2  1.200000e+02  5.600000e+02  1.200000e+02  5.600000e+02
  578   611   610     2  1.200000e+02  5.600000e+02  1.200000e+02  5.600000e+02
  609   611   610     2  1.200000e+02  5.600000e+02  1.200000e+02  5.600000e+02
  610   612   613     2  1.200000e+02  5.600000e+02  1.200000e+02  5.600000e+02
  610   612   645     2  1.200000e+02  5.600000e+02  1.200000e+02  5.600000e+02
  613   612   645     2  1.200000e+02  5.600000e+02  1.200000e+02  5.600000e+02
  580   613   612     2  1.200000e+02  5.600000e+02  1.200000e+02  5.600000e+02
  580   613   615     2  1.200000e+02  5.600000e+02  1.200000e+02  5.600000e+02
  612   613   615     2  1.200000e+02  5.600000e+02  1.200000e+02  5.600000e+02
  615   614   616     2  1.200000e+02  5.600000e+02  1.200000e+02  5.600000e+02
  615   614   647     2  1.200000e+02  5.600000e+02  1.200000e+02  5.600000e+02
  616   614   647     2  1.200000e+02  5.600000e+02  1.200000e+02  5.600000e+02
  582   615   613     2  1.200000e+02  5.600000e+02  1.200000e+02  5.600000e+02
  582   615   614     2  1.200000e+02  5.600000e+02  1.200000e+02  5.600000e+02
  613   615   614     2  1.200000e+02  5.600000e+02  1.200000e+02  5.600000e+02
  614   616   617     2  1.200000e+02  5.600000e+02  1.200000e+02  5.600000e+02
  614   616   649     2  1.200000e+02  5.600000e+02  1.200000e+02  5.600000e+02
  617   616   649     2  1.200000e+02  5.600000e+02  1.200000e+02  5.600000e+02
  584   617   616     2  1.200000e+02  5.600000e+02  1.200000e+02  5.600000e+02
  584   617   619     2  1.200000e+02  5.600000e+02  1.200000e+02  5.600000e+02
  616   617   619     2  1.200000e+02  5.600000e+02  1.200000e+02  5.600000e+02
  619   618   620     2  1.200000e+02  5.600000e+02  1.200000e+02  5.600000e+02
  619   618   651     2  1.200000e+02  5.600000e+02  1.200000e+02  5.600000e+02
  620   618   651     2  1.200000e+02  5.600000e+02  1.200000e+02  5.600000e+02
  586   619   617     2  1.200000e+02  5.600000e+02  1.200000e+02  5.600000e+02
  586   619   618     2  1.200000e+02  5.600000e+02  1.200000e+02  5.600000e+02
  617   619   618     2  1.200000e+02  5.600000e+02  1.200000e+02  5.600000e+02
  618   620   621     2  1.200000e+02  5.600000e+02  1.200000e+02  5.600000e+02
  618   620   653     2  1.200000e+02  5.600000e+02  1.200000e+02  5.600000e+02
  621   620   653     2  1.200000e+02  5.600000e+02  1.200000e+02  5.600000e+02
  588   621   620     2  1.200000e+02  5.600000e+02  1.200000e+02  5.600000e+02
  588   621   623     2  1.200000e+02  5.600000e+02  1.200000e+02  5.600000e+02
  620   621   623     2  1.200000e+02  5.600000e+02  1.200000e+02  5.600000e+02
  623   622   624     2  1.200000e+02  5.600000e+02  1.200000e+02  5.600000e+02
  623   622   655     2  1.200000e+02  5.600000e+02  1.200000e+02  5.600000e+02
  624   622   655     2  1.200000e+02  5.600000e+02  1.200000e+02  5.600000e+02
  590   623   621     2  1.200000e+02  5.600000e+02  1.200000e+02  5.600000e+02
  590   623   622     2  1.200000e+02  5.600000e+02  1.200000e+02  5.600000e+02
  621   623   622     2  1.200000e+02  5.600000e+02  1.200000e+02  5.600000e+02
  622   624   625     2  1.200000e+02  5.600000e+02  1.200000e+02  5.600000e+02
  622   624   657     2  1.200000e+02  5.600000e+02  1.200000e+02  5.600000e+02
  625   624   657     2  1.200000e+02  5.600000e+02  1.200000e+02  5.600000e+02
  592   625   624     2  1.200000e+02  5.600000e+02  1.200000e+02  5.600000e+02
  592   625   627     2  1.200000e+02  5.600000e+02  1.200000e+02  5.600000e+02
  624   625   627     2  1.200000e+02  5.600000e+02  1.200000e+02  5.600000e+02
  627   626   628     2  1.200000e+02  5.600000e+02  1.200000e+02  5.600000e+02
  627   626   659     2  1.200000e+02  5.600000e+02  1.200000e+02  5.600000e+02
  628   626   659     2  1.200000e+02  5.600000e+02  1.200000e+02  5.600000e+02
  594   627   625     2  1.200000e+02  5.600000e+02  1.200000e+02  5.600000e+02
  594   627   626     2  1.200000e+02  5.600000e+02  1.200000e+02  5.600000e+02
  625   627   626     2  1.200000e+02  5.600000e+02  1.200000e+02  5.600000e+02
  626   628   629     2  1.200000e+02  5.600000e+02  1.200000e+02  5.600000e+02
  626   628   661     2  1.200000e+02  5.600000e+02  1.200000e+02  5.600000e+02
  629   628   661     2  1.200000e+02  5.600000e+02  1.200000e+02  5.600000e+02
  596   629   628     2  1.200000e+02  5.600000e+02  1.200000e+02  5.600000e+02
  596   629   631     2  1.200000e+02  5.600000e+02  1.200000e+02  5.600000e+02
  628   629   631     2  1.200000e+02  5.600000e+02  1.200000e+02  5.600000e+02
  631   630   632     2  1.200000e+02  5.600000e+02  1.200000e+02  5.600000e+02
  631   630   663     2  1.200000e+02  5.600000e+02  1.200000e+02  5.600000e+02
  632   630   663     2  1.200000e+02  5.600000e+02  1.200000e+02  5.600000e+02
  598   631   629     2  1.200000e+02  5.600000e+02  1.200000e+02  5.600000e+02
  598   631   630     2  1.210000e+02  5.600000e+02  1.210000e+02  5.600000e+02
  629   631   630     2  1.190000e+02  5.600000e+02  1.190000e+02  5.600000e+02
  630   632   633     2  1.180000e+02  5.600000e+02  1.180000e+02  5.600000e+02
  630   632   665     2  1.200000e+02  5.600000e+02  1.200000e+02  5.600000e+02
  633   632   665     2  1.220000e+02  6.400000e+02  1.220000e+02  6.400000e+02
  600   633   632     2  1.220000e+02  5.600000e+02  1.220000e+02  5.600000e+02
  600   633   820     2  1.150000e+02  5.050000e+02  1.150000e+02  5.050000e+02
  632   633   820     2  1.230000e+02  5.050000e+02  1.230000e+02  5.050000e+02
  635   634   636     2  1.220000e+02  5.600000e+02  1.220000e+02  5.600000e+02
  635   634   783     2  1.150000e+02  5.050000e+02  1.150000e+02  5.050000e+02
  636   634   783     2  1.230000e+02  5.050000e+02  1.230000e+02  5.050000e+02
  602   635   634     2  1.220000e+02  5.600000e+02  1.220000e+02  5.600000e+02
  602   635   782     2  1.230000e+02  5.050000e+02  1.230000e+02  5.050000e+02
  634   635   782     2  1.150000e+02  5.050000e+02  1.150000e+02  5.050000e+02
  634   636   637     2  1.180000e+02  5.600000e+02  1.180000e+02  5.600000e+02
  634   636   668     2  1.220000e+02  6.400000e+02  1.220000e+02  6.400000e+02
  637   636   668     2  1.200000e+02  5.600000e+02  1.200000e+02  5.600000e+02
  604   637   636     2  1.200000e+02  5.600000e+02  1.200000e+02  5.600000e+02
  604   637   639     2  1.200000e+02  5.600000e+02  1.200000e+02  5.600000e+02
  636   637   639     2  1.200000e+02  5.600000e+02  1.200000e+02  5.600000e+02
  639   638   640     2  1.200000e+02  5.600000e+02  1.200000e+02  5.600000e+02
  639   638   670     2  1.200000e+02  5.600000e+02  1.200000e+02  5.600000e+02
  640   638   670     2  1.200000e+02  5.600000e+02  1.200000e+02  5.600000e+02
  606   639   637     2  1.200000e+02  5.600000e+02  1.200000e+02  5.600000e+02
  606   639   638     2  1.200000e+02  5.600000e+02  1.200000e+02  5.600000e+02
  637   639   638     2  1.200000e+02  5.600000e+02  1.200000e+02  5.600000e+02
  638   640   641     2  1.200000e+02  5.600000e+02  1.200000e+02  5.600000e+02
  638   640   672     2  1.200000e+02  5.600000e+02  1.200000e+02  5.600000e+02
  641   640   672     2  1.200000e+02  5.600000e+02  1.200000e+02  5.600000e+02
  608   641   640     2  1.200000e+02  5.600000e+02  1.200000e+02  5.600000e+02
  608   641   643     2  1.200000e+02  5.600000e+02  1.200000e+02  5.600000e+02
  640   641   643     2  1.200000e+02  5.600000e+02  1.200000e+02  5.600000e+02
  643   642   644     2  1.200000e+02  5.600000e+02  1.200000e+02  5.600000e+02
  643   642   674     2  1.200000e+02  5.600000e+02  1.200000e+02  5.600000e+02
  644   642   674     2  1.200000e+02  5.600000e+02  1.200000e+02  5.600000e+02
  610   643   641     2  1.200000e+02  5.600000e+02  1.200000e+02  5.600000e+02
  610   643   642     2  1.200000e+02  5.600000e+02  1.200000e+02  5.600000e+02
  641   643   642     2  1.200000e+02  5.600000e+02  1.200000e+02  5.600000e+02
  642   644   645     2  1.200000e+02  5.600000e+02  1.200000e+02  5.600000e+02
  642   644   676     2  1.200000e+02  5.600000e+02  1.200000e+02  5.600000e+02
  645   644   676     2  1.200000e+02  5.600000e+02  1.200000e+02  5.600000e+02
  612   645   644     2  1.200000e+02  5.600000e+02  1.200000e+02  5.600000e+02
  612   645   647     2  1.200000e+02  5.600000e+02  1.200000e+02  5.600000e+02
  644   645   647     2  1.200000e+02  5.600000e+02  1.200000e+02  5.600000e+02
  647   646   648     2  1.200000e+02  5.600000e+02  1.200000e+02  5.600000e+02
  647   646   678     2  1.200000e+02  5.600000e+02  1.200000e+02  5.600000e+02
  648   646   678     2  1.200000e+02  5.600000e+02  1.200000e+02  5.600000e+02
  614   647   645     2  1.200000e+02  5.600000e+02  1.200000e+02  5.600000e+02
  614   647   646     2  1.200000e+02  5.600000e+02  1.200000e+02  5.600000e+02
  645   647   646     2  1.200000e+02  5.600000e+02  1.200000e+02  5.600000e+02
  646   648   649     2  1.200000e+02  5.600000e+02  1.200000e+02  5.600000e+02
  646   648   680     2  1.200000e+02  5.600000e+02  1.200000e+02  5.600000e+02
  649   648   680     2  1.200000e+02  5.600000e+02  1.200000e+02  5.600000e+02
  616   649   648     2  1.200000e+02  5.600000e+02  1.200000e+02  5.600000e+02
  616   649   651     2  1.200000e+02  5.600000e+02  1.200000e+02  5.600000e+02
  648   649   651     2  1.200000e+02  5.600000e+02  1.200000e+02  5.600000e+02
  651   650   652     2  1.200000e+02  5.600000e+02  1.200000e+02  5.600000e+02
  651   650   682     2  1.200000e+02  5.600000e+02  1.200000e+02  5.600000e+02
  652   650   682     2  1.200000e+02  5.600000e+02  1.200000e+02  5.600000e+02
  618   651   649     2  1.200000e+02  5.600000e+02  1.200000e+02  5.600000e+02
  618   651   650     2  1.200000e+02  5.600000e+02  1.200000e+02  5.600000e+02
  649   651   650     2  1.200000e+02  5.600000e+02  1.200000e+02  5.600000e+02
  650   652   653     2  1.200000e+02  5.600000e+02  1.200000e+02  5.600000e+02
  650   652   684     2  1.200000e+02  5.600000e+02  1.200000e+02  5.600000e+02
  653   652   684     2  1.200000e+02  5.600000e+02  1.200000e+02  5.600000e+02
  620   653   652     2  1.200000e+02  5.600000e+02  1.200000e+02  5.600000e+02
  620   653   655     2  1.200000e+02  5.600000e+02  1.200000e+02  5.600000e+02
  652   653   655     2  1.200000e+02  5.600000e+02  1.200000e+02  5.600000e+02
  655   654   656     2  1.200000e+02  5.600000e+02  1.200000e+02  5.600000e+02
  655   654   686     2  1.200000e+02  5.600000e+02  1.200000e+02  5.600000e+02
  656   654   686     2  1.200000e+02  5.600000e+02  1.200000e+02  5.600000e+02
  622   655   653     2  1.200000e+02  5.600000e+02  1.200000e+02  5.600000e+02
  622   655   654     2  1.200000e+02  5.600000e+02  1.200000e+02  5.600000e+02
  653   655   654     2  1.200000e+02  5.600000e+02  1.200000e+02  5.600000e+02
  654   656   657     2  1.200000e+02  5.600000e+02  1.200000e+02  5.600000e+02
  654   656   688     2  1.200000e+02  5.600000e+02  1.200000e+02  5.600000e+02
  657   656   688     2  1.200000e+02  5.600000e+02  1.200000e+02  5.600000e+02
  624   657   656     2  1.200000e+02  5.600000e+02  1.200000e+02  5.600000e+02
  624   657   659     2  1.200000e+02  5.600000e+02  1.200000e+02  5.600000e+02
  656   657   659     2  1.200000e+02  5.600000e+02  1.200000e+02  5.600000e+02
  659   658   660     2  1.200000e+02  5.600000e+02  1.200000e+02  5.600000e+02
  659   658   690     2  1.200000e+02  5.600000e+02  1.200000e+02  5.600000e+02
  660   658   690     2  1.200000e+02  5.600000e+02  1.200000e+02  5.600000e+02
  626   659   657     2  1.200000e+02  5.600000e+02  1.200000e+02  5.600000e+02
  626   659   658     2  1.200000e+02  5.600000e+02  1.200000e+02  5.600000e+02
  657   659   658     2  1.200000e+02  5.600000e+02  1.200000e+02  5.600000e+02
  658   660   661     2  1.200000e+02  5.600000e+02  1.200000e+02  5.600000e+02
  658   660   692     2  1.200000e+02  5.600000e+02  1.200000e+02  5.600000e+02
  661   660   692     2  1.200000e+02  5.600000e+02  1.200000e+02  5.600000e+02
  628   661   660     2  1.200000e+02  5.600000e+02  1.200000e+02  5.600000e+02
  628   661   663     2  1.200000e+02  5.600000e+02  1.200000e+02  5.600000e+02
  660   661   663     2  1.200000e+02  5.600000e+02  1.200000e+02  5.600000e+02
  663   662   664     2  1.200000e+02  5.600000e+02  1.200000e+02  5.600000e+02
  663   662   693     2  1.200000e+02  5.600000e+02  1.200000e+02  5.600000e+02
  664   662   693     2  1.200000e+02  5.600000e+02  1.200000e+02  5.600000e+02
  630   663   661     2  1.200000e+02  5.600000e+02  1.200000e+02  5.600000e+02
  630   663   662     2  1.200000e+02  5.600000e+02  1.200000e+02  5.600000e+02
  661   663   662     2  1.200000e+02  5.600000e+02  1.200000e+02  5.600000e+02
    1   664   662     2  1.200000e+02  5.600000e+02  1.200000e+02  5.600000e+02
    1   664   665     2  1.200000e+02  5.600000e+02  1.200000e+02  5.600000e+02
  662   664   665     2  1.200000e+02  5.600000e+02  1.200000e+02  5.600000e+02
  632   665   664     2  1.200000e+02  5.600000e+02  1.200000e+02  5.600000e+02
  632   665   666     2  1.220000e+02  6.400000e+02  1.220000e+02  6.400000e+02
  664   665   666     2  1.180000e+02  5.600000e+02  1.180000e+02  5.600000e+02
    3   666   665     2  1.220000e+02  5.600000e+02  1.220000e+02  5.600000e+02
    3   666   819     2  1.150000e+02  5.050000e+02  1.150000e+02  5.050000e+02
  665   666   819     2  1.230000e+02  5.050000e+02  1.230000e+02  5.050000e+02
  668   667   694     2  1.210000e+02  5.600000e+02  1.210000e+02  5.600000e+02
  668   667   801     2  1.230000e+02  5.050000e+02  1.230000e+02  5.050000e+02
  694   667   801     2  1.160000e+02  5.050000e+02  1.160000e+02  5.050000e+02
  636   668   667     2  1.230000e+02  6.400000e+02  1.230000e+02  6.400000e+02
  636   668   670     2  1.190000e+02  5.600000e+02  1.190000e+02  5.600000e+02
  667   668   670     2  1.180000e+02  5.600000e+02  1.180000e+02  5.600000e+02
  670   669   671     2  1.200000e+02  5.600000e+02  1.200000e+02  5.600000e+02
  670   669   696     2  1.210000e+02  5.600000e+02  1.210000e+02  5.600000e+02
  671   669   696     2  1.200000e+02  5.600000e+02  1.200000e+02  5.600000e+02
  638   670   668     2  1.200000e+02  5.600000e+02  1.200000e+02  5.600000e+02
  638   670   669     2  1.200000e+02  5.600000e+02  1.200000e+02  5.600000e+02
  668   670   669     2  1.200000e+02  5.600000e+02  1.200000e+02  5.600000e+02
  669   671   672     2  1.200000e+02  5.600000e+02  1.200000e+02  5.600000e+02
  669   671   698     2  1.200000e+02  5.600000e+02  1.200000e+02  5.600000e+02
  672   671   698     2  1.200000e+02  5.600000e+02  1.200000e+02  5.600000e+02
  640   672   671     2  1.200000e+02  5.600000e+02  1.200000e+02  5.600000e+02
  640   672   674     2  1.200000e+02  5.600000e+02  1.200000e+02  5.600000e+02
  671   672   674     2  1.200000e+02  5.600000e+02  1.200000e+02  5.600000e+02
  674   673   675     2  1.200000e+02  5.600000e+02  1.200000e+02  5.600000e+02
  674   673   700     2  1.200000e+02  5.600000e+02  1.200000e+02  5.600000e+02
  675   673   700     2  1.200000e+02  5.600000e+02  1.200000e+02  5.600000e+02
  642   674   672     2  1.200000e+02  5.600000e+02  1.200000e+02  5.600000e+02
  642   674   673     2  1.200000e+02  5.600000e+02  1.200000e+02  5.600000e+02
  672   674   673     2  1.200000e+02  5.600000e+02  1.200000e+02  5.600000e+02
  673   675   676     2  1.200000e+02  5.600000e+02  1.200000e+02  5.600000e+02
  673   675   702     2  1.200000e+02  5.600000e+02  1.200000e+02  5.600000e+02
  676   675   702     2  1.200000e+02  5.600000e+02  1.200000e+02  5.600000e+02
  644   676   675     2  1.200000e+02  5.600000e+02  1.200000e+02  5.600000e+02
  644   676   678     2  1.200000e+02  5.600000e+02  1.200000e+02  5.600000e+02
  675   676   678     2  1.200000e+02  5.600000e+02  1.200000e+02  5.600000e+02
  678   677   679     2  1.200000e+02  5.600000e+02  1.200000e+02  5.600000e+02
  678   677   704     2  1.200000e+02  5.600000e+02  1.200000e+02  5.600000e+02
  679   677   704     2  1.200000e+02  5.600000e+02  1.200000e+02  5.600000e+02
  646   678   676     2  1.200000e+02  5.600000e+02  1.200000e+02  5.600000e+02
  646   678   677     2  1.200000e+02  5.600000e+02  1.200000e+02  5.600000e+02
  676   678   677     2  1.200000e+02  5.600000e+02  1.200000e+02  5.600000e+02
  677   679   680     2  1.200000e+02  5.600000e+02  1.200000e+02  5.600000e+02
  677   679   706     2  1.200000e+02  5.600000e+02  1.200000e+02  5.600000e+02
  680   679   706     2  1.200000e+02  5.600000e+02  1.200000e+02  5.600000e+02
  648   680   679     2  1.200000e+02  5.600000e+02  1.200000e+02  5.600000e+02
  648   680   682     2  1.200000e+02  5.600000e+02  1.200000e+02  5.600000e+02
  679   680   682     2  1.200000e+02  5.600000e+02  1.200000e+02  5.600000e+02
  682   681   683     2  1.200000e+02  5.600000e+02  1.200000e+02  5.600000e+02
  682   681   708     2  1.200000e+02  5.600000e+02  1.200000e+02  5.600000e+02
  683   681   708     2  1.200000e+02  5.600000e+02  1.200000e+02  5.600000e+02
  650   682   680     2  1.200000e+02  5.600000e+02  1.200000e+02  5.600000e+02
  650   682   681     2  1.200000e+02  5.600000e+02  1.200000e+02  5.600000e+02
  680   682   681     2  1.200000e+02  5.600000e+02  1.200000e+02  5.600000e+02
  681   683   684     2  1.200000e+02  5.600000e+02  1.200000e+02  5.600000e+02
  681   683   710     2  1.200000e+02  5.600000e+02  1.200000e+02  5.600000e+02
  684   683   710     2  1.200000e+02  5.600000e+02  1.200000e+02  5.600000e+02
  652   684   683     2  1.200000e+02  5.600000e+02  1.200000e+02  5.600000e+02
  652   684   686     2  1.200000e+02  5.600000e+02  1.200000e+02  5.600000e+02
  683   684   686     2  1.200000e+02  5.600000e+02  1.200000e+02  5.600000e+02
  686   685   687     2  1.200000e+02  5.600000e+02  1.200000e+02  5.600000e+02
  686   685   712     2  1.200000e+02  5.600000e+02  1.200000e+02  5.600000e+02
  687   685   712     2  1.200000e+02  5.600000e+02  1.200000e+02  5.600000e+02
  654   686   684     2  1.200000e+02  5.600000e+02  1.200000e+02  5.600000e+02
  654   686   685     2  1.200000e+02  5.600000e+02  1.200000e+02  5.600000e+02
  684   686   685     2  1.200000e+02  5.600000e+02  1.200000e+02  5.600000e+02
  685   687   688     2  1.200000e+02  5.600000e+02  1.200000e+02  5.600000e+02
  685   687   714     2  1.200000e+02  5.600000e+02  1.200000e+02  5.600000e+02
  688   687   714     2  1.200000e+02  5.600000e+02  1.200000e+02  5.600000e+02
  656   688   687     2  1.200000e+02  5.600000e+02  1.200000e+02  5.600000e+02
  656   688   690     2  1.200000e+02  5.600000e+02  1.200000e+02  5.600000e+02
  687   688   690     2  1.200000e+02  5.600000e+02  1.200000e+02  5.600000e+02
  690   689   691     2  1.200000e+02  5.600000e+02  1.200000e+02  5.600000e+02
  690   689   715     2  1.200000e+02  5.600000e+02  1.200000e+02  5.600000e+02
  691   689   715     2  1.200000e+02  5.600000e+02  1.200000e+02  5.600000e+02
  658   690   688     2  1.200000e+02  5.600000e+02  1.200000e+02  5.600000e+02
  658   690   689     2  1.200000e+02  5.600000e+02  1.200000e+02  5.600000e+02
  688   690   689     2  1.200000e+02  5.600000e+02  1.200000e+02  5.600000e+02
    4   691   689     2  1.200000e+02  5.600000e+02  1.200000e+02  5.600000e+02
    4   691   692     2  1.200000e+02  5.600000e+02  1.200000e+02  5.600000e+02
  689   691   692     2  1.200000e+02  5.600000e+02  1.200000e+02  5.600000e+02
  660   692   691     2  1.200000e+02  5.600000e+02  1.200000e+02  5.600000e+02
  660   692   693     2  1.200000e+02  5.600000e+02  1.200000e+02  5.600000e+02
  691   692   693     2  1.200000e+02  5.600000e+02  1.200000e+02  5.600000e+02
    6   693   662     2  1.200000e+02  5.600000e+02  1.200000e+02  5.600000e+02
    6   693   692     2  1.200000e+02  5.600000e+02  1.200000e+02  5.600000e+02
  662   693   692     2  1.200000e+02  5.600000e+02  1.200000e+02  5.600000e+02
  667   694   696     2  1.210000e+02  5.600000e+02  1.210000e+02  5.600000e+02
  667   694   800     2  1.160000e+02  5.050000e+02  1.160000e+02  5.050000e+02
  696   694   800     2  1.230000e+02  5.050000e+02  1.230000e+02  5.050000e+02
  696   695   697     2  1.190000e+02  5.600000e+02  1.190000e+02  5.600000e+02
  696   695   717     2  1.230000e+02  6.400000e+02  1.230000e+02  6.400000e+02
  697   695   717     2  1.180000e+02  5.600000e+02  1.180000e+02  5.600000e+02
  669   696   694     2  1.180000e+02  5.600000e+02  1.180000e+02  5.600000e+02
  669   696   695     2  1.200000e+02  5.600000e+02  1.200000e+02  5.600000e+02
  694   696   695     2  1.220000e+02  6.400000e+02  1.220000e+02  6.400000e+02
  695   697   698     2  1.200000e+02  5.600000e+02  1.200000e+02  5.600000e+02
  695   697   719     2  1.200000e+02  5.600000e+02  1.200000e+02  5.600000e+02
  698   697   719     2  1.200000e+02  5.600000e+02  1.200000e+02  5.600000e+02
  671   698   697     2  1.200000e+02  5.600000e+02  1.200000e+02  5.600000e+02
  671   698   700     2  1.200000e+02  5.600000e+02  1.200000e+02  5.600000e+02
  697   698   700     2  1.200000e+02  5.600000e+02  1.200000e+02  5.600000e+02
  700   699   701     2  1.200000e+02  5.600000e+02  1.200000e+02  5.600000e+02
  700   699   721     2  1.200000e+02  5.600000e+02  1.200000e+02  5.600000e+02
  701   699   721     2  1.200000e+02  5.600000e+02  1.200000e+02  5.600000e+02
  673   700   698     2  1.200000e+02  5.600000e+02  1.200000e+02  5.600000e+02
  673   700   699     2  1.200000e+02  5.600000e+02  1.200000e+02  5.600000e+02
  698   700   699     2  1.200000e+02  5.600000e+02  1.200000e+02  5.600000e+02
  699   701   702     2  1.200000e+02  5.600000e+02  1.200000e+02  5.600000e+02
  699   701   723     2  1.200000e+02  5.600000e+02  1.200000e+02  5.600000e+02
  702   701   723     2  1.200000e+02  5.600000e+02  1.200000e+02  5.600000e+02
  675   702   701     2  1.200000e+02  5.600000e+02  1.200000e+02  5.600000e+02
  675   702   704     2  1.200000e+02  5.600000e+02  1.200000e+02  5.600000e+02
  701   702   704     2  1.200000e+02  5.600000e+02  1.200000e+02  5.600000e+02
  704   703   705     2  1.200000e+02  5.600000e+02  1.200000e+02  5.600000e+02
  704   703   725     2  1.200000e+02  5.600000e+02  1.200000e+02  5.600000e+02
  705   703   725     2  1.200000e+02  5.600000e+02  1.200000e+02  5.600000e+02
  677   704   702     2  1.200000e+02  5.600000e+02  1.200000e+02  5.600000e+02
  677   704   703     2  1.200000e+02  5.600000e+02  1.200000e+02  5.600000e+02
  702   704   703     2  1.200000e+02  5.600000e+02  1.200000e+02  5.600000e+02
  703   705   706     2  1.200000e+02  5.600000e+02  1.200000e+02  5.600000e+02
  703   705   727     2  1.200000e+02  5.600000e+02  1.200000e+02  5.600000e+02
  706   705   727     2  1.200000e+02  5.600000e+02  1.200000e+02  5.600000e+02
  679   706   705     2  1.200000e+02  5.600000e+02  1.200000e+02  5.600000e+02
  679   706   708     2  1.200000e+02  5.600000e+02  1.200000e+02  5.600000e+02
  705   706   708     2  1.200000e+02  5.600000e+02  1.200000e+02  5.600000e+02
  708   707   709     2  1.200000e+02  5.600000e+02  1.200000e+02  5.600000e+02
  708   707   729     2  1.200000e+02  5.600000e+02  1.200000e+02  5.600000e+02
  709   707   729     2  1.200000e+02  5.600000e+02  1.200000e+02  5.600000e+02
  681   708   706     2  1.200000e+02  5.600000e+02  1.200000e+02  5.600000e+02
  681   708   707     2  1.200000e+02  5.600000e+02  1.200000e+02  5.600000e+02
  706   708   707     2  1.200000e+02  5.600000e+02  1.200000e+02  5.600000e+02
  707   709   710     2  1.200000e+02  5.600000e+02  1.200000e+02  5.600000e+02
  707   709   731     2  1.200000e+02  5.600000e+02  1.200000e+02  5.600000e+02
  710   709   731     2  1.200000e+02  5.600000e+02  1.200000e+02  5.600000e+02
  683   710   709     2  1.200000e+02  5.600000e+02  1.200000e+02  5.600000e+02
  683   710   712     2  1.200000e+02  5.600000e+02  1.200000e+02  5.600000e+02
  709   710   712     2  1.200000e+02  5.600000e+02  1.200000e+02  5.600000e+02
  712   711   713     2  1.200000e+02  5.600000e+02  1.200000e+02  5.600000e+02
  712   711   732     2  1.200000e+02  5.600000e+02  1.200000e+02  5.600000e+02
  713   711   732     2  1.200000e+02  5.600000e+02  1.200000e+02  5.600000e+02
  685   712   710     2  1.200000e+02  5.600000e+02  1.200000e+02  5.600000e+02
  685   712   711     2  1.200000e+02  5.600000e+02  1.200000e+02  5.600000e+02
  710   712   711     2  1.200000e+02  5.600000e+02  1.200000e+02  5.600000e+02
   13   713   711     2  1.200000e+02  5.600000e+02  1.200000e+02  5.600000e+02
   13   713   714     2  1.200000e+02  5.600000e+02  1.200000e+02  5.600000e+02
  711   713   714     2  1.200000e+02  5.600000e+02  1.200000e+02  5.600000e+02
  687   714   713     2  1.200000e+02  5.600000e+02  1.200000e+02  5.600000e+02
  687   714   715     2  1.200000e+02  5.600000e+02  1.200000e+02  5.600000e+02
  713   714   715     2  1.200000e+02  5.600000e+02  1.200000e+02  5.600000e+02
   15   715   689     2  1.200000e+02  5.600000e+02  1.200000e+02  5.600000e+02
   15   715   714     2  1.200000e+02  5.600000e+02  1.200000e+02  5.600000e+02
  689   715   714     2  1.200000e+02  5.600000e+02  1.200000e+02  5.600000e+02
  717   716   718     2  1.200000e+02  5.600000e+02  1.200000e+02  5.600000e+02
  717   716   757     2  1.190000e+02  5.600000e+02  1.190000e+02  5.600000e+02
  718   716   757     2  1.210000e+02  6.350000e+02  1.210000e+02  6.350000e+02
  695   717   716     2  1.210000e+02  5.600000e+02  1.210000e+02  5.600000e+02
  695   717   799     2  1.210000e+02  5.050000e+02  1.210000e+02  5.050000e+02
  716   717   799     2  1.170000e+02  5.050000e+02  1.170000e+02  5.050000e+02
  716   718   719     2  1.170000e+02  5.600000e+02  1.170000e+02  5.600000e+02
  716   718   734     2  1.240000e+02  6.400000e+02  1.240000e+02  6.400000e+02
  719   718   734     2  1.190000e+02  5.600000e+02  1.190000e+02  5.600000e+02
  697   719   718     2  1.200000e+02  5.600000e+02  1.200000e+02  5.600000e+02
  697   719   721     2  1.200000e+02  5.600000e+02  1.200000e+02  5.600000e+02
  718   719   721     2  1.200000e+02  5.600000e+02  1.200000e+02  5.600000e+02
  721   720   722     2  1.200000e+02  5.600000e+02  1.200000e+02  5.600000e+02
  721   720   736     2  1.200000e+02  5.600000e+02  1.200000e+02  5.600000e+02
  722   720   736     2  1.200000e+02  5.600000e+02  1.200000e+02  5.600000e+02
  699   721   719     2  1.200000e+02  5.600000e+02  1.200000e+02  5.600000e+02
  699   721   720     2  1.200000e+02  5.600000e+02  1.200000e+02  5.600000e+02
  719   721   720     2  1.200000e+02  5.600000e+02  1.200000e+02  5.600000e+02
  720   722   723     2  1.200000e+02  5.600000e+02  1.200000e+02  5.600000e+02
  720   722   738     2  1.200000e+02  5.600000e+02  1.200000e+02  5.600000e+02
  723   722   738     2  1.200000e+02  5.600000e+02  1.200000e+02  5.600000e+02
  701   723   722     2  1.200000e+02  5.600000e+02  1.200000e+02  5.600000e+02
  701   723   725     2  1.200000e+02  5.600000e+02  1.200000e+02  5.600000e+02
  722   723   725     2  1.200000e+02  5.600000e+02  1.200000e+02  5.600000e+02
  725   724   726     2  1.200000e+02  5.600000e+02  1.200000e+02  5.600000e+02
  725   724   740     2  1.200000e+02  5.600000e+02  1.200000e+02  5.600000e+02
  726   724   740     2  1.200000e+02  5.600000e+02  1.200000e+02  5.600000e+02
  703   725   723     2  1.200000e+02  5.600000e+02  1.200000e+02  5.600000e+02
  703   725   724     2  1.200000e+02  5.600000e+02  1.200000e+02  5.600000e+02
  723   725   724     2  1.200000e+02  5.600000e+02  1.200000e+02  5.600000e+02
  724   726   727     2  1.200000e+02  5.600000e+02  1.200000e+02  5.600000e+02
  724   726   742     2  1.200000e+02  5.600000e+02  1.200000e+02  5.600000e+02
  727   726   742     2  1.200000e+02  5.600000e+02  1.200000e+02  5.600000e+02
  705   727   726     2  1.200000e+02  5.600000e+02  1.200000e+02  5.600000e+02
  705   727   729     2  1.200000e+02  5.600000e+02  1.200000e+02  5.600000e+02
  726   727   729     2  1.200000e+02  5.600000e+02  1.200000e+02  5.600000e+02
  729   728   730     2  1.200000e+02  5.600000e+02  1.200000e+02  5.600000e+02
  729   728   743     2  1.200000e+02  5.600000e+02  1.200000e+02  5.600000e+02
  730   728   743     2  1.200000e+02  5.600000e+02  1.200000e+02  5.600000e+02
  707   729   727     2  1.200000e+02  5.600000e+02  1.200000e+02  5.600000e+02
  707   729   728     2  1.200000e+02  5.600000e+02  1.200000e+02  5.600000e+02
  727   729   728     2  1.200000e+02  5.600000e+02  1.200000e+02  5.600000e+02
   27   730   728     2  1.200000e+02  5.600000e+02  1.200000e+02  5.600000e+02
   27   730   731     2  1.200000e+02  5.600000e+02  1.200000e+02  5.600000e+02
  728   730   731     2  1.200000e+02  5.600000e+02  1.200000e+02  5.600000e+02
  709   731   730     2  1.200000e+02  5.600000e+02  1.200000e+02  5.600000e+02
  709   731   732     2  1.200000e+02  5.600000e+02  1.200000e+02  5.600000e+02
  730   731   732     2  1.200000e+02  5.600000e+02  1.200000e+02  5.600000e+02
   29   732   711     2  1.200000e+02  5.600000e+02  1.200000e+02  5.600000e+02
   29   732   731     2  1.200000e+02  5.600000e+02  1.200000e+02  5.600000e+02
  711   732   731     2  1.200000e+02  5.600000e+02  1.200000e+02  5.600000e+02
  734   733   744     2  1.220000e+02  5.600000e+02  1.220000e+02  5.600000e+02
  734   733   798     2  1.230000e+02  5.050000e+02  1.230000e+02  5.050000e+02
  744   733   798     2  1.150000e+02  5.050000e+02  1.150000e+02  5.050000e+02
  718   734   733     2  1.220000e+02  6.400000e+02  1.220000e+02  6.400000e+02
  718   734   736     2  1.200000e+02  5.600000e+02  1.200000e+02  5.600000e+02
  733   734   736     2  1.180000e+02  5.600000e+02  1.180000e+02  5.600000e+02
  736   735   737     2  1.200000e+02  5.600000e+02  1.200000e+02  5.600000e+02
  736   735   746     2  1.200000e+02  5.600000e+02  1.200000e+02  5.600000e+02
  737   735   746     2  1.200000e+02  5.600000e+02  1.200000e+02  5.600000e+02
  720   736   734     2  1.200000e+02  5.600000e+02  1.200000e+02  5.600000e+02
  720   736   735     2  1.190000e+02  5.600000e+02  1.190000e+02  5.600000e+02
  734   736   735     2  1.210000e+02  5.600000e+02  1.210000e+02  5.600000e+02
  735   737   738     2  1.200000e+02  5.600000e+02  1.200000e+02  5.600000e+02
  735   737   748     2  1.200000e+02  5.600000e+02  1.200000e+02  5.600000e+02
  738   737   748     2  1.200000e+02  5.600000e+02  1.200000e+02  5.600000e+02
  722   738   737     2  1.200000e+02  5.600000e+02  1.200000e+02  5.600000e+02
  722   738   740     2  1.200000e+02  5.600000e+02  1.200000e+02  5.600000e+02
  737   738   740     2  1.200000e+02  5.600000e+02  1.200000e+02  5.600000e+02
  740   739   741     2  1.200000e+02  5.600000e+02  1.200000e+02  5.600000e+02
  740   739   749     2  1.200000e+02  5.600000e+02  1.200000e+02  5.600000e+02
  741   739   749     2  1.200000e+02  5.600000e+02  1.200000e+02  5.600000e+02
  724   740   738     2  1.200000e+02  5.600000e+02  1.200000e+02  5.600000e+02
  724   740   739     2  1.200000e+02  5.600000e+02  1.200000e+02  5.600000e+02
  738   740   739     2  1.200000e+02  5.600000e+02  1.200000e+02  5.600000e+02
   46   741   739     2  1.200000e+02  5.600000e+02  1.200000e+02  5.600000e+02
   46   741   742     2  1.200000e+02  5.600000e+02  1.200000e+02  5.600000e+02
  739   741   742     2  1.200000e+02  5.600000e+02  1.200000e+02  5.600000e+02
  726   742   741     2  1.200000e+02  5.600000e+02  1.200000e+02  5.600000e+02
  726   742   743     2  1.200000e+02  5.600000e+02  1.200000e+02  5.600000e+02
  741   742   743     2  1.200000e+02  5.600000e+02  1.200000e+02  5.600000e+02
   48   743   728     2  1.200000e+02  5.600000e+02  1.200000e+02  5.600000e+02
   48   743   742     2  1.200000e+02  5.600000e+02  1.200000e+02  5.600000e+02
  728   743   742     2  1.200000e+02  5.600000e+02  1.200000e+02  5.600000e+02
  733   744   746     2  1.210000e+02  5.600000e+02  1.210000e+02  5.600000e+02
  733   744   797     2  1.160000e+02  5.050000e+02  1.160000e+02  5.050000e+02
  746   744   797     2  1.220000e+02  5.050000e+02  1.220000e+02  5.050000e+02
  746   745   747     2  1.190000e+02  5.600000e+02  1.190000e+02  5.600000e+02
  746   745   750     2  1.230000e+02  6.400000e+02  1.230000e+02  6.400000e+02
  747   745   750     2  1.180000e+02  5.600000e+02  1.180000e+02  5.600000e+02
  735   746   744     2  1.180000e+02  5.600000e+02  1.180000e+02  5.600000e+02
  735   746   745     2  1.200000e+02  5.600000e+02  1.200000e+02  5.600000e+02
  744   746   745     2  1.220000e+02  6.400000e+02  1.220000e+02  6.400000e+02
   71   747   745     2  1.200000e+02  5.600000e+02  1.200000e+02  5.600000e+02
   71   747   748     2  1.200000e+02  5.600000e+02  1.200000e+02  5.600000e+02
  745   747   748     2  1.200000e+02  5.600000e+02  1.200000e+02  5.600000e+02
  737   748   747     2  1.200000e+02  5.600000e+02  1.200000e+02  5.600000e+02
  737   748   749     2  1.200000e+02  5.600000e+02  1.200000e+02  5.600000e+02
  747   748   749     2  1.200000e+02  5.600000e+02  1.200000e+02  5.600000e+02
   73   749   739     2  1.200000e+02  5.600000e+02  1.200000e+02  5.600000e+02
   73   749   748     2  1.200000e+02  5.600000e+02  1.200000e+02  5.600000e+02
  739   749   748     2  1.200000e+02  5.600000e+02  1.200000e+02  5.600000e+02
  101   750   745     2  1.210000e+02  5.600000e+02  1.210000e+02  5.600000e+02
  101   750   796     2  1.180000e+02  5.050000e+02  1.180000e+02  5.050000e+02
  745   750   796     2  1.210000e+02  5.050000e+02  1.210000e+02  5.050000e+02
  501   751   752     2  1.140000e+02  4.500000e+02  1.140000e+02  4.500000e+02
  601   753   754     2  1.140000e+02  4.500000e+02  1.140000e+02  4.500000e+02
  401   755   756     2  1.140000e+02  4.500000e+02  1.140000e+02  4.500000e+02
  716   757   758     2  1.140000e+02  4.500000e+02  1.140000e+02  4.500000e+02
  101   759   760     2  1.140000e+02  4.500000e+02  1.140000e+02  4.500000e+02
  301   761   762     2  1.140000e+02  4.500000e+02  1.140000e+02  4.500000e+02
  201   763   764     2  1.140000e+02  4.500000e+02  1.140000e+02  4.500000e+02
  333   765   766     2  1.140000e+02  4.500000e+02  1.140000e+02  4.500000e+02
  267   767   768     2  1.140000e+02  4.500000e+02  1.140000e+02  4.500000e+02
  466   769   770     2  1.140000e+02  4.500000e+02  1.140000e+02  4.500000e+02
  167   771   772     2  1.140000e+02  4.500000e+02  1.140000e+02  4.500000e+02
   70   773   774     2  1.140000e+02  4.500000e+02  1.140000e+02  4.500000e+02
   12   775   776     2  1.140000e+02  4.500000e+02  1.140000e+02  4.500000e+02
  566   777   778     2  1.140000e+02  4.500000e+02  1.140000e+02  4.500000e+02
[ dihedrals ]
;  ai    aj    ak    al funct            c0            c1            c2            c3            c4            c5
   8     1     2     3     1  1.800000e+02  5.860000e+00  2
   2     1     8     6     1  1.800000e+02  5.860000e+00  2
   2     1   664   662     1  1.800000e+02  5.860000e+00  2
   1     2     3   666     1  1.800000e+02  5.860000e+00  2
   1     2    10     9     1  1.800000e+02  5.860000e+00  2
   2     3   666   665     1  1.800000e+02  5.860000e+00  2
  17     4     5     6     1  1.800000e+02  5.860000e+00  2
   5     4    17    15     1  1.800000e+02  5.860000e+00  2
   5     4   691   689     1  1.800000e+02  5.860000e+00  2
   4     5     6     8     1  1.800000e+02  5.860000e+00  2
   4     5    19    18     1  1.800000e+02  5.860000e+00  2
   5     6     8     1     1  1.800000e+02  5.860000e+00  2
   5     6   693   662     1  1.800000e+02  5.860000e+00  2
   9     7     8     1     1  1.800000e+02  5.860000e+00  2
   8     7     9    10     1  1.800000e+02  5.860000e+00  2
   8     7    21    19     1  1.800000e+02  5.860000e+00  2
   7     9    10     2     1  1.800000e+02  5.860000e+00  2
   7     9    23    22     1  1.800000e+02  5.860000e+00  2
   2    10    12    11     1  1.800000e+02  5.860000e+00  2
  25    11    12    10     1  1.800000e+02  5.860000e+00  2
  12    11    25    23     1  1.800000e+02  5.860000e+00  2
  10    12   775   776     1  1.800000e+02  1.670000e+01  2
  31    13    14    15     1  1.800000e+02  5.860000e+00  2
  14    13    31    29     1  1.800000e+02  5.860000e+00  2
  14    13   713   711     1  1.800000e+02  5.860000e+00  2
  13    14    15    17     1  1.800000e+02  5.860000e+00  2
  13    14    33    32     1  1.800000e+02  5.860000e+00  2
  14    15    17     4     1  1.800000e+02  5.860000e+00  2
  14    15   715   689     1  1.800000e+02  5.860000e+00  2
  18    16    17     4     1  1.800000e+02  5.860000e+00  2
  17    16    18    19     1  1.800000e+02  5.860000e+00  2
  17    16    35    33     1  1.800000e+02  5.860000e+00  2
  16    18    19     5     1  1.800000e+02  5.860000e+00  2
  16    18    37    36     1  1.800000e+02  5.860000e+00  2
   5    19    21     7     1  1.800000e+02  5.860000e+00  2
  22    20    21     7     1  1.800000e+02  5.860000e+00  2
  21    20    22    23     1  1.800000e+02  5.860000e+00  2
  21    20    39    37     1  1.800000e+02  5.860000e+00  2
  20    22    23     9     1  1.800000e+02  5.860000e+00  2
  20    22    41    40     1  1.800000e+02  5.860000e+00  2
   9    23    25    11     1  1.800000e+02  5.860000e+00  2
  26    24    25    11     1  1.800000e+02  5.860000e+00  2
  25    24    26    45     1  1.800000e+02  5.860000e+00  2
  25    24    43    41     1  1.800000e+02  5.860000e+00  2
  24    26    45    44     1  1.800000e+02  5.860000e+00  2
  50    27    28    29     1  1.800000e+02  5.860000e+00  2
  28    27    50    48     1  1.800000e+02  5.860000e+00  2
  28    27   730   728     1  1.800000e+02  5.860000e+00  2
  27    28    29    31     1  1.800000e+02  5.860000e+00  2
  27    28    52    51     1  1.800000e+02  5.860000e+00  2
  28    29    31    13     1  1.800000e+02  5.860000e+00  2
  28    29   732   711     1  1.800000e+02  5.860000e+00  2
  32    30    31    13     1  1.800000e+02  5.860000e+00  2
  31    30    32    33     1  1.800000e+02  5.860000e+00  2
  31    30    54    52     1  1.800000e+02  5.860000e+00  2
  30    32    33    14     1  1.800000e+02  5.860000e+00  2
  30    32    56    55     1  1.800000e+02  5.860000e+00  2
  14    33    35    16     1  1.800000e+02  5.860000e+00  2
  36    34    35    16     1  1.800000e+02  5.860000e+00  2
  35    34    36    37     1  1.800000e+02  5.860000e+00  2
  35    34    58    56     1  1.800000e+02  5.860000e+00  2
  34    36    37    18     1  1.800000e+02  5.860000e+00  2
  34    36    60    59     1  1.800000e+02  5.860000e+00  2
  18    37    39    20     1  1.800000e+02  5.860000e+00  2
  40    38    39    20     1  1.800000e+02  5.860000e+00  2
  39    38    40    41     1  1.800000e+02  5.860000e+00  2
  39    38    62    60     1  1.800000e+02  5.860000e+00  2
  38    40    41    22     1  1.800000e+02  5.860000e+00  2
  38    40    64    63     1  1.800000e+02  5.860000e+00  2
  22    41    43    24     1  1.800000e+02  5.860000e+00  2
  44    42    43    24     1  1.800000e+02  5.860000e+00  2
  43    42    44    45     1  1.800000e+02  5.860000e+00  2
  43    42    66    64     1  1.800000e+02  5.860000e+00  2
  42    44    45    26     1  1.800000e+02  5.860000e+00  2
  42    44    68    67     1  1.800000e+02  5.860000e+00  2
  75    46    47    48     1  1.800000e+02  5.860000e+00  2
  47    46    75    73     1  1.800000e+02  5.860000e+00  2
  47    46   741   739     1  1.800000e+02  5.860000e+00  2
  46    47    48    50     1  1.800000e+02  5.860000e+00  2
  46    47    77    76     1  1.800000e+02  5.860000e+00  2
  47    48    50    27     1  1.800000e+02  5.860000e+00  2
  47    48   743   728     1  1.800000e+02  5.860000e+00  2
  51    49    50    27     1  1.800000e+02  5.860000e+00  2
  50    49    51    52     1  1.800000e+02  5.860000e+00  2
  50    49    79    77     1  1.800000e+02  5.860000e+00  2
  49    51    52    28     1  1.800000e+02  5.860000e+00  2
  49    51    81    80     1  1.800000e+02  5.860000e+00  2
  28    52    54    30     1  1.800000e+02  5.860000e+00  2
  55    53    54    30     1  1.800000e+02  5.860000e+00  2
  54    53    55    56     1  1.800000e+02  5.860000e+00  2
  54    53    83    81     1  1.800000e+02  5.860000e+00  2
  53    55    56    32     1  1.800000e+02  5.860000e+00  2
  53    55    85    84     1  1.800000e+02  5.860000e+00  2
  32    56    58    34     1  1.800000e+02  5.860000e+00  2
  59    57    58    34     1  1.800000e+02  5.860000e+00  2
  58    57    59    60     1  1.800000e+02  5.860000e+00  2
  58    57    87    85     1  1.800000e+02  5.860000e+00  2
  57    59    60    36     1  1.800000e+02  5.860000e+00  2
  57    59    89    88     1  1.800000e+02  5.860000e+00  2
  36    60    62    38     1  1.800000e+02  5.860000e+00  2
  63    61    62    38     1  1.800000e+02  5.860000e+00  2
  62    61    63    64     1  1.800000e+02  5.860000e+00  2
  62    61    91    89     1  1.800000e+02  5.860000e+00  2
  61    63    64    40     1  1.800000e+02  5.860000e+00  2
  61    63    93    92     1  1.800000e+02  5.860000e+00  2
  40    64    66    42     1  1.800000e+02  5.860000e+00  2
  67    65    66    42     1  1.800000e+02  5.860000e+00  2
  66    65    67    68     1  1.800000e+02  5.860000e+00  2
  66    65    95    93     1  1.800000e+02  5.860000e+00  2
  65    67    68    44     1  1.800000e+02  5.860000e+00  2
  65    67    97    96     1  1.800000e+02  5.860000e+00  2
  44    68    70    69     1  1.800000e+02  5.860000e+00  2
  99    69    70    68     1  1.800000e+02  5.860000e+00  2
  70    69    99    97     1  1.800000e+02  5.860000e+00  2
  68    70   773   774     1  1.800000e+02  1.670000e+01  2
 103    71    72    73     1  1.800000e+02  5.860000e+00  2
  72    71   103   101     1  1.800000e+02  5.860000e+00  2
  72    71   747   745     1  1.800000e+02  5.860000e+00  2
  71    72    73    75     1  1.800000e+02  5.860000e+00  2
  71    72   105   104     1  1.800000e+02  5.860000e+00  2
  72    73    75    46     1  1.800000e+02  5.860000e+00  2
  72    73   749   739     1  1.800000e+02  5.860000e+00  2
  76    74    75    46     1  1.800000e+02  5.860000e+00  2
  75    74    76    77     1  1.800000e+02  5.860000e+00  2
  75    74   107   105     1  1.800000e+02  5.860000e+00  2
  74    76    77    47     1  1.800000e+02  5.860000e+00  2
  74    76   109   108     1  1.800000e+02  5.860000e+00  2
  47    77    79    49     1  1.800000e+02  5.860000e+00  2
  80    78    79    49     1  1.800000e+02  5.860000e+00  2
  79    78    80    81     1  1.800000e+02  5.860000e+00  2
  79    78   111   109     1  1.800000e+02  5.860000e+00  2
  78    80    81    51     1  1.800000e+02  5.860000e+00  2
  78    80   113   112     1  1.800000e+02  5.860000e+00  2
  51    81    83    53     1  1.800000e+02  5.860000e+00  2
  84    82    83    53     1  1.800000e+02  5.860000e+00  2
  83    82    84    85     1  1.800000e+02  5.860000e+00  2
  83    82   115   113     1  1.800000e+02  5.860000e+00  2
  82    84    85    55     1  1.800000e+02  5.860000e+00  2
  82    84   117   116     1  1.800000e+02  5.860000e+00  2
  55    85    87    57     1  1.800000e+02  5.860000e+00  2
  88    86    87    57     1  1.800000e+02  5.860000e+00  2
  87    86    88    89     1  1.800000e+02  5.860000e+00  2
  87    86   119   117     1  1.800000e+02  5.860000e+00  2
  86    88    89    59     1  1.800000e+02  5.860000e+00  2
  86    88   121   120     1  1.800000e+02  5.860000e+00  2
  59    89    91    61     1  1.800000e+02  5.860000e+00  2
  92    90    91    61     1  1.800000e+02  5.860000e+00  2
  91    90    92    93     1  1.800000e+02  5.860000e+00  2
  91    90   123   121     1  1.800000e+02  5.860000e+00  2
  90    92    93    63     1  1.800000e+02  5.860000e+00  2
  90    92   125   124     1  1.800000e+02  5.860000e+00  2
  63    93    95    65     1  1.800000e+02  5.860000e+00  2
  96    94    95    65     1  1.800000e+02  5.860000e+00  2
  95    94    96    97     1  1.800000e+02  5.860000e+00  2
  95    94   127   125     1  1.800000e+02  5.860000e+00  2
  94    96    97    67     1  1.800000e+02  5.860000e+00  2
  94    96   129   128     1  1.800000e+02  5.860000e+00  2
  67    97    99    69     1  1.800000e+02  5.860000e+00  2
 100    98    99    69     1  1.800000e+02  5.860000e+00  2
  99    98   100   133     1  1.800000e+02  5.860000e+00  2
  99    98   131   129     1  1.800000e+02  5.860000e+00  2
  98   100   133   132     1  1.800000e+02  5.860000e+00  2
 750   101   103    71     1  1.800000e+02  5.860000e+00  2
 103   101   750   745     1  1.800000e+02  5.860000e+00  2
 103   101   759   760     1  1.800000e+02  1.670000e+01  2
 104   102   103    71     1  1.800000e+02  5.860000e+00  2
 103   102   104   105     1  1.800000e+02  5.860000e+00  2
 103   102   135   134     1  1.800000e+02  5.860000e+00  2
 102   104   105    72     1  1.800000e+02  5.860000e+00  2
 102   104   137   136     1  1.800000e+02  5.860000e+00  2
  72   105   107    74     1  1.800000e+02  5.860000e+00  2
 108   106   107    74     1  1.800000e+02  5.860000e+00  2
 107   106   108   109     1  1.800000e+02  5.860000e+00  2
 107   106   139   137     1  1.800000e+02  5.860000e+00  2
 106   108   109    76     1  1.800000e+02  5.860000e+00  2
 106   108   141   140     1  1.800000e+02  5.860000e+00  2
  76   109   111    78     1  1.800000e+02  5.860000e+00  2
 112   110   111    78     1  1.800000e+02  5.860000e+00  2
 111   110   112   113     1  1.800000e+02  5.860000e+00  2
 111   110   143   141     1  1.800000e+02  5.860000e+00  2
 110   112   113    80     1  1.800000e+02  5.860000e+00  2
 110   112   145   144     1  1.800000e+02  5.860000e+00  2
  80   113   115    82     1  1.800000e+02  5.860000e+00  2
 116   114   115    82     1  1.800000e+02  5.860000e+00  2
 115   114   116   117     1  1.800000e+02  5.860000e+00  2
 115   114   147   145     1  1.800000e+02  5.860000e+00  2
 114   116   117    84     1  1.800000e+02  5.860000e+00  2
 114   116   149   148     1  1.800000e+02  5.860000e+00  2
  84   117   119    86     1  1.800000e+02  5.860000e+00  2
 120   118   119    86     1  1.800000e+02  5.860000e+00  2
 119   118   120   121     1  1.800000e+02  5.860000e+00  2
 119   118   151   149     1  1.800000e+02  5.860000e+00  2
 118   120   121    88     1  1.800000e+02  5.860000e+00  2
 118   120   153   152     1  1.800000e+02  5.860000e+00  2
  88   121   123    90     1  1.800000e+02  5.860000e+00  2
 124   122   123    90     1  1.800000e+02  5.860000e+00  2
 123   122   124   125     1  1.800000e+02  5.860000e+00  2
 123   122   155   153     1  1.800000e+02  5.860000e+00  2
 122   124   125    92     1  1.800000e+02  5.860000e+00  2
 122   124   157   156     1  1.800000e+02  5.860000e+00  2
  92   125   127    94     1  1.800000e+02  5.860000e+00  2
 128   126   127    94     1  1.800000e+02  5.860000e+00  2
 127   126   128   129     1  1.800000e+02  5.860000e+00  2
 127   126   159   157     1  1.800000e+02  5.860000e+00  2
 126   128   129    96     1  1.800000e+02  5.860000e+00  2
 126   128   161   160     1  1.800000e+02  5.860000e+00  2
  96   129   131    98     1  1.800000e+02  5.860000e+00  2
 132   130   131    98     1  1.800000e+02  5.860000e+00  2
 131   130   132   133     1  1.800000e+02  5.860000e+00  2
 131   130   163   161     1  1.800000e+02  5.860000e+00  2
 130   132   133   100     1  1.800000e+02  5.860000e+00  2
 130   132   165   164     1  1.800000e+02  5.860000e+00  2
 136   134   135   102     1  1.800000e+02  5.860000e+00  2
 135   134   136   137     1  1.800000e+02  5.860000e+00  2
 134   136   137   104     1  1.800000e+02  5.860000e+00  2
 134   136   169   168     1  1.800000e+02  5.860000e+00  2
 104   137   139   106     1  1.800000e+02  5.860000e+00  2
 140   138   139   106     1  1.800000e+02  5.860000e+00  2
 139   138   140   141     1  1.800000e+02  5.860000e+00  2
 139   138   171   169     1  1.800000e+02  5.860000e+00  2
 138   140   141   108     1  1.800000e+02  5.860000e+00  2
 138   140   173   172     1  1.800000e+02  5.860000e+00  2
 108   141   143   110     1  1.800000e+02  5.860000e+00  2
 144   142   143   110     1  1.800000e+02  5.860000e+00  2
 143   142   144   145     1  1.800000e+02  5.860000e+00  2
 143   142   175   173     1  1.800000e+02  5.860000e+00  2
 142   144   145   112     1  1.800000e+02  5.860000e+00  2
 142   144   177   176     1  1.800000e+02  5.860000e+00  2
 112   145   147   114     1  1.800000e+02  5.860000e+00  2
 148   146   147   114     1  1.800000e+02  5.860000e+00  2
 147   146   148   149     1  1.800000e+02  5.860000e+00  2
 147   146   179   177     1  1.800000e+02  5.860000e+00  2
 146   148   149   116     1  1.800000e+02  5.860000e+00  2
 146   148   181   180     1  1.800000e+02  5.860000e+00  2
 116   149   151   118     1  1.800000e+02  5.860000e+00  2
 152   150   151   118     1  1.800000e+02  5.860000e+00  2
 151   150   152   153     1  1.800000e+02  5.860000e+00  2
 151   150   183   181     1  1.800000e+02  5.860000e+00  2
 150   152   153   120     1  1.800000e+02  5.860000e+00  2
 150   152   185   184     1  1.800000e+02  5.860000e+00  2
 120   153   155   122     1  1.800000e+02  5.860000e+00  2
 156   154   155   122     1  1.800000e+02  5.860000e+00  2
 155   154   156   157     1  1.800000e+02  5.860000e+00  2
 155   154   187   185     1  1.800000e+02  5.860000e+00  2
 154   156   157   124     1  1.800000e+02  5.860000e+00  2
 154   156   189   188     1  1.800000e+02  5.860000e+00  2
 124   157   159   126     1  1.800000e+02  5.860000e+00  2
 160   158   159   126     1  1.800000e+02  5.860000e+00  2
 159   158   160   161     1  1.800000e+02  5.860000e+00  2
 159   158   191   189     1  1.800000e+02  5.860000e+00  2
 158   160   161   128     1  1.800000e+02  5.860000e+00  2
 158   160   193   192     1  1.800000e+02  5.860000e+00  2
 128   161   163   130     1  1.800000e+02  5.860000e+00  2
 164   162   163   130     1  1.800000e+02  5.860000e+00  2
 163   162   164   165     1  1.800000e+02  5.860000e+00  2
 163   162   195   193     1  1.800000e+02  5.860000e+00  2
 162   164   165   132     1  1.800000e+02  5.860000e+00  2
 162   164   197   196     1  1.800000e+02  5.860000e+00  2
 132   165   167   166     1  1.800000e+02  5.860000e+00  2
 199   166   167   165     1  1.800000e+02  5.860000e+00  2
 167   166   199   197     1  1.800000e+02  5.860000e+00  2
 165   167   771   772     1  1.800000e+02  1.670000e+01  2
 201   168   169   136     1  1.800000e+02  5.860000e+00  2
 169   168   201   203     1  1.800000e+02  5.860000e+00  2
 136   169   171   138     1  1.800000e+02  5.860000e+00  2
 172   170   171   138     1  1.800000e+02  5.860000e+00  2
 171   170   172   173     1  1.800000e+02  5.860000e+00  2
 171   170   203   201     1  1.800000e+02  5.860000e+00  2
 170   172   173   140     1  1.800000e+02  5.860000e+00  2
 170   172   205   204     1  1.800000e+02  5.860000e+00  2
 140   173   175   142     1  1.800000e+02  5.860000e+00  2
 176   174   175   142     1  1.800000e+02  5.860000e+00  2
 175   174   176   177     1  1.800000e+02  5.860000e+00  2
 175   174   207   205     1  1.800000e+02  5.860000e+00  2
 174   176   177   144     1  1.800000e+02  5.860000e+00  2
 174   176   209   208     1  1.800000e+02  5.860000e+00  2
 144   177   179   146     1  1.800000e+02  5.860000e+00  2
 180   178   179   146     1  1.800000e+02  5.860000e+00  2
 179   178   180   181     1  1.800000e+02  5.860000e+00  2
 179   178   211   209     1  1.800000e+02  5.860000e+00  2
 178   180   181   148     1  1.800000e+02  5.860000e+00  2
 178   180   213   212     1  1.800000e+02  5.860000e+00  2
 148   181   183   150     1  1.800000e+02  5.860000e+00  2
 184   182   183   150     1  1.800000e+02  5.860000e+00  2
 183   182   184   185     1  1.800000e+02  5.860000e+00  2
 183   182   215   213     1  1.800000e+02  5.860000e+00  2
 182   184   185   152     1  1.800000e+02  5.860000e+00  2
 182   184   217   216     1  1.800000e+02  5.860000e+00  2
 152   185   187   154     1  1.800000e+02  5.860000e+00  2
 188   186   187   154     1  1.800000e+02  5.860000e+00  2
 187   186   188   189     1  1.800000e+02  5.860000e+00  2
 187   186   219   217     1  1.800000e+02  5.860000e+00  2
 186   188   189   156     1  1.800000e+02  5.860000e+00  2
 186   188   221   220     1  1.800000e+02  5.860000e+00  2
 156   189   191   158     1  1.800000e+02  5.860000e+00  2
 192   190   191   158     1  1.800000e+02  5.860000e+00  2
 191   190   192   193     1  1.800000e+02  5.860000e+00  2
 191   190   223   221     1  1.800000e+02  5.860000e+00  2
 190   192   193   160     1  1.800000e+02  5.860000e+00  2
 190   192   225   224     1  1.800000e+02  5.860000e+00  2
 160   193   195   162     1  1.800000e+02  5.860000e+00  2
 196   194   195   162     1  1.800000e+02  5.860000e+00  2
 195   194   196   197     1  1.800000e+02  5.860000e+00  2
 195   194   227   225     1  1.800000e+02  5.860000e+00  2
 194   196   197   164     1  1.800000e+02  5.860000e+00  2
 194   196   229   228     1  1.800000e+02  5.860000e+00  2
 164   197   199   166     1  1.800000e+02  5.860000e+00  2
 200   198   199   166     1  1.800000e+02  5.860000e+00  2
 199   198   200   233     1  1.800000e+02  5.860000e+00  2
 199   198   231   229     1  1.800000e+02  5.860000e+00  2
 198   200   233   232     1  1.800000e+02  5.860000e+00  2
 168   201   203   170     1  1.800000e+02  5.860000e+00  2
 168   201   763   764     1  1.800000e+02  5.860000e+00  2
 203   201   763   764     1  1.800000e+02  1.670000e+01  2
 204   202   203   170     1  1.800000e+02  5.860000e+00  2
 203   202   204   205     1  1.800000e+02  5.860000e+00  2
 203   202   235   234     1  1.800000e+02  5.860000e+00  2
 202   204   205   172     1  1.800000e+02  5.860000e+00  2
 202   204   237   236     1  1.800000e+02  5.860000e+00  2
 172   205   207   174     1  1.800000e+02  5.860000e+00  2
 208   206   207   174     1  1.800000e+02  5.860000e+00  2
 207   206   208   209     1  1.800000e+02  5.860000e+00  2
 207   206   239   237     1  1.800000e+02  5.860000e+00  2
 206   208   209   176     1  1.800000e+02  5.860000e+00  2
 206   208   241   240     1  1.800000e+02  5.860000e+00  2
 176   209   211   178     1  1.800000e+02  5.860000e+00  2
 212   210   211   178     1  1.800000e+02  5.860000e+00  2
 211   210   212   213     1  1.800000e+02  5.860000e+00  2
 211   210   243   241     1  1.800000e+02  5.860000e+00  2
 210   212   213   180     1  1.800000e+02  5.860000e+00  2
 210   212   245   244     1  1.800000e+02  5.860000e+00  2
 180   213   215   182     1  1.800000e+02  5.860000e+00  2
 216   214   215   182     1  1.800000e+02  5.860000e+00  2
 215   214   216   217     1  1.800000e+02  5.860000e+00  2
 215   214   247   245     1  1.800000e+02  5.860000e+00  2
 214   216   217   184     1  1.800000e+02  5.860000e+00  2
 214   216   249   248     1  1.800000e+02  5.860000e+00  2
 184   217   219   186     1  1.800000e+02  5.860000e+00  2
 220   218   219   186     1  1.800000e+02  5.860000e+00  2
 219   218   220   221     1  1.800000e+02  5.860000e+00  2
 219   218   251   249     1  1.800000e+02  5.860000e+00  2
 218   220   221   188     1  1.800000e+02  5.860000e+00  2
 218   220   253   252     1  1.800000e+02  5.860000e+00  2
 188   221   223   190     1  1.800000e+02  5.860000e+00  2
 224   222   223   190     1  1.800000e+02  5.860000e+00  2
 223   222   224   225     1  1.800000e+02  5.860000e+00  2
 223   222   255   253     1  1.800000e+02  5.860000e+00  2
 222   224   225   192     1  1.800000e+02  5.860000e+00  2
 222   224   257   256     1  1.800000e+02  5.860000e+00  2
 192   225   227   194     1  1.800000e+02  5.860000e+00  2
 228   226   227   194     1  1.800000e+02  5.860000e+00  2
 227   226   228   229     1  1.800000e+02  5.860000e+00  2
 227   226   259   257     1  1.800000e+02  5.860000e+00  2
 226   228   229   196     1  1.800000e+02  5.860000e+00  2
 226   228   261   260     1  1.800000e+02  5.860000e+00  2
 196   229   231   198     1  1.800000e+02  5.860000e+00  2
 232   230   231   198     1  1.800000e+02  5.860000e+00  2
 231   230   232   233     1  1.800000e+02  5.860000e+00  2
 231   230   263   261     1  1.800000e+02  5.860000e+00  2
 230   232   233   200     1  1.800000e+02  5.860000e+00  2
 230   232   265   264     1  1.800000e+02  5.860000e+00  2
 236   234   235   202     1  1.800000e+02  5.860000e+00  2
 235   234   236   237     1  1.800000e+02  5.860000e+00  2
 234   236   237   204     1  1.800000e+02  5.860000e+00  2
 234   236   269   268     1  1.800000e+02  5.860000e+00  2
 204   237   239   206     1  1.800000e+02  5.860000e+00  2
 240   238   239   206     1  1.800000e+02  5.860000e+00  2
 239   238   240   241     1  1.800000e+02  5.860000e+00  2
 239   238   271   269     1  1.800000e+02  5.860000e+00  2
 238   240   241   208     1  1.800000e+02  5.860000e+00  2
 238   240   273   272     1  1.800000e+02  5.860000e+00  2
 208   241   243   210     1  1.800000e+02  5.860000e+00  2
 244   242   243   210     1  1.800000e+02  5.860000e+00  2
 243   242   244   245     1  1.800000e+02  5.860000e+00  2
 243   242   275   273     1  1.800000e+02  5.860000e+00  2
 242   244   245   212     1  1.800000e+02  5.860000e+00  2
 242   244   277   276     1  1.800000e+02  5.860000e+00  2
 212   245   247   214     1  1.800000e+02  5.860000e+00  2
 248   246   247   214     1  1.800000e+02  5.860000e+00  2
 247   246   248   249     1  1.800000e+02  5.860000e+00  2
 247   246   279   277     1  1.800000e+02  5.860000e+00  2
 246   248   249   216     1  1.800000e+02  5.860000e+00  2
 246   248   281   280     1  1.800000e+02  5.860000e+00  2
 216   249   251   218     1  1.800000e+02  5.860000e+00  2
 252   250   251   218     1  1.800000e+02  5.860000e+00  2
 251   250   252   253     1  1.800000e+02  5.860000e+00  2
 251   250   283   281     1  1.800000e+02  5.860000e+00  2
 250   252   253   220     1  1.800000e+02  5.860000e+00  2
 250   252   285   284     1  1.800000e+02  5.860000e+00  2
 220   253   255   222     1  1.800000e+02  5.860000e+00  2
 256   254   255   222     1  1.800000e+02  5.860000e+00  2
 255   254   256   257     1  1.800000e+02  5.860000e+00  2
 255   254   287   285     1  1.800000e+02  5.860000e+00  2
 254   256   257   224     1  1.800000e+02  5.860000e+00  2
 254   256   289   288     1  1.800000e+02  5.860000e+00  2
 224   257   259   226     1  1.800000e+02  5.860000e+00  2
 260   258   259   226     1  1.800000e+02  5.860000e+00  2
 259   258   260   261     1  1.800000e+02  5.860000e+00  2
 259   258   291   289     1  1.800000e+02  5.860000e+00  2
 258   260   261   228     1  1.800000e+02  5.860000e+00  2
 258   260   293   292     1  1.800000e+02  5.860000e+00  2
 228   261   263   230     1  1.800000e+02  5.860000e+00  2
 264   262   263   230     1  1.800000e+02  5.860000e+00  2
 263   262   264   265     1  1.800000e+02  5.860000e+00  2
 263   262   295   293     1  1.800000e+02  5.860000e+00  2
 262   264   265   232     1  1.800000e+02  5.860000e+00  2
 262   264   297   296     1  1.800000e+02  5.860000e+00  2
 232   265   267   266     1  1.800000e+02  5.860000e+00  2
 299   266   267   265     1  1.800000e+02  5.860000e+00  2
 267   266   299   297     1  1.800000e+02  5.860000e+00  2
 265   267   767   768     1  1.800000e+02  1.670000e+01  2
 301   268   269   236     1  1.800000e+02  5.860000e+00  2
 269   268   301   303     1  1.800000e+02  5.860000e+00  2
 236   269   271   238     1  1.800000e+02  5.860000e+00  2
 272   270   271   238     1  1.800000e+02  5.860000e+00  2
 271   270   272   273     1  1.800000e+02  5.860000e+00  2
 271   270   303   301     1  1.800000e+02  5.860000e+00  2
 270   272   273   240     1  1.800000e+02  5.860000e+00  2
 270   272   305   304     1  1.800000e+02  5.860000e+00  2
 240   273   275   242     1  1.800000e+02  5.860000e+00  2
 276   274   275   242     1  1.800000e+02  5.860000e+00  2
 275   274   276   277     1  1.800000e+02  5.860000e+00  2
 275   274   307   305     1  1.800000e+02  5.860000e+00  2
 274   276   277   244     1  1.800000e+02  5.860000e+00  2
 274   276   309   308     1  1.800000e+02  5.860000e+00  2
 244   277   279   246     1  1.800000e+02  5.860000e+00  2
 280   278   279   246     1  1.800000e+02  5.860000e+00  2
 279   278   280   281     1  1.800000e+02  5.860000e+00  2
 279   278   311   309     1  1.800000e+02  5.860000e+00  2
 278   280   281   248     1  1.800000e+02  5.860000e+00  2
 278   280   313   312     1  1.800000e+02  5.860000e+00  2
 248   281   283   250     1  1.800000e+02  5.860000e+00  2
 284   282   283   250     1  1.800000e+02  5.860000e+00  2
 283   282   284   285     1  1.800000e+02  5.860000e+00  2
 283   282   315   313     1  1.800000e+02  5.860000e+00  2
 282   284   285   252     1  1.800000e+02  5.860000e+00  2
 282   284   317   316     1  1.800000e+02  5.860000e+00  2
 252   285   287   254     1  1.800000e+02  5.860000e+00  2
 288   286   287   254     1  1.800000e+02  5.860000e+00  2
 287   286   288   289     1  1.800000e+02  5.860000e+00  2
 287   286   319   317     1  1.800000e+02  5.860000e+00  2
 286   288   289   256     1  1.800000e+02  5.860000e+00  2
 286   288   321   320     1  1.800000e+02  5.860000e+00  2
 256   289   291   258     1  1.800000e+02  5.860000e+00  2
 292   290   291   258     1  1.800000e+02  5.860000e+00  2
 291   290   292   293     1  1.800000e+02  5.860000e+00  2
 291   290   323   321     1  1.800000e+02  5.860000e+00  2
 290   292   293   260     1  1.800000e+02  5.860000e+00  2
 290   292   325   324     1  1.800000e+02  5.860000e+00  2
 260   293   295   262     1  1.800000e+02  5.860000e+00  2
 296   294   295   262     1  1.800000e+02  5.860000e+00  2
 295   294   296   297     1  1.800000e+02  5.860000e+00  2
 295   294   327   325     1  1.800000e+02  5.860000e+00  2
 294   296   297   264     1  1.800000e+02  5.860000e+00  2
 294   296   329   328     1  1.800000e+02  5.860000e+00  2
 264   297   299   266     1  1.800000e+02  5.860000e+00  2
 300   298   299   266     1  1.800000e+02  5.860000e+00  2
 299   298   300   333     1  1.800000e+02  5.860000e+00  2
 299   298   331   329     1  1.800000e+02  5.860000e+00  2
 298   300   333   332     1  1.800000e+02  5.860000e+00  2
 268   301   303   270     1  1.800000e+02  5.860000e+00  2
 268   301   761   762     1  1.800000e+02  5.860000e+00  2
 303   301   761   762     1  1.800000e+02  1.670000e+01  2
 304   302   303   270     1  1.800000e+02  5.860000e+00  2
 303   302   304   305     1  1.800000e+02  5.860000e+00  2
 303   302   335   334     1  1.800000e+02  5.860000e+00  2
 302   304   305   272     1  1.800000e+02  5.860000e+00  2
 302   304   337   336     1  1.800000e+02  5.860000e+00  2
 272   305   307   274     1  1.800000e+02  5.860000e+00  2
 308   306   307   274     1  1.800000e+02  5.860000e+00  2
 307   306   308   309     1  1.800000e+02  5.860000e+00  2
 307   306   339   337     1  1.800000e+02  5.860000e+00  2
 306   308   309   276     1  1.800000e+02  5.860000e+00  2
 306   308   341   340     1  1.800000e+02  5.860000e+00  2
 276   309   311   278     1  1.800000e+02  5.860000e+00  2
 312   310   311   278     1  1.800000e+02  5.860000e+00  2
 311   310   312   313     1  1.800000e+02  5.860000e+00  2
 311   310   343   341     1  1.800000e+02  5.860000e+00  2
 310   312   313   280     1  1.800000e+02  5.860000e+00  2
 310   312   345   344     1  1.800000e+02  5.860000e+00  2
 280   313   315   282     1  1.800000e+02  5.860000e+00  2
 316   314   315   282     1  1.800000e+02  5.860000e+00  2
 315   314   316   317     1  1.800000e+02  5.860000e+00  2
 315   314   347   345     1  1.800000e+02  5.860000e+00  2
 314   316   317   284     1  1.800000e+02  5.860000e+00  2
 314   316   349   348     1  1.800000e+02  5.860000e+00  2
 284   317   319   286     1  1.800000e+02  5.860000e+00  2
 320   318   319   286     1  1.800000e+02  5.860000e+00  2
 319   318   320   321     1  1.800000e+02  5.860000e+00  2
 319   318   351   349     1  1.800000e+02  5.860000e+00  2
 318   320   321   288     1  1.800000e+02  5.860000e+00  2
 318   320   353   352     1  1.800000e+02  5.860000e+00  2
 288   321   323   290     1  1.800000e+02  5.860000e+00  2
 324   322   323   290     1  1.800000e+02  5.860000e+00  2
 323   322   324   325     1  1.800000e+02  5.860000e+00  2
 323   322   355   353     1  1.800000e+02  5.860000e+00  2
 322   324   325   292     1  1.800000e+02  5.860000e+00  2
 322   324   357   356     1  1.800000e+02  5.860000e+00  2
 292   325   327   294     1  1.800000e+02  5.860000e+00  2
 328   326   327   294     1  1.800000e+02  5.860000e+00  2
 327   326   328   329     1  1.800000e+02  5.860000e+00  2
 327   326   359   357     1  1.800000e+02  5.860000e+00  2
 326   328   329   296     1  1.800000e+02  5.860000e+00  2
 326   328   361   360     1  1.800000e+02  5.860000e+00  2
 296   329   331   298     1  1.800000e+02  5.860000e+00  2
 332   330   331   298     1  1.800000e+02  5.860000e+00  2
 331   330   332   333     1  1.800000e+02  5.860000e+00  2
 331   330   363   361     1  1.800000e+02  5.860000e+00  2
 330   332   333   300     1  1.800000e+02  5.860000e+00  2
 330   332   365   364     1  1.800000e+02  5.860000e+00  2
 300   333   765   766     1  1.800000e+02  5.860000e+00  2
 332   333   765   766     1  1.800000e+02  1.670000e+01  2
 336   334   335   302     1  1.800000e+02  5.860000e+00  2
 335   334   336   337     1  1.800000e+02  5.860000e+00  2
 334   336   337   304     1  1.800000e+02  5.860000e+00  2
 334   336   369   368     1  1.800000e+02  5.860000e+00  2
 304   337   339   306     1  1.800000e+02  5.860000e+00  2
 340   338   339   306     1  1.800000e+02  5.860000e+00  2
 339   338   340   341     1  1.800000e+02  5.860000e+00  2
 339   338   371   369     1  1.800000e+02  5.860000e+00  2
 338   340   341   308     1  1.800000e+02  5.860000e+00  2
 338   340   373   372     1  1.800000e+02  5.860000e+00  2
 308   341   343   310     1  1.800000e+02  5.860000e+00  2
 344   342   343   310     1  1.800000e+02  5.860000e+00  2
 343   342   344   345     1  1.800000e+02  5.860000e+00  2
 343   342   375   373     1  1.800000e+02  5.860000e+00  2
 342   344   345   312     1  1.800000e+02  5.860000e+00  2
 342   344   377   376     1  1.800000e+02  5.860000e+00  2
 312   345   347   314     1  1.800000e+02  5.860000e+00  2
 348   346   347   314     1  1.800000e+02  5.860000e+00  2
 347   346   348   349     1  1.800000e+02  5.860000e+00  2
 347   346   379   377     1  1.800000e+02  5.860000e+00  2
 346   348   349   316     1  1.800000e+02  5.860000e+00  2
 346   348   381   380     1  1.800000e+02  5.860000e+00  2
 316   349   351   318     1  1.800000e+02  5.860000e+00  2
 352   350   351   318     1  1.800000e+02  5.860000e+00  2
 351   350   352   353     1  1.800000e+02  5.860000e+00  2
 351   350   383   381     1  1.800000e+02  5.860000e+00  2
 350   352   353   320     1  1.800000e+02  5.860000e+00  2
 350   352   385   384     1  1.800000e+02  5.860000e+00  2
 320   353   355   322     1  1.800000e+02  5.860000e+00  2
 356   354   355   322     1  1.800000e+02  5.860000e+00  2
 355   354   356   357     1  1.800000e+02  5.860000e+00  2
 355   354   387   385     1  1.800000e+02  5.860000e+00  2
 354   356   357   324     1  1.800000e+02  5.860000e+00  2
 354   356   389   388     1  1.800000e+02  5.860000e+00  2
 324   357   359   326     1  1.800000e+02  5.860000e+00  2
 360   358   359   326     1  1.800000e+02  5.860000e+00  2
 359   358   360   361     1  1.800000e+02  5.860000e+00  2
 359   358   391   389     1  1.800000e+02  5.860000e+00  2
 358   360   361   328     1  1.800000e+02  5.860000e+00  2
 358   360   393   392     1  1.800000e+02  5.860000e+00  2
 328   361   363   330     1  1.800000e+02  5.860000e+00  2
 364   362   363   330     1  1.800000e+02  5.860000e+00  2
 363   362   364   365     1  1.800000e+02  5.860000e+00  2
 363   362   395   393     1  1.800000e+02  5.860000e+00  2
 362   364   365   332     1  1.800000e+02  5.860000e+00  2
 362   364   397   396     1  1.800000e+02  5.860000e+00  2
 332   365   367   366     1  1.800000e+02  5.860000e+00  2
 399   366   367   365     1  1.800000e+02  5.860000e+00  2
 367   366   399   397     1  1.800000e+02  5.860000e+00  2
 401   368   369   336     1  1.800000e+02  5.860000e+00  2
 369   368   401   403     1  1.800000e+02  5.860000e+00  2
 336   369   371   338     1  1.800000e+02  5.860000e+00  2
 372   370   371   338     1  1.800000e+02  5.860000e+00  2
 371   370   372   373     1  1.800000e+02  5.860000e+00  2
 371   370   403   401     1  1.800000e+02  5.860000e+00  2
 370   372   373   340     1  1.800000e+02  5.860000e+00  2
 370   372   405   404     1  1.800000e+02  5.860000e+00  2
 340   373   375   342     1  1.800000e+02  5.860000e+00  2
 376   374   375   342     1  1.800000e+02  5.860000e+00  2
 375   374   376   377     1  1.800000e+02  5.860000e+00  2
 375   374   407   405     1  1.800000e+02  5.860000e+00  2
 374   376   377   344     1  1.800000e+02  5.860000e+00  2
 374   376   409   408     1  1.800000e+02  5.860000e+00  2
 344   377   379   346     1  1.800000e+02  5.860000e+00  2
 380   378   379   346     1  1.800000e+02  5.860000e+00  2
 379   378   380   381     1  1.800000e+02  5.860000e+00  2
 379   378   411   409     1  1.800000e+02  5.860000e+00  2
 378   380   381   348     1  1.800000e+02  5.860000e+00  2
 378   380   413   412     1  1.800000e+02  5.860000e+00  2
 348   381   383   350     1  1.800000e+02  5.860000e+00  2
 384   382   383   350     1  1.800000e+02  5.860000e+00  2
 383   382   384   385     1  1.800000e+02  5.860000e+00  2
 383   382   415   413     1  1.800000e+02  5.860000e+00  2
 382   384   385   352     1  1.800000e+02  5.860000e+00  2
 382   384   417   416     1  1.800000e+02  5.860000e+00  2
 352   385   387   354     1  1.800000e+02  5.860000e+00  2
 388   386   387   354     1  1.800000e+02  5.860000e+00  2
 387   386   388   389     1  1.800000e+02  5.860000e+00  2
 387   386   419   417     1  1.800000e+02  5.860000e+00  2
 386   388   389   356     1  1.800000e+02  5.860000e+00  2
 386   388   421   420     1  1.800000e+02  5.860000e+00  2
 356   389   391   358     1  1.800000e+02  5.860000e+00  2
 392   390   391   358     1  1.800000e+02  5.860000e+00  2
 391   390   392   393     1  1.800000e+02  5.860000e+00  2
 391   390   423   421     1  1.800000e+02  5.860000e+00  2
 390   392   393   360     1  1.800000e+02  5.860000e+00  2
 390   392   425   424     1  1.800000e+02  5.860000e+00  2
 360   393   395   362     1  1.800000e+02  5.860000e+00  2
 396   394   395   362     1  1.800000e+02  5.860000e+00  2
 395   394   396   397     1  1.800000e+02  5.860000e+00  2
 395   394   427   425     1  1.800000e+02  5.860000e+00  2
 394   396   397   364     1  1.800000e+02  5.860000e+00  2
 394   396   429   428     1  1.800000e+02  5.860000e+00  2
 364   397   399   366     1  1.800000e+02  5.860000e+00  2
 400   398   399   366     1  1.800000e+02  5.860000e+00  2
 399   398   400   433     1  1.800000e+02  5.860000e+00  2
 399   398   431   429     1  1.800000e+02  5.860000e+00  2
 398   400   433   432     1  1.800000e+02  5.860000e+00  2
 368   401   403   370     1  1.800000e+02  5.860000e+00  2
 368   401   755   756     1  1.800000e+02  5.860000e+00  2
 403   401   755   756     1  1.800000e+02  1.670000e+01  2
 404   402   403   370     1  1.800000e+02  5.860000e+00  2
 403   402   404   405     1  1.800000e+02  5.860000e+00  2
 403   402   435   434     1  1.800000e+02  5.860000e+00  2
 402   404   405   372     1  1.800000e+02  5.860000e+00  2
 402   404   437   436     1  1.800000e+02  5.860000e+00  2
 372   405   407   374     1  1.800000e+02  5.860000e+00  2
 408   406   407   374     1  1.800000e+02  5.860000e+00  2
 407   406   408   409     1  1.800000e+02  5.860000e+00  2
 407   406   439   437     1  1.800000e+02  5.860000e+00  2
 406   408   409   376     1  1.800000e+02  5.860000e+00  2
 406   408   441   440     1  1.800000e+02  5.860000e+00  2
 376   409   411   378     1  1.800000e+02  5.860000e+00  2
 412   410   411   378     1  1.800000e+02  5.860000e+00  2
 411   410   412   413     1  1.800000e+02  5.860000e+00  2
 411   410   443   441     1  1.800000e+02  5.860000e+00  2
 410   412   413   380     1  1.800000e+02  5.860000e+00  2
 410   412   445   444     1  1.800000e+02  5.860000e+00  2
 380   413   415   382     1  1.800000e+02  5.860000e+00  2
 416   414   415   382     1  1.800000e+02  5.860000e+00  2
 415   414   416   417     1  1.800000e+02  5.860000e+00  2
 415   414   447   445     1  1.800000e+02  5.860000e+00  2
 414   416   417   384     1  1.800000e+02  5.860000e+00  2
 414   416   449   448     1  1.800000e+02  5.860000e+00  2
 384   417   419   386     1  1.800000e+02  5.860000e+00  2
 420   418   419   386     1  1.800000e+02  5.860000e+00  2
 419   418   420   421     1  1.800000e+02  5.860000e+00  2
 419   418   451   449     1  1.800000e+02  5.860000e+00  2
 418   420   421   388     1  1.800000e+02  5.860000e+00  2
 418   420   453   452     1  1.800000e+02  5.860000e+00  2
 388   421   423   390     1  1.800000e+02  5.860000e+00  2
 424   422   423   390     1  1.800000e+02  5.860000e+00  2
 423   422   424   425     1  1.800000e+02  5.860000e+00  2
 423   422   455   453     1  1.800000e+02  5.860000e+00  2
 422   424   425   392     1  1.800000e+02  5.860000e+00  2
 422   424   457   456     1  1.800000e+02  5.860000e+00  2
 392   425   427   394     1  1.800000e+02  5.860000e+00  2
 428   426   427   394     1  1.800000e+02  5.860000e+00  2
 427   426   428   429     1  1.800000e+02  5.860000e+00  2
 427   426   459   457     1  1.800000e+02  5.860000e+00  2
 426   428   429   396     1  1.800000e+02  5.860000e+00  2
 426   428   461   460     1  1.800000e+02  5.860000e+00  2
 396   429   431   398     1  1.800000e+02  5.860000e+00  2
 432   430   431   398     1  1.800000e+02  5.860000e+00  2
 431   430   432   433     1  1.800000e+02  5.860000e+00  2
 431   430   463   461     1  1.800000e+02  5.860000e+00  2
 430   432   433   400     1  1.800000e+02  5.860000e+00  2
 430   432   465   464     1  1.800000e+02  5.860000e+00  2
 436   434   435   402     1  1.800000e+02  5.860000e+00  2
 435   434   436   437     1  1.800000e+02  5.860000e+00  2
 434   436   437   404     1  1.800000e+02  5.860000e+00  2
 434   436   469   468     1  1.800000e+02  5.860000e+00  2
 404   437   439   406     1  1.800000e+02  5.860000e+00  2
 440   438   439   406     1  1.800000e+02  5.860000e+00  2
 439   438   440   441     1  1.800000e+02  5.860000e+00  2
 439   438   471   469     1  1.800000e+02  5.860000e+00  2
 438   440   441   408     1  1.800000e+02  5.860000e+00  2
 438   440   473   472     1  1.800000e+02  5.860000e+00  2
 408   441   443   410     1  1.800000e+02  5.860000e+00  2
 444   442   443   410     1  1.800000e+02  5.860000e+00  2
 443   442   444   445     1  1.800000e+02  5.860000e+00  2
 443   442   475   473     1  1.800000e+02  5.860000e+00  2
 442   444   445   412     1  1.800000e+02  5.860000e+00  2
 442   444   477   476     1  1.800000e+02  5.860000e+00  2
 412   445   447   414     1  1.800000e+02  5.860000e+00  2
 448   446   447   414     1  1.800000e+02  5.860000e+00  2
 447   446   448   449     1  1.800000e+02  5.860000e+00  2
 447   446   479   477     1  1.800000e+02  5.860000e+00  2
 446   448   449   416     1  1.800000e+02  5.860000e+00  2
 446   448   481   480     1  1.800000e+02  5.860000e+00  2
 416   449   451   418     1  1.800000e+02  5.860000e+00  2
 452   450   451   418     1  1.800000e+02  5.860000e+00  2
 451   450   452   453     1  1.800000e+02  5.860000e+00  2
 451   450   483   481     1  1.800000e+02  5.860000e+00  2
 450   452   453   420     1  1.800000e+02  5.860000e+00  2
 450   452   485   484     1  1.800000e+02  5.860000e+00  2
 420   453   455   422     1  1.800000e+02  5.860000e+00  2
 456   454   455   422     1  1.800000e+02  5.860000e+00  2
 455   454   456   457     1  1.800000e+02  5.860000e+00  2
 455   454   487   485     1  1.800000e+02  5.860000e+00  2
 454   456   457   424     1  1.800000e+02  5.860000e+00  2
 454   456   489   488     1  1.800000e+02  5.860000e+00  2
 424   457   459   426     1  1.800000e+02  5.860000e+00  2
 460   458   459   426     1  1.800000e+02  5.860000e+00  2
 459   458   460   461     1  1.800000e+02  5.860000e+00  2
 459   458   491   489     1  1.800000e+02  5.860000e+00  2
 458   460   461   428     1  1.800000e+02  5.860000e+00  2
 458   460   493   492     1  1.800000e+02  5.860000e+00  2
 428   461   463   430     1  1.800000e+02  5.860000e+00  2
 464   462   463   430     1  1.800000e+02  5.860000e+00  2
 463   462   464   465     1  1.800000e+02  5.860000e+00  2
 463   462   495   493     1  1.800000e+02  5.860000e+00  2
 462   464   465   432     1  1.800000e+02  5.860000e+00  2
 462   464   497   496     1  1.800000e+02  5.860000e+00  2
 432   465   467   466     1  1.800000e+02  5.860000e+00  2
 499   466   467   465     1  1.800000e+02  5.860000e+00  2
 467   466   499   497     1  1.800000e+02  5.860000e+00  2
 467   466   769   770     1  1.800000e+02  5.860000e+00  2
 499   466   769   770     1  1.800000e+02  1.670000e+01  2
 501   468   469   436     1  1.800000e+02  5.860000e+00  2
 469   468   501   503     1  1.800000e+02  5.860000e+00  2
 436   469   471   438     1  1.800000e+02  5.860000e+00  2
 472   470   471   438     1  1.800000e+02  5.860000e+00  2
 471   470   472   473     1  1.800000e+02  5.860000e+00  2
 471   470   503   501     1  1.800000e+02  5.860000e+00  2
 470   472   473   440     1  1.800000e+02  5.860000e+00  2
 470   472   505   504     1  1.800000e+02  5.860000e+00  2
 440   473   475   442     1  1.800000e+02  5.860000e+00  2
 476   474   475   442     1  1.800000e+02  5.860000e+00  2
 475   474   476   477     1  1.800000e+02  5.860000e+00  2
 475   474   507   505     1  1.800000e+02  5.860000e+00  2
 474   476   477   444     1  1.800000e+02  5.860000e+00  2
 474   476   509   508     1  1.800000e+02  5.860000e+00  2
 444   477   479   446     1  1.800000e+02  5.860000e+00  2
 480   478   479   446     1  1.800000e+02  5.860000e+00  2
 479   478   480   481     1  1.800000e+02  5.860000e+00  2
 479   478   511   509     1  1.800000e+02  5.860000e+00  2
 478   480   481   448     1  1.800000e+02  5.860000e+00  2
 478   480   513   512     1  1.800000e+02  5.860000e+00  2
 448   481   483   450     1  1.800000e+02  5.860000e+00  2
 484   482   483   450     1  1.800000e+02  5.860000e+00  2
 483   482   484   485     1  1.800000e+02  5.860000e+00  2
 483   482   515   513     1  1.800000e+02  5.860000e+00  2
 482   484   485   452     1  1.800000e+02  5.860000e+00  2
 482   484   517   516     1  1.800000e+02  5.860000e+00  2
 452   485   487   454     1  1.800000e+02  5.860000e+00  2
 488   486   487   454     1  1.800000e+02  5.860000e+00  2
 487   486   488   489     1  1.800000e+02  5.860000e+00  2
 487   486   519   517     1  1.800000e+02  5.860000e+00  2
 486   488   489   456     1  1.800000e+02  5.860000e+00  2
 486   488   521   520     1  1.800000e+02  5.860000e+00  2
 456   489   491   458     1  1.800000e+02  5.860000e+00  2
 492   490   491   458     1  1.800000e+02  5.860000e+00  2
 491   490   492   493     1  1.800000e+02  5.860000e+00  2
 491   490   523   521     1  1.800000e+02  5.860000e+00  2
 490   492   493   460     1  1.800000e+02  5.860000e+00  2
 490   492   525   524     1  1.800000e+02  5.860000e+00  2
 460   493   495   462     1  1.800000e+02  5.860000e+00  2
 496   494   495   462     1  1.800000e+02  5.860000e+00  2
 495   494   496   497     1  1.800000e+02  5.860000e+00  2
 495   494   527   525     1  1.800000e+02  5.860000e+00  2
 494   496   497   464     1  1.800000e+02  5.860000e+00  2
 494   496   529   528     1  1.800000e+02  5.860000e+00  2
 464   497   499   466     1  1.800000e+02  5.860000e+00  2
 500   498   499   466     1  1.800000e+02  5.860000e+00  2
 499   498   500   533     1  1.800000e+02  5.860000e+00  2
 499   498   531   529     1  1.800000e+02  5.860000e+00  2
 498   500   533   532     1  1.800000e+02  5.860000e+00  2
 468   501   503   470     1  1.800000e+02  5.860000e+00  2
 468   501   751   752     1  1.800000e+02  5.860000e+00  2
 503   501   751   752     1  1.800000e+02  1.670000e+01  2
 504   502   503   470     1  1.800000e+02  5.860000e+00  2
 503   502   504   505     1  1.800000e+02  5.860000e+00  2
 503   502   535   534     1  1.800000e+02  5.860000e+00  2
 502   504   505   472     1  1.800000e+02  5.860000e+00  2
 502   504   537   536     1  1.800000e+02  5.860000e+00  2
 472   505   507   474     1  1.800000e+02  5.860000e+00  2
 508   506   507   474     1  1.800000e+02  5.860000e+00  2
 507   506   508   509     1  1.800000e+02  5.860000e+00  2
 507   506   539   537     1  1.800000e+02  5.860000e+00  2
 506   508   509   476     1  1.800000e+02  5.860000e+00  2
 506   508   541   540     1  1.800000e+02  5.860000e+00  2
 476   509   511   478     1  1.800000e+02  5.860000e+00  2
 512   510   511   478     1  1.800000e+02  5.860000e+00  2
 511   510   512   513     1  1.800000e+02  5.860000e+00  2
 511   510   543   541     1  1.800000e+02  5.860000e+00  2
 510   512   513   480     1  1.800000e+02  5.860000e+00  2
 510   512   545   544     1  1.800000e+02  5.860000e+00  2
 480   513   515   482     1  1.800000e+02  5.860000e+00  2
 516   514   515   482     1  1.800000e+02  5.860000e+00  2
 515   514   516   517     1  1.800000e+02  5.860000e+00  2
 515   514   547   545     1  1.800000e+02  5.860000e+00  2
 514   516   517   484     1  1.800000e+02  5.860000e+00  2
 514   516   549   548     1  1.800000e+02  5.860000e+00  2
 484   517   519   486     1  1.800000e+02  5.860000e+00  2
 520   518   519   486     1  1.800000e+02  5.860000e+00  2
 519   518   520   521     1  1.800000e+02  5.860000e+00  2
 519   518   551   549     1  1.800000e+02  5.860000e+00  2
 518   520   521   488     1  1.800000e+02  5.860000e+00  2
 518   520   553   552     1  1.800000e+02  5.860000e+00  2
 488   521   523   490     1  1.800000e+02  5.860000e+00  2
 524   522   523   490     1  1.800000e+02  5.860000e+00  2
 523   522   524   525     1  1.800000e+02  5.860000e+00  2
 523   522   555   553     1  1.800000e+02  5.860000e+00  2
 522   524   525   492     1  1.800000e+02  5.860000e+00  2
 522   524   557   556     1  1.800000e+02  5.860000e+00  2
 492   525   527   494     1  1.800000e+02  5.860000e+00  2
 528   526   527   494     1  1.800000e+02  5.860000e+00  2
 527   526   528   529     1  1.800000e+02  5.860000e+00  2
 527   526   559   557     1  1.800000e+02  5.860000e+00  2
 526   528   529   496     1  1.800000e+02  5.860000e+00  2
 526   528   561   560     1  1.800000e+02  5.860000e+00  2
 496   529   531   498     1  1.800000e+02  5.860000e+00  2
 532   530   531   498     1  1.800000e+02  5.860000e+00  2
 531   530   532   533     1  1.800000e+02  5.860000e+00  2
 531   530   563   561     1  1.800000e+02  5.860000e+00  2
 530   532   533   500     1  1.800000e+02  5.860000e+00  2
 530   532   565   564     1  1.800000e+02  5.860000e+00  2
 536   534   535   502     1  1.800000e+02  5.860000e+00  2
 535   534   536   537     1  1.800000e+02  5.860000e+00  2
 534   536   537   504     1  1.800000e+02  5.860000e+00  2
 534   536   569   568     1  1.800000e+02  5.860000e+00  2
 504   537   539   506     1  1.800000e+02  5.860000e+00  2
 540   538   539   506     1  1.800000e+02  5.860000e+00  2
 539   538   540   541     1  1.800000e+02  5.860000e+00  2
 539   538   571   569     1  1.800000e+02  5.860000e+00  2
 538   540   541   508     1  1.800000e+02  5.860000e+00  2
 538   540   573   572     1  1.800000e+02  5.860000e+00  2
 508   541   543   510     1  1.800000e+02  5.860000e+00  2
 544   542   543   510     1  1.800000e+02  5.860000e+00  2
 543   542   544   545     1  1.800000e+02  5.860000e+00  2
 543   542   575   573     1  1.800000e+02  5.860000e+00  2
 542   544   545   512     1  1.800000e+02  5.860000e+00  2
 542   544   577   576     1  1.800000e+02  5.860000e+00  2
 512   545   547   514     1  1.800000e+02  5.860000e+00  2
 548   546   547   514     1  1.800000e+02  5.860000e+00  2
 547   546   548   549     1  1.800000e+02  5.860000e+00  2
 547   546   579   577     1  1.800000e+02  5.860000e+00  2
 546   548   549   516     1  1.800000e+02  5.860000e+00  2
 546   548   581   580     1  1.800000e+02  5.860000e+00  2
 516   549   551   518     1  1.800000e+02  5.860000e+00  2
 552   550   551   518     1  1.800000e+02  5.860000e+00  2
 551   550   552   553     1  1.800000e+02  5.860000e+00  2
 551   550   583   581     1  1.800000e+02  5.860000e+00  2
 550   552   553   520     1  1.800000e+02  5.860000e+00  2
 550   552   585   584     1  1.800000e+02  5.860000e+00  2
 520   553   555   522     1  1.800000e+02  5.860000e+00  2
 556   554   555   522     1  1.800000e+02  5.860000e+00  2
 555   554   556   557     1  1.800000e+02  5.860000e+00  2
 555   554   587   585     1  1.800000e+02  5.860000e+00  2
 554   556   557   524     1  1.800000e+02  5.860000e+00  2
 554   556   589   588     1  1.800000e+02  5.860000e+00  2
 524   557   559   526     1  1.800000e+02  5.860000e+00  2
 560   558   559   526     1  1.800000e+02  5.860000e+00  2
 559   558   560   561     1  1.800000e+02  5.860000e+00  2
 559   558   591   589     1  1.800000e+02  5.860000e+00  2
 558   560   561   528     1  1.800000e+02  5.860000e+00  2
 558   560   593   592     1  1.800000e+02  5.860000e+00  2
 528   561   563   530     1  1.800000e+02  5.860000e+00  2
 564   562   563   530     1  1.800000e+02  5.860000e+00  2
 563   562   564   565     1  1.800000e+02  5.860000e+00  2
 563   562   595   593     1  1.800000e+02  5.860000e+00  2
 562   564   565   532     1  1.800000e+02  5.860000e+00  2
 562   564   597   596     1  1.800000e+02  5.860000e+00  2
 532   565   567   566     1  1.800000e+02  5.860000e+00  2
 599   566   567   565     1  1.800000e+02  5.860000e+00  2
 567   566   599   597     1  1.800000e+02  5.860000e+00  2
 567   566   777   778     1  1.800000e+02  5.860000e+00  2
 599   566   777   778     1  1.800000e+02  1.670000e+01  2
 601   568   569   536     1  1.800000e+02  5.860000e+00  2
 569   568   601   603     1  1.800000e+02  5.860000e+00  2
 536   569   571   538     1  1.800000e+02  5.860000e+00  2
 572   570   571   538     1  1.800000e+02  5.860000e+00  2
 571   570   572   573     1  1.800000e+02  5.860000e+00  2
 571   570   603   601     1  1.800000e+02  5.860000e+00  2
 570   572   573   540     1  1.800000e+02  5.860000e+00  2
 570   572   605   604     1  1.800000e+02  5.860000e+00  2
 540   573   575   542     1  1.800000e+02  5.860000e+00  2
 576   574   575   542     1  1.800000e+02  5.860000e+00  2
 575   574   576   577     1  1.800000e+02  5.860000e+00  2
 575   574   607   605     1  1.800000e+02  5.860000e+00  2
 574   576   577   544     1  1.800000e+02  5.860000e+00  2
 574   576   609   608     1  1.800000e+02  5.860000e+00  2
 544   577   579   546     1  1.800000e+02  5.860000e+00  2
 580   578   579   546     1  1.800000e+02  5.860000e+00  2
 579   578   580   581     1  1.800000e+02  5.860000e+00  2
 579   578   611   609     1  1.800000e+02  5.860000e+00  2
 578   580   581   548     1  1.800000e+02  5.860000e+00  2
 578   580   613   612     1  1.800000e+02  5.860000e+00  2
 548   581   583   550     1  1.800000e+02  5.860000e+00  2
 584   582   583   550     1  1.800000e+02  5.860000e+00  2
 583   582   584   585     1  1.800000e+02  5.860000e+00  2
 583   582   615   613     1  1.800000e+02  5.860000e+00  2
 582   584   585   552     1  1.800000e+02  5.860000e+00  2
 582   584   617   616     1  1.800000e+02  5.860000e+00  2
 552   585   587   554     1  1.800000e+02  5.860000e+00  2
 588   586   587   554     1  1.800000e+02  5.860000e+00  2
 587   586   588   589     1  1.800000e+02  5.860000e+00  2
 587   586   619   617     1  1.800000e+02  5.860000e+00  2
 586   588   589   556     1  1.800000e+02  5.860000e+00  2
 586   588   621   620     1  1.800000e+02  5.860000e+00  2
 556   589   591   558     1  1.800000e+02  5.860000e+00  2
 592   590   591   558     1  1.800000e+02  5.860000e+00  2
 591   590   592   593     1  1.800000e+02  5.860000e+00  2
 591   590   623   621     1  1.800000e+02  5.860000e+00  2
 590   592   593   560     1  1.800000e+02  5.860000e+00  2
 590   592   625   624     1  1.800000e+02  5.860000e+00  2
 560   593   595   562     1  1.800000e+02  5.860000e+00  2
 596   594   595   562     1  1.800000e+02  5.860000e+00  2
 595   594   596   597     1  1.800000e+02  5.860000e+00  2
 595   594   627   625     1  1.800000e+02  5.860000e+00  2
 594   596   597   564     1  1.800000e+02  5.860000e+00  2
 594   596   629   628     1  1.800000e+02  5.860000e+00  2
 564   597   599   566     1  1.800000e+02  5.860000e+00  2
 600   598   599   566     1  1.800000e+02  5.860000e+00  2
 599   598   600   633     1  1.800000e+02  5.860000e+00  2
 599   598   631   629     1  1.800000e+02  5.860000e+00  2
 598   600   633   632     1  1.800000e+02  5.860000e+00  2
 568   601   603   570     1  1.800000e+02  5.860000e+00  2
 568   601   753   754     1  1.800000e+02  5.860000e+00  2
 603   601   753   754     1  1.800000e+02  1.670000e+01  2
 604   602   603   570     1  1.800000e+02  5.860000e+00  2
 603   602   604   605     1  1.800000e+02  5.860000e+00  2
 603   602   635   634     1  1.800000e+02  5.860000e+00  2
 602   604   605   572     1  1.800000e+02  5.860000e+00  2
 602   604   637   636     1  1.800000e+02  5.860000e+00  2
 572   605   607   574     1  1.800000e+02  5.860000e+00  2
 608   606   607   574     1  1.800000e+02  5.860000e+00  2
 607   606   608   609     1  1.800000e+02  5.860000e+00  2
 607   606   639   637     1  1.800000e+02  5.860000e+00  2
 606   608   609   576     1  1.800000e+02  5.860000e+00  2
 606   608   641   640     1  1.800000e+02  5.860000e+00  2
 576   609   611   578     1  1.800000e+02  5.860000e+00  2
 612   610   611   578     1  1.800000e+02  5.860000e+00  2
 611   610   612   613     1  1.800000e+02  5.860000e+00  2
 611   610   643   641     1  1.800000e+02  5.860000e+00  2
 610   612   613   580     1  1.800000e+02  5.860000e+00  2
 610   612   645   644     1  1.800000e+02  5.860000e+00  2
 580   613   615   582     1  1.800000e+02  5.860000e+00  2
 616   614   615   582     1  1.800000e+02  5.860000e+00  2
 615   614   616   617     1  1.800000e+02  5.860000e+00  2
 615   614   647   645     1  1.800000e+02  5.860000e+00  2
 614   616   617   584     1  1.800000e+02  5.860000e+00  2
 614   616   649   648     1  1.800000e+02  5.860000e+00  2
 584   617   619   586     1  1.800000e+02  5.860000e+00  2
 620   618   619   586     1  1.800000e+02  5.860000e+00  2
 619   618   620   621     1  1.800000e+02  5.860000e+00  2
 619   618   651   649     1  1.800000e+02  5.860000e+00  2
 618   620   621   588     1  1.800000e+02  5.860000e+00  2
 618   620   653   652     1  1.800000e+02  5.860000e+00  2
 588   621   623   590     1  1.800000e+02  5.860000e+00  2
 624   622   623   590     1  1.800000e+02  5.860000e+00  2
 623   622   624   625     1  1.800000e+02  5.860000e+00  2
 623   622   655   653     1  1.800000e+02  5.860000e+00  2
 622   624   625   592     1  1.800000e+02  5.860000e+00  2
 622   624   657   656     1  1.800000e+02  5.860000e+00  2
 592   625   627   594     1  1.800000e+02  5.860000e+00  2
 628   626   627   594     1  1.800000e+02  5.860000e+00  2
 627   626   628   629     1  1.800000e+02  5.860000e+00  2
 627   626   659   657     1  1.800000e+02  5.860000e+00  2
 626   628   629   596     1  1.800000e+02  5.860000e+00  2
 626   628   661   660     1  1.800000e+02  5.860000e+00  2
 596   629   631   598     1  1.800000e+02  5.860000e+00  2
 632   630   631   598     1  1.800000e+02  5.860000e+00  2
 631   630   632   633     1  1.800000e+02  5.860000e+00  2
 631   630   663   661     1  1.800000e+02  5.860000e+00  2
 630   632   633   600     1  1.800000e+02  5.860000e+00  2
 630   632   665   664     1  1.800000e+02  5.860000e+00  2
 636   634   635   602     1  1.800000e+02  5.860000e+00  2
 635   634   636   637     1  1.800000e+02  5.860000e+00  2
 634   636   637   604     1  1.800000e+02  5.860000e+00  2
 634   636   668   667     1  1.800000e+02  5.860000e+00  2
 604   637   639   606     1  1.800000e+02  5.860000e+00  2
 640   638   639   606     1  1.800000e+02  5.860000e+00  2
 639   638   640   641     1  1.800000e+02  5.860000e+00  2
 639   638   670   668     1  1.800000e+02  5.860000e+00  2
 638   640   641   608     1  1.800000e+02  5.860000e+00  2
 638   640   672   671     1  1.800000e+02  5.860000e+00  2
 608   641   643   610     1  1.800000e+02  5.860000e+00  2
 644   642   643   610     1  1.800000e+02  5.860000e+00  2
 643   642   644   645     1  1.800000e+02  5.860000e+00  2
 643   642   674   672     1  1.800000e+02  5.860000e+00  2
 642   644   645   612     1  1.800000e+02  5.860000e+00  2
 642   644   676   675     1  1.800000e+02  5.860000e+00  2
 612   645   647   614     1  1.800000e+02  5.860000e+00  2
 648   646   647   614     1  1.800000e+02  5.860000e+00  2
 647   646   648   649     1  1.800000e+02  5.860000e+00  2
 647   646   678   676     1  1.800000e+02  5.860000e+00  2
 646   648   649   616     1  1.800000e+02  5.860000e+00  2
 646   648   680   679     1  1.800000e+02  5.860000e+00  2
 616   649   651   618     1  1.800000e+02  5.860000e+00  2
 652   650   651   618     1  1.800000e+02  5.860000e+00  2
 651   650   652   653     1  1.800000e+02  5.860000e+00  2
 651   650   682   680     1  1.800000e+02  5.860000e+00  2
 650   652   653   620     1  1.800000e+02  5.860000e+00  2
 650   652   684   683     1  1.800000e+02  5.860000e+00  2
 620   653   655   622     1  1.800000e+02  5.860000e+00  2
 656   654   655   622     1  1.800000e+02  5.860000e+00  2
 655   654   656   657     1  1.800000e+02  5.860000e+00  2
 655   654   686   684     1  1.800000e+02  5.860000e+00  2
 654   656   657   624     1  1.800000e+02  5.860000e+00  2
 654   656   688   687     1  1.800000e+02  5.860000e+00  2
 624   657   659   626     1  1.800000e+02  5.860000e+00  2
 660   658   659   626     1  1.800000e+02  5.860000e+00  2
 659   658   660   661     1  1.800000e+02  5.860000e+00  2
 659   658   690   688     1  1.800000e+02  5.860000e+00  2
 658   660   661   628     1  1.800000e+02  5.860000e+00  2
 658   660   692   691     1  1.800000e+02  5.860000e+00  2
 628   661   663   630     1  1.800000e+02  5.860000e+00  2
 664   662   663   630     1  1.800000e+02  5.860000e+00  2
 663   662   664     1     1  1.800000e+02  5.860000e+00  2
 663   662   693     6     1  1.800000e+02  5.860000e+00  2
   1   664   665   632     1  1.800000e+02  5.860000e+00  2
 632   665   666     3     1  1.800000e+02  5.860000e+00  2
 694   667   668   636     1  1.800000e+02  5.860000e+00  2
 668   667   694   696     1  1.800000e+02  5.860000e+00  2
 636   668   670   638     1  1.800000e+02  5.860000e+00  2
 671   669   670   638     1  1.800000e+02  5.860000e+00  2
 670   669   671   672     1  1.800000e+02  5.860000e+00  2
 670   669   696   694     1  1.800000e+02  5.860000e+00  2
 669   671   672   640     1  1.800000e+02  5.860000e+00  2
 669   671   698   697     1  1.800000e+02  5.860000e+00  2
 640   672   674   642     1  1.800000e+02  5.860000e+00  2
 675   673   674   642     1  1.800000e+02  5.860000e+00  2
 674   673   675   676     1  1.800000e+02  5.860000e+00  2
 674   673   700   698     1  1.800000e+02  5.860000e+00  2
 673   675   676   644     1  1.800000e+02  5.860000e+00  2
 673   675   702   701     1  1.800000e+02  5.860000e+00  2
 644   676   678   646     1  1.800000e+02  5.860000e+00  2
 679   677   678   646     1  1.800000e+02  5.860000e+00  2
 678   677   679   680     1  1.800000e+02  5.860000e+00  2
 678   677   704   702     1  1.800000e+02  5.860000e+00  2
 677   679   680   648     1  1.800000e+02  5.860000e+00  2
 677   679   706   705     1  1.800000e+02  5.860000e+00  2
 648   680   682   650     1  1.800000e+02  5.860000e+00  2
 683   681   682   650     1  1.800000e+02  5.860000e+00  2
 682   681   683   684     1  1.800000e+02  5.860000e+00  2
 682   681   708   706     1  1.800000e+02  5.860000e+00  2
 681   683   684   652     1  1.800000e+02  5.860000e+00  2
 681   683   710   709     1  1.800000e+02  5.860000e+00  2
 652   684   686   654     1  1.800000e+02  5.860000e+00  2
 687   685   686   654     1  1.800000e+02  5.860000e+00  2
 686   685   687   688     1  1.800000e+02  5.860000e+00  2
 686   685   712   710     1  1.800000e+02  5.860000e+00  2
 685   687   688   656     1  1.800000e+02  5.860000e+00  2
 685   687   714   713     1  1.800000e+02  5.860000e+00  2
 656   688   690   658     1  1.800000e+02  5.860000e+00  2
 691   689   690   658     1  1.800000e+02  5.860000e+00  2
 690   689   691     4     1  1.800000e+02  5.860000e+00  2
 690   689   715    15     1  1.800000e+02  5.860000e+00  2
   4   691   692   660     1  1.800000e+02  5.860000e+00  2
 660   692   693     6     1  1.800000e+02  5.860000e+00  2
 667   694   696   669     1  1.800000e+02  5.860000e+00  2
 697   695   696   669     1  1.800000e+02  5.860000e+00  2
 696   695   697   698     1  1.800000e+02  5.860000e+00  2
 696   695   717   716     1  1.800000e+02  5.860000e+00  2
 695   697   698   671     1  1.800000e+02  5.860000e+00  2
 695   697   719   718     1  1.800000e+02  5.860000e+00  2
 671   698   700   673     1  1.800000e+02  5.860000e+00  2
 701   699   700   673     1  1.800000e+02  5.860000e+00  2
 700   699   701   702     1  1.800000e+02  5.860000e+00  2
 700   699   721   719     1  1.800000e+02  5.860000e+00  2
 699   701   702   675     1  1.800000e+02  5.860000e+00  2
 699   701   723   722     1  1.800000e+02  5.860000e+00  2
 675   702   704   677     1  1.800000e+02  5.860000e+00  2
 705   703   704   677     1  1.800000e+02  5.860000e+00  2
 704   703   705   706     1  1.800000e+02  5.860000e+00  2
 704   703   725   723     1  1.800000e+02  5.860000e+00  2
 703   705   706   679     1  1.800000e+02  5.860000e+00  2
 703   705   727   726     1  1.800000e+02  5.860000e+00  2
 679   706   708   681     1  1.800000e+02  5.860000e+00  2
 709   707   708   681     1  1.800000e+02  5.860000e+00  2
 708   707   709   710     1  1.800000e+02  5.860000e+00  2
 708   707   729   727     1  1.800000e+02  5.860000e+00  2
 707   709   710   683     1  1.800000e+02  5.860000e+00  2
 707   709   731   730     1  1.800000e+02  5.860000e+00  2
 683   710   712   685     1  1.800000e+02  5.860000e+00  2
 713   711   712   685     1  1.800000e+02  5.860000e+00  2
 712   711   713    13     1  1.800000e+02  5.860000e+00  2
 712   711   732    29     1  1.800000e+02  5.860000e+00  2
  13   713   714   687     1  1.800000e+02  5.860000e+00  2
 687   714   715    15     1  1.800000e+02  5.860000e+00  2
 718   716   717   695     1  1.800000e+02  5.860000e+00  2
 717   716   718   719     1  1.800000e+02  5.860000e+00  2
 717   716   757   758     1  1.800000e+02  5.860000e+00  2
 718   716   757   758     1  1.800000e+02  1.670000e+01  2
 716   718   719   697     1  1.800000e+02  5.860000e+00  2
 716   718   734   733     1  1.800000e+02  5.860000e+00  2
 697   719   721   699     1  1.800000e+02  5.860000e+00  2
 722   720   721   699     1  1.800000e+02  5.860000e+00  2
 721   720   722   723     1  1.800000e+02  5.860000e+00  2
 721   720   736   734     1  1.800000e+02  5.860000e+00  2
 720   722   723   701     1  1.800000e+02  5.860000e+00  2
 720   722   738   737     1  1.800000e+02  5.860000e+00  2
 701   723   725   703     1  1.800000e+02  5.860000e+00  2
 726   724   725   703     1  1.800000e+02  5.860000e+00  2
 725   724   726   727     1  1.800000e+02  5.860000e+00  2
 725   724   740   738     1  1.800000e+02  5.860000e+00  2
 724   726   727   705     1  1.800000e+02  5.860000e+00  2
 724   726   742   741     1  1.800000e+02  5.860000e+00  2
 705   727   729   707     1  1.800000e+02  5.860000e+00  2
 730   728   729   707     1  1.800000e+02  5.860000e+00  2
 729   728   730    27     1  1.800000e+02  5.860000e+00  2
 729   728   743    48     1  1.800000e+02  5.860000e+00  2
  27   730   731   709     1  1.800000e+02  5.860000e+00  2
 709   731   732    29     1  1.800000e+02  5.860000e+00  2
 744   733   734   718     1  1.800000e+02  5.860000e+00  2
 734   733   744   746     1  1.800000e+02  5.860000e+00  2
 718   734   736   720     1  1.800000e+02  5.860000e+00  2
 737   735   736   720     1  1.800000e+02  5.860000e+00  2
 736   735   737   738     1  1.800000e+02  5.860000e+00  2
 736   735   746   744     1  1.800000e+02  5.860000e+00  2
 735   737   738   722     1  1.800000e+02  5.860000e+00  2
 735   737   748   747     1  1.800000e+02  5.860000e+00  2
 722   738   740   724     1  1.800000e+02  5.860000e+00  2
 741   739   740   724     1  1.800000e+02  5.860000e+00  2
 740   739   741    46     1  1.800000e+02  5.860000e+00  2
 740   739   749    73     1  1.800000e+02  5.860000e+00  2
  46   741   742   726     1  1.800000e+02  5.860000e+00  2
 726   742   743    48     1  1.800000e+02  5.860000e+00  2
 733   744   746   735     1  1.800000e+02  5.860000e+00  2
 747   745   746   735     1  1.800000e+02  5.860000e+00  2
 746   745   747    71     1  1.800000e+02  5.860000e+00  2
 746   745   750   101     1  1.800000e+02  5.860000e+00  2
  71   747   748   737     1  1.800000e+02  5.860000e+00  2
 737   748   749    73     1  1.800000e+02  5.860000e+00  2
#include "./gromos54a7.ff/spc.itp"

#ifdef WA
; Position restraint for each water oxygen
[ position_restraints ]
;  i funct       fcx        fcy        fcz
   1    1       1000       1000       1000
   2    1       1000       1000       1000
   3    1       1000       1000       1000
#endif

[ system ]
; Name
CNT in water

[ molecules ]
; Compound        #mols
CNT                 1
SOL             10936
