CNT in water
17365
    1DPPC    C1    1   1.577   5.265   0.920
    1DPPC    C2    2   1.674   5.295   1.134
    1DPPC    C3    3   1.647   5.481   0.985
    1DPPC    N4    4   1.680   5.339   0.994
    1DPPC    C5    5   1.810   5.303   0.932
    1DPPC    C6    6   1.932   5.397   0.955
    1DPPC    O7    7   1.966   5.410   1.094
    1DPPC    P8    8   2.095   5.498   1.117
    1DPPC    O9    9   2.193   5.431   1.029
    1DPPC   O10   10   2.048   5.637   1.097
    1DPPC   O11   11   2.111   5.452   1.267
    1DPPC   C12   12   2.047   5.530   1.368
    1DPPC   C13   13   2.071   5.470   1.508
    1DPPC   O14   14   2.024   5.555   1.617
    1DPPC   C15   15   1.899   5.544   1.666
    1DPPC   O16   16   1.827   5.447   1.638
    1DPPC   C17   17   1.858   5.660   1.755
    1DPPC   C18   18   1.772   5.621   1.875
    1DPPC   C19   19   1.739   5.748   1.954
    1DPPC   C20   20   1.646   5.720   2.072
    1DPPC   C21   21   1.620   5.849   2.150
    1DPPC   C22   22   1.525   5.826   2.268
    1DPPC   C23   23   1.585   5.726   2.367
    1DPPC   C24   24   1.484   5.693   2.477
    1DPPC   C25   25   1.539   5.577   2.561
    1DPPC   C26   26   1.440   5.533   2.669
    1DPPC   C27   27   1.423   5.638   2.779
    1DPPC   C28   28   1.554   5.661   2.855
    1DPPC   C29   29   1.534   5.763   2.967
    1DPPC   C30   30   1.490   5.900   2.914
    1DPPC   C31   31   1.464   5.997   3.029
    1DPPC   C32   32   2.222   5.441   1.517
    1DPPC   O33   33   2.260   5.357   1.628
    1DPPC   C34   34   2.307   5.422   1.738
    1DPPC   O35   35   2.371   5.526   1.730
    1DPPC   C36   36   2.302   5.344   1.869
    1DPPC   C37   37   2.197   5.408   1.959
    1DPPC   C38   38   2.193   5.338   2.094
    1DPPC   C39   39   2.105   5.418   2.190
    1DPPC   C40   40   2.102   5.351   2.327
    1DPPC   C41   41   2.045   5.450   2.429
    1DPPC   C42   42   2.045   5.392   2.570
    1DPPC   C43   43   2.007   5.502   2.668
    1DPPC   C44   44   1.994   5.451   2.811
    1DPPC   C45   45   1.951   5.566   2.902
    1DPPC   C46   46   1.919   5.520   3.044
    1DPPC   C47   47   1.871   5.638   3.128
    1DPPC   C48   48   1.834   5.595   3.270
    1DPPC   C49   49   1.791   5.713   3.357
    1DPPC   C50   50   1.661   5.778   3.307
    2DPPC    C1   51   2.172   1.922   1.014
    2DPPC    C2   52   1.947   1.889   0.949
    2DPPC    C3   53   2.071   2.081   0.871
    2DPPC    N4   54   2.046   1.991   0.984
    2DPPC    C5   55   2.009   2.067   1.105
    2DPPC    C6   56   1.880   2.153   1.103
    2DPPC    O7   57   1.888   2.248   1.208
    2DPPC    P8   58   1.754   2.325   1.241
    2DPPC    O9   59   1.754   2.432   1.139
    2DPPC   O10   60   1.652   2.220   1.245
    2DPPC   O11   61   1.799   2.373   1.385
    2DPPC   C12   62   1.849   2.266   1.465
    2DPPC   C13   63   1.808   2.267   1.613
    2DPPC   O14   64   1.679   2.204   1.643
    2DPPC   C15   65   1.674   2.068   1.644
    2DPPC   O16   66   1.769   1.999   1.606
    2DPPC   C17   67   1.546   2.007   1.703
    2DPPC   C18   68   1.543   2.027   1.855
    2DPPC   C19   69   1.667   1.967   1.921
    2DPPC   C20   70   1.692   2.023   2.061
    2DPPC   C21   71   1.701   2.175   2.059
    2DPPC   C22   72   1.762   2.229   2.189
    2DPPC   C23   73   1.693   2.172   2.313
    2DPPC   C24   74   1.744   2.241   2.439
    2DPPC   C25   75   1.706   2.389   2.436
    2DPPC   C26   76   1.757   2.460   2.561
    2DPPC   C27   77   1.686   2.408   2.687
    2DPPC   C28   78   1.745   2.472   2.813
    2DPPC   C29   79   1.886   2.420   2.843
    2DPPC   C30   80   1.946   2.489   2.965
    2DPPC   C31   81   1.859   2.472   3.089
    2DPPC   C32   82   1.833   2.410   1.665
    2DPPC   O33   83   1.970   2.428   1.703
    2DPPC   C34   84   2.027   2.550   1.687
    2DPPC   O35   85   1.975   2.641   1.624
    2DPPC   C36   86   2.169   2.561   1.743
    2DPPC   C37   87   2.163   2.647   1.869
    2DPPC   C38   88   2.302   2.677   1.923
    2DPPC   C39   89   2.287   2.774   2.040
    2DPPC   C40   90   2.420   2.829   2.090
    2DPPC   C41   91   2.387   2.942   2.188
    2DPPC   C42   92   2.512   3.012   2.240
    2DPPC   C43   93   2.478   3.150   2.297
    2DPPC   C44   94   2.377   3.148   2.413
    2DPPC   C45   95   2.361   3.290   2.467
    2DPPC   C46   96   2.261   3.298   2.583
    2DPPC   C47   97   2.266   3.434   2.654
    2DPPC   C48   98   2.399   3.455   2.727
    2DPPC   C49   99   2.395   3.580   2.815
    2DPPC   C50  100   2.528   3.600   2.889
    3DPPC    C1  101   1.395   2.986   1.631
    3DPPC    C2  102   1.184   3.069   1.580
    3DPPC    C3  103   1.198   2.842   1.642
    3DPPC    N4  104   1.267   2.949   1.569
    3DPPC    C5  105   1.278   2.916   1.424
    3DPPC    C6  106   1.398   2.829   1.377
    3DPPC    O7  107   1.406   2.705   1.448
    3DPPC    P8  108   1.543   2.630   1.427
    3DPPC    O9  109   1.524   2.561   1.299
    3DPPC   O10  110   1.645   2.735   1.445
    3DPPC   O11  111   1.533   2.536   1.553
    3DPPC   C12  112   1.512   2.609   1.674
    3DPPC   C13  113   1.518   2.532   1.808
    3DPPC   O14  114   1.644   2.531   1.879
    3DPPC   C15  115   1.694   2.644   1.934
    3DPPC   O16  116   1.670   2.756   1.887
    3DPPC   C17  117   1.799   2.619   2.043
    3DPPC   C18  118   1.788   2.721   2.157
    3DPPC   C19  119   1.651   2.722   2.226
    3DPPC   C20  120   1.642   2.828   2.336
    3DPPC   C21  121   1.743   2.802   2.448
    3DPPC   C22  122   1.731   2.902   2.563
    3DPPC   C23  123   1.832   2.873   2.674
    3DPPC   C24  124   1.823   2.974   2.788
    3DPPC   C25  125   1.931   2.949   2.894
    3DPPC   C26  126   1.928   3.056   3.003
    3DPPC   C27  127   2.045   3.037   3.100
    3DPPC   C28  128   2.057   3.150   3.202
    3DPPC   C29  129   2.076   3.286   3.133
    3DPPC   C30  130   2.101   3.399   3.233
    3DPPC   C31  131   2.108   3.534   3.162
    3DPPC   C32  132   1.459   2.392   1.784
    3DPPC   O33  133   1.316   2.381   1.793
    3DPPC   C34  134   1.261   2.384   1.917
    3DPPC   O35  135   1.314   2.441   2.012
    3DPPC   C36  136   1.126   2.315   1.930
    3DPPC   C37  137   1.147   2.165   1.947
    3DPPC   C38  138   1.220   2.129   2.077
    3DPPC   C39  139   1.136   2.164   2.200
    3DPPC   C40  140   1.222   2.151   2.325
    3DPPC   C41  141   1.141   2.178   2.452
    3DPPC   C42  142   1.234   2.168   2.572
    3DPPC   C43  143   1.154   2.178   2.702
    3DPPC   C44  144   1.247   2.164   2.823
    3DPPC   C45  145   1.161   2.151   2.949
    3DPPC   C46  146   1.247   2.136   3.075
    3DPPC   C47  147   1.157   2.106   3.196
    3DPPC   C48  148   1.052   2.215   3.217
    3DPPC   C49  149   0.960   2.180   3.333
    3DPPC   C50  150   0.843   2.278   3.343
    4DPPC    C1  151   2.530   4.230   1.234
    4DPPC    C2  152   2.492   4.445   1.150
    4DPPC    C3  153   2.457   4.406   1.381
    4DPPC    N4  154   2.442   4.347   1.247
    4DPPC    C5  155   2.300   4.318   1.217
    4DPPC    C6  156   2.225   4.210   1.299
    4DPPC    O7  157   2.085   4.205   1.267
    4DPPC    P8  158   1.999   4.106   1.355
    4DPPC    O9  159   1.863   4.118   1.298
    4DPPC   O10  160   2.069   3.977   1.354
    4DPPC   O11  161   2.009   4.171   1.497
    4DPPC   C12  162   1.971   4.085   1.604
    4DPPC   C13  163   1.989   4.148   1.744
    4DPPC   O14  164   1.957   4.056   1.854
    4DPPC   C15  165   1.838   3.995   1.873
    4DPPC   O16  166   1.748   4.003   1.788
    4DPPC   C17  167   1.827   3.914   2.002
    4DPPC   C18  168   1.924   3.795   2.004
    4DPPC   C19  169   1.936   3.739   2.146
    4DPPC   C20  170   1.992   3.848   2.238
    4DPPC   C21  171   2.004   3.803   2.383
    4DPPC   C22  172   2.062   3.918   2.465
    4DPPC   C23  173   2.095   3.872   2.606
    4DPPC   C24  174   2.164   3.983   2.684
    4DPPC   C25  175   2.207   3.927   2.819
    4DPPC   C26  176   2.274   4.034   2.905
    4DPPC   C27  177   2.310   3.974   3.041
    4DPPC   C28  178   2.375   4.080   3.129
    4DPPC   C29  179   2.399   4.028   3.271
    4DPPC   C30  180   2.497   3.912   3.275
    4DPPC   C31  181   2.505   3.856   3.417
    4DPPC   C32  182   1.915   4.283   1.747
    4DPPC   O33  183   1.960   4.376   1.848
    4DPPC   C34  184   2.075   4.444   1.827
    4DPPC   O35  185   2.138   4.437   1.721
    4DPPC   C36  186   2.122   4.536   1.940
    4DPPC   C37  187   2.006   4.595   2.019
    4DPPC   C38  188   2.055   4.693   2.125
    4DPPC   C39  189   1.936   4.754   2.198
    4DPPC   C40  190   1.980   4.856   2.302
    4DPPC   C41  191   1.860   4.904   2.383
    4DPPC   C42  192   1.903   4.974   2.512
    4DPPC   C43  193   1.995   4.880   2.590
    4DPPC   C44  194   2.004   4.913   2.739
    4DPPC   C45  195   1.873   4.879   2.810
    4DPPC   C46  196   1.895   4.868   2.961
    4DPPC   C47  197   1.936   5.000   3.026
    4DPPC   C48  198   1.819   5.097   3.032
    4DPPC   C49  199   1.810   5.159   3.172
    4DPPC   C50  200   1.683   5.241   3.188
    5DPPC    C1  201   2.988   1.212   1.284
    5DPPC    C2  202   2.817   1.362   1.355
    5DPPC    C3  203   2.801   1.125   1.398
    5DPPC    N4  204   2.843   1.227   1.300
    5DPPC    C5  205   2.777   1.203   1.169
    5DPPC    C6  206   2.632   1.254   1.147
    5DPPC    O7  207   2.538   1.207   1.245
    5DPPC    P8  208   2.399   1.281   1.252
    5DPPC    O9  209   2.389   1.368   1.135
    5DPPC   O10  210   2.301   1.176   1.284
    5DPPC   O11  211   2.424   1.381   1.371
    5DPPC   C12  212   2.352   1.353   1.489
    5DPPC   C13  213   2.446   1.340   1.610
    5DPPC   O14  214   2.383   1.288   1.731
    5DPPC   C15  215   2.327   1.164   1.739
    5DPPC   O16  216   2.315   1.089   1.642
    5DPPC   C17  217   2.288   1.120   1.880
    5DPPC   C18  218   2.233   1.237   1.962
    5DPPC   C19  219   2.224   1.193   2.107
    5DPPC   C20  220   2.164   1.304   2.193
    5DPPC   C21  221   2.144   1.249   2.333
    5DPPC   C22  222   2.077   1.353   2.423
    5DPPC   C23  223   2.031   1.285   2.552
    5DPPC   C24  224   1.991   1.389   2.656
    5DPPC   C25  225   1.880   1.481   2.604
    5DPPC   C26  226   1.849   1.591   2.705
    5DPPC   C27  227   1.971   1.680   2.731
    5DPPC   C28  228   1.940   1.783   2.841
    5DPPC   C29  229   1.828   1.878   2.799
    5DPPC   C30  230   1.786   1.968   2.914
    5DPPC   C31  231   1.675   2.063   2.870
    5DPPC   C32  232   2.510   1.479   1.630
    5DPPC   O33  233   2.652   1.476   1.649
    5DPPC   C34  234   2.715   1.590   1.684
    5DPPC   O35  235   2.651   1.694   1.710
    5DPPC   C36  236   2.867   1.580   1.695
    5DPPC   C37  237   2.926   1.674   1.800
    5DPPC   C38  238   2.873   1.644   1.940
    5DPPC   C39  239   2.926   1.750   2.036
    5DPPC   C40  240   2.869   1.732   2.176
    5DPPC   C41  241   2.933   1.836   2.268
    5DPPC   C42  242   2.894   1.806   2.412
    5DPPC   C43  243   2.977   1.889   2.510
    5DPPC   C44  244   2.946   1.840   2.651
    5DPPC   C45  245   3.019   1.921   2.758
    5DPPC   C46  246   2.982   1.869   2.897
    5DPPC   C47  247   2.833   1.882   2.930
    5DPPC   C48  248   2.789   2.028   2.946
    5DPPC   C49  249   2.656   2.040   3.023
    5DPPC   C50  250   2.540   1.975   2.949
    6DPPC    C1  251   2.172   2.714   1.099
    6DPPC    C2  252   2.000   2.642   1.255
    6DPPC    C3  253   1.948   2.691   1.029
    6DPPC    N4  254   2.051   2.634   1.117
    6DPPC    C5  255   2.072   2.494   1.073
    6DPPC    C6  256   2.184   2.416   1.147
    6DPPC    O7  257   2.227   2.304   1.070
    6DPPC    P8  258   2.382   2.299   1.046
    6DPPC    O9  259   2.405   2.176   0.969
    6DPPC   O10  260   2.432   2.430   1.000
    6DPPC   O11  261   2.430   2.283   1.195
    6DPPC   C12  262   2.407   2.154   1.250
    6DPPC   C13  263   2.457   2.139   1.395
    6DPPC   O14  264   2.357   2.167   1.499
    6DPPC   C15  265   2.242   2.095   1.514
    6DPPC   O16  266   2.204   2.009   1.435
    6DPPC   C17  267   2.158   2.141   1.633
    6DPPC   C18  268   2.106   2.024   1.717
    6DPPC   C19  269   2.041   2.079   1.844
    6DPPC   C20  270   2.145   2.156   1.924
    6DPPC   C21  271   2.080   2.250   2.025
    6DPPC   C22  272   2.187   2.323   2.105
    6DPPC   C23  273   2.125   2.408   2.216
    6DPPC   C24  274   2.237   2.470   2.298
    6DPPC   C25  275   2.181   2.549   2.415
    6DPPC   C26  276   2.296   2.618   2.488
    6DPPC   C27  277   2.244   2.711   2.596
    6DPPC   C28  278   2.360   2.786   2.661
    6DPPC   C29  279   2.309   2.889   2.761
    6DPPC   C30  280   2.426   2.965   2.824
    6DPPC   C31  281   2.377   3.078   2.914
    6DPPC   C32  282   2.587   2.224   1.400
    6DPPC   O33  283   2.688   2.183   1.494
    6DPPC   C34  284   2.813   2.230   1.473
    6DPPC   O35  285   2.847   2.276   1.364
    6DPPC   C36  286   2.914   2.209   1.587
    6DPPC   C37  287   2.890   2.077   1.659
    6DPPC   C38  288   2.983   2.061   1.779
    6DPPC   C39  289   2.955   2.166   1.887
    6DPPC   C40  290   3.049   2.143   2.006
    6DPPC   C41  291   3.021   2.242   2.118
    6DPPC   C42  292   3.113   2.217   2.238
    6DPPC   C43  293   3.079   2.315   2.350
    6DPPC   C44  294   3.165   2.295   2.475
    6DPPC   C45  295   3.313   2.325   2.449
    6DPPC   C46  296   3.393   2.311   2.579
    6DPPC   C47  297   3.543   2.306   2.551
    6DPPC   C48  298   3.573   2.182   2.466
    6DPPC   C49  299   3.722   2.165   2.439
    6DPPC   C50  300   3.745   2.037   2.358
    7DPPC    C1  301   2.236   3.403   1.293
    7DPPC    C2  302   2.379   3.593   1.294
    7DPPC    C3  303   2.430   3.411   1.433
    7DPPC    N4  304   2.376   3.447   1.301
    7DPPC    C5  305   2.453   3.394   1.185
    7DPPC    C6  306   2.513   3.251   1.192
    7DPPC    O7  307   2.419   3.149   1.227
    7DPPC    P8  308   2.488   3.014   1.270
    7DPPC    O9  309   2.380   2.917   1.292
    7DPPC   O10  310   2.608   2.992   1.186
    7DPPC   O11  311   2.538   3.067   1.411
    7DPPC   C12  312   2.536   2.971   1.517
    7DPPC   C13  313   2.565   3.036   1.655
    7DPPC   O14  314   2.681   2.980   1.723
    7DPPC   C15  315   2.735   3.044   1.830
    7DPPC   O16  316   2.711   3.162   1.852
    7DPPC   C17  317   2.853   2.969   1.892
    7DPPC   C18  318   2.868   2.999   2.041
    7DPPC   C19  319   2.998   2.939   2.093
    7DPPC   C20  320   3.019   2.979   2.239
    7DPPC   C21  321   2.963   2.876   2.337
    7DPPC   C22  322   2.952   2.937   2.476
    7DPPC   C23  323   2.915   2.832   2.581
    7DPPC   C24  324   3.036   2.745   2.614
    7DPPC   C25  325   2.994   2.634   2.711
    7DPPC   C26  326   3.111   2.544   2.748
    7DPPC   C27  327   3.062   2.426   2.832
    7DPPC   C28  328   3.178   2.341   2.883
    7DPPC   C29  329   3.131   2.234   2.981
    7DPPC   C30  330   3.068   2.295   3.106
    7DPPC   C31  331   3.026   2.187   3.206
    7DPPC   C32  332   2.433   3.031   1.733
    7DPPC   O33  333   2.360   3.155   1.733
    7DPPC   C34  334   2.226   3.140   1.754
    7DPPC   O35  335   2.170   3.035   1.723
    7DPPC   C36  336   2.151   3.268   1.794
    7DPPC   C37  337   2.022   3.233   1.868
    7DPPC   C38  338   2.052   3.167   2.002
    7DPPC   C39  339   1.937   3.079   2.049
    7DPPC   C40  340   1.965   3.025   2.189
    7DPPC   C41  341   1.959   3.137   2.293
    7DPPC   C42  342   1.820   3.200   2.295
    7DPPC   C43  343   1.817   3.328   2.379
    7DPPC   C44  344   1.854   3.300   2.525
    7DPPC   C45  345   1.847   3.428   2.607
    7DPPC   C46  346   1.871   3.396   2.755
    7DPPC   C47  347   1.803   3.499   2.844
    7DPPC   C48  348   1.863   3.638   2.831
    7DPPC   C49  349   1.777   3.738   2.908
    7DPPC   C50  350   1.842   3.877   2.913
    8DPPC    C1  351   3.041   3.244   1.605
    8DPPC    C2  352   2.992   3.281   1.373
    8DPPC    C3  353   2.918   3.082   1.477
    8DPPC    N4  354   2.940   3.225   1.499
    8DPPC    C5  355   2.811   3.287   1.540
    8DPPC    C6  356   2.801   3.442   1.549
    8DPPC    O7  357   2.758   3.500   1.426
    8DPPC    P8  358   2.742   3.658   1.438
    8DPPC    O9  359   2.865   3.716   1.494
    8DPPC   O10  360   2.677   3.705   1.315
    8DPPC   O11  361   2.631   3.659   1.549
    8DPPC   C12  362   2.605   3.785   1.610
    8DPPC   C13  363   2.512   3.773   1.733
    8DPPC   O14  364   2.445   3.899   1.766
    8DPPC   C15  365   2.334   3.896   1.843
    8DPPC   O16  366   2.269   3.791   1.855
    8DPPC   C17  367   2.283   4.032   1.889
    8DPPC   C18  368   2.377   4.094   1.992
    8DPPC   C19  369   2.317   4.225   2.043
    8DPPC   C20  370   2.406   4.288   2.150
    8DPPC   C21  371   2.335   4.412   2.206
    8DPPC   C22  372   2.408   4.474   2.325
    8DPPC   C23  373   2.419   4.373   2.440
    8DPPC   C24  374   2.401   4.443   2.575
    8DPPC   C25  375   2.505   4.552   2.599
    8DPPC   C26  376   2.478   4.614   2.736
    8DPPC   C27  377   2.588   4.711   2.777
    8DPPC   C28  378   2.573   4.742   2.926
    8DPPC   C29  379   2.692   4.823   2.978
    8DPPC   C30  380   2.708   4.808   3.129
    8DPPC   C31  381   2.587   4.861   3.207
    8DPPC   C32  382   2.596   3.711   1.847
    8DPPC   O33  383   2.698   3.799   1.898
    8DPPC   C34  384   2.789   3.743   1.983
    8DPPC   O35  385   2.792   3.621   2.000
    8DPPC   C36  386   2.888   3.839   2.050
    8DPPC   C37  387   2.818   3.960   2.110
    8DPPC   C38  388   2.919   4.048   2.184
    8DPPC   C39  389   2.851   4.167   2.252
    8DPPC   C40  390   2.954   4.245   2.334
    8DPPC   C41  391   3.014   4.155   2.443
    8DPPC   C42  392   3.133   4.224   2.511
    8DPPC   C43  393   3.205   4.130   2.608
    8DPPC   C44  394   3.116   4.088   2.725
    8DPPC   C45  395   3.193   4.006   2.827
    8DPPC   C46  396   3.101   3.969   2.944
    8DPPC   C47  397   3.173   3.887   3.051
    8DPPC   C48  398   3.072   3.840   3.156
    8DPPC   C49  399   2.967   3.748   3.093
    8DPPC   C50  400   2.855   3.715   3.191
    9DPPC    C1  401   3.614   1.983   0.786
    9DPPC    C2  402   3.613   1.772   0.892
    9DPPC    C3  403   3.763   1.945   0.965
    9DPPC    N4  404   3.701   1.882   0.848
    9DPPC    C5  405   3.801   1.838   0.746
    9DPPC    C6  406   3.918   1.744   0.789
    9DPPC    O7  407   3.881   1.606   0.807
    9DPPC    P8  408   3.998   1.518   0.869
    9DPPC    O9  409   3.956   1.377   0.867
    9DPPC   O10  410   4.126   1.552   0.803
    9DPPC   O11  411   3.994   1.574   1.016
    9DPPC   C12  412   3.883   1.539   1.099
    9DPPC   C13  413   3.873   1.615   1.235
    9DPPC   O14  414   3.781   1.729   1.238
    9DPPC   C15  415   3.652   1.712   1.277
    9DPPC   O16  416   3.598   1.602   1.266
    9DPPC   C17  417   3.575   1.843   1.301
    9DPPC   C18  418   3.564   1.882   1.449
    9DPPC   C19  419   3.454   1.804   1.521
    9DPPC   C20  420   3.433   1.856   1.664
    9DPPC   C21  421   3.321   1.778   1.732
    9DPPC   C22  422   3.288   1.830   1.872
    9DPPC   C23  423   3.402   1.812   1.972
    9DPPC   C24  424   3.346   1.832   2.113
    9DPPC   C25  425   3.449   1.798   2.221
    9DPPC   C26  426   3.377   1.786   2.355
    9DPPC   C27  427   3.474   1.761   2.470
    9DPPC   C28  428   3.397   1.750   2.601
    9DPPC   C29  429   3.487   1.771   2.723
    9DPPC   C30  430   3.545   1.913   2.724
    9DPPC   C31  431   3.621   1.941   2.853
    9DPPC   C32  432   4.016   1.645   1.285
    9DPPC   O33  433   4.068   1.559   1.387
    9DPPC   C34  434   4.130   1.442   1.358
    9DPPC   O35  435   4.131   1.392   1.246
    9DPPC   C36  436   4.188   1.370   1.479
    9DPPC   C37  437   4.080   1.283   1.542
    9DPPC   C38  438   4.137   1.204   1.660
    9DPPC   C39  439   4.175   1.295   1.776
    9DPPC   C40  440   4.231   1.210   1.889
    9DPPC   C41  441   4.230   1.291   2.018
    9DPPC   C42  442   4.262   1.203   2.139
    9DPPC   C43  443   4.215   1.277   2.264
    9DPPC   C44  444   4.242   1.199   2.392
    9DPPC   C45  445   4.163   1.264   2.505
    9DPPC   C46  446   4.176   1.191   2.638
    9DPPC   C47  447   4.060   1.231   2.729
    9DPPC   C48  448   3.929   1.186   2.664
    9DPPC   C49  449   3.804   1.234   2.737
    9DPPC   C50  450   3.679   1.189   2.661
   10DPPC    C1  451   2.834   2.181   1.009
   10DPPC    C2  452   2.979   2.290   0.852
   10DPPC    C3  453   2.916   2.396   1.055
   10DPPC    N4  454   2.952   2.267   0.995
   10DPPC    C5  455   3.067   2.201   1.062
   10DPPC    C6  456   3.199   2.281   1.087
   10DPPC    O7  457   3.277   2.302   0.969
   10DPPC    P8  458   3.413   2.380   0.987
   10DPPC    O9  459   3.494   2.354   0.867
   10DPPC   O10  460   3.376   2.517   1.030
   10DPPC   O11  461   3.476   2.303   1.109
   10DPPC   C12  462   3.584   2.369   1.177
   10DPPC   C13  463   3.614   2.312   1.318
   10DPPC   O14  464   3.720   2.211   1.325
   10DPPC   C15  465   3.852   2.240   1.311
   10DPPC   O16  466   3.893   2.350   1.278
   10DPPC   C17  467   3.942   2.118   1.336
   10DPPC   C18  468   3.956   2.091   1.486
   10DPPC   C19  469   4.024   1.957   1.512
   10DPPC   C20  470   4.032   1.928   1.662
   10DPPC   C21  471   3.893   1.924   1.725
   10DPPC   C22  472   3.903   1.899   1.876
   10DPPC   C23  473   3.978   2.011   1.948
   10DPPC   C24  474   4.005   1.968   2.093
   10DPPC   C25  475   4.076   2.075   2.175
   10DPPC   C26  476   4.216   2.108   2.123
   10DPPC   C27  477   4.280   2.220   2.206
   10DPPC   C28  478   4.298   2.180   2.353
   10DPPC   C29  479   4.356   2.295   2.436
   10DPPC   C30  480   4.362   2.253   2.583
   10DPPC   C31  481   4.403   2.368   2.675
   10DPPC   C32  482   3.481   2.260   1.376
   10DPPC   O33  483   3.430   2.337   1.485
   10DPPC   C34  484   3.321   2.290   1.551
   10DPPC   O35  485   3.262   2.187   1.517
   10DPPC   C36  486   3.284   2.368   1.677
   10DPPC   C37  487   3.409   2.395   1.760
   10DPPC   C38  488   3.373   2.483   1.880
   10DPPC   C39  489   3.498   2.514   1.962
   10DPPC   C40  490   3.452   2.590   2.086
   10DPPC   C41  491   3.568   2.620   2.179
   10DPPC   C42  492   3.509   2.687   2.303
   10DPPC   C43  493   3.614   2.716   2.409
   10DPPC   C44  494   3.552   2.807   2.514
   10DPPC   C45  495   3.515   2.943   2.452
   10DPPC   C46  496   3.446   3.031   2.556
   10DPPC   C47  497   3.535   3.043   2.679
   10DPPC   C48  498   3.464   3.110   2.796
   10DPPC   C49  499   3.549   3.093   2.922
   10DPPC   C50  500   3.480   3.156   3.043
   11DPPC    C1  501   3.571   2.902   0.686
   11DPPC    C2  502   3.490   2.764   0.861
   11DPPC    C3  503   3.341   2.899   0.728
   11DPPC    N4  504   3.472   2.893   0.794
   11DPPC    C5  505   3.496   3.008   0.886
   11DPPC    C6  506   3.403   3.022   1.010
   11DPPC    O7  507   3.443   3.130   1.094
   11DPPC    P8  508   3.342   3.158   1.213
   11DPPC    O9  509   3.385   3.276   1.290
   11DPPC   O10  510   3.203   3.145   1.166
   11DPPC   O11  511   3.365   3.028   1.299
   11DPPC   C12  512   3.281   3.021   1.415
   11DPPC   C13  513   3.251   2.876   1.459
   11DPPC   O14  514   3.122   2.828   1.410
   11DPPC   C15  515   3.102   2.695   1.396
   11DPPC   O16  516   3.189   2.613   1.428
   11DPPC   C17  517   2.960   2.653   1.354
   11DPPC   C18  518   2.865   2.688   1.469
   11DPPC   C19  519   2.736   2.607   1.465
   11DPPC   C20  520   2.668   2.617   1.602
   11DPPC   C21  521   2.761   2.563   1.711
   11DPPC   C22  522   2.706   2.599   1.849
   11DPPC   C23  523   2.798   2.554   1.962
   11DPPC   C24  524   2.734   2.596   2.094
   11DPPC   C25  525   2.802   2.533   2.215
   11DPPC   C26  526   2.716   2.560   2.339
   11DPPC   C27  527   2.760   2.475   2.458
   11DPPC   C28  528   2.667   2.497   2.577
   11DPPC   C29  529   2.697   2.399   2.690
   11DPPC   C30  530   2.609   2.425   2.813
   11DPPC   C31  531   2.461   2.404   2.782
   11DPPC   C32  532   3.275   2.864   1.611
   11DPPC   O33  533   3.257   2.983   1.690
   11DPPC   C34  534   3.341   2.993   1.797
   11DPPC   O35  535   3.417   2.901   1.826
   11DPPC   C36  536   3.331   3.121   1.881
   11DPPC   C37  537   3.384   3.102   2.024
   11DPPC   C38  538   3.362   3.226   2.110
   11DPPC   C39  539   3.214   3.261   2.111
   11DPPC   C40  540   3.172   3.353   2.226
   11DPPC   C41  541   3.019   3.361   2.226
   11DPPC   C42  542   2.963   3.438   2.345
   11DPPC   C43  543   2.811   3.427   2.346
   11DPPC   C44  544   2.747   3.505   2.460
   11DPPC   C45  545   2.773   3.655   2.448
   11DPPC   C46  546   2.693   3.730   2.555
   11DPPC   C47  547   2.729   3.878   2.561
   11DPPC   C48  548   2.649   3.948   2.671
   11DPPC   C49  549   2.697   4.092   2.690
   11DPPC   C50  550   2.607   4.167   2.788
   12DPPC    C1  551   3.896   0.954   1.068
   12DPPC    C2  552   3.839   1.173   1.133
   12DPPC    C3  553   3.895   1.009   1.298
   12DPPC    N4  554   3.826   1.032   1.171
   12DPPC    C5  555   3.685   0.985   1.176
   12DPPC    C6  556   3.583   1.060   1.268
   12DPPC    O7  557   3.460   0.987   1.283
   12DPPC    P8  558   3.346   1.058   1.368
   12DPPC    O9  559   3.336   1.197   1.317
   12DPPC   O10  560   3.227   0.971   1.365
   12DPPC   O11  561   3.405   1.069   1.513
   12DPPC   C12  562   3.310   1.114   1.610
   12DPPC   C13  563   3.375   1.167   1.739
   12DPPC   O14  564   3.278   1.210   1.842
   12DPPC   C15  565   3.202   1.321   1.834
   12DPPC   O16  566   3.190   1.386   1.729
   12DPPC   C17  567   3.103   1.339   1.950
   12DPPC   C18  568   3.170   1.352   2.087
   12DPPC   C19  569   3.064   1.369   2.196
   12DPPC   C20  570   3.130   1.392   2.331
   12DPPC   C21  571   3.030   1.408   2.446
   12DPPC   C22  572   3.110   1.414   2.577
   12DPPC   C23  573   3.025   1.435   2.702
   12DPPC   C24  574   2.922   1.325   2.723
   12DPPC   C25  575   2.859   1.340   2.862
   12DPPC   C26  576   2.791   1.476   2.876
   12DPPC   C27  577   2.746   1.503   3.020
   12DPPC   C28  578   2.862   1.549   3.108
   12DPPC   C29  579   2.810   1.585   3.247
   12DPPC   C30  580   2.918   1.643   3.338
   12DPPC   C31  581   2.965   1.781   3.291
   12DPPC   C32  582   3.482   1.270   1.695
   12DPPC   O33  583   3.538   1.349   1.801
   12DPPC   C34  584   3.642   1.431   1.774
   12DPPC   O35  585   3.714   1.416   1.675
   12DPPC   C36  586   3.666   1.539   1.879
   12DPPC   C37  587   3.761   1.491   1.989
   12DPPC   C38  588   3.771   1.594   2.101
   12DPPC   C39  589   3.878   1.551   2.201
   12DPPC   C40  590   3.881   1.641   2.325
   12DPPC   C41  591   3.990   1.592   2.420
   12DPPC   C42  592   3.986   1.664   2.555
   12DPPC   C43  593   4.017   1.814   2.543
   12DPPC   C44  594   3.997   1.884   2.677
   12DPPC   C45  595   4.007   2.036   2.659
   12DPPC   C46  596   3.957   2.113   2.782
   12DPPC   C47  597   4.058   2.119   2.896
   12DPPC   C48  598   3.997   2.187   3.019
   12DPPC   C49  599   3.948   2.329   2.988
   12DPPC   C50  600   3.875   2.389   3.108
   13DPPC    C1  601   4.425   3.207   1.547
   13DPPC    C2  602   4.244   3.154   1.404
   13DPPC    C3  603   4.457   3.045   1.381
   13DPPC    N4  604   4.359   3.096   1.477
   13DPPC    C5  605   4.318   2.993   1.576
   13DPPC    C6  606   4.227   2.876   1.526
   13DPPC    O7  607   4.292   2.785   1.436
   13DPPC    P8  608   4.188   2.699   1.353
   13DPPC    O9  609   4.091   2.799   1.304
   13DPPC   O10  610   4.269   2.617   1.261
   13DPPC   O11  611   4.132   2.614   1.474
   13DPPC   C12  612   4.198   2.487   1.487
   13DPPC   C13  613   4.193   2.423   1.628
   13DPPC   O14  614   4.245   2.286   1.628
   13DPPC   C15  615   4.374   2.259   1.593
   13DPPC   O16  616   4.458   2.349   1.580
   13DPPC   C17  617   4.409   2.109   1.586
   13DPPC   C18  618   4.531   2.077   1.672
   13DPPC   C19  619   4.503   2.112   1.818
   13DPPC   C20  620   4.627   2.103   1.908
   13DPPC   C21  621   4.588   2.158   2.045
   13DPPC   C22  622   4.697   2.154   2.151
   13DPPC   C23  623   4.814   2.249   2.122
   13DPPC   C24  624   4.913   2.243   2.238
   13DPPC   C25  625   5.035   2.329   2.207
   13DPPC   C26  626   5.139   2.323   2.320
   13DPPC   C27  627   5.197   2.183   2.338
   13DPPC   C28  628   5.290   2.177   2.460
   13DPPC   C29  629   5.344   2.036   2.480
   13DPPC   C30  630   5.434   2.024   2.603
   13DPPC   C31  631   5.355   2.030   2.734
   13DPPC   C32  632   4.048   2.431   1.680
   13DPPC   O33  633   4.039   2.484   1.814
   13DPPC   C34  634   3.917   2.503   1.869
   13DPPC   O35  635   3.815   2.514   1.801
   13DPPC   C36  636   3.918   2.537   2.018
   13DPPC   C37  637   3.913   2.408   2.099
   13DPPC   C38  638   3.920   2.438   2.248
   13DPPC   C39  639   4.055   2.496   2.289
   13DPPC   C40  640   4.043   2.568   2.423
   13DPPC   C41  641   3.989   2.476   2.532
   13DPPC   C42  642   3.924   2.557   2.645
   13DPPC   C43  643   4.022   2.645   2.722
   13DPPC   C44  644   3.942   2.723   2.827
   13DPPC   C45  645   4.030   2.800   2.925
   13DPPC   C46  646   3.942   2.862   3.033
   13DPPC   C47  647   4.024   2.941   3.135
   13DPPC   C48  648   3.937   2.997   3.247
   13DPPC   C49  649   3.831   3.095   3.194
   13DPPC   C50  650   3.756   3.162   3.310
   14DPPC    C1  651   3.686   2.798   1.722
   14DPPC    C2  652   3.641   2.624   1.565
   14DPPC    C3  653   3.840   2.751   1.547
   14DPPC    N4  654   3.698   2.758   1.581
   14DPPC    C5  655   3.627   2.849   1.487
   14DPPC    C6  656   3.654   3.002   1.496
   14DPPC    O7  657   3.557   3.067   1.578
   14DPPC    P8  658   3.583   3.221   1.602
   14DPPC    O9  659   3.663   3.282   1.495
   14DPPC   O10  660   3.458   3.286   1.647
   14DPPC   O11  661   3.680   3.205   1.726
   14DPPC   C12  662   3.681   3.316   1.815
   14DPPC   C13  663   3.781   3.303   1.932
   14DPPC   O14  664   3.889   3.402   1.934
   14DPPC   C15  665   3.989   3.412   1.843
   14DPPC   O16  666   4.007   3.329   1.754
   14DPPC   C17  667   4.089   3.525   1.872
   14DPPC   C18  668   4.171   3.488   1.996
   14DPPC   C19  669   4.257   3.605   2.044
   14DPPC   C20  670   4.307   3.575   2.185
   14DPPC   C21  671   4.385   3.696   2.239
   14DPPC   C22  672   4.417   3.681   2.388
   14DPPC   C23  673   4.469   3.815   2.440
   14DPPC   C24  674   4.497   3.810   2.591
   14DPPC   C25  675   4.624   3.731   2.622
   14DPPC   C26  676   4.625   3.693   2.769
   14DPPC   C27  677   4.523   3.582   2.797
   14DPPC   C28  678   4.526   3.541   2.944
   14DPPC   C29  679   4.417   3.437   2.971
   14DPPC   C30  680   4.416   3.395   3.118
   14DPPC   C31  681   4.299   3.300   3.146
   14DPPC   C32  682   3.819   3.154   1.946
   14DPPC   O33  683   3.794   3.105   2.079
   14DPPC   C34  684   3.833   2.980   2.113
   14DPPC   O35  685   3.866   2.895   2.031
   14DPPC   C36  686   3.858   2.967   2.264
   14DPPC   C37  687   4.008   2.962   2.295
   14DPPC   C38  688   4.090   3.070   2.223
   14DPPC   C39  689   4.238   3.045   2.247
   14DPPC   C40  690   4.330   3.117   2.148
   14DPPC   C41  691   4.328   3.055   2.008
   14DPPC   C42  692   4.461   3.085   1.939
   14DPPC   C43  693   4.481   3.236   1.923
   14DPPC   C44  694   4.628   3.272   1.901
   14DPPC   C45  695   4.706   3.289   2.032
   14DPPC   C46  696   4.758   3.432   2.043
   14DPPC   C47  697   4.867   3.441   2.151
   14DPPC   C48  698   4.902   3.586   2.184
   14DPPC   C49  699   5.004   3.591   2.299
   14DPPC   C50  700   4.949   3.527   2.426
   15DPPC    C1  701   4.009   4.435   1.566
   15DPPC    C2  702   3.853   4.477   1.395
   15DPPC    C3  703   4.071   4.400   1.337
   15DPPC    N4  704   3.963   4.388   1.435
   15DPPC    C5  705   3.911   4.249   1.443
   15DPPC    C6  706   4.007   4.144   1.504
   15DPPC    O7  707   3.960   4.009   1.498
   15DPPC    P8  708   4.070   3.906   1.544
   15DPPC    O9  709   4.019   3.770   1.517
   15DPPC   O10  710   4.193   3.951   1.476
   15DPPC   O11  711   4.073   3.935   1.698
   15DPPC   C12  712   3.971   3.870   1.774
   15DPPC   C13  713   3.972   3.912   1.923
   15DPPC   O14  714   3.895   3.827   2.016
   15DPPC   C15  715   3.767   3.784   1.996
   15DPPC   O16  716   3.708   3.800   1.890
   15DPPC   C17  717   3.700   3.712   2.113
   15DPPC   C18  718   3.783   3.599   2.174
   15DPPC   C19  719   3.691   3.513   2.262
   15DPPC   C20  720   3.766   3.404   2.336
   15DPPC   C21  721   3.869   3.467   2.430
   15DPPC   C22  722   3.934   3.363   2.521
   15DPPC   C23  723   4.033   3.433   2.615
   15DPPC   C24  724   4.098   3.331   2.708
   15DPPC   C25  725   4.177   3.229   2.627
   15DPPC   C26  726   4.231   3.120   2.720
   15DPPC   C27  727   4.313   3.019   2.640
   15DPPC   C28  728   4.422   2.955   2.726
   15DPPC   C29  729   4.522   3.062   2.772
   15DPPC   C30  730   4.649   2.998   2.828
   15DPPC   C31  731   4.752   3.105   2.865
   15DPPC   C32  732   3.946   4.064   1.926
   15DPPC   O33  733   4.026   4.133   2.024
   15DPPC   C34  734   4.077   4.254   1.992
   15DPPC   O35  735   4.085   4.292   1.874
   15DPPC   C36  736   4.159   4.323   2.100
   15DPPC   C37  737   4.098   4.307   2.239
   15DPPC   C38  738   4.181   4.381   2.342
   15DPPC   C39  739   4.130   4.352   2.483
   15DPPC   C40  740   4.222   4.417   2.587
   15DPPC   C41  741   4.186   4.370   2.727
   15DPPC   C42  742   4.203   4.218   2.737
   15DPPC   C43  743   4.159   4.166   2.874
   15DPPC   C44  744   4.167   4.014   2.876
   15DPPC   C45  745   4.115   3.959   3.009
   15DPPC   C46  746   4.113   3.806   3.006
   15DPPC   C47  747   4.048   3.752   3.133
   15DPPC   C48  748   4.026   3.601   3.126
   15DPPC   C49  749   3.928   3.560   3.016
   15DPPC   C50  750   3.786   3.614   3.040
   16DPPC    C1  751   0.624   1.254   1.729
   16DPPC    C2  752   0.752   1.215   1.530
   16DPPC    C3  753   0.516   1.209   1.522
   16DPPC    N4  754   0.630   1.277   1.584
   16DPPC    C5  755   0.618   1.421   1.551
   16DPPC    C6  756   0.745   1.510   1.558
   16DPPC    O7  757   0.806   1.514   1.687
   16DPPC    P8  758   0.950   1.578   1.688
   16DPPC    O9  759   1.030   1.508   1.586
   16DPPC   O10  760   0.932   1.724   1.683
   16DPPC   O11  761   0.996   1.539   1.834
   16DPPC   C12  762   0.895   1.542   1.935
   16DPPC   C13  763   0.948   1.531   2.080
   16DPPC   O14  764   0.978   1.660   2.142
   16DPPC   C15  765   0.882   1.708   2.223
   16DPPC   O16  766   0.766   1.672   2.209
   16DPPC   C17  767   0.920   1.820   2.320
   16DPPC   C18  768   0.885   1.770   2.460
   16DPPC   C19  769   0.918   1.867   2.573
   16DPPC   C20  770   0.911   1.787   2.703
   16DPPC   C21  771   0.949   1.870   2.826
   16DPPC   C22  772   0.958   1.783   2.952
   16DPPC   C23  773   0.826   1.709   2.975
   16DPPC   C24  774   0.825   1.626   3.104
   16DPPC   C25  775   0.764   1.705   3.221
   16DPPC   C26  776   0.725   1.608   3.332
   16DPPC   C27  777   0.647   1.679   3.443
   16DPPC   C28  778   0.587   1.577   3.539
   16DPPC   C29  779   0.501   1.644   3.646
   16DPPC   C30  780   0.431   1.540   3.733
   16DPPC   C31  781   0.339   1.606   3.836
   16DPPC   C32  782   1.062   1.427   2.079
   16DPPC   O33  783   1.134   1.416   2.202
   16DPPC   C34  784   1.245   1.339   2.199
   16DPPC   O35  785   1.262   1.255   2.113
   16DPPC   C36  786   1.341   1.361   2.316
   16DPPC   C37  787   1.432   1.241   2.336
   16DPPC   C38  788   1.532   1.273   2.446
   16DPPC   C39  789   1.620   1.152   2.475
   16DPPC   C40  790   1.644   1.145   2.625
   16DPPC   C41  791   1.511   1.122   2.697
   16DPPC   C42  792   1.520   1.163   2.843
   16DPPC   C43  793   1.548   1.313   2.853
   16DPPC   C44  794   1.581   1.356   2.996
   16DPPC   C45  795   1.702   1.279   3.048
   16DPPC   C46  796   1.742   1.333   3.185
   16DPPC   C47  797   1.850   1.246   3.249
   16DPPC   C48  798   1.895   1.308   3.381
   16DPPC   C49  799   2.003   1.223   3.449
   16DPPC   C50  800   2.051   1.293   3.576
   17DPPC    C1  801   1.172   1.214   1.129
   17DPPC    C2  802   1.255   1.432   1.084
   17DPPC    C3  803   1.226   1.272   0.909
   17DPPC    N4  804   1.268   1.289   1.048
   17DPPC    C5  805   1.401   1.225   1.069
   17DPPC    C6  806   1.531   1.308   1.052
   17DPPC    O7  807   1.559   1.391   1.166
   17DPPC    P8  808   1.691   1.476   1.149
   17DPPC    O9  809   1.802   1.378   1.145
   17DPPC   O10  810   1.671   1.572   1.040
   17DPPC   O11  811   1.703   1.547   1.290
   17DPPC   C12  812   1.588   1.598   1.358
   17DPPC   C13  813   1.616   1.594   1.509
   17DPPC   O14  814   1.506   1.635   1.596
   17DPPC   C15  815   1.420   1.543   1.645
   17DPPC   O16  816   1.414   1.429   1.599
   17DPPC   C17  817   1.326   1.595   1.755
   17DPPC   C18  818   1.407   1.634   1.878
   17DPPC   C19  819   1.319   1.685   1.992
   17DPPC   C20  820   1.407   1.736   2.106
   17DPPC   C21  821   1.326   1.761   2.233
   17DPPC   C22  822   1.417   1.804   2.348
   17DPPC   C23  823   1.361   1.745   2.477
   17DPPC   C24  824   1.432   1.795   2.603
   17DPPC   C25  825   1.365   1.726   2.721
   17DPPC   C26  826   1.400   1.790   2.855
   17DPPC   C27  827   1.329   1.713   2.966
   17DPPC   C28  828   1.367   1.762   3.106
   17DPPC   C29  829   1.518   1.746   3.126
   17DPPC   C30  830   1.559   1.781   3.269
   17DPPC   C31  831   1.711   1.772   3.281
   17DPPC   C32  832   1.749   1.666   1.532
   17DPPC   O33  833   1.824   1.604   1.637
   17DPPC   C34  834   1.959   1.620   1.638
   17DPPC   O35  835   2.023   1.657   1.539
   17DPPC   C36  836   2.026   1.576   1.767
   17DPPC   C37  837   2.155   1.653   1.789
   17DPPC   C38  838   2.223   1.609   1.918
   17DPPC   C39  839   2.369   1.655   1.917
   17DPPC   C40  840   2.436   1.614   2.047
   17DPPC   C41  841   2.377   1.698   2.161
   17DPPC   C42  842   2.398   1.636   2.299
   17DPPC   C43  843   2.545   1.611   2.334
   17DPPC   C44  844   2.562   1.593   2.485
   17DPPC   C45  845   2.483   1.474   2.539
   17DPPC   C46  846   2.484   1.466   2.692
   17DPPC   C47  847   2.415   1.589   2.754
   17DPPC   C48  848   2.403   1.579   2.906
   17DPPC   C49  849   2.316   1.461   2.950
   17DPPC   C50  850   2.302   1.456   3.103
   18DPPC    C1  851   1.833   6.122   1.415
   18DPPC    C2  852   1.687   5.939   1.456
   18DPPC    C3  853   1.834   6.007   1.624
   18DPPC    N4  854   1.823   5.990   1.479
   18DPPC    C5  855   1.922   5.893   1.426
   18DPPC    C6  856   2.070   5.941   1.415
   18DPPC    O7  857   2.160   5.831   1.411
   18DPPC    P8  858   2.307   5.872   1.453
   18DPPC    O9  859   2.390   5.750   1.457
   18DPPC   O10  860   2.347   5.982   1.364
   18DPPC   O11  861   2.283   5.925   1.599
   18DPPC   C12  862   2.272   5.823   1.699
   18DPPC   C13  863   2.323   5.865   1.839
   18DPPC   O14  864   2.225   5.855   1.948
   18DPPC   C15  865   2.114   5.934   1.956
   18DPPC   O16  866   2.078   6.006   1.863
   18DPPC   C17  867   2.034   5.926   2.087
   18DPPC   C18  868   2.114   5.874   2.207
   18DPPC   C19  869   2.040   5.904   2.337
   18DPPC   C20  870   2.108   5.835   2.455
   18DPPC   C21  871   2.060   5.887   2.591
   18DPPC   C22  872   1.908   5.879   2.609
   18DPPC   C23  873   1.867   5.915   2.752
   18DPPC   C24  874   1.925   6.049   2.795
   18DPPC   C25  875   1.887   6.082   2.939
   18DPPC   C26  876   1.986   6.184   2.995
   18DPPC   C27  877   1.951   6.225   3.138
   18DPPC   C28  878   2.059   6.317   3.193
   18DPPC   C29  879   2.011   6.387   3.320
   18DPPC   C30  880   2.119   0.038   3.374
   18DPPC   C31  881   2.063   0.124   3.488
   18DPPC   C32  882   2.392   6.002   1.825
   18DPPC   O33  883   2.518   6.014   1.893
   18DPPC   C34  884   2.627   5.954   1.840
   18DPPC   O35  885   2.632   5.907   1.725
   18DPPC   C36  886   2.745   5.943   1.936
   18DPPC   C37  887   2.744   5.804   1.999
   18DPPC   C38  888   2.835   5.804   2.121
   18DPPC   C39  889   2.863   5.661   2.167
   18DPPC   C40  890   2.945   5.661   2.295
   18DPPC   C41  891   3.081   5.729   2.278
   18DPPC   C42  892   3.155   5.733   2.411
   18DPPC   C43  893   3.296   5.791   2.398
   18DPPC   C44  894   3.370   5.786   2.531
   18DPPC   C45  895   3.386   5.643   2.582
   18DPPC   C46  896   3.453   5.642   2.720
   18DPPC   C47  897   3.467   5.501   2.777
   18DPPC   C48  898   3.334   5.436   2.815
   18DPPC   C49  899   3.359   5.302   2.884
   18DPPC   C50  900   3.228   5.237   2.930
   19DPPC    C1  901   2.306   0.190   1.434
   19DPPC    C2  902   2.215   0.190   1.213
   19DPPC    C3  903   2.358   0.364   1.279
   19DPPC    N4  904   2.251   0.275   1.327
   19DPPC    C5  905   2.138   0.360   1.372
   19DPPC    C6  906   1.997   0.298   1.397
   19DPPC    O7  907   1.999   0.194   1.495
   19DPPC    P8  908   1.859   0.139   1.544
   19DPPC    O9  909   1.758   0.241   1.511
   19DPPC   O10  910   1.844   6.443   1.498
   19DPPC   O11  911   1.888   0.146   1.698
   19DPPC   C12  912   1.991   0.058   1.743
   19DPPC   C13  913   2.025   0.074   1.893
   19DPPC   O14  914   2.118   0.184   1.927
   19DPPC   C15  915   2.249   0.186   1.890
   19DPPC   O16  916   2.289   0.120   1.794
   19DPPC   C17  917   2.334   0.299   1.952
   19DPPC   C18  918   2.385   0.266   2.092
   19DPPC   C19  919   2.276   0.283   2.198
   19DPPC   C20  920   2.233   0.429   2.208
   19DPPC   C21  921   2.109   0.446   2.295
   19DPPC   C22  922   1.984   0.391   2.226
   19DPPC   C23  923   1.863   0.410   2.317
   19DPPC   C24  924   1.730   0.373   2.252
   19DPPC   C25  925   1.725   0.229   2.201
   19DPPC   C26  926   1.580   0.183   2.188
   19DPPC   C27  927   1.518   0.176   2.328
   19DPPC   C28  928   1.368   0.147   2.328
   19DPPC   C29  929   1.319   0.160   2.472
   19DPPC   C30  930   1.166   0.162   2.482
   19DPPC   C31  931   1.124   0.194   2.625
   19DPPC   C32  932   2.065   6.379   1.947
   19DPPC   O33  933   1.967   6.317   2.032
   19DPPC   C34  934   1.850   6.268   1.981
   19DPPC   O35  935   1.822   6.269   1.862
   19DPPC   C36  936   1.751   6.220   2.087
   19DPPC   C37  937   1.607   6.244   2.041
   19DPPC   C38  938   1.512   6.207   2.154
   19DPPC   C39  939   1.366   6.221   2.112
   19DPPC   C40  940   1.281   6.182   2.233
   19DPPC   C41  941   1.134   6.166   2.198
   19DPPC   C42  942   1.061   6.104   2.317
   19DPPC   C43  943   1.120   5.968   2.355
   19DPPC   C44  944   1.047   5.912   2.476
   19DPPC   C45  945   1.099   5.773   2.514
   19DPPC   C46  946   1.023   5.720   2.635
   19DPPC   C47  947   1.047   5.808   2.758
   19DPPC   C48  948   0.971   5.753   2.879
   19DPPC   C49  949   1.000   5.837   3.003
   19DPPC   C50  950   0.929   5.779   3.125
   20DPPC    C1  951   1.874   0.446   1.831
   20DPPC    C2  952   2.093   0.473   1.740
   20DPPC    C3  953   2.021   0.616   1.912
   20DPPC    N4  954   1.976   0.544   1.792
   20DPPC    C5  955   1.930   0.634   1.683
   20DPPC    C6  956   1.802   0.719   1.702
   20DPPC    O7  957   1.815   0.812   1.808
   20DPPC    P8  958   1.722   0.937   1.802
   20DPPC    O9  959   1.794   1.036   1.721
   20DPPC   O10  960   1.588   0.891   1.764
   20DPPC   O11  961   1.727   0.979   1.954
   20DPPC   C12  962   1.856   1.020   1.999
   20DPPC   C13  963   1.852   1.087   2.138
   20DPPC   O14  964   1.830   0.999   2.253
   20DPPC   C15  965   1.908   0.894   2.287
   20DPPC   O16  966   2.010   0.861   2.225
   20DPPC   C17  967   1.857   0.815   2.407
   20DPPC   C18  968   1.920   0.868   2.536
   20DPPC   C19  969   1.853   0.803   2.657
   20DPPC   C20  970   1.903   0.865   2.788
   20DPPC   C21  971   1.824   0.811   2.908
   20DPPC   C22  972   1.675   0.841   2.892
   20DPPC   C23  973   1.591   0.793   3.010
   20DPPC   C24  974   1.631   0.868   3.137
   20DPPC   C25  975   1.557   0.816   3.260
   20DPPC   C26  976   1.617   0.886   3.382
   20DPPC   C27  977   1.570   0.824   3.513
   20DPPC   C28  978   1.654   0.877   3.630
   20DPPC   C29  979   1.642   1.029   3.642
   20DPPC   C30  980   1.729   1.083   3.756
   20DPPC   C31  981   1.717   1.235   3.766
   20DPPC   C32  982   1.738   1.191   2.126
   20DPPC   O33  983   1.780   1.326   2.103
   20DPPC   C34  984   1.682   1.419   2.093
   20DPPC   O35  985   1.565   1.390   2.071
   20DPPC   C36  986   1.728   1.562   2.120
   20DPPC   C37  987   1.761   1.574   2.269
   20DPPC   C38  988   1.818   1.712   2.303
   20DPPC   C39  989   1.946   1.737   2.223
   20DPPC   C40  990   1.994   1.881   2.239
   20DPPC   C41  991   2.044   1.912   2.380
   20DPPC   C42  992   2.074   2.062   2.393
   20DPPC   C43  993   2.128   2.100   2.530
   20DPPC   C44  994   2.274   2.058   2.549
   20DPPC   C45  995   2.366   2.130   2.450
   20DPPC   C46  996   2.513   2.093   2.469
   20DPPC   C47  997   2.599   2.156   2.360
   20DPPC   C48  998   2.559   2.103   2.222
   20DPPC   C49  999   2.630   2.180   2.110
   20DPPC   C50 1000   2.574   2.140   1.974
   21DPPC    C1 1001   2.431   5.267   1.191
   21DPPC    C2 1002   2.527   5.239   1.408
   21DPPC    C3 1003   2.664   5.240   1.212
   21DPPC    N4 1004   2.535   5.198   1.267
   21DPPC    C5 1005   2.518   5.052   1.246
   21DPPC    C6 1006   2.611   4.959   1.329
   21DPPC    O7 1007   2.618   4.826   1.278
   21DPPC    P8 1008   2.709   4.734   1.369
   21DPPC    O9 1009   2.720   4.601   1.306
   21DPPC   O10 1010   2.827   4.817   1.402
   21DPPC   O11 1011   2.614   4.727   1.495
   21DPPC   C12 1012   2.653   4.645   1.605
   21DPPC   C13 1013   2.576   4.689   1.731
   21DPPC   O14 1014   2.602   4.605   1.848
   21DPPC   C15 1015   2.684   4.653   1.944
   21DPPC   O16 1016   2.769   4.738   1.915
   21DPPC   C17 1017   2.674   4.579   2.079
   21DPPC   C18 1018   2.806   4.566   2.156
   21DPPC   C19 1019   2.854   4.700   2.211
   21DPPC   C20 1020   2.771   4.747   2.331
   21DPPC   C21 1021   2.787   4.896   2.360
   21DPPC   C22 1022   2.933   4.943   2.372
   21DPPC   C23 1023   2.939   5.065   2.465
   21DPPC   C24 1024   3.065   5.148   2.442
   21DPPC   C25 1025   3.082   5.256   2.548
   21DPPC   C26 1026   2.964   5.353   2.558
   21DPPC   C27 1027   2.998   5.463   2.659
   21DPPC   C28 1028   2.883   5.560   2.685
   21DPPC   C29 1029   2.931   5.673   2.776
   21DPPC   C30 1030   2.817   5.766   2.817
   21DPPC   C31 1031   2.869   5.877   2.910
   21DPPC   C32 1032   2.427   4.699   1.694
   21DPPC   O33 1033   2.350   4.780   1.785
   21DPPC   C34 1034   2.375   4.912   1.793
   21DPPC   O35 1035   2.431   4.976   1.703
   21DPPC   C36 1036   2.309   4.982   1.911
   21DPPC   C37 1037   2.369   4.930   2.041
   21DPPC   C38 1038   2.303   5.001   2.158
   21DPPC   C39 1039   2.367   4.956   2.289
   21DPPC   C40 1040   2.317   5.047   2.401
   21DPPC   C41 1041   2.397   5.017   2.527
   21DPPC   C42 1042   2.364   5.120   2.636
   21DPPC   C43 1043   2.456   5.097   2.756
   21DPPC   C44 1044   2.422   5.196   2.867
   21DPPC   C45 1045   2.452   5.339   2.824
   21DPPC   C46 1046   2.391   5.439   2.923
   21DPPC   C47 1047   2.427   5.581   2.879
   21DPPC   C48 1048   2.356   5.687   2.965
   21DPPC   C49 1049   2.396   5.826   2.917
   21DPPC   C50 1050   2.326   5.935   2.998
   22DPPC    C1 1051   3.372   5.734   1.170
   22DPPC    C2 1052   3.533   5.908   1.151
   22DPPC    C3 1053   3.305   5.963   1.154
   22DPPC    N4 1054   3.404   5.872   1.211
   22DPPC    C5 1055   3.414   5.884   1.359
   22DPPC    C6 1056   3.284   5.894   1.445
   22DPPC    O7 1057   3.199   5.778   1.444
   22DPPC    P8 1058   3.074   5.794   1.541
   22DPPC    O9 1059   2.993   5.911   1.502
   22DPPC   O10 1060   3.015   5.660   1.562
   22DPPC   O11 1061   3.148   5.837   1.673
   22DPPC   C12 1062   3.073   5.816   1.793
   22DPPC   C13 1063   3.133   5.884   1.918
   22DPPC   O14 1064   3.079   6.016   1.954
   22DPPC   C15 1065   3.128   6.134   1.908
   22DPPC   O16 1066   3.173   6.146   1.793
   22DPPC   C17 1067   3.106   6.253   2.002
   22DPPC   C18 1068   3.107   6.208   2.149
   22DPPC   C19 1069   3.080   6.326   2.242
   22DPPC   C20 1070   3.045   6.279   2.383
   22DPPC   C21 1071   2.907   6.213   2.391
   22DPPC   C22 1072   2.877   6.176   2.536
   22DPPC   C23 1073   2.740   6.111   2.558
   22DPPC   C24 1074   2.726   5.980   2.481
   22DPPC   C25 1075   2.602   5.904   2.530
   22DPPC   C26 1076   2.588   5.772   2.454
   22DPPC   C27 1077   2.476   5.686   2.515
   22DPPC   C28 1078   2.469   5.551   2.442
   22DPPC   C29 1079   2.601   5.475   2.457
   22DPPC   C30 1080   2.607   5.351   2.369
   22DPPC   C31 1081   2.598   5.388   2.221
   22DPPC   C32 1082   3.286   5.872   1.911
   22DPPC   O33 1083   3.340   5.764   1.987
   22DPPC   C34 1084   3.407   5.668   1.919
   22DPPC   O35 1085   3.396   5.650   1.798
   22DPPC   C36 1086   3.489   5.572   2.005
   22DPPC   C37 1087   3.404   5.498   2.108
   22DPPC   C38 1088   3.494   5.398   2.180
   22DPPC   C39 1089   3.420   5.326   2.292
   22DPPC   C40 1090   3.512   5.222   2.355
   22DPPC   C41 1091   3.436   5.147   2.464
   22DPPC   C42 1092   3.515   5.030   2.521
   22DPPC   C43 1093   3.424   4.954   2.618
   22DPPC   C44 1094   3.496   4.836   2.681
   22DPPC   C45 1095   3.408   4.768   2.786
   22DPPC   C46 1096   3.285   4.697   2.728
   22DPPC   C47 1097   3.203   4.642   2.845
   22DPPC   C48 1098   3.083   4.558   2.804
   22DPPC   C49 1099   3.007   4.517   2.931
   22DPPC   C50 1100   2.894   4.418   2.901
   23DPPC    C1 1101   2.839   6.137   1.314
   23DPPC    C2 1102   2.700   5.966   1.236
   23DPPC    C3 1103   2.661   6.057   1.450
   23DPPC    N4 1104   2.700   6.091   1.313
   23DPPC    C5 1105   2.609   6.190   1.252
   23DPPC    C6 1106   2.609   6.337   1.305
   23DPPC    O7 1107   2.722   6.413   1.262
   23DPPC    P8 1108   2.734   0.117   1.318
   23DPPC    O9 1109   2.850   0.174   1.248
   23DPPC   O10 1110   2.601   0.177   1.303
   23DPPC   O11 1111   2.769   0.093   1.469
   23DPPC   C12 1112   2.908   0.073   1.493
   23DPPC   C13 1113   2.944   0.060   1.643
   23DPPC   O14 1114   3.086   0.047   1.673
   23DPPC   C15 1115   3.177   0.144   1.642
   23DPPC   O16 1116   3.163   0.223   1.548
   23DPPC   C17 1117   3.308   0.135   1.721
   23DPPC   C18 1118   3.288   0.171   1.868
   23DPPC   C19 1119   3.228   0.311   1.890
   23DPPC   C20 1120   3.217   0.345   2.038
   23DPPC   C21 1121   3.355   0.350   2.103
   23DPPC   C22 1122   3.353   0.387   2.252
   23DPPC   C23 1123   3.295   0.527   2.274
   23DPPC   C24 1124   3.336   0.588   2.408
   23DPPC   C25 1125   3.279   0.513   2.529
   23DPPC   C26 1126   3.321   0.584   2.658
   23DPPC   C27 1127   3.262   0.514   2.780
   23DPPC   C28 1128   3.304   0.582   2.910
   23DPPC   C29 1129   3.240   0.512   3.030
   23DPPC   C30 1130   3.088   0.528   3.027
   23DPPC   C31 1131   3.021   0.440   3.132
   23DPPC   C32 1132   2.860   6.386   1.695
   23DPPC   O33 1133   2.752   6.426   1.779
   23DPPC   C34 1134   2.644   6.346   1.789
   23DPPC   O35 1135   2.604   6.277   1.695
   23DPPC   C36 1136   2.553   6.384   1.905
   23DPPC   C37 1137   2.608   6.327   2.036
   23DPPC   C38 1138   2.517   6.373   2.149
   23DPPC   C39 1139   2.564   6.323   2.285
   23DPPC   C40 1140   2.465   6.371   2.391
   23DPPC   C41 1141   2.327   6.316   2.358
   23DPPC   C42 1142   2.217   6.382   2.440
   23DPPC   C43 1143   2.083   6.326   2.396
   23DPPC   C44 1144   1.967   6.384   2.477
   23DPPC   C45 1145   1.844   6.302   2.442
   23DPPC   C46 1146   1.722   6.345   2.522
   23DPPC   C47 1147   1.613   6.240   2.501
   23DPPC   C48 1148   1.488   6.273   2.583
   23DPPC   C49 1149   1.392   6.154   2.583
   23DPPC   C50 1150   1.270   6.183   2.669
   24DPPC    C1 1151   2.920   0.474   1.154
   24DPPC    C2 1152   2.938   0.541   0.926
   24DPPC    C3 1153   2.960   0.314   0.981
   24DPPC    N4 1154   2.888   0.437   1.016
   24DPPC    C5 1155   2.742   0.411   1.000
   24DPPC    C6 1156   2.652   0.535   0.984
   24DPPC    O7 1157   2.642   0.607   1.106
   24DPPC    P8 1158   2.617   0.762   1.105
   24DPPC    O9 1159   2.708   0.828   1.008
   24DPPC   O10 1160   2.471   0.785   1.101
   24DPPC   O11 1161   2.677   0.788   1.248
   24DPPC   C12 1162   2.618   0.705   1.347
   24DPPC   C13 1163   2.698   0.691   1.478
   24DPPC   O14 1164   2.718   0.553   1.523
   24DPPC   C15 1165   2.613   0.477   1.567
   24DPPC   O16 1166   2.496   0.504   1.542
   24DPPC   C17 1167   2.654   0.355   1.650
   24DPPC   C18 1168   2.675   0.402   1.794
   24DPPC   C19 1169   2.738   0.294   1.882
   24DPPC   C20 1170   2.763   0.351   2.022
   24DPPC   C21 1171   2.826   0.248   2.116
   24DPPC   C22 1172   2.844   0.307   2.255
   24DPPC   C23 1173   2.897   0.201   2.351
   24DPPC   C24 1174   2.907   0.252   2.495
   24DPPC   C25 1175   2.947   0.135   2.585
   24DPPC   C26 1176   2.938   0.169   2.734
   24DPPC   C27 1177   2.942   0.041   2.817
   24DPPC   C28 1178   3.072   6.406   2.800
   24DPPC   C29 1179   3.063   6.269   2.868
   24DPPC   C30 1180   3.191   6.186   2.849
   24DPPC   C31 1181   3.220   6.157   2.702
   24DPPC   C32 1182   2.634   0.783   1.585
   24DPPC   O33 1183   2.723   0.876   1.648
   24DPPC   C34 1184   2.669   0.942   1.753
   24DPPC   O35 1185   2.569   0.899   1.811
   24DPPC   C36 1186   2.752   1.058   1.806
   24DPPC   C37 1187   2.718   1.083   1.953
   24DPPC   C38 1188   2.759   1.223   1.999
   24DPPC   C39 1189   2.669   1.260   2.117
   24DPPC   C40 1190   2.683   1.157   2.229
   24DPPC   C41 1191   2.566   1.170   2.326
   24DPPC   C42 1192   2.584   1.073   2.442
   24DPPC   C43 1193   2.473   1.095   2.544
   24DPPC   C44 1194   2.513   1.030   2.676
   24DPPC   C45 1195   2.425   1.086   2.787
   24DPPC   C46 1196   2.463   1.023   2.921
   24DPPC   C47 1197   2.367   1.070   3.031
   24DPPC   C48 1198   2.222   1.043   2.988
   24DPPC   C49 1199   2.126   1.055   3.106
   24DPPC   C50 1200   2.147   0.941   3.205
   25DPPC    C1 1201   3.307   4.863   1.683
   25DPPC    C2 1202   3.268   5.097   1.723
   25DPPC    C3 1203   3.207   4.998   1.517
   25DPPC    N4 1204   3.309   4.997   1.623
   25DPPC    C5 1205   3.438   5.035   1.562
   25DPPC    C6 1206   3.571   5.001   1.636
   25DPPC    O7 1207   3.679   5.087   1.594
   25DPPC    P8 1208   3.819   5.046   1.658
   25DPPC    O9 1209   3.833   4.901   1.653
   25DPPC   O10 1210   3.919   5.139   1.601
   25DPPC   O11 1211   3.784   5.093   1.805
   25DPPC   C12 1212   3.846   5.008   1.903
   25DPPC   C13 1213   3.785   5.011   2.045
   25DPPC   O14 1214   3.667   4.925   2.063
   25DPPC   C15 1215   3.541   4.950   2.020
   25DPPC   O16 1216   3.504   5.060   1.975
   25DPPC   C17 1217   3.440   4.837   2.047
   25DPPC   C18 1218   3.465   4.764   2.180
   25DPPC   C19 1219   3.349   4.676   2.227
   25DPPC   C20 1220   3.310   4.562   2.132
   25DPPC   C21 1221   3.420   4.458   2.106
   25DPPC   C22 1222   3.463   4.371   2.224
   25DPPC   C23 1223   3.560   4.264   2.172
   25DPPC   C24 1224   3.633   4.193   2.286
   25DPPC   C25 1225   3.725   4.084   2.230
   25DPPC   C26 1226   3.833   4.047   2.332
   25DPPC   C27 1227   3.774   3.998   2.464
   25DPPC   C28 1228   3.881   3.975   2.571
   25DPPC   C29 1229   3.814   3.936   2.703
   25DPPC   C30 1230   3.725   4.050   2.753
   25DPPC   C31 1231   3.625   4.000   2.858
   25DPPC   C32 1232   3.779   5.157   2.094
   25DPPC   O33 1233   3.863   5.181   2.208
   25DPPC   C34 1234   3.880   5.310   2.247
   25DPPC   O35 1235   3.847   5.402   2.173
   25DPPC   C36 1236   3.954   5.332   2.380
   25DPPC   C37 1237   3.919   5.225   2.484
   25DPPC   C38 1238   3.970   5.261   2.623
   25DPPC   C39 1239   3.909   5.393   2.673
   25DPPC   C40 1240   3.924   5.405   2.825
   25DPPC   C41 1241   3.785   5.399   2.887
   25DPPC   C42 1242   3.784   5.382   3.039
   25DPPC   C43 1243   3.849   5.500   3.111
   25DPPC   C44 1244   3.820   5.493   3.261
   25DPPC   C45 1245   3.866   5.624   3.325
   25DPPC   C46 1246   3.827   5.636   3.472
   25DPPC   C47 1247   3.862   5.778   3.517
   25DPPC   C48 1248   3.849   5.793   3.668
   25DPPC   C49 1249   3.893   5.933   3.710
   25DPPC   C50 1250   3.899   5.946   3.862
   26DPPC    C1 1251   3.421   0.070   1.047
   26DPPC    C2 1252   3.412   0.294   1.118
   26DPPC    C3 1253   3.410   0.124   1.280
   26DPPC    N4 1254   3.468   0.163   1.151
   26DPPC    C5 1255   3.616   0.174   1.159
   26DPPC    C6 1256   3.703   0.047   1.177
   26DPPC    O7 1257   3.729   0.014   1.313
   26DPPC    P8 1258   3.787   6.312   1.338
   26DPPC    O9 1259   3.671   6.225   1.313
   26DPPC   O10 1260   3.914   6.298   1.265
   26DPPC   O11 1261   3.813   6.332   1.492
   26DPPC   C12 1262   3.694   6.337   1.570
   26DPPC   C13 1263   3.716   6.412   1.703
   26DPPC   O14 1264   3.605   6.399   1.797
   26DPPC   C15 1265   3.582   6.285   1.868
   26DPPC   O16 1266   3.619   6.174   1.830
   26DPPC   C17 1267   3.486   6.302   1.986
   26DPPC   C18 1268   3.532   6.412   2.082
   26DPPC   C19 1269   3.661   6.375   2.156
   26DPPC   C20 1270   3.712   0.046   2.243
   26DPPC   C21 1271   3.755   0.166   2.158
   26DPPC   C22 1272   3.808   0.283   2.242
   26DPPC   C23 1273   3.933   0.246   2.322
   26DPPC   C24 1274   3.996   0.373   2.380
   26DPPC   C25 1275   4.122   0.345   2.461
   26DPPC   C26 1276   4.092   0.265   2.588
   26DPPC   C27 1277   4.216   0.261   2.677
   26DPPC   C28 1278   4.191   0.179   2.803
   26DPPC   C29 1279   4.317   0.174   2.890
   26DPPC   C30 1280   4.433   0.109   2.816
   26DPPC   C31 1281   4.559   0.108   2.903
   26DPPC   C32 1282   3.752   0.113   1.663
   26DPPC   O33 1283   3.777   0.201   1.774
   26DPPC   C34 1284   3.826   0.324   1.752
   26DPPC   O35 1285   3.910   0.346   1.664
   26DPPC   C36 1286   3.808   0.420   1.870
   26DPPC   C37 1287   3.686   0.509   1.851
   26DPPC   C38 1288   3.662   0.584   1.981
   26DPPC   C39 1289   3.557   0.694   1.969
   26DPPC   C40 1290   3.542   0.758   2.107
   26DPPC   C41 1291   3.443   0.875   2.105
   26DPPC   C42 1292   3.424   0.926   2.248
   26DPPC   C43 1293   3.318   1.036   2.250
   26DPPC   C44 1294   3.271   1.068   2.392
   26DPPC   C45 1295   3.193   0.952   2.453
   26DPPC   C46 1296   3.119   0.997   2.580
   26DPPC   C47 1297   3.039   0.884   2.644
   26DPPC   C48 1298   2.929   0.830   2.553
   26DPPC   C49 1299   2.851   0.716   2.620
   26DPPC   C50 1300   2.780   0.764   2.747
   27DPPC    C1 1301   4.099   0.128   1.264
   27DPPC    C2 1302   4.183   0.349   1.268
   27DPPC    C3 1303   4.135   0.241   1.474
   27DPPC    N4 1304   4.091   0.257   1.335
   27DPPC    C5 1305   3.949   0.299   1.329
   27DPPC    C6 1306   3.911   0.447   1.355
   27DPPC    O7 1307   3.774   0.464   1.321
   27DPPC    P8 1308   3.736   0.597   1.247
   27DPPC    O9 1309   3.856   0.643   1.176
   27DPPC   O10 1310   3.613   0.569   1.171
   27DPPC   O11 1311   3.715   0.695   1.369
   27DPPC   C12 1312   3.589   0.684   1.434
   27DPPC   C13 1313   3.587   0.747   1.575
   27DPPC   O14 1314   3.451   0.780   1.616
   27DPPC   C15 1315   3.362   0.682   1.644
   27DPPC   O16 1316   3.397   0.565   1.659
   27DPPC   C17 1317   3.216   0.727   1.643
   27DPPC   C18 1318   3.138   0.662   1.757
   27DPPC   C19 1319   2.991   0.702   1.749
   27DPPC   C20 1320   2.918   0.662   1.876
   27DPPC   C21 1321   2.979   0.732   1.997
   27DPPC   C22 1322   2.909   0.691   2.127
   27DPPC   C23 1323   2.764   0.739   2.134
   27DPPC   C24 1324   2.701   0.682   2.261
   27DPPC   C25 1325   2.558   0.728   2.283
   27DPPC   C26 1326   2.508   0.665   2.414
   27DPPC   C27 1327   2.365   0.706   2.448
   27DPPC   C28 1328   2.317   0.639   2.578
   27DPPC   C29 1329   2.403   0.680   2.698
   27DPPC   C30 1330   2.359   0.615   2.829
   27DPPC   C31 1331   2.220   0.662   2.874
   27DPPC   C32 1332   3.671   0.877   1.570
   27DPPC   O33 1333   3.746   0.901   1.690
   27DPPC   C34 1334   3.790   1.026   1.716
   27DPPC   O35 1335   3.775   1.118   1.636
   27DPPC   C36 1336   3.851   1.044   1.855
   27DPPC   C37 1337   3.738   1.071   1.954
   27DPPC   C38 1338   3.787   1.090   2.098
   27DPPC   C39 1339   3.850   0.962   2.153
   27DPPC   C40 1340   3.861   0.973   2.305
   27DPPC   C41 1341   3.912   0.842   2.366
   27DPPC   C42 1342   3.914   0.852   2.518
   27DPPC   C43 1343   3.993   0.738   2.581
   27DPPC   C44 1344   4.003   0.759   2.732
   27DPPC   C45 1345   4.091   0.653   2.798
   27DPPC   C46 1346   4.090   0.676   2.949
   27DPPC   C47 1347   4.231   0.692   3.004
   27DPPC   C48 1348   4.226   0.737   3.149
   27DPPC   C49 1349   4.367   0.762   3.203
   27DPPC   C50 1350   4.360   0.813   3.347
   28DPPC    C1 1351   3.614   3.883   1.448
   28DPPC    C2 1352   3.600   3.743   1.255
   28DPPC    C3 1353   3.753   3.921   1.257
   28DPPC    N4 1354   3.619   3.880   1.301
   28DPPC    C5 1355   3.510   3.958   1.237
   28DPPC    C6 1356   3.512   4.113   1.243
   28DPPC    O7 1357   3.494   4.168   1.373
   28DPPC    P8 1358   3.420   4.306   1.363
   28DPPC    O9 1359   3.509   4.392   1.282
   28DPPC   O10 1360   3.282   4.271   1.323
   28DPPC   O11 1361   3.426   4.347   1.514
   28DPPC   C12 1362   3.337   4.278   1.601
   28DPPC   C13 1363   3.385   4.291   1.747
   28DPPC   O14 1364   3.296   4.235   1.849
   28DPPC   C15 1365   3.299   4.101   1.870
   28DPPC   O16 1366   3.341   4.021   1.784
   28DPPC   C17 1367   3.245   4.054   2.005
   28DPPC   C18 1368   3.328   3.939   2.062
   28DPPC   C19 1369   3.297   3.923   2.210
   28DPPC   C20 1370   3.378   3.809   2.272
   28DPPC   C21 1371   3.366   3.817   2.424
   28DPPC   C22 1372   3.449   3.710   2.496
   28DPPC   C23 1373   3.441   3.731   2.647
   28DPPC   C24 1374   3.385   3.609   2.720
   28DPPC   C25 1375   3.244   3.576   2.671
   28DPPC   C26 1376   3.192   3.447   2.735
   28DPPC   C27 1377   3.098   3.475   2.852
   28DPPC   C28 1378   3.040   3.344   2.906
   28DPPC   C29 1379   2.963   3.270   2.796
   28DPPC   C30 1380   2.920   3.130   2.843
   28DPPC   C31 1381   3.042   3.045   2.879
   28DPPC   C32 1382   3.424   4.440   1.764
   28DPPC   O33 1383   3.562   4.452   1.801
   28DPPC   C34 1384   3.623   4.574   1.792
   28DPPC   O35 1385   3.576   4.665   1.726
   28DPPC   C36 1386   3.765   4.577   1.850
   28DPPC   C37 1387   3.760   4.608   2.000
   28DPPC   C38 1388   3.900   4.614   2.062
   28DPPC   C39 1389   3.895   4.656   2.210
   28DPPC   C40 1390   3.816   4.558   2.296
   28DPPC   C41 1391   3.824   4.595   2.445
   28DPPC   C42 1392   3.748   4.493   2.530
   28DPPC   C43 1393   3.760   4.523   2.680
   28DPPC   C44 1394   3.672   4.427   2.759
   28DPPC   C45 1395   3.666   4.463   2.908
   28DPPC   C46 1396   3.555   4.383   2.976
   28DPPC   C47 1397   3.533   4.428   3.121
   28DPPC   C48 1398   3.410   4.361   3.181
   28DPPC   C49 1399   3.387   4.408   3.325
   28DPPC   C50 1400   3.263   4.341   3.386
   29DPPC    C1 1401   4.412   6.212   1.797
   29DPPC    C2 1402   4.563   6.096   1.659
   29DPPC    C3 1403   4.551   6.048   1.895
   29DPPC    N4 1404   4.473   6.081   1.774
   29DPPC    C5 1405   4.361   5.986   1.749
   29DPPC    C6 1406   4.386   5.837   1.714
   29DPPC    O7 1407   4.422   5.753   1.825
   29DPPC    P8 1408   4.384   5.600   1.806
   29DPPC    O9 1409   4.315   5.584   1.676
   29DPPC   O10 1410   4.494   5.509   1.841
   29DPPC   O11 1411   4.270   5.587   1.916
   29DPPC   C12 1412   4.316   5.615   2.048
   29DPPC   C13 1413   4.214   5.589   2.162
   29DPPC   O14 1414   4.224   5.454   2.219
   29DPPC   C15 1415   4.324   5.433   2.309
   29DPPC   O16 1416   4.413   5.516   2.328
   29DPPC   C17 1417   4.327   5.294   2.373
   29DPPC   C18 1418   4.454   5.269   2.454
   29DPPC   C19 1419   4.447   5.130   2.517
   29DPPC   C20 1420   4.575   5.097   2.594
   29DPPC   C21 1421   4.563   4.959   2.658
   29DPPC   C22 1422   4.694   4.921   2.727
   29DPPC   C23 1423   4.688   4.780   2.788
   29DPPC   C24 1424   4.597   4.773   2.910
   29DPPC   C25 1425   4.606   4.633   2.970
   29DPPC   C26 1426   4.539   4.625   3.106
   29DPPC   C27 1427   4.564   4.488   3.169
   29DPPC   C28 1428   4.522   4.487   3.316
   29DPPC   C29 1429   4.559   4.356   3.384
   29DPPC   C30 1430   4.531   4.364   3.534
   29DPPC   C31 1431   4.573   4.236   3.607
   29DPPC   C32 1432   4.075   5.632   2.111
   29DPPC   O33 1433   3.982   5.676   2.213
   29DPPC   C34 1434   3.866   5.735   2.174
   29DPPC   O35 1435   3.853   5.779   2.060
   29DPPC   C36 1436   3.765   5.764   2.285
   29DPPC   C37 1437   3.820   5.859   2.391
   29DPPC   C38 1438   3.751   5.996   2.389
   29DPPC   C39 1439   3.822   6.097   2.480
   29DPPC   C40 1440   3.825   6.054   2.627
   29DPPC   C41 1441   3.688   6.066   2.695
   29DPPC   C42 1442   3.694   6.006   2.836
   29DPPC   C43 1443   3.563   6.027   2.912
   29DPPC   C44 1444   3.572   5.961   3.049
   29DPPC   C45 1445   3.451   5.996   3.135
   29DPPC   C46 1446   3.464   5.933   3.274
   29DPPC   C47 1447   3.348   5.977   3.364
   29DPPC   C48 1448   3.349   5.905   3.499
   29DPPC   C49 1449   3.469   5.940   3.587
   29DPPC   C50 1450   3.458   5.868   3.722
   30DPPC    C1 1451   4.006   5.431   1.781
   30DPPC    C2 1452   3.813   5.568   1.785
   30DPPC    C3 1453   3.895   5.476   1.579
   30DPPC    N4 1454   3.933   5.536   1.707
   30DPPC    C5 1455   4.021   5.654   1.689
   30DPPC    C6 1456   3.971   5.771   1.599
   30DPPC    O7 1457   4.067   5.875   1.579
   30DPPC    P8 1458   4.007   6.022   1.561
   30DPPC    O9 1459   4.102   6.086   1.468
   30DPPC   O10 1460   3.865   5.995   1.530
   30DPPC   O11 1461   4.031   6.068   1.710
   30DPPC   C12 1462   3.917   6.122   1.777
   30DPPC   C13 1463   3.945   6.178   1.919
   30DPPC   O14 1464   3.955   6.324   1.931
   30DPPC   C15 1465   4.034   6.408   1.858
   30DPPC   O16 1466   4.080   6.380   1.747
   30DPPC   C17 1467   4.060   0.101   1.922
   30DPPC   C18 1468   4.201   0.107   1.981
   30DPPC   C19 1469   4.216   0.005   2.094
   30DPPC   C20 1470   4.359   0.001   2.148
   30DPPC   C21 1471   4.363   6.346   2.264
   30DPPC   C22 1472   4.499   6.343   2.333
   30DPPC   C23 1473   4.491   6.242   2.447
   30DPPC   C24 1474   4.617   6.239   2.534
   30DPPC   C25 1475   4.595   6.140   2.648
   30DPPC   C26 1476   4.469   6.182   2.724
   30DPPC   C27 1477   4.423   6.077   2.825
   30DPPC   C28 1478   4.275   6.100   2.856
   30DPPC   C29 1479   4.227   6.010   2.970
   30DPPC   C30 1480   4.079   6.034   2.999
   30DPPC   C31 1481   4.038   5.964   3.129
   30DPPC   C32 1482   4.064   6.099   1.978
   30DPPC   O33 1483   4.061   6.073   2.120
   30DPPC   C34 1484   4.175   6.026   2.175
   30DPPC   O35 1485   4.278   6.019   2.108
   30DPPC   C36 1486   4.166   5.982   2.322
   30DPPC   C37 1487   4.298   5.923   2.372
   30DPPC   C38 1488   4.282   5.857   2.510
   30DPPC   C39 1489   4.183   5.741   2.504
   30DPPC   C40 1490   4.173   5.668   2.638
   30DPPC   C41 1491   4.298   5.585   2.669
   30DPPC   C42 1492   4.285   5.516   2.805
   30DPPC   C43 1493   4.298   5.616   2.920
   30DPPC   C44 1494   4.237   5.561   3.049
   30DPPC   C45 1495   4.297   5.426   3.091
   30DPPC   C46 1496   4.224   5.367   3.212
   30DPPC   C47 1497   4.244   5.450   3.339
   30DPPC   C48 1498   4.170   5.387   3.458
   30DPPC   C49 1499   4.195   5.461   3.589
   30DPPC   C50 1500   4.342   5.452   3.631
   31DPPC    C1 1501   4.491   1.409   0.850
   31DPPC    C2 1502   4.495   1.286   1.047
   31DPPC    C3 1503   4.353   1.481   1.029
   31DPPC    N4 1504   4.405   1.362   0.959
   31DPPC    C5 1505   4.297   1.278   0.903
   31DPPC    C6 1506   4.215   1.192   1.004
   31DPPC    O7 1507   4.180   1.062   0.956
   31DPPC    P8 1508   4.275   0.943   1.003
   31DPPC    O9 1509   4.211   0.820   0.952
   31DPPC   O10 1510   4.411   0.984   0.964
   31DPPC   O11 1511   4.252   0.954   1.159
   31DPPC   C12 1512   4.295   0.840   1.236
   31DPPC   C13 1513   4.330   0.870   1.384
   31DPPC   O14 1514   4.221   0.849   1.479
   31DPPC   C15 1515   4.187   0.724   1.521
   31DPPC   O16 1516   4.248   0.623   1.481
   31DPPC   C17 1517   4.063   0.717   1.610
   31DPPC   C18 1518   4.095   0.660   1.749
   31DPPC   C19 1519   4.173   0.758   1.837
   31DPPC   C20 1520   4.195   0.696   1.975
   31DPPC   C21 1521   4.250   0.798   2.074
   31DPPC   C22 1522   4.271   0.731   2.210
   31DPPC   C23 1523   4.309   0.836   2.315
   31DPPC   C24 1524   4.341   0.774   2.451
   31DPPC   C25 1525   4.465   0.684   2.444
   31DPPC   C26 1526   4.516   0.654   2.585
   31DPPC   C27 1527   4.555   0.783   2.657
   31DPPC   C28 1528   4.599   0.759   2.801
   31DPPC   C29 1529   4.723   0.671   2.810
   31DPPC   C30 1530   4.763   0.650   2.956
   31DPPC   C31 1531   4.888   0.562   2.967
   31DPPC   C32 1532   4.391   1.012   1.384
   31DPPC   O33 1533   4.521   1.023   1.444
   31DPPC   C34 1534   4.588   1.141   1.429
   31DPPC   O35 1535   4.546   1.230   1.355
   31DPPC   C36 1536   4.716   1.156   1.511
   31DPPC   C37 1537   4.747   1.303   1.538
   31DPPC   C38 1538   4.805   1.326   1.678
   31DPPC   C39 1539   4.702   1.292   1.786
   31DPPC   C40 1540   4.758   1.328   1.923
   31DPPC   C41 1541   4.657   1.296   2.033
   31DPPC   C42 1542   4.710   1.343   2.168
   31DPPC   C43 1543   4.613   1.306   2.280
   31DPPC   C44 1544   4.667   1.351   2.416
   31DPPC   C45 1545   4.586   1.285   2.528
   31DPPC   C46 1546   4.633   1.331   2.666
   31DPPC   C47 1547   4.561   1.253   2.776
   31DPPC   C48 1548   4.586   1.318   2.913
   31DPPC   C49 1549   4.526   1.235   3.026
   31DPPC   C50 1550   4.375   1.216   3.010
   32DPPC    C1 1551   1.853   4.577   1.041
   32DPPC    C2 1552   1.876   4.489   0.823
   32DPPC    C3 1553   1.838   4.339   1.001
   32DPPC    N4 1554   1.803   4.473   0.950
   32DPPC    C5 1555   1.657   4.487   0.924
   32DPPC    C6 1556   1.556   4.458   1.039
   32DPPC    O7 1557   1.420   4.479   1.000
   32DPPC    P8 1558   1.309   4.434   1.104
   32DPPC    O9 1559   1.189   4.461   1.023
   32DPPC   O10 1560   1.344   4.301   1.155
   32DPPC   O11 1561   1.321   4.546   1.215
   32DPPC   C12 1562   1.341   4.496   1.347
   32DPPC   C13 1563   1.360   4.602   1.459
   32DPPC   O14 1564   1.253   4.613   1.559
   32DPPC   C15 1565   1.130   4.665   1.535
   32DPPC   O16 1566   1.104   4.718   1.426
   32DPPC   C17 1567   1.027   4.655   1.648
   32DPPC   C18 1568   1.088   4.658   1.789
   32DPPC   C19 1569   0.976   4.650   1.893
   32DPPC   C20 1570   1.026   4.609   2.032
   32DPPC   C21 1571   1.078   4.465   2.025
   32DPPC   C22 1572   1.113   4.401   2.159
   32DPPC   C23 1573   1.164   4.260   2.130
   32DPPC   C24 1574   1.196   4.180   2.257
   32DPPC   C25 1575   1.253   4.044   2.217
   32DPPC   C26 1576   1.375   4.012   2.303
   32DPPC   C27 1577   1.336   3.999   2.450
   32DPPC   C28 1578   1.456   4.014   2.543
   32DPPC   C29 1579   1.402   4.022   2.686
   32DPPC   C30 1580   1.500   4.087   2.782
   32DPPC   C31 1581   1.433   4.108   2.918
   32DPPC   C32 1582   1.422   4.728   1.397
   32DPPC   O33 1583   1.564   4.727   1.415
   32DPPC   C34 1584   1.645   4.797   1.333
   32DPPC   O35 1585   1.611   4.824   1.216
   32DPPC   C36 1586   1.793   4.794   1.372
   32DPPC   C37 1587   1.813   4.786   1.524
   32DPPC   C38 1588   1.961   4.778   1.562
   32DPPC   C39 1589   1.976   4.804   1.712
   32DPPC   C40 1590   1.927   4.946   1.742
   32DPPC   C41 1591   1.921   4.976   1.891
   32DPPC   C42 1592   1.857   5.113   1.908
   32DPPC   C43 1593   1.838   5.149   2.055
   32DPPC   C44 1594   1.763   5.282   2.062
   32DPPC   C45 1595   1.717   5.311   2.205
   32DPPC   C46 1596   1.621   5.203   2.254
   32DPPC   C47 1597   1.580   5.237   2.397
   32DPPC   C48 1598   1.491   5.129   2.458
   32DPPC   C49 1599   1.459   5.169   2.602
   32DPPC   C50 1600   1.377   5.060   2.671
   33DPPC    C1 1601   5.697   5.359   1.922
   33DPPC    C2 1602   5.737   5.141   2.014
   33DPPC    C3 1603   5.875   5.229   1.839
   33DPPC    N4 1604   5.738   5.222   1.891
   33DPPC    C5 1605   5.652   5.161   1.787
   33DPPC    C6 1606   5.499   5.155   1.812
   33DPPC    O7 1607   5.431   5.077   1.713
   33DPPC    P8 1608   5.273   5.088   1.715
   33DPPC    O9 1609   5.232   5.218   1.660
   33DPPC   O10 1610   5.216   4.962   1.665
   33DPPC   O11 1611   5.247   5.091   1.870
   33DPPC   C12 1612   5.116   5.133   1.904
   33DPPC   C13 1613   5.106   5.169   2.054
   33DPPC   O14 1614   5.019   5.076   2.125
   33DPPC   C15 1615   5.074   4.960   2.171
   33DPPC   O16 1616   5.196   4.942   2.171
   33DPPC   C17 1617   4.974   4.854   2.216
   33DPPC   C18 1618   4.925   4.880   2.358
   33DPPC   C19 1619   4.838   4.764   2.407
   33DPPC   C20 1620   4.711   4.748   2.323
   33DPPC   C21 1621   4.624   4.636   2.379
   33DPPC   C22 1622   4.688   4.499   2.359
   33DPPC   C23 1623   4.613   4.391   2.437
   33DPPC   C24 1624   4.657   4.390   2.583
   33DPPC   C25 1625   4.592   4.275   2.660
   33DPPC   C26 1626   4.658   4.261   2.797
   33DPPC   C27 1627   4.595   4.151   2.883
   33DPPC   C28 1628   4.672   4.142   3.015
   33DPPC   C29 1629   4.605   4.050   3.118
   33DPPC   C30 1630   4.639   3.903   3.099
   33DPPC   C31 1631   4.562   3.818   3.200
   33DPPC   C32 1632   5.068   5.318   2.064
   33DPPC   O33 1633   5.099   5.383   2.188
   33DPPC   C34 1634   5.003   5.393   2.284
   33DPPC   O35 1635   4.885   5.369   2.262
   33DPPC   C36 1636   5.051   5.450   2.419
   33DPPC   C37 1637   5.070   5.337   2.520
   33DPPC   C38 1638   5.174   5.236   2.473
   33DPPC   C39 1639   5.180   5.116   2.567
   33DPPC   C40 1640   5.276   5.009   2.514
   33DPPC   C41 1641   5.290   4.899   2.618
   33DPPC   C42 1642   5.218   4.769   2.580
   33DPPC   C43 1643   5.216   4.677   2.702
   33DPPC   C44 1644   5.358   4.641   2.747
   33DPPC   C45 1645   5.369   4.635   2.900
   33DPPC   C46 1646   5.419   4.769   2.958
   33DPPC   C47 1647   5.562   4.798   2.911
   33DPPC   C48 1648   5.615   4.931   2.966
   33DPPC   C49 1649   5.756   4.958   2.913
   33DPPC   C50 1650   5.810   5.093   2.962
   34DPPC    C1 1651   5.252   3.024   1.151
   34DPPC    C2 1652   5.197   3.172   0.975
   34DPPC    C3 1653   5.025   3.096   1.116
   34DPPC    N4 1654   5.149   3.055   1.050
   34DPPC    C5 1655   5.127   2.943   0.956
   34DPPC    C6 1656   5.055   2.813   1.004
   34DPPC    O7 1657   5.125   2.740   1.104
   34DPPC    P8 1658   5.050   2.612   1.155
   34DPPC    O9 1659   4.918   2.662   1.200
   34DPPC   O10 1660   5.066   2.512   1.049
   34DPPC   O11 1661   5.148   2.577   1.273
   34DPPC   C12 1662   5.086   2.527   1.391
   34DPPC   C13 1663   5.153   2.401   1.450
   34DPPC   O14 1664   5.090   2.351   1.571
   34DPPC   C15 1665   4.974   2.280   1.567
   34DPPC   O16 1666   4.901   2.278   1.467
   34DPPC   C17 1667   4.936   2.217   1.701
   34DPPC   C18 1668   5.031   2.101   1.730
   34DPPC   C19 1669   5.002   2.040   1.867
   34DPPC   C20 1670   5.102   1.928   1.899
   34DPPC   C21 1671   5.060   1.854   2.026
   34DPPC   C22 1672   4.930   1.777   2.001
   34DPPC   C23 1673   4.871   1.720   2.130
   34DPPC   C24 1674   4.837   1.833   2.226
   34DPPC   C25 1675   4.768   1.782   2.352
   34DPPC   C26 1676   4.739   1.895   2.451
   34DPPC   C27 1677   4.868   1.952   2.511
   34DPPC   C28 1678   4.836   2.058   2.617
   34DPPC   C29 1679   4.963   2.105   2.687
   34DPPC   C30 1680   4.931   2.205   2.798
   34DPPC   C31 1681   5.059   2.265   2.856
   34DPPC   C32 1682   5.305   2.427   1.459
   34DPPC   O33 1683   5.343   2.558   1.503
   34DPPC   C34 1684   5.467   2.601   1.469
   34DPPC   O35 1685   5.555   2.527   1.426
   34DPPC   C36 1686   5.492   2.749   1.498
   34DPPC   C37 1687   5.539   2.765   1.643
   34DPPC   C38 1688   5.578   2.910   1.669
   34DPPC   C39 1689   5.621   2.935   1.814
   34DPPC   C40 1690   5.503   2.941   1.911
   34DPPC   C41 1691   5.552   2.995   2.046
   34DPPC   C42 1692   5.436   3.013   2.144
   34DPPC   C43 1693   5.482   3.076   2.276
   34DPPC   C44 1694   5.585   2.991   2.349
   34DPPC   C45 1695   5.625   3.059   2.480
   34DPPC   C46 1696   5.731   2.979   2.555
   34DPPC   C47 1697   5.768   3.046   2.688
   34DPPC   C48 1698   5.649   3.048   2.783
   34DPPC   C49 1699   5.683   3.114   2.916
   34DPPC   C50 1700   5.564   3.105   3.011
   35DPPC    C1 1701   4.455   3.726   1.596
   35DPPC    C2 1702   4.626   3.764   1.762
   35DPPC    C3 1703   4.579   3.925   1.594
   35DPPC    N4 1704   4.589   3.781   1.621
   35DPPC    C5 1705   4.693   3.724   1.531
   35DPPC    C6 1706   4.712   3.569   1.522
   35DPPC    O7 1707   4.765   3.507   1.640
   35DPPC    P8 1708   4.841   3.373   1.602
   35DPPC    O9 1709   4.741   3.274   1.557
   35DPPC   O10 1710   4.942   3.417   1.505
   35DPPC   O11 1711   4.908   3.324   1.735
   35DPPC   C12 1712   5.041   3.372   1.753
   35DPPC   C13 1713   5.137   3.280   1.833
   35DPPC   O14 1714   5.236   3.357   1.909
   35DPPC   C15 1715   5.322   3.446   1.853
   35DPPC   O16 1716   5.349   3.445   1.733
   35DPPC   C17 1717   5.395   3.538   1.952
   35DPPC   C18 1718   5.389   3.475   2.090
   35DPPC   C19 1719   5.454   3.561   2.197
   35DPPC   C20 1720   5.427   3.494   2.331
   35DPPC   C21 1721   5.513   3.554   2.441
   35DPPC   C22 1722   5.486   3.482   2.573
   35DPPC   C23 1723   5.573   3.545   2.681
   35DPPC   C24 1724   5.538   3.488   2.818
   35DPPC   C25 1725   5.603   3.574   2.927
   35DPPC   C26 1726   5.545   3.716   2.923
   35DPPC   C27 1727   5.616   3.806   3.024
   35DPPC   C28 1728   5.560   3.949   3.022
   35DPPC   C29 1729   5.579   4.015   2.885
   35DPPC   C30 1730   5.516   4.154   2.879
   35DPPC   C31 1731   5.597   4.261   2.952
   35DPPC   C32 1732   5.191   3.170   1.739
   35DPPC   O33 1733   5.100   3.063   1.709
   35DPPC   C34 1734   5.127   2.985   1.601
   35DPPC   O35 1735   5.210   3.020   1.517
   35DPPC   C36 1736   5.028   2.871   1.572
   35DPPC   C37 1737   4.977   2.797   1.696
   35DPPC   C38 1738   4.872   2.693   1.654
   35DPPC   C39 1739   4.811   2.619   1.773
   35DPPC   C40 1740   4.740   2.715   1.868
   35DPPC   C41 1741   4.681   2.636   1.985
   35DPPC   C42 1742   4.634   2.731   2.095
   35DPPC   C43 1743   4.593   2.650   2.218
   35DPPC   C44 1744   4.577   2.742   2.339
   35DPPC   C45 1745   4.546   2.661   2.465
   35DPPC   C46 1746   4.657   2.562   2.500
   35DPPC   C47 1747   4.789   2.631   2.538
   35DPPC   C48 1748   4.844   2.571   2.667
   35DPPC   C49 1749   4.982   2.627   2.702
   35DPPC   C50 1750   5.085   2.579   2.599
   36DPPC    C1 1751   5.373   4.683   1.736
   36DPPC    C2 1752   5.515   4.545   1.602
   36DPPC    C3 1753   5.436   4.755   1.523
   36DPPC    N4 1754   5.399   4.635   1.599
   36DPPC    C5 1755   5.280   4.572   1.537
   36DPPC    C6 1756   5.205   4.461   1.617
   36DPPC    O7 1757   5.273   4.336   1.618
   36DPPC    P8 1758   5.236   4.241   1.739
   36DPPC    O9 1759   5.091   4.249   1.767
   36DPPC   O10 1760   5.302   4.113   1.706
   36DPPC   O11 1761   5.316   4.320   1.848
   36DPPC   C12 1762   5.409   4.246   1.928
   36DPPC   C13 1763   5.506   4.341   2.000
   36DPPC   O14 1764   5.622   4.276   2.058
   36DPPC   C15 1765   5.730   4.349   2.094
   36DPPC   O16 1766   5.735   4.472   2.075
   36DPPC   C17 1767   5.852   4.267   2.132
   36DPPC   C18 1768   5.929   4.234   2.004
   36DPPC   C19 1769   6.055   4.155   2.035
   36DPPC   C20 1770   6.142   4.235   2.131
   36DPPC   C21 1771   6.284   4.178   2.133
   36DPPC   C22 1772   6.373   4.272   2.214
   36DPPC   C23 1773   0.100   4.231   2.198
   36DPPC   C24 1774   0.187   4.308   2.297
   36DPPC   C25 1775   0.326   4.245   2.301
   36DPPC   C26 1776   0.313   4.096   2.336
   36DPPC   C27 1777   0.446   4.023   2.323
   36DPPC   C28 1778   0.504   4.042   2.182
   36DPPC   C29 1779   0.624   3.951   2.159
   36DPPC   C30 1780   0.716   4.006   2.049
   36DPPC   C31 1781   0.789   4.131   2.100
   36DPPC   C32 1782   5.420   4.433   2.091
   36DPPC   O33 1783   5.334   4.368   2.185
   36DPPC   C34 1784   5.230   4.442   2.232
   36DPPC   O35 1785   5.209   4.556   2.189
   36DPPC   C36 1786   5.144   4.377   2.340
   36DPPC   C37 1787   5.219   4.371   2.473
   36DPPC   C38 1788   5.131   4.299   2.575
   36DPPC   C39 1789   5.204   4.277   2.707
   36DPPC   C40 1790   5.119   4.188   2.799
   36DPPC   C41 1791   5.099   4.052   2.733
   36DPPC   C42 1792   5.025   3.953   2.824
   36DPPC   C43 1793   5.024   3.816   2.757
   36DPPC   C44 1794   4.958   3.708   2.844
   36DPPC   C45 1795   5.036   3.675   2.971
   36DPPC   C46 1796   4.956   3.575   3.057
   36DPPC   C47 1797   5.039   3.532   3.179
   36DPPC   C48 1798   5.071   3.652   3.268
   36DPPC   C49 1799   5.185   3.618   3.365
   36DPPC   C50 1800   5.216   3.738   3.454
   37DPPC    C1 1801   6.094   2.140   1.114
   37DPPC    C2 1802   6.092   1.999   0.922
   37DPPC    C3 1803   5.993   2.215   0.914
   37DPPC    N4 1804   6.014   2.097   0.999
   37DPPC    C5 1805   5.883   2.043   1.041
   37DPPC    C6 1806   5.885   1.907   1.118
   37DPPC    O7 1807   5.759   1.864   1.168
   37DPPC    P8 1808   5.764   1.720   1.233
   37DPPC    O9 1809   5.626   1.690   1.276
   37DPPC   O10 1810   5.837   1.635   1.137
   37DPPC   O11 1811   5.856   1.741   1.360
   37DPPC   C12 1812   5.795   1.812   1.469
   37DPPC   C13 1813   5.894   1.875   1.570
   37DPPC   O14 1814   5.938   1.779   1.673
   37DPPC   C15 1815   6.011   1.819   1.781
   37DPPC   O16 1816   6.067   1.929   1.781
   37DPPC   C17 1817   6.048   1.710   1.882
   37DPPC   C18 1818   5.937   1.607   1.902
   37DPPC   C19 1819   5.978   1.509   2.012
   37DPPC   C20 1820   5.872   1.401   2.033
   37DPPC   C21 1821   5.908   1.310   2.152
   37DPPC   C22 1822   5.900   1.386   2.284
   37DPPC   C23 1823   5.941   1.297   2.402
   37DPPC   C24 1824   5.933   1.376   2.532
   37DPPC   C25 1825   6.009   1.303   2.643
   37DPPC   C26 1826   6.016   1.390   2.769
   37DPPC   C27 1827   6.103   1.323   2.876
   37DPPC   C28 1828   6.247   1.306   2.826
   37DPPC   C29 1829   6.332   1.227   2.926
   37DPPC   C30 1830   0.054   1.205   2.871
   37DPPC   C31 1831   0.142   1.129   2.971
   37DPPC   C32 1832   5.825   2.004   1.619
   37DPPC   O33 1833   5.705   1.976   1.691
   37DPPC   C34 1834   5.600   2.059   1.679
   37DPPC   O35 1835   5.596   2.153   1.600
   37DPPC   C36 1836   5.480   2.014   1.763
   37DPPC   C37 1837   5.455   2.109   1.879
   37DPPC   C38 1838   5.375   2.231   1.831
   37DPPC   C39 1839   5.352   2.327   1.947
   37DPPC   C40 1840   5.266   2.446   1.904
   37DPPC   C41 1841   5.257   2.544   2.021
   37DPPC   C42 1842   5.172   2.665   1.985
   37DPPC   C43 1843   5.161   2.764   2.101
   37DPPC   C44 1844   5.040   2.737   2.190
   37DPPC   C45 1845   5.011   2.859   2.279
   37DPPC   C46 1846   5.120   2.882   2.384
   37DPPC   C47 1847   5.103   3.019   2.450
   37DPPC   C48 1848   5.196   3.035   2.570
   37DPPC   C49 1849   5.201   3.181   2.615
   37DPPC   C50 1850   5.277   3.194   2.747
   38DPPC    C1 1851   6.349   2.370   1.684
   38DPPC    C2 1852   0.108   2.523   1.625
   38DPPC    C3 1853   0.158   2.303   1.685
   38DPPC    N4 1854   0.059   2.384   1.614
   38DPPC    C5 1855   0.044   2.335   1.474
   38DPPC    C6 1856   0.015   2.438   1.361
   38DPPC    O7 1857   6.298   2.485   1.364
   38DPPC    P8 1858   6.272   2.627   1.298
   38DPPC    O9 1859   6.397   2.704   1.287
   38DPPC   O10 1860   6.182   2.609   1.183
   38DPPC   O11 1861   6.186   2.688   1.415
   38DPPC   C12 1862   6.066   2.616   1.438
   38DPPC   C13 1863   6.003   2.652   1.574
   38DPPC   O14 1864   5.891   2.567   1.613
   38DPPC   C15 1865   5.915   2.455   1.686
   38DPPC   O16 1866   6.017   2.389   1.668
   38DPPC   C17 1867   5.801   2.412   1.778
   38DPPC   C18 1868   5.783   2.525   1.880
   38DPPC   C19 1869   5.684   2.495   1.993
   38DPPC   C20 1870   5.695   2.610   2.094
   38DPPC   C21 1871   5.588   2.610   2.204
   38DPPC   C22 1872   5.597   2.489   2.297
   38DPPC   C23 1873   5.499   2.501   2.415
   38DPPC   C24 1874   5.529   2.624   2.501
   38DPPC   C25 1875   5.441   2.626   2.626
   38DPPC   C26 1876   5.448   2.762   2.694
   38DPPC   C27 1877   5.358   2.773   2.817
   38DPPC   C28 1878   5.400   2.677   2.929
   38DPPC   C29 1879   5.301   2.685   3.045
   38DPPC   C30 1880   5.324   2.572   3.144
   38DPPC   C31 1881   5.218   2.573   3.254
   38DPPC   C32 1882   5.974   2.803   1.571
   38DPPC   O33 1883   6.006   2.867   1.696
   38DPPC   C34 1884   5.996   3.002   1.705
   38DPPC   O35 1885   5.995   3.076   1.607
   38DPPC   C36 1886   5.995   3.056   1.848
   38DPPC   C37 1887   6.070   2.965   1.946
   38DPPC   C38 1888   6.017   2.989   2.087
   38DPPC   C39 1889   6.083   2.898   2.191
   38DPPC   C40 1890   5.975   2.825   2.271
   38DPPC   C41 1891   6.032   2.755   2.394
   38DPPC   C42 1892   6.074   2.858   2.499
   38DPPC   C43 1893   6.120   2.795   2.631
   38DPPC   C44 1894   6.129   2.906   2.735
   38DPPC   C45 1895   6.169   2.862   2.876
   38DPPC   C46 1896   6.160   2.987   2.963
   38DPPC   C47 1897   6.200   2.969   3.110
   38DPPC   C48 1898   6.193   3.107   3.176
   38DPPC   C49 1899   6.233   3.107   3.323
   38DPPC   C50 1900   6.230   3.249   3.379
   39DPPC    C1 1901   5.545   3.625   1.551
   39DPPC    C2 1902   5.344   3.659   1.435
   39DPPC    C3 1903   5.510   3.828   1.426
   39DPPC    N4 1904   5.489   3.682   1.428
   39DPPC    C5 1905   5.538   3.621   1.301
   39DPPC    C6 1906   5.678   3.552   1.300
   39DPPC    O7 1907   5.786   3.640   1.333
   39DPPC    P8 1908   5.925   3.571   1.356
   39DPPC    O9 1909   5.920   3.432   1.307
   39DPPC   O10 1910   6.038   3.661   1.325
   39DPPC   O11 1911   5.913   3.554   1.511
   39DPPC   C12 1912   6.040   3.542   1.574
   39DPPC   C13 1913   6.035   3.501   1.723
   39DPPC   O14 1914   6.114   3.381   1.750
   39DPPC   C15 1915   6.250   3.384   1.750
   39DPPC   O16 1916   6.315   3.456   1.673
   39DPPC   C17 1917   6.315   3.280   1.841
   39DPPC   C18 1918   6.262   3.298   1.983
   39DPPC   C19 1919   6.347   3.222   2.085
   39DPPC   C20 1920   0.072   3.277   2.080
   39DPPC   C21 1921   0.162   3.210   2.184
   39DPPC   C22 1922   0.110   3.236   2.324
   39DPPC   C23 1923   0.198   3.168   2.428
   39DPPC   C24 1924   0.114   3.142   2.553
   39DPPC   C25 1925   0.200   3.084   2.665
   39DPPC   C26 1926   0.109   3.038   2.779
   39DPPC   C27 1927   0.188   3.016   2.908
   39DPPC   C28 1928   0.231   3.149   2.971
   39DPPC   C29 1929   0.110   3.235   3.007
   39DPPC   C30 1930   0.150   3.359   3.088
   39DPPC   C31 1931   0.029   3.449   3.112
   39DPPC   C32 1932   5.888   3.483   1.767
   39DPPC   O33 1933   5.875   3.469   1.910
   39DPPC   C34 1934   5.782   3.384   1.960
   39DPPC   O35 1935   5.701   3.325   1.888
   39DPPC   C36 1936   5.785   3.367   2.112
   39DPPC   C37 1937   5.928   3.359   2.166
   39DPPC   C38 1938   5.921   3.349   2.318
   39DPPC   C39 1939   6.057   3.332   2.383
   39DPPC   C40 1940   6.035   3.332   2.534
   39DPPC   C41 1941   6.162   3.299   2.611
   39DPPC   C42 1942   6.135   3.296   2.761
   39DPPC   C43 1943   6.086   3.431   2.815
   39DPPC   C44 1944   6.059   3.418   2.965
   39DPPC   C45 1945   5.979   3.535   3.021
   39DPPC   C46 1946   5.941   3.507   3.166
   39DPPC   C47 1947   5.860   3.377   3.175
   39DPPC   C48 1948   5.846   3.331   3.320
   39DPPC   C49 1949   5.787   3.191   3.328
   39DPPC   C50 1950   5.778   3.145   3.474
   40DPPC    C1 1951   6.174   3.844   0.801
   40DPPC    C2 1952   6.212   3.735   1.004
   40DPPC    C3 1953   6.293   3.959   0.970
   40DPPC    N4 1954   6.181   3.866   0.946
   40DPPC    C5 1955   6.054   3.924   0.998
   40DPPC    C6 1956   6.049   3.947   1.152
   40DPPC    O7 1957   5.949   4.039   1.196
   40DPPC    P8 1958   6.000   4.125   1.317
   40DPPC    O9 1959   6.139   4.165   1.293
   40DPPC   O10 1960   5.894   4.221   1.351
   40DPPC   O11 1961   6.001   4.021   1.436
   40DPPC   C12 1962   5.874   3.975   1.484
   40DPPC   C13 1963   5.887   3.879   1.605
   40DPPC   O14 1964   5.761   3.853   1.675
   40DPPC   C15 1965   5.698   3.948   1.750
   40DPPC   O16 1966   5.716   4.068   1.730
   40DPPC   C17 1967   5.589   3.893   1.843
   40DPPC   C18 1968   5.638   3.881   1.988
   40DPPC   C19 1969   5.757   3.786   2.002
   40DPPC   C20 1970   5.801   3.767   2.147
   40DPPC   C21 1971   5.846   3.897   2.213
   40DPPC   C22 1972   5.910   3.868   2.349
   40DPPC   C23 1973   5.956   3.996   2.419
   40DPPC   C24 1974   6.022   3.965   2.553
   40DPPC   C25 1975   5.925   3.894   2.648
   40DPPC   C26 1976   5.994   3.862   2.781
   40DPPC   C27 1977   6.042   3.989   2.851
   40DPPC   C28 1978   6.139   3.961   2.966
   40DPPC   C29 1979   6.069   3.929   3.099
   40DPPC   C30 1980   6.172   3.906   3.210
   40DPPC   C31 1981   6.262   4.029   3.230
   40DPPC   C32 1982   6.001   3.936   1.693
   40DPPC   O33 1983   6.078   3.836   1.760
   40DPPC   C34 1984   6.197   3.876   1.811
   40DPPC   O35 1985   6.234   3.993   1.808
   40DPPC   C36 1986   6.279   3.766   1.879
   40DPPC   C37 1987   6.262   3.783   2.030
   40DPPC   C38 1988   6.319   3.663   2.104
   40DPPC   C39 1989   6.299   3.683   2.254
   40DPPC   C40 1990   6.363   3.569   2.332
   40DPPC   C41 1991   6.348   3.589   2.483
   40DPPC   C42 1992   0.005   3.713   2.529
   40DPPC   C43 1993   6.384   3.750   2.673
   40DPPC   C44 1994   0.020   3.888   2.708
   40DPPC   C45 1995   6.396   3.990   2.602
   40DPPC   C46 1996   6.411   4.134   2.652
   40DPPC   C47 1997   0.136   4.171   2.687
   40DPPC   C48 1998   0.135   4.291   2.782
   40DPPC   C49 1999   0.069   4.251   2.914
   40DPPC   C50 2000   0.040   4.372   3.003
   41DPPC    C1 2001   0.553   1.794   2.034
   41DPPC    C2 2002   0.660   1.801   1.818
   41DPPC    C3 2003   0.712   1.961   1.983
   41DPPC    N4 2004   0.602   1.881   1.926
   41DPPC    C5 2005   0.495   1.968   1.874
   41DPPC    C6 2006   0.366   1.897   1.823
   41DPPC    O7 2007   0.268   1.987   1.773
   41DPPC    P8 2008   0.130   1.917   1.738
   41DPPC    O9 2009   0.042   2.013   1.669
   41DPPC   O10 2010   0.164   1.787   1.677
   41DPPC   O11 2011   0.083   1.902   1.887
   41DPPC   C12 2012   0.014   2.015   1.941
   41DPPC   C13 2013   0.031   2.027   2.094
   41DPPC   O14 2014   6.354   2.117   2.159
   41DPPC   C15 2015   6.345   2.251   2.135
   41DPPC   O16 2016   0.007   2.313   2.065
   41DPPC   C17 2017   6.224   2.318   2.199
   41DPPC   C18 2018   6.243   2.324   2.350
   41DPPC   C19 2019   6.110   2.354   2.418
   41DPPC   C20 2020   6.128   2.347   2.569
   41DPPC   C21 2021   5.996   2.369   2.642
   41DPPC   C22 2022   6.023   2.372   2.792
   41DPPC   C23 2023   5.904   2.424   2.872
   41DPPC   C24 2024   5.865   2.564   2.823
   41DPPC   C25 2025   5.777   2.634   2.927
   41DPPC   C26 2026   5.863   2.678   3.045
   41DPPC   C27 2027   5.780   2.730   3.162
   41DPPC   C28 2028   5.710   2.616   3.236
   41DPPC   C29 2029   5.637   2.670   3.360
   41DPPC   C30 2030   5.735   2.733   3.459
   41DPPC   C31 2031   5.660   2.801   3.574
   41DPPC   C32 2032   0.181   2.052   2.120
   41DPPC   O33 2033   0.228   2.005   2.249
   41DPPC   C34 2034   0.359   2.011   2.279
   41DPPC   O35 2035   0.443   2.050   2.197
   41DPPC   C36 2036   0.397   1.971   2.422
   41DPPC   C37 2037   0.305   1.864   2.484
   41DPPC   C38 2038   0.298   1.887   2.635
   41DPPC   C39 2039   0.437   1.888   2.698
   41DPPC   C40 2040   0.431   1.957   2.834
   41DPPC   C41 2041   0.568   1.960   2.901
   41DPPC   C42 2042   0.557   2.013   3.044
   41DPPC   C43 2043   0.461   1.926   3.126
   41DPPC   C44 2044   0.440   1.985   3.265
   41DPPC   C45 2045   0.326   1.916   3.340
   41DPPC   C46 2046   0.287   1.999   3.462
   41DPPC   C47 2047   0.241   2.138   3.416
   41DPPC   C48 2048   0.213   2.233   3.533
   41DPPC   C49 2049   0.165   2.367   3.478
   41DPPC   C50 2050   0.134   2.465   3.592
   42DPPC    C1 2051   6.276   3.084   1.442
   42DPPC    C2 2052   6.108   3.033   1.287
   42DPPC    C3 2053   6.194   3.253   1.293
   42DPPC    N4 2054   6.231   3.111   1.305
   42DPPC    C5 2055   6.328   3.070   1.201
   42DPPC    C6 2056   0.051   3.135   1.202
   42DPPC    O7 2057   0.134   3.082   1.305
   42DPPC    P8 2058   0.273   3.148   1.334
   42DPPC    O9 2059   0.369   3.038   1.310
   42DPPC   O10 2060   0.280   3.277   1.263
   42DPPC   O11 2061   0.256   3.179   1.489
   42DPPC   C12 2062   0.289   3.066   1.572
   42DPPC   C13 2063   0.332   3.094   1.718
   42DPPC   O14 2064   0.242   3.046   1.823
   42DPPC   C15 2065   0.223   2.915   1.848
   42DPPC   O16 2066   0.249   2.829   1.763
   42DPPC   C17 2067   0.131   2.886   1.966
   42DPPC   C18 2068   0.208   2.830   2.085
   42DPPC   C19 2069   0.112   2.785   2.195
   42DPPC   C20 2070   0.189   2.716   2.307
   42DPPC   C21 2071   0.254   2.587   2.257
   42DPPC   C22 2072   0.358   2.532   2.354
   42DPPC   C23 2073   0.299   2.507   2.493
   42DPPC   C24 2074   0.388   2.411   2.570
   42DPPC   C25 2075   0.325   2.376   2.705
   42DPPC   C26 2076   0.186   2.316   2.686
   42DPPC   C27 2077   0.128   2.285   2.823
   42DPPC   C28 2078   6.403   2.232   2.815
   42DPPC   C29 2079   6.357   2.190   2.955
   42DPPC   C30 2080   0.022   2.072   3.006
   42DPPC   C31 2081   6.397   2.032   3.146
   42DPPC   C32 2082   0.367   3.243   1.731
   42DPPC   O33 2083   0.506   3.266   1.757
   42DPPC   C34 2084   0.551   3.394   1.761
   42DPPC   O35 2085   0.481   3.490   1.730
   42DPPC   C36 2086   0.700   3.406   1.792
   42DPPC   C37 2087   0.727   3.519   1.891
   42DPPC   C38 2088   0.877   3.529   1.911
   42DPPC   C39 2089   0.917   3.644   2.003
   42DPPC   C40 2090   0.868   3.626   2.146
   42DPPC   C41 2091   0.939   3.731   2.230
   42DPPC   C42 2092   0.894   3.732   2.375
   42DPPC   C43 2093   0.971   3.843   2.446
   42DPPC   C44 2094   0.917   3.863   2.587
   42DPPC   C45 2095   1.002   3.965   2.662
   42DPPC   C46 2096   0.986   3.940   2.812
   42DPPC   C47 2097   1.037   3.800   2.848
   42DPPC   C48 2098   1.012   3.767   2.995
   42DPPC   C49 2099   0.864   3.748   3.026
   42DPPC   C50 2100   0.822   3.601   3.017
   43DPPC    C1 2101   0.671   3.958   1.100
   43DPPC    C2 2102   0.597   3.739   1.147
   43DPPC    C3 2103   0.436   3.910   1.116
   43DPPC    N4 2104   0.569   3.881   1.172
   43DPPC    C5 2105   0.575   3.908   1.318
   43DPPC    C6 2106   0.565   4.056   1.366
   43DPPC    O7 2107   0.431   4.103   1.387
   43DPPC    P8 2108   0.420   4.252   1.441
   43DPPC    O9 2109   0.555   4.311   1.454
   43DPPC   O10 2110   0.318   4.316   1.356
   43DPPC   O11 2111   0.367   4.222   1.587
   43DPPC   C12 2112   0.465   4.170   1.679
   43DPPC   C13 2113   0.421   4.156   1.827
   43DPPC   O14 2114   0.317   4.057   1.854
   43DPPC   C15 2115   0.349   3.925   1.861
   43DPPC   O16 2116   0.458   3.881   1.824
   43DPPC   C17 2117   0.232   3.835   1.904
   43DPPC   C18 2118   0.252   3.767   2.040
   43DPPC   C19 2119   0.364   3.663   2.037
   43DPPC   C20 2120   0.362   3.573   2.161
   43DPPC   C21 2121   0.375   3.653   2.291
   43DPPC   C22 2122   0.368   3.563   2.414
   43DPPC   C23 2123   0.371   3.651   2.539
   43DPPC   C24 2124   0.357   3.570   2.669
   43DPPC   C25 2125   0.359   3.666   2.788
   43DPPC   C26 2126   0.492   3.742   2.794
   43DPPC   C27 2127   0.494   3.844   2.908
   43DPPC   C28 2128   0.423   3.975   2.873
   43DPPC   C29 2129   0.421   4.069   2.993
   43DPPC   C30 2130   0.333   4.011   3.105
   43DPPC   C31 2131   0.345   4.093   3.233
   43DPPC   C32 2132   0.391   4.296   1.883
   43DPPC   O33 2133   0.504   4.354   1.951
   43DPPC   C34 2134   0.504   4.485   1.984
   43DPPC   O35 2135   0.433   4.564   1.922
   43DPPC   C36 2136   0.625   4.531   2.065
   43DPPC   C37 2137   0.601   4.529   2.216
   43DPPC   C38 2138   0.731   4.560   2.290
   43DPPC   C39 2139   0.715   4.551   2.442
   43DPPC   C40 2140   0.672   4.410   2.483
   43DPPC   C41 2141   0.619   4.408   2.626
   43DPPC   C42 2142   0.509   4.512   2.641
   43DPPC   C43 2143   0.439   4.501   2.777
   43DPPC   C44 2144   0.387   4.638   2.821
   43DPPC   C45 2145   0.312   4.629   2.953
   43DPPC   C46 2146   0.397   4.560   3.060
   43DPPC   C47 2147   0.335   4.575   3.198
   43DPPC   C48 2148   0.425   4.508   3.302
   43DPPC   C49 2149   0.385   4.552   3.443
   43DPPC   C50 2150   0.482   4.493   3.547
   44DPPC    C1 2151   6.032   1.501   1.495
   44DPPC    C2 2152   6.246   1.558   1.576
   44DPPC    C3 2153   6.224   1.448   1.368
   44DPPC    N4 2154   6.171   1.454   1.505
   44DPPC    C5 2155   6.173   1.322   1.574
   44DPPC    C6 2156   6.304   1.237   1.572
   44DPPC    O7 2157   6.411   1.296   1.645
   44DPPC    P8 2158   0.131   1.224   1.623
   44DPPC    O9 2159   0.108   1.078   1.630
   44DPPC   O10 2160   0.191   1.281   1.502
   44DPPC   O11 2161   0.216   1.266   1.749
   44DPPC   C12 2162   0.193   1.192   1.869
   44DPPC   C13 2163   0.303   1.215   1.975
   44DPPC   O14 2164   0.326   1.102   2.063
   44DPPC   C15 2165   0.454   1.071   2.094
   44DPPC   O16 2166   0.547   1.148   2.066
   44DPPC   C17 2167   0.472   0.950   2.186
   44DPPC   C18 2168   0.491   0.997   2.329
   44DPPC   C19 2169   0.539   0.885   2.421
   44DPPC   C20 2170   0.556   0.944   2.561
   44DPPC   C21 2171   0.608   0.843   2.664
   44DPPC   C22 2172   0.607   0.909   2.802
   44DPPC   C23 2173   0.667   0.819   2.910
   44DPPC   C24 2174   0.666   0.889   3.046
   44DPPC   C25 2175   0.526   0.894   3.106
   44DPPC   C26 2176   0.488   0.757   3.163
   44DPPC   C27 2177   0.343   0.751   3.211
   44DPPC   C28 2178   0.246   0.753   3.093
   44DPPC   C29 2179   0.101   0.752   3.144
   44DPPC   C30 2180   0.003   0.755   3.027
   44DPPC   C31 2181   6.288   0.815   3.071
   44DPPC   C32 2182   0.286   1.353   2.042
   44DPPC   O33 2183   0.160   1.420   2.024
   44DPPC   C34 2184   0.158   1.555   2.043
   44DPPC   O35 2185   0.261   1.621   2.043
   44DPPC   C36 2186   0.021   1.618   2.015
   44DPPC   C37 2187   6.343   1.615   2.134
   44DPPC   C38 2188   6.389   1.698   2.254
   44DPPC   C39 2189   6.270   1.718   2.348
   44DPPC   C40 2190   6.303   1.801   2.472
   44DPPC   C41 2191   6.174   1.831   2.548
   44DPPC   C42 2192   6.196   1.901   2.683
   44DPPC   C43 2193   6.059   1.928   2.746
   44DPPC   C44 2194   6.067   1.977   2.891
   44DPPC   C45 2195   5.925   1.994   2.946
   44DPPC   C46 2196   5.924   2.021   3.097
   44DPPC   C47 2197   5.781   2.018   3.150
   44DPPC   C48 2198   5.697   2.129   3.087
   44DPPC   C49 2199   5.550   2.118   3.128
   44DPPC   C50 2200   5.468   2.231   3.065
   45DPPC    C1 2201   1.132   2.189   1.291
   45DPPC    C2 2202   1.353   2.126   1.349
   45DPPC    C3 2203   1.323   2.327   1.236
   45DPPC    N4 2204   1.262   2.241   1.338
   45DPPC    C5 2205   1.254   2.311   1.468
   45DPPC    C6 2206   1.168   2.441   1.479
   45DPPC    O7 2207   1.028   2.418   1.501
   45DPPC    P8 2208   0.934   2.545   1.480
   45DPPC    O9 2209   1.003   2.640   1.392
   45DPPC   O10 2210   0.802   2.487   1.444
   45DPPC   O11 2211   0.927   2.604   1.627
   45DPPC   C12 2212   0.848   2.528   1.719
   45DPPC   C13 2213   0.837   2.591   1.860
   45DPPC   O14 2214   0.846   2.495   1.970
   45DPPC   C15 2215   0.760   2.392   1.993
   45DPPC   O16 2216   0.690   2.341   1.906
   45DPPC   C17 2217   0.791   2.318   2.123
   45DPPC   C18 2218   0.747   2.398   2.244
   45DPPC   C19 2219   0.792   2.327   2.370
   45DPPC   C20 2220   0.760   2.410   2.494
   45DPPC   C21 2221   0.808   2.338   2.620
   45DPPC   C22 2222   0.766   2.415   2.745
   45DPPC   C23 2223   0.812   2.345   2.873
   45DPPC   C24 2224   0.732   2.398   2.992
   45DPPC   C25 2225   0.752   2.549   3.011
   45DPPC   C26 2226   0.644   2.606   3.104
   45DPPC   C27 2227   0.505   2.582   3.043
   45DPPC   C28 2228   0.391   2.640   3.127
   45DPPC   C29 2229   0.259   2.593   3.066
   45DPPC   C30 2230   0.137   2.660   3.128
   45DPPC   C31 2231   0.010   2.610   3.059
   45DPPC   C32 2232   0.718   2.690   1.865
   45DPPC   O33 2233   0.721   2.782   1.975
   45DPPC   C34 2234   0.644   2.759   2.085
   45DPPC   O35 2235   0.550   2.681   2.083
   45DPPC   C36 2236   0.669   2.858   2.200
   45DPPC   C37 2237   0.634   2.797   2.336
   45DPPC   C38 2238   0.668   2.895   2.448
   45DPPC   C39 2239   0.618   2.842   2.582
   45DPPC   C40 2240   0.644   2.945   2.691
   45DPPC   C41 2241   0.571   2.904   2.819
   45DPPC   C42 2242   0.588   3.008   2.930
   45DPPC   C43 2243   0.733   3.019   2.975
   45DPPC   C44 2244   0.742   3.109   3.098
   45DPPC   C45 2245   0.885   3.111   3.153
   45DPPC   C46 2246   0.888   3.192   3.282
   45DPPC   C47 2247   1.026   3.188   3.347
   45DPPC   C48 2248   1.021   3.266   3.478
   45DPPC   C49 2249   1.154   3.260   3.552
   45DPPC   C50 2250   1.204   3.400   3.586
   46DPPC    C1 2251   0.717   3.064   1.106
   46DPPC    C2 2252   0.903   2.966   0.998
   46DPPC    C3 2253   0.742   2.824   1.086
   46DPPC    N4 2254   0.812   2.951   1.112
   46DPPC    C5 2255   0.888   2.948   1.239
   46DPPC    C6 2256   0.805   2.940   1.370
   46DPPC    O7 2257   0.878   2.939   1.492
   46DPPC    P8 2258   0.785   2.988   1.609
   46DPPC    O9 2259   0.762   3.130   1.577
   46DPPC   O10 2260   0.672   2.895   1.628
   46DPPC   O11 2261   0.885   2.978   1.731
   46DPPC   C12 2262   0.858   3.078   1.830
   46DPPC   C13 2263   0.911   3.046   1.971
   46DPPC   O14 2264   0.961   3.165   2.041
   46DPPC   C15 2265   1.075   3.231   2.007
   46DPPC   O16 2266   1.121   3.230   1.892
   46DPPC   C17 2267   1.131   3.318   2.119
   46DPPC   C18 2268   1.165   3.236   2.244
   46DPPC   C19 2269   1.290   3.150   2.224
   46DPPC   C20 2270   1.316   3.055   2.341
   46DPPC   C21 2271   1.352   3.125   2.473
   46DPPC   C22 2272   1.375   3.022   2.584
   46DPPC   C23 2273   1.418   3.089   2.714
   46DPPC   C24 2274   1.433   2.987   2.828
   46DPPC   C25 2275   1.451   3.062   2.960
   46DPPC   C26 2276   1.416   2.973   3.079
   46DPPC   C27 2277   1.384   3.058   3.202
   46DPPC   C28 2278   1.506   3.136   3.252
   46DPPC   C29 2279   1.465   3.237   3.359
   46DPPC   C30 2280   1.584   3.318   3.411
   46DPPC   C31 2281   1.648   3.402   3.299
   46DPPC   C32 2282   1.020   2.937   1.958
   46DPPC   O33 2283   1.049   2.860   2.075
   46DPPC   C34 2284   1.170   2.797   2.075
   46DPPC   O35 2285   1.265   2.848   2.016
   46DPPC   C36 2286   1.186   2.681   2.173
   46DPPC   C37 2287   1.147   2.719   2.315
   46DPPC   C38 2288   1.186   2.610   2.414
   46DPPC   C39 2289   1.159   2.662   2.555
   46DPPC   C40 2290   1.209   2.566   2.663
   46DPPC   C41 2291   1.193   2.634   2.798
   46DPPC   C42 2292   1.244   2.550   2.915
   46DPPC   C43 2293   1.225   2.631   3.043
   46DPPC   C44 2294   1.274   2.559   3.168
   46DPPC   C45 2295   1.247   2.647   3.291
   46DPPC   C46 2296   1.303   2.584   3.418
   46DPPC   C47 2297   1.263   2.661   3.544
   46DPPC   C48 2298   1.327   2.800   3.556
   46DPPC   C49 2299   1.279   2.865   3.686
   46DPPC   C50 2300   1.353   2.996   3.716
   47DPPC    C1 2301   0.704   4.501   1.236
   47DPPC    C2 2302   0.874   4.433   1.081
   47DPPC    C3 2303   0.894   4.638   1.195
   47DPPC    N4 2304   0.848   4.500   1.210
   47DPPC    C5 2305   0.921   4.440   1.324
   47DPPC    C6 2306   0.909   4.287   1.354
   47DPPC    O7 2307   0.992   4.208   1.270
   47DPPC    P8 2308   1.010   4.056   1.311
   47DPPC    O9 2309   0.877   4.015   1.361
   47DPPC   O10 2310   1.072   3.987   1.197
   47DPPC   O11 2311   1.103   4.066   1.439
   47DPPC   C12 2312   1.228   3.996   1.440
   47DPPC   C13 2313   1.289   3.982   1.582
   47DPPC   O14 2314   1.248   3.863   1.655
   47DPPC   C15 2315   1.341   3.776   1.700
   47DPPC   O16 2316   1.453   3.772   1.647
   47DPPC   C17 2317   1.297   3.680   1.810
   47DPPC   C18 2318   1.364   3.717   1.943
   47DPPC   C19 2319   1.327   3.620   2.054
   47DPPC   C20 2320   1.388   3.660   2.188
   47DPPC   C21 2321   1.344   3.564   2.299
   47DPPC   C22 2322   1.388   3.611   2.438
   47DPPC   C23 2323   1.345   3.513   2.548
   47DPPC   C24 2324   1.193   3.500   2.560
   47DPPC   C25 2325   1.156   3.393   2.663
   47DPPC   C26 2326   1.005   3.381   2.684
   47DPPC   C27 2327   0.931   3.353   2.553
   47DPPC   C28 2328   0.781   3.330   2.579
   47DPPC   C29 2329   0.698   3.345   2.451
   47DPPC   C30 2330   0.738   3.247   2.340
   47DPPC   C31 2331   0.654   3.271   2.215
   47DPPC   C32 2332   1.256   4.111   1.660
   47DPPC   O33 2333   1.363   4.206   1.672
   47DPPC   C34 2334   1.331   4.318   1.742
   47DPPC   O35 2335   1.213   4.349   1.758
   47DPPC   C36 2336   1.447   4.409   1.783
   47DPPC   C37 2337   1.496   4.383   1.926
   47DPPC   C38 2338   1.548   4.240   1.947
   47DPPC   C39 2339   1.605   4.219   2.087
   47DPPC   C40 2340   1.744   4.282   2.104
   47DPPC   C41 2341   1.795   4.260   2.246
   47DPPC   C42 2342   1.940   4.308   2.262
   47DPPC   C43 2343   1.976   4.329   2.409
   47DPPC   C44 2344   1.894   4.444   2.468
   47DPPC   C45 2345   1.929   4.475   2.614
   47DPPC   C46 2346   1.903   4.354   2.704
   47DPPC   C47 2347   1.920   4.385   2.854
   47DPPC   C48 2348   2.060   4.431   2.893
   47DPPC   C49 2349   2.070   4.439   3.045
   47DPPC   C50 2350   2.199   4.506   3.091
   48DPPC    C1 2351   5.426   1.911   0.831
   48DPPC    C2 2352   5.361   1.764   1.006
   48DPPC    C3 2353   5.250   1.975   0.973
   48DPPC    N4 2354   5.311   1.859   0.905
   48DPPC    C5 2355   5.219   1.792   0.810
   48DPPC    C6 2356   5.085   1.732   0.862
   48DPPC    O7 2357   4.986   1.832   0.887
   48DPPC    P8 2358   4.857   1.776   0.959
   48DPPC    O9 2359   4.780   1.896   0.995
   48DPPC   O10 2360   4.798   1.673   0.871
   48DPPC   O11 2361   4.917   1.706   1.088
   48DPPC   C12 2362   4.826   1.687   1.196
   48DPPC   C13 2363   4.866   1.581   1.302
   48DPPC   O14 2364   4.822   1.618   1.437
   48DPPC   C15 2365   4.876   1.717   1.513
   48DPPC   O16 2366   4.976   1.780   1.478
   48DPPC   C17 2367   4.805   1.740   1.647
   48DPPC   C18 2368   4.658   1.696   1.643
   48DPPC   C19 2369   4.590   1.718   1.778
   48DPPC   C20 2370   4.446   1.668   1.777
   48DPPC   C21 2371   4.373   1.713   1.904
   48DPPC   C22 2372   4.438   1.656   2.030
   48DPPC   C23 2373   4.377   1.720   2.155
   48DPPC   C24 2374   4.429   1.647   2.278
   48DPPC   C25 2375   4.378   1.710   2.407
   48DPPC   C26 2376   4.414   1.617   2.522
   48DPPC   C27 2377   4.376   1.670   2.660
   48DPPC   C28 2378   4.462   1.789   2.701
   48DPPC   C29 2379   4.436   1.826   2.847
   48DPPC   C30 2380   4.534   1.931   2.898
   48DPPC   C31 2381   4.678   1.878   2.898
   48DPPC   C32 2382   5.016   1.548   1.288
   48DPPC   O33 2383   5.058   1.421   1.344
   48DPPC   C34 2384   5.124   1.419   1.463
   48DPPC   O35 2385   5.136   1.516   1.538
   48DPPC   C36 2386   5.196   1.287   1.490
   48DPPC   C37 2387   5.175   1.239   1.633
   48DPPC   C38 2388   5.236   1.100   1.651
   48DPPC   C39 2389   5.220   1.054   1.796
   48DPPC   C40 2390   5.072   1.039   1.833
   48DPPC   C41 2391   5.054   1.047   1.984
   48DPPC   C42 2392   5.101   1.184   2.031
   48DPPC   C43 2393   5.080   1.209   2.180
   48DPPC   C44 2394   5.142   1.345   2.210
   48DPPC   C45 2395   5.093   1.407   2.341
   48DPPC   C46 2396   5.155   1.545   2.357
   48DPPC   C47 2397   5.091   1.621   2.473
   48DPPC   C48 2398   5.116   1.551   2.607
   48DPPC   C49 2399   5.036   1.617   2.720
   48DPPC   C50 2400   4.886   1.592   2.703
   49DPPC    C1 2401   6.254   0.340   1.289
   49DPPC    C2 2402   6.223   0.347   1.523
   49DPPC    C3 2403   6.057   0.436   1.379
   49DPPC    N4 2404   6.202   0.422   1.399
   49DPPC    C5 2405   6.274   0.552   1.411
   49DPPC    C6 2406   6.248   0.662   1.304
   49DPPC    O7 2407   6.317   0.784   1.333
   49DPPC    P8 2408   6.309   0.889   1.214
   49DPPC    O9 2409   6.391   1.003   1.261
   49DPPC   O10 2410   6.339   0.804   1.098
   49DPPC   O11 2411   6.154   0.915   1.221
   49DPPC   C12 2412   6.106   1.023   1.300
   49DPPC   C13 2413   5.955   1.006   1.331
   49DPPC   O14 2414   5.889   1.130   1.373
   49DPPC   C15 2415   5.787   1.179   1.298
   49DPPC   O16 2416   5.736   1.117   1.205
   49DPPC   C17 2417   5.729   1.312   1.348
   49DPPC   C18 2418   5.655   1.283   1.478
   49DPPC   C19 2419   5.602   1.408   1.548
   49DPPC   C20 2420   5.546   1.362   1.683
   49DPPC   C21 2421   5.482   1.475   1.763
   49DPPC   C22 2422   5.427   1.418   1.894
   49DPPC   C23 2423   5.367   1.526   1.983
   49DPPC   C24 2424   5.474   1.628   2.022
   49DPPC   C25 2425   5.427   1.718   2.136
   49DPPC   C26 2426   5.541   1.809   2.180
   49DPPC   C27 2427   5.665   1.728   2.220
   49DPPC   C28 2428   5.779   1.821   2.264
   49DPPC   C29 2429   5.813   1.919   2.153
   49DPPC   C30 2430   5.900   2.034   2.205
   49DPPC   C31 2431   5.900   2.149   2.104
   49DPPC   C32 2432   5.946   0.884   1.426
   49DPPC   O33 2433   6.024   0.897   1.546
   49DPPC   C34 2434   6.051   0.788   1.623
   49DPPC   O35 2435   6.026   0.674   1.586
   49DPPC   C36 2436   6.138   0.815   1.747
   49DPPC   C37 2437   6.106   0.951   1.808
   49DPPC   C38 2438   6.219   1.002   1.898
   49DPPC   C39 2439   6.185   1.144   1.946
   49DPPC   C40 2440   6.289   1.199   2.044
   49DPPC   C41 2441   6.301   1.108   2.166
   49DPPC   C42 2442   6.398   1.159   2.273
   49DPPC   C43 2443   6.348   1.286   2.340
   49DPPC   C44 2444   0.010   1.321   2.466
   49DPPC   C45 2445   0.160   1.335   2.438
   49DPPC   C46 2446   0.233   1.392   2.561
   49DPPC   C47 2447   0.385   1.398   2.542
   49DPPC   C48 2448   0.426   1.483   2.421
   49DPPC   C49 2449   0.578   1.501   2.415
   49DPPC   C50 2450   0.654   1.369   2.397
   50DPPC    C1 2451   4.618   6.130   1.004
   50DPPC    C2 2452   4.539   5.906   1.041
   50DPPC    C3 2453   4.483   6.078   1.192
   50DPPC    N4 2454   4.590   6.028   1.105
   50DPPC    C5 2455   4.708   6.001   1.190
   50DPPC    C6 2456   4.835   5.943   1.123
   50DPPC    O7 2457   4.933   5.908   1.221
   50DPPC    P8 2458   5.052   5.822   1.166
   50DPPC    O9 2459   4.988   5.696   1.120
   50DPPC   O10 2460   5.123   5.913   1.075
   50DPPC   O11 2461   5.132   5.806   1.301
   50DPPC   C12 2462   5.058   5.744   1.407
   50DPPC   C13 2463   5.114   5.770   1.549
   50DPPC   O14 2464   5.006   5.804   1.642
   50DPPC   C15 2465   4.926   5.708   1.693
   50DPPC   O16 2466   4.937   5.590   1.658
   50DPPC   C17 2467   4.824   5.758   1.796
   50DPPC   C18 2468   4.799   5.651   1.903
   50DPPC   C19 2469   4.735   5.706   2.030
   50DPPC   C20 2470   4.831   5.801   2.101
   50DPPC   C21 2471   4.774   5.849   2.235
   50DPPC   C22 2472   4.766   5.735   2.337
   50DPPC   C23 2473   4.680   5.779   2.455
   50DPPC   C24 2474   4.644   5.663   2.548
   50DPPC   C25 2475   4.753   5.635   2.651
   50DPPC   C26 2476   4.714   5.515   2.737
   50DPPC   C27 2477   4.837   5.472   2.816
   50DPPC   C28 2478   4.816   5.341   2.893
   50DPPC   C29 2479   4.939   5.254   2.870
   50DPPC   C30 2480   4.946   5.135   2.966
   50DPPC   C31 2481   5.068   5.049   2.933
   50DPPC   C32 2482   5.220   5.882   1.540
   50DPPC   O33 2483   5.283   5.916   1.666
   50DPPC   C34 2484   5.360   6.027   1.671
   50DPPC   O35 2485   5.376   6.100   1.574
   50DPPC   C36 2486   5.416   6.063   1.809
   50DPPC   C37 2487   5.491   5.948   1.876
   50DPPC   C38 2488   5.559   5.997   2.003
   50DPPC   C39 2489   5.460   6.054   2.105
   50DPPC   C40 2490   5.538   6.089   2.231
   50DPPC   C41 2491   5.449   6.131   2.349
   50DPPC   C42 2492   5.538   6.132   2.474
   50DPPC   C43 2493   5.462   6.170   2.601
   50DPPC   C44 2494   5.556   6.163   2.721
   50DPPC   C45 2495   5.600   6.019   2.751
   50DPPC   C46 2496   5.707   6.015   2.860
   50DPPC   C47 2497   5.738   5.869   2.894
   50DPPC   C48 2498   5.867   5.856   2.975
   50DPPC   C49 2499   5.896   5.710   3.010
   50DPPC   C50 2500   5.793   5.654   3.108
   51DPPC    C1 2501   5.293   6.343   1.149
   51DPPC    C2 2502   5.228   6.304   1.377
   51DPPC    C3 2503   5.306   6.126   1.242
   51DPPC    N4 2504   5.226   6.250   1.240
   51DPPC    C5 2505   5.088   6.218   1.197
   51DPPC    C6 2506   4.986   6.337   1.195
   51DPPC    O7 2507   4.850   6.296   1.185
   51DPPC    P8 2508   4.750   6.409   1.233
   51DPPC    O9 2509   4.794   0.092   1.175
   51DPPC   O10 2510   4.610   6.368   1.216
   51DPPC   O11 2511   4.781   6.402   1.386
   51DPPC   C12 2512   4.741   0.073   1.459
   51DPPC   C13 2513   4.729   0.042   1.609
   51DPPC   O14 2514   4.691   0.161   1.683
   51DPPC   C15 2515   4.603   0.143   1.786
   51DPPC   O16 2516   4.560   0.033   1.816
   51DPPC   C17 2517   4.575   0.268   1.870
   51DPPC   C18 2518   4.678   0.270   1.982
   51DPPC   C19 2519   4.624   0.349   2.101
   51DPPC   C20 2520   4.715   0.329   2.222
   51DPPC   C21 2521   4.728   0.181   2.257
   51DPPC   C22 2522   4.813   0.164   2.383
   51DPPC   C23 2523   4.742   0.230   2.502
   51DPPC   C24 2524   4.837   0.244   2.621
   51DPPC   C25 2525   4.892   0.109   2.665
   51DPPC   C26 2526   4.967   0.128   2.796
   51DPPC   C27 2527   4.928   0.017   2.894
   51DPPC   C28 2528   4.965   0.054   3.037
   51DPPC   C29 2529   5.115   0.081   3.052
   51DPPC   C30 2530   5.148   0.120   3.196
   51DPPC   C31 2531   5.290   0.176   3.205
   51DPPC   C32 2532   4.864   6.422   1.650
   51DPPC   O33 2533   4.852   6.301   1.727
   51DPPC   C34 2534   4.965   6.228   1.743
   51DPPC   O35 2535   5.060   6.237   1.665
   51DPPC   C36 2536   4.964   6.131   1.861
   51DPPC   C37 2537   4.989   6.212   1.989
   51DPPC   C38 2538   5.002   6.123   2.112
   51DPPC   C39 2539   5.014   6.206   2.240
   51DPPC   C40 2540   5.017   6.114   2.363
   51DPPC   C41 2541   5.028   6.193   2.493
   51DPPC   C42 2542   5.030   6.101   2.616
   51DPPC   C43 2543   5.144   6.000   2.606
   51DPPC   C44 2544   5.165   5.918   2.733
   51DPPC   C45 2545   5.274   5.814   2.706
   51DPPC   C46 2546   5.304   5.725   2.826
   51DPPC   C47 2547   5.383   5.603   2.777
   51DPPC   C48 2548   5.403   5.501   2.889
   51DPPC   C49 2549   5.455   5.369   2.833
   51DPPC   C50 2550   5.594   5.382   2.770
   52DPPC    C1 2551   5.453   1.207   0.649
   52DPPC    C2 2552   5.514   1.425   0.703
   52DPPC    C3 2553   5.682   1.258   0.690
   52DPPC    N4 2554   5.545   1.285   0.733
   52DPPC    C5 2555   5.529   1.263   0.879
   52DPPC    C6 2556   5.534   1.117   0.932
   52DPPC    O7 2557   5.416   1.042   0.903
   52DPPC    P8 2558   5.438   0.887   0.876
   52DPPC    O9 2559   5.317   0.855   0.799
   52DPPC   O10 2560   5.575   0.873   0.822
   52DPPC   O11 2561   5.432   0.839   1.026
   52DPPC   C12 2562   5.310   0.864   1.096
   52DPPC   C13 2563   5.323   0.850   1.249
   52DPPC   O14 2564   5.199   0.888   1.318
   52DPPC   C15 2565   5.123   0.794   1.380
   52DPPC   O16 2566   5.138   0.674   1.357
   52DPPC   C17 2567   5.007   0.851   1.462
   52DPPC   C18 2568   4.956   0.752   1.567
   52DPPC   C19 2569   4.839   0.808   1.649
   52DPPC   C20 2570   4.769   0.695   1.723
   52DPPC   C21 2571   4.678   0.745   1.835
   52DPPC   C22 2572   4.764   0.806   1.946
   52DPPC   C23 2573   4.678   0.852   2.064
   52DPPC   C24 2574   4.768   0.914   2.171
   52DPPC   C25 2575   4.689   0.936   2.300
   52DPPC   C26 2576   4.776   0.994   2.411
   52DPPC   C27 2577   4.902   0.911   2.438
   52DPPC   C28 2578   4.966   0.953   2.571
   52DPPC   C29 2579   5.002   1.101   2.577
   52DPPC   C30 2580   5.054   1.140   2.716
   52DPPC   C31 2581   4.947   1.117   2.823
   52DPPC   C32 2582   5.441   0.940   1.292
   52DPPC   O33 2583   5.472   0.945   1.432
   52DPPC   C34 2584   5.554   0.853   1.488
   52DPPC   O35 2585   5.613   0.769   1.420
   52DPPC   C36 2586   5.576   0.868   1.639
   52DPPC   C37 2587   5.686   0.969   1.672
   52DPPC   C38 2588   5.707   0.983   1.823
   52DPPC   C39 2589   5.734   0.846   1.884
   52DPPC   C40 2590   5.772   0.856   2.032
   52DPPC   C41 2591   5.765   0.718   2.097
   52DPPC   C42 2592   5.834   0.722   2.233
   52DPPC   C43 2593   5.984   0.739   2.214
   52DPPC   C44 2594   6.055   0.768   2.346
   52DPPC   C45 2595   6.027   0.910   2.394
   52DPPC   C46 2596   6.090   0.932   2.532
   52DPPC   C47 2597   6.239   0.899   2.529
   52DPPC   C48 2598   6.295   0.879   2.669
   52DPPC   C49 2599   0.016   0.816   2.664
   52DPPC   C50 2600   0.118   0.906   2.594
   53DPPC    C1 2601   5.729   5.230   1.415
   53DPPC    C2 2602   5.524   5.229   1.300
   53DPPC    C3 2603   5.663   5.039   1.286
   53DPPC    N4 2604   5.664   5.186   1.292
   53DPPC    C5 2605   5.732   5.247   1.174
   53DPPC    C6 2606   5.874   5.199   1.132
   53DPPC    O7 2607   5.974   5.233   1.228
   53DPPC    P8 2608   6.119   5.180   1.198
   53DPPC    O9 2609   6.122   5.034   1.220
   53DPPC   O10 2610   6.176   5.237   1.074
   53DPPC   O11 2611   6.203   5.245   1.315
   53DPPC   C12 2612   6.143   5.244   1.445
   53DPPC   C13 2613   6.236   5.306   1.552
   53DPPC   O14 2614   6.249   5.218   1.669
   53DPPC   C15 2615   6.350   5.237   1.757
   53DPPC   O16 2616   0.036   5.293   1.724
   53DPPC   C17 2617   6.335   5.160   1.888
   53DPPC   C18 2618   6.220   5.221   1.968
   53DPPC   C19 2619   6.194   5.136   2.093
   53DPPC   C20 2620   6.075   5.186   2.174
   53DPPC   C21 2621   6.055   5.089   2.291
   53DPPC   C22 2622   5.937   5.127   2.380
   53DPPC   C23 2623   5.924   5.025   2.493
   53DPPC   C24 2624   6.050   5.028   2.580
   53DPPC   C25 2625   6.050   4.921   2.688
   53DPPC   C26 2626   6.162   4.951   2.786
   53DPPC   C27 2627   6.181   4.837   2.887
   53DPPC   C28 2628   6.281   4.877   2.995
   53DPPC   C29 2629   6.305   4.759   3.089
   53DPPC   C30 2630   6.384   4.803   3.212
   53DPPC   C31 2631   6.403   4.684   3.306
   53DPPC   C32 2632   6.193   5.452   1.579
   53DPPC   O33 2633   6.075   5.468   1.662
   53DPPC   C34 2634   6.039   5.595   1.694
   53DPPC   O35 2635   6.109   5.693   1.667
   53DPPC   C36 2636   5.911   5.607   1.777
   53DPPC   C37 2637   5.930   5.670   1.916
   53DPPC   C38 2638   6.016   5.585   2.010
   53DPPC   C39 2639   6.045   5.659   2.140
   53DPPC   C40 2640   6.146   5.584   2.226
   53DPPC   C41 2641   6.279   5.564   2.151
   53DPPC   C42 2642   6.377   5.486   2.239
   53DPPC   C43 2643   0.084   5.442   2.162
   53DPPC   C44 2644   0.166   5.346   2.248
   53DPPC   C45 2645   0.077   5.229   2.289
   53DPPC   C46 2646   0.147   5.128   2.380
   53DPPC   C47 2647   0.044   5.025   2.426
   53DPPC   C48 2648   0.111   4.911   2.503
   53DPPC   C49 2649   0.006   4.808   2.545
   53DPPC   C50 2650   0.070   4.684   2.607
   54DPPC    C1 2651   6.183   6.197   1.194
   54DPPC    C2 2652   6.322   6.006   1.208
   54DPPC    C3 2653   6.177   6.066   1.391
   54DPPC    N4 2654   6.190   6.059   1.245
   54DPPC    C5 2655   6.082   5.979   1.184
   54DPPC    C6 2656   6.067   5.831   1.232
   54DPPC    O7 2657   5.964   5.765   1.160
   54DPPC    P8 2658   5.936   5.619   1.214
   54DPPC    O9 2659   5.841   5.568   1.113
   54DPPC   O10 2660   6.068   5.559   1.238
   54DPPC   O11 2661   5.867   5.653   1.351
   54DPPC   C12 2662   5.726   5.630   1.363
   54DPPC   C13 2663   5.674   5.682   1.499
   54DPPC   O14 2664   5.543   5.632   1.537
   54DPPC   C15 2665   5.531   5.514   1.603
   54DPPC   O16 2666   5.626   5.437   1.620
   54DPPC   C17 2667   5.394   5.490   1.663
   54DPPC   C18 2668   5.378   5.580   1.786
   54DPPC   C19 2669   5.238   5.570   1.844
   54DPPC   C20 2670   5.215   5.669   1.958
   54DPPC   C21 2671   5.307   5.640   2.077
   54DPPC   C22 2672   5.270   5.724   2.200
   54DPPC   C23 2673   5.355   5.686   2.322
   54DPPC   C24 2674   5.503   5.709   2.294
   54DPPC   C25 2675   5.590   5.679   2.417
   54DPPC   C26 2676   5.734   5.716   2.383
   54DPPC   C27 2677   5.829   5.700   2.502
   54DPPC   C28 2678   5.851   5.554   2.542
   54DPPC   C29 2679   5.961   5.547   2.648
   54DPPC   C30 2680   5.999   5.403   2.681
   54DPPC   C31 2681   6.123   5.399   2.770
   54DPPC   C32 2682   5.688   5.836   1.495
   54DPPC   O33 2683   5.739   5.891   1.618
   54DPPC   C34 2684   5.830   5.990   1.608
   54DPPC   O35 2685   5.879   6.022   1.500
   54DPPC   C36 2686   5.883   6.045   1.741
   54DPPC   C37 2687   6.034   6.021   1.751
   54DPPC   C38 2688   6.089   6.054   1.890
   54DPPC   C39 2689   6.232   6.002   1.899
   54DPPC   C40 2690   6.284   6.006   2.043
   54DPPC   C41 2691   6.410   5.921   2.055
   54DPPC   C42 2692   0.042   5.918   2.199
   54DPPC   C43 2693   0.162   5.824   2.215
   54DPPC   C44 2694   0.219   5.834   2.356
   54DPPC   C45 2695   0.197   5.706   2.437
   54DPPC   C46 2696   0.242   5.725   2.582
   54DPPC   C47 2697   0.197   5.609   2.670
   54DPPC   C48 2698   0.265   5.477   2.632
   54DPPC   C49 2699   0.214   5.363   2.719
   54DPPC   C50 2700   0.299   5.237   2.698
   55DPPC    C1 2701   5.422   6.167   0.591
   55DPPC    C2 2702   5.565   5.984   0.650
   55DPPC    C3 2703   5.651   6.208   0.632
   55DPPC    N4 2704   5.536   6.126   0.674
   55DPPC    C5 2705   5.501   6.157   0.815
   55DPPC    C6 2706   5.589   6.091   0.924
   55DPPC    O7 2707   5.583   6.157   1.050
   55DPPC    P8 2708   5.687   6.086   1.145
   55DPPC    O9 2709   5.635   5.951   1.170
   55DPPC   O10 2710   5.816   6.108   1.077
   55DPPC   O11 2711   5.670   6.185   1.266
   55DPPC   C12 2712   5.794   6.249   1.299
   55DPPC   C13 2713   5.791   6.353   1.413
   55DPPC   O14 2714   5.920   6.347   1.481
   55DPPC   C15 2715   5.982   0.013   1.529
   55DPPC   O16 2716   5.961   0.125   1.484
   55DPPC   C17 2717   6.105   6.424   1.615
   55DPPC   C18 2718   6.077   0.008   1.762
   55DPPC   C19 2719   6.209   6.441   1.839
   55DPPC   C20 2720   6.193   0.029   1.988
   55DPPC   C21 2721   6.332   0.027   2.053
   55DPPC   C22 2722   6.326   0.053   2.204
   55DPPC   C23 2723   6.249   6.385   2.276
   55DPPC   C24 2724   6.231   6.415   2.425
   55DPPC   C25 2725   6.363   6.411   2.502
   55DPPC   C26 2726   6.338   6.439   2.651
   55DPPC   C27 2727   6.241   6.337   2.712
   55DPPC   C28 2728   6.210   6.368   2.859
   55DPPC   C29 2729   6.149   0.064   2.875
   55DPPC   C30 2730   6.112   0.091   3.021
   55DPPC   C31 2731   6.066   0.236   3.040
   55DPPC   C32 2732   5.678   6.315   1.511
   55DPPC   O33 2733   5.588   6.421   1.549
   55DPPC   C34 2734   5.528   6.401   1.669
   55DPPC   O35 2735   5.582   6.331   1.753
   55DPPC   C36 2736   5.409   0.048   1.704
   55DPPC   C37 2737   5.330   6.426   1.818
   55DPPC   C38 2738   5.236   0.077   1.893
   55DPPC   C39 2739   5.269   0.074   2.042
   55DPPC   C40 2740   5.162   0.143   2.126
   55DPPC   C41 2741   5.205   0.161   2.272
   55DPPC   C42 2742   5.327   0.252   2.278
   55DPPC   C43 2743   5.360   0.301   2.419
   55DPPC   C44 2744   5.472   0.404   2.407
   55DPPC   C45 2745   5.509   0.467   2.541
   55DPPC   C46 2746   5.616   0.574   2.521
   55DPPC   C47 2747   5.680   0.610   2.655
   55DPPC   C48 2748   5.784   0.720   2.640
   55DPPC   C49 2749   5.884   0.720   2.756
   55DPPC   C50 2750   5.818   0.744   2.891
   56DPPC    C1 2751   5.979   0.356   0.774
   56DPPC    C2 2752   5.773   0.430   0.687
   56DPPC    C3 2753   5.800   0.203   0.757
   56DPPC    N4 2754   5.834   0.342   0.788
   56DPPC    C5 2755   5.792   0.377   0.927
   56DPPC    C6 2756   5.642   0.413   0.951
   56DPPC    O7 2757   5.552   0.306   0.923
   56DPPC    P8 2758   5.397   0.340   0.923
   56DPPC    O9 2759   5.378   0.464   0.846
   56DPPC   O10 2760   5.321   0.219   0.888
   56DPPC   O11 2761   5.375   0.371   1.077
   56DPPC   C12 2762   5.401   0.259   1.161
   56DPPC   C13 2763   5.382   0.285   1.312
   56DPPC   O14 2764   5.257   0.233   1.370
   56DPPC   C15 2765   5.135   0.285   1.339
   56DPPC   O16 2766   5.099   0.297   1.223
   56DPPC   C17 2767   5.037   0.286   1.456
   56DPPC   C18 2768   5.093   0.376   1.566
   56DPPC   C19 2769   5.010   0.374   1.694
   56DPPC   C20 2770   5.089   0.447   1.803
   56DPPC   C21 2771   5.014   0.456   1.936
   56DPPC   C22 2772   5.111   0.517   2.039
   56DPPC   C23 2773   5.046   0.550   2.173
   56DPPC   C24 2774   5.153   0.612   2.263
   56DPPC   C25 2775   5.211   0.736   2.196
   56DPPC   C26 2776   5.342   0.778   2.260
   56DPPC   C27 2777   5.392   0.906   2.193
   56DPPC   C28 2778   5.510   0.964   2.271
   56DPPC   C29 2779   5.516   1.115   2.249
   56DPPC   C30 2780   5.533   1.183   2.385
   56DPPC   C31 2781   5.524   1.335   2.374
   56DPPC   C32 2782   5.413   0.434   1.342
   56DPPC   O33 2783   5.476   0.455   1.469
   56DPPC   C34 2784   5.611   0.443   1.478
   56DPPC   O35 2785   5.680   0.439   1.375
   56DPPC   C36 2786   5.671   0.426   1.618
   56DPPC   C37 2787   5.568   0.443   1.730
   56DPPC   C38 2788   5.621   0.400   1.866
   56DPPC   C39 2789   5.659   0.252   1.867
   56DPPC   C40 2790   5.692   0.206   2.009
   56DPPC   C41 2791   5.735   0.059   2.011
   56DPPC   C42 2792   5.766   0.019   2.155
   56DPPC   C43 2793   5.829   6.324   2.162
   56DPPC   C44 2794   5.859   6.290   2.308
   56DPPC   C45 2795   5.932   6.156   2.318
   56DPPC   C46 2796   5.972   6.126   2.463
   56DPPC   C47 2797   6.071   6.010   2.464
   56DPPC   C48 2798   6.124   5.981   2.604
   56DPPC   C49 2799   6.227   5.869   2.598
   56DPPC   C50 2800   6.282   5.835   2.736
   57DPPC    C1 2801   0.085   4.970   1.523
   57DPPC    C2 2802   0.228   4.826   1.643
   57DPPC    C3 2803   0.279   5.060   1.624
   57DPPC    N4 2804   0.226   4.943   1.553
   57DPPC    C5 2805   0.298   4.921   1.425
   57DPPC    C6 2806   0.436   4.850   1.425
   57DPPC    O7 2807   0.539   4.918   1.495
   57DPPC    P8 2808   0.674   4.837   1.511
   57DPPC    O9 2809   0.645   4.697   1.548
   57DPPC   O10 2810   0.755   4.872   1.393
   57DPPC   O11 2811   0.727   4.918   1.634
   57DPPC   C12 2812   0.678   4.877   1.761
   57DPPC   C13 2813   0.721   4.968   1.878
   57DPPC   O14 2814   0.621   5.068   1.917
   57DPPC   C15 2815   0.598   5.185   1.853
   57DPPC   O16 2816   0.665   5.225   1.757
   57DPPC   C17 2817   0.480   5.266   1.908
   57DPPC   C18 2818   0.522   5.374   2.008
   57DPPC   C19 2819   0.578   5.317   2.139
   57DPPC   C20 2820   0.605   5.429   2.240
   57DPPC   C21 2821   0.652   5.371   2.373
   57DPPC   C22 2822   0.654   5.479   2.482
   57DPPC   C23 2823   0.668   5.415   2.620
   57DPPC   C24 2824   0.640   5.516   2.730
   57DPPC   C25 2825   0.638   5.447   2.866
   57DPPC   C26 2826   0.598   5.546   2.975
   57DPPC   C27 2827   0.600   5.479   3.113
   57DPPC   C28 2828   0.577   5.582   3.222
   57DPPC   C29 2829   0.600   5.521   3.361
   57DPPC   C30 2830   0.603   5.629   3.469
   57DPPC   C31 2831   0.719   5.727   3.451
   57DPPC   C32 2832   0.863   5.022   1.851
   57DPPC   O33 2833   0.959   4.984   1.950
   57DPPC   C34 2834   1.065   5.065   1.967
   57DPPC   O35 2835   1.069   5.179   1.921
   57DPPC   C36 2836   1.171   5.013   2.064
   57DPPC   C37 2837   1.116   5.013   2.206
   57DPPC   C38 2838   1.173   4.895   2.283
   57DPPC   C39 2839   1.108   4.883   2.420
   57DPPC   C40 2840   1.137   4.744   2.475
   57DPPC   C41 2841   1.076   4.729   2.614
   57DPPC   C42 2842   1.081   4.583   2.655
   57DPPC   C43 2843   1.009   4.567   2.788
   57DPPC   C44 2844   0.977   4.420   2.812
   57DPPC   C45 2845   0.899   4.408   2.942
   57DPPC   C46 2846   0.863   4.263   2.970
   57DPPC   C47 2847   0.825   4.251   3.117
   57DPPC   C48 2848   0.808   4.106   3.160
   57DPPC   C49 2849   0.798   4.102   3.312
   57DPPC   C50 2850   0.766   3.961   3.362
   58DPPC    C1 2851   1.243   0.311   1.270
   58DPPC    C2 2852   1.313   0.499   1.391
   58DPPC    C3 2853   1.160   0.530   1.210
   58DPPC    N4 2854   1.197   0.441   1.321
   58DPPC    C5 2855   1.085   0.429   1.417
   58DPPC    C6 2856   0.967   0.333   1.380
   58DPPC    O7 2857   0.884   0.376   1.272
   58DPPC    P8 2858   0.773   0.268   1.236
   58DPPC    O9 2859   0.683   0.325   1.134
   58DPPC   O10 2860   0.836   0.139   1.204
   58DPPC   O11 2861   0.697   0.249   1.372
   58DPPC   C12 2862   0.602   0.144   1.367
   58DPPC   C13 2863   0.559   0.088   1.504
   58DPPC   O14 2864   0.437   0.007   1.493
   58DPPC   C15 2865   0.315   0.056   1.457
   58DPPC   O16 2866   0.299   0.167   1.403
   58DPPC   C17 2867   0.193   6.412   1.484
   58DPPC   C18 2868   0.212   6.321   1.606
   58DPPC   C19 2869   0.229   6.392   1.739
   58DPPC   C20 2870   0.246   6.284   1.845
   58DPPC   C21 2871   0.287   6.345   1.978
   58DPPC   C22 2872   0.298   6.239   2.087
   58DPPC   C23 2873   0.342   6.305   2.217
   58DPPC   C24 2874   0.321   6.210   2.333
   58DPPC   C25 2875   0.351   6.280   2.465
   58DPPC   C26 2876   0.286   6.202   2.578
   58DPPC   C27 2877   0.320   6.266   2.712
   58DPPC   C28 2878   0.238   6.203   2.825
   58DPPC   C29 2879   0.289   6.255   2.959
   58DPPC   C30 2880   0.195   6.214   3.073
   58DPPC   C31 2881   0.176   6.063   3.083
   58DPPC   C32 2882   0.545   0.205   1.603
   58DPPC   O33 2883   0.524   0.164   1.739
   58DPPC   C34 2884   0.449   0.246   1.816
   58DPPC   O35 2885   0.362   0.318   1.767
   58DPPC   C36 2886   0.463   0.221   1.966
   58DPPC   C37 2887   0.341   0.265   2.047
   58DPPC   C38 2888   0.367   0.241   2.195
   58DPPC   C39 2889   0.263   0.314   2.279
   58DPPC   C40 2890   0.298   0.306   2.428
   58DPPC   C41 2891   0.226   0.416   2.505
   58DPPC   C42 2892   0.252   0.406   2.655
   58DPPC   C43 2893   0.191   0.277   2.711
   58DPPC   C44 2894   0.206   0.264   2.863
   58DPPC   C45 2895   0.352   0.245   2.905
   58DPPC   C46 2896   0.362   0.207   3.053
   58DPPC   C47 2897   0.334   0.324   3.148
   58DPPC   C48 2898   0.317   0.274   3.293
   58DPPC   C49 2899   0.438   0.195   3.343
   58DPPC   C50 2900   0.411   0.138   3.483
   59DPPC    C1 2901   0.467   0.649   1.200
   59DPPC    C2 2902   0.369   0.461   1.309
   59DPPC    C3 2903   0.236   0.650   1.250
   59DPPC    N4 2904   0.368   0.607   1.300
   59DPPC    C5 2905   0.388   0.669   1.434
   59DPPC    C6 2906   0.532   0.675   1.492
   59DPPC    O7 2907   0.588   0.548   1.526
   59DPPC    P8 2908   0.736   0.562   1.579
   59DPPC    O9 2909   0.791   0.432   1.620
   59DPPC   O10 2910   0.804   0.649   1.481
   59DPPC   O11 2911   0.704   0.643   1.711
   59DPPC   C12 2912   0.657   0.558   1.816
   59DPPC   C13 2913   0.614   0.628   1.947
   59DPPC   O14 2914   0.470   0.651   1.959
   59DPPC   C15 2915   0.398   0.736   1.881
   59DPPC   O16 2916   0.449   0.830   1.818
   59DPPC   C17 2917   0.247   0.718   1.893
   59DPPC   C18 2918   0.198   0.602   1.806
   59DPPC   C19 2919   0.057   0.557   1.845
   59DPPC   C20 2920   0.054   0.508   1.990
   59DPPC   C21 2921   6.330   0.470   2.032
   59DPPC   C22 2922   6.321   0.444   2.182
   59DPPC   C23 2923   6.176   0.411   2.218
   59DPPC   C24 2924   6.157   0.383   2.367
   59DPPC   C25 2925   6.011   0.341   2.388
   59DPPC   C26 2926   5.986   0.292   2.531
   59DPPC   C27 2927   5.844   0.235   2.538
   59DPPC   C28 2928   5.813   0.177   2.676
   59DPPC   C29 2929   5.667   0.131   2.683
   59DPPC   C30 2930   5.630   0.084   2.824
   59DPPC   C31 2931   5.479   0.060   2.834
   59DPPC   C32 2932   0.712   0.744   1.970
   59DPPC   O33 2933   0.748   0.770   2.107
   59DPPC   C34 2934   0.855   0.851   2.125
   59DPPC   O35 2935   0.920   0.892   2.029
   59DPPC   C36 2936   0.891   0.888   2.270
   59DPPC   C37 2937   1.043   0.894   2.288
   59DPPC   C38 2938   1.082   0.952   2.424
   59DPPC   C39 2939   1.051   1.101   2.434
   59DPPC   C40 2940   1.096   1.156   2.569
   59DPPC   C41 2941   1.079   1.307   2.577
   59DPPC   C42 2942   1.105   1.359   2.718
   59DPPC   C43 2943   1.001   1.302   2.815
   59DPPC   C44 2944   1.018   1.357   2.956
   59DPPC   C45 2945   1.151   1.317   3.019
   59DPPC   C46 2946   1.158   1.372   3.162
   59DPPC   C47 2947   1.282   1.320   3.235
   59DPPC   C48 2948   1.281   1.372   3.379
   59DPPC   C49 2949   1.394   1.311   3.461
   59DPPC   C50 2950   1.385   1.360   3.605
   60DPPC    C1 2951   0.030   4.276   1.461
   60DPPC    C2 2952   0.057   4.199   1.688
   60DPPC    C3 2953   6.386   4.059   1.520
   60DPPC    N4 2954   6.389   4.197   1.569
   60DPPC    C5 2955   6.251   4.240   1.602
   60DPPC    C6 2956   6.220   4.392   1.614
   60DPPC    O7 2957   6.297   4.461   1.715
   60DPPC    P8 2958   6.262   4.614   1.727
   60DPPC    O9 2959   6.313   4.678   1.605
   60DPPC   O10 2960   6.119   4.628   1.763
   60DPPC   O11 2961   6.350   4.664   1.850
   60DPPC   C12 2962   6.371   4.573   1.958
   60DPPC   C13 2963   6.416   4.636   2.092
   60DPPC   O14 2964   6.317   4.627   2.199
   60DPPC   C15 2965   6.198   4.692   2.200
   60DPPC   O16 2966   6.176   4.793   2.133
   60DPPC   C17 2967   6.096   4.639   2.301
   60DPPC   C18 2968   6.160   4.590   2.431
   60DPPC   C19 2969   6.054   4.551   2.533
   60DPPC   C20 2970   6.118   4.514   2.667
   60DPPC   C21 2971   6.009   4.476   2.767
   60DPPC   C22 2972   6.067   4.442   2.905
   60DPPC   C23 2973   5.953   4.388   2.991
   60DPPC   C24 2974   5.995   4.355   3.134
   60DPPC   C25 2975   5.877   4.283   3.200
   60DPPC   C26 2976   5.900   4.252   3.348
   60DPPC   C27 2977   5.788   4.162   3.401
   60DPPC   C28 2978   5.789   4.026   3.333
   60DPPC   C29 2979   5.678   3.932   3.382
   60DPPC   C30 2980   5.699   3.885   3.526
   60DPPC   C31 2981   5.584   3.796   3.572
   60DPPC   C32 2982   0.065   4.773   2.066
   60DPPC   O33 2983   0.207   4.770   2.090
   60DPPC   C34 2984   0.280   4.881   2.061
   60DPPC   O35 2985   0.238   4.970   1.989
   60DPPC   C36 2986   0.423   4.878   2.114
   60DPPC   C37 2987   0.422   4.911   2.263
   60DPPC   C38 2988   0.562   4.925   2.321
   60DPPC   C39 2989   0.549   4.958   2.469
   60DPPC   C40 2990   0.686   4.968   2.536
   60DPPC   C41 2991   0.664   5.001   2.683
   60DPPC   C42 2992   0.773   4.939   2.769
   60DPPC   C43 2993   0.729   4.947   2.915
   60DPPC   C44 2994   0.810   4.851   3.000
   60DPPC   C45 2995   0.759   4.855   3.144
   60DPPC   C46 2996   0.845   4.765   3.232
   60DPPC   C47 2997   0.798   4.776   3.377
   60DPPC   C48 2998   0.889   4.699   3.472
   60DPPC   C49 2999   0.825   4.696   3.610
   60DPPC   C50 3000   0.917   4.631   3.714
   61DPPC    C1 3001   1.071   5.343   1.623
   61DPPC    C2 3002   0.860   5.434   1.575
   61DPPC    C3 3003   0.974   5.511   1.765
   61DPPC    N4 3004   0.993   5.468   1.626
   61DPPC    C5 3005   1.050   5.577   1.542
   61DPPC    C6 3006   1.200   5.611   1.560
   61DPPC    O7 3007   1.283   5.541   1.468
   61DPPC    P8 3008   1.439   5.537   1.496
   61DPPC    O9 3009   1.481   5.428   1.407
   61DPPC   O10 3010   1.500   5.671   1.488
   61DPPC   O11 3011   1.432   5.485   1.645
   61DPPC   C12 3012   1.515   5.371   1.672
   61DPPC   C13 3013   1.480   5.294   1.802
   61DPPC   O14 3014   1.440   5.155   1.778
   61DPPC   C15 3015   1.519   5.060   1.722
   61DPPC   O16 3016   1.614   5.086   1.647
   61DPPC   C17 3017   1.452   4.922   1.721
   61DPPC   C18 3018   1.532   4.817   1.798
   61DPPC   C19 3019   1.547   4.848   1.947
   61DPPC   C20 3020   1.482   4.738   2.029
   61DPPC   C21 3021   1.525   4.743   2.176
   61DPPC   C22 3022   1.466   4.622   2.249
   61DPPC   C23 3023   1.518   4.610   2.392
   61DPPC   C24 3024   1.452   4.490   2.460
   61DPPC   C25 3025   1.506   4.465   2.601
   61DPPC   C26 3026   1.483   4.587   2.691
   61DPPC   C27 3027   1.523   4.559   2.836
   61DPPC   C28 3028   1.410   4.601   2.930
   61DPPC   C29 3029   1.374   4.749   2.913
   61DPPC   C30 3030   1.249   4.784   2.993
   61DPPC   C31 3031   1.199   4.925   2.962
   61DPPC   C32 3032   1.366   5.373   1.869
   61DPPC   O33 3033   1.372   5.391   2.011
   61DPPC   C34 3034   1.281   5.475   2.065
   61DPPC   O35 3035   1.200   5.537   1.996
   61DPPC   C36 3036   1.284   5.485   2.217
   61DPPC   C37 3037   1.163   5.410   2.272
   61DPPC   C38 3038   1.179   5.379   2.421
   61DPPC   C39 3039   1.049   5.320   2.474
   61DPPC   C40 3040   1.065   5.267   2.616
   61DPPC   C41 3041   1.079   5.375   2.724
   61DPPC   C42 3042   1.114   5.305   2.855
   61DPPC   C43 3043   1.101   5.393   2.979
   61DPPC   C44 3044   1.146   5.311   3.100
   61DPPC   C45 3045   1.127   5.384   3.233
   61DPPC   C46 3046   1.205   5.515   3.236
   61DPPC   C47 3047   1.188   5.586   3.370
   61DPPC   C48 3048   1.261   5.721   3.364
   61DPPC   C49 3049   1.265   5.789   3.501
   61DPPC   C50 3050   1.348   5.917   3.493
   62DPPC    C1 3051   0.950   5.387   0.977
   62DPPC    C2 3052   0.879   5.578   1.105
   62DPPC    C3 3053   0.775   5.521   0.900
   62DPPC    N4 3054   0.904   5.525   0.970
   62DPPC    C5 3055   0.998   5.608   0.890
   62DPPC    C6 3056   1.145   5.629   0.937
   62DPPC    O7 3057   1.153   5.709   1.055
   62DPPC    P8 3058   1.291   5.780   1.079
   62DPPC    O9 3059   1.392   5.673   1.086
   62DPPC   O10 3060   1.297   5.892   0.982
   62DPPC   O11 3061   1.264   5.829   1.226
   62DPPC   C12 3062   1.164   5.928   1.239
   62DPPC   C13 3063   1.120   5.956   1.384
   62DPPC   O14 3064   1.053   6.086   1.387
   62DPPC   C15 3065   0.923   6.097   1.425
   62DPPC   O16 3066   0.855   6.002   1.465
   62DPPC   C17 3067   0.869   6.240   1.412
   62DPPC   C18 3068   0.929   6.330   1.520
   62DPPC   C19 3069   0.881   6.287   1.659
   62DPPC   C20 3070   0.955   6.360   1.770
   62DPPC   C21 3071   0.902   6.321   1.908
   62DPPC   C22 3072   0.758   6.369   1.931
   62DPPC   C23 3073   0.706   6.326   2.068
   62DPPC   C24 3074   0.794   6.380   2.180
   62DPPC   C25 3075   0.745   6.338   2.319
   62DPPC   C26 3076   0.850   6.376   2.423
   62DPPC   C27 3077   0.811   6.340   2.567
   62DPPC   C28 3078   0.695   6.428   2.614
   62DPPC   C29 3079   0.656   6.404   2.761
   62DPPC   C30 3080   0.769   6.431   2.859
   62DPPC   C31 3081   0.716   6.436   3.003
   62DPPC   C32 3082   1.243   5.956   1.477
   62DPPC   O33 3083   1.206   5.921   1.612
   62DPPC   C34 3084   1.288   5.947   1.718
   62DPPC   O35 3085   1.385   6.020   1.706
   62DPPC   C36 3086   1.238   5.893   1.853
   62DPPC   C37 3087   1.085   5.892   1.860
   62DPPC   C38 3088   1.035   5.857   2.001
   62DPPC   C39 3089   0.883   5.870   2.010
   62DPPC   C40 3090   0.834   5.846   2.153
   62DPPC   C41 3091   0.684   5.872   2.163
   62DPPC   C42 3092   0.630   5.848   2.305
   62DPPC   C43 3093   0.679   5.948   2.409
   62DPPC   C44 3094   0.619   5.910   2.545
   62DPPC   C45 3095   0.662   6.002   2.660
   62DPPC   C46 3096   0.601   5.948   2.789
   62DPPC   C47 3097   0.631   6.033   2.913
   62DPPC   C48 3098   0.562   5.968   3.034
   62DPPC   C49 3099   0.567   6.054   3.161
   62DPPC   C50 3100   0.706   6.065   3.222
   63DPPC    C1 3101   1.200   1.220   1.800
   63DPPC    C2 3102   1.431   1.202   1.850
   63DPPC    C3 3103   1.290   1.020   1.902
   63DPPC    N4 3104   1.314   1.127   1.804
   63DPPC    C5 3105   1.345   1.076   1.668
   63DPPC    C6 3106   1.233   1.004   1.588
   63DPPC    O7 3107   1.200   0.876   1.641
   63DPPC    P8 3108   1.076   0.808   1.572
   63DPPC    O9 3109   0.960   0.890   1.613
   63DPPC   O10 3110   1.123   0.796   1.432
   63DPPC   O11 3111   1.092   0.672   1.651
   63DPPC   C12 3112   1.049   0.670   1.787
   63DPPC   C13 3113   1.073   0.532   1.851
   63DPPC   O14 3114   0.975   0.494   1.954
   63DPPC   C15 3115   0.958   0.363   1.986
   63DPPC   O16 3116   1.037   0.276   1.946
   63DPPC   C17 3117   0.835   0.330   2.070
   63DPPC   C18 3118   0.869   0.332   2.219
   63DPPC   C19 3119   0.744   0.325   2.307
   63DPPC   C20 3120   0.785   0.345   2.453
   63DPPC   C21 3121   0.663   0.362   2.544
   63DPPC   C22 3122   0.699   0.425   2.679
   63DPPC   C23 3123   0.785   0.334   2.767
   63DPPC   C24 3124   0.827   0.398   2.900
   63DPPC   C25 3125   0.706   0.443   2.982
   63DPPC   C26 3126   0.744   0.496   3.121
   63DPPC   C27 3127   0.775   0.385   3.221
   63DPPC   C28 3128   0.780   0.445   3.362
   63DPPC   C29 3129   0.812   0.343   3.472
   63DPPC   C30 3130   0.961   0.310   3.474
   63DPPC   C31 3131   0.994   0.216   3.590
   63DPPC   C32 3132   1.224   0.517   1.881
   63DPPC   O33 3133   1.291   0.620   1.957
   63DPPC   C34 3134   1.422   0.601   1.985
   63DPPC   O35 3135   1.478   0.493   1.961
   63DPPC   C36 3136   1.492   0.710   2.067
   63DPPC   C37 3137   1.497   0.669   2.214
   63DPPC   C38 3138   1.357   0.673   2.277
   63DPPC   C39 3139   1.343   0.576   2.395
   63DPPC   C40 3140   1.450   0.600   2.502
   63DPPC   C41 3141   1.421   0.514   2.625
   63DPPC   C42 3142   1.541   0.515   2.720
   63DPPC   C43 3143   1.659   0.441   2.657
   63DPPC   C44 3144   1.776   0.439   2.756
   63DPPC   C45 3145   1.889   0.347   2.708
   63DPPC   C46 3146   1.983   0.323   2.826
   63DPPC   C47 3147   2.095   0.223   2.794
   63DPPC   C48 3148   2.195   0.280   2.694
   63DPPC   C49 3149   2.316   0.187   2.683
   63DPPC   C50 3150   2.420   0.243   2.586
   64DPPC    C1 3151   4.794   5.022   1.639
   64DPPC    C2 3152   4.640   5.186   1.558
   64DPPC    C3 3153   4.852   5.152   1.451
   64DPPC    N4 3154   4.739   5.085   1.518
   64DPPC    C5 3155   4.682   4.984   1.425
   64DPPC    C6 3156   4.550   4.911   1.464
   64DPPC    O7 3157   4.562   4.820   1.573
   64DPPC    P8 3158   4.426   4.748   1.608
   64DPPC    O9 3159   4.319   4.844   1.640
   64DPPC   O10 3160   4.404   4.639   1.511
   64DPPC   O11 3161   4.468   4.674   1.739
   64DPPC   C12 3162   4.362   4.594   1.791
   64DPPC   C13 3163   4.385   4.539   1.933
   64DPPC   O14 3164   4.337   4.627   2.040
   64DPPC   C15 3165   4.393   4.746   2.071
   64DPPC   O16 3166   4.510   4.776   2.040
   64DPPC   C17 3167   4.310   4.834   2.162
   64DPPC   C18 3168   4.282   4.763   2.294
   64DPPC   C19 3169   4.213   4.858   2.390
   64DPPC   C20 3170   4.207   4.796   2.530
   64DPPC   C21 3171   4.157   4.900   2.629
   64DPPC   C22 3172   4.148   4.840   2.769
   64DPPC   C23 3173   4.088   4.944   2.864
   64DPPC   C24 3174   4.042   4.876   2.993
   64DPPC   C25 3175   3.966   4.977   3.078
   64DPPC   C26 3176   3.910   4.912   3.204
   64DPPC   C27 3177   3.833   5.018   3.284
   64DPPC   C28 3178   3.779   4.961   3.415
   64DPPC   C29 3179   3.706   5.069   3.495
   64DPPC   C30 3180   3.799   5.184   3.532
   64DPPC   C31 3181   3.724   5.290   3.613
   64DPPC   C32 3182   4.529   4.485   1.943
   64DPPC   O33 3183   4.532   4.369   2.026
   64DPPC   C34 3184   4.641   4.291   2.022
   64DPPC   O35 3185   4.752   4.329   1.984
   64DPPC   C36 3186   4.621   4.156   2.090
   64DPPC   C37 3187   4.722   4.143   2.203
   64DPPC   C38 3188   4.710   4.009   2.275
   64DPPC   C39 3189   4.837   3.985   2.355
   64DPPC   C40 3190   4.953   3.984   2.255
   64DPPC   C41 3191   5.089   3.959   2.319
   64DPPC   C42 3192   5.194   3.962   2.207
   64DPPC   C43 3193   5.332   3.924   2.260
   64DPPC   C44 3194   5.381   4.023   2.365
   64DPPC   C45 3195   5.518   3.982   2.420
   64DPPC   C46 3196   5.573   4.093   2.510
   64DPPC   C47 3197   5.590   4.221   2.430
   64DPPC   C48 3198   5.625   4.341   2.518
   64DPPC   C49 3199   5.620   4.469   2.435
   64DPPC   C50 3200   5.646   4.593   2.519
   65DPPC    C1 3201   5.390   0.788   5.413
   65DPPC    C2 3202   5.291   0.612   5.288
   65DPPC    C3 3203   5.310   0.826   5.188
   65DPPC    N4 3204   5.285   0.756   5.315
   65DPPC    C5 3205   5.149   0.789   5.365
   65DPPC    C6 3206   5.131   0.932   5.422
   65DPPC    O7 3207   4.996   0.977   5.416
   65DPPC    P8 3208   4.985   1.121   5.353
   65DPPC    O9 3209   4.844   1.131   5.313
   65DPPC   O10 3210   5.055   1.218   5.440
   65DPPC   O11 3211   5.075   1.098   5.224
   65DPPC   C12 3212   5.013   1.122   5.097
   65DPPC   C13 3213   5.090   1.058   4.979
   65DPPC   O14 3214   5.206   1.134   4.934
   65DPPC   C15 3215   5.299   1.073   4.857
   65DPPC   O16 3216   5.321   0.952   4.869
   65DPPC   C17 3217   5.393   1.166   4.780
   65DPPC   C18 3218   5.321   1.244   4.671
   65DPPC   C19 3219   5.257   1.150   4.568
   65DPPC   C20 3220   5.193   1.227   4.453
   65DPPC   C21 3221   5.131   1.126   4.356
   65DPPC   C22 3222   5.086   1.194   4.228
   65DPPC   C23 3223   5.031   1.092   4.129
   65DPPC   C24 3224   4.990   1.160   3.999
   65DPPC   C25 3225   4.957   1.056   3.893
   65DPPC   C26 3226   4.908   1.122   3.765
   65DPPC   C27 3227   4.893   1.015   3.657
   65DPPC   C28 3228   4.818   1.065   3.534
   65DPPC   C29 3229   4.805   0.952   3.432
   65DPPC   C30 3230   4.731   0.832   3.491
   65DPPC   C31 3231   4.728   0.715   3.392
   65DPPC   C32 3232   4.989   1.033   4.865
   65DPPC   O33 3233   4.915   1.149   4.823
   65DPPC   C34 3234   4.819   1.128   4.728
   65DPPC   O35 3235   4.807   1.022   4.669
   65DPPC   C36 3236   4.719   1.243   4.711
   65DPPC   C37 3237   4.692   1.276   4.564
   65DPPC   C38 3238   4.798   1.368   4.505
   65DPPC   C39 3239   4.769   1.388   4.356
   65DPPC   C40 3240   4.857   1.496   4.294
   65DPPC   C41 3241   4.828   1.513   4.145
   65DPPC   C42 3242   4.680   1.542   4.118
   65DPPC   C43 3243   4.662   1.611   3.983
   65DPPC   C44 3244   4.713   1.525   3.867
   65DPPC   C45 3245   4.727   1.610   3.741
   65DPPC   C46 3246   4.773   1.525   3.623
   65DPPC   C47 3247   4.794   1.613   3.500
   65DPPC   C48 3248   4.826   1.528   3.377
   65DPPC   C49 3249   4.846   1.619   3.256
   65DPPC   C50 3250   4.861   1.537   3.128
   66DPPC    C1 3251   2.067   1.789   5.533
   66DPPC    C2 3252   1.904   1.723   5.689
   66DPPC    C3 3253   2.005   1.937   5.714
   66DPPC    N4 3254   1.956   1.839   5.615
   66DPPC    C5 3255   1.849   1.897   5.530
   66DPPC    C6 3256   1.885   2.023   5.446
   66DPPC    O7 3257   1.824   2.144   5.492
   66DPPC    P8 3258   1.867   2.267   5.402
   66DPPC    O9 3259   1.789   2.385   5.441
   66DPPC   O10 3260   2.014   2.264   5.397
   66DPPC   O11 3261   1.804   2.216   5.268
   66DPPC   C12 3262   1.815   2.305   5.157
   66DPPC   C13 3263   1.751   2.249   5.028
   66DPPC   O14 3264   1.846   2.218   4.921
   66DPPC   C15 3265   1.926   2.307   4.857
   66DPPC   O16 3266   1.936   2.426   4.888
   66DPPC   C17 3267   1.994   2.248   4.734
   66DPPC   C18 3268   1.882   2.212   4.637
   66DPPC   C19 3269   1.927   2.144   4.508
   66DPPC   C20 3270   1.801   2.095   4.438
   66DPPC   C21 3271   1.827   2.022   4.307
   66DPPC   C22 3272   1.876   2.118   4.198
   66DPPC   C23 3273   1.868   2.050   4.062
   66DPPC   C24 3274   1.902   2.148   3.950
   66DPPC   C25 3275   1.886   2.075   3.817
   66DPPC   C26 3276   1.922   2.161   3.696
   66DPPC   C27 3277   1.917   2.073   3.571
   66DPPC   C28 3278   2.017   1.959   3.591
   66DPPC   C29 3279   1.988   1.836   3.505
   66DPPC   C30 3280   2.080   1.720   3.545
   66DPPC   C31 3281   2.060   1.682   3.692
   66DPPC   C32 3282   1.628   2.334   4.990
   66DPPC   O33 3283   1.655   2.475   4.988
   66DPPC   C34 3284   1.555   2.563   4.964
   66DPPC   O35 3285   1.436   2.530   4.968
   66DPPC   C36 3286   1.599   2.710   4.971
   66DPPC   C37 3287   1.665   2.754   4.840
   66DPPC   C38 3288   1.562   2.765   4.728
   66DPPC   C39 3289   1.630   2.766   4.591
   66DPPC   C40 3290   1.706   2.635   4.569
   66DPPC   C41 3291   1.766   2.632   4.429
   66DPPC   C42 3292   1.854   2.509   4.409
   66DPPC   C43 3293   1.919   2.511   4.271
   66DPPC   C44 3294   2.008   2.635   4.259
   66DPPC   C45 3295   2.073   2.644   4.121
   66DPPC   C46 3296   2.165   2.766   4.117
   66DPPC   C47 3297   2.232   2.780   3.981
   66DPPC   C48 3298   2.326   2.901   3.981
   66DPPC   C49 3299   2.383   2.925   3.841
   66DPPC   C50 3300   2.272   2.960   3.742
   67DPPC    C1 3301   4.962   3.304   5.191
   67DPPC    C2 3302   5.005   3.102   5.297
   67DPPC    C3 3303   4.784   3.160   5.224
   67DPPC    N4 3304   4.926   3.162   5.189
   67DPPC    C5 3305   4.952   3.100   5.057
   67DPPC    C6 3306   4.939   2.945   5.040
   67DPPC    O7 3307   4.806   2.892   5.029
   67DPPC    P8 3308   4.798   2.734   5.015
   67DPPC    O9 3309   4.929   2.672   5.046
   67DPPC   O10 3310   4.674   2.689   5.080
   67DPPC   O11 3311   4.770   2.715   4.860
   67DPPC   C12 3312   4.885   2.682   4.781
   67DPPC   C13 3313   4.857   2.664   4.630
   67DPPC   O14 3314   4.957   2.578   4.567
   67DPPC   C15 3315   4.928   2.448   4.543
   67DPPC   O16 3316   4.812   2.407   4.538
   67DPPC   C17 3317   5.046   2.361   4.503
   67DPPC   C18 3318   5.068   2.375   4.353
   67DPPC   C19 3319   5.186   2.289   4.308
   67DPPC   C20 3320   5.215   2.311   4.160
   67DPPC   C21 3321   5.266   2.452   4.131
   67DPPC   C22 3322   5.325   2.457   3.990
   67DPPC   C23 3323   5.404   2.585   3.964
   67DPPC   C24 3324   5.316   2.705   3.930
   67DPPC   C25 3325   5.242   2.686   3.798
   67DPPC   C26 3326   5.172   2.815   3.756
   67DPPC   C27 3327   5.100   2.794   3.623
   67DPPC   C28 3328   5.061   2.927   3.556
   67DPPC   C29 3329   5.186   3.007   3.520
   67DPPC   C30 3330   5.151   3.136   3.445
   67DPPC   C31 3331   5.277   3.217   3.415
   67DPPC   C32 3332   4.831   2.801   4.563
   67DPPC   O33 3333   4.913   2.911   4.607
   67DPPC   C34 3334   4.905   3.025   4.533
   67DPPC   O35 3335   4.859   3.025   4.420
   67DPPC   C36 3336   4.970   3.149   4.596
   67DPPC   C37 3337   4.901   3.280   4.555
   67DPPC   C38 3338   4.758   3.292   4.607
   67DPPC   C39 3339   4.689   3.422   4.562
   67DPPC   C40 3340   4.644   3.419   4.416
   67DPPC   C41 3341   4.567   3.547   4.381
   67DPPC   C42 3342   4.509   3.544   4.239
   67DPPC   C43 3343   4.400   3.438   4.226
   67DPPC   C44 3344   4.357   3.419   4.080
   67DPPC   C45 3345   4.265   3.297   4.069
   67DPPC   C46 3346   4.240   3.254   3.925
   67DPPC   C47 3347   4.157   3.356   3.848
   67DPPC   C48 3348   4.133   3.310   3.704
   67DPPC   C49 3349   4.045   3.410   3.631
   67DPPC   C50 3350   4.024   3.369   3.485
   68DPPC    C1 3351   1.507   4.745   5.318
   68DPPC    C2 3352   1.718   4.778   5.425
   68DPPC    C3 3353   1.559   4.626   5.515
   68DPPC    N4 3354   1.616   4.678   5.390
   68DPPC    C5 3355   1.676   4.578   5.299
   68DPPC    C6 3356   1.775   4.472   5.355
   68DPPC    O7 3357   1.703   4.356   5.397
   68DPPC    P8 3358   1.788   4.223   5.407
   68DPPC    O9 3359   1.914   4.257   5.475
   68DPPC   O10 3360   1.692   4.128   5.464
   68DPPC   O11 3361   1.811   4.200   5.252
   68DPPC   C12 3362   1.738   4.093   5.192
   68DPPC   C13 3363   1.725   4.101   5.038
   68DPPC   O14 3364   1.697   3.971   4.978
   68DPPC   C15 3365   1.573   3.914   4.986
   68DPPC   O16 3366   1.478   3.973   5.039
   68DPPC   C17 3367   1.564   3.771   4.932
   68DPPC   C18 3368   1.567   3.769   4.779
   68DPPC   C19 3369   1.438   3.825   4.720
   68DPPC   C20 3370   1.453   3.865   4.573
   68DPPC   C21 3371   1.487   3.750   4.477
   68DPPC   C22 3372   1.514   3.811   4.340
   68DPPC   C23 3373   1.573   3.710   4.242
   68DPPC   C24 3374   1.629   3.783   4.119
   68DPPC   C25 3375   1.733   3.692   4.054
   68DPPC   C26 3376   1.809   3.760   3.940
   68DPPC   C27 3377   1.917   3.662   3.895
   68DPPC   C28 3378   1.986   3.703   3.765
   68DPPC   C29 3379   2.065   3.584   3.710
   68DPPC   C30 3380   1.972   3.465   3.682
   68DPPC   C31 3381   2.049   3.343   3.631
   68DPPC   C32 3382   1.854   4.166   4.985
   68DPPC   O33 3383   1.828   4.279   4.900
   68DPPC   C34 3384   1.926   4.370   4.881
   68DPPC   O35 3385   2.024   4.376   4.954
   68DPPC   C36 3386   1.888   4.485   4.786
   68DPPC   C37 3387   1.905   4.442   4.640
   68DPPC   C38 3388   1.881   4.563   4.549
   68DPPC   C39 3389   1.885   4.526   4.401
   68DPPC   C40 3390   1.775   4.426   4.365
   68DPPC   C41 3391   1.763   4.415   4.213
   68DPPC   C42 3392   1.702   4.542   4.154
   68DPPC   C43 3393   1.713   4.544   4.002
   68DPPC   C44 3394   1.630   4.659   3.944
   68DPPC   C45 3395   1.481   4.629   3.960
   68DPPC   C46 3396   1.391   4.740   3.906
   68DPPC   C47 3397   1.395   4.865   3.994
   68DPPC   C48 3398   1.304   4.975   3.938
   68DPPC   C49 3399   1.155   4.939   3.942
   68DPPC   C50 3400   1.072   5.047   3.873
   69DPPC    C1 3401   3.596   0.792   4.816
   69DPPC    C2 3402   3.742   0.770   4.999
   69DPPC    C3 3403   3.635   0.981   4.951
   69DPPC    N4 3404   3.700   0.862   4.893
   69DPPC    C5 3405   3.814   0.899   4.805
   69DPPC    C6 3406   3.931   0.978   4.869
   69DPPC    O7 3407   4.041   0.995   4.780
   69DPPC    P8 3408   4.169   1.065   4.841
   69DPPC    O9 3409   4.169   1.202   4.789
   69DPPC   O10 3410   4.168   1.042   4.987
   69DPPC   O11 3411   4.282   0.979   4.771
   69DPPC   C12 3412   4.316   1.012   4.635
   69DPPC   C13 3413   4.249   0.928   4.525
   69DPPC   O14 3414   4.335   0.898   4.411
   69DPPC   C15 3415   4.438   0.811   4.418
   69DPPC   O16 3416   4.468   0.755   4.524
   69DPPC   C17 3417   4.521   0.797   4.291
   69DPPC   C18 3418   4.565   0.935   4.243
   69DPPC   C19 3419   4.602   0.931   4.095
   69DPPC   C20 3420   4.597   1.072   4.039
   69DPPC   C21 3421   4.549   1.065   3.894
   69DPPC   C22 3422   4.519   1.204   3.837
   69DPPC   C23 3423   4.457   1.186   3.699
   69DPPC   C24 3424   4.410   1.319   3.639
   69DPPC   C25 3425   4.342   1.287   3.506
   69DPPC   C26 3426   4.306   1.413   3.427
   69DPPC   C27 3427   4.193   1.495   3.487
   69DPPC   C28 3428   4.167   1.614   3.394
   69DPPC   C29 3429   4.048   1.700   3.435
   69DPPC   C30 3430   4.031   1.812   3.332
   69DPPC   C31 3431   3.912   1.902   3.364
   69DPPC   C32 3432   4.118   0.999   4.486
   69DPPC   O33 3433   4.139   1.132   4.436
   69DPPC   C34 3434   4.033   1.212   4.409
   69DPPC   O35 3435   3.918   1.182   4.440
   69DPPC   C36 3436   4.068   1.351   4.353
   69DPPC   C37 3437   4.188   1.345   4.258
   69DPPC   C38 3438   4.207   1.477   4.183
   69DPPC   C39 3439   4.087   1.510   4.095
   69DPPC   C40 3440   4.114   1.635   4.012
   69DPPC   C41 3441   4.229   1.610   3.914
   69DPPC   C42 3442   4.293   1.741   3.866
   69DPPC   C43 3443   4.200   1.830   3.785
   69DPPC   C44 3444   4.274   1.958   3.745
   69DPPC   C45 3445   4.191   2.043   3.650
   69DPPC   C46 3446   4.266   2.170   3.607
   69DPPC   C47 3447   4.181   2.246   3.505
   69DPPC   C48 3448   4.255   2.366   3.447
   69DPPC   C49 3449   4.167   2.431   3.340
   69DPPC   C50 3450   4.241   2.542   3.264
   70DPPC    C1 3451   4.421   1.401   4.874
   70DPPC    C2 3452   4.454   1.468   5.096
   70DPPC    C3 3453   4.237   1.488   4.988
   70DPPC    N4 3454   4.382   1.502   4.972
   70DPPC    C5 3455   4.421   1.638   4.926
   70DPPC    C6 3456   4.364   1.762   5.000
   70DPPC    O7 3457   4.302   1.853   4.909
   70DPPC    P8 3458   4.245   1.987   4.970
   70DPPC    O9 3459   4.130   1.952   5.055
   70DPPC   O10 3460   4.350   2.076   5.023
   70DPPC   O11 3461   4.181   2.049   4.840
   70DPPC   C12 3462   4.266   2.059   4.726
   70DPPC   C13 3463   4.203   2.135   4.606
   70DPPC   O14 3464   4.223   2.279   4.605
   70DPPC   C15 3465   4.337   2.329   4.550
   70DPPC   O16 3466   4.432   2.256   4.523
   70DPPC   C17 3467   4.338   2.482   4.537
   70DPPC   C18 3468   4.470   2.542   4.489
   70DPPC   C19 3469   4.495   2.516   4.341
   70DPPC   C20 3470   4.621   2.589   4.294
   70DPPC   C21 3471   4.642   2.564   4.145
   70DPPC   C22 3472   4.755   2.652   4.092
   70DPPC   C23 3473   4.773   2.634   3.941
   70DPPC   C24 3474   4.861   2.513   3.910
   70DPPC   C25 3475   4.878   2.501   3.758
   70DPPC   C26 3476   4.981   2.393   3.728
   70DPPC   C27 3477   4.999   2.372   3.578
   70DPPC   C28 3478   5.106   2.264   3.559
   70DPPC   C29 3479   5.129   2.227   3.413
   70DPPC   C30 3480   5.252   2.137   3.400
   70DPPC   C31 3481   5.378   2.212   3.446
   70DPPC   C32 3482   4.055   2.094   4.593
   70DPPC   O33 3483   4.036   1.974   4.519
   70DPPC   C34 3484   3.909   1.942   4.484
   70DPPC   O35 3485   3.811   1.992   4.538
   70DPPC   C36 3486   3.897   1.838   4.371
   70DPPC   C37 3487   3.945   1.894   4.237
   70DPPC   C38 3488   3.881   2.029   4.201
   70DPPC   C39 3489   3.913   2.072   4.058
   70DPPC   C40 3490   3.852   2.209   4.030
   70DPPC   C41 3491   3.871   2.249   3.884
   70DPPC   C42 3492   3.785   2.372   3.852
   70DPPC   C43 3493   3.791   2.407   3.704
   70DPPC   C44 3494   3.690   2.517   3.669
   70DPPC   C45 3495   3.702   2.554   3.521
   70DPPC   C46 3496   3.604   2.666   3.483
   70DPPC   C47 3497   3.623   2.715   3.340
   70DPPC   C48 3498   3.570   2.616   3.236
   70DPPC   C49 3499   3.590   2.671   3.094
   70DPPC   C50 3500   3.531   2.576   2.990
   71DPPC    C1 3501   4.191   2.366   5.193
   71DPPC    C2 3502   3.997   2.481   5.126
   71DPPC    C3 3503   4.058   2.466   5.358
   71DPPC    N4 3504   4.109   2.484   5.222
   71DPPC    C5 3505   4.191   2.607   5.208
   71DPPC    C6 3506   4.118   2.743   5.224
   71DPPC    O7 3507   4.201   2.855   5.196
   71DPPC    P8 3508   4.127   2.989   5.155
   71DPPC    O9 3509   4.000   2.998   5.229
   71DPPC   O10 3510   4.227   3.097   5.147
   71DPPC   O11 3511   4.086   2.950   5.008
   71DPPC   C12 3512   4.197   2.918   4.925
   71DPPC   C13 3513   4.169   2.913   4.773
   71DPPC   O14 3514   4.230   3.018   4.692
   71DPPC   C15 3515   4.364   3.026   4.677
   71DPPC   O16 3516   4.444   2.970   4.755
   71DPPC   C17 3517   4.413   3.101   4.554
   71DPPC   C18 3518   4.424   3.003   4.438
   71DPPC   C19 3519   4.482   3.071   4.314
   71DPPC   C20 3520   4.491   2.974   4.197
   71DPPC   C21 3521   4.550   3.045   4.075
   71DPPC   C22 3522   4.557   2.949   3.956
   71DPPC   C23 3523   4.603   3.020   3.829
   71DPPC   C24 3524   4.608   2.920   3.714
   71DPPC   C25 3525   4.638   2.989   3.581
   71DPPC   C26 3526   4.643   2.883   3.470
   71DPPC   C27 3527   4.676   2.946   3.335
   71DPPC   C28 3528   4.694   2.838   3.228
   71DPPC   C29 3529   4.814   2.748   3.258
   71DPPC   C30 3530   4.830   2.636   3.154
   71DPPC   C31 3531   4.712   2.539   3.158
   71DPPC   C32 3532   4.018   2.889   4.749
   71DPPC   O33 3533   3.994   2.753   4.713
   71DPPC   C34 3534   3.872   2.713   4.670
   71DPPC   O35 3535   3.768   2.772   4.700
   71DPPC   C36 3536   3.877   2.595   4.574
   71DPPC   C37 3537   3.948   2.646   4.448
   71DPPC   C38 3538   3.966   2.542   4.337
   71DPPC   C39 3539   4.021   2.615   4.214
   71DPPC   C40 3540   3.919   2.714   4.158
   71DPPC   C41 3541   3.798   2.639   4.104
   71DPPC   C42 3542   3.682   2.734   4.073
   71DPPC   C43 3543   3.563   2.654   4.019
   71DPPC   C44 3544   3.446   2.747   3.987
   71DPPC   C45 3545   3.339   2.673   3.907
   71DPPC   C46 3546   3.234   2.772   3.859
   71DPPC   C47 3547   3.140   2.711   3.755
   71DPPC   C48 3548   3.218   2.669   3.630
   71DPPC   C49 3549   3.124   2.619   3.520
   71DPPC   C50 3550   3.203   2.570   3.399
   72DPPC    C1 3551   3.776   4.598   4.891
   72DPPC    C2 3552   3.980   4.706   4.837
   72DPPC    C3 3553   3.936   4.489   4.751
   72DPPC    N4 3554   3.919   4.576   4.868
   72DPPC    C5 3555   3.984   4.518   4.988
   72DPPC    C6 3556   3.924   4.385   5.042
   72DPPC    O7 3557   3.984   4.342   5.164
   72DPPC    P8 3558   3.915   4.217   5.231
   72DPPC    O9 3559   3.876   4.259   5.367
   72DPPC   O10 3560   3.820   4.147   5.143
   72DPPC   O11 3561   4.042   4.125   5.248
   72DPPC   C12 3562   4.090   4.072   5.124
   72DPPC   C13 3563   4.220   3.988   5.131
   72DPPC   O14 3564   4.319   4.043   5.039
   72DPPC   C15 3565   4.451   4.012   5.043
   72DPPC   O16 3566   4.505   3.959   5.140
   72DPPC   C17 3567   4.529   4.076   4.928
   72DPPC   C18 3568   4.535   3.979   4.809
   72DPPC   C19 3569   4.587   4.051   4.685
   72DPPC   C20 3570   4.596   3.953   4.568
   72DPPC   C21 3571   4.634   4.025   4.438
   72DPPC   C22 3572   4.626   3.924   4.323
   72DPPC   C23 3573   4.657   3.984   4.186
   72DPPC   C24 3574   4.635   3.873   4.082
   72DPPC   C25 3575   4.673   3.915   3.941
   72DPPC   C26 3576   4.638   3.803   3.842
   72DPPC   C27 3577   4.688   3.838   3.702
   72DPPC   C28 3578   4.638   3.744   3.592
   72DPPC   C29 3579   4.703   3.605   3.591
   72DPPC   C30 3580   4.646   3.523   3.474
   72DPPC   C31 3581   4.707   3.383   3.468
   72DPPC   C32 3582   4.181   3.841   5.105
   72DPPC   O33 3583   4.113   3.822   4.980
   72DPPC   C34 3584   4.179   3.753   4.883
   72DPPC   O35 3585   4.279   3.686   4.906
   72DPPC   C36 3586   4.112   3.755   4.745
   72DPPC   C37 3587   4.183   3.850   4.650
   72DPPC   C38 3588   4.134   3.825   4.507
   72DPPC   C39 3589   4.211   3.911   4.406
   72DPPC   C40 3590   4.170   3.871   4.264
   72DPPC   C41 3591   4.248   3.955   4.163
   72DPPC   C42 3592   4.211   3.918   4.020
   72DPPC   C43 3593   4.295   3.999   3.921
   72DPPC   C44 3594   4.254   3.965   3.778
   72DPPC   C45 3595   4.172   4.079   3.719
   72DPPC   C46 3596   4.088   4.033   3.600
   72DPPC   C47 3597   3.975   3.939   3.646
   72DPPC   C48 3598   3.879   3.910   3.531
   72DPPC   C49 3599   3.812   4.040   3.483
   72DPPC   C50 3600   3.726   4.017   3.358
   73DPPC    C1 3601   2.760   0.789   5.187
   73DPPC    C2 3602   2.712   0.674   4.982
   73DPPC    C3 3603   2.898   0.607   5.110
   73DPPC    N4 3604   2.819   0.723   5.069
   73DPPC    C5 3605   2.897   0.819   4.988
   73DPPC    C6 3606   3.019   0.885   5.056
   73DPPC    O7 3607   3.078   0.977   4.967
   73DPPC    P8 3608   3.217   1.033   5.014
   73DPPC    O9 3609   3.197   1.078   5.153
   73DPPC   O10 3610   3.314   0.928   4.978
   73DPPC   O11 3611   3.221   1.154   4.914
   73DPPC   C12 3612   3.244   1.113   4.780
   73DPPC   C13 3613   3.243   1.228   4.677
   73DPPC   O14 3614   3.282   1.182   4.544
   73DPPC   C15 3615   3.406   1.136   4.511
   73DPPC   O16 3616   3.501   1.133   4.591
   73DPPC   C17 3617   3.418   1.092   4.365
   73DPPC   C18 3618   3.543   1.147   4.295
   73DPPC   C19 3619   3.550   1.300   4.295
   73DPPC   C20 3620   3.673   1.347   4.217
   73DPPC   C21 3621   3.694   1.498   4.232
   73DPPC   C22 3622   3.583   1.581   4.168
   73DPPC   C23 3623   3.607   1.608   4.019
   73DPPC   C24 3624   3.735   1.690   3.998
   73DPPC   C25 3625   3.759   1.721   3.850
   73DPPC   C26 3626   3.647   1.809   3.796
   73DPPC   C27 3627   3.655   1.823   3.644
   73DPPC   C28 3628   3.537   1.906   3.596
   73DPPC   C29 3629   3.537   1.930   3.445
   73DPPC   C30 3630   3.426   2.028   3.408
   73DPPC   C31 3631   3.431   2.065   3.260
   73DPPC   C32 3632   3.332   1.342   4.733
   73DPPC   O33 3633   3.313   1.468   4.668
   73DPPC   C34 3634   3.414   1.557   4.678
   73DPPC   O35 3635   3.528   1.524   4.708
   73DPPC   C36 3636   3.381   1.697   4.626
   73DPPC   C37 3637   3.476   1.734   4.513
   73DPPC   C38 3638   3.445   1.875   4.465
   73DPPC   C39 3639   3.531   1.912   4.345
   73DPPC   C40 3640   3.496   2.055   4.307
   73DPPC   C41 3641   3.508   2.080   4.157
   73DPPC   C42 3642   3.441   2.214   4.128
   73DPPC   C43 3643   3.452   2.257   3.982
   73DPPC   C44 3644   3.392   2.155   3.887
   73DPPC   C45 3645   3.406   2.201   3.741
   73DPPC   C46 3646   3.288   2.284   3.693
   73DPPC   C47 3647   3.158   2.205   3.710
   73DPPC   C48 3648   3.045   2.256   3.620
   73DPPC   C49 3649   2.916   2.181   3.652
   73DPPC   C50 3650   2.805   2.214   3.553
   74DPPC    C1 3651   3.796   2.062   4.862
   74DPPC    C2 3652   3.639   2.046   5.037
   74DPPC    C3 3653   3.641   1.881   4.866
   74DPPC    N4 3654   3.658   2.024   4.893
   74DPPC    C5 3655   3.568   2.101   4.803
   74DPPC    C6 3656   3.425   2.138   4.850
   74DPPC    O7 3657   3.347   2.026   4.891
   74DPPC    P8 3658   3.208   2.063   4.955
   74DPPC    O9 3659   3.163   1.950   5.039
   74DPPC   O10 3660   3.226   2.198   5.015
   74DPPC   O11 3661   3.117   2.079   4.826
   74DPPC   C12 3662   3.094   1.959   4.752
   74DPPC   C13 3663   2.991   1.966   4.636
   74DPPC   O14 3664   3.053   1.955   4.504
   74DPPC   C15 3665   3.044   1.837   4.438
   74DPPC   O16 3666   3.011   1.735   4.497
   74DPPC   C17 3667   3.093   1.840   4.293
   74DPPC   C18 3668   2.989   1.908   4.205
   74DPPC   C19 3669   3.015   1.880   4.057
   74DPPC   C20 3670   3.010   1.729   4.031
   74DPPC   C21 3671   3.041   1.700   3.884
   74DPPC   C22 3672   3.177   1.761   3.849
   74DPPC   C23 3673   3.205   1.758   3.699
   74DPPC   C24 3674   3.232   1.616   3.651
   74DPPC   C25 3675   3.280   1.622   3.506
   74DPPC   C26 3676   3.329   1.484   3.460
   74DPPC   C27 3677   3.372   1.490   3.314
   74DPPC   C28 3678   3.253   1.521   3.223
   74DPPC   C29 3679   3.296   1.535   3.077
   74DPPC   C30 3680   3.353   1.404   3.021
   74DPPC   C31 3681   3.413   1.426   2.883
   74DPPC   C32 3682   2.906   2.093   4.651
   74DPPC   O33 3683   2.768   2.077   4.614
   74DPPC   C34 3684   2.687   2.186   4.621
   74DPPC   O35 3685   2.731   2.298   4.645
   74DPPC   C36 3686   2.538   2.161   4.596
   74DPPC   C37 3687   2.506   2.170   4.447
   74DPPC   C38 3688   2.357   2.142   4.424
   74DPPC   C39 3689   2.324   2.132   4.275
   74DPPC   C40 3690   2.342   2.264   4.201
   74DPPC   C41 3691   2.300   2.246   4.055
   74DPPC   C42 3692   2.311   2.377   3.977
   74DPPC   C43 3693   2.266   2.356   3.832
   74DPPC   C44 3694   2.281   2.486   3.753
   74DPPC   C45 3695   2.242   2.467   3.606
   74DPPC   C46 3696   2.264   2.598   3.531
   74DPPC   C47 3697   2.237   2.583   3.381
   74DPPC   C48 3698   2.260   2.718   3.312
   74DPPC   C49 3699   2.243   2.710   3.160
   74DPPC   C50 3700   2.353   2.626   3.094
   75DPPC    C1 3701   2.684   3.552   5.130
   75DPPC    C2 3702   2.905   3.528   5.051
   75DPPC    C3 3703   2.726   3.391   4.963
   75DPPC    N4 3704   2.783   3.453   5.084
   75DPPC    C5 3705   2.805   3.347   5.184
   75DPPC    C6 3706   2.915   3.243   5.149
   75DPPC    O7 3707   2.908   3.120   5.221
   75DPPC    P8 3708   3.026   3.024   5.179
   75DPPC    O9 3709   3.147   3.106   5.187
   75DPPC   O10 3710   3.014   2.898   5.255
   75DPPC   O11 3711   2.991   3.001   5.027
   75DPPC   C12 3712   3.075   2.903   4.964
   75DPPC   C13 3713   3.094   2.924   4.813
   75DPPC   O14 3714   3.179   2.827   4.743
   75DPPC   C15 3715   3.307   2.796   4.781
   75DPPC   O16 3716   3.354   2.833   4.887
   75DPPC   C17 3717   3.385   2.708   4.683
   75DPPC   C18 3718   3.299   2.598   4.621
   75DPPC   C19 3719   3.386   2.503   4.538
   75DPPC   C20 3720   3.302   2.396   4.469
   75DPPC   C21 3721   3.213   2.458   4.361
   75DPPC   C22 3722   3.127   2.352   4.291
   75DPPC   C23 3723   3.074   2.408   4.159
   75DPPC   C24 3724   2.996   2.303   4.082
   75DPPC   C25 3725   2.848   2.339   4.067
   75DPPC   C26 3726   2.827   2.462   3.978
   75DPPC   C27 3727   2.677   2.487   3.957
   75DPPC   C28 3728   2.651   2.601   3.859
   75DPPC   C29 3729   2.704   2.569   3.719
   75DPPC   C30 3730   2.681   2.685   3.623
   75DPPC   C31 3731   2.745   2.657   3.487
   75DPPC   C32 3732   3.130   3.072   4.793
   75DPPC   O33 3733   3.026   3.137   4.720
   75DPPC   C34 3734   3.023   3.271   4.706
   75DPPC   O35 3735   3.073   3.349   4.787
   75DPPC   C36 3736   2.920   3.315   4.603
   75DPPC   C37 3737   2.975   3.428   4.516
   75DPPC   C38 3738   2.872   3.464   4.409
   75DPPC   C39 3739   2.899   3.606   4.359
   75DPPC   C40 3740   2.843   3.622   4.218
   75DPPC   C41 3741   2.925   3.532   4.126
   75DPPC   C42 3742   2.871   3.530   3.983
   75DPPC   C43 3743   2.955   3.433   3.899
   75DPPC   C44 3744   3.098   3.486   3.880
   75DPPC   C45 3745   3.190   3.376   3.826
   75DPPC   C46 3746   3.139   3.319   3.693
   75DPPC   C47 3747   3.229   3.204   3.646
   75DPPC   C48 3748   3.179   3.147   3.514
   75DPPC   C49 3749   3.269   3.032   3.467
   75DPPC   C50 3750   3.224   2.979   3.331
   76DPPC    C1 3751   3.162   2.946   5.538
   76DPPC    C2 3752   3.314   3.024   5.699
   76DPPC    C3 3753   3.096   3.121   5.682
   76DPPC    N4 3754   3.209   3.067   5.606
   76DPPC    C5 3755   3.259   3.166   5.506
   76DPPC    C6 3756   3.320   3.298   5.562
   76DPPC    O7 3757   3.361   3.389   5.459
   76DPPC    P8 3758   3.459   3.504   5.508
   76DPPC    O9 3759   3.373   3.603   5.575
   76DPPC   O10 3760   3.570   3.445   5.584
   76DPPC   O11 3761   3.509   3.564   5.371
   76DPPC   C12 3762   3.543   3.469   5.270
   76DPPC   C13 3763   3.610   3.529   5.143
   76DPPC   O14 3764   3.756   3.517   5.134
   76DPPC   C15 3765   3.810   3.395   5.104
   76DPPC   O16 3766   3.751   3.291   5.132
   76DPPC   C17 3767   3.957   3.398   5.061
   76DPPC   C18 3768   3.971   3.418   4.910
   76DPPC   C19 3769   4.108   3.364   4.867
   76DPPC   C20 3770   4.142   3.385   4.719
   76DPPC   C21 3771   4.047   3.314   4.623
   76DPPC   C22 3772   4.105   3.319   4.481
   76DPPC   C23 3773   4.016   3.249   4.378
   76DPPC   C24 3774   3.896   3.335   4.340
   76DPPC   C25 3775   3.803   3.262   4.243
   76DPPC   C26 3776   3.874   3.229   4.112
   76DPPC   C27 3777   3.791   3.138   4.021
   76DPPC   C28 3778   3.662   3.203   3.970
   76DPPC   C29 3779   3.590   3.110   3.872
   76DPPC   C30 3780   3.678   3.080   3.750
   76DPPC   C31 3781   3.611   2.979   3.658
   76DPPC   C32 3782   3.553   3.671   5.126
   76DPPC   O33 3783   3.433   3.676   5.046
   76DPPC   C34 3784   3.365   3.792   5.037
   76DPPC   O35 3785   3.373   3.879   5.123
   76DPPC   C36 3786   3.266   3.800   4.920
   76DPPC   C37 3787   3.324   3.731   4.797
   76DPPC   C38 3788   3.242   3.753   4.670
   76DPPC   C39 3789   3.322   3.699   4.552
   76DPPC   C40 3790   3.250   3.725   4.419
   76DPPC   C41 3791   3.343   3.701   4.300
   76DPPC   C42 3792   3.445   3.814   4.286
   76DPPC   C43 3793   3.527   3.798   4.158
   76DPPC   C44 3794   3.606   3.926   4.129
   76DPPC   C45 3795   3.756   3.911   4.157
   76DPPC   C46 3796   3.826   4.047   4.142
   76DPPC   C47 3797   3.785   4.142   4.255
   76DPPC   C48 3798   3.826   4.286   4.222
   76DPPC   C49 3799   3.977   4.302   4.206
   76DPPC   C50 3800   4.009   4.437   4.141
   77DPPC    C1 3801   2.800   1.557   5.048
   77DPPC    C2 3802   2.916   1.369   4.946
   77DPPC    C3 3803   2.850   1.363   5.172
   77DPPC    N4 3804   2.809   1.411   5.039
   77DPPC    C5 3805   2.678   1.351   5.004
   77DPPC    C6 3806   2.617   1.389   4.866
   77DPPC    O7 3807   2.489   1.330   4.846
   77DPPC    P8 3808   2.364   1.416   4.891
   77DPPC    O9 3809   2.270   1.318   4.949
   77DPPC   O10 3810   2.407   1.529   4.975
   77DPPC   O11 3811   2.307   1.461   4.751
   77DPPC   C12 3812   2.261   1.345   4.681
   77DPPC   C13 3813   2.223   1.361   4.532
   77DPPC   O14 3814   2.102   1.285   4.501
   77DPPC   C15 3815   2.094   1.149   4.516
   77DPPC   O16 3816   2.186   1.080   4.558
   77DPPC   C17 3817   1.957   1.090   4.485
   77DPPC   C18 3818   1.904   1.144   4.353
   77DPPC   C19 3819   1.757   1.105   4.343
   77DPPC   C20 3820   1.687   1.168   4.223
   77DPPC   C21 3821   1.540   1.128   4.232
   77DPPC   C22 3822   1.456   1.186   4.119
   77DPPC   C23 3823   1.438   1.337   4.130
   77DPPC   C24 3824   1.350   1.380   4.012
   77DPPC   C25 3825   1.301   1.524   4.027
   77DPPC   C26 3826   1.186   1.544   3.928
   77DPPC   C27 3827   1.108   1.671   3.960
   77DPPC   C28 3828   0.974   1.674   3.887
   77DPPC   C29 3829   0.987   1.684   3.735
   77DPPC   C30 3830   1.040   1.821   3.693
   77DPPC   C31 3831   1.054   1.831   3.541
   77DPPC   C32 3832   2.341   1.322   4.440
   77DPPC   O33 3833   2.471   1.328   4.499
   77DPPC   C34 3834   2.572   1.266   4.431
   77DPPC   O35 3835   2.551   1.192   4.336
   77DPPC   C36 3836   2.711   1.281   4.495
   77DPPC   C37 3837   2.812   1.340   4.397
   77DPPC   C38 3838   2.946   1.370   4.465
   77DPPC   C39 3839   3.047   1.432   4.367
   77DPPC   C40 3840   3.086   1.334   4.257
   77DPPC   C41 3841   3.176   1.400   4.152
   77DPPC   C42 3842   3.213   1.297   4.044
   77DPPC   C43 3843   3.310   1.351   3.939
   77DPPC   C44 3844   3.345   1.240   3.839
   77DPPC   C45 3845   3.409   1.121   3.911
   77DPPC   C46 3846   3.417   0.999   3.819
   77DPPC   C47 3847   3.467   0.874   3.892
   77DPPC   C48 3848   3.372   0.826   4.002
   77DPPC   C49 3849   3.425   0.698   4.066
   77DPPC   C50 3850   3.331   0.647   4.176
   78DPPC    C1 3851   2.926   2.527   4.804
   78DPPC    C2 3852   2.719   2.480   4.907
   78DPPC    C3 3853   2.906   2.547   5.040
   78DPPC    N4 3854   2.864   2.467   4.924
   78DPPC    C5 3855   2.914   2.327   4.932
   78DPPC    C6 3856   2.863   2.229   5.042
   78DPPC    O7 3857   2.728   2.185   5.022
   78DPPC    P8 3858   2.674   2.076   5.123
   78DPPC    O9 3859   2.774   1.971   5.145
   78DPPC   O10 3860   2.620   2.153   5.237
   78DPPC   O11 3861   2.559   2.021   5.030
   78DPPC   C12 3862   2.607   1.933   4.927
   78DPPC   C13 3863   2.512   1.818   4.888
   78DPPC   O14 3864   2.516   1.784   4.746
   78DPPC   C15 3865   2.619   1.711   4.696
   78DPPC   O16 3866   2.721   1.687   4.760
   78DPPC   C17 3867   2.590   1.649   4.559
   78DPPC   C18 3868   2.635   1.737   4.442
   78DPPC   C19 3869   2.618   1.653   4.316
   78DPPC   C20 3870   2.665   1.726   4.190
   78DPPC   C21 3871   2.553   1.809   4.128
   78DPPC   C22 3872   2.603   1.872   3.998
   78DPPC   C23 3873   2.484   1.918   3.913
   78DPPC   C24 3874   2.532   1.984   3.784
   78DPPC   C25 3875   2.411   2.005   3.693
   78DPPC   C26 3876   2.451   2.065   3.558
   78DPPC   C27 3877   2.330   2.054   3.465
   78DPPC   C28 3878   2.352   2.113   3.326
   78DPPC   C29 3879   2.230   2.084   3.239
   78DPPC   C30 3880   2.242   2.152   3.103
   78DPPC   C31 3881   2.134   2.101   3.006
   78DPPC   C32 3882   2.370   1.852   4.940
   78DPPC   O33 3883   2.254   1.837   4.854
   78DPPC   C34 3884   2.247   1.920   4.748
   78DPPC   O35 3885   2.290   2.036   4.755
   78DPPC   C36 3886   2.149   1.876   4.640
   78DPPC   C37 3887   2.223   1.796   4.534
   78DPPC   C38 3888   2.125   1.736   4.434
   78DPPC   C39 3889   2.197   1.676   4.314
   78DPPC   C40 3890   2.092   1.614   4.222
   78DPPC   C41 3891   2.144   1.579   4.083
   78DPPC   C42 3892   2.232   1.454   4.081
   78DPPC   C43 3893   2.281   1.428   3.938
   78DPPC   C44 3894   2.398   1.329   3.940
   78DPPC   C45 3895   2.511   1.389   4.024
   78DPPC   C46 3896   2.634   1.298   4.034
   78DPPC   C47 3897   2.697   1.273   3.897
   78DPPC   C48 3898   2.837   1.213   3.913
   78DPPC   C49 3899   2.899   1.182   3.777
   78DPPC   C50 3900   2.911   1.307   3.690
   79DPPC    C1 3901   2.255   2.557   5.141
   79DPPC    C2 3902   2.249   2.454   5.357
   79DPPC    C3 3903   2.201   2.328   5.157
   79DPPC    N4 3904   2.285   2.434   5.215
   79DPPC    C5 3905   2.427   2.392   5.200
   79DPPC    C6 3906   2.537   2.473   5.275
   79DPPC    O7 3907   2.552   2.607   5.228
   79DPPC    P8 3908   2.648   2.697   5.314
   79DPPC    O9 3909   2.558   2.741   5.423
   79DPPC   O10 3910   2.769   2.614   5.335
   79DPPC   O11 3911   2.675   2.810   5.208
   79DPPC   C12 3912   2.576   2.912   5.200
   79DPPC   C13 3913   2.586   3.003   5.075
   79DPPC   O14 3914   2.468   3.090   5.060
   79DPPC   C15 3915   2.341   3.045   5.039
   79DPPC   O16 3916   2.301   2.936   5.082
   79DPPC   C17 3917   2.241   3.155   5.002
   79DPPC   C18 3918   2.147   3.116   4.889
   79DPPC   C19 3919   2.222   3.089   4.758
   79DPPC   C20 3920   2.125   3.048   4.648
   79DPPC   C21 3921   2.199   3.003   4.521
   79DPPC   C22 3922   2.287   2.883   4.553
   79DPPC   C23 3923   2.351   2.823   4.427
   79DPPC   C24 3924   2.443   2.709   4.469
   79DPPC   C25 3925   2.498   2.631   4.349
   79DPPC   C26 3926   2.604   2.532   4.399
   79DPPC   C27 3927   2.732   2.607   4.438
   79DPPC   C28 3928   2.805   2.647   4.310
   79DPPC   C29 3929   2.912   2.754   4.329
   79DPPC   C30 3930   2.981   2.774   4.194
   79DPPC   C31 3931   3.069   2.899   4.192
   79DPPC   C32 3932   2.621   2.912   4.955
   79DPPC   O33 3933   2.665   2.982   4.836
   79DPPC   C34 3934   2.724   2.907   4.740
   79DPPC   O35 3935   2.763   2.793   4.764
   79DPPC   C36 3936   2.762   2.978   4.611
   79DPPC   C37 3937   2.645   3.042   4.536
   79DPPC   C38 3938   2.700   3.089   4.402
   79DPPC   C39 3939   2.594   3.148   4.310
   79DPPC   C40 3940   2.656   3.187   4.175
   79DPPC   C41 3941   2.711   3.067   4.097
   79DPPC   C42 3942   2.753   3.112   3.957
   79DPPC   C43 3943   2.803   2.998   3.869
   79DPPC   C44 3944   2.836   3.046   3.727
   79DPPC   C45 3945   2.714   3.107   3.658
   79DPPC   C46 3946   2.743   3.149   3.513
   79DPPC   C47 3947   2.717   3.036   3.413
   79DPPC   C48 3948   2.731   3.086   3.269
   79DPPC   C49 3949   2.697   2.979   3.165
   79DPPC   C50 3950   2.802   2.867   3.161
   80DPPC    C1 3951   2.216   4.169   5.487
   80DPPC    C2 3952   2.240   4.396   5.441
   80DPPC    C3 3953   2.231   4.245   5.260
   80DPPC    N4 3954   2.283   4.263   5.396
   80DPPC    C5 3955   2.431   4.251   5.405
   80DPPC    C6 3956   2.494   4.109   5.393
   80DPPC    O7 3957   2.487   4.052   5.262
   80DPPC    P8 3958   2.481   3.894   5.260
   80DPPC    O9 3959   2.613   3.840   5.295
   80DPPC   O10 3960   2.361   3.862   5.342
   80DPPC   O11 3961   2.446   3.870   5.109
   80DPPC   C12 3962   2.527   3.935   5.012
   80DPPC   C13 3963   2.463   3.938   4.871
   80DPPC   O14 3964   2.542   4.009   4.771
   80DPPC   C15 3965   2.643   3.948   4.704
   80DPPC   O16 3966   2.687   3.838   4.740
   80DPPC   C17 3967   2.712   4.037   4.600
   80DPPC   C18 3968   2.814   3.961   4.515
   80DPPC   C19 3969   2.867   4.052   4.404
   80DPPC   C20 3970   2.966   3.978   4.313
   80DPPC   C21 3971   3.015   4.069   4.201
   80DPPC   C22 3972   3.116   4.000   4.108
   80DPPC   C23 3973   3.170   4.103   4.009
   80DPPC   C24 3974   3.286   4.053   3.923
   80DPPC   C25 3975   3.246   3.946   3.821
   80DPPC   C26 3976   3.371   3.910   3.741
   80DPPC   C27 3977   3.353   3.786   3.654
   80DPPC   C28 3978   3.491   3.732   3.618
   80DPPC   C29 3979   3.485   3.596   3.549
   80DPPC   C30 3980   3.623   3.530   3.546
   80DPPC   C31 3981   3.670   3.496   3.688
   80DPPC   C32 3982   2.323   3.998   4.895
   80DPPC   O33 3983   2.216   3.920   4.839
   80DPPC   C34 3984   2.103   3.904   4.912
   80DPPC   O35 3985   2.093   3.947   5.028
   80DPPC   C36 3986   1.988   3.827   4.846
   80DPPC   C37 3987   1.983   3.843   4.693
   80DPPC   C38 3988   1.952   3.987   4.649
   80DPPC   C39 3989   1.979   4.000   4.499
   80DPPC   C40 3990   1.852   4.027   4.420
   80DPPC   C41 3991   1.877   4.018   4.269
   80DPPC   C42 3992   1.978   4.119   4.216
   80DPPC   C43 3993   1.988   4.104   4.064
   80DPPC   C44 3994   2.086   4.204   4.002
   80DPPC   C45 3995   2.124   4.163   3.860
   80DPPC   C46 3996   2.009   4.160   3.760
   80DPPC   C47 3997   2.067   4.107   3.629
   80DPPC   C48 3998   1.969   4.096   3.512
   80DPPC   C49 3999   2.046   4.036   3.394
   80DPPC   C50 4000   1.965   4.032   3.265
   81DPPC    C1 4001   4.767   4.208   5.436
   81DPPC    C2 4002   4.545   4.208   5.361
   81DPPC    C3 4003   4.716   4.271   5.208
   81DPPC    N4 4004   4.672   4.279   5.349
   81DPPC    C5 4005   4.652   4.420   5.389
   81DPPC    C6 4006   4.773   4.504   5.439
   81DPPC    O7 4007   4.879   4.513   5.343
   81DPPC    P8 4008   4.956   4.650   5.353
   81DPPC    O9 4009   4.851   4.751   5.324
   81DPPC   O10 4010   5.038   4.650   5.475
   81DPPC   O11 4011   5.052   4.635   5.229
   81DPPC   C12 4012   5.099   4.757   5.173
   81DPPC   C13 4013   5.184   4.736   5.045
   81DPPC   O14 4014   5.219   4.862   4.979
   81DPPC   C15 4015   5.319   4.857   4.887
   81DPPC   O16 4016   5.419   4.791   4.913
   81DPPC   C17 4017   5.320   4.971   4.785
   81DPPC   C18 4018   5.285   4.918   4.646
   81DPPC   C19 4019   5.286   5.033   4.545
   81DPPC   C20 4020   5.236   4.989   4.408
   81DPPC   C21 4021   5.246   5.105   4.308
   81DPPC   C22 4022   5.393   5.140   4.287
   81DPPC   C23 4023   5.417   5.258   4.192
   81DPPC   C24 4024   5.567   5.260   4.163
   81DPPC   C25 4025   5.614   5.384   4.088
   81DPPC   C26 4026   5.554   5.396   3.948
   81DPPC   C27 4027   5.609   5.524   3.884
   81DPPC   C28 4028   5.543   5.555   3.751
   81DPPC   C29 4029   5.587   5.693   3.703
   81DPPC   C30 4030   5.517   5.732   3.572
   81DPPC   C31 4031   5.612   5.718   3.454
   81DPPC   C32 4032   5.102   4.646   4.951
   81DPPC   O33 4033   4.992   4.713   4.887
   81DPPC   C34 4034   4.991   4.698   4.752
   81DPPC   O35 4035   5.077   4.634   4.692
   81DPPC   C36 4036   4.876   4.768   4.679
   81DPPC   C37 4037   4.917   4.803   4.536
   81DPPC   C38 4038   4.797   4.858   4.460
   81DPPC   C39 4039   4.836   4.890   4.316
   81DPPC   C40 4040   4.711   4.940   4.244
   81DPPC   C41 4041   4.739   4.962   4.096
   81DPPC   C42 4042   4.607   4.997   4.027
   81DPPC   C43 4043   4.625   5.005   3.876
   81DPPC   C44 4044   4.488   5.025   3.812
   81DPPC   C45 4045   4.493   5.023   3.659
   81DPPC   C46 4046   4.350   5.033   3.606
   81DPPC   C47 4047   4.342   5.050   3.455
   81DPPC   C48 4048   4.380   4.925   3.375
   81DPPC   C49 4049   4.369   4.952   3.225
   81DPPC   C50 4050   4.471   5.056   3.179
   82DPPC    C1 4051   2.320   6.354   5.440
   82DPPC    C2 4052   2.100   6.355   5.529
   82DPPC    C3 4053   2.203   0.116   5.467
   82DPPC    N4 4054   2.188   6.419   5.430
   82DPPC    C5 4055   2.138   6.404   5.290
   82DPPC    C6 4056   1.991   0.004   5.261
   82DPPC    O7 4057   1.937   6.397   5.138
   82DPPC    P8 4058   1.781   6.426   5.130
   82DPPC    O9 4059   1.724   6.315   5.208
   82DPPC   O10 4060   1.760   0.123   5.170
   82DPPC   O11 4061   1.759   6.408   4.974
   82DPPC   C12 4062   1.729   6.273   4.939
   82DPPC   C13 4063   1.719   6.243   4.788
   82DPPC   O14 4064   1.706   6.099   4.758
   82DPPC   C15 4065   1.790   6.003   4.805
   82DPPC   O16 4066   1.882   6.029   4.883
   82DPPC   C17 4067   1.768   5.863   4.749
   82DPPC   C18 4068   1.620   5.821   4.749
   82DPPC   C19 4069   1.597   5.703   4.655
   82DPPC   C20 4070   1.641   5.744   4.514
   82DPPC   C21 4071   1.591   5.645   4.409
   82DPPC   C22 4072   1.634   5.685   4.268
   82DPPC   C23 4073   1.764   5.616   4.226
   82DPPC   C24 4074   1.745   5.464   4.223
   82DPPC   C25 4075   1.873   5.396   4.175
   82DPPC   C26 4076   1.870   5.243   4.187
   82DPPC   C27 4077   1.766   5.176   4.099
   82DPPC   C28 4078   1.797   5.027   4.081
   82DPPC   C29 4079   1.923   5.009   3.994
   82DPPC   C30 4080   1.962   4.862   3.981
   82DPPC   C31 4081   2.082   4.844   3.888
   82DPPC   C32 4082   1.836   6.310   4.713
   82DPPC   O33 4083   1.792   6.384   4.598
   82DPPC   C34 4084   1.883   6.438   4.513
   82DPPC   O35 4085   2.000   6.400   4.512
   82DPPC   C36 4086   1.824   0.090   4.409
   82DPPC   C37 4087   1.895   0.081   4.274
   82DPPC   C38 4088   1.842   0.189   4.180
   82DPPC   C39 4089   1.918   0.191   4.047
   82DPPC   C40 4090   1.873   0.080   3.952
   82DPPC   C41 4091   1.726   0.097   3.917
   82DPPC   C42 4092   1.683   0.003   3.805
   82DPPC   C43 4093   1.699   0.069   3.668
   82DPPC   C44 4094   1.646   6.419   3.560
   82DPPC   C45 4095   1.660   0.043   3.424
   82DPPC   C46 4096   1.611   6.399   3.309
   82DPPC   C47 4097   1.645   0.027   3.178
   82DPPC   C48 4098   1.600   6.392   3.055
   82DPPC   C49 4099   1.640   0.023   2.927
   82DPPC   C50 4100   1.570   0.158   2.918
   83DPPC    C1 4101   4.832   6.134   5.277
   83DPPC    C2 4102   4.878   6.125   5.042
   83DPPC    C3 4103   4.656   6.123   5.119
   83DPPC    N4 4104   4.788   6.180   5.145
   83DPPC    C5 4105   4.773   6.328   5.136
   83DPPC    C6 4106   4.893   6.420   5.174
   83DPPC    O7 4107   5.001   6.419   5.080
   83DPPC    P8 4108   5.121   0.071   5.115
   83DPPC    O9 4109   5.062   0.191   5.178
   83DPPC   O10 4110   5.228   6.435   5.180
   83DPPC   O11 4111   5.170   0.103   4.969
   83DPPC   C12 4112   5.211   6.426   4.903
   83DPPC   C13 4113   5.201   6.430   4.750
   83DPPC   O14 4114   5.324   0.022   4.682
   83DPPC   C15 4115   5.407   6.363   4.646
   83DPPC   O16 4116   5.394   6.249   4.690
   83DPPC   C17 4117   5.514   6.404   4.547
   83DPPC   C18 4118   5.444   6.441   4.416
   83DPPC   C19 4119   5.547   0.046   4.316
   83DPPC   C20 4120   5.478   0.073   4.183
   83DPPC   C21 4121   5.579   0.133   4.086
   83DPPC   C22 4122   5.517   0.135   3.947
   83DPPC   C23 4123   5.598   0.226   3.856
   83DPPC   C24 4124   5.556   0.197   3.712
   83DPPC   C25 4125   5.627   0.296   3.621
   83DPPC   C26 4126   5.614   0.250   3.476
   83DPPC   C27 4127   5.685   0.353   3.388
   83DPPC   C28 4128   5.661   0.323   3.241
   83DPPC   C29 4129   5.720   0.436   3.157
   83DPPC   C30 4130   5.676   0.424   3.011
   83DPPC   C31 4131   5.525   0.447   2.998
   83DPPC   C32 4132   5.077   0.070   4.713
   83DPPC   O33 4133   5.018   0.024   4.590
   83DPPC   C34 4134   4.892   0.061   4.561
   83DPPC   O35 4135   4.853   0.176   4.584
   83DPPC   C36 4136   4.825   6.413   4.458
   83DPPC   C37 4137   4.674   6.404   4.474
   83DPPC   C38 4138   4.615   6.324   4.358
   83DPPC   C39 4139   4.657   6.390   4.227
   83DPPC   C40 4140   4.582   6.329   4.108
   83DPPC   C41 4141   4.619   6.404   3.980
   83DPPC   C42 4142   4.520   6.370   3.869
   83DPPC   C43 4143   4.379   6.414   3.910
   83DPPC   C44 4144   4.280   6.393   3.795
   83DPPC   C45 4145   4.247   6.246   3.768
   83DPPC   C46 4146   4.173   6.234   3.635
   83DPPC   C47 4147   4.266   6.276   3.520
   83DPPC   C48 4148   4.189   6.284   3.388
   83DPPC   C49 4149   4.281   6.331   3.275
   83DPPC   C50 4150   4.198   6.370   3.153
   84DPPC    C1 4151   2.033   1.565   5.021
   84DPPC    C2 4152   1.800   1.562   4.956
   84DPPC    C3 4153   1.968   1.581   4.791
   84DPPC    N4 4154   1.936   1.518   4.920
   84DPPC    C5 4155   1.946   1.372   4.901
   84DPPC    C6 4156   1.891   1.279   5.013
   84DPPC    O7 4157   1.892   1.143   4.969
   84DPPC    P8 4158   1.797   1.043   5.044
   84DPPC    O9 4159   1.883   0.966   5.138
   84DPPC   O10 4160   1.680   1.121   5.089
   84DPPC   O11 4161   1.763   0.957   4.916
   84DPPC   C12 4162   1.662   1.011   4.832
   84DPPC   C13 4163   1.629   0.932   4.703
   84DPPC   O14 4164   1.489   0.951   4.664
   84DPPC   C15 4165   1.441   1.065   4.609
   84DPPC   O16 4166   1.507   1.169   4.606
   84DPPC   C17 4167   1.289   1.064   4.586
   84DPPC   C18 4168   1.253   1.137   4.458
   84DPPC   C19 4169   1.102   1.156   4.443
   84DPPC   C20 4170   1.076   1.237   4.316
   84DPPC   C21 4171   0.928   1.267   4.299
   84DPPC   C22 4172   0.906   1.352   4.174
   84DPPC   C23 4173   0.757   1.373   4.146
   84DPPC   C24 4174   0.738   1.394   3.996
   84DPPC   C25 4175   0.775   1.266   3.921
   84DPPC   C26 4176   0.793   1.300   3.773
   84DPPC   C27 4177   0.804   1.175   3.685
   84DPPC   C28 4178   0.809   1.221   3.539
   84DPPC   C29 4179   0.800   1.105   3.441
   84DPPC   C30 4180   0.798   1.154   3.296
   84DPPC   C31 4181   0.672   1.234   3.266
   84DPPC   C32 4182   1.653   0.782   4.729
   84DPPC   O33 4183   1.697   0.714   4.610
   84DPPC   C34 4184   1.679   0.581   4.599
   84DPPC   O35 4185   1.613   0.518   4.682
   84DPPC   C36 4186   1.728   0.517   4.469
   84DPPC   C37 4187   1.726   0.614   4.351
   84DPPC   C38 4188   1.801   0.550   4.235
   84DPPC   C39 4189   1.812   0.641   4.113
   84DPPC   C40 4190   1.887   0.565   4.004
   84DPPC   C41 4191   1.898   0.646   3.875
   84DPPC   C42 4192   1.961   0.559   3.767
   84DPPC   C43 4193   1.975   0.638   3.637
   84DPPC   C44 4194   2.036   0.551   3.527
   84DPPC   C45 4195   2.060   0.634   3.401
   84DPPC   C46 4196   2.119   0.549   3.289
   84DPPC   C47 4197   2.254   0.489   3.329
   84DPPC   C48 4198   2.310   0.401   3.217
   84DPPC   C49 4199   2.444   0.340   3.260
   84DPPC   C50 4200   2.506   0.259   3.146
   85DPPC    C1 4201   4.706   5.268   5.180
   85DPPC    C2 4202   4.552   5.189   5.342
   85DPPC    C3 4203   4.690   5.037   5.218
   85DPPC    N4 4204   4.611   5.160   5.211
   85DPPC    C5 4205   4.511   5.152   5.102
   85DPPC    C6 4206   4.377   5.074   5.121
   85DPPC    O7 4207   4.386   4.932   5.120
   85DPPC    P8 4208   4.251   4.862   5.078
   85DPPC    O9 4209   4.247   4.722   5.124
   85DPPC   O10 4210   4.138   4.955   5.103
   85DPPC   O11 4211   4.275   4.858   4.923
   85DPPC   C12 4212   4.357   4.750   4.879
   85DPPC   C13 4213   4.392   4.762   4.729
   85DPPC   O14 4214   4.446   4.641   4.667
   85DPPC   C15 4215   4.381   4.521   4.666
   85DPPC   O16 4216   4.306   4.484   4.757
   85DPPC   C17 4217   4.429   4.424   4.559
   85DPPC   C18 4218   4.311   4.345   4.502
   85DPPC   C19 4219   4.349   4.280   4.369
   85DPPC   C20 4220   4.385   4.387   4.266
   85DPPC   C21 4221   4.436   4.320   4.138
   85DPPC   C22 4222   4.486   4.419   4.033
   85DPPC   C23 4223   4.376   4.511   3.979
   85DPPC   C24 4224   4.430   4.586   3.857
   85DPPC   C25 4225   4.335   4.697   3.810
   85DPPC   C26 4226   4.204   4.651   3.746
   85DPPC   C27 4227   4.230   4.580   3.613
   85DPPC   C28 4228   4.101   4.558   3.534
   85DPPC   C29 4229   4.132   4.479   3.407
   85DPPC   C30 4230   4.008   4.460   3.319
   85DPPC   C31 4231   4.044   4.378   3.195
   85DPPC   C32 4232   4.488   4.884   4.727
   85DPPC   O33 4233   4.475   4.973   4.616
   85DPPC   C34 4234   4.549   5.087   4.621
   85DPPC   O35 4235   4.622   5.112   4.716
   85DPPC   C36 4236   4.550   5.170   4.491
   85DPPC   C37 4237   4.434   5.268   4.479
   85DPPC   C38 4238   4.448   5.348   4.350
   85DPPC   C39 4239   4.338   5.452   4.334
   85DPPC   C40 4240   4.366   5.545   4.215
   85DPPC   C41 4241   4.366   5.471   4.081
   85DPPC   C42 4242   4.223   5.430   4.046
   85DPPC   C43 4243   4.219   5.306   3.957
   85DPPC   C44 4244   4.072   5.266   3.939
   85DPPC   C45 4245   4.055   5.127   3.877
   85DPPC   C46 4246   3.907   5.089   3.881
   85DPPC   C47 4247   3.855   5.082   4.025
   85DPPC   C48 4248   3.702   5.069   4.028
   85DPPC   C49 4249   3.649   5.056   4.171
   85DPPC   C50 4250   3.685   5.176   4.258
   86DPPC    C1 4251   3.893   5.432   4.777
   86DPPC    C2 4252   3.707   5.331   4.885
   86DPPC    C3 4253   3.706   5.565   4.846
   86DPPC    N4 4254   3.792   5.451   4.882
   86DPPC    C5 4255   3.851   5.472   5.017
   86DPPC    C6 4256   3.926   5.604   5.050
   86DPPC    O7 4257   4.048   5.620   4.976
   86DPPC    P8 4258   4.148   5.729   5.031
   86DPPC    O9 4259   4.070   5.835   5.097
   86DPPC   O10 4260   4.256   5.653   5.098
   86DPPC   O11 4261   4.201   5.777   4.890
   86DPPC   C12 4262   4.277   5.674   4.827
   86DPPC   C13 4263   4.276   5.673   4.673
   86DPPC   O14 4264   4.378   5.753   4.605
   86DPPC   C15 4265   4.510   5.725   4.614
   86DPPC   O16 4266   4.557   5.671   4.715
   86DPPC   C17 4267   4.594   5.803   4.514
   86DPPC   C18 4268   4.651   5.709   4.408
   86DPPC   C19 4269   4.689   5.791   4.285
   86DPPC   C20 4270   4.819   5.738   4.223
   86DPPC   C21 4271   4.839   5.799   4.084
   86DPPC   C22 4272   4.850   5.951   4.089
   86DPPC   C23 4273   4.852   6.007   3.946
   86DPPC   C24 4274   4.969   5.949   3.867
   86DPPC   C25 4275   4.966   5.999   3.722
   86DPPC   C26 4276   5.083   5.938   3.645
   86DPPC   C27 4277   5.093   5.999   3.506
   86DPPC   C28 4278   5.218   5.945   3.435
   86DPPC   C29 4279   5.242   6.018   3.303
   86DPPC   C30 4280   5.374   5.971   3.241
   86DPPC   C31 4281   5.404   6.048   3.113
   86DPPC   C32 4282   4.132   5.709   4.630
   86DPPC   O33 4283   4.075   5.611   4.541
   86DPPC   C34 4284   3.969   5.648   4.467
   86DPPC   O35 4285   3.912   5.757   4.484
   86DPPC   C36 4286   3.924   5.546   4.363
   86DPPC   C37 4287   3.920   5.614   4.226
   86DPPC   C38 4288   3.848   5.525   4.125
   86DPPC   C39 4289   3.808   5.611   4.005
   86DPPC   C40 4290   3.720   5.534   3.907
   86DPPC   C41 4291   3.593   5.480   3.974
   86DPPC   C42 4292   3.498   5.425   3.868
   86DPPC   C43 4293   3.382   5.346   3.929
   86DPPC   C44 4294   3.282   5.303   3.821
   86DPPC   C45 4295   3.346   5.214   3.714
   86DPPC   C46 4296   3.249   5.185   3.599
   86DPPC   C47 4297   3.213   5.311   3.520
   86DPPC   C48 4298   3.335   5.363   3.444
   86DPPC   C49 4299   3.310   5.504   3.388
   86DPPC   C50 4300   3.438   5.558   3.326
   87DPPC    C1 4301   4.545   0.336   4.543
   87DPPC    C2 4302   4.667   0.525   4.606
   87DPPC    C3 4303   4.460   0.484   4.714
   87DPPC    N4 4304   4.580   0.420   4.659
   87DPPC    C5 4305   4.657   0.348   4.764
   87DPPC    C6 4306   4.611   0.206   4.808
   87DPPC    O7 4307   4.484   0.206   4.873
   87DPPC    P8 4308   4.426   0.061   4.896
   87DPPC    O9 4309   4.540   6.413   4.914
   87DPPC   O10 4310   4.322   0.082   4.999
   87DPPC   O11 4311   4.367   0.043   4.751
   87DPPC   C12 4312   4.250   6.406   4.741
   87DPPC   C13 4313   4.213   6.370   4.595
   87DPPC   O14 4314   4.268   6.243   4.550
   87DPPC   C15 4315   4.200   6.128   4.569
   87DPPC   O16 4316   4.110   6.122   4.653
   87DPPC   C17 4317   4.239   6.016   4.473
   87DPPC   C18 4318   4.142   6.010   4.355
   87DPPC   C19 4319   4.200   5.928   4.240
   87DPPC   C20 4320   4.327   5.995   4.190
   87DPPC   C21 4321   4.393   5.919   4.075
   87DPPC   C22 4322   4.301   5.910   3.953
   87DPPC   C23 4323   4.379   5.860   3.832
   87DPPC   C24 4324   4.290   5.865   3.708
   87DPPC   C25 4325   4.373   5.837   3.583
   87DPPC   C26 4326   4.287   5.852   3.458
   87DPPC   C27 4327   4.367   5.919   3.347
   87DPPC   C28 4328   4.489   5.838   3.305
   87DPPC   C29 4329   4.571   5.919   3.204
   87DPPC   C30 4330   4.696   5.844   3.159
   87DPPC   C31 4331   4.778   5.931   3.062
   87DPPC   C32 4332   4.251   0.044   4.503
   87DPPC   O33 4333   4.180   0.045   4.376
   87DPPC   C34 4334   4.225   0.131   4.282
   87DPPC   O35 4335   4.330   0.194   4.299
   87DPPC   C36 4336   4.146   0.144   4.150
   87DPPC   C37 4337   3.996   0.115   4.161
   87DPPC   C38 4338   3.915   0.185   4.050
   87DPPC   C39 4339   3.962   0.147   3.909
   87DPPC   C40 4340   4.022   0.267   3.835
   87DPPC   C41 4341   4.094   0.226   3.707
   87DPPC   C42 4342   4.017   0.259   3.579
   87DPPC   C43 4343   4.098   0.220   3.454
   87DPPC   C44 4344   4.237   0.284   3.454
   87DPPC   C45 4345   4.311   0.260   3.322
   87DPPC   C46 4346   4.452   0.320   3.323
   87DPPC   C47 4347   4.555   0.236   3.399
   87DPPC   C48 4348   4.587   0.106   3.324
   87DPPC   C49 4349   4.702   0.029   3.390
   87DPPC   C50 4350   4.730   6.342   3.314
   88DPPC    C1 4351   4.462   0.444   5.354
   88DPPC    C2 4352   4.524   0.266   5.212
   88DPPC    C3 4353   4.550   0.487   5.136
   88DPPC    N4 4354   4.463   0.399   5.214
   88DPPC    C5 4355   4.329   0.385   5.152
   88DPPC    C6 4356   4.234   0.507   5.162
   88DPPC    O7 4357   4.148   0.518   5.049
   88DPPC    P8 4358   4.146   0.669   5.001
   88DPPC    O9 4359   4.065   0.742   5.099
   88DPPC   O10 4360   4.288   0.696   4.974
   88DPPC   O11 4361   4.059   0.643   4.872
   88DPPC   C12 4362   4.126   0.653   4.747
   88DPPC   C13 4363   4.084   0.541   4.649
   88DPPC   O14 4364   4.159   0.553   4.524
   88DPPC   C15 4365   4.145   0.467   4.420
   88DPPC   O16 4366   4.065   0.373   4.421
   88DPPC   C17 4367   4.231   0.505   4.300
   88DPPC   C18 4368   4.142   0.543   4.182
   88DPPC   C19 4369   4.229   0.598   4.069
   88DPPC   C20 4370   4.146   0.617   3.942
   88DPPC   C21 4371   4.233   0.681   3.834
   88DPPC   C22 4372   4.172   0.661   3.695
   88DPPC   C23 4373   4.033   0.722   3.684
   88DPPC   C24 4374   3.979   0.701   3.543
   88DPPC   C25 4375   3.848   0.777   3.528
   88DPPC   C26 4376   3.797   0.772   3.385
   88DPPC   C27 4377   3.681   0.870   3.371
   88DPPC   C28 4378   3.612   0.856   3.236
   88DPPC   C29 4379   3.501   0.959   3.221
   88DPPC   C30 4380   3.425   0.938   3.089
   88DPPC   C31 4381   3.516   0.952   2.968
   88DPPC   C32 4382   3.931   0.540   4.635
   88DPPC   O33 4383   3.875   0.656   4.571
   88DPPC   C34 4384   3.779   0.636   4.478
   88DPPC   O35 4385   3.732   0.525   4.453
   88DPPC   C36 4386   3.735   0.763   4.405
   88DPPC   C37 4387   3.848   0.805   4.312
   88DPPC   C38 4388   3.814   0.930   4.232
   88DPPC   C39 4389   3.915   0.950   4.119
   88DPPC   C40 4390   3.888   1.080   4.044
   88DPPC   C41 4391   3.962   1.081   3.910
   88DPPC   C42 4392   3.948   1.214   3.836
   88DPPC   C43 4393   3.801   1.256   3.828
   88DPPC   C44 4394   3.775   1.357   3.716
   88DPPC   C45 4395   3.792   1.288   3.580
   88DPPC   C46 4396   3.749   1.381   3.467
   88DPPC   C47 4397   3.782   1.320   3.331
   88DPPC   C48 4398   3.750   1.420   3.220
   88DPPC   C49 4399   3.828   1.388   3.093
   88DPPC   C50 4400   3.979   1.404   3.115
   89DPPC    C1 4401   3.931   4.824   5.435
   89DPPC    C2 4402   3.930   4.618   5.557
   89DPPC    C3 4403   4.084   4.650   5.379
   89DPPC    N4 4404   3.948   4.678   5.424
   89DPPC    C5 4405   3.858   4.618   5.323
   89DPPC    C6 4406   3.706   4.643   5.343
   89DPPC    O7 4407   3.625   4.603   5.233
   89DPPC    P8 4408   3.474   4.611   5.277
   89DPPC    O9 4409   3.463   4.513   5.386
   89DPPC   O10 4410   3.450   4.756   5.296
   89DPPC   O11 4411   3.402   4.563   5.145
   89DPPC   C12 4412   3.431   4.428   5.110
   89DPPC   C13 4413   3.376   4.386   4.972
   89DPPC   O14 4414   3.421   4.254   4.929
   89DPPC   C15 4415   3.550   4.224   4.900
   89DPPC   O16 4416   3.639   4.309   4.893
   89DPPC   C17 4417   3.568   4.078   4.859
   89DPPC   C18 4418   3.664   4.061   4.742
   89DPPC   C19 4419   3.649   3.918   4.690
   89DPPC   C20 4420   3.762   3.878   4.596
   89DPPC   C21 4421   3.739   3.736   4.542
   89DPPC   C22 4422   3.718   3.637   4.657
   89DPPC   C23 4423   3.687   3.496   4.607
   89DPPC   C24 4424   3.643   3.409   4.725
   89DPPC   C25 4425   3.628   3.260   4.690
   89DPPC   C26 4426   3.530   3.241   4.575
   89DPPC   C27 4427   3.501   3.093   4.545
   89DPPC   C28 4428   3.423   3.083   4.414
   89DPPC   C29 4429   3.291   3.160   4.422
   89DPPC   C30 4430   3.242   3.207   4.285
   89DPPC   C31 4431   3.335   3.312   4.224
   89DPPC   C32 4432   3.404   4.497   4.869
   89DPPC   O33 4433   3.288   4.571   4.830
   89DPPC   C34 4434   3.300   4.658   4.727
   89DPPC   O35 4435   3.407   4.674   4.666
   89DPPC   C36 4436   3.170   4.730   4.693
   89DPPC   C37 4437   3.184   4.838   4.586
   89DPPC   C38 4438   3.205   4.779   4.446
   89DPPC   C39 4439   3.222   4.891   4.343
   89DPPC   C40 4440   3.230   4.832   4.203
   89DPPC   C41 4441   3.208   4.943   4.099
   89DPPC   C42 4442   3.202   4.886   3.958
   89DPPC   C43 4443   3.339   4.834   3.913
   89DPPC   C44 4444   3.331   4.781   3.770
   89DPPC   C45 4445   3.460   4.811   3.691
   89DPPC   C46 4446   3.583   4.741   3.748
   89DPPC   C47 4447   3.565   4.589   3.746
   89DPPC   C48 4448   3.688   4.514   3.797
   89DPPC   C49 4449   3.658   4.365   3.808
   89DPPC   C50 4450   3.618   4.304   3.674
   90DPPC    C1 4451   3.059   4.723   5.178
   90DPPC    C2 4452   2.837   4.785   5.243
   90DPPC    C3 4453   2.875   4.624   5.075
   90DPPC    N4 4454   2.923   4.751   5.129
   90DPPC    C5 4455   2.919   4.853   5.021
   90DPPC    C6 4456   2.957   5.000   5.053
   90DPPC    O7 4457   2.955   5.084   4.935
   90DPPC    P8 4458   3.014   5.230   4.956
   90DPPC    O9 4459   2.892   5.307   4.993
   90DPPC   O10 4460   3.131   5.216   5.043
   90DPPC   O11 4461   3.055   5.264   4.807
   90DPPC   C12 4462   3.159   5.186   4.749
   90DPPC   C13 4463   3.192   5.223   4.602
   90DPPC   O14 4464   3.284   5.334   4.582
   90DPPC   C15 4465   3.419   5.320   4.595
   90DPPC   O16 4466   3.469   5.222   4.651
   90DPPC   C17 4467   3.502   5.444   4.562
   90DPPC   C18 4468   3.474   5.498   4.422
   90DPPC   C19 4469   3.546   5.632   4.406
   90DPPC   C20 4470   3.512   5.702   4.275
   90DPPC   C21 4471   3.583   5.837   4.273
   90DPPC   C22 4472   3.552   5.918   4.148
   90DPPC   C23 4473   3.630   6.049   4.157
   90DPPC   C24 4474   3.607   6.138   4.035
   90DPPC   C25 4475   3.692   6.264   4.049
   90DPPC   C26 4476   3.667   6.359   3.932
   90DPPC   C27 4477   3.706   6.293   3.799
   90DPPC   C28 4478   3.675   6.384   3.680
   90DPPC   C29 4479   3.713   6.309   3.553
   90DPPC   C30 4480   3.694   6.394   3.427
   90DPPC   C31 4481   3.743   6.316   3.305
   90DPPC   C32 4482   3.057   5.244   4.530
   90DPPC   O33 4483   3.002   5.125   4.471
   90DPPC   C34 4484   2.887   5.140   4.401
   90DPPC   O35 4485   2.824   5.246   4.400
   90DPPC   C36 4486   2.846   5.023   4.312
   90DPPC   C37 4487   2.772   4.914   4.389
   90DPPC   C38 4488   2.697   4.827   4.289
   90DPPC   C39 4489   2.587   4.908   4.220
   90DPPC   C40 4490   2.526   4.832   4.101
   90DPPC   C41 4491   2.627   4.816   3.987
   90DPPC   C42 4492   2.666   4.952   3.928
   90DPPC   C43 4493   2.770   4.939   3.816
   90DPPC   C44 4494   2.803   5.077   3.760
   90DPPC   C45 4495   2.908   5.069   3.649
   90DPPC   C46 4496   2.852   5.016   3.517
   90DPPC   C47 4497   2.966   4.980   3.421
   90DPPC   C48 4498   3.043   4.859   3.475
   90DPPC   C49 4499   3.171   4.828   3.396
   90DPPC   C50 4500   3.144   4.793   3.250
   91DPPC    C1 4501   3.639   6.385   4.453
   91DPPC    C2 4502   3.736   6.364   4.671
   91DPPC    C3 4503   3.872   6.362   4.479
   91DPPC    N4 4504   3.743   6.318   4.532
   91DPPC    C5 4505   3.733   6.170   4.527
   91DPPC    C6 4506   3.597   6.108   4.574
   91DPPC    O7 4507   3.611   5.975   4.621
   91DPPC    P8 4508   3.480   5.911   4.684
   91DPPC    O9 4509   3.523   5.781   4.737
   91DPPC   O10 4510   3.423   6.011   4.777
   91DPPC   O11 4511   3.391   5.896   4.555
   91DPPC   C12 4512   3.253   5.862   4.570
   91DPPC   C13 4513   3.173   5.872   4.437
   91DPPC   O14 4514   3.173   5.749   4.357
   91DPPC   C15 4515   3.104   5.638   4.391
   91DPPC   O16 4516   3.041   5.629   4.496
   91DPPC   C17 4517   3.118   5.519   4.295
   91DPPC   C18 4518   3.013   5.528   4.184
   91DPPC   C19 4519   2.987   5.393   4.117
   91DPPC   C20 4520   2.873   5.406   4.015
   91DPPC   C21 4521   2.748   5.462   4.082
   91DPPC   C22 4522   2.631   5.482   3.985
   91DPPC   C23 4523   2.670   5.570   3.866
   91DPPC   C24 4524   2.547   5.640   3.808
   91DPPC   C25 4525   2.518   5.770   3.885
   91DPPC   C26 4526   2.584   5.888   3.812
   91DPPC   C27 4527   2.561   6.019   3.886
   91DPPC   C28 4528   2.633   6.134   3.816
   91DPPC   C29 4529   2.633   6.260   3.904
   91DPPC   C30 4530   2.707   6.375   3.836
   91DPPC   C31 4531   2.713   0.054   3.927
   91DPPC   C32 4532   3.238   5.993   4.366
   91DPPC   O33 4533   3.154   6.085   4.295
   91DPPC   C34 4534   3.215   6.200   4.256
   91DPPC   O35 4535   3.332   6.225   4.287
   91DPPC   C36 4536   3.136   6.292   4.165
   91DPPC   C37 4537   3.189   6.278   4.022
   91DPPC   C38 4538   3.113   6.370   3.927
   91DPPC   C39 4539   3.152   6.349   3.781
   91DPPC   C40 4540   3.047   6.419   3.695
   91DPPC   C41 4541   3.060   6.397   3.544
   91DPPC   C42 4542   3.179   0.026   3.482
   91DPPC   C43 4543   3.166   0.022   3.330
   91DPPC   C44 4544   3.297   0.068   3.265
   91DPPC   C45 4545   3.289   0.064   3.113
   91DPPC   C46 4546   3.431   0.055   3.057
   91DPPC   C47 4547   3.434   0.060   2.904
   91DPPC   C48 4548   3.576   0.040   2.853
   91DPPC   C49 4549   3.582   0.052   2.700
   91DPPC   C50 4550   3.725   0.032   2.650
   92DPPC    C1 4551   3.090   0.258   4.703
   92DPPC    C2 4552   3.084   0.096   4.880
   92DPPC    C3 4553   2.900   0.240   4.844
   92DPPC    N4 4554   3.046   0.232   4.841
   92DPPC    C5 4555   3.098   0.334   4.936
   92DPPC    C6 4556   3.249   0.338   4.971
   92DPPC    O7 4557   3.332   0.387   4.866
   92DPPC    P8 4558   3.484   0.395   4.907
   92DPPC    O9 4559   3.488   0.507   5.002
   92DPPC   O10 4560   3.524   0.258   4.946
   92DPPC   O11 4561   3.552   0.439   4.771
   92DPPC   C12 4562   3.532   0.358   4.654
   92DPPC   C13 4563   3.408   0.394   4.570
   92DPPC   O14 4564   3.405   0.330   4.438
   92DPPC   C15 4565   3.376   0.197   4.423
   92DPPC   O16 4566   3.371   0.123   4.520
   92DPPC   C17 4567   3.361   0.146   4.279
   92DPPC   C18 4568   3.448   0.219   4.176
   92DPPC   C19 4569   3.408   0.178   4.034
   92DPPC   C20 4570   3.477   0.267   3.930
   92DPPC   C21 4571   3.430   0.236   3.787
   92DPPC   C22 4572   3.502   0.328   3.689
   92DPPC   C23 4573   3.461   0.303   3.544
   92DPPC   C24 4574   3.560   0.374   3.451
   92DPPC   C25 4575   3.526   0.352   3.304
   92DPPC   C26 4576   3.640   0.403   3.215
   92DPPC   C27 4577   3.599   0.393   3.068
   92DPPC   C28 4578   3.710   0.435   2.972
   92DPPC   C29 4579   3.651   0.444   2.832
   92DPPC   C30 4580   3.755   0.476   2.725
   92DPPC   C31 4581   3.688   0.490   2.588
   92DPPC   C32 4582   3.407   0.548   4.560
   92DPPC   O33 4583   3.277   0.611   4.566
   92DPPC   C34 4584   3.278   0.747   4.560
   92DPPC   O35 4585   3.383   0.810   4.561
   92DPPC   C36 4586   3.142   0.817   4.548
   92DPPC   C37 4587   3.075   0.767   4.419
   92DPPC   C38 4588   2.969   0.861   4.362
   92DPPC   C39 4589   2.916   0.790   4.238
   92DPPC   C40 4590   2.828   0.874   4.147
   92DPPC   C41 4591   2.777   0.782   4.036
   92DPPC   C42 4592   2.694   0.855   3.931
   92DPPC   C43 4593   2.583   0.765   3.876
   92DPPC   C44 4594   2.634   0.638   3.807
   92DPPC   C45 4595   2.699   0.663   3.670
   92DPPC   C46 4596   2.604   0.731   3.572
   92DPPC   C47 4597   2.669   0.741   3.434
   92DPPC   C48 4598   2.584   0.825   3.339
   92DPPC   C49 4599   2.641   0.825   3.197
   92DPPC   C50 4600   2.623   0.689   3.131
   93DPPC    C1 4601   3.188   3.901   5.602
   93DPPC    C2 4602   3.379   3.908   5.463
   93DPPC    C3 4603   3.172   3.834   5.376
   93DPPC    N4 4604   3.234   3.932   5.467
   93DPPC    C5 4605   3.208   4.073   5.428
   93DPPC    C6 4606   3.059   4.121   5.422
   93DPPC    O7 4607   3.044   4.261   5.397
   93DPPC    P8 4608   2.895   4.311   5.381
   93DPPC    O9 4609   2.800   4.211   5.434
   93DPPC   O10 4610   2.888   4.453   5.422
   93DPPC   O11 4611   2.883   4.311   5.224
   93DPPC   C12 4612   2.758   4.268   5.174
   93DPPC   C13 4613   2.745   4.281   5.020
   93DPPC   O14 4614   2.607   4.284   4.974
   93DPPC   C15 4615   2.528   4.392   4.998
   93DPPC   O16 4616   2.567   4.487   5.068
   93DPPC   C17 4617   2.388   4.387   4.938
   93DPPC   C18 4618   2.396   4.338   4.793
   93DPPC   C19 4619   2.264   4.363   4.720
   93DPPC   C20 4620   2.265   4.307   4.578
   93DPPC   C21 4621   2.374   4.369   4.491
   93DPPC   C22 4622   2.353   4.327   4.345
   93DPPC   C23 4623   2.459   4.385   4.253
   93DPPC   C24 4624   2.419   4.366   4.106
   93DPPC   C25 4625   2.532   4.413   4.014
   93DPPC   C26 4626   2.493   4.405   3.867
   93DPPC   C27 4627   2.404   4.521   3.822
   93DPPC   C28 4628   2.354   4.493   3.680
   93DPPC   C29 4629   2.264   4.603   3.623
   93DPPC   C30 4630   2.343   4.717   3.560
   93DPPC   C31 4631   2.248   4.811   3.485
   93DPPC   C32 4632   2.832   4.170   4.959
   93DPPC   O33 4633   2.946   4.214   4.883
   93DPPC   C34 4634   3.035   4.117   4.849
   93DPPC   O35 4635   3.022   4.003   4.891
   93DPPC   C36 4636   3.151   4.154   4.756
   93DPPC   C37 4637   3.125   4.275   4.666
   93DPPC   C38 4638   3.196   4.250   4.533
   93DPPC   C39 4639   3.234   4.380   4.463
   93DPPC   C40 4640   3.301   4.348   4.330
   93DPPC   C41 4641   3.379   4.468   4.276
   93DPPC   C42 4642   3.494   4.502   4.371
   93DPPC   C43 4643   3.581   4.613   4.312
   93DPPC   C44 4644   3.705   4.634   4.399
   93DPPC   C45 4645   3.797   4.736   4.332
   93DPPC   C46 4646   3.929   4.752   4.407
   93DPPC   C47 4647   4.018   4.847   4.327
   93DPPC   C48 4648   4.163   4.844   4.374
   93DPPC   C49 4649   4.252   4.924   4.279
   93DPPC   C50 4650   4.249   4.866   4.138
   94DPPC    C1 4651   2.645   5.591   4.420
   94DPPC    C2 4652   2.748   5.709   4.599
   94DPPC    C3 4653   2.756   5.477   4.593
   94DPPC    N4 4654   2.669   5.591   4.564
   94DPPC    C5 4655   2.544   5.579   4.644
   94DPPC    C6 4656   2.445   5.699   4.648
   94DPPC    O7 4657   2.337   5.671   4.736
   94DPPC    P8 4658   2.245   5.793   4.778
   94DPPC    O9 4659   2.147   5.746   4.878
   94DPPC   O10 4660   2.338   5.903   4.807
   94DPPC   O11 4661   2.175   5.823   4.640
   94DPPC   C12 4662   2.072   5.731   4.604
   94DPPC   C13 4663   2.052   5.718   4.452
   94DPPC   O14 4664   2.153   5.638   4.383
   94DPPC   C15 4665   2.150   5.502   4.386
   94DPPC   O16 4666   2.078   5.438   4.465
   94DPPC   C17 4667   2.235   5.441   4.275
   94DPPC   C18 4668   2.280   5.298   4.299
   94DPPC   C19 4669   2.333   5.237   4.169
   94DPPC   C20 4670   2.221   5.234   4.064
   94DPPC   C21 4671   2.262   5.161   3.936
   94DPPC   C22 4672   2.313   5.253   3.826
   94DPPC   C23 4673   2.318   5.173   3.696
   94DPPC   C24 4674   2.362   5.255   3.575
   94DPPC   C25 4675   2.346   5.168   3.450
   94DPPC   C26 4676   2.400   5.233   3.323
   94DPPC   C27 4677   2.552   5.247   3.329
   94DPPC   C28 4678   2.606   5.299   3.196
   94DPPC   C29 4679   2.756   5.324   3.203
   94DPPC   C30 4680   2.806   5.390   3.074
   94DPPC   C31 4681   2.950   5.439   3.092
   94DPPC   C32 4682   2.045   5.859   4.391
   94DPPC   O33 4683   1.918   5.924   4.400
   94DPPC   C34 4684   1.908   6.048   4.349
   94DPPC   O35 4685   2.006   6.110   4.308
   94DPPC   C36 4686   1.766   6.107   4.354
   94DPPC   C37 4687   1.732   6.174   4.222
   94DPPC   C38 4688   1.583   6.205   4.220
   94DPPC   C39 4689   1.545   6.250   4.080
   94DPPC   C40 4690   1.395   6.273   4.068
   94DPPC   C41 4691   1.369   6.330   3.929
   94DPPC   C42 4692   1.220   6.336   3.898
   94DPPC   C43 4693   1.201   6.388   3.755
   94DPPC   C44 4694   1.278   6.300   3.657
   94DPPC   C45 4695   1.249   6.339   3.512
   94DPPC   C46 4696   1.106   6.303   3.473
   94DPPC   C47 4697   1.081   6.335   3.325
   94DPPC   C48 4698   1.183   6.260   3.239
   94DPPC   C49 4699   1.170   6.294   3.090
   94DPPC   C50 4700   1.044   6.233   3.028
   95DPPC    C1 4701   2.209   6.296   4.725
   95DPPC    C2 4702   2.312   6.145   4.576
   95DPPC    C3 4703   2.401   6.367   4.611
   95DPPC    N4 4704   2.339   6.251   4.675
   95DPPC    C5 4705   2.419   6.203   4.791
   95DPPC    C6 4706   2.551   6.124   4.767
   95DPPC    O7 4707   2.659   6.203   4.715
   95DPPC    P8 4708   2.762   6.116   4.633
   95DPPC    O9 4709   2.873   6.208   4.601
   95DPPC   O10 4710   2.783   5.989   4.704
   95DPPC   O11 4711   2.672   6.097   4.505
   95DPPC   C12 4712   2.693   6.197   4.404
   95DPPC   C13 4713   2.621   6.174   4.270
   95DPPC   O14 4714   2.483   6.227   4.258
   95DPPC   C15 4715   2.469   6.358   4.226
   95DPPC   O16 4716   2.567   6.434   4.222
   95DPPC   C17 4717   2.325   6.411   4.224
   95DPPC   C18 4718   2.282   0.023   4.088
   95DPPC   C19 4719   2.277   6.359   3.980
   95DPPC   C20 4720   2.174   6.252   4.015
   95DPPC   C21 4721   2.196   6.129   3.929
   95DPPC   C22 4722   2.109   6.013   3.977
   95DPPC   C23 4723   2.153   5.885   3.907
   95DPPC   C24 4724   2.064   5.768   3.945
   95DPPC   C25 4725   2.098   5.652   3.853
   95DPPC   C26 4726   1.983   5.553   3.848
   95DPPC   C27 4727   2.009   5.450   3.738
   95DPPC   C28 4728   1.896   5.348   3.728
   95DPPC   C29 4729   1.936   5.239   3.629
   95DPPC   C30 4730   1.835   5.124   3.630
   95DPPC   C31 4731   1.885   5.009   3.543
   95DPPC   C32 4732   2.646   6.025   4.236
   95DPPC   O33 4733   2.774   6.008   4.174
   95DPPC   C34 4734   2.837   5.889   4.183
   95DPPC   O35 4735   2.810   5.809   4.272
   95DPPC   C36 4736   2.961   5.872   4.095
   95DPPC   C37 4737   2.933   5.893   3.946
   95DPPC   C38 4738   3.065   5.880   3.869
   95DPPC   C39 4739   3.055   5.937   3.727
   95DPPC   C40 4740   2.986   5.842   3.629
   95DPPC   C41 4741   2.987   5.901   3.487
   95DPPC   C42 4742   2.924   5.803   3.389
   95DPPC   C43 4743   2.779   5.779   3.432
   95DPPC   C44 4744   2.709   5.670   3.352
   95DPPC   C45 4745   2.562   5.665   3.395
   95DPPC   C46 4746   2.498   5.800   3.366
   95DPPC   C47 4747   2.360   5.813   3.430
   95DPPC   C48 4748   2.317   5.959   3.430
   95DPPC   C49 4749   2.193   5.979   3.516
   95DPPC   C50 4750   2.166   6.128   3.537
   96DPPC    C1 4751   2.130   0.786   4.688
   96DPPC    C2 4752   2.025   0.744   4.901
   96DPPC    C3 4753   2.139   0.947   4.858
   96DPPC    N4 4754   2.142   0.803   4.834
   96DPPC    C5 4755   2.268   0.744   4.886
   96DPPC    C6 4756   2.295   0.595   4.851
   96DPPC    O7 4757   2.418   0.545   4.905
   96DPPC    P8 4758   2.472   0.418   4.827
   96DPPC    O9 4759   2.599   0.381   4.892
   96DPPC   O10 4760   2.369   0.316   4.810
   96DPPC   O11 4761   2.500   0.486   4.687
   96DPPC   C12 4762   2.582   0.407   4.602
   96DPPC   C13 4763   2.601   0.460   4.458
   96DPPC   O14 4764   2.716   0.395   4.395
   96DPPC   C15 4765   2.845   0.420   4.433
   96DPPC   O16 4766   2.874   0.489   4.530
   96DPPC   C17 4767   2.949   0.342   4.353
   96DPPC   C18 4768   2.966   0.414   4.219
   96DPPC   C19 4769   3.037   0.326   4.118
   96DPPC   C20 4770   3.025   0.395   3.982
   96DPPC   C21 4771   3.071   0.305   3.868
   96DPPC   C22 4772   3.042   0.372   3.734
   96DPPC   C23 4773   3.114   0.506   3.727
   96DPPC   C24 4774   3.066   0.586   3.606
   96DPPC   C25 4775   3.115   0.730   3.619
   96DPPC   C26 4776   3.055   0.819   3.511
   96DPPC   C27 4777   3.102   0.963   3.532
   96DPPC   C28 4778   3.041   1.061   3.432
   96DPPC   C29 4779   3.079   1.028   3.288
   96DPPC   C30 4780   3.032   1.139   3.195
   96DPPC   C31 4781   3.055   1.100   3.049
   96DPPC   C32 4782   2.605   0.615   4.460
   96DPPC   O33 4783   2.499   0.679   4.386
   96DPPC   C34 4784   2.486   0.814   4.397
   96DPPC   O35 4785   2.553   0.877   4.480
   96DPPC   C36 4786   2.371   0.879   4.319
   96DPPC   C37 4787   2.249   0.787   4.303
   96DPPC   C38 4788   2.142   0.853   4.215
   96DPPC   C39 4789   2.198   0.886   4.076
   96DPPC   C40 4790   2.095   0.962   3.992
   96DPPC   C41 4791   2.152   1.011   3.858
   96DPPC   C42 4792   2.203   0.897   3.770
   96DPPC   C43 4793   2.234   0.943   3.627
   96DPPC   C44 4794   2.345   1.048   3.619
   96DPPC   C45 4795   2.369   1.089   3.473
   96DPPC   C46 4796   2.478   1.195   3.457
   96DPPC   C47 4797   2.436   1.329   3.517
   96DPPC   C48 4798   2.546   1.434   3.502
   96DPPC   C49 4799   2.502   1.566   3.565
   96DPPC   C50 4800   2.613   1.671   3.560
   97DPPC    C1 4801   1.034   2.123   5.130
   97DPPC    C2 4802   1.080   2.320   5.254
   97DPPC    C3 4803   1.133   2.317   5.027
   97DPPC    N4 4804   1.130   2.233   5.147
   97DPPC    C5 4805   1.265   2.185   5.182
   97DPPC    C6 4806   1.332   2.085   5.083
   97DPPC    O7 4807   1.464   2.048   5.119
   97DPPC    P8 4808   1.524   1.934   5.026
   97DPPC    O9 4809   1.663   1.901   5.065
   97DPPC   O10 4810   1.422   1.829   5.014
   97DPPC   O11 4811   1.530   2.015   4.891
   97DPPC   C12 4812   1.564   1.943   4.772
   97DPPC   C13 4813   1.448   1.870   4.700
   97DPPC   O14 4814   1.492   1.781   4.594
   97DPPC   C15 4815   1.542   1.657   4.622
   97DPPC   O16 4816   1.560   1.614   4.736
   97DPPC   C17 4817   1.582   1.576   4.499
   97DPPC   C18 4818   1.667   1.659   4.404
   97DPPC   C19 4819   1.702   1.574   4.282
   97DPPC   C20 4820   1.731   1.666   4.164
   97DPPC   C21 4821   1.751   1.586   4.036
   97DPPC   C22 4822   1.742   1.679   3.915
   97DPPC   C23 4823   1.601   1.735   3.899
   97DPPC   C24 4824   1.602   1.842   3.791
   97DPPC   C25 4825   1.465   1.903   3.762
   97DPPC   C26 4826   1.489   2.024   3.673
   97DPPC   C27 4827   1.362   2.097   3.629
   97DPPC   C28 4828   1.402   2.217   3.543
   97DPPC   C29 4829   1.480   2.168   3.421
   97DPPC   C30 4830   1.554   2.281   3.349
   97DPPC   C31 4831   1.634   2.221   3.233
   97DPPC   C32 4832   1.343   1.975   4.658
   97DPPC   O33 4833   1.392   2.102   4.614
   97DPPC   C34 4834   1.349   2.210   4.684
   97DPPC   O35 4835   1.263   2.200   4.771
   97DPPC   C36 4836   1.398   2.345   4.630
   97DPPC   C37 4837   1.285   2.412   4.553
   97DPPC   C38 4838   1.236   2.328   4.435
   97DPPC   C39 4839   1.088   2.353   4.406
   97DPPC   C40 4840   1.037   2.258   4.299
   97DPPC   C41 4841   0.887   2.277   4.274
   97DPPC   C42 4842   0.859   2.420   4.227
   97DPPC   C43 4843   0.709   2.445   4.212
   97DPPC   C44 4844   0.683   2.593   4.179
   97DPPC   C45 4845   0.726   2.684   4.295
   97DPPC   C46 4846   0.699   2.831   4.265
   97DPPC   C47 4847   0.551   2.857   4.239
   97DPPC   C48 4848   0.524   3.003   4.205
   97DPPC   C49 4849   0.378   3.022   4.163
   97DPPC   C50 4850   0.348   3.168   4.131
   98DPPC    C1 4851   4.702   2.163   4.704
   98DPPC    C2 4852   4.839   2.267   4.869
   98DPPC    C3 4853   4.630   2.360   4.811
   98DPPC    N4 4854   4.702   2.233   4.833
   98DPPC    C5 4855   4.634   2.157   4.940
   98DPPC    C6 4856   4.656   2.004   4.955
   98DPPC    O7 4857   4.785   1.962   4.999
   98DPPC    P8 4858   4.780   1.819   5.068
   98DPPC    O9 4859   4.906   1.808   5.145
   98DPPC   O10 4860   4.646   1.802   5.128
   98DPPC   O11 4861   4.790   1.731   4.938
   98DPPC   C12 4862   4.921   1.723   4.881
   98DPPC   C13 4863   4.925   1.696   4.729
   98DPPC   O14 4864   5.049   1.744   4.667
   98DPPC   C15 4865   5.154   1.659   4.648
   98DPPC   O16 4866   5.157   1.548   4.700
   98DPPC   C17 4867   5.260   1.709   4.550
   98DPPC   C18 4868   5.195   1.800   4.444
   98DPPC   C19 4869   5.286   1.829   4.325
   98DPPC   C20 4870   5.220   1.930   4.230
   98DPPC   C21 4871   5.084   1.886   4.176
   98DPPC   C22 4872   5.027   1.993   4.082
   98DPPC   C23 4873   4.885   1.963   4.034
   98DPPC   C24 4874   4.839   2.071   3.935
   98DPPC   C25 4875   4.696   2.045   3.886
   98DPPC   C26 4876   4.650   2.153   3.787
   98DPPC   C27 4877   4.715   2.141   3.648
   98DPPC   C28 4878   4.647   2.036   3.560
   98DPPC   C29 4879   4.713   2.023   3.422
   98DPPC   C30 4880   4.705   2.151   3.339
   98DPPC   C31 4881   4.770   2.131   3.202
   98DPPC   C32 4882   4.805   1.771   4.668
   98DPPC   O33 4883   4.694   1.686   4.633
   98DPPC   C34 4884   4.573   1.746   4.621
   98DPPC   O35 4885   4.549   1.853   4.675
   98DPPC   C36 4886   4.464   1.653   4.567
   98DPPC   C37 4887   4.362   1.731   4.485
   98DPPC   C38 4888   4.427   1.791   4.360
   98DPPC   C39 4889   4.330   1.887   4.292
   98DPPC   C40 4890   4.393   1.947   4.167
   98DPPC   C41 4891   4.305   2.059   4.110
   98DPPC   C42 4892   4.301   2.178   4.206
   98DPPC   C43 4893   4.223   2.297   4.148
   98DPPC   C44 4894   4.282   2.341   4.014
   98DPPC   C45 4895   4.228   2.476   3.967
   98DPPC   C46 4896   4.297   2.519   3.837
   98DPPC   C47 4897   4.273   2.666   3.800
   98DPPC   C48 4898   4.132   2.694   3.746
   98DPPC   C49 4899   4.111   2.844   3.716
   98DPPC   C50 4900   4.204   2.897   3.607
   99DPPC    C1 4901   2.388   2.961   5.627
   99DPPC    C2 4902   2.226   3.066   5.757
   99DPPC    C3 4903   2.445   3.165   5.728
   99DPPC    N4 4904   2.335   3.093   5.662
   99DPPC    C5 4905   2.291   3.162   5.539
   99DPPC    C6 4906   2.217   3.298   5.557
   99DPPC    O7 4907   2.183   3.358   5.433
   99DPPC    P8 4908   2.053   3.445   5.437
   99DPPC    O9 4909   1.943   3.359   5.485
   99DPPC   O10 4910   2.084   3.578   5.494
   99DPPC   O11 4911   2.031   3.459   5.282
   99DPPC   C12 4912   2.128   3.536   5.210
   99DPPC   C13 4913   2.130   3.494   5.062
   99DPPC   O14 4914   2.216   3.577   4.978
   99DPPC   C15 4915   2.330   3.523   4.929
   99DPPC   O16 4916   2.399   3.447   4.997
   99DPPC   C17 4917   2.381   3.586   4.800
   99DPPC   C18 4918   2.382   3.484   4.686
   99DPPC   C19 4919   2.433   3.550   4.559
   99DPPC   C20 4920   2.340   3.665   4.522
   99DPPC   C21 4921   2.399   3.751   4.410
   99DPPC   C22 4922   2.299   3.861   4.372
   99DPPC   C23 4923   2.348   3.936   4.249
   99DPPC   C24 4924   2.362   3.840   4.130
   99DPPC   C25 4925   2.445   3.904   4.020
   99DPPC   C26 4926   2.584   3.936   4.075
   99DPPC   C27 4927   2.673   4.010   3.975
   99DPPC   C28 4928   2.708   3.925   3.852
   99DPPC   C29 4929   2.802   4.004   3.761
   99DPPC   C30 4930   2.827   3.934   3.626
   99DPPC   C31 4931   2.897   3.799   3.642
   99DPPC   C32 4932   1.983   3.491   5.016
   99DPPC   O33 4933   1.958   3.416   4.896
   99DPPC   C34 4934   1.829   3.379   4.876
   99DPPC   O35 4935   1.745   3.388   4.965
   99DPPC   C36 4936   1.797   3.306   4.745
   99DPPC   C37 4937   1.736   3.402   4.642
   99DPPC   C38 4938   1.841   3.483   4.566
   99DPPC   C39 4939   1.934   3.390   4.488
   99DPPC   C40 4940   2.011   3.470   4.383
   99DPPC   C41 4941   2.110   3.382   4.306
   99DPPC   C42 4942   2.163   3.461   4.186
   99DPPC   C43 4943   2.285   3.394   4.123
   99DPPC   C44 4944   2.332   3.473   4.000
   99DPPC   C45 4945   2.470   3.426   3.958
   99DPPC   C46 4946   2.525   3.498   3.835
   99DPPC   C47 4947   2.450   3.462   3.707
   99DPPC   C48 4948   2.526   3.513   3.585
   99DPPC   C49 4949   2.453   3.482   3.453
   99DPPC   C50 4950   2.435   3.331   3.431
  100DPPC    C1 4951   5.260   3.620   5.607
  100DPPC    C2 4952   5.404   3.798   5.663
  100DPPC    C3 4953   5.440   3.664   5.464
  100DPPC    N4 4954   5.340   3.729   5.550
  100DPPC    C5 4955   5.251   3.819   5.474
  100DPPC    C6 4956   5.308   3.947   5.405
  100DPPC    O7 4957   5.322   4.062   5.490
  100DPPC    P8 4958   5.210   4.172   5.471
  100DPPC    O9 4959   5.077   4.107   5.471
  100DPPC   O10 4960   5.245   4.284   5.560
  100DPPC   O11 4961   5.237   4.213   5.322
  100DPPC   C12 4962   5.147   4.312   5.271
  100DPPC   C13 4963   5.172   4.357   5.125
  100DPPC   O14 4964   5.068   4.316   5.029
  100DPPC   C15 4965   5.056   4.191   4.977
  100DPPC   O16 4966   5.092   4.091   5.039
  100DPPC   C17 4967   4.962   4.178   4.857
  100DPPC   C18 4968   4.963   4.302   4.766
  100DPPC   C19 4969   4.888   4.275   4.636
  100DPPC   C20 4970   4.863   4.407   4.563
  100DPPC   C21 4971   4.806   4.390   4.422
  100DPPC   C22 4972   4.912   4.334   4.327
  100DPPC   C23 4973   4.864   4.344   4.182
  100DPPC   C24 4974   4.975   4.307   4.084
  100DPPC   C25 4975   4.925   4.330   3.941
  100DPPC   C26 4976   5.034   4.302   3.838
  100DPPC   C27 4977   4.980   4.329   3.698
  100DPPC   C28 4978   5.091   4.319   3.594
  100DPPC   C29 4979   5.039   4.347   3.453
  100DPPC   C30 4980   5.155   4.344   3.352
  100DPPC   C31 4981   5.107   4.368   3.209
  100DPPC   C32 4982   5.317   4.327   5.081
  100DPPC   O33 4983   5.351   4.396   4.959
  100DPPC   C34 4984   5.432   4.335   4.869
  100DPPC   O35 4985   5.461   4.216   4.879
  100DPPC   C36 4986   5.469   4.419   4.746
  100DPPC   C37 4987   5.353   4.430   4.647
  100DPPC   C38 4988   5.393   4.514   4.525
  100DPPC   C39 4989   5.279   4.526   4.424
  100DPPC   C40 4990   5.323   4.614   4.306
  100DPPC   C41 4991   5.212   4.629   4.202
  100DPPC   C42 4992   5.256   4.722   4.088
  100DPPC   C43 4993   5.150   4.725   3.977
  100DPPC   C44 4994   5.193   4.807   3.856
  100DPPC   C45 4995   5.098   4.776   3.740
  100DPPC   C46 4996   5.141   4.836   3.606
  100DPPC   C47 4997   5.050   4.781   3.496
  100DPPC   C48 4998   5.080   4.841   3.359
  100DPPC   C49 4999   4.985   4.785   3.252
  100DPPC   C50 5000   4.839   4.817   3.282
  101DPPC    C1 5001   0.421   1.408   5.624
  101DPPC    C2 5002   0.449   1.622   5.527
  101DPPC    C3 5003   0.331   1.446   5.410
  101DPPC    N4 5004   0.446   1.478   5.497
  101DPPC    C5 5005   0.574   1.430   5.440
  101DPPC    C6 5006   0.621   1.488   5.304
  101DPPC    O7 5007   0.645   1.389   5.204
  101DPPC    P8 5008   0.750   1.434   5.094
  101DPPC    O9 5009   0.749   1.581   5.087
  101DPPC   O10 5010   0.871   1.361   5.136
  101DPPC   O11 5011   0.692   1.374   4.961
  101DPPC   C12 5012   0.787   1.390   4.856
  101DPPC   C13 5013   0.735   1.388   4.711
  101DPPC   O14 5014   0.845   1.417   4.617
  101DPPC   C15 5015   0.908   1.537   4.611
  101DPPC   O16 5016   0.890   1.627   4.695
  101DPPC   C17 5017   1.020   1.545   4.508
  101DPPC   C18 5018   1.029   1.684   4.446
  101DPPC   C19 5019   1.154   1.693   4.361
  101DPPC   C20 5020   1.179   1.840   4.328
  101DPPC   C21 5021   1.303   1.858   4.242
  101DPPC   C22 5022   1.318   2.006   4.209
  101DPPC   C23 5023   1.431   2.028   4.108
  101DPPC   C24 5024   1.445   2.177   4.073
  101DPPC   C25 5025   1.321   2.233   4.003
  101DPPC   C26 5026   1.340   2.382   3.977
  101DPPC   C27 5027   1.461   2.407   3.887
  101DPPC   C28 5028   1.496   2.556   3.873
  101DPPC   C29 5029   1.543   2.616   4.005
  101DPPC   C30 5030   1.596   2.758   3.982
  101DPPC   C31 5031   1.650   2.820   4.111
  101DPPC   C32 5032   0.616   1.485   4.701
  101DPPC   O33 5033   0.572   1.509   4.567
  101DPPC   C34 5034   0.505   1.624   4.542
  101DPPC   O35 5035   0.479   1.706   4.630
  101DPPC   C36 5036   0.474   1.649   4.395
  101DPPC   C37 5037   0.594   1.705   4.321
  101DPPC   C38 5038   0.554   1.732   4.176
  101DPPC   C39 5039   0.655   1.822   4.104
  101DPPC   C40 5040   0.600   1.855   3.965
  101DPPC   C41 5041   0.688   1.952   3.887
  101DPPC   C42 5042   0.691   2.091   3.951
  101DPPC   C43 5043   0.751   2.194   3.855
  101DPPC   C44 5044   0.904   2.186   3.845
  101DPPC   C45 5045   0.953   2.280   3.734
  101DPPC   C46 5046   0.906   2.424   3.759
  101DPPC   C47 5047   0.933   2.515   3.639
  101DPPC   C48 5048   0.882   2.656   3.667
  101DPPC   C49 5049   0.869   2.738   3.539
  101DPPC   C50 5050   0.762   2.679   3.447
  102DPPC    C1 5051   1.114   3.205   5.071
  102DPPC    C2 5052   1.170   2.997   4.971
  102DPPC    C3 5053   0.959   3.100   4.929
  102DPPC    N4 5054   1.060   3.074   5.032
  102DPPC    C5 5055   0.997   3.011   5.151
  102DPPC    C6 5056   0.971   2.857   5.155
  102DPPC    O7 5057   0.897   2.800   5.047
  102DPPC    P8 5058   0.892   2.643   5.061
  102DPPC    O9 5059   1.028   2.606   5.101
  102DPPC   O10 5060   0.781   2.616   5.154
  102DPPC   O11 5061   0.862   2.596   4.913
  102DPPC   C12 5062   0.974   2.615   4.826
  102DPPC   C13 5063   0.952   2.604   4.673
  102DPPC   O14 5064   1.014   2.715   4.599
  102DPPC   C15 5065   1.146   2.746   4.607
  102DPPC   O16 5066   1.220   2.702   4.694
  102DPPC   C17 5067   1.191   2.859   4.514
  102DPPC   C18 5068   1.291   2.810   4.409
  102DPPC   C19 5069   1.226   2.725   4.299
  102DPPC   C20 5070   1.121   2.806   4.224
  102DPPC   C21 5071   1.085   2.742   4.090
  102DPPC   C22 5072   0.975   2.821   4.018
  102DPPC   C23 5073   1.014   2.967   3.991
  102DPPC   C24 5074   0.896   3.039   3.925
  102DPPC   C25 5075   0.926   3.186   3.900
  102DPPC   C26 5076   0.803   3.254   3.840
  102DPPC   C27 5077   0.829   3.402   3.812
  102DPPC   C28 5078   0.708   3.463   3.740
  102DPPC   C29 5079   0.737   3.606   3.695
  102DPPC   C30 5080   0.624   3.659   3.606
  102DPPC   C31 5081   0.612   3.579   3.477
  102DPPC   C32 5082   0.799   2.596   4.650
  102DPPC   O33 5083   0.748   2.470   4.603
  102DPPC   C34 5084   0.621   2.440   4.639
  102DPPC   O35 5085   0.567   2.495   4.734
  102DPPC   C36 5086   0.543   2.336   4.556
  102DPPC   C37 5087   0.610   2.200   4.538
  102DPPC   C38 5088   0.511   2.103   4.470
  102DPPC   C39 5089   0.465   2.152   4.333
  102DPPC   C40 5090   0.348   2.069   4.280
  102DPPC   C41 5091   0.301   2.118   4.142
  102DPPC   C42 5092   0.184   2.033   4.092
  102DPPC   C43 5093   0.138   2.072   3.951
  102DPPC   C44 5094   0.033   1.972   3.902
  102DPPC   C45 5095   6.403   2.000   3.759
  102DPPC   C46 5096   6.320   2.127   3.750
  102DPPC   C47 5097   6.275   2.155   3.607
  102DPPC   C48 5098   6.196   2.286   3.600
  102DPPC   C49 5099   6.165   2.325   3.455
  102DPPC   C50 5100   6.081   2.453   3.450
  103DPPC    C1 5101   1.478   3.422   5.421
  103DPPC    C2 5102   1.562   3.641   5.380
  103DPPC    C3 5103   1.673   3.452   5.291
  103DPPC    N4 5104   1.541   3.509   5.321
  103DPPC    C5 5105   1.461   3.517   5.196
  103DPPC    C6 5106   1.315   3.567   5.209
  103DPPC    O7 5107   1.248   3.574   5.083
  103DPPC    P8 5108   1.111   3.649   5.088
  103DPPC    O9 5109   1.010   3.559   5.148
  103DPPC   O10 5110   1.139   3.781   5.146
  103DPPC   O11 5111   1.091   3.667   4.932
  103DPPC   C12 5112   1.071   3.544   4.861
  103DPPC   C13 5113   1.086   3.552   4.706
  103DPPC   O14 5114   1.197   3.470   4.658
  103DPPC   C15 5115   1.187   3.334   4.652
  103DPPC   O16 5116   1.097   3.274   4.709
  103DPPC   C17 5117   1.304   3.260   4.586
  103DPPC   C18 5118   1.344   3.325   4.454
  103DPPC   C19 5119   1.452   3.243   4.384
  103DPPC   C20 5120   1.499   3.314   4.257
  103DPPC   C21 5121   1.588   3.224   4.171
  103DPPC   C22 5122   1.623   3.298   4.042
  103DPPC   C23 5123   1.629   3.205   3.921
  103DPPC   C24 5124   1.764   3.135   3.905
  103DPPC   C25 5125   1.761   3.051   3.777
  103DPPC   C26 5126   1.901   3.000   3.743
  103DPPC   C27 5127   1.902   2.920   3.612
  103DPPC   C28 5128   1.832   2.785   3.629
  103DPPC   C29 5129   1.834   2.706   3.498
  103DPPC   C30 5130   1.770   2.569   3.518
  103DPPC   C31 5131   1.870   2.459   3.483
  103DPPC   C32 5132   1.100   3.702   4.670
  103DPPC   O33 5133   1.055   3.746   4.539
  103DPPC   C34 5134   1.067   3.879   4.514
  103DPPC   O35 5135   1.115   3.956   4.597
  103DPPC   C36 5136   1.006   3.931   4.383
  103DPPC   C37 5137   1.110   3.932   4.270
  103DPPC   C38 5138   1.061   4.013   4.150
  103DPPC   C39 5139   0.934   3.955   4.087
  103DPPC   C40 5140   0.878   4.050   3.981
  103DPPC   C41 5141   0.747   3.993   3.927
  103DPPC   C42 5142   0.671   4.090   3.836
  103DPPC   C43 5143   0.545   4.018   3.788
  103DPPC   C44 5144   0.449   4.107   3.710
  103DPPC   C45 5145   0.323   4.027   3.674
  103DPPC   C46 5146   0.350   3.918   3.570
  103DPPC   C47 5147   0.232   3.821   3.564
  103DPPC   C48 5148   0.251   3.718   3.452
  103DPPC   C49 5149   0.154   3.600   3.467
  103DPPC   C50 5150   0.185   3.520   3.594
  104DPPC    C1 5151   0.481   4.678   5.520
  104DPPC    C2 5152   0.340   4.641   5.335
  104DPPC    C3 5153   0.495   4.474   5.397
  104DPPC    N4 5154   0.476   4.619   5.386
  104DPPC    C5 5155   0.576   4.681   5.294
  104DPPC    C6 5156   0.725   4.637   5.302
  104DPPC    O7 5157   0.793   4.666   5.426
  104DPPC    P8 5158   0.933   4.594   5.443
  104DPPC    O9 5159   0.982   4.614   5.580
  104DPPC   O10 5160   0.924   4.460   5.383
  104DPPC   O11 5161   1.025   4.685   5.353
  104DPPC   C12 5162   1.146   4.625   5.306
  104DPPC   C13 5163   1.135   4.554   5.170
  104DPPC   O14 5164   1.267   4.516   5.118
  104DPPC   C15 5165   1.309   4.387   5.124
  104DPPC   O16 5166   1.241   4.299   5.177
  104DPPC   C17 5167   1.430   4.357   5.035
  104DPPC   C18 5168   1.374   4.350   4.893
  104DPPC   C19 5169   1.466   4.280   4.794
  104DPPC   C20 5170   1.387   4.264   4.665
  104DPPC   C21 5171   1.478   4.222   4.550
  104DPPC   C22 5172   1.396   4.207   4.421
  104DPPC   C23 5173   1.489   4.169   4.306
  104DPPC   C24 5174   1.412   4.157   4.175
  104DPPC   C25 5175   1.508   4.128   4.060
  104DPPC   C26 5176   1.432   4.134   3.927
  104DPPC   C27 5177   1.525   4.103   3.810
  104DPPC   C28 5178   1.455   4.127   3.676
  104DPPC   C29 5179   1.331   4.039   3.658
  104DPPC   C30 5180   1.259   4.073   3.528
  104DPPC   C31 5181   1.127   3.996   3.517
  104DPPC   C32 5182   1.060   4.653   5.078
  104DPPC   O33 5183   0.990   4.596   4.966
  104DPPC   C34 5184   0.909   4.683   4.899
  104DPPC   O35 5185   0.902   4.800   4.935
  104DPPC   C36 5186   0.820   4.628   4.787
  104DPPC   C37 5187   0.883   4.522   4.697
  104DPPC   C38 5188   0.776   4.481   4.596
  104DPPC   C39 5189   0.815   4.363   4.508
  104DPPC   C40 5190   0.700   4.340   4.410
  104DPPC   C41 5191   0.716   4.213   4.327
  104DPPC   C42 5192   0.601   4.203   4.226
  104DPPC   C43 5193   0.464   4.200   4.294
  104DPPC   C44 5194   0.354   4.200   4.188
  104DPPC   C45 5195   0.215   4.191   4.251
  104DPPC   C46 5196   0.108   4.174   4.142
  104DPPC   C47 5197   0.137   4.049   4.058
  104DPPC   C48 5198   0.025   4.020   3.957
  104DPPC   C49 5199   0.003   4.136   3.861
  104DPPC   C50 5200   6.305   4.106   3.766
  105DPPC    C1 5201   0.328   2.435   4.931
  105DPPC    C2 5202   0.373   2.591   5.098
  105DPPC    C3 5203   0.537   2.430   5.049
  105DPPC    N4 5204   0.392   2.450   5.062
  105DPPC    C5 5205   0.333   2.363   5.167
  105DPPC    C6 5206   0.354   2.209   5.158
  105DPPC    O7 5207   0.296   2.153   5.040
  105DPPC    P8 5208   0.292   1.997   5.026
  105DPPC    O9 5209   0.431   1.952   5.005
  105DPPC   O10 5210   0.209   1.949   5.139
  105DPPC   O11 5211   0.206   1.989   4.894
  105DPPC   C12 5212   0.272   2.030   4.774
  105DPPC   C13 5213   0.186   2.026   4.646
  105DPPC   O14 5214   0.124   2.153   4.606
  105DPPC   C15 5215   0.021   2.215   4.670
  105DPPC   O16 5216   6.379   2.169   4.767
  105DPPC   C17 5217   6.402   2.348   4.606
  105DPPC   C18 5218   6.255   2.350   4.567
  105DPPC   C19 5219   6.221   2.478   4.492
  105DPPC   C20 5220   6.079   2.521   4.528
  105DPPC   C21 5221   5.973   2.420   4.483
  105DPPC   C22 5222   5.849   2.434   4.572
  105DPPC   C23 5223   5.731   2.358   4.513
  105DPPC   C24 5224   5.682   2.424   4.385
  105DPPC   C25 5225   5.601   2.324   4.304
  105DPPC   C26 5226   5.690   2.203   4.273
  105DPPC   C27 5227   5.615   2.096   4.194
  105DPPC   C28 5228   5.587   2.142   4.052
  105DPPC   C29 5229   5.481   2.054   3.987
  105DPPC   C30 5230   5.443   2.111   3.850
  105DPPC   C31 5231   5.304   2.063   3.810
  105DPPC   C32 5232   0.098   1.900   4.648
  105DPPC   O33 5233   0.141   1.801   4.552
  105DPPC   C34 5234   0.073   1.685   4.546
  105DPPC   O35 5235   6.394   1.660   4.617
  105DPPC   C36 5236   0.119   1.589   4.436
  105DPPC   C37 5237   0.022   1.593   4.317
  105DPPC   C38 5238   0.062   1.489   4.213
  105DPPC   C39 5239   6.374   1.476   4.105
  105DPPC   C40 5240   6.400   1.352   4.019
  105DPPC   C41 5241   6.292   1.335   3.912
  105DPPC   C42 5242   6.301   1.446   3.807
  105DPPC   C43 5243   6.194   1.433   3.700
  105DPPC   C44 5244   6.218   1.537   3.590
  105DPPC   C45 5245   6.108   1.535   3.484
  105DPPC   C46 5246   6.142   1.628   3.367
  105DPPC   C47 5247   6.267   1.579   3.294
  105DPPC   C48 5248   6.294   1.659   3.166
  105DPPC   C49 5249   6.414   1.601   3.092
  105DPPC   C50 5250   0.012   1.664   2.953
  106DPPC    C1 5251   5.926   2.027   5.398
  106DPPC    C2 5252   5.994   2.173   5.224
  106DPPC    C3 5253   6.155   2.074   5.370
  106DPPC    N4 5254   6.021   2.134   5.363
  106DPPC    C5 5255   6.002   2.246   5.459
  106DPPC    C6 5256   6.098   2.368   5.458
  106DPPC    O7 5257   6.085   2.455   5.345
  106DPPC    P8 5258   6.173   2.585   5.361
  106DPPC    O9 5259   6.107   2.662   5.467
  106DPPC   O10 5260   6.311   2.533   5.379
  106DPPC   O11 5261   6.153   2.660   5.223
  106DPPC   C12 5262   6.200   2.589   5.109
  106DPPC   C13 5263   6.184   2.665   4.975
  106DPPC   O14 5264   6.296   2.754   4.943
  106DPPC   C15 5265   6.416   2.700   4.904
  106DPPC   O16 5266   0.021   2.579   4.913
  106DPPC   C17 5267   0.104   2.802   4.866
  106DPPC   C18 5268   0.118   2.817   4.714
  106DPPC   C19 5269   0.184   2.695   4.649
  106DPPC   C20 5270   0.184   2.710   4.497
  106DPPC   C21 5271   0.249   2.591   4.426
  106DPPC   C22 5272   0.237   2.610   4.275
  106DPPC   C23 5273   0.304   2.495   4.198
  106DPPC   C24 5274   0.293   2.515   4.046
  106DPPC   C25 5275   0.362   2.644   4.004
  106DPPC   C26 5276   0.349   2.673   3.854
  106DPPC   C27 5277   0.403   2.814   3.829
  106DPPC   C28 5278   0.375   2.864   3.688
  106DPPC   C29 5279   0.411   3.013   3.682
  106DPPC   C30 5280   0.384   3.074   3.545
  106DPPC   C31 5281   0.426   3.222   3.544
  106DPPC   C32 5282   6.045   2.733   4.979
  106DPPC   O33 5283   5.965   2.715   4.862
  106DPPC   C34 5284   5.840   2.769   4.860
  106DPPC   O35 5285   5.800   2.844   4.948
  106DPPC   C36 5286   5.760   2.742   4.732
  106DPPC   C37 5287   5.796   2.846   4.627
  106DPPC   C38 5288   5.736   2.811   4.491
  106DPPC   C39 5289   5.788   2.912   4.389
  106DPPC   C40 5290   5.741   2.879   4.248
  106DPPC   C41 5291   5.826   2.960   4.149
  106DPPC   C42 5292   5.776   2.945   4.006
  106DPPC   C43 5293   5.866   3.022   3.909
  106DPPC   C44 5294   5.876   3.169   3.950
  106DPPC   C45 5295   5.956   3.253   3.849
  106DPPC   C46 5296   5.960   3.399   3.895
  106DPPC   C47 5297   5.819   3.456   3.907
  106DPPC   C48 5298   5.819   3.596   3.970
  106DPPC   C49 5299   5.676   3.641   3.998
  106DPPC   C50 5300   5.673   3.779   4.065
  107DPPC    C1 5301   0.661   3.128   5.768
  107DPPC    C2 5302   0.836   3.273   5.725
  107DPPC    C3 5303   0.624   3.363   5.783
  107DPPC    N4 5304   0.692   3.257   5.707
  107DPPC    C5 5305   0.660   3.266   5.563
  107DPPC    C6 5306   0.511   3.262   5.516
  107DPPC    O7 5307   0.445   3.137   5.541
  107DPPC    P8 5308   0.287   3.147   5.527
  107DPPC    O9 5309   0.230   3.029   5.596
  107DPPC   O10 5310   0.239   3.282   5.560
  107DPPC   O11 5311   0.274   3.129   5.372
  107DPPC   C12 5312   0.300   2.999   5.319
  107DPPC   C13 5313   0.259   2.987   5.170
  107DPPC   O14 5314   0.361   2.926   5.084
  107DPPC   C15 5315   0.478   2.985   5.049
  107DPPC   O16 5316   0.541   3.055   5.130
  107DPPC   C17 5317   0.551   2.909   4.938
  107DPPC   C18 5318   0.612   3.000   4.830
  107DPPC   C19 5319   0.505   3.060   4.738
  107DPPC   C20 5320   0.567   3.119   4.611
  107DPPC   C21 5321   0.659   3.238   4.640
  107DPPC   C22 5322   0.709   3.303   4.510
  107DPPC   C23 5323   0.823   3.225   4.443
  107DPPC   C24 5324   0.863   3.290   4.311
  107DPPC   C25 5325   0.897   3.438   4.334
  107DPPC   C26 5326   0.929   3.511   4.204
  107DPPC   C27 5327   1.078   3.510   4.172
  107DPPC   C28 5328   1.104   3.597   4.049
  107DPPC   C29 5329   1.252   3.597   4.008
  107DPPC   C30 5330   1.270   3.686   3.885
  107DPPC   C31 5331   1.411   3.673   3.828
  107DPPC   C32 5332   0.215   3.127   5.122
  107DPPC   O33 5333   0.132   3.124   5.005
  107DPPC   C34 5334   0.153   3.224   4.916
  107DPPC   O35 5335   0.255   3.294   4.918
  107DPPC   C36 5336   0.051   3.232   4.803
  107DPPC   C37 5337   0.114   3.206   4.667
  107DPPC   C38 5338   0.008   3.247   4.566
  107DPPC   C39 5339   0.054   3.240   4.420
  107DPPC   C40 5340   6.360   3.297   4.334
  107DPPC   C41 5341   6.331   3.441   4.377
  107DPPC   C42 5342   6.204   3.498   4.313
  107DPPC   C43 5343   6.079   3.418   4.352
  107DPPC   C44 5344   5.955   3.492   4.303
  107DPPC   C45 5345   5.827   3.409   4.312
  107DPPC   C46 5346   5.793   3.362   4.453
  107DPPC   C47 5347   5.652   3.302   4.449
  107DPPC   C48 5348   5.612   3.234   4.580
  107DPPC   C49 5349   5.469   3.182   4.567
  107DPPC   C50 5350   5.428   3.100   4.689
  108DPPC    C1 5351   1.152   4.030   4.929
  108DPPC    C2 5352   1.003   4.052   5.111
  108DPPC    C3 5353   0.921   4.002   4.891
  108DPPC    N4 5354   1.019   4.079   4.968
  108DPPC    C5 5355   1.010   4.225   4.940
  108DPPC    C6 5356   0.891   4.303   5.002
  108DPPC    O7 5357   0.767   4.278   4.936
  108DPPC    P8 5358   0.638   4.333   5.009
  108DPPC    O9 5359   0.621   4.248   5.129
  108DPPC   O10 5360   0.645   4.478   5.027
  108DPPC   O11 5361   0.531   4.298   4.898
  108DPPC   C12 5362   0.503   4.160   4.879
  108DPPC   C13 5363   0.451   4.120   4.739
  108DPPC   O14 5364   0.548   4.062   4.647
  108DPPC   C15 5365   0.591   3.934   4.665
  108DPPC   O16 5366   0.605   3.886   4.777
  108DPPC   C17 5367   0.646   3.868   4.539
  108DPPC   C18 5368   0.530   3.826   4.448
  108DPPC   C19 5369   0.584   3.762   4.320
  108DPPC   C20 5370   0.473   3.728   4.220
  108DPPC   C21 5371   0.537   3.661   4.098
  108DPPC   C22 5372   0.438   3.639   3.983
  108DPPC   C23 5373   0.329   3.537   4.013
  108DPPC   C24 5374   0.192   3.601   3.988
  108DPPC   C25 5375   0.080   3.497   3.990
  108DPPC   C26 5376   6.361   3.564   3.985
  108DPPC   C27 5377   6.338   3.649   3.859
  108DPPC   C28 5378   6.193   3.696   3.854
  108DPPC   C29 5379   6.162   3.774   3.726
  108DPPC   C30 5380   6.164   3.687   3.601
  108DPPC   C31 5381   6.034   3.608   3.586
  108DPPC   C32 5382   0.366   4.236   4.684
  108DPPC   O33 5383   0.230   4.227   4.729
  108DPPC   C34 5384   0.149   4.334   4.715
  108DPPC   O35 5385   0.191   4.446   4.684
  108DPPC   C36 5386   0.003   4.309   4.753
  108DPPC   C37 5387   6.337   4.277   4.629
  108DPPC   C38 5388   6.315   4.402   4.544
  108DPPC   C39 5389   6.254   4.364   4.409
  108DPPC   C40 5390   6.231   4.489   4.325
  108DPPC   C41 5391   6.179   4.448   4.187
  108DPPC   C42 5392   6.154   4.572   4.102
  108DPPC   C43 5393   6.108   4.533   3.962
  108DPPC   C44 5394   6.090   4.659   3.878
  108DPPC   C45 5395   6.041   4.622   3.738
  108DPPC   C46 5396   6.028   4.745   3.650
  108DPPC   C47 5397   5.969   4.704   3.515
  108DPPC   C48 5398   5.958   4.823   3.420
  108DPPC   C49 5399   5.884   4.784   3.291
  108DPPC   C50 5400   5.737   4.752   3.319
  109DPPC    C1 5401   5.407   1.543   5.255
  109DPPC    C2 5402   5.306   1.329   5.219
  109DPPC    C3 5403   5.212   1.524   5.125
  109DPPC    N4 5404   5.339   1.458   5.156
  109DPPC    C5 5405   5.416   1.439   5.031
  109DPPC    C6 5406   5.568   1.405   5.041
  109DPPC    O7 5407   5.596   1.277   5.099
  109DPPC    P8 5408   5.749   1.247   5.129
  109DPPC    O9 5409   5.802   1.372   5.190
  109DPPC   O10 5410   5.752   1.118   5.201
  109DPPC   O11 5411   5.804   1.228   4.982
  109DPPC   C12 5412   5.736   1.131   4.902
  109DPPC   C13 5413   5.788   1.112   4.757
  109DPPC   O14 5414   5.890   1.009   4.739
  109DPPC   C15 5415   5.850   0.883   4.713
  109DPPC   O16 5416   5.741   0.842   4.755
  109DPPC   C17 5417   5.959   0.787   4.664
  109DPPC   C18 5418   6.047   0.847   4.554
  109DPPC   C19 5419   5.974   0.864   4.421
  109DPPC   C20 5420   6.074   0.844   4.306
  109DPPC   C21 5421   6.010   0.850   4.167
  109DPPC   C22 5422   5.961   0.990   4.133
  109DPPC   C23 5423   5.907   0.995   3.990
  109DPPC   C24 5424   5.853   1.135   3.959
  109DPPC   C25 5425   5.812   1.144   3.812
  109DPPC   C26 5426   5.759   1.284   3.780
  109DPPC   C27 5427   5.799   1.324   3.638
  109DPPC   C28 5428   5.680   1.336   3.542
  109DPPC   C29 5429   5.731   1.380   3.405
  109DPPC   C30 5430   5.617   1.398   3.305
  109DPPC   C31 5431   5.669   1.453   3.173
  109DPPC   C32 5432   5.821   1.249   4.694
  109DPPC   O33 5433   5.704   1.317   4.646
  109DPPC   C34 5434   5.720   1.434   4.581
  109DPPC   O35 5435   5.832   1.483   4.563
  109DPPC   C36 5436   5.592   1.502   4.533
  109DPPC   C37 5437   5.577   1.499   4.381
  109DPPC   C38 5438   5.544   1.360   4.326
  109DPPC   C39 5439   5.515   1.370   4.176
  109DPPC   C40 5440   5.400   1.468   4.152
  109DPPC   C41 5441   5.379   1.499   4.004
  109DPPC   C42 5442   5.283   1.617   3.990
  109DPPC   C43 5443   5.254   1.651   3.844
  109DPPC   C44 5444   5.383   1.679   3.766
  109DPPC   C45 5445   5.353   1.713   3.620
  109DPPC   C46 5446   5.485   1.722   3.542
  109DPPC   C47 5447   5.469   1.792   3.407
  109DPPC   C48 5448   5.375   1.721   3.310
  109DPPC   C49 5449   5.365   1.803   3.182
  109DPPC   C50 5450   5.274   1.739   3.078
  110DPPC    C1 5451   5.243   2.623   5.505
  110DPPC    C2 5452   5.477   2.625   5.470
  110DPPC    C3 5453   5.325   2.666   5.291
  110DPPC    N4 5454   5.349   2.585   5.410
  110DPPC    C5 5455   5.344   2.440   5.380
  110DPPC    C6 5456   5.458   2.377   5.294
  110DPPC    O7 5457   5.439   2.236   5.271
  110DPPC    P8 5458   5.560   2.165   5.197
  110DPPC    O9 5459   5.680   2.220   5.263
  110DPPC   O10 5460   5.532   2.020   5.193
  110DPPC   O11 5461   5.554   2.228   5.052
  110DPPC   C12 5462   5.492   2.146   4.953
  110DPPC   C13 5463   5.501   2.196   4.807
  110DPPC   O14 5464   5.586   2.118   4.717
  110DPPC   C15 5465   5.532   2.007   4.659
  110DPPC   O16 5466   5.438   1.947   4.711
  110DPPC   C17 5467   5.609   1.952   4.540
  110DPPC   C18 5468   5.738   1.884   4.587
  110DPPC   C19 5469   5.825   1.844   4.468
  110DPPC   C20 5470   5.961   1.795   4.517
  110DPPC   C21 5471   6.038   1.906   4.590
  110DPPC   C22 5472   6.085   2.017   4.495
  110DPPC   C23 5473   6.193   1.966   4.399
  110DPPC   C24 5474   6.253   2.078   4.314
  110DPPC   C25 5475   6.154   2.135   4.212
  110DPPC   C26 5476   6.215   2.256   4.141
  110DPPC   C27 5477   6.128   2.305   4.025
  110DPPC   C28 5478   5.984   2.335   4.069
  110DPPC   C29 5479   5.905   2.410   3.961
  110DPPC   C30 5480   5.897   2.336   3.828
  110DPPC   C31 5481   5.816   2.416   3.727
  110DPPC   C32 5482   5.523   2.348   4.808
  110DPPC   O33 5483   5.411   2.417   4.750
  110DPPC   C34 5484   5.398   2.549   4.771
  110DPPC   O35 5485   5.475   2.612   4.845
  110DPPC   C36 5486   5.283   2.615   4.698
  110DPPC   C37 5487   5.342   2.711   4.595
  110DPPC   C38 5488   5.236   2.758   4.496
  110DPPC   C39 5489   5.305   2.847   4.393
  110DPPC   C40 5490   5.210   2.876   4.277
  110DPPC   C41 5491   5.282   2.959   4.172
  110DPPC   C42 5492   5.310   3.102   4.218
  110DPPC   C43 5493   5.378   3.180   4.106
  110DPPC   C44 5494   5.294   3.172   3.978
  110DPPC   C45 5495   5.360   3.242   3.859
  110DPPC   C46 5496   5.347   3.394   3.865
  110DPPC   C47 5497   5.202   3.440   3.851
  110DPPC   C48 5498   5.197   3.593   3.862
  110DPPC   C49 5499   5.055   3.648   3.870
  110DPPC   C50 5500   5.061   3.798   3.900
  111DPPC    C1 5501   6.133   3.874   5.911
  111DPPC    C2 5502   6.206   4.000   5.722
  111DPPC    C3 5503   6.362   3.892   5.864
  111DPPC    N4 5504   6.230   3.878   5.801
  111DPPC    C5 5505   6.229   3.755   5.718
  111DPPC    C6 5506   6.109   3.721   5.624
  111DPPC    O7 5507   5.984   3.710   5.692
  111DPPC    P8 5508   5.876   3.611   5.632
  111DPPC    O9 5509   5.906   3.474   5.678
  111DPPC   O10 5510   5.748   3.677   5.665
  111DPPC   O11 5511   5.891   3.626   5.475
  111DPPC   C12 5512   5.858   3.508   5.400
  111DPPC   C13 5513   5.878   3.516   5.246
  111DPPC   O14 5514   5.945   3.399   5.191
  111DPPC   C15 5515   5.867   3.301   5.137
  111DPPC   O16 5516   5.746   3.318   5.121
  111DPPC   C17 5517   5.945   3.182   5.080
  111DPPC   C18 5518   5.968   3.202   4.930
  111DPPC   C19 5519   6.059   3.093   4.874
  111DPPC   C20 5520   6.071   3.107   4.722
  111DPPC   C21 5521   6.156   2.995   4.663
  111DPPC   C22 5522   6.149   2.999   4.510
  111DPPC   C23 5523   6.233   2.887   4.447
  111DPPC   C24 5524   6.215   2.884   4.295
  111DPPC   C25 5525   6.311   2.782   4.235
  111DPPC   C26 5526   6.302   2.772   4.082
  111DPPC   C27 5527   6.178   2.696   4.035
  111DPPC   C28 5528   6.183   2.671   3.884
  111DPPC   C29 5529   6.160   2.799   3.804
  111DPPC   C30 5530   6.165   2.776   3.652
  111DPPC   C31 5531   6.308   2.761   3.601
  111DPPC   C32 5532   5.941   3.652   5.208
  111DPPC   O33 5533   5.849   3.737   5.136
  111DPPC   C34 5534   5.889   3.860   5.095
  111DPPC   O35 5535   6.008   3.893   5.093
  111DPPC   C36 5536   5.779   3.942   5.028
  111DPPC   C37 5537   5.828   4.012   4.902
  111DPPC   C38 5538   5.714   4.021   4.800
  111DPPC   C39 5539   5.669   3.879   4.764
  111DPPC   C40 5540   5.556   3.878   4.662
  111DPPC   C41 5541   5.516   3.732   4.640
  111DPPC   C42 5542   5.408   3.723   4.533
  111DPPC   C43 5543   5.357   3.580   4.518
  111DPPC   C44 5544   5.260   3.578   4.400
  111DPPC   C45 5545   5.193   3.443   4.378
  111DPPC   C46 5546   5.100   3.462   4.259
  111DPPC   C47 5547   5.020   3.338   4.220
  111DPPC   C48 5548   4.931   3.382   4.104
  111DPPC   C49 5549   4.857   3.268   4.035
  111DPPC   C50 5550   4.790   3.325   3.910
  112DPPC    C1 5551   6.311   3.986   4.999
  112DPPC    C2 5552   6.395   4.155   5.144
  112DPPC    C3 5553   0.097   3.954   5.122
  112DPPC    N4 5554   6.380   4.010   5.127
  112DPPC    C5 5555   6.302   3.958   5.243
  112DPPC    C6 5556   6.258   3.809   5.248
  112DPPC    O7 5557   6.363   3.712   5.260
  112DPPC    P8 5558   6.315   3.561   5.272
  112DPPC    O9 5559   0.019   3.480   5.270
  112DPPC   O10 5560   6.226   3.562   5.388
  112DPPC   O11 5561   6.230   3.546   5.139
  112DPPC   C12 5562   6.301   3.490   5.029
  112DPPC   C13 5563   6.247   3.526   4.888
  112DPPC   O14 5564   6.354   3.553   4.793
  112DPPC   C15 5565   0.030   3.651   4.801
  112DPPC   O16 5566   0.059   3.707   4.908
  112DPPC   C17 5567   0.124   3.652   4.680
  112DPPC   C18 5568   0.176   3.790   4.639
  112DPPC   C19 5569   0.070   3.881   4.576
  112DPPC   C20 5570   0.011   3.825   4.446
  112DPPC   C21 5571   6.328   3.925   4.389
  112DPPC   C22 5572   6.258   3.878   4.261
  112DPPC   C23 5573   6.166   3.989   4.211
  112DPPC   C24 5574   6.090   3.955   4.083
  112DPPC   C25 5575   6.005   4.076   4.042
  112DPPC   C26 5576   5.926   4.054   3.913
  112DPPC   C27 5577   5.830   4.172   3.891
  112DPPC   C28 5578   5.734   4.146   3.775
  112DPPC   C29 5579   5.617   4.246   3.772
  112DPPC   C30 5580   5.651   4.377   3.701
  112DPPC   C31 5581   5.535   4.477   3.716
  112DPPC   C32 5582   6.139   3.636   4.900
  112DPPC   O33 5583   6.056   3.660   4.784
  112DPPC   C34 5584   6.096   3.751   4.691
  112DPPC   O35 5585   6.190   3.827   4.711
  112DPPC   C36 5586   6.003   3.765   4.569
  112DPPC   C37 5587   5.969   3.912   4.542
  112DPPC   C38 5588   5.870   3.927   4.426
  112DPPC   C39 5589   5.815   4.070   4.428
  112DPPC   C40 5590   5.722   4.098   4.309
  112DPPC   C41 5591   5.652   4.232   4.328
  112DPPC   C42 5592   5.589   4.284   4.198
  112DPPC   C43 5593   5.484   4.189   4.140
  112DPPC   C44 5594   5.362   4.180   4.231
  112DPPC   C45 5595   5.269   4.066   4.192
  112DPPC   C46 5596   5.161   4.055   4.299
  112DPPC   C47 5597   5.080   3.926   4.289
  112DPPC   C48 5598   4.998   3.908   4.417
  112DPPC   C49 5599   5.090   3.907   4.540
  112DPPC   C50 5600   5.013   3.871   4.667
  113DPPC    C1 5601   2.257   5.509   5.050
  113DPPC    C2 5602   2.131   5.309   5.026
  113DPPC    C3 5603   2.230   5.360   5.233
  113DPPC    N4 5604   2.250   5.368   5.088
  113DPPC    C5 5605   2.380   5.311   5.046
  113DPPC    C6 5606   2.396   5.160   5.015
  113DPPC    O7 5607   2.375   5.072   5.125
  113DPPC    P8 5608   2.458   4.939   5.115
  113DPPC    O9 5609   2.600   4.974   5.099
  113DPPC   O10 5610   2.417   4.843   5.219
  113DPPC   O11 5611   2.400   4.886   4.978
  113DPPC   C12 5612   2.471   4.770   4.936
  113DPPC   C13 5613   2.454   4.733   4.787
  113DPPC   O14 5614   2.546   4.628   4.743
  113DPPC   C15 5615   2.681   4.642   4.745
  113DPPC   O16 5616   2.736   4.749   4.769
  113DPPC   C17 5617   2.758   4.511   4.725
  113DPPC   C18 5618   2.853   4.517   4.606
  113DPPC   C19 5619   2.785   4.495   4.472
  113DPPC   C20 5620   2.894   4.492   4.365
  113DPPC   C21 5621   2.841   4.462   4.225
  113DPPC   C22 5622   2.957   4.460   4.125
  113DPPC   C23 5623   2.905   4.434   3.984
  113DPPC   C24 5624   3.021   4.428   3.884
  113DPPC   C25 5625   2.970   4.411   3.741
  113DPPC   C26 5626   2.891   4.534   3.695
  113DPPC   C27 5627   2.858   4.524   3.546
  113DPPC   C28 5628   2.715   4.478   3.519
  113DPPC   C29 5629   2.698   4.459   3.369
  113DPPC   C30 5630   2.557   4.413   3.330
  113DPPC   C31 5631   2.550   4.398   3.178
  113DPPC   C32 5632   2.459   4.861   4.701
  113DPPC   O33 5633   2.332   4.885   4.641
  113DPPC   C34 5634   2.329   4.956   4.526
  113DPPC   O35 5635   2.416   5.038   4.498
  113DPPC   C36 5636   2.198   4.945   4.448
  113DPPC   C37 5637   2.077   4.950   4.541
  113DPPC   C38 5638   1.949   4.943   4.458
  113DPPC   C39 5639   1.829   4.935   4.551
  113DPPC   C40 5640   1.701   4.918   4.470
  113DPPC   C41 5641   1.585   4.893   4.566
  113DPPC   C42 5642   1.454   4.883   4.487
  113DPPC   C43 5643   1.334   4.856   4.579
  113DPPC   C44 5644   1.343   4.720   4.649
  113DPPC   C45 5645   1.344   4.608   4.545
  113DPPC   C46 5646   1.216   4.606   4.463
  113DPPC   C47 5647   1.246   4.547   4.325
  113DPPC   C48 5648   1.119   4.526   4.245
  113DPPC   C49 5649   1.151   4.456   4.113
  113DPPC   C50 5650   1.022   4.406   4.047
  114DPPC    C1 5651   4.397   5.596   5.437
  114DPPC    C2 5652   4.288   5.805   5.430
  114DPPC    C3 5653   4.498   5.789   5.542
  114DPPC    N4 5654   4.419   5.740   5.428
  114DPPC    C5 5655   4.478   5.780   5.299
  114DPPC    C6 5656   4.619   5.723   5.274
  114DPPC    O7 5657   4.686   5.782   5.164
  114DPPC    P8 5658   4.832   5.722   5.159
  114DPPC    O9 5659   4.913   5.815   5.241
  114DPPC   O10 5660   4.827   5.579   5.193
  114DPPC   O11 5661   4.851   5.746   5.005
  114DPPC   C12 5662   4.849   5.626   4.928
  114DPPC   C13 5663   4.879   5.645   4.777
  114DPPC   O14 5664   4.945   5.528   4.719
  114DPPC   C15 5665   4.899   5.400   4.722
  114DPPC   O16 5666   4.800   5.365   4.787
  114DPPC   C17 5667   4.994   5.300   4.656
  114DPPC   C18 5668   5.016   5.335   4.509
  114DPPC   C19 5669   4.891   5.309   4.425
  114DPPC   C20 5670   4.911   5.365   4.284
  114DPPC   C21 5671   4.790   5.339   4.194
  114DPPC   C22 5672   4.813   5.401   4.056
  114DPPC   C23 5673   4.937   5.339   3.992
  114DPPC   C24 5674   4.991   5.426   3.879
  114DPPC   C25 5675   5.117   5.361   3.824
  114DPPC   C26 5676   5.182   5.442   3.712
  114DPPC   C27 5677   5.091   5.454   3.590
  114DPPC   C28 5678   5.173   5.505   3.472
  114DPPC   C29 5679   5.088   5.516   3.346
  114DPPC   C30 5680   5.175   5.557   3.227
  114DPPC   C31 5681   5.088   5.570   3.102
  114DPPC   C32 5682   4.973   5.769   4.773
  114DPPC   O33 5683   4.970   5.849   4.653
  114DPPC   C34 5684   5.026   5.972   4.660
  114DPPC   O35 5685   5.079   6.013   4.763
  114DPPC   C36 5686   5.030   6.050   4.529
  114DPPC   C37 5687   5.175   6.059   4.481
  114DPPC   C38 5688   5.183   6.089   4.332
  114DPPC   C39 5689   5.131   6.228   4.297
  114DPPC   C40 5690   5.141   6.245   4.145
  114DPPC   C41 5691   5.120   6.391   4.105
  114DPPC   C42 5692   5.129   6.406   3.953
  114DPPC   C43 5693   5.107   0.109   3.915
  114DPPC   C44 5694   5.082   0.124   3.765
  114DPPC   C45 5695   5.031   0.264   3.733
  114DPPC   C46 5696   4.904   0.293   3.813
  114DPPC   C47 5697   4.848   0.434   3.789
  114DPPC   C48 5698   4.748   0.470   3.899
  114DPPC   C49 5699   4.630   0.373   3.904
  114DPPC   C50 5700   4.547   0.397   4.030
  115DPPC    C1 5701   1.907   0.379   5.560
  115DPPC    C2 5702   1.744   0.551   5.567
  115DPPC    C3 5703   1.961   0.596   5.483
  115DPPC    N4 5704   1.854   0.495   5.488
  115DPPC    C5 5705   1.804   0.457   5.353
  115DPPC    C6 5706   1.903   0.451   5.232
  115DPPC    O7 5707   2.007   0.353   5.242
  115DPPC    P8 5708   2.116   0.364   5.128
  115DPPC    O9 5709   2.167   0.502   5.140
  115DPPC   O10 5710   2.206   0.246   5.142
  115DPPC   O11 5711   2.027   0.354   4.998
  115DPPC   C12 5712   2.037   0.234   4.921
  115DPPC   C13 5713   1.949   0.229   4.793
  115DPPC   O14 5714   2.017   0.268   4.670
  115DPPC   C15 5715   2.059   0.394   4.641
  115DPPC   O16 5716   2.006   0.496   4.686
  115DPPC   C17 5717   2.171   0.399   4.537
  115DPPC   C18 5718   2.120   0.407   4.394
  115DPPC   C19 5719   2.238   0.383   4.300
  115DPPC   C20 5720   2.204   0.414   4.154
  115DPPC   C21 5721   2.322   0.380   4.063
  115DPPC   C22 5722   2.291   0.426   3.920
  115DPPC   C23 5723   2.395   0.374   3.820
  115DPPC   C24 5724   2.358   0.236   3.767
  115DPPC   C25 5725   2.462   0.194   3.663
  115DPPC   C26 5726   2.428   0.058   3.600
  115DPPC   C27 5727   2.530   0.028   3.490
  115DPPC   C28 5728   2.495   6.342   3.416
  115DPPC   C29 5729   2.585   6.318   3.295
  115DPPC   C30 5730   2.732   6.300   3.334
  115DPPC   C31 5731   2.816   6.265   3.211
  115DPPC   C32 5732   1.811   0.289   4.827
  115DPPC   O33 5733   1.706   0.221   4.756
  115DPPC   C34 5734   1.579   0.237   4.799
  115DPPC   O35 5735   1.552   0.298   4.903
  115DPPC   C36 5736   1.471   0.165   4.718
  115DPPC   C37 5737   1.489   0.184   4.568
  115DPPC   C38 5738   1.364   0.136   4.494
  115DPPC   C39 5739   1.383   0.136   4.343
  115DPPC   C40 5740   1.392   0.276   4.281
  115DPPC   C41 5741   1.418   0.260   4.131
  115DPPC   C42 5742   1.412   0.393   4.056
  115DPPC   C43 5743   1.441   0.370   3.907
  115DPPC   C44 5744   1.431   0.500   3.827
  115DPPC   C45 5745   1.470   0.478   3.681
  115DPPC   C46 5746   1.364   0.401   3.601
  115DPPC   C47 5747   1.414   0.374   3.458
  115DPPC   C48 5748   1.302   0.314   3.372
  115DPPC   C49 5749   1.347   0.285   3.229
  115DPPC   C50 5750   1.229   0.234   3.146
  116DPPC    C1 5751   5.474   0.279   4.902
  116DPPC    C2 5752   5.553   0.481   4.807
  116DPPC    C3 5753   5.376   0.361   4.706
  116DPPC    N4 5754   5.433   0.403   4.834
  116DPPC    C5 5755   5.340   0.488   4.913
  116DPPC    C6 5756   5.200   0.434   4.953
  116DPPC    O7 5757   5.124   0.535   5.021
  116DPPC    P8 5758   4.994   0.588   4.948
  116DPPC    O9 5759   4.918   0.475   4.892
  116DPPC   O10 5760   4.929   0.684   5.039
  116DPPC   O11 5761   5.064   0.674   4.835
  116DPPC   C12 5762   4.992   0.702   4.715
  116DPPC   C13 5763   5.072   0.793   4.619
  116DPPC   O14 5764   5.013   0.804   4.486
  116DPPC   C15 5765   5.012   0.703   4.395
  116DPPC   O16 5766   5.037   0.587   4.427
  116DPPC   C17 5767   4.952   0.741   4.259
  116DPPC   C18 5768   5.015   0.666   4.141
  116DPPC   C19 5769   5.165   0.691   4.126
  116DPPC   C20 5770   5.218   0.628   3.997
  116DPPC   C21 5771   5.166   0.703   3.874
  116DPPC   C22 5772   5.212   0.639   3.744
  116DPPC   C23 5773   5.184   0.732   3.626
  116DPPC   C24 5774   5.229   0.671   3.493
  116DPPC   C25 5775   5.225   0.777   3.383
  116DPPC   C26 5776   5.267   0.718   3.248
  116DPPC   C27 5777   5.284   0.829   3.145
  116DPPC   C28 5778   5.320   0.772   3.007
  116DPPC   C29 5779   5.349   0.884   2.907
  116DPPC   C30 5780   5.370   0.828   2.767
  116DPPC   C31 5781   5.400   0.940   2.667
  116DPPC   C32 5782   5.217   0.738   4.622
  116DPPC   O33 5783   5.318   0.820   4.561
  116DPPC   C34 5784   5.437   0.760   4.540
  116DPPC   O35 5785   5.448   0.638   4.541
  116DPPC   C36 5786   5.553   0.854   4.506
  116DPPC   C37 5787   5.583   0.869   4.357
  116DPPC   C38 5788   5.466   0.933   4.282
  116DPPC   C39 5789   5.514   0.973   4.143
  116DPPC   C40 5790   5.395   1.001   4.052
  116DPPC   C41 5791   5.445   1.052   3.917
  116DPPC   C42 5792   5.331   1.058   3.816
  116DPPC   C43 5793   5.374   1.140   3.694
  116DPPC   C44 5794   5.267   1.135   3.586
  116DPPC   C45 5795   5.304   1.227   3.470
  116DPPC   C46 5796   5.205   1.211   3.355
  116DPPC   C47 5797   5.239   1.308   3.241
  116DPPC   C48 5798   5.149   1.280   3.121
  116DPPC   C49 5799   5.172   1.380   3.007
  116DPPC   C50 5800   5.313   1.371   2.948
  117DPPC    C1 5801   1.049   5.327   5.443
  117DPPC    C2 5802   0.885   5.252   5.284
  117DPPC    C3 5803   0.866   5.202   5.516
  117DPPC    N4 5804   0.961   5.216   5.404
  117DPPC    C5 5805   1.030   5.085   5.387
  117DPPC    C6 5806   1.167   5.073   5.313
  117DPPC    O7 5807   1.171   5.114   5.176
  117DPPC    P8 5808   1.294   5.052   5.098
  117DPPC    O9 5809   1.421   5.098   5.155
  117DPPC   O10 5810   1.275   4.907   5.082
  117DPPC   O11 5811   1.268   5.124   4.960
  117DPPC   C12 5812   1.166   5.069   4.877
  117DPPC   C13 5813   1.142   5.158   4.753
  117DPPC   O14 5814   1.047   5.101   4.658
  117DPPC   C15 5815   0.914   5.125   4.675
  117DPPC   O16 5816   0.870   5.181   4.776
  117DPPC   C17 5817   0.822   5.079   4.561
  117DPPC   C18 5818   0.875   4.957   4.486
  117DPPC   C19 5819   0.781   4.927   4.370
  117DPPC   C20 5820   0.843   4.825   4.275
  117DPPC   C21 5821   0.752   4.805   4.155
  117DPPC   C22 5822   0.734   4.935   4.077
  117DPPC   C23 5823   0.637   4.907   3.963
  117DPPC   C24 5824   0.633   5.020   3.861
  117DPPC   C25 5825   0.547   4.968   3.747
  117DPPC   C26 5826   0.542   5.063   3.629
  117DPPC   C27 5827   0.469   4.991   3.517
  117DPPC   C28 5828   0.451   5.082   3.397
  117DPPC   C29 5829   0.387   5.006   3.281
  117DPPC   C30 5830   0.369   5.100   3.162
  117DPPC   C31 5831   0.316   5.024   3.041
  117DPPC   C32 5832   1.282   5.188   4.696
  117DPPC   O33 5833   1.287   5.263   4.574
  117DPPC   C34 5834   1.411   5.301   4.533
  117DPPC   O35 5835   1.505   5.306   4.611
  117DPPC   C36 5836   1.419   5.343   4.385
  117DPPC   C37 5837   1.401   5.222   4.294
  117DPPC   C38 5838   1.409   5.260   4.146
  117DPPC   C39 5839   1.303   5.364   4.107
  117DPPC   C40 5840   1.286   5.367   3.954
  117DPPC   C41 5841   1.415   5.405   3.882
  117DPPC   C42 5842   1.408   5.379   3.731
  117DPPC   C43 5843   1.399   5.229   3.705
  117DPPC   C44 5844   1.414   5.189   3.558
  117DPPC   C45 5845   1.402   5.036   3.550
  117DPPC   C46 5846   1.446   4.979   3.415
  117DPPC   C47 5847   1.429   4.827   3.418
  117DPPC   C48 5848   1.508   4.756   3.308
  117DPPC   C49 5849   1.657   4.751   3.340
  117DPPC   C50 5850   1.733   4.666   3.238
  118DPPC    C1 5851   0.698   5.793   5.716
  118DPPC    C2 5852   0.545   5.943   5.819
  118DPPC    C3 5853   0.585   5.959   5.587
  118DPPC    N4 5854   0.649   5.932   5.716
  118DPPC    C5 5855   0.754   6.032   5.746
  118DPPC    C6 5856   0.902   6.009   5.701
  118DPPC    O7 5857   0.922   5.999   5.559
  118DPPC    P8 5858   1.076   5.982   5.523
  118DPPC    O9 5859   1.142   6.107   5.562
  118DPPC   O10 5860   1.113   5.849   5.575
  118DPPC   O11 5861   1.059   5.976   5.367
  118DPPC   C12 5862   1.181   5.994   5.296
  118DPPC   C13 5863   1.168   6.008   5.142
  118DPPC   O14 5864   1.178   6.145   5.092
  118DPPC   C15 5865   1.300   6.201   5.075
  118DPPC   O16 5866   1.400   6.153   5.129
  118DPPC   C17 5867   1.305   6.318   4.977
  118DPPC   C18 5868   1.359   6.272   4.840
  118DPPC   C19 5869   1.283   6.154   4.780
  118DPPC   C20 5870   1.353   6.101   4.654
  118DPPC   C21 5871   1.336   6.194   4.534
  118DPPC   C22 5872   1.189   6.196   4.491
  118DPPC   C23 5873   1.166   6.278   4.364
  118DPPC   C24 5874   1.021   6.265   4.320
  118DPPC   C25 5875   0.992   6.343   4.192
  118DPPC   C26 5876   1.010   0.050   4.211
  118DPPC   C27 5877   0.996   0.120   4.077
  118DPPC   C28 5878   1.018   0.271   4.088
  118DPPC   C29 5879   1.003   0.335   3.949
  118DPPC   C30 5880   0.993   0.487   3.958
  118DPPC   C31 5881   0.956   0.546   3.822
  118DPPC   C32 5882   1.039   5.935   5.098
  118DPPC   O33 5883   1.057   5.863   4.975
  118DPPC   C34 5884   0.952   5.801   4.917
  118DPPC   O35 5885   0.837   5.836   4.942
  118DPPC   C36 5886   0.990   5.712   4.798
  118DPPC   C37 5887   1.133   5.658   4.807
  118DPPC   C38 5888   1.182   5.615   4.669
  118DPPC   C39 5889   1.182   5.738   4.578
  118DPPC   C40 5890   1.213   5.700   4.433
  118DPPC   C41 5891   1.207   5.824   4.344
  118DPPC   C42 5892   1.241   5.787   4.200
  118DPPC   C43 5893   1.246   5.912   4.112
  118DPPC   C44 5894   1.288   5.876   3.970
  118DPPC   C45 5895   1.431   5.821   3.966
  118DPPC   C46 5896   1.465   5.771   3.825
  118DPPC   C47 5897   1.607   5.714   3.816
  118DPPC   C48 5898   1.713   5.824   3.813
  118DPPC   C49 5899   1.707   5.902   3.682
  118DPPC   C50 5900   1.813   6.012   3.678
  119DPPC    C1 5901   1.055   1.158   4.909
  119DPPC    C2 5902   1.049   1.041   5.113
  119DPPC    C3 5903   1.102   0.925   4.911
  119DPPC    N4 5904   1.120   1.051   4.985
  119DPPC    C5 5905   1.261   1.090   5.009
  119DPPC    C6 5906   1.370   0.978   5.017
  119DPPC    O7 5907   1.344   0.883   5.121
  119DPPC    P8 5908   1.422   0.745   5.111
  119DPPC    O9 5909   1.564   0.768   5.138
  119DPPC   O10 5910   1.341   0.658   5.199
  119DPPC   O11 5911   1.396   0.704   4.961
  119DPPC   C12 5912   1.348   0.570   4.947
  119DPPC   C13 5913   1.239   0.555   4.839
  119DPPC   O14 5914   1.149   0.445   4.869
  119DPPC   C15 5915   1.029   0.470   4.927
  119DPPC   O16 5916   0.997   0.580   4.973
  119DPPC   C17 5917   0.942   0.346   4.942
  119DPPC   C18 5918   0.824   0.349   4.846
  119DPPC   C19 5919   0.869   0.355   4.700
  119DPPC   C20 5920   0.749   0.374   4.608
  119DPPC   C21 5921   0.796   0.391   4.464
  119DPPC   C22 5922   0.675   0.409   4.373
  119DPPC   C23 5923   0.717   0.422   4.227
  119DPPC   C24 5924   0.593   0.405   4.139
  119DPPC   C25 5925   0.626   0.410   3.990
  119DPPC   C26 5926   0.499   0.379   3.911
  119DPPC   C27 5927   0.516   0.405   3.761
  119DPPC   C28 5928   0.536   0.554   3.733
  119DPPC   C29 5929   0.527   0.582   3.583
  119DPPC   C30 5930   0.536   0.732   3.553
  119DPPC   C31 5931   0.671   0.789   3.596
  119DPPC   C32 5932   1.306   0.547   4.700
  119DPPC   O33 5933   1.220   0.553   4.584
  119DPPC   C34 5934   1.157   0.668   4.552
  119DPPC   O35 5935   1.147   0.764   4.630
  119DPPC   C36 5936   1.101   0.671   4.410
  119DPPC   C37 5937   0.981   0.764   4.392
  119DPPC   C38 5938   0.958   0.792   4.243
  119DPPC   C39 5939   1.086   0.853   4.186
  119DPPC   C40 5940   1.081   0.877   4.035
  119DPPC   C41 5941   1.224   0.898   3.987
  119DPPC   C42 5942   1.229   0.957   3.846
  119DPPC   C43 5943   1.168   0.865   3.740
  119DPPC   C44 5944   1.162   0.945   3.610
  119DPPC   C45 5945   1.117   0.860   3.491
  119DPPC   C46 5946   1.136   0.944   3.365
  119DPPC   C47 5947   1.117   0.858   3.240
  119DPPC   C48 5948   1.163   0.934   3.116
  119DPPC   C49 5949   1.165   0.840   2.996
  119DPPC   C50 5950   1.220   0.909   2.871
  120DPPC    C1 5951   0.725   0.685   5.681
  120DPPC    C2 5952   0.581   0.818   5.820
  120DPPC    C3 5953   0.530   0.591   5.775
  120DPPC    N4 5954   0.586   0.713   5.717
  120DPPC    C5 5955   0.507   0.748   5.597
  120DPPC    C6 5956   0.541   0.885   5.532
  120DPPC    O7 5957   0.456   0.916   5.424
  120DPPC    P8 5958   0.452   1.071   5.401
  120DPPC    O9 5959   0.340   1.120   5.481
  120DPPC   O10 5960   0.588   1.123   5.426
  120DPPC   O11 5961   0.422   1.074   5.246
  120DPPC   C12 5962   0.538   1.062   5.163
  120DPPC   C13 5963   0.500   1.066   5.014
  120DPPC   O14 5964   0.615   1.047   4.925
  120DPPC   C15 5965   0.650   0.924   4.881
  120DPPC   O16 5966   0.623   0.822   4.946
  120DPPC   C17 5967   0.763   0.925   4.778
  120DPPC   C18 5968   0.716   0.930   4.632
  120DPPC   C19 5969   0.634   1.055   4.600
  120DPPC   C20 5970   0.644   1.093   4.452
  120DPPC   C21 5971   0.603   0.977   4.362
  120DPPC   C22 5972   0.610   1.014   4.214
  120DPPC   C23 5973   0.587   0.888   4.131
  120DPPC   C24 5974   0.573   0.916   3.982
  120DPPC   C25 5975   0.448   0.998   3.953
  120DPPC   C26 5976   0.434   1.014   3.802
  120DPPC   C27 5977   0.313   1.098   3.763
  120DPPC   C28 5978   0.301   1.095   3.610
  120DPPC   C29 5979   0.184   1.180   3.560
  120DPPC   C30 5980   0.163   1.156   3.411
  120DPPC   C31 5981   0.045   1.239   3.359
  120DPPC   C32 5982   0.429   1.200   4.987
  120DPPC   O33 5983   0.344   1.187   4.872
  120DPPC   C34 5984   0.295   1.296   4.809
  120DPPC   O35 5985   0.329   1.410   4.839
  120DPPC   C36 5986   0.217   1.263   4.682
  120DPPC   C37 5987   0.314   1.266   4.564
  120DPPC   C38 5988   0.247   1.235   4.430
  120DPPC   C39 5989   0.196   1.091   4.423
  120DPPC   C40 5990   0.161   1.060   4.278
  120DPPC   C41 5991   0.117   0.914   4.263
  120DPPC   C42 5992   0.099   0.883   4.115
  120DPPC   C43 5993   0.038   0.744   4.095
  120DPPC   C44 5994   0.004   0.722   3.948
  120DPPC   C45 5995   6.332   0.836   3.900
  120DPPC   C46 5996   6.283   0.812   3.758
  120DPPC   C47 5997   6.216   0.938   3.704
  120DPPC   C48 5998   6.160   0.910   3.565
  120DPPC   C49 5999   6.109   1.037   3.498
  120DPPC   C50 6000   6.055   1.003   3.360
  121DPPC    C1 6001   5.739   4.702   5.577
  121DPPC    C2 6002   5.770   4.597   5.371
  121DPPC    C3 6003   5.673   4.475   5.551
  121DPPC    N4 6004   5.776   4.574   5.515
  121DPPC    C5 6005   5.911   4.535   5.563
  121DPPC    C6 6006   5.973   4.402   5.512
  121DPPC    O7 6007   6.003   4.407   5.372
  121DPPC    P8 6008   6.055   4.274   5.307
  121DPPC    O9 6009   6.163   4.219   5.390
  121DPPC   O10 6010   5.936   4.193   5.276
  121DPPC   O11 6011   6.114   4.328   5.171
  121DPPC   C12 6012   6.138   4.469   5.158
  121DPPC   C13 6013   6.146   4.505   5.008
  121DPPC   O14 6014   6.172   4.645   4.980
  121DPPC   C15 6015   6.301   4.686   4.965
  121DPPC   O16 6016   6.395   4.622   5.011
  121DPPC   C17 6017   6.318   4.819   4.890
  121DPPC   C18 6018   6.360   4.798   4.744
  121DPPC   C19 6019   6.241   4.808   4.648
  121DPPC   C20 6020   6.286   4.861   4.512
  121DPPC   C21 6021   6.167   4.888   4.420
  121DPPC   C22 6022   6.208   4.960   4.292
  121DPPC   C23 6023   6.090   4.975   4.196
  121DPPC   C24 6024   6.133   5.043   4.066
  121DPPC   C25 6025   6.018   5.055   3.967
  121DPPC   C26 6026   6.066   5.128   3.842
  121DPPC   C27 6027   5.955   5.153   3.739
  121DPPC   C28 6028   6.014   5.232   3.622
  121DPPC   C29 6029   5.912   5.264   3.513
  121DPPC   C30 6030   5.976   5.343   3.399
  121DPPC   C31 6031   6.088   5.264   3.330
  121DPPC   C32 6032   6.013   4.455   4.949
  121DPPC   O33 6033   6.016   4.437   4.807
  121DPPC   C34 6034   5.902   4.389   4.751
  121DPPC   O35 6035   5.808   4.349   4.820
  121DPPC   C36 6036   5.900   4.391   4.598
  121DPPC   C37 6037   5.871   4.533   4.550
  121DPPC   C38 6038   5.849   4.532   4.400
  121DPPC   C39 6039   5.819   4.672   4.345
  121DPPC   C40 6040   5.794   4.658   4.195
  121DPPC   C41 6041   5.753   4.791   4.133
  121DPPC   C42 6042   5.733   4.772   3.983
  121DPPC   C43 6043   5.668   4.897   3.924
  121DPPC   C44 6044   5.653   4.882   3.773
  121DPPC   C45 6045   5.572   4.999   3.719
  121DPPC   C46 6046   5.560   4.987   3.567
  121DPPC   C47 6047   5.475   5.100   3.510
  121DPPC   C48 6048   5.473   5.089   3.358
  121DPPC   C49 6049   5.392   5.204   3.298
  121DPPC   C50 6050   5.399   5.197   3.145
  122DPPC    C1 6051   6.353   5.002   5.598
  122DPPC    C2 6052   6.179   5.105   5.723
  122DPPC    C3 6053   6.211   5.161   5.497
  122DPPC    N4 6054   6.282   5.128   5.621
  122DPPC    C5 6055   6.377   5.231   5.673
  122DPPC    C6 6056   0.019   5.341   5.580
  122DPPC    O7 6057   0.079   5.293   5.459
  122DPPC    P8 6058   0.235   5.315   5.441
  122DPPC    O9 6059   0.267   5.456   5.468
  122DPPC   O10 6060   0.304   5.208   5.516
  122DPPC   O11 6061   0.256   5.291   5.286
  122DPPC   C12 6062   0.149   5.234   5.209
  122DPPC   C13 6063   0.176   5.223   5.056
  122DPPC   O14 6064   0.151   5.092   4.995
  122DPPC   C15 6065   0.238   4.990   5.018
  122DPPC   O16 6066   0.279   4.968   5.131
  122DPPC   C17 6067   0.269   4.898   4.900
  122DPPC   C18 6068   0.412   4.848   4.915
  122DPPC   C19 6069   0.442   4.737   4.814
  122DPPC   C20 6070   0.442   4.793   4.672
  122DPPC   C21 6071   0.436   4.678   4.573
  122DPPC   C22 6072   0.427   4.735   4.432
  122DPPC   C23 6073   0.401   4.622   4.332
  122DPPC   C24 6074   0.387   4.675   4.190
  122DPPC   C25 6075   0.275   4.778   4.179
  122DPPC   C26 6076   0.235   4.795   4.033
  122DPPC   C27 6077   0.178   4.662   3.983
  122DPPC   C28 6078   0.145   4.667   3.834
  122DPPC   C29 6079   0.097   4.529   3.788
  122DPPC   C30 6080   0.061   4.533   3.640
  122DPPC   C31 6081   0.023   4.394   3.588
  122DPPC   C32 6082   0.318   5.274   5.025
  122DPPC   O33 6083   0.329   5.408   4.971
  122DPPC   C34 6084   0.456   5.445   4.938
  122DPPC   O35 6085   0.552   5.377   4.973
  122DPPC   C36 6086   0.471   5.584   4.873
  122DPPC   C37 6087   0.601   5.603   4.794
  122DPPC   C38 6088   0.600   5.530   4.660
  122DPPC   C39 6089   0.738   5.541   4.594
  122DPPC   C40 6090   0.744   5.466   4.461
  122DPPC   C41 6091   0.886   5.472   4.403
  122DPPC   C42 6092   0.899   5.385   4.278
  122DPPC   C43 6093   0.811   5.437   4.163
  122DPPC   C44 6094   0.808   5.337   4.048
  122DPPC   C45 6095   0.720   5.386   3.932
  122DPPC   C46 6096   0.786   5.497   3.850
  122DPPC   C47 6097   0.902   5.445   3.765
  122DPPC   C48 6098   0.854   5.341   3.664
  122DPPC   C49 6099   0.969   5.286   3.579
  122DPPC   C50 6100   0.919   5.174   3.487
  123DPPC    C1 6101   6.396   0.113   5.671
  123DPPC    C2 6102   0.085   0.301   5.769
  123DPPC    C3 6103   6.323   0.331   5.620
  123DPPC    N4 6104   0.024   0.250   5.646
  123DPPC    C5 6105   0.112   0.258   5.527
  123DPPC    C6 6106   0.250   0.188   5.536
  123DPPC    O7 6107   0.319   0.180   5.411
  123DPPC    P8 6108   0.441   0.081   5.411
  123DPPC    O9 6109   0.553   0.159   5.466
  123DPPC   O10 6110   0.401   6.400   5.479
  123DPPC   O11 6111   0.461   0.055   5.256
  123DPPC   C12 6112   0.587   0.000   5.219
  123DPPC   C13 6113   0.593   6.405   5.069
  123DPPC   O14 6114   0.719   6.340   5.030
  123DPPC   C15 6115   0.838   6.405   5.023
  123DPPC   O16 6116   0.862   0.061   5.094
  123DPPC   C17 6117   0.944   6.339   4.935
  123DPPC   C18 6118   0.952   6.401   4.795
  123DPPC   C19 6119   0.817   6.389   4.723
  123DPPC   C20 6120   0.820   6.434   4.578
  123DPPC   C21 6121   0.680   6.414   4.522
  123DPPC   C22 6122   0.669   0.003   4.373
  123DPPC   C23 6123   0.529   6.413   4.325
  123DPPC   C24 6124   0.526   6.406   4.172
  123DPPC   C25 6125   0.411   6.315   4.131
  123DPPC   C26 6126   0.420   6.280   3.983
  123DPPC   C27 6127   0.316   6.174   3.947
  123DPPC   C28 6128   0.173   6.225   3.966
  123DPPC   C29 6129   0.070   6.117   3.934
  123DPPC   C30 6130   0.079   6.000   4.033
  123DPPC   C31 6131   6.402   5.887   3.993
  123DPPC   C32 6132   0.553   0.086   4.986
  123DPPC   O33 6133   0.495   0.051   4.860
  123DPPC   C34 6134   0.451   0.147   4.776
  123DPPC   O35 6135   0.484   0.265   4.789
  123DPPC   C36 6136   0.368   0.095   4.660
  123DPPC   C37 6137   0.246   0.183   4.632
  123DPPC   C38 6138   0.158   0.118   4.525
  123DPPC   C39 6139   0.093   6.434   4.578
  123DPPC   C40 6140   0.076   6.334   4.464
  123DPPC   C41 6141   0.002   6.209   4.509
  123DPPC   C42 6142   0.002   6.108   4.395
  123DPPC   C43 6143   6.315   5.998   4.411
  123DPPC   C44 6144   6.175   6.058   4.404
  123DPPC   C45 6145   6.066   5.951   4.386
  123DPPC   C46 6146   6.080   5.877   4.253
  123DPPC   C47 6147   5.957   5.788   4.230
  123DPPC   C48 6148   5.962   5.714   4.096
  123DPPC   C49 6149   6.072   5.609   4.092
  123DPPC   C50 6150   6.068   5.531   3.960
  124DPPC    C1 6151   0.574   0.464   5.081
  124DPPC    C2 6152   0.375   0.564   5.013
  124DPPC    C3 6153   0.502   0.654   5.198
  124DPPC    N4 6154   0.455   0.532   5.132
  124DPPC    C5 6155   0.384   0.442   5.227
  124DPPC    C6 6156   0.238   0.477   5.265
  124DPPC    O7 6157   0.223   0.602   5.332
  124DPPC    P8 6158   0.075   0.649   5.348
  124DPPC    O9 6159   6.408   0.529   5.352
  124DPPC   O10 6160   0.071   0.753   5.453
  124DPPC   O11 6161   0.056   0.720   5.208
  124DPPC   C12 6162   0.142   0.832   5.189
  124DPPC   C13 6163   0.128   0.896   5.049
  124DPPC   O14 6164   0.231   0.852   4.955
  124DPPC   C15 6165   0.212   0.871   4.821
  124DPPC   O16 6166   0.106   0.912   4.776
  124DPPC   C17 6167   0.324   0.812   4.735
  124DPPC   C18 6168   0.263   0.741   4.614
  124DPPC   C19 6169   0.349   0.631   4.553
  124DPPC   C20 6170   0.262   0.572   4.443
  124DPPC   C21 6171   0.314   0.445   4.376
  124DPPC   C22 6172   0.209   0.405   4.272
  124DPPC   C23 6173   0.244   0.279   4.193
  124DPPC   C24 6174   0.136   0.258   4.088
  124DPPC   C25 6175   0.177   0.151   3.987
  124DPPC   C26 6176   0.084   0.152   3.866
  124DPPC   C27 6177   0.088   0.288   3.796
  124DPPC   C28 6178   0.003   0.291   3.670
  124DPPC   C29 6179   6.416   0.433   3.612
  124DPPC   C30 6180   0.135   0.485   3.572
  124DPPC   C31 6181   0.126   0.629   3.521
  124DPPC   C32 6182   0.129   1.047   5.073
  124DPPC   O33 6183   0.002   1.108   5.051
  124DPPC   C34 6184   6.418   1.244   5.045
  124DPPC   O35 6185   0.091   1.312   5.092
  124DPPC   C36 6186   6.292   1.303   4.982
  124DPPC   C37 6187   6.300   1.301   4.830
  124DPPC   C38 6188   6.237   1.173   4.774
  124DPPC   C39 6189   6.240   1.173   4.622
  124DPPC   C40 6190   6.180   1.304   4.570
  124DPPC   C41 6191   6.131   1.293   4.426
  124DPPC   C42 6192   6.088   1.433   4.382
  124DPPC   C43 6193   6.005   1.432   4.253
  124DPPC   C44 6194   5.979   1.576   4.212
  124DPPC   C45 6195   5.895   1.584   4.085
  124DPPC   C46 6196   5.894   1.727   4.031
  124DPPC   C47 6197   5.829   1.726   3.892
  124DPPC   C48 6198   5.862   1.854   3.814
  124DPPC   C49 6199   5.818   1.834   3.669
  124DPPC   C50 6200   5.855   1.953   3.581
  125DPPC    C1 6201   5.426   5.729   5.584
  125DPPC    C2 6202   5.314   5.543   5.689
  125DPPC    C3 6203   5.236   5.628   5.483
  125DPPC    N4 6204   5.358   5.600   5.561
  125DPPC    C5 6205   5.444   5.505   5.485
  125DPPC    C6 6206   5.572   5.450   5.554
  125DPPC    O7 6207   5.637   5.355   5.471
  125DPPC    P8 6208   5.771   5.290   5.522
  125DPPC    O9 6209   5.852   5.392   5.592
  125DPPC   O10 6210   5.740   5.161   5.588
  125DPPC   O11 6211   5.835   5.255   5.382
  125DPPC   C12 6212   5.762   5.159   5.307
  125DPPC   C13 6213   5.802   5.148   5.158
  125DPPC   O14 6214   5.772   5.013   5.106
  125DPPC   C15 6215   5.845   4.902   5.134
  125DPPC   O16 6216   5.922   4.898   5.231
  125DPPC   C17 6217   5.800   4.775   5.060
  125DPPC   C18 6218   5.767   4.800   4.913
  125DPPC   C19 6219   5.895   4.812   4.830
  125DPPC   C20 6220   5.868   4.876   4.694
  125DPPC   C21 6221   5.821   5.020   4.715
  125DPPC   C22 6222   5.790   5.094   4.586
  125DPPC   C23 6223   5.703   5.213   4.625
  125DPPC   C24 6224   5.676   5.309   4.509
  125DPPC   C25 6225   5.580   5.418   4.554
  125DPPC   C26 6226   5.572   5.530   4.450
  125DPPC   C27 6227   5.483   5.645   4.497
  125DPPC   C28 6228   5.351   5.649   4.419
  125DPPC   C29 6229   5.376   5.670   4.270
  125DPPC   C30 6230   5.246   5.656   4.191
  125DPPC   C31 6231   5.273   5.657   4.040
  125DPPC   C32 6232   5.949   5.190   5.140
  125DPPC   O33 6233   5.981   5.231   5.006
  125DPPC   C34 6234   6.111   5.221   4.969
  125DPPC   O35 6235   6.195   5.167   5.042
  125DPPC   C36 6236   6.142   5.275   4.829
  125DPPC   C37 6237   6.239   5.181   4.759
  125DPPC   C38 6238   6.326   5.258   4.661
  125DPPC   C39 6239   0.034   5.175   4.638
  125DPPC   C40 6240   0.136   5.253   4.556
  125DPPC   C41 6241   0.259   5.166   4.532
  125DPPC   C42 6242   0.350   5.235   4.430
  125DPPC   C43 6243   0.433   5.132   4.356
  125DPPC   C44 6244   0.441   5.166   4.207
  125DPPC   C45 6245   0.301   5.166   4.143
  125DPPC   C46 6246   0.308   5.189   3.992
  125DPPC   C47 6247   0.168   5.184   3.930
  125DPPC   C48 6248   0.177   5.192   3.777
  125DPPC   C49 6249   0.039   5.180   3.713
  125DPPC   C50 6250   0.051   5.168   3.561
  126DPPC    C1 6251   6.376   5.776   5.506
  126DPPC    C2 6252   0.010   5.623   5.328
  126DPPC    C3 6253   0.140   5.816   5.364
  126DPPC    N4 6254   0.003   5.764   5.367
  126DPPC    C5 6255   6.338   5.842   5.273
  126DPPC    C6 6256   6.185   5.813   5.267
  126DPPC    O7 6257   6.125   5.892   5.166
  126DPPC    P8 6258   5.970   5.915   5.169
  126DPPC    O9 6259   5.901   5.788   5.203
  126DPPC   O10 6260   5.958   6.033   5.257
  126DPPC   O11 6261   5.957   5.950   5.016
  126DPPC   C12 6262   5.941   5.835   4.933
  126DPPC   C13 6263   5.998   5.851   4.790
  126DPPC   O14 6264   6.143   5.836   4.778
  126DPPC   C15 6265   6.198   5.712   4.790
  126DPPC   O16 6266   6.137   5.616   4.838
  126DPPC   C17 6267   6.343   5.703   4.744
  126DPPC   C18 6268   6.345   5.664   4.597
  126DPPC   C19 6269   0.071   5.649   4.549
  126DPPC   C20 6270   0.067   5.615   4.400
  126DPPC   C21 6271   0.209   5.607   4.346
  126DPPC   C22 6272   0.203   5.601   4.194
  126DPPC   C23 6273   0.344   5.620   4.139
  126DPPC   C24 6274   0.336   5.646   3.989
  126DPPC   C25 6275   0.466   5.711   3.944
  126DPPC   C26 6276   0.465   5.737   3.794
  126DPPC   C27 6277   0.347   5.827   3.755
  126DPPC   C28 6278   0.361   5.873   3.610
  126DPPC   C29 6279   0.261   5.986   3.586
  126DPPC   C30 6280   0.302   6.068   3.464
  126DPPC   C31 6281   0.233   6.204   3.469
  126DPPC   C32 6282   5.942   5.984   4.735
  126DPPC   O33 6283   5.817   5.963   4.669
  126DPPC   C34 6284   5.732   6.067   4.653
  126DPPC   O35 6285   5.733   6.164   4.729
  126DPPC   C36 6286   5.623   6.041   4.549
  126DPPC   C37 6287   5.675   6.094   4.416
  126DPPC   C38 6288   5.579   6.068   4.300
  126DPPC   C39 6289   5.639   6.132   4.176
  126DPPC   C40 6290   5.556   6.107   4.050
  126DPPC   C41 6291   5.638   6.161   3.933
  126DPPC   C42 6292   5.575   6.137   3.797
  126DPPC   C43 6293   5.690   6.126   3.697
  126DPPC   C44 6294   5.646   6.142   3.552
  126DPPC   C45 6295   5.763   6.113   3.459
  126DPPC   C46 6296   5.883   6.206   3.480
  126DPPC   C47 6297   5.996   6.160   3.388
  126DPPC   C48 6298   6.117   6.253   3.392
  126DPPC   C49 6299   6.219   6.206   3.288
  126DPPC   C50 6300   6.328   6.312   3.271
  127DPPC    C1 6301   5.966   6.356   5.206
  127DPPC    C2 6302   5.971   6.287   4.980
  127DPPC    C3 6303   6.113   0.023   5.049
  127DPPC    N4 6304   6.054   6.338   5.090
  127DPPC    C5 6305   6.159   6.237   5.118
  127DPPC    C6 6306   6.242   6.267   5.245
  127DPPC    O7 6307   6.339   6.170   5.281
  127DPPC    P8 6308   0.016   6.232   5.390
  127DPPC    O9 6309   6.355   6.326   5.470
  127DPPC   O10 6310   0.105   6.129   5.447
  127DPPC   O11 6311   0.101   6.323   5.293
  127DPPC   C12 6312   0.177   6.254   5.194
  127DPPC   C13 6313   0.154   6.311   5.053
  127DPPC   O14 6314   0.234   6.250   4.948
  127DPPC   C15 6315   0.213   6.124   4.903
  127DPPC   O16 6316   0.125   6.049   4.947
  127DPPC   C17 6317   0.297   6.089   4.780
  127DPPC   C18 6318   0.446   6.089   4.812
  127DPPC   C19 6319   0.526   6.074   4.683
  127DPPC   C20 6320   0.671   6.039   4.711
  127DPPC   C21 6321   0.749   6.028   4.579
  127DPPC   C22 6322   0.685   5.926   4.485
  127DPPC   C23 6323   0.749   5.941   4.347
  127DPPC   C24 6324   0.645   5.922   4.236
  127DPPC   C25 6325   0.704   5.969   4.103
  127DPPC   C26 6326   0.824   5.883   4.062
  127DPPC   C27 6327   0.901   5.952   3.949
  127DPPC   C28 6328   0.812   5.981   3.829
  127DPPC   C29 6329   0.882   6.073   3.729
  127DPPC   C30 6330   0.782   6.132   3.629
  127DPPC   C31 6331   0.679   6.220   3.701
  127DPPC   C32 6332   0.180   0.019   5.061
  127DPPC   O33 6333   0.066   0.099   5.021
  127DPPC   C34 6334   0.087   0.232   5.011
  127DPPC   O35 6335   0.197   0.282   5.028
  127DPPC   C36 6336   6.386   0.316   4.964
  127DPPC   C37 6337   0.010   0.397   4.842
  127DPPC   C38 6338   6.326   0.505   4.808
  127DPPC   C39 6339   6.356   0.571   4.674
  127DPPC   C40 6340   6.347   0.469   4.560
  127DPPC   C41 6341   6.253   0.520   4.451
  127DPPC   C42 6342   6.255   0.427   4.329
  127DPPC   C43 6343   6.154   0.475   4.225
  127DPPC   C44 6344   6.169   0.398   4.094
  127DPPC   C45 6345   6.065   0.447   3.993
  127DPPC   C46 6346   6.085   0.383   3.856
  127DPPC   C47 6347   5.987   0.441   3.755
  127DPPC   C48 6348   6.017   0.393   3.613
  127DPPC   C49 6349   6.048   0.512   3.522
  127DPPC   C50 6350   6.081   0.465   3.380
  128DPPC    C1 6351   6.191   0.809   5.009
  128DPPC    C2 6352   6.091   1.003   5.098
  128DPPC    C3 6353   6.110   0.811   5.234
  128DPPC    N4 6354   6.083   0.857   5.097
  128DPPC    C5 6355   5.947   0.819   5.053
  128DPPC    C6 6356   5.900   0.673   5.075
  128DPPC    O7 6357   5.979   0.581   5.001
  128DPPC    P8 6358   5.962   0.429   5.037
  128DPPC    O9 6359   6.047   0.398   5.153
  128DPPC   O10 6360   5.819   0.392   5.039
  128DPPC   O11 6361   6.027   0.369   4.907
  128DPPC   C12 6362   5.954   0.404   4.790
  128DPPC   C13 6363   6.003   0.342   4.657
  128DPPC   O14 6364   5.902   0.356   4.551
  128DPPC   C15 6365   5.778   0.302   4.557
  128DPPC   O16 6366   5.739   0.238   4.656
  128DPPC   C17 6367   5.678   0.353   4.453
  128DPPC   C18 6368   5.744   0.410   4.327
  128DPPC   C19 6369   5.638   0.470   4.235
  128DPPC   C20 6370   5.705   0.539   4.117
  128DPPC   C21 6371   5.604   0.598   4.019
  128DPPC   C22 6372   5.682   0.668   3.907
  128DPPC   C23 6373   5.592   0.709   3.791
  128DPPC   C24 6374   5.679   0.765   3.679
  128DPPC   C25 6375   5.597   0.805   3.557
  128DPPC   C26 6376   5.691   0.854   3.448
  128DPPC   C27 6377   5.615   0.922   3.334
  128DPPC   C28 6378   5.714   0.974   3.230
  128DPPC   C29 6379   5.645   1.050   3.117
  128DPPC   C30 6380   5.750   1.098   3.016
  128DPPC   C31 6381   5.685   1.174   2.900
  128DPPC   C32 6382   6.053   0.199   4.687
  128DPPC   O33 6383   6.116   0.128   4.578
  128DPPC   C34 6384   6.037   0.052   4.499
  128DPPC   O35 6385   5.920   0.025   4.528
  128DPPC   C36 6386   6.109   6.424   4.386
  128DPPC   C37 6387   6.024   6.427   4.259
  128DPPC   C38 6388   6.092   6.354   4.144
  128DPPC   C39 6389   6.006   6.372   4.019
  128DPPC   C40 6390   6.069   6.306   3.896
  128DPPC   C41 6391   6.042   6.155   3.892
  128DPPC   C42 6392   6.112   6.098   3.769
  128DPPC   C43 6393   6.083   5.950   3.749
  128DPPC   C44 6394   6.178   5.895   3.643
  128DPPC   C45 6395   6.168   5.742   3.635
  128DPPC   C46 6396   6.281   5.684   3.551
  128DPPC   C47 6397   6.274   5.732   3.406
  128DPPC   C48 6398   6.382   5.664   3.321
  128DPPC   C49 6399   6.365   5.701   3.174
  128DPPC   C50 6400   0.046   5.624   3.086
  129SOL     OW 6401   5.721   2.025   6.449
  129SOL    HW1 6402   5.718   2.024   6.349
  129SOL    HW2 6403   5.664   1.952   6.485
  130SOL     OW 6404   6.334   4.883   6.360
  130SOL    HW1 6405   6.273   4.916   6.289
  130SOL    HW2 6406   0.009   4.876   6.324
  131SOL     OW 6407   3.576   4.834   4.905
  131SOL    HW1 6408   3.630   4.833   4.989
  131SOL    HW2 6409   3.526   4.921   4.899
  132SOL     OW 6410   3.315   4.675   1.348
  132SOL    HW1 6411   3.291   4.616   1.271
  132SOL    HW2 6412   3.258   4.652   1.427
  133SOL     OW 6413   1.483   4.555   0.229
  133SOL    HW1 6414   1.512   4.591   0.318
  133SOL    HW2 6415   1.517   4.615   0.157
  134SOL     OW 6416   5.151   2.329   4.929
  134SOL    HW1 6417   5.185   2.253   4.873
  134SOL    HW2 6418   5.109   2.293   5.012
  135SOL     OW 6419   1.620   4.313   6.182
  135SOL    HW1 6420   1.582   4.405   6.177
  135SOL    HW2 6421   1.567   4.252   6.124
  136SOL     OW 6422   1.949   1.563   0.362
  136SOL    HW1 6423   2.047   1.578   0.371
  136SOL    HW2 6424   1.931   1.464   0.360
  137SOL     OW 6425   6.243   3.215   0.923
  137SOL    HW1 6426   6.277   3.310   0.921
  137SOL    HW2 6427   6.297   3.159   0.860
  138SOL     OW 6428   4.107   1.005   6.203
  138SOL    HW1 6429   4.032   0.953   6.245
  138SOL    HW2 6430   4.126   0.968   6.112
  139SOL     OW 6431   5.893   5.908   6.103
  139SOL    HW1 6432   5.956   5.846   6.055
  139SOL    HW2 6433   5.889   5.883   6.199
  140SOL     OW 6434   2.295   6.276   1.282
  140SOL    HW1 6435   2.306   6.179   1.307
  140SOL    HW2 6436   2.198   6.301   1.287
  141SOL     OW 6437   3.875   0.203   4.737
  141SOL    HW1 6438   3.885   0.240   4.645
  141SOL    HW2 6439   3.959   0.222   4.789
  142SOL     OW 6440   2.554   3.837   5.699
  142SOL    HW1 6441   2.633   3.816   5.640
  142SOL    HW2 6442   2.473   3.792   5.662
  143SOL     OW 6443   4.679   3.306   5.941
  143SOL    HW1 6444   4.593   3.288   5.893
  143SOL    HW2 6445   4.698   3.230   6.004
  144SOL     OW 6446   1.336   4.759   0.922
  144SOL    HW1 6447   1.388   4.778   1.005
  144SOL    HW2 6448   1.315   4.662   0.916
  145SOL     OW 6449   0.090   4.098   5.491
  145SOL    HW1 6450   0.067   4.001   5.498
  145SOL    HW2 6451   0.188   4.109   5.481
  146SOL     OW 6452   5.212   4.406   6.420
  146SOL    HW1 6453   5.246   4.318   6.452
  146SOL    HW2 6454   5.289   4.464   6.393
  147SOL     OW 6455   2.468   1.253   6.529
  147SOL    HW1 6456   2.511   1.343   6.537
  147SOL    HW2 6457   2.506   1.191   0.001
  148SOL     OW 6458   2.969   0.586   4.771
  148SOL    HW1 6459   3.068   0.596   4.757
  148SOL    HW2 6460   2.925   0.567   4.684
  149SOL     OW 6461   2.289   4.691   1.012
  149SOL    HW1 6462   2.226   4.745   0.956
  149SOL    HW2 6463   2.269   4.593   1.000
  150SOL     OW 6464   4.207   4.732   0.937
  150SOL    HW1 6465   4.275   4.778   0.879
  150SOL    HW2 6466   4.117   4.769   0.917
  151SOL     OW 6467   4.284   6.261   0.963
  151SOL    HW1 6468   4.203   6.305   0.924
  151SOL    HW2 6469   4.261   6.219   1.051
  152SOL     OW 6470   5.637   1.650   0.091
  152SOL    HW1 6471   5.651   1.619   6.593
  152SOL    HW2 6472   5.570   1.590   0.136
  153SOL     OW 6473   0.415   3.965   0.798
  153SOL    HW1 6474   0.497   3.911   0.779
  153SOL    HW2 6475   0.437   4.062   0.793
  154SOL     OW 6476   1.128   5.505   5.849
  154SOL    HW1 6477   1.108   5.552   5.935
  154SOL    HW2 6478   1.067   5.427   5.838
  155SOL     OW 6479   4.387   6.084   4.909
  155SOL    HW1 6480   4.457   6.013   4.911
  155SOL    HW2 6481   4.362   6.103   4.814
  156SOL     OW 6482   1.805   2.955   1.349
  156SOL    HW1 6483   1.887   2.937   1.404
  156SOL    HW2 6484   1.732   2.893   1.379
  157SOL     OW 6485   2.787   3.584   4.730
  157SOL    HW1 6486   2.741   3.672   4.717
  157SOL    HW2 6487   2.876   3.586   4.685
  158SOL     OW 6488   0.624   6.068   0.046
  158SOL    HW1 6489   0.618   6.115   0.134
  158SOL    HW2 6490   0.572   6.119   6.574
  159SOL     OW 6491   4.095   4.078   5.902
  159SOL    HW1 6492   4.134   4.053   5.814
  159SOL    HW2 6493   4.079   3.995   5.956
  160SOL     OW 6494   2.759   3.166   0.318
  160SOL    HW1 6495   2.751   3.233   0.245
  160SOL    HW2 6496   2.733   3.209   0.405
  161SOL     OW 6497   3.449   3.487   0.914
  161SOL    HW1 6498   3.524   3.506   0.851
  161SOL    HW2 6499   3.485   3.477   1.007
  162SOL     OW 6500   0.615   5.021   6.354
  162SOL    HW1 6501   0.659   4.966   6.283
  162SOL    HW2 6502   0.626   4.976   6.442
  163SOL     OW 6503   1.792   6.161   1.053
  163SOL    HW1 6504   1.794   6.061   1.056
  163SOL    HW2 6505   1.718   6.195   1.112
  164SOL     OW 6506   2.957   3.533   0.117
  164SOL    HW1 6507   2.968   3.603   0.187
  164SOL    HW2 6508   3.031   3.541   0.050
  165SOL     OW 6509   2.605   0.726   6.126
  165SOL    HW1 6510   2.557   0.676   6.055
  165SOL    HW2 6511   2.598   0.677   6.213
  166SOL     OW 6512   2.211   2.686   6.309
  166SOL    HW1 6513   2.237   2.697   6.405
  166SOL    HW2 6514   2.215   2.775   6.263
  167SOL     OW 6515   2.095   3.782   6.154
  167SOL    HW1 6516   2.101   3.694   6.201
  167SOL    HW2 6517   2.186   3.810   6.124
  168SOL     OW 6518   4.061   4.859   1.357
  168SOL    HW1 6519   3.976   4.847   1.306
  168SOL    HW2 6520   4.044   4.847   1.455
  169SOL     OW 6521   3.372   1.079   6.556
  169SOL    HW1 6522   3.467   1.109   6.561
  169SOL    HW2 6523   3.325   1.127   6.482
  170SOL     OW 6524   3.406   5.194   0.546
  170SOL    HW1 6525   3.311   5.163   0.553
  170SOL    HW2 6526   3.416   5.283   0.591
  171SOL     OW 6527   6.291   2.412   0.026
  171SOL    HW1 6528   6.255   2.464   6.545
  171SOL    HW2 6529   6.359   2.468   0.074
  172SOL     OW 6530   1.868   0.570   0.036
  172SOL    HW1 6531   1.950   0.621   0.062
  172SOL    HW2 6532   1.820   0.619   6.560
  173SOL     OW 6533   1.131   6.263   1.168
  173SOL    HW1 6534   1.088   6.204   1.237
  173SOL    HW2 6535   1.209   6.310   1.209
  174SOL     OW 6536   0.183   4.206   1.105
  174SOL    HW1 6537   0.198   4.245   1.196
  174SOL    HW2 6538   0.272   4.192   1.060
  175SOL     OW 6539   0.634   3.419   6.470
  175SOL    HW1 6540   0.659   3.336   6.420
  175SOL    HW2 6541   0.680   3.420   6.559
  176SOL     OW 6542   3.683   3.821   6.144
  176SOL    HW1 6543   3.690   3.814   6.045
  176SOL    HW2 6544   3.729   3.905   6.175
  177SOL     OW 6545   5.841   0.358   0.385
  177SOL    HW1 6546   5.854   0.457   0.376
  177SOL    HW2 6547   5.837   0.317   0.294
  178SOL     OW 6548   2.212   1.263   0.394
  178SOL    HW1 6549   2.211   1.241   0.297
  178SOL    HW2 6550   2.271   1.342   0.410
  179SOL     OW 6551   5.581   2.407   0.847
  179SOL    HW1 6552   5.487   2.407   0.882
  179SOL    HW2 6553   5.645   2.393   0.923
  180SOL     OW 6554   4.040   5.532   5.345
  180SOL    HW1 6555   4.097   5.458   5.380
  180SOL    HW2 6556   3.962   5.546   5.405
  181SOL     OW 6557   4.654   2.799   5.780
  181SOL    HW1 6558   4.684   2.878   5.727
  181SOL    HW2 6559   4.688   2.806   5.874
  182SOL     OW 6560   3.945   2.145   5.157
  182SOL    HW1 6561   4.007   2.084   5.108
  182SOL    HW2 6562   3.957   2.133   5.256
  183SOL     OW 6563   2.444   0.992   0.645
  183SOL    HW1 6564   2.538   1.014   0.671
  183SOL    HW2 6565   2.396   0.953   0.723
  184SOL     OW 6566   4.449   1.647   6.557
  184SOL    HW1 6567   4.365   1.601   6.586
  184SOL    HW2 6568   4.503   1.670   0.042
  185SOL     OW 6569   3.608   5.778   6.266
  185SOL    HW1 6570   3.707   5.766   6.262
  185SOL    HW2 6571   3.585   5.872   6.241
  186SOL     OW 6572   5.180   0.049   0.566
  186SOL    HW1 6573   5.107   0.111   0.595
  186SOL    HW2 6574   5.146   6.436   0.490
  187SOL     OW 6575   0.265   4.693   6.541
  187SOL    HW1 6576   0.269   4.776   6.486
  187SOL    HW2 6577   0.217   4.622   6.490
  188SOL     OW 6578   2.362   0.707   1.870
  188SOL    HW1 6579   2.319   0.728   1.957
  188SOL    HW2 6580   2.448   0.758   1.862
  189SOL     OW 6581   2.987   6.027   1.076
  189SOL    HW1 6582   3.005   6.059   0.983
  189SOL    HW2 6583   3.001   5.928   1.081
  190SOL     OW 6584   5.377   6.059   5.098
  190SOL    HW1 6585   5.372   6.030   5.003
  190SOL    HW2 6586   5.307   6.011   5.151
  191SOL     OW 6587   0.231   3.177   0.620
  191SOL    HW1 6588   0.267   3.267   0.647
  191SOL    HW2 6589   0.307   3.112   0.613
  192SOL     OW 6590   1.881   4.245   6.263
  192SOL    HW1 6591   1.932   4.312   6.209
  192SOL    HW2 6592   1.784   4.253   6.243
  193SOL     OW 6593   2.018   0.581   0.441
  193SOL    HW1 6594   2.034   0.502   0.383
  193SOL    HW2 6595   1.924   0.612   0.430
  194SOL     OW 6596   0.892   2.782   5.807
  194SOL    HW1 6597   0.920   2.839   5.730
  194SOL    HW2 6598   0.814   2.726   5.780
  195SOL     OW 6599   0.987   6.342   5.469
  195SOL    HW1 6600   1.064   6.286   5.502
  195SOL    HW2 6601   0.925   6.286   5.416
  196SOL     OW 6602   4.831   2.068   0.104
  196SOL    HW1 6603   4.812   2.001   0.032
  196SOL    HW2 6604   4.804   2.159   0.073
  197SOL     OW 6605   5.179   3.344   4.965
  197SOL    HW1 6606   5.256   3.407   4.976
  197SOL    HW2 6607   5.105   3.391   4.916
  198SOL     OW 6608   3.525   6.419   4.916
  198SOL    HW1 6609   3.530   0.074   4.930
  198SOL    HW2 6610   3.462   6.399   4.841
  199SOL     OW 6611   1.412   0.410   5.382
  199SOL    HW1 6612   1.468   0.364   5.313
  199SOL    HW2 6613   1.348   0.473   5.336
  200SOL     OW 6614   4.425   1.424   0.347
  200SOL    HW1 6615   4.490   1.360   0.386
  200SOL    HW2 6616   4.349   1.438   0.410
  201SOL     OW 6617   4.880   1.036   1.031
  201SOL    HW1 6618   4.897   0.937   1.030
  201SOL    HW2 6619   4.946   1.080   1.092
  202SOL     OW 6620   0.792   0.965   0.495
  202SOL    HW1 6621   0.866   0.948   0.430
  202SOL    HW2 6622   0.810   0.915   0.580
  203SOL     OW 6623   0.884   3.648   1.305
  203SOL    HW1 6624   0.799   3.644   1.358
  203SOL    HW2 6625   0.960   3.675   1.364
  204SOL     OW 6626   1.065   0.289   0.592
  204SOL    HW1 6627   0.988   0.260   0.650
  204SOL    HW2 6628   1.030   0.319   0.503
  205SOL     OW 6629   2.194   1.961   0.263
  205SOL    HW1 6630   2.253   1.912   0.199
  205SOL    HW2 6631   2.210   2.059   0.254
  206SOL     OW 6632   1.635   4.162   1.577
  206SOL    HW1 6633   1.680   4.106   1.647
  206SOL    HW2 6634   1.536   4.164   1.595
  207SOL     OW 6635   2.920   5.667   5.258
  207SOL    HW1 6636   2.981   5.641   5.183
  207SOL    HW2 6637   2.826   5.669   5.224
  208SOL     OW 6638   0.979   2.331   5.649
  208SOL    HW1 6639   0.889   2.290   5.666
  208SOL    HW2 6640   1.009   2.305   5.557
  209SOL     OW 6641   1.475   5.246   6.003
  209SOL    HW1 6642   1.402   5.229   6.070
  209SOL    HW2 6643   1.460   5.334   5.959
  210SOL     OW 6644   3.990   2.941   0.141
  210SOL    HW1 6645   3.997   2.842   0.154
  210SOL    HW2 6646   4.036   2.967   0.055
  211SOL     OW 6647   0.694   4.533   5.719
  211SOL    HW1 6648   0.785   4.568   5.742
  211SOL    HW2 6649   0.701   4.436   5.696
  212SOL     OW 6650   0.121   1.862   5.696
  212SOL    HW1 6651   0.031   1.842   5.734
  212SOL    HW2 6652   0.130   1.960   5.679
  213SOL     OW 6653   4.521   1.559   6.099
  213SOL    HW1 6654   4.471   1.602   6.174
  213SOL    HW2 6655   4.618   1.583   6.106
  214SOL     OW 6656   2.885   2.628   5.650
  214SOL    HW1 6657   2.970   2.652   5.698
  214SOL    HW2 6658   2.894   2.651   5.553
  215SOL     OW 6659   2.159   1.811   0.680
  215SOL    HW1 6660   2.249   1.801   0.723
  215SOL    HW2 6661   2.108   1.726   0.688
  216SOL     OW 6662   5.001   3.938   0.967
  216SOL    HW1 6663   5.014   3.897   1.058
  216SOL    HW2 6664   5.061   3.892   0.901
  217SOL     OW 6665   0.747   2.083   5.953
  217SOL    HW1 6666   0.707   2.097   6.043
  217SOL    HW2 6667   0.843   2.057   5.963
  218SOL     OW 6668   1.981   1.623   6.525
  218SOL    HW1 6669   1.979   1.717   6.561
  218SOL    HW2 6670   2.066   1.578   6.552
  219SOL     OW 6671   1.076   0.181   6.510
  219SOL    HW1 6672   0.988   0.144   6.481
  219SOL    HW2 6673   1.066   0.279   6.529
  220SOL     OW 6674   1.353   6.132   0.858
  220SOL    HW1 6675   1.449   6.139   0.830
  220SOL    HW2 6676   1.339   6.048   0.910
  221SOL     OW 6677   3.476   0.408   0.679
  221SOL    HW1 6678   3.437   0.494   0.710
  221SOL    HW2 6679   3.413   0.333   0.700
  222SOL     OW 6680   2.424   5.792   0.708
  222SOL    HW1 6681   2.435   5.705   0.755
  222SOL    HW2 6682   2.403   5.775   0.611
  223SOL     OW 6683   1.975   5.565   5.741
  223SOL    HW1 6684   1.940   5.538   5.831
  223SOL    HW2 6685   1.899   5.579   5.678
  224SOL     OW 6686   4.715   4.907   0.231
  224SOL    HW1 6687   4.801   4.911   0.282
  224SOL    HW2 6688   4.734   4.894   0.134
  225SOL     OW 6689   5.661   5.802   6.501
  225SOL    HW1 6690   5.620   5.718   6.536
  225SOL    HW2 6691   5.637   5.878   6.561
  226SOL     OW 6692   0.556   6.120   1.304
  226SOL    HW1 6693   0.584   6.057   1.232
  226SOL    HW2 6694   0.593   6.211   1.283
  227SOL     OW 6695   4.154   5.372   6.162
  227SOL    HW1 6696   4.148   5.392   6.260
  227SOL    HW2 6697   4.068   5.394   6.117
  228SOL     OW 6698   2.155   5.176   0.005
  228SOL    HW1 6699   2.238   5.232   0.008
  228SOL    HW2 6700   2.171   5.096   6.544
  229SOL     OW 6701   5.019   6.297   6.017
  229SOL    HW1 6702   5.000   6.199   6.027
  229SOL    HW2 6703   5.117   6.312   6.010
  230SOL     OW 6704   1.402   0.653   6.352
  230SOL    HW1 6705   1.459   0.728   6.387
  230SOL    HW2 6706   1.449   0.608   6.276
  231SOL     OW 6707   4.771   5.525   6.412
  231SOL    HW1 6708   4.672   5.524   6.401
  231SOL    HW2 6709   4.812   5.460   6.348
  232SOL     OW 6710   1.320   3.128   0.036
  232SOL    HW1 6711   1.265   3.189   0.093
  232SOL    HW2 6712   1.261   3.057   6.594
  233SOL     OW 6713   5.931   3.958   0.007
  233SOL    HW1 6714   6.002   3.914   6.548
  233SOL    HW2 6715   5.932   4.056   6.587
  234SOL     OW 6716   0.644   4.995   5.410
  234SOL    HW1 6717   0.691   4.969   5.326
  234SOL    HW2 6718   0.545   4.997   5.395
  235SOL     OW 6719   1.286   3.765   0.832
  235SOL    HW1 6720   1.229   3.822   0.773
  235SOL    HW2 6721   1.303   3.813   0.919
  236SOL     OW 6722   0.743   2.322   6.321
  236SOL    HW1 6723   0.777   2.302   6.413
  236SOL    HW2 6724   0.661   2.378   6.326
  237SOL     OW 6725   2.403   3.427   5.887
  237SOL    HW1 6726   2.419   3.526   5.882
  237SOL    HW2 6727   2.306   3.408   5.872
  238SOL     OW 6728   0.237   2.891   1.002
  238SOL    HW1 6729   0.300   2.968   0.996
  238SOL    HW2 6730   0.228   2.863   1.097
  239SOL     OW 6731   2.673   4.842   0.232
  239SOL    HW1 6732   2.574   4.832   0.241
  239SOL    HW2 6733   2.717   4.824   0.320
  240SOL     OW 6734   1.438   1.636   5.970
  240SOL    HW1 6735   1.393   1.721   5.940
  240SOL    HW2 6736   1.379   1.558   5.948
  241SOL     OW 6737   3.614   3.561   1.546
  241SOL    HW1 6738   3.696   3.592   1.498
  241SOL    HW2 6739   3.598   3.464   1.524
  242SOL     OW 6740   5.183   2.607   0.652
  242SOL    HW1 6741   5.232   2.587   0.736
  242SOL    HW2 6742   5.225   2.556   0.576
  243SOL     OW 6743   0.400   3.686   0.065
  243SOL    HW1 6744   0.324   3.724   0.118
  243SOL    HW2 6745   0.399   3.586   0.072
  244SOL     OW 6746   3.817   5.825   1.307
  244SOL    HW1 6747   3.878   5.865   1.239
  244SOL    HW2 6748   3.811   5.886   1.386
  245SOL     OW 6749   5.278   1.717   5.542
  245SOL    HW1 6750   5.248   1.769   5.462
  245SOL    HW2 6751   5.234   1.627   5.541
  246SOL     OW 6752   2.392   1.826   5.536
  246SOL    HW1 6753   2.427   1.909   5.578
  246SOL    HW2 6754   2.380   1.756   5.607
  247SOL     OW 6755   3.245   2.562   6.537
  247SOL    HW1 6756   3.290   2.531   6.453
  247SOL    HW2 6757   3.243   2.662   6.538
  248SOL     OW 6758   3.822   4.042   6.227
  248SOL    HW1 6759   3.903   4.089   6.262
  248SOL    HW2 6760   3.754   4.110   6.199
  249SOL     OW 6761   1.528   3.087   0.732
  249SOL    HW1 6762   1.496   2.993   0.743
  249SOL    HW2 6763   1.534   3.130   0.822
  250SOL     OW 6764   3.084   5.398   6.586
  250SOL    HW1 6765   3.085   5.312   0.041
  250SOL    HW2 6766   3.049   5.382   6.494
  251SOL     OW 6767   1.398   3.206   5.203
  251SOL    HW1 6768   1.373   3.118   5.243
  251SOL    HW2 6769   1.475   3.193   5.140
  252SOL     OW 6770   2.795   3.938   1.130
  252SOL    HW1 6771   2.773   3.969   1.223
  252SOL    HW2 6772   2.842   3.850   1.134
  253SOL     OW 6773   4.273   4.780   6.080
  253SOL    HW1 6774   4.258   4.872   6.042
  253SOL    HW2 6775   4.190   4.750   6.127
  254SOL     OW 6776   6.324   0.718   0.696
  254SOL    HW1 6777   6.273   0.708   0.611
  254SOL    HW2 6778   6.395   0.647   0.701
  255SOL     OW 6779   6.377   6.333   6.380
  255SOL    HW1 6780   6.360   6.243   6.419
  255SOL    HW2 6781   0.048   6.334   6.335
  256SOL     OW 6782   6.114   4.791   1.356
  256SOL    HW1 6783   6.116   4.877   1.305
  256SOL    HW2 6784   6.142   4.808   1.450
  257SOL     OW 6785   5.985   2.017   0.614
  257SOL    HW1 6786   6.080   2.043   0.629
  257SOL    HW2 6787   5.957   2.044   0.522
  258SOL     OW 6788   4.602   5.124   0.653
  258SOL    HW1 6789   4.507   5.154   0.664
  258SOL    HW2 6790   4.613   5.081   0.563
  259SOL     OW 6791   4.424   0.152   5.765
  259SOL    HW1 6792   4.481   0.233   5.778
  259SOL    HW2 6793   4.367   0.165   5.683
  260SOL     OW 6794   4.203   3.857   0.123
  260SOL    HW1 6795   4.130   3.903   0.073
  260SOL    HW2 6796   4.194   3.874   0.221
  261SOL     OW 6797   5.772   0.118   5.080
  261SOL    HW1 6798   5.764   0.077   4.988
  261SOL    HW2 6799   5.793   0.215   5.071
  262SOL     OW 6800   4.594   4.230   6.240
  262SOL    HW1 6801   4.668   4.266   6.184
  262SOL    HW2 6802   4.619   4.237   6.337
  263SOL     OW 6803   4.146   1.844   1.061
  263SOL    HW1 6804   4.102   1.930   1.036
  263SOL    HW2 6805   4.192   1.854   1.149
  264SOL     OW 6806   4.787   2.390   0.016
  264SOL    HW1 6807   4.842   2.376   0.099
  264SOL    HW2 6808   4.695   2.354   0.031
  265SOL     OW 6809   1.722   2.971   1.095
  265SOL    HW1 6810   1.675   2.885   1.076
  265SOL    HW2 6811   1.759   2.969   1.187
  266SOL     OW 6812   4.140   5.208   2.052
  266SOL    HW1 6813   4.159   5.298   2.093
  266SOL    HW2 6814   4.135   5.139   2.125
  267SOL     OW 6815   5.925   5.513   5.251
  267SOL    HW1 6816   5.923   5.611   5.231
  267SOL    HW2 6817   5.844   5.470   5.211
  268SOL     OW 6818   5.550   4.561   1.135
  268SOL    HW1 6819   5.566   4.468   1.104
  268SOL    HW2 6820   5.594   4.574   1.224
  269SOL     OW 6821   6.315   4.708   1.173
  269SOL    HW1 6822   6.248   4.738   1.241
  269SOL    HW2 6823   6.279   4.630   1.122
  270SOL     OW 6824   1.050   2.773   5.441
  270SOL    HW1 6825   1.133   2.736   5.483
  270SOL    HW2 6826   0.982   2.700   5.432
  271SOL     OW 6827   1.613   4.326   6.558
  271SOL    HW1 6828   1.576   4.308   0.052
  271SOL    HW2 6829   1.668   4.410   6.560
  272SOL     OW 6830   1.465   0.096   1.567
  272SOL    HW1 6831   1.515   0.018   1.605
  272SOL    HW2 6832   1.465   0.171   1.633
  273SOL     OW 6833   2.594   4.539   0.562
  273SOL    HW1 6834   2.580   4.550   0.464
  273SOL    HW2 6835   2.574   4.445   0.588
  274SOL     OW 6836   0.478   0.731   6.573
  274SOL    HW1 6837   0.434   0.645   6.544
  274SOL    HW2 6838   0.428   0.769   0.054
  275SOL     OW 6839   2.771   3.847   0.698
  275SOL    HW1 6840   2.704   3.788   0.651
  275SOL    HW2 6841   2.785   3.930   0.644
  276SOL     OW 6842   2.632   0.173   5.078
  276SOL    HW1 6843   2.665   0.086   5.042
  276SOL    HW2 6844   2.620   0.238   5.002
  277SOL     OW 6845   5.697   2.378   0.099
  277SOL    HW1 6846   5.663   2.290   0.132
  277SOL    HW2 6847   5.659   2.396   0.008
  278SOL     OW 6848   2.282   4.390   6.228
  278SOL    HW1 6849   2.290   4.304   6.178
  278SOL    HW2 6850   2.257   4.463   6.165
  279SOL     OW 6851   1.159   6.399   6.139
  279SOL    HW1 6852   1.238   6.375   6.083
  279SOL    HW2 6853   1.113   0.035   6.099
  280SOL     OW 6854   0.420   2.282   2.000
  280SOL    HW1 6855   0.442   2.217   2.072
  280SOL    HW2 6856   0.498   2.293   1.938
  281SOL     OW 6857   5.539   4.183   1.545
  281SOL    HW1 6858   5.610   4.162   1.612
  281SOL    HW2 6859   5.449   4.171   1.587
  282SOL     OW 6860   0.569   2.025   1.117
  282SOL    HW1 6861   0.618   2.058   1.198
  282SOL    HW2 6862   0.584   1.927   1.107
  283SOL     OW 6863   5.153   4.320   5.823
  283SOL    HW1 6864   5.191   4.319   5.730
  283SOL    HW2 6865   5.217   4.366   5.884
  284SOL     OW 6866   4.036   5.127   0.444
  284SOL    HW1 6867   3.992   5.216   0.434
  284SOL    HW2 6868   4.012   5.069   0.366
  285SOL     OW 6869   1.262   4.329   0.765
  285SOL    HW1 6870   1.288   4.379   0.848
  285SOL    HW2 6871   1.342   4.284   0.727
  286SOL     OW 6872   3.667   2.899   5.764
  286SOL    HW1 6873   3.663   2.972   5.695
  286SOL    HW2 6874   3.611   2.822   5.735
  287SOL     OW 6875   4.189   3.257   1.011
  287SOL    HW1 6876   4.172   3.162   1.039
  287SOL    HW2 6877   4.274   3.289   1.052
  288SOL     OW 6878   5.650   3.162   1.251
  288SOL    HW1 6879   5.709   3.199   1.322
  288SOL    HW2 6880   5.557   3.153   1.286
  289SOL     OW 6881   0.480   5.802   1.660
  289SOL    HW1 6882   0.522   5.886   1.693
  289SOL    HW2 6883   0.550   5.739   1.628
  290SOL     OW 6884   4.193   0.820   6.518
  290SOL    HW1 6885   4.242   0.825   0.009
  290SOL    HW2 6886   4.226   0.892   6.457
  291SOL     OW 6887   4.900   0.366   4.297
  291SOL    HW1 6888   4.960   0.286   4.299
  291SOL    HW2 6889   4.953   0.448   4.317
  292SOL     OW 6890   3.721   5.757   5.961
  292SOL    HW1 6891   3.752   5.666   5.931
  292SOL    HW2 6892   3.627   5.750   5.993
  293SOL     OW 6893   4.934   1.903   5.680
  293SOL    HW1 6894   4.844   1.892   5.723
  293SOL    HW2 6895   5.004   1.861   5.738
  294SOL     OW 6896   1.998   2.945   5.286
  294SOL    HW1 6897   2.096   2.927   5.271
  294SOL    HW2 6898   1.971   2.907   5.375
  295SOL     OW 6899   3.956   3.099   0.389
  295SOL    HW1 6900   3.909   3.030   0.444
  295SOL    HW2 6901   3.979   3.060   0.300
  296SOL     OW 6902   5.218   3.799   0.832
  296SOL    HW1 6903   5.194   3.739   0.908
  296SOL    HW2 6904   5.245   3.744   0.753
  297SOL     OW 6905   5.688   1.409   5.872
  297SOL    HW1 6906   5.685   1.321   5.919
  297SOL    HW2 6907   5.722   1.396   5.779
  298SOL     OW 6908   3.751   5.130   6.343
  298SOL    HW1 6909   3.661   5.121   6.387
  298SOL    HW2 6910   3.794   5.215   6.374
  299SOL     OW 6911   2.889   4.295   0.775
  299SOL    HW1 6912   2.859   4.210   0.818
  299SOL    HW2 6913   2.907   4.363   0.846
  300SOL     OW 6914   5.275   2.923   0.692
  300SOL    HW1 6915   5.302   3.009   0.648
  300SOL    HW2 6916   5.200   2.882   0.641
  301SOL     OW 6917   4.831   0.311   6.184
  301SOL    HW1 6918   4.811   0.242   6.114
  301SOL    HW2 6919   4.747   0.337   6.230
  302SOL     OW 6920   5.859   1.161   0.958
  302SOL    HW1 6921   5.810   1.137   1.042
  302SOL    HW2 6922   5.897   1.078   0.917
  303SOL     OW 6923   5.705   0.937   0.020
  303SOL    HW1 6924   5.717   1.035   0.010
  303SOL    HW2 6925   5.611   0.916   0.046
  304SOL     OW 6926   4.010   3.980   6.564
  304SOL    HW1 6927   3.998   4.077   6.542
  304SOL    HW2 6928   4.021   3.928   6.480
  305SOL     OW 6929   4.851   4.262   1.620
  305SOL    HW1 6930   4.935   4.266   1.673
  305SOL    HW2 6931   4.797   4.344   1.638
  306SOL     OW 6932   0.680   2.668   5.626
  306SOL    HW1 6933   0.631   2.740   5.576
  306SOL    HW2 6934   0.747   2.625   5.566
  307SOL     OW 6935   1.021   3.342   1.604
  307SOL    HW1 6936   1.061   3.310   1.690
  307SOL    HW2 6937   0.924   3.320   1.602
  308SOL     OW 6938   2.728   0.337   5.279
  308SOL    HW1 6939   2.680   0.277   5.215
  308SOL    HW2 6940   2.827   0.332   5.261
  309SOL     OW 6941   5.576   2.327   6.399
  309SOL    HW1 6942   5.631   2.248   6.426
  309SOL    HW2 6943   5.482   2.298   6.382
  310SOL     OW 6944   3.773   3.858   5.862
  310SOL    HW1 6945   3.776   3.851   5.762
  310SOL    HW2 6946   3.822   3.779   5.901
  311SOL     OW 6947   5.126   5.170   5.765
  311SOL    HW1 6948   5.092   5.106   5.696
  311SOL    HW2 6949   5.094   5.143   5.855
  312SOL     OW 6950   3.852   6.209   0.274
  312SOL    HW1 6951   3.903   6.237   0.193
  312SOL    HW2 6952   3.912   6.212   0.354
  313SOL     OW 6953   2.460   5.297   5.950
  313SOL    HW1 6954   2.412   5.214   5.979
  313SOL    HW2 6955   2.524   5.275   5.877
  314SOL     OW 6956   5.165   1.799   5.302
  314SOL    HW1 6957   5.187   1.893   5.275
  314SOL    HW2 6958   5.074   1.775   5.267
  315SOL     OW 6959   0.352   2.942   6.252
  315SOL    HW1 6960   0.416   2.948   6.176
  315SOL    HW2 6961   0.268   2.898   6.222
  316SOL     OW 6962   2.799   0.873   0.344
  316SOL    HW1 6963   2.840   0.790   0.308
  316SOL    HW2 6964   2.761   0.927   0.268
  317SOL     OW 6965   5.332   3.824   0.476
  317SOL    HW1 6966   5.357   3.741   0.525
  317SOL    HW2 6967   5.321   3.899   0.541
  318SOL     OW 6968   1.234   5.594   5.616
  318SOL    HW1 6969   1.202   5.688   5.603
  318SOL    HW2 6970   1.195   5.556   5.700
  319SOL     OW 6971   1.453   5.378   5.269
  319SOL    HW1 6972   1.439   5.418   5.178
  319SOL    HW2 6973   1.456   5.279   5.261
  320SOL     OW 6974   2.310   0.891   6.100
  320SOL    HW1 6975   2.403   0.868   6.127
  320SOL    HW2 6976   2.264   0.938   6.176
  321SOL     OW 6977   3.095   4.668   0.035
  321SOL    HW1 6978   3.086   4.664   0.134
  321SOL    HW2 6979   3.057   4.754   0.001
  322SOL     OW 6980   6.312   2.272   0.839
  322SOL    HW1 6981   6.273   2.363   0.824
  322SOL    HW2 6982   6.398   2.281   0.889
  323SOL     OW 6983   5.924   1.407   6.571
  323SOL    HW1 6984   5.962   1.349   6.498
  323SOL    HW2 6985   5.825   1.400   6.571
  324SOL     OW 6986   5.843   1.776   6.095
  324SOL    HW1 6987   5.893   1.740   6.016
  324SOL    HW2 6988   5.889   1.749   6.179
  325SOL     OW 6989   1.740   5.668   0.684
  325SOL    HW1 6990   1.674   5.717   0.742
  325SOL    HW2 6991   1.829   5.712   0.690
  326SOL     OW 6992   6.247   1.155   5.710
  326SOL    HW1 6993   6.340   1.183   5.688
  326SOL    HW2 6994   6.190   1.235   5.727
  327SOL     OW 6995   2.901   5.156   0.581
  327SOL    HW1 6996   2.856   5.154   0.491
  327SOL    HW2 6997   2.835   5.185   0.650
  328SOL     OW 6998   1.734   3.520   1.471
  328SOL    HW1 6999   1.725   3.616   1.499
  328SOL    HW2 7000   1.678   3.462   1.531
  329SOL     OW 7001   0.010   4.775   6.010
  329SOL    HW1 7002   0.012   4.717   5.928
  329SOL    HW2 7003   0.100   4.776   6.052
  330SOL     OW 7004   0.413   2.492   6.105
  330SOL    HW1 7005   0.330   2.544   6.126
  330SOL    HW2 7006   0.424   2.485   6.006
  331SOL     OW 7007   0.127   4.446   0.574
  331SOL    HW1 7008   0.185   4.460   0.654
  331SOL    HW2 7009   0.067   4.525   0.562
  332SOL     OW 7010   0.262   1.706   6.161
  332SOL    HW1 7011   0.255   1.703   6.261
  332SOL    HW2 7012   0.345   1.755   6.135
  333SOL     OW 7013   4.260   3.540   6.476
  333SOL    HW1 7014   4.276   3.559   6.379
  333SOL    HW2 7015   4.166   3.564   6.499
  334SOL     OW 7016   0.207   4.421   6.429
  334SOL    HW1 7017   0.200   4.321   6.426
  334SOL    HW2 7018   0.284   4.447   6.487
  335SOL     OW 7019   0.928   2.259   6.522
  335SOL    HW1 7020   0.920   2.216   0.016
  335SOL    HW2 7021   0.949   2.356   6.533
  336SOL     OW 7022   2.471   1.227   6.258
  336SOL    HW1 7023   2.451   1.229   6.356
  336SOL    HW2 7024   2.508   1.138   6.233
  337SOL     OW 7025   6.375   6.091   6.522
  337SOL    HW1 7026   6.348   6.095   0.021
  337SOL    HW2 7027   0.050   6.056   6.515
  338SOL     OW 7028   2.299   5.237   0.558
  338SOL    HW1 7029   2.385   5.275   0.525
  338SOL    HW2 7030   2.244   5.310   0.598
  339SOL     OW 7031   4.526   4.509   1.295
  339SOL    HW1 7032   4.484   4.558   1.372
  339SOL    HW2 7033   4.467   4.518   1.215
  340SOL     OW 7034   2.646   5.685   5.409
  340SOL    HW1 7035   2.664   5.682   5.311
  340SOL    HW2 7036   2.577   5.754   5.428
  341SOL     OW 7037   0.010   4.613   5.801
  341SOL    HW1 7038   6.365   4.539   5.822
  341SOL    HW2 7039   0.038   4.607   5.705
  342SOL     OW 7040   3.963   5.293   0.962
  342SOL    HW1 7041   3.998   5.205   0.994
  342SOL    HW2 7042   3.964   5.358   1.037
  343SOL     OW 7043   1.649   4.931   0.955
  343SOL    HW1 7044   1.747   4.949   0.957
  343SOL    HW2 7045   1.619   4.894   1.043
  344SOL     OW 7046   4.670   3.672   0.128
  344SOL    HW1 7047   4.593   3.657   0.065
  344SOL    HW2 7048   4.661   3.762   0.171
  345SOL     OW 7049   5.207   0.012   6.492
  345SOL    HW1 7050   5.229   0.028   6.396
  345SOL    HW2 7051   5.107   0.010   6.503
  346SOL     OW 7052   1.959   5.828   0.684
  346SOL    HW1 7053   1.997   5.846   0.775
  346SOL    HW2 7054   1.928   5.915   0.644
  347SOL     OW 7055   0.653   0.936   1.645
  347SOL    HW1 7056   0.732   0.874   1.646
  347SOL    HW2 7057   0.581   0.899   1.705
  348SOL     OW 7058   3.890   1.118   6.510
  348SOL    HW1 7059   3.973   1.064   6.528
  348SOL    HW2 7060   3.915   1.213   6.494
  349SOL     OW 7061   1.158   4.458   0.539
  349SOL    HW1 7062   1.193   4.441   0.447
  349SOL    HW2 7063   1.216   4.411   0.606
  350SOL     OW 7064   2.780   4.701   0.976
  350SOL    HW1 7065   2.779   4.711   0.876
  350SOL    HW2 7066   2.694   4.737   1.013
  351SOL     OW 7067   2.885   3.909   5.242
  351SOL    HW1 7068   2.888   3.886   5.145
  351SOL    HW2 7069   2.794   3.888   5.279
  352SOL     OW 7070   4.859   5.860   0.021
  352SOL    HW1 7071   4.937   5.910   0.058
  352SOL    HW2 7072   4.818   5.804   0.094
  353SOL     OW 7073   6.121   4.514   1.324
  353SOL    HW1 7074   6.046   4.492   1.261
  353SOL    HW2 7075   6.110   4.607   1.358
  354SOL     OW 7076   3.852   0.845   5.700
  354SOL    HW1 7077   3.797   0.917   5.743
  354SOL    HW2 7078   3.927   0.887   5.648
  355SOL     OW 7079   6.096   1.278   5.234
  355SOL    HW1 7080   6.171   1.281   5.300
  355SOL    HW2 7081   6.070   1.371   5.209
  356SOL     OW 7082   0.721   0.594   0.012
  356SOL    HW1 7083   0.638   0.637   6.574
  356SOL    HW2 7084   0.800   0.627   6.556
  357SOL     OW 7085   0.974   0.645   6.190
  357SOL    HW1 7086   1.041   0.580   6.155
  357SOL    HW2 7087   0.886   0.629   6.144
  358SOL     OW 7088   1.316   6.421   0.203
  358SOL    HW1 7089   1.374   0.021   0.271
  358SOL    HW2 7090   1.227   6.400   0.244
  359SOL     OW 7091   4.390   0.377   0.965
  359SOL    HW1 7092   4.406   0.341   1.057
  359SOL    HW2 7093   4.471   0.362   0.909
  360SOL     OW 7094   3.689   4.492   0.826
  360SOL    HW1 7095   3.643   4.458   0.745
  360SOL    HW2 7096   3.649   4.451   0.908
  361SOL     OW 7097   3.549   3.568   6.031
  361SOL    HW1 7098   3.549   3.493   5.965
  361SOL    HW2 7099   3.558   3.531   6.124
  362SOL     OW 7100   5.234   2.542   6.334
  362SOL    HW1 7101   5.181   2.460   6.359
  362SOL    HW2 7102   5.183   2.623   6.362
  363SOL     OW 7103   4.534   5.427   4.855
  363SOL    HW1 7104   4.623   5.385   4.836
  363SOL    HW2 7105   4.530   5.517   4.812
  364SOL     OW 7106   4.072   5.677   0.760
  364SOL    HW1 7107   4.128   5.716   0.687
  364SOL    HW2 7108   4.117   5.597   0.798
  365SOL     OW 7109   0.426   5.615   0.835
  365SOL    HW1 7110   0.347   5.572   0.790
  365SOL    HW2 7111   0.452   5.562   0.915
  366SOL     OW 7112   4.047   0.967   5.552
  366SOL    HW1 7113   4.145   0.988   5.557
  366SOL    HW2 7114   3.996   1.050   5.532
  367SOL     OW 7115   0.343   0.946   1.596
  367SOL    HW1 7116   0.380   0.906   1.680
  367SOL    HW2 7117   0.255   0.989   1.616
  368SOL     OW 7118   0.532   4.880   5.984
  368SOL    HW1 7119   0.461   4.874   6.054
  368SOL    HW2 7120   0.528   4.799   5.926
  369SOL     OW 7121   3.106   0.021   0.800
  369SOL    HW1 7122   3.036   0.029   0.729
  369SOL    HW2 7123   3.066   6.426   0.883
  370SOL     OW 7124   1.106   3.593   1.509
  370SOL    HW1 7125   1.075   3.506   1.547
  370SOL    HW2 7126   1.071   3.668   1.565
  371SOL     OW 7127   3.818   3.778   0.832
  371SOL    HW1 7128   3.852   3.797   0.923
  371SOL    HW2 7129   3.794   3.681   0.825
  372SOL     OW 7130   0.963   0.053   0.976
  372SOL    HW1 7131   1.027   6.427   1.009
  372SOL    HW2 7132   0.914   0.093   1.053
  373SOL     OW 7133   4.864   2.003   4.426
  373SOL    HW1 7134   4.803   2.079   4.402
  373SOL    HW2 7135   4.832   1.919   4.384
  374SOL     OW 7136   4.828   0.067   6.030
  374SOL    HW1 7137   4.814   0.086   5.933
  374SOL    HW2 7138   4.899   6.441   6.041
  375SOL     OW 7139   4.375   4.695   0.351
  375SOL    HW1 7140   4.283   4.688   0.312
  375SOL    HW2 7141   4.443   4.690   0.278
  376SOL     OW 7142   4.294   6.056   5.177
  376SOL    HW1 7143   4.325   6.067   5.083
  376SOL    HW2 7144   4.194   6.063   5.181
  377SOL     OW 7145   5.356   4.965   5.486
  377SOL    HW1 7146   5.409   4.891   5.443
  377SOL    HW2 7147   5.303   5.013   5.417
  378SOL     OW 7148   4.330   5.278   0.358
  378SOL    HW1 7149   4.422   5.238   0.356
  378SOL    HW2 7150   4.268   5.220   0.306
  379SOL     OW 7151   0.907   4.348   5.998
  379SOL    HW1 7152   0.945   4.432   5.961
  379SOL    HW2 7153   0.927   4.272   5.937
  380SOL     OW 7154   5.641   4.205   5.270
  380SOL    HW1 7155   5.741   4.197   5.268
  380SOL    HW2 7156   5.608   4.183   5.362
  381SOL     OW 7157   2.216   0.814   1.665
  381SOL    HW1 7158   2.265   0.785   1.747
  381SOL    HW2 7159   2.232   0.911   1.649
  382SOL     OW 7160   4.180   2.065   6.487
  382SOL    HW1 7161   4.266   2.073   6.537
  382SOL    HW2 7162   4.104   2.084   6.550
  383SOL     OW 7163   3.372   4.774   5.576
  383SOL    HW1 7164   3.274   4.765   5.560
  383SOL    HW2 7165   3.417   4.801   5.491
  384SOL     OW 7166   4.767   1.897   6.501
  384SOL    HW1 7167   4.803   1.805   6.515
  384SOL    HW2 7168   4.693   1.894   6.434
  385SOL     OW 7169   1.738   1.949   6.543
  385SOL    HW1 7170   1.798   2.024   6.513
  385SOL    HW2 7171   1.729   1.883   6.468
  386SOL     OW 7172   0.708   1.219   5.729
  386SOL    HW1 7173   0.712   1.156   5.651
  386SOL    HW2 7174   0.765   1.184   5.803
  387SOL     OW 7175   6.242   5.610   5.757
  387SOL    HW1 7176   6.195   5.639   5.674
  387SOL    HW2 7177   6.195   5.531   5.797
  388SOL     OW 7178   1.766   5.879   0.036
  388SOL    HW1 7179   1.819   5.876   0.121
  388SOL    HW2 7180   1.703   5.957   0.039
  389SOL     OW 7181   1.121   2.174   0.716
  389SOL    HW1 7182   1.113   2.076   0.730
  389SOL    HW2 7183   1.151   2.193   0.623
  390SOL     OW 7184   2.178   4.950   6.446
  390SOL    HW1 7185   2.146   4.949   6.351
  390SOL    HW2 7186   2.171   4.859   6.485
  391SOL     OW 7187   5.696   0.779   6.249
  391SOL    HW1 7188   5.696   0.877   6.227
  391SOL    HW2 7189   5.602   0.748   6.263
  392SOL     OW 7190   2.013   2.442   0.433
  392SOL    HW1 7191   2.083   2.391   0.482
  392SOL    HW2 7192   2.019   2.539   0.458
  393SOL     OW 7193   5.951   3.101   0.614
  393SOL    HW1 7194   6.036   3.155   0.611
  393SOL    HW2 7195   5.966   3.020   0.671
  394SOL     OW 7196   5.790   5.768   5.776
  394SOL    HW1 7197   5.799   5.746   5.679
  394SOL    HW2 7198   5.802   5.685   5.831
  395SOL     OW 7199   1.668   0.821   5.880
  395SOL    HW1 7200   1.747   0.800   5.823
  395SOL    HW2 7201   1.657   0.920   5.887
  396SOL     OW 7202   0.533   2.797   1.328
  396SOL    HW1 7203   0.492   2.886   1.309
  396SOL    HW2 7204   0.503   2.765   1.418
  397SOL     OW 7205   3.108   1.949   6.134
  397SOL    HW1 7206   3.127   1.871   6.075
  397SOL    HW2 7207   3.194   1.991   6.162
  398SOL     OW 7208   5.255   5.944   0.828
  398SOL    HW1 7209   5.311   5.862   0.834
  398SOL    HW2 7210   5.206   5.957   0.915
  399SOL     OW 7211   4.974   0.781   1.018
  399SOL    HW1 7212   5.055   0.728   1.043
  399SOL    HW2 7213   4.897   0.720   1.001
  400SOL     OW 7214   6.303   4.017   6.503
  400SOL    HW1 7215   6.262   3.927   6.513
  400SOL    HW2 7216   6.342   4.027   6.411
  401SOL     OW 7217   3.034   4.396   1.850
  401SOL    HW1 7218   2.974   4.316   1.853
  401SOL    HW2 7219   3.129   4.367   1.859
  402SOL     OW 7220   4.747   3.921   5.859
  402SOL    HW1 7221   4.750   3.832   5.813
  402SOL    HW2 7222   4.675   3.921   5.929
  403SOL     OW 7223   3.532   1.690   5.950
  403SOL    HW1 7224   3.614   1.669   5.897
  403SOL    HW2 7225   3.453   1.643   5.910
  404SOL     OW 7226   4.792   6.182   0.582
  404SOL    HW1 7227   4.753   6.258   0.633
  404SOL    HW2 7228   4.770   6.096   0.628
  405SOL     OW 7229   2.567   0.135   1.019
  405SOL    HW1 7230   2.506   0.058   1.003
  405SOL    HW2 7231   2.570   0.157   1.116
  406SOL     OW 7232   2.697   2.105   6.224
  406SOL    HW1 7233   2.761   2.143   6.158
  406SOL    HW2 7234   2.606   2.140   6.206
  407SOL     OW 7235   3.244   5.106   5.812
  407SOL    HW1 7236   3.302   5.171   5.862
  407SOL    HW2 7237   3.248   5.017   5.856
  408SOL     OW 7238   3.584   4.442   6.255
  408SOL    HW1 7239   3.640   4.398   6.184
  408SOL    HW2 7240   3.516   4.377   6.289
  409SOL     OW 7241   5.613   2.430   0.425
  409SOL    HW1 7242   5.644   2.360   0.360
  409SOL    HW2 7243   5.628   2.521   0.385
  410SOL     OW 7244   1.671   1.039   0.711
  410SOL    HW1 7245   1.574   1.053   0.689
  410SOL    HW2 7246   1.725   1.115   0.676
  411SOL     OW 7247   5.906   2.689   0.393
  411SOL    HW1 7248   5.972   2.752   0.353
  411SOL    HW2 7249   5.816   2.704   0.351
  412SOL     OW 7250   1.930   5.743   6.076
  412SOL    HW1 7251   1.995   5.756   6.151
  412SOL    HW2 7252   1.860   5.815   6.081
  413SOL     OW 7253   6.169   6.387   6.211
  413SOL    HW1 7254   6.248   6.374   6.271
  413SOL    HW2 7255   6.124   6.299   6.195
  414SOL     OW 7256   4.049   1.214   0.149
  414SOL    HW1 7257   4.015   1.306   0.164
  414SOL    HW2 7258   4.149   1.216   0.140
  415SOL     OW 7259   4.097   5.181   4.627
  415SOL    HW1 7260   4.138   5.199   4.538
  415SOL    HW2 7261   4.156   5.218   4.699
  416SOL     OW 7262   2.266   6.113   0.542
  416SOL    HW1 7263   2.222   6.080   0.458
  416SOL    HW2 7264   2.349   6.060   0.559
  417SOL     OW 7265   5.965   2.541   1.003
  417SOL    HW1 7266   6.008   2.573   0.918
  417SOL    HW2 7267   6.027   2.556   1.079
  418SOL     OW 7268   0.754   2.701   0.212
  418SOL    HW1 7269   0.707   2.782   0.178
  418SOL    HW2 7270   0.813   2.663   0.140
  419SOL     OW 7271   5.073   3.787   5.963
  419SOL    HW1 7272   5.096   3.880   5.935
  419SOL    HW2 7273   5.156   3.738   5.989
  420SOL     OW 7274   5.325   3.685   5.991
  420SOL    HW1 7275   5.403   3.658   5.934
  420SOL    HW2 7276   5.335   3.643   6.082
  421SOL     OW 7277   2.469   1.473   0.467
  421SOL    HW1 7278   2.522   1.393   0.439
  421SOL    HW2 7279   2.436   1.459   0.561
  422SOL     OW 7280   2.727   6.299   6.440
  422SOL    HW1 7281   2.661   6.226   6.421
  422SOL    HW2 7282   2.812   6.281   6.391
  423SOL     OW 7283   6.092   5.408   5.845
  423SOL    HW1 7284   6.000   5.391   5.880
  423SOL    HW2 7285   6.159   5.379   5.914
  424SOL     OW 7286   3.001   5.769   6.531
  424SOL    HW1 7287   2.913   5.753   6.486
  424SOL    HW2 7288   3.074   5.726   6.478
  425SOL     OW 7289   3.036   5.764   1.104
  425SOL    HW1 7290   2.985   5.733   1.185
  425SOL    HW2 7291   3.036   5.691   1.036
  426SOL     OW 7292   3.389   3.259   0.528
  426SOL    HW1 7293   3.450   3.214   0.462
  426SOL    HW2 7294   3.294   3.240   0.504
  427SOL     OW 7295   3.956   5.932   5.957
  427SOL    HW1 7296   3.968   6.031   5.970
  427SOL    HW2 7297   3.878   5.901   6.012
  428SOL     OW 7298   2.220   0.600   5.675
  428SOL    HW1 7299   2.199   0.505   5.700
  428SOL    HW2 7300   2.309   0.604   5.629
  429SOL     OW 7301   0.553   2.463   0.166
  429SOL    HW1 7302   0.587   2.552   0.134
  429SOL    HW2 7303   0.606   2.434   0.246
  430SOL     OW 7304   2.255   1.095   5.128
  430SOL    HW1 7305   2.255   1.150   5.045
  430SOL    HW2 7306   2.256   1.155   5.208
  431SOL     OW 7307   5.655   5.446   5.133
  431SOL    HW1 7308   5.638   5.470   5.037
  431SOL    HW2 7309   5.646   5.528   5.190
  432SOL     OW 7310   0.644   1.204   6.208
  432SOL    HW1 7311   0.624   1.108   6.227
  432SOL    HW2 7312   0.729   1.210   6.155
  433SOL     OW 7313   2.631   0.550   5.404
  433SOL    HW1 7314   2.675   0.466   5.371
  433SOL    HW2 7315   2.566   0.583   5.335
  434SOL     OW 7316   3.611   2.469   0.307
  434SOL    HW1 7317   3.577   2.383   0.346
  434SOL    HW2 7318   3.623   2.459   0.209
  435SOL     OW 7319   3.140   5.114   0.291
  435SOL    HW1 7320   3.136   5.087   0.387
  435SOL    HW2 7321   3.164   5.210   0.284
  436SOL     OW 7322   5.034   5.055   5.076
  436SOL    HW1 7323   5.102   4.992   5.038
  436SOL    HW2 7324   4.950   5.049   5.022
  437SOL     OW 7325   4.399   4.881   0.788
  437SOL    HW1 7326   4.474   4.815   0.795
  437SOL    HW2 7327   4.389   4.910   0.693
  438SOL     OW 7328   1.630   4.488   0.610
  438SOL    HW1 7329   1.696   4.474   0.536
  438SOL    HW2 7330   1.583   4.402   0.628
  439SOL     OW 7331   0.356   3.029   5.838
  439SOL    HW1 7332   0.295   3.014   5.759
  439SOL    HW2 7333   0.346   3.123   5.870
  440SOL     OW 7334   1.277   3.530   1.316
  440SOL    HW1 7335   1.351   3.597   1.312
  440SOL    HW2 7336   1.212   3.555   1.388
  441SOL     OW 7337   5.776   0.643   6.022
  441SOL    HW1 7338   5.753   0.686   6.110
  441SOL    HW2 7339   5.875   0.651   6.007
  442SOL     OW 7340   2.940   6.173   6.297
  442SOL    HW1 7341   3.018   6.110   6.296
  442SOL    HW2 7342   2.881   6.154   6.218
  443SOL     OW 7343   1.425   5.469   5.867
  443SOL    HW1 7344   1.327   5.478   5.847
  443SOL    HW2 7345   1.475   5.543   5.824
  444SOL     OW 7346   5.103   0.832   0.501
  444SOL    HW1 7347   5.137   0.916   0.459
  444SOL    HW2 7348   5.096   0.845   0.600
  445SOL     OW 7349   0.682   4.249   6.102
  445SOL    HW1 7350   0.698   4.150   6.106
  445SOL    HW2 7351   0.764   4.294   6.067
  446SOL     OW 7352   4.689   5.973   0.737
  446SOL    HW1 7353   4.596   5.976   0.700
  446SOL    HW2 7354   4.736   5.892   0.702
  447SOL     OW 7355   2.935   3.707   5.910
  447SOL    HW1 7356   3.014   3.739   5.962
  447SOL    HW2 7357   2.890   3.785   5.866
  448SOL     OW 7358   4.821   3.567   0.733
  448SOL    HW1 7359   4.729   3.550   0.699
  448SOL    HW2 7360   4.834   3.666   0.746
  449SOL     OW 7361   3.234   0.270   0.061
  449SOL    HW1 7362   3.222   0.171   0.067
  449SOL    HW2 7363   3.287   0.303   0.139
  450SOL     OW 7364   3.015   5.289   1.217
  450SOL    HW1 7365   3.065   5.375   1.223
  450SOL    HW2 7366   2.956   5.279   1.297
  451SOL     OW 7367   4.457   0.035   0.975
  451SOL    HW1 7368   4.511   0.021   1.057
  451SOL    HW2 7369   4.380   6.414   0.974
  452SOL     OW 7370   1.430   5.729   0.664
  452SOL    HW1 7371   1.338   5.766   0.668
  452SOL    HW2 7372   1.489   5.779   0.727
  453SOL     OW 7373   4.413   5.328   1.202
  453SOL    HW1 7374   4.376   5.236   1.214
  453SOL    HW2 7375   4.376   5.389   1.273
  454SOL     OW 7376   2.978   1.874   0.544
  454SOL    HW1 7377   3.035   1.950   0.514
  454SOL    HW2 7378   2.960   1.813   0.467
  455SOL     OW 7379   1.028   5.516   6.123
  455SOL    HW1 7380   0.953   5.460   6.159
  455SOL    HW2 7381   1.113   5.493   6.170
  456SOL     OW 7382   1.032   0.485   5.488
  456SOL    HW1 7383   1.018   0.386   5.477
  456SOL    HW2 7384   1.048   0.527   5.399
  457SOL     OW 7385   1.848   5.487   5.985
  457SOL    HW1 7386   1.890   5.438   6.062
  457SOL    HW2 7387   1.846   5.585   6.005
  458SOL     OW 7388   0.858   0.167   0.740
  458SOL    HW1 7389   0.776   0.204   0.784
  458SOL    HW2 7390   0.912   0.117   0.807
  459SOL     OW 7391   5.503   4.641   5.127
  459SOL    HW1 7392   5.464   4.678   5.043
  459SOL    HW2 7393   5.565   4.566   5.105
  460SOL     OW 7394   2.584   5.559   1.425
  460SOL    HW1 7395   2.512   5.627   1.442
  460SOL    HW2 7396   2.636   5.545   1.510
  461SOL     OW 7397   0.792   0.297   5.237
  461SOL    HW1 7398   0.801   0.223   5.171
  461SOL    HW2 7399   0.855   0.281   5.313
  462SOL     OW 7400   6.280   6.100   4.846
  462SOL    HW1 7401   6.231   6.016   4.824
  462SOL    HW2 7402   6.358   6.078   4.906
  463SOL     OW 7403   0.827   0.760   5.123
  463SOL    HW1 7404   0.748   0.782   5.066
  463SOL    HW2 7405   0.884   0.692   5.076
  464SOL     OW 7406   6.341   5.847   1.582
  464SOL    HW1 7407   6.264   5.789   1.610
  464SOL    HW2 7408   6.390   5.803   1.506
  465SOL     OW 7409   0.789   5.830   0.788
  465SOL    HW1 7410   0.851   5.892   0.837
  465SOL    HW2 7411   0.825   5.814   0.696
  466SOL     OW 7412   1.513   0.022   6.468
  466SOL    HW1 7413   1.420   6.438   6.493
  466SOL    HW2 7414   1.521   0.025   6.368
  467SOL     OW 7415   2.541   0.298   0.540
  467SOL    HW1 7416   2.522   0.397   0.535
  467SOL    HW2 7417   2.457   0.248   0.520
  468SOL     OW 7418   5.000   4.428   0.499
  468SOL    HW1 7419   5.073   4.447   0.432
  468SOL    HW2 7420   4.933   4.366   0.458
  469SOL     OW 7421   4.004   6.107   6.324
  469SOL    HW1 7422   3.992   6.193   6.274
  469SOL    HW2 7423   4.087   6.112   6.379
  470SOL     OW 7424   5.804   0.271   6.176
  470SOL    HW1 7425   5.726   0.334   6.179
  470SOL    HW2 7426   5.886   0.318   6.210
  471SOL     OW 7427   2.640   1.447   6.275
  471SOL    HW1 7428   2.669   1.468   6.368
  471SOL    HW2 7429   2.582   1.365   6.275
  472SOL     OW 7430   4.960   0.904   0.209
  472SOL    HW1 7431   4.864   0.886   0.186
  472SOL    HW2 7432   4.971   0.902   0.308
  473SOL     OW 7433   1.958   0.036   6.120
  473SOL    HW1 7434   2.006   0.035   6.032
  473SOL    HW2 7435   1.996   0.109   6.177
  474SOL     OW 7436   0.741   4.873   5.631
  474SOL    HW1 7437   0.777   4.789   5.589
  474SOL    HW2 7438   0.696   4.928   5.561
  475SOL     OW 7439   3.660   3.153   6.471
  475SOL    HW1 7440   3.623   3.244   6.452
  475SOL    HW2 7441   3.758   3.153   6.454
  476SOL     OW 7442   2.831   4.759   0.463
  476SOL    HW1 7443   2.845   4.810   0.547
  476SOL    HW2 7444   2.792   4.669   0.484
  477SOL     OW 7445   0.294   1.041   5.911
  477SOL    HW1 7446   0.252   1.010   5.826
  477SOL    HW2 7447   0.236   1.016   5.988
  478SOL     OW 7448   1.279   0.177   5.700
  478SOL    HW1 7449   1.297   0.149   5.606
  478SOL    HW2 7450   1.213   0.115   5.742
  479SOL     OW 7451   2.866   0.660   0.191
  479SOL    HW1 7452   2.954   0.615   0.175
  479SOL    HW2 7453   2.803   0.596   0.234
  480SOL     OW 7454   3.435   2.631   1.300
  480SOL    HW1 7455   3.421   2.609   1.204
  480SOL    HW2 7456   3.351   2.615   1.351
  481SOL     OW 7457   2.938   2.933   5.888
  481SOL    HW1 7458   2.951   2.834   5.899
  481SOL    HW2 7459   2.927   2.975   5.978
  482SOL     OW 7460   0.336   5.762   1.411
  482SOL    HW1 7461   0.356   5.805   1.499
  482SOL    HW2 7462   0.313   5.666   1.425
  483SOL     OW 7463   0.755   0.025   0.157
  483SOL    HW1 7464   0.787   0.048   0.249
  483SOL    HW2 7465   0.727   0.108   0.109
  484SOL     OW 7466   2.997   4.359   1.540
  484SOL    HW1 7467   3.021   4.278   1.487
  484SOL    HW2 7468   2.987   4.334   1.636
  485SOL     OW 7469   2.278   3.407   0.600
  485SOL    HW1 7470   2.272   3.467   0.679
  485SOL    HW2 7471   2.366   3.359   0.601
  486SOL     OW 7472   5.085   6.175   6.387
  486SOL    HW1 7473   5.163   6.114   6.374
  486SOL    HW2 7474   5.044   6.195   6.298
  487SOL     OW 7475   0.871   6.345   0.444
  487SOL    HW1 7476   0.941   6.331   0.375
  487SOL    HW2 7477   0.905   6.315   0.533
  488SOL     OW 7478   5.677   1.760   5.240
  488SOL    HW1 7479   5.733   1.757   5.157
  488SOL    HW2 7480   5.629   1.847   5.245
  489SOL     OW 7481   4.583   0.645   0.751
  489SOL    HW1 7482   4.499   0.624   0.802
  489SOL    HW2 7483   4.618   0.560   0.710
  490SOL     OW 7484   0.380   5.540   0.010
  490SOL    HW1 7485   0.434   5.560   6.525
  490SOL    HW2 7486   0.290   5.505   6.580
  491SOL     OW 7487   4.221   2.248   0.660
  491SOL    HW1 7488   4.181   2.327   0.614
  491SOL    HW2 7489   4.244   2.272   0.754
  492SOL     OW 7490   6.176   5.982   0.588
  492SOL    HW1 7491   6.272   5.996   0.567
  492SOL    HW2 7492   6.167   5.925   0.670
  493SOL     OW 7493   4.042   2.460   0.583
  493SOL    HW1 7494   3.992   2.379   0.552
  493SOL    HW2 7495   4.086   2.503   0.505
  494SOL     OW 7496   4.777   2.873   1.335
  494SOL    HW1 7497   4.837   2.806   1.292
  494SOL    HW2 7498   4.713   2.827   1.396
  495SOL     OW 7499   6.217   2.507   0.720
  495SOL    HW1 7500   6.135   2.565   0.716
  495SOL    HW2 7501   6.208   2.433   0.653
  496SOL     OW 7502   3.887   4.617   6.433
  496SOL    HW1 7503   3.803   4.564   6.426
  496SOL    HW2 7504   3.883   4.676   6.514
  497SOL     OW 7505   2.674   2.445   6.352
  497SOL    HW1 7506   2.604   2.448   6.422
  497SOL    HW2 7507   2.658   2.517   6.285
  498SOL     OW 7508   4.996   5.402   5.997
  498SOL    HW1 7509   5.010   5.498   5.975
  498SOL    HW2 7510   5.080   5.363   6.036
  499SOL     OW 7511   4.707   1.241   5.070
  499SOL    HW1 7512   4.767   1.193   5.134
  499SOL    HW2 7513   4.627   1.185   5.050
  500SOL     OW 7514   3.106   3.833   0.531
  500SOL    HW1 7515   3.105   3.854   0.629
  500SOL    HW2 7516   3.195   3.856   0.493
  501SOL     OW 7517   0.619   0.687   0.272
  501SOL    HW1 7518   0.672   0.670   0.189
  501SOL    HW2 7519   0.533   0.638   0.269
  502SOL     OW 7520   3.461   3.760   6.297
  502SOL    HW1 7521   3.543   3.764   6.240
  502SOL    HW2 7522   3.474   3.692   6.370
  503SOL     OW 7523   4.404   1.049   0.333
  503SOL    HW1 7524   4.489   1.056   0.385
  503SOL    HW2 7525   4.327   1.076   0.392
  504SOL     OW 7526   1.195   0.827   6.236
  504SOL    HW1 7527   1.122   0.760   6.225
  504SOL    HW2 7528   1.283   0.780   6.233
  505SOL     OW 7529   2.368   0.925   0.117
  505SOL    HW1 7530   2.360   0.832   0.154
  505SOL    HW2 7531   2.332   0.926   0.023
  506SOL     OW 7532   5.404   4.757   2.134
  506SOL    HW1 7533   5.354   4.843   2.142
  506SOL    HW2 7534   5.345   4.681   2.164
  507SOL     OW 7535   4.574   2.855   5.292
  507SOL    HW1 7536   4.601   2.807   5.208
  507SOL    HW2 7537   4.527   2.791   5.353
  508SOL     OW 7538   5.165   4.762   1.117
  508SOL    HW1 7539   5.120   4.814   1.045
  508SOL    HW2 7540   5.098   4.734   1.185
  509SOL     OW 7541   1.977   5.010   0.148
  509SOL    HW1 7542   2.031   4.927   0.165
  509SOL    HW2 7543   2.038   5.082   0.113
  510SOL     OW 7544   3.816   5.918   0.868
  510SOL    HW1 7545   3.777   5.834   0.908
  510SOL    HW2 7546   3.916   5.913   0.871
  511SOL     OW 7547   3.682   0.358   6.109
  511SOL    HW1 7548   3.708   0.416   6.186
  511SOL    HW2 7549   3.583   0.356   6.100
  512SOL     OW 7550   4.104   4.464   6.384
  512SOL    HW1 7551   4.019   4.517   6.395
  512SOL    HW2 7552   4.175   4.503   6.442
  513SOL     OW 7553   3.349   1.643   0.049
  513SOL    HW1 7554   3.304   1.556   0.032
  513SOL    HW2 7555   3.282   1.709   0.082
  514SOL     OW 7556   0.251   0.614   0.368
  514SOL    HW1 7557   0.224   0.671   0.445
  514SOL    HW2 7558   0.172   0.563   0.334
  515SOL     OW 7559   5.747   1.990   0.741
  515SOL    HW1 7560   5.840   1.994   0.705
  515SOL    HW2 7561   5.688   2.051   0.689
  516SOL     OW 7562   1.666   3.056   0.068
  516SOL    HW1 7563   1.660   2.960   0.040
  516SOL    HW2 7564   1.649   3.115   6.585
  517SOL     OW 7565   4.402   4.501   5.189
  517SOL    HW1 7566   4.483   4.505   5.130
  517SOL    HW2 7567   4.344   4.580   5.173
  518SOL     OW 7568   3.999   4.888   0.845
  518SOL    HW1 7569   4.045   4.882   0.757
  518SOL    HW2 7570   3.900   4.883   0.831
  519SOL     OW 7571   5.149   5.230   6.382
  519SOL    HW1 7572   5.164   5.323   6.416
  519SOL    HW2 7573   5.226   5.203   6.325
  520SOL     OW 7574   1.213   2.239   5.929
  520SOL    HW1 7575   1.214   2.319   5.869
  520SOL    HW2 7576   1.159   2.260   6.011
  521SOL     OW 7577   6.125   0.751   5.948
  521SOL    HW1 7578   6.068   0.792   5.876
  521SOL    HW2 7579   6.221   0.770   5.929
  522SOL     OW 7580   4.944   5.180   5.394
  522SOL    HW1 7581   4.959   5.275   5.367
  522SOL    HW2 7582   5.028   5.128   5.382
  523SOL     OW 7583   5.888   6.077   0.176
  523SOL    HW1 7584   5.903   6.175   0.163
  523SOL    HW2 7585   5.954   6.042   0.243
  524SOL     OW 7586   2.797   4.397   5.758
  524SOL    HW1 7587   2.779   4.472   5.694
  524SOL    HW2 7588   2.890   4.363   5.744
  525SOL     OW 7589   6.341   6.030   5.704
  525SOL    HW1 7590   6.315   6.117   5.745
  525SOL    HW2 7591   6.276   6.006   5.631
  526SOL     OW 7592   1.694   2.170   0.269
  526SOL    HW1 7593   1.650   2.164   0.179
  526SOL    HW2 7594   1.625   2.160   0.340
  527SOL     OW 7595   2.703   0.042   4.694
  527SOL    HW1 7596   2.700   0.074   4.599
  527SOL    HW2 7597   2.734   6.390   4.696
  528SOL     OW 7598   5.314   5.974   5.897
  528SOL    HW1 7599   5.310   6.067   5.935
  528SOL    HW2 7600   5.408   5.952   5.872
  529SOL     OW 7601   1.650   1.245   1.515
  529SOL    HW1 7602   1.583   1.319   1.516
  529SOL    HW2 7603   1.706   1.250   1.598
  530SOL     OW 7604   5.298   0.422   4.390
  530SOL    HW1 7605   5.205   0.444   4.417
  530SOL    HW2 7606   5.359   0.496   4.418
  531SOL     OW 7607   1.622   4.241   0.235
  531SOL    HW1 7608   1.531   4.220   0.271
  531SOL    HW2 7609   1.657   4.163   0.184
  532SOL     OW 7610   1.263   2.901   0.932
  532SOL    HW1 7611   1.297   2.986   0.971
  532SOL    HW2 7612   1.214   2.849   1.002
  533SOL     OW 7613   0.969   4.600   5.920
  533SOL    HW1 7614   1.019   4.631   6.001
  533SOL    HW2 7615   0.994   4.657   5.841
  534SOL     OW 7616   5.233   5.427   0.327
  534SOL    HW1 7617   5.167   5.487   0.370
  534SOL    HW2 7618   5.201   5.332   0.331
  535SOL     OW 7619   0.330   2.516   1.191
  535SOL    HW1 7620   0.296   2.607   1.214
  535SOL    HW2 7621   0.430   2.514   1.202
  536SOL     OW 7622   3.829   5.358   6.485
  536SOL    HW1 7623   3.925   5.374   6.462
  536SOL    HW2 7624   3.795   5.432   6.543
  537SOL     OW 7625   2.344   3.110   0.860
  537SOL    HW1 7626   2.278   3.068   0.922
  537SOL    HW2 7627   2.311   3.199   0.830
  538SOL     OW 7628   1.587   6.262   6.074
  538SOL    HW1 7629   1.642   6.228   6.151
  538SOL    HW2 7630   1.633   6.240   5.988
  539SOL     OW 7631   6.218   2.519   6.162
  539SOL    HW1 7632   6.282   2.557   6.095
  539SOL    HW2 7633   6.141   2.477   6.113
  540SOL     OW 7634   3.126   3.688   6.310
  540SOL    HW1 7635   3.125   3.725   6.217
  540SOL    HW2 7636   3.186   3.608   6.313
  541SOL     OW 7637   1.573   5.928   5.084
  541SOL    HW1 7638   1.666   5.966   5.090
  541SOL    HW2 7639   1.507   6.002   5.092
  542SOL     OW 7640   4.417   5.773   5.860
  542SOL    HW1 7641   4.335   5.826   5.837
  542SOL    HW2 7642   4.469   5.819   5.931
  543SOL     OW 7643   1.932   1.664   6.152
  543SOL    HW1 7644   1.969   1.733   6.089
  543SOL    HW2 7645   1.993   1.655   6.231
  544SOL     OW 7646   3.358   3.545   0.329
  544SOL    HW1 7647   3.322   3.616   0.268
  544SOL    HW2 7648   3.295   3.533   0.406
  545SOL     OW 7649   4.541   1.509   1.291
  545SOL    HW1 7650   4.591   1.572   1.350
  545SOL    HW2 7651   4.559   1.415   1.320
  546SOL     OW 7652   4.677   1.005   0.851
  546SOL    HW1 7653   4.747   1.010   0.922
  546SOL    HW2 7654   4.588   0.987   0.893
  547SOL     OW 7655   2.392   2.261   4.895
  547SOL    HW1 7656   2.340   2.204   4.832
  547SOL    HW2 7657   2.461   2.205   4.942
  548SOL     OW 7658   0.004   2.869   1.624
  548SOL    HW1 7659   0.093   2.847   1.665
  548SOL    HW2 7660   6.354   2.803   1.656
  549SOL     OW 7661   3.253   0.257   0.758
  549SOL    HW1 7662   3.198   0.294   0.683
  549SOL    HW2 7663   3.218   0.167   0.784
  550SOL     OW 7664   3.989   2.265   6.355
  550SOL    HW1 7665   3.901   2.224   6.379
  550SOL    HW2 7666   3.977   2.364   6.343
  551SOL     OW 7667   2.682   5.744   6.106
  551SOL    HW1 7668   2.597   5.704   6.072
  551SOL    HW2 7669   2.666   5.783   6.197
  552SOL     OW 7670   5.588   2.632   5.107
  552SOL    HW1 7671   5.534   2.635   5.023
  552SOL    HW2 7672   5.662   2.565   5.096
  553SOL     OW 7673   0.281   4.456   5.748
  553SOL    HW1 7674   0.342   4.389   5.706
  553SOL    HW2 7675   0.334   4.516   5.808
  554SOL     OW 7676   5.596   1.349   5.540
  554SOL    HW1 7677   5.525   1.385   5.600
  554SOL    HW2 7678   5.647   1.425   5.498
  555SOL     OW 7679   4.296   5.769   0.596
  555SOL    HW1 7680   4.234   5.779   0.519
  555SOL    HW2 7681   4.353   5.687   0.583
  556SOL     OW 7682   3.626   4.247   0.414
  556SOL    HW1 7683   3.588   4.298   0.491
  556SOL    HW2 7684   3.658   4.311   0.344
  557SOL     OW 7685   3.367   4.943   6.255
  557SOL    HW1 7686   3.289   4.993   6.218
  557SOL    HW2 7687   3.452   4.981   6.217
  558SOL     OW 7688   1.026   1.450   5.909
  558SOL    HW1 7689   1.121   1.429   5.931
  558SOL    HW2 7690   0.992   1.521   5.970
  559SOL     OW 7691   5.874   5.585   0.123
  559SOL    HW1 7692   5.825   5.615   0.205
  559SOL    HW2 7693   5.904   5.664   0.070
  560SOL     OW 7694   5.710   6.090   6.031
  560SOL    HW1 7695   5.777   6.017   6.043
  560SOL    HW2 7696   5.727   6.163   6.097
  561SOL     OW 7697   3.955   2.533   6.315
  561SOL    HW1 7698   3.888   2.602   6.341
  561SOL    HW2 7699   4.030   2.576   6.266
  562SOL     OW 7700   1.413   1.099   0.645
  562SOL    HW1 7701   1.424   1.105   0.546
  562SOL    HW2 7702   1.350   1.025   0.667
  563SOL     OW 7703   1.508   1.818   1.065
  563SOL    HW1 7704   1.560   1.866   1.136
  563SOL    HW2 7705   1.557   1.734   1.041
  564SOL     OW 7706   5.908   2.553   6.287
  564SOL    HW1 7707   5.956   2.499   6.356
  564SOL    HW2 7708   5.966   2.630   6.259
  565SOL     OW 7709   3.249   2.356   5.828
  565SOL    HW1 7710   3.279   2.263   5.851
  565SOL    HW2 7711   3.156   2.352   5.790
  566SOL     OW 7712   5.703   4.771   0.234
  566SOL    HW1 7713   5.663   4.845   0.289
  566SOL    HW2 7714   5.801   4.790   0.220
  567SOL     OW 7715   3.626   4.020   1.758
  567SOL    HW1 7716   3.662   3.940   1.805
  567SOL    HW2 7717   3.527   4.011   1.747
  568SOL     OW 7718   1.206   4.149   6.582
  568SOL    HW1 7719   1.156   4.068   0.016
  568SOL    HW2 7720   1.152   4.231   0.005
  569SOL     OW 7721   2.793   1.627   5.849
  569SOL    HW1 7722   2.759   1.564   5.919
  569SOL    HW2 7723   2.830   1.574   5.772
  570SOL     OW 7724   1.120   0.654   5.674
  570SOL    HW1 7725   1.211   0.623   5.700
  570SOL    HW2 7726   1.084   0.595   5.602
  571SOL     OW 7727   0.972   5.090   1.399
  571SOL    HW1 7728   1.051   5.043   1.359
  571SOL    HW2 7729   0.896   5.026   1.409
  572SOL     OW 7730   6.056   5.206   6.212
  572SOL    HW1 7731   6.113   5.289   6.206
  572SOL    HW2 7732   5.998   5.200   6.131
  573SOL     OW 7733   1.353   6.009   6.239
  573SOL    HW1 7734   1.448   6.041   6.237
  573SOL    HW2 7735   1.294   6.081   6.276
  574SOL     OW 7736   1.088   1.516   5.292
  574SOL    HW1 7737   1.082   1.497   5.390
  574SOL    HW2 7738   1.021   1.460   5.243
  575SOL     OW 7739   3.547   3.372   5.848
  575SOL    HW1 7740   3.614   3.301   5.866
  575SOL    HW2 7741   3.555   3.404   5.754
  576SOL     OW 7742   3.030   0.448   1.460
  576SOL    HW1 7743   2.932   0.439   1.480
  576SOL    HW2 7744   3.076   0.364   1.487
  577SOL     OW 7745   1.689   4.843   6.428
  577SOL    HW1 7746   1.644   4.754   6.437
  577SOL    HW2 7747   1.676   4.877   6.335
  578SOL     OW 7748   4.221   4.774   5.624
  578SOL    HW1 7749   4.268   4.702   5.674
  578SOL    HW2 7750   4.158   4.822   5.684
  579SOL     OW 7751   5.624   1.110   6.150
  579SOL    HW1 7752   5.696   1.122   6.081
  579SOL    HW2 7753   5.544   1.068   6.108
  580SOL     OW 7754   6.144   0.080   1.087
  580SOL    HW1 7755   6.237   0.050   1.109
  580SOL    HW2 7756   6.133   0.087   0.988
  581SOL     OW 7757   4.387   2.931   5.685
  581SOL    HW1 7758   4.467   2.882   5.718
  581SOL    HW2 7759   4.415   3.001   5.620
  582SOL     OW 7760   5.488   5.484   0.723
  582SOL    HW1 7761   5.503   5.496   0.625
  582SOL    HW2 7762   5.393   5.458   0.740
  583SOL     OW 7763   5.875   4.473   6.033
  583SOL    HW1 7764   5.839   4.398   6.088
  583SOL    HW2 7765   5.974   4.478   6.044
  584SOL     OW 7766   4.401   1.665   0.683
  584SOL    HW1 7767   4.323   1.614   0.720
  584SOL    HW2 7768   4.404   1.756   0.726
  585SOL     OW 7769   1.727   5.115   0.396
  585SOL    HW1 7770   1.651   5.078   0.449
  585SOL    HW2 7771   1.812   5.070   0.424
  586SOL     OW 7772   2.041   2.810   5.000
  586SOL    HW1 7773   2.118   2.866   5.032
  586SOL    HW2 7774   2.067   2.762   4.916
  587SOL     OW 7775   2.359   3.867   6.109
  587SOL    HW1 7776   2.438   3.871   6.171
  587SOL    HW2 7777   2.345   3.957   6.068
  588SOL     OW 7778   4.621   0.683   0.370
  588SOL    HW1 7779   4.682   0.615   0.331
  588SOL    HW2 7780   4.662   0.721   0.453
  589SOL     OW 7781   5.521   3.474   0.494
  589SOL    HW1 7782   5.587   3.429   0.555
  589SOL    HW2 7783   5.567   3.546   0.443
  590SOL     OW 7784   3.264   1.888   1.080
  590SOL    HW1 7785   3.228   1.795   1.087
  590SOL    HW2 7786   3.241   1.939   1.163
  591SOL     OW 7787   0.955   3.881   5.551
  591SOL    HW1 7788   0.945   3.980   5.560
  591SOL    HW2 7789   1.049   3.855   5.571
  592SOL     OW 7790   4.614   2.309   0.941
  592SOL    HW1 7791   4.693   2.371   0.950
  592SOL    HW2 7792   4.640   2.231   0.884
  593SOL     OW 7793   1.168   1.591   5.635
  593SOL    HW1 7794   1.112   1.510   5.649
  593SOL    HW2 7795   1.127   1.670   5.681
  594SOL     OW 7796   1.559   2.796   5.385
  594SOL    HW1 7797   1.575   2.873   5.446
  594SOL    HW2 7798   1.646   2.748   5.368
  595SOL     OW 7799   6.393   0.878   0.250
  595SOL    HW1 7800   6.341   0.963   0.239
  595SOL    HW2 7801   0.027   0.882   0.335
  596SOL     OW 7802   2.227   3.674   1.590
  596SOL    HW1 7803   2.144   3.618   1.579
  596SOL    HW2 7804   2.241   3.693   1.687
  597SOL     OW 7805   6.398   6.440   1.085
  597SOL    HW1 7806   0.030   6.370   1.135
  597SOL    HW2 7807   0.029   0.021   1.002
  598SOL     OW 7808   2.894   4.015   6.407
  598SOL    HW1 7809   2.829   3.945   6.440
  598SOL    HW2 7810   2.861   4.105   6.434
  599SOL     OW 7811   4.620   1.870   6.252
  599SOL    HW1 7812   4.595   1.966   6.243
  599SOL    HW2 7813   4.537   1.816   6.266
  600SOL     OW 7814   3.105   2.281   0.280
  600SOL    HW1 7815   3.133   2.200   0.333
  600SOL    HW2 7816   3.043   2.336   0.336
  601SOL     OW 7817   0.851   0.989   5.608
  601SOL    HW1 7818   0.947   0.991   5.635
  601SOL    HW2 7819   0.842   0.944   5.520
  602SOL     OW 7820   1.085   6.008   0.095
  602SOL    HW1 7821   1.171   6.056   0.109
  602SOL    HW2 7822   1.059   6.014   6.595
  603SOL     OW 7823   3.633   2.842   4.932
  603SOL    HW1 7824   3.673   2.820   4.843
  603SOL    HW2 7825   3.534   2.839   4.926
  604SOL     OW 7826   4.953   4.011   0.513
  604SOL    HW1 7827   4.998   4.074   0.576
  604SOL    HW2 7828   5.020   3.946   0.476
  605SOL     OW 7829   0.449   1.548   1.825
  605SOL    HW1 7830   0.362   1.571   1.869
  605SOL    HW2 7831   0.512   1.510   1.893
  606SOL     OW 7832   5.505   1.866   0.206
  606SOL    HW1 7833   5.546   1.780   0.174
  606SOL    HW2 7834   5.476   1.855   0.301
  607SOL     OW 7835   5.612   6.077   6.581
  607SOL    HW1 7836   5.516   6.104   6.571
  607SOL    HW2 7837   5.647   6.112   0.072
  608SOL     OW 7838   1.285   2.729   5.113
  608SOL    HW1 7839   1.192   2.695   5.120
  608SOL    HW2 7840   1.341   2.666   5.060
  609SOL     OW 7841   0.219   0.610   5.667
  609SOL    HW1 7842   0.191   0.675   5.596
  609SOL    HW2 7843   0.181   0.638   5.755
  610SOL     OW 7844   2.219   4.001   0.531
  610SOL    HW1 7845   2.193   4.001   0.434
  610SOL    HW2 7846   2.177   3.922   0.576
  611SOL     OW 7847   2.877   6.370   1.013
  611SOL    HW1 7848   2.807   6.378   1.084
  611SOL    HW2 7849   2.963   6.410   1.046
  612SOL     OW 7850   1.315   2.351   5.518
  612SOL    HW1 7851   1.344   2.305   5.602
  612SOL    HW2 7852   1.391   2.356   5.455
  613SOL     OW 7853   4.179   2.577   0.373
  613SOL    HW1 7854   4.205   2.658   0.426
  613SOL    HW2 7855   4.123   2.604   0.295
  614SOL     OW 7856   2.120   4.038   0.266
  614SOL    HW1 7857   2.174   3.999   0.191
  614SOL    HW2 7858   2.143   4.134   0.277
  615SOL     OW 7859   1.087   3.307   0.124
  615SOL    HW1 7860   1.040   3.258   0.198
  615SOL    HW2 7861   1.020   3.331   0.053
  616SOL     OW 7862   5.236   6.343   0.827
  616SOL    HW1 7863   5.231   6.399   0.745
  616SOL    HW2 7864   5.144   6.316   0.855
  617SOL     OW 7865   3.878   4.464   1.072
  617SOL    HW1 7866   3.889   4.441   0.976
  617SOL    HW2 7867   3.868   4.563   1.082
  618SOL     OW 7868   5.555   0.826   4.958
  618SOL    HW1 7869   5.469   0.869   4.931
  618SOL    HW2 7870   5.618   0.825   4.880
  619SOL     OW 7871   1.710   3.725   6.205
  619SOL    HW1 7872   1.666   3.808   6.239
  619SOL    HW2 7873   1.646   3.648   6.213
  620SOL     OW 7874   4.491   0.512   6.193
  620SOL    HW1 7875   4.427   0.546   6.261
  620SOL    HW2 7876   4.584   0.517   6.229
  621SOL     OW 7877   3.281   6.331   6.179
  621SOL    HW1 7878   3.340   6.293   6.251
  621SOL    HW2 7879   3.193   6.358   6.218
  622SOL     OW 7880   0.317   2.882   0.405
  622SOL    HW1 7881   0.269   2.797   0.384
  622SOL    HW2 7882   0.342   2.884   0.502
  623SOL     OW 7883   3.574   3.447   1.153
  623SOL    HW1 7884   3.512   3.415   1.225
  623SOL    HW2 7885   3.659   3.395   1.156
  624SOL     OW 7886   3.491   5.399   1.207
  624SOL    HW1 7887   3.571   5.400   1.268
  624SOL    HW2 7888   3.411   5.371   1.259
  625SOL     OW 7889   5.725   0.760   5.737
  625SOL    HW1 7890   5.787   0.788   5.810
  625SOL    HW2 7891   5.652   0.827   5.727
  626SOL     OW 7892   1.317   2.887   0.236
  626SOL    HW1 7893   1.316   2.971   0.182
  626SOL    HW2 7894   1.361   2.814   0.183
  627SOL     OW 7895   6.230   6.245   5.836
  627SOL    HW1 7896   6.275   6.318   5.888
  627SOL    HW2 7897   6.137   6.233   5.870
  628SOL     OW 7898   2.088   3.951   6.558
  628SOL    HW1 7899   2.033   3.999   0.029
  628SOL    HW2 7900   2.065   3.983   6.466
  629SOL     OW 7901   5.294   5.608   0.122
  629SOL    HW1 7902   5.267   5.543   0.192
  629SOL    HW2 7903   5.253   5.581   0.034
  630SOL     OW 7904   6.156   1.790   5.551
  630SOL    HW1 7905   6.213   1.812   5.630
  630SOL    HW2 7906   6.213   1.753   5.478
  631SOL     OW 7907   0.103   5.003   0.015
  631SOL    HW1 7908   0.004   4.994   0.026
  631SOL    HW2 7909   0.147   4.998   0.105
  632SOL     OW 7910   3.635   1.215   0.869
  632SOL    HW1 7911   3.671   1.279   0.801
  632SOL    HW2 7912   3.608   1.266   0.951
  633SOL     OW 7913   5.043   1.940   1.250
  633SOL    HW1 7914   5.120   1.983   1.295
  633SOL    HW2 7915   5.004   1.870   1.310
  634SOL     OW 7916   5.919   6.055   0.699
  634SOL    HW1 7917   5.943   5.990   0.771
  634SOL    HW2 7918   5.989   6.053   0.628
  635SOL     OW 7919   4.676   0.983   6.182
  635SOL    HW1 7920   4.662   1.022   6.091
  635SOL    HW2 7921   4.716   0.892   6.174
  636SOL     OW 7922   5.093   2.115   5.904
  636SOL    HW1 7923   5.098   2.099   5.806
  636SOL    HW2 7924   5.178   2.156   5.936
  637SOL     OW 7925   5.004   6.358   0.346
  637SOL    HW1 7926   5.029   6.276   0.398
  637SOL    HW2 7927   5.003   6.336   0.248
  638SOL     OW 7928   3.573   6.423   0.419
  638SOL    HW1 7929   3.623   6.421   0.506
  638SOL    HW2 7930   3.558   0.075   0.392
  639SOL     OW 7931   0.473   0.986   6.478
  639SOL    HW1 7932   0.381   1.021   6.463
  639SOL    HW2 7933   0.468   0.891   6.510
  640SOL     OW 7934   5.122   5.419   1.479
  640SOL    HW1 7935   5.069   5.476   1.541
  640SOL    HW2 7936   5.167   5.346   1.530
  641SOL     OW 7937   0.038   2.968   6.019
  641SOL    HW1 7938   0.076   3.060   6.031
  641SOL    HW2 7939   0.021   2.952   5.922
  642SOL     OW 7940   1.304   0.901   0.984
  642SOL    HW1 7941   1.391   0.919   0.939
  642SOL    HW2 7942   1.319   0.873   1.078
  643SOL     OW 7943   1.442   4.120   6.449
  643SOL    HW1 7944   1.502   4.199   6.460
  643SOL    HW2 7945   1.357   4.136   6.500
  644SOL     OW 7946   5.596   3.864   6.145
  644SOL    HW1 7947   5.540   3.946   6.140
  644SOL    HW2 7948   5.548   3.788   6.102
  645SOL     OW 7949   2.952   0.952   1.074
  645SOL    HW1 7950   2.995   0.891   1.140
  645SOL    HW2 7951   2.864   0.914   1.044
  646SOL     OW 7952   2.744   0.444   0.316
  646SOL    HW1 7953   2.677   0.488   0.376
  646SOL    HW2 7954   2.796   0.376   0.369
  647SOL     OW 7955   5.493   5.474   0.454
  647SOL    HW1 7956   5.405   5.441   0.419
  647SOL    HW2 7957   5.518   5.558   0.406
  648SOL     OW 7958   1.983   5.917   5.552
  648SOL    HW1 7959   2.027   5.974   5.482
  648SOL    HW2 7960   2.024   5.826   5.551
  649SOL     OW 7961   1.257   5.265   0.964
  649SOL    HW1 7962   1.256   5.337   1.034
  649SOL    HW2 7963   1.300   5.183   1.002
  650SOL     OW 7964   5.673   0.653   1.166
  650SOL    HW1 7965   5.637   0.704   1.244
  650SOL    HW2 7966   5.700   0.561   1.197
  651SOL     OW 7967   4.298   0.067   5.298
  651SOL    HW1 7968   4.208   0.038   5.329
  651SOL    HW2 7969   4.302   0.062   5.198
  652SOL     OW 7970   5.864   4.541   0.384
  652SOL    HW1 7971   5.876   4.636   0.413
  652SOL    HW2 7972   5.766   4.521   0.376
  653SOL     OW 7973   0.182   2.982   0.053
  653SOL    HW1 7974   0.168   3.036   6.566
  653SOL    HW2 7975   0.257   3.022   0.105
  654SOL     OW 7976   3.951   4.517   0.562
  654SOL    HW1 7977   3.899   4.592   0.522
  654SOL    HW2 7978   4.049   4.534   0.551
  655SOL     OW 7979   5.389   5.247   5.837
  655SOL    HW1 7980   5.290   5.228   5.832
  655SOL    HW2 7981   5.439   5.177   5.786
  656SOL     OW 7982   2.794   3.029   5.499
  656SOL    HW1 7983   2.767   3.125   5.508
  656SOL    HW2 7984   2.838   3.015   5.410
  657SOL     OW 7985   0.764   1.434   1.258
  657SOL    HW1 7986   0.829   1.472   1.192
  657SOL    HW2 7987   0.673   1.472   1.240
  658SOL     OW 7988   1.701   2.593   5.995
  658SOL    HW1 7989   1.700   2.569   5.898
  658SOL    HW2 7990   1.767   2.535   6.042
  659SOL     OW 7991   2.684   2.942   5.741
  659SOL    HW1 7992   2.758   2.971   5.803
  659SOL    HW2 7993   2.713   2.955   5.646
  660SOL     OW 7994   2.236   2.743   0.426
  660SOL    HW1 7995   2.291   2.789   0.495
  660SOL    HW2 7996   2.208   2.810   0.356
  661SOL     OW 7997   0.557   3.871   5.519
  661SOL    HW1 7998   0.528   3.775   5.525
  661SOL    HW2 7999   0.631   3.880   5.452
  662SOL     OW 8000   2.870   6.343   0.258
  662SOL    HW1 8001   2.884   6.297   0.345
  662SOL    HW2 8002   2.809   6.421   0.270
  663SOL     OW 8003   5.727   6.423   0.338
  663SOL    HW1 8004   5.729   0.062   0.281
  663SOL    HW2 8005   5.674   6.442   0.421
  664SOL     OW 8006   2.265   2.321   5.756
  664SOL    HW1 8007   2.257   2.420   5.745
  664SOL    HW2 8008   2.195   2.289   5.821
  665SOL     OW 8009   5.539   4.946   5.954
  665SOL    HW1 8010   5.522   4.992   5.866
  665SOL    HW2 8011   5.533   4.847   5.941
  666SOL     OW 8012   0.187   0.922   0.032
  666SOL    HW1 8013   0.100   0.876   0.044
  666SOL    HW2 8014   0.248   0.899   0.108
  667SOL     OW 8015   5.017   3.078   0.334
  667SOL    HW1 8016   4.938   3.131   0.365
  667SOL    HW2 8017   5.034   3.097   0.237
  668SOL     OW 8018   1.877   2.770   0.178
  668SOL    HW1 8019   1.803   2.764   0.112
  668SOL    HW2 8020   1.846   2.820   0.259
  669SOL     OW 8021   4.100   5.162   0.747
  669SOL    HW1 8022   4.042   5.124   0.676
  669SOL    HW2 8023   4.045   5.220   0.808
  670SOL     OW 8024   0.481   4.612   5.883
  670SOL    HW1 8025   0.543   4.584   5.810
  670SOL    HW2 8026   0.524   4.596   5.972
  671SOL     OW 8027   2.569   0.955   6.300
  671SOL    HW1 8028   2.592   0.866   6.261
  671SOL    HW2 8029   2.625   0.972   6.381
  672SOL     OW 8030   3.748   4.855   0.729
  672SOL    HW1 8031   3.776   4.803   0.649
  672SOL    HW2 8032   3.671   4.914   0.705
  673SOL     OW 8033   4.291   4.011   5.677
  673SOL    HW1 8034   4.243   3.924   5.688
  673SOL    HW2 8035   4.384   3.994   5.644
  674SOL     OW 8036   0.839   1.830   1.425
  674SOL    HW1 8037   0.747   1.792   1.420
  674SOL    HW2 8038   0.883   1.800   1.510
  675SOL     OW 8039   1.997   1.288   5.892
  675SOL    HW1 8040   1.939   1.295   5.811
  675SOL    HW2 8041   1.947   1.324   5.971
  676SOL     OW 8042   0.944   2.191   0.200
  676SOL    HW1 8043   0.910   2.106   0.239
  676SOL    HW2 8044   1.043   2.185   0.188
  677SOL     OW 8045   0.463   1.870   6.090
  677SOL    HW1 8046   0.433   1.966   6.088
  677SOL    HW2 8047   0.562   1.867   6.103
  678SOL     OW 8048   1.523   5.532   6.295
  678SOL    HW1 8049   1.573   5.606   6.342
  678SOL    HW2 8050   1.551   5.444   6.333
  679SOL     OW 8051   5.809   1.810   0.228
  679SOL    HW1 8052   5.897   1.789   0.186
  679SOL    HW2 8053   5.737   1.757   0.183
  680SOL     OW 8054   3.248   0.662   5.036
  680SOL    HW1 8055   3.332   0.608   5.035
  680SOL    HW2 8056   3.269   0.757   5.015
  681SOL     OW 8057   0.775   3.419   0.103
  681SOL    HW1 8058   0.814   3.508   0.127
  681SOL    HW2 8059   0.771   3.361   0.184
  682SOL     OW 8060   4.304   2.013   6.246
  682SOL    HW1 8061   4.286   1.915   6.238
  682SOL    HW2 8062   4.275   2.046   6.335
  683SOL     OW 8063   2.457   5.578   6.067
  683SOL    HW1 8064   2.464   5.485   6.030
  683SOL    HW2 8065   2.379   5.625   6.026
  684SOL     OW 8066   4.676   2.196   4.381
  684SOL    HW1 8067   4.581   2.202   4.409
  684SOL    HW2 8068   4.722   2.283   4.401
  685SOL     OW 8069   4.320   5.110   5.817
  685SOL    HW1 8070   4.371   5.023   5.811
  685SOL    HW2 8071   4.285   5.122   5.909
  686SOL     OW 8072   1.623   0.450   1.621
  686SOL    HW1 8073   1.671   0.374   1.576
  686SOL    HW2 8074   1.625   0.530   1.562
  687SOL     OW 8075   3.420   5.927   0.510
  687SOL    HW1 8076   3.510   5.886   0.522
  687SOL    HW2 8077   3.430   6.016   0.465
  688SOL     OW 8078   5.191   5.443   5.089
  688SOL    HW1 8079   5.263   5.379   5.114
  688SOL    HW2 8080   5.215   5.489   5.003
  689SOL     OW 8081   4.783   4.943   0.733
  689SOL    HW1 8082   4.781   4.939   0.833
  689SOL    HW2 8083   4.711   5.006   0.702
  690SOL     OW 8084   2.167   2.629   0.767
  690SOL    HW1 8085   2.251   2.674   0.799
  690SOL    HW2 8086   2.190   2.542   0.724
  691SOL     OW 8087   0.272   0.553   6.029
  691SOL    HW1 8088   0.179   0.530   6.057
  691SOL    HW2 8089   0.319   0.471   5.997
  692SOL     OW 8090   0.491   4.229   0.773
  692SOL    HW1 8091   0.463   4.239   0.678
  692SOL    HW2 8092   0.568   4.289   0.792
  693SOL     OW 8093   1.038   6.009   6.423
  693SOL    HW1 8094   0.946   6.042   6.403
  693SOL    HW2 8095   1.106   6.074   6.387
  694SOL     OW 8096   1.568   2.831   5.994
  694SOL    HW1 8097   1.600   2.737   6.000
  694SOL    HW2 8098   1.639   2.888   5.953
  695SOL     OW 8099   0.612   5.433   0.414
  695SOL    HW1 8100   0.689   5.402   0.359
  695SOL    HW2 8101   0.545   5.359   0.423
  696SOL     OW 8102   5.896   5.168   0.514
  696SOL    HW1 8103   5.837   5.249   0.509
  696SOL    HW2 8104   5.946   5.168   0.601
  697SOL     OW 8105   5.563   0.408   5.171
  697SOL    HW1 8106   5.650   0.389   5.124
  697SOL    HW2 8107   5.578   0.476   5.242
  698SOL     OW 8108   2.416   1.976   5.872
  698SOL    HW1 8109   2.371   1.965   5.961
  698SOL    HW2 8110   2.472   1.895   5.853
  699SOL     OW 8111   0.848   0.818   0.705
  699SOL    HW1 8112   0.792   0.857   0.778
  699SOL    HW2 8113   0.943   0.813   0.737
  700SOL     OW 8114   6.324   0.982   5.369
  700SOL    HW1 8115   6.376   1.067   5.366
  700SOL    HW2 8116   6.387   0.906   5.391
  701SOL     OW 8117   2.139   3.386   5.856
  701SOL    HW1 8118   2.081   3.306   5.876
  701SOL    HW2 8119   2.083   3.458   5.814
  702SOL     OW 8120   2.834   2.379   5.979
  702SOL    HW1 8121   2.880   2.408   5.896
  702SOL    HW2 8122   2.840   2.280   5.989
  703SOL     OW 8123   4.345   4.328   1.540
  703SOL    HW1 8124   4.345   4.270   1.458
  703SOL    HW2 8125   4.368   4.422   1.514
  704SOL     OW 8126   3.902   6.014   4.965
  704SOL    HW1 8127   3.882   5.969   4.878
  704SOL    HW2 8128   3.972   5.963   5.014
  705SOL     OW 8129   2.393   5.936   6.061
  705SOL    HW1 8130   2.422   5.951   5.966
  705SOL    HW2 8131   2.471   5.947   6.122
  706SOL     OW 8132   5.250   2.878   5.008
  706SOL    HW1 8133   5.223   2.782   5.008
  706SOL    HW2 8134   5.274   2.905   4.914
  707SOL     OW 8135   4.845   2.230   5.897
  707SOL    HW1 8136   4.867   2.310   5.952
  707SOL    HW2 8137   4.925   2.171   5.891
  708SOL     OW 8138   1.748   0.354   0.677
  708SOL    HW1 8139   1.831   0.310   0.642
  708SOL    HW2 8140   1.766   0.451   0.692
  709SOL     OW 8141   6.331   4.373   6.323
  709SOL    HW1 8142   6.413   4.315   6.327
  709SOL    HW2 8143   6.346   4.456   6.376
  710SOL     OW 8144   1.452   4.319   5.559
  710SOL    HW1 8145   1.532   4.285   5.510
  710SOL    HW2 8146   1.369   4.279   5.521
  711SOL     OW 8147   1.843   4.144   6.521
  711SOL    HW1 8148   1.778   4.213   6.555
  711SOL    HW2 8149   1.865   4.162   6.426
  712SOL     OW 8150   5.090   3.720   1.834
  712SOL    HW1 8151   5.134   3.698   1.921
  712SOL    HW2 8152   4.993   3.699   1.839
  713SOL     OW 8153   2.320   1.424   6.153
  713SOL    HW1 8154   2.296   1.480   6.232
  713SOL    HW2 8155   2.382   1.351   6.181
  714SOL     OW 8156   0.861   1.184   5.352
  714SOL    HW1 8157   0.771   1.161   5.390
  714SOL    HW2 8158   0.849   1.241   5.270
  715SOL     OW 8159   4.619   0.825   4.749
  715SOL    HW1 8160   4.693   0.888   4.724
  715SOL    HW2 8161   4.556   0.816   4.672
  716SOL     OW 8162   2.858   5.426   5.941
  716SOL    HW1 8163   2.941   5.404   5.891
  716SOL    HW2 8164   2.793   5.350   5.933
  717SOL     OW 8165   2.083   6.192   1.646
  717SOL    HW1 8166   2.170   6.237   1.629
  717SOL    HW2 8167   2.092   6.129   1.723
  718SOL     OW 8168   3.407   4.568   6.049
  718SOL    HW1 8169   3.471   4.509   6.097
  718SOL    HW2 8170   3.353   4.620   6.115
  719SOL     OW 8171   2.907   0.243   5.774
  719SOL    HW1 8172   2.919   0.241   5.873
  719SOL    HW2 8173   2.911   0.150   5.738
  720SOL     OW 8174   0.468   4.244   1.052
  720SOL    HW1 8175   0.472   4.245   0.952
  720SOL    HW2 8176   0.469   4.339   1.085
  721SOL     OW 8177   1.057   6.309   0.239
  721SOL    HW1 8178   1.074   6.215   0.206
  721SOL    HW2 8179   1.007   6.360   0.169
  722SOL     OW 8180   3.809   3.785   5.576
  722SOL    HW1 8181   3.793   3.884   5.584
  722SOL    HW2 8182   3.814   3.760   5.479
  723SOL     OW 8183   3.376   5.603   4.908
  723SOL    HW1 8184   3.303   5.579   4.843
  723SOL    HW2 8185   3.434   5.674   4.868
  724SOL     OW 8186   0.047   5.056   0.659
  724SOL    HW1 8187   0.125   5.114   0.635
  724SOL    HW2 8188   6.399   5.056   0.584
  725SOL     OW 8189   4.223   2.697   1.859
  725SOL    HW1 8190   4.166   2.615   1.861
  725SOL    HW2 8191   4.316   2.672   1.834
  726SOL     OW 8192   0.492   3.596   5.513
  726SOL    HW1 8193   0.525   3.580   5.419
  726SOL    HW2 8194   0.392   3.585   5.515
  727SOL     OW 8195   2.866   4.851   0.721
  727SOL    HW1 8196   2.820   4.919   0.778
  727SOL    HW2 8197   2.953   4.826   0.763
  728SOL     OW 8198   5.351   6.068   5.403
  728SOL    HW1 8199   5.308   6.092   5.490
  728SOL    HW2 8200   5.283   6.028   5.342
  729SOL     OW 8201   6.181   1.933   6.177
  729SOL    HW1 8202   6.199   1.842   6.140
  729SOL    HW2 8203   6.267   1.979   6.196
  730SOL     OW 8204   0.218   1.572   0.365
  730SOL    HW1 8205   0.309   1.550   0.329
  730SOL    HW2 8206   0.224   1.652   0.425
  731SOL     OW 8207   6.246   4.368   1.116
  731SOL    HW1 8208   6.238   4.277   1.158
  731SOL    HW2 8209   6.214   4.437   1.180
  732SOL     OW 8210   1.861   6.306   6.314
  732SOL    HW1 8211   1.903   6.348   6.233
  732SOL    HW2 8212   1.831   6.377   6.377
  733SOL     OW 8213   2.645   3.756   0.005
  733SOL    HW1 8214   2.693   3.700   6.534
  733SOL    HW2 8215   2.711   3.790   0.073
  734SOL     OW 8216   4.058   0.155   6.434
  734SOL    HW1 8217   3.970   0.202   6.442
  734SOL    HW2 8218   4.127   0.218   6.397
  735SOL     OW 8219   3.025   4.656   6.198
  735SOL    HW1 8220   3.008   4.584   6.265
  735SOL    HW2 8221   3.121   4.685   6.205
  736SOL     OW 8222   5.875   0.051   1.065
  736SOL    HW1 8223   5.840   0.113   1.134
  736SOL    HW2 8224   5.975   0.049   1.070
  737SOL     OW 8225   4.859   3.907   5.518
  737SOL    HW1 8226   4.833   3.811   5.508
  737SOL    HW2 8227   4.911   3.936   5.438
  738SOL     OW 8228   3.715   4.084   0.634
  738SOL    HW1 8229   3.668   4.144   0.569
  738SOL    HW2 8230   3.813   4.090   0.621
  739SOL     OW 8231   1.839   5.051   6.500
  739SOL    HW1 8232   1.776   4.977   6.477
  739SOL    HW2 8233   1.881   5.033   6.589
  740SOL     OW 8234   0.865   1.215   1.134
  740SOL    HW1 8235   0.859   1.128   1.183
  740SOL    HW2 8236   0.819   1.286   1.188
  741SOL     OW 8237   4.581   1.891   1.240
  741SOL    HW1 8238   4.638   1.860   1.164
  741SOL    HW2 8239   4.638   1.938   1.307
  742SOL     OW 8240   5.121   0.815   6.590
  742SOL    HW1 8241   5.068   0.851   0.070
  742SOL    HW2 8242   5.118   0.715   6.591
  743SOL     OW 8243   0.351   4.243   6.064
  743SOL    HW1 8244   0.423   4.231   5.997
  743SOL    HW2 8245   0.391   4.269   6.152
  744SOL     OW 8246   2.610   4.046   6.589
  744SOL    HW1 8247   2.613   3.946   0.003
  744SOL    HW2 8248   2.558   4.069   6.506
  745SOL     OW 8249   2.080   6.138   1.098
  745SOL    HW1 8250   1.986   6.166   1.114
  745SOL    HW2 8251   2.082   6.043   1.066
  746SOL     OW 8252   3.427   5.897   5.748
  746SOL    HW1 8253   3.515   5.877   5.792
  746SOL    HW2 8254   3.414   5.834   5.671
  747SOL     OW 8255   2.671   3.910   6.205
  747SOL    HW1 8256   2.663   3.987   6.269
  747SOL    HW2 8257   2.702   3.944   6.116
  748SOL     OW 8258   1.610   3.317   0.156
  748SOL    HW1 8259   1.631   3.220   0.145
  748SOL    HW2 8260   1.524   3.327   0.206
  749SOL     OW 8261   2.926   1.984   0.778
  749SOL    HW1 8262   2.961   1.940   0.696
  749SOL    HW2 8263   2.840   2.030   0.758
  750SOL     OW 8264   1.786   0.780   6.442
  750SOL    HW1 8265   1.841   0.864   6.439
  750SOL    HW2 8266   1.692   0.803   6.466
  751SOL     OW 8267   2.082   2.913   6.508
  751SOL    HW1 8268   2.058   2.949   6.418
  751SOL    HW2 8269   2.046   2.972   6.580
  752SOL     OW 8270   3.075   5.621   5.044
  752SOL    HW1 8271   3.171   5.603   5.024
  752SOL    HW2 8272   3.040   5.692   4.983
  753SOL     OW 8273   4.491   4.614   6.178
  753SOL    HW1 8274   4.453   4.700   6.144
  753SOL    HW2 8275   4.429   4.539   6.159
  754SOL     OW 8276   1.414   1.040   0.291
  754SOL    HW1 8277   1.380   0.995   0.209
  754SOL    HW2 8278   1.378   0.993   0.372
  755SOL     OW 8279   6.117   1.669   1.098
  755SOL    HW1 8280   6.021   1.644   1.106
  755SOL    HW2 8281   6.146   1.718   1.180
  756SOL     OW 8282   2.456   5.997   5.777
  756SOL    HW1 8283   2.499   6.086   5.760
  756SOL    HW2 8284   2.357   6.006   5.773
  757SOL     OW 8285   5.130   2.093   5.638
  757SOL    HW1 8286   5.062   2.021   5.652
  757SOL    HW2 8287   5.158   2.094   5.542
  758SOL     OW 8288   3.740   5.583   1.240
  758SOL    HW1 8289   3.670   5.564   1.308
  758SOL    HW2 8290   3.780   5.673   1.256
  759SOL     OW 8291   0.993   2.142   1.594
  759SOL    HW1 8292   0.907   2.120   1.640
  759SOL    HW2 8293   0.997   2.240   1.575
  760SOL     OW 8294   6.223   2.684   0.459
  760SOL    HW1 8295   6.198   2.623   0.384
  760SOL    HW2 8296   6.228   2.632   0.544
  761SOL     OW 8297   1.377   5.086   0.272
  761SOL    HW1 8298   1.390   5.184   0.283
  761SOL    HW2 8299   1.414   5.038   0.352
  762SOL     OW 8300   1.343   1.293   1.383
  762SOL    HW1 8301   1.426   1.295   1.328
  762SOL    HW2 8302   1.356   1.349   1.465
  763SOL     OW 8303   0.200   1.580   5.040
  763SOL    HW1 8304   0.279   1.565   4.982
  763SOL    HW2 8305   0.169   1.493   5.077
  764SOL     OW 8306   2.120   3.344   0.964
  764SOL    HW1 8307   2.037   3.380   1.007
  764SOL    HW2 8308   2.131   3.248   0.987
  765SOL     OW 8309   5.609   4.728   1.950
  765SOL    HW1 8310   5.669   4.659   1.990
  765SOL    HW2 8311   5.539   4.753   2.017
  766SOL     OW 8312   5.724   0.150   5.757
  766SOL    HW1 8313   5.794   0.177   5.690
  766SOL    HW2 8314   5.737   0.054   5.781
  767SOL     OW 8315   0.174   2.288   6.054
  767SOL    HW1 8316   0.134   2.298   5.963
  767SOL    HW2 8317   0.186   2.378   6.095
  768SOL     OW 8318   3.805   2.858   5.998
  768SOL    HW1 8319   3.740   2.881   5.925
  768SOL    HW2 8320   3.895   2.841   5.958
  769SOL     OW 8321   4.232   5.128   6.077
  769SOL    HW1 8322   4.234   5.065   6.155
  769SOL    HW2 8323   4.214   5.221   6.110
  770SOL     OW 8324   3.202   2.221   6.413
  770SOL    HW1 8325   3.130   2.181   6.356
  770SOL    HW2 8326   3.162   2.252   6.499
  771SOL     OW 8327   1.970   5.171   0.681
  771SOL    HW1 8328   1.958   5.105   0.607
  771SOL    HW2 8329   2.038   5.137   0.745
  772SOL     OW 8330   5.913   4.155   6.039
  772SOL    HW1 8331   5.972   4.189   6.112
  772SOL    HW2 8332   5.888   4.060   6.057
  773SOL     OW 8333   0.204   4.006   6.033
  773SOL    HW1 8334   0.200   4.006   5.933
  773SOL    HW2 8335   0.266   4.078   6.064
  774SOL     OW 8336   4.345   5.218   0.639
  774SOL    HW1 8337   4.329   5.232   0.541
  774SOL    HW2 8338   4.261   5.186   0.682
  775SOL     OW 8339   1.353   0.439   5.648
  775SOL    HW1 8340   1.316   0.347   5.665
  775SOL    HW2 8341   1.383   0.445   5.553
  776SOL     OW 8342   5.788   0.207   1.260
  776SOL    HW1 8343   5.830   0.176   1.346
  776SOL    HW2 8344   5.725   0.283   1.279
  777SOL     OW 8345   3.267   2.190   5.419
  777SOL    HW1 8346   3.216   2.262   5.373
  777SOL    HW2 8347   3.228   2.101   5.396
  778SOL     OW 8348   5.780   4.873   1.786
  778SOL    HW1 8349   5.856   4.815   1.816
  778SOL    HW2 8350   5.697   4.845   1.833
  779SOL     OW 8351   4.505   6.373   6.306
  779SOL    HW1 8352   4.457   6.336   6.226
  779SOL    HW2 8353   4.597   6.335   6.311
  780SOL     OW 8354   5.492   3.203   5.082
  780SOL    HW1 8355   5.581   3.250   5.081
  780SOL    HW2 8356   5.505   3.105   5.066
  781SOL     OW 8357   0.185   0.954   5.670
  781SOL    HW1 8358   0.228   1.024   5.613
  781SOL    HW2 8359   0.130   0.893   5.612
  782SOL     OW 8360   1.438   4.568   6.127
  782SOL    HW1 8361   1.428   4.601   6.220
  782SOL    HW2 8362   1.488   4.635   6.072
  783SOL     OW 8363   0.208   1.464   6.058
  783SOL    HW1 8364   0.234   1.556   6.085
  783SOL    HW2 8365   0.262   1.398   6.110
  784SOL     OW 8366   3.928   0.126   0.803
  784SOL    HW1 8367   3.966   0.161   0.718
  784SOL    HW2 8368   3.940   0.194   0.875
  785SOL     OW 8369   3.357   4.677   6.550
  785SOL    HW1 8370   3.265   4.660   6.584
  785SOL    HW2 8371   3.392   4.762   6.588
  786SOL     OW 8372   0.843   5.325   5.855
  786SOL    HW1 8373   0.816   5.232   5.881
  786SOL    HW2 8374   0.837   5.385   5.934
  787SOL     OW 8375   2.970   0.245   0.392
  787SOL    HW1 8376   2.967   0.272   0.296
  787SOL    HW2 8377   2.924   0.157   0.403
  788SOL     OW 8378   0.287   3.613   6.164
  788SOL    HW1 8379   0.271   3.523   6.204
  788SOL    HW2 8380   0.216   3.677   6.195
  789SOL     OW 8381   2.151   6.243   6.106
  789SOL    HW1 8382   2.147   6.316   6.038
  789SOL    HW2 8383   2.178   6.281   6.194
  790SOL     OW 8384   0.497   4.401   6.596
  790SOL    HW1 8385   0.528   4.485   0.044
  790SOL    HW2 8386   0.549   4.386   6.512
  791SOL     OW 8387   2.653   6.150   5.459
  791SOL    HW1 8388   2.701   6.084   5.517
  791SOL    HW2 8389   2.578   6.104   5.411
  792SOL     OW 8390   3.658   0.230   5.693
  792SOL    HW1 8391   3.740   0.263   5.647
  792SOL    HW2 8392   3.605   0.307   5.727
  793SOL     OW 8393   5.016   5.044   5.989
  793SOL    HW1 8394   4.962   4.963   5.970
  793SOL    HW2 8395   5.080   5.026   6.064
  794SOL     OW 8396   6.160   4.373   0.532
  794SOL    HW1 8397   6.214   4.420   0.602
  794SOL    HW2 8398   6.096   4.437   0.490
  795SOL     OW 8399   1.658   2.233   5.716
  795SOL    HW1 8400   1.725   2.228   5.642
  795SOL    HW2 8401   1.628   2.140   5.739
  796SOL     OW 8402   4.024   0.812   0.734
  796SOL    HW1 8403   4.092   0.791   0.663
  796SOL    HW2 8404   4.069   0.820   0.822
  797SOL     OW 8405   3.843   3.599   1.402
  797SOL    HW1 8406   3.905   3.673   1.428
  797SOL    HW2 8407   3.888   3.511   1.417
  798SOL     OW 8408   5.925   0.686   0.469
  798SOL    HW1 8409   5.850   0.729   0.520
  798SOL    HW2 8410   5.906   0.690   0.371
  799SOL     OW 8411   3.426   5.344   6.281
  799SOL    HW1 8412   3.430   5.416   6.350
  799SOL    HW2 8413   3.338   5.348   6.234
  800SOL     OW 8414   0.531   2.829   5.846
  800SOL    HW1 8415   0.545   2.792   5.754
  800SOL    HW2 8416   0.465   2.904   5.842
  801SOL     OW 8417   4.959   3.988   5.255
  801SOL    HW1 8418   5.014   4.008   5.174
  801SOL    HW2 8419   4.998   4.035   5.335
  802SOL     OW 8420   0.870   3.531   5.392
  802SOL    HW1 8421   0.930   3.563   5.319
  802SOL    HW2 8422   0.775   3.538   5.363
  803SOL     OW 8423   1.185   4.925   1.227
  803SOL    HW1 8424   1.144   4.917   1.136
  803SOL    HW2 8425   1.174   4.838   1.276
  804SOL     OW 8426   5.037   1.856   0.513
  804SOL    HW1 8427   5.019   1.771   0.463
  804SOL    HW2 8428   4.951   1.903   0.531
  805SOL     OW 8429   3.551   5.794   5.481
  805SOL    HW1 8430   3.569   5.788   5.383
  805SOL    HW2 8431   3.470   5.739   5.503
  806SOL     OW 8432   3.752   5.725   0.135
  806SOL    HW1 8433   3.823   5.661   0.104
  806SOL    HW2 8434   3.778   5.818   0.110
  807SOL     OW 8435   0.619   2.919   0.109
  807SOL    HW1 8436   0.618   2.933   0.010
  807SOL    HW2 8437   0.544   2.971   0.151
  808SOL     OW 8438   2.171   5.998   5.772
  808SOL    HW1 8439   2.188   5.904   5.803
  808SOL    HW2 8440   2.101   5.997   5.701
  809SOL     OW 8441   3.302   3.275   5.923
  809SOL    HW1 8442   3.315   3.249   6.018
  809SOL    HW2 8443   3.385   3.318   5.888
  810SOL     OW 8444   3.278   3.147   6.530
  810SOL    HW1 8445   3.229   3.202   6.461
  810SOL    HW2 8446   3.304   3.205   0.010
  811SOL     OW 8447   2.641   2.227   5.518
  811SOL    HW1 8448   2.556   2.210   5.569
  811SOL    HW2 8449   2.633   2.186   5.426
  812SOL     OW 8450   1.002   2.591   6.166
  812SOL    HW1 8451   0.913   2.582   6.121
  812SOL    HW2 8452   1.008   2.681   6.210
  813SOL     OW 8453   0.325   0.995   1.325
  813SOL    HW1 8454   0.230   1.019   1.307
  813SOL    HW2 8455   0.340   0.986   1.423
  814SOL     OW 8456   1.079   1.263   1.466
  814SOL    HW1 8457   1.172   1.264   1.427
  814SOL    HW2 8458   1.061   1.352   1.508
  815SOL     OW 8459   0.248   4.528   4.996
  815SOL    HW1 8460   0.311   4.599   4.964
  815SOL    HW2 8461   0.154   4.557   4.980
  816SOL     OW 8462   1.488   4.058   1.231
  816SOL    HW1 8463   1.428   4.137   1.217
  816SOL    HW2 8464   1.570   4.087   1.280
  817SOL     OW 8465   5.595   5.335   0.915
  817SOL    HW1 8466   5.547   5.376   0.993
  817SOL    HW2 8467   5.565   5.379   0.830
  818SOL     OW 8468   6.268   4.628   0.663
  818SOL    HW1 8469   6.176   4.669   0.662
  818SOL    HW2 8470   6.317   4.655   0.580
  819SOL     OW 8471   2.944   4.898   1.152
  819SOL    HW1 8472   2.922   4.881   1.249
  819SOL    HW2 8473   2.880   4.847   1.094
  820SOL     OW 8474   5.079   3.365   5.762
  820SOL    HW1 8475   5.161   3.327   5.805
  820SOL    HW2 8476   5.041   3.436   5.820
  821SOL     OW 8477   3.010   1.643   4.795
  821SOL    HW1 8478   3.055   1.651   4.705
  821SOL    HW2 8479   2.913   1.665   4.786
  822SOL     OW 8480   2.282   2.076   6.409
  822SOL    HW1 8481   2.379   2.102   6.414
  822SOL    HW2 8482   2.232   2.120   6.484
  823SOL     OW 8483   3.322   4.199   0.942
  823SOL    HW1 8484   3.290   4.254   0.865
  823SOL    HW2 8485   3.243   4.174   0.999
  824SOL     OW 8486   6.056   0.126   6.391
  824SOL    HW1 8487   5.972   0.089   6.431
  824SOL    HW2 8488   6.090   0.064   6.321
  825SOL     OW 8489   5.559   1.705   4.872
  825SOL    HW1 8490   5.532   1.760   4.793
  825SOL    HW2 8491   5.497   1.723   4.948
  826SOL     OW 8492   1.775   1.490   0.056
  826SOL    HW1 8493   1.714   1.565   0.081
  826SOL    HW2 8494   1.861   1.527   0.020
  827SOL     OW 8495   3.750   3.492   0.874
  827SOL    HW1 8496   3.781   3.489   0.969
  827SOL    HW2 8497   3.796   3.420   0.822
  828SOL     OW 8498   4.201   4.371   0.995
  828SOL    HW1 8499   4.162   4.279   0.998
  828SOL    HW2 8500   4.154   4.426   0.927
  829SOL     OW 8501   4.395   4.931   0.505
  829SOL    HW1 8502   4.298   4.952   0.505
  829SOL    HW2 8503   4.411   4.846   0.455
  830SOL     OW 8504   1.197   5.890   0.699
  830SOL    HW1 8505   1.214   5.911   0.795
  830SOL    HW2 8506   1.098   5.893   0.681
  831SOL     OW 8507   2.333   5.674   0.480
  831SOL    HW1 8508   2.369   5.687   0.387
  831SOL    HW2 8509   2.234   5.683   0.478
  832SOL     OW 8510   0.674   1.613   0.440
  832SOL    HW1 8511   0.645   1.569   0.525
  832SOL    HW2 8512   0.703   1.707   0.458
  833SOL     OW 8513   4.868   5.655   5.648
  833SOL    HW1 8514   4.777   5.622   5.675
  833SOL    HW2 8515   4.936   5.584   5.667
  834SOL     OW 8516   3.368   1.514   5.805
  834SOL    HW1 8517   3.354   1.428   5.854
  834SOL    HW2 8518   3.435   1.501   5.732
  835SOL     OW 8519   5.468   2.754   6.096
  835SOL    HW1 8520   5.512   2.840   6.122
  835SOL    HW2 8521   5.392   2.772   6.034
  836SOL     OW 8522   2.452   2.898   5.990
  836SOL    HW1 8523   2.487   2.835   6.059
  836SOL    HW2 8524   2.497   2.881   5.902
  837SOL     OW 8525   1.473   3.720   1.367
  837SOL    HW1 8526   1.465   3.737   1.466
  837SOL    HW2 8527   1.536   3.786   1.327
  838SOL     OW 8528   5.083   4.541   6.098
  838SOL    HW1 8529   5.001   4.530   6.042
  838SOL    HW2 8530   5.161   4.498   6.053
  839SOL     OW 8531   3.439   3.918   0.060
  839SOL    HW1 8532   3.459   3.820   0.060
  839SOL    HW2 8533   3.342   3.932   0.077
  840SOL     OW 8534   1.763   1.619   5.313
  840SOL    HW1 8535   1.669   1.651   5.321
  840SOL    HW2 8536   1.818   1.688   5.267
  841SOL     OW 8537   4.395   3.467   1.321
  841SOL    HW1 8538   4.430   3.554   1.286
  841SOL    HW2 8539   4.324   3.484   1.388
  842SOL     OW 8540   3.111   0.093   6.343
  842SOL    HW1 8541   3.119   0.191   6.366
  842SOL    HW2 8542   3.031   0.080   6.284
  843SOL     OW 8543   3.178   1.724   5.993
  843SOL    HW1 8544   3.175   1.627   5.966
  843SOL    HW2 8545   3.118   1.777   5.934
  844SOL     OW 8546   5.194   0.313   0.120
  844SOL    HW1 8547   5.123   0.320   0.190
  844SOL    HW2 8548   5.284   0.315   0.164
  845SOL     OW 8549   2.072   4.653   6.495
  845SOL    HW1 8550   2.030   4.680   6.408
  845SOL    HW2 8551   2.106   4.560   6.487
  846SOL     OW 8552   3.877   1.717   6.030
  846SOL    HW1 8553   3.864   1.691   6.126
  846SOL    HW2 8554   3.877   1.817   6.022
  847SOL     OW 8555   4.771   5.078   1.959
  847SOL    HW1 8556   4.856   5.069   2.011
  847SOL    HW2 8557   4.745   5.175   1.954
  848SOL     OW 8558   6.264   5.339   6.035
  848SOL    HW1 8559   6.265   5.399   6.114
  848SOL    HW2 8560   6.355   5.334   5.995
  849SOL     OW 8561   3.380   5.317   5.932
  849SOL    HW1 8562   3.384   5.413   5.956
  849SOL    HW2 8563   3.455   5.295   5.869
  850SOL     OW 8564   5.208   0.570   0.537
  850SOL    HW1 8565   5.179   0.661   0.507
  850SOL    HW2 8566   5.161   0.547   0.622
  851SOL     OW 8567   3.042   0.778   1.293
  851SOL    HW1 8568   2.994   0.745   1.374
  851SOL    HW2 8569   3.108   0.848   1.320
  852SOL     OW 8570   5.197   5.793   6.067
  852SOL    HW1 8571   5.242   5.852   6.000
  852SOL    HW2 8572   5.261   5.720   6.094
  853SOL     OW 8573   1.311   1.914   0.524
  853SOL    HW1 8574   1.322   1.929   0.426
  853SOL    HW2 8575   1.330   1.818   0.545
  854SOL     OW 8576   1.630   6.395   0.778
  854SOL    HW1 8577   1.616   6.413   0.875
  854SOL    HW2 8578   1.591   0.026   0.724
  855SOL     OW 8579   2.865   0.744   6.003
  855SOL    HW1 8580   2.943   0.694   6.042
  855SOL    HW2 8581   2.787   0.734   6.064
  856SOL     OW 8582   0.385   4.545   1.644
  856SOL    HW1 8583   0.472   4.558   1.596
  856SOL    HW2 8584   0.401   4.544   1.742
  857SOL     OW 8585   3.570   1.181   0.548
  857SOL    HW1 8586   3.577   1.211   0.643
  857SOL    HW2 8587   3.534   1.088   0.545
  858SOL     OW 8588   4.923   4.605   0.137
  858SOL    HW1 8589   4.829   4.574   0.124
  858SOL    HW2 8590   4.986   4.531   0.114
  859SOL     OW 8591   1.368   0.296   0.976
  859SOL    HW1 8592   1.287   0.298   0.918
  859SOL    HW2 8593   1.403   0.389   0.987
  860SOL     OW 8594   4.144   3.410   5.703
  860SOL    HW1 8595   4.096   3.355   5.772
  860SOL    HW2 8596   4.077   3.454   5.643
  861SOL     OW 8597   2.619   0.264   6.404
  861SOL    HW1 8598   2.558   0.333   6.364
  861SOL    HW2 8599   2.705   0.262   6.353
  862SOL     OW 8600   6.164   5.424   5.336
  862SOL    HW1 8601   6.215   5.425   5.250
  862SOL    HW2 8602   6.066   5.437   5.316
  863SOL     OW 8603   1.579   0.107   1.295
  863SOL    HW1 8604   1.639   0.174   1.339
  863SOL    HW2 8605   1.513   0.073   1.362
  864SOL     OW 8606   5.049   3.579   6.261
  864SOL    HW1 8607   5.088   3.669   6.284
  864SOL    HW2 8608   4.998   3.586   6.176
  865SOL     OW 8609   0.781   0.202   5.879
  865SOL    HW1 8610   0.704   0.144   5.905
  865SOL    HW2 8611   0.863   0.175   5.931
  866SOL     OW 8612   0.424   6.298   0.660
  866SOL    HW1 8613   0.461   6.205   0.662
  866SOL    HW2 8614   0.496   6.362   0.630
  867SOL     OW 8615   0.683   6.280   0.900
  867SOL    HW1 8616   0.775   6.301   0.866
  867SOL    HW2 8617   0.643   6.207   0.845
  868SOL     OW 8618   1.007   4.822   0.215
  868SOL    HW1 8619   1.107   4.820   0.221
  868SOL    HW2 8620   0.975   4.745   0.160
  869SOL     OW 8621   5.632   5.707   5.235
  869SOL    HW1 8622   5.725   5.732   5.208
  869SOL    HW2 8623   5.581   5.790   5.259
  870SOL     OW 8624   4.093   0.562   1.053
  870SOL    HW1 8625   4.143   0.644   1.024
  870SOL    HW2 8626   4.006   0.589   1.095
  871SOL     OW 8627   2.764   6.248   5.982
  871SOL    HW1 8628   2.715   6.195   6.052
  871SOL    HW2 8629   2.814   6.186   5.922
  872SOL     OW 8630   2.581   5.418   5.702
  872SOL    HW1 8631   2.589   5.478   5.783
  872SOL    HW2 8632   2.672   5.400   5.665
  873SOL     OW 8633   6.402   2.163   0.014
  873SOL    HW1 8634   0.064   2.182   0.071
  873SOL    HW2 8635   6.350   2.247   0.001
  874SOL     OW 8636   4.718   4.506   0.870
  874SOL    HW1 8637   4.803   4.478   0.914
  874SOL    HW2 8638   4.663   4.425   0.850
  875SOL     OW 8639   2.082   0.226   6.265
  875SOL    HW1 8640   2.027   0.309   6.256
  875SOL    HW2 8641   2.150   0.238   6.337
  876SOL     OW 8642   6.134   6.035   5.507
  876SOL    HW1 8643   6.082   6.096   5.566
  876SOL    HW2 8644   6.087   6.026   5.419
  877SOL     OW 8645   3.517   0.641   0.470
  877SOL    HW1 8646   3.569   0.621   0.388
  877SOL    HW2 8647   3.555   0.592   0.548
  878SOL     OW 8648   3.121   1.327   0.764
  878SOL    HW1 8649   3.148   1.250   0.822
  878SOL    HW2 8650   3.029   1.312   0.729
  879SOL     OW 8651   2.064   5.689   0.465
  879SOL    HW1 8652   2.027   5.739   0.544
  879SOL    HW2 8653   2.038   5.593   0.471
  880SOL     OW 8654   4.770   4.613   6.138
  880SOL    HW1 8655   4.671   4.623   6.150
  880SOL    HW2 8656   4.790   4.519   6.110
  881SOL     OW 8657   1.915   1.933   1.389
  881SOL    HW1 8658   2.011   1.961   1.398
  881SOL    HW2 8659   1.866   1.952   1.474
  882SOL     OW 8660   0.155   2.718   6.568
  882SOL    HW1 8661   0.122   2.677   0.057
  882SOL    HW2 8662   0.170   2.816   6.582
  883SOL     OW 8663   4.939   4.637   1.755
  883SOL    HW1 8664   5.018   4.640   1.817
  883SOL    HW2 8665   4.860   4.681   1.799
  884SOL     OW 8666   2.103   6.170   0.099
  884SOL    HW1 8667   2.093   6.139   0.005
  884SOL    HW2 8668   2.147   6.098   0.153
  885SOL     OW 8669   6.030   0.383   6.303
  885SOL    HW1 8670   6.128   0.396   6.286
  885SOL    HW2 8671   6.014   0.292   6.339
  886SOL     OW 8672   0.517   3.942   6.081
  886SOL    HW1 8673   0.504   3.860   6.025
  886SOL    HW2 8674   0.475   3.928   6.171
  887SOL     OW 8675   3.098   2.569   0.672
  887SOL    HW1 8676   3.045   2.639   0.624
  887SOL    HW2 8677   3.099   2.589   0.770
  888SOL     OW 8678   4.443   2.997   6.321
  888SOL    HW1 8679   4.475   3.090   6.334
  888SOL    HW2 8680   4.466   2.942   6.402
  889SOL     OW 8681   6.074   4.668   0.934
  889SOL    HW1 8682   6.036   4.669   0.842
  889SOL    HW2 8683   6.139   4.744   0.944
  890SOL     OW 8684   0.139   3.964   0.776
  890SOL    HW1 8685   0.108   4.045   0.725
  890SOL    HW2 8686   0.238   3.967   0.785
  891SOL     OW 8687   3.492   0.185   6.468
  891SOL    HW1 8688   3.466   0.275   6.433
  891SOL    HW2 8689   3.447   0.170   6.556
  892SOL     OW 8690   2.010   3.487   1.535
  892SOL    HW1 8691   1.914   3.507   1.514
  892SOL    HW2 8692   2.024   3.388   1.531
  893SOL     OW 8693   4.252   2.677   6.550
  893SOL    HW1 8694   4.182   2.679   0.024
  893SOL    HW2 8695   4.331   2.732   6.579
  894SOL     OW 8696   2.791   1.838   1.139
  894SOL    HW1 8697   2.860   1.802   1.076
  894SOL    HW2 8698   2.702   1.842   1.093
  895SOL     OW 8699   4.050   2.776   5.581
  895SOL    HW1 8700   4.088   2.868   5.573
  895SOL    HW2 8701   3.959   2.775   5.539
  896SOL     OW 8702   1.711   1.345   4.695
  896SOL    HW1 8703   1.656   1.428   4.702
  896SOL    HW2 8704   1.652   1.268   4.672
  897SOL     OW 8705   4.798   5.902   6.112
  897SOL    HW1 8706   4.711   5.931   6.151
  897SOL    HW2 8707   4.845   5.842   6.176
  898SOL     OW 8708   1.776   0.785   0.456
  898SOL    HW1 8709   1.735   0.876   0.446
  898SOL    HW2 8710   1.704   0.717   0.470
  899SOL     OW 8711   2.707   0.096   4.430
  899SOL    HW1 8712   2.664   0.058   4.348
  899SOL    HW2 8713   2.728   0.192   4.415
  900SOL     OW 8714   3.693   4.291   6.061
  900SOL    HW1 8715   3.791   4.306   6.048
  900SOL    HW2 8716   3.661   4.221   5.997
  901SOL     OW 8717   2.096   0.462   1.000
  901SOL    HW1 8718   2.035   0.384   0.987
  901SOL    HW2 8719   2.044   0.547   0.995
  902SOL     OW 8720   6.152   0.083   5.439
  902SOL    HW1 8721   6.223   0.012   5.442
  902SOL    HW2 8722   6.184   0.160   5.383
  903SOL     OW 8723   4.750   3.976   1.074
  903SOL    HW1 8724   4.837   3.969   1.025
  903SOL    HW2 8725   4.675   3.974   1.008
  904SOL     OW 8726   4.119   3.748   5.459
  904SOL    HW1 8727   4.038   3.722   5.405
  904SOL    HW2 8728   4.112   3.845   5.483
  905SOL     OW 8729   4.378   3.939   1.843
  905SOL    HW1 8730   4.364   4.031   1.808
  905SOL    HW2 8731   4.357   3.937   1.941
  906SOL     OW 8732   3.589   6.256   0.049
  906SOL    HW1 8733   3.529   6.176   0.041
  906SOL    HW2 8734   3.643   6.249   0.133
  907SOL     OW 8735   2.602   0.583   6.359
  907SOL    HW1 8736   2.698   0.558   6.372
  907SOL    HW2 8737   2.550   0.559   6.441
  908SOL     OW 8738   6.024   2.901   0.790
  908SOL    HW1 8739   6.101   2.871   0.847
  908SOL    HW2 8740   5.988   2.822   0.740
  909SOL     OW 8741   0.589   3.276   0.427
  909SOL    HW1 8742   0.681   3.252   0.398
  909SOL    HW2 8743   0.594   3.342   0.502
  910SOL     OW 8744   0.641   3.697   6.528
  910SOL    HW1 8745   0.652   3.600   6.509
  910SOL    HW2 8746   0.556   3.712   6.579
  911SOL     OW 8747   4.865   1.137   5.825
  911SOL    HW1 8748   4.836   1.082   5.746
  911SOL    HW2 8749   4.797   1.208   5.843
  912SOL     OW 8750   4.015   5.194   5.913
  912SOL    HW1 8751   4.083   5.161   5.979
  912SOL    HW2 8752   3.970   5.275   5.950
  913SOL     OW 8753   5.497   0.608   0.609
  913SOL    HW1 8754   5.410   0.613   0.559
  913SOL    HW2 8755   5.479   0.576   0.702
  914SOL     OW 8756   5.138   1.431   1.020
  914SOL    HW1 8757   5.117   1.362   0.951
  914SOL    HW2 8758   5.225   1.408   1.065
  915SOL     OW 8759   1.181   2.580   6.490
  915SOL    HW1 8760   1.200   2.549   6.583
  915SOL    HW2 8761   1.082   2.579   6.474
  916SOL     OW 8762   0.096   3.698   0.771
  916SOL    HW1 8763   0.145   3.672   0.854
  916SOL    HW2 8764   0.101   3.798   0.759
  917SOL     OW 8765   5.468   1.036   0.213
  917SOL    HW1 8766   5.386   1.067   0.164
  917SOL    HW2 8767   5.513   1.114   0.257
  918SOL     OW 8768   0.846   1.507   0.801
  918SOL    HW1 8769   0.852   1.417   0.760
  918SOL    HW2 8770   0.753   1.542   0.794
  919SOL     OW 8771   2.809   3.040   6.160
  919SOL    HW1 8772   2.901   3.076   6.179
  919SOL    HW2 8773   2.762   3.103   6.098
  920SOL     OW 8774   3.716   2.805   6.421
  920SOL    HW1 8775   3.679   2.719   6.388
  920SOL    HW2 8776   3.685   2.822   6.515
  921SOL     OW 8777   4.445   2.588   1.740
  921SOL    HW1 8778   4.448   2.497   1.700
  921SOL    HW2 8779   4.517   2.645   1.700
  922SOL     OW 8780   1.576   1.436   6.457
  922SOL    HW1 8781   1.649   1.481   6.510
  922SOL    HW2 8782   1.604   1.343   6.435
  923SOL     OW 8783   0.891   1.835   0.006
  923SOL    HW1 8784   0.836   1.873   6.529
  923SOL    HW2 8785   0.943   1.757   6.569
  924SOL     OW 8786   4.024   4.004   5.520
  924SOL    HW1 8787   3.954   4.039   5.581
  924SOL    HW2 8788   4.026   4.057   5.436
  925SOL     OW 8789   3.389   1.816   5.377
  925SOL    HW1 8790   3.355   1.725   5.402
  925SOL    HW2 8791   3.467   1.807   5.315
  926SOL     OW 8792   1.213   3.643   5.743
  926SOL    HW1 8793   1.296   3.611   5.789
  926SOL    HW2 8794   1.225   3.738   5.714
  927SOL     OW 8795   5.053   0.343   5.426
  927SOL    HW1 8796   5.043   0.295   5.339
  927SOL    HW2 8797   5.129   0.302   5.478
  928SOL     OW 8798   0.983   0.228   1.672
  928SOL    HW1 8799   1.009   0.234   1.768
  928SOL    HW2 8800   0.905   0.288   1.654
  929SOL     OW 8801   1.247   0.140   1.812
  929SOL    HW1 8802   1.325   0.200   1.795
  929SOL    HW2 8803   1.186   0.183   1.879
  930SOL     OW 8804   3.272   1.331   5.224
  930SOL    HW1 8805   3.273   1.342   5.323
  930SOL    HW2 8806   3.246   1.237   5.201
  931SOL     OW 8807   2.735   2.888   0.307
  931SOL    HW1 8808   2.790   2.885   0.391
  931SOL    HW2 8809   2.710   2.983   0.287
  932SOL     OW 8810   6.225   2.796   0.017
  932SOL    HW1 8811   6.140   2.748   0.035
  932SOL    HW2 8812   6.296   2.765   0.081
  933SOL     OW 8813   4.668   0.013   0.087
  933SOL    HW1 8814   4.686   6.361   0.063
  933SOL    HW2 8815   4.709   0.034   0.176
  934SOL     OW 8816   4.564   3.782   5.362
  934SOL    HW1 8817   4.495   3.712   5.379
  934SOL    HW2 8818   4.532   3.844   5.291
  935SOL     OW 8819   3.782   4.732   0.975
  935SOL    HW1 8820   3.723   4.652   0.980
  935SOL    HW2 8821   3.771   4.775   0.885
  936SOL     OW 8822   0.777   4.262   5.691
  936SOL    HW1 8823   0.840   4.250   5.614
  936SOL    HW2 8824   0.768   4.175   5.740
  937SOL     OW 8825   2.855   4.530   0.643
  937SOL    HW1 8826   2.871   4.439   0.680
  937SOL    HW2 8827   2.758   4.542   0.623
  938SOL     OW 8828   5.999   3.122   0.999
  938SOL    HW1 8829   5.981   3.042   0.942
  938SOL    HW2 8830   6.088   3.161   0.974
  939SOL     OW 8831   0.598   3.695   0.531
  939SOL    HW1 8832   0.569   3.789   0.508
  939SOL    HW2 8833   0.528   3.652   0.588
  940SOL     OW 8834   3.476   1.052   5.866
  940SOL    HW1 8835   3.514   0.964   5.895
  940SOL    HW2 8836   3.530   1.087   5.790
  941SOL     OW 8837   0.436   4.961   1.109
  941SOL    HW1 8838   0.390   5.040   1.149
  941SOL    HW2 8839   0.373   4.913   1.048
  942SOL     OW 8840   2.846   5.955   5.586
  942SOL    HW1 8841   2.898   5.957   5.501
  942SOL    HW2 8842   2.831   5.860   5.614
  943SOL     OW 8843   5.041   1.673   6.275
  943SOL    HW1 8844   4.990   1.640   6.354
  943SOL    HW2 8845   5.092   1.598   6.234
  944SOL     OW 8846   5.357   5.998   4.831
  944SOL    HW1 8847   5.258   5.996   4.820
  944SOL    HW2 8848   5.395   6.076   4.782
  945SOL     OW 8849   5.653   2.162   0.546
  945SOL    HW1 8850   5.554   2.146   0.542
  945SOL    HW2 8851   5.672   2.259   0.532
  946SOL     OW 8852   3.175   0.394   5.804
  946SOL    HW1 8853   3.116   0.447   5.743
  946SOL    HW2 8854   3.218   0.320   5.753
  947SOL     OW 8855   1.583   6.209   1.225
  947SOL    HW1 8856   1.530   6.163   1.296
  947SOL    HW2 8857   1.550   6.303   1.214
  948SOL     OW 8858   1.226   5.910   5.862
  948SOL    HW1 8859   1.314   5.945   5.830
  948SOL    HW2 8860   1.175   5.872   5.785
  949SOL     OW 8861   1.952   6.184   0.341
  949SOL    HW1 8862   2.014   6.189   0.263
  949SOL    HW2 8863   1.859   6.206   0.311
  950SOL     OW 8864   4.475   3.108   5.246
  950SOL    HW1 8865   4.385   3.105   5.203
  950SOL    HW2 8866   4.510   3.015   5.256
  951SOL     OW 8867   4.417   3.238   5.882
  951SOL    HW1 8868   4.412   3.140   5.898
  951SOL    HW2 8869   4.399   3.287   5.968
  952SOL     OW 8870   6.398   2.952   0.269
  952SOL    HW1 8871   0.049   2.952   0.196
  952SOL    HW2 8872   6.329   3.022   0.250
  953SOL     OW 8873   0.100   0.709   5.887
  953SOL    HW1 8874   0.171   0.673   5.947
  953SOL    HW2 8875   0.072   0.799   5.919
  954SOL     OW 8876   5.144   3.268   6.284
  954SOL    HW1 8877   5.107   3.355   6.251
  954SOL    HW2 8878   5.186   3.281   6.374
  955SOL     OW 8879   3.962   6.285   0.527
  955SOL    HW1 8880   4.011   6.342   0.593
  955SOL    HW2 8881   3.890   6.338   0.483
  956SOL     OW 8882   5.820   4.628   0.736
  956SOL    HW1 8883   5.734   4.633   0.686
  956SOL    HW2 8884   5.808   4.668   0.827
  957SOL     OW 8885   2.409   1.204   0.897
  957SOL    HW1 8886   2.387   1.106   0.903
  957SOL    HW2 8887   2.398   1.246   0.987
  958SOL     OW 8888   6.386   2.852   5.375
  958SOL    HW1 8889   6.335   2.877   5.293
  958SOL    HW2 8890   6.356   2.909   5.451
  959SOL     OW 8891   4.103   5.100   5.353
  959SOL    HW1 8892   4.100   5.065   5.259
  959SOL    HW2 8893   4.175   5.053   5.404
  960SOL     OW 8894   3.475   5.073   5.628
  960SOL    HW1 8895   3.528   5.007   5.681
  960SOL    HW2 8896   3.385   5.084   5.668
  961SOL     OW 8897   3.691   0.185   0.133
  961SOL    HW1 8898   3.607   0.131   0.134
  961SOL    HW2 8899   3.761   0.138   0.080
  962SOL     OW 8900   4.584   4.840   5.457
  962SOL    HW1 8901   4.656   4.794   5.406
  962SOL    HW2 8902   4.618   4.863   5.548
  963SOL     OW 8903   4.622   4.189   0.798
  963SOL    HW1 8904   4.716   4.182   0.832
  963SOL    HW2 8905   4.622   4.180   0.699
  964SOL     OW 8906   3.312   4.368   5.606
  964SOL    HW1 8907   3.366   4.378   5.522
  964SOL    HW2 8908   3.364   4.404   5.684
  965SOL     OW 8909   1.193   6.215   6.340
  965SOL    HW1 8910   1.211   6.273   6.419
  965SOL    HW2 8911   1.170   6.273   6.261
  966SOL     OW 8912   0.998   5.070   6.592
  966SOL    HW1 8913   1.015   4.972   6.580
  966SOL    HW2 8914   1.018   5.096   0.090
  967SOL     OW 8915   4.927   3.834   1.224
  967SOL    HW1 8916   4.959   3.874   1.310
  967SOL    HW2 8917   4.859   3.894   1.182
  968SOL     OW 8918   3.029   0.764   5.411
  968SOL    HW1 8919   2.945   0.745   5.461
  968SOL    HW2 8920   3.088   0.684   5.414
  969SOL     OW 8921   3.237   5.408   1.054
  969SOL    HW1 8922   3.330   5.438   1.072
  969SOL    HW2 8923   3.237   5.311   1.031
  970SOL     OW 8924   3.670   2.217   6.137
  970SOL    HW1 8925   3.634   2.164   6.215
  970SOL    HW2 8926   3.736   2.161   6.087
  971SOL     OW 8927   2.578   2.201   0.173
  971SOL    HW1 8928   2.611   2.295   0.172
  971SOL    HW2 8929   2.653   2.139   0.196
  972SOL     OW 8930   2.896   6.231   0.508
  972SOL    HW1 8931   2.849   6.166   0.567
  972SOL    HW2 8932   2.995   6.218   0.514
  973SOL     OW 8933   2.409   3.505   0.350
  973SOL    HW1 8934   2.495   3.476   0.392
  973SOL    HW2 8935   2.341   3.523   0.421
  974SOL     OW 8936   4.001   6.299   5.737
  974SOL    HW1 8937   3.914   6.339   5.709
  974SOL    HW2 8938   3.990   6.258   5.828
  975SOL     OW 8939   1.366   3.672   0.147
  975SOL    HW1 8940   1.453   3.691   0.193
  975SOL    HW2 8941   1.298   3.645   0.215
  976SOL     OW 8942   1.358   2.854   6.159
  976SOL    HW1 8943   1.321   2.761   6.161
  976SOL    HW2 8944   1.443   2.854   6.105
  977SOL     OW 8945   3.753   1.389   5.390
  977SOL    HW1 8946   3.675   1.396   5.452
  977SOL    HW2 8947   3.720   1.371   5.297
  978SOL     OW 8948   2.386   0.051   5.842
  978SOL    HW1 8949   2.445   6.425   5.803
  978SOL    HW2 8950   2.410   0.065   5.938
  979SOL     OW 8951   1.330   3.908   1.063
  979SOL    HW1 8952   1.236   3.923   1.092
  979SOL    HW2 8953   1.392   3.960   1.122
  980SOL     OW 8954   0.632   3.707   5.827
  980SOL    HW1 8955   0.685   3.677   5.748
  980SOL    HW2 8956   0.662   3.657   5.909
  981SOL     OW 8957   2.003   5.299   5.608
  981SOL    HW1 8958   2.030   5.385   5.650
  981SOL    HW2 8959   1.962   5.318   5.518
  982SOL     OW 8960   4.556   3.525   5.598
  982SOL    HW1 8961   4.520   3.441   5.639
  982SOL    HW2 8962   4.492   3.559   5.530
  983SOL     OW 8963   2.318   6.062   5.140
  983SOL    HW1 8964   2.372   6.146   5.133
  983SOL    HW2 8965   2.233   6.072   5.089
  984SOL     OW 8966   4.528   0.156   6.081
  984SOL    HW1 8967   4.609   0.100   6.065
  984SOL    HW2 8968   4.447   0.105   6.054
  985SOL     OW 8969   2.775   5.020   0.918
  985SOL    HW1 8970   2.716   5.096   0.893
  985SOL    HW2 8971   2.864   5.055   0.947
  986SOL     OW 8972   4.011   2.087   0.142
  986SOL    HW1 8973   3.911   2.087   0.139
  986SOL    HW2 8974   4.044   1.994   0.157
  987SOL     OW 8975   1.947   1.200   0.418
  987SOL    HW1 8976   1.905   1.227   0.505
  987SOL    HW2 8977   2.042   1.229   0.417
  988SOL     OW 8978   1.026   3.811   5.892
  988SOL    HW1 8979   1.057   3.761   5.972
  988SOL    HW2 8980   1.081   3.785   5.812
  989SOL     OW 8981   1.154   2.917   6.558
  989SOL    HW1 8982   1.058   2.921   6.586
  989SOL    HW2 8983   1.178   2.824   6.531
  990SOL     OW 8984   2.108   4.750   0.811
  990SOL    HW1 8985   2.114   4.839   0.765
  990SOL    HW2 8986   2.125   4.677   0.745
  991SOL     OW 8987   3.146   3.842   0.822
  991SOL    HW1 8988   3.229   3.798   0.788
  991SOL    HW2 8989   3.160   3.871   0.916
  992SOL     OW 8990   0.028   6.018   0.563
  992SOL    HW1 8991   0.057   6.081   0.491
  992SOL    HW2 8992   0.104   6.003   0.627
  993SOL     OW 8993   5.794   3.237   1.475
  993SOL    HW1 8994   5.852   3.310   1.439
  993SOL    HW2 8995   5.852   3.167   1.517
  994SOL     OW 8996   0.033   3.993   6.245
  994SOL    HW1 8997   0.101   4.007   6.173
  994SOL    HW2 8998   0.042   3.900   6.282
  995SOL     OW 8999   0.737   2.146   1.711
  995SOL    HW1 9000   0.692   2.185   1.630
  995SOL    HW2 9001   0.732   2.211   1.786
  996SOL     OW 9002   1.983   5.052   4.850
  996SOL    HW1 9003   1.885   5.071   4.847
  996SOL    HW2 9004   2.031   5.117   4.791
  997SOL     OW 9005   0.773   4.019   1.634
  997SOL    HW1 9006   0.792   4.018   1.536
  997SOL    HW2 9007   0.824   4.093   1.677
  998SOL     OW 9008   1.590   0.064   1.027
  998SOL    HW1 9009   1.598   0.070   1.126
  998SOL    HW2 9010   1.512   0.119   0.996
  999SOL     OW 9011   3.182   1.607   5.315
  999SOL    HW1 9012   3.098   1.621   5.367
  999SOL    HW2 9013   3.163   1.616   5.218
 1000SOL     OW 9014   3.869   3.607   5.938
 1000SOL    HW1 9015   3.884   3.543   5.863
 1000SOL    HW2 9016   3.790   3.579   5.991
 1001SOL     OW 9017   4.820   0.566   1.357
 1001SOL    HW1 9018   4.798   0.506   1.280
 1001SOL    HW2 9019   4.919   0.584   1.358
 1002SOL     OW 9020   0.652   2.149   0.688
 1002SOL    HW1 9021   0.727   2.201   0.646
 1002SOL    HW2 9022   0.687   2.098   0.766
 1003SOL     OW 9023   1.811   0.379   6.024
 1003SOL    HW1 9024   1.856   0.438   5.956
 1003SOL    HW2 9025   1.861   0.384   6.110
 1004SOL     OW 9026   4.934   4.078   6.109
 1004SOL    HW1 9027   5.028   4.111   6.101
 1004SOL    HW2 9028   4.922   3.997   6.051
 1005SOL     OW 9029   3.655   0.630   5.551
 1005SOL    HW1 9030   3.735   0.601   5.498
 1005SOL    HW2 9031   3.671   0.722   5.586
 1006SOL     OW 9032   6.390   1.195   6.035
 1006SOL    HW1 9033   6.362   1.268   6.097
 1006SOL    HW2 9034   0.028   1.233   5.962
 1007SOL     OW 9035   0.796   2.305   5.401
 1007SOL    HW1 9036   0.707   2.331   5.438
 1007SOL    HW2 9037   0.783   2.251   5.318
 1008SOL     OW 9038   2.067   4.164   5.948
 1008SOL    HW1 9039   2.039   4.231   5.879
 1008SOL    HW2 9040   2.037   4.073   5.920
 1009SOL     OW 9041   4.590   0.658   5.953
 1009SOL    HW1 9042   4.679   0.675   5.995
 1009SOL    HW2 9043   4.524   0.635   6.024
 1010SOL     OW 9044   4.162   6.229   5.526
 1010SOL    HW1 9045   4.107   6.255   5.605
 1010SOL    HW2 9046   4.135   6.285   5.447
 1011SOL     OW 9047   4.542   0.237   6.359
 1011SOL    HW1 9048   4.446   0.264   6.370
 1011SOL    HW2 9049   4.551   0.182   6.276
 1012SOL     OW 9050   1.963   0.695   1.314
 1012SOL    HW1 9051   1.976   0.768   1.381
 1012SOL    HW2 9052   2.047   0.686   1.259
 1013SOL     OW 9053   0.108   2.806   6.220
 1013SOL    HW1 9054   0.078   2.857   6.140
 1013SOL    HW2 9055   0.050   2.830   6.298
 1014SOL     OW 9056   4.976   3.253   0.698
 1014SOL    HW1 9057   4.922   3.171   0.715
 1014SOL    HW2 9058   4.962   3.318   0.774
 1015SOL     OW 9059   1.348   5.224   5.509
 1015SOL    HW1 9060   1.321   5.221   5.605
 1015SOL    HW2 9061   1.417   5.295   5.496
 1016SOL     OW 9062   3.145   1.810   0.137
 1016SOL    HW1 9063   3.093   1.866   0.073
 1016SOL    HW2 9064   3.083   1.764   0.200
 1017SOL     OW 9065   2.203   5.059   5.496
 1017SOL    HW1 9066   2.146   5.058   5.414
 1017SOL    HW2 9067   2.241   5.151   5.508
 1018SOL     OW 9068   3.499   4.618   0.516
 1018SOL    HW1 9069   3.419   4.664   0.478
 1018SOL    HW2 9070   3.514   4.649   0.610
 1019SOL     OW 9071   2.406   2.126   5.641
 1019SOL    HW1 9072   2.425   2.067   5.719
 1019SOL    HW2 9073   2.358   2.208   5.671
 1020SOL     OW 9074   5.635   3.508   6.314
 1020SOL    HW1 9075   5.626   3.521   6.412
 1020SOL    HW2 9076   5.545   3.519   6.270
 1021SOL     OW 9077   5.376   3.319   5.492
 1021SOL    HW1 9078   5.298   3.267   5.526
 1021SOL    HW2 9079   5.365   3.337   5.394
 1022SOL     OW 9080   2.524   4.820   1.009
 1022SOL    HW1 9081   2.433   4.780   0.997
 1022SOL    HW2 9082   2.543   4.831   1.107
 1023SOL     OW 9083   1.391   3.372   0.666
 1023SOL    HW1 9084   1.402   3.275   0.684
 1023SOL    HW2 9085   1.323   3.411   0.729
 1024SOL     OW 9086   3.379   6.128   5.259
 1024SOL    HW1 9087   3.415   6.149   5.169
 1024SOL    HW2 9088   3.453   6.096   5.319
 1025SOL     OW 9089   4.697   5.372   6.003
 1025SOL    HW1 9090   4.745   5.458   5.990
 1025SOL    HW2 9091   4.601   5.389   6.023
 1026SOL     OW 9092   1.783   4.547   0.007
 1026SOL    HW1 9093   1.867   4.508   6.564
 1026SOL    HW2 9094   1.801   4.641   0.035
 1027SOL     OW 9095   4.996   2.415   6.050
 1027SOL    HW1 9096   5.051   2.362   6.115
 1027SOL    HW2 9097   4.946   2.485   6.100
 1028SOL     OW 9098   1.791   4.515   5.780
 1028SOL    HW1 9099   1.784   4.615   5.786
 1028SOL    HW2 9100   1.700   4.475   5.790
 1029SOL     OW 9101   6.054   0.602   6.468
 1029SOL    HW1 9102   6.052   0.521   6.409
 1029SOL    HW2 9103   5.963   0.645   6.469
 1030SOL     OW 9104   2.826   3.987   5.596
 1030SOL    HW1 9105   2.810   4.045   5.515
 1030SOL    HW2 9106   2.811   3.892   5.571
 1031SOL     OW 9107   3.864   2.552   1.086
 1031SOL    HW1 9108   3.881   2.485   1.159
 1031SOL    HW2 9109   3.918   2.528   1.006
 1032SOL     OW 9110   3.812   0.434   5.158
 1032SOL    HW1 9111   3.828   0.520   5.206
 1032SOL    HW2 9112   3.872   0.429   5.078
 1033SOL     OW 9113   1.661   6.110   6.376
 1033SOL    HW1 9114   1.673   6.027   6.321
 1033SOL    HW2 9115   1.743   6.166   6.369
 1034SOL     OW 9116   5.483   4.757   5.370
 1034SOL    HW1 9117   5.433   4.686   5.419
 1034SOL    HW2 9118   5.497   4.730   5.275
 1035SOL     OW 9119   4.821   2.562   5.407
 1035SOL    HW1 9120   4.872   2.476   5.416
 1035SOL    HW2 9121   4.817   2.607   5.496
 1036SOL     OW 9122   0.363   5.149   6.296
 1036SOL    HW1 9123   0.405   5.222   6.243
 1036SOL    HW2 9124   0.434   5.096   6.343
 1037SOL     OW 9125   6.296   4.247   0.049
 1037SOL    HW1 9126   6.302   4.157   0.006
 1037SOL    HW2 9127   6.259   4.314   6.580
 1038SOL     OW 9128   3.330   5.674   5.187
 1038SOL    HW1 9129   3.254   5.631   5.236
 1038SOL    HW2 9130   3.393   5.602   5.155
 1039SOL     OW 9131   3.238   2.835   6.534
 1039SOL    HW1 9132   3.299   2.909   6.505
 1039SOL    HW2 9133   3.146   2.871   6.547
 1040SOL     OW 9134   4.527   3.500   4.930
 1040SOL    HW1 9135   4.481   3.411   4.935
 1040SOL    HW2 9136   4.460   3.573   4.940
 1041SOL     OW 9137   0.150   0.063   6.065
 1041SOL    HW1 9138   0.172   6.429   6.124
 1041SOL    HW2 9139   0.053   0.061   6.041
 1042SOL     OW 9140   6.026   4.597   0.147
 1042SOL    HW1 9141   5.981   4.546   0.220
 1042SOL    HW2 9142   6.024   4.695   0.169
 1043SOL     OW 9143   0.127   0.256   1.187
 1043SOL    HW1 9144   0.178   0.224   1.267
 1043SOL    HW2 9145   0.163   0.212   1.104
 1044SOL     OW 9146   5.642   4.120   1.286
 1044SOL    HW1 9147   5.736   4.147   1.306
 1044SOL    HW2 9148   5.582   4.146   1.362
 1045SOL     OW 9149   6.355   0.660   0.094
 1045SOL    HW1 9150   6.287   0.705   0.037
 1045SOL    HW2 9151   6.389   0.724   0.163
 1046SOL     OW 9152   0.541   5.885   0.411
 1046SOL    HW1 9153   0.518   5.820   0.483
 1046SOL    HW2 9154   0.563   5.836   0.327
 1047SOL     OW 9155   4.841   1.619   6.497
 1047SOL    HW1 9156   4.880   1.574   6.577
 1047SOL    HW2 9157   4.763   1.566   6.463
 1048SOL     OW 9158   4.034   6.348   0.924
 1048SOL    HW1 9159   4.004   6.435   0.886
 1048SOL    HW2 9160   3.954   6.289   0.938
 1049SOL     OW 9161   1.763   1.118   1.273
 1049SOL    HW1 9162   1.752   1.151   1.367
 1049SOL    HW2 9163   1.777   1.195   1.212
 1050SOL     OW 9164   3.666   4.904   5.777
 1050SOL    HW1 9165   3.640   4.822   5.726
 1050SOL    HW2 9166   3.724   4.878   5.854
 1051SOL     OW 9167   1.893   2.924   6.001
 1051SOL    HW1 9168   1.940   2.836   5.995
 1051SOL    HW2 9169   1.920   2.970   6.086
 1052SOL     OW 9170   3.457   0.845   0.228
 1052SOL    HW1 9171   3.418   0.773   0.285
 1052SOL    HW2 9172   3.386   0.913   0.207
 1053SOL     OW 9173   6.285   3.778   1.320
 1053SOL    HW1 9174   6.191   3.745   1.322
 1053SOL    HW2 9175   6.326   3.769   1.411
 1054SOL     OW 9176   2.384   5.847   6.523
 1054SOL    HW1 9177   2.386   5.806   0.017
 1054SOL    HW2 9178   2.398   5.777   6.453
 1055SOL     OW 9179   4.332   1.984   0.322
 1055SOL    HW1 9180   4.389   2.022   0.395
 1055SOL    HW2 9181   4.273   1.912   0.359
 1056SOL     OW 9182   3.355   2.180   0.650
 1056SOL    HW1 9183   3.377   2.262   0.703
 1056SOL    HW2 9184   3.330   2.106   0.712
 1057SOL     OW 9185   4.451   2.975   0.854
 1057SOL    HW1 9186   4.481   2.962   0.949
 1057SOL    HW2 9187   4.463   3.071   0.829
 1058SOL     OW 9188   2.803   2.807   6.299
 1058SOL    HW1 9189   2.778   2.896   6.261
 1058SOL    HW2 9190   2.901   2.792   6.286
 1059SOL     OW 9191   5.293   0.548   5.607
 1059SOL    HW1 9192   5.205   0.511   5.576
 1059SOL    HW2 9193   5.358   0.474   5.618
 1060SOL     OW 9194   5.938   2.120   6.101
 1060SOL    HW1 9195   5.948   2.084   6.193
 1060SOL    HW2 9196   5.901   2.049   6.041
 1061SOL     OW 9197   0.244   5.895   1.134
 1061SOL    HW1 9198   0.197   5.828   1.192
 1061SOL    HW2 9199   0.280   5.969   1.191
 1062SOL     OW 9200   4.299   0.208   5.534
 1062SOL    HW1 9201   4.251   0.294   5.515
 1062SOL    HW2 9202   4.302   0.154   5.450
 1063SOL     OW 9203   3.049   2.638   5.358
 1063SOL    HW1 9204   3.056   2.733   5.326
 1063SOL    HW2 9205   2.954   2.610   5.356
 1064SOL     OW 9206   2.445   6.296   5.096
 1064SOL    HW1 9207   2.543   6.304   5.083
 1064SOL    HW2 9208   2.399   6.370   5.046
 1065SOL     OW 9209   4.815   6.074   5.892
 1065SOL    HW1 9210   4.724   6.103   5.862
 1065SOL    HW2 9211   4.806   6.010   5.969
 1066SOL     OW 9212   3.715   5.197   0.606
 1066SOL    HW1 9213   3.722   5.197   0.706
 1066SOL    HW2 9214   3.653   5.125   0.577
 1067SOL     OW 9215   4.237   2.733   6.269
 1067SOL    HW1 9216   4.273   2.644   6.239
 1067SOL    HW2 9217   4.227   2.734   6.368
 1068SOL     OW 9218   4.690   2.756   0.416
 1068SOL    HW1 9219   4.637   2.765   0.501
 1068SOL    HW2 9220   4.705   2.846   0.376
 1069SOL     OW 9221   4.533   3.981   1.253
 1069SOL    HW1 9222   4.584   3.963   1.169
 1069SOL    HW2 9223   4.582   4.048   1.309
 1070SOL     OW 9224   4.713   5.339   1.928
 1070SOL    HW1 9225   4.696   5.345   2.027
 1070SOL    HW2 9226   4.648   5.398   1.880
 1071SOL     OW 9227   6.345   5.577   0.314
 1071SOL    HW1 9228   6.368   5.662   0.266
 1071SOL    HW2 9229   6.376   5.499   0.260
 1072SOL     OW 9230   0.067   5.892   0.924
 1072SOL    HW1 9231   0.122   5.928   0.849
 1072SOL    HW2 9232   0.122   5.887   1.007
 1073SOL     OW 9233   5.695   0.415   6.488
 1073SOL    HW1 9234   5.598   0.414   6.467
 1073SOL    HW2 9235   5.737   0.498   6.451
 1074SOL     OW 9236   3.120   5.965   6.220
 1074SOL    HW1 9237   3.050   5.916   6.168
 1074SOL    HW2 9238   3.200   5.981   6.162
 1075SOL     OW 9239   3.141   4.574   5.463
 1075SOL    HW1 9240   3.209   4.510   5.500
 1075SOL    HW2 9241   3.057   4.525   5.442
 1076SOL     OW 9242   4.318   3.589   6.203
 1076SOL    HW1 9243   4.285   3.592   6.109
 1076SOL    HW2 9244   4.346   3.680   6.232
 1077SOL     OW 9245   2.171   5.528   6.445
 1077SOL    HW1 9246   2.122   5.612   6.470
 1077SOL    HW2 9247   2.120   5.481   6.374
 1078SOL     OW 9248   5.061   0.392   5.961
 1078SOL    HW1 9249   5.102   0.305   5.935
 1078SOL    HW2 9250   5.012   0.381   6.048
 1079SOL     OW 9251   6.107   5.692   6.026
 1079SOL    HW1 9252   6.155   5.778   6.043
 1079SOL    HW2 9253   6.137   5.654   5.938
 1080SOL     OW 9254   2.309   2.639   1.389
 1080SOL    HW1 9255   2.377   2.589   1.337
 1080SOL    HW2 9256   2.324   2.737   1.378
 1081SOL     OW 9257   3.554   3.152   0.297
 1081SOL    HW1 9258   3.609   3.093   0.237
 1081SOL    HW2 9259   3.605   3.235   0.318
 1082SOL     OW 9260   4.195   3.649   0.720
 1082SOL    HW1 9261   4.236   3.664   0.810
 1082SOL    HW2 9262   4.135   3.725   0.697
 1083SOL     OW 9263   1.681   1.734   5.917
 1083SOL    HW1 9264   1.596   1.687   5.940
 1083SOL    HW2 9265   1.709   1.793   5.993
 1084SOL     OW 9266   1.428   0.305   6.454
 1084SOL    HW1 9267   1.405   0.343   6.364
 1084SOL    HW2 9268   1.457   0.210   6.443
 1085SOL     OW 9269   3.909   5.414   6.038
 1085SOL    HW1 9270   3.816   5.426   6.074
 1085SOL    HW2 9271   3.943   5.502   6.005
 1086SOL     OW 9272   3.493   6.164   5.015
 1086SOL    HW1 9273   3.466   6.108   4.936
 1086SOL    HW2 9274   3.505   6.259   4.985
 1087SOL     OW 9275   1.894   2.624   5.142
 1087SOL    HW1 9276   1.943   2.702   5.105
 1087SOL    HW2 9277   1.867   2.563   5.068
 1088SOL     OW 9278   2.744   5.403   0.120
 1088SOL    HW1 9279   2.792   5.435   0.202
 1088SOL    HW2 9280   2.733   5.303   0.125
 1089SOL     OW 9281   0.952   2.099   6.297
 1089SOL    HW1 9282   0.950   2.164   6.372
 1089SOL    HW2 9283   0.870   2.042   6.299
 1090SOL     OW 9284   1.533   4.436   5.792
 1090SOL    HW1 9285   1.507   4.399   5.703
 1090SOL    HW2 9286   1.452   4.440   5.851
 1091SOL     OW 9287   4.591   1.106   0.035
 1091SOL    HW1 9288   4.495   1.115   0.062
 1091SOL    HW2 9289   4.601   1.133   6.536
 1092SOL     OW 9290   0.754   3.776   5.089
 1092SOL    HW1 9291   0.793   3.812   5.175
 1092SOL    HW2 9292   0.664   3.817   5.074
 1093SOL     OW 9293   5.195   5.749   6.451
 1093SOL    HW1 9294   5.101   5.753   6.415
 1093SOL    HW2 9295   5.237   5.839   6.446
 1094SOL     OW 9296   4.078   1.148   5.858
 1094SOL    HW1 9297   4.155   1.187   5.908
 1094SOL    HW2 9298   4.019   1.221   5.824
 1095SOL     OW 9299   4.027   2.455   0.885
 1095SOL    HW1 9300   4.019   2.390   0.809
 1095SOL    HW2 9301   4.123   2.473   0.904
 1096SOL     OW 9302   1.798   0.687   6.190
 1096SOL    HW1 9303   1.792   0.718   6.284
 1096SOL    HW2 9304   1.807   0.766   6.129
 1097SOL     OW 9305   0.808   0.501   0.898
 1097SOL    HW1 9306   0.818   0.561   0.978
 1097SOL    HW2 9307   0.737   0.434   0.915
 1098SOL     OW 9308   2.159   1.531   1.140
 1098SOL    HW1 9309   2.257   1.512   1.139
 1098SOL    HW2 9310   2.144   1.623   1.177
 1099SOL     OW 9311   2.346   3.473   0.891
 1099SOL    HW1 9312   2.264   3.421   0.912
 1099SOL    HW2 9313   2.337   3.566   0.925
 1100SOL     OW 9314   6.274   1.828   5.788
 1100SOL    HW1 9315   6.206   1.759   5.812
 1100SOL    HW2 9316   6.253   1.913   5.835
 1101SOL     OW 9317   3.148   6.227   4.630
 1101SOL    HW1 9318   3.168   6.159   4.702
 1101SOL    HW2 9319   3.053   6.215   4.599
 1102SOL     OW 9320   3.985   3.807   6.298
 1102SOL    HW1 9321   3.906   3.866   6.282
 1102SOL    HW2 9322   4.044   3.807   6.217
 1103SOL     OW 9323   3.359   3.907   0.459
 1103SOL    HW1 9324   3.384   3.863   0.545
 1103SOL    HW2 9325   3.442   3.926   0.406
 1104SOL     OW 9326   3.377   1.312   0.218
 1104SOL    HW1 9327   3.282   1.313   0.248
 1104SOL    HW2 9328   3.381   1.299   0.119
 1105SOL     OW 9329   0.402   2.139   6.101
 1105SOL    HW1 9330   0.375   2.109   6.192
 1105SOL    HW2 9331   0.334   2.204   6.066
 1106SOL     OW 9332   5.621   2.698   0.333
 1106SOL    HW1 9333   5.549   2.723   0.397
 1106SOL    HW2 9334   5.590   2.715   0.239
 1107SOL     OW 9335   4.619   5.523   5.692
 1107SOL    HW1 9336   4.527   5.510   5.729
 1107SOL    HW2 9337   4.657   5.435   5.664
 1108SOL     OW 9338   4.364   0.861   0.131
 1108SOL    HW1 9339   4.361   0.928   0.205
 1108SOL    HW2 9340   4.383   0.770   0.168
 1109SOL     OW 9341   4.630   2.510   0.555
 1109SOL    HW1 9342   4.630   2.413   0.530
 1109SOL    HW2 9343   4.686   2.561   0.490
 1110SOL     OW 9344   5.044   2.085   0.724
 1110SOL    HW1 9345   5.011   2.003   0.771
 1110SOL    HW2 9346   5.032   2.073   0.625
 1111SOL     OW 9347   0.293   2.463   5.506
 1111SOL    HW1 9348   0.204   2.418   5.502
 1111SOL    HW2 9349   0.282   2.561   5.492
 1112SOL     OW 9350   1.166   1.688   6.266
 1112SOL    HW1 9351   1.181   1.784   6.241
 1112SOL    HW2 9352   1.235   1.660   6.333
 1113SOL     OW 9353   0.587   5.023   0.612
 1113SOL    HW1 9354   0.585   4.936   0.660
 1113SOL    HW2 9355   0.501   5.072   0.627
 1114SOL     OW 9356   1.851   1.003   6.146
 1114SOL    HW1 9357   1.935   1.007   6.091
 1114SOL    HW2 9358   1.874   1.016   6.243
 1115SOL     OW 9359   5.258   0.573   6.100
 1115SOL    HW1 9360   5.340   0.572   6.043
 1115SOL    HW2 9361   5.186   0.519   6.057
 1116SOL     OW 9362   5.249   3.308   6.531
 1116SOL    HW1 9363   5.186   3.248   6.580
 1116SOL    HW2 9364   5.343   3.283   6.555
 1117SOL     OW 9365   2.977   1.469   0.303
 1117SOL    HW1 9366   2.980   1.490   0.205
 1117SOL    HW2 9367   2.970   1.370   0.315
 1118SOL     OW 9368   3.754   0.535   6.587
 1118SOL    HW1 9369   3.664   0.579   6.588
 1118SOL    HW2 9370   3.825   0.606   6.583
 1119SOL     OW 9371   2.874   4.868   6.315
 1119SOL    HW1 9372   2.921   4.794   6.266
 1119SOL    HW2 9373   2.842   4.834   6.404
 1120SOL     OW 9374   2.411   3.955   1.017
 1120SOL    HW1 9375   2.348   3.880   1.000
 1120SOL    HW2 9376   2.447   3.949   1.110
 1121SOL     OW 9377   3.349   0.628   0.778
 1121SOL    HW1 9378   3.430   0.682   0.758
 1121SOL    HW2 9379   3.334   0.625   0.877
 1122SOL     OW 9380   4.573   2.730   1.484
 1122SOL    HW1 9381   4.476   2.747   1.467
 1122SOL    HW2 9382   4.598   2.640   1.449
 1123SOL     OW 9383   4.208   3.521   1.515
 1123SOL    HW1 9384   4.164   3.609   1.529
 1123SOL    HW2 9385   4.139   3.451   1.496
 1124SOL     OW 9386   4.621   3.096   4.937
 1124SOL    HW1 9387   4.556   3.058   4.870
 1124SOL    HW2 9388   4.671   3.022   4.981
 1125SOL     OW 9389   1.415   1.915   5.599
 1125SOL    HW1 9390   1.477   1.964   5.538
 1125SOL    HW2 9391   1.322   1.919   5.561
 1126SOL     OW 9392   1.213   1.964   6.224
 1126SOL    HW1 9393   1.271   1.989   6.146
 1126SOL    HW2 9394   1.142   2.033   6.236
 1127SOL     OW 9395   1.694   3.170   1.784
 1127SOL    HW1 9396   1.709   3.089   1.727
 1127SOL    HW2 9397   1.642   3.144   1.866
 1128SOL     OW 9398   0.873   0.804   5.399
 1128SOL    HW1 9399   0.927   0.721   5.414
 1128SOL    HW2 9400   0.852   0.813   5.302
 1129SOL     OW 9401   3.351   3.712   0.703
 1129SOL    HW1 9402   3.427   3.773   0.725
 1129SOL    HW2 9403   3.387   3.624   0.673
 1130SOL     OW 9404   0.991   0.913   1.205
 1130SOL    HW1 9405   1.051   0.904   1.125
 1130SOL    HW2 9406   1.037   0.875   1.285
 1131SOL     OW 9407   5.064   1.291   5.711
 1131SOL    HW1 9408   5.053   1.280   5.612
 1131SOL    HW2 9409   4.988   1.246   5.758
 1132SOL     OW 9410   6.214   5.017   0.512
 1132SOL    HW1 9411   6.200   5.016   0.611
 1132SOL    HW2 9412   6.135   5.060   0.469
 1133SOL     OW 9413   1.891   3.256   0.727
 1133SOL    HW1 9414   1.871   3.191   0.800
 1133SOL    HW2 9415   1.952   3.327   0.762
 1134SOL     OW 9416   1.904   0.658   0.989
 1134SOL    HW1 9417   1.841   0.636   1.063
 1134SOL    HW2 9418   1.921   0.757   0.988
 1135SOL     OW 9419   2.054   1.883   6.032
 1135SOL    HW1 9420   2.143   1.898   6.073
 1135SOL    HW2 9421   2.000   1.967   6.037
 1136SOL     OW 9422   2.994   2.373   5.735
 1136SOL    HW1 9423   2.948   2.288   5.709
 1136SOL    HW2 9424   2.964   2.447   5.675
 1137SOL     OW 9425   0.448   1.277   1.065
 1137SOL    HW1 9426   0.467   1.181   1.084
 1137SOL    HW2 9427   0.356   1.286   1.027
 1138SOL     OW 9428   1.229   1.009   6.005
 1138SOL    HW1 9429   1.251   1.037   5.912
 1138SOL    HW2 9430   1.277   0.924   6.026
 1139SOL     OW 9431   3.663   5.305   1.414
 1139SOL    HW1 9432   3.710   5.266   1.335
 1139SOL    HW2 9433   3.661   5.238   1.488
 1140SOL     OW 9434   4.699   1.718   0.620
 1140SOL    HW1 9435   4.742   1.695   0.707
 1140SOL    HW2 9436   4.601   1.696   0.624
 1141SOL     OW 9437   5.032   5.005   6.466
 1141SOL    HW1 9438   5.091   5.084   6.448
 1141SOL    HW2 9439   4.937   5.036   6.475
 1142SOL     OW 9440   1.007   0.467   6.508
 1142SOL    HW1 9441   0.978   0.510   6.423
 1142SOL    HW2 9442   1.104   0.485   6.523
 1143SOL     OW 9443   5.597   0.102   6.342
 1143SOL    HW1 9444   5.537   0.123   6.420
 1143SOL    HW2 9445   5.621   0.187   6.295
 1144SOL     OW 9446   2.187   4.444   0.941
 1144SOL    HW1 9447   2.181   4.344   0.942
 1144SOL    HW2 9448   2.236   4.474   0.859
 1145SOL     OW 9449   5.573   5.400   5.961
 1145SOL    HW1 9450   5.613   5.337   6.028
 1145SOL    HW2 9451   5.499   5.354   5.912
 1146SOL     OW 9452   4.592   0.873   0.616
 1146SOL    HW1 9453   4.624   0.938   0.685
 1146SOL    HW2 9454   4.581   0.783   0.656
 1147SOL     OW 9455   4.166   2.224   6.131
 1147SOL    HW1 9456   4.104   2.246   6.207
 1147SOL    HW2 9457   4.233   2.156   6.161
 1148SOL     OW 9458   4.384   5.298   5.634
 1148SOL    HW1 9459   4.371   5.380   5.689
 1148SOL    HW2 9460   4.369   5.217   5.690
 1149SOL     OW 9461   4.780   5.164   6.474
 1149SOL    HW1 9462   4.737   5.086   6.428
 1149SOL    HW2 9463   4.812   5.230   6.406
 1150SOL     OW 9464   6.142   3.767   6.437
 1150SOL    HW1 9465   6.051   3.731   6.417
 1150SOL    HW2 9466   6.159   3.759   6.535
 1151SOL     OW 9467   3.501   4.953   0.933
 1151SOL    HW1 9468   3.426   5.018   0.937
 1151SOL    HW2 9469   3.504   4.900   1.017
 1152SOL     OW 9470   5.856   3.809   0.232
 1152SOL    HW1 9471   5.850   3.867   0.150
 1152SOL    HW2 9472   5.930   3.843   0.290
 1153SOL     OW 9473   5.704   2.685   5.921
 1153SOL    HW1 9474   5.648   2.691   6.004
 1153SOL    HW2 9475   5.746   2.595   5.916
 1154SOL     OW 9476   3.511   4.441   5.815
 1154SOL    HW1 9477   3.471   4.505   5.881
 1154SOL    HW2 9478   3.577   4.382   5.862
 1155SOL     OW 9479   3.147   1.109   0.931
 1155SOL    HW1 9480   3.057   1.075   0.960
 1155SOL    HW2 9481   3.218   1.046   0.961
 1156SOL     OW 9482   1.171   0.682   0.453
 1156SOL    HW1 9483   1.135   0.663   0.362
 1156SOL    HW2 9484   1.165   0.599   0.509
 1157SOL     OW 9485   5.176   5.926   5.253
 1157SOL    HW1 9486   5.233   5.849   5.224
 1157SOL    HW2 9487   5.082   5.894   5.266
 1158SOL     OW 9488   3.261   6.315   5.421
 1158SOL    HW1 9489   3.314   6.254   5.362
 1158SOL    HW2 9490   3.264   6.280   5.515
 1159SOL     OW 9491   4.833   0.451   5.754
 1159SOL    HW1 9492   4.887   0.478   5.675
 1159SOL    HW2 9493   4.887   0.463   5.838
 1160SOL     OW 9494   4.953   2.134   1.071
 1160SOL    HW1 9495   4.886   2.074   1.027
 1160SOL    HW2 9496   5.010   2.080   1.133
 1161SOL     OW 9497   0.015   1.562   5.720
 1161SOL    HW1 9498   0.035   1.657   5.746
 1161SOL    HW2 9499   0.079   1.501   5.766
 1162SOL     OW 9500   6.189   0.816   6.551
 1162SOL    HW1 9501   6.145   0.735   6.512
 1162SOL    HW2 9502   6.124   0.892   6.551
 1163SOL     OW 9503   3.141   3.216   0.454
 1163SOL    HW1 9504   3.109   3.310   0.442
 1163SOL    HW2 9505   3.101   3.158   0.382
 1164SOL     OW 9506   0.346   0.848   0.243
 1164SOL    HW1 9507   0.313   0.766   0.289
 1164SOL    HW2 9508   0.349   0.924   0.308
 1165SOL     OW 9509   0.599   3.849   0.219
 1165SOL    HW1 9510   0.575   3.886   0.309
 1165SOL    HW2 9511   0.564   3.756   0.211
 1166SOL     OW 9512   2.148   0.979   1.137
 1166SOL    HW1 9513   2.195   1.048   1.191
 1166SOL    HW2 9514   2.173   0.888   1.172
 1167SOL     OW 9515   4.142   0.890   5.933
 1167SOL    HW1 9516   4.119   0.976   5.887
 1167SOL    HW2 9517   4.218   0.847   5.884
 1168SOL     OW 9518   0.732   0.914   1.293
 1168SOL    HW1 9519   0.828   0.916   1.264
 1168SOL    HW2 9520   0.726   0.883   1.388
 1169SOL     OW 9521   0.577   2.082   5.508
 1169SOL    HW1 9522   0.558   2.027   5.589
 1169SOL    HW2 9523   0.671   2.116   5.512
 1170SOL     OW 9524   1.745   2.924   0.371
 1170SOL    HW1 9525   1.754   3.012   0.419
 1170SOL    HW2 9526   1.661   2.923   0.318
 1171SOL     OW 9527   2.882   1.222   0.676
 1171SOL    HW1 9528   2.838   1.150   0.729
 1171SOL    HW2 9529   2.857   1.213   0.580
 1172SOL     OW 9530   0.608   1.924   4.760
 1172SOL    HW1 9531   0.566   1.854   4.703
 1172SOL    HW2 9532   0.560   1.929   4.848
 1173SOL     OW 9533   5.252   2.268   0.757
 1173SOL    HW1 9534   5.310   2.248   0.678
 1173SOL    HW2 9535   5.173   2.206   0.756
 1174SOL     OW 9536   3.629   5.400   0.439
 1174SOL    HW1 9537   3.648   5.336   0.513
 1174SOL    HW2 9538   3.708   5.404   0.377
 1175SOL     OW 9539   2.416   5.502   0.834
 1175SOL    HW1 9540   2.352   5.479   0.907
 1175SOL    HW2 9541   2.489   5.561   0.869
 1176SOL     OW 9542   5.586   1.509   6.161
 1176SOL    HW1 9543   5.656   1.466   6.105
 1176SOL    HW2 9544   5.544   1.584   6.109
 1177SOL     OW 9545   4.496   1.617   5.460
 1177SOL    HW1 9546   4.595   1.607   5.453
 1177SOL    HW2 9547   4.456   1.533   5.495
 1178SOL     OW 9548   5.063   3.567   0.569
 1178SOL    HW1 9549   4.984   3.556   0.630
 1178SOL    HW2 9550   5.030   3.581   0.476
 1179SOL     OW 9551   1.144   3.567   0.276
 1179SOL    HW1 9552   1.055   3.607   0.257
 1179SOL    HW2 9553   1.152   3.478   0.231
 1180SOL     OW 9554   0.593   5.024   0.335
 1180SOL    HW1 9555   0.590   5.011   0.434
 1180SOL    HW2 9556   0.688   5.029   0.305
 1181SOL     OW 9557   4.185   2.226   5.699
 1181SOL    HW1 9558   4.257   2.156   5.697
 1181SOL    HW2 9559   4.214   2.301   5.758
 1182SOL     OW 9560   1.062   5.093   5.780
 1182SOL    HW1 9561   1.070   4.995   5.759
 1182SOL    HW2 9562   1.009   5.104   5.864
 1183SOL     OW 9563   4.428   5.943   6.391
 1183SOL    HW1 9564   4.519   5.973   6.420
 1183SOL    HW2 9565   4.359   6.009   6.421
 1184SOL     OW 9566   4.521   3.003   6.056
 1184SOL    HW1 9567   4.445   2.949   6.021
 1184SOL    HW2 9568   4.507   3.022   6.153
 1185SOL     OW 9569   3.263   0.628   0.347
 1185SOL    HW1 9570   3.190   0.644   0.413
 1185SOL    HW2 9571   3.349   0.611   0.395
 1186SOL     OW 9572   5.619   6.170   0.275
 1186SOL    HW1 9573   5.702   6.115   0.269
 1186SOL    HW2 9574   5.643   6.265   0.292
 1187SOL     OW 9575   1.468   0.736   0.410
 1187SOL    HW1 9576   1.391   0.672   0.421
 1187SOL    HW2 9577   1.496   0.737   0.314
 1188SOL     OW 9578   4.841   0.716   0.568
 1188SOL    HW1 9579   4.929   0.753   0.539
 1188SOL    HW2 9580   4.793   0.783   0.624
 1189SOL     OW 9581   3.328   0.161   5.620
 1189SOL    HW1 9582   3.301   0.126   5.530
 1189SOL    HW2 9583   3.375   0.248   5.609
 1190SOL     OW 9584   2.224   5.977   0.251
 1190SOL    HW1 9585   2.310   6.025   0.235
 1190SOL    HW2 9586   2.238   5.879   0.239
 1191SOL     OW 9587   5.401   3.201   1.405
 1191SOL    HW1 9588   5.460   3.231   1.480
 1191SOL    HW2 9589   5.339   3.129   1.438
 1192SOL     OW 9590   0.508   4.767   0.730
 1192SOL    HW1 9591   0.412   4.780   0.755
 1192SOL    HW2 9592   0.514   4.701   0.655
 1193SOL     OW 9593   5.023   5.985   0.683
 1193SOL    HW1 9594   5.110   5.960   0.725
 1193SOL    HW2 9595   4.968   6.037   0.749
 1194SOL     OW 9596   0.792   3.979   6.105
 1194SOL    HW1 9597   0.693   3.978   6.098
 1194SOL    HW2 9598   0.827   3.886   6.114
 1195SOL     OW 9599   0.731   4.429   1.650
 1195SOL    HW1 9600   0.670   4.376   1.591
 1195SOL    HW2 9601   0.711   4.527   1.640
 1196SOL     OW 9602   4.524   0.276   0.260
 1196SOL    HW1 9603   4.437   0.317   0.289
 1196SOL    HW2 9604   4.520   0.177   0.273
 1197SOL     OW 9605   3.574   3.861   0.710
 1197SOL    HW1 9606   3.605   3.945   0.667
 1197SOL    HW2 9607   3.651   3.819   0.759
 1198SOL     OW 9608   3.651   6.280   6.096
 1198SOL    HW1 9609   3.637   6.329   6.010
 1198SOL    HW2 9610   3.634   6.342   6.173
 1199SOL     OW 9611   0.420   1.240   0.226
 1199SOL    HW1 9612   0.417   1.340   0.231
 1199SOL    HW2 9613   0.512   1.211   0.199
 1200SOL     OW 9614   1.641   1.983   6.103
 1200SOL    HW1 9615   1.613   1.985   6.199
 1200SOL    HW2 9616   1.564   2.012   6.046
 1201SOL     OW 9617   0.672   5.104   4.966
 1201SOL    HW1 9618   0.752   5.113   4.906
 1201SOL    HW2 9619   0.616   5.187   4.960
 1202SOL     OW 9620   5.535   2.020   1.117
 1202SOL    HW1 9621   5.623   1.977   1.135
 1202SOL    HW2 9622   5.486   2.032   1.204
 1203SOL     OW 9623   3.300   4.783   0.451
 1203SOL    HW1 9624   3.258   4.854   0.508
 1203SOL    HW2 9625   3.229   4.729   0.407
 1204SOL     OW 9626   0.168   1.787   0.076
 1204SOL    HW1 9627   0.147   1.868   0.131
 1204SOL    HW2 9628   0.180   1.708   0.135
 1205SOL     OW 9629   1.005   1.816   0.938
 1205SOL    HW1 9630   1.082   1.819   1.002
 1205SOL    HW2 9631   1.038   1.835   0.846
 1206SOL     OW 9632   1.902   5.876   0.299
 1206SOL    HW1 9633   1.955   5.959   0.314
 1206SOL    HW2 9634   1.959   5.796   0.321
 1207SOL     OW 9635   0.019   0.815   1.587
 1207SOL    HW1 9636   6.406   0.815   1.492
 1207SOL    HW2 9637   0.042   0.909   1.614
 1208SOL     OW 9638   3.433   5.064   4.885
 1208SOL    HW1 9639   3.443   5.119   4.802
 1208SOL    HW2 9640   3.431   5.124   4.965
 1209SOL     OW 9641   0.123   6.214   0.340
 1209SOL    HW1 9642   0.217   6.182   0.333
 1209SOL    HW2 9643   0.111   6.295   0.282
 1210SOL     OW 9644   6.041   3.549   0.768
 1210SOL    HW1 9645   5.981   3.598   0.831
 1210SOL    HW2 9646   5.989   3.480   0.719
 1211SOL     OW 9647   5.553   6.085   6.300
 1211SOL    HW1 9648   5.566   6.087   6.399
 1211SOL    HW2 9649   5.625   6.031   6.258
 1212SOL     OW 9650   6.399   2.968   5.752
 1212SOL    HW1 9651   0.059   3.005   5.702
 1212SOL    HW2 9652   6.315   2.995   5.706
 1213SOL     OW 9653   5.032   2.029   4.636
 1213SOL    HW1 9654   5.042   1.932   4.656
 1213SOL    HW2 9655   4.985   2.040   4.548
 1214SOL     OW 9656   3.028   3.087   0.244
 1214SOL    HW1 9657   3.029   3.047   0.152
 1214SOL    HW2 9658   2.933   3.103   0.272
 1215SOL     OW 9659   2.344   0.928   0.888
 1215SOL    HW1 9660   2.407   0.885   0.953
 1215SOL    HW2 9661   2.250   0.917   0.920
 1216SOL     OW 9662   4.166   3.073   5.817
 1216SOL    HW1 9663   4.254   3.042   5.779
 1216SOL    HW2 9664   4.120   2.996   5.861
 1217SOL     OW 9665   0.005   3.501   1.175
 1217SOL    HW1 9666   6.392   3.590   1.210
 1217SOL    HW2 9667   0.039   3.446   1.251
 1218SOL     OW 9668   0.376   6.090   0.316
 1218SOL    HW1 9669   0.443   6.162   0.297
 1218SOL    HW2 9670   0.418   6.020   0.374
 1219SOL     OW 9671   5.396   5.712   0.892
 1219SOL    HW1 9672   5.482   5.737   0.937
 1219SOL    HW2 9673   5.413   5.639   0.827
 1220SOL     OW 9674   5.832   2.813   1.103
 1220SOL    HW1 9675   5.862   2.730   1.056
 1220SOL    HW2 9676   5.740   2.836   1.075
 1221SOL     OW 9677   4.557   3.514   0.383
 1221SOL    HW1 9678   4.563   3.567   0.468
 1221SOL    HW2 9679   4.599   3.565   0.308
 1222SOL     OW 9680   3.982   4.768   6.206
 1222SOL    HW1 9681   3.934   4.718   6.278
 1222SOL    HW2 9682   4.041   4.837   6.248
 1223SOL     OW 9683   4.807   0.725   6.106
 1223SOL    HW1 9684   4.863   0.710   6.188
 1223SOL    HW2 9685   4.858   0.782   6.041
 1224SOL     OW 9686   5.091   4.211   0.654
 1224SOL    HW1 9687   5.179   4.211   0.703
 1224SOL    HW2 9688   5.075   4.300   0.614
 1225SOL     OW 9689   0.952   3.952   0.948
 1225SOL    HW1 9690   0.986   4.031   0.896
 1225SOL    HW2 9691   0.989   3.954   1.041
 1226SOL     OW 9692   4.154   1.937   0.641
 1226SOL    HW1 9693   4.159   2.037   0.648
 1226SOL    HW2 9694   4.206   1.897   0.716
 1227SOL     OW 9695   1.463   1.678   5.310
 1227SOL    HW1 9696   1.398   1.745   5.273
 1227SOL    HW2 9697   1.474   1.604   5.244
 1228SOL     OW 9698   4.398   3.263   4.966
 1228SOL    HW1 9699   4.318   3.219   5.007
 1228SOL    HW2 9700   4.478   3.203   4.974
 1229SOL     OW 9701   6.335   1.705   5.377
 1229SOL    HW1 9702   0.014   1.728   5.378
 1229SOL    HW2 9703   6.313   1.654   5.294
 1230SOL     OW 9704   2.096   4.755   5.357
 1230SOL    HW1 9705   2.093   4.681   5.289
 1230SOL    HW2 9706   2.094   4.843   5.309
 1231SOL     OW 9707   5.536   2.611   0.658
 1231SOL    HW1 9708   5.576   2.575   0.574
 1231SOL    HW2 9709   5.539   2.540   0.729
 1232SOL     OW 9710   0.492   5.516   5.273
 1232SOL    HW1 9711   0.453   5.549   5.360
 1232SOL    HW2 9712   0.421   5.471   5.220
 1233SOL     OW 9713   5.913   1.790   5.661
 1233SOL    HW1 9714   6.001   1.780   5.615
 1233SOL    HW2 9715   5.908   1.881   5.702
 1234SOL     OW 9716   4.934   1.403   0.117
 1234SOL    HW1 9717   4.964   1.345   0.041
 1234SOL    HW2 9718   4.868   1.352   0.173
 1235SOL     OW 9719   2.975   1.636   5.482
 1235SOL    HW1 9720   2.901   1.687   5.439
 1235SOL    HW2 9721   2.937   1.563   5.538
 1236SOL     OW 9722   3.498   3.500   0.602
 1236SOL    HW1 9723   3.585   3.454   0.618
 1236SOL    HW2 9724   3.435   3.437   0.556
 1237SOL     OW 9725   5.958   2.109   0.359
 1237SOL    HW1 9726   5.962   2.209   0.369
 1237SOL    HW2 9727   5.890   2.086   0.289
 1238SOL     OW 9728   1.930   5.659   5.027
 1238SOL    HW1 9729   1.895   5.591   4.963
 1238SOL    HW2 9730   2.013   5.701   4.990
 1239SOL     OW 9731   2.236   1.254   0.111
 1239SOL    HW1 9732   2.319   1.243   0.056
 1239SOL    HW2 9733   2.166   1.190   0.079
 1240SOL     OW 9734   0.542   0.308   0.599
 1240SOL    HW1 9735   0.593   0.279   0.680
 1240SOL    HW2 9736   0.603   0.353   0.534
 1241SOL     OW 9737   4.048   0.274   5.842
 1241SOL    HW1 9738   4.122   0.340   5.833
 1241SOL    HW2 9739   3.992   0.275   5.759
 1242SOL     OW 9740   1.520   3.934   6.270
 1242SOL    HW1 9741   1.503   4.003   6.341
 1242SOL    HW2 9742   1.524   3.979   6.180
 1243SOL     OW 9743   2.634   2.680   5.801
 1243SOL    HW1 9744   2.712   2.633   5.759
 1243SOL    HW2 9745   2.645   2.779   5.790
 1244SOL     OW 9746   2.745   3.298   5.498
 1244SOL    HW1 9747   2.794   3.325   5.581
 1244SOL    HW2 9748   2.680   3.370   5.473
 1245SOL     OW 9749   3.617   4.722   0.266
 1245SOL    HW1 9750   3.568   4.805   0.242
 1245SOL    HW2 9751   3.560   4.666   0.326
 1246SOL     OW 9752   4.500   4.989   1.122
 1246SOL    HW1 9753   4.440   5.038   1.058
 1246SOL    HW2 9754   4.445   4.926   1.177
 1247SOL     OW 9755   5.102   3.563   0.128
 1247SOL    HW1 9756   5.127   3.490   0.065
 1247SOL    HW2 9757   5.152   3.551   0.214
 1248SOL     OW 9758   5.606   5.564   4.887
 1248SOL    HW1 9759   5.601   5.664   4.890
 1248SOL    HW2 9760   5.699   5.536   4.862
 1249SOL     OW 9761   2.760   1.111   5.344
 1249SOL    HW1 9762   2.712   1.131   5.429
 1249SOL    HW2 9763   2.856   1.089   5.363
 1250SOL     OW 9764   0.245   4.948   0.339
 1250SOL    HW1 9765   0.281   5.041   0.349
 1250SOL    HW2 9766   0.146   4.952   0.332
 1251SOL     OW 9767   2.320   5.053   6.004
 1251SOL    HW1 9768   2.373   4.980   6.046
 1251SOL    HW2 9769   2.296   5.027   5.910
 1252SOL     OW 9770   2.363   0.812   0.449
 1252SOL    HW1 9771   2.404   0.859   0.527
 1252SOL    HW2 9772   2.305   0.876   0.398
 1253SOL     OW 9773   5.251   1.337   0.452
 1253SOL    HW1 9774   5.228   1.400   0.378
 1253SOL    HW2 9775   5.201   1.251   0.440
 1254SOL     OW 9776   5.749   3.481   6.065
 1254SOL    HW1 9777   5.782   3.387   6.063
 1254SOL    HW2 9778   5.707   3.500   6.153
 1255SOL     OW 9779   4.484   0.783   5.500
 1255SOL    HW1 9780   4.548   0.735   5.560
 1255SOL    HW2 9781   4.535   0.837   5.433
 1256SOL     OW 9782   1.633   1.957   5.756
 1256SOL    HW1 9783   1.551   1.938   5.703
 1256SOL    HW2 9784   1.654   1.878   5.815
 1257SOL     OW 9785   2.791   3.259   5.963
 1257SOL    HW1 9786   2.838   3.335   6.008
 1257SOL    HW2 9787   2.695   3.259   5.990
 1258SOL     OW 9788   6.417   5.213   0.883
 1258SOL    HW1 9789   6.329   5.191   0.923
 1258SOL    HW2 9790   0.013   5.158   0.801
 1259SOL     OW 9791   4.627   5.378   2.184
 1259SOL    HW1 9792   4.715   5.364   2.229
 1259SOL    HW2 9793   4.570   5.436   2.241
 1260SOL     OW 9794   4.482   5.942   6.099
 1260SOL    HW1 9795   4.467   5.891   6.184
 1260SOL    HW2 9796   4.430   6.027   6.102
 1261SOL     OW 9797   1.412   5.442   4.945
 1261SOL    HW1 9798   1.429   5.532   4.985
 1261SOL    HW2 9799   1.490   5.415   4.888
 1262SOL     OW 9800   4.885   4.009   1.735
 1262SOL    HW1 9801   4.833   4.087   1.701
 1262SOL    HW2 9802   4.964   4.041   1.787
 1263SOL     OW 9803   1.604   3.136   5.975
 1263SOL    HW1 9804   1.539   3.069   5.938
 1263SOL    HW2 9805   1.568   3.174   6.060
 1264SOL     OW 9806   2.805   1.781   1.406
 1264SOL    HW1 9807   2.727   1.820   1.455
 1264SOL    HW2 9808   2.796   1.799   1.308
 1265SOL     OW 9809   0.181   0.311   6.191
 1265SOL    HW1 9810   0.178   0.231   6.131
 1265SOL    HW2 9811   0.184   0.280   6.286
 1266SOL     OW 9812   3.971   0.305   1.006
 1266SOL    HW1 9813   3.876   0.336   0.997
 1266SOL    HW2 9814   4.032   0.384   1.003
 1267SOL     OW 9815   2.405   5.574   1.207
 1267SOL    HW1 9816   2.388   5.671   1.189
 1267SOL    HW2 9817   2.470   5.566   1.283
 1268SOL     OW 9818   6.357   2.592   5.911
 1268SOL    HW1 9819   6.257   2.586   5.909
 1268SOL    HW2 9820   6.389   2.640   5.829
 1269SOL     OW 9821   0.141   5.584   6.085
 1269SOL    HW1 9822   0.184   5.666   6.122
 1269SOL    HW2 9823   0.135   5.514   6.157
 1270SOL     OW 9824   3.198   2.538   0.212
 1270SOL    HW1 9825   3.171   2.447   0.243
 1270SOL    HW2 9826   3.219   2.535   0.114
 1271SOL     OW 9827   4.665   4.149   0.526
 1271SOL    HW1 9828   4.617   4.221   0.476
 1271SOL    HW2 9829   4.756   4.135   0.485
 1272SOL     OW 9830   4.717   0.532   6.358
 1272SOL    HW1 9831   4.692   0.469   6.432
 1272SOL    HW2 9832   4.752   0.617   6.398
 1273SOL     OW 9833   1.092   4.823   5.746
 1273SOL    HW1 9834   1.060   4.757   5.677
 1273SOL    HW2 9835   1.190   4.837   5.735
 1274SOL     OW 9836   1.378   2.567   5.871
 1274SOL    HW1 9837   1.424   2.626   5.806
 1274SOL    HW2 9838   1.434   2.487   5.890
 1275SOL     OW 9839   4.753   0.450   0.656
 1275SOL    HW1 9840   4.805   0.533   0.637
 1275SOL    HW2 9841   4.740   0.398   0.571
 1276SOL     OW 9842   6.188   1.798   1.320
 1276SOL    HW1 9843   6.244   1.847   1.253
 1276SOL    HW2 9844   6.185   1.850   1.406
 1277SOL     OW 9845   3.659   2.588   0.586
 1277SOL    HW1 9846   3.562   2.564   0.594
 1277SOL    HW2 9847   3.676   2.628   0.496
 1278SOL     OW 9848   2.119   4.783   5.625
 1278SOL    HW1 9849   2.135   4.765   5.528
 1278SOL    HW2 9850   2.042   4.845   5.635
 1279SOL     OW 9851   4.274   2.884   6.039
 1279SOL    HW1 9852   4.271   2.832   6.124
 1279SOL    HW2 9853   4.209   2.845   5.974
 1280SOL     OW 9854   3.431   3.502   6.458
 1280SOL    HW1 9855   3.473   3.532   6.544
 1280SOL    HW2 9856   3.502   3.479   6.392
 1281SOL     OW 9857   5.364   0.312   6.281
 1281SOL    HW1 9858   5.306   0.235   6.255
 1281SOL    HW2 9859   5.316   0.370   6.345
 1282SOL     OW 9860   3.995   3.086   1.631
 1282SOL    HW1 9861   4.016   3.012   1.694
 1282SOL    HW2 9862   3.983   3.171   1.682
 1283SOL     OW 9863   2.255   1.736   1.373
 1283SOL    HW1 9864   2.186   1.679   1.419
 1283SOL    HW2 9865   2.240   1.832   1.397
 1284SOL     OW 9866   2.939   3.412   0.696
 1284SOL    HW1 9867   2.938   3.503   0.738
 1284SOL    HW2 9868   2.871   3.354   0.742
 1285SOL     OW 9869   5.888   3.649   6.398
 1285SOL    HW1 9870   5.808   3.610   6.352
 1285SOL    HW2 9871   5.880   3.635   6.497
 1286SOL     OW 9872   4.286   5.292   4.789
 1286SOL    HW1 9873   4.379   5.329   4.791
 1286SOL    HW2 9874   4.242   5.306   4.878
 1287SOL     OW 9875   5.338   4.549   5.472
 1287SOL    HW1 9876   5.324   4.455   5.502
 1287SOL    HW2 9877   5.252   4.600   5.480
 1288SOL     OW 9878   0.660   6.424   0.594
 1288SOL    HW1 9879   0.702   0.036   0.666
 1288SOL    HW2 9880   0.732   6.385   0.536
 1289SOL     OW 9881   0.175   4.634   0.198
 1289SOL    HW1 9882   0.214   4.662   0.110
 1289SOL    HW2 9883   0.080   4.607   0.184
 1290SOL     OW 9884   6.261   1.104   0.971
 1290SOL    HW1 9885   6.238   1.180   1.032
 1290SOL    HW2 9886   6.209   1.112   0.886
 1291SOL     OW 9887   1.732   3.381   5.992
 1291SOL    HW1 9888   1.725   3.425   5.903
 1291SOL    HW2 9889   1.682   3.294   5.991
 1292SOL     OW 9890   3.146   4.599   1.552
 1292SOL    HW1 9891   3.105   4.632   1.637
 1292SOL    HW2 9892   3.098   4.517   1.521
 1293SOL     OW 9893   1.625   0.957   0.965
 1293SOL    HW1 9894   1.639   0.985   0.870
 1293SOL    HW2 9895   1.713   0.936   1.007
 1294SOL     OW 9896   5.573   5.833   4.910
 1294SOL    HW1 9897   5.490   5.870   4.868
 1294SOL    HW2 9898   5.615   5.901   4.969
 1295SOL     OW 9899   2.344   2.305   0.405
 1295SOL    HW1 9900   2.391   2.239   0.346
 1295SOL    HW2 9901   2.327   2.389   0.354
 1296SOL     OW 9902   4.762   3.668   5.734
 1296SOL    HW1 9903   4.692   3.635   5.670
 1296SOL    HW2 9904   4.851   3.666   5.690
 1297SOL     OW 9905   4.150   5.465   0.194
 1297SOL    HW1 9906   4.223   5.476   0.262
 1297SOL    HW2 9907   4.156   5.374   0.153
 1298SOL     OW 9908   6.019   1.546   5.128
 1298SOL    HW1 9909   5.944   1.491   5.164
 1298SOL    HW2 9910   6.005   1.564   5.031
 1299SOL     OW 9911   2.643   5.254   0.855
 1299SOL    HW1 9912   2.717   5.309   0.893
 1299SOL    HW2 9913   2.571   5.314   0.820
 1300SOL     OW 9914   1.659   5.824   0.438
 1300SOL    HW1 9915   1.678   5.772   0.521
 1300SOL    HW2 9916   1.745   5.851   0.395
 1301SOL     OW 9917   3.197   5.288   5.547
 1301SOL    HW1 9918   3.295   5.302   5.532
 1301SOL    HW2 9919   3.168   5.205   5.500
 1302SOL     OW 9920   3.003   1.222   5.596
 1302SOL    HW1 9921   2.991   1.175   5.684
 1302SOL    HW2 9922   3.014   1.154   5.523
 1303SOL     OW 9923   1.232   3.274   5.575
 1303SOL    HW1 9924   1.155   3.299   5.516
 1303SOL    HW2 9925   1.262   3.182   5.553
 1304SOL     OW 9926   2.796   4.775   6.569
 1304SOL    HW1 9927   2.796   4.788   0.071
 1304SOL    HW2 9928   2.704   4.791   6.534
 1305SOL     OW 9929   4.347   5.517   5.784
 1305SOL    HW1 9930   4.387   5.599   5.824
 1305SOL    HW2 9931   4.251   5.536   5.761
 1306SOL     OW 9932   4.850   1.309   1.037
 1306SOL    HW1 9933   4.928   1.335   1.093
 1306SOL    HW2 9934   4.841   1.209   1.036
 1307SOL     OW 9935   6.114   2.108   4.873
 1307SOL    HW1 9936   6.136   2.025   4.923
 1307SOL    HW2 9937   6.193   2.135   4.817
 1308SOL     OW 9938   0.070   1.199   5.357
 1308SOL    HW1 9939   0.001   1.256   5.401
 1308SOL    HW2 9940   0.103   1.244   5.274
 1309SOL     OW 9941   3.179   4.788   1.062
 1309SOL    HW1 9942   3.092   4.824   1.098
 1309SOL    HW2 9943   3.245   4.863   1.054
 1310SOL     OW 9944   2.029   0.910   0.352
 1310SOL    HW1 9945   1.964   0.836   0.370
 1310SOL    HW2 9946   1.998   0.993   0.398
 1311SOL     OW 9947   1.916   2.465   0.040
 1311SOL    HW1 9948   1.886   2.525   6.562
 1311SOL    HW2 9949   2.002   2.420   0.013
 1312SOL     OW 9950   3.874   2.691   0.702
 1312SOL    HW1 9951   3.787   2.651   0.673
 1312SOL    HW2 9952   3.945   2.620   0.698
 1313SOL     OW 9953   5.330   5.719   5.175
 1313SOL    HW1 9954   5.427   5.723   5.153
 1313SOL    HW2 9955   5.286   5.647   5.120
 1314SOL     OW 9956   4.016   5.271   1.306
 1314SOL    HW1 9957   3.985   5.231   1.392
 1314SOL    HW2 9958   4.087   5.214   1.266
 1315SOL     OW 9959   2.456   4.093   6.338
 1315SOL    HW1 9960   2.376   4.103   6.279
 1315SOL    HW2 9961   2.484   4.183   6.372
 1316SOL     OW 9962   3.131   4.917   2.022
 1316SOL    HW1 9963   3.060   4.944   1.958
 1316SOL    HW2 9964   3.124   4.819   2.040
 1317SOL     OW 9965   5.739   4.550   1.357
 1317SOL    HW1 9966   5.775   4.462   1.326
 1317SOL    HW2 9967   5.782   4.575   1.444
 1318SOL     OW 9968   2.140   5.982   6.190
 1318SOL    HW1 9969   2.211   5.937   6.136
 1318SOL    HW2 9970   2.134   6.078   6.163
 1319SOL     OW 9971   2.433   0.163   0.148
 1319SOL    HW1 9972   2.392   0.250   0.174
 1319SOL    HW2 9973   2.379   0.088   0.185
 1320SOL     OW 9974   3.876   1.829   6.524
 1320SOL    HW1 9975   3.949   1.812   6.590
 1320SOL    HW2 9976   3.801   1.879   6.568
 1321SOL     OW 9977   2.584   2.684   6.184
 1321SOL    HW1 9978   2.519   2.734   6.241
 1321SOL    HW2 9979   2.677   2.714   6.206
 1322SOL     OW 9980   5.269   4.213   1.340
 1322SOL    HW1 9981   5.290   4.229   1.436
 1322SOL    HW2 9982   5.177   4.247   1.320
 1323SOL     OW 9983   2.691   2.448   0.148
 1323SOL    HW1 9984   2.684   2.512   0.225
 1323SOL    HW2 9985   2.782   2.455   0.107
 1324SOL     OW 9986   6.105   3.292   5.834
 1324SOL    HW1 9987   6.196   3.330   5.820
 1324SOL    HW2 9988   6.040   3.337   5.773
 1325SOL     OW 9989   3.749   4.051   5.603
 1325SOL    HW1 9990   3.708   4.120   5.543
 1325SOL    HW2 9991   3.722   4.068   5.698
 1326SOL     OW 9992   4.297   3.583   5.892
 1326SOL    HW1 9993   4.396   3.570   5.895
 1326SOL    HW2 9994   4.255   3.507   5.842
 1327SOL     OW 9995   4.815   3.305   6.372
 1327SOL    HW1 9996   4.846   3.385   6.424
 1327SOL    HW2 9997   4.881   3.283   6.301
 1328SOL     OW 9998   3.516   3.610   1.797
 1328SOL    HW1 9999   3.541   3.588   1.703
 1328SOL    HW210000   3.584   3.674   1.834
 1329SOL     OW10001   2.414   2.762   0.021
 1329SOL    HW110002   2.419   2.858   0.051
 1329SOL    HW210003   2.319   2.731   0.023
 1330SOL     OW10004   3.743   1.357   1.388
 1330SOL    HW110005   3.744   1.361   1.488
 1330SOL    HW210006   3.706   1.442   1.352
 1331SOL     OW10007   3.929   3.701   1.094
 1331SOL    HW110008   3.935   3.604   1.116
 1331SOL    HW210009   4.008   3.749   1.133
 1332SOL     OW10010   5.829   5.005   5.818
 1332SOL    HW110011   5.771   5.049   5.750
 1332SOL    HW210012   5.774   4.948   5.879
 1333SOL     OW10013   1.826   0.625   0.726
 1333SOL    HW110014   1.852   0.633   0.822
 1333SOL    HW210015   1.890   0.678   0.670
 1334SOL     OW10016   4.799   2.374   5.174
 1334SOL    HW110017   4.711   2.341   5.208
 1334SOL    HW210018   4.813   2.469   5.201
 1335SOL     OW10019   1.292   0.037   5.454
 1335SOL    HW110020   1.325   6.387   5.441
 1335SOL    HW210021   1.215   0.054   5.392
 1336SOL     OW10022   5.683   0.798   0.548
 1336SOL    HW110023   5.619   0.723   0.564
 1336SOL    HW210024   5.680   0.861   0.626
 1337SOL     OW10025   3.468   5.608   0.501
 1337SOL    HW110026   3.526   5.684   0.470
 1337SOL    HW210027   3.513   5.521   0.479
 1338SOL     OW10028   0.686   5.338   1.234
 1338SOL    HW110029   0.669   5.300   1.325
 1338SOL    HW210030   0.753   5.281   1.186
 1339SOL     OW10031   3.309   5.319   1.397
 1339SOL    HW110032   3.212   5.318   1.421
 1339SOL    HW210033   3.361   5.357   1.474
 1340SOL     OW10034   4.088   5.904   0.913
 1340SOL    HW110035   4.093   5.817   0.864
 1340SOL    HW210036   4.149   5.970   0.870
 1341SOL     OW10037   1.540   2.094   5.429
 1341SOL    HW110038   1.637   2.117   5.437
 1341SOL    HW210039   1.501   2.140   5.350
 1342SOL     OW10040   5.879   5.501   4.883
 1342SOL    HW110041   5.964   5.545   4.856
 1342SOL    HW210042   5.898   5.422   4.941
 1343SOL     OW10043   1.893   4.903   5.991
 1343SOL    HW110044   1.917   4.975   5.926
 1343SOL    HW210045   1.872   4.945   6.080
 1344SOL     OW10046   6.209   2.577   6.423
 1344SOL    HW110047   6.261   2.660   6.439
 1344SOL    HW210048   6.212   2.554   6.325
 1345SOL     OW10049   5.646   3.679   0.373
 1345SOL    HW110050   5.584   3.719   0.306
 1345SOL    HW210051   5.739   3.710   0.355
 1346SOL     OW10052   5.878   1.252   5.705
 1346SOL    HW110053   5.848   1.192   5.631
 1346SOL    HW210054   5.920   1.334   5.666
 1347SOL     OW10055   2.868   1.133   6.254
 1347SOL    HW110056   2.831   1.114   6.163
 1347SOL    HW210057   2.821   1.077   6.322
 1348SOL     OW10058   0.289   1.799   0.529
 1348SOL    HW110059   0.332   1.886   0.504
 1348SOL    HW210060   0.329   1.766   0.614
 1349SOL     OW10061   4.768   3.377   4.933
 1349SOL    HW110062   4.683   3.429   4.926
 1349SOL    HW210063   4.754   3.285   4.897
 1350SOL     OW10064   2.948   3.655   0.823
 1350SOL    HW110065   3.032   3.710   0.824
 1350SOL    HW210066   2.874   3.709   0.782
 1351SOL     OW10067   1.267   3.024   0.469
 1351SOL    HW110068   1.303   2.984   0.385
 1351SOL    HW210069   1.261   2.953   0.540
 1352SOL     OW10070   3.066   6.195   0.160
 1352SOL    HW110071   2.999   6.259   0.198
 1352SOL    HW210072   3.088   6.221   0.066
 1353SOL     OW10073   3.995   3.283   5.909
 1353SOL    HW110074   4.059   3.206   5.902
 1353SOL    HW210075   4.010   3.331   5.996
 1354SOL     OW10076   5.509   0.559   5.963
 1354SOL    HW110077   5.603   0.593   5.968
 1354SOL    HW210078   5.510   0.463   5.937
 1355SOL     OW10079   4.950   4.029   6.390
 1355SOL    HW110080   4.939   4.050   6.293
 1355SOL    HW210081   5.019   3.958   6.401
 1356SOL     OW10082   5.426   2.916   5.831
 1356SOL    HW110083   5.510   2.935   5.882
 1356SOL    HW210084   5.413   2.986   5.761
 1357SOL     OW10085   2.633   2.641   0.363
 1357SOL    HW110086   2.670   2.730   0.336
 1357SOL    HW210087   2.542   2.629   0.323
 1358SOL     OW10088   3.555   1.561   6.188
 1358SOL    HW110089   3.541   1.612   6.103
 1358SOL    HW210090   3.635   1.597   6.236
 1359SOL     OW10091   3.340   5.631   5.512
 1359SOL    HW110092   3.310   5.636   5.607
 1359SOL    HW210093   3.263   5.607   5.453
 1360SOL     OW10094   5.572   4.207   0.308
 1360SOL    HW110095   5.579   4.115   0.348
 1360SOL    HW210096   5.663   4.247   0.299
 1361SOL     OW10097   0.353   0.055   5.890
 1361SOL    HW110098   0.285   0.051   5.963
 1361SOL    HW210099   0.320   0.002   5.812
 1362SOL     OW10100   2.979   1.526   0.044
 1362SOL    HW110101   3.066   1.485   0.016
 1362SOL    HW210102   2.957   1.603   6.582
 1363SOL     OW10103   5.549   4.660   0.633
 1363SOL    HW110104   5.473   4.723   0.649
 1363SOL    HW210105   5.529   4.602   0.555
 1364SOL     OW10106   0.947   1.400   5.659
 1364SOL    HW110107   0.978   1.420   5.753
 1364SOL    HW210108   0.852   1.369   5.662
 1365SOL     OW10109   5.078   0.488   0.776
 1365SOL    HW110110   5.002   0.501   0.839
 1365SOL    HW210111   5.165   0.503   0.825
 1366SOL     OW10112   5.262   2.151   0.112
 1366SOL    HW110113   5.336   2.103   0.064
 1366SOL    HW210114   5.174   2.116   0.079
 1367SOL     OW10115   0.652   6.340   1.169
 1367SOL    HW110116   0.714   6.412   1.200
 1367SOL    HW210117   0.672   6.319   1.073
 1368SOL     OW10118   2.032   0.349   0.120
 1368SOL    HW110119   1.964   0.314   0.183
 1368SOL    HW210120   1.988   0.413   0.056
 1369SOL     OW10121   0.338   1.471   1.350
 1369SOL    HW110122   0.311   1.560   1.387
 1369SOL    HW210123   0.292   1.399   1.402
 1370SOL     OW10124   3.265   1.190   6.313
 1370SOL    HW110125   3.364   1.192   6.304
 1370SOL    HW210126   3.223   1.222   6.227
 1371SOL     OW10127   2.837   3.840   0.168
 1371SOL    HW110128   2.844   3.935   0.197
 1371SOL    HW210129   2.895   3.783   0.227
 1372SOL     OW10130   5.942   4.234   6.543
 1372SOL    HW110131   5.845   4.258   6.552
 1372SOL    HW210132   5.996   4.318   6.541
 1373SOL     OW10133   0.589   1.455   2.042
 1373SOL    HW110134   0.634   1.498   2.121
 1373SOL    HW210135   0.594   1.356   2.052
 1374SOL     OW10136   6.197   1.445   5.653
 1374SOL    HW110137   6.122   1.511   5.648
 1374SOL    HW210138   6.281   1.492   5.681
 1375SOL     OW10139   5.180   4.033   5.879
 1375SOL    HW110140   5.092   4.027   5.832
 1375SOL    HW210141   5.213   4.127   5.875
 1376SOL     OW10142   3.120   6.053   6.508
 1376SOL    HW110143   3.025   6.082   6.497
 1376SOL    HW210144   3.124   5.953   6.514
 1377SOL     OW10145   4.629   2.479   1.396
 1377SOL    HW110146   4.725   2.470   1.422
 1377SOL    HW210147   4.574   2.416   1.451
 1378SOL     OW10148   4.947   3.553   5.920
 1378SOL    HW110149   4.994   3.638   5.944
 1378SOL    HW210150   4.861   3.575   5.875
 1379SOL     OW10151   5.592   3.560   6.576
 1379SOL    HW110152   5.685   3.567   0.016
 1379SOL    HW210153   5.527   3.598   0.045
 1380SOL     OW10154   5.914   5.545   6.144
 1380SOL    HW110155   5.864   5.518   6.062
 1380SOL    HW210156   5.984   5.612   6.120
 1381SOL     OW10157   3.889   3.726   5.292
 1381SOL    HW110158   3.867   3.801   5.230
 1381SOL    HW210159   3.858   3.639   5.252
 1382SOL     OW10160   4.055   4.898   5.790
 1382SOL    HW110161   4.077   4.995   5.805
 1382SOL    HW210162   3.977   4.873   5.847
 1383SOL     OW10163   2.023   3.209   1.500
 1383SOL    HW110164   1.943   3.166   1.541
 1383SOL    HW210165   2.061   3.149   1.430
 1384SOL     OW10166   5.854   2.152   1.344
 1384SOL    HW110167   5.816   2.245   1.339
 1384SOL    HW210168   5.944   2.155   1.386
 1385SOL     OW10169   1.196   5.635   5.212
 1385SOL    HW110170   1.158   5.615   5.302
 1385SOL    HW210171   1.140   5.591   5.142
 1386SOL     OW10172   1.928   3.827   5.503
 1386SOL    HW110173   1.975   3.740   5.517
 1386SOL    HW210174   1.981   3.883   5.439
 1387SOL     OW10175   3.075   5.379   1.589
 1387SOL    HW110176   3.060   5.474   1.562
 1387SOL    HW210177   3.082   5.373   1.689
 1388SOL     OW10178   3.992   0.016   5.098
 1388SOL    HW110179   4.000   6.394   5.023
 1388SOL    HW210180   3.913   0.076   5.081
 1389SOL     OW10181   5.020   4.257   2.043
 1389SOL    HW110182   4.923   4.278   2.037
 1389SOL    HW210183   5.061   4.256   1.952
 1390SOL     OW10184   1.140   5.398   5.022
 1390SOL    HW110185   1.154   5.302   5.047
 1390SOL    HW210186   1.226   5.435   4.987
 1391SOL     OW10187   4.897   1.079   0.692
 1391SOL    HW110188   4.961   1.004   0.710
 1391SOL    HW210189   4.818   1.071   0.752
 1392SOL     OW10190   5.160   3.585   5.285
 1392SOL    HW110191   5.091   3.622   5.222
 1392SOL    HW210192   5.234   3.544   5.232
 1393SOL     OW10193   5.855   4.275   0.320
 1393SOL    HW110194   5.929   4.256   0.256
 1393SOL    HW210195   5.862   4.369   0.353
 1394SOL     OW10196   1.610   5.849   0.845
 1394SOL    HW110197   1.652   5.846   0.936
 1394SOL    HW210198   1.600   5.944   0.816
 1395SOL     OW10199   2.559   6.279   5.755
 1395SOL    HW110200   2.615   6.266   5.837
 1395SOL    HW210201   2.617   6.305   5.678
 1396SOL     OW10202   1.481   3.928   5.508
 1396SOL    HW110203   1.561   3.988   5.501
 1396SOL    HW210204   1.432   3.929   5.421
 1397SOL     OW10205   3.915   0.941   0.167
 1397SOL    HW110206   3.827   0.958   0.211
 1397SOL    HW210207   3.957   1.029   0.143
 1398SOL     OW10208   3.654   5.783   0.403
 1398SOL    HW110209   3.734   5.802   0.460
 1398SOL    HW210210   3.683   5.770   0.308
 1399SOL     OW10211   4.542   0.796   5.005
 1399SOL    HW110212   4.569   0.797   4.909
 1399SOL    HW210213   4.447   0.766   5.013
 1400SOL     OW10214   2.546   6.032   0.495
 1400SOL    HW110215   2.616   5.968   0.460
 1400SOL    HW210216   2.516   6.091   0.420
 1401SOL     OW10217   2.257   5.924   0.875
 1401SOL    HW110218   2.308   5.874   0.804
 1401SOL    HW210219   2.307   6.007   0.899
 1402SOL     OW10220   5.039   4.359   0.047
 1402SOL    HW110221   5.093   4.355   0.131
 1402SOL    HW210222   5.100   4.366   6.565
 1403SOL     OW10223   6.334   1.920   1.132
 1403SOL    HW110224   6.361   2.016   1.126
 1403SOL    HW210225   6.414   1.863   1.111
 1404SOL     OW10226   0.269   2.393   0.200
 1404SOL    HW110227   0.357   2.430   0.169
 1404SOL    HW210228   0.274   2.375   0.298
 1405SOL     OW10229   0.694   4.414   0.777
 1405SOL    HW110230   0.679   4.501   0.824
 1405SOL    HW210231   0.760   4.427   0.703
 1406SOL     OW10232   2.738   5.037   4.760
 1406SOL    HW110233   2.734   4.938   4.750
 1406SOL    HW210234   2.813   5.061   4.821
 1407SOL     OW10235   1.077   2.520   5.822
 1407SOL    HW110236   1.027   2.451   5.769
 1407SOL    HW210237   1.013   2.587   5.860
 1408SOL     OW10238   1.781   1.763   0.279
 1408SOL    HW110239   1.832   1.826   0.219
 1408SOL    HW210240   1.843   1.692   0.313
 1409SOL     OW10241   0.660   1.864   5.169
 1409SOL    HW110242   0.578   1.893   5.118
 1409SOL    HW210243   0.690   1.774   5.136
 1410SOL     OW10244   0.389   6.324   0.987
 1410SOL    HW110245   0.442   6.332   1.071
 1410SOL    HW210246   0.451   6.315   0.909
 1411SOL     OW10247   0.105   6.413   0.136
 1411SOL    HW110248   0.018   6.383   0.098
 1411SOL    HW210249   0.104   0.069   0.147
 1412SOL     OW10250   3.142   5.522   1.311
 1412SOL    HW110251   3.228   5.477   1.332
 1412SOL    HW210252   3.138   5.610   1.358
 1413SOL     OW10253   1.304   4.147   5.777
 1413SOL    HW110254   1.375   4.190   5.721
 1413SOL    HW210255   1.231   4.214   5.794
 1414SOL     OW10256   1.358   0.211   5.965
 1414SOL    HW110257   1.375   0.118   5.997
 1414SOL    HW210258   1.337   0.209   5.867
 1415SOL     OW10259   5.143   2.147   6.209
 1415SOL    HW110260   5.133   2.049   6.193
 1415SOL    HW210261   5.171   2.192   6.124
 1416SOL     OW10262   3.626   2.611   5.234
 1416SOL    HW110263   3.539   2.654   5.210
 1416SOL    HW210264   3.701   2.673   5.209
 1417SOL     OW10265   5.318   4.274   0.817
 1417SOL    HW110266   5.366   4.221   0.747
 1417SOL    HW210267   5.334   4.232   0.907
 1418SOL     OW10268   6.223   5.944   5.997
 1418SOL    HW110269   6.207   5.987   5.908
 1418SOL    HW210270   6.321   5.947   6.019
 1419SOL     OW10271   4.356   0.611   6.409
 1419SOL    HW110272   4.412   0.567   6.480
 1419SOL    HW210273   4.293   0.675   6.452
 1420SOL     OW10274   4.769   0.395   1.156
 1420SOL    HW110275   4.679   0.359   1.180
 1420SOL    HW210276   4.829   0.319   1.130
 1421SOL     OW10277   1.191   1.952   1.612
 1421SOL    HW110278   1.124   2.024   1.597
 1421SOL    HW210279   1.178   1.912   1.703
 1422SOL     OW10280   6.247   2.087   0.636
 1422SOL    HW110281   6.273   2.159   0.701
 1422SOL    HW210282   6.317   2.016   0.636
 1423SOL     OW10283   1.663   5.063   5.685
 1423SOL    HW110284   1.616   5.053   5.597
 1423SOL    HW210285   1.675   5.160   5.705
 1424SOL     OW10286   4.735   0.298   0.439
 1424SOL    HW110287   4.659   0.319   0.378
 1424SOL    HW210288   4.758   0.201   0.431
 1425SOL     OW10289   3.595   6.067   5.418
 1425SOL    HW110290   3.595   5.968   5.429
 1425SOL    HW210291   3.598   6.111   5.507
 1426SOL     OW10292   5.614   4.677   6.551
 1426SOL    HW110293   5.621   4.717   0.046
 1426SOL    HW210294   5.705   4.675   6.509
 1427SOL     OW10295   5.523   2.856   0.786
 1427SOL    HW110296   5.433   2.889   0.757
 1427SOL    HW210297   5.543   2.770   0.739
 1428SOL     OW10298   3.161   2.638   5.731
 1428SOL    HW110299   3.124   2.657   5.822
 1428SOL    HW210300   3.184   2.541   5.725
 1429SOL     OW10301   0.389   6.121   5.400
 1429SOL    HW110302   0.294   6.110   5.430
 1429SOL    HW210303   0.422   6.211   5.428
 1430SOL     OW10304   1.269   2.582   1.031
 1430SOL    HW110305   1.265   2.553   0.936
 1430SOL    HW210306   1.362   2.567   1.067
 1431SOL     OW10307   3.808   0.943   0.588
 1431SOL    HW110308   3.852   0.873   0.644
 1431SOL    HW210309   3.826   1.033   0.626
 1432SOL     OW10310   0.408   3.510   4.834
 1432SOL    HW110311   0.374   3.585   4.893
 1432SOL    HW210312   0.345   3.432   4.841
 1433SOL     OW10313   6.097   2.240   1.444
 1433SOL    HW110314   6.074   2.285   1.531
 1433SOL    HW210315   6.171   2.290   1.400
 1434SOL     OW10316   4.761   0.800   6.465
 1434SOL    HW110317   4.670   0.832   6.438
 1434SOL    HW210318   4.773   0.813   6.563
 1435SOL     OW10319   2.142   0.709   0.665
 1435SOL    HW110320   2.111   0.656   0.587
 1435SOL    HW210321   2.144   0.806   0.642
 1436SOL     OW10322   0.904   4.180   6.357
 1436SOL    HW110323   1.000   4.164   6.335
 1436SOL    HW210324   0.854   4.094   6.349
 1437SOL     OW10325   0.228   4.928   6.380
 1437SOL    HW110326   0.176   4.949   6.463
 1437SOL    HW210327   0.272   5.011   6.345
 1438SOL     OW10328   0.955   1.345   6.570
 1438SOL    HW110329   0.902   1.325   6.487
 1438SOL    HW210330   0.899   1.325   0.054
 1439SOL     OW10331   0.809   4.358   6.560
 1439SOL    HW110332   0.830   4.323   6.469
 1439SOL    HW210333   0.836   4.292   0.032
 1440SOL     OW10334   5.636   3.996   0.481
 1440SOL    HW110335   5.635   3.900   0.510
 1440SOL    HW210336   5.729   4.033   0.488
 1441SOL     OW10337   3.642   1.138   5.651
 1441SOL    HW110338   3.610   1.232   5.661
 1441SOL    HW210339   3.737   1.137   5.623
 1442SOL     OW10340   1.109   5.242   0.262
 1442SOL    HW110341   1.129   5.339   0.275
 1442SOL    HW210342   1.190   5.188   0.285
 1443SOL     OW10343   2.207   4.300   0.323
 1443SOL    HW110344   2.257   4.322   0.239
 1443SOL    HW210345   2.143   4.373   0.344
 1444SOL     OW10346   2.607   1.563   1.182
 1444SOL    HW110347   2.591   1.643   1.239
 1444SOL    HW210348   2.525   1.506   1.179
 1445SOL     OW10349   5.549   5.697   0.321
 1445SOL    HW110350   5.492   5.778   0.326
 1445SOL    HW210351   5.645   5.722   0.337
 1446SOL     OW10352   3.522   0.664   0.025
 1446SOL    HW110353   3.472   0.705   6.545
 1446SOL    HW210354   3.513   0.723   0.105
 1447SOL     OW10355   6.214   4.690   5.577
 1447SOL    HW110356   6.290   4.626   5.566
 1447SOL    HW210357   6.196   4.735   5.490
 1448SOL     OW10358   3.210   4.233   5.928
 1448SOL    HW110359   3.135   4.220   5.993
 1448SOL    HW210360   3.260   4.317   5.951
 1449SOL     OW10361   1.066   1.613   1.325
 1449SOL    HW110362   0.974   1.615   1.286
 1449SOL    HW210363   1.064   1.565   1.413
 1450SOL     OW10364   5.421   5.111   2.208
 1450SOL    HW110365   5.483   5.051   2.259
 1450SOL    HW210366   5.333   5.065   2.194
 1451SOL     OW10367   1.046   1.776   5.828
 1451SOL    HW110368   0.955   1.740   5.808
 1451SOL    HW210369   1.041   1.876   5.835
 1452SOL     OW10370   5.085   5.170   1.104
 1452SOL    HW110371   5.022   5.245   1.088
 1452SOL    HW210372   5.178   5.207   1.116
 1453SOL     OW10373   5.783   2.758   5.268
 1453SOL    HW110374   5.710   2.709   5.221
 1453SOL    HW210375   5.872   2.732   5.231
 1454SOL     OW10376   1.945   5.291   6.443
 1454SOL    HW110377   1.886   5.211   6.453
 1454SOL    HW210378   2.033   5.273   6.486
 1455SOL     OW10379   3.071   4.650   0.775
 1455SOL    HW110380   3.047   4.621   0.868
 1455SOL    HW210381   3.004   4.614   0.710
 1456SOL     OW10382   5.741   1.539   0.898
 1456SOL    HW110383   5.745   1.604   0.822
 1456SOL    HW210384   5.776   1.583   0.981
 1457SOL     OW10385   2.522   5.896   5.056
 1457SOL    HW110386   2.453   5.958   5.094
 1457SOL    HW210387   2.503   5.882   4.958
 1458SOL     OW10388   5.866   4.598   1.595
 1458SOL    HW110389   5.947   4.650   1.623
 1458SOL    HW210390   5.875   4.504   1.629
 1459SOL     OW10391   3.761   1.196   4.669
 1459SOL    HW110392   3.668   1.174   4.640
 1459SOL    HW210393   3.824   1.182   4.592
 1460SOL     OW10394   3.608   5.418   5.716
 1460SOL    HW110395   3.555   5.397   5.634
 1460SOL    HW210396   3.637   5.332   5.760
 1461SOL     OW10397   5.687   3.223   6.497
 1461SOL    HW110398   5.770   3.195   6.544
 1461SOL    HW210399   5.687   3.322   6.483
 1462SOL     OW10400   3.850   5.873   4.738
 1462SOL    HW110401   3.754   5.890   4.717
 1462SOL    HW210402   3.898   5.847   4.654
 1463SOL     OW10403   4.229   3.185   0.217
 1463SOL    HW110404   4.188   3.225   0.135
 1463SOL    HW210405   4.179   3.219   0.297
 1464SOL     OW10406   0.171   4.614   6.236
 1464SOL    HW110407   0.121   4.571   6.160
 1464SOL    HW210408   0.187   4.547   6.308
 1465SOL     OW10409   0.801   2.014   0.888
 1465SOL    HW110410   0.728   1.977   0.945
 1465SOL    HW210411   0.879   1.952   0.889
 1466SOL     OW10412   5.460   5.164   0.640
 1466SOL    HW110413   5.468   5.262   0.622
 1466SOL    HW210414   5.369   5.144   0.677
 1467SOL     OW10415   2.074   6.143   5.037
 1467SOL    HW110416   2.032   6.224   5.077
 1467SOL    HW210417   2.011   6.101   4.972
 1468SOL     OW10418   6.199   0.689   0.462
 1468SOL    HW110419   6.214   0.763   0.396
 1468SOL    HW210420   6.101   0.672   0.472
 1469SOL     OW10421   0.446   4.771   0.224
 1469SOL    HW110422   0.477   4.863   0.245
 1469SOL    HW210423   0.346   4.769   0.222
 1470SOL     OW10424   1.844   1.408   6.102
 1470SOL    HW110425   1.744   1.412   6.104
 1470SOL    HW210426   1.880   1.501   6.107
 1471SOL     OW10427   1.565   5.126   0.064
 1471SOL    HW110428   1.645   5.169   0.104
 1471SOL    HW210429   1.497   5.108   0.136
 1472SOL     OW10430   4.406   0.600   0.232
 1472SOL    HW110431   4.359   0.529   0.284
 1472SOL    HW210432   4.484   0.634   0.285
 1473SOL     OW10433   3.459   2.726   5.673
 1473SOL    HW110434   3.392   2.687   5.736
 1473SOL    HW210435   3.445   2.688   5.581
 1474SOL     OW10436   4.306   2.473   6.191
 1474SOL    HW110437   4.255   2.393   6.161
 1474SOL    HW210438   4.404   2.457   6.179
 1475SOL     OW10439   3.399   0.447   5.575
 1475SOL    HW110440   3.418   0.457   5.477
 1475SOL    HW210441   3.463   0.502   5.628
 1476SOL     OW10442   0.675   3.811   0.793
 1476SOL    HW110443   0.763   3.781   0.831
 1476SOL    HW210444   0.634   3.736   0.741
 1477SOL     OW10445   3.263   4.416   0.288
 1477SOL    HW110446   3.264   4.316   0.289
 1477SOL    HW210447   3.355   4.450   0.311
 1478SOL     OW10448   0.725   0.420   0.427
 1478SOL    HW110449   0.762   0.464   0.509
 1478SOL    HW210450   0.705   0.490   0.358
 1479SOL     OW10451   3.603   1.306   6.077
 1479SOL    HW110452   3.593   1.403   6.100
 1479SOL    HW210453   3.533   1.280   6.011
 1480SOL     OW10454   0.384   3.516   1.431
 1480SOL    HW110455   0.444   3.439   1.451
 1480SOL    HW210456   0.319   3.490   1.360
 1481SOL     OW10457   0.893   3.657   0.187
 1481SOL    HW110458   0.893   3.731   0.120
 1481SOL    HW210459   0.868   3.694   0.277
 1482SOL     OW10460   0.812   3.360   1.263
 1482SOL    HW110461   0.791   3.449   1.304
 1482SOL    HW210462   0.908   3.338   1.279
 1483SOL     OW10463   3.584   0.514   5.825
 1483SOL    HW110464   3.673   0.526   5.783
 1483SOL    HW210465   3.595   0.471   5.915
 1484SOL     OW10466   1.498   6.213   5.407
 1484SOL    HW110467   1.432   6.168   5.347
 1484SOL    HW210468   1.576   6.245   5.352
 1485SOL     OW10469   1.295   5.155   6.188
 1485SOL    HW110470   1.213   5.099   6.202
 1485SOL    HW210471   1.279   5.247   6.225
 1486SOL     OW10472   0.555   3.988   6.577
 1486SOL    HW110473   0.632   3.967   6.516
 1486SOL    HW210474   0.569   3.944   0.069
 1487SOL     OW10475   4.662   3.032   1.083
 1487SOL    HW110476   4.684   2.958   1.018
 1487SOL    HW210477   4.698   3.009   1.173
 1488SOL     OW10478   4.420   1.597   5.845
 1488SOL    HW110479   4.382   1.689   5.848
 1488SOL    HW210480   4.453   1.571   5.936
 1489SOL     OW10481   0.117   0.832   0.493
 1489SOL    HW110482   0.186   0.882   0.545
 1489SOL    HW210483   0.033   0.825   0.547
 1490SOL     OW10484   3.052   6.189   1.531
 1490SOL    HW110485   3.089   6.199   1.623
 1490SOL    HW210486   3.029   6.093   1.514
 1491SOL     OW10487   4.508   5.404   0.114
 1491SOL    HW110488   4.607   5.417   0.103
 1491SOL    HW210489   4.491   5.346   0.194
 1492SOL     OW10490   5.602   5.745   6.211
 1492SOL    HW110491   5.696   5.761   6.180
 1492SOL    HW210492   5.600   5.739   6.311
 1493SOL     OW10493   0.507   5.640   0.224
 1493SOL    HW110494   0.550   5.562   0.271
 1493SOL    HW210495   0.452   5.607   0.148
 1494SOL     OW10496   3.133   6.033   4.836
 1494SOL    HW110497   3.101   6.083   4.917
 1494SOL    HW210498   3.230   6.011   4.846
 1495SOL     OW10499   0.868   6.306   5.945
 1495SOL    HW110500   0.953   6.253   5.948
 1495SOL    HW210501   0.808   6.278   6.020
 1496SOL     OW10502   4.850   3.545   0.295
 1496SOL    HW110503   4.930   3.523   0.239
 1496SOL    HW210504   4.787   3.601   0.242
 1497SOL     OW10505   5.661   1.958   6.184
 1497SOL    HW110506   5.727   1.893   6.149
 1497SOL    HW210507   5.568   1.924   6.168
 1498SOL     OW10508   0.829   3.334   5.143
 1498SOL    HW110509   0.768   3.358   5.067
 1498SOL    HW210510   0.899   3.405   5.152
 1499SOL     OW10511   0.714   5.643   5.997
 1499SOL    HW110512   0.730   5.619   6.092
 1499SOL    HW210513   0.655   5.574   5.954
 1500SOL     OW10514   3.588   5.049   6.131
 1500SOL    HW110515   3.566   5.121   6.065
 1500SOL    HW210516   3.660   5.081   6.192
 1501SOL     OW10517   2.852   2.146   5.681
 1501SOL    HW110518   2.770   2.182   5.638
 1501SOL    HW210519   2.890   2.073   5.624
 1502SOL     OW10520   2.067   1.163   1.468
 1502SOL    HW110521   2.034   1.244   1.421
 1502SOL    HW210522   2.160   1.143   1.439
 1503SOL     OW10523   1.719   3.962   0.773
 1503SOL    HW110524   1.764   3.878   0.802
 1503SOL    HW210525   1.706   3.960   0.674
 1504SOL     OW10526   0.437   2.093   0.515
 1504SOL    HW110527   0.497   2.077   0.436
 1504SOL    HW210528   0.493   2.113   0.595
 1505SOL     OW10529   2.214   0.907   6.439
 1505SOL    HW110530   2.124   0.862   6.432
 1505SOL    HW210531   2.205   1.003   6.411
 1506SOL     OW10532   5.876   2.795   0.045
 1506SOL    HW110533   5.890   2.838   6.553
 1506SOL    HW210534   5.777   2.788   0.063
 1507SOL     OW10535   3.189   0.820   5.745
 1507SOL    HW110536   3.252   0.841   5.670
 1507SOL    HW210537   3.096   0.842   5.717
 1508SOL     OW10538   3.611   1.700   5.221
 1508SOL    HW110539   3.663   1.662   5.145
 1508SOL    HW210540   3.674   1.739   5.289
 1509SOL     OW10541   3.127   1.278   6.058
 1509SOL    HW110542   3.051   1.292   6.122
 1509SOL    HW210543   3.122   1.347   5.985
 1510SOL     OW10544   2.319   6.326   1.657
 1510SOL    HW110545   2.415   6.299   1.657
 1510SOL    HW210546   2.311   6.416   1.700
 1511SOL     OW10547   1.596   3.778   1.035
 1511SOL    HW110548   1.506   3.822   1.030
 1511SOL    HW210549   1.593   3.706   1.105
 1512SOL     OW10550   2.259   5.070   0.340
 1512SOL    HW110551   2.251   5.134   0.265
 1512SOL    HW210552   2.281   5.120   0.424
 1513SOL     OW10553   0.058   3.829   5.504
 1513SOL    HW110554   0.009   3.782   5.431
 1513SOL    HW210555   0.126   3.767   5.544
 1514SOL     OW10556   0.314   3.685   5.041
 1514SOL    HW110557   0.320   3.637   5.129
 1514SOL    HW210558   0.219   3.688   5.011
 1515SOL     OW10559   1.648   3.737   0.213
 1515SOL    HW110560   1.650   3.824   0.165
 1515SOL    HW210561   1.702   3.670   0.162
 1516SOL     OW10562   0.702   5.856   1.062
 1516SOL    HW110563   0.604   5.856   1.044
 1516SOL    HW210564   0.752   5.854   0.975
 1517SOL     OW10565   3.525   2.507   4.938
 1517SOL    HW110566   3.592   2.574   4.970
 1517SOL    HW210567   3.502   2.445   5.013
 1518SOL     OW10568   1.635   0.154   0.275
 1518SOL    HW110569   1.593   0.230   0.226
 1518SOL    HW210570   1.569   0.115   0.339
 1519SOL     OW10571   6.187   3.240   5.345
 1519SOL    HW110572   6.107   3.298   5.332
 1519SOL    HW210573   6.219   3.206   5.256
 1520SOL     OW10574   3.989   2.382   0.075
 1520SOL    HW110575   4.028   2.320   0.142
 1520SOL    HW210576   4.010   2.349   6.579
 1521SOL     OW10577   0.503   5.570   6.369
 1521SOL    HW110578   0.589   5.621   6.364
 1521SOL    HW210579   0.511   5.486   6.316
 1522SOL     OW10580   4.592   1.187   6.352
 1522SOL    HW110581   4.631   1.125   6.283
 1522SOL    HW210582   4.495   1.168   6.362
 1523SOL     OW10583   1.021   0.909   0.357
 1523SOL    HW110584   1.008   0.884   0.261
 1523SOL    HW210585   1.077   0.839   0.403
 1524SOL     OW10586   2.183   4.569   0.617
 1524SOL    HW110587   2.218   4.477   0.630
 1524SOL    HW210588   2.128   4.573   0.534
 1525SOL     OW10589   6.416   2.567   1.949
 1525SOL    HW110590   0.093   2.596   1.958
 1525SOL    HW210591   6.404   2.480   1.998
 1526SOL     OW10592   5.844   4.782   1.232
 1526SOL    HW110593   5.809   4.700   1.277
 1526SOL    HW210594   5.937   4.801   1.265
 1527SOL     OW10595   4.138   6.074   0.515
 1527SOL    HW110596   4.076   6.152   0.516
 1527SOL    HW210597   4.189   6.071   0.602
 1528SOL     OW10598   2.578   4.238   0.195
 1528SOL    HW110599   2.516   4.196   0.261
 1528SOL    HW210600   2.584   4.180   0.114
 1529SOL     OW10601   0.844   1.494   0.247
 1529SOL    HW110602   0.813   1.400   0.245
 1529SOL    HW210603   0.807   1.541   0.327
 1530SOL     OW10604   1.518   3.241   6.461
 1530SOL    HW110605   1.453   3.187   6.514
 1530SOL    HW210606   1.521   3.334   6.498
 1531SOL     OW10607   0.019   0.482   0.289
 1531SOL    HW110608   6.397   0.544   0.221
 1531SOL    HW210609   6.366   0.449   0.351
 1532SOL     OW10610   1.347   6.289   5.681
 1532SOL    HW110611   1.261   6.246   5.656
 1532SOL    HW210612   1.423   6.244   5.635
 1533SOL     OW10613   0.491   2.491   1.695
 1533SOL    HW110614   0.488   2.573   1.638
 1533SOL    HW210615   0.443   2.509   1.781
 1534SOL     OW10616   5.050   3.002   6.368
 1534SOL    HW110617   5.117   3.075   6.354
 1534SOL    HW210618   5.003   2.983   6.282
 1535SOL     OW10619   1.986   4.018   1.025
 1535SOL    HW110620   1.975   4.081   1.102
 1535SOL    HW210621   1.929   3.937   1.040
 1536SOL     OW10622   2.713   2.745   1.048
 1536SOL    HW110623   2.742   2.738   0.953
 1536SOL    HW210624   2.754   2.826   1.090
 1537SOL     OW10625   6.148   0.939   5.576
 1537SOL    HW110626   6.194   0.939   5.488
 1537SOL    HW210627   6.182   1.015   5.631
 1538SOL     OW10628   2.058   1.971   5.023
 1538SOL    HW110629   2.111   1.927   4.952
 1538SOL    HW210630   2.115   1.985   5.104
 1539SOL     OW10631   2.180   2.938   0.248
 1539SOL    HW110632   2.089   2.958   0.209
 1539SOL    HW210633   2.248   2.997   0.205
 1540SOL     OW10634   4.464   2.132   0.649
 1540SOL    HW110635   4.371   2.168   0.648
 1540SOL    HW210636   4.499   2.133   0.743
 1541SOL     OW10637   3.764   1.840   5.398
 1541SOL    HW110638   3.701   1.913   5.423
 1541SOL    HW210639   3.857   1.877   5.389
 1542SOL     OW10640   1.044   0.187   5.997
 1542SOL    HW110641   1.114   0.258   5.989
 1542SOL    HW210642   1.041   0.133   5.913
 1543SOL     OW10643   1.061   0.607   0.213
 1543SOL    HW110644   1.032   0.520   0.253
 1543SOL    HW210645   1.052   0.603   0.114
 1544SOL     OW10646   1.373   1.634   0.558
 1544SOL    HW110647   1.353   1.562   0.492
 1544SOL    HW210648   1.470   1.656   0.555
 1545SOL     OW10649   4.152   0.426   5.464
 1545SOL    HW110650   4.074   0.384   5.511
 1545SOL    HW210651   4.147   0.525   5.475
 1546SOL     OW10652   0.171   5.766   4.967
 1546SOL    HW110653   0.253   5.761   5.024
 1546SOL    HW210654   0.153   5.862   4.943
 1547SOL     OW10655   0.296   6.089   1.341
 1547SOL    HW110656   0.395   6.102   1.332
 1547SOL    HW210657   0.272   6.080   1.437
 1548SOL     OW10658   4.783   6.305   4.780
 1548SOL    HW110659   4.770   6.211   4.751
 1548SOL    HW210660   4.697   6.341   4.817
 1549SOL     OW10661   1.484   2.016   6.350
 1549SOL    HW110662   1.390   2.005   6.317
 1549SOL    HW210663   1.503   1.948   6.421
 1550SOL     OW10664   1.006   3.907   0.044
 1550SOL    HW110665   1.077   3.836   0.039
 1550SOL    HW210666   0.942   3.895   6.565
 1551SOL     OW10667   3.723   5.682   0.976
 1551SOL    HW110668   3.723   5.649   1.071
 1551SOL    HW210669   3.763   5.612   0.917
 1552SOL     OW10670   5.954   0.079   6.043
 1552SOL    HW110671   6.001   0.150   5.990
 1552SOL    HW210672   5.894   0.122   6.110
 1553SOL     OW10673   2.039   5.045   5.275
 1553SOL    HW110674   1.940   5.056   5.275
 1553SOL    HW210675   2.068   5.004   5.188
 1554SOL     OW10676   3.325   1.493   0.855
 1554SOL    HW110677   3.248   1.453   0.804
 1554SOL    HW210678   3.334   1.448   0.944
 1555SOL     OW10679   4.558   6.160   5.830
 1555SOL    HW110680   4.594   6.250   5.805
 1555SOL    HW210681   4.492   6.130   5.762
 1556SOL     OW10682   3.557   4.103   5.226
 1556SOL    HW110683   3.523   4.032   5.163
 1556SOL    HW210684   3.650   4.128   5.200
 1557SOL     OW10685   3.456   5.377   5.484
 1557SOL    HW110686   3.495   5.373   5.392
 1557SOL    HW210687   3.415   5.467   5.498
 1558SOL     OW10688   1.876   1.884   4.849
 1558SOL    HW110689   1.941   1.931   4.908
 1558SOL    HW210690   1.783   1.903   4.881
 1559SOL     OW10691   1.578   0.344   0.078
 1559SOL    HW110692   1.671   0.351   0.042
 1559SOL    HW210693   1.513   0.331   0.003
 1560SOL     OW10694   0.809   6.164   5.367
 1560SOL    HW110695   0.782   6.114   5.285
 1560SOL    HW210696   0.844   6.100   5.435
 1561SOL     OW10697   1.453   0.053   0.454
 1561SOL    HW110698   1.358   0.037   0.481
 1561SOL    HW210699   1.498   0.109   0.524
 1562SOL     OW10700   4.032   5.299   5.662
 1562SOL    HW110701   4.042   5.255   5.751
 1562SOL    HW210702   4.092   5.379   5.657
 1563SOL     OW10703   4.901   6.288   6.551
 1563SOL    HW110704   4.880   6.365   6.491
 1563SOL    HW210705   4.973   6.232   6.509
 1564SOL     OW10706   2.588   2.434   0.547
 1564SOL    HW110707   2.515   2.381   0.504
 1564SOL    HW210708   2.607   2.515   0.492
 1565SOL     OW10709   1.432   0.774   6.048
 1565SOL    HW110710   1.410   0.680   6.023
 1565SOL    HW210711   1.509   0.806   5.993
 1566SOL     OW10712   0.296   0.517   6.582
 1566SOL    HW110713   0.197   0.500   6.581
 1566SOL    HW210714   0.336   0.486   6.495
 1567SOL     OW10715   1.608   1.287   5.930
 1567SOL    HW110716   1.614   1.213   5.862
 1567SOL    HW210717   1.614   1.375   5.883
 1568SOL     OW10718   2.531   5.437   5.308
 1568SOL    HW110719   2.570   5.522   5.345
 1568SOL    HW210720   2.602   5.386   5.260
 1569SOL     OW10721   3.352   1.549   5.512
 1569SOL    HW110722   3.285   1.569   5.441
 1569SOL    HW210723   3.352   1.451   5.532
 1570SOL     OW10724   0.757   6.024   0.494
 1570SOL    HW110725   0.808   6.045   0.411
 1570SOL    HW210726   0.678   5.968   0.472
 1571SOL     OW10727   2.949   4.225   6.042
 1571SOL    HW110728   2.889   4.147   6.025
 1571SOL    HW210729   2.900   4.310   6.020
 1572SOL     OW10730   6.021   1.968   6.398
 1572SOL    HW110731   6.041   2.063   6.421
 1572SOL    HW210732   6.082   1.938   6.325
 1573SOL     OW10733   5.278   1.217   6.032
 1573SOL    HW110734   5.266   1.239   5.935
 1573SOL    HW210735   5.317   1.126   6.041
 1574SOL     OW10736   1.378   2.439   0.285
 1574SOL    HW110737   1.463   2.406   0.245
 1574SOL    HW210738   1.372   2.410   0.380
 1575SOL     OW10739   5.028   4.778   1.539
 1575SOL    HW110740   4.994   4.722   1.615
 1575SOL    HW210741   5.092   4.846   1.575
 1576SOL     OW10742   3.840   5.557   5.698
 1576SOL    HW110743   3.761   5.500   5.718
 1576SOL    HW210744   3.826   5.603   5.610
 1577SOL     OW10745   0.947   0.299   6.227
 1577SOL    HW110746   0.967   0.263   6.136
 1577SOL    HW210747   1.029   0.295   6.284
 1578SOL     OW10748   6.067   5.394   0.739
 1578SOL    HW110749   5.985   5.423   0.789
 1578SOL    HW210750   6.068   5.439   0.650
 1579SOL     OW10751   3.445   1.577   0.626
 1579SOL    HW110752   3.419   1.560   0.721
 1579SOL    HW210753   3.392   1.518   0.566
 1580SOL     OW10754   3.295   6.387   0.430
 1580SOL    HW110755   3.394   6.384   0.442
 1580SOL    HW210756   3.274   6.398   0.333
 1581SOL     OW10757   3.866   2.997   1.237
 1581SOL    HW110758   3.949   2.950   1.265
 1581SOL    HW210759   3.804   2.931   1.194
 1582SOL     OW10760   3.338   6.187   6.412
 1582SOL    HW110761   3.416   6.128   6.433
 1582SOL    HW210762   3.253   6.138   6.431
 1583SOL     OW10763   2.536   3.386   1.782
 1583SOL    HW110764   2.600   3.331   1.835
 1583SOL    HW210765   2.456   3.330   1.758
 1584SOL     OW10766   2.880   5.431   0.388
 1584SOL    HW110767   2.939   5.484   0.328
 1584SOL    HW210768   2.800   5.486   0.413
 1585SOL     OW10769   2.918   2.528   0.003
 1585SOL    HW110770   3.009   2.562   6.578
 1585SOL    HW210771   2.849   2.595   6.572
 1586SOL     OW10772   2.963   0.881   0.035
 1586SOL    HW110773   3.022   0.835   6.565
 1586SOL    HW210774   2.929   0.814   0.101
 1587SOL     OW10775   1.869   4.746   5.096
 1587SOL    HW110776   1.951   4.798   5.072
 1587SOL    HW210777   1.788   4.798   5.072
 1588SOL     OW10778   0.037   2.315   5.476
 1588SOL    HW110779   6.402   2.397   5.458
 1588SOL    HW210780   0.035   2.255   5.396
 1589SOL     OW10781   5.414   2.670   1.125
 1589SOL    HW110782   5.328   2.668   1.175
 1589SOL    HW210783   5.413   2.600   1.053
 1590SOL     OW10784   5.711   4.108   0.813
 1590SOL    HW110785   5.719   4.034   0.747
 1590SOL    HW210786   5.705   4.071   0.906
 1591SOL     OW10787   2.402   5.757   4.293
 1591SOL    HW110788   2.314   5.714   4.314
 1591SOL    HW210789   2.387   5.854   4.273
 1592SOL     OW10790   2.589   5.600   6.587
 1592SOL    HW110791   2.510   5.555   6.544
 1592SOL    HW210792   2.645   5.530   0.035
 1593SOL     OW10793   2.952   0.248   0.114
 1593SOL    HW110794   2.856   0.220   0.102
 1593SOL    HW210795   2.997   0.250   0.025
 1594SOL     OW10796   4.394   2.067   0.059
 1594SOL    HW110797   4.371   2.014   0.141
 1594SOL    HW210798   4.472   2.126   0.079
 1595SOL     OW10799   3.842   5.965   0.032
 1595SOL    HW110800   3.918   6.022   0.065
 1595SOL    HW210801   3.775   6.022   6.582
 1596SOL     OW10802   1.913   0.931   1.003
 1596SOL    HW110803   1.984   0.948   1.071
 1596SOL    HW210804   1.926   0.993   0.925
 1597SOL     OW10805   4.311   2.671   5.545
 1597SOL    HW110806   4.211   2.677   5.544
 1597SOL    HW210807   4.348   2.739   5.608
 1598SOL     OW10808   0.993   1.659   0.622
 1598SOL    HW110809   1.042   1.593   0.564
 1598SOL    HW210810   0.939   1.610   0.690
 1599SOL     OW10811   4.634   5.590   0.823
 1599SOL    HW110812   4.691   5.604   0.904
 1599SOL    HW210813   4.539   5.581   0.851
 1600SOL     OW10814   1.508   2.404   5.316
 1600SOL    HW110815   1.606   2.401   5.336
 1600SOL    HW210816   1.480   2.500   5.307
 1601SOL     OW10817   3.112   0.364   6.430
 1601SOL    HW110818   3.153   0.336   6.518
 1601SOL    HW210819   3.179   0.418   6.379
 1602SOL     OW10820   3.531   0.821   6.223
 1602SOL    HW110821   3.590   0.892   6.261
 1602SOL    HW210822   3.523   0.834   6.124
 1603SOL     OW10823   2.958   5.802   4.869
 1603SOL    HW110824   2.880   5.845   4.823
 1603SOL    HW210825   3.035   5.867   4.871
 1604SOL     OW10826   3.574   1.370   1.087
 1604SOL    HW110827   3.594   1.455   1.136
 1604SOL    HW210828   3.476   1.352   1.089
 1605SOL     OW10829   6.081   0.052   0.796
 1605SOL    HW110830   6.124   0.021   0.711
 1605SOL    HW210831   6.032   6.419   0.838
 1606SOL     OW10832   5.780   5.697   5.507
 1606SOL    HW110833   5.846   5.623   5.495
 1606SOL    HW210834   5.749   5.730   5.418
 1607SOL     OW10835   3.823   3.638   0.538
 1607SOL    HW110836   3.883   3.568   0.578
 1607SOL    HW210837   3.856   3.729   0.564
 1608SOL     OW10838   0.921   5.655   5.438
 1608SOL    HW110839   1.005   5.695   5.475
 1608SOL    HW210840   0.863   5.728   5.402
 1609SOL     OW10841   2.751   1.138   5.993
 1609SOL    HW110842   2.824   1.121   5.927
 1609SOL    HW210843   2.744   1.236   6.010
 1610SOL     OW10844   4.362   3.622   5.423
 1610SOL    HW110845   4.349   3.535   5.377
 1610SOL    HW210846   4.274   3.667   5.437
 1611SOL     OW10847   3.982   1.505   0.146
 1611SOL    HW110848   3.909   1.502   0.077
 1611SOL    HW210849   3.945   1.538   0.232
 1612SOL     OW10850   1.746   3.167   0.496
 1612SOL    HW110851   1.793   3.194   0.581
 1612SOL    HW210852   1.700   3.246   0.457
 1613SOL     OW10853   4.808   4.349   6.054
 1613SOL    HW110854   4.857   4.280   6.106
 1613SOL    HW210855   4.820   4.332   5.956
 1614SOL     OW10856   4.978   1.264   6.040
 1614SOL    HW110857   4.935   1.222   5.960
 1614SOL    HW210858   5.050   1.203   6.075
 1615SOL     OW10859   1.529   0.857   6.497
 1615SOL    HW110860   1.466   0.928   6.466
 1615SOL    HW210861   1.506   0.830   6.590
 1616SOL     OW10862   2.508   1.060   5.612
 1616SOL    HW110863   2.424   1.014   5.581
 1616SOL    HW210864   2.535   1.023   5.701
 1617SOL     OW10865   0.874   5.411   4.953
 1617SOL    HW110866   0.973   5.409   4.970
 1617SOL    HW210867   0.852   5.349   4.878
 1618SOL     OW10868   4.729   4.520   1.627
 1618SOL    HW110869   4.807   4.561   1.674
 1618SOL    HW210870   4.645   4.569   1.654
 1619SOL     OW10871   6.164   2.449   0.291
 1619SOL    HW110872   6.241   2.443   0.226
 1619SOL    HW210873   6.080   2.469   0.240
 1620SOL     OW10874   4.812   6.387   5.482
 1620SOL    HW110875   4.823   6.364   5.579
 1620SOL    HW210876   4.715   6.392   5.460
 1621SOL     OW10877   1.094   4.923   0.973
 1621SOL    HW110878   1.185   4.912   0.933
 1621SOL    HW210879   1.027   4.876   0.916
 1622SOL     OW10880   0.930   4.246   1.683
 1622SOL    HW110881   1.017   4.293   1.699
 1622SOL    HW210882   0.856   4.313   1.679
 1623SOL     OW10883   2.527   4.522   5.895
 1623SOL    HW110884   2.449   4.461   5.882
 1623SOL    HW210885   2.517   4.602   5.836
 1624SOL     OW10886   5.254   4.675   0.523
 1624SOL    HW110887   5.257   4.592   0.579
 1624SOL    HW210888   5.202   4.746   0.570
 1625SOL     OW10889   3.052   4.320   5.717
 1625SOL    HW110890   3.091   4.297   5.806
 1625SOL    HW210891   3.125   4.346   5.654
 1626SOL     OW10892   6.322   4.630   6.493
 1626SOL    HW110893   6.345   4.721   6.456
 1626SOL    HW210894   6.231   4.604   6.463
 1627SOL     OW10895   5.365   1.735   6.385
 1627SOL    HW110896   5.395   1.742   6.290
 1627SOL    HW210897   5.270   1.703   6.388
 1628SOL     OW10898   0.018   4.535   5.512
 1628SOL    HW110899   0.032   4.448   5.558
 1628SOL    HW210900   0.020   4.521   5.413
 1629SOL     OW10901   3.441   5.614   6.411
 1629SOL    HW110902   3.461   5.623   6.508
 1629SOL    HW210903   3.505   5.670   6.358
 1630SOL     OW10904   2.791   6.175   5.128
 1630SOL    HW110905   2.886   6.173   5.099
 1630SOL    HW210906   2.780   6.119   5.211
 1631SOL     OW10907   2.414   1.655   0.810
 1631SOL    HW110908   2.369   1.569   0.787
 1631SOL    HW210909   2.511   1.649   0.787
 1632SOL     OW10910   2.671   0.376   6.008
 1632SOL    HW110911   2.756   0.409   6.049
 1632SOL    HW210912   2.657   0.421   5.920
 1633SOL     OW10913   2.263   3.772   6.426
 1633SOL    HW110914   2.216   3.830   6.492
 1633SOL    HW210915   2.276   3.823   6.340
 1634SOL     OW10916   4.002   1.285   6.265
 1634SOL    HW110917   3.974   1.341   6.187
 1634SOL    HW210918   3.990   1.188   6.243
 1635SOL     OW10919   0.055   6.075   1.520
 1635SOL    HW110920   0.009   5.991   1.546
 1635SOL    HW210921   0.102   6.114   1.600
 1636SOL     OW10922   0.981   2.129   4.801
 1636SOL    HW110923   1.078   2.146   4.781
 1636SOL    HW210924   0.947   2.057   4.741
 1637SOL     OW10925   6.381   3.687   0.420
 1637SOL    HW110926   6.321   3.629   0.475
 1637SOL    HW210927   6.373   3.782   0.450
 1638SOL     OW10928   4.947   4.058   5.744
 1638SOL    HW110929   4.953   4.034   5.648
 1638SOL    HW210930   4.876   4.002   5.788
 1639SOL     OW10931   0.993   4.095   5.925
 1639SOL    HW110932   1.024   4.018   5.868
 1639SOL    HW210933   0.928   4.061   5.994
 1640SOL     OW10934   1.283   1.394   5.980
 1640SOL    HW110935   1.339   1.372   6.060
 1640SOL    HW210936   1.284   1.318   5.916
 1641SOL     OW10937   5.325   5.585   4.896
 1641SOL    HW110938   5.424   5.572   4.897
 1641SOL    HW210939   5.295   5.608   4.804
 1642SOL     OW10940   6.060   0.557   5.412
 1642SOL    HW110941   6.066   0.490   5.338
 1642SOL    HW210942   5.981   0.536   5.469
 1643SOL     OW10943   3.022   5.076   6.413
 1643SOL    HW110944   3.055   5.055   6.505
 1643SOL    HW210945   2.955   5.007   6.385
 1644SOL     OW10946   0.502   5.489   1.100
 1644SOL    HW110947   0.419   5.433   1.095
 1644SOL    HW210948   0.575   5.437   1.146
 1645SOL     OW10949   2.916   1.391   6.203
 1645SOL    HW110950   2.900   1.297   6.233
 1645SOL    HW210951   2.837   1.447   6.229
 1646SOL     OW10952   4.246   4.332   5.787
 1646SOL    HW110953   4.179   4.334   5.713
 1646SOL    HW210954   4.240   4.245   5.836
 1647SOL     OW10955   2.359   4.643   0.126
 1647SOL    HW110956   2.401   4.559   0.161
 1647SOL    HW210957   2.374   4.717   0.191
 1648SOL     OW10958   5.566   0.112   0.514
 1648SOL    HW110959   5.511   0.194   0.505
 1648SOL    HW210960   5.550   0.071   0.604
 1649SOL     OW10961   5.087   6.115   0.439
 1649SOL    HW110962   5.058   6.071   0.523
 1649SOL    HW210963   5.099   6.047   0.367
 1650SOL     OW10964   1.571   0.071   5.566
 1650SOL    HW110965   1.536   0.115   5.484
 1650SOL    HW210966   1.498   0.019   5.611
 1651SOL     OW10967   5.189   3.817   6.307
 1651SOL    HW110968   5.258   3.889   6.294
 1651SOL    HW210969   5.165   3.811   6.404
 1652SOL     OW10970   2.522   1.718   5.852
 1652SOL    HW110971   2.502   1.707   5.949
 1652SOL    HW210972   2.618   1.696   5.835
 1653SOL     OW10973   6.204   1.663   4.825
 1653SOL    HW110974   6.262   1.707   4.894
 1653SOL    HW210975   6.255   1.653   4.740
 1654SOL     OW10976   1.502   3.547   6.248
 1654SOL    HW110977   1.506   3.456   6.207
 1654SOL    HW210978   1.509   3.539   6.348
 1655SOL     OW10979   2.379   5.726   0.209
 1655SOL    HW110980   2.475   5.699   0.197
 1655SOL    HW210981   2.320   5.652   0.177
 1656SOL     OW10982   6.252   3.212   0.183
 1656SOL    HW110983   6.235   3.189   0.087
 1656SOL    HW210984   6.178   3.175   0.239
 1657SOL     OW10985   4.475   5.481   5.120
 1657SOL    HW110986   4.392   5.538   5.117
 1657SOL    HW210987   4.501   5.456   5.027
 1658SOL     OW10988   3.768   3.830   6.565
 1658SOL    HW110989   3.850   3.887   6.576
 1658SOL    HW210990   3.689   3.888   6.547
 1659SOL     OW10991   1.975   1.723   1.230
 1659SOL    HW110992   1.948   1.799   1.288
 1659SOL    HW210993   1.940   1.638   1.267
 1660SOL     OW10994   4.645   2.606   1.123
 1660SOL    HW110995   4.745   2.605   1.122
 1660SOL    HW210996   4.612   2.562   1.206
 1661SOL     OW10997   4.208   4.572   0.536
 1661SOL    HW110998   4.288   4.601   0.484
 1661SOL    HW210999   4.238   4.519   0.615
 1662SOL     OW11000   0.347   1.299   6.219
 1662SOL    HW111001   0.305   1.226   6.274
 1662SOL    HW211002   0.444   1.281   6.209
 1663SOL     OW11003   4.985   0.236   0.611
 1663SOL    HW111004   4.888   0.253   0.593
 1663SOL    HW211005   5.017   0.296   0.684
 1664SOL     OW11006   1.825   1.265   0.649
 1664SOL    HW111007   1.881   1.221   0.719
 1664SOL    HW211008   1.800   1.357   0.680
 1665SOL     OW11009   2.128   6.436   5.908
 1665SOL    HW111010   2.222   0.017   5.885
 1665SOL    HW211011   2.090   6.379   5.835
 1666SOL     OW11012   3.772   1.575   5.825
 1666SOL    HW111013   3.772   1.632   5.742
 1666SOL    HW211014   3.818   1.624   5.899
 1667SOL     OW11015   3.470   4.710   0.777
 1667SOL    HW111016   3.492   4.628   0.829
 1667SOL    HW211017   3.504   4.791   0.825
 1668SOL     OW11018   0.898   1.074   1.826
 1668SOL    HW111019   0.910   1.030   1.737
 1668SOL    HW211020   0.902   1.005   1.898
 1669SOL     OW11021   5.701   2.744   6.266
 1669SOL    HW111022   5.766   2.669   6.279
 1669SOL    HW211023   5.615   2.722   6.311
 1670SOL     OW11024   2.749   5.182   5.883
 1670SOL    HW111025   2.679   5.146   5.821
 1670SOL    HW211026   2.751   5.126   5.966
 1671SOL     OW11027   2.738   0.269   0.723
 1671SOL    HW111028   2.718   0.185   0.774
 1671SOL    HW211029   2.667   0.283   0.654
 1672SOL     OW11030   0.456   0.204   0.151
 1672SOL    HW111031   0.440   0.301   0.167
 1672SOL    HW211032   0.492   0.162   0.234
 1673SOL     OW11033   6.275   1.723   6.442
 1673SOL    HW111034   6.337   1.799   6.424
 1673SOL    HW211035   6.327   1.639   6.456
 1674SOL     OW11036   4.093   2.553   5.938
 1674SOL    HW111037   4.020   2.484   5.945
 1674SOL    HW211038   4.181   2.507   5.926
 1675SOL     OW11039   0.834   4.097   0.386
 1675SOL    HW111040   0.862   4.193   0.397
 1675SOL    HW211041   0.802   4.061   0.474
 1676SOL     OW11042   4.323   2.089   5.318
 1676SOL    HW111043   4.331   2.126   5.226
 1676SOL    HW211044   4.354   1.994   5.319
 1677SOL     OW11045   4.453   4.160   0.262
 1677SOL    HW111046   4.470   4.062   0.251
 1677SOL    HW211047   4.390   4.191   0.191
 1678SOL     OW11048   1.908   1.029   6.417
 1678SOL    HW111049   1.840   1.102   6.418
 1678SOL    HW211050   1.969   1.040   6.495
 1679SOL     OW11051   2.242   4.667   1.283
 1679SOL    HW111052   2.212   4.760   1.304
 1679SOL    HW211053   2.266   4.660   1.185
 1680SOL     OW11054   5.890   4.314   1.640
 1680SOL    HW111055   5.910   4.291   1.545
 1680SOL    HW211056   5.843   4.236   1.683
 1681SOL     OW11057   5.664   0.841   5.225
 1681SOL    HW111058   5.634   0.831   5.130
 1681SOL    HW211059   5.696   0.934   5.241
 1682SOL     OW11060   1.604   3.498   0.788
 1682SOL    HW111061   1.519   3.454   0.759
 1682SOL    HW211062   1.643   3.549   0.711
 1683SOL     OW11063   5.585   0.794   0.286
 1683SOL    HW111064   5.540   0.880   0.260
 1683SOL    HW211065   5.613   0.799   0.382
 1684SOL     OW11066   3.256   5.812   0.705
 1684SOL    HW111067   3.301   5.853   0.626
 1684SOL    HW211068   3.325   5.783   0.771
 1685SOL     OW11069   1.123   1.478   4.899
 1685SOL    HW111070   1.202   1.439   4.851
 1685SOL    HW211071   1.098   1.565   4.857
 1686SOL     OW11072   1.942   3.300   6.198
 1686SOL    HW111073   1.919   3.356   6.277
 1686SOL    HW211074   1.884   3.325   6.120
 1687SOL     OW11075   1.054   1.181   0.405
 1687SOL    HW111076   0.975   1.192   0.466
 1687SOL    HW211077   1.060   1.086   0.376
 1688SOL     OW11078   3.753   3.224   1.133
 1688SOL    HW111079   3.802   3.155   1.186
 1688SOL    HW211080   3.655   3.204   1.135
 1689SOL     OW11081   2.948   4.485   0.983
 1689SOL    HW111082   2.937   4.430   1.066
 1689SOL    HW211083   2.884   4.562   0.984
 1690SOL     OW11084   1.619   4.829   6.139
 1690SOL    HW111085   1.585   4.898   6.075
 1690SOL    HW211086   1.708   4.796   6.109
 1691SOL     OW11087   6.104   1.105   5.991
 1691SOL    HW111088   6.087   1.024   6.047
 1691SOL    HW211089   6.200   1.104   5.960
 1692SOL     OW11090   1.955   0.467   6.252
 1692SOL    HW111091   1.894   0.541   6.225
 1692SOL    HW211092   2.011   0.496   6.330
 1693SOL     OW11093   3.044   1.216   6.468
 1693SOL    HW111094   2.968   1.175   6.417
 1693SOL    HW211095   3.127   1.210   6.413
 1694SOL     OW11096   3.890   5.859   6.311
 1694SOL    HW111097   3.929   5.950   6.301
 1694SOL    HW211098   3.860   5.846   6.405
 1695SOL     OW11099   3.565   2.202   0.471
 1695SOL    HW111100   3.634   2.234   0.535
 1695SOL    HW211101   3.479   2.187   0.520
 1696SOL     OW11102   2.919   1.740   0.308
 1696SOL    HW111103   2.827   1.739   0.349
 1696SOL    HW211104   2.953   1.646   0.301
 1697SOL     OW11105   1.288   4.451   5.923
 1697SOL    HW111106   1.330   4.508   5.994
 1697SOL    HW211107   1.250   4.369   5.965
 1698SOL     OW11108   5.491   3.032   6.525
 1698SOL    HW111109   5.456   3.000   6.437
 1698SOL    HW211110   5.561   3.102   6.510
 1699SOL     OW11111   2.422   5.841   1.116
 1699SOL    HW111112   2.388   5.893   1.038
 1699SOL    HW211113   2.392   5.884   1.201
 1700SOL     OW11114   3.931   0.293   5.592
 1700SOL    HW111115   3.874   0.308   5.512
 1700SOL    HW211116   3.984   0.209   5.581
 1701SOL     OW11117   6.075   3.932   0.354
 1701SOL    HW111118   6.172   3.951   0.372
 1701SOL    HW211119   6.018   3.993   0.409
 1702SOL     OW11120   4.323   4.149   1.325
 1702SOL    HW111121   4.407   4.103   1.298
 1702SOL    HW211122   4.267   4.086   1.380
 1703SOL     OW11123   5.452   1.349   6.563
 1703SOL    HW111124   5.372   1.290   6.571
 1703SOL    HW211125   5.475   1.361   6.466
 1704SOL     OW11126   0.855   2.577   5.430
 1704SOL    HW111127   0.834   2.596   5.334
 1704SOL    HW211128   0.846   2.479   5.448
 1705SOL     OW11129   5.672   2.999   6.165
 1705SOL    HW111130   5.727   3.052   6.230
 1705SOL    HW211131   5.674   2.902   6.191
 1706SOL     OW11132   3.535   1.732   6.450
 1706SOL    HW111133   3.485   1.676   6.385
 1706SOL    HW211134   3.494   1.724   6.541
 1707SOL     OW11135   1.311   1.846   5.850
 1707SOL    HW111136   1.213   1.823   5.852
 1707SOL    HW211137   1.341   1.854   5.755
 1708SOL     OW11138   5.769   5.299   0.174
 1708SOL    HW111139   5.806   5.354   0.248
 1708SOL    HW211140   5.669   5.306   0.174
 1709SOL     OW11141   1.712   5.168   4.826
 1709SOL    HW111142   1.664   5.088   4.862
 1709SOL    HW211143   1.657   5.210   4.753
 1710SOL     OW11144   1.360   3.581   0.474
 1710SOL    HW111145   1.359   3.500   0.533
 1710SOL    HW211146   1.267   3.599   0.441
 1711SOL     OW11147   1.042   1.876   1.886
 1711SOL    HW111148   1.073   1.805   1.948
 1711SOL    HW211149   1.000   1.834   1.805
 1712SOL     OW11150   0.901   0.443   5.814
 1712SOL    HW111151   0.867   0.351   5.831
 1712SOL    HW211152   0.927   0.452   5.718
 1713SOL     OW11153   4.984   2.352   5.506
 1713SOL    HW111154   4.947   2.352   5.599
 1713SOL    HW211155   5.070   2.301   5.505
 1714SOL     OW11156   5.270   1.752   1.497
 1714SOL    HW111157   5.187   1.808   1.494
 1714SOL    HW211158   5.250   1.664   1.542
 1715SOL     OW11159   1.839   0.308   1.028
 1715SOL    HW111160   1.789   0.371   1.087
 1715SOL    HW211161   1.786   0.292   0.944
 1716SOL     OW11162   6.212   6.353   4.765
 1716SOL    HW111163   6.250   6.264   4.787
 1716SOL    HW211164   6.255   6.388   4.681
 1717SOL     OW11165   1.444   2.694   0.082
 1717SOL    HW111166   1.455   2.628   0.157
 1717SOL    HW211167   1.440   2.645   6.591
 1718SOL     OW11168   4.399   3.114   0.430
 1718SOL    HW111169   4.351   3.140   0.346
 1718SOL    HW211170   4.335   3.067   0.491
 1719SOL     OW11171   1.650   1.493   5.743
 1719SOL    HW111172   1.578   1.510   5.675
 1719SOL    HW211173   1.655   1.571   5.806
 1720SOL     OW11174   2.854   3.638   6.440
 1720SOL    HW111175   2.948   3.633   6.406
 1720SOL    HW211176   2.790   3.634   6.362
 1721SOL     OW11177   6.398   4.975   0.322
 1721SOL    HW111178   6.334   4.984   0.399
 1721SOL    HW211179   6.359   5.020   0.242
 1722SOL     OW11180   2.151   2.671   0.010
 1722SOL    HW111181   2.127   2.761   6.568
 1722SOL    HW211182   2.078   2.642   0.072
 1723SOL     OW11183   6.195   5.861   0.151
 1723SOL    HW111184   6.226   5.950   0.184
 1723SOL    HW211185   6.273   5.811   0.112
 1724SOL     OW11186   3.560   1.412   0.394
 1724SOL    HW111187   3.572   1.337   0.459
 1724SOL    HW211188   3.497   1.384   0.322
 1725SOL     OW11189   3.976   4.571   5.914
 1725SOL    HW111190   4.075   4.577   5.925
 1725SOL    HW211191   3.947   4.476   5.929
 1726SOL     OW11192   0.064   0.243   0.124
 1726SOL    HW111193   0.072   0.308   0.200
 1726SOL    HW211194   0.015   0.286   0.049
 1727SOL     OW11195   4.013   2.650   0.164
 1727SOL    HW111196   4.033   2.566   0.115
 1727SOL    HW211197   3.922   2.646   0.202
 1728SOL     OW11198   1.573   5.722   6.028
 1728SOL    HW111199   1.479   5.752   6.045
 1728SOL    HW211200   1.586   5.630   6.064
 1729SOL     OW11201   4.756   6.162   0.138
 1729SOL    HW111202   4.821   6.213   0.081
 1729SOL    HW211203   4.710   6.092   0.082
 1730SOL     OW11204   2.887   0.860   5.757
 1730SOL    HW111205   2.871   0.817   5.846
 1730SOL    HW211206   2.875   0.791   5.685
 1731SOL     OW11207   3.094   5.847   0.342
 1731SOL    HW111208   3.026   5.793   0.293
 1731SOL    HW211209   3.185   5.808   0.328
 1732SOL     OW11210   5.231   5.314   6.100
 1732SOL    HW111211   5.297   5.244   6.073
 1732SOL    HW211212   5.272   5.372   6.171
 1733SOL     OW11213   3.278   0.140   6.035
 1733SOL    HW111214   3.301   0.093   5.950
 1733SOL    HW211215   3.298   0.081   6.112
 1734SOL     OW11216   0.543   0.119   0.385
 1734SOL    HW111217   0.586   0.044   0.436
 1734SOL    HW211218   0.514   0.190   0.448
 1735SOL     OW11219   5.073   2.621   5.817
 1735SOL    HW111220   5.063   2.547   5.884
 1735SOL    HW211221   5.125   2.696   5.858
 1736SOL     OW11222   3.172   5.614   6.379
 1736SOL    HW111223   3.271   5.622   6.383
 1736SOL    HW211224   3.142   5.536   6.434
 1737SOL     OW11225   6.201   2.760   0.948
 1737SOL    HW111226   6.193   2.723   1.041
 1737SOL    HW211227   6.295   2.749   0.916
 1738SOL     OW11228   0.178   1.772   1.389
 1738SOL    HW111229   0.181   1.778   1.489
 1738SOL    HW211230   0.086   1.746   1.361
 1739SOL     OW11231   3.462   5.141   0.246
 1739SOL    HW111232   3.414   5.155   0.332
 1739SOL    HW211233   3.561   5.139   0.263
 1740SOL     OW11234   5.228   6.420   5.457
 1740SOL    HW111235   5.224   6.411   5.357
 1740SOL    HW211236   5.322   6.408   5.488
 1741SOL     OW11237   5.665   3.892   5.488
 1741SOL    HW111238   5.748   3.920   5.439
 1741SOL    HW211239   5.684   3.811   5.543
 1742SOL     OW11240   3.521   5.464   5.150
 1742SOL    HW111241   3.604   5.440   5.200
 1742SOL    HW211242   3.470   5.380   5.128
 1743SOL     OW11243   5.348   1.819   5.779
 1743SOL    HW111244   5.323   1.785   5.689
 1743SOL    HW211245   5.442   1.793   5.800
 1744SOL     OW11246   0.782   4.021   0.645
 1744SOL    HW111247   0.820   4.078   0.717
 1744SOL    HW211248   0.741   3.939   0.686
 1745SOL     OW11249   0.201   3.588   5.548
 1745SOL    HW111250   0.207   3.512   5.613
 1745SOL    HW211251   0.183   3.553   5.456
 1746SOL     OW11252   2.441   6.189   6.340
 1746SOL    HW111253   2.409   6.131   6.415
 1746SOL    HW211254   2.379   6.267   6.329
 1747SOL     OW11255   0.271   4.459   0.876
 1747SOL    HW111256   0.195   4.524   0.874
 1747SOL    HW211257   0.235   4.366   0.864
 1748SOL     OW11258   4.863   5.886   5.520
 1748SOL    HW111259   4.856   5.801   5.571
 1748SOL    HW211260   4.881   5.867   5.424
 1749SOL     OW11261   5.252   3.402   1.273
 1749SOL    HW111262   5.319   3.403   1.199
 1749SOL    HW211263   5.277   3.334   1.341
 1750SOL     OW11264   5.334   4.182   6.510
 1750SOL    HW111265   5.377   4.194   6.421
 1750SOL    HW211266   5.380   4.110   6.561
 1751SOL     OW11267   6.270   0.440   6.012
 1751SOL    HW111268   6.202   0.384   5.965
 1751SOL    HW211269   6.246   0.537   6.002
 1752SOL     OW11270   5.405   0.849   6.554
 1752SOL    HW111271   5.320   0.838   0.009
 1752SOL    HW211272   5.390   0.913   6.479
 1753SOL     OW11273   0.563   0.811   0.529
 1753SOL    HW111274   0.551   0.765   0.441
 1753SOL    HW211275   0.644   0.870   0.524
 1754SOL     OW11276   3.679   5.991   5.111
 1754SOL    HW111277   3.762   5.998   5.055
 1754SOL    HW211278   3.611   6.057   5.078
 1755SOL     OW11279   1.255   4.793   0.504
 1755SOL    HW111280   1.240   4.700   0.539
 1755SOL    HW211281   1.268   4.789   0.405
 1756SOL     OW11282   0.780   1.757   5.770
 1756SOL    HW111283   0.752   1.664   5.795
 1756SOL    HW211284   0.702   1.819   5.779
 1757SOL     OW11285   5.731   3.846   1.101
 1757SOL    HW111286   5.646   3.849   1.048
 1757SOL    HW211287   5.738   3.929   1.157
 1758SOL     OW11288   1.167   3.695   6.557
 1758SOL    HW111289   1.230   3.678   0.036
 1758SOL    HW211290   1.218   3.718   6.474
 1759SOL     OW11291   5.993   2.986   5.738
 1759SOL    HW111292   6.049   3.070   5.740
 1759SOL    HW211293   5.919   2.997   5.671
 1760SOL     OW11294   0.832   6.011   0.231
 1760SOL    HW111295   0.912   5.965   0.193
 1760SOL    HW211296   0.766   6.028   0.158
 1761SOL     OW11297   5.200   4.907   0.087
 1761SOL    HW111298   5.144   4.932   0.008
 1761SOL    HW211299   5.141   4.878   0.163
 1762SOL     OW11300   3.906   0.749   5.997
 1762SOL    HW111301   3.984   0.794   5.951
 1762SOL    HW211302   3.909   0.651   5.978
 1763SOL     OW11303   5.642   2.119   0.204
 1763SOL    HW111304   5.728   2.110   0.154
 1763SOL    HW211305   5.599   2.029   0.213
 1764SOL     OW11306   4.007   5.515   1.175
 1764SOL    HW111307   3.915   5.546   1.201
 1764SOL    HW211308   4.029   5.432   1.226
 1765SOL     OW11309   5.423   4.365   0.464
 1765SOL    HW111310   5.462   4.292   0.409
 1765SOL    HW211311   5.471   4.451   0.445
 1766SOL     OW11312   1.203   1.843   1.355
 1766SOL    HW111313   1.202   1.873   1.450
 1766SOL    HW211314   1.150   1.758   1.347
 1767SOL     OW11315   5.597   6.234   5.738
 1767SOL    HW111316   5.595   6.152   5.795
 1767SOL    HW211317   5.692   6.257   5.717
 1768SOL     OW11318   4.969   4.376   6.295
 1768SOL    HW111319   5.035   4.387   6.370
 1768SOL    HW211320   4.987   4.444   6.224
 1769SOL     OW11321   5.202   2.237   0.362
 1769SOL    HW111322   5.234   2.201   0.274
 1769SOL    HW211323   5.105   2.258   0.357
 1770SOL     OW11324   4.278   0.756   0.584
 1770SOL    HW111325   4.299   0.694   0.660
 1770SOL    HW211326   4.362   0.802   0.554
 1771SOL     OW11327   3.142   5.559   0.743
 1771SOL    HW111328   3.170   5.654   0.725
 1771SOL    HW211329   3.222   5.499   0.736
 1772SOL     OW11330   4.914   1.626   0.392
 1772SOL    HW111331   4.852   1.647   0.468
 1772SOL    HW211332   4.867   1.570   0.325
 1773SOL     OW11333   5.618   6.436   1.008
 1773SOL    HW111334   5.606   6.342   1.040
 1773SOL    HW211335   5.712   0.023   1.026
 1774SOL     OW11336   3.890   5.883   5.320
 1774SOL    HW111337   3.953   5.866   5.245
 1774SOL    HW211338   3.812   5.937   5.287
 1775SOL     OW11339   0.304   5.866   0.157
 1775SOL    HW111340   0.333   5.950   0.202
 1775SOL    HW211341   0.335   5.787   0.211
 1776SOL     OW11342   3.867   5.197   5.461
 1776SOL    HW111343   3.898   5.233   5.549
 1776SOL    HW211344   3.945   5.159   5.412
 1777SOL     OW11345   2.764   6.047   0.699
 1777SOL    HW111346   2.678   6.051   0.647
 1777SOL    HW211347   2.788   5.951   0.716
 1778SOL     OW11348   2.061   2.267   5.924
 1778SOL    HW111349   2.118   2.257   6.005
 1778SOL    HW211350   1.971   2.225   5.941
 1779SOL     OW11351   3.554   4.317   0.992
 1779SOL    HW111352   3.544   4.363   1.080
 1779SOL    HW211353   3.466   4.278   0.964
 1780SOL     OW11354   5.078   2.744   6.452
 1780SOL    HW111355   5.028   2.746   6.538
 1780SOL    HW211356   5.068   2.832   6.405
 1781SOL     OW11357   5.593   3.569   5.045
 1781SOL    HW111358   5.634   3.480   5.068
 1781SOL    HW211359   5.662   3.640   5.053
 1782SOL     OW11360   0.491   2.419   6.366
 1782SOL    HW111361   0.465   2.410   6.270
 1782SOL    HW211362   0.464   2.510   6.399
 1783SOL     OW11363   1.736   2.407   0.458
 1783SOL    HW111364   1.834   2.429   0.455
 1783SOL    HW211365   1.712   2.354   0.376
 1784SOL     OW11366   2.015   1.392   1.337
 1784SOL    HW111367   1.933   1.376   1.283
 1784SOL    HW211368   2.082   1.442   1.282
 1785SOL     OW11369   1.646   1.679   0.530
 1785SOL    HW111370   1.690   1.708   0.445
 1785SOL    HW211371   1.697   1.604   0.571
 1786SOL     OW11372   2.452   4.110   0.408
 1786SOL    HW111373   2.517   4.037   0.390
 1786SOL    HW211374   2.370   4.073   0.452
 1787SOL     OW11375   6.083   0.067   5.725
 1787SOL    HW111376   6.069   6.419   5.761
 1787SOL    HW211377   6.091   0.063   5.626
 1788SOL     OW11378   1.694   5.887   6.226
 1788SOL    HW111379   1.708   5.823   6.301
 1788SOL    HW211380   1.650   5.839   6.149
 1789SOL     OW11381   6.262   1.694   6.066
 1789SOL    HW111382   6.285   1.608   6.110
 1789SOL    HW211383   6.344   1.734   6.024
 1790SOL     OW11384   3.537   5.391   0.929
 1790SOL    HW111385   3.543   5.407   1.027
 1790SOL    HW211386   3.575   5.301   0.908
 1791SOL     OW11387   3.072   4.659   0.352
 1791SOL    HW111388   2.993   4.700   0.398
 1791SOL    HW211389   3.055   4.561   0.338
 1792SOL     OW11390   3.163   5.089   0.579
 1792SOL    HW111391   3.068   5.122   0.580
 1792SOL    HW211392   3.174   5.019   0.650
 1793SOL     OW11393   0.782   3.698   6.146
 1793SOL    HW111394   0.872   3.690   6.188
 1793SOL    HW211395   0.721   3.628   6.183
 1794SOL     OW11396   4.052   3.367   5.393
 1794SOL    HW111397   3.989   3.289   5.398
 1794SOL    HW211398   4.009   3.448   5.433
 1795SOL     OW11399   4.963   1.167   6.559
 1795SOL    HW111400   4.950   1.193   6.464
 1795SOL    HW211401   4.886   1.112   6.590
 1796SOL     OW11402   3.818   3.108   0.883
 1796SOL    HW111403   3.797   3.143   0.975
 1796SOL    HW211404   3.851   3.014   0.890
 1797SOL     OW11405   6.015   2.385   6.036
 1797SOL    HW111406   5.930   2.429   6.065
 1797SOL    HW211407   6.007   2.286   6.048
 1798SOL     OW11408   3.714   0.394   0.963
 1798SOL    HW111409   3.673   0.399   0.872
 1798SOL    HW211410   3.674   0.464   1.022
 1799SOL     OW11411   3.535   2.267   5.901
 1799SOL    HW111412   3.459   2.204   5.887
 1799SOL    HW211413   3.570   2.257   5.995
 1800SOL     OW11414   1.716   6.098   5.557
 1800SOL    HW111415   1.628   6.132   5.526
 1800SOL    HW211416   1.730   6.124   5.652
 1801SOL     OW11417   1.454   2.515   6.471
 1801SOL    HW111418   1.508   2.475   6.396
 1801SOL    HW211419   1.357   2.514   6.446
 1802SOL     OW11420   3.195   0.957   0.625
 1802SOL    HW111421   3.123   0.889   0.640
 1802SOL    HW211422   3.213   1.005   0.711
 1803SOL     OW11423   5.269   4.766   5.961
 1803SOL    HW111424   5.267   4.763   5.861
 1803SOL    HW211425   5.177   4.783   5.995
 1804SOL     OW11426   0.688   1.617   0.054
 1804SOL    HW111427   0.741   1.698   0.029
 1804SOL    HW211428   0.745   1.555   0.108
 1805SOL     OW11429   5.807   1.787   4.963
 1805SOL    HW111430   5.869   1.739   4.901
 1805SOL    HW211431   5.712   1.765   4.939
 1806SOL     OW11432   6.030   5.891   0.371
 1806SOL    HW111433   6.077   5.916   0.456
 1806SOL    HW211434   6.098   5.866   0.302
 1807SOL     OW11435   4.413   5.584   0.992
 1807SOL    HW111436   4.334   5.639   1.021
 1807SOL    HW211437   4.442   5.526   1.067
 1808SOL     OW11438   0.078   3.732   6.317
 1808SOL    HW111439   0.081   3.688   6.406
 1808SOL    HW211440   0.001   3.696   6.264
 1809SOL     OW11441   0.256   5.207   0.586
 1809SOL    HW111442   0.308   5.219   0.502
 1809SOL    HW211443   0.259   5.291   0.640
 1810SOL     OW11444   3.838   2.892   0.507
 1810SOL    HW111445   3.863   2.833   0.584
 1810SOL    HW211446   3.795   2.837   0.435
 1811SOL     OW11447   0.703   3.188   6.310
 1811SOL    HW111448   0.781   3.242   6.279
 1811SOL    HW211449   0.639   3.175   6.234
 1812SOL     OW11450   3.274   4.136   0.265
 1812SOL    HW111451   3.311   4.082   0.341
 1812SOL    HW211452   3.220   4.076   0.206
 1813SOL     OW11453   4.059   2.092   1.000
 1813SOL    HW111454   4.121   2.163   1.031
 1813SOL    HW211455   4.009   2.123   0.919
 1814SOL     OW11456   1.779   5.614   5.561
 1814SOL    HW111457   1.707   5.627   5.629
 1814SOL    HW211458   1.770   5.684   5.489
 1815SOL     OW11459   3.342   6.414   5.819
 1815SOL    HW111460   3.332   0.035   5.743
 1815SOL    HW211461   3.323   6.321   5.787
 1816SOL     OW11462   4.668   6.041   0.384
 1816SOL    HW111463   4.704   6.065   0.294
 1816SOL    HW211464   4.720   6.089   0.454
 1817SOL     OW11465   2.806   3.226   0.922
 1817SOL    HW111466   2.905   3.227   0.913
 1817SOL    HW211467   2.778   3.295   0.989
 1818SOL     OW11468   3.461   5.690   6.042
 1818SOL    HW111469   3.488   5.746   6.121
 1818SOL    HW211470   3.362   5.672   6.048
 1819SOL     OW11471   5.823   5.730   0.654
 1819SOL    HW111472   5.820   5.645   0.708
 1819SOL    HW211473   5.858   5.804   0.711
 1820SOL     OW11474   2.606   1.940   0.423
 1820SOL    HW111475   2.591   1.996   0.505
 1820SOL    HW211476   2.641   1.851   0.451
 1821SOL     OW11477   3.898   0.826   6.258
 1821SOL    HW111478   3.900   0.799   6.162
 1821SOL    HW211479   3.921   0.748   6.316
 1822SOL     OW11480   5.802   3.090   5.548
 1822SOL    HW111481   5.874   3.067   5.482
 1822SOL    HW211482   5.713   3.066   5.510
 1823SOL     OW11483   4.576   5.861   1.443
 1823SOL    HW111484   4.480   5.846   1.420
 1823SOL    HW211485   4.623   5.773   1.450
 1824SOL     OW11486   1.268   3.492   0.881
 1824SOL    HW111487   1.285   3.588   0.858
 1824SOL    HW211488   1.207   3.488   0.961
 1825SOL     OW11489   2.764   3.736   5.522
 1825SOL    HW111490   2.696   3.739   5.448
 1825SOL    HW211491   2.834   3.668   5.500
 1826SOL     OW11492   2.037   3.028   6.226
 1826SOL    HW111493   1.995   3.118   6.220
 1826SOL    HW211494   2.135   3.035   6.208
 1827SOL     OW11495   1.140   3.930   0.663
 1827SOL    HW111496   1.148   3.957   0.567
 1827SOL    HW211497   1.100   4.005   0.715
 1828SOL     OW11498   5.865   4.103   5.635
 1828SOL    HW111499   5.916   4.176   5.681
 1828SOL    HW211500   5.814   4.050   5.702
 1829SOL     OW11501   4.525   0.282   1.220
 1829SOL    HW111502   4.505   0.361   1.278
 1829SOL    HW211503   4.487   0.199   1.262
 1830SOL     OW11504   0.879   1.927   4.651
 1830SOL    HW111505   0.910   1.834   4.669
 1830SOL    HW211506   0.780   1.933   4.667
 1831SOL     OW11507   3.693   0.034   0.656
 1831SOL    HW111508   3.670   6.428   0.739
 1831SOL    HW211509   3.761   0.105   0.677
 1832SOL     OW11510   3.367   0.810   6.448
 1832SOL    HW111511   3.415   0.808   6.360
 1832SOL    HW211512   3.365   0.903   6.483
 1833SOL     OW11513   6.340   3.962   0.460
 1833SOL    HW111514   6.399   3.982   0.381
 1833SOL    HW211515   6.359   4.027   0.533
 1834SOL     OW11516   4.823   2.340   1.202
 1834SOL    HW111517   4.856   2.328   1.296
 1834SOL    HW211518   4.869   2.274   1.143
 1835SOL     OW11519   4.790   5.736   0.281
 1835SOL    HW111520   4.711   5.774   0.329
 1835SOL    HW211521   4.812   5.646   0.319
 1836SOL     OW11522   0.061   4.622   0.836
 1836SOL    HW111523   0.078   4.716   0.868
 1836SOL    HW211524   6.396   4.620   0.782
 1837SOL     OW11525   4.763   5.322   5.561
 1837SOL    HW111526   4.832   5.370   5.615
 1837SOL    HW211527   4.807   5.257   5.499
 1838SOL     OW11528   4.282   5.111   1.324
 1838SOL    HW111529   4.282   5.011   1.319
 1838SOL    HW211530   4.266   5.139   1.418
 1839SOL     OW11531   2.925   5.870   6.048
 1839SOL    HW111532   2.962   5.795   5.992
 1839SOL    HW211533   2.832   5.846   6.077
 1840SOL     OW11534   4.708   2.809   0.937
 1840SOL    HW111535   4.678   2.755   1.016
 1840SOL    HW211536   4.739   2.748   0.864
 1841SOL     OW11537   0.666   1.753   1.040
 1841SOL    HW111538   0.754   1.712   1.065
 1841SOL    HW211539   0.593   1.686   1.050
 1842SOL     OW11540   4.330   1.017   6.360
 1842SOL    HW111541   4.323   1.109   6.399
 1842SOL    HW211542   4.260   1.006   6.289
 1843SOL     OW11543   4.876   4.812   5.936
 1843SOL    HW111544   4.842   4.750   6.007
 1843SOL    HW211545   4.846   4.779   5.847
 1844SOL     OW11546   3.611   4.957   5.166
 1844SOL    HW111547   3.627   5.022   5.241
 1844SOL    HW211548   3.546   4.887   5.197
 1845SOL     OW11549   1.602   3.418   0.471
 1845SOL    HW111550   1.538   3.478   0.423
 1845SOL    HW211551   1.553   3.365   0.540
 1846SOL     OW11552   4.572   2.428   6.120
 1846SOL    HW111553   4.653   2.480   6.146
 1846SOL    HW211554   4.582   2.333   6.150
 1847SOL     OW11555   3.265   6.059   0.281
 1847SOL    HW111556   3.214   6.132   0.235
 1847SOL    HW211557   3.202   5.984   0.304
 1848SOL     OW11558   5.204   3.864   1.621
 1848SOL    HW111559   5.165   3.804   1.691
 1848SOL    HW211560   5.241   3.946   1.664
 1849SOL     OW11561   1.076   0.588   5.245
 1849SOL    HW111562   1.170   0.621   5.245
 1849SOL    HW211563   1.043   0.580   5.150
 1850SOL     OW11564   0.671   5.043   5.826
 1850SOL    HW111565   0.611   4.992   5.887
 1850SOL    HW211566   0.708   4.981   5.756
 1851SOL     OW11567   3.086   5.343   1.869
 1851SOL    HW111568   2.993   5.309   1.881
 1851SOL    HW211569   3.145   5.303   1.940
 1852SOL     OW11570   2.988   2.474   6.184
 1852SOL    HW111571   2.930   2.427   6.118
 1852SOL    HW211572   2.939   2.483   6.271
 1853SOL     OW11573   2.071   0.178   0.883
 1853SOL    HW111574   1.992   0.184   0.945
 1853SOL    HW211575   2.115   0.089   0.894
 1854SOL     OW11576   3.197   5.559   4.715
 1854SOL    HW111577   3.133   5.605   4.653
 1854SOL    HW211578   3.220   5.469   4.678
 1855SOL     OW11579   3.627   3.433   6.294
 1855SOL    HW111580   3.706   3.494   6.298
 1855SOL    HW211581   3.653   3.346   6.254
 1856SOL     OW11582   0.348   0.292   0.881
 1856SOL    HW111583   0.321   0.322   0.789
 1856SOL    HW211584   0.300   0.207   0.903
 1857SOL     OW11585   4.594   4.388   0.293
 1857SOL    HW111586   4.626   4.432   0.209
 1857SOL    HW211587   4.551   4.301   0.270
 1858SOL     OW11588   1.327   1.382   5.187
 1858SOL    HW111589   1.246   1.422   5.231
 1858SOL    HW211590   1.359   1.443   5.115
 1859SOL     OW11591   3.965   1.753   5.186
 1859SOL    HW111592   4.020   1.830   5.152
 1859SOL    HW211593   3.914   1.713   5.109
 1860SOL     OW11594   4.558   3.654   0.649
 1860SOL    HW111595   4.505   3.718   0.593
 1860SOL    HW211596   4.527   3.659   0.744
 1861SOL     OW11597   0.251   5.164   1.209
 1861SOL    HW111598   0.243   5.261   1.187
 1861SOL    HW211599   0.167   5.117   1.183
 1862SOL     OW11600   5.840   0.699   0.204
 1862SOL    HW111601   5.849   0.672   0.108
 1862SOL    HW211602   5.744   0.719   0.224
 1863SOL     OW11603   2.993   5.943   5.323
 1863SOL    HW111604   3.078   5.948   5.270
 1863SOL    HW211605   2.949   5.855   5.305
 1864SOL     OW11606   5.653   5.746   0.974
 1864SOL    HW111607   5.714   5.675   1.007
 1864SOL    HW211608   5.652   5.822   1.039
 1865SOL     OW11609   4.355   5.218   1.802
 1865SOL    HW111610   4.390   5.300   1.846
 1865SOL    HW211611   4.405   5.138   1.835
 1866SOL     OW11612   6.101   4.125   0.688
 1866SOL    HW111613   6.093   4.179   0.771
 1866SOL    HW211614   6.164   4.170   0.625
 1867SOL     OW11615   1.517   4.066   6.026
 1867SOL    HW111616   1.586   4.024   5.968
 1867SOL    HW211617   1.437   4.091   5.971
 1868SOL     OW11618   5.296   2.682   0.184
 1868SOL    HW111619   5.286   2.611   0.114
 1868SOL    HW211620   5.304   2.638   0.274
 1869SOL     OW11621   4.162   4.952   1.866
 1869SOL    HW111622   4.177   5.047   1.893
 1869SOL    HW211623   4.225   4.928   1.791
 1870SOL     OW11624   4.540   3.932   5.592
 1870SOL    HW111625   4.635   3.963   5.588
 1870SOL    HW211626   4.525   3.860   5.525
 1871SOL     OW11627   1.883   5.475   4.829
 1871SOL    HW111628   1.806   5.445   4.772
 1871SOL    HW211629   1.964   5.421   4.806
 1872SOL     OW11630   4.259   6.063   0.776
 1872SOL    HW111631   4.272   6.140   0.839
 1872SOL    HW211632   4.340   6.054   0.718
 1873SOL     OW11633   5.026   2.211   5.153
 1873SOL    HW111634   4.982   2.121   5.158
 1873SOL    HW211635   4.957   2.282   5.170
 1874SOL     OW11636   2.125   6.380   0.521
 1874SOL    HW111637   2.172   6.293   0.536
 1874SOL    HW211638   2.044   6.385   0.580
 1875SOL     OW11639   5.287   2.443   0.040
 1875SOL    HW111640   5.220   2.416   6.568
 1875SOL    HW211641   5.327   2.361   0.081
 1876SOL     OW11642   2.438   4.801   6.084
 1876SOL    HW111643   2.434   4.739   6.162
 1876SOL    HW211644   2.522   4.786   6.033
 1877SOL     OW11645   3.868   3.549   6.287
 1877SOL    HW111646   3.938   3.490   6.247
 1877SOL    HW211647   3.900   3.644   6.286
 1878SOL     OW11648   2.376   2.553   0.280
 1878SOL    HW111649   2.349   2.554   0.183
 1878SOL    HW211650   2.319   2.618   0.331
 1879SOL     OW11651   3.195   6.378   6.549
 1879SOL    HW111652   3.157   6.438   6.478
 1879SOL    HW211653   3.250   6.307   6.507
 1880SOL     OW11654   5.486   1.891   1.421
 1880SOL    HW111655   5.548   1.829   1.373
 1880SOL    HW211656   5.418   1.838   1.472
 1881SOL     OW11657   5.835   5.507   0.836
 1881SOL    HW111658   5.856   5.538   0.929
 1881SOL    HW211659   5.757   5.445   0.838
 1882SOL     OW11660   4.246   6.311   5.877
 1882SOL    HW111661   4.173   6.296   5.811
 1882SOL    HW211662   4.249   6.408   5.902
 1883SOL     OW11663   0.124   2.400   5.798
 1883SOL    HW111664   0.052   2.466   5.817
 1883SOL    HW211665   0.211   2.448   5.783
 1884SOL     OW11666   2.250   0.796   2.099
 1884SOL    HW111667   2.319   0.837   2.158
 1884SOL    HW211668   2.159   0.814   2.136
 1885SOL     OW11669   2.465   5.903   5.372
 1885SOL    HW111670   2.476   5.920   5.274
 1885SOL    HW211671   2.371   5.872   5.390
 1886SOL     OW11672   4.560   0.386   5.797
 1886SOL    HW111673   4.638   0.420   5.744
 1886SOL    HW211674   4.569   0.415   5.892
 1887SOL     OW11675   2.404   3.198   0.281
 1887SOL    HW111676   2.425   3.295   0.280
 1887SOL    HW211677   2.319   3.183   0.332
 1888SOL     OW11678   3.945   4.389   0.802
 1888SOL    HW111679   3.848   4.414   0.813
 1888SOL    HW211680   3.982   4.432   0.720
 1889SOL     OW11681   4.770   1.684   6.114
 1889SOL    HW111682   4.843   1.658   6.176
 1889SOL    HW211683   4.718   1.760   6.152
 1890SOL     OW11684   2.903   2.116   5.948
 1890SOL    HW111685   2.883   2.134   5.852
 1890SOL    HW211686   2.949   2.027   5.956
 1891SOL     OW11687   1.501   3.531   6.524
 1891SOL    HW111688   1.585   3.533   6.578
 1891SOL    HW211689   1.428   3.575   6.575
 1892SOL     OW11690   3.839   4.741   0.449
 1892SOL    HW111691   3.888   4.806   0.390
 1892SOL    HW211692   3.748   4.724   0.412
 1893SOL     OW11693   0.081   2.529   0.744
 1893SOL    HW111694   0.089   2.625   0.771
 1893SOL    HW211695   6.403   2.505   0.735
 1894SOL     OW11696   4.063   2.812   5.864
 1894SOL    HW111697   4.056   2.807   5.764
 1894SOL    HW211698   4.074   2.720   5.901
 1895SOL     OW11699   6.065   1.756   0.134
 1895SOL    HW111700   6.065   1.842   0.185
 1895SOL    HW211701   6.133   1.761   0.061
 1896SOL     OW11702   1.450   4.715   4.992
 1896SOL    HW111703   1.389   4.792   5.007
 1896SOL    HW211704   1.399   4.629   5.002
 1897SOL     OW11705   2.087   3.930   5.305
 1897SOL    HW111706   2.083   3.943   5.206
 1897SOL    HW211707   2.179   3.903   5.332
 1898SOL     OW11708   2.607   3.893   0.355
 1898SOL    HW111709   2.594   3.810   0.410
 1898SOL    HW211710   2.662   3.871   0.274
 1899SOL     OW11711   2.775   4.104   0.576
 1899SOL    HW111712   2.840   4.160   0.628
 1899SOL    HW211713   2.686   4.148   0.576
 1900SOL     OW11714   1.952   2.202   0.187
 1900SOL    HW111715   1.955   2.302   0.188
 1900SOL    HW211716   1.866   2.171   0.225
 1901SOL     OW11717   1.324   4.833   6.271
 1901SOL    HW111718   1.357   4.879   6.353
 1901SOL    HW211719   1.361   4.879   6.190
 1902SOL     OW11720   2.415   5.289   6.560
 1902SOL    HW111721   2.483   5.216   6.557
 1902SOL    HW211722   2.400   5.324   6.468
 1903SOL     OW11723   0.328   5.764   6.256
 1903SOL    HW111724   0.286   5.784   6.345
 1903SOL    HW211725   0.403   5.699   6.269
 1904SOL     OW11726   1.700   3.548   1.195
 1904SOL    HW111727   1.681   3.516   1.288
 1904SOL    HW211728   1.740   3.640   1.198
 1905SOL     OW11729   0.449   2.721   0.943
 1905SOL    HW111730   0.452   2.630   0.986
 1905SOL    HW211731   0.368   2.770   0.975
 1906SOL     OW11732   3.624   4.290   5.498
 1906SOL    HW111733   3.570   4.366   5.463
 1906SOL    HW211734   3.707   4.280   5.444
 1907SOL     OW11735   5.884   5.822   6.352
 1907SOL    HW111736   5.957   5.816   6.420
 1907SOL    HW211737   5.795   5.813   6.397
 1908SOL     OW11738   4.774   5.647   5.976
 1908SOL    HW111739   4.755   5.741   6.003
 1908SOL    HW211740   4.866   5.639   5.939
 1909SOL     OW11741   3.932   2.174   0.776
 1909SOL    HW111742   3.855   2.238   0.769
 1909SOL    HW211743   3.969   2.157   0.685
 1910SOL     OW11744   4.716   0.264   5.462
 1910SOL    HW111745   4.782   0.243   5.390
 1910SOL    HW211746   4.724   0.197   5.536
 1911SOL     OW11747   4.909   2.383   0.853
 1911SOL    HW111748   4.963   2.423   0.926
 1911SOL    HW211749   4.926   2.284   0.848
 1912SOL     OW11750   0.334   4.818   6.151
 1912SOL    HW111751   0.314   4.875   6.230
 1912SOL    HW211752   0.295   4.727   6.165
 1913SOL     OW11753   2.207   1.519   0.041
 1913SOL    HW111754   2.224   1.570   0.126
 1913SOL    HW211755   2.210   1.421   0.061
 1914SOL     OW11756   1.779   3.751   0.455
 1914SOL    HW111757   1.732   3.743   0.367
 1914SOL    HW211758   1.736   3.689   0.521
 1915SOL     OW11759   1.166   2.531   0.738
 1915SOL    HW111760   1.099   2.523   0.664
 1915SOL    HW211761   1.238   2.463   0.725
 1916SOL     OW11762   4.068   3.333   0.038
 1916SOL    HW111763   4.064   3.431   0.019
 1916SOL    HW211764   3.994   3.308   0.100
 1917SOL     OW11765   4.192   3.000   1.114
 1917SOL    HW111766   4.203   2.948   1.029
 1917SOL    HW211767   4.161   2.938   1.186
 1918SOL     OW11768   4.584   2.253   0.168
 1918SOL    HW111769   4.645   2.231   0.244
 1918SOL    HW211770   4.508   2.308   0.202
 1919SOL     OW11771   5.061   1.130   1.209
 1919SOL    HW111772   5.107   1.217   1.227
 1919SOL    HW211773   5.110   1.056   1.255
 1920SOL     OW11774   2.231   2.094   5.430
 1920SOL    HW111775   2.161   2.165   5.437
 1920SOL    HW211776   2.295   2.103   5.506
 1921SOL     OW11777   3.215   1.874   5.690
 1921SOL    HW111778   3.198   1.911   5.599
 1921SOL    HW211779   3.250   1.781   5.683
 1922SOL     OW11780   0.966   1.661   6.083
 1922SOL    HW111781   1.036   1.654   6.154
 1922SOL    HW211782   0.994   1.729   6.016
 1923SOL     OW11783   2.963   1.703   0.954
 1923SOL    HW111784   3.010   1.658   1.030
 1923SOL    HW211785   3.018   1.694   0.871
 1924SOL     OW11786   4.176   3.063   0.611
 1924SOL    HW111787   4.205   3.142   0.664
 1924SOL    HW211788   4.077   3.069   0.593
 1925SOL     OW11789   0.302   4.605   1.277
 1925SOL    HW111790   0.213   4.628   1.317
 1925SOL    HW211791   0.324   4.510   1.295
 1926SOL     OW11792   5.850   0.325   0.094
 1926SOL    HW111793   5.771   0.283   0.140
 1926SOL    HW211794   5.818   0.377   0.015
 1927SOL     OW11795   5.396   5.920   0.371
 1927SOL    HW111796   5.395   6.015   0.342
 1927SOL    HW211797   5.307   5.878   0.350
 1928SOL     OW11798   3.296   1.330   1.077
 1928SOL    HW111799   3.300   1.295   1.170
 1928SOL    HW211800   3.241   1.268   1.020
 1929SOL     OW11801   0.413   5.223   0.370
 1929SOL    HW111802   0.396   5.260   0.279
 1929SOL    HW211803   0.482   5.151   0.364
 1930SOL     OW11804   0.247   4.053   5.760
 1930SOL    HW111805   0.222   4.115   5.685
 1930SOL    HW211806   0.337   4.077   5.795
 1931SOL     OW11807   0.990   4.972   0.600
 1931SOL    HW111808   0.949   4.919   0.674
 1931SOL    HW211809   1.061   4.917   0.555
 1932SOL     OW11810   5.411   4.127   0.614
 1932SOL    HW111811   5.422   4.213   0.566
 1932SOL    HW211812   5.488   4.066   0.593
 1933SOL     OW11813   0.529   0.655   6.131
 1933SOL    HW111814   0.604   0.593   6.113
 1933SOL    HW211815   0.446   0.622   6.086
 1934SOL     OW11816   0.126   1.212   0.033
 1934SOL    HW111817   0.166   1.258   0.112
 1934SOL    HW211818   0.165   1.120   0.024
 1935SOL     OW11819   5.079   0.384   4.602
 1935SOL    HW111820   5.046   0.459   4.545
 1935SOL    HW211821   5.008   0.314   4.610
 1936SOL     OW11822   4.277   1.232   5.311
 1936SOL    HW111823   4.283   1.331   5.322
 1936SOL    HW211824   4.183   1.206   5.289
 1937SOL     OW11825   0.006   0.209   0.443
 1937SOL    HW111826   6.344   0.224   0.385
 1937SOL    HW211827   6.414   0.262   0.528
 1938SOL     OW11828   2.841   5.217   1.959
 1938SOL    HW111829   2.786   5.289   1.916
 1938SOL    HW211830   2.843   5.232   2.058
 1939SOL     OW11831   2.467   0.993   1.441
 1939SOL    HW111832   2.446   1.046   1.359
 1939SOL    HW211833   2.402   1.015   1.513
 1940SOL     OW11834   4.502   5.310   0.943
 1940SOL    HW111835   4.442   5.249   0.892
 1940SOL    HW211836   4.469   5.320   1.037
 1941SOL     OW11837   0.314   3.277   5.919
 1941SOL    HW111838   0.325   3.374   5.898
 1941SOL    HW211839   0.233   3.263   5.974
 1942SOL     OW11840   3.961   4.227   6.455
 1942SOL    HW111841   3.883   4.266   6.505
 1942SOL    HW211842   4.018   4.302   6.420
 1943SOL     OW11843   0.498   3.348   5.154
 1943SOL    HW111844   0.472   3.367   5.059
 1943SOL    HW211845   0.545   3.259   5.158
 1944SOL     OW11846   5.979   6.267   5.938
 1944SOL    HW111847   5.985   6.359   5.977
 1944SOL    HW211848   5.909   6.215   5.988
 1945SOL     OW11849   5.473   2.133   5.655
 1945SOL    HW111850   5.509   2.074   5.727
 1945SOL    HW211851   5.398   2.085   5.608
 1946SOL     OW11852   4.748   4.571   5.812
 1946SOL    HW111853   4.660   4.528   5.833
 1946SOL    HW211854   4.814   4.502   5.783
 1947SOL     OW11855   6.405   5.502   1.341
 1947SOL    HW111856   6.367   5.429   1.284
 1947SOL    HW211857   0.079   5.476   1.370
 1948SOL     OW11858   1.623   2.423   0.126
 1948SOL    HW111859   1.592   2.353   0.062
 1948SOL    HW211860   1.719   2.443   0.111
 1949SOL     OW11861   2.560   2.456   6.050
 1949SOL    HW111862   2.644   2.443   5.998
 1949SOL    HW211863   2.561   2.546   6.095
 1950SOL     OW11864   1.105   6.216   0.909
 1950SOL    HW111865   1.195   6.189   0.875
 1950SOL    HW211866   1.112   6.241   1.005
 1951SOL     OW11867   5.854   4.823   2.163
 1951SOL    HW111868   5.945   4.853   2.190
 1951SOL    HW211869   5.861   4.763   2.084
 1952SOL     OW11870   6.147   0.740   0.902
 1952SOL    HW111871   6.206   0.781   0.972
 1952SOL    HW211872   6.198   0.730   0.817
 1953SOL     OW11873   2.286   1.575   6.373
 1953SOL    HW111874   2.283   1.675   6.379
 1953SOL    HW211875   2.274   1.536   6.465
 1954SOL     OW11876   4.370   4.855   6.499
 1954SOL    HW111877   4.443   4.792   6.473
 1954SOL    HW211878   4.410   4.941   6.530
 1955SOL     OW11879   4.048   2.082   5.411
 1955SOL    HW111880   4.137   2.057   5.372
 1955SOL    HW211881   4.060   2.103   5.509
 1956SOL     OW11882   3.541   4.965   0.570
 1956SOL    HW111883   3.486   5.048   0.566
 1956SOL    HW211884   3.494   4.892   0.520
 1957SOL     OW11885   3.506   5.136   6.468
 1957SOL    HW111886   3.490   5.194   6.548
 1957SOL    HW211887   3.464   5.178   6.387
 1958SOL     OW11888   4.085   4.119   0.952
 1958SOL    HW111889   4.057   4.096   0.859
 1958SOL    HW211890   4.003   4.137   1.007
 1959SOL     OW11891   2.059   3.746   0.521
 1959SOL    HW111892   2.081   3.671   0.458
 1959SOL    HW211893   1.964   3.775   0.507
 1960SOL     OW11894   5.572   4.141   5.568
 1960SOL    HW111895   5.621   4.057   5.548
 1960SOL    HW211896   5.475   4.130   5.547
 1961SOL     OW11897   5.636   0.590   5.349
 1961SOL    HW111898   5.651   0.683   5.315
 1961SOL    HW211899   5.694   0.573   5.428
 1962SOL     OW11900   1.110   6.093   0.492
 1962SOL    HW111901   1.176   6.028   0.527
 1962SOL    HW211902   1.079   6.064   0.402
 1963SOL     OW11903   2.994   3.690   0.333
 1963SOL    HW111904   3.028   3.761   0.395
 1963SOL    HW211905   3.024   3.600   0.364
 1964SOL     OW11906   5.973   0.986   6.509
 1964SOL    HW111907   5.901   0.949   6.567
 1964SOL    HW211908   5.933   1.044   6.438
 1965SOL     OW11909   0.756   5.546   5.162
 1965SOL    HW111910   0.808   5.507   5.086
 1965SOL    HW211911   0.665   5.505   5.166
 1966SOL     OW11912   3.149   3.943   0.115
 1966SOL    HW111913   3.064   3.904   0.150
 1966SOL    HW211914   3.155   3.929   0.016
 1967SOL     OW11915   3.860   5.507   0.810
 1967SOL    HW111916   3.936   5.568   0.787
 1967SOL    HW211917   3.895   5.426   0.856
 1968SOL     OW11918   3.916   2.203   5.720
 1968SOL    HW111919   4.015   2.204   5.708
 1968SOL    HW211920   3.892   2.247   5.806
 1969SOL     OW11921   4.312   4.836   1.260
 1969SOL    HW111922   4.221   4.842   1.301
 1969SOL    HW211923   4.327   4.744   1.225
 1970SOL     OW11924   2.592   3.696   1.013
 1970SOL    HW111925   2.544   3.782   0.996
 1970SOL    HW211926   2.648   3.706   1.095
 1971SOL     OW11927   0.571   2.235   6.580
 1971SOL    HW111928   0.580   2.294   0.064
 1971SOL    HW211929   0.528   2.287   6.506
 1972SOL     OW11930   0.280   2.743   5.602
 1972SOL    HW111931   0.187   2.713   5.621
 1972SOL    HW211932   0.280   2.842   5.585
 1973SOL     OW11933   4.217   5.219   1.569
 1973SOL    HW111934   4.271   5.219   1.653
 1973SOL    HW211935   4.126   5.182   1.587
 1974SOL     OW11936   5.499   5.082   1.000
 1974SOL    HW111937   5.533   5.167   0.959
 1974SOL    HW211938   5.471   5.020   0.927
 1975SOL     OW11939   1.499   1.282   4.940
 1975SOL    HW111940   1.460   1.341   5.010
 1975SOL    HW211941   1.570   1.224   4.980
 1976SOL     OW11942   4.697   4.489   0.037
 1976SOL    HW111943   4.673   4.396   0.012
 1976SOL    HW211944   4.680   4.550   6.555
 1977SOL     OW11945   6.352   4.279   5.611
 1977SOL    HW111946   6.274   4.281   5.548
 1977SOL    HW211947   0.001   4.213   5.579
 1978SOL     OW11948   2.256   5.081   1.508
 1978SOL    HW111949   2.224   5.171   1.538
 1978SOL    HW211950   2.316   5.042   1.578
 1979SOL     OW11951   2.873   3.393   1.865
 1979SOL    HW111952   2.828   3.472   1.906
 1979SOL    HW211953   2.817   3.312   1.880
 1980SOL     OW11954   4.114   0.570   0.454
 1980SOL    HW111955   4.037   0.623   0.419
 1980SOL    HW211956   4.182   0.633   0.493
 1981SOL     OW11957   1.025   2.042   5.854
 1981SOL    HW111958   0.992   2.058   5.761
 1981SOL    HW211959   1.085   2.117   5.881
 1982SOL     OW11960   4.453   6.025   0.589
 1982SOL    HW111961   4.509   6.048   0.510
 1982SOL    HW211962   4.400   5.942   0.570
 1983SOL     OW11963   3.354   1.278   5.919
 1983SOL    HW111964   3.392   1.189   5.894
 1983SOL    HW211965   3.271   1.264   5.973
 1984SOL     OW11966   3.821   6.162   1.001
 1984SOL    HW111967   3.804   6.077   0.952
 1984SOL    HW211968   3.857   6.142   1.092
 1985SOL     OW11969   4.550   6.407   5.389
 1985SOL    HW111970   4.470   0.020   5.367
 1985SOL    HW211971   4.524   6.311   5.386
 1986SOL     OW11972   5.631   0.205   0.189
 1986SOL    HW111973   5.579   0.170   0.111
 1986SOL    HW211974   5.568   0.254   0.250
 1987SOL     OW11975   1.359   3.129   1.050
 1987SOL    HW111976   1.404   3.091   1.131
 1987SOL    HW211977   1.401   3.217   1.026
 1988SOL     OW11978   3.386   2.566   0.590
 1988SOL    HW111979   3.369   2.610   0.501
 1988SOL    HW211980   3.298   2.545   0.633
 1989SOL     OW11981   0.947   2.512   0.972
 1989SOL    HW111982   1.046   2.514   0.958
 1989SOL    HW211983   0.917   2.418   0.988
 1990SOL     OW11984   0.823   1.218   2.051
 1990SOL    HW111985   0.862   1.181   1.967
 1990SOL    HW211986   0.734   1.176   2.068
 1991SOL     OW11987   3.019   5.117   1.013
 1991SOL    HW111988   3.017   5.195   1.076
 1991SOL    HW211989   2.998   5.034   1.064
 1992SOL     OW11990   2.160   0.533   6.455
 1992SOL    HW111991   2.210   0.460   6.502
 1992SOL    HW211992   2.178   0.620   6.501
 1993SOL     OW11993   3.965   4.302   6.008
 1993SOL    HW111994   3.992   4.216   5.965
 1993SOL    HW211995   4.046   4.347   6.046
 1994SOL     OW11996   2.441   4.531   0.810
 1994SOL    HW111997   2.502   4.510   0.734
 1994SOL    HW211998   2.435   4.630   0.823
 1995SOL     OW11999   1.126   3.960   0.349
 1995SOL    HW112000   1.073   3.879   0.373
 1995SOL    HW212001   1.075   4.015   0.282
 1996SOL     OW12002   1.525   2.130   0.484
 1996SOL    HW112003   1.451   2.071   0.515
 1996SOL    HW212004   1.612   2.099   0.522
 1997SOL     OW12005   1.236   1.320   0.000
 1997SOL    HW112006   1.265   1.334   6.502
 1997SOL    HW212007   1.136   1.315   0.004
 1998SOL     OW12008   1.263   5.408   6.278
 1998SOL    HW112009   1.223   5.417   6.370
 1998SOL    HW212010   1.348   5.460   6.274
 1999SOL     OW12011   5.543   5.571   6.577
 1999SOL    HW112012   5.604   5.507   0.027
 1999SOL    HW212013   5.460   5.582   0.035
 2000SOL     OW12014   0.905   4.155   0.121
 2000SOL    HW112015   0.865   4.136   0.211
 2000SOL    HW212016   0.927   4.068   0.075
 2001SOL     OW12017   3.884   3.519   5.608
 2001SOL    HW112018   3.795   3.473   5.599
 2001SOL    HW212019   3.870   3.618   5.607
 2002SOL     OW12020   4.223   4.454   6.123
 2002SOL    HW112021   4.162   4.495   6.192
 2002SOL    HW212022   4.265   4.372   6.161
 2003SOL     OW12023   0.063   0.495   0.677
 2003SOL    HW112024   0.148   0.454   0.643
 2003SOL    HW212025   6.414   0.423   0.691
 2004SOL     OW12026   4.788   1.970   0.559
 2004SOL    HW112027   4.758   1.977   0.464
 2004SOL    HW212028   4.753   1.884   0.598
 2005SOL     OW12029   4.461   3.836   5.973
 2005SOL    HW112030   4.416   3.858   5.887
 2005SOL    HW212031   4.480   3.738   5.976
 2006SOL     OW12032   4.715   6.049   4.703
 2006SOL    HW112033   4.643   6.057   4.633
 2006SOL    HW212034   4.707   5.960   4.748
 2007SOL     OW12035   2.960   6.423   6.078
 2007SOL    HW112036   3.049   6.380   6.064
 2007SOL    HW212037   2.888   6.361   6.048
 2008SOL     OW12038   5.852   6.173   6.475
 2008SOL    HW112039   5.920   6.139   6.539
 2008SOL    HW212040   5.761   6.144   6.504
 2009SOL     OW12041   0.240   4.148   6.482
 2009SOL    HW112042   0.217   4.051   6.470
 2009SOL    HW212043   0.287   4.160   6.569
 2010SOL     OW12044   0.483   4.270   0.459
 2010SOL    HW112045   0.538   4.349   0.432
 2010SOL    HW212046   0.400   4.267   0.403
 2011SOL     OW12047   3.096   3.534   5.774
 2011SOL    HW112048   3.187   3.576   5.781
 2011SOL    HW212049   3.028   3.596   5.814
 2012SOL     OW12050   4.762   0.032   0.394
 2012SOL    HW112051   4.701   6.407   0.433
 2012SOL    HW212052   4.853   6.437   0.382
 2013SOL     OW12053   5.663   4.348   6.578
 2013SOL    HW112054   5.610   4.288   0.041
 2013SOL    HW212055   5.626   4.441   6.583
 2014SOL     OW12056   5.245   1.156   0.051
 2014SOL    HW112057   5.263   1.130   6.553
 2014SOL    HW212058   5.147   1.151   0.069
 2015SOL     OW12059   3.900   1.195   5.536
 2015SOL    HW112060   3.955   1.256   5.593
 2015SOL    HW212061   3.862   1.247   5.459
 2016SOL     OW12062   4.304   0.936   5.227
 2016SOL    HW112063   4.246   0.942   5.145
 2016SOL    HW212064   4.274   1.004   5.293
 2017SOL     OW12065   2.493   4.570   5.323
 2017SOL    HW112066   2.524   4.539   5.234
 2017SOL    HW212067   2.443   4.656   5.314
 2018SOL     OW12068   0.542   5.345   6.184
 2018SOL    HW112069   0.641   5.331   6.193
 2018SOL    HW212070   0.519   5.362   6.089
 2019SOL     OW12071   3.273   4.987   5.279
 2019SOL    HW112072   3.259   4.966   5.182
 2019SOL    HW212073   3.338   4.923   5.319
 2020SOL     OW12074   6.407   3.445   0.908
 2020SOL    HW112075   6.409   3.466   1.006
 2020SOL    HW212076   0.082   3.442   0.873
 2021SOL     OW12077   6.293   1.550   5.169
 2021SOL    HW112078   6.337   1.576   5.083
 2021SOL    HW212079   6.193   1.553   5.158
 2022SOL     OW12080   5.490   6.406   5.545
 2022SOL    HW112081   5.553   6.422   5.469
 2022SOL    HW212082   5.524   6.331   5.602
 2023SOL     OW12083   1.193   2.196   0.457
 2023SOL    HW112084   1.241   2.132   0.397
 2023SOL    HW212085   1.123   2.244   0.405
 2024SOL     OW12086   5.906   4.652   1.936
 2024SOL    HW112087   5.863   4.570   1.975
 2024SOL    HW212088   5.978   4.624   1.872
 2025SOL     OW12089   6.255   5.020   6.128
 2025SOL    HW112090   6.207   4.943   6.086
 2025SOL    HW212091   6.199   5.102   6.120
 2026SOL     OW12092   2.425   4.146   1.580
 2026SOL    HW112093   2.367   4.070   1.550
 2026SOL    HW212094   2.512   4.109   1.612
 2027SOL     OW12095   2.546   4.285   0.623
 2027SOL    HW112096   2.482   4.243   0.558
 2027SOL    HW212097   2.524   4.255   0.716
 2028SOL     OW12098   6.385   1.455   0.616
 2028SOL    HW112099   6.369   1.537   0.671
 2028SOL    HW212100   6.308   1.441   0.553
 2029SOL     OW12101   2.240   1.593   0.365
 2029SOL    HW112102   2.328   1.554   0.392
 2029SOL    HW212103   2.234   1.687   0.400
 2030SOL     OW12104   5.212   2.813   5.960
 2030SOL    HW112105   5.147   2.875   6.004
 2030SOL    HW212106   5.277   2.867   5.906
 2031SOL     OW12107   2.718   1.014   0.778
 2031SOL    HW112108   2.727   0.948   0.703
 2031SOL    HW212109   2.713   0.966   0.865
 2032SOL     OW12110   2.367   2.946   0.621
 2032SOL    HW112111   2.405   3.001   0.695
 2032SOL    HW212112   2.270   2.968   0.609
 2033SOL     OW12113   6.030   4.745   0.611
 2033SOL    HW112114   5.951   4.697   0.649
 2033SOL    HW212115   5.999   4.821   0.554
 2034SOL     OW12116   2.917   4.969   1.858
 2034SOL    HW112117   2.857   4.893   1.881
 2034SOL    HW212118   2.880   5.054   1.896
 2035SOL     OW12119   0.910   2.551   6.495
 2035SOL    HW112120   0.821   2.587   6.524
 2035SOL    HW212121   0.907   2.532   6.396
 2036SOL     OW12122   4.487   3.711   1.253
 2036SOL    HW112123   4.576   3.678   1.221
 2036SOL    HW212124   4.487   3.811   1.255
 2037SOL     OW12125   1.094   1.261   5.479
 2037SOL    HW112126   1.052   1.309   5.555
 2037SOL    HW212127   1.023   1.219   5.422
 2038SOL     OW12128   5.927   5.408   6.507
 2038SOL    HW112129   5.934   5.319   6.552
 2038SOL    HW212130   5.911   5.478   6.575
 2039SOL     OW12131   2.104   4.373   6.440
 2039SOL    HW112132   2.037   4.300   6.429
 2039SOL    HW212133   2.164   4.377   6.360
 2040SOL     OW12134   0.517   3.948   0.470
 2040SOL    HW112135   0.556   4.039   0.482
 2040SOL    HW212136   0.418   3.956   0.455
 2041SOL     OW12137   0.344   3.416   0.983
 2041SOL    HW112138   0.324   3.351   1.056
 2041SOL    HW212139   0.405   3.372   0.916
 2042SOL     OW12140   1.834   5.325   4.557
 2042SOL    HW112141   1.841   5.234   4.517
 2042SOL    HW212142   1.906   5.384   4.520
 2043SOL     OW12143   0.084   5.657   5.817
 2043SOL    HW112144   6.406   5.639   5.793
 2043SOL    HW212145   0.097   5.641   5.914
 2044SOL     OW12146   6.079   4.223   6.261
 2044SOL    HW112147   6.026   4.228   6.346
 2044SOL    HW212148   6.166   4.271   6.274
 2045SOL     OW12149   4.038   2.392   4.810
 2045SOL    HW112150   4.108   2.460   4.831
 2045SOL    HW212151   4.073   2.329   4.740
 2046SOL     OW12152   1.446   5.594   5.450
 2046SOL    HW112153   1.445   5.518   5.386
 2046SOL    HW212154   1.373   5.582   5.518
 2047SOL     OW12155   6.056   3.102   0.322
 2047SOL    HW112156   6.081   3.119   0.417
 2047SOL    HW212157   5.963   3.065   0.319
 2048SOL     OW12158   3.992   0.651   5.553
 2048SOL    HW112159   3.951   0.694   5.633
 2048SOL    HW212160   4.075   0.699   5.527
 2049SOL     OW12161   2.895   5.466   0.673
 2049SOL    HW112162   2.989   5.492   0.695
 2049SOL    HW212163   2.892   5.426   0.581
 2050SOL     OW12164   4.988   4.476   0.951
 2050SOL    HW112165   5.047   4.447   1.027
 2050SOL    HW212166   5.040   4.470   0.865
 2051SOL     OW12167   0.452   0.624   0.713
 2051SOL    HW112168   0.472   0.694   0.644
 2051SOL    HW212169   0.534   0.571   0.732
 2052SOL     OW12170   4.431   3.273   1.141
 2052SOL    HW112171   4.417   3.347   1.207
 2052SOL    HW212172   4.528   3.250   1.136
 2053SOL     OW12173   0.264   5.817   5.700
 2053SOL    HW112174   0.332   5.746   5.680
 2053SOL    HW212175   0.186   5.777   5.747
 2054SOL     OW12176   4.683   4.158   1.384
 2054SOL    HW112177   4.668   4.251   1.418
 2054SOL    HW212178   4.781   4.145   1.364
 2055SOL     OW12179   0.683   2.338   1.097
 2055SOL    HW112180   0.777   2.304   1.101
 2055SOL    HW212181   0.672   2.413   1.161
 2056SOL     OW12182   2.702   5.256   5.182
 2056SOL    HW112183   2.673   5.161   5.167
 2056SOL    HW212184   2.774   5.279   5.116
 2057SOL     OW12185   1.147   2.485   0.153
 2057SOL    HW112186   1.232   2.482   0.205
 2057SOL    HW212187   1.120   2.392   0.128
 2058SOL     OW12188   1.009   4.517   0.769
 2058SOL    HW112189   1.065   4.492   0.848
 2058SOL    HW212190   1.058   4.495   0.685
 2059SOL     OW12191   5.691   2.260   5.547
 2059SOL    HW112192   5.699   2.250   5.447
 2059SOL    HW212193   5.606   2.216   5.577
 2060SOL     OW12194   2.654   4.282   1.857
 2060SOL    HW112195   2.694   4.372   1.840
 2060SOL    HW212196   2.555   4.287   1.849
 2061SOL     OW12197   6.320   6.083   0.227
 2061SOL    HW112198   6.403   6.105   0.278
 2061SOL    HW212199   6.259   6.162   0.226
 2062SOL     OW12200   4.473   2.148   5.746
 2062SOL    HW112201   4.535   2.226   5.741
 2062SOL    HW212202   4.502   2.088   5.821
 2063SOL     OW12203   3.220   4.295   6.521
 2063SOL    HW112204   3.248   4.227   6.588
 2063SOL    HW212205   3.257   4.384   6.545
 2064SOL     OW12206   4.768   5.731   0.633
 2064SOL    HW112207   4.794   5.661   0.567
 2064SOL    HW212208   4.717   5.689   0.709
 2065SOL     OW12209   3.127   2.630   0.943
 2065SOL    HW112210   3.214   2.595   0.978
 2065SOL    HW212211   3.104   2.715   0.990
 2066SOL     OW12212   3.941   1.955   6.301
 2066SOL    HW112213   3.916   1.916   6.390
 2066SOL    HW212214   4.009   2.027   6.313
 2067SOL     OW12215   5.759   0.020   4.823
 2067SOL    HW112216   5.759   0.092   4.754
 2067SOL    HW212217   5.754   6.374   4.778
 2068SOL     OW12218   3.101   1.468   1.475
 2068SOL    HW112219   3.186   1.473   1.422
 2068SOL    HW212220   3.121   1.436   1.567
 2069SOL     OW12221   4.875   2.111   6.347
 2069SOL    HW112222   4.946   2.081   6.284
 2069SOL    HW212223   4.852   2.037   6.410
 2070SOL     OW12224   1.114   5.548   0.234
 2070SOL    HW112225   1.135   5.644   0.253
 2070SOL    HW212226   1.015   5.535   0.226
 2071SOL     OW12227   3.761   0.972   5.281
 2071SOL    HW112228   3.792   0.879   5.302
 2071SOL    HW212229   3.841   1.031   5.269
 2072SOL     OW12230   0.210   4.376   0.313
 2072SOL    HW112231   0.197   4.404   0.408
 2072SOL    HW212232   0.210   4.457   0.254
 2073SOL     OW12233   3.391   5.430   0.696
 2073SOL    HW112234   3.418   5.503   0.633
 2073SOL    HW212235   3.451   5.431   0.776
 2074SOL     OW12236   5.857   3.217   6.079
 2074SOL    HW112237   5.804   3.133   6.087
 2074SOL    HW212238   5.936   3.200   6.020
 2075SOL     OW12239   2.879   0.029   0.633
 2075SOL    HW112240   2.882   6.379   0.598
 2075SOL    HW212241   2.803   0.078   0.590
 2076SOL     OW12242   1.279   1.198   5.780
 2076SOL    HW112243   1.190   1.172   5.743
 2076SOL    HW212244   1.348   1.194   5.708
 2077SOL     OW12245   3.382   1.487   5.026
 2077SOL    HW112246   3.344   1.424   5.093
 2077SOL    HW212247   3.324   1.569   5.022
 2078SOL     OW12248   6.235   1.418   0.077
 2078SOL    HW112249   6.289   1.456   0.001
 2078SOL    HW212250   6.145   1.461   0.079
 2079SOL     OW12251   6.418   4.990   1.153
 2079SOL    HW112252   6.326   5.030   1.156
 2079SOL    HW212253   6.411   4.891   1.139
 2080SOL     OW12254   4.310   5.829   1.381
 2080SOL    HW112255   4.279   5.746   1.334
 2080SOL    HW212256   4.233   5.871   1.428
 2081SOL     OW12257   3.129   5.084   6.166
 2081SOL    HW112258   3.097   5.081   6.261
 2081SOL    HW212259   3.059   5.046   6.105
 2082SOL     OW12260   4.415   4.018   6.463
 2082SOL    HW112261   4.465   3.936   6.434
 2082SOL    HW212262   4.356   3.995   6.541
 2083SOL     OW12263   5.284   0.263   5.556
 2083SOL    HW112264   5.350   0.259   5.481
 2083SOL    HW212265   5.281   0.174   5.602
 2084SOL     OW12266   0.219   2.086   1.319
 2084SOL    HW112267   0.283   2.157   1.349
 2084SOL    HW212268   0.252   1.996   1.347
 2085SOL     OW12269   5.994   2.984   5.365
 2085SOL    HW112270   6.000   2.887   5.389
 2085SOL    HW212271   6.004   2.994   5.266
 2086SOL     OW12272   3.139   1.616   1.143
 2086SOL    HW112273   3.211   1.548   1.159
 2086SOL    HW212274   3.113   1.658   1.230
 2087SOL     OW12275   4.196   4.233   4.838
 2087SOL    HW112276   4.235   4.178   4.912
 2087SOL    HW212277   4.252   4.314   4.823
 2088SOL     OW12278   2.227   0.729   1.217
 2088SOL    HW112279   2.317   0.753   1.182
 2088SOL    HW212280   2.235   0.696   1.311
 2089SOL     OW12281   3.222   5.377   0.272
 2089SOL    HW112282   3.194   5.473   0.279
 2089SOL    HW212283   3.279   5.365   0.191
 2090SOL     OW12284   4.316   1.442   5.639
 2090SOL    HW112285   4.350   1.353   5.668
 2090SOL    HW212286   4.347   1.512   5.704
 2091SOL     OW12287   1.456   0.300   1.763
 2091SOL    HW112288   1.460   0.348   1.850
 2091SOL    HW212289   1.514   0.347   1.696
 2092SOL     OW12290   0.213   3.386   6.297
 2092SOL    HW112291   0.215   3.295   6.339
 2092SOL    HW212292   0.171   3.451   6.361
 2093SOL     OW12293   3.036   4.811   5.525
 2093SOL    HW112294   3.075   4.723   5.499
 2093SOL    HW212295   2.990   4.802   5.614
 2094SOL     OW12296   3.372   0.015   0.136
 2094SOL    HW112297   3.443   6.389   0.136
 2094SOL    HW212298   3.300   6.434   0.071
 2095SOL     OW12299   1.409   3.262   5.779
 2095SOL    HW112300   1.339   3.273   5.708
 2095SOL    HW212301   1.403   3.170   5.817
 2096SOL     OW12302   3.084   0.509   0.163
 2096SOL    HW112303   3.159   0.541   0.221
 2096SOL    HW212304   3.095   0.411   0.145
 2097SOL     OW12305   5.811   4.359   0.882
 2097SOL    HW112306   5.782   4.275   0.837
 2097SOL    HW212307   5.813   4.433   0.816
 2098SOL     OW12308   1.976   4.331   5.745
 2098SOL    HW112309   1.906   4.399   5.766
 2098SOL    HW212310   1.954   4.286   5.658
 2099SOL     OW12311   1.333   3.283   0.321
 2099SOL    HW112312   1.350   3.199   0.374
 2099SOL    HW212313   1.243   3.320   0.345
 2100SOL     OW12314   1.225   3.083   6.190
 2100SOL    HW112315   1.288   3.006   6.179
 2100SOL    HW212316   1.139   3.050   6.229
 2101SOL     OW12317   2.145   6.073   5.372
 2101SOL    HW112318   2.050   6.097   5.354
 2101SOL    HW212319   2.194   6.061   5.286
 2102SOL     OW12320   0.954   2.725   0.767
 2102SOL    HW112321   0.891   2.670   0.823
 2102SOL    HW212322   1.040   2.674   0.754
 2103SOL     OW12323   0.383   1.707   0.809
 2103SOL    HW112324   0.353   1.761   0.888
 2103SOL    HW212325   0.321   1.630   0.796
 2104SOL     OW12326   3.436   5.336   0.060
 2104SOL    HW112327   3.446   5.271   0.136
 2104SOL    HW212328   3.478   5.423   0.086
 2105SOL     OW12329   2.521   0.457   0.029
 2105SOL    HW112330   2.555   0.523   0.096
 2105SOL    HW212331   2.558   0.367   0.050
 2106SOL     OW12332   2.355   1.530   5.697
 2106SOL    HW112333   2.419   1.455   5.679
 2106SOL    HW212334   2.393   1.591   5.767
 2107SOL     OW12335   0.928   2.235   1.033
 2107SOL    HW112336   1.025   2.223   1.013
 2107SOL    HW212337   0.876   2.161   0.989
 2108SOL     OW12338   0.173   3.376   0.364
 2108SOL    HW112339   0.182   3.404   0.460
 2108SOL    HW212340   0.159   3.277   0.359
 2109SOL     OW12341   1.647   1.179   6.398
 2109SOL    HW112342   1.559   1.135   6.415
 2109SOL    HW212343   1.668   1.175   6.300
 2110SOL     OW12344   0.033   1.902   0.676
 2110SOL    HW112345   0.078   1.938   0.757
 2110SOL    HW212346   0.102   1.868   0.612
 2111SOL     OW12347   1.918   4.966   5.603
 2111SOL    HW112348   1.988   5.031   5.574
 2111SOL    HW212349   1.833   5.015   5.622
 2112SOL     OW12350   3.642   4.782   6.208
 2112SOL    HW112351   3.614   4.867   6.162
 2112SOL    HW212352   3.696   4.727   6.145
 2113SOL     OW12353   3.637   1.951   6.263
 2113SOL    HW112354   3.603   1.878   6.322
 2113SOL    HW212355   3.737   1.951   6.264
 2114SOL     OW12356   2.127   0.907   5.281
 2114SOL    HW112357   2.190   0.966   5.231
 2114SOL    HW212358   2.034   0.919   5.244
 2115SOL     OW12359   1.619   5.330   5.532
 2115SOL    HW112360   1.665   5.377   5.608
 2115SOL    HW212361   1.641   5.377   5.447
 2116SOL     OW12362   4.328   1.866   0.855
 2116SOL    HW112363   4.388   1.934   0.898
 2116SOL    HW212364   4.260   1.835   0.921
 2117SOL     OW12365   1.059   4.997   6.227
 2117SOL    HW112366   1.030   4.993   6.322
 2117SOL    HW212367   1.078   4.905   6.193
 2118SOL     OW12368   3.603   1.409   5.661
 2118SOL    HW112369   3.583   1.490   5.606
 2118SOL    HW212370   3.672   1.432   5.730
 2119SOL     OW12371   4.371   3.778   0.490
 2119SOL    HW112372   4.309   3.844   0.447
 2119SOL    HW212373   4.319   3.719   0.552
 2120SOL     OW12374   6.026   0.454   5.705
 2120SOL    HW112375   5.941   0.493   5.670
 2120SOL    HW212376   6.103   0.512   5.680
 2121SOL     OW12377   1.229   2.604   5.587
 2121SOL    HW112378   1.249   2.512   5.554
 2121SOL    HW212379   1.184   2.598   5.676
 2122SOL     OW12380   3.806   2.808   5.446
 2122SOL    HW112381   3.733   2.872   5.470
 2122SOL    HW212382   3.823   2.813   5.347
 2123SOL     OW12383   0.043   4.470   5.243
 2123SOL    HW112384   0.125   4.421   5.215
 2123SOL    HW212385   0.007   4.522   5.166
 2124SOL     OW12386   4.959   0.573   5.522
 2124SOL    HW112387   4.903   0.615   5.451
 2124SOL    HW212388   4.992   0.484   5.491
 2125SOL     OW12389   5.469   1.293   6.288
 2125SOL    HW112390   5.519   1.220   6.243
 2125SOL    HW212391   5.493   1.381   6.246
 2126SOL     OW12392   4.542   3.245   6.360
 2126SOL    HW112393   4.496   3.273   6.444
 2126SOL    HW212394   4.639   3.269   6.366
 2127SOL     OW12395   5.874   2.107   0.067
 2127SOL    HW112396   5.936   2.175   0.028
 2127SOL    HW212397   5.823   2.062   6.590
 2128SOL     OW12398   1.598   1.107   6.133
 2128SOL    HW112399   1.595   1.176   6.060
 2128SOL    HW212400   1.684   1.057   6.129
 2129SOL     OW12401   1.704   1.388   1.774
 2129SOL    HW112402   1.790   1.338   1.787
 2129SOL    HW212403   1.722   1.476   1.731
 2130SOL     OW12404   3.103   2.870   1.075
 2130SOL    HW112405   3.155   2.928   1.137
 2130SOL    HW212406   3.009   2.902   1.070
 2131SOL     OW12407   5.412   5.296   5.146
 2131SOL    HW112408   5.435   5.205   5.111
 2131SOL    HW212409   5.494   5.353   5.147
 2132SOL     OW12410   2.584   5.684   0.946
 2132SOL    HW112411   2.630   5.751   0.888
 2132SOL    HW212412   2.528   5.732   1.014
 2133SOL     OW12413   4.763   3.125   0.008
 2133SOL    HW112414   4.800   3.188   6.536
 2133SOL    HW212415   4.724   3.176   0.084
 2134SOL     OW12416   0.465   5.411   1.481
 2134SOL    HW112417   0.518   5.481   1.431
 2134SOL    HW212418   0.514   5.324   1.478
 2135SOL     OW12419   2.301   3.093   6.177
 2135SOL    HW112420   2.357   3.046   6.109
 2135SOL    HW212421   2.360   3.135   6.246
 2136SOL     OW12422   1.025   0.043   5.769
 2136SOL    HW112423   0.936   0.055   5.723
 2136SOL    HW212424   1.028   6.396   5.811
 2137SOL     OW12425   2.201   1.140   0.640
 2137SOL    HW112426   2.204   1.172   0.546
 2137SOL    HW212427   2.286   1.091   0.662
 2138SOL     OW12428   2.800   5.740   0.750
 2138SOL    HW112429   2.786   5.646   0.721
 2138SOL    HW212430   2.898   5.760   0.753
 2139SOL     OW12431   2.265   0.636   1.467
 2139SOL    HW112432   2.239   0.703   1.536
 2139SOL    HW212433   2.351   0.593   1.494
 2140SOL     OW12434   2.148   5.136   0.958
 2140SOL    HW112435   2.215   5.108   0.890
 2140SOL    HW212436   2.159   5.233   0.978
 2141SOL     OW12437   5.113   5.183   0.356
 2141SOL    HW112438   5.054   5.140   0.425
 2141SOL    HW212439   5.183   5.117   0.327
 2142SOL     OW12440   5.707   4.790   6.211
 2142SOL    HW112441   5.735   4.769   6.117
 2142SOL    HW212442   5.749   4.876   6.240
 2143SOL     OW12443   5.591   2.950   5.412
 2143SOL    HW112444   5.663   2.893   5.371
 2143SOL    HW212445   5.521   2.969   5.344
 2144SOL     OW12446   5.469   3.137   5.675
 2144SOL    HW112447   5.458   3.193   5.593
 2144SOL    HW212448   5.554   3.162   5.721
 2145SOL     OW12449   4.245   4.333   5.344
 2145SOL    HW112450   4.173   4.297   5.285
 2145SOL    HW212451   4.303   4.395   5.291
 2146SOL     OW12452   1.472   4.970   0.501
 2146SOL    HW112453   1.481   4.996   0.597
 2146SOL    HW212454   1.394   4.909   0.490
 2147SOL     OW12455   0.703   2.361   0.381
 2147SOL    HW112456   0.783   2.357   0.440
 2147SOL    HW212457   0.690   2.272   0.336
 2148SOL     OW12458   4.038   1.388   5.676
 2148SOL    HW112459   4.007   1.483   5.676
 2148SOL    HW212460   4.137   1.385   5.661
 2149SOL     OW12461   4.890   4.344   5.756
 2149SOL    HW112462   4.865   4.248   5.743
 2149SOL    HW212463   4.988   4.351   5.772
 2150SOL     OW12464   4.090   4.891   0.579
 2150SOL    HW112465   4.044   4.815   0.531
 2150SOL    HW212466   4.074   4.976   0.529
 2151SOL     OW12467   5.857   3.652   0.946
 2151SOL    HW112468   5.843   3.558   0.977
 2151SOL    HW212469   5.813   3.715   1.010
 2152SOL     OW12470   4.443   6.248   6.069
 2152SOL    HW112471   4.494   6.213   5.991
 2152SOL    HW212472   4.352   6.278   6.039
 2153SOL     OW12473   4.950   4.729   1.283
 2153SOL    HW112474   4.978   4.756   1.375
 2153SOL    HW212475   4.881   4.657   1.289
 2154SOL     OW12476   1.165   1.948   5.476
 2154SOL    HW112477   1.088   1.980   5.530
 2154SOL    HW212478   1.135   1.880   5.410
 2155SOL     OW12479   4.215   1.146   0.503
 2155SOL    HW112480   4.128   1.096   0.498
 2155SOL    HW212481   4.197   1.244   0.507
 2156SOL     OW12482   1.199   2.215   0.969
 2156SOL    HW112483   1.168   2.213   0.874
 2156SOL    HW212484   1.291   2.176   0.975
 2157SOL     OW12485   1.337   3.946   5.279
 2157SOL    HW112486   1.390   3.965   5.195
 2157SOL    HW212487   1.260   3.887   5.256
 2158SOL     OW12488   3.735   3.177   5.888
 2158SOL    HW112489   3.732   3.088   5.842
 2158SOL    HW212490   3.828   3.213   5.884
 2159SOL     OW12491   2.495   4.154   0.856
 2159SOL    HW112492   2.593   4.136   0.853
 2159SOL    HW212493   2.451   4.088   0.916
 2160SOL     OW12494   4.774   2.827   6.309
 2160SOL    HW112495   4.792   2.790   6.400
 2160SOL    HW212496   4.702   2.896   6.314
 2161SOL     OW12497   0.720   2.167   4.906
 2161SOL    HW112498   0.813   2.170   4.868
 2161SOL    HW212499   0.669   2.093   4.862
 2162SOL     OW12500   6.208   2.268   6.309
 2162SOL    HW112501   6.214   2.348   6.249
 2162SOL    HW212502   6.293   2.215   6.302
 2163SOL     OW12503   2.965   0.388   0.627
 2163SOL    HW112504   2.980   0.343   0.538
 2163SOL    HW212505   2.882   0.350   0.669
 2164SOL     OW12506   0.964   2.952   6.249
 2164SOL    HW112507   0.922   3.023   6.304
 2164SOL    HW212508   0.937   2.964   6.153
 2165SOL     OW12509   0.469   6.235   6.498
 2165SOL    HW112510   0.494   6.261   6.405
 2165SOL    HW212511   0.424   6.312   6.544
 2166SOL     OW12512   5.138   5.877   0.252
 2166SOL    HW112513   5.100   5.832   0.332
 2166SOL    HW212514   5.180   5.810   0.192
 2167SOL     OW12515   2.300   1.316   5.358
 2167SOL    HW112516   2.225   1.365   5.404
 2167SOL    HW212517   2.352   1.264   5.426
 2168SOL     OW12518   5.002   4.340   1.388
 2168SOL    HW112519   4.960   4.294   1.466
 2168SOL    HW212520   4.941   4.412   1.355
 2169SOL     OW12521   5.210   6.068   5.634
 2169SOL    HW112522   5.124   6.020   5.651
 2169SOL    HW212523   5.264   6.070   5.718
 2170SOL     OW12524   2.892   6.059   5.843
 2170SOL    HW112525   2.874   6.014   5.756
 2170SOL    HW212526   2.911   5.989   5.913
 2171SOL     OW12527   5.076   3.115   0.046
 2171SOL    HW112528   5.028   3.085   6.560
 2171SOL    HW212529   5.144   3.046   0.072
 2172SOL     OW12530   2.586   3.669   0.588
 2172SOL    HW112531   2.611   3.590   0.531
 2172SOL    HW212532   2.573   3.639   0.682
 2173SOL     OW12533   5.581   4.562   0.355
 2173SOL    HW112534   5.490   4.576   0.318
 2173SOL    HW212535   5.643   4.631   0.318
 2174SOL     OW12536   1.171   4.070   6.270
 2174SOL    HW112537   1.247   4.078   6.334
 2174SOL    HW212538   1.149   3.973   6.256
 2175SOL     OW12539   3.531   3.144   5.058
 2175SOL    HW112540   3.610   3.196   5.091
 2175SOL    HW212541   3.558   3.087   4.980
 2176SOL     OW12542   6.278   3.475   0.665
 2176SOL    HW112543   6.333   3.477   0.749
 2176SOL    HW212544   6.186   3.510   0.684
 2177SOL     OW12545   2.718   4.055   1.736
 2177SOL    HW112546   2.690   4.136   1.785
 2177SOL    HW212547   2.701   3.974   1.792
 2178SOL     OW12548   0.530   1.963   6.582
 2178SOL    HW112549   0.450   1.962   0.045
 2178SOL    HW212550   0.569   2.055   6.579
 2179SOL     OW12551   4.847   5.284   0.306
 2179SOL    HW112552   4.841   5.313   0.211
 2179SOL    HW212553   4.938   5.247   0.324
 2180SOL     OW12554   5.192   2.103   5.375
 2180SOL    HW112555   5.126   2.133   5.306
 2180SOL    HW212556   5.285   2.116   5.340
 2181SOL     OW12557   3.037   4.488   6.423
 2181SOL    HW112558   3.080   4.405   6.459
 2181SOL    HW212559   3.048   4.563   6.489
 2182SOL     OW12560   4.777   1.193   0.224
 2182SOL    HW112561   4.730   1.191   0.312
 2182SOL    HW212562   4.717   1.156   0.153
 2183SOL     OW12563   2.586   3.405   6.325
 2183SOL    HW112564   2.504   3.437   6.373
 2183SOL    HW212565   2.637   3.484   6.290
 2184SOL     OW12566   1.556   0.305   5.176
 2184SOL    HW112567   1.631   0.243   5.201
 2184SOL    HW212568   1.558   0.321   5.077
 2185SOL     OW12569   5.589   2.176   5.949
 2185SOL    HW112570   5.655   2.209   6.016
 2185SOL    HW212571   5.603   2.224   5.862
 2186SOL     OW12572   2.790   4.059   1.466
 2186SOL    HW112573   2.764   4.064   1.562
 2186SOL    HW212574   2.886   4.032   1.459
 2187SOL     OW12575   0.811   1.233   0.528
 2187SOL    HW112576   0.723   1.273   0.552
 2187SOL    HW212577   0.806   1.133   0.539
 2188SOL     OW12578   3.954   1.789   4.854
 2188SOL    HW112579   4.041   1.838   4.864
 2188SOL    HW212580   3.958   1.731   4.773
 2189SOL     OW12581   1.805   3.693   0.872
 2189SOL    HW112582   1.778   3.598   0.852
 2189SOL    HW212583   1.736   3.735   0.931
 2190SOL     OW12584   1.756   5.833   5.382
 2190SOL    HW112585   1.790   5.855   5.291
 2190SOL    HW212586   1.816   5.874   5.451
 2191SOL     OW12587   6.401   3.728   1.565
 2191SOL    HW112588   0.082   3.735   1.571
 2191SOL    HW212589   6.371   3.641   1.604
 2192SOL     OW12590   4.750   3.550   5.175
 2192SOL    HW112591   4.755   3.493   5.093
 2192SOL    HW212592   4.732   3.645   5.149
 2193SOL     OW12593   3.674   6.414   5.544
 2193SOL    HW112594   3.699   6.427   5.448
 2193SOL    HW212595   3.646   0.058   5.584
 2194SOL     OW12596   6.094   2.579   5.864
 2194SOL    HW112597   6.029   2.600   5.791
 2194SOL    HW212598   6.061   2.500   5.916
 2195SOL     OW12599   2.448   0.611   5.908
 2195SOL    HW112600   2.381   0.551   5.952
 2195SOL    HW212601   2.401   0.683   5.857
 2196SOL     OW12602   2.716   6.382   4.975
 2196SOL    HW112603   2.755   6.309   5.031
 2196SOL    HW212604   2.710   6.351   4.880
 2197SOL     OW12605   6.145   4.960   1.626
 2197SOL    HW112606   6.188   5.050   1.625
 2197SOL    HW212607   6.132   4.930   1.720
 2198SOL     OW12608   6.083   0.273   5.894
 2198SOL    HW112609   6.048   0.351   5.842
 2198SOL    HW212610   6.081   0.191   5.837
 2199SOL     OW12611   6.324   0.269   0.697
 2199SOL    HW112612   6.293   0.175   0.681
 2199SOL    HW212613   6.318   0.291   0.794
 2200SOL     OW12614   6.262   4.396   5.833
 2200SOL    HW112615   6.300   4.353   5.751
 2200SOL    HW212616   6.275   4.334   5.911
 2201SOL     OW12617   0.005   2.702   5.669
 2201SOL    HW112618   6.363   2.682   5.592
 2201SOL    HW212619   6.409   2.796   5.699
 2202SOL     OW12620   4.324   1.771   5.610
 2202SOL    HW112621   4.381   1.708   5.558
 2202SOL    HW212622   4.382   1.834   5.662
 2203SOL     OW12623   3.963   1.582   5.402
 2203SOL    HW112624   3.947   1.652   5.332
 2203SOL    HW212625   3.888   1.517   5.402
 2204SOL     OW12626   3.774   2.012   5.986
 2204SOL    HW112627   3.801   1.992   5.891
 2204SOL    HW212628   3.675   2.011   5.993
 2205SOL     OW12629   1.880   3.349   1.114
 2205SOL    HW112630   1.811   3.287   1.078
 2205SOL    HW212631   1.836   3.426   1.160
 2206SOL     OW12632   1.719   1.786   6.333
 2206SOL    HW112633   1.801   1.765   6.279
 2206SOL    HW212634   1.642   1.733   6.298
 2207SOL     OW12635   2.546   3.288   6.068
 2207SOL    HW112636   2.488   3.337   6.003
 2207SOL    HW212637   2.544   3.336   6.156
 2208SOL     OW12638   0.037   2.562   0.183
 2208SOL    HW112639   0.118   2.504   0.170
 2208SOL    HW212640   0.031   2.590   0.279
 2209SOL     OW12641   1.551   2.170   0.020
 2209SOL    HW112642   1.459   2.196   6.589
 2209SOL    HW212643   1.593   2.114   6.545
 2210SOL     OW12644   5.046   5.778   0.485
 2210SOL    HW112645   5.040   5.831   0.569
 2210SOL    HW212646   4.954   5.751   0.455
 2211SOL     OW12647   0.172   0.198   6.433
 2211SOL    HW112648   0.086   0.195   6.483
 2211SOL    HW212649   0.243   0.152   6.485
 2212SOL     OW12650   2.749   4.491   0.066
 2212SOL    HW112651   2.817   4.418   0.061
 2212SOL    HW212652   2.774   4.564   0.002
 2213SOL     OW12653   5.044   0.426   6.327
 2213SOL    HW112654   4.966   0.378   6.287
 2213SOL    HW212655   5.055   0.515   6.282
 2214SOL     OW12656   5.494   5.294   0.176
 2214SOL    HW112657   5.490   5.270   0.079
 2214SOL    HW212658   5.403   5.323   0.206
 2215SOL     OW12659   3.078   1.178   0.384
 2215SOL    HW112660   3.114   1.135   0.301
 2215SOL    HW212661   3.110   1.127   0.464
 2216SOL     OW12662   3.730   2.793   1.112
 2216SOL    HW112663   3.780   2.828   1.033
 2216SOL    HW212664   3.758   2.699   1.130
 2217SOL     OW12665   4.173   4.950   6.319
 2217SOL    HW112666   4.096   4.969   6.381
 2217SOL    HW212667   4.251   4.918   6.372
 2218SOL     OW12668   3.151   2.077   0.478
 2218SOL    HW112669   3.207   2.019   0.418
 2218SOL    HW212670   3.210   2.125   0.543
 2219SOL     OW12671   4.972   6.293   0.860
 2219SOL    HW112672   4.952   6.273   0.764
 2219SOL    HW212673   4.912   6.366   0.893
 2220SOL     OW12674   2.278   0.905   5.550
 2220SOL    HW112675   2.225   0.838   5.603
 2220SOL    HW212676   2.265   0.889   5.453
 2221SOL     OW12677   5.683   5.215   6.136
 2221SOL    HW112678   5.602   5.157   6.145
 2221SOL    HW212679   5.688   5.277   6.215
 2222SOL     OW12680   3.082   4.114   1.451
 2222SOL    HW112681   3.110   4.018   1.451
 2222SOL    HW212682   3.155   4.170   1.411
 2223SOL     OW12683   5.161   4.711   6.299
 2223SOL    HW112684   5.227   4.666   6.359
 2223SOL    HW212685   5.135   4.648   6.225
 2224SOL     OW12686   0.011   4.261   0.901
 2224SOL    HW112687   0.074   4.234   0.974
 2224SOL    HW212688   6.355   4.315   0.939
 2225SOL     OW12689   0.756   0.965   0.917
 2225SOL    HW112690   0.729   0.946   1.012
 2225SOL    HW212691   0.675   0.987   0.863
 2226SOL     OW12692   5.325   2.999   5.251
 2226SOL    HW112693   5.359   3.091   5.232
 2226SOL    HW212694   5.295   2.956   5.166
 2227SOL     OW12695   5.309   3.328   5.230
 2227SOL    HW112696   5.388   3.288   5.184
 2227SOL    HW212697   5.242   3.357   5.162
 2228SOL     OW12698   4.624   2.173   6.228
 2228SOL    HW112699   4.710   2.158   6.277
 2228SOL    HW212700   4.630   2.131   6.137
 2229SOL     OW12701   1.206   2.182   0.140
 2229SOL    HW112702   1.179   2.137   0.055
 2229SOL    HW212703   1.281   2.131   0.182
 2230SOL     OW12704   1.291   0.228   5.080
 2230SOL    HW112705   1.381   0.237   5.121
 2230SOL    HW212706   1.282   0.291   5.003
 2231SOL     OW12707   3.653   0.684   0.852
 2231SOL    HW112708   3.752   0.668   0.851
 2231SOL    HW212709   3.635   0.780   0.869
 2232SOL     OW12710   6.255   5.790   0.816
 2232SOL    HW112711   6.336   5.831   0.858
 2232SOL    HW212712   6.271   5.692   0.801
 2233SOL     OW12713   5.456   3.348   1.109
 2233SOL    HW112714   5.539   3.293   1.111
 2233SOL    HW212715   5.460   3.412   1.031
 2234SOL     OW12716   5.946   4.955   5.516
 2234SOL    HW112717   5.936   4.940   5.417
 2234SOL    HW212718   5.880   5.023   5.546
 2235SOL     OW12719   2.694   0.074   0.360
 2235SOL    HW112720   2.624   0.013   0.396
 2235SOL    HW212721   2.652   0.143   0.302
 2236SOL     OW12722   0.762   0.326   0.143
 2236SOL    HW112723   0.762   0.408   0.086
 2236SOL    HW212724   0.670   0.311   0.180
 2237SOL     OW12725   4.637   2.247   0.470
 2237SOL    HW112726   4.705   2.174   0.459
 2237SOL    HW212727   4.567   2.217   0.534
 2238SOL     OW12728   2.133   6.351   0.929
 2238SOL    HW112729   2.121   6.278   0.995
 2238SOL    HW212730   2.060   6.347   0.860
 2239SOL     OW12731   5.007   2.376   6.417
 2239SOL    HW112732   4.984   2.287   6.378
 2239SOL    HW212733   4.947   2.394   6.495
 2240SOL     OW12734   4.296   0.373   0.379
 2240SOL    HW112735   4.213   0.428   0.372
 2240SOL    HW212736   4.306   0.340   0.473
 2241SOL     OW12737   1.902   3.508   6.382
 2241SOL    HW112738   1.895   3.510   6.482
 2241SOL    HW212739   1.872   3.596   6.345
 2242SOL     OW12740   6.218   1.084   6.347
 2242SOL    HW112741   6.152   1.064   6.420
 2242SOL    HW212742   6.179   1.153   6.285
 2243SOL     OW12743   1.538   2.451   0.952
 2243SOL    HW112744   1.555   2.393   0.873
 2243SOL    HW212745   1.614   2.442   1.017
 2244SOL     OW12746   1.992   3.922   5.855
 2244SOL    HW112747   1.956   3.852   5.916
 2244SOL    HW212748   1.921   3.951   5.792
 2245SOL     OW12749   2.604   5.089   6.528
 2245SOL    HW112750   2.654   5.135   6.454
 2245SOL    HW212751   2.563   5.005   6.492
 2246SOL     OW12752   0.341   2.337   1.410
 2246SOL    HW112753   0.338   2.398   1.330
 2246SOL    HW212754   0.434   2.335   1.447
 2247SOL     OW12755   0.042   2.786   0.835
 2247SOL    HW112756   0.110   2.824   0.897
 2247SOL    HW212757   0.022   2.852   0.762
 2248SOL     OW12758   5.808   2.940   1.348
 2248SOL    HW112759   5.749   3.018   1.327
 2248SOL    HW212760   5.824   2.887   1.264
 2249SOL     OW12761   3.775   0.263   5.372
 2249SOL    HW112762   3.704   0.196   5.351
 2249SOL    HW212763   3.804   0.308   5.288
 2250SOL     OW12764   0.734   4.835   6.180
 2250SOL    HW112765   0.660   4.867   6.122
 2250SOL    HW212766   0.746   4.737   6.168
 2251SOL     OW12767   5.520   0.636   0.080
 2251SOL    HW112768   5.543   0.678   0.168
 2251SOL    HW212769   5.484   0.705   0.018
 2252SOL     OW12770   2.955   1.951   6.583
 2252SOL    HW112771   3.002   1.989   6.503
 2252SOL    HW212772   2.907   2.025   0.035
 2253SOL     OW12773   4.216   6.364   1.493
 2253SOL    HW112774   4.180   6.278   1.455
 2253SOL    HW212775   4.167   6.385   1.578
 2254SOL     OW12776   5.882   5.019   1.582
 2254SOL    HW112777   5.979   4.999   1.582
 2254SOL    HW212778   5.835   4.962   1.650
 2255SOL     OW12779   0.884   2.993   5.989
 2255SOL    HW112780   0.878   2.908   5.938
 2255SOL    HW212781   0.954   3.052   5.948
 2256SOL     OW12782   1.474   6.180   1.495
 2256SOL    HW112783   1.534   6.244   1.544
 2256SOL    HW212784   1.430   6.119   1.561
 2257SOL     OW12785   2.100   4.905   5.044
 2257SOL    HW112786   2.198   4.895   5.026
 2257SOL    HW212787   2.057   4.953   4.968
 2258SOL     OW12788   1.710   2.918   1.664
 2258SOL    HW112789   1.705   2.858   1.584
 2258SOL    HW212790   1.708   2.863   1.748
 2259SOL     OW12791   0.537   2.350   5.464
 2259SOL    HW112792   0.535   2.253   5.486
 2259SOL    HW212793   0.447   2.391   5.483
 2260SOL     OW12794   0.859   4.601   0.075
 2260SOL    HW112795   0.830   4.510   0.047
 2260SOL    HW212796   0.870   4.659   6.591
 2261SOL     OW12797   0.514   2.005   1.511
 2261SOL    HW112798   0.519   2.055   1.597
 2261SOL    HW212799   0.575   2.049   1.444
 2262SOL     OW12800   1.717   6.421   0.075
 2262SOL    HW112801   1.699   0.052   0.139
 2262SOL    HW212802   1.659   6.431   6.591
 2263SOL     OW12803   5.791   6.110   5.467
 2263SOL    HW112804   5.862   6.090   5.400
 2263SOL    HW212805   5.702   6.082   5.431
 2264SOL     OW12806   3.772   6.419   6.520
 2264SOL    HW112807   3.710   6.349   6.553
 2264SOL    HW212808   3.726   0.030   6.450
 2265SOL     OW12809   4.682   4.967   6.329
 2265SOL    HW112810   4.620   4.973   6.251
 2265SOL    HW212811   4.759   4.907   6.306
 2266SOL     OW12812   3.057   0.307   6.042
 2266SOL    HW112813   3.121   0.231   6.055
 2266SOL    HW212814   3.078   0.353   5.956
 2267SOL     OW12815   4.514   0.656   1.072
 2267SOL    HW112816   4.558   0.722   1.132
 2267SOL    HW212817   4.498   0.571   1.123
 2268SOL     OW12818   2.756   4.064   0.885
 2268SOL    HW112819   2.771   4.032   0.978
 2268SOL    HW212820   2.759   3.986   0.822
 2269SOL     OW12821   5.214   2.080   4.819
 2269SOL    HW112822   5.295   2.028   4.791
 2269SOL    HW212823   5.145   2.077   4.747
 2270SOL     OW12824   4.436   0.057   0.687
 2270SOL    HW112825   4.442   0.045   0.786
 2270SOL    HW212826   4.389   0.143   0.666
 2271SOL     OW12827   5.029   4.809   0.282
 2271SOL    HW112828   4.992   4.737   0.222
 2271SOL    HW212829   5.011   4.785   0.377
 2272SOL     OW12830   6.181   6.306   0.214
 2272SOL    HW112831   6.214   6.364   0.140
 2272SOL    HW212832   6.084   6.324   0.231
 2273SOL     OW12833   2.972   2.097   6.312
 2273SOL    HW112834   2.873   2.092   6.301
 2273SOL    HW212835   3.017   2.050   6.236
 2274SOL     OW12836   1.443   5.444   0.641
 2274SOL    HW112837   1.464   5.541   0.651
 2274SOL    HW212838   1.344   5.431   0.645
 2275SOL     OW12839   1.370   0.548   5.898
 2275SOL    HW112840   1.377   0.472   5.833
 2275SOL    HW212841   1.394   0.634   5.852
 2276SOL     OW12842   5.982   2.536   0.089
 2276SOL    HW112843   5.953   2.630   0.073
 2276SOL    HW212844   5.901   2.477   0.096
 2277SOL     OW12845   3.778   0.159   5.008
 2277SOL    HW112846   3.685   0.196   5.011
 2277SOL    HW212847   3.817   0.174   4.917
 2278SOL     OW12848   4.996   5.414   5.703
 2278SOL    HW112849   5.040   5.325   5.691
 2278SOL    HW212850   4.989   5.435   5.800
 2279SOL     OW12851   1.012   3.711   6.287
 2279SOL    HW112852   1.078   3.691   6.214
 2279SOL    HW212853   1.042   3.666   6.371
 2280SOL     OW12854   1.977   6.172   5.889
 2280SOL    HW112855   2.006   6.206   5.978
 2280SOL    HW212856   2.040   6.101   5.858
 2281SOL     OW12857   6.206   1.123   0.406
 2281SOL    HW112858   6.127   1.062   0.409
 2281SOL    HW212859   6.235   1.135   0.311
 2282SOL     OW12860   3.694   5.989   0.631
 2282SOL    HW112861   3.742   5.957   0.712
 2282SOL    HW212862   3.756   6.042   0.573
 2283SOL     OW12863   3.689   4.454   0.245
 2283SOL    HW112864   3.673   4.553   0.245
 2283SOL    HW212865   3.693   4.420   0.151
 2284SOL     OW12866   2.785   5.843   0.432
 2284SOL    HW112867   2.854   5.865   0.501
 2284SOL    HW212868   2.808   5.889   0.346
 2285SOL     OW12869   5.372   1.566   1.301
 2285SOL    HW112870   5.466   1.597   1.292
 2285SOL    HW212871   5.320   1.631   1.356
 2286SOL     OW12872   1.166   0.922   5.621
 2286SOL    HW112873   1.137   0.826   5.614
 2286SOL    HW212874   1.206   0.951   5.534
 2287SOL     OW12875   2.785   5.493   6.196
 2287SOL    HW112876   2.739   5.578   6.172
 2287SOL    HW212877   2.818   5.448   6.113
 2288SOL     OW12878   4.614   4.511   5.007
 2288SOL    HW112879   4.623   4.498   4.908
 2288SOL    HW212880   4.663   4.595   5.033
 2289SOL     OW12881   5.387   2.766   0.455
 2289SOL    HW112882   5.385   2.716   0.542
 2289SOL    HW212883   5.294   2.792   0.429
 2290SOL     OW12884   0.224   6.359   5.698
 2290SOL    HW112885   0.190   6.266   5.713
 2290SOL    HW212886   0.264   6.365   5.606
 2291SOL     OW12887   4.622   0.315   0.849
 2291SOL    HW112888   4.672   0.363   0.778
 2291SOL    HW212889   4.670   0.231   0.874
 2292SOL     OW12890   4.698   5.607   1.461
 2292SOL    HW112891   4.765   5.576   1.528
 2292SOL    HW212892   4.687   5.538   1.390
 2293SOL     OW12893   3.287   5.130   0.959
 2293SOL    HW112894   3.290   5.137   0.859
 2293SOL    HW212895   3.192   5.122   0.989
 2294SOL     OW12896   2.255   0.674   5.325
 2294SOL    HW112897   2.209   0.762   5.317
 2294SOL    HW212898   2.217   0.609   5.259
 2295SOL     OW12899   2.743   5.028   6.108
 2295SOL    HW112900   2.716   5.100   6.172
 2295SOL    HW212901   2.779   4.950   6.159
 2296SOL     OW12902   1.875   4.008   0.415
 2296SOL    HW112903   1.956   4.016   0.357
 2296SOL    HW212904   1.842   3.913   0.413
 2297SOL     OW12905   0.128   5.320   6.249
 2297SOL    HW112906   0.205   5.259   6.270
 2297SOL    HW212907   0.079   5.286   6.169
 2298SOL     OW12908   1.658   0.179   5.925
 2298SOL    HW112909   1.720   0.250   5.959
 2298SOL    HW212910   1.564   0.212   5.932
 2299SOL     OW12911   0.336   2.042   6.341
 2299SOL    HW112912   0.248   2.018   6.381
 2299SOL    HW212913   0.409   2.016   6.404
 2300SOL     OW12914   2.586   0.115   5.503
 2300SOL    HW112915   2.534   0.114   5.418
 2300SOL    HW212916   2.647   0.195   5.503
 2301SOL     OW12917   2.856   1.232   0.082
 2301SOL    HW112918   2.936   1.221   0.023
 2301SOL    HW212919   2.802   1.311   0.050
 2302SOL     OW12920   6.157   4.766   6.034
 2302SOL    HW112921   6.113   4.751   5.945
 2302SOL    HW212922   6.257   4.769   6.021
 2303SOL     OW12923   1.736   4.780   5.801
 2303SOL    HW112924   1.702   4.863   5.756
 2303SOL    HW212925   1.800   4.805   5.874
 2304SOL     OW12926   4.401   1.710   6.298
 2304SOL    HW112927   4.426   1.696   6.393
 2304SOL    HW212928   4.302   1.707   6.288
 2305SOL     OW12929   2.480   0.610   5.187
 2305SOL    HW112930   2.399   0.646   5.234
 2305SOL    HW212931   2.452   0.573   5.098
 2306SOL     OW12932   0.825   6.314   6.518
 2306SOL    HW112933   0.831   6.391   6.454
 2306SOL    HW212934   0.799   6.349   0.012
 2307SOL     OW12935   0.462   5.211   5.760
 2307SOL    HW112936   0.416   5.207   5.672
 2307SOL    HW212937   0.542   5.150   5.760
 2308SOL     OW12938   4.574   4.263   6.525
 2308SOL    HW112939   4.658   4.220   6.558
 2308SOL    HW212940   4.502   4.195   6.516
 2309SOL     OW12941   1.870   0.295   0.346
 2309SOL    HW112942   1.954   0.252   0.381
 2309SOL    HW212943   1.796   0.228   0.345
 2310SOL     OW12944   1.746   5.067   5.270
 2310SOL    HW112945   1.727   5.133   5.342
 2310SOL    HW212946   1.749   5.113   5.182
 2311SOL     OW12947   4.498   2.792   0.648
 2311SOL    HW112948   4.488   2.864   0.717
 2311SOL    HW212949   4.536   2.710   0.691
 2312SOL     OW12950   4.426   1.842   5.300
 2312SOL    HW112951   4.499   1.847   5.232
 2312SOL    HW212952   4.444   1.767   5.363
 2313SOL     OW12953   3.425   5.990   0.048
 2313SOL    HW112954   3.359   6.023   0.116
 2313SOL    HW212955   3.438   5.892   0.060
 2314SOL     OW12956   1.899   1.817   5.199
 2314SOL    HW112957   1.978   1.862   5.157
 2314SOL    HW212958   1.815   1.857   5.164
 2315SOL     OW12959   0.098   1.050   0.882
 2315SOL    HW112960   0.016   1.056   0.938
 2315SOL    HW212961   0.072   1.042   0.786
 2316SOL     OW12962   4.335   2.414   5.873
 2316SOL    HW112963   4.390   2.467   5.938
 2316SOL    HW212964   4.391   2.339   5.836
 2317SOL     OW12965   6.272   3.598   6.237
 2317SOL    HW112966   6.210   3.560   6.168
 2317SOL    HW212967   6.219   3.652   6.303
 2318SOL     OW12968   1.538   0.070   6.198
 2318SOL    HW112969   1.592   0.137   6.146
 2318SOL    HW212970   1.548   6.424   6.156
 2319SOL     OW12971   5.156   1.451   6.150
 2319SOL    HW112972   5.064   1.412   6.141
 2319SOL    HW212973   5.224   1.379   6.140
 2320SOL     OW12974   3.321   6.079   6.048
 2320SOL    HW112975   3.311   6.170   6.089
 2320SOL    HW212976   3.302   6.083   5.950
 2321SOL     OW12977   1.314   2.752   0.607
 2321SOL    HW112978   1.256   2.678   0.642
 2321SOL    HW212979   1.393   2.713   0.560
 2322SOL     OW12980   5.671   4.971   0.693
 2322SOL    HW112981   5.608   4.904   0.731
 2322SOL    HW212982   5.619   5.050   0.660
 2323SOL     OW12983   2.297   6.016   4.259
 2323SOL    HW112984   2.359   6.094   4.247
 2323SOL    HW212985   2.203   6.046   4.244
 2324SOL     OW12986   3.657   5.906   1.904
 2324SOL    HW112987   3.652   6.005   1.892
 2324SOL    HW212988   3.728   5.883   1.971
 2325SOL     OW12989   2.612   3.491   0.831
 2325SOL    HW112990   2.523   3.454   0.857
 2325SOL    HW212991   2.635   3.567   0.891
 2326SOL     OW12992   5.858   3.862   6.079
 2326SOL    HW112993   5.898   3.780   6.120
 2326SOL    HW212994   5.764   3.873   6.114
 2327SOL     OW12995   1.670   4.354   1.326
 2327SOL    HW112996   1.630   4.339   1.417
 2327SOL    HW212997   1.743   4.287   1.312
 2328SOL     OW12998   0.050   3.399   1.440
 2328SOL    HW112999   0.134   3.349   1.459
 2328SOL    HW213000   0.001   3.416   1.525
 2329SOL     OW13001   3.320   2.669   6.238
 2329SOL    HW113002   3.298   2.579   6.199
 2329SOL    HW213003   3.409   2.699   6.204
 2330SOL     OW13004   0.413   0.453   6.344
 2330SOL    HW113005   0.355   0.407   6.277
 2330SOL    HW213006   0.458   0.531   6.302
 2331SOL     OW13007   1.868   5.031   6.220
 2331SOL    HW113008   1.883   5.024   6.319
 2331SOL    HW213009   1.803   5.105   6.201
 2332SOL     OW13010   3.333   1.268   5.504
 2332SOL    HW113011   3.401   1.204   5.468
 2332SOL    HW213012   3.263   1.217   5.553
 2333SOL     OW13013   2.630   2.334   0.794
 2333SOL    HW113014   2.566   2.378   0.856
 2333SOL    HW213015   2.622   2.375   0.703
 2334SOL     OW13016   1.613   2.995   5.559
 2334SOL    HW113017   1.677   3.045   5.502
 2334SOL    HW213018   1.661   2.954   5.636
 2335SOL     OW13019   3.085   0.074   1.130
 2335SOL    HW113020   3.122   0.003   1.191
 2335SOL    HW213021   3.011   0.122   1.176
 2336SOL     OW13022   2.846   5.405   5.618
 2336SOL    HW113023   2.913   5.358   5.676
 2336SOL    HW213024   2.866   5.386   5.522
 2337SOL     OW13025   0.766   3.137   5.308
 2337SOL    HW113026   0.787   3.215   5.250
 2337SOL    HW213027   0.689   3.086   5.269
 2338SOL     OW13028   0.435   5.278   0.103
 2338SOL    HW113029   0.408   5.365   0.062
 2338SOL    HW213030   0.504   5.234   0.046
 2339SOL     OW13031   2.401   4.835   0.301
 2339SOL    HW113032   2.359   4.924   0.285
 2339SOL    HW213033   2.385   4.807   0.396
 2340SOL     OW13034   4.625   4.196   5.774
 2340SOL    HW113035   4.687   4.119   5.782
 2340SOL    HW213036   4.548   4.185   5.837
 2341SOL     OW13037   0.410   4.621   0.511
 2341SOL    HW113038   0.427   4.663   0.422
 2341SOL    HW213039   0.316   4.641   0.540
 2342SOL     OW13040   1.711   5.514   5.118
 2342SOL    HW113041   1.787   5.575   5.094
 2342SOL    HW213042   1.626   5.567   5.119
 2343SOL     OW13043   3.997   3.594   6.556
 2343SOL    HW113044   3.928   3.563   6.490
 2343SOL    HW213045   3.975   3.686   6.587
 2344SOL     OW13046   1.687   2.803   6.558
 2344SOL    HW113047   1.605   2.752   6.583
 2344SOL    HW213048   1.710   2.784   6.462
 2345SOL     OW13049   2.322   0.657   0.233
 2345SOL    HW113050   2.308   0.560   0.251
 2345SOL    HW213051   2.336   0.705   0.319
 2346SOL     OW13052   4.549   3.884   0.279
 2346SOL    HW113053   4.488   3.825   0.332
 2346SOL    HW213054   4.601   3.942   0.342
 2347SOL     OW13055   3.691   3.225   0.568
 2347SOL    HW113056   3.764   3.257   0.628
 2347SOL    HW213057   3.728   3.157   0.504
 2348SOL     OW13058   5.157   0.582   1.100
 2348SOL    HW113059   5.157   0.613   1.195
 2348SOL    HW213060   5.213   0.500   1.092
 2349SOL     OW13061   3.676   5.190   5.849
 2349SOL    HW113062   3.758   5.208   5.904
 2349SOL    HW213063   3.679   5.096   5.815
 2350SOL     OW13064   0.328   1.131   0.463
 2350SOL    HW113065   0.242   1.181   0.479
 2350SOL    HW213066   0.367   1.159   0.376
 2351SOL     OW13067   3.281   3.032   6.191
 2351SOL    HW113068   3.323   3.029   6.281
 2351SOL    HW213069   3.347   3.003   6.122
 2352SOL     OW13070   0.054   2.221   0.407
 2352SOL    HW113071   6.400   2.241   0.474
 2352SOL    HW213072   0.136   2.273   0.430
 2353SOL     OW13073   3.979   6.267   4.877
 2353SOL    HW113074   3.938   6.192   4.929
 2353SOL    HW213075   4.036   6.230   4.804
 2354SOL     OW13076   5.288   6.000   6.314
 2354SOL    HW113077   5.381   6.036   6.307
 2354SOL    HW213078   5.271   5.938   6.237
 2355SOL     OW13079   1.305   3.019   5.538
 2355SOL    HW113080   1.292   2.986   5.445
 2355SOL    HW213081   1.394   2.989   5.572
 2356SOL     OW13082   5.521   3.254   1.647
 2356SOL    HW113083   5.461   3.323   1.688
 2356SOL    HW213084   5.603   3.244   1.704
 2357SOL     OW13085   4.789   0.519   0.241
 2357SOL    HW113086   4.878   0.480   0.264
 2357SOL    HW213087   4.733   0.450   0.195
 2358SOL     OW13088   1.088   3.303   1.328
 2358SOL    HW113089   1.064   3.299   1.426
 2358SOL    HW213090   1.168   3.362   1.316
 2359SOL     OW13091   0.133   2.658   5.283
 2359SOL    HW113092   0.090   2.742   5.317
 2359SOL    HW213093   0.070   2.582   5.297
 2360SOL     OW13094   4.938   3.419   0.926
 2360SOL    HW113095   4.898   3.486   0.865
 2360SOL    HW213096   4.866   3.375   0.979
 2361SOL     OW13097   5.235   0.081   6.222
 2361SOL    HW113098   5.312   0.018   6.210
 2361SOL    HW213099   5.193   0.101   6.133
 2362SOL     OW13100   3.606   0.075   6.244
 2362SOL    HW113101   3.634   0.154   6.190
 2362SOL    HW213102   3.547   0.105   6.319
 2363SOL     OW13103   4.238   1.511   0.052
 2363SOL    HW113104   4.204   1.497   6.556
 2363SOL    HW213105   4.161   1.515   0.116
 2364SOL     OW13106   5.227   3.827   5.062
 2364SOL    HW113107   5.183   3.888   4.997
 2364SOL    HW213108   5.314   3.867   5.092
 2365SOL     OW13109   2.675   5.229   6.294
 2365SOL    HW113110   2.746   5.299   6.284
 2365SOL    HW213111   2.585   5.273   6.289
 2366SOL     OW13112   1.905   0.796   5.736
 2366SOL    HW113113   1.904   0.853   5.654
 2366SOL    HW213114   1.983   0.822   5.793
 2367SOL     OW13115   3.445   1.689   0.374
 2367SOL    HW113116   3.468   1.605   0.326
 2367SOL    HW213117   3.436   1.670   0.472
 2368SOL     OW13118   4.611   4.700   0.705
 2368SOL    HW113119   4.649   4.626   0.760
 2368SOL    HW213120   4.682   4.767   0.685
 2369SOL     OW13121   0.833   4.576   0.343
 2369SOL    HW113122   0.846   4.672   0.367
 2369SOL    HW213123   0.830   4.567   0.243
 2370SOL     OW13124   3.710   2.319   0.689
 2370SOL    HW113125   3.712   2.407   0.642
 2370SOL    HW213126   3.642   2.322   0.763
 2371SOL     OW13127   4.994   0.748   5.724
 2371SOL    HW113128   5.057   0.820   5.696
 2371SOL    HW213129   4.985   0.680   5.651
 2372SOL     OW13130   4.440   0.030   0.407
 2372SOL    HW113131   4.450   6.374   0.402
 2372SOL    HW213132   4.439   0.058   0.502
 2373SOL     OW13133   6.300   0.046   5.996
 2373SOL    HW113134   6.256   0.134   5.979
 2373SOL    HW213135   6.252   6.443   6.071
 2374SOL     OW13136   3.641   4.859   4.640
 2374SOL    HW113137   3.633   4.856   4.740
 2374SOL    HW213138   3.571   4.801   4.599
 2375SOL     OW13139   4.328   2.931   0.084
 2375SOL    HW113140   4.278   3.002   0.134
 2375SOL    HW213141   4.370   2.868   0.149
 2376SOL     OW13142   4.882   2.599   0.270
 2376SOL    HW113143   4.821   2.653   0.328
 2376SOL    HW213144   4.915   2.656   0.194
 2377SOL     OW13145   5.969   4.860   0.200
 2377SOL    HW113146   5.984   4.937   0.263
 2377SOL    HW213147   6.013   4.879   0.113
 2378SOL     OW13148   0.765   4.941   5.170
 2378SOL    HW113149   0.719   4.997   5.101
 2378SOL    HW213150   0.836   4.885   5.127
 2379SOL     OW13151   1.003   2.986   0.312
 2379SOL    HW113152   1.076   3.010   0.377
 2379SOL    HW213153   1.004   2.887   0.296
 2380SOL     OW13154   0.672   3.600   1.465
 2380SOL    HW113155   0.678   3.651   1.551
 2380SOL    HW213156   0.587   3.546   1.465
 2381SOL     OW13157   2.227   5.674   5.917
 2381SOL    HW113158   2.131   5.667   5.944
 2381SOL    HW213159   2.241   5.626   5.830
 2382SOL     OW13160   1.544   6.081   0.025
 2382SOL    HW113161   1.569   6.087   6.525
 2382SOL    HW213162   1.598   6.146   0.078
 2383SOL     OW13163   1.189   0.109   1.511
 2383SOL    HW113164   1.111   0.135   1.567
 2383SOL    HW213165   1.271   0.103   1.568
 2384SOL     OW13166   0.894   4.707   6.419
 2384SOL    HW113167   0.991   4.730   6.422
 2384SOL    HW213168   0.848   4.765   6.353
 2385SOL     OW13169   4.984   5.034   0.545
 2385SOL    HW113170   4.910   5.050   0.611
 2385SOL    HW213171   4.987   4.936   0.522
 2386SOL     OW13172   3.846   5.979   5.690
 2386SOL    HW113173   3.782   6.055   5.681
 2386SOL    HW213174   3.840   5.941   5.782
 2387SOL     OW13175   0.959   0.223   5.446
 2387SOL    HW113176   1.007   0.159   5.385
 2387SOL    HW213177   0.961   0.187   5.540
 2388SOL     OW13178   2.144   5.266   6.059
 2388SOL    HW113179   2.219   5.205   6.032
 2388SOL    HW213180   2.058   5.232   6.021
 2389SOL     OW13181   3.079   3.603   1.895
 2389SOL    HW113182   3.164   3.554   1.879
 2389SOL    HW213183   3.003   3.537   1.901
 2390SOL     OW13184   3.433   2.346   6.320
 2390SOL    HW113185   3.391   2.372   6.233
 2390SOL    HW213186   3.369   2.290   6.372
 2391SOL     OW13187   0.719   1.910   6.393
 2391SOL    HW113188   0.652   1.907   6.468
 2391SOL    HW213189   0.685   1.972   6.322
 2392SOL     OW13190   2.419   5.038   6.283
 2392SOL    HW113191   2.348   4.984   6.329
 2392SOL    HW213192   2.473   4.979   6.223
 2393SOL     OW13193   2.867   5.268   1.447
 2393SOL    HW113194   2.867   5.181   1.496
 2393SOL    HW213195   2.927   5.332   1.495
 2394SOL     OW13196   1.859   2.137   6.048
 2394SOL    HW113197   1.777   2.081   6.064
 2394SOL    HW213198   1.871   2.201   6.124
 2395SOL     OW13199   0.712   3.986   5.743
 2395SOL    HW113200   0.671   3.962   5.655
 2395SOL    HW213201   0.744   3.903   5.788
 2396SOL     OW13202   4.383   3.855   6.232
 2396SOL    HW113203   4.393   3.948   6.266
 2396SOL    HW213204   4.415   3.850   6.137
 2397SOL     OW13205   2.268   6.393   0.259
 2397SOL    HW113206   2.243   6.339   0.179
 2397SOL    HW213207   2.191   6.398   0.322
 2398SOL     OW13208   4.427   3.348   0.577
 2398SOL    HW113209   4.430   3.258   0.534
 2398SOL    HW213210   4.467   3.416   0.515
 2399SOL     OW13211   5.317   3.583   0.674
 2399SOL    HW113212   5.380   3.534   0.614
 2399SOL    HW213213   5.223   3.569   0.643
 2400SOL     OW13214   2.258   0.389   0.268
 2400SOL    HW113215   2.233   0.327   0.342
 2400SOL    HW213216   2.188   0.387   0.197
 2401SOL     OW13217   0.675   3.775   1.676
 2401SOL    HW113218   0.599   3.783   1.740
 2401SOL    HW213219   0.712   3.866   1.656
 2402SOL     OW13220   0.625   0.911   6.245
 2402SOL    HW113221   0.586   0.836   6.191
 2402SOL    HW213222   0.562   0.937   6.318
 2403SOL     OW13223   3.595   5.768   5.220
 2403SOL    HW113224   3.625   5.851   5.174
 2403SOL    HW213225   3.511   5.734   5.177
 2404SOL     OW13226   5.389   2.135   0.533
 2404SOL    HW113227   5.325   2.175   0.467
 2404SOL    HW213228   5.377   2.036   0.534
 2405SOL     OW13229   3.086   6.120   5.563
 2405SOL    HW113230   3.001   6.097   5.610
 2405SOL    HW213231   3.075   6.106   5.465
 2406SOL     OW13232   2.167   2.214   6.177
 2406SOL    HW113233   2.259   2.247   6.159
 2406SOL    HW213234   2.169   2.147   6.252
 2407SOL     OW13235   0.389   2.171   0.913
 2407SOL    HW113236   0.357   2.262   0.942
 2407SOL    HW213237   0.461   2.141   0.975
 2408SOL     OW13238   6.092   5.417   0.302
 2408SOL    HW113239   6.021   5.483   0.276
 2408SOL    HW213240   6.177   5.465   0.320
 2409SOL     OW13241   3.127   5.535   5.378
 2409SOL    HW113242   3.043   5.580   5.346
 2409SOL    HW213243   3.107   5.439   5.397
 2410SOL     OW13244   2.132   0.200   0.427
 2410SOL    HW113245   2.105   0.249   0.510
 2410SOL    HW213246   2.145   0.104   0.448
 2411SOL     OW13247   4.944   0.896   5.950
 2411SOL    HW113248   4.914   0.980   5.905
 2411SOL    HW213249   4.973   0.830   5.880
 2412SOL     OW13250   2.732   3.122   0.666
 2412SOL    HW113251   2.743   3.134   0.764
 2412SOL    HW213252   2.716   3.025   0.646
 2413SOL     OW13253   3.734   3.363   0.253
 2413SOL    HW113254   3.694   3.452   0.277
 2413SOL    HW213255   3.831   3.363   0.276
 2414SOL     OW13256   2.644   6.084   6.173
 2414SOL    HW113257   2.690   6.051   6.255
 2414SOL    HW213258   2.557   6.127   6.198
 2415SOL     OW13259   4.812   1.476   5.426
 2415SOL    HW113260   4.826   1.574   5.446
 2415SOL    HW213261   4.807   1.463   5.328
 2416SOL     OW13262   1.000   2.522   0.515
 2416SOL    HW113263   1.049   2.560   0.437
 2416SOL    HW213264   0.917   2.576   0.532
 2417SOL     OW13265   2.258   3.720   1.007
 2417SOL    HW113266   2.197   3.720   0.927
 2417SOL    HW213267   2.203   3.719   1.091
 2418SOL     OW13268   5.818   6.257   6.218
 2418SOL    HW113269   5.785   6.351   6.228
 2418SOL    HW213270   5.844   6.221   6.308
 2419SOL     OW13271   3.766   2.283   5.511
 2419SOL    HW113272   3.723   2.367   5.542
 2419SOL    HW213273   3.831   2.251   5.581
 2420SOL     OW13274   3.913   5.121   0.117
 2420SOL    HW113275   3.867   5.122   0.029
 2420SOL    HW213276   4.003   5.163   0.108
 2421SOL     OW13277   3.828   3.170   5.391
 2421SOL    HW113278   3.780   3.211   5.314
 2421SOL    HW213279   3.891   3.100   5.358
 2422SOL     OW13280   4.888   4.150   0.833
 2422SOL    HW113281   4.929   4.076   0.884
 2422SOL    HW213282   4.956   4.191   0.772
 2423SOL     OW13283   3.049   3.158   6.170
 2423SOL    HW113284   3.137   3.111   6.173
 2423SOL    HW213285   3.065   3.256   6.158
 2424SOL     OW13286   1.743   2.517   5.732
 2424SOL    HW113287   1.732   2.422   5.701
 2424SOL    HW213288   1.670   2.573   5.692
 2425SOL     OW13289   0.546   0.989   0.748
 2425SOL    HW113290   0.447   0.986   0.767
 2425SOL    HW213291   0.566   0.933   0.668
 2426SOL     OW13292   1.483   3.724   5.823
 2426SOL    HW113293   1.547   3.686   5.757
 2426SOL    HW213294   1.532   3.748   5.907
 2427SOL     OW13295   6.138   1.158   0.730
 2427SOL    HW113296   6.055   1.116   0.694
 2427SOL    HW213297   6.131   1.257   0.724
 2428SOL     OW13298   4.998   3.685   5.083
 2428SOL    HW113299   4.912   3.736   5.095
 2428SOL    HW213300   5.074   3.750   5.079
 2429SOL     OW13301   4.998   3.966   1.457
 2429SOL    HW113302   5.083   3.925   1.490
 2429SOL    HW213303   4.950   4.008   1.534
 2430SOL     OW13304   2.863   2.351   5.327
 2430SOL    HW113305   2.822   2.442   5.336
 2430SOL    HW213306   2.794   2.281   5.344
 2431SOL     OW13307   6.114   6.266   0.535
 2431SOL    HW113308   6.192   6.329   0.540
 2431SOL    HW213309   6.148   6.171   0.537
 2432SOL     OW13310   1.960   4.678   6.245
 2432SOL    HW113311   1.949   4.760   6.189
 2432SOL    HW213312   1.978   4.600   6.185
 2433SOL     OW13313   2.026   5.885   0.994
 2433SOL    HW113314   2.033   5.794   1.036
 2433SOL    HW213315   2.110   5.906   0.946
 2434SOL     OW13316   6.259   5.104   0.121
 2434SOL    HW113317   6.239   5.129   0.026
 2434SOL    HW213318   6.176   5.112   0.176
 2435SOL     OW13319   1.135   4.470   0.065
 2435SOL    HW113320   1.042   4.495   0.094
 2435SOL    HW213321   1.188   4.442   0.145
 2436SOL     OW13322   4.879   4.786   6.311
 2436SOL    HW113323   4.978   4.773   6.314
 2436SOL    HW213324   4.839   4.719   6.249
 2437SOL     OW13325   5.073   1.117   0.394
 2437SOL    HW113326   5.015   1.177   0.449
 2437SOL    HW213327   5.029   1.099   0.306
 2438SOL     OW13328   4.688   1.334   5.882
 2438SOL    HW113329   4.617   1.284   5.931
 2438SOL    HW213330   4.690   1.429   5.913
 2439SOL     OW13331   3.224   3.889   1.404
 2439SOL    HW113332   3.236   3.866   1.501
 2439SOL    HW213333   3.235   3.806   1.349
 2440SOL     OW13334   5.992   6.252   0.887
 2440SOL    HW113335   5.940   6.217   0.965
 2440SOL    HW213336   5.975   6.196   0.807
 2441SOL     OW13337   4.496   4.438   0.543
 2441SOL    HW113338   4.546   4.522   0.564
 2441SOL    HW213339   4.508   4.415   0.447
 2442SOL     OW13340   1.944   2.570   6.263
 2442SOL    HW113341   2.032   2.618   6.270
 2442SOL    HW213342   1.870   2.637   6.264
 2443SOL     OW13343   3.223   5.176   2.045
 2443SOL    HW113344   3.322   5.163   2.040
 2443SOL    HW213345   3.179   5.087   2.058
 2444SOL     OW13346   0.590   4.841   6.570
 2444SOL    HW113347   0.648   4.808   0.047
 2444SOL    HW213348   0.496   4.808   6.585
 2445SOL     OW13349   4.802   1.476   5.154
 2445SOL    HW113350   4.757   1.391   5.126
 2445SOL    HW213351   4.863   1.507   5.081
 2446SOL     OW13352   4.967   3.169   5.608
 2446SOL    HW113353   4.899   3.228   5.565
 2446SOL    HW213354   5.026   3.224   5.667
 2447SOL     OW13355   1.309   5.779   6.095
 2447SOL    HW113356   1.317   5.851   6.163
 2447SOL    HW213357   1.268   5.817   6.012
 2448SOL     OW13358   4.750   4.743   5.044
 2448SOL    HW113359   4.777   4.751   5.140
 2448SOL    HW213360   4.828   4.764   4.986
 2449SOL     OW13361   1.812   3.118   5.419
 2449SOL    HW113362   1.878   3.076   5.357
 2449SOL    HW213363   1.850   3.203   5.456
 2450SOL     OW13364   3.750   2.013   0.105
 2450SOL    HW113365   3.753   2.064   0.019
 2450SOL    HW213366   3.674   2.047   0.160
 2451SOL     OW13367   0.683   1.522   5.881
 2451SOL    HW113368   0.693   1.570   5.968
 2451SOL    HW213369   0.636   1.435   5.895
 2452SOL     OW13370   3.623   2.557   6.354
 2452SOL    HW113371   3.558   2.481   6.365
 2452SOL    HW213372   3.620   2.590   6.260
 2453SOL     OW13373   3.613   6.437   5.242
 2453SOL    HW113374   3.641   0.015   5.148
 2453SOL    HW213375   3.594   6.339   5.249
 2454SOL     OW13376   0.221   5.438   1.134
 2454SOL    HW113377   0.261   5.528   1.149
 2454SOL    HW213378   0.124   5.449   1.112
 2455SOL     OW13379   0.621   3.571   5.272
 2455SOL    HW113380   0.583   3.493   5.222
 2455SOL    HW213381   0.637   3.646   5.208
 2456SOL     OW13382   3.622   0.824   5.925
 2456SOL    HW113383   3.594   0.733   5.895
 2456SOL    HW213384   3.721   0.826   5.935
 2457SOL     OW13385   2.074   4.709   0.168
 2457SOL    HW113386   2.171   4.690   0.181
 2457SOL    HW213387   2.050   4.696   0.072
 2458SOL     OW13388   5.580   5.975   5.304
 2458SOL    HW113389   5.581   6.019   5.214
 2458SOL    HW213390   5.500   6.005   5.355
 2459SOL     OW13391   0.222   1.100   6.374
 2459SOL    HW113392   0.176   1.163   6.437
 2459SOL    HW213393   0.161   1.025   6.350
 2460SOL     OW13394   0.803   4.184   5.337
 2460SOL    HW113395   0.735   4.210   5.269
 2460SOL    HW213396   0.854   4.265   5.366
 2461SOL     OW13397   2.013   5.436   6.222
 2461SOL    HW113398   1.974   5.375   6.290
 2461SOL    HW213399   2.076   5.385   6.163
 2462SOL     OW13400   6.085   3.506   6.066
 2462SOL    HW113401   6.123   3.444   5.997
 2462SOL    HW213402   5.985   3.502   6.062
 2463SOL     OW13403   1.116   0.489   5.993
 2463SOL    HW113404   1.209   0.509   5.963
 2463SOL    HW213405   1.053   0.495   5.915
 2464SOL     OW13406   0.644   5.816   6.543
 2464SOL    HW113407   0.636   5.907   6.583
 2464SOL    HW213408   0.591   5.751   0.001
 2465SOL     OW13409   0.113   4.402   6.038
 2465SOL    HW113410   0.115   4.433   5.943
 2465SOL    HW213411   0.200   4.357   6.060
 2466SOL     OW13412   2.179   6.014   6.459
 2466SOL    HW113413   2.163   6.010   6.360
 2466SOL    HW213414   2.257   5.957   6.483
 2467SOL     OW13415   2.710   1.549   0.932
 2467SOL    HW113416   2.670   1.549   1.024
 2467SOL    HW213417   2.759   1.635   0.916
 2468SOL     OW13418   4.692   4.975   5.692
 2468SOL    HW113419   4.616   5.034   5.665
 2468SOL    HW213420   4.733   5.011   5.775
 2469SOL     OW13421   3.707   1.000   6.339
 2469SOL    HW113422   3.765   0.933   6.292
 2469SOL    HW213423   3.758   1.042   6.414
 2470SOL     OW13424   2.122   1.136   5.702
 2470SOL    HW113425   2.042   1.140   5.642
 2470SOL    HW213426   2.102   1.186   5.786
 2471SOL     OW13427   0.936   4.784   0.797
 2471SOL    HW113428   0.845   4.770   0.835
 2471SOL    HW213429   0.975   4.696   0.771
 2472SOL     OW13430   4.170   0.012   0.043
 2472SOL    HW113431   4.264   6.439   0.013
 2472SOL    HW213432   4.127   0.077   6.577
 2473SOL     OW13433   0.712   2.170   5.179
 2473SOL    HW113434   0.715   2.184   5.080
 2473SOL    HW213435   0.678   2.078   5.198
 2474SOL     OW13436   5.951   0.915   5.768
 2474SOL    HW113437   5.878   0.903   5.701
 2474SOL    HW213438   6.036   0.938   5.721
 2475SOL     OW13439   0.503   5.662   0.559
 2475SOL    HW113440   0.484   5.636   0.654
 2475SOL    HW213441   0.526   5.580   0.506
 2476SOL     OW13442   4.942   3.222   5.997
 2476SOL    HW113443   4.859   3.273   5.977
 2476SOL    HW213444   5.014   3.249   5.933
 2477SOL     OW13445   6.038   1.666   5.913
 2477SOL    HW113446   6.117   1.674   5.973
 2477SOL    HW213447   6.016   1.570   5.900
 2478SOL     OW13448   4.731   6.194   6.217
 2478SOL    HW113449   4.650   6.177   6.161
 2478SOL    HW213450   4.800   6.241   6.161
 2479SOL     OW13451   4.789   4.521   1.358
 2479SOL    HW113452   4.777   4.526   1.457
 2479SOL    HW213453   4.699   4.512   1.315
 2480SOL     OW13454   5.179   4.971   6.216
 2480SOL    HW113455   5.197   4.874   6.230
 2480SOL    HW213456   5.111   5.002   6.283
 2481SOL     OW13457   6.409   1.757   5.000
 2481SOL    HW113458   0.064   1.691   5.014
 2481SOL    HW213459   0.024   1.849   5.022
 2482SOL     OW13460   2.611   1.325   5.627
 2482SOL    HW113461   2.617   1.334   5.727
 2482SOL    HW213462   2.569   1.238   5.603
 2483SOL     OW13463   4.436   5.389   6.072
 2483SOL    HW113464   4.355   5.441   6.043
 2483SOL    HW213465   4.420   5.292   6.058
 2484SOL     OW13466   0.806   3.882   6.431
 2484SOL    HW113467   0.744   3.815   6.471
 2484SOL    HW213468   0.842   3.847   6.344
 2485SOL     OW13469   4.790   2.030   1.360
 2485SOL    HW113470   4.811   2.115   1.409
 2485SOL    HW213471   4.862   2.011   1.294
 2486SOL     OW13472   5.315   2.250   5.972
 2486SOL    HW113473   5.321   2.337   6.020
 2486SOL    HW213474   5.406   2.210   5.962
 2487SOL     OW13475   0.046   0.933   6.029
 2487SOL    HW113476   0.020   1.029   6.022
 2487SOL    HW213477   0.030   0.901   6.122
 2488SOL     OW13478   1.502   3.789   0.586
 2488SOL    HW113479   1.457   3.716   0.535
 2488SOL    HW213480   1.456   3.803   0.673
 2489SOL     OW13481   3.399   6.264   1.377
 2489SOL    HW113482   3.494   6.258   1.346
 2489SOL    HW213483   3.392   6.229   1.470
 2490SOL     OW13484   2.908   5.021   5.710
 2490SOL    HW113485   2.988   5.068   5.674
 2490SOL    HW213486   2.855   5.084   5.768
 2491SOL     OW13487   2.408   4.367   1.732
 2491SOL    HW113488   2.317   4.408   1.722
 2491SOL    HW213489   2.413   4.283   1.678
 2492SOL     OW13490   5.505   2.596   6.423
 2492SOL    HW113491   5.543   2.505   6.411
 2492SOL    HW213492   5.405   2.591   6.419
 2493SOL     OW13493   5.009   3.512   1.250
 2493SOL    HW113494   4.964   3.488   1.336
 2493SOL    HW213495   5.101   3.473   1.248
 2494SOL     OW13496   0.951   5.809   0.562
 2494SOL    HW113497   1.022   5.766   0.507
 2494SOL    HW213498   0.899   5.873   0.505
 2495SOL     OW13499   2.006   1.942   0.473
 2495SOL    HW113500   2.067   1.900   0.540
 2495SOL    HW213501   2.057   1.964   0.391
 2496SOL     OW13502   1.396   2.056   6.002
 2496SOL    HW113503   1.332   2.129   5.981
 2496SOL    HW213504   1.379   1.978   5.942
 2497SOL     OW13505   3.196   5.637   6.089
 2497SOL    HW113506   3.171   5.542   6.074
 2497SOL    HW213507   3.167   5.666   6.180
 2498SOL     OW13508   0.750   2.684   0.491
 2498SOL    HW113509   0.772   2.702   0.395
 2498SOL    HW213510   0.655   2.655   0.500
 2499SOL     OW13511   6.214   3.470   0.277
 2499SOL    HW113512   6.300   3.520   0.267
 2499SOL    HW213513   6.224   3.379   0.238
 2500SOL     OW13514   3.349   6.388   4.719
 2500SOL    HW113515   3.352   0.013   4.646
 2500SOL    HW213516   3.280   6.319   4.697
 2501SOL     OW13517   1.105   6.174   5.913
 2501SOL    HW113518   1.132   6.078   5.904
 2501SOL    HW213519   1.185   6.231   5.930
 2502SOL     OW13520   5.193   5.431   1.215
 2502SOL    HW113521   5.120   5.481   1.170
 2502SOL    HW213522   5.174   5.426   1.313
 2503SOL     OW13523   3.780   1.608   5.013
 2503SOL    HW113524   3.727   1.523   5.011
 2503SOL    HW213525   3.808   1.632   4.919
 2504SOL     OW13526   6.123   4.317   0.876
 2504SOL    HW113527   6.161   4.336   0.967
 2504SOL    HW213528   6.067   4.396   0.847
 2505SOL     OW13529   2.892   5.038   1.588
 2505SOL    HW113530   2.879   4.955   1.535
 2505SOL    HW213531   2.903   5.015   1.685
 2506SOL     OW13532   0.067   5.523   5.001
 2506SOL    HW113533   0.087   5.619   4.982
 2506SOL    HW213534   0.146   5.467   4.976
 2507SOL     OW13535   1.511   3.112   1.288
 2507SOL    HW113536   1.606   3.124   1.258
 2507SOL    HW213537   1.484   3.188   1.347
 2508SOL     OW13538   0.872   1.947   0.306
 2508SOL    HW113539   0.861   1.912   0.399
 2508SOL    HW213540   0.896   1.872   0.244
 2509SOL     OW13541   2.710   6.011   6.442
 2509SOL    HW113542   2.640   5.941   6.455
 2509SOL    HW213543   2.790   5.989   6.499
 2510SOL     OW13544   3.918   0.743   6.581
 2510SOL    HW113545   4.008   0.741   6.538
 2510SOL    HW213546   3.913   0.818   0.050
 2511SOL     OW13547   4.129   1.477   6.406
 2511SOL    HW113548   4.073   1.408   6.360
 2511SOL    HW213549   4.109   1.567   6.369
 2512SOL     OW13550   2.556   3.493   5.443
 2512SOL    HW113551   2.494   3.561   5.484
 2512SOL    HW213552   2.504   3.434   5.381
 2513SOL     OW13553   5.511   5.044   5.699
 2513SOL    HW113554   5.444   5.007   5.634
 2513SOL    HW213555   5.591   5.077   5.649
 2514SOL     OW13556   6.081   4.895   1.884
 2514SOL    HW113557   6.064   4.803   1.847
 2514SOL    HW213558   6.120   4.887   1.976
 2515SOL     OW13559   4.581   4.665   6.441
 2515SOL    HW113560   4.542   4.635   6.353
 2515SOL    HW213561   4.660   4.723   6.423
 2516SOL     OW13562   0.423   3.638   0.742
 2516SOL    HW113563   0.396   3.716   0.798
 2516SOL    HW213564   0.360   3.562   0.758
 2517SOL     OW13565   3.994   5.169   4.974
 2517SOL    HW113566   3.953   5.122   4.896
 2517SOL    HW213567   4.062   5.109   5.017
 2518SOL     OW13568   5.815   0.566   5.569
 2518SOL    HW113569   5.792   0.646   5.626
 2518SOL    HW213570   5.751   0.492   5.590
 2519SOL     OW13571   5.457   4.669   6.132
 2519SOL    HW113572   5.397   4.715   6.068
 2519SOL    HW213573   5.536   4.727   6.152
 2520SOL     OW13574   0.244   3.660   0.992
 2520SOL    HW113575   0.288   3.571   0.998
 2520SOL    HW213576   0.183   3.672   1.070
 2521SOL     OW13577   2.195   4.943   1.277
 2521SOL    HW113578   2.218   4.974   1.370
 2521SOL    HW213579   2.134   5.008   1.234
 2522SOL     OW13580   3.241   1.407   0.530
 2522SOL    HW113581   3.192   1.391   0.615
 2522SOL    HW213582   3.200   1.352   0.457
 2523SOL     OW13583   1.483   3.033   1.953
 2523SOL    HW113584   1.398   2.997   1.991
 2523SOL    HW213585   1.553   2.961   1.954
 2524SOL     OW13586   5.162   1.189   0.880
 2524SOL    HW113587   5.082   1.132   0.863
 2524SOL    HW213588   5.243   1.131   0.886
 2525SOL     OW13589   0.964   3.771   1.653
 2525SOL    HW113590   0.867   3.771   1.678
 2525SOL    HW213591   0.998   3.865   1.653
 2526SOL     OW13592   3.395   2.765   5.171
 2526SOL    HW113593   3.368   2.794   5.080
 2526SOL    HW213594   3.321   2.711   5.212
 2527SOL     OW13595   1.633   6.334   1.651
 2527SOL    HW113596   1.672   6.322   1.742
 2527SOL    HW213597   1.705   6.364   1.588
 2528SOL     OW13598   0.601   6.242   0.274
 2528SOL    HW113599   0.673   6.224   0.341
 2528SOL    HW213600   0.611   6.336   0.240
 2529SOL     OW13601   4.414   6.398   6.560
 2529SOL    HW113602   4.493   6.427   0.018
 2529SOL    HW213603   4.437   6.402   6.462
 2530SOL     OW13604   2.130   1.448   5.561
 2530SOL    HW113605   2.211   1.484   5.609
 2530SOL    HW213606   2.081   1.385   5.621
 2531SOL     OW13607   3.500   5.633   0.084
 2531SOL    HW113608   3.595   5.661   0.103
 2531SOL    HW213609   3.439   5.674   0.153
 2532SOL     OW13610   5.503   0.034   0.759
 2532SOL    HW113611   5.550   0.019   0.846
 2532SOL    HW213612   5.417   0.082   0.775
 2533SOL     OW13613   4.990   3.518   4.862
 2533SOL    HW113614   4.993   3.590   4.931
 2533SOL    HW213615   4.904   3.468   4.869
 2534SOL     OW13616   4.500   0.474   6.592
 2534SOL    HW113617   4.559   0.394   0.008
 2534SOL    HW213618   4.468   0.506   0.085
 2535SOL     OW13619   2.546   1.125   0.159
 2535SOL    HW113620   2.484   1.049   0.140
 2535SOL    HW213621   2.538   1.152   0.255
 2536SOL     OW13622   1.739   2.622   0.767
 2536SOL    HW113623   1.668   2.685   0.800
 2536SOL    HW213624   1.814   2.674   0.727
 2537SOL     OW13625   4.417   3.724   0.011
 2537SOL    HW113626   4.354   3.778   0.067
 2537SOL    HW213627   4.366   3.653   6.559
 2538SOL     OW13628   0.277   0.893   0.746
 2538SOL    HW113629   0.269   0.796   0.767
 2538SOL    HW213630   0.218   0.945   0.808
 2539SOL     OW13631   0.378   5.781   5.140
 2539SOL    HW113632   0.389   5.880   5.131
 2539SOL    HW213633   0.458   5.742   5.186
 2540SOL     OW13634   6.039   1.367   5.933
 2540SOL    HW113635   5.980   1.361   5.853
 2540SOL    HW213636   6.078   1.277   5.953
 2541SOL     OW13637   2.100   2.738   5.998
 2541SOL    HW113638   2.184   2.702   6.040
 2541SOL    HW213639   2.058   2.667   5.941
 2542SOL     OW13640   0.702   4.677   0.897
 2542SOL    HW113641   0.693   4.731   0.981
 2542SOL    HW213642   0.626   4.699   0.835
 2543SOL     OW13643   4.333   1.234   0.132
 2543SOL    HW113644   4.353   1.326   0.165
 2543SOL    HW213645   4.358   1.167   0.201
 2544SOL     OW13646   1.418   5.342   0.357
 2544SOL    HW113647   1.446   5.426   0.310
 2544SOL    HW213648   1.419   5.358   0.456
 2545SOL     OW13649   2.267   5.506   0.113
 2545SOL    HW113650   2.195   5.451   0.157
 2545SOL    HW213651   2.251   5.508   0.014
 2546SOL     OW13652   4.624   3.304   0.188
 2546SOL    HW113653   4.563   3.326   0.112
 2546SOL    HW213654   4.604   3.364   0.265
 2547SOL     OW13655   3.808   0.249   4.409
 2547SOL    HW113656   3.743   0.325   4.412
 2547SOL    HW213657   3.900   0.284   4.390
 2548SOL     OW13658   3.763   0.409   0.593
 2548SOL    HW113659   3.796   0.391   0.501
 2548SOL    HW213660   3.667   0.382   0.600
 2549SOL     OW13661   1.754   1.979   0.588
 2549SOL    HW113662   1.837   1.979   0.532
 2549SOL    HW213663   1.726   1.884   0.606
 2550SOL     OW13664   4.490   3.257   0.835
 2550SOL    HW113665   4.489   3.300   0.745
 2550SOL    HW213666   4.415   3.294   0.890
 2551SOL     OW13667   5.907   2.989   6.393
 2551SOL    HW113668   5.989   2.979   6.338
 2551SOL    HW213669   5.916   3.068   6.454
 2552SOL     OW13670   2.478   1.809   5.278
 2552SOL    HW113671   2.469   1.711   5.260
 2552SOL    HW213672   2.449   1.828   5.372
 2553SOL     OW13673   3.884   2.955   6.242
 2553SOL    HW113674   3.838   2.907   6.317
 2553SOL    HW213675   3.855   2.916   6.155
 2554SOL     OW13676   0.570   1.949   5.762
 2554SOL    HW113677   0.485   1.949   5.814
 2554SOL    HW213678   0.630   2.020   5.797
 2555SOL     OW13679   3.962   1.614   4.653
 2555SOL    HW113680   3.960   1.531   4.708
 2555SOL    HW213681   3.951   1.591   4.556
 2556SOL     OW13682   1.119   4.378   5.713
 2556SOL    HW113683   1.081   4.448   5.652
 2556SOL    HW213684   1.168   4.423   5.789
 2557SOL     OW13685   4.344   4.207   1.789
 2557SOL    HW113686   4.258   4.245   1.823
 2557SOL    HW213687   4.361   4.242   1.696
 2558SOL     OW13688   6.178   0.291   0.370
 2558SOL    HW113689   6.094   0.250   0.405
 2558SOL    HW213690   6.159   0.341   0.286
 2559SOL     OW13691   5.314   6.441   0.267
 2559SOL    HW113692   5.272   0.057   0.198
 2559SOL    HW213693   5.311   0.043   0.356
 2560SOL     OW13694   1.088   3.058   5.782
 2560SOL    HW113695   1.176   3.085   5.743
 2560SOL    HW213696   1.028   3.026   5.709
 2561SOL     OW13697   4.070   4.717   1.678
 2561SOL    HW113698   4.158   4.761   1.660
 2561SOL    HW213699   4.015   4.775   1.738
 2562SOL     OW13700   0.297   5.165   5.976
 2562SOL    HW113701   0.362   5.174   5.900
 2562SOL    HW213702   0.312   5.078   6.023
 2563SOL     OW13703   2.296   1.936   6.159
 2563SOL    HW113704   2.366   1.864   6.161
 2563SOL    HW213705   2.297   1.985   6.245
 2564SOL     OW13706   0.600   2.542   1.261
 2564SOL    HW113707   0.574   2.638   1.276
 2564SOL    HW213708   0.674   2.518   1.323
 2565SOL     OW13709   2.202   2.180   0.094
 2565SOL    HW113710   2.217   2.269   0.050
 2565SOL    HW213711   2.110   2.178   0.133
 2566SOL     OW13712   3.701   3.210   6.166
 2566SOL    HW113713   3.746   3.135   6.214
 2566SOL    HW213714   3.705   3.194   6.068
 2567SOL     OW13715   3.542   0.255   0.428
 2567SOL    HW113716   3.459   0.281   0.478
 2567SOL    HW213717   3.550   0.310   0.345
 2568SOL     OW13718   3.330   2.986   0.299
 2568SOL    HW113719   3.423   3.020   0.310
 2568SOL    HW213720   3.273   3.058   0.260
 2569SOL     OW13721   3.273   3.788   1.651
 2569SOL    HW113722   3.293   3.872   1.703
 2569SOL    HW213723   3.281   3.709   1.712
 2570SOL     OW13724   0.246   0.113   0.412
 2570SOL    HW113725   0.291   0.129   0.324
 2570SOL    HW213726   0.152   0.147   0.408
 2571SOL     OW13727   3.592   4.587   1.106
 2571SOL    HW113728   3.544   4.673   1.123
 2571SOL    HW213729   3.569   4.521   1.179
 2572SOL     OW13730   4.647   0.424   1.555
 2572SOL    HW113731   4.678   0.339   1.598
 2572SOL    HW213732   4.723   0.467   1.508
 2573SOL     OW13733   2.311   4.929   5.769
 2573SOL    HW113734   2.229   4.906   5.717
 2573SOL    HW213735   2.375   4.852   5.766
 2574SOL     OW13736   2.239   1.946   5.211
 2574SOL    HW113737   2.234   2.006   5.291
 2574SOL    HW213738   2.324   1.894   5.214
 2575SOL     OW13739   5.550   3.172   5.981
 2575SOL    HW113740   5.587   3.120   6.058
 2575SOL    HW213741   5.626   3.204   5.923
 2576SOL     OW13742   5.383   0.056   5.800
 2576SOL    HW113743   5.426   0.019   5.717
 2576SOL    HW213744   5.444   0.124   5.841
 2577SOL     OW13745   4.062   6.373   6.189
 2577SOL    HW113746   4.109   6.430   6.122
 2577SOL    HW213747   4.053   6.422   6.275
 2578SOL     OW13748   5.412   1.456   5.718
 2578SOL    HW113749   5.318   1.476   5.745
 2578SOL    HW213750   5.474   1.518   5.766
 2579SOL     OW13751   1.683   2.354   0.724
 2579SOL    HW113752   1.707   2.443   0.762
 2579SOL    HW213753   1.700   2.353   0.625
 2580SOL     OW13754   6.215   1.410   0.401
 2580SOL    HW113755   6.192   1.317   0.427
 2580SOL    HW213756   6.288   1.409   0.332
 2581SOL     OW13757   0.259   0.598   0.909
 2581SOL    HW113758   0.256   0.498   0.913
 2581SOL    HW213759   0.326   0.627   0.840
 2582SOL     OW13760   4.761   5.285   0.996
 2582SOL    HW113761   4.667   5.301   0.968
 2582SOL    HW213762   4.788   5.192   0.969
 2583SOL     OW13763   3.543   1.226   6.333
 2583SOL    HW113764   3.603   1.152   6.363
 2583SOL    HW213765   3.571   1.259   6.244
 2584SOL     OW13766   3.290   4.689   6.273
 2584SOL    HW113767   3.320   4.783   6.256
 2584SOL    HW213768   3.306   4.666   6.369
 2585SOL     OW13769   1.037   1.049   6.300
 2585SOL    HW113770   0.965   0.989   6.334
 2585SOL    HW213771   1.116   0.994   6.272
 2586SOL     OW13772   0.000   3.097   0.747
 2586SOL    HW113773   0.088   3.134   0.716
 2586SOL    HW213774   6.382   3.035   0.677
 2587SOL     OW13775   0.500   1.598   6.448
 2587SOL    HW113776   0.557   1.620   6.527
 2587SOL    HW213777   0.549   1.533   6.389
 2588SOL     OW13778   2.089   3.716   1.228
 2588SOL    HW113779   2.087   3.805   1.274
 2588SOL    HW213780   2.006   3.664   1.252
 2589SOL     OW13781   3.888   5.571   0.522
 2589SOL    HW113782   3.852   5.536   0.608
 2589SOL    HW213783   3.939   5.655   0.539
 2590SOL     OW13784   0.243   5.996   6.518
 2590SOL    HW113785   0.310   6.070   6.514
 2590SOL    HW213786   0.266   5.935   6.594
 2591SOL     OW13787   4.647   3.018   0.307
 2591SOL    HW113788   4.690   3.108   0.298
 2591SOL    HW213789   4.551   3.029   0.335
 2592SOL     OW13790   5.433   5.464   1.096
 2592SOL    HW113791   5.429   5.558   1.061
 2592SOL    HW213792   5.348   5.442   1.142
 2593SOL     OW13793   3.926   3.179   6.444
 2593SOL    HW113794   3.982   3.251   6.483
 2593SOL    HW213795   3.982   3.098   6.426
 2594SOL     OW13796   3.120   4.978   0.050
 2594SOL    HW113797   3.099   5.021   0.138
 2594SOL    HW213798   3.219   4.962   0.045
 2595SOL     OW13799   0.461   5.876   0.931
 2595SOL    HW113800   0.453   5.787   0.887
 2595SOL    HW213801   0.378   5.893   0.985
 2596SOL     OW13802   3.184   5.351   6.126
 2596SOL    HW113803   3.154   5.260   6.155
 2596SOL    HW213804   3.238   5.344   6.042
 2597SOL     OW13805   4.257   0.330   6.349
 2597SOL    HW113806   4.232   0.381   6.266
 2597SOL    HW213807   4.295   0.392   6.416
 2598SOL     OW13808   4.014   3.845   0.650
 2598SOL    HW113809   4.024   3.943   0.634
 2598SOL    HW213810   3.941   3.829   0.716
 2599SOL     OW13811   1.781   3.513   0.079
 2599SOL    HW113812   1.718   3.439   0.104
 2599SOL    HW213813   1.869   3.498   0.124
 2600SOL     OW13814   1.997   5.146   1.266
 2600SOL    HW113815   2.016   5.239   1.235
 2600SOL    HW213816   1.941   5.149   1.349
 2601SOL     OW13817   6.167   3.250   0.541
 2601SOL    HW113818   6.193   3.320   0.607
 2601SOL    HW213819   6.224   3.259   0.459
 2602SOL     OW13820   2.837   4.329   6.296
 2602SOL    HW113821   2.918   4.354   6.349
 2602SOL    HW213822   2.866   4.277   6.215
 2603SOL     OW13823   5.839   4.902   0.473
 2603SOL    HW113824   5.770   4.886   0.544
 2603SOL    HW213825   5.855   5.000   0.463
 2604SOL     OW13826   2.563   4.321   6.453
 2604SOL    HW113827   2.565   4.377   6.536
 2604SOL    HW213828   2.653   4.323   6.410
 2605SOL     OW13829   6.198   5.148   6.453
 2605SOL    HW113830   6.273   5.110   6.399
 2605SOL    HW213831   6.129   5.187   6.392
 2606SOL     OW13832   1.693   6.208   0.244
 2606SOL    HW113833   1.697   6.294   0.193
 2606SOL    HW213834   1.619   6.213   0.312
 2607SOL     OW13835   0.037   5.778   0.091
 2607SOL    HW113836   0.124   5.822   0.116
 2607SOL    HW213837   0.051   5.723   0.009
 2608SOL     OW13838   5.570   0.981   5.658
 2608SOL    HW113839   5.635   1.014   5.588
 2608SOL    HW213840   5.514   1.057   5.689
 2609SOL     OW13841   1.711   2.724   6.283
 2609SOL    HW113842   1.667   2.797   6.231
 2609SOL    HW213843   1.672   2.636   6.257
 2610SOL     OW13844   4.300   0.301   0.676
 2610SOL    HW113845   4.204   0.328   0.673
 2610SOL    HW213846   4.341   0.332   0.762
 2611SOL     OW13847   6.318   0.375   6.275
 2611SOL    HW113848   6.410   0.336   6.276
 2611SOL    HW213849   6.292   0.396   6.181
 2612SOL     OW13850   4.050   1.809   0.153
 2612SOL    HW113851   4.123   1.822   0.220
 2612SOL    HW213852   4.015   1.716   0.160
 2613SOL     OW13853   0.625   2.849   6.102
 2613SOL    HW113854   0.587   2.843   6.010
 2613SOL    HW213855   0.709   2.902   6.100
 2614SOL     OW13856   3.690   5.149   0.879
 2614SOL    HW113857   3.763   5.148   0.948
 2614SOL    HW213858   3.628   5.072   0.896
 2615SOL     OW13859   0.976   0.889   0.081
 2615SOL    HW113860   0.904   0.953   0.108
 2615SOL    HW213861   0.962   0.861   6.582
 2616SOL     OW13862   3.563   3.650   0.056
 2616SOL    HW113863   3.646   3.689   0.017
 2616SOL    HW213864   3.577   3.629   0.153
 2617SOL     OW13865   5.946   1.589   4.820
 2617SOL    HW113866   5.927   1.543   4.733
 2617SOL    HW213867   6.041   1.620   4.822
 2618SOL     OW13868   2.580   0.593   0.475
 2618SOL    HW113869   2.540   0.669   0.423
 2618SOL    HW213870   2.531   0.584   0.562
 2619SOL     OW13871   4.818   4.177   0.006
 2619SOL    HW113872   4.854   4.122   6.528
 2619SOL    HW213873   4.889   4.239   0.040
 2620SOL     OW13874   5.331   2.198   6.401
 2620SOL    HW113875   5.258   2.187   6.334
 2620SOL    HW213876   5.351   2.109   6.443
 2621SOL     OW13877   5.224   4.747   5.687
 2621SOL    HW113878   5.244   4.831   5.637
 2621SOL    HW213879   5.144   4.703   5.647
 2622SOL     OW13880   5.034   0.203   0.958
 2622SOL    HW113881   5.041   0.243   1.049
 2622SOL    HW213882   5.125   0.195   0.918
 2623SOL     OW13883   5.762   3.929   5.826
 2623SOL    HW113884   5.769   3.849   5.765
 2623SOL    HW213885   5.796   3.904   5.917
 2624SOL     OW13886   1.493   1.240   0.115
 2624SOL    HW113887   1.407   1.261   0.068
 2624SOL    HW213888   1.475   1.177   0.191
 2625SOL     OW13889   4.411   0.072   1.360
 2625SOL    HW113890   4.343   0.021   1.412
 2625SOL    HW213891   4.477   0.009   1.320
 2626SOL     OW13892   1.350   6.345   5.950
 2626SOL    HW113893   1.430   6.304   5.993
 2626SOL    HW213894   1.356   6.333   5.851
 2627SOL     OW13895   3.646   1.680   5.591
 2627SOL    HW113896   3.712   1.724   5.530
 2627SOL    HW213897   3.555   1.719   5.575
 2628SOL     OW13898   1.141   2.022   6.528
 2628SOL    HW113899   1.100   1.939   6.566
 2628SOL    HW213900   1.114   2.033   6.433
 2629SOL     OW13901   0.236   3.890   1.419
 2629SOL    HW113902   0.254   3.827   1.494
 2629SOL    HW213903   0.302   3.965   1.421
 2630SOL     OW13904   5.643   3.156   0.945
 2630SOL    HW113905   5.655   3.153   1.044
 2630SOL    HW213906   5.655   3.065   0.907
 2631SOL     OW13907   1.957   3.069   0.110
 2631SOL    HW113908   1.942   3.143   0.175
 2631SOL    HW213909   1.870   3.026   0.088
 2632SOL     OW13910   2.741   5.490   1.058
 2632SOL    HW113911   2.685   5.563   1.020
 2632SOL    HW213912   2.834   5.498   1.023
 2633SOL     OW13913   4.146   3.833   1.203
 2633SOL    HW113914   4.158   3.862   1.299
 2633SOL    HW213915   4.216   3.876   1.147
 2634SOL     OW13916   2.689   1.681   0.483
 2634SOL    HW113917   2.746   1.624   0.542
 2634SOL    HW213918   2.608   1.629   0.455
 2635SOL     OW13919   2.101   5.275   4.710
 2635SOL    HW113920   2.200   5.261   4.711
 2635SOL    HW213921   2.076   5.329   4.630
 2636SOL     OW13922   3.340   1.483   1.335
 2636SOL    HW113923   3.424   1.534   1.315
 2636SOL    HW213924   3.361   1.386   1.343
 2637SOL     OW13925   0.630   0.256   0.865
 2637SOL    HW113926   0.656   0.262   0.961
 2637SOL    HW213927   0.531   0.262   0.856
 2638SOL     OW13928   0.174   1.817   1.104
 2638SOL    HW113929   0.213   1.828   1.196
 2638SOL    HW213930   0.154   1.720   1.088
 2639SOL     OW13931   3.257   3.658   1.276
 2639SOL    HW113932   3.261   3.588   1.348
 2639SOL    HW213933   3.246   3.614   1.187
 2640SOL     OW13934   3.402   6.140   1.624
 2640SOL    HW113935   3.480   6.113   1.680
 2640SOL    HW213936   3.319   6.138   1.679
 2641SOL     OW13937   3.881   3.926   0.364
 2641SOL    HW113938   3.857   3.833   0.336
 2641SOL    HW213939   3.797   3.977   0.382
 2642SOL     OW13940   4.712   0.269   6.562
 2642SOL    HW113941   4.708   0.186   0.022
 2642SOL    HW213942   4.654   0.257   6.482
 2643SOL     OW13943   3.868   6.231   5.409
 2643SOL    HW113944   3.775   6.204   5.382
 2643SOL    HW213945   3.909   6.158   5.464
 2644SOL     OW13946   2.880   1.777   6.188
 2644SOL    HW113947   2.883   1.713   6.111
 2644SOL    HW213948   2.953   1.845   6.177
 2645SOL     OW13949   1.354   5.908   0.407
 2645SOL    HW113950   1.400   5.841   0.466
 2645SOL    HW213951   1.421   5.975   0.376
 2646SOL     OW13952   5.415   1.956   6.543
 2646SOL    HW113953   5.444   1.922   0.036
 2646SOL    HW213954   5.403   1.879   6.480
 2647SOL     OW13955   2.078   2.644   4.771
 2647SOL    HW113956   2.025   2.575   4.819
 2647SOL    HW213957   2.043   2.654   4.678
 2648SOL     OW13958   2.378   4.198   5.810
 2648SOL    HW113959   2.330   4.115   5.781
 2648SOL    HW213960   2.470   4.199   5.771
 2649SOL     OW13961   5.384   2.475   6.108
 2649SOL    HW113962   5.330   2.485   6.192
 2649SOL    HW213963   5.425   2.563   6.084
 2650SOL     OW13964   5.693   1.220   0.051
 2650SOL    HW113965   5.662   1.221   0.146
 2650SOL    HW213966   5.624   1.263   6.589
 2651SOL     OW13967   3.848   4.809   5.964
 2651SOL    HW113968   3.881   4.823   6.057
 2651SOL    HW213969   3.878   4.719   5.931
 2652SOL     OW13970   4.104   5.592   5.696
 2652SOL    HW113971   4.101   5.677   5.643
 2652SOL    HW213972   4.011   5.554   5.703
 2653SOL     OW13973   4.759   2.868   6.032
 2653SOL    HW113974   4.776   2.831   6.124
 2653SOL    HW213975   4.675   2.922   6.033
 2654SOL     OW13976   5.941   0.930   0.825
 2654SOL    HW113977   6.034   0.897   0.840
 2654SOL    HW213978   5.876   0.862   0.857
 2655SOL     OW13979   2.073   3.030   0.618
 2655SOL    HW113980   2.010   3.098   0.655
 2655SOL    HW213981   2.031   2.939   0.623
 2656SOL     OW13982   1.910   4.230   0.595
 2656SOL    HW113983   2.006   4.252   0.611
 2656SOL    HW213984   1.903   4.139   0.555
 2657SOL     OW13985   2.466   3.322   5.236
 2657SOL    HW113986   2.476   3.230   5.198
 2657SOL    HW213987   2.430   3.383   5.165
 2658SOL     OW13988   4.364   0.770   5.814
 2658SOL    HW113989   4.432   0.805   5.750
 2658SOL    HW213990   4.411   0.731   5.894
 2659SOL     OW13991   3.696   1.418   0.696
 2659SOL    HW113992   3.757   1.492   0.724
 2659SOL    HW213993   3.628   1.454   0.632
 2660SOL     OW13994   4.313   4.951   5.443
 2660SOL    HW113995   4.406   4.919   5.421
 2660SOL    HW213996   4.274   4.891   5.513
 2661SOL     OW13997   5.875   4.995   6.336
 2661SOL    HW113998   5.901   5.068   6.272
 2661SOL    HW213999   5.845   5.036   6.422
 2662SOL     OW14000   2.277   2.861   5.343
 2662SOL    HW114001   2.296   2.889   5.249
 2662SOL    HW214002   2.358   2.816   5.381
 2663SOL     OW14003   5.214   0.934   5.716
 2663SOL    HW114004   5.263   0.864   5.768
 2663SOL    HW214005   5.265   1.020   5.718
 2664SOL     OW14006   0.849   5.093   6.030
 2664SOL    HW114007   0.877   5.024   6.097
 2664SOL    HW214008   0.784   5.053   5.966
 2665SOL     OW14009   4.800   0.165   5.731
 2665SOL    HW114010   4.891   0.133   5.703
 2665SOL    HW214011   4.801   0.265   5.736
 2666SOL     OW14012   0.228   5.518   1.460
 2666SOL    HW114013   0.312   5.466   1.468
 2666SOL    HW214014   0.189   5.534   1.551
 2667SOL     OW14015   2.820   2.754   0.795
 2667SOL    HW114016   2.901   2.811   0.782
 2667SOL    HW214017   2.753   2.777   0.724
 2668SOL     OW14018   1.088   2.713   0.296
 2668SOL    HW114019   1.093   2.634   0.235
 2668SOL    HW214020   1.171   2.769   0.284
 2669SOL     OW14021   1.285   2.350   6.262
 2669SOL    HW114022   1.281   2.441   6.222
 2669SOL    HW214023   1.194   2.308   6.260
 2670SOL     OW14024   4.516   2.569   5.398
 2670SOL    HW114025   4.603   2.573   5.446
 2670SOL    HW214026   4.443   2.600   5.459
 2671SOL     OW14027   4.824   3.527   6.540
 2671SOL    HW114028   4.820   3.590   6.462
 2671SOL    HW214029   4.779   3.569   0.022
 2672SOL     OW14030   4.441   3.698   0.907
 2672SOL    HW114031   4.439   3.667   1.002
 2672SOL    HW214032   4.475   3.792   0.903
 2673SOL     OW14033   6.248   3.040   5.531
 2673SOL    HW114034   6.255   3.130   5.487
 2673SOL    HW214035   6.161   2.998   5.506
 2674SOL     OW14036   1.957   3.177   5.889
 2674SOL    HW114037   1.863   3.211   5.890
 2674SOL    HW214038   1.960   3.086   5.929
 2675SOL     OW14039   2.622   4.192   5.697
 2675SOL    HW114040   2.674   4.131   5.638
 2675SOL    HW214041   2.680   4.268   5.727
 2676SOL     OW14042   2.877   3.380   5.713
 2676SOL    HW114043   2.957   3.438   5.731
 2676SOL    HW214044   2.841   3.346   5.800
 2677SOL     OW14045   3.131   1.663   5.048
 2677SOL    HW114046   3.093   1.644   4.958
 2677SOL    HW214047   3.141   1.761   5.061
 2678SOL     OW14048   6.293   5.882   6.345
 2678SOL    HW114049   6.254   5.932   6.268
 2678SOL    HW214050   6.312   5.946   6.420
 2679SOL     OW14051   2.529   1.182   0.435
 2679SOL    HW114052   2.493   1.132   0.513
 2679SOL    HW214053   2.628   1.171   0.431
 2680SOL     OW14054   4.056   3.808   6.019
 2680SOL    HW114055   4.094   3.812   5.927
 2680SOL    HW214056   3.997   3.727   6.028
 2681SOL     OW14057   1.078   3.670   0.568
 2681SOL    HW114058   1.109   3.748   0.622
 2681SOL    HW214059   1.000   3.697   0.512
 2682SOL     OW14060   3.732   0.601   0.289
 2682SOL    HW114061   3.734   0.625   0.192
 2682SOL    HW214062   3.796   0.659   0.340
 2683SOL     OW14063   0.388   2.681   6.404
 2683SOL    HW114064   0.302   2.677   6.454
 2683SOL    HW214065   0.386   2.758   6.340
 2684SOL     OW14066   3.526   1.061   5.418
 2684SOL    HW114067   3.596   1.028   5.355
 2684SOL    HW214068   3.569   1.087   5.505
 2685SOL     OW14069   3.402   1.452   6.386
 2685SOL    HW114070   3.451   1.365   6.392
 2685SOL    HW214071   3.434   1.503   6.306
 2686SOL     OW14072   3.272   4.883   5.016
 2686SOL    HW114073   3.291   4.965   4.962
 2686SOL    HW214074   3.348   4.818   5.005
 2687SOL     OW14075   3.229   0.565   1.270
 2687SOL    HW114076   3.199   0.508   1.346
 2687SOL    HW214077   3.184   0.654   1.276
 2688SOL     OW14078   0.020   4.178   0.644
 2688SOL    HW114079   0.053   4.260   0.597
 2688SOL    HW214080   0.004   4.199   0.740
 2689SOL     OW14081   0.581   1.757   1.432
 2689SOL    HW114082   0.555   1.853   1.443
 2689SOL    HW214083   0.510   1.698   1.469
 2690SOL     OW14084   2.466   0.086   6.111
 2690SOL    HW114085   2.558   0.098   6.073
 2690SOL    HW214086   2.469   0.019   6.185
 2691SOL     OW14087   4.548   4.978   6.095
 2691SOL    HW114088   4.507   4.930   6.017
 2691SOL    HW214089   4.619   5.040   6.062
 2692SOL     OW14090   5.128   2.847   0.432
 2692SOL    HW114091   5.097   2.929   0.385
 2692SOL    HW214092   5.050   2.801   0.475
 2693SOL     OW14093   0.381   0.329   5.931
 2693SOL    HW114094   0.455   0.331   5.863
 2693SOL    HW214095   0.348   0.235   5.942
 2694SOL     OW14096   1.528   2.342   5.939
 2694SOL    HW114097   1.586   2.310   5.864
 2694SOL    HW214098   1.481   2.264   5.980
 2695SOL     OW14099   3.656   6.175   5.673
 2695SOL    HW114100   3.672   6.260   5.623
 2695SOL    HW214101   3.604   6.195   5.756
 2696SOL     OW14102   5.368   6.201   6.558
 2696SOL    HW114103   5.333   6.191   0.055
 2696SOL    HW214104   5.306   6.258   6.505
 2697SOL     OW14105   5.363   3.552   6.241
 2697SOL    HW114106   5.337   3.456   6.245
 2697SOL    HW214107   5.296   3.607   6.291
 2698SOL     OW14108   4.765   3.831   5.107
 2698SOL    HW114109   4.671   3.859   5.126
 2698SOL    HW214110   4.828   3.903   5.136
 2699SOL     OW14111   0.701   1.683   6.120
 2699SOL    HW114112   0.679   1.733   6.204
 2699SOL    HW214113   0.801   1.679   6.109
 2700SOL     OW14114   4.878   1.274   6.310
 2700SOL    HW114115   4.780   1.263   6.325
 2700SOL    HW214116   4.898   1.270   6.212
 2701SOL     OW14117   1.362   2.377   0.598
 2701SOL    HW114118   1.322   2.290   0.571
 2701SOL    HW214119   1.461   2.368   0.604
 2702SOL     OW14120   1.015   3.299   5.407
 2702SOL    HW114121   0.968   3.387   5.403
 2702SOL    HW214122   0.953   3.227   5.377
 2703SOL     OW14123   4.065   5.629   6.591
 2703SOL    HW114124   4.096   5.560   0.062
 2703SOL    HW214125   4.101   5.718   0.021
 2704SOL     OW14126   2.975   1.845   5.861
 2704SOL    HW114127   3.019   1.864   5.773
 2704SOL    HW214128   2.905   1.775   5.849
 2705SOL     OW14129   6.339   4.203   6.021
 2705SOL    HW114130   6.405   4.277   6.037
 2705SOL    HW214131   6.346   4.136   6.095
 2706SOL     OW14132   4.869   2.827   5.355
 2706SOL    HW114133   4.878   2.727   5.353
 2706SOL    HW214134   4.772   2.851   5.356
 2707SOL     OW14135   3.254   5.662   5.762
 2707SOL    HW114136   3.306   5.733   5.809
 2707SOL    HW214137   3.164   5.652   5.807
 2708SOL     OW14138   4.698   0.839   0.148
 2708SOL    HW114139   4.686   0.772   0.222
 2708SOL    HW214140   4.610   0.884   0.129
 2709SOL     OW14141   0.249   6.047   0.732
 2709SOL    HW114142   0.229   6.143   0.750
 2709SOL    HW214143   0.345   6.037   0.704
 2710SOL     OW14144   2.009   1.079   0.089
 2710SOL    HW114145   2.030   1.046   0.181
 2710SOL    HW214146   1.922   1.128   0.090
 2711SOL     OW14147   4.523   4.710   0.126
 2711SOL    HW114148   4.590   4.772   0.166
 2711SOL    HW214149   4.556   4.679   0.037
 2712SOL     OW14150   4.741   5.112   5.944
 2712SOL    HW114151   4.840   5.104   5.959
 2712SOL    HW214152   4.712   5.206   5.961
 2713SOL     OW14153   4.362   4.609   5.787
 2713SOL    HW114154   4.412   4.553   5.722
 2713SOL    HW214155   4.320   4.551   5.857
 2714SOL     OW14156   2.488   2.505   6.567
 2714SOL    HW114157   2.467   2.601   6.582
 2714SOL    HW214158   2.565   2.477   0.027
 2715SOL     OW14159   0.912   1.219   0.860
 2715SOL    HW114160   0.907   1.262   0.950
 2715SOL    HW214161   0.863   1.132   0.862
 2716SOL     OW14162   5.279   3.451   0.353
 2716SOL    HW114163   5.222   3.386   0.403
 2716SOL    HW214164   5.373   3.449   0.388
 2717SOL     OW14165   2.866   3.007   1.095
 2717SOL    HW114166   2.776   3.006   1.138
 2717SOL    HW214167   2.869   3.081   1.027
 2718SOL     OW14168   3.147   0.500   5.421
 2718SOL    HW114169   3.072   0.469   5.479
 2718SOL    HW214170   3.230   0.511   5.476
 2719SOL     OW14171   0.384   1.644   1.581
 2719SOL    HW114172   0.303   1.698   1.606
 2719SOL    HW214173   0.414   1.591   1.660
 2720SOL     OW14174   4.125   5.733   6.219
 2720SOL    HW114175   4.098   5.697   6.130
 2720SOL    HW214176   4.048   5.784   6.259
 2721SOL     OW14177   3.516   4.374   0.635
 2721SOL    HW114178   3.503   4.463   0.590
 2721SOL    HW214179   3.432   4.348   0.682
 2722SOL     OW14180   3.883   0.475   5.955
 2722SOL    HW114181   3.944   0.405   5.917
 2722SOL    HW214182   3.818   0.432   6.017
 2723SOL     OW14183   6.327   1.550   0.987
 2723SOL    HW114184   6.251   1.595   1.034
 2723SOL    HW214185   6.337   1.588   0.896
 2724SOL     OW14186   4.794   3.145   1.321
 2724SOL    HW114187   4.802   3.048   1.344
 2724SOL    HW214188   4.784   3.199   1.404
 2725SOL     OW14189   3.109   0.720   6.472
 2725SOL    HW114190   3.088   0.667   6.389
 2725SOL    HW214191   3.205   0.747   6.470
 2726SOL     OW14192   4.403   5.685   0.093
 2726SOL    HW114193   4.424   5.730   0.006
 2726SOL    HW214194   4.437   5.591   0.091
 2727SOL     OW14195   1.426   5.790   0.092
 2727SOL    HW114196   1.481   5.814   0.012
 2727SOL    HW214197   1.425   5.866   0.157
 2728SOL     OW14198   2.606   0.997   4.955
 2728SOL    HW114199   2.546   1.033   5.027
 2728SOL    HW214200   2.556   0.992   4.869
 2729SOL     OW14201   4.905   5.764   6.361
 2729SOL    HW114202   4.859   5.675   6.361
 2729SOL    HW214203   4.897   5.805   6.452
 2730SOL     OW14204   2.716   4.580   6.277
 2730SOL    HW114205   2.768   4.495   6.287
 2730SOL    HW214206   2.739   4.624   6.190
 2731SOL     OW14207   4.213   1.463   0.524
 2731SOL    HW114208   4.121   1.428   0.504
 2731SOL    HW214209   4.214   1.503   0.616
 2732SOL     OW14210   0.906   1.991   5.613
 2732SOL    HW114211   0.858   1.938   5.682
 2732SOL    HW214212   0.883   1.956   5.522
 2733SOL     OW14213   1.646   4.911   5.016
 2733SOL    HW114214   1.588   4.833   4.994
 2733SOL    HW214215   1.594   4.979   5.067
 2734SOL     OW14216   6.056   4.898   6.536
 2734SOL    HW114217   6.148   4.937   6.535
 2734SOL    HW214218   6.003   4.936   6.460
 2735SOL     OW14219   3.950   1.412   6.032
 2735SOL    HW114220   3.859   1.407   5.992
 2735SOL    HW214221   4.001   1.485   5.987
 2736SOL     OW14222   0.416   3.848   6.331
 2736SOL    HW114223   0.336   3.791   6.346
 2736SOL    HW214224   0.463   3.864   6.418
 2737SOL     OW14225   2.498   3.131   6.381
 2737SOL    HW114226   2.460   3.191   6.451
 2737SOL    HW214227   2.578   3.174   6.339
 2738SOL     OW14228   2.623   5.276   4.818
 2738SOL    HW114229   2.682   5.305   4.893
 2738SOL    HW214230   2.655   5.189   4.782
 2739SOL     OW14231   0.469   3.040   0.625
 2739SOL    HW114232   0.529   2.973   0.670
 2739SOL    HW214233   0.494   3.049   0.529
 2740SOL     OW14234   1.036   4.163   0.795
 2740SOL    HW114235   0.966   4.231   0.774
 2740SOL    HW214236   1.126   4.207   0.800
 2741SOL     OW14237   3.453   1.950   6.053
 2741SOL    HW114238   3.512   1.961   6.133
 2741SOL    HW214239   3.461   1.857   6.017
 2742SOL     OW14240   0.800   0.558   0.638
 2742SOL    HW114241   0.806   0.522   0.731
 2742SOL    HW214242   0.814   0.657   0.640
 2743SOL     OW14243   3.057   5.319   5.785
 2743SOL    HW114244   3.105   5.345   5.702
 2743SOL    HW214245   3.102   5.240   5.826
 2744SOL     OW14246   4.278   4.569   6.585
 2744SOL    HW114247   4.304   4.663   6.561
 2744SOL    HW214248   4.355   4.522   0.030
 2745SOL     OW14249   5.821   4.736   5.966
 2745SOL    HW114250   5.842   4.642   5.994
 2745SOL    HW214251   5.888   4.767   5.898
 2746SOL     OW14252   1.845   3.764   5.192
 2746SOL    HW114253   1.875   3.775   5.286
 2746SOL    HW214254   1.891   3.831   5.134
 2747SOL     OW14255   0.097   5.345   5.942
 2747SOL    HW114256   0.172   5.279   5.946
 2747SOL    HW214257   0.131   5.435   5.969
 2748SOL     OW14258   4.628   6.401   5.738
 2748SOL    HW114259   4.537   6.441   5.729
 2748SOL    HW214260   4.697   0.030   5.739
 2749SOL     OW14261   4.522   1.677   0.262
 2749SOL    HW114262   4.497   1.584   0.288
 2749SOL    HW214263   4.479   1.742   0.324
 2750SOL     OW14264   5.750   4.727   0.981
 2750SOL    HW114265   5.797   4.763   1.062
 2750SOL    HW214266   5.677   4.665   1.009
 2751SOL     OW14267   0.176   6.395   0.645
 2751SOL    HW114268   0.264   6.348   0.656
 2751SOL    HW214269   0.175   6.443   0.558
 2752SOL     OW14270   3.111   4.178   1.123
 2752SOL    HW114271   3.176   4.222   1.184
 2752SOL    HW214272   3.018   4.199   1.153
 2753SOL     OW14273   4.295   3.982   2.104
 2753SOL    HW114274   4.207   3.937   2.121
 2753SOL    HW214275   4.308   4.055   2.171
 2754SOL     OW14276   0.162   1.328   5.835
 2754SOL    HW114277   0.181   1.384   5.916
 2754SOL    HW214278   0.235   1.260   5.824
 2755SOL     OW14279   4.252   2.217   1.256
 2755SOL    HW114280   4.193   2.297   1.263
 2755SOL    HW214281   4.344   2.245   1.229
 2756SOL     OW14282   4.939   4.709   0.542
 2756SOL    HW114283   4.989   4.728   0.627
 2756SOL    HW214284   4.927   4.611   0.531
 2757SOL     OW14285   6.340   3.445   5.867
 2757SOL    HW114286   6.354   3.414   5.773
 2757SOL    HW214287   0.010   3.465   5.909
 2758SOL     OW14288   1.323   1.361   4.749
 2758SOL    HW114289   1.367   1.336   4.663
 2758SOL    HW214290   1.383   1.337   4.825
 2759SOL     OW14291   4.014   4.127   0.659
 2759SOL    HW114292   3.979   4.215   0.693
 2759SOL    HW214293   4.096   4.144   0.604
 2760SOL     OW14294   5.399   0.500   6.484
 2760SOL    HW114295   5.303   0.518   6.507
 2760SOL    HW214296   5.457   0.534   6.558
 2761SOL     OW14297   2.849   0.319   6.248
 2761SOL    HW114298   2.864   0.387   6.319
 2761SOL    HW214299   2.929   0.315   6.188
 2762SOL     OW14300   3.787   3.877   5.062
 2762SOL    HW114301   3.782   3.975   5.083
 2762SOL    HW214302   3.833   3.864   4.974
 2763SOL     OW14303   2.715   1.788   0.785
 2763SOL    HW114304   2.708   1.763   0.689
 2763SOL    HW214305   2.797   1.844   0.799
 2764SOL     OW14306   4.816   0.658   5.298
 2764SOL    HW114307   4.857   0.642   5.208
 2764SOL    HW214308   4.758   0.739   5.295
 2765SOL     OW14309   1.866   5.414   5.367
 2765SOL    HW114310   1.846   5.494   5.424
 2765SOL    HW214311   1.829   5.428   5.276
 2766SOL     OW14312   0.084   2.134   5.685
 2766SOL    HW114313   0.053   2.176   5.599
 2766SOL    HW214314   0.120   2.205   5.746
 2767SOL     OW14315   5.882   3.371   0.634
 2767SOL    HW114316   5.903   3.274   0.617
 2767SOL    HW214317   5.793   3.378   0.680
 2768SOL     OW14318   0.206   6.292   6.230
 2768SOL    HW114319   0.304   6.308   6.238
 2768SOL    HW214320   0.189   6.196   6.207
 2769SOL     OW14321   5.698   4.393   6.245
 2769SOL    HW114322   5.648   4.395   6.331
 2769SOL    HW214323   5.730   4.486   6.223
 2770SOL     OW14324   5.813   5.505   5.887
 2770SOL    HW114325   5.723   5.471   5.915
 2770SOL    HW214326   5.839   5.461   5.801
 2771SOL     OW14327   6.025   2.288   6.512
 2771SOL    HW114328   6.055   2.365   6.567
 2771SOL    HW214329   6.085   2.278   6.433
 2772SOL     OW14330   3.211   5.945   5.142
 2772SOL    HW114331   3.278   6.004   5.187
 2772SOL    HW214332   3.250   5.854   5.130
 2773SOL     OW14333   2.495   1.241   5.880
 2773SOL    HW114334   2.529   1.147   5.882
 2773SOL    HW214335   2.398   1.242   5.904
 2774SOL     OW14336   2.597   1.696   6.542
 2774SOL    HW114337   2.555   1.752   0.017
 2774SOL    HW214338   2.610   1.751   6.460
 2775SOL     OW14339   3.534   2.114   0.219
 2775SOL    HW114340   3.445   2.069   0.217
 2775SOL    HW214341   3.549   2.151   0.311
 2776SOL     OW14342   3.652   4.100   5.873
 2776SOL    HW114343   3.558   4.079   5.847
 2776SOL    HW214344   3.704   4.015   5.884
 2777SOL     OW14345   2.163   3.229   0.421
 2777SOL    HW114346   2.192   3.299   0.486
 2777SOL    HW214347   2.124   3.151   0.470
 2778SOL     OW14348   1.316   3.755   6.330
 2778SOL    HW114349   1.375   3.677   6.309
 2778SOL    HW214350   1.369   3.840   6.319
 2779SOL     OW14351   5.014   2.968   6.083
 2779SOL    HW114352   5.006   3.064   6.054
 2779SOL    HW214353   4.929   2.920   6.062
 2780SOL     OW14354   4.171   3.945   0.383
 2780SOL    HW114355   4.072   3.933   0.385
 2780SOL    HW214356   4.195   4.034   0.423
 2781SOL     OW14357   4.162   5.225   0.085
 2781SOL    HW114358   4.199   5.138   0.119
 2781SOL    HW214359   4.219   5.257   0.009
 2782SOL     OW14360   1.140   2.779   1.158
 2782SOL    HW114361   1.187   2.704   1.111
 2782SOL    HW214362   1.089   2.743   1.236
 2783SOL     OW14363   4.189   5.798   0.243
 2783SOL    HW114364   4.261   5.740   0.204
 2783SOL    HW214365   4.220   5.893   0.245
 2784SOL     OW14366   0.765   1.231   0.216
 2784SOL    HW114367   0.809   1.204   0.302
 2784SOL    HW214368   0.727   1.150   0.172
 2785SOL     OW14369   3.473   2.971   6.384
 2785SOL    HW114370   3.531   3.047   6.413
 2785SOL    HW214371   3.527   2.887   6.379
 2786SOL     OW14372   1.988   1.874   0.088
 2786SOL    HW114373   1.931   1.953   0.062
 2786SOL    HW214374   2.064   1.905   0.144
 2787SOL     OW14375   4.297   1.927   1.280
 2787SOL    HW114376   4.281   2.026   1.276
 2787SOL    HW214377   4.395   1.909   1.288
 2788SOL     OW14378   4.364   3.255   5.622
 2788SOL    HW114379   4.279   3.307   5.616
 2788SOL    HW214380   4.389   3.244   5.718
 2789SOL     OW14381   1.018   5.343   1.298
 2789SOL    HW114382   1.108   5.339   1.255
 2789SOL    HW214383   0.990   5.251   1.326
 2790SOL     OW14384   5.416   4.056   6.049
 2790SOL    HW114385   5.474   4.091   5.975
 2790SOL    HW214386   5.324   4.040   6.014
 2791SOL     OW14387   0.400   4.162   0.122
 2791SOL    HW114388   0.431   4.254   0.100
 2791SOL    HW214389   0.456   4.095   0.074
 2792SOL     OW14390   5.120   4.796   0.736
 2792SOL    HW114391   5.080   4.871   0.789
 2792SOL    HW214392   5.132   4.716   0.796
 2793SOL     OW14393   5.740   1.544   5.417
 2793SOL    HW114394   5.714   1.632   5.379
 2793SOL    HW214395   5.773   1.484   5.345
 2794SOL     OW14396   0.535   5.444   5.906
 2794SOL    HW114397   0.544   5.354   5.863
 2794SOL    HW214398   0.472   5.500   5.853
 2795SOL     OW14399   6.304   1.683   0.746
 2795SOL    HW114400   6.208   1.706   0.729
 2795SOL    HW214401   6.362   1.761   0.721
 2796SOL     OW14402   2.074   3.708   0.808
 2796SOL    HW114403   1.979   3.704   0.839
 2796SOL    HW214404   2.076   3.717   0.709
 2797SOL     OW14405   4.368   2.572   1.009
 2797SOL    HW114406   4.467   2.568   1.022
 2797SOL    HW214407   4.324   2.587   1.098
 2798SOL     OW14408   2.180   1.172   6.357
 2798SOL    HW114409   2.101   1.230   6.374
 2798SOL    HW214410   2.243   1.217   6.294
 2799SOL     OW14411   1.137   0.508   0.847
 2799SOL    HW114412   1.059   0.446   0.843
 2799SOL    HW214413   1.105   0.602   0.856
 2800SOL     OW14414   3.585   2.689   6.107
 2800SOL    HW114415   3.674   2.731   6.087
 2800SOL    HW214416   3.563   2.621   6.037
 2801SOL     OW14417   2.122   0.888   5.869
 2801SOL    HW114418   2.188   0.889   5.945
 2801SOL    HW214419   2.139   0.967   5.810
 2802SOL     OW14420   1.090   0.805   0.831
 2802SOL    HW114421   1.138   0.846   0.909
 2802SOL    HW214422   1.149   0.808   0.751
 2803SOL     OW14423   5.121   1.892   6.126
 2803SOL    HW114424   5.085   1.815   6.179
 2803SOL    HW214425   5.106   1.875   6.029
 2804SOL     OW14426   6.185   3.316   6.402
 2804SOL    HW114427   6.185   3.403   6.352
 2804SOL    HW214428   6.117   3.255   6.361
 2805SOL     OW14429   1.275   4.394   0.291
 2805SOL    HW114430   1.306   4.299   0.292
 2805SOL    HW214431   1.351   4.454   0.266
 2806SOL     OW14432   5.953   0.974   0.321
 2806SOL    HW114433   5.895   1.049   0.290
 2806SOL    HW214434   5.933   0.892   0.267
 2807SOL     OW14435   4.480   4.396   5.648
 2807SOL    HW114436   4.547   4.334   5.689
 2807SOL    HW214437   4.388   4.363   5.666
 2808SOL     OW14438   0.867   3.336   0.961
 2808SOL    HW114439   0.953   3.286   0.970
 2808SOL    HW214440   0.847   3.383   1.047
 2809SOL     OW14441   5.623   1.928   5.821
 2809SOL    HW114442   5.611   1.993   5.896
 2809SOL    HW214443   5.712   1.942   5.778
 2810SOL     OW14444   4.219   1.528   5.303
 2810SOL    HW114445   4.126   1.526   5.339
 2810SOL    HW214446   4.256   1.620   5.312
 2811SOL     OW14447   0.142   6.243   1.176
 2811SOL    HW114448   0.208   6.236   1.102
 2811SOL    HW214449   0.175   6.192   1.255
 2812SOL     OW14450   1.575   5.682   5.749
 2812SOL    HW114451   1.598   5.712   5.842
 2812SOL    HW214452   1.510   5.747   5.708
 2813SOL     OW14453   0.450   4.559   1.058
 2813SOL    HW114454   0.401   4.597   1.136
 2813SOL    HW214455   0.385   4.532   0.987
 2814SOL     OW14456   6.171   2.328   0.528
 2814SOL    HW114457   6.166   2.368   0.437
 2814SOL    HW214458   6.188   2.229   0.521
 2815SOL     OW14459   0.735   2.074   1.356
 2815SOL    HW114460   0.807   2.141   1.370
 2815SOL    HW214461   0.771   1.982   1.373
 2816SOL     OW14462   2.942   3.552   5.412
 2816SOL    HW114463   3.017   3.537   5.348
 2816SOL    HW214464   2.930   3.471   5.470
 2817SOL     OW14465   3.478   2.948   6.024
 2817SOL    HW114466   3.528   2.864   6.049
 2817SOL    HW214467   3.463   2.950   5.926
 2818SOL     OW14468   2.350   0.540   0.965
 2818SOL    HW114469   2.353   0.623   1.021
 2818SOL    HW214470   2.260   0.498   0.973
 2819SOL     OW14471   2.429   0.585   0.695
 2819SOL    HW114472   2.354   0.648   0.678
 2819SOL    HW214473   2.418   0.546   0.787
 2820SOL     OW14474   2.970   1.098   5.837
 2820SOL    HW114475   2.939   1.008   5.806
 2820SOL    HW214476   3.049   1.087   5.897
 2821SOL     OW14477   3.833   0.315   6.453
 2821SOL    HW114478   3.743   0.273   6.449
 2821SOL    HW214479   3.827   0.400   6.506
 2822SOL     OW14480   2.726   4.671   6.014
 2822SOL    HW114481   2.766   4.717   5.935
 2822SOL    HW214482   2.661   4.602   5.984
 2823SOL     OW14483   2.460   1.707   6.129
 2823SOL    HW114484   2.417   1.618   6.144
 2823SOL    HW214485   2.523   1.728   6.204
 2824SOL     OW14486   3.025   4.660   1.799
 2824SOL    HW114487   3.038   4.564   1.821
 2824SOL    HW214488   2.933   4.688   1.825
 2825SOL     OW14489   3.019   5.903   0.599
 2825SOL    HW114490   3.040   5.893   0.501
 2825SOL    HW214491   3.099   5.878   0.653
 2826SOL     OW14492   4.052   2.899   1.812
 2826SOL    HW114493   4.004   2.899   1.899
 2826SOL    HW214494   4.126   2.832   1.814
 2827SOL     OW14495   4.531   2.330   5.268
 2827SOL    HW114496   4.529   2.252   5.331
 2827SOL    HW214497   4.524   2.415   5.321
 2828SOL     OW14498   3.206   3.565   1.027
 2828SOL    HW114499   3.137   3.530   0.963
 2828SOL    HW214500   3.296   3.559   0.986
 2829SOL     OW14501   4.199   0.108   6.010
 2829SOL    HW114502   4.250   0.188   6.042
 2829SOL    HW214503   4.131   0.137   5.943
 2830SOL     OW14504   1.083   4.447   6.246
 2830SOL    HW114505   0.986   4.430   6.229
 2830SOL    HW214506   1.137   4.367   6.217
 2831SOL     OW14507   3.756   4.256   1.717
 2831SOL    HW114508   3.728   4.160   1.722
 2831SOL    HW214509   3.680   4.315   1.744
 2832SOL     OW14510   0.022   0.461   6.524
 2832SOL    HW114511   6.387   0.453   6.440
 2832SOL    HW214512   6.403   0.533   6.582
 2833SOL     OW14513   2.432   1.982   0.774
 2833SOL    HW114514   2.422   2.059   0.837
 2833SOL    HW214515   2.453   1.899   0.825
 2834SOL     OW14516   2.873   0.503   6.456
 2834SOL    HW114517   2.877   0.571   6.529
 2834SOL    HW214518   2.955   0.446   6.459
 2835SOL     OW14519   6.333   4.559   0.177
 2835SOL    HW114520   6.320   4.586   0.082
 2835SOL    HW214521   6.260   4.496   0.205
 2836SOL     OW14522   2.534   3.319   0.634
 2836SOL    HW114523   2.593   3.238   0.634
 2836SOL    HW214524   2.568   3.386   0.700
 2837SOL     OW14525   2.336   3.504   6.396
 2837SOL    HW114526   2.333   3.601   6.421
 2837SOL    HW214527   2.274   3.488   6.319
 2838SOL     OW14528   5.487   6.300   5.149
 2838SOL    HW114529   5.412   6.366   5.149
 2838SOL    HW214530   5.449   6.207   5.143
 2839SOL     OW14531   1.407   5.015   6.460
 2839SOL    HW114532   1.396   5.093   6.399
 2839SOL    HW214533   1.471   5.039   6.533
 2840SOL     OW14534   4.400   3.338   6.135
 2840SOL    HW114535   4.387   3.434   6.158
 2840SOL    HW214536   4.450   3.292   6.208
 2841SOL     OW14537   2.035   5.762   6.473
 2841SOL    HW114538   2.088   5.846   6.460
 2841SOL    HW214539   1.941   5.786   6.497
 2842SOL     OW14540   2.290   1.832   6.572
 2842SOL    HW114541   2.366   1.851   0.037
 2842SOL    HW214542   2.269   1.915   6.519
 2843SOL     OW14543   1.772   5.254   5.077
 2843SOL    HW114544   1.746   5.349   5.094
 2843SOL    HW214545   1.761   5.233   4.980
 2844SOL     OW14546   1.508   2.795   0.812
 2844SOL    HW114547   1.456   2.776   0.729
 2844SOL    HW214548   1.446   2.807   0.889
 2845SOL     OW14549   4.573   3.159   5.493
 2845SOL    HW114550   4.545   3.141   5.399
 2845SOL    HW214551   4.497   3.199   5.544
 2846SOL     OW14552   1.447   2.077   0.963
 2846SOL    HW114553   1.452   1.978   0.975
 2846SOL    HW214554   1.539   2.114   0.957
 2847SOL     OW14555   1.463   0.728   1.568
 2847SOL    HW114556   1.520   0.785   1.628
 2847SOL    HW214557   1.367   0.753   1.579
 2848SOL     OW14558   4.484   2.694   4.776
 2848SOL    HW114559   4.578   2.682   4.807
 2848SOL    HW214560   4.464   2.791   4.765
 2849SOL     OW14561   0.531   3.219   6.093
 2849SOL    HW114562   0.456   3.211   6.028
 2849SOL    HW214563   0.534   3.311   6.131
 2850SOL     OW14564   4.569   2.102   5.479
 2850SOL    HW114565   4.490   2.066   5.431
 2850SOL    HW214566   4.546   2.118   5.575
 2851SOL     OW14567   6.143   4.486   6.105
 2851SOL    HW114568   6.217   4.436   6.150
 2851SOL    HW214569   6.166   4.583   6.098
 2852SOL     OW14570   2.499   3.915   1.269
 2852SOL    HW114571   2.441   3.918   1.350
 2852SOL    HW214572   2.575   3.851   1.284
 2853SOL     OW14573   5.857   2.210   4.914
 2853SOL    HW114574   5.950   2.175   4.899
 2853SOL    HW214575   5.792   2.154   4.864
 2854SOL     OW14576   5.895   4.985   0.877
 2854SOL    HW114577   5.812   4.995   0.822
 2854SOL    HW214578   5.884   4.908   0.940
 2855SOL     OW14579   2.886   3.491   6.064
 2855SOL    HW114580   2.893   3.569   6.003
 2855SOL    HW214581   2.975   3.473   6.107
 2856SOL     OW14582   6.036   5.143   0.278
 2856SOL    HW114583   6.066   5.238   0.268
 2856SOL    HW214584   5.964   5.138   0.347
 2857SOL     OW14585   1.193   4.239   6.057
 2857SOL    HW114586   1.120   4.203   5.999
 2857SOL    HW214587   1.205   4.180   6.137
 2858SOL     OW14588   5.898   2.579   5.668
 2858SOL    HW114589   5.965   2.603   5.598
 2858SOL    HW214590   5.821   2.642   5.664
 2859SOL     OW14591   6.380   5.621   6.426
 2859SOL    HW114592   6.360   5.717   6.406
 2859SOL    HW214593   6.325   5.563   6.366
 2860SOL     OW14594   0.024   2.172   1.143
 2860SOL    HW114595   0.078   2.233   1.084
 2860SOL    HW214596   0.083   2.134   1.214
 2861SOL     OW14597   0.145   3.134   6.406
 2861SOL    HW114598   0.051   3.100   6.407
 2861SOL    HW214599   0.200   3.079   6.344
 2862SOL     OW14600   5.958   5.828   0.029
 2862SOL    HW114601   5.906   5.904   0.067
 2862SOL    HW214602   6.052   5.832   0.063
 2863SOL     OW14603   5.635   0.016   5.309
 2863SOL    HW114604   5.703   0.053   5.246
 2863SOL    HW214605   5.579   6.391   5.262
 2864SOL     OW14606   0.726   2.228   5.727
 2864SOL    HW114607   0.692   2.320   5.748
 2864SOL    HW214608   0.741   2.178   5.813
 2865SOL     OW14609   6.264   2.690   1.750
 2865SOL    HW114610   6.177   2.732   1.775
 2865SOL    HW214611   6.307   2.651   1.832
 2866SOL     OW14612   3.574   5.618   1.462
 2866SOL    HW114613   3.592   5.694   1.523
 2866SOL    HW214614   3.520   5.549   1.509
 2867SOL     OW14615   1.101   3.001   0.723
 2867SOL    HW114616   1.172   2.995   0.793
 2867SOL    HW214617   1.066   2.910   0.703
 2868SOL     OW14618   3.785   1.969   5.713
 2868SOL    HW114619   3.831   2.058   5.707
 2868SOL    HW214620   3.707   1.967   5.650
 2869SOL     OW14621   3.229   3.565   0.049
 2869SOL    HW114622   3.253   3.475   0.086
 2869SOL    HW214623   3.285   3.582   6.564
 2870SOL     OW14624   5.452   6.361   6.180
 2870SOL    HW114625   5.491   6.270   6.195
 2870SOL    HW214626   5.504   6.429   6.232
 2871SOL     OW14627   0.575   5.642   1.330
 2871SOL    HW114628   0.563   5.604   1.239
 2871SOL    HW214629   0.503   5.708   1.349
 2872SOL     OW14630   0.750   0.489   6.072
 2872SOL    HW114631   0.788   0.473   5.981
 2872SOL    HW214632   0.783   0.419   6.135
 2873SOL     OW14633   4.200   5.922   5.776
 2873SOL    HW114634   4.148   5.896   5.694
 2873SOL    HW214635   4.136   5.940   5.851
 2874SOL     OW14636   1.354   3.009   5.876
 2874SOL    HW114637   1.385   2.917   5.901
 2874SOL    HW214638   1.255   3.015   5.889
 2875SOL     OW14639   3.319   2.098   5.871
 2875SOL    HW114640   3.355   2.048   5.950
 2875SOL    HW214641   3.284   2.032   5.804
 2876SOL     OW14642   5.387   1.807   5.051
 2876SOL    HW114643   5.292   1.839   5.050
 2876SOL    HW214644   5.444   1.871   5.103
 2877SOL     OW14645   2.132   4.572   5.790
 2877SOL    HW114646   2.079   4.497   5.751
 2877SOL    HW214647   2.129   4.651   5.729
 2878SOL     OW14648   3.620   4.707   1.422
 2878SOL    HW114649   3.531   4.666   1.403
 2878SOL    HW214650   3.635   4.707   1.521
 2879SOL     OW14651   3.589   3.990   0.328
 2879SOL    HW114652   3.587   4.087   0.356
 2879SOL    HW214653   3.596   3.984   0.229
 2880SOL     OW14654   3.275   1.990   0.826
 2880SOL    HW114655   3.183   1.968   0.792
 2880SOL    HW214656   3.283   1.961   0.921
 2881SOL     OW14657   4.787   2.620   0.757
 2881SOL    HW114658   4.725   2.579   0.690
 2881SOL    HW214659   4.842   2.548   0.799
 2882SOL     OW14660   1.797   4.396   0.401
 2882SOL    HW114661   1.735   4.356   0.333
 2882SOL    HW214662   1.829   4.324   0.463
 2883SOL     OW14663   3.968   2.192   0.495
 2883SOL    HW114664   4.058   2.203   0.454
 2883SOL    HW214665   3.905   2.153   0.427
 2884SOL     OW14666   3.525   5.066   1.265
 2884SOL    HW114667   3.619   5.063   1.231
 2884SOL    HW214668   3.485   5.155   1.246
 2885SOL     OW14669   2.713   0.102   6.003
 2885SOL    HW114670   2.717   0.202   6.002
 2885SOL    HW214671   2.801   0.066   6.037
 2886SOL     OW14672   6.163   1.338   1.081
 2886SOL    HW114673   6.079   1.352   1.028
 2886SOL    HW214674   6.233   1.402   1.050
 2887SOL     OW14675   5.964   2.645   0.666
 2887SOL    HW114676   5.872   2.638   0.704
 2887SOL    HW214677   5.959   2.653   0.567
 2888SOL     OW14678   3.874   2.348   5.957
 2888SOL    HW114679   3.775   2.362   5.952
 2888SOL    HW214680   3.900   2.325   6.051
 2889SOL     OW14681   4.145   2.996   6.482
 2889SOL    HW114682   4.175   2.999   6.387
 2889SOL    HW214683   4.222   2.972   6.541
 2890SOL     OW14684   0.006   0.541   1.020
 2890SOL    HW114685   6.381   0.628   1.048
 2890SOL    HW214686   0.086   0.561   0.964
 2891SOL     OW14687   2.381   6.372   1.044
 2891SOL    HW114688   2.359   6.341   1.136
 2891SOL    HW214689   2.297   6.379   0.990
 2892SOL     OW14690   5.329   2.372   5.690
 2892SOL    HW114691   5.373   2.283   5.676
 2892SOL    HW214692   5.297   2.380   5.784
 2893SOL     OW14693   5.765   3.846   0.724
 2893SOL    HW114694   5.769   3.783   0.802
 2893SOL    HW214695   5.827   3.814   0.652
 2894SOL     OW14696   1.528   0.192   0.681
 2894SOL    HW114697   1.447   0.248   0.695
 2894SOL    HW214698   1.610   0.250   0.684
 2895SOL     OW14699   0.558   3.492   6.212
 2895SOL    HW114700   0.583   3.468   6.305
 2895SOL    HW214701   0.484   3.560   6.213
 2896SOL     OW14702   2.292   2.543   6.084
 2896SOL    HW114703   2.383   2.503   6.073
 2896SOL    HW214704   2.277   2.568   6.180
 2897SOL     OW14705   2.576   1.894   1.547
 2897SOL    HW114706   2.576   1.987   1.584
 2897SOL    HW214707   2.590   1.829   1.622
 2898SOL     OW14708   2.402   5.315   6.279
 2898SOL    HW114709   2.347   5.346   6.201
 2898SOL    HW214710   2.401   5.215   6.282
 2899SOL     OW14711   2.047   4.551   5.176
 2899SOL    HW114712   2.049   4.483   5.103
 2899SOL    HW214713   1.978   4.620   5.155
 2900SOL     OW14714   0.924   3.529   5.888
 2900SOL    HW114715   0.894   3.618   5.853
 2900SOL    HW214716   1.019   3.513   5.862
 2901SOL     OW14717   0.801   5.902   6.027
 2901SOL    HW114718   0.874   5.894   6.095
 2901SOL    HW214719   0.767   5.811   6.003
 2902SOL     OW14720   3.235   4.532   1.115
 2902SOL    HW114721   3.226   4.627   1.086
 2902SOL    HW214722   3.159   4.478   1.078
 2903SOL     OW14723   3.566   6.022   6.164
 2903SOL    HW114724   3.615   6.107   6.147
 2903SOL    HW214725   3.474   6.028   6.125
 2904SOL     OW14726   5.455   4.210   6.269
 2904SOL    HW114727   5.551   4.234   6.259
 2904SOL    HW214728   5.425   4.158   6.189
 2905SOL     OW14729   2.330   4.802   0.567
 2905SOL    HW114730   2.415   4.807   0.619
 2905SOL    HW214731   2.285   4.714   0.584
 2906SOL     OW14732   0.838   5.129   1.116
 2906SOL    HW114733   0.770   5.057   1.102
 2906SOL    HW214734   0.930   5.093   1.099
 2907SOL     OW14735   6.107   0.408   0.137
 2907SOL    HW114736   6.018   0.368   0.116
 2907SOL    HW214737   6.121   0.488   0.078
 2908SOL     OW14738   0.585   1.538   0.689
 2908SOL    HW114739   0.549   1.447   0.667
 2908SOL    HW214740   0.516   1.590   0.738
 2909SOL     OW14741   4.197   5.698   1.099
 2909SOL    HW114742   4.131   5.625   1.120
 2909SOL    HW214743   4.148   5.783   1.082
 2910SOL     OW14744   3.845   4.849   5.100
 2910SOL    HW114745   3.916   4.920   5.090
 2910SOL    HW214746   3.760   4.892   5.129
 2911SOL     OW14747   0.607   2.406   0.833
 2911SOL    HW114748   0.634   2.395   0.929
 2911SOL    HW214749   0.602   2.316   0.790
 2912SOL     OW14750   2.570   5.058   0.650
 2912SOL    HW114751   2.576   5.117   0.569
 2912SOL    HW214752   2.569   5.115   0.732
 2913SOL     OW14753   5.923   3.135   0.033
 2913SOL    HW114754   5.933   3.036   0.044
 2913SOL    HW214755   5.928   3.179   0.123
 2914SOL     OW14756   1.550   4.997   5.933
 2914SOL    HW114757   1.603   5.014   5.850
 2914SOL    HW214758   1.520   5.084   5.972
 2915SOL     OW14759   4.079   3.394   6.183
 2915SOL    HW114760   4.073   3.296   6.200
 2915SOL    HW214761   4.175   3.423   6.190
 2916SOL     OW14762   1.436   0.572   0.983
 2916SOL    HW114763   1.478   0.582   0.893
 2916SOL    HW214764   1.373   0.648   0.999
 2917SOL     OW14765   3.628   3.090   5.577
 2917SOL    HW114766   3.714   3.125   5.542
 2917SOL    HW214767   3.560   3.088   5.503
 2918SOL     OW14768   1.272   2.589   6.123
 2918SOL    HW114769   1.303   2.576   6.028
 2918SOL    HW214770   1.172   2.592   6.125
 2919SOL     OW14771   0.013   3.503   6.479
 2919SOL    HW114772   6.353   3.443   6.463
 2919SOL    HW214773   0.036   3.502   6.577
 2920SOL     OW14774   5.535   5.201   6.509
 2920SOL    HW114775   5.487   5.116   6.528
 2920SOL    HW214776   5.633   5.186   6.515
 2921SOL     OW14777   2.119   2.997   1.278
 2921SOL    HW114778   2.078   2.954   1.358
 2921SOL    HW214779   2.216   2.973   1.274
 2922SOL     OW14780   0.221   1.501   0.768
 2922SOL    HW114781   0.156   1.479   0.695
 2922SOL    HW214782   0.211   1.435   0.843
 2923SOL     OW14783   1.979   5.875   5.185
 2923SOL    HW114784   1.956   5.795   5.130
 2923SOL    HW214785   1.998   5.953   5.125
 2924SOL     OW14786   4.240   4.191   0.500
 2924SOL    HW114787   4.308   4.205   0.428
 2924SOL    HW214788   4.255   4.258   0.573
 2925SOL     OW14789   1.322   6.355   1.346
 2925SOL    HW114790   1.367   6.290   1.407
 2925SOL    HW214791   1.281   6.428   1.401
 2926SOL     OW14792   2.921   4.238   0.016
 2926SOL    HW114793   2.866   4.188   0.083
 2926SOL    HW214794   3.016   4.209   0.023
 2927SOL     OW14795   4.325   4.221   6.234
 2927SOL    HW114796   4.298   4.156   6.305
 2927SOL    HW214797   4.424   4.234   6.239
 2928SOL     OW14798   0.148   5.437   6.511
 2928SOL    HW114799   0.080   5.509   6.502
 2928SOL    HW214800   0.149   5.382   6.427
 2929SOL     OW14801   6.139   2.977   6.242
 2929SOL    HW114802   6.079   2.934   6.174
 2929SOL    HW214803   6.184   3.056   6.201
 2930SOL     OW14804   0.615   6.078   6.145
 2930SOL    HW114805   0.662   6.089   6.232
 2930SOL    HW214806   0.668   6.017   6.085
 2931SOL     OW14807   1.091   3.213   1.068
 2931SOL    HW114808   1.085   3.251   1.160
 2931SOL    HW214809   1.184   3.180   1.051
 2932SOL     OW14810   5.562   5.022   0.287
 2932SOL    HW114811   5.567   5.121   0.301
 2932SOL    HW214812   5.519   5.003   0.199
 2933SOL     OW14813   1.262   1.781   0.098
 2933SOL    HW114814   1.324   1.703   0.100
 2933SOL    HW214815   1.176   1.757   0.143
 2934SOL     OW14816   0.697   4.879   1.105
 2934SOL    HW114817   0.602   4.909   1.098
 2934SOL    HW214818   0.722   4.870   1.201
 2935SOL     OW14819   1.553   4.129   0.905
 2935SOL    HW114820   1.518   4.088   0.989
 2935SOL    HW214821   1.620   4.068   0.863
 2936SOL     OW14822   0.078   6.050   6.015
 2936SOL    HW114823   0.166   6.038   6.059
 2936SOL    HW214824   0.092   6.073   5.918
 2937SOL     OW14825   0.779   3.666   4.841
 2937SOL    HW114826   0.791   3.694   4.936
 2937SOL    HW214827   0.722   3.732   4.792
 2938SOL     OW14828   0.409   3.412   0.097
 2938SOL    HW114829   0.482   3.367   0.046
 2938SOL    HW214830   0.362   3.344   0.154
 2939SOL     OW14831   5.773   5.442   0.452
 2939SOL    HW114832   5.805   5.537   0.457
 2939SOL    HW214833   5.673   5.441   0.459
 2940SOL     OW14834   4.381   1.873   5.918
 2940SOL    HW114835   4.283   1.891   5.929
 2940SOL    HW214836   4.431   1.912   5.995
 2941SOL     OW14837   4.576   5.879   4.908
 2941SOL    HW114838   4.550   5.799   4.855
 2941SOL    HW214839   4.616   5.850   4.995
 2942SOL     OW14840   1.965   1.357   6.375
 2942SOL    HW114841   1.920   1.366   6.286
 2942SOL    HW214842   1.950   1.441   6.428
 2943SOL     OW14843   4.297   4.368   0.710
 2943SOL    HW114844   4.319   4.347   0.805
 2943SOL    HW214845   4.381   4.393   0.661
 2944SOL     OW14846   2.476   5.390   0.273
 2944SOL    HW114847   2.399   5.429   0.222
 2944SOL    HW214848   2.543   5.354   0.208
 2945SOL     OW14849   2.236   3.957   5.732
 2945SOL    HW114850   2.263   3.863   5.710
 2945SOL    HW214851   2.148   3.955   5.780
 2946SOL     OW14852   0.240   2.773   1.252
 2946SOL    HW114853   0.270   2.857   1.298
 2946SOL    HW214854   0.145   2.753   1.277
 2947SOL     OW14855   1.554   0.900   5.490
 2947SOL    HW114856   1.470   0.888   5.437
 2947SOL    HW214857   1.633   0.875   5.434
 2948SOL     OW14858   4.125   1.921   6.036
 2948SOL    HW114859   4.136   2.016   6.066
 2948SOL    HW214860   4.075   1.920   5.949
 2949SOL     OW14861   4.026   5.829   0.466
 2949SOL    HW114862   4.065   5.806   0.377
 2949SOL    HW214863   4.050   5.923   0.489
 2950SOL     OW14864   0.122   5.608   0.555
 2950SOL    HW114865   0.087   5.576   0.468
 2950SOL    HW214866   0.063   5.681   0.590
 2951SOL     OW14867   6.036   4.779   5.775
 2951SOL    HW114868   6.102   4.745   5.708
 2951SOL    HW214869   5.990   4.860   5.740
 2952SOL     OW14870   2.686   6.206   0.105
 2952SOL    HW114871   2.688   6.239   0.011
 2952SOL    HW214872   2.747   6.261   0.161
 2953SOL     OW14873   4.887   5.328   1.717
 2953SOL    HW114874   4.918   5.421   1.696
 2953SOL    HW214875   4.828   5.330   1.797
 2954SOL     OW14876   0.096   3.238   6.080
 2954SOL    HW114877   0.132   3.286   6.160
 2954SOL    HW214878   6.415   3.245   6.079
 2955SOL     OW14879   3.099   0.626   0.630
 2955SOL    HW114880   3.179   0.604   0.685
 2955SOL    HW214881   3.042   0.545   0.621
 2956SOL     OW14882   6.068   5.593   5.539
 2956SOL    HW114883   6.101   5.548   5.456
 2956SOL    HW214884   6.001   5.534   5.584
 2957SOL     OW14885   0.875   5.027   0.336
 2957SOL    HW114886   0.923   5.042   0.422
 2957SOL    HW214887   0.919   4.954   0.285
 2958SOL     OW14888   4.807   0.291   5.087
 2958SOL    HW114889   4.880   0.241   5.134
 2958SOL    HW214890   4.847   0.348   5.015
 2959SOL     OW14891   2.976   3.987   5.826
 2959SOL    HW114892   3.007   4.070   5.872
 2959SOL    HW214893   2.930   4.011   5.740
 2960SOL     OW14894   5.999   4.274   5.797
 2960SOL    HW114895   5.957   4.247   5.884
 2960SOL    HW214896   6.080   4.330   5.815
 2961SOL     OW14897   2.434   0.364   6.170
 2961SOL    HW114898   2.521   0.391   6.131
 2961SOL    HW214899   2.423   0.265   6.163
 2962SOL     OW14900   4.520   5.011   1.880
 2962SOL    HW114901   4.498   4.932   1.936
 2962SOL    HW214902   4.611   5.044   1.904
 2963SOL     OW14903   3.635   3.606   0.330
 2963SOL    HW114904   3.541   3.586   0.357
 2963SOL    HW214905   3.691   3.623   0.411
 2964SOL     OW14906   2.467   2.855   6.359
 2964SOL    HW114907   2.478   2.955   6.361
 2964SOL    HW214908   2.459   2.821   6.453
 2965SOL     OW14909   3.308   3.318   5.089
 2965SOL    HW114910   3.393   3.271   5.064
 2965SOL    HW214911   3.243   3.252   5.125
 2966SOL     OW14912   4.911   0.057   6.377
 2966SOL    HW114913   4.924   0.078   6.281
 2966SOL    HW214914   4.877   0.139   6.425
 2967SOL     OW14915   5.370   4.158   1.060
 2967SOL    HW114916   5.464   4.190   1.073
 2967SOL    HW214917   5.334   4.122   1.146
 2968SOL     OW14918   1.320   0.390   0.656
 2968SOL    HW114919   1.283   0.454   0.723
 2968SOL    HW214920   1.244   0.340   0.613
 2969SOL     OW14921   2.451   0.176   5.275
 2969SOL    HW114922   2.368   0.218   5.239
 2969SOL    HW214923   2.518   0.166   5.201
 2970SOL     OW14924   1.374   1.529   0.112
 2970SOL    HW114925   1.305   1.469   0.072
 2970SOL    HW214926   1.464   1.504   0.078
 2971SOL     OW14927   1.966   0.548   5.871
 2971SOL    HW114928   2.062   0.528   5.853
 2971SOL    HW214929   1.946   0.643   5.847
 2972SOL     OW14930   3.422   2.588   5.432
 2972SOL    HW114931   3.397   2.499   5.470
 2972SOL    HW214932   3.501   2.577   5.371
 2973SOL     OW14933   5.308   1.882   0.518
 2973SOL    HW114934   5.344   1.792   0.495
 2973SOL    HW214935   5.208   1.880   0.515
 2974SOL     OW14936   4.706   3.303   1.018
 2974SOL    HW114937   4.712   3.209   1.052
 2974SOL    HW214938   4.633   3.309   0.950
 2975SOL     OW14939   3.417   0.389   6.110
 2975SOL    HW114940   3.351   0.314   6.097
 2975SOL    HW214941   3.382   0.472   6.067
 2976SOL     OW14942   1.162   1.795   4.834
 2976SOL    HW114943   1.232   1.809   4.904
 2976SOL    HW214944   1.071   1.796   4.877
 2977SOL     OW14945   1.889   6.143   5.347
 2977SOL    HW114946   1.831   6.201   5.290
 2977SOL    HW214947   1.836   6.110   5.426
 2978SOL     OW14948   1.366   4.904   5.714
 2978SOL    HW114949   1.393   4.993   5.676
 2978SOL    HW214950   1.418   4.886   5.798
 2979SOL     OW14951   2.835   5.644   1.282
 2979SOL    HW114952   2.814   5.578   1.210
 2979SOL    HW214953   2.769   5.634   1.357
 2980SOL     OW14954   6.319   6.440   0.621
 2980SOL    HW114955   6.353   0.059   0.550
 2980SOL    HW214956   6.395   6.388   0.659
 2981SOL     OW14957   3.979   6.266   0.036
 2981SOL    HW114958   3.909   6.313   6.578
 2981SOL    HW214959   4.059   6.325   0.045
 2982SOL     OW14960   5.004   5.911   5.762
 2982SOL    HW114961   4.955   5.894   5.677
 2982SOL    HW214962   4.954   5.979   5.816
 2983SOL     OW14963   4.832   2.058   5.379
 2983SOL    HW114964   4.882   2.124   5.435
 2983SOL    HW214965   4.737   2.053   5.409
 2984SOL     OW14966   2.575   0.960   5.869
 2984SOL    HW114967   2.562   0.884   5.932
 2984SOL    HW214968   2.649   1.018   5.902
 2985SOL     OW14969   3.412   0.351   1.487
 2985SOL    HW114970   3.421   0.431   1.546
 2985SOL    HW214971   3.326   0.304   1.509
 2986SOL     OW14972   4.181   0.555   6.177
 2986SOL    HW114973   4.249   0.628   6.165
 2986SOL    HW214974   4.167   0.508   6.090
 2987SOL     OW14975   5.319   1.187   5.732
 2987SOL    HW114976   5.367   1.275   5.726
 2987SOL    HW214977   5.221   1.202   5.717
 2988SOL     OW14978   2.508   1.783   1.303
 2988SOL    HW114979   2.539   1.831   1.385
 2988SOL    HW214980   2.414   1.752   1.316
 2989SOL     OW14981   3.037   4.571   5.918
 2989SOL    HW114982   2.949   4.557   5.873
 2989SOL    HW214983   3.023   4.608   6.010
 2990SOL     OW14984   5.926   3.951   5.422
 2990SOL    HW114985   5.953   4.017   5.353
 2990SOL    HW214986   5.909   3.998   5.509
 2991SOL     OW14987   2.413   2.621   5.640
 2991SOL    HW114988   2.462   2.660   5.563
 2991SOL    HW214989   2.472   2.618   5.721
 2992SOL     OW14990   1.285   0.969   5.380
 2992SOL    HW114991   1.310   0.941   5.287
 2992SOL    HW214992   1.313   1.064   5.394
 2993SOL     OW14993   4.884   5.303   6.263
 2993SOL    HW114994   4.873   5.319   6.165
 2993SOL    HW214995   4.979   5.277   6.282
 2994SOL     OW14996   2.193   4.279   0.595
 2994SOL    HW114997   2.212   4.295   0.498
 2994SOL    HW214998   2.205   4.181   0.615
 2995SOL     OW14999   3.407   5.213   5.119
 2995SOL    HW115000   3.308   5.224   5.110
 2995SOL    HW215001   3.427   5.152   5.195
 2996SOL     OW15002   1.206   0.040   0.567
 2996SOL    HW115003   1.165   6.418   0.632
 2996SOL    HW215004   1.150   0.123   0.564
 2997SOL     OW15005   4.478   2.048   1.020
 2997SOL    HW115006   4.503   1.976   1.085
 2997SOL    HW215007   4.510   2.137   1.055
 2998SOL     OW15008   5.334   4.448   5.983
 2998SOL    HW115009   5.348   4.532   6.036
 2998SOL    HW215010   5.423   4.412   5.953
 2999SOL     OW15011   5.590   2.778   0.027
 2999SOL    HW115012   5.555   2.703   6.567
 2999SOL    HW215013   5.561   2.865   6.584
 3000SOL     OW15014   2.364   2.639   4.815
 3000SOL    HW115015   2.267   2.640   4.789
 3000SOL    HW215016   2.412   2.571   4.760
 3001SOL     OW15017   0.336   2.066   0.151
 3001SOL    HW115018   0.255   2.028   0.195
 3001SOL    HW215019   0.337   2.165   0.162
 3002SOL     OW15020   5.785   0.729   0.924
 3002SOL    HW115021   5.711   0.780   0.881
 3002SOL    HW215022   5.757   0.700   1.016
 3003SOL     OW15023   3.185   3.891   1.090
 3003SOL    HW115024   3.157   3.980   1.125
 3003SOL    HW215025   3.201   3.829   1.167
 3004SOL     OW15026   1.988   2.737   0.596
 3004SOL    HW115027   2.044   2.747   0.514
 3004SOL    HW215028   2.043   2.698   0.670
 3005SOL     OW15029   1.763   0.799   5.328
 3005SOL    HW115030   1.692   0.770   5.264
 3005SOL    HW215031   1.830   0.855   5.281
 3006SOL     OW15032   4.642   5.401   0.633
 3006SOL    HW115033   4.640   5.461   0.713
 3006SOL    HW215034   4.630   5.306   0.662
 3007SOL     OW15035   3.048   5.062   5.415
 3007SOL    HW115036   3.128   5.047   5.357
 3007SOL    HW215037   3.028   4.978   5.466
 3008SOL     OW15038   3.273   4.859   5.920
 3008SOL    HW115039   3.324   4.800   5.984
 3008SOL    HW215040   3.238   4.803   5.845
 3009SOL     OW15041   5.634   1.867   0.483
 3009SOL    HW115042   5.643   1.967   0.489
 3009SOL    HW215043   5.689   1.834   0.406
 3010SOL     OW15044   0.535   6.055   0.692
 3010SOL    HW115045   0.533   5.983   0.761
 3010SOL    HW215046   0.611   6.039   0.630
 3011SOL     OW15047   4.953   2.320   0.541
 3011SOL    HW115048   5.028   2.382   0.566
 3011SOL    HW215049   4.911   2.283   0.624
 3012SOL     OW15050   0.882   2.284   0.598
 3012SOL    HW115051   0.949   2.232   0.651
 3012SOL    HW215052   0.920   2.373   0.574
 3013SOL     OW15053   3.625   5.462   6.100
 3013SOL    HW115054   3.576   5.547   6.080
 3013SOL    HW215055   3.569   5.405   6.161
 3014SOL     OW15056   4.990   4.982   5.598
 3014SOL    HW115057   4.902   4.950   5.634
 3014SOL    HW215058   4.979   5.003   5.500
 3015SOL     OW15059   1.775   1.219   0.112
 3015SOL    HW115060   1.677   1.202   0.103
 3015SOL    HW215061   1.794   1.316   0.093
 3016SOL     OW15062   6.306   2.981   5.138
 3016SOL    HW115063   6.310   2.900   5.078
 3016SOL    HW215064   6.375   3.047   5.108
 3017SOL     OW15065   4.403   2.418   0.320
 3017SOL    HW115066   4.472   2.447   0.387
 3017SOL    HW215067   4.326   2.482   0.322
 3018SOL     OW15068   2.648   1.436   5.995
 3018SOL    HW115069   2.631   1.449   6.093
 3018SOL    HW215070   2.584   1.368   5.959
 3019SOL     OW15071   0.702   4.569   6.063
 3019SOL    HW115072   0.785   4.576   6.007
 3019SOL    HW215073   0.685   4.474   6.086
 3020SOL     OW15074   5.124   1.495   5.455
 3020SOL    HW115075   5.129   1.396   5.464
 3020SOL    HW215076   5.029   1.523   5.440
 3021SOL     OW15077   3.193   6.412   5.174
 3021SOL    HW115078   3.239   0.056   5.190
 3021SOL    HW215079   3.201   6.355   5.256
 3022SOL     OW15080   4.420   4.132   5.957
 3022SOL    HW115081   4.387   4.193   6.030
 3022SOL    HW215082   4.390   4.039   5.975
 3023SOL     OW15083   5.285   2.949   0.105
 3023SOL    HW115084   5.285   2.854   0.135
 3023SOL    HW215085   5.359   2.963   0.039
 3024SOL     OW15086   6.313   0.305   0.962
 3024SOL    HW115087   6.343   0.234   1.025
 3024SOL    HW215088   6.363   0.390   0.979
 3025SOL     OW15089   0.276   4.010   0.334
 3025SOL    HW115090   0.189   4.059   0.326
 3025SOL    HW215091   0.344   4.053   0.275
 3026SOL     OW15092   2.795   6.386   5.540
 3026SOL    HW115093   2.722   0.010   5.535
 3026SOL    HW215094   2.762   6.299   5.503
 3027SOL     OW15095   1.031   2.298   6.122
 3027SOL    HW115096   0.977   2.234   6.177
 3027SOL    HW215097   0.991   2.390   6.130
 3028SOL     OW15098   2.752   5.719   6.395
 3028SOL    HW115099   2.768   5.640   6.336
 3028SOL    HW215100   2.689   5.693   6.469
 3029SOL     OW15101   1.114   5.828   0.298
 3029SOL    HW115102   1.204   5.842   0.339
 3029SOL    HW215103   1.103   5.888   0.219
 3030SOL     OW15104   1.119   3.302   6.064
 3030SOL    HW115105   1.143   3.213   6.101
 3030SOL    HW215106   1.202   3.354   6.045
 3031SOL     OW15107   1.441   1.572   5.581
 3031SOL    HW115108   1.446   1.612   5.490
 3031SOL    HW215109   1.346   1.572   5.612
 3032SOL     OW15110   2.400   5.645   6.341
 3032SOL    HW115111   2.426   5.611   6.251
 3032SOL    HW215112   2.312   5.604   6.368
 3033SOL     OW15113   2.098   0.720   0.086
 3033SOL    HW115114   2.174   0.678   0.134
 3033SOL    HW215115   2.086   0.814   0.120
 3034SOL     OW15116   0.662   2.664   6.518
 3034SOL    HW115117   0.564   2.653   6.500
 3034SOL    HW215118   0.691   2.755   6.490
 3035SOL     OW15119   1.654   0.624   1.410
 3035SOL    HW115120   1.700   0.697   1.359
 3035SOL    HW215121   1.577   0.662   1.460
 3036SOL     OW15122   1.653   3.308   5.665
 3036SOL    HW115123   1.564   3.285   5.705
 3036SOL    HW215124   1.702   3.225   5.641
 3037SOL     OW15125   2.030   2.893   1.507
 3037SOL    HW115126   2.064   2.944   1.587
 3037SOL    HW215127   2.018   2.797   1.532
 3038SOL     OW15128   0.374   4.968   5.380
 3038SOL    HW115129   0.334   5.044   5.431
 3038SOL    HW215130   0.339   4.967   5.287
 3039SOL     OW15131   0.364   2.750   0.662
 3039SOL    HW115132   0.382   2.658   0.628
 3039SOL    HW215133   0.395   2.756   0.757
 3040SOL     OW15134   1.387   3.279   1.820
 3040SOL    HW115135   1.289   3.278   1.840
 3040SOL    HW215136   1.434   3.211   1.877
 3041SOL     OW15137   1.950   3.580   5.769
 3041SOL    HW115138   1.999   3.656   5.726
 3041SOL    HW215139   1.917   3.609   5.859
 3042SOL     OW15140   5.912   2.057   5.749
 3042SOL    HW115141   5.865   2.146   5.757
 3042SOL    HW215142   6.002   2.063   5.792
 3043SOL     OW15143   1.856   1.302   5.636
 3043SOL    HW115144   1.875   1.317   5.539
 3043SOL    HW215145   1.780   1.360   5.664
 3044SOL     OW15146   1.160   5.484   0.636
 3044SOL    HW115147   1.078   5.502   0.581
 3044SOL    HW215148   1.157   5.391   0.672
 3045SOL     OW15149   1.710   5.705   6.432
 3045SOL    HW115150   1.721   5.774   6.504
 3045SOL    HW215151   1.752   5.620   6.461
 3046SOL     OW15152   3.314   1.933   0.320
 3046SOL    HW115153   3.353   1.849   0.360
 3046SOL    HW215154   3.264   1.910   0.237
 3047SOL     OW15155   2.282   4.361   0.060
 3047SOL    HW115156   2.210   4.377   6.590
 3047SOL    HW215157   2.370   4.350   0.013
 3048SOL     OW15158   5.591   0.429   6.207
 3048SOL    HW115159   5.569   0.513   6.157
 3048SOL    HW215160   5.507   0.389   6.243
 3049SOL     OW15161   2.413   3.696   5.888
 3049SOL    HW115162   2.483   3.743   5.834
 3049SOL    HW215163   2.390   3.750   5.969
 3050SOL     OW15164   0.151   0.338   1.560
 3050SOL    HW115165   0.208   0.358   1.640
 3050SOL    HW215166   0.199   0.272   1.501
 3051SOL     OW15167   0.092   1.989   0.249
 3051SOL    HW115168   6.415   1.963   0.238
 3051SOL    HW215169   0.098   2.064   0.316
 3052SOL     OW15170   1.137   4.831   6.507
 3052SOL    HW115171   1.190   4.875   6.580
 3052SOL    HW215172   1.200   4.789   6.441
 3053SOL     OW15173   0.687   3.420   4.926
 3053SOL    HW115174   0.741   3.501   4.903
 3053SOL    HW215175   0.604   3.418   4.870
 3054SOL     OW15176   1.475   3.244   6.189
 3054SOL    HW115177   1.506   3.247   6.284
 3054SOL    HW215178   1.392   3.189   6.183
 3055SOL     OW15179   1.106   4.705   6.150
 3055SOL    HW115180   1.088   4.615   6.189
 3055SOL    HW215181   1.195   4.739   6.184
 3056SOL     OW15182   1.596   0.498   6.169
 3056SOL    HW115183   1.655   0.440   6.112
 3056SOL    HW215184   1.642   0.584   6.189
 3057SOL     OW15185   0.854   3.230   0.336
 3057SOL    HW115186   0.927   3.261   0.396
 3057SOL    HW215187   0.866   3.133   0.315
 3058SOL     OW15188   0.519   1.280   0.638
 3058SOL    HW115189   0.519   1.244   0.731
 3058SOL    HW215190   0.457   1.225   0.581
 3059SOL     OW15191   3.299   0.921   1.053
 3059SOL    HW115192   3.351   0.951   1.133
 3059SOL    HW215193   3.313   0.823   1.039
 3060SOL     OW15194   4.035   5.050   1.062
 3060SOL    HW115195   4.113   5.013   1.113
 3060SOL    HW215196   4.015   4.990   0.984
 3061SOL     OW15197   3.595   2.535   5.883
 3061SOL    HW115198   3.553   2.444   5.876
 3061SOL    HW215199   3.655   2.550   5.804
 3062SOL     OW15200   5.234   5.415   0.755
 3062SOL    HW115201   5.208   5.319   0.745
 3062SOL    HW215202   5.173   5.460   0.820
 3063SOL     OW15203   3.592   6.162   0.350
 3063SOL    HW115204   3.573   6.256   0.379
 3063SOL    HW215205   3.688   6.155   0.323
 3064SOL     OW15206   2.215   2.413   6.563
 3064SOL    HW115207   2.180   2.506   6.563
 3064SOL    HW215208   2.314   2.415   6.547
 3065SOL     OW15209   1.719   3.799   1.585
 3065SOL    HW115210   1.763   3.863   1.648
 3065SOL    HW215211   1.624   3.785   1.613
 3066SOL     OW15212   4.338   1.048   5.526
 3066SOL    HW115213   4.395   0.970   5.501
 3066SOL    HW215214   4.346   1.119   5.455
 3067SOL     OW15215   4.100   5.409   6.430
 3067SOL    HW115216   4.189   5.371   6.456
 3067SOL    HW215217   4.089   5.500   6.470
 3068SOL     OW15218   0.113   2.617   0.456
 3068SOL    HW115219   0.075   2.706   0.484
 3068SOL    HW215220   0.132   2.562   0.538
 3069SOL     OW15221   1.111   0.093   5.249
 3069SOL    HW115222   1.183   0.137   5.196
 3069SOL    HW215223   1.034   0.071   5.190
 3070SOL     OW15224   5.125   3.803   6.563
 3070SOL    HW115225   5.097   3.715   0.005
 3070SOL    HW215226   5.122   3.873   0.038
 3071SOL     OW15227   0.005   2.061   6.219
 3071SOL    HW115228   0.087   2.086   6.168
 3071SOL    HW215229   0.031   2.018   6.305
 3072SOL     OW15230   4.657   0.799   1.281
 3072SOL    HW115231   4.625   0.827   1.372
 3072SOL    HW215232   4.725   0.726   1.291
 3073SOL     OW15233   3.648   5.817   1.643
 3073SOL    HW115234   3.631   5.839   1.739
 3073SOL    HW215235   3.706   5.888   1.602
 3074SOL     OW15236   3.244   4.368   0.738
 3074SOL    HW115237   3.199   4.449   0.776
 3074SOL    HW215238   3.190   4.333   0.661
 3075SOL     OW15239   4.168   6.168   1.199
 3075SOL    HW115240   4.091   6.232   1.189
 3075SOL    HW215241   4.172   6.136   1.294
 3076SOL     OW15242   5.042   4.970   0.925
 3076SOL    HW115243   5.065   5.045   0.988
 3076SOL    HW215244   4.950   4.937   0.947
 3077SOL     OW15245   5.449   5.377   6.315
 3077SOL    HW115246   5.466   5.297   6.373
 3077SOL    HW215247   5.531   5.434   6.312
 3078SOL     OW15248   2.733   4.041   5.974
 3078SOL    HW115249   2.676   4.124   5.975
 3078SOL    HW215250   2.739   4.007   5.880
 3079SOL     OW15251   3.632   5.077   5.402
 3079SOL    HW115252   3.718   5.122   5.426
 3079SOL    HW215253   3.568   5.084   5.478
 3080SOL     OW15254   4.008   5.656   5.963
 3080SOL    HW115255   3.967   5.747   5.967
 3080SOL    HW215256   4.045   5.640   5.872
 3081SOL     OW15257   2.835   4.094   0.251
 3081SOL    HW115258   2.739   4.121   0.248
 3081SOL    HW215259   2.873   4.115   0.341
 3082SOL     OW15260   1.349   1.420   0.384
 3082SOL    HW115261   1.442   1.382   0.393
 3082SOL    HW215262   1.330   1.439   0.288
 3083SOL     OW15263   2.535   4.805   0.741
 3083SOL    HW115264   2.568   4.887   0.694
 3083SOL    HW215265   2.540   4.819   0.840
 3084SOL     OW15266   2.612   4.283   6.021
 3084SOL    HW115267   2.614   4.365   5.964
 3084SOL    HW215268   2.530   4.285   6.079
 3085SOL     OW15269   4.626   1.280   5.507
 3085SOL    HW115270   4.652   1.198   5.456
 3085SOL    HW215271   4.695   1.351   5.492
 3086SOL     OW15272   1.786   3.968   5.692
 3086SOL    HW115273   1.831   3.905   5.628
 3086SOL    HW215274   1.731   4.034   5.640
 3087SOL     OW15275   4.340   0.353   6.033
 3087SOL    HW115276   4.411   0.285   6.014
 3087SOL    HW215277   4.376   0.422   6.096
 3088SOL     OW15278   4.040   0.391   0.659
 3088SOL    HW115279   4.070   0.465   0.599
 3088SOL    HW215280   3.940   0.389   0.661
 3089SOL     OW15281   3.739   2.559   5.633
 3089SOL    HW115282   3.826   2.587   5.591
 3089SOL    HW215283   3.667   2.622   5.605
 3090SOL     OW15284   4.222   2.810   0.913
 3090SOL    HW115285   4.290   2.864   0.864
 3090SOL    HW215286   4.264   2.723   0.942
 3091SOL     OW15287   1.469   0.646   0.132
 3091SOL    HW115288   1.405   0.585   0.085
 3091SOL    HW215289   1.550   0.594   0.160
 3092SOL     OW15290   0.123   1.556   1.143
 3092SOL    HW115291   0.153   1.463   1.166
 3092SOL    HW215292   0.043   1.551   1.083
 3093SOL     OW15293   2.075   3.526   0.328
 3093SOL    HW115294   2.102   3.558   0.237
 3093SOL    HW215295   2.109   3.433   0.341
 3094SOL     OW15296   2.457   3.552   0.088
 3094SOL    HW115297   2.446   3.552   0.188
 3094SOL    HW215298   2.525   3.620   0.062
 3095SOL     OW15299   1.799   0.036   5.715
 3095SOL    HW115300   1.726   0.049   5.648
 3095SOL    HW215301   1.776   0.085   5.799
 3096SOL     OW15302   1.741   2.110   0.826
 3096SOL    HW115303   1.748   2.056   0.742
 3096SOL    HW215304   1.720   2.205   0.802
 3097SOL     OW15305   2.037   1.350   0.970
 3097SOL    HW115306   1.954   1.339   1.024
 3097SOL    HW215307   2.102   1.408   1.019
 3098SOL     OW15308   3.618   2.047   5.494
 3098SOL    HW115309   3.523   2.075   5.492
 3098SOL    HW215310   3.677   2.128   5.493
 3099SOL     OW15311   0.181   1.775   5.373
 3099SOL    HW115312   0.179   1.833   5.455
 3099SOL    HW215313   0.197   1.832   5.292
 3100SOL     OW15314   3.968   1.120   0.751
 3100SOL    HW115315   4.047   1.075   0.792
 3100SOL    HW215316   3.951   1.206   0.799
 3101SOL     OW15317   4.986   5.436   1.001
 3101SOL    HW115318   4.976   5.533   1.023
 3101SOL    HW215319   4.896   5.396   0.985
 3102SOL     OW15320   0.606   0.007   5.973
 3102SOL    HW115321   0.643   6.383   5.909
 3102SOL    HW215322   0.511   0.027   5.949
 3103SOL     OW15323   0.447   2.742   1.581
 3103SOL    HW115324   0.369   2.772   1.637
 3103SOL    HW215325   0.527   2.797   1.604
 3104SOL     OW15326   4.832   5.368   0.052
 3104SOL    HW115327   4.838   5.445   6.585
 3104SOL    HW215328   4.816   5.284   6.596
 3105SOL     OW15329   1.669   1.943   1.248
 3105SOL    HW115330   1.754   1.928   1.299
 3105SOL    HW215331   1.649   2.041   1.245
 3106SOL     OW15332   1.073   1.660   0.259
 3106SOL    HW115333   1.110   1.618   0.341
 3106SOL    HW215334   0.995   1.607   0.226
 3107SOL     OW15335   4.787   3.342   5.503
 3107SOL    HW115336   4.764   3.438   5.519
 3107SOL    HW215337   4.702   3.289   5.493
 3108SOL     OW15338   6.353   2.919   6.400
 3108SOL    HW115339   6.318   2.885   6.487
 3108SOL    HW215340   6.277   2.935   6.337
 3109SOL     OW15341   4.160   3.372   0.637
 3109SOL    HW115342   4.148   3.464   0.673
 3109SOL    HW215343   4.256   3.359   0.611
 3110SOL     OW15344   3.143   6.339   1.315
 3110SOL    HW115345   3.090   6.294   1.386
 3110SOL    HW215346   3.240   6.319   1.328
 3111SOL     OW15347   3.502   6.144   0.790
 3111SOL    HW115348   3.567   6.093   0.734
 3111SOL    HW215349   3.409   6.118   0.766
 3112SOL     OW15350   3.998   3.355   0.343
 3112SOL    HW115351   3.971   3.262   0.367
 3112SOL    HW215352   4.039   3.399   0.423
 3113SOL     OW15353   3.432   2.338   5.563
 3113SOL    HW115354   3.371   2.281   5.507
 3113SOL    HW215355   3.415   2.320   5.660
 3114SOL     OW15356   3.878   0.682   5.303
 3114SOL    HW115357   3.950   0.709   5.240
 3114SOL    HW215358   3.916   0.672   5.395
 3115SOL     OW15359   2.918   1.961   5.489
 3115SOL    HW115360   3.003   1.967   5.437
 3115SOL    HW215361   2.854   1.901   5.440
 3116SOL     OW15362   5.575   2.935   5.098
 3116SOL    HW115363   5.525   2.850   5.114
 3116SOL    HW215364   5.667   2.914   5.064
 3117SOL     OW15365   4.199   5.352   5.041
 3117SOL    HW115366   4.110   5.307   5.053
 3117SOL    HW215367   4.198   5.439   5.090
 3118SOL     OW15368   1.414   1.733   6.446
 3118SOL    HW115369   1.496   1.697   6.491
 3118SOL    HW215370   1.349   1.764   6.515
 3119SOL     OW15371   2.177   5.691   5.282
 3119SOL    HW115372   2.115   5.761   5.246
 3119SOL    HW215373   2.154   5.672   5.377
 3120SOL     OW15374   0.365   4.086   5.482
 3120SOL    HW115375   0.413   4.003   5.509
 3120SOL    HW215376   0.369   4.097   5.383
 3121SOL     OW15377   2.728   3.555   0.361
 3121SOL    HW115378   2.805   3.616   0.378
 3121SOL    HW215379   2.747   3.499   0.280
 3122SOL     OW15380   5.373   1.346   1.147
 3122SOL    HW115381   5.449   1.292   1.182
 3122SOL    HW215382   5.364   1.430   1.200
 3123SOL     OW15383   2.353   1.400   0.710
 3123SOL    HW115384   2.276   1.351   0.669
 3123SOL    HW215385   2.392   1.345   0.784
 3124SOL     OW15386   2.803   4.765   5.752
 3124SOL    HW115387   2.744   4.748   5.673
 3124SOL    HW215388   2.836   4.859   5.750
 3125SOL     OW15389   0.240   1.667   6.436
 3125SOL    HW115390   0.336   1.639   6.432
 3125SOL    HW215391   0.222   1.712   6.524
 3126SOL     OW15392   0.753   5.734   1.521
 3126SOL    HW115393   0.787   5.827   1.504
 3126SOL    HW215394   0.699   5.704   1.443
 3127SOL     OW15395   5.849   3.588   0.068
 3127SOL    HW115396   5.899   3.515   0.114
 3127SOL    HW215397   5.852   3.671   0.123
 3128SOL     OW15398   5.452   4.960   0.003
 3128SOL    HW115399   5.361   4.945   0.042
 3128SOL    HW215400   5.478   4.883   6.542
 3129SOL     OW15401   1.492   5.139   1.373
 3129SOL    HW115402   1.530   5.104   1.458
 3129SOL    HW215403   1.485   5.239   1.377
 3130SOL     OW15404   4.836   3.271   0.401
 3130SOL    HW115405   4.804   3.344   0.342
 3130SOL    HW215406   4.865   3.309   0.489
 3131SOL     OW15407   2.667   0.527   5.751
 3131SOL    HW115408   2.593   0.575   5.798
 3131SOL    HW215409   2.631   0.448   5.702
 3132SOL     OW15410   4.621   1.217   0.465
 3132SOL    HW115411   4.576   1.180   0.546
 3132SOL    HW215412   4.713   1.247   0.488
 3133SOL     OW15413   1.271   0.511   6.555
 3133SOL    HW115414   1.306   0.578   6.490
 3133SOL    HW215415   1.312   0.422   6.535
 3134SOL     OW15416   0.500   6.313   6.236
 3134SOL    HW115417   0.543   6.385   6.180
 3134SOL    HW215418   0.532   6.223   6.205
 3135SOL     OW15419   2.830   5.678   5.612
 3135SOL    HW115420   2.853   5.582   5.626
 3135SOL    HW215421   2.775   5.688   5.529
 3136SOL     OW15422   3.526   0.397   0.192
 3136SOL    HW115423   3.591   0.328   0.160
 3136SOL    HW215424   3.549   0.486   0.153
 3137SOL     OW15425   0.285   4.333   5.176
 3137SOL    HW115426   0.340   4.250   5.165
 3137SOL    HW215427   0.299   4.393   5.097
 3138SOL     OW15428   1.441   4.974   0.772
 3138SOL    HW115429   1.516   4.987   0.837
 3138SOL    HW215430   1.392   4.889   0.795
 3139SOL     OW15431   0.925   1.245   6.142
 3139SOL    HW115432   0.973   1.188   6.208
 3139SOL    HW215433   0.991   1.302   6.093
 3140SOL     OW15434   2.726   2.793   0.048
 3140SOL    HW115435   2.636   2.817   0.010
 3140SOL    HW215436   2.731   2.822   0.143
 3141SOL     OW15437   1.576   5.570   0.233
 3141SOL    HW115438   1.618   5.631   0.301
 3141SOL    HW215439   1.528   5.624   0.164
 3142SOL     OW15440   3.207   1.023   0.176
 3142SOL    HW115441   3.126   0.978   0.138
 3142SOL    HW215442   3.268   1.050   0.101
 3143SOL     OW15443   1.545   2.624   0.532
 3143SOL    HW115444   1.615   2.626   0.603
 3143SOL    HW215445   1.572   2.560   0.460
 3144SOL     OW15446   0.194   0.059   0.905
 3144SOL    HW115447   0.259   6.437   0.943
 3144SOL    HW215448   0.179   0.039   0.808
 3145SOL     OW15449   5.014   6.424   5.734
 3145SOL    HW115450   5.002   6.340   5.787
 3145SOL    HW215451   5.057   6.403   5.647
 3146SOL     OW15452   5.867   4.694   6.431
 3146SOL    HW115453   5.941   4.753   6.462
 3146SOL    HW215454   5.825   4.732   6.348
 3147SOL     OW15455   5.546   0.268   5.934
 3147SOL    HW115456   5.624   0.233   5.883
 3147SOL    HW215457   5.566   0.264   6.032
 3148SOL     OW15458   4.630   1.450   6.429
 3148SOL    HW115459   4.542   1.490   6.455
 3148SOL    HW215460   4.615   1.356   6.398
 3149SOL     OW15461   4.891   1.281   0.526
 3149SOL    HW115462   4.891   1.359   0.589
 3149SOL    HW215463   4.895   1.196   0.577
 3150SOL     OW15464   5.132   3.611   1.009
 3150SOL    HW115465   5.072   3.544   0.964
 3150SOL    HW215466   5.114   3.610   1.108
 3151SOL     OW15467   4.260   6.320   0.259
 3151SOL    HW115468   4.293   6.391   0.322
 3151SOL    HW215469   4.224   6.364   0.176
 3152SOL     OW15470   0.835   1.044   5.928
 3152SOL    HW115471   0.880   0.956   5.909
 3152SOL    HW215472   0.884   1.092   5.999
 3153SOL     OW15473   2.775   5.568   4.912
 3153SOL    HW115474   2.812   5.479   4.936
 3153SOL    HW215475   2.849   5.632   4.895
 3154SOL     OW15476   0.213   4.917   0.906
 3154SOL    HW115477   0.215   4.906   0.806
 3154SOL    HW215478   0.152   4.992   0.930
 3155SOL     OW15479   4.465   4.876   5.840
 3155SOL    HW115480   4.418   4.790   5.827
 3155SOL    HW215481   4.558   4.870   5.801
 3156SOL     OW15482   1.518   5.029   5.451
 3156SOL    HW115483   1.447   5.095   5.474
 3156SOL    HW215484   1.540   5.036   5.353
 3157SOL     OW15485   1.346   0.829   1.239
 3157SOL    HW115486   1.272   0.815   1.304
 3157SOL    HW215487   1.427   0.863   1.287
 3158SOL     OW15488   0.386   2.544   5.806
 3158SOL    HW115489   0.364   2.639   5.829
 3158SOL    HW215490   0.393   2.535   5.706
 3159SOL     OW15491   5.578   5.939   5.847
 3159SOL    HW115492   5.648   5.875   5.814
 3159SOL    HW215493   5.615   5.991   5.923
 3160SOL     OW15494   5.995   1.835   5.155
 3160SOL    HW115495   5.930   1.843   5.080
 3160SOL    HW215496   6.009   1.738   5.176
 3161SOL     OW15497   1.778   2.879   5.746
 3161SOL    HW115498   1.849   2.853   5.681
 3161SOL    HW215499   1.820   2.897   5.835
 3162SOL     OW15500   2.403   3.024   0.072
 3162SOL    HW115501   2.377   3.088   0.000
 3162SOL    HW215502   2.424   3.074   0.156
 3163SOL     OW15503   3.026   1.037   5.396
 3163SOL    HW115504   3.031   0.939   5.418
 3163SOL    HW215505   3.087   1.057   5.320
 3164SOL     OW15506   2.450   0.972   4.725
 3164SOL    HW115507   2.382   1.029   4.679
 3164SOL    HW215508   2.518   0.940   4.659
 3165SOL     OW15509   4.533   3.958   0.911
 3165SOL    HW115510   4.452   3.980   0.966
 3165SOL    HW215511   4.559   4.038   0.857
 3166SOL     OW15512   0.446   6.045   5.147
 3166SOL    HW115513   0.413   6.073   5.237
 3166SOL    HW215514   0.545   6.060   5.141
 3167SOL     OW15515   5.094   1.780   5.863
 3167SOL    HW115516   5.080   1.681   5.858
 3167SOL    HW215517   5.188   1.802   5.836
 3168SOL     OW15518   3.685   0.999   0.293
 3168SOL    HW115519   3.693   1.014   0.391
 3168SOL    HW215520   3.602   0.947   0.274
 3169SOL     OW15521   3.545   5.286   1.798
 3169SOL    HW115522   3.631   5.248   1.764
 3169SOL    HW215523   3.514   5.233   1.876
 3170SOL     OW15524   0.731   6.050   5.124
 3170SOL    HW115525   0.755   5.991   5.048
 3170SOL    HW215526   0.738   6.146   5.096
 3171SOL     OW15527   1.448   5.991   5.725
 3171SOL    HW115528   1.541   6.023   5.743
 3171SOL    HW215529   1.443   5.956   5.632
 3172SOL     OW15530   4.314   5.445   1.426
 3172SOL    HW115531   4.280   5.360   1.468
 3172SOL    HW215532   4.321   5.516   1.496
 3173SOL     OW15533   4.814   5.511   0.458
 3173SOL    HW115534   4.834   5.436   0.394
 3173SOL    HW215535   4.757   5.477   0.532
 3174SOL     OW15536   5.783   2.445   5.071
 3174SOL    HW115537   5.751   2.383   5.143
 3174SOL    HW215538   5.826   2.392   4.998
 3175SOL     OW15539   2.839   3.832   4.975
 3175SOL    HW115540   2.917   3.885   4.943
 3175SOL    HW215541   2.773   3.820   4.900
 3176SOL     OW15542   4.430   1.200   5.749
 3176SOL    HW115543   4.518   1.238   5.719
 3176SOL    HW215544   4.395   1.138   5.679
 3177SOL     OW15545   4.750   4.984   1.005
 3177SOL    HW115546   4.658   5.000   1.041
 3177SOL    HW215547   4.778   4.890   1.025
 3178SOL     OW15548   2.954   2.417   0.463
 3178SOL    HW115549   2.858   2.426   0.489
 3178SOL    HW215550   3.012   2.459   0.534
 3179SOL     OW15551   0.320   2.344   0.468
 3179SOL    HW115552   0.353   2.252   0.490
 3179SOL    HW215553   0.381   2.412   0.508
 3180SOL     OW15554   5.721   2.413   6.105
 3180SOL    HW115555   5.758   2.413   6.198
 3180SOL    HW215556   5.622   2.409   6.108
 3181SOL     OW15557   5.327   2.460   0.461
 3181SOL    HW115558   5.282   2.379   0.423
 3181SOL    HW215559   5.426   2.450   0.453
 3182SOL     OW15560   1.761   5.892   1.087
 3182SOL    HW115561   1.855   5.864   1.067
 3182SOL    HW215562   1.719   5.824   1.147
 3183SOL     OW15563   5.619   3.336   0.728
 3183SOL    HW115564   5.554   3.290   0.667
 3183SOL    HW215565   5.637   3.279   0.808
 3184SOL     OW15566   3.167   3.795   6.026
 3184SOL    HW115567   3.227   3.757   5.955
 3184SOL    HW215568   3.205   3.883   6.057
 3185SOL     OW15569   5.130   4.679   1.944
 3185SOL    HW115570   5.122   4.605   2.011
 3185SOL    HW215571   5.179   4.756   1.985
 3186SOL     OW15572   0.220   4.815   0.624
 3186SOL    HW115573   0.261   4.848   0.539
 3186SOL    HW215574   0.125   4.844   0.630
 3187SOL     OW15575   0.643   2.925   5.504
 3187SOL    HW115576   0.575   2.997   5.512
 3187SOL    HW215577   0.626   2.871   5.421
 3188SOL     OW15578   0.464   4.285   5.649
 3188SOL    HW115579   0.507   4.242   5.728
 3188SOL    HW215580   0.441   4.214   5.582
 3189SOL     OW15581   1.605   5.314   6.443
 3189SOL    HW115582   1.679   5.372   6.479
 3189SOL    HW215583   1.573   5.253   6.515
 3190SOL     OW15584   3.770   5.061   1.155
 3190SOL    HW115585   3.864   5.082   1.129
 3190SOL    HW215586   3.764   4.966   1.185
 3191SOL     OW15587   3.793   1.645   6.308
 3191SOL    HW115588   3.822   1.724   6.363
 3191SOL    HW215589   3.773   1.568   6.368
 3192SOL     OW15590   3.349   0.192   5.284
 3192SOL    HW115591   3.435   0.146   5.259
 3192SOL    HW215592   3.368   0.288   5.303
 3193SOL     OW15593   2.514   0.303   5.696
 3193SOL    HW115594   2.508   0.237   5.622
 3193SOL    HW215595   2.504   0.255   5.784
 3194SOL     OW15596   4.164   1.780   0.416
 3194SOL    HW115597   4.194   1.689   0.446
 3194SOL    HW215598   4.150   1.839   0.496
 3195SOL     OW15599   4.565   3.561   5.908
 3195SOL    HW115600   4.624   3.603   5.839
 3195SOL    HW215601   4.605   3.475   5.938
 3196SOL     OW15602   1.536   3.365   1.036
 3196SOL    HW115603   1.583   3.424   1.102
 3196SOL    HW215604   1.533   3.411   0.947
 3197SOL     OW15605   5.372   4.668   0.946
 3197SOL    HW115606   5.448   4.624   0.991
 3197SOL    HW215607   5.303   4.694   1.014
 3198SOL     OW15608   4.650   2.353   5.739
 3198SOL    HW115609   4.727   2.302   5.777
 3198SOL    HW215610   4.672   2.450   5.737
 3199SOL     OW15611   2.430   5.279   5.516
 3199SOL    HW115612   2.460   5.321   5.431
 3199SOL    HW215613   2.478   5.323   5.593
 3200SOL     OW15614   0.719   1.448   6.333
 3200SOL    HW115615   0.748   1.512   6.262
 3200SOL    HW215616   0.705   1.358   6.292
 3201SOL     OW15617   2.682   2.083   0.695
 3201SOL    HW115618   2.669   2.178   0.722
 3201SOL    HW215619   2.601   2.029   0.720
 3202SOL     OW15620   4.775   0.920   5.050
 3202SOL    HW115621   4.683   0.884   5.036
 3202SOL    HW215622   4.841   0.844   5.050
 3203SOL     OW15623   6.229   0.634   5.642
 3203SOL    HW115624   6.321   0.673   5.651
 3203SOL    HW215625   6.189   0.662   5.555
 3204SOL     OW15626   5.403   1.640   0.443
 3204SOL    HW115627   5.501   1.629   0.465
 3204SOL    HW215628   5.382   1.590   0.359
 3205SOL     OW15629   4.834   2.613   5.676
 3205SOL    HW115630   4.773   2.683   5.714
 3205SOL    HW215631   4.923   2.619   5.720
 3206SOL     OW15632   4.687   6.008   6.451
 3206SOL    HW115633   4.740   6.060   6.383
 3206SOL    HW215634   4.749   5.949   6.503
 3207SOL     OW15635   0.054   4.157   0.262
 3207SOL    HW115636   0.108   4.238   0.284
 3207SOL    HW215637   0.005   4.172   0.176
 3208SOL     OW15638   2.230   5.019   0.707
 3208SOL    HW115639   2.257   5.103   0.660
 3208SOL    HW215640   2.269   4.940   0.660
 3209SOL     OW15641   3.472   0.453   5.304
 3209SOL    HW115642   3.449   0.493   5.216
 3209SOL    HW215643   3.571   0.458   5.318
 3210SOL     OW15644   1.300   0.818   0.657
 3210SOL    HW115645   1.256   0.780   0.575
 3210SOL    HW215646   1.387   0.772   0.672
 3211SOL     OW15647   5.974   1.389   0.876
 3211SOL    HW115648   5.941   1.298   0.900
 3211SOL    HW215649   5.898   1.454   0.880
 3212SOL     OW15650   3.907   3.298   0.716
 3212SOL    HW115651   4.005   3.311   0.705
 3212SOL    HW215652   3.890   3.224   0.781
 3213SOL     OW15653   4.503   5.478   6.334
 3213SOL    HW115654   4.493   5.450   6.239
 3213SOL    HW215655   4.447   5.558   6.352
 3214SOL     OW15656   5.438   0.165   6.562
 3214SOL    HW115657   5.398   0.257   6.562
 3214SOL    HW215658   5.366   0.097   6.548
 3215SOL     OW15659   0.827   5.319   6.187
 3215SOL    HW115660   0.856   5.302   6.282
 3215SOL    HW215661   0.840   5.236   6.133
 3216SOL     OW15662   2.681   6.193   0.920
 3216SOL    HW115663   2.717   6.137   0.846
 3216SOL    HW215664   2.747   6.265   0.943
 3217SOL     OW15665   0.582   3.314   1.443
 3217SOL    HW115666   0.625   3.249   1.505
 3217SOL    HW215667   0.636   3.320   1.359
 3218SOL     OW15668   2.636   1.841   6.303
 3218SOL    HW115669   2.717   1.801   6.260
 3218SOL    HW215670   2.639   1.940   6.294
 3219SOL     OW15671   2.960   2.961   6.582
 3219SOL    HW115672   2.946   3.009   6.495
 3219SOL    HW215673   2.884   2.899   0.002
 3220SOL     OW15674   3.390   4.113   5.746
 3220SOL    HW115675   3.395   4.189   5.682
 3220SOL    HW215676   3.322   4.133   5.817
 3221SOL     OW15677   2.447   2.226   6.137
 3221SOL    HW115678   2.429   2.195   6.044
 3221SOL    HW215679   2.495   2.314   6.133
 3222SOL     OW15680   3.963   4.336   0.218
 3222SOL    HW115681   3.906   4.411   0.251
 3222SOL    HW215682   3.909   4.252   0.214
 3223SOL     OW15683   5.230   4.521   0.755
 3223SOL    HW115684   5.260   4.426   0.760
 3223SOL    HW215685   5.280   4.575   0.822
 3224SOL     OW15686   2.007   2.536   5.834
 3224SOL    HW115687   1.918   2.541   5.788
 3224SOL    HW215688   2.018   2.445   5.874
 3225SOL     OW15689   1.265   5.429   1.181
 3225SOL    HW115690   1.303   5.509   1.136
 3225SOL    HW215691   1.281   5.435   1.280
 3226SOL     OW15692   5.563   1.661   5.886
 3226SOL    HW115693   5.607   1.749   5.874
 3226SOL    HW215694   5.631   1.588   5.878
 3227SOL     OW15695   0.189   1.300   0.958
 3227SOL    HW115696   0.137   1.307   1.043
 3227SOL    HW215697   0.166   1.215   0.912
 3228SOL     OW15698   0.973   5.818   6.228
 3228SOL    HW115699   1.052   5.762   6.204
 3228SOL    HW215700   0.997   5.879   6.303
 3229SOL     OW15701   1.674   3.575   5.694
 3229SOL    HW115702   1.656   3.478   5.679
 3229SOL    HW215703   1.773   3.589   5.703
 3230SOL     OW15704   4.316   4.032   1.056
 3230SOL    HW115705   4.234   4.060   1.007
 3230SOL    HW215706   4.326   4.085   1.140
 3231SOL     OW15707   4.458   2.491   5.053
 3231SOL    HW115708   4.528   2.561   5.059
 3231SOL    HW215709   4.471   2.424   5.126
 3232SOL     OW15710   4.496   2.306   1.182
 3232SOL    HW115711   4.537   2.317   1.091
 3232SOL    HW215712   4.557   2.346   1.250
 3233SOL     OW15713   5.023   5.421   5.303
 3233SOL    HW115714   5.094   5.422   5.232
 3233SOL    HW215715   4.945   5.476   5.272
 3234SOL     OW15716   3.132   2.381   5.284
 3234SOL    HW115717   3.039   2.346   5.298
 3234SOL    HW215718   3.135   2.478   5.306
 3235SOL     OW15719   5.213   4.412   1.107
 3235SOL    HW115720   5.253   4.323   1.081
 3235SOL    HW215721   5.275   4.459   1.170
 3236SOL     OW15722   0.665   0.999   0.110
 3236SOL    HW115723   0.637   0.917   0.159
 3236SOL    HW215724   0.607   1.010   0.029
 3237SOL     OW15725   5.918   1.514   5.630
 3237SOL    HW115726   5.922   1.606   5.668
 3237SOL    HW215727   5.860   1.514   5.549
 3238SOL     OW15728   6.374   3.341   5.622
 3238SOL    HW115729   0.047   3.309   5.595
 3238SOL    HW215730   6.321   3.365   5.541
 3239SOL     OW15731   2.588   5.295   0.507
 3239SOL    HW115732   2.560   5.306   0.411
 3239SOL    HW215733   2.632   5.380   0.538
 3240SOL     OW15734   5.295   1.101   6.383
 3240SOL    HW115735   5.224   1.081   6.315
 3240SOL    HW215736   5.354   1.174   6.349
 3241SOL     OW15737   3.072   3.201   0.931
 3241SOL    HW115738   3.147   3.236   0.875
 3241SOL    HW215739   3.105   3.182   1.023
 3242SOL     OW15740   4.341   5.689   6.382
 3242SOL    HW115741   4.257   5.692   6.328
 3242SOL    HW215742   4.377   5.782   6.393
 3243SOL     OW15743   5.752   2.385   1.076
 3243SOL    HW115744   5.753   2.393   1.176
 3243SOL    HW215745   5.825   2.442   1.037
 3244SOL     OW15746   4.231   0.485   5.798
 3244SOL    HW115747   4.309   0.437   5.838
 3244SOL    HW215748   4.258   0.578   5.775
 3245SOL     OW15749   2.721   1.452   6.545
 3245SOL    HW115750   2.666   1.535   6.554
 3245SOL    HW215751   2.817   1.474   6.559
 3246SOL     OW15752   0.804   5.215   0.657
 3246SOL    HW115753   0.727   5.152   0.646
 3246SOL    HW215754   0.889   5.164   0.650
 3247SOL     OW15755   5.855   6.300   5.662
 3247SOL    HW115756   5.834   6.246   5.580
 3247SOL    HW215757   5.899   6.241   5.730
 3248SOL     OW15758   4.281   6.049   0.280
 3248SOL    HW115759   4.289   6.144   0.250
 3248SOL    HW215760   4.240   6.047   0.371
 3249SOL     OW15761   3.722   5.113   4.601
 3249SOL    HW115762   3.637   5.164   4.598
 3249SOL    HW215763   3.702   5.015   4.600
 3250SOL     OW15764   3.319   6.168   5.694
 3250SOL    HW115765   3.230   6.148   5.655
 3250SOL    HW215766   3.371   6.082   5.704
 3251SOL     OW15767   5.173   4.205   6.161
 3251SOL    HW115768   5.261   4.245   6.188
 3251SOL    HW215769   5.100   4.244   6.218
 3252SOL     OW15770   0.139   5.542   1.714
 3252SOL    HW115771   0.094   5.453   1.713
 3252SOL    HW215772   0.169   5.563   1.807
 3253SOL     OW15773   0.758   2.581   6.062
 3253SOL    HW115774   0.722   2.529   5.985
 3253SOL    HW215775   0.693   2.653   6.087
 3254SOL     OW15776   3.183   1.995   1.323
 3254SOL    HW115777   3.205   2.057   1.399
 3254SOL    HW215778   3.145   1.910   1.360
 3255SOL     OW15779   2.020   1.577   0.735
 3255SOL    HW115780   2.056   1.506   0.795
 3255SOL    HW215781   1.921   1.566   0.725
 3256SOL     OW15782   2.543   2.158   6.487
 3256SOL    HW115783   2.620   2.188   6.432
 3256SOL    HW215784   2.555   2.187   6.582
 3257SOL     OW15785   5.326   2.455   0.942
 3257SOL    HW115786   5.245   2.473   0.998
 3257SOL    HW215787   5.303   2.386   0.873
 3258SOL     OW15788   1.152   5.454   6.541
 3258SOL    HW115789   1.172   5.438   0.041
 3258SOL    HW215790   1.144   5.552   6.524
 3259SOL     OW15791   4.802   3.654   5.442
 3259SOL    HW115792   4.712   3.691   5.419
 3259SOL    HW215793   4.837   3.601   5.365
 3260SOL     OW15794   3.361   0.648   1.049
 3260SOL    HW115795   3.457   0.633   1.073
 3260SOL    HW215796   3.302   0.617   1.124
 3261SOL     OW15797   4.715   1.818   5.868
 3261SOL    HW115798   4.764   1.769   5.942
 3261SOL    HW215799   4.639   1.762   5.837
 3262SOL     OW15800   1.850   6.085   0.595
 3262SOL    HW115801   1.872   6.116   0.503
 3262SOL    HW215802   1.751   6.077   0.606
 3263SOL     OW15803   2.694   0.177   0.062
 3263SOL    HW115804   2.607   0.147   0.100
 3263SOL    HW215805   2.683   0.196   6.561
 3264SOL     OW15806   3.314   3.268   0.798
 3264SOL    HW115807   3.370   3.336   0.846
 3264SOL    HW215808   3.340   3.265   0.702
 3265SOL     OW15809   2.137   3.057   1.018
 3265SOL    HW115810   2.129   3.036   1.116
 3265SOL    HW215811   2.047   3.054   0.976
 3266SOL     OW15812   5.164   1.525   0.639
 3266SOL    HW115813   5.215   1.491   0.560
 3266SOL    HW215814   5.095   1.457   0.666
 3267SOL     OW15815   4.733   4.763   1.868
 3267SOL    HW115816   4.688   4.834   1.813
 3267SOL    HW215817   4.677   4.744   1.949
 3268SOL     OW15818   3.001   0.323   5.236
 3268SOL    HW115819   3.000   0.233   5.281
 3268SOL    HW215820   3.066   0.382   5.282
 3269SOL     OW15821   5.963   2.885   6.050
 3269SOL    HW115822   5.897   2.815   6.075
 3269SOL    HW215823   5.962   2.897   5.951
 3270SOL     OW15824   2.400   2.742   0.866
 3270SOL    HW115825   2.448   2.700   0.943
 3270SOL    HW215826   2.452   2.822   0.834
 3271SOL     OW15827   3.935   1.360   5.126
 3271SOL    HW115828   3.836   1.350   5.141
 3271SOL    HW215829   3.952   1.442   5.070
 3272SOL     OW15830   4.043   6.438   5.365
 3272SOL    HW115831   4.025   0.016   5.269
 3272SOL    HW215832   3.973   6.375   5.398
 3273SOL     OW15833   1.563   2.426   6.225
 3273SOL    HW115834   1.470   2.389   6.237
 3273SOL    HW215835   1.590   2.415   6.129
 3274SOL     OW15836   5.292   3.245   5.866
 3274SOL    HW115837   5.350   3.228   5.946
 3274SOL    HW215838   5.339   3.214   5.783
 3275SOL     OW15839   0.331   3.543   5.904
 3275SOL    HW115840   0.318   3.566   6.001
 3275SOL    HW215841   0.345   3.627   5.852
 3276SOL     OW15842   1.480   5.863   5.488
 3276SOL    HW115843   1.453   5.767   5.474
 3276SOL    HW215844   1.568   5.879   5.443
 3277SOL     OW15845   1.234   3.897   5.655
 3277SOL    HW115846   1.323   3.888   5.609
 3277SOL    HW215847   1.231   3.984   5.704
 3278SOL     OW15848   0.273   0.328   0.612
 3278SOL    HW115849   0.371   0.346   0.611
 3278SOL    HW215850   0.251   0.258   0.543
 3279SOL     OW15851   4.186   2.246   0.324
 3279SOL    HW115852   4.215   2.160   0.282
 3279SOL    HW215853   4.261   2.311   0.322
 3280SOL     OW15854   1.994   1.129   0.821
 3280SOL    HW115855   2.016   1.202   0.886
 3280SOL    HW215856   2.068   1.119   0.754
 3281SOL     OW15857   0.696   2.886   0.708
 3281SOL    HW115858   0.684   2.804   0.651
 3281SOL    HW215859   0.793   2.902   0.723
 3282SOL     OW15860   1.087   3.255   0.485
 3282SOL    HW115861   1.128   3.174   0.525
 3282SOL    HW215862   1.061   3.319   0.557
 3283SOL     OW15863   3.747   1.470   6.568
 3283SOL    HW115864   3.673   1.532   6.594
 3283SOL    HW215865   3.713   1.376   6.569
 3284SOL     OW15866   6.176   4.813   5.341
 3284SOL    HW115867   6.087   4.833   5.300
 3284SOL    HW215868   6.248   4.857   5.288
 3285SOL     OW15869   1.920   2.296   6.261
 3285SOL    HW115870   2.013   2.267   6.240
 3285SOL    HW215871   1.917   2.396   6.269
 3286SOL     OW15872   5.586   4.911   2.307
 3286SOL    HW115873   5.681   4.884   2.290
 3286SOL    HW215874   5.525   4.833   2.290
 3287SOL     OW15875   3.544   2.795   0.058
 3287SOL    HW115876   3.454   2.751   0.056
 3287SOL    HW215877   3.532   2.894   0.064
 3288SOL     OW15878   3.315   3.990   6.208
 3288SOL    HW115879   3.246   3.978   6.279
 3288SOL    HW215880   3.380   3.914   6.212
 3289SOL     OW15881   5.336   4.640   0.271
 3289SOL    HW115882   5.309   4.658   0.366
 3289SOL    HW215883   5.288   4.704   0.211
 3290SOL     OW15884   4.276   4.249   0.068
 3290SOL    HW115885   4.282   4.335   0.017
 3290SOL    HW215886   4.180   4.220   0.074
 3291SOL     OW15887   3.212   1.407   6.570
 3291SOL    HW115888   3.148   1.337   6.538
 3291SOL    HW215889   3.278   1.428   6.498
 3292SOL     OW15890   1.845   5.196   1.492
 3292SOL    HW115891   1.867   5.284   1.535
 3292SOL    HW215892   1.769   5.153   1.540
 3293SOL     OW15893   2.720   0.821   0.596
 3293SOL    HW115894   2.680   0.730   0.583
 3293SOL    HW215895   2.760   0.852   0.510
 3294SOL     OW15896   5.477   3.969   0.016
 3294SOL    HW115897   5.547   3.931   6.552
 3294SOL    HW215898   5.461   3.906   0.092
 3295SOL     OW15899   2.031   6.365   1.286
 3295SOL    HW115900   1.971   6.386   1.364
 3295SOL    HW215901   1.984   6.388   1.201
 3296SOL     OW15902   4.844   4.735   1.007
 3296SOL    HW115903   4.891   4.684   1.079
 3296SOL    HW215904   4.798   4.670   0.946
 3297SOL     OW15905   1.729   0.842   1.267
 3297SOL    HW115906   1.736   0.936   1.236
 3297SOL    HW215907   1.821   0.805   1.281
 3298SOL     OW15908   4.377   0.774   6.132
 3298SOL    HW115909   4.393   0.774   6.231
 3298SOL    HW215910   4.391   0.867   6.097
 3299SOL     OW15911   3.905   2.857   0.910
 3299SOL    HW115912   4.002   2.848   0.933
 3299SOL    HW215913   3.882   2.791   0.838
 3300SOL     OW15914   5.688   2.758   5.659
 3300SOL    HW115915   5.684   2.741   5.757
 3300SOL    HW215916   5.625   2.831   5.634
 3301SOL     OW15917   6.237   3.176   6.062
 3301SOL    HW115918   6.191   3.228   5.990
 3301SOL    HW215919   6.274   3.092   6.023
 3302SOL     OW15920   2.244   1.220   5.988
 3302SOL    HW115921   2.149   1.234   5.958
 3302SOL    HW215922   2.271   1.294   6.048
 3303SOL     OW15923   2.996   5.374   6.329
 3303SOL    HW115924   2.914   5.415   6.290
 3303SOL    HW215925   3.069   5.372   6.260
 3304SOL     OW15926   1.645   3.992   0.076
 3304SOL    HW115927   1.725   4.013   0.020
 3304SOL    HW215928   1.561   4.011   0.025
 3305SOL     OW15929   5.796   2.420   1.350
 3305SOL    HW115930   5.702   2.449   1.366
 3305SOL    HW215931   5.857   2.466   1.415
 3306SOL     OW15932   2.482   5.728   5.674
 3306SOL    HW115933   2.472   5.822   5.706
 3306SOL    HW215934   2.579   5.707   5.662
 3307SOL     OW15935   1.644   5.703   1.240
 3307SOL    HW115936   1.566   5.682   1.181
 3307SOL    HW215937   1.618   5.689   1.336
 3308SOL     OW15938   0.619   2.061   0.310
 3308SOL    HW115939   0.711   2.023   0.312
 3308SOL    HW215940   0.568   2.020   0.234
 3309SOL     OW15941   0.406   4.085   5.208
 3309SOL    HW115942   0.423   4.001   5.157
 3309SOL    HW215943   0.488   4.142   5.205
 3310SOL     OW15944   1.882   0.010   1.060
 3310SOL    HW115945   1.806   0.076   1.065
 3310SOL    HW215946   1.856   6.379   0.999
 3311SOL     OW15947   4.294   2.319   0.911
 3311SOL    HW115948   4.322   2.409   0.944
 3311SOL    HW215949   4.355   2.249   0.948
 3312SOL     OW15950   2.221   4.573   6.041
 3312SOL    HW115951   2.273   4.656   6.061
 3312SOL    HW215952   2.188   4.576   5.947
 3313SOL     OW15953   0.490   1.254   5.895
 3313SOL    HW115954   0.564   1.232   5.832
 3313SOL    HW215955   0.446   1.169   5.925
 3314SOL     OW15956   0.005   2.323   5.019
 3314SOL    HW115957   6.403   2.262   4.942
 3314SOL    HW215958   0.012   2.417   4.986
 3315SOL     OW15959   1.247   6.411   6.529
 3315SOL    HW115960   1.274   6.416   0.029
 3315SOL    HW215961   1.185   0.043   6.508
 3316SOL     OW15962   5.347   0.741   5.838
 3316SOL    HW115963   5.301   0.688   5.767
 3316SOL    HW215964   5.417   0.685   5.882
 3317SOL     OW15965   3.021   2.946   0.766
 3317SOL    HW115966   3.061   2.981   0.851
 3317SOL    HW215967   2.987   3.022   0.712
 3318SOL     OW15968   2.405   6.303   0.692
 3318SOL    HW115969   2.342   6.231   0.662
 3318SOL    HW215970   2.435   6.284   0.785
 3319SOL     OW15971   5.196   4.996   1.327
 3319SOL    HW115972   5.141   5.060   1.273
 3319SOL    HW215973   5.194   4.906   1.283
 3320SOL     OW15974   4.880   1.412   0.773
 3320SOL    HW115975   4.882   1.355   0.855
 3320SOL    HW215976   4.851   1.505   0.798
 3321SOL     OW15977   4.773   0.992   5.618
 3321SOL    HW115978   4.829   0.980   5.536
 3321SOL    HW215979   4.731   0.905   5.643
 3322SOL     OW15980   5.678   4.430   5.078
 3322SOL    HW115981   5.652   4.359   5.144
 3322SOL    HW215982   5.726   4.388   5.001
 3323SOL     OW15983   5.947   3.757   0.538
 3323SOL    HW115984   6.002   3.821   0.485
 3323SOL    HW215985   5.947   3.668   0.492
 3324SOL     OW15986   5.191   2.585   5.019
 3324SOL    HW115987   5.192   2.492   4.984
 3324SOL    HW215988   5.097   2.613   5.039
 3325SOL     OW15989   1.622   2.715   1.081
 3325SOL    HW115990   1.606   2.657   1.160
 3325SOL    HW215991   1.611   2.661   0.997
 3326SOL     OW15992   2.061   5.366   0.214
 3326SOL    HW115993   2.054   5.386   0.312
 3326SOL    HW215994   1.980   5.314   0.185
 3327SOL     OW15995   2.872   4.362   1.227
 3327SOL    HW115996   2.882   4.310   1.312
 3327SOL    HW215997   2.826   4.449   1.247
 3328SOL     OW15998   2.674   5.144   0.185
 3328SOL    HW115999   2.647   5.127   0.091
 3328SOL    HW216000   2.687   5.057   0.233
 3329SOL     OW16001   0.497   3.246   0.832
 3329SOL    HW116002   0.481   3.167   0.773
 3329SOL    HW216003   0.577   3.297   0.801
 3330SOL     OW16004   4.735   3.019   5.658
 3330SOL    HW116005   4.675   3.068   5.595
 3330SOL    HW216006   4.827   3.059   5.654
 3331SOL     OW16007   0.186   3.760   0.229
 3331SOL    HW116008   0.136   3.723   0.307
 3331SOL    HW216009   0.218   3.852   0.252
 3332SOL     OW16010   0.393   3.081   0.222
 3332SOL    HW116011   0.360   3.004   0.277
 3332SOL    HW216012   0.436   3.149   0.281
 3333SOL     OW16013   0.152   2.574   6.083
 3333SOL    HW116014   0.086   2.584   6.008
 3333SOL    HW216015   0.133   2.644   6.153
 3334SOL     OW16016   0.856   3.769   0.434
 3334SOL    HW116017   0.836   3.866   0.446
 3334SOL    HW216018   0.778   3.715   0.463
 3335SOL     OW16019   4.220   0.741   5.437
 3335SOL    HW116020   4.215   0.801   5.357
 3335SOL    HW216021   4.311   0.749   5.479
 3336SOL     OW16022   3.602   4.550   6.498
 3336SOL    HW116023   3.525   4.611   6.522
 3336SOL    HW216024   3.593   4.521   6.403
 3337SOL     OW16025   6.181   2.066   5.897
 3337SOL    HW116026   6.166   2.050   5.995
 3337SOL    HW216027   6.258   2.128   5.885
 3338SOL     OW16028   5.484   5.043   5.087
 3338SOL    HW116029   5.579   5.036   5.116
 3338SOL    HW216030   5.455   4.956   5.047
 3339SOL     OW16031   0.908   3.692   0.894
 3339SOL    HW116032   0.969   3.634   0.947
 3339SOL    HW216033   0.935   3.788   0.905
 3340SOL     OW16034   5.088   1.039   6.192
 3340SOL    HW116035   5.054   1.003   6.106
 3340SOL    HW216036   5.060   0.979   6.267
 3341SOL     OW16037   3.448   2.337   5.140
 3341SOL    HW116038   3.447   2.342   5.240
 3341SOL    HW216039   3.367   2.286   5.110
 3342SOL     OW16040   3.361   3.316   0.150
 3342SOL    HW116041   3.436   3.254   0.171
 3342SOL    HW216042   3.356   3.387   0.220
 3343SOL     OW16043   5.789   3.033   0.317
 3343SOL    HW116044   5.735   3.116   0.334
 3343SOL    HW216045   5.734   2.953   0.340
 3344SOL     OW16046   1.523   4.632   6.433
 3344SOL    HW116047   1.556   4.538   6.434
 3344SOL    HW216048   1.423   4.632   6.436
 3345SOL     OW16049   6.217   2.007   0.196
 3345SOL    HW116050   6.146   2.062   0.240
 3345SOL    HW216051   6.255   2.056   0.118
 3346SOL     OW16052   4.665   6.346   0.749
 3346SOL    HW116053   4.705   6.414   0.810
 3346SOL    HW216054   4.578   6.380   0.714
 3347SOL     OW16055   4.276   5.008   0.181
 3347SOL    HW116056   4.353   4.953   0.148
 3347SOL    HW216057   4.205   4.947   0.218
 3348SOL     OW16058   2.147   2.645   5.625
 3348SOL    HW116059   2.105   2.612   5.710
 3348SOL    HW216060   2.246   2.634   5.630
 3349SOL     OW16061   0.769   1.858   0.554
 3349SOL    HW116062   0.721   1.928   0.606
 3349SOL    HW216063   0.838   1.814   0.612
 3350SOL     OW16064   3.060   6.184   5.068
 3350SOL    HW116065   3.106   6.112   5.121
 3350SOL    HW216066   3.105   6.272   5.087
 3351SOL     OW16067   4.702   2.655   6.540
 3351SOL    HW116068   4.726   2.562   6.569
 3351SOL    HW216069   4.611   2.654   6.498
 3352SOL     OW16070   0.003   5.353   0.163
 3352SOL    HW116071   0.065   5.352   0.084
 3352SOL    HW216072   6.369   5.269   0.166
 3353SOL     OW16073   4.581   5.181   0.324
 3353SOL    HW116074   4.672   5.223   0.329
 3353SOL    HW216075   4.590   5.085   0.297
 3354SOL     OW16076   2.419   4.875   5.490
 3354SOL    HW116077   2.345   4.939   5.513
 3354SOL    HW216078   2.423   4.864   5.391
 3355SOL     OW16079   2.188   4.172   0.909
 3355SOL    HW116080   2.119   4.106   0.937
 3355SOL    HW216081   2.267   4.123   0.871
 3356SOL     OW16082   1.502   4.244   0.657
 3356SOL    HW116083   1.525   4.204   0.746
 3356SOL    HW216084   1.522   4.177   0.584
 3357SOL     OW16085   3.252   0.235   0.408
 3357SOL    HW116086   3.153   0.236   0.396
 3357SOL    HW216087   3.283   0.143   0.432
 3358SOL     OW16088   0.499   4.298   6.299
 3358SOL    HW116089   0.494   4.227   6.369
 3358SOL    HW216090   0.579   4.281   6.241
 3359SOL     OW16091   6.004   5.863   0.865
 3359SOL    HW116092   6.098   5.836   0.845
 3359SOL    HW216093   5.974   5.821   0.951
 3360SOL     OW16094   5.342   0.288   0.556
 3360SOL    HW116095   5.305   0.362   0.612
 3360SOL    HW216096   5.288   0.205   0.570
 3361SOL     OW16097   0.558   0.278   5.725
 3361SOL    HW116098   0.645   0.247   5.764
 3361SOL    HW216099   0.545   0.236   5.635
 3362SOL     OW16100   5.416   0.961   6.033
 3362SOL    HW116101   5.425   0.902   6.113
 3362SOL    HW216102   5.385   0.906   5.955
 3363SOL     OW16103   2.644   2.854   0.601
 3363SOL    HW116104   2.557   2.894   0.631
 3363SOL    HW216105   2.627   2.783   0.533
 3364SOL     OW16106   4.819   0.572   0.944
 3364SOL    HW116107   4.795   0.506   1.015
 3364SOL    HW216108   4.739   0.594   0.889
 3365SOL     OW16109   5.031   1.402   4.895
 3365SOL    HW116110   5.009   1.306   4.878
 3365SOL    HW216111   5.081   1.440   4.817
 3366SOL     OW16112   5.830   1.145   6.343
 3366SOL    HW116113   5.893   1.207   6.297
 3366SOL    HW216114   5.746   1.137   6.289
 3367SOL     OW16115   6.334   4.969   5.184
 3367SOL    HW116116   6.266   5.034   5.151
 3367SOL    HW216117   6.417   4.976   5.128
 3368SOL     OW16118   2.222   0.455   6.024
 3368SOL    HW116119   2.300   0.423   6.078
 3368SOL    HW216120   2.144   0.469   6.085
 3369SOL     OW16121   0.825   0.121   6.403
 3369SOL    HW116122   0.859   0.184   6.333
 3369SOL    HW216123   0.730   0.142   6.423
 3370SOL     OW16124   3.657   1.340   4.871
 3370SOL    HW116125   3.697   1.282   4.800
 3370SOL    HW216126   3.599   1.410   4.828
 3371SOL     OW16127   5.811   5.108   6.577
 3371SOL    HW116128   5.809   5.181   0.049
 3371SOL    HW216129   5.819   5.019   0.026
 3372SOL     OW16130   3.975   3.368   1.480
 3372SOL    HW116131   3.989   3.344   1.576
 3372SOL    HW216132   3.893   3.322   1.447
 3373SOL     OW16133   1.351   0.382   6.200
 3373SOL    HW116134   1.322   0.327   6.121
 3373SOL    HW216135   1.437   0.428   6.179
 3374SOL     OW16136   0.774   6.093   6.372
 3374SOL    HW116137   0.725   6.035   6.437
 3374SOL    HW216138   0.796   6.180   6.415
 3375SOL     OW16139   4.313   1.270   6.448
 3375SOL    HW116140   4.251   1.344   6.420
 3375SOL    HW216141   4.322   1.270   6.548
 3376SOL     OW16142   4.464   6.151   5.369
 3376SOL    HW116143   4.397   6.117   5.303
 3376SOL    HW216144   4.431   6.134   5.461
 3377SOL     OW16145   0.557   0.184   6.432
 3377SOL    HW116146   0.491   0.114   6.458
 3377SOL    HW216147   0.511   0.272   6.424
 3378SOL     OW16148   2.491   1.909   0.143
 3378SOL    HW116149   2.507   1.916   0.241
 3378SOL    HW216150   2.537   1.984   0.096
 3379SOL     OW16151   4.846   1.744   5.449
 3379SOL    HW116152   4.882   1.803   5.520
 3379SOL    HW216153   4.839   1.795   5.363
 3380SOL     OW16154   2.994   5.521   0.975
 3380SOL    HW116155   3.021   5.527   0.879
 3380SOL    HW216156   3.066   5.476   1.028
 3381SOL     OW16157   4.001   1.114   5.214
 3381SOL    HW116158   3.975   1.208   5.194
 3381SOL    HW216159   4.053   1.077   5.136
 3382SOL     OW16160   5.726   5.432   6.313
 3382SOL    HW116161   5.783   5.419   6.394
 3382SOL    HW216162   5.774   5.489   6.246
 3383SOL     OW16163   2.487   4.722   5.703
 3383SOL    HW116164   2.453   4.780   5.629
 3383SOL    HW216165   2.560   4.662   5.668
 3384SOL     OW16166   3.294   3.456   1.823
 3384SOL    HW116167   3.329   3.378   1.772
 3384SOL    HW216168   3.367   3.522   1.838
 3385SOL     OW16169   1.389   5.078   1.120
 3385SOL    HW116170   1.441   5.100   1.202
 3385SOL    HW216171   1.312   5.018   1.143
 3386SOL     OW16172   0.644   5.207   1.479
 3386SOL    HW116173   0.658   5.224   1.577
 3386SOL    HW216174   0.655   5.109   1.460
 3387SOL     OW16175   0.091   1.800   5.976
 3387SOL    HW116176   0.145   1.829   5.897
 3387SOL    HW216177   0.152   1.773   6.050
 3388SOL     OW16178   2.699   5.440   1.869
 3388SOL    HW116179   2.744   5.501   1.805
 3388SOL    HW216180   2.601   5.462   1.874
 3389SOL     OW16181   4.372   6.092   5.622
 3389SOL    HW116182   4.303   6.154   5.586
 3389SOL    HW216183   4.330   6.033   5.691
 3390SOL     OW16184   1.912   4.968   1.039
 3390SOL    HW116185   1.992   5.005   0.992
 3390SOL    HW216186   1.923   4.978   1.137
 3391SOL     OW16187   2.217   2.376   0.637
 3391SOL    HW116188   2.268   2.357   0.552
 3391SOL    HW216189   2.233   2.302   0.702
 3392SOL     OW16190   4.510   1.156   6.006
 3392SOL    HW116191   4.433   1.174   6.067
 3392SOL    HW216192   4.480   1.159   5.911
 3393SOL     OW16193   3.159   3.486   5.256
 3393SOL    HW116194   3.206   3.453   5.175
 3393SOL    HW216195   3.214   3.464   5.337
 3394SOL     OW16196   4.911   2.330   0.267
 3394SOL    HW116197   4.913   2.430   0.261
 3394SOL    HW216198   4.907   2.304   0.364
 3395SOL     OW16199   3.658   1.351   5.136
 3395SOL    HW116200   3.662   1.327   5.039
 3395SOL    HW216201   3.567   1.385   5.157
 3396SOL     OW16202   4.874   2.568   6.240
 3396SOL    HW116203   4.851   2.661   6.266
 3396SOL    HW216204   4.918   2.521   6.316
 3397SOL     OW16205   0.014   1.495   6.468
 3397SOL    HW116206   0.093   1.550   6.440
 3397SOL    HW216207   0.046   1.418   6.524
 3398SOL     OW16208   5.797   0.698   6.496
 3398SOL    HW116209   5.772   0.719   6.401
 3398SOL    HW216210   5.759   0.768   6.557
 3399SOL     OW16211   1.800   5.484   6.569
 3399SOL    HW116212   1.802   5.478   0.072
 3399SOL    HW216213   1.865   5.419   6.530
 3400SOL     OW16214   5.519   4.694   5.805
 3400SOL    HW116215   5.549   4.607   5.842
 3400SOL    HW216216   5.430   4.683   5.762
 3401SOL     OW16217   2.315   3.915   1.470
 3401SOL    HW116218   2.232   3.942   1.422
 3401SOL    HW216219   2.299   3.831   1.521
 3402SOL     OW16220   3.348   5.756   0.286
 3402SOL    HW116221   3.378   5.841   0.328
 3402SOL    HW216222   3.366   5.680   0.350
 3403SOL     OW16223   0.649   2.096   6.209
 3403SOL    HW116224   0.691   2.177   6.250
 3403SOL    HW216225   0.557   2.119   6.175
 3404SOL     OW16226   1.546   0.623   0.726
 3404SOL    HW116227   1.639   0.657   0.736
 3404SOL    HW216228   1.544   0.550   0.657
 3405SOL     OW16229   2.975   4.129   1.810
 3405SOL    HW116230   3.022   4.044   1.785
 3405SOL    HW216231   2.876   4.117   1.796
 3406SOL     OW16232   4.064   1.686   5.632
 3406SOL    HW116233   4.027   1.655   5.545
 3406SOL    HW216234   4.162   1.705   5.622
 3407SOL     OW16235   2.046   4.521   0.379
 3407SOL    HW116236   1.955   4.481   0.382
 3407SOL    HW216237   2.049   4.593   0.309
 3408SOL     OW16238   2.449   4.621   6.299
 3408SOL    HW116239   2.547   4.599   6.299
 3408SOL    HW216240   2.395   4.537   6.300
 3409SOL     OW16241   3.731   5.391   5.305
 3409SOL    HW116242   3.746   5.478   5.353
 3409SOL    HW216243   3.780   5.318   5.353
 3410SOL     OW16244   2.481   6.365   0.435
 3410SOL    HW116245   2.464   6.340   0.531
 3410SOL    HW216246   2.394   6.383   0.390
 3411SOL     OW16247   0.331   6.023   6.120
 3411SOL    HW116248   0.329   5.935   6.167
 3411SOL    HW216249   0.426   6.054   6.112
 3412SOL     OW16250   4.353   5.312   6.509
 3412SOL    HW116251   4.403   5.348   6.588
 3412SOL    HW216252   4.395   5.347   6.425
 3413SOL     OW16253   2.375   5.251   4.684
 3413SOL    HW116254   2.457   5.280   4.733
 3413SOL    HW216255   2.398   5.180   4.618
 3414SOL     OW16256   3.056   6.104   0.828
 3414SOL    HW116257   3.091   6.194   0.802
 3414SOL    HW216258   3.031   6.052   0.747
 3415SOL     OW16259   1.179   3.640   6.079
 3415SOL    HW116260   1.257   3.671   6.133
 3415SOL    HW216261   1.208   3.564   6.020
 3416SOL     OW16262   5.458   3.012   0.347
 3416SOL    HW116263   5.438   2.922   0.387
 3416SOL    HW216264   5.408   3.021   0.261
 3417SOL     OW16265   0.503   3.879   5.045
 3417SOL    HW116266   0.536   3.893   4.952
 3417SOL    HW216267   0.435   3.806   5.046
 3418SOL     OW16268   5.907   1.055   0.585
 3418SOL    HW116269   5.908   0.994   0.664
 3418SOL    HW216270   5.923   1.001   0.502
 3419SOL     OW16271   6.168   5.472   6.268
 3419SOL    HW116272   6.135   5.470   6.362
 3419SOL    HW216273   6.095   5.503   6.207
 3420SOL     OW16274   5.436   4.556   6.379
 3420SOL    HW116275   5.500   4.598   6.445
 3420SOL    HW216276   5.454   4.592   6.288
 3421SOL     OW16277   5.430   3.177   0.575
 3421SOL    HW116278   5.461   3.117   0.501
 3421SOL    HW216279   5.341   3.216   0.551
 3422SOL     OW16280   0.075   1.955   6.457
 3422SOL    HW116281   0.029   2.028   6.507
 3422SOL    HW216282   0.119   1.893   6.522
 3423SOL     OW16283   1.576   3.394   1.655
 3423SOL    HW116284   1.493   3.376   1.707
 3423SOL    HW216285   1.654   3.349   1.699
 3424SOL     OW16286   0.928   5.302   6.462
 3424SOL    HW116287   0.945   5.212   6.502
 3424SOL    HW216288   0.997   5.366   6.493
 3425SOL     OW16289   3.740   2.185   6.486
 3425SOL    HW116290   3.652   2.180   6.439
 3425SOL    HW216291   3.744   2.267   6.542
 3426SOL     OW16292   5.621   4.302   1.082
 3426SOL    HW116293   5.691   4.302   1.010
 3426SOL    HW216294   5.645   4.237   1.153
 3427SOL     OW16295   4.719   2.105   0.797
 3427SOL    HW116296   4.742   2.068   0.707
 3427SOL    HW216297   4.725   2.031   0.865
 3428SOL     OW16298   4.632   0.922   5.321
 3428SOL    HW116299   4.702   0.994   5.317
 3428SOL    HW216300   4.581   0.920   5.235
 3429SOL     OW16301   4.408   5.524   0.492
 3429SOL    HW116302   4.492   5.491   0.536
 3429SOL    HW216303   4.364   5.449   0.443
 3430SOL     OW16304   0.646   6.031   1.680
 3430SOL    HW116305   0.640   6.129   1.703
 3430SOL    HW216306   0.712   6.019   1.606
 3431SOL     OW16307   1.618   1.349   0.374
 3431SOL    HW116308   1.626   1.356   0.275
 3431SOL    HW216309   1.692   1.293   0.410
 3432SOL     OW16310   3.887   5.382   0.317
 3432SOL    HW116311   3.961   5.390   0.250
 3432SOL    HW216312   3.891   5.460   0.380
 3433SOL     OW16313   3.139   3.498   0.512
 3433SOL    HW116314   3.077   3.438   0.564
 3433SOL    HW216315   3.171   3.572   0.571
 3434SOL     OW16316   4.319   3.385   5.303
 3434SOL    HW116317   4.353   3.314   5.241
 3434SOL    HW216318   4.224   3.366   5.327
 3435SOL     OW16319   0.661   2.478   5.819
 3435SOL    HW116320   0.688   2.542   5.747
 3435SOL    HW216321   0.563   2.484   5.835
 3436SOL     OW16322   1.252   4.177   5.423
 3436SOL    HW116323   1.244   4.229   5.338
 3436SOL    HW216324   1.278   4.083   5.402
 3437SOL     OW16325   2.927   3.666   1.119
 3437SOL    HW116326   2.949   3.681   1.023
 3437SOL    HW216327   3.011   3.650   1.171
 3438SOL     OW16328   2.170   3.587   0.076
 3438SOL    HW116329   2.269   3.572   0.088
 3438SOL    HW216330   2.153   3.623   6.581
 3439SOL     OW16331   1.393   0.768   5.729
 3439SOL    HW116332   1.467   0.799   5.669
 3439SOL    HW216333   1.313   0.826   5.716
 3440SOL     OW16334   3.918   0.772   0.393
 3440SOL    HW116335   3.937   0.828   0.312
 3440SOL    HW216336   3.879   0.830   0.464
 3441SOL     OW16337   4.582   2.930   6.550
 3441SOL    HW116338   4.518   2.935   0.030
 3441SOL    HW216339   4.655   2.997   6.563
 3442SOL     OW16340   0.472   1.530   0.260
 3442SOL    HW116341   0.523   1.561   0.340
 3442SOL    HW216342   0.522   1.554   0.177
 3443SOL     OW16343   1.615   1.724   0.064
 3443SOL    HW116344   1.648   1.804   0.015
 3443SOL    HW216345   1.647   1.727   0.159
 3444SOL     OW16346   5.859   1.367   0.311
 3444SOL    HW116347   5.857   1.370   0.211
 3444SOL    HW216348   5.954   1.371   0.342
 3445SOL     OW16349   0.494   4.099   5.857
 3445SOL    HW116350   0.479   4.049   5.942
 3445SOL    HW216351   0.580   4.069   5.815
 3446SOL     OW16352   1.713   5.314   5.814
 3446SOL    HW116353   1.618   5.336   5.832
 3446SOL    HW216354   1.772   5.368   5.874
 3447SOL     OW16355   0.061   5.765   1.354
 3447SOL    HW116356   0.156   5.761   1.386
 3447SOL    HW216357   0.025   5.672   1.343
 3448SOL     OW16358   0.905   4.351   0.477
 3448SOL    HW116359   0.863   4.425   0.424
 3448SOL    HW216360   0.996   4.379   0.507
 3449SOL     OW16361   4.002   4.899   0.278
 3449SOL    HW116362   3.952   4.936   0.199
 3449SOL    HW216363   4.046   4.813   0.252
 3450SOL     OW16364   0.598   2.954   6.435
 3450SOL    HW116365   0.517   2.936   6.379
 3450SOL    HW216366   0.646   3.034   6.399
 3451SOL     OW16367   2.214   6.382   6.334
 3451SOL    HW116368   2.137   6.348   6.389
 3451SOL    HW216369   2.208   0.038   6.327
 3452SOL     OW16370   5.162   1.498   0.257
 3452SOL    HW116371   5.102   1.444   0.198
 3452SOL    HW216372   5.107   1.568   0.304
 3453SOL     OW16373   2.792   2.031   0.215
 3453SOL    HW116374   2.770   2.029   0.313
 3453SOL    HW216375   2.839   1.947   0.190
 3454SOL     OW16376   5.451   3.986   5.084
 3454SOL    HW116377   5.509   4.031   5.152
 3454SOL    HW216378   5.457   4.035   4.997
 3455SOL     OW16379   5.038   0.371   0.339
 3455SOL    HW116380   5.084   0.444   0.390
 3455SOL    HW216381   5.001   0.304   0.403
 3456SOL     OW16382   3.266   3.450   1.468
 3456SOL    HW116383   3.308   3.381   1.408
 3456SOL    HW216384   3.317   3.456   1.553
 3457SOL     OW16385   4.647   2.059   5.983
 3457SOL    HW116386   4.669   1.967   5.951
 3457SOL    HW216387   4.716   2.124   5.951
 3458SOL     OW16388   5.427   0.363   0.303
 3458SOL    HW116389   5.461   0.456   0.292
 3458SOL    HW216390   5.392   0.350   0.396
 3459SOL     OW16391   1.078   1.902   0.680
 3459SOL    HW116392   1.043   1.811   0.661
 3459SOL    HW216393   1.153   1.923   0.617
 3460SOL     OW16394   6.069   1.554   6.321
 3460SOL    HW116395   5.985   1.589   6.364
 3460SOL    HW216396   6.145   1.614   6.343
 3461SOL     OW16397   5.512   3.811   0.939
 3461SOL    HW116398   5.507   3.713   0.920
 3461SOL    HW216399   5.430   3.856   0.905
 3462SOL     OW16400   1.275   0.870   0.115
 3462SOL    HW116401   1.176   0.880   0.104
 3462SOL    HW216402   1.299   0.773   0.115
 3463SOL     OW16403   5.357   2.876   6.343
 3463SOL    HW116404   5.275   2.853   6.396
 3463SOL    HW216405   5.371   2.807   6.272
 3464SOL     OW16406   0.592   6.298   5.724
 3464SOL    HW116407   0.669   6.340   5.676
 3464SOL    HW216408   0.506   6.334   5.687
 3465SOL     OW16409   6.262   0.015   0.002
 3465SOL    HW116410   6.314   6.418   6.523
 3465SOL    HW216411   6.190   0.074   6.562
 3466SOL     OW16412   3.875   4.198   1.122
 3466SOL    HW116413   3.801   4.157   1.070
 3466SOL    HW216414   3.871   4.297   1.113
 3467SOL     OW16415   6.022   1.749   0.643
 3467SOL    HW116416   6.070   1.714   0.563
 3467SOL    HW216417   6.002   1.846   0.632
 3468SOL     OW16418   4.425   2.782   0.285
 3468SOL    HW116419   4.363   2.786   0.363
 3468SOL    HW216420   4.518   2.766   0.316
 3469SOL     OW16421   1.675   5.214   6.200
 3469SOL    HW116422   1.600   5.235   6.137
 3469SOL    HW216423   1.652   5.245   6.292
 3470SOL     OW16424   5.913   6.350   0.153
 3470SOL    HW116425   5.852   6.380   0.226
 3470SOL    HW216426   5.892   6.403   0.070
 3471SOL     OW16427   5.145   1.941   5.039
 3471SOL    HW116428   5.046   1.930   5.047
 3471SOL    HW216429   5.165   1.999   4.960
 3472SOL     OW16430   0.284   3.519   5.266
 3472SOL    HW116431   0.339   3.436   5.260
 3472SOL    HW216432   0.187   3.495   5.264
 3473SOL     OW16433   4.099   0.272   4.878
 3473SOL    HW116434   4.150   0.198   4.920
 3473SOL    HW216435   4.112   0.356   4.930
 3474SOL     OW16436   2.181   0.345   5.777
 3474SOL    HW116437   2.182   0.379   5.871
 3474SOL    HW216438   2.239   0.264   5.770
 3475SOL     OW16439   3.726   4.332   6.594
 3475SOL    HW116440   3.675   4.407   6.551
 3475SOL    HW216441   3.675   4.247   6.582
 3476SOL     OW16442   3.160   6.176   0.551
 3476SOL    HW116443   3.193   6.104   0.490
 3476SOL    HW216444   3.210   6.261   0.531
 3477SOL     OW16445   1.971   2.832   5.546
 3477SOL    HW116446   2.048   2.775   5.574
 3477SOL    HW216447   1.903   2.776   5.498
 3478SOL     OW16448   6.332   5.475   1.068
 3478SOL    HW116449   6.274   5.535   1.123
 3478SOL    HW216450   6.286   5.386   1.057
 3479SOL     OW16451   2.569   4.499   0.290
 3479SOL    HW116452   2.636   4.539   0.227
 3479SOL    HW216453   2.562   4.401   0.273
 3480SOL     OW16454   3.462   4.819   1.168
 3480SOL    HW116455   3.493   4.900   1.219
 3480SOL    HW216456   3.396   4.768   1.223
 3481SOL     OW16457   2.861   1.451   5.636
 3481SOL    HW116458   2.925   1.374   5.634
 3481SOL    HW216459   2.769   1.419   5.613
 3482SOL     OW16460   6.377   1.459   6.178
 3482SOL    HW116461   0.050   1.467   6.138
 3482SOL    HW216462   6.385   1.452   6.277
 3483SOL     OW16463   4.791   0.089   0.901
 3483SOL    HW116464   4.879   0.136   0.890
 3483SOL    HW216465   4.765   0.089   0.998
 3484SOL     OW16466   5.755   1.679   0.663
 3484SOL    HW116467   5.854   1.692   0.661
 3484SOL    HW216468   5.710   1.766   0.644
 3485SOL     OW16469   2.768   1.012   6.482
 3485SOL    HW116470   2.747   1.083   6.548
 3485SOL    HW216471   2.838   0.951   6.519
 3486SOL     OW16472   1.022   4.153   5.577
 3486SOL    HW116473   1.095   4.149   5.509
 3486SOL    HW216474   1.043   4.222   5.645
 3487SOL     OW16475   3.149   3.925   6.440
 3487SOL    HW116476   3.149   3.831   6.406
 3487SOL    HW216477   3.059   3.967   6.424
 3488SOL     OW16478   1.646   1.106   5.719
 3488SOL    HW116479   1.606   1.039   5.656
 3488SOL    HW216480   1.725   1.150   5.675
 3489SOL     OW16481   5.481   2.193   1.341
 3489SOL    HW116482   5.551   2.192   1.270
 3489SOL    HW216483   5.524   2.192   1.432
 3490SOL     OW16484   4.460   0.491   1.373
 3490SOL    HW116485   4.528   0.472   1.444
 3490SOL    HW216486   4.384   0.542   1.412
 3491SOL     OW16487   6.306   5.522   0.790
 3491SOL    HW116488   6.223   5.470   0.767
 3491SOL    HW216489   6.343   5.489   0.877
 3492SOL     OW16490   5.627   0.382   5.618
 3492SOL    HW116491   5.566   0.351   5.545
 3492SOL    HW216492   5.639   0.309   5.685
 3493SOL     OW16493   4.680   0.736   5.701
 3493SOL    HW116494   4.638   0.724   5.791
 3493SOL    HW216495   4.763   0.680   5.695
 3494SOL     OW16496   3.603   4.858   6.469
 3494SOL    HW116497   3.630   4.806   6.387
 3494SOL    HW216498   3.533   4.925   6.444
 3495SOL     OW16499   2.115   5.682   5.542
 3495SOL    HW116500   2.047   5.654   5.609
 3495SOL    HW216501   2.202   5.636   5.560
 3496SOL     OW16502   5.961   3.518   0.386
 3496SOL    HW116503   6.052   3.496   0.350
 3496SOL    HW216504   5.938   3.455   0.460
 3497SOL     OW16505   2.327   0.409   5.438
 3497SOL    HW116506   2.303   0.502   5.412
 3497SOL    HW216507   2.419   0.388   5.406
 3498SOL     OW16508   1.960   0.972   5.527
 3498SOL    HW116509   2.058   0.987   5.514
 3498SOL    HW216510   1.911   0.997   5.443
 3499SOL     OW16511   4.799   4.824   6.583
 3499SOL    HW116512   4.850   4.746   0.023
 3499SOL    HW216513   4.836   4.849   6.493
 3500SOL     OW16514   3.958   1.377   4.779
 3500SOL    HW116515   3.879   1.319   4.757
 3500SOL    HW216516   4.040   1.321   4.786
 3501SOL     OW16517   0.108   1.323   0.416
 3501SOL    HW116518   0.049   1.344   0.494
 3501SOL    HW216519   0.156   1.406   0.388
 3502SOL     OW16520   2.333   0.062   4.946
 3502SOL    HW116521   2.280   0.108   5.017
 3502SOL    HW216522   2.366   0.130   4.880
 3503SOL     OW16523   1.627   1.279   5.332
 3503SOL    HW116524   1.631   1.207   5.262
 3503SOL    HW216525   1.542   1.270   5.384
 3504SOL     OW16526   2.390   3.296   6.569
 3504SOL    HW116527   2.428   3.356   0.043
 3504SOL    HW216528   2.338   3.350   6.503
 3505SOL     OW16529   0.920   1.748   4.944
 3505SOL    HW116530   0.848   1.710   5.002
 3505SOL    HW216531   0.914   1.709   4.852
 3506SOL     OW16532   3.031   2.669   5.966
 3506SOL    HW116533   2.999   2.579   5.998
 3506SOL    HW216534   3.052   2.726   6.046
 3507SOL     OW16535   5.172   3.241   0.506
 3507SOL    HW116536   5.111   3.258   0.584
 3507SOL    HW216537   5.126   3.180   0.441
 3508SOL     OW16538   3.804   4.792   0.046
 3508SOL    HW116539   3.761   4.770   0.133
 3508SOL    HW216540   3.734   4.809   6.573
 3509SOL     OW16541   6.374   2.900   0.555
 3509SOL    HW116542   6.305   2.829   0.537
 3509SOL    HW216543   6.404   2.940   0.469
 3510SOL     OW16544   5.809   5.732   0.385
 3510SOL    HW116545   5.887   5.789   0.359
 3510SOL    HW216546   5.798   5.732   0.484
 3511SOL     OW16547   5.143   3.977   0.186
 3511SOL    HW116548   5.087   4.030   0.249
 3511SOL    HW216549   5.222   4.032   0.158
 3512SOL     OW16550   1.346   2.947   5.273
 3512SOL    HW116551   1.432   2.915   5.314
 3512SOL    HW216552   1.312   2.878   5.208
 3513SOL     OW16553   4.810   3.845   0.724
 3513SOL    HW116554   4.856   3.900   0.654
 3513SOL    HW216555   4.724   3.889   0.750
 3514SOL     OW16556   1.953   0.912   1.481
 3514SOL    HW116557   2.000   0.995   1.453
 3514SOL    HW216558   1.897   0.930   1.562
 3515SOL     OW16559   3.144   3.440   6.130
 3515SOL    HW116560   3.161   3.438   6.031
 3515SOL    HW216561   3.227   3.412   6.178
 3516SOL     OW16562   3.373   3.331   6.219
 3516SOL    HW116563   3.382   3.367   6.312
 3516SOL    HW216564   3.460   3.292   6.190
 3517SOL     OW16565   0.017   2.173   5.247
 3517SOL    HW116566   0.009   2.237   5.170
 3517SOL    HW216567   0.058   2.088   5.215
 3518SOL     OW16568   0.660   5.556   5.494
 3518SOL    HW116569   0.620   5.539   5.404
 3518SOL    HW216570   0.757   5.577   5.484
 3519SOL     OW16571   5.129   0.543   6.570
 3519SOL    HW116572   5.140   0.477   0.048
 3519SOL    HW216573   5.084   0.499   6.493
 3520SOL     OW16574   1.547   4.803   0.103
 3520SOL    HW116575   1.571   4.781   0.008
 3520SOL    HW216576   1.589   4.890   0.129
 3521SOL     OW16577   1.298   5.215   5.766
 3521SOL    HW116578   1.334   5.233   5.858
 3521SOL    HW216579   1.209   5.171   5.774
 3522SOL     OW16580   4.259   2.545   4.865
 3522SOL    HW116581   4.313   2.605   4.806
 3522SOL    HW216582   4.317   2.510   4.939
 3523SOL     OW16583   2.772   1.754   5.339
 3523SOL    HW116584   2.796   1.814   5.262
 3523SOL    HW216585   2.672   1.750   5.348
 3524SOL     OW16586   0.654   5.782   5.257
 3524SOL    HW116587   0.687   5.854   5.195
 3524SOL    HW216588   0.688   5.693   5.226
 3525SOL     OW16589   4.994   0.812   6.326
 3525SOL    HW116590   4.902   0.817   6.366
 3525SOL    HW216591   5.062   0.809   6.399
 3526SOL     OW16592   0.226   5.438   0.745
 3526SOL    HW116593   0.185   5.498   0.677
 3526SOL    HW216594   0.155   5.396   0.800
 3527SOL     OW16595   3.942   6.209   5.996
 3527SOL    HW116596   3.847   6.223   6.026
 3527SOL    HW216597   4.003   6.259   6.057
 3528SOL     OW16598   2.996   5.591   0.185
 3528SOL    HW116599   2.974   5.663   0.120
 3528SOL    HW216600   3.021   5.507   0.136
 3529SOL     OW16601   4.413   3.332   6.587
 3529SOL    HW116602   4.357   3.278   0.053
 3529SOL    HW216603   4.357   3.404   6.547
 3530SOL     OW16604   0.055   4.613   1.387
 3530SOL    HW116605   0.003   4.628   1.303
 3530SOL    HW216606   6.414   4.629   1.466
 3531SOL     OW16607   2.798   1.182   0.404
 3531SOL    HW116608   2.895   1.157   0.406
 3531SOL    HW216609   2.771   1.208   0.311
 3532SOL     OW16610   3.970   1.341   0.528
 3532SOL    HW116611   3.937   1.328   0.621
 3532SOL    HW216612   3.893   1.337   0.464
 3533SOL     OW16613   1.744   1.502   0.759
 3533SOL    HW116614   1.743   1.542   0.851
 3533SOL    HW216615   1.656   1.458   0.741
 3534SOL     OW16616   3.037   0.018   4.487
 3534SOL    HW116617   2.949   6.436   4.446
 3534SOL    HW216618   3.074   6.384   4.538
 3535SOL     OW16619   5.899   4.076   0.512
 3535SOL    HW116620   5.891   4.162   0.462
 3535SOL    HW216621   5.959   4.090   0.591
 3536SOL     OW16622   1.261   4.555   6.431
 3536SOL    HW116623   1.201   4.513   6.362
 3536SOL    HW216624   1.228   4.533   6.522
 3537SOL     OW16625   0.931   5.976   0.962
 3537SOL    HW116626   1.002   6.043   0.982
 3537SOL    HW216627   0.870   5.968   1.040
 3538SOL     OW16628   1.329   1.368   6.344
 3538SOL    HW116629   1.420   1.395   6.376
 3538SOL    HW216630   1.332   1.272   6.316
 3539SOL     OW16631   3.302   2.725   0.380
 3539SOL    HW116632   3.267   2.661   0.311
 3539SOL    HW216633   3.301   2.818   0.343
 3540SOL     OW16634   3.692   4.083   0.957
 3540SOL    HW116635   3.627   4.158   0.969
 3540SOL    HW216636   3.698   4.060   0.860
 3541SOL     OW16637   1.007   1.620   6.493
 3541SOL    HW116638   0.991   1.526   6.525
 3541SOL    HW216639   1.045   1.618   6.401
 3542SOL     OW16640   4.732   3.631   1.178
 3542SOL    HW116641   4.806   3.698   1.182
 3542SOL    HW216642   4.770   3.539   1.165
 3543SOL     OW16643   3.412   4.241   6.319
 3543SOL    HW116644   3.391   4.161   6.263
 3543SOL    HW216645   3.333   4.265   6.375
 3544SOL     OW16646   2.517   4.793   6.514
 3544SOL    HW116647   2.467   4.758   6.594
 3544SOL    HW216648   2.492   4.739   6.433
 3545SOL     OW16649   3.097   1.514   5.806
 3545SOL    HW116650   3.050   1.540   5.721
 3545SOL    HW216651   3.195   1.507   5.790
 3546SOL     OW16652   5.570   2.877   1.046
 3546SOL    HW116653   5.517   2.804   1.088
 3546SOL    HW216654   5.553   2.879   0.947
 3547SOL     OW16655   2.785   3.414   1.132
 3547SOL    HW116656   2.826   3.490   1.082
 3547SOL    HW216657   2.767   3.442   1.226
 3548SOL     OW16658   2.966   0.456   5.616
 3548SOL    HW116659   2.944   0.377   5.672
 3548SOL    HW216660   2.887   0.518   5.614
 3549SOL     OW16661   3.262   2.431   6.114
 3549SOL    HW116662   3.265   2.398   6.019
 3549SOL    HW216663   3.167   2.441   6.143
 3550SOL     OW16664   5.429   1.500   0.191
 3550SOL    HW116665   5.331   1.504   0.210
 3550SOL    HW216666   5.445   1.450   0.106
 3551SOL     OW16667   3.806   2.801   5.142
 3551SOL    HW116668   3.870   2.878   5.145
 3551SOL    HW216669   3.742   2.813   5.066
 3552SOL     OW16670   1.015   0.351   0.314
 3552SOL    HW116671   0.915   0.340   0.311
 3552SOL    HW216672   1.055   0.305   0.235
 3553SOL     OW16673   2.042   0.316   0.652
 3553SOL    HW116674   2.054   0.250   0.726
 3553SOL    HW216675   2.067   0.408   0.684
 3554SOL     OW16676   1.971   4.441   6.083
 3554SOL    HW116677   1.907   4.427   6.008
 3554SOL    HW216678   2.061   4.463   6.047
 3555SOL     OW16679   0.588   2.780   5.284
 3555SOL    HW116680   0.562   2.840   5.208
 3555SOL    HW216681   0.644   2.705   5.249
 3556SOL     OW16682   6.235   5.490   5.081
 3556SOL    HW116683   6.332   5.490   5.059
 3556SOL    HW216684   6.183   5.528   5.005
 3557SOL     OW16685   2.972   5.669   5.857
 3557SOL    HW116686   2.925   5.591   5.897
 3557SOL    HW216687   2.936   5.686   5.765
 3558SOL     OW16688   1.943   1.269   1.706
 3558SOL    HW116689   1.896   1.182   1.720
 3558SOL    HW216690   2.000   1.263   1.624
 3559SOL     OW16691   1.534   1.001   1.421
 3559SOL    HW116692   1.562   1.079   1.477
 3559SOL    HW216693   1.612   0.968   1.368
 3560SOL     OW16694   1.356   1.231   5.417
 3560SOL    HW116695   1.264   1.240   5.455
 3560SOL    HW216696   1.366   1.292   5.338
 3561SOL     OW16697   2.750   3.367   0.137
 3561SOL    HW116698   2.831   3.423   0.120
 3561SOL    HW216699   2.696   3.360   0.053
 3562SOL     OW16700   2.800   0.701   5.545
 3562SOL    HW116701   2.752   0.640   5.482
 3562SOL    HW216702   2.737   0.732   5.616
 3563SOL     OW16703   0.916   2.963   5.583
 3563SOL    HW116704   0.973   2.905   5.526
 3563SOL    HW216705   0.822   2.963   5.549
 3564SOL     OW16706   1.514   2.618   5.607
 3564SOL    HW116707   1.542   2.674   5.529
 3564SOL    HW216708   1.414   2.609   5.607
 3565SOL     OW16709   1.620   6.121   0.797
 3565SOL    HW116710   1.606   6.212   0.758
 3565SOL    HW216711   1.683   6.128   0.874
 3566SOL     OW16712   3.690   1.796   0.310
 3566SOL    HW116713   3.679   1.864   0.237
 3566SOL    HW216714   3.600   1.760   0.336
 3567SOL     OW16715   5.947   4.492   1.114
 3567SOL    HW116716   5.989   4.563   1.057
 3567SOL    HW216717   5.893   4.431   1.057
 3568SOL     OW16718   4.980   2.792   0.672
 3568SOL    HW116719   4.900   2.735   0.693
 3568SOL    HW216720   5.060   2.734   0.661
 3569SOL     OW16721   2.571   2.974   0.877
 3569SOL    HW116722   2.609   2.970   0.970
 3569SOL    HW216723   2.492   3.035   0.877
 3570SOL     OW16724   3.724   5.110   0.312
 3570SOL    HW116725   3.794   5.121   0.241
 3570SOL    HW216726   3.752   5.160   0.394
 3571SOL     OW16727   0.531   2.509   0.581
 3571SOL    HW116728   0.598   2.466   0.520
 3571SOL    HW216729   0.554   2.488   0.676
 3572SOL     OW16730   5.054   0.876   0.767
 3572SOL    HW116731   5.010   0.836   0.847
 3572SOL    HW216732   5.154   0.867   0.777
 3573SOL     OW16733   5.171   1.498   5.856
 3573SOL    HW116734   5.119   1.431   5.805
 3573SOL    HW216735   5.168   1.476   5.954
 3574SOL     OW16736   3.075   0.584   6.100
 3574SOL    HW116737   3.150   0.622   6.046
 3574SOL    HW216738   3.082   0.485   6.103
 3575SOL     OW16739   5.351   6.171   0.248
 3575SOL    HW116740   5.451   6.163   0.251
 3575SOL    HW216741   5.325   6.267   0.255
 3576SOL     OW16742   4.108   3.107   6.179
 3576SOL    HW116743   4.025   3.057   6.203
 3576SOL    HW216744   4.176   3.043   6.144
 3577SOL     OW16745   3.501   2.985   5.333
 3577SOL    HW116746   3.455   2.901   5.302
 3577SOL    HW216747   3.528   3.040   5.254
 3578SOL     OW16748   0.977   6.252   0.675
 3578SOL    HW116749   1.014   6.243   0.768
 3578SOL    HW216750   1.021   6.185   0.615
 3579SOL     OW16751   1.366   4.136   0.299
 3579SOL    HW116752   1.288   4.077   0.278
 3579SOL    HW216753   1.420   4.096   0.373
 3580SOL     OW16754   0.367   3.793   5.797
 3580SOL    HW116755   0.463   3.780   5.774
 3580SOL    HW216756   0.336   3.882   5.761
 3581SOL     OW16757   5.242   2.041   1.395
 3581SOL    HW116758   5.287   2.130   1.382
 3581SOL    HW216759   5.311   1.973   1.418
 3582SOL     OW16760   5.478   0.244   5.372
 3582SOL    HW116761   5.523   0.155   5.360
 3582SOL    HW216762   5.496   0.302   5.293
 3583SOL     OW16763   0.423   0.465   0.219
 3583SOL    HW116764   0.366   0.505   0.291
 3583SOL    HW216765   0.380   0.480   0.130
 3584SOL     OW16766   0.076   1.276   1.216
 3584SOL    HW116767   0.122   1.285   1.305
 3584SOL    HW216768   0.029   1.188   1.212
 3585SOL     OW16769   0.896   5.450   0.541
 3585SOL    HW116770   0.868   5.365   0.585
 3585SOL    HW216771   0.820   5.486   0.486
 3586SOL     OW16772   3.987   0.138   0.512
 3586SOL    HW116773   3.904   0.162   0.462
 3586SOL    HW216774   4.056   0.209   0.497
 3587SOL     OW16775   5.831   3.389   1.045
 3587SOL    HW116776   5.859   3.300   1.009
 3587SOL    HW216777   5.854   3.394   1.142
 3588SOL     OW16778   1.230   1.815   1.087
 3588SOL    HW116779   1.211   1.828   1.184
 3588SOL    HW216780   1.328   1.821   1.070
 3589SOL     OW16781   5.669   1.526   6.437
 3589SOL    HW116782   5.748   1.586   6.429
 3589SOL    HW216783   5.620   1.524   6.349
 3590SOL     OW16784   4.666   5.421   1.238
 3590SOL    HW116785   4.571   5.389   1.245
 3590SOL    HW216786   4.711   5.377   1.160
 3591SOL     OW16787   1.418   3.317   1.440
 3591SOL    HW116788   1.379   3.396   1.391
 3591SOL    HW216789   1.473   3.349   1.516
 3592SOL     OW16790   4.043   1.916   5.778
 3592SOL    HW116791   4.073   1.834   5.731
 3592SOL    HW216792   3.950   1.939   5.751
 3593SOL     OW16793   1.178   5.742   6.552
 3593SOL    HW116794   1.266   5.738   0.003
 3593SOL    HW216795   1.143   5.836   6.556
 3594SOL     OW16796   1.099   1.455   0.476
 3594SOL    HW116797   1.048   1.372   0.454
 3594SOL    HW216798   1.196   1.441   0.453
 3595SOL     OW16799   5.871   1.709   6.448
 3595SOL    HW116800   5.908   1.679   6.536
 3595SOL    HW216801   5.885   1.807   6.438
 3596SOL     OW16802   6.058   4.488   6.497
 3596SOL    HW116803   5.989   4.533   6.441
 3596SOL    HW216804   6.054   4.525   6.590
 3597SOL     OW16805   2.348   3.688   5.558
 3597SOL    HW116806   2.352   3.754   5.482
 3597SOL    HW216807   2.262   3.637   5.553
 3598SOL     OW16808   5.787   1.128   5.934
 3598SOL    HW116809   5.860   1.061   5.942
 3598SOL    HW216810   5.798   1.179   5.848
 3599SOL     OW16811   3.611   0.948   0.863
 3599SOL    HW116812   3.587   0.933   0.767
 3599SOL    HW216813   3.614   1.047   0.881
 3600SOL     OW16814   0.185   1.980   0.886
 3600SOL    HW116815   0.259   2.047   0.887
 3600SOL    HW216816   0.186   1.929   0.972
 3601SOL     OW16817   2.672   5.594   0.446
 3601SOL    HW116818   2.723   5.680   0.436
 3601SOL    HW216819   2.576   5.614   0.467
 3602SOL     OW16820   6.154   1.687   0.414
 3602SOL    HW116821   6.121   1.712   0.322
 3602SOL    HW216822   6.198   1.598   0.410
 3603SOL     OW16823   1.438   1.551   5.006
 3603SOL    HW116824   1.424   1.650   5.015
 3603SOL    HW216825   1.470   1.530   4.914
 3604SOL     OW16826   2.445   6.138   0.223
 3604SOL    HW116827   2.530   6.143   0.170
 3604SOL    HW216828   2.419   6.229   0.253
 3605SOL     OW16829   0.101   3.804   1.195
 3605SOL    HW116830   0.160   3.841   1.267
 3605SOL    HW216831   0.007   3.801   1.228
 3606SOL     OW16832   1.561   1.583   6.203
 3606SOL    HW116833   1.509   1.599   6.119
 3606SOL    HW216834   1.498   1.568   6.279
 3607SOL     OW16835   0.525   1.015   1.140
 3607SOL    HW116836   0.607   0.988   1.191
 3607SOL    HW216837   0.445   1.010   1.200
 3608SOL     OW16838   0.889   3.410   6.186
 3608SOL    HW116839   0.972   3.360   6.162
 3608SOL    HW216840   0.865   3.473   6.112
 3609SOL     OW16841   0.719   3.368   0.734
 3609SOL    HW116842   0.755   3.358   0.827
 3609SOL    HW216843   0.795   3.388   0.671
 3610SOL     OW16844   6.213   1.938   1.549
 3610SOL    HW116845   6.148   1.948   1.623
 3610SOL    HW216846   6.302   1.973   1.578
 3611SOL     OW16847   3.595   4.101   6.536
 3611SOL    HW116848   3.534   4.042   6.590
 3611SOL    HW216849   3.562   4.107   6.442
 3612SOL     OW16850   5.037   5.649   5.894
 3612SOL    HW116851   5.101   5.679   5.965
 3612SOL    HW216852   5.014   5.726   5.834
 3613SOL     OW16853   6.386   4.701   0.432
 3613SOL    HW116854   6.395   4.793   0.394
 3613SOL    HW216855   6.384   4.634   0.358
 3614SOL     OW16856   5.418   3.752   0.189
 3614SOL    HW116857   5.339   3.732   0.132
 3614SOL    HW216858   5.389   3.766   0.283
 3615SOL     OW16859   1.745   5.320   0.212
 3615SOL    HW116860   1.747   5.252   0.285
 3615SOL    HW216861   1.682   5.394   0.237
 3616SOL     OW16862   5.476   3.525   0.902
 3616SOL    HW116863   5.552   3.481   0.853
 3616SOL    HW216864   5.399   3.537   0.841
 3617SOL     OW16865   0.778   0.010   5.593
 3617SOL    HW116866   0.855   6.409   5.547
 3617SOL    HW216867   0.724   0.060   5.525
 3618SOL     OW16868   6.013   1.300   6.220
 3618SOL    HW116869   6.041   1.388   6.258
 3618SOL    HW216870   6.016   1.304   6.120
 3619SOL     OW16871   2.983   0.089   5.379
 3619SOL    HW116872   3.054   0.019   5.365
 3619SOL    HW216873   2.912   0.052   5.439
 3620SOL     OW16874   2.281   0.250   6.454
 3620SOL    HW116875   2.349   0.301   6.401
 3620SOL    HW216876   2.321   0.221   6.540
 3621SOL     OW16877   4.897   2.824   0.066
 3621SOL    HW116878   4.807   2.791   0.037
 3621SOL    HW216879   4.891   2.921   0.088
 3622SOL     OW16880   1.987   4.987   0.467
 3622SOL    HW116881   2.085   5.009   0.459
 3622SOL    HW216882   1.958   4.935   0.387
 3623SOL     OW16883   3.721   2.439   0.053
 3623SOL    HW116884   3.716   2.503   6.573
 3623SOL    HW216885   3.817   2.421   0.076
 3624SOL     OW16886   5.241   5.481   6.457
 3624SOL    HW116887   5.227   5.579   6.443
 3624SOL    HW216888   5.326   5.453   6.412
 3625SOL     OW16889   3.622   6.435   5.859
 3625SOL    HW116890   3.656   0.078   5.824
 3625SOL    HW216891   3.525   6.425   5.836
 3626SOL     OW16892   3.669   0.565   6.298
 3626SOL    HW116893   3.650   0.655   6.258
 3626SOL    HW216894   3.745   0.572   6.363
 3627SOL     OW16895   6.141   4.332   0.255
 3627SOL    HW116896   6.201   4.292   0.186
 3627SOL    HW216897   6.178   4.315   0.346
 3628SOL     OW16898   1.159   3.627   5.473
 3628SOL    HW116899   1.190   3.631   5.568
 3628SOL    HW216900   1.077   3.569   5.468
 3629SOL     OW16901   0.594   2.304   1.534
 3629SOL    HW116902   0.553   2.365   1.601
 3629SOL    HW216903   0.660   2.354   1.479
 3630SOL     OW16904   6.169   3.778   0.112
 3630SOL    HW116905   6.124   3.854   0.160
 3630SOL    HW216906   6.200   3.710   0.178
 3631SOL     OW16907   5.586   4.150   5.850
 3631SOL    HW116908   5.652   4.077   5.869
 3631SOL    HW216909   5.575   4.160   5.751
 3632SOL     OW16910   1.887   1.373   5.354
 3632SOL    HW116911   1.875   1.472   5.353
 3632SOL    HW216912   1.801   1.328   5.329
 3633SOL     OW16913   1.502   6.205   0.450
 3633SOL    HW116914   1.427   6.152   0.490
 3633SOL    HW216915   1.494   6.301   0.478
 3634SOL     OW16916   3.905   1.638   0.365
 3634SOL    HW116917   3.818   1.686   0.352
 3634SOL    HW216918   3.976   1.704   0.388
 3635SOL     OW16919   3.478   0.915   0.609
 3635SOL    HW116920   3.378   0.919   0.604
 3635SOL    HW216921   3.510   0.828   0.572
 3636SOL     OW16922   6.387   1.046   0.635
 3636SOL    HW116923   6.371   1.074   0.540
 3636SOL    HW216924   6.307   1.067   0.690
 3637SOL     OW16925   3.335   3.680   5.840
 3637SOL    HW116926   3.408   3.647   5.901
 3637SOL    HW216927   3.362   3.666   5.745
 3638SOL     OW16928   1.360   1.977   0.259
 3638SOL    HW116929   1.457   1.960   0.244
 3638SOL    HW216930   1.305   1.915   0.203
 3639SOL     OW16931   5.103   0.179   4.359
 3639SOL    HW116932   5.088   0.108   4.428
 3639SOL    HW216933   5.190   0.224   4.376
 3640SOL     OW16934   5.602   1.257   0.312
 3640SOL    HW116935   5.698   1.278   0.332
 3640SOL    HW216936   5.548   1.341   0.317
 3641SOL     OW16937   0.347   0.024   6.584
 3641SOL    HW116938   0.270   6.431   0.040
 3641SOL    HW216939   0.397   0.090   0.044
 3642SOL     OW16940   3.316   0.579   5.945
 3642SOL    HW116941   3.266   0.512   5.892
 3642SOL    HW216942   3.381   0.627   5.886
 3643SOL     OW16943   4.515   5.079   6.575
 3643SOL    HW116944   4.464   5.163   6.555
 3643SOL    HW216945   4.610   5.089   6.546
 3644SOL     OW16946   4.685   1.959   0.307
 3644SOL    HW116947   4.747   2.005   0.243
 3644SOL    HW216948   4.634   1.888   0.260
 3645SOL     OW16949   1.000   3.218   6.395
 3645SOL    HW116950   1.087   3.196   6.438
 3645SOL    HW216951   0.991   3.317   6.386
 3646SOL     OW16952   6.279   1.145   0.148
 3646SOL    HW116953   6.236   1.227   0.112
 3646SOL    HW216954   6.372   1.137   0.111
 3647SOL     OW16955   2.675   5.684   5.141
 3647SOL    HW116956   2.703   5.635   5.058
 3647SOL    HW216957   2.620   5.763   5.115
 3648SOL     OW16958   1.886   3.710   5.997
 3648SOL    HW116959   1.808   3.705   6.060
 3648SOL    HW216960   1.969   3.730   6.048
 3649SOL     OW16961   4.217   5.339   5.425
 3649SOL    HW116962   4.278   5.321   5.502
 3649SOL    HW216963   4.172   5.254   5.397
 3650SOL     OW16964   5.737   1.124   5.488
 3650SOL    HW116965   5.760   1.119   5.391
 3650SOL    HW216966   5.682   1.206   5.505
 3651SOL     OW16967   4.319   5.101   0.926
 3651SOL    HW116968   4.228   5.121   0.890
 3651SOL    HW216969   4.358   5.024   0.877
 3652SOL     OW16970   2.002   5.409   0.473
 3652SOL    HW116971   2.035   5.345   0.543
 3652SOL    HW216972   1.903   5.421   0.481
 3653SOL     OW16973   2.067   4.035   6.284
 3653SOL    HW116974   2.068   3.954   6.226
 3653SOL    HW216975   2.003   4.103   6.247
 3654SOL     OW16976   3.613   4.653   5.651
 3654SOL    HW116977   3.527   4.687   5.614
 3654SOL    HW216978   3.598   4.565   5.696
 3655SOL     OW16979   4.128   4.668   0.215
 3655SOL    HW116980   4.162   4.641   0.125
 3655SOL    HW216981   4.092   4.587   0.262
 3656SOL     OW16982   0.427   5.596   5.663
 3656SOL    HW116983   0.354   5.547   5.615
 3656SOL    HW216984   0.515   5.575   5.619
 3657SOL     OW16985   1.555   4.697   0.455
 3657SOL    HW116986   1.550   4.790   0.492
 3657SOL    HW216987   1.579   4.634   0.529
 3658SOL     OW16988   3.506   5.737   0.810
 3658SOL    HW116989   3.543   5.715   0.719
 3658SOL    HW216990   3.575   5.717   0.880
 3659SOL     OW16991   0.777   3.908   5.334
 3659SOL    HW116992   0.849   3.877   5.396
 3659SOL    HW216993   0.775   4.008   5.333
 3660SOL     OW16994   4.153   3.788   5.757
 3660SOL    HW116995   4.205   3.706   5.780
 3660SOL    HW216996   4.100   3.772   5.674
 3661SOL     OW16997   0.076   3.512   0.144
 3661SOL    HW116998   0.107   3.607   0.151
 3661SOL    HW216999   0.118   3.458   0.217
 3662SOL     OW17000   3.940   4.960   6.464
 3662SOL    HW117001   3.870   5.004   6.407
 3662SOL    HW217002   3.896   4.907   6.536
 3663SOL     OW17003   0.344   2.547   1.926
 3663SOL    HW117004   0.399   2.609   1.981
 3663SOL    HW217005   0.351   2.454   1.963
 3664SOL     OW17006   0.809   0.636   1.141
 3664SOL    HW117007   0.821   0.564   1.209
 3664SOL    HW217008   0.792   0.723   1.187
 3665SOL     OW17009   0.852   1.863   5.385
 3665SOL    HW117010   0.921   1.826   5.323
 3665SOL    HW217011   0.764   1.868   5.339
 3666SOL     OW17012   3.075   1.737   1.379
 3666SOL    HW117013   2.979   1.766   1.379
 3666SOL    HW217014   3.085   1.653   1.433
 3667SOL     OW17015   2.492   1.822   1.017
 3667SOL    HW117016   2.485   1.792   1.112
 3667SOL    HW217017   2.475   1.744   0.956
 3668SOL     OW17018   4.028   5.833   5.571
 3668SOL    HW117019   4.004   5.841   5.474
 3668SOL    HW217020   3.961   5.883   5.626
 3669SOL     OW17021   1.742   5.440   0.546
 3669SOL    HW117022   1.648   5.409   0.561
 3669SOL    HW217023   1.757   5.525   0.595
 3670SOL     OW17024   3.217   2.499   4.949
 3670SOL    HW117025   3.312   2.508   4.917
 3670SOL    HW217026   3.210   2.419   5.009
 3671SOL     OW17027   1.374   1.101   6.284
 3671SOL    HW117028   1.298   1.058   6.235
 3671SOL    HW217029   1.456   1.098   6.226
 3672SOL     OW17030   3.070   2.813   6.211
 3672SOL    HW117031   3.144   2.755   6.244
 3672SOL    HW217032   3.102   2.908   6.205
 3673SOL     OW17033   3.785   5.639   5.440
 3673SOL    HW117034   3.829   5.707   5.381
 3673SOL    HW217035   3.697   5.675   5.472
 3674SOL     OW17036   5.668   1.543   0.430
 3674SOL    HW117037   5.706   1.603   0.501
 3674SOL    HW217038   5.742   1.492   0.386
 3675SOL     OW17039   3.219   4.882   0.749
 3675SOL    HW117040   3.312   4.852   0.769
 3675SOL    HW217041   3.156   4.805   0.758
 3676SOL     OW17042   1.607   3.159   5.043
 3676SOL    HW117043   1.647   3.246   5.014
 3676SOL    HW217044   1.678   3.090   5.049
 3677SOL     OW17045   5.178   5.142   0.728
 3677SOL    HW117046   5.123   5.121   0.647
 3677SOL    HW217047   5.141   5.094   0.807
 3678SOL     OW17048   0.976   0.789   5.879
 3678SOL    HW117049   1.037   0.759   5.952
 3678SOL    HW217050   1.014   0.760   5.791
 3679SOL     OW17051   5.423   5.095   6.156
 3679SOL    HW117052   5.456   5.042   6.078
 3679SOL    HW217053   5.342   5.051   6.195
 3680SOL     OW17054   3.415   4.920   0.081
 3680SOL    HW117055   3.480   4.940   0.008
 3680SOL    HW217056   3.417   4.994   0.148
 3681SOL     OW17057   4.255   2.804   0.505
 3681SOL    HW117058   4.334   2.791   0.564
 3681SOL    HW217059   4.199   2.879   0.540
 3682SOL     OW17060   4.241   6.127   6.497
 3682SOL    HW117061   4.182   6.110   6.575
 3682SOL    HW217062   4.299   6.207   6.516
 3683SOL     OW17063   1.555   4.036   0.476
 3683SOL    HW117064   1.534   3.947   0.516
 3683SOL    HW217065   1.634   4.029   0.416
 3684SOL     OW17066   3.724   3.022   0.128
 3684SOL    HW117067   3.818   2.989   0.138
 3684SOL    HW217068   3.716   3.072   0.041
 3685SOL     OW17069   1.806   2.671   5.398
 3685SOL    HW117070   1.839   2.668   5.304
 3685SOL    HW217071   1.806   2.579   5.437
 3686SOL     OW17072   3.329   0.881   5.517
 3686SOL    HW117073   3.299   0.865   5.423
 3686SOL    HW217074   3.414   0.933   5.516
 3687SOL     OW17075   5.614   4.443   5.891
 3687SOL    HW117076   5.694   4.463   5.948
 3687SOL    HW217077   5.615   4.346   5.865
 3688SOL     OW17078   2.983   3.841   1.732
 3688SOL    HW117079   3.040   3.773   1.777
 3688SOL    HW217080   2.944   3.802   1.648
 3689SOL     OW17081   1.731   0.523   0.273
 3689SOL    HW117082   1.776   0.541   0.185
 3689SOL    HW217083   1.768   0.439   0.312
 3690SOL     OW17084   2.295   5.527   5.672
 3690SOL    HW117085   2.373   5.589   5.666
 3690SOL    HW217086   2.328   5.433   5.684
 3691SOL     OW17087   3.639   1.165   0.023
 3691SOL    HW117088   3.626   1.137   0.118
 3691SOL    HW217089   3.732   1.141   6.591
 3692SOL     OW17090   0.529   1.526   1.148
 3692SOL    HW117091   0.453   1.544   1.211
 3692SOL    HW217092   0.517   1.436   1.106
 3693SOL     OW17093   0.635   0.434   5.427
 3693SOL    HW117094   0.703   0.405   5.360
 3693SOL    HW217095   0.585   0.353   5.460
 3694SOL     OW17096   4.847   3.018   0.774
 3694SOL    HW117097   4.758   2.984   0.803
 3694SOL    HW217098   4.901   2.943   0.737
 3695SOL     OW17099   5.761   2.353   5.788
 3695SOL    HW117100   5.810   2.439   5.773
 3695SOL    HW217101   5.728   2.319   5.700
 3696SOL     OW17102   0.172   2.378   1.010
 3696SOL    HW117103   0.166   2.438   0.930
 3696SOL    HW217104   0.227   2.422   1.081
 3697SOL     OW17105   4.726   5.636   1.074
 3697SOL    HW117106   4.818   5.666   1.098
 3697SOL    HW217107   4.693   5.572   1.144
 3698SOL     OW17108   5.467   5.360   2.129
 3698SOL    HW117109   5.452   5.264   2.151
 3698SOL    HW217110   5.420   5.418   2.195
 3699SOL     OW17111   0.857   0.816   6.377
 3699SOL    HW117112   0.903   0.758   6.310
 3699SOL    HW217113   0.774   0.853   6.338
 3700SOL     OW17114   2.984   2.763   0.489
 3700SOL    HW117115   3.075   2.803   0.483
 3700SOL    HW217116   2.956   2.729   0.400
 3701SOL     OW17117   6.113   6.116   6.188
 3701SOL    HW117118   6.017   6.091   6.201
 3701SOL    HW217119   6.150   6.065   6.110
 3702SOL     OW17120   1.002   3.430   0.674
 3702SOL    HW117121   1.028   3.515   0.628
 3702SOL    HW217122   1.010   3.442   0.773
 3703SOL     OW17123   2.202   5.474   0.670
 3703SOL    HW117124   2.274   5.478   0.739
 3703SOL    HW217125   2.212   5.551   0.607
 3704SOL     OW17126   2.751   5.627   1.659
 3704SOL    HW117127   2.843   5.628   1.620
 3704SOL    HW217128   2.714   5.720   1.661
 3705SOL     OW17129   5.659   6.097   5.028
 3705SOL    HW117130   5.611   6.172   5.074
 3705SOL    HW217131   5.674   6.121   4.932
 3706SOL     OW17132   0.192   6.080   5.751
 3706SOL    HW117133   0.103   6.076   5.707
 3706SOL    HW217134   0.237   5.991   5.742
 3707SOL     OW17135   3.647   6.349   0.897
 3707SOL    HW117136   3.713   6.299   0.953
 3707SOL    HW217137   3.585   6.284   0.854
 3708SOL     OW17138   5.419   1.821   6.121
 3708SOL    HW117139   5.414   1.773   6.034
 3708SOL    HW217140   5.344   1.887   6.126
 3709SOL     OW17141   4.089   3.060   5.556
 3709SOL    HW117142   4.108   3.083   5.651
 3709SOL    HW217143   4.132   3.128   5.496
 3710SOL     OW17144   3.988   5.955   1.153
 3710SOL    HW117145   4.014   5.938   1.058
 3710SOL    HW217146   4.045   6.027   1.191
 3711SOL     OW17147   1.782   2.939   0.704
 3711SOL    HW117148   1.794   2.901   0.612
 3711SOL    HW217149   1.696   2.989   0.709
 3712SOL     OW17150   0.913   1.559   1.069
 3712SOL    HW117151   0.890   1.523   0.979
 3712SOL    HW217152   0.963   1.645   1.059
 3713SOL     OW17153   5.159   0.123   5.952
 3713SOL    HW117154   5.093   0.066   5.902
 3713SOL    HW217155   5.248   0.119   5.907
 3714SOL     OW17156   0.822   3.653   5.636
 3714SOL    HW117157   0.873   3.738   5.622
 3714SOL    HW217158   0.826   3.597   5.554
 3715SOL     OW17159   4.490   1.085   5.031
 3715SOL    HW117160   4.509   1.003   4.976
 3715SOL    HW217161   4.416   1.064   5.095
 3716SOL     OW17162   3.151   1.955   5.339
 3716SOL    HW117163   3.229   1.895   5.355
 3716SOL    HW217164   3.134   1.963   5.241
 3717SOL     OW17165   2.901   1.701   6.457
 3717SOL    HW117166   2.899   1.719   6.359
 3717SOL    HW217167   2.883   1.786   6.506
 3718SOL     OW17168   2.668   4.588   5.543
 3718SOL    HW117169   2.751   4.546   5.504
 3718SOL    HW217170   2.594   4.582   5.476
 3719SOL     OW17171   5.559   3.604   5.871
 3719SOL    HW117172   5.612   3.549   5.935
 3719SOL    HW217173   5.617   3.629   5.793
 3720SOL     OW17174   1.940   5.152   5.867
 3720SOL    HW117175   1.992   5.181   5.787
 3720SOL    HW217176   1.848   5.189   5.863
 3721SOL     OW17177   3.974   0.568   6.356
 3721SOL    HW117178   3.969   0.476   6.395
 3721SOL    HW217179   4.053   0.573   6.294
 3722SOL     OW17180   5.826   0.082   6.542
 3722SOL    HW117181   5.842   0.171   6.586
 3722SOL    HW217182   5.746   0.088   6.483
 3723SOL     OW17183   2.442   1.543   5.250
 3723SOL    HW117184   2.398   1.465   5.294
 3723SOL    HW217185   2.422   1.543   5.152
 3724SOL     OW17186   5.184   4.364   0.275
 3724SOL    HW117187   5.217   4.279   0.315
 3724SOL    HW217188   5.257   4.433   0.278
 3725SOL     OW17189   2.692   3.638   6.225
 3725SOL    HW117190   2.741   3.605   6.144
 3725SOL    HW217191   2.677   3.737   6.217
 3726SOL     OW17192   5.898   6.019   5.710
 3726SOL    HW117193   5.876   5.930   5.751
 3726SOL    HW217194   5.848   6.029   5.624
 3727SOL     OW17195   6.101   0.504   1.052
 3727SOL    HW117196   6.100   0.592   1.004
 3727SOL    HW217197   6.175   0.448   1.017
 3728SOL     OW17198   0.004   0.901   6.301
 3728SOL    HW117199   6.409   0.826   6.365
 3728SOL    HW217200   6.350   0.969   6.314
 3729SOL     OW17201   1.464   5.667   5.082
 3729SOL    HW117202   1.504   5.759   5.080
 3729SOL    HW217203   1.378   5.670   5.132
 3730SOL     OW17204   0.737   5.690   6.310
 3730SOL    HW117205   0.827   5.713   6.274
 3730SOL    HW217206   0.719   5.746   6.391
 3731SOL     OW17207   5.436   0.707   6.270
 3731SOL    HW117208   5.433   0.655   6.355
 3731SOL    HW217209   5.359   0.678   6.211
 3732SOL     OW17210   0.274   3.697   1.608
 3732SOL    HW117211   0.330   3.681   1.689
 3732SOL    HW217212   0.301   3.633   1.536
 3733SOL     OW17213   1.075   3.566   1.098
 3733SOL    HW117214   0.994   3.590   1.153
 3733SOL    HW217215   1.156   3.567   1.156
 3734SOL     OW17216   3.961   3.409   1.077
 3734SOL    HW117217   4.046   3.364   1.048
 3734SOL    HW217218   3.897   3.341   1.112
 3735SOL     OW17219   2.937   5.306   5.374
 3735SOL    HW117220   2.973   5.217   5.401
 3735SOL    HW217221   2.891   5.298   5.285
 3736SOL     OW17222   4.312   0.598   0.809
 3736SOL    HW117223   4.274   0.675   0.861
 3736SOL    HW217224   4.321   0.519   0.870
 3737SOL     OW17225   4.215   5.463   0.836
 3737SOL    HW117226   4.289   5.495   0.895
 3737SOL    HW217227   4.247   5.385   0.782
 3738SOL     OW17228   2.309   4.161   6.074
 3738SOL    HW117229   2.359   4.178   5.989
 3738SOL    HW217230   2.211   4.155   6.055
 3739SOL     OW17231   1.717   6.214   5.814
 3739SOL    HW117232   1.805   6.182   5.848
 3739SOL    HW217233   1.726   6.308   5.780
 3740SOL     OW17234   0.818   5.341   0.259
 3740SOL    HW117235   0.892   5.301   0.313
 3740SOL    HW217236   0.818   5.300   0.167
 3741SOL     OW17237   1.281   4.826   0.227
 3741SOL    HW117238   1.360   4.780   0.186
 3741SOL    HW217239   1.300   4.924   0.233
 3742SOL     OW17240   1.147   5.233   0.725
 3742SOL    HW117241   1.192   5.250   0.812
 3742SOL    HW217242   1.149   5.134   0.706
 3743SOL     OW17243   1.668   0.511   1.142
 3743SOL    HW117244   1.589   0.540   1.088
 3743SOL    HW217245   1.664   0.552   1.233
 3744SOL     OW17246   4.085   4.335   5.568
 3744SOL    HW117247   4.162   4.330   5.505
 3744SOL    HW217248   4.002   4.302   5.522
 3745SOL     OW17249   3.808   4.805   1.243
 3745SOL    HW117250   3.789   4.769   1.152
 3745SOL    HW217251   3.742   4.768   1.308
 3746SOL     OW17252   1.908   6.335   0.740
 3746SOL    HW117253   1.817   6.373   0.757
 3746SOL    HW217254   1.899   6.246   0.695
 3747SOL     OW17255   0.156   3.457   0.652
 3747SOL    HW117256   0.148   3.555   0.673
 3747SOL    HW217257   0.065   3.417   0.642
 3748SOL     OW17258   5.739   3.227   5.777
 3748SOL    HW117259   5.797   3.309   5.778
 3748SOL    HW217260   5.763   3.170   5.699
 3749SOL     OW17261   5.908   5.215   5.986
 3749SOL    HW117262   5.890   5.147   5.915
 3749SOL    HW217263   5.827   5.223   6.045
 3750SOL     OW17264   2.513   2.615   1.194
 3750SOL    HW117265   2.586   2.674   1.159
 3750SOL    HW217266   2.495   2.542   1.128
 3751SOL     OW17267   2.552   5.078   5.732
 3751SOL    HW117268   2.545   5.097   5.634
 3751SOL    HW217269   2.474   5.023   5.762
 3752SOL     OW17270   5.042   6.030   6.095
 3752SOL    HW117271   4.949   5.998   6.109
 3752SOL    HW217272   5.102   5.952   6.077
 3753SOL     OW17273   4.258   1.252   6.095
 3753SOL    HW117274   4.300   1.334   6.136
 3753SOL    HW217275   4.170   1.234   6.139
 3754SOL     OW17276   2.424   6.116   0.949
 3754SOL    HW117277   2.522   6.127   0.932
 3754SOL    HW217278   2.388   6.198   0.992
 3755SOL     OW17279   1.362   3.450   5.972
 3755SOL    HW117280   1.451   3.480   6.005
 3755SOL    HW217281   1.375   3.380   5.901
 3756SOL     OW17282   3.850   0.342   0.336
 3756SOL    HW117283   3.828   0.437   0.312
 3756SOL    HW217284   3.811   0.281   0.267
 3757SOL     OW17285   1.828   3.003   5.064
 3757SOL    HW117286   1.889   2.944   5.011
 3757SOL    HW217287   1.854   3.000   5.160
 3758SOL     OW17288   5.409   4.897   0.805
 3758SOL    HW117289   5.314   4.909   0.776
 3758SOL    HW217290   5.417   4.813   0.858
 3759SOL     OW17291   3.429   0.447   6.415
 3759SOL    HW117292   3.501   0.482   6.355
 3759SOL    HW217293   3.419   0.508   6.494
 3760SOL     OW17294   5.394   5.605   6.095
 3760SOL    HW117295   5.464   5.661   6.140
 3760SOL    HW217296   5.435   5.520   6.062
 3761SOL     OW17297   3.417   5.441   1.612
 3761SOL    HW117298   3.383   5.519   1.663
 3761SOL    HW217299   3.462   5.377   1.675
 3762SOL     OW17300   6.266   0.284   5.284
 3762SOL    HW117301   6.329   0.359   5.301
 3762SOL    HW217302   6.185   0.318   5.235
 3763SOL     OW17303   6.288   1.364   5.413
 3763SOL    HW117304   6.245   1.378   5.502
 3763SOL    HW217305   6.315   1.453   5.374
 3764SOL     OW17306   4.443   1.123   0.674
 3764SOL    HW117307   4.359   1.114   0.621
 3764SOL    HW217308   4.446   1.053   0.745
 3765SOL     OW17309   2.140   4.912   6.175
 3765SOL    HW117310   2.055   4.912   6.121
 3765SOL    HW217311   2.211   4.961   6.125
 3766SOL     OW17312   1.765   3.816   1.309
 3766SOL    HW117313   1.765   3.809   1.409
 3766SOL    HW217314   1.777   3.911   1.282
 3767SOL     OW17315   1.487   1.384   0.729
 3767SOL    HW117316   1.461   1.294   0.694
 3767SOL    HW217317   1.426   1.453   0.691
 3768SOL     OW17318   4.308   4.583   1.137
 3768SOL    HW117319   4.280   4.493   1.106
 3768SOL    HW217320   4.277   4.652   1.071
 3769SOL     OW17321   3.723   2.719   0.321
 3769SOL    HW117322   3.685   2.627   0.316
 3769SOL    HW217323   3.684   2.775   0.249
 3770SOL     OW17324   6.127   5.092   0.776
 3770SOL    HW117325   6.133   5.185   0.812
 3770SOL    HW217326   6.049   5.045   0.816
 3771SOL     OW17327   4.129   1.731   6.271
 3771SOL    HW117328   4.127   1.741   6.172
 3771SOL    HW217329   4.069   1.799   6.313
 3772SOL     OW17330   4.820   5.057   4.906
 3772SOL    HW117331   4.746   5.039   4.841
 3772SOL    HW217332   4.850   5.152   4.897
 3773SOL     OW17333   1.308   6.141   0.150
 3773SOL    HW117334   1.389   6.116   0.097
 3773SOL    HW217335   1.317   6.235   0.183
 3774SOL     OW17336   3.928   5.013   4.757
 3774SOL    HW117337   3.847   5.031   4.702
 3774SOL    HW217338   4.008   5.055   4.714
 3775SOL     OW17339   5.218   5.099   5.280
 3775SOL    HW117340   5.147   5.092   5.210
 3775SOL    HW217341   5.295   5.153   5.246
 3776SOL     OW17342   5.322   3.564   5.039
 3776SOL    HW117343   5.422   3.561   5.030
 3776SOL    HW217344   5.290   3.658   5.035
 3777SOL     OW17345   3.004   2.258   0.025
 3777SOL    HW117346   3.036   2.251   0.119
 3777SOL    HW217347   2.967   2.350   0.009
 3778SOL     OW17348   5.303   6.260   5.963
 3778SOL    HW117349   5.353   6.291   6.044
 3778SOL    HW217350   5.329   6.315   5.884
 3779SOL     OW17351   1.892   3.063   0.916
 3779SOL    HW117352   1.832   3.042   0.993
 3779SOL    HW217353   1.866   3.008   0.837
 3780SOL     OW17354   2.781   1.503   0.669
 3780SOL    HW117355   2.759   1.531   0.763
 3780SOL    HW217356   2.810   1.407   0.669
 3781SOL     OW17357   1.035   1.774   5.202
 3781SOL    HW117358   1.064   1.683   5.231
 3781SOL    HW217359   1.001   1.769   5.108
 3782SOL     OW17360   2.160   3.497   6.186
 3782SOL    HW117361   2.088   3.434   6.215
 3782SOL    HW217362   2.189   3.474   6.093
 3783SOL     OW17363   2.842   5.996   0.210
 3783SOL    HW117364   2.771   6.054   0.172
 3783SOL    HW217365   2.931   6.041   0.201
   6.41840   6.44350   6.59650
